          AutoDock 4.2 Release 4.2.6   
         (C) 1989-2012 The Scripps Research Institute
        AutoDock comes with ABSOLUTELY NO WARRANTY.
        AutoDock is free software, and you are welcome
        to redistribute it under certain conditions;
        for details type 'autodock4 -C'

                     main.cc  $Revision: 1.213 $

                   Compiled on Jul 18 2014 at 15:34:58


This file was created at:			4:04 22" p.m., 09/29/2025
                   on host:		"ACER"
Current Working Directory = "D:\Protein_go_brrr\autodock\final\AncA\heme"

      ________________________________________________________________

                   SETTING UP DEFAULT PARAMETER LIBRARY
      ________________________________________________________________


Random number generator was seeded with values 108116, 1759154662.
Docking parameter file (DPF) used for this docking:		D:/Protein_go_brrr/autodock/final/AncA/heme/dock.dpf
DPF> autodock_parameter_version 4.2       # used by autodock to validate parameter set

	Autodock parameter version 4.2.
DPF> outlev 1                             # diagnostic output level

Output Level = 1  ADT-COMPATIBLE OUTPUT DURING DOCKING.
DPF> intelec                              # calculate internal electrostatics

Electrostatic energies will be calculated for all non-bonds between moving atoms.
DPF> seed pid time                        # seeds for random generator

Random number generator was seeded with values 108116, 1759154662.
DPF> ligand_types A C NA OA N HD          # atoms types in ligand

DPF> fld opt_AncA.maps.fld                # grid_data_file

Opening Grid Map Dimensions file:		opt_AncA.maps.fld
Grid Point Spacing =				0.414 Angstroms

Even Number of User-specified Grid Points =	126 x-points
						126 y-points
						126 z-points

Coordinates of Central Grid Point of Maps =	(-0.462, -1.415, -1.889)
Macromolecule file used to create Grid Maps =	opt_AncA.pdbqt
Grid Parameter file used to create Grid Maps =	D:/Protein_go_brrr/autodock/final/AncA/heme/grid.gpf
Minimum coordinates in grid = (-26.544, -27.497, -27.971)
Maximum coordinates in grid = (25.620, 24.667, 24.193)

DPF> map opt_AncA.A.map                   # atom-specific affinity map

DPF> map opt_AncA.C.map                   # atom-specific affinity map

DPF> map opt_AncA.NA.map                  # atom-specific affinity map

DPF> map opt_AncA.OA.map                  # atom-specific affinity map

DPF> map opt_AncA.N.map                   # atom-specific affinity map

DPF> map opt_AncA.HD.map                  # atom-specific affinity map

DPF> elecmap opt_AncA.e.map               # electrostatics map

DPF> desolvmap opt_AncA.d.map             # desolvation map

DPF> move heme_opt.pdbqt                  # small molecule

1,4-interactions will be _ignored_ in the non-bonded internal energy calculation.

Ligand PDBQT file = "heme_opt.pdbqt"

INPUT LIGAND PDBQT FILE:
________________________

INPUT-LIGAND-PDBQT: REMARK  13 active torsions:
INPUT-LIGAND-PDBQT: REMARK  status: ('A' for Active; 'I' for Inactive)
INPUT-LIGAND-PDBQT: REMARK    1  A    between atoms: O_3  and  C_38 
INPUT-LIGAND-PDBQT: REMARK    2  A    between atoms: O_4  and  C_40 
INPUT-LIGAND-PDBQT: REMARK    3  A    between atoms: O_7  and  C_46 
INPUT-LIGAND-PDBQT: REMARK    4  A    between atoms: O_9  and  C_48 
INPUT-LIGAND-PDBQT: REMARK    5  A    between atoms: C_15  and  C_20 
INPUT-LIGAND-PDBQT: REMARK    6  A    between atoms: C_16  and  C_23 
INPUT-LIGAND-PDBQT: REMARK    7  A    between atoms: C_20  and  C_38 
INPUT-LIGAND-PDBQT: REMARK    8  A    between atoms: C_23  and  C_40 
INPUT-LIGAND-PDBQT: REMARK    9  A    between atoms: C_32  and  C_41 
INPUT-LIGAND-PDBQT: REMARK   10  A    between atoms: C_37  and  C_45 
INPUT-LIGAND-PDBQT: REMARK   11  A    between atoms: C_41  and  C_44 
INPUT-LIGAND-PDBQT: REMARK   12  A    between atoms: C_44  and  C_46 
INPUT-LIGAND-PDBQT: REMARK   13  A    between atoms: C_47  and  C_48 
INPUT-LIGAND-PDBQT: ROOT
INPUT-LIGAND-PDBQT: ATOM      1  O   UNL d   1      -5.458   1.707   0.620  0.00  0.00    -0.289 OA
INPUT-LIGAND-PDBQT: ATOM      2  O   UNL d   1      -2.504  -4.828  -1.607  0.00  0.00    -0.289 OA
INPUT-LIGAND-PDBQT: ATOM      3  N   UNL d   1      -2.063   1.218   0.259  0.00  0.00    -0.247 NA
INPUT-LIGAND-PDBQT: ATOM      4  N   UNL d   1      -1.851  -1.684  -0.343  0.00  0.00    -0.247 NA
INPUT-LIGAND-PDBQT: ATOM      5  N   UNL d   1       0.972  -1.489   0.166  0.00  0.00    -0.354 N 
INPUT-LIGAND-PDBQT: ATOM      6  N   UNL d   1       0.740   1.517   0.808  0.00  0.00    -0.354 N 
INPUT-LIGAND-PDBQT: ATOM      7  C   UNL d   1      -3.467   3.037   1.112  0.00  0.00     0.084 A 
INPUT-LIGAND-PDBQT: ATOM      8  C   UNL d   1      -3.784  -2.753  -1.388  0.00  0.00     0.084 A 
INPUT-LIGAND-PDBQT: ATOM      9  C   UNL d   1      -3.156  -1.511  -0.747  0.00  0.00     0.058 A 
INPUT-LIGAND-PDBQT: ATOM     10  C   UNL d   1      -2.069   2.485   0.818  0.00  0.00     0.058 A 
INPUT-LIGAND-PDBQT: ATOM     11  C   UNL d   1      -4.251   1.865   0.603  0.00  0.00     0.193 A 
INPUT-LIGAND-PDBQT: ATOM     12  C   UNL d   1      -3.288   0.840   0.089  0.00  0.00     0.109 A 
INPUT-LIGAND-PDBQT: ATOM     13  C   UNL d   1      -2.606  -3.674  -1.239  0.00  0.00     0.193 A 
INPUT-LIGAND-PDBQT: ATOM     14  C   UNL d   1      -3.721   3.188   2.614  0.00  0.00     0.026 C 
INPUT-LIGAND-PDBQT: ATOM     15  C   UNL d   1      -3.838  -0.372  -0.551  0.00  0.00     0.055 C 
INPUT-LIGAND-PDBQT: ATOM     16  C   UNL d   1      -4.060  -2.544  -2.880  0.00  0.00     0.026 C 
INPUT-LIGAND-PDBQT: ATOM     17  C   UNL d   1      -1.503  -2.907  -0.585  0.00  0.00     0.109 A 
INPUT-LIGAND-PDBQT: ATOM     18  C   UNL d   1      -0.964   3.229   1.013  0.00  0.00     0.050 C 
INPUT-LIGAND-PDBQT: ATOM     19  C   UNL d   1       0.360   2.835   0.692  0.00  0.00     0.045 A 
INPUT-LIGAND-PDBQT: ATOM     20  C   UNL d   1       0.841  -2.851   0.084  0.00  0.00     0.045 A 
INPUT-LIGAND-PDBQT: ATOM     21  C   UNL d   1      -0.229  -3.570  -0.270  0.00  0.00     0.057 C 
INPUT-LIGAND-PDBQT: ATOM     22  C   UNL d   1       2.967  -2.353   0.755  0.00  0.00    -0.019 A 
INPUT-LIGAND-PDBQT: ATOM     23  C   UNL d   1       2.221  -1.093   0.564  0.00  0.00     0.045 A 
INPUT-LIGAND-PDBQT: ATOM     24  C   UNL d   1       2.145  -3.390   0.468  0.00  0.00    -0.022 A 
INPUT-LIGAND-PDBQT: ATOM     25  C   UNL d   1       2.081   1.375   0.536  0.00  0.00     0.049 A 
INPUT-LIGAND-PDBQT: ATOM     26  C   UNL d   1       1.473   3.562   0.299  0.00  0.00    -0.018 A 
INPUT-LIGAND-PDBQT: ATOM     27  C   UNL d   1       2.552   2.632   0.183  0.00  0.00     0.003 A 
INPUT-LIGAND-PDBQT: ATOM     28  C   UNL d   1       2.739   0.132   0.742  0.00  0.00     0.052 C 
INPUT-LIGAND-PDBQT: ATOM     29  C   UNL d   1       2.440  -4.851   0.501  0.00  0.00     0.046 C 
INPUT-LIGAND-PDBQT: ATOM     30  C   UNL d   1       1.533   5.030   0.044  0.00  0.00     0.046 C 
INPUT-LIGAND-PDBQT: ATOM     31  H   UNL d   1       0.223  -0.870  -0.125  0.00  0.00     0.166 HD
INPUT-LIGAND-PDBQT: ATOM     32  H   UNL d   1       0.112   0.776   1.096  0.00  0.00     0.166 HD
INPUT-LIGAND-PDBQT: ENDROOT
INPUT-LIGAND-PDBQT: BRANCH   7  33
INPUT-LIGAND-PDBQT: ATOM     33  C   UNL d   1      -3.845   4.310   0.347  0.00  0.00     0.141 C 
INPUT-LIGAND-PDBQT: BRANCH  33  34
INPUT-LIGAND-PDBQT: ATOM     34  C   UNL d   1      -3.538   4.215  -1.123  0.00  0.00     0.306 C 
INPUT-LIGAND-PDBQT: ATOM     35  O   UNL d   1      -3.917   3.340  -1.883  0.00  0.00    -0.251 OA
INPUT-LIGAND-PDBQT: BRANCH  34  36
INPUT-LIGAND-PDBQT: ATOM     36  O   UNL d   1      -2.771   5.230  -1.559  0.00  0.00    -0.481 OA
INPUT-LIGAND-PDBQT: ATOM     37  H   UNL d   1      -2.612   5.030  -2.506  0.00  0.00     0.295 HD
INPUT-LIGAND-PDBQT: ENDBRANCH  34  36
INPUT-LIGAND-PDBQT: ENDBRANCH  33  34
INPUT-LIGAND-PDBQT: ENDBRANCH   7  33
INPUT-LIGAND-PDBQT: BRANCH  27  38
INPUT-LIGAND-PDBQT: ATOM     38  C   UNL d   1       3.894   2.967  -0.187  0.00  0.00     0.017 C 
INPUT-LIGAND-PDBQT: ATOM     39  C   UNL d   1       4.701   2.208  -0.944  0.00  0.00     0.092 C 
INPUT-LIGAND-PDBQT: BRANCH  39  40
INPUT-LIGAND-PDBQT: ATOM     40  C   UNL d   1       6.052   2.675  -1.266  0.00  0.00     0.330 C 
INPUT-LIGAND-PDBQT: ATOM     41  O   UNL d   1       6.568   3.731  -0.953  0.00  0.00    -0.246 OA
INPUT-LIGAND-PDBQT: BRANCH  40  42
INPUT-LIGAND-PDBQT: ATOM     42  O   UNL d   1       6.703   1.746  -1.983  0.00  0.00    -0.477 OA
INPUT-LIGAND-PDBQT: ATOM     43  H   UNL d   1       7.581   2.148  -2.146  0.00  0.00     0.295 HD
INPUT-LIGAND-PDBQT: ENDBRANCH  40  42
INPUT-LIGAND-PDBQT: ENDBRANCH  39  40
INPUT-LIGAND-PDBQT: ENDBRANCH  27  38
INPUT-LIGAND-PDBQT: BRANCH   8  44
INPUT-LIGAND-PDBQT: ATOM     44  C   UNL d   1      -5.015  -3.316  -0.670  0.00  0.00     0.141 C 
INPUT-LIGAND-PDBQT: BRANCH  44  45
INPUT-LIGAND-PDBQT: ATOM     45  C   UNL d   1      -4.806  -3.504   0.809  0.00  0.00     0.306 C 
INPUT-LIGAND-PDBQT: ATOM     46  O   UNL d   1      -3.825  -3.985   1.349  0.00  0.00    -0.251 OA
INPUT-LIGAND-PDBQT: BRANCH  45  47
INPUT-LIGAND-PDBQT: ATOM     47  O   UNL d   1      -5.864  -3.098   1.534  0.00  0.00    -0.481 OA
INPUT-LIGAND-PDBQT: ATOM     48  H   UNL d   1      -5.613  -3.283   2.464  0.00  0.00     0.295 HD
INPUT-LIGAND-PDBQT: ENDBRANCH  45  47
INPUT-LIGAND-PDBQT: ENDBRANCH  44  45
INPUT-LIGAND-PDBQT: ENDBRANCH   8  44
INPUT-LIGAND-PDBQT: BRANCH  22  49
INPUT-LIGAND-PDBQT: ATOM     49  C   UNL d   1       4.395  -2.426   1.210  0.00  0.00     0.048 C 
INPUT-LIGAND-PDBQT: BRANCH  49  50
INPUT-LIGAND-PDBQT: ATOM     50  C   UNL d   1       5.372  -2.242   0.049  0.00  0.00     0.125 C 
INPUT-LIGAND-PDBQT: BRANCH  50  51
INPUT-LIGAND-PDBQT: ATOM     51  C   UNL d   1       6.794  -2.339   0.524  0.00  0.00     0.305 C 
INPUT-LIGAND-PDBQT: ATOM     52  O   UNL d   1       7.189  -2.431   1.673  0.00  0.00    -0.251 OA
INPUT-LIGAND-PDBQT: BRANCH  51  53
INPUT-LIGAND-PDBQT: ATOM     53  O   UNL d   1       7.671  -2.302  -0.499  0.00  0.00    -0.481 OA
INPUT-LIGAND-PDBQT: ATOM     54  H   UNL d   1       8.547  -2.365  -0.064  0.00  0.00     0.295 HD
INPUT-LIGAND-PDBQT: ENDBRANCH  51  53
INPUT-LIGAND-PDBQT: ENDBRANCH  50  51
INPUT-LIGAND-PDBQT: ENDBRANCH  49  50
INPUT-LIGAND-PDBQT: ENDBRANCH  22  49
INPUT-LIGAND-PDBQT: TORSDOF 13
________________________________________________________________________________

Total charge on ligand                               =	-0.002 e
REMARK  13 active torsions:
REMARK  status: ('A' for Active; 'I' for Inactive)
REMARK    1  A    between atoms: O_3  and  C_38 
REMARK    2  A    between atoms: O_4  and  C_40 
REMARK    3  A    between atoms: O_7  and  C_46 
REMARK    4  A    between atoms: O_9  and  C_48 
REMARK    5  A    between atoms: C_15  and  C_20 
REMARK    6  A    between atoms: C_16  and  C_23 
REMARK    7  A    between atoms: C_20  and  C_38 
REMARK    8  A    between atoms: C_23  and  C_40 
REMARK    9  A    between atoms: C_32  and  C_41 
REMARK   10  A    between atoms: C_37  and  C_45 
REMARK   11  A    between atoms: C_41  and  C_44 
REMARK   12  A    between atoms: C_44  and  C_46 
REMARK   13  A    between atoms: C_47  and  C_48 


Number of Rotatable Bonds in Small Molecule =	13 torsions
Number of atoms in ligand:  54

Number of non-hydrogen atoms in ligand:  48

Number of vibrational degrees of freedom of ligand:  156


Number of torsional degrees of freedom = 13
Estimated loss of torsional free energy upon binding = +3.8779 kcal/mol


DPF> about 0.153 0.018 -0.028            # small molecule center

Small molecule center of rotation =	(+0.153, +0.018, -0.028)

DPF> tran0 random                         # initial coordinates/A or random

Initial translation =			(-9.023, 19.202, -8.241) Angstroms
DPF> quaternion0 random                   # initial orientation

Each run will begin with a new, random initial orientation.
Initial quaternion,  (x,y,z,w) =	( -0.935, -0.019, -0.310, -0.173 ),
DPF> dihe0 random                         # initial dihedrals (relative) or random

DPF> torsdof 13                            # torsional degrees of freedom

Number of torsional degrees of freedom = 13
Free energy coefficient for torsional degrees of freedom = 0.2983, the factory default value.

Estimated loss of torsional free energy upon binding = +3.8779 kcal/mol

DPF> rmstol 2.0                           # cluster_tolerance/A

Maximum RMS tolerance for conformational cluster analysis = 2.00 Angstroms
DPF> extnrg 1000.0                        # external grid energy

External grid energy (beyond grid map walls) = 1000.00

DPF> e0max 0.0 10000                      # max initial energy; max number of retries

Using user-specified maximum number of retries for simanneal initialization, 10000 retries.
If the simanneal initial energy is greater than e0max, 0.000,
then a new, random initial state will be created.

DPF> ga_pop_size 150                      # number of individuals in population

A population of 150 individuals will be used
DPF> ga_num_evals 25000000                # maximum number of energy evaluations

There will be at most 25000000 function evaluations used.
DPF> ga_num_generations 27000             # maximum number of generations

The GA will run for at most 27000 generations.
DPF> ga_elitism 1                         # number of top individuals to survive to next generation

The 1 best will be preserved each GA generation.
DPF> ga_mutation_rate 0.02                # rate of gene mutation

The mutation rate is 0.020000.
DPF> ga_crossover_rate 0.8                # rate of crossover

The crossover rate is 0.800000.
DPF> ga_window_size 10                    # 

The GA's selection window is 10 generations.
DPF> ga_cauchy_alpha 0.0                  # Alpha parameter of Cauchy distribution

The alpha parameter (for the Cauchy distribution) is being set to 0.000000.
DPF> ga_cauchy_beta 1.0                   # Beta parameter Cauchy distribution

The beta parameter (for the Cauchy distribution) is being set to 1.000000.
DPF> set_ga                               # set the above parameters for GA or LGA

DPF> sw_max_its 300                       # iterations of Solis & Wets local search

Solis & Wets algorithms will perform at most 300 iterations.
DPF> sw_max_succ 4                        # consecutive successes before changing rho

Solis & Wets algorithms expand rho every 4 in a row successes.
DPF> sw_max_fail 4                        # consecutive failures before changing rho

Solis & Wets algorithms contract rho every 4 in a row failures.
DPF> sw_rho 1.0                           # size of local search space to sample

rho is set to 1.000000.
DPF> sw_lb_rho 0.01                       # lower bound on rho

rho will never get smaller than 0.010000.
DPF> ls_search_freq 0.06                  # probability of performing local search on individual

Local search will be performed with frequency 0.060000.
DPF> set_psw1                             # set the above pseudo-Solis & Wets parameters

Creating a new Local Search object using the pseudo-Solis-Wets algorithm (pSW1) with the current settings.

DPF> unbound_model bound                  # state of unbound ligand

DPF> ga_run 100                           # do this many hybrid GA-LS runs

centering ligand on specified point: 0.153 0.018 -0.028
Furthest true ligand atom from "about" center is 8.726 Angstroms (maxrad).
Number of requested GA dockings = 100 runs
Unbound model to be used is 'same as bound' [AutoDock 4.2 default].

	BEGINNING GENETIC ALGORITHM DOCKING 1 of 100
Run: 1 Seed: 551614216 447951887 [ Run 1 of 100 GA/GALS ]
Beginning LAMARCKIAN GENETIC ALGORITHM (LGA), with a maximum of 25000000 energy evaluations.

Final-Value: -13.272


	FINAL GENETIC ALGORITHM DOCKED STATE
	_______________________________________________


Detailed state:  trans 13.136 -3.320 -14.875 quatxyzw -0.068732 -0.276042 0.958547 -0.016251 center 0.153 0.018 -0.028 ntor 13 117.8841 96.6458 161.3554 -121.0683 -131.5801 -30.0826 -53.4624 -13.2084 31.3674 -122.8007 15.7237 -2.4926 50.5148
State:	 13.136  -3.320 -14.875  -0.069 -0.276  0.959 -178.138    117.88   96.65  161.36 -121.07 -131.58  -30.08  -53.46  -13.21   31.37 -122.80   15.72   -2.49   50.51

DOCKED: MODEL        1
DOCKED: USER    Run = 1
DOCKED: USER    DPF = D:/Protein_go_brrr/autodock/final/AncA/heme/dock.dpf
DOCKED: USER  
DOCKED: USER    Estimated Free Energy of Binding    =   -6.24 kcal/mol  [=(1)+(2)+(3)-(4)]
DOCKED: USER    Estimated Inhibition Constant, Ki   =   26.81 uM (micromolar)  [Temperature = 298.15 K]
DOCKED: USER    
DOCKED: USER    (1) Final Intermolecular Energy     =  -10.11 kcal/mol
DOCKED: USER        vdW + Hbond + desolv Energy     =   -9.22 kcal/mol
DOCKED: USER        Electrostatic Energy            =   -0.89 kcal/mol
DOCKED: USER    (2) Final Total Internal Energy     =   -3.16 kcal/mol
DOCKED: USER    (3) Torsional Free Energy           =   +3.88 kcal/mol
DOCKED: USER    (4) Unbound System's Energy  [=(2)] =   -3.16 kcal/mol
DOCKED: USER    
DOCKED: USER    
DOCKED: USER    NEWDPF move heme_opt.pdbqt
DOCKED: USER    NEWDPF about 0.153000 0.018000 -0.028000
DOCKED: USER    NEWDPF tran0 13.136389 -3.320105 -14.875452
DOCKED: USER    NEWDPF quaternion0 -0.068732 -0.276042 0.958547 -0.016251
DOCKED: USER    NEWDPF axisangle0 -0.068741 -0.276079 0.958674 -178.137671
DOCKED: USER    NEWDPF quat0 -0.068741 -0.276079 0.958674 -178.137671
DOCKED: USER    NEWDPF dihe0 117.88 96.65 161.36 -121.07 -131.58 -30.08 -53.46 -13.21 31.37 -122.80 15.72 -2.49 50.51 
DOCKED: USER  keepresnum = 1 
DOCKED: USER  
DOCKED: REMARK  13 active torsions:
DOCKED: REMARK  status: ('A' for Active; 'I' for Inactive)
DOCKED: REMARK    1  A    between atoms: O_3  and  C_38 
DOCKED: REMARK    2  A    between atoms: O_4  and  C_40 
DOCKED: REMARK    3  A    between atoms: O_7  and  C_46 
DOCKED: REMARK    4  A    between atoms: O_9  and  C_48 
DOCKED: REMARK    5  A    between atoms: C_15  and  C_20 
DOCKED: REMARK    6  A    between atoms: C_16  and  C_23 
DOCKED: REMARK    7  A    between atoms: C_20  and  C_38 
DOCKED: REMARK    8  A    between atoms: C_23  and  C_40 
DOCKED: REMARK    9  A    between atoms: C_32  and  C_41 
DOCKED: REMARK   10  A    between atoms: C_37  and  C_45 
DOCKED: REMARK   11  A    between atoms: C_41  and  C_44 
DOCKED: REMARK   12  A    between atoms: C_44  and  C_46 
DOCKED: REMARK   13  A    between atoms: C_47  and  C_48 
DOCKED: USER                              x       y       z     vdW  Elec       q    Type
DOCKED: USER                           _______ _______ _______ _____ _____    ______ ____
DOCKED: ROOT
DOCKED: ATOM      1  O   UNL d   1      18.612  -5.480 -14.541 -0.01 -0.01    -0.289 OA
DOCKED: ATOM      2  O   UNL d   1      15.956   1.433 -13.297 -0.19 +0.02    -0.289 OA
DOCKED: ATOM      3  N   UNL d   1      15.298  -4.641 -15.001 -0.05 +0.04    -0.247 NA
DOCKED: ATOM      4  N   UNL d   1      15.153  -1.851 -13.989 -0.10 +0.07    -0.247 NA
DOCKED: ATOM      5  N   UNL d   1      12.288  -2.089 -14.013 -0.08 +0.04    -0.354 N 
DOCKED: ATOM      6  N   UNL d   1      12.448  -4.990 -15.043 -0.14 +0.04    -0.354 N 
DOCKED: ATOM      7  C   UNL d   1      16.580  -6.728 -15.080 -0.07 +0.00    +0.084 A 
DOCKED: ATOM      8  C   UNL d   1      17.207  -0.528 -14.059 -0.11 -0.02    +0.084 A 
DOCKED: ATOM      9  C   UNL d   1      16.503  -1.875 -14.259 -0.15 -0.01    +0.058 A 
DOCKED: ATOM     10  C   UNL d   1      15.234  -6.009 -15.205 -0.14 -0.00    +0.058 A 
DOCKED: ATOM     11  C   UNL d   1      17.420  -5.521 -14.787 -0.04 +0.00    +0.193 A 
DOCKED: ATOM     12  C   UNL d   1      16.532  -4.316 -14.792 -0.10 -0.01    +0.109 A 
DOCKED: ATOM     13  C   UNL d   1      16.013   0.255 -13.590 -0.10 -0.06    +0.193 A 
DOCKED: ATOM     14  C   UNL d   1      16.621  -7.665 -13.870 -0.13 +0.00    +0.026 C 
DOCKED: ATOM     15  C   UNL d   1      17.159  -2.990 -14.616 -0.13 -0.01    +0.055 C 
DOCKED: ATOM     16  C   UNL d   1      17.691   0.062 -15.387 -0.05 -0.00    +0.026 C 
DOCKED: ATOM     17  C   UNL d   1      14.834  -0.663 -13.585 -0.20 -0.03    +0.109 A 
DOCKED: ATOM     18  C   UNL d   1      14.118  -6.666 -15.572 -0.18 -0.00    +0.050 C 
DOCKED: ATOM     19  C   UNL d   1      12.849  -6.071 -15.794 -0.18 -0.00    +0.045 A 
DOCKED: ATOM     20  C   UNL d   1      12.420  -0.901 -13.341 -0.28 -0.00    +0.045 A 
DOCKED: ATOM     21  C   UNL d   1      13.524  -0.180 -13.125 -0.37 -0.01    +0.057 C 
DOCKED: ATOM     22  C   UNL d   1      10.224  -1.530 -13.305 -0.33 -0.00    -0.019 A 
DOCKED: ATOM     23  C   UNL d   1      10.998  -2.548 -14.043 -0.29 -0.00    +0.045 A 
DOCKED: ATOM     24  C   UNL d   1      11.071  -0.557 -12.893 -0.34 -0.00    -0.022 A 
DOCKED: ATOM     25  C   UNL d   1      11.157  -4.634 -15.361 -0.27 -0.00    +0.049 A 
DOCKED: ATOM     26  C   UNL d   1      11.808  -6.403 -16.647 -0.13 +0.00    -0.018 A 
DOCKED: ATOM     27  C   UNL d   1      10.749  -5.480 -16.382 -0.18 -0.00    +0.003 A 
DOCKED: ATOM     28  C   UNL d   1      10.469  -3.644 -14.608 -0.36 -0.00    +0.052 C 
DOCKED: ATOM     29  C   UNL d   1      10.765   0.684 -12.125 -0.48 +0.00    +0.046 C 
DOCKED: ATOM     30  C   UNL d   1      11.794  -7.508 -17.648 -0.06 +0.00    +0.046 C 
DOCKED: ATOM     31  H   UNL d   1      13.075  -2.512 -14.493 -0.12 -0.04    +0.166 HD
DOCKED: ATOM     32  H   UNL d   1      13.024  -4.557 -14.331 -0.50 -0.06    +0.166 HD
DOCKED: ENDROOT
DOCKED: BRANCH   7  33
DOCKED: ATOM     33  C   UNL d   1      17.071  -7.430 -16.351 -0.02 +0.01    +0.141 C 
DOCKED: BRANCH  33  34
DOCKED: ATOM     34  C   UNL d   1      17.683  -6.475 -17.340 +0.00 +0.02    +0.306 C 
DOCKED: ATOM     35  O   UNL d   1      17.078  -5.722 -18.084 -0.00 -0.01    -0.251 OA
DOCKED: BRANCH  34  36
DOCKED: ATOM     36  O   UNL d   1      19.028  -6.517 -17.337 +0.00 -0.03    -0.481 OA
DOCKED: ATOM     37  H   UNL d   1      19.283  -6.198 -16.445 +0.01 +0.02    +0.295 HD
DOCKED: ENDBRANCH  34  36
DOCKED: ENDBRANCH  33  34
DOCKED: ENDBRANCH   7  33
DOCKED: BRANCH  27  38
DOCKED: ATOM     38  C   UNL d   1       9.475  -5.476 -17.035 -0.06 -0.00    +0.017 C 
DOCKED: ATOM     39  C   UNL d   1       8.756  -4.380 -17.323 -0.01 -0.04    +0.092 C 
DOCKED: BRANCH  39  40
DOCKED: ATOM     40  C   UNL d   1       7.469  -4.512 -18.012 -0.07 -0.19    +0.330 C 
DOCKED: ATOM     41  O   UNL d   1       7.148  -5.351 -18.832 -0.12 +0.10    -0.246 OA
DOCKED: BRANCH  40  42
DOCKED: ATOM     42  O   UNL d   1       6.628  -3.548 -17.607 -0.06 +0.40    -0.477 OA
DOCKED: ATOM     43  H   UNL d   1       6.245  -3.904 -16.779 -0.31 -0.61    +0.295 HD
DOCKED: ENDBRANCH  40  42
DOCKED: ENDBRANCH  39  40
DOCKED: ENDBRANCH  27  38
DOCKED: BRANCH   8  44
DOCKED: ATOM     44  C   UNL d   1      18.321  -0.515 -13.007 +0.01 -0.05    +0.141 C 
DOCKED: BRANCH  44  45
DOCKED: ATOM     45  C   UNL d   1      18.853   0.865 -12.723 -0.08 +0.01    +0.306 C 
DOCKED: ATOM     46  O   UNL d   1      19.854   1.369 -13.199 -0.02 -0.03    -0.251 OA
DOCKED: BRANCH  45  47
DOCKED: ATOM     47  O   UNL d   1      18.104   1.530 -11.825 -0.21 -0.23    -0.481 OA
DOCKED: ATOM     48  H   UNL d   1      17.240   1.066 -11.830 -0.43 +0.00    +0.295 HD
DOCKED: ENDBRANCH  45  47
DOCKED: ENDBRANCH  44  45
DOCKED: ENDBRANCH   8  44
DOCKED: BRANCH  22  49
DOCKED: ATOM     49  C   UNL d   1       8.746  -1.609 -13.060 -0.39 +0.00    +0.048 C 
DOCKED: BRANCH  49  50
DOCKED: ATOM     50  C   UNL d   1       8.014  -2.294 -14.214 -0.31 -0.02    +0.125 C 
DOCKED: BRANCH  50  51
DOCKED: ATOM     51  C   UNL d   1       6.539  -2.015 -14.155 -0.31 -0.09    +0.305 C 
DOCKED: ATOM     52  O   UNL d   1       5.892  -1.637 -13.194 -0.42 +0.04    -0.251 OA
DOCKED: BRANCH  51  53
DOCKED: ATOM     53  O   UNL d   1       5.935  -2.243 -15.338 -0.15 +0.32    -0.481 OA
DOCKED: ATOM     54  H   UNL d   1       6.127  -3.186 -15.525 -0.39 -0.47    +0.295 HD
DOCKED: ENDBRANCH  51  53
DOCKED: ENDBRANCH  50  51
DOCKED: ENDBRANCH  49  50
DOCKED: ENDBRANCH  22  49
DOCKED: TORSDOF 13
DOCKED: TER
DOCKED: ENDMDL
________________________________________________________________________________


	BEGINNING GENETIC ALGORITHM DOCKING 2 of 100
Run: 2 Seed: 721302823 1922519812 [ Run 2 of 100 GA/GALS ]
Beginning LAMARCKIAN GENETIC ALGORITHM (LGA), with a maximum of 25000000 energy evaluations.

Final-Value: -11.359


	FINAL GENETIC ALGORITHM DOCKED STATE
	_______________________________________________


Detailed state:  trans -12.818 -14.851 -8.971 quatxyzw 0.577341 0.270236 -0.735696 -0.228913 center 0.153 0.018 -0.028 ntor 13 127.4789 -131.4475 -160.3546 -150.3751 -132.1870 174.1722 132.5922 4.4680 26.9172 -32.0058 71.3075 -142.9346 157.8091
State:	-12.818 -14.851  -8.971   0.593  0.278 -0.756 -153.534    127.48 -131.45 -160.35 -150.38 -132.19  174.17  132.59    4.47   26.92  -32.01   71.31 -142.93  157.81

DOCKED: MODEL        2
DOCKED: USER    Run = 2
DOCKED: USER    DPF = D:/Protein_go_brrr/autodock/final/AncA/heme/dock.dpf
DOCKED: USER  
DOCKED: USER    Estimated Free Energy of Binding    =   -4.78 kcal/mol  [=(1)+(2)+(3)-(4)]
DOCKED: USER    Estimated Inhibition Constant, Ki   =  314.09 uM (micromolar)  [Temperature = 298.15 K]
DOCKED: USER    
DOCKED: USER    (1) Final Intermolecular Energy     =   -8.66 kcal/mol
DOCKED: USER        vdW + Hbond + desolv Energy     =   -8.33 kcal/mol
DOCKED: USER        Electrostatic Energy            =   -0.32 kcal/mol
DOCKED: USER    (2) Final Total Internal Energy     =   -2.70 kcal/mol
DOCKED: USER    (3) Torsional Free Energy           =   +3.88 kcal/mol
DOCKED: USER    (4) Unbound System's Energy  [=(2)] =   -2.70 kcal/mol
DOCKED: USER    
DOCKED: USER    
DOCKED: USER    NEWDPF move heme_opt.pdbqt
DOCKED: USER    NEWDPF about 0.153000 0.018000 -0.028000
DOCKED: USER    NEWDPF tran0 -12.818180 -14.850987 -8.971446
DOCKED: USER    NEWDPF quaternion0 0.577341 0.270236 -0.735696 -0.228913
DOCKED: USER    NEWDPF axisangle0 0.593090 0.277607 -0.755764 -153.533873
DOCKED: USER    NEWDPF quat0 0.593090 0.277607 -0.755764 -153.533873
DOCKED: USER    NEWDPF dihe0 127.48 -131.45 -160.35 -150.38 -132.19 174.17 132.59 4.47 26.92 -32.01 71.31 -142.93 157.81 
DOCKED: USER  keepresnum = 1 
DOCKED: USER  
DOCKED: REMARK  13 active torsions:
DOCKED: REMARK  status: ('A' for Active; 'I' for Inactive)
DOCKED: REMARK    1  A    between atoms: O_3  and  C_38 
DOCKED: REMARK    2  A    between atoms: O_4  and  C_40 
DOCKED: REMARK    3  A    between atoms: O_7  and  C_46 
DOCKED: REMARK    4  A    between atoms: O_9  and  C_48 
DOCKED: REMARK    5  A    between atoms: C_15  and  C_20 
DOCKED: REMARK    6  A    between atoms: C_16  and  C_23 
DOCKED: REMARK    7  A    between atoms: C_20  and  C_38 
DOCKED: REMARK    8  A    between atoms: C_23  and  C_40 
DOCKED: REMARK    9  A    between atoms: C_32  and  C_41 
DOCKED: REMARK   10  A    between atoms: C_37  and  C_45 
DOCKED: REMARK   11  A    between atoms: C_41  and  C_44 
DOCKED: REMARK   12  A    between atoms: C_44  and  C_46 
DOCKED: REMARK   13  A    between atoms: C_47  and  C_48 
DOCKED: USER                              x       y       z     vdW  Elec       q    Type
DOCKED: USER                           _______ _______ _______ _____ _____    ______ ____
DOCKED: ROOT
DOCKED: ATOM      1  O   UNL d   1     -10.910 -16.406  -3.615 -0.04 -0.11    -0.289 OA
DOCKED: ATOM      2  O   UNL d   1     -14.209 -10.110  -6.035 -0.28 -0.00    -0.289 OA
DOCKED: ATOM      3  N   UNL d   1     -11.741 -15.885  -6.921 -0.16 -0.05    -0.247 NA
DOCKED: ATOM      4  N   UNL d   1     -13.236 -13.318  -6.853 -0.18 -0.02    -0.247 NA
DOCKED: ATOM      5  N   UNL d   1     -14.124 -13.871  -9.531 -0.14 -0.05    -0.354 N 
DOCKED: ATOM      6  N   UNL d   1     -12.586 -16.542  -9.586 +0.02 -0.05    -0.354 N 
DOCKED: ATOM      7  C   UNL d   1     -10.859 -17.778  -5.637 -0.07 +0.03    +0.084 A 
DOCKED: ATOM      8  C   UNL d   1     -12.729 -11.777  -5.025 -0.29 +0.01    +0.084 A 
DOCKED: ATOM      9  C   UNL d   1     -12.532 -13.148  -5.682 -0.23 +0.01    +0.058 A 
DOCKED: ATOM     10  C   UNL d   1     -11.324 -17.204  -6.979 -0.16 +0.02    +0.058 A 
DOCKED: ATOM     11  C   UNL d   1     -11.071 -16.543  -4.813 -0.06 +0.07    +0.193 A 
DOCKED: ATOM     12  C   UNL d   1     -11.583 -15.459  -5.710 -0.15 +0.03    +0.109 A 
DOCKED: ATOM     13  C   UNL d   1     -13.704 -11.215  -6.021 -0.23 +0.00    +0.193 A 
DOCKED: ATOM     14  C   UNL d   1     -11.793 -18.879  -5.129 -0.03 +0.01    +0.026 C 
DOCKED: ATOM     15  C   UNL d   1     -11.780 -14.114  -5.133 +0.03 +0.01    +0.055 C 
DOCKED: ATOM     16  C   UNL d   1     -11.448 -10.939  -5.064 -0.41 +0.00    +0.026 C 
DOCKED: ATOM     17  C   UNL d   1     -13.933 -12.250  -7.074 -0.20 +0.00    +0.109 A 
DOCKED: ATOM     18  C   UNL d   1     -11.235 -17.918  -8.117 -0.19 +0.02    +0.050 C 
DOCKED: ATOM     19  C   UNL d   1     -11.560 -17.443  -9.414 -0.17 +0.01    +0.045 A 
DOCKED: ATOM     20  C   UNL d   1     -14.918 -12.793  -9.238 -0.21 +0.01    +0.045 A 
DOCKED: ATOM     21  C   UNL d   1     -14.883 -11.993  -8.167 -0.21 +0.00    +0.057 C 
DOCKED: ATOM     22  C   UNL d   1     -15.568 -13.663 -11.247 -0.16 -0.01    -0.019 A 
DOCKED: ATOM     23  C   UNL d   1     -14.441 -14.462 -10.725 -0.23 +0.02    +0.045 A 
DOCKED: ATOM     24  C   UNL d   1     -15.845 -12.676 -10.363 -0.15 -0.01    -0.022 A 
DOCKED: ATOM     25  C   UNL d   1     -12.788 -16.289 -10.923 -0.18 +0.01    +0.049 A 
DOCKED: ATOM     26  C   UNL d   1     -11.058 -17.755 -10.667 -0.22 -0.01    -0.018 A 
DOCKED: ATOM     27  C   UNL d   1     -11.824 -17.008 -11.615 -0.27 +0.00    +0.003 A 
DOCKED: ATOM     28  C   UNL d   1     -13.894 -15.510 -11.359 -0.27 +0.02    +0.052 C 
DOCKED: ATOM     29  C   UNL d   1     -16.884 -11.610 -10.449 -0.09 +0.01    +0.046 C 
DOCKED: ATOM     30  C   UNL d   1      -9.934 -18.688 -10.969 -0.19 +0.03    +0.046 C 
DOCKED: ATOM     31  H   UNL d   1     -13.340 -14.123  -8.939 -0.28 -0.01    +0.166 HD
DOCKED: ATOM     32  H   UNL d   1     -13.133 -16.162  -8.822 -0.05 +0.02    +0.166 HD
DOCKED: ENDROOT
DOCKED: BRANCH   7  33
DOCKED: ATOM     33  C   UNL d   1      -9.392 -18.215  -5.582 -0.10 +0.08    +0.141 C 
DOCKED: BRANCH  33  34
DOCKED: ATOM     34  C   UNL d   1      -8.442 -17.051  -5.510 -0.16 +0.24    +0.306 C 
DOCKED: ATOM     35  O   UNL d   1      -8.103 -16.339  -6.441 -0.31 -0.22    -0.251 OA
DOCKED: BRANCH  34  36
DOCKED: ATOM     36  O   UNL d   1      -7.971 -16.841  -4.268 -0.06 -0.46    -0.481 OA
DOCKED: ATOM     37  H   UNL d   1      -8.774 -16.746  -3.713 +0.06 +0.22    +0.295 HD
DOCKED: ENDBRANCH  34  36
DOCKED: ENDBRANCH  33  34
DOCKED: ENDBRANCH   7  33
DOCKED: BRANCH  27  38
DOCKED: ATOM     38  C   UNL d   1     -11.644 -17.048 -13.035 -0.22 +0.01    +0.017 C 
DOCKED: ATOM     39  C   UNL d   1     -12.009 -18.062 -13.834 -0.15 +0.05    +0.092 C 
DOCKED: BRANCH  39  40
DOCKED: ATOM     40  C   UNL d   1     -11.785 -17.970 -15.279 -0.07 +0.20    +0.330 C 
DOCKED: ATOM     41  O   UNL d   1     -11.936 -18.844 -16.112 -0.03 -0.11    -0.246 OA
DOCKED: BRANCH  40  42
DOCKED: ATOM     42  O   UNL d   1     -11.378 -16.734 -15.606 -0.61 -0.45    -0.477 OA
DOCKED: ATOM     43  H   UNL d   1     -10.662 -16.546 -14.964 -0.15 +0.17    +0.295 HD
DOCKED: ENDBRANCH  40  42
DOCKED: ENDBRANCH  39  40
DOCKED: ENDBRANCH  27  38
DOCKED: BRANCH   8  44
DOCKED: ATOM     44  C   UNL d   1     -13.334 -11.800  -3.618 -0.18 +0.00    +0.141 C 
DOCKED: BRANCH  44  45
DOCKED: ATOM     45  C   UNL d   1     -14.834 -11.932  -3.618 -0.17 +0.01    +0.306 C 
DOCKED: ATOM     46  O   UNL d   1     -15.472 -12.970  -3.623 -0.16 -0.02    -0.251 OA
DOCKED: BRANCH  45  47
DOCKED: ATOM     47  O   UNL d   1     -15.456 -10.739  -3.639 -0.28 +0.02    -0.481 OA
DOCKED: ATOM     48  H   UNL d   1     -14.773 -10.110  -3.954 -0.12 -0.06    +0.295 HD
DOCKED: ENDBRANCH  45  47
DOCKED: ENDBRANCH  44  45
DOCKED: ENDBRANCH   8  44
DOCKED: BRANCH  22  49
DOCKED: ATOM     49  C   UNL d   1     -16.272 -13.945 -12.542 +0.01 +0.04    +0.048 C 
DOCKED: BRANCH  49  50
DOCKED: ATOM     50  C   UNL d   1     -17.188 -15.164 -12.438 -0.08 +0.06    +0.125 C 
DOCKED: BRANCH  50  51
DOCKED: ATOM     51  C   UNL d   1     -16.614 -16.332 -13.190 -0.06 +0.18    +0.305 C 
DOCKED: ATOM     52  O   UNL d   1     -15.585 -16.362 -13.841 -0.08 -0.23    -0.251 OA
DOCKED: BRANCH  51  53
DOCKED: ATOM     53  O   UNL d   1     -17.393 -17.427 -13.091 +0.01 -0.18    -0.481 OA
DOCKED: ATOM     54  H   UNL d   1     -18.298 -17.067 -12.980 +0.01 +0.09    +0.295 HD
DOCKED: ENDBRANCH  51  53
DOCKED: ENDBRANCH  50  51
DOCKED: ENDBRANCH  49  50
DOCKED: ENDBRANCH  22  49
DOCKED: TORSDOF 13
DOCKED: TER
DOCKED: ENDMDL
________________________________________________________________________________


	BEGINNING GENETIC ALGORITHM DOCKING 3 of 100
Run: 3 Seed: 812252785 1603661935 [ Run 3 of 100 GA/GALS ]
Beginning LAMARCKIAN GENETIC ALGORITHM (LGA), with a maximum of 25000000 energy evaluations.

Final-Value: -12.372


	FINAL GENETIC ALGORITHM DOCKED STATE
	_______________________________________________


Detailed state:  trans -6.587 0.004 -16.309 quatxyzw 0.256137 0.213322 -0.577080 -0.745564 center 0.153 0.018 -0.028 ntor 13 106.4886 -176.8250 167.1040 22.4670 -133.4116 21.2919 -60.6971 25.2373 36.6148 -160.3151 -80.9521 -28.4780 -14.3334
State:	 -6.587   0.004 -16.309   0.384  0.320 -0.866 -83.585    106.49 -176.83  167.10   22.47 -133.41   21.29  -60.70   25.24   36.61 -160.32  -80.95  -28.48  -14.33

DOCKED: MODEL        3
DOCKED: USER    Run = 3
DOCKED: USER    DPF = D:/Protein_go_brrr/autodock/final/AncA/heme/dock.dpf
DOCKED: USER  
DOCKED: USER    Estimated Free Energy of Binding    =   -4.05 kcal/mol  [=(1)+(2)+(3)-(4)]
DOCKED: USER    Estimated Inhibition Constant, Ki   =    1.08 mM (millimolar)  [Temperature = 298.15 K]
DOCKED: USER    
DOCKED: USER    (1) Final Intermolecular Energy     =   -7.92 kcal/mol
DOCKED: USER        vdW + Hbond + desolv Energy     =   -7.77 kcal/mol
DOCKED: USER        Electrostatic Energy            =   -0.16 kcal/mol
DOCKED: USER    (2) Final Total Internal Energy     =   -4.45 kcal/mol
DOCKED: USER    (3) Torsional Free Energy           =   +3.88 kcal/mol
DOCKED: USER    (4) Unbound System's Energy  [=(2)] =   -4.45 kcal/mol
DOCKED: USER    
DOCKED: USER    
DOCKED: USER    NEWDPF move heme_opt.pdbqt
DOCKED: USER    NEWDPF about 0.153000 0.018000 -0.028000
DOCKED: USER    NEWDPF tran0 -6.586878 0.003943 -16.309257
DOCKED: USER    NEWDPF quaternion0 0.256137 0.213322 -0.577080 -0.745564
DOCKED: USER    NEWDPF axisangle0 0.384340 0.320095 -0.865923 -83.584885
DOCKED: USER    NEWDPF quat0 0.384340 0.320095 -0.865923 -83.584885
DOCKED: USER    NEWDPF dihe0 106.49 -176.83 167.10 22.47 -133.41 21.29 -60.70 25.24 36.61 -160.32 -80.95 -28.48 -14.33 
DOCKED: USER  keepresnum = 1 
DOCKED: USER  
DOCKED: REMARK  13 active torsions:
DOCKED: REMARK  status: ('A' for Active; 'I' for Inactive)
DOCKED: REMARK    1  A    between atoms: O_3  and  C_38 
DOCKED: REMARK    2  A    between atoms: O_4  and  C_40 
DOCKED: REMARK    3  A    between atoms: O_7  and  C_46 
DOCKED: REMARK    4  A    between atoms: O_9  and  C_48 
DOCKED: REMARK    5  A    between atoms: C_15  and  C_20 
DOCKED: REMARK    6  A    between atoms: C_16  and  C_23 
DOCKED: REMARK    7  A    between atoms: C_20  and  C_38 
DOCKED: REMARK    8  A    between atoms: C_23  and  C_40 
DOCKED: REMARK    9  A    between atoms: C_32  and  C_41 
DOCKED: REMARK   10  A    between atoms: C_37  and  C_45 
DOCKED: REMARK   11  A    between atoms: C_41  and  C_44 
DOCKED: REMARK   12  A    between atoms: C_44  and  C_46 
DOCKED: REMARK   13  A    between atoms: C_47  and  C_48 
DOCKED: USER                              x       y       z     vdW  Elec       q    Type
DOCKED: USER                           _______ _______ _______ _____ _____    ______ ____
DOCKED: ROOT
DOCKED: ATOM      1  O   UNL d   1      -6.298   4.154 -12.132 -0.41 -0.06    -0.289 OA
DOCKED: ATOM      2  O   UNL d   1     -11.967   2.009 -16.564 -0.03 +0.11    -0.289 OA
DOCKED: ATOM      3  N   UNL d   1      -5.955   1.732 -14.563 -0.17 +0.01    -0.247 NA
DOCKED: ATOM      4  N   UNL d   1      -8.731   1.362 -15.555 -0.17 +0.09    -0.247 NA
DOCKED: ATOM      5  N   UNL d   1      -7.845  -1.039 -16.866 -0.08 +0.08    -0.354 N 
DOCKED: ATOM      6  N   UNL d   1      -4.972  -0.658 -15.816 +0.02 +0.02    -0.354 N 
DOCKED: ATOM      7  C   UNL d   1      -4.513   2.619 -12.791 -0.28 +0.00    +0.084 A 
DOCKED: ATOM      8  C   UNL d   1     -10.261   3.254 -15.327 -0.14 -0.02    +0.084 A 
DOCKED: ATOM      9  C   UNL d   1      -8.890   2.631 -15.045 -0.20 -0.01    +0.058 A 
DOCKED: ATOM     10  C   UNL d   1      -4.715   1.642 -13.953 -0.26 -0.00    +0.058 A 
DOCKED: ATOM     11  C   UNL d   1      -5.851   3.290 -12.865 -0.25 +0.02    +0.193 A 
DOCKED: ATOM     12  C   UNL d   1      -6.623   2.682 -13.995 -0.24 -0.00    +0.109 A 
DOCKED: ATOM     13  C   UNL d   1     -10.865   2.089 -16.059 -0.08 -0.08    +0.193 A 
DOCKED: ATOM     14  C   UNL d   1      -4.394   1.897 -11.447 -0.50 -0.00    +0.026 C 
DOCKED: ATOM     15  C   UNL d   1      -7.946   3.252 -14.320 -0.22 +0.00    +0.055 C 
DOCKED: ATOM     16  C   UNL d   1     -10.159   4.441 -16.290 -0.06 -0.00    +0.026 C 
DOCKED: ATOM     17  C   UNL d   1      -9.838   1.005 -16.123 -0.17 -0.06    +0.109 A 
DOCKED: ATOM     18  C   UNL d   1      -3.721   0.840 -14.378 -0.31 -0.00    +0.050 C 
DOCKED: ATOM     19  C   UNL d   1      -3.789  -0.033 -15.494 -0.22 -0.00    +0.045 A 
DOCKED: ATOM     20  C   UNL d   1      -9.200  -1.165 -17.034 -0.19 -0.02    +0.045 A 
DOCKED: ATOM     21  C   UNL d   1     -10.165  -0.285 -16.750 -0.19 -0.04    +0.057 C 
DOCKED: ATOM     22  C   UNL d   1      -8.185  -3.083 -17.749 -0.23 +0.00    -0.019 A 
DOCKED: ATOM     23  C   UNL d   1      -7.149  -2.147 -17.269 -0.14 -0.01    +0.045 A 
DOCKED: ATOM     24  C   UNL d   1      -9.397  -2.495 -17.609 -0.17 +0.01    -0.022 A 
DOCKED: ATOM     25  C   UNL d   1      -4.790  -1.524 -16.870 -0.25 -0.00    +0.049 A 
DOCKED: ATOM     26  C   UNL d   1      -2.822  -0.475 -16.384 -0.17 +0.00    -0.018 A 
DOCKED: ATOM     27  C   UNL d   1      -3.464  -1.401 -17.263 -0.22 -0.00    +0.003 A 
DOCKED: ATOM     28  C   UNL d   1      -5.831  -2.399 -17.282 -0.28 -0.00    +0.052 C 
DOCKED: ATOM     29  C   UNL d   1     -10.741  -3.034 -17.962 -0.12 -0.02    +0.046 C 
DOCKED: ATOM     30  C   UNL d   1      -1.389  -0.062 -16.420 -0.29 +0.00    +0.046 C 
DOCKED: ATOM     31  H   UNL d   1      -7.433  -0.168 -16.548 +0.05 -0.03    +0.166 HD
DOCKED: ATOM     32  H   UNL d   1      -5.836  -0.518 -15.307 +0.13 -0.01    +0.166 HD
DOCKED: ENDROOT
DOCKED: BRANCH   7  33
DOCKED: ATOM     33  C   UNL d   1      -3.387   3.642 -12.981 -0.16 +0.02    +0.141 C 
DOCKED: BRANCH  33  34
DOCKED: ATOM     34  C   UNL d   1      -3.829   4.852 -13.760 -0.04 +0.06    +0.306 C 
DOCKED: ATOM     35  O   UNL d   1      -3.953   4.923 -14.971 -0.02 -0.04    -0.251 OA
DOCKED: BRANCH  34  36
DOCKED: ATOM     36  O   UNL d   1      -4.095   5.907 -12.970 -0.05 -0.23    -0.481 OA
DOCKED: ATOM     37  H   UNL d   1      -4.966   5.703 -12.569 +0.09 +0.14    +0.295 HD
DOCKED: ENDBRANCH  34  36
DOCKED: ENDBRANCH  33  34
DOCKED: ENDBRANCH   7  33
DOCKED: BRANCH  27  38
DOCKED: ATOM     38  C   UNL d   1      -2.822  -2.109 -18.329 -0.25 -0.00    +0.017 C 
DOCKED: ATOM     39  C   UNL d   1      -3.448  -2.857 -19.250 -0.21 -0.01    +0.092 C 
DOCKED: BRANCH  39  40
DOCKED: ATOM     40  C   UNL d   1      -2.673  -3.518 -20.303 -0.10 -0.06    +0.330 C 
DOCKED: ATOM     41  O   UNL d   1      -1.481  -3.760 -20.308 -0.11 +0.04    -0.246 OA
DOCKED: BRANCH  40  42
DOCKED: ATOM     42  O   UNL d   1      -3.476  -3.857 -21.323 -0.03 +0.12    -0.477 OA
DOCKED: ATOM     43  H   UNL d   1      -4.351  -3.502 -21.061 +0.08 -0.08    +0.295 HD
DOCKED: ENDBRANCH  40  42
DOCKED: ENDBRANCH  39  40
DOCKED: ENDBRANCH  27  38
DOCKED: BRANCH   8  44
DOCKED: ATOM     44  C   UNL d   1     -11.090   3.614 -14.089 +0.02 -0.04    +0.141 C 
DOCKED: BRANCH  44  45
DOCKED: ATOM     45  C   UNL d   1     -12.006   4.788 -14.309 -0.10 -0.04    +0.306 C 
DOCKED: ATOM     46  O   UNL d   1     -11.847   5.922 -13.891 -0.12 +0.02    -0.251 OA
DOCKED: BRANCH  45  47
DOCKED: ATOM     47  O   UNL d   1     -13.098   4.463 -15.025 -0.00 +0.06    -0.481 OA
DOCKED: ATOM     48  H   UNL d   1     -12.891   3.582 -15.405 +0.04 -0.06    +0.295 HD
DOCKED: ENDBRANCH  45  47
DOCKED: ENDBRANCH  44  45
DOCKED: ENDBRANCH   8  44
DOCKED: BRANCH  22  49
DOCKED: ATOM     49  C   UNL d   1      -7.899  -4.456 -18.281 -0.28 -0.01    +0.048 C 
DOCKED: BRANCH  49  50
DOCKED: ATOM     50  C   UNL d   1      -7.855  -4.476 -19.809 -0.24 -0.07    +0.125 C 
DOCKED: BRANCH  50  51
DOCKED: ATOM     51  C   UNL d   1      -6.438  -4.450 -20.306 -0.20 -0.16    +0.305 C 
DOCKED: ATOM     52  O   UNL d   1      -5.428  -4.733 -19.686 -0.24 +0.10    -0.251 OA
DOCKED: BRANCH  51  53
DOCKED: ATOM     53  O   UNL d   1      -6.361  -4.047 -21.590 -0.08 +0.27    -0.481 OA
DOCKED: ATOM     54  H   UNL d   1      -5.503  -4.404 -21.901 +0.07 -0.17    +0.295 HD
DOCKED: ENDBRANCH  51  53
DOCKED: ENDBRANCH  50  51
DOCKED: ENDBRANCH  49  50
DOCKED: ENDBRANCH  22  49
DOCKED: TORSDOF 13
DOCKED: TER
DOCKED: ENDMDL
________________________________________________________________________________


	BEGINNING GENETIC ALGORITHM DOCKING 4 of 100
Run: 4 Seed: 270136821 1436524817 [ Run 4 of 100 GA/GALS ]
Beginning LAMARCKIAN GENETIC ALGORITHM (LGA), with a maximum of 25000000 energy evaluations.

Final-Value: -11.663


	FINAL GENETIC ALGORITHM DOCKED STATE
	_______________________________________________


Detailed state:  trans -11.768 -15.712 -7.371 quatxyzw 0.233913 0.523922 -0.701967 0.421939 center 0.153 0.018 -0.028 ntor 13 -14.3346 -135.6944 -100.9120 118.2030 28.6006 -4.4324 -30.6323 -3.7372 -10.1006 143.8468 119.4527 -4.9058 35.2739
State:	-11.768 -15.712  -7.371   0.258  0.578 -0.774 130.086    -14.33 -135.69 -100.91  118.20   28.60   -4.43  -30.63   -3.74  -10.10  143.85  119.45   -4.91   35.27

DOCKED: MODEL        4
DOCKED: USER    Run = 4
DOCKED: USER    DPF = D:/Protein_go_brrr/autodock/final/AncA/heme/dock.dpf
DOCKED: USER  
DOCKED: USER    Estimated Free Energy of Binding    =   -5.23 kcal/mol  [=(1)+(2)+(3)-(4)]
DOCKED: USER    Estimated Inhibition Constant, Ki   =  146.06 uM (micromolar)  [Temperature = 298.15 K]
DOCKED: USER    
DOCKED: USER    (1) Final Intermolecular Energy     =   -9.11 kcal/mol
DOCKED: USER        vdW + Hbond + desolv Energy     =   -8.64 kcal/mol
DOCKED: USER        Electrostatic Energy            =   -0.47 kcal/mol
DOCKED: USER    (2) Final Total Internal Energy     =   -2.55 kcal/mol
DOCKED: USER    (3) Torsional Free Energy           =   +3.88 kcal/mol
DOCKED: USER    (4) Unbound System's Energy  [=(2)] =   -2.55 kcal/mol
DOCKED: USER    
DOCKED: USER    
DOCKED: USER    NEWDPF move heme_opt.pdbqt
DOCKED: USER    NEWDPF about 0.153000 0.018000 -0.028000
DOCKED: USER    NEWDPF tran0 -11.767965 -15.712266 -7.371255
DOCKED: USER    NEWDPF quaternion0 0.233913 0.523922 -0.701967 0.421939
DOCKED: USER    NEWDPF axisangle0 0.258004 0.577882 -0.774265 130.085924
DOCKED: USER    NEWDPF quat0 0.258004 0.577882 -0.774265 130.085924
DOCKED: USER    NEWDPF dihe0 -14.33 -135.69 -100.91 118.20 28.60 -4.43 -30.63 -3.74 -10.10 143.85 119.45 -4.91 35.27 
DOCKED: USER  keepresnum = 1 
DOCKED: USER  
DOCKED: REMARK  13 active torsions:
DOCKED: REMARK  status: ('A' for Active; 'I' for Inactive)
DOCKED: REMARK    1  A    between atoms: O_3  and  C_38 
DOCKED: REMARK    2  A    between atoms: O_4  and  C_40 
DOCKED: REMARK    3  A    between atoms: O_7  and  C_46 
DOCKED: REMARK    4  A    between atoms: O_9  and  C_48 
DOCKED: REMARK    5  A    between atoms: C_15  and  C_20 
DOCKED: REMARK    6  A    between atoms: C_16  and  C_23 
DOCKED: REMARK    7  A    between atoms: C_20  and  C_38 
DOCKED: REMARK    8  A    between atoms: C_23  and  C_40 
DOCKED: REMARK    9  A    between atoms: C_32  and  C_41 
DOCKED: REMARK   10  A    between atoms: C_37  and  C_45 
DOCKED: REMARK   11  A    between atoms: C_41  and  C_44 
DOCKED: REMARK   12  A    between atoms: C_44  and  C_46 
DOCKED: REMARK   13  A    between atoms: C_47  and  C_48 
DOCKED: USER                              x       y       z     vdW  Elec       q    Type
DOCKED: USER                           _______ _______ _______ _____ _____    ______ ____
DOCKED: ROOT
DOCKED: ATOM      1  O   UNL d   1      -9.855 -20.920  -9.364 -0.05 -0.16    -0.289 OA
DOCKED: ATOM      2  O   UNL d   1      -7.448 -16.628  -3.692 -0.13 -0.36    -0.289 OA
DOCKED: ATOM      3  N   UNL d   1     -11.221 -17.837  -8.645 -0.14 -0.09    -0.247 NA
DOCKED: ATOM      4  N   UNL d   1      -9.863 -17.059  -6.119 -0.13 -0.13    -0.247 NA
DOCKED: ATOM      5  N   UNL d   1     -11.832 -14.988  -5.806 -0.09 -0.09    -0.354 N 
DOCKED: ATOM      6  N   UNL d   1     -13.246 -15.813  -8.417 -0.05 -0.03    -0.354 N 
DOCKED: ATOM      7  C   UNL d   1     -11.760 -19.644 -10.210 -0.05 +0.03    +0.084 A 
DOCKED: ATOM      8  C   UNL d   1      -7.653 -18.014  -5.698 -0.18 +0.08    +0.084 A 
DOCKED: ATOM      9  C   UNL d   1      -8.914 -17.951  -6.567 -0.19 +0.04    +0.058 A 
DOCKED: ATOM     10  C   UNL d   1     -12.089 -18.263  -9.637 -0.12 +0.02    +0.058 A 
DOCKED: ATOM     11  C   UNL d   1     -10.542 -19.915  -9.380 -0.08 +0.09    +0.193 A 
DOCKED: ATOM     12  C   UNL d   1     -10.304 -18.735  -8.490 -0.15 +0.06    +0.109 A 
DOCKED: ATOM     13  C   UNL d   1      -8.078 -17.021  -4.654 -0.13 +0.17    +0.193 A 
DOCKED: ATOM     14  C   UNL d   1     -12.834 -20.679  -9.867 -0.02 +0.01    +0.026 C 
DOCKED: ATOM     15  C   UNL d   1      -9.096 -18.736  -7.640 -0.18 +0.04    +0.055 C 
DOCKED: ATOM     16  C   UNL d   1      -6.429 -17.462  -6.434 -0.17 +0.03    +0.026 C 
DOCKED: ATOM     17  C   UNL d   1      -9.438 -16.522  -5.021 -0.14 +0.07    +0.109 A 
DOCKED: ATOM     18  C   UNL d   1     -13.088 -17.513 -10.138 -0.13 +0.01    +0.050 C 
DOCKED: ATOM     19  C   UNL d   1     -13.412 -16.194  -9.730 -0.11 +0.01    +0.045 A 
DOCKED: ATOM     20  C   UNL d   1     -11.226 -14.924  -4.578 -0.01 +0.02    +0.045 A 
DOCKED: ATOM     21  C   UNL d   1     -10.131 -15.561  -4.150 -0.04 +0.03    +0.057 C 
DOCKED: ATOM     22  C   UNL d   1     -13.052 -13.552  -4.572 -0.17 -0.00    -0.019 A 
DOCKED: ATOM     23  C   UNL d   1     -12.944 -14.193  -5.897 -0.18 +0.01    +0.045 A 
DOCKED: ATOM     24  C   UNL d   1     -12.031 -13.987  -3.796 -0.16 -0.01    -0.022 A 
DOCKED: ATOM     25  C   UNL d   1     -13.704 -14.530  -8.225 -0.17 +0.00    +0.049 A 
DOCKED: ATOM     26  C   UNL d   1     -13.956 -15.119 -10.416 -0.21 -0.00    -0.018 A 
DOCKED: ATOM     27  C   UNL d   1     -14.121 -14.065  -9.465 -0.25 +0.00    +0.003 A 
DOCKED: ATOM     28  C   UNL d   1     -13.783 -13.972  -6.920 -0.19 +0.01    +0.052 C 
DOCKED: ATOM     29  C   UNL d   1     -11.707 -13.619  -2.388 -0.17 +0.01    +0.046 C 
DOCKED: ATOM     30  C   UNL d   1     -14.302 -15.071 -11.866 -0.19 +0.03    +0.046 C 
DOCKED: ATOM     31  H   UNL d   1     -11.422 -15.517  -6.568 +0.04 +0.04    +0.166 HD
DOCKED: ATOM     32  H   UNL d   1     -12.875 -16.423  -7.699 +0.03 +0.03    +0.166 HD
DOCKED: ENDROOT
DOCKED: BRANCH   7  33
DOCKED: ATOM     33  C   UNL d   1     -11.410 -19.670 -11.702 -0.06 +0.05    +0.141 C 
DOCKED: BRANCH  33  34
DOCKED: ATOM     34  C   UNL d   1     -10.604 -18.473 -12.129 -0.14 +0.13    +0.306 C 
DOCKED: ATOM     35  O   UNL d   1      -9.397 -18.341 -12.016 -0.21 -0.14    -0.251 OA
DOCKED: BRANCH  34  36
DOCKED: ATOM     36  O   UNL d   1     -11.361 -17.507 -12.678 -0.10 -0.19    -0.481 OA
DOCKED: ATOM     37  H   UNL d   1     -10.795 -16.706 -12.654 -0.43 +0.06    +0.295 HD
DOCKED: ENDBRANCH  34  36
DOCKED: ENDBRANCH  33  34
DOCKED: ENDBRANCH   7  33
DOCKED: BRANCH  27  38
DOCKED: ATOM     38  C   UNL d   1     -14.669 -12.774  -9.751 -0.30 +0.00    +0.017 C 
DOCKED: ATOM     39  C   UNL d   1     -14.318 -11.631  -9.143 -0.13 -0.00    +0.092 C 
DOCKED: BRANCH  39  40
DOCKED: ATOM     40  C   UNL d   1     -14.945 -10.368  -9.542 -0.20 +0.00    +0.330 C 
DOCKED: ATOM     41  O   UNL d   1     -15.710 -10.178 -10.469 -0.16 -0.03    -0.246 OA
DOCKED: BRANCH  40  42
DOCKED: ATOM     42  O   UNL d   1     -14.566  -9.382  -8.715 -0.18 +0.05    -0.477 OA
DOCKED: ATOM     43  H   UNL d   1     -13.602  -9.519  -8.612 -0.37 -0.12    +0.295 HD
DOCKED: ENDBRANCH  40  42
DOCKED: ENDBRANCH  39  40
DOCKED: ENDBRANCH  27  38
DOCKED: BRANCH   8  44
DOCKED: ATOM     44  C   UNL d   1      -7.353 -19.378  -5.068 -0.07 +0.11    +0.141 C 
DOCKED: BRANCH  44  45
DOCKED: ATOM     45  C   UNL d   1      -6.409 -20.217  -5.887 -0.07 +0.33    +0.306 C 
DOCKED: ATOM     46  O   UNL d   1      -6.671 -20.809  -6.920 -0.63 -0.38    -0.251 OA
DOCKED: BRANCH  45  47
DOCKED: ATOM     47  O   UNL d   1      -5.180 -20.288  -5.343 -0.02 -0.49    -0.481 OA
DOCKED: ATOM     48  H   UNL d   1      -5.267 -20.944  -4.619 +0.03 +0.22    +0.295 HD
DOCKED: ENDBRANCH  45  47
DOCKED: ENDBRANCH  44  45
DOCKED: ENDBRANCH   8  44
DOCKED: BRANCH  22  49
DOCKED: ATOM     49  C   UNL d   1     -14.141 -12.594  -4.186 -0.24 +0.00    +0.048 C 
DOCKED: BRANCH  49  50
DOCKED: ATOM     50  C   UNL d   1     -14.345 -11.509  -5.243 -0.25 +0.00    +0.125 C 
DOCKED: BRANCH  50  51
DOCKED: ATOM     51  C   UNL d   1     -13.086 -10.714  -5.446 -0.28 +0.01    +0.305 C 
DOCKED: ATOM     52  O   UNL d   1     -12.072 -10.744  -4.772 -0.32 -0.02    -0.251 OA
DOCKED: BRANCH  51  53
DOCKED: ATOM     53  O   UNL d   1     -13.176  -9.890  -6.509 -0.19 +0.03    -0.481 OA
DOCKED: ATOM     54  H   UNL d   1     -13.300 -10.495  -7.270 -0.41 -0.07    +0.295 HD
DOCKED: ENDBRANCH  51  53
DOCKED: ENDBRANCH  50  51
DOCKED: ENDBRANCH  49  50
DOCKED: ENDBRANCH  22  49
DOCKED: TORSDOF 13
DOCKED: TER
DOCKED: ENDMDL
________________________________________________________________________________


	BEGINNING GENETIC ALGORITHM DOCKING 5 of 100
Run: 5 Seed: 224123130 586364273 [ Run 5 of 100 GA/GALS ]
Beginning LAMARCKIAN GENETIC ALGORITHM (LGA), with a maximum of 25000000 energy evaluations.

Final-Value: -11.245


	FINAL GENETIC ALGORITHM DOCKED STATE
	_______________________________________________


Detailed state:  trans -11.320 -14.520 -5.307 quatxyzw 0.553658 0.155985 -0.812477 -0.094937 center 0.153 0.018 -0.028 ntor 13 -97.2808 69.5898 -62.0275 178.5520 36.5650 163.2286 116.6537 -68.4234 130.0368 112.1148 69.3610 -72.7721 -16.4369
State:	-11.320 -14.520  -5.307   0.556  0.157 -0.816 -169.105    -97.28   69.59  -62.03  178.55   36.56  163.23  116.65  -68.42  130.04  112.11   69.36  -72.77  -16.44

DOCKED: MODEL        5
DOCKED: USER    Run = 5
DOCKED: USER    DPF = D:/Protein_go_brrr/autodock/final/AncA/heme/dock.dpf
DOCKED: USER  
DOCKED: USER    Estimated Free Energy of Binding    =   -5.59 kcal/mol  [=(1)+(2)+(3)-(4)]
DOCKED: USER    Estimated Inhibition Constant, Ki   =   80.30 uM (micromolar)  [Temperature = 298.15 K]
DOCKED: USER    
DOCKED: USER    (1) Final Intermolecular Energy     =   -9.46 kcal/mol
DOCKED: USER        vdW + Hbond + desolv Energy     =   -9.17 kcal/mol
DOCKED: USER        Electrostatic Energy            =   -0.30 kcal/mol
DOCKED: USER    (2) Final Total Internal Energy     =   -1.78 kcal/mol
DOCKED: USER    (3) Torsional Free Energy           =   +3.88 kcal/mol
DOCKED: USER    (4) Unbound System's Energy  [=(2)] =   -1.78 kcal/mol
DOCKED: USER    
DOCKED: USER    
DOCKED: USER    NEWDPF move heme_opt.pdbqt
DOCKED: USER    NEWDPF about 0.153000 0.018000 -0.028000
DOCKED: USER    NEWDPF tran0 -11.320346 -14.519977 -5.306931
DOCKED: USER    NEWDPF quaternion0 0.553658 0.155985 -0.812477 -0.094937
DOCKED: USER    NEWDPF axisangle0 0.556170 0.156693 -0.816163 -169.104658
DOCKED: USER    NEWDPF quat0 0.556170 0.156693 -0.816163 -169.104658
DOCKED: USER    NEWDPF dihe0 -97.28 69.59 -62.03 178.55 36.56 163.23 116.65 -68.42 130.04 112.11 69.36 -72.77 -16.44 
DOCKED: USER  keepresnum = 1 
DOCKED: USER  
DOCKED: REMARK  13 active torsions:
DOCKED: REMARK  status: ('A' for Active; 'I' for Inactive)
DOCKED: REMARK    1  A    between atoms: O_3  and  C_38 
DOCKED: REMARK    2  A    between atoms: O_4  and  C_40 
DOCKED: REMARK    3  A    between atoms: O_7  and  C_46 
DOCKED: REMARK    4  A    between atoms: O_9  and  C_48 
DOCKED: REMARK    5  A    between atoms: C_15  and  C_20 
DOCKED: REMARK    6  A    between atoms: C_16  and  C_23 
DOCKED: REMARK    7  A    between atoms: C_20  and  C_38 
DOCKED: REMARK    8  A    between atoms: C_23  and  C_40 
DOCKED: REMARK    9  A    between atoms: C_32  and  C_41 
DOCKED: REMARK   10  A    between atoms: C_37  and  C_45 
DOCKED: REMARK   11  A    between atoms: C_41  and  C_44 
DOCKED: REMARK   12  A    between atoms: C_44  and  C_46 
DOCKED: REMARK   13  A    between atoms: C_47  and  C_48 
DOCKED: USER                              x       y       z     vdW  Elec       q    Type
DOCKED: USER                           _______ _______ _______ _____ _____    ______ ____
DOCKED: ROOT
DOCKED: ATOM      1  O   UNL d   1      -9.262 -16.432  -0.124 -0.00 -0.18    -0.289 OA
DOCKED: ATOM      2  O   UNL d   1     -10.551  -9.480  -2.653 -0.36 -0.04    -0.289 OA
DOCKED: ATOM      3  N   UNL d   1     -10.360 -15.784  -3.329 -0.05 -0.12    -0.247 NA
DOCKED: ATOM      4  N   UNL d   1     -10.864 -12.856  -3.299 -0.07 -0.08    -0.247 NA
DOCKED: ATOM      5  N   UNL d   1     -12.284 -13.168  -5.779 -0.12 -0.06    -0.354 N 
DOCKED: ATOM      6  N   UNL d   1     -11.774 -16.208  -5.792 -0.05 -0.10    -0.354 N 
DOCKED: ATOM      7  C   UNL d   1      -9.990 -17.813  -2.005 -0.00 +0.04    +0.084 A 
DOCKED: ATOM      8  C   UNL d   1      -9.591 -11.519  -1.697 -0.29 +0.03    +0.084 A 
DOCKED: ATOM      9  C   UNL d   1      -9.974 -12.896  -2.248 -0.20 +0.03    +0.058 A 
DOCKED: ATOM     10  C   UNL d   1     -10.430 -17.167  -3.322 -0.04 +0.03    +0.058 A 
DOCKED: ATOM     11  C   UNL d   1      -9.641 -16.551  -1.275 -0.00 +0.11    +0.193 A 
DOCKED: ATOM     12  C   UNL d   1      -9.884 -15.393  -2.192 -0.07 +0.06    +0.109 A 
DOCKED: ATOM     13  C   UNL d   1     -10.456 -10.691  -2.605 -0.29 +0.04    +0.193 A 
DOCKED: ATOM     14  C   UNL d   1     -11.153 -18.497  -1.283 -0.01 +0.01    +0.026 C 
DOCKED: ATOM     15  C   UNL d   1      -9.521 -14.042  -1.717 -0.16 +0.03    +0.055 C 
DOCKED: ATOM     16  C   UNL d   1      -8.123 -11.184  -1.977 -0.21 +0.01    +0.026 C 
DOCKED: ATOM     17  C   UNL d   1     -11.181 -11.621  -3.523 -0.25 +0.02    +0.109 A 
DOCKED: ATOM     18  C   UNL d   1     -10.764 -17.911  -4.393 -0.05 +0.02    +0.050 C 
DOCKED: ATOM     19  C   UNL d   1     -11.102 -17.403  -5.674 -0.09 +0.02    +0.045 A 
DOCKED: ATOM     20  C   UNL d   1     -12.610 -11.870  -5.483 -0.32 +0.00    +0.045 A 
DOCKED: ATOM     21  C   UNL d   1     -12.142 -11.092  -4.502 -0.41 +0.00    +0.057 C 
DOCKED: ATOM     22  C   UNL d   1     -13.815 -12.536  -7.305 -0.25 -0.00    -0.019 A 
DOCKED: ATOM     23  C   UNL d   1     -12.962 -13.657  -6.864 -0.26 +0.00    +0.045 A 
DOCKED: ATOM     24  C   UNL d   1     -13.601 -11.480  -6.485 -0.29 -0.00    -0.022 A 
DOCKED: ATOM     25  C   UNL d   1     -12.079 -15.953  -7.109 -0.19 +0.01    +0.049 A 
DOCKED: ATOM     26  C   UNL d   1     -10.933 -17.921  -6.949 -0.14 -0.01    -0.018 A 
DOCKED: ATOM     27  C   UNL d   1     -11.534 -16.991  -7.853 -0.20 +0.00    +0.003 A 
DOCKED: ATOM     28  C   UNL d   1     -12.907 -14.855  -7.467 -0.17 +0.00    +0.052 C 
DOCKED: ATOM     29  C   UNL d   1     -14.216 -10.123  -6.531 -0.41 -0.00    +0.046 C 
DOCKED: ATOM     30  C   UNL d   1     -10.253 -19.198  -7.308 -0.12 +0.02    +0.046 C 
DOCKED: ATOM     31  H   UNL d   1     -11.552 -13.655  -5.273 +0.06 +0.04    +0.166 HD
DOCKED: ATOM     32  H   UNL d   1     -12.035 -15.631  -5.001 +0.04 +0.05    +0.166 HD
DOCKED: ENDROOT
DOCKED: BRANCH   7  33
DOCKED: ATOM     33  C   UNL d   1      -8.768 -18.734  -2.101 -0.00 +0.08    +0.141 C 
DOCKED: BRANCH  33  34
DOCKED: ATOM     34  C   UNL d   1      -8.356 -19.291  -0.766 +0.01 +0.15    +0.306 C 
DOCKED: ATOM     35  O   UNL d   1      -8.743 -20.337  -0.271 +0.00 -0.10    -0.251 OA
DOCKED: BRANCH  34  36
DOCKED: ATOM     36  O   UNL d   1      -7.477 -18.502  -0.124 +0.01 -0.32    -0.481 OA
DOCKED: ATOM     37  H   UNL d   1      -8.026 -17.797   0.279 +0.02 +0.20    +0.295 HD
DOCKED: ENDBRANCH  34  36
DOCKED: ENDBRANCH  33  34
DOCKED: ENDBRANCH   7  33
DOCKED: BRANCH  27  38
DOCKED: ATOM     38  C   UNL d   1     -11.598 -17.146  -9.275 -0.17 +0.00    +0.017 C 
DOCKED: ATOM     39  C   UNL d   1     -12.625 -16.766 -10.050 -0.14 +0.02    +0.092 C 
DOCKED: BRANCH  39  40
DOCKED: ATOM     40  C   UNL d   1     -12.558 -16.966 -11.500 -0.16 +0.12    +0.330 C 
DOCKED: ATOM     41  O   UNL d   1     -13.481 -16.979 -12.292 -0.13 -0.13    -0.246 OA
DOCKED: BRANCH  40  42
DOCKED: ATOM     42  O   UNL d   1     -11.283 -17.136 -11.884 -0.16 -0.17    -0.477 OA
DOCKED: ATOM     43  H   UNL d   1     -11.078 -16.320 -12.385 -0.44 +0.06    +0.295 HD
DOCKED: ENDBRANCH  40  42
DOCKED: ENDBRANCH  39  40
DOCKED: ENDBRANCH  27  38
DOCKED: BRANCH   8  44
DOCKED: ATOM     44  C   UNL d   1      -9.945 -11.273  -0.227 -0.35 +0.06    +0.141 C 
DOCKED: BRANCH  44  45
DOCKED: ATOM     45  C   UNL d   1      -9.237 -12.206   0.719 -0.21 +0.20    +0.306 C 
DOCKED: ATOM     46  O   UNL d   1      -8.055 -12.179   1.017 -0.67 -0.25    -0.251 OA
DOCKED: BRANCH  45  47
DOCKED: ATOM     47  O   UNL d   1     -10.054 -13.148   1.222 -0.60 -0.32    -0.481 OA
DOCKED: ATOM     48  H   UNL d   1      -9.686 -13.997   0.896 +0.11 +0.19    +0.295 HD
DOCKED: ENDBRANCH  45  47
DOCKED: ENDBRANCH  44  45
DOCKED: ENDBRANCH   8  44
DOCKED: BRANCH  22  49
DOCKED: ATOM     49  C   UNL d   1     -14.762 -12.605  -8.468 -0.22 +0.00    +0.048 C 
DOCKED: BRANCH  49  50
DOCKED: ATOM     50  C   UNL d   1     -14.170 -11.961  -9.722 -0.25 +0.01    +0.125 C 
DOCKED: BRANCH  50  51
DOCKED: ATOM     51  C   UNL d   1     -14.877 -10.676 -10.050 -0.18 +0.02    +0.305 C 
DOCKED: ATOM     52  O   UNL d   1     -15.986 -10.541 -10.536 -0.12 -0.04    -0.251 OA
DOCKED: BRANCH  51  53
DOCKED: ATOM     53  O   UNL d   1     -14.125  -9.598  -9.752 -0.19 +0.09    -0.481 OA
DOCKED: ATOM     54  H   UNL d   1     -13.309  -9.976  -9.362 -0.37 -0.20    +0.295 HD
DOCKED: ENDBRANCH  51  53
DOCKED: ENDBRANCH  50  51
DOCKED: ENDBRANCH  49  50
DOCKED: ENDBRANCH  22  49
DOCKED: TORSDOF 13
DOCKED: TER
DOCKED: ENDMDL
________________________________________________________________________________


	BEGINNING GENETIC ALGORITHM DOCKING 6 of 100
Run: 6 Seed: 659490043 1222808624 [ Run 6 of 100 GA/GALS ]
Beginning LAMARCKIAN GENETIC ALGORITHM (LGA), with a maximum of 25000000 energy evaluations.

Final-Value: -10.556


	FINAL GENETIC ALGORITHM DOCKED STATE
	_______________________________________________


Detailed state:  trans -11.716 -14.382 7.675 quatxyzw -0.432070 0.424914 -0.572986 0.551771 center 0.153 0.018 -0.028 ntor 13 -110.2728 -139.6777 120.1110 2.6496 40.3173 -72.6543 -82.1048 -163.7350 135.1853 -14.2761 65.0570 -1.2039 136.5531
State:	-11.716 -14.382   7.675  -0.518  0.509 -0.687 113.023   -110.27 -139.68  120.11    2.65   40.32  -72.65  -82.10 -163.73  135.19  -14.28   65.06   -1.20  136.55

DOCKED: MODEL        6
DOCKED: USER    Run = 6
DOCKED: USER    DPF = D:/Protein_go_brrr/autodock/final/AncA/heme/dock.dpf
DOCKED: USER  
DOCKED: USER    Estimated Free Energy of Binding    =   -3.15 kcal/mol  [=(1)+(2)+(3)-(4)]
DOCKED: USER    Estimated Inhibition Constant, Ki   =    4.88 mM (millimolar)  [Temperature = 298.15 K]
DOCKED: USER    
DOCKED: USER    (1) Final Intermolecular Energy     =   -7.03 kcal/mol
DOCKED: USER        vdW + Hbond + desolv Energy     =   -6.77 kcal/mol
DOCKED: USER        Electrostatic Energy            =   -0.26 kcal/mol
DOCKED: USER    (2) Final Total Internal Energy     =   -3.52 kcal/mol
DOCKED: USER    (3) Torsional Free Energy           =   +3.88 kcal/mol
DOCKED: USER    (4) Unbound System's Energy  [=(2)] =   -3.52 kcal/mol
DOCKED: USER    
DOCKED: USER    
DOCKED: USER    NEWDPF move heme_opt.pdbqt
DOCKED: USER    NEWDPF about 0.153000 0.018000 -0.028000
DOCKED: USER    NEWDPF tran0 -11.716158 -14.382478 7.675117
DOCKED: USER    NEWDPF quaternion0 -0.432070 0.424914 -0.572986 0.551771
DOCKED: USER    NEWDPF axisangle0 -0.518072 0.509492 -0.687036 113.022844
DOCKED: USER    NEWDPF quat0 -0.518072 0.509492 -0.687036 113.022844
DOCKED: USER    NEWDPF dihe0 -110.27 -139.68 120.11 2.65 40.32 -72.65 -82.10 -163.73 135.19 -14.28 65.06 -1.20 136.55 
DOCKED: USER  keepresnum = 1 
DOCKED: USER  
DOCKED: REMARK  13 active torsions:
DOCKED: REMARK  status: ('A' for Active; 'I' for Inactive)
DOCKED: REMARK    1  A    between atoms: O_3  and  C_38 
DOCKED: REMARK    2  A    between atoms: O_4  and  C_40 
DOCKED: REMARK    3  A    between atoms: O_7  and  C_46 
DOCKED: REMARK    4  A    between atoms: O_9  and  C_48 
DOCKED: REMARK    5  A    between atoms: C_15  and  C_20 
DOCKED: REMARK    6  A    between atoms: C_16  and  C_23 
DOCKED: REMARK    7  A    between atoms: C_20  and  C_38 
DOCKED: REMARK    8  A    between atoms: C_23  and  C_40 
DOCKED: REMARK    9  A    between atoms: C_32  and  C_41 
DOCKED: REMARK   10  A    between atoms: C_37  and  C_45 
DOCKED: REMARK   11  A    between atoms: C_41  and  C_44 
DOCKED: REMARK   12  A    between atoms: C_44  and  C_46 
DOCKED: REMARK   13  A    between atoms: C_47  and  C_48 
DOCKED: USER                              x       y       z     vdW  Elec       q    Type
DOCKED: USER                           _______ _______ _______ _____ _____    ______ ____
DOCKED: ROOT
DOCKED: ATOM      1  O   UNL d   1     -13.288 -16.545   2.421 -0.08 -0.07    -0.289 OA
DOCKED: ATOM      2  O   UNL d   1      -6.867 -13.420   4.743 -0.64 -0.45    -0.289 OA
DOCKED: ATOM      3  N   UNL d   1     -12.869 -15.283   5.603 -0.41 -0.10    -0.247 NA
DOCKED: ATOM      4  N   UNL d   1      -9.988 -14.559   5.677 -0.12 -0.11    -0.247 NA
DOCKED: ATOM      5  N   UNL d   1     -10.219 -14.307   8.531 -0.12 -0.12    -0.354 N 
DOCKED: ATOM      6  N   UNL d   1     -13.203 -15.078   8.448 -0.07 -0.07    -0.354 N 
DOCKED: ATOM      7  C   UNL d   1     -14.640 -16.531   4.457 -0.11 +0.01    +0.084 A 
DOCKED: ATOM      8  C   UNL d   1      -8.912 -14.032   3.547 -0.18 +0.07    +0.084 A 
DOCKED: ATOM      9  C   UNL d   1     -10.148 -14.521   4.310 -0.18 +0.03    +0.058 A 
DOCKED: ATOM     10  C   UNL d   1     -14.120 -15.861   5.733 -0.12 +0.01    +0.058 A 
DOCKED: ATOM     11  C   UNL d   1     -13.468 -16.214   3.578 -0.11 +0.04    +0.193 A 
DOCKED: ATOM     12  C   UNL d   1     -12.474 -15.432   4.381 -0.17 +0.03    +0.109 A 
DOCKED: ATOM     13  C   UNL d   1      -8.009 -13.836   4.731 -0.18 +0.19    +0.193 A 
DOCKED: ATOM     14  C   UNL d   1     -14.747 -18.051   4.610 -0.03 +0.00    +0.026 C 
DOCKED: ATOM     15  C   UNL d   1     -11.269 -14.925   3.693 -0.22 +0.02    +0.055 C 
DOCKED: ATOM     16  C   UNL d   1      -9.156 -12.674   2.882 -0.26 +0.02    +0.026 C 
DOCKED: ATOM     17  C   UNL d   1      -8.778 -14.197   5.960 -0.18 +0.06    +0.109 A 
DOCKED: ATOM     18  C   UNL d   1     -14.878 -15.778   6.842 -0.12 +0.01    +0.050 C 
DOCKED: ATOM     19  C   UNL d   1     -14.517 -15.106   8.037 -0.01 +0.00    +0.045 A 
DOCKED: ATOM     20  C   UNL d   1      -8.858 -14.222   8.397 -0.25 +0.01    +0.045 A 
DOCKED: ATOM     21  C   UNL d   1      -8.130 -14.143   7.279 -0.21 +0.03    +0.057 C 
DOCKED: ATOM     22  C   UNL d   1      -9.376 -14.320  10.620 -0.22 -0.00    -0.019 A 
DOCKED: ATOM     23  C   UNL d   1     -10.627 -14.371   9.837 -0.23 +0.01    +0.045 A 
DOCKED: ATOM     24  C   UNL d   1      -8.332 -14.230   9.762 -0.23 -0.00    -0.022 A 
DOCKED: ATOM     25  C   UNL d   1     -13.092 -14.456   9.670 -0.11 +0.01    +0.049 A 
DOCKED: ATOM     26  C   UNL d   1     -15.273 -14.454   8.999 -0.17 -0.00    -0.018 A 
DOCKED: ATOM     27  C   UNL d   1     -14.366 -14.028  10.017 -0.18 +0.00    +0.003 A 
DOCKED: ATOM     28  C   UNL d   1     -11.856 -14.442  10.371 -0.21 +0.01    +0.052 C 
DOCKED: ATOM     29  C   UNL d   1      -6.876 -14.140  10.070 -0.19 +0.01    +0.046 C 
DOCKED: ATOM     30  C   UNL d   1     -16.748 -14.236   8.974 -0.21 -0.00    +0.046 C 
DOCKED: ATOM     31  H   UNL d   1     -10.832 -14.244   7.726 +0.05 +0.07    +0.166 HD
DOCKED: ATOM     32  H   UNL d   1     -12.444 -15.499   7.926 +0.03 +0.04    +0.166 HD
DOCKED: ENDROOT
DOCKED: BRANCH   7  33
DOCKED: ATOM     33  C   UNL d   1     -15.925 -15.933   3.877 -0.18 +0.01    +0.141 C 
DOCKED: BRANCH  33  34
DOCKED: ATOM     34  C   UNL d   1     -16.417 -16.679   2.667 -0.08 +0.04    +0.306 C 
DOCKED: ATOM     35  O   UNL d   1     -17.246 -17.574   2.660 -0.03 -0.03    -0.251 OA
DOCKED: BRANCH  34  36
DOCKED: ATOM     36  O   UNL d   1     -15.840 -16.258   1.528 -0.07 -0.09    -0.481 OA
DOCKED: ATOM     37  H   UNL d   1     -14.900 -16.524   1.614 +0.06 +0.06    +0.295 HD
DOCKED: ENDBRANCH  34  36
DOCKED: ENDBRANCH  33  34
DOCKED: ENDBRANCH   7  33
DOCKED: BRANCH  27  38
DOCKED: ATOM     38  C   UNL d   1     -14.734 -13.326  11.210 -0.22 +0.00    +0.017 C 
DOCKED: ATOM     39  C   UNL d   1     -13.999 -12.376  11.807 -0.26 +0.01    +0.092 C 
DOCKED: BRANCH  39  40
DOCKED: ATOM     40  C   UNL d   1     -14.499 -11.719  13.018 -0.09 +0.02    +0.330 C 
DOCKED: ATOM     41  O   UNL d   1     -15.376 -10.880  13.100 -0.11 -0.00    -0.246 OA
DOCKED: BRANCH  40  42
DOCKED: ATOM     42  O   UNL d   1     -13.847 -12.180  14.096 -0.04 -0.05    -0.477 OA
DOCKED: ATOM     43  H   UNL d   1     -12.919 -12.257  13.794 +0.07 +0.05    +0.295 HD
DOCKED: ENDBRANCH  40  42
DOCKED: ENDBRANCH  39  40
DOCKED: ENDBRANCH  27  38
DOCKED: BRANCH   8  44
DOCKED: ATOM     44  C   UNL d   1      -8.309 -15.034   2.556 -0.10 +0.16    +0.141 C 
DOCKED: BRANCH  44  45
DOCKED: ATOM     45  C   UNL d   1      -7.772 -16.275   3.219 -0.02 +0.35    +0.306 C 
DOCKED: ATOM     46  O   UNL d   1      -6.649 -16.734   3.101 -0.16 -0.42    -0.251 OA
DOCKED: BRANCH  45  47
DOCKED: ATOM     47  O   UNL d   1      -8.694 -16.892   3.979 +0.01 -0.31    -0.481 OA
DOCKED: ATOM     48  H   UNL d   1      -8.938 -16.230   4.660 +0.05 +0.18    +0.295 HD
DOCKED: ENDBRANCH  45  47
DOCKED: ENDBRANCH  44  45
DOCKED: ENDBRANCH   8  44
DOCKED: BRANCH  22  49
DOCKED: ATOM     49  C   UNL d   1      -9.316 -14.378  12.118 -0.01 +0.01    +0.048 C 
DOCKED: BRANCH  49  50
DOCKED: ATOM     50  C   UNL d   1     -10.068 -15.588  12.671 -0.08 +0.02    +0.125 C 
DOCKED: BRANCH  50  51
DOCKED: ATOM     51  C   UNL d   1     -11.266 -15.157  13.468 -0.06 +0.04    +0.305 C 
DOCKED: ATOM     52  O   UNL d   1     -11.976 -15.849  14.177 -0.02 -0.03    -0.251 OA
DOCKED: BRANCH  51  53
DOCKED: ATOM     53  O   UNL d   1     -11.525 -13.843  13.318 -0.05 -0.09    -0.481 OA
DOCKED: ATOM     54  H   UNL d   1     -12.293 -13.683  13.906 +0.05 +0.05    +0.295 HD
DOCKED: ENDBRANCH  51  53
DOCKED: ENDBRANCH  50  51
DOCKED: ENDBRANCH  49  50
DOCKED: ENDBRANCH  22  49
DOCKED: TORSDOF 13
DOCKED: TER
DOCKED: ENDMDL
________________________________________________________________________________


	BEGINNING GENETIC ALGORITHM DOCKING 7 of 100
Run: 7 Seed: 1332484081 593839784 [ Run 7 of 100 GA/GALS ]
Beginning LAMARCKIAN GENETIC ALGORITHM (LGA), with a maximum of 25000000 energy evaluations.

Final-Value: -11.733


	FINAL GENETIC ALGORITHM DOCKED STATE
	_______________________________________________


Detailed state:  trans -14.819 9.347 -1.699 quatxyzw 0.784777 -0.270173 -0.451264 0.327861 center 0.153 0.018 -0.028 ntor 13 98.0640 173.7155 -161.3907 32.7510 -136.3287 77.6651 135.1423 31.6105 57.6415 -12.2252 -67.2082 -89.0494 -1.4756
State:	-14.819   9.347  -1.699   0.831 -0.286 -0.478 141.722     98.06  173.72 -161.39   32.75 -136.33   77.67  135.14   31.61   57.64  -12.23  -67.21  -89.05   -1.48

DOCKED: MODEL        7
DOCKED: USER    Run = 7
DOCKED: USER    DPF = D:/Protein_go_brrr/autodock/final/AncA/heme/dock.dpf
DOCKED: USER  
DOCKED: USER    Estimated Free Energy of Binding    =   -3.18 kcal/mol  [=(1)+(2)+(3)-(4)]
DOCKED: USER    Estimated Inhibition Constant, Ki   =    4.67 mM (millimolar)  [Temperature = 298.15 K]
DOCKED: USER    
DOCKED: USER    (1) Final Intermolecular Energy     =   -7.06 kcal/mol
DOCKED: USER        vdW + Hbond + desolv Energy     =   -7.04 kcal/mol
DOCKED: USER        Electrostatic Energy            =   -0.01 kcal/mol
DOCKED: USER    (2) Final Total Internal Energy     =   -4.68 kcal/mol
DOCKED: USER    (3) Torsional Free Energy           =   +3.88 kcal/mol
DOCKED: USER    (4) Unbound System's Energy  [=(2)] =   -4.68 kcal/mol
DOCKED: USER    
DOCKED: USER    
DOCKED: USER    NEWDPF move heme_opt.pdbqt
DOCKED: USER    NEWDPF about 0.153000 0.018000 -0.028000
DOCKED: USER    NEWDPF tran0 -14.819447 9.346789 -1.699211
DOCKED: USER    NEWDPF quaternion0 0.784777 -0.270173 -0.451264 0.327861
DOCKED: USER    NEWDPF axisangle0 0.830692 -0.285981 -0.477666 141.721980
DOCKED: USER    NEWDPF quat0 0.830692 -0.285981 -0.477666 141.721980
DOCKED: USER    NEWDPF dihe0 98.06 173.72 -161.39 32.75 -136.33 77.67 135.14 31.61 57.64 -12.23 -67.21 -89.05 -1.48 
DOCKED: USER  keepresnum = 1 
DOCKED: USER  
DOCKED: REMARK  13 active torsions:
DOCKED: REMARK  status: ('A' for Active; 'I' for Inactive)
DOCKED: REMARK    1  A    between atoms: O_3  and  C_38 
DOCKED: REMARK    2  A    between atoms: O_4  and  C_40 
DOCKED: REMARK    3  A    between atoms: O_7  and  C_46 
DOCKED: REMARK    4  A    between atoms: O_9  and  C_48 
DOCKED: REMARK    5  A    between atoms: C_15  and  C_20 
DOCKED: REMARK    6  A    between atoms: C_16  and  C_23 
DOCKED: REMARK    7  A    between atoms: C_20  and  C_38 
DOCKED: REMARK    8  A    between atoms: C_23  and  C_40 
DOCKED: REMARK    9  A    between atoms: C_32  and  C_41 
DOCKED: REMARK   10  A    between atoms: C_37  and  C_45 
DOCKED: REMARK   11  A    between atoms: C_41  and  C_44 
DOCKED: REMARK   12  A    between atoms: C_44  and  C_46 
DOCKED: REMARK   13  A    between atoms: C_47  and  C_48 
DOCKED: USER                              x       y       z     vdW  Elec       q    Type
DOCKED: USER                           _______ _______ _______ _____ _____    ______ ____
DOCKED: ROOT
DOCKED: ATOM      1  O   UNL d   1     -18.886   9.478   2.567 -0.03 -0.01    -0.289 OA
DOCKED: ATOM      2  O   UNL d   1     -11.679  11.586   2.562 -0.06 -0.01    -0.289 OA
DOCKED: ATOM      3  N   UNL d   1     -16.826   9.082  -0.170 -0.17 +0.03    -0.247 NA
DOCKED: ATOM      4  N   UNL d   1     -14.322  10.452   0.655 -0.15 +0.00    -0.247 NA
DOCKED: ATOM      5  N   UNL d   1     -13.472  10.352  -2.090 -0.14 +0.02    -0.354 N 
DOCKED: ATOM      6  N   UNL d   1     -16.080   8.948  -2.941 -0.09 +0.05    -0.354 N 
DOCKED: ATOM      7  C   UNL d   1     -19.216   8.746   0.258 -0.09 +0.00    +0.084 A 
DOCKED: ATOM      8  C   UNL d   1     -13.861  10.591   3.051 -0.16 +0.00    +0.084 A 
DOCKED: ATOM      9  C   UNL d   1     -14.815  10.203   1.916 -0.23 +0.00    +0.058 A 
DOCKED: ATOM     10  C   UNL d   1     -18.038   8.697  -0.719 -0.18 -0.00    +0.058 A 
DOCKED: ATOM     11  C   UNL d   1     -18.452   9.209   1.462 -0.08 +0.00    +0.193 A 
DOCKED: ATOM     12  C   UNL d   1     -17.011   9.351   1.081 -0.19 -0.01    +0.109 A 
DOCKED: ATOM     13  C   UNL d   1     -12.751  11.141   2.201 -0.10 +0.00    +0.193 A 
DOCKED: ATOM     14  C   UNL d   1     -20.236   9.821  -0.125 -0.03 +0.00    +0.026 C 
DOCKED: ATOM     15  C   UNL d   1     -16.044   9.711   2.138 -0.24 -0.00    +0.055 C 
DOCKED: ATOM     16  C   UNL d   1     -13.342   9.361   3.802 -0.30 -0.00    +0.026 C 
DOCKED: ATOM     17  C   UNL d   1     -13.158  11.006   0.769 -0.04 +0.00    +0.109 A 
DOCKED: ATOM     18  C   UNL d   1     -18.183   8.228  -1.973 -0.21 +0.00    +0.050 C 
DOCKED: ATOM     19  C   UNL d   1     -17.137   8.066  -2.917 -0.24 -0.00    +0.045 A 
DOCKED: ATOM     20  C   UNL d   1     -12.506  11.177  -1.574 -0.11 -0.00    +0.045 A 
DOCKED: ATOM     21  C   UNL d   1     -12.278  11.505  -0.298 -0.05 +0.00    +0.057 C 
DOCKED: ATOM     22  C   UNL d   1     -12.271  11.095  -3.845 -0.16 +0.00    -0.019 A 
DOCKED: ATOM     23  C   UNL d   1     -13.410  10.241  -3.453 -0.18 -0.00    +0.045 A 
DOCKED: ATOM     24  C   UNL d   1     -11.739  11.646  -2.728 -0.15 +0.00    -0.022 A 
DOCKED: ATOM     25  C   UNL d   1     -15.235   8.660  -3.987 -0.25 -0.00    +0.049 A 
DOCKED: ATOM     26  C   UNL d   1     -16.955   7.161  -3.951 -0.34 +0.00    -0.018 A 
DOCKED: ATOM     27  C   UNL d   1     -15.742   7.529  -4.611 -0.36 -0.00    +0.003 A 
DOCKED: ATOM     28  C   UNL d   1     -14.155   9.527  -4.311 -0.20 -0.00    +0.052 C 
DOCKED: ATOM     29  C   UNL d   1     -10.573  12.566  -2.606 -0.09 -0.00    +0.046 C 
DOCKED: ATOM     30  C   UNL d   1     -17.850   6.022  -4.305 -0.27 -0.00    +0.046 C 
DOCKED: ATOM     31  H   UNL d   1     -14.097   9.832  -1.484 -0.16 -0.03    +0.166 HD
DOCKED: ATOM     32  H   UNL d   1     -15.980   9.720  -2.293 +0.01 -0.02    +0.166 HD
DOCKED: ENDROOT
DOCKED: BRANCH   7  33
DOCKED: ATOM     33  C   UNL d   1     -19.895   7.401   0.537 -0.11 +0.02    +0.141 C 
DOCKED: BRANCH  33  34
DOCKED: ATOM     34  C   UNL d   1     -19.547   6.847   1.892 -0.10 +0.05    +0.306 C 
DOCKED: ATOM     35  O   UNL d   1     -18.539   6.223   2.179 -0.16 -0.02    -0.251 OA
DOCKED: BRANCH  34  36
DOCKED: ATOM     36  O   UNL d   1     -20.488   7.110   2.817 -0.00 -0.08    -0.481 OA
DOCKED: ATOM     37  H   UNL d   1     -20.270   8.010   3.141 +0.04 +0.03    +0.295 HD
DOCKED: ENDBRANCH  34  36
DOCKED: ENDBRANCH  33  34
DOCKED: ENDBRANCH   7  33
DOCKED: BRANCH  27  38
DOCKED: ATOM     38  C   UNL d   1     -15.187   6.862  -5.750 -0.36 +0.00    +0.017 C 
DOCKED: ATOM     39  C   UNL d   1     -14.821   7.459  -6.894 -0.22 +0.00    +0.092 C 
DOCKED: BRANCH  39  40
DOCKED: ATOM     40  C   UNL d   1     -14.247   6.663  -7.983 -0.16 +0.03    +0.330 C 
DOCKED: ATOM     41  O   UNL d   1     -14.832   5.921  -8.748 -0.14 -0.01    -0.246 OA
DOCKED: BRANCH  40  42
DOCKED: ATOM     42  O   UNL d   1     -12.922   6.862  -8.052 -0.47 -0.07    -0.477 OA
DOCKED: ATOM     43  H   UNL d   1     -12.758   7.575  -7.401 +0.11 +0.02    +0.295 HD
DOCKED: ENDBRANCH  40  42
DOCKED: ENDBRANCH  39  40
DOCKED: ENDBRANCH  27  38
DOCKED: BRANCH   8  44
DOCKED: ATOM     44  C   UNL d   1     -14.387  11.653   4.022 -0.04 +0.01    +0.141 C 
DOCKED: BRANCH  44  45
DOCKED: ATOM     45  C   UNL d   1     -14.671  12.975   3.360 -0.00 +0.01    +0.306 C 
DOCKED: ATOM     46  O   UNL d   1     -15.730  13.331   2.874 -0.01 -0.01    -0.251 OA
DOCKED: BRANCH  45  47
DOCKED: ATOM     47  O   UNL d   1     -13.589  13.773   3.320 +0.00 -0.02    -0.481 OA
DOCKED: ATOM     48  H   UNL d   1     -12.831  13.171   3.476 +0.02 +0.01    +0.295 HD
DOCKED: ENDBRANCH  45  47
DOCKED: ENDBRANCH  44  45
DOCKED: ENDBRANCH   8  44
DOCKED: BRANCH  22  49
DOCKED: ATOM     49  C   UNL d   1     -11.822  11.304  -5.261 -0.13 -0.00    +0.048 C 
DOCKED: BRANCH  49  50
DOCKED: ATOM     50  C   UNL d   1     -10.873  10.200  -5.726 -0.12 -0.02    +0.125 C 
DOCKED: BRANCH  50  51
DOCKED: ATOM     51  C   UNL d   1     -11.502   9.373  -6.811 -0.12 -0.02    +0.305 C 
DOCKED: ATOM     52  O   UNL d   1     -12.375   9.711  -7.591 -0.06 -0.00    -0.251 OA
DOCKED: BRANCH  51  53
DOCKED: ATOM     53  O   UNL d   1     -10.993   8.125  -6.853 -0.10 +0.02    -0.481 OA
DOCKED: ATOM     54  H   UNL d   1     -11.031   7.885  -7.803 +0.12 +0.02    +0.295 HD
DOCKED: ENDBRANCH  51  53
DOCKED: ENDBRANCH  50  51
DOCKED: ENDBRANCH  49  50
DOCKED: ENDBRANCH  22  49
DOCKED: TORSDOF 13
DOCKED: TER
DOCKED: ENDMDL
________________________________________________________________________________


	BEGINNING GENETIC ALGORITHM DOCKING 8 of 100
Run: 8 Seed: 109001383 390119440 [ Run 8 of 100 GA/GALS ]
Beginning LAMARCKIAN GENETIC ALGORITHM (LGA), with a maximum of 25000000 energy evaluations.

Final-Value: -13.166


	FINAL GENETIC ALGORITHM DOCKED STATE
	_______________________________________________


Detailed state:  trans -6.334 -1.387 -16.342 quatxyzw -0.740752 0.629036 0.188366 -0.141845 center 0.153 0.018 -0.028 ntor 13 -133.0669 73.7456 121.1621 106.7021 45.6904 -160.1618 -44.9765 -105.4309 148.7716 -137.5865 -58.6706 113.3247 -129.1351
State:	 -6.334  -1.387 -16.342  -0.748  0.635  0.190 -163.691   -133.07   73.75  121.16  106.70   45.69 -160.16  -44.98 -105.43  148.77 -137.59  -58.67  113.32 -129.14

DOCKED: MODEL        8
DOCKED: USER    Run = 8
DOCKED: USER    DPF = D:/Protein_go_brrr/autodock/final/AncA/heme/dock.dpf
DOCKED: USER  
DOCKED: USER    Estimated Free Energy of Binding    =   -7.39 kcal/mol  [=(1)+(2)+(3)-(4)]
DOCKED: USER    Estimated Inhibition Constant, Ki   =    3.80 uM (micromolar)  [Temperature = 298.15 K]
DOCKED: USER    
DOCKED: USER    (1) Final Intermolecular Energy     =  -11.27 kcal/mol
DOCKED: USER        vdW + Hbond + desolv Energy     =  -10.55 kcal/mol
DOCKED: USER        Electrostatic Energy            =   -0.72 kcal/mol
DOCKED: USER    (2) Final Total Internal Energy     =   -1.89 kcal/mol
DOCKED: USER    (3) Torsional Free Energy           =   +3.88 kcal/mol
DOCKED: USER    (4) Unbound System's Energy  [=(2)] =   -1.89 kcal/mol
DOCKED: USER    
DOCKED: USER    
DOCKED: USER    NEWDPF move heme_opt.pdbqt
DOCKED: USER    NEWDPF about 0.153000 0.018000 -0.028000
DOCKED: USER    NEWDPF tran0 -6.333757 -1.386776 -16.342008
DOCKED: USER    NEWDPF quaternion0 -0.740752 0.629036 0.188366 -0.141845
DOCKED: USER    NEWDPF axisangle0 -0.748318 0.635461 0.190290 -163.690803
DOCKED: USER    NEWDPF quat0 -0.748318 0.635461 0.190290 -163.690803
DOCKED: USER    NEWDPF dihe0 -133.07 73.75 121.16 106.70 45.69 -160.16 -44.98 -105.43 148.77 -137.59 -58.67 113.32 -129.14 
DOCKED: USER  keepresnum = 1 
DOCKED: USER  
DOCKED: REMARK  13 active torsions:
DOCKED: REMARK  status: ('A' for Active; 'I' for Inactive)
DOCKED: REMARK    1  A    between atoms: O_3  and  C_38 
DOCKED: REMARK    2  A    between atoms: O_4  and  C_40 
DOCKED: REMARK    3  A    between atoms: O_7  and  C_46 
DOCKED: REMARK    4  A    between atoms: O_9  and  C_48 
DOCKED: REMARK    5  A    between atoms: C_15  and  C_20 
DOCKED: REMARK    6  A    between atoms: C_16  and  C_23 
DOCKED: REMARK    7  A    between atoms: C_20  and  C_38 
DOCKED: REMARK    8  A    between atoms: C_23  and  C_40 
DOCKED: REMARK    9  A    between atoms: C_32  and  C_41 
DOCKED: REMARK   10  A    between atoms: C_37  and  C_45 
DOCKED: REMARK   11  A    between atoms: C_41  and  C_44 
DOCKED: REMARK   12  A    between atoms: C_44  and  C_46 
DOCKED: REMARK   13  A    between atoms: C_47  and  C_48 
DOCKED: USER                              x       y       z     vdW  Elec       q    Type
DOCKED: USER                           _______ _______ _______ _____ _____    ______ ____
DOCKED: ROOT
DOCKED: ATOM      1  O   UNL d   1      -8.836   3.548 -14.306 -0.36 +0.00    -0.289 OA
DOCKED: ATOM      2  O   UNL d   1      -1.766   1.057 -13.853 -0.28 +0.01    -0.289 OA
DOCKED: ATOM      3  N   UNL d   1      -7.850   0.486 -15.551 -0.21 +0.07    -0.247 NA
DOCKED: ATOM      4  N   UNL d   1      -4.901   0.519 -15.191 -0.14 +0.01    -0.247 NA
DOCKED: ATOM      5  N   UNL d   1      -4.756  -1.766 -16.930 -0.13 +0.02    -0.354 N 
DOCKED: ATOM      6  N   UNL d   1      -7.814  -1.781 -17.313 -0.08 +0.07    -0.354 N 
DOCKED: ATOM      7  C   UNL d   1      -9.922   1.795 -15.618 -0.19 -0.04    +0.084 A 
DOCKED: ATOM      8  C   UNL d   1      -4.008   1.930 -13.406 -0.25 -0.00    +0.084 A 
DOCKED: ATOM      9  C   UNL d   1      -5.210   1.456 -14.230 -0.26 -0.00    +0.058 A 
DOCKED: ATOM     10  C   UNL d   1      -9.156   0.528 -16.011 -0.25 -0.03    +0.058 A 
DOCKED: ATOM     11  C   UNL d   1      -8.823   2.453 -14.838 -0.15 -0.04    +0.193 A 
DOCKED: ATOM     12  C   UNL d   1      -7.629   1.550 -14.850 -0.26 -0.02    +0.109 A 
DOCKED: ATOM     13  C   UNL d   1      -2.954   1.117 -14.102 -0.20 -0.01    +0.193 A 
DOCKED: ATOM     14  C   UNL d   1     -10.256   2.664 -16.833 -0.07 -0.01    +0.026 C 
DOCKED: ATOM     15  C   UNL d   1      -6.446   1.951 -14.062 -0.31 -0.00    +0.055 C 
DOCKED: ATOM     16  C   UNL d   1      -4.102   1.470 -11.948 -0.50 -0.00    +0.026 C 
DOCKED: ATOM     17  C   UNL d   1      -3.624   0.311 -15.168 -0.20 -0.01    +0.109 A 
DOCKED: ATOM     18  C   UNL d   1      -9.756  -0.481 -16.670 -0.22 -0.03    +0.050 C 
DOCKED: ATOM     19  C   UNL d   1      -9.153  -1.721 -17.001 -0.20 -0.02    +0.045 A 
DOCKED: ATOM     20  C   UNL d   1      -3.423  -1.458 -16.833 -0.06 -0.00    +0.045 A 
DOCKED: ATOM     21  C   UNL d   1      -2.827  -0.555 -16.048 -0.05 -0.00    +0.057 C 
DOCKED: ATOM     22  C   UNL d   1      -3.689  -3.109 -18.389 -0.30 +0.00    -0.019 A 
DOCKED: ATOM     23  C   UNL d   1      -5.014  -2.752 -17.844 -0.30 -0.00    +0.045 A 
DOCKED: ATOM     24  C   UNL d   1      -2.751  -2.341 -17.786 -0.23 +0.00    -0.022 A 
DOCKED: ATOM     25  C   UNL d   1      -7.462  -3.057 -17.689 -0.23 -0.01    +0.049 A 
DOCKED: ATOM     26  C   UNL d   1      -9.677  -2.997 -17.141 -0.22 +0.01    -0.018 A 
DOCKED: ATOM     27  C   UNL d   1      -8.600  -3.840 -17.557 -0.27 -0.00    +0.003 A 
DOCKED: ATOM     28  C   UNL d   1      -6.168  -3.333 -18.206 -0.27 -0.01    +0.052 C 
DOCKED: ATOM     29  C   UNL d   1      -1.274  -2.339 -17.989 -0.31 -0.00    +0.046 C 
DOCKED: ATOM     30  C   UNL d   1     -11.090  -3.411 -16.903 -0.20 -0.02    +0.046 C 
DOCKED: ATOM     31  H   UNL d   1      -5.439  -1.342 -16.312 +0.07 -0.01    +0.166 HD
DOCKED: ATOM     32  H   UNL d   1      -7.199  -0.976 -17.302 +0.05 -0.02    +0.166 HD
DOCKED: ENDROOT
DOCKED: BRANCH   7  33
DOCKED: ATOM     33  C   UNL d   1     -11.151   1.570 -14.731 -0.18 -0.13    +0.141 C 
DOCKED: BRANCH  33  34
DOCKED: ATOM     34  C   UNL d   1     -12.071   2.761 -14.704 -0.11 -0.12    +0.306 C 
DOCKED: ATOM     35  O   UNL d   1     -13.098   2.893 -15.347 -0.04 +0.07    -0.251 OA
DOCKED: BRANCH  34  36
DOCKED: ATOM     36  O   UNL d   1     -11.648   3.723 -13.865 -0.10 +0.12    -0.481 OA
DOCKED: ATOM     37  H   UNL d   1     -10.686   3.799 -14.041 +0.07 -0.06    +0.295 HD
DOCKED: ENDBRANCH  34  36
DOCKED: ENDBRANCH  33  34
DOCKED: ENDBRANCH   7  33
DOCKED: BRANCH  27  38
DOCKED: ATOM     38  C   UNL d   1      -8.709  -5.241 -17.833 -0.27 -0.01    +0.017 C 
DOCKED: ATOM     39  C   UNL d   1      -9.578  -6.080 -17.250 -0.21 -0.02    +0.092 C 
DOCKED: BRANCH  39  40
DOCKED: ATOM     40  C   UNL d   1      -9.599  -7.494 -17.636 -0.18 -0.11    +0.330 C 
DOCKED: ATOM     41  O   UNL d   1     -10.485  -8.304 -17.442 -0.13 +0.04    -0.246 OA
DOCKED: BRANCH  40  42
DOCKED: ATOM     42  O   UNL d   1      -8.463  -7.815 -18.275 -0.59 +0.24    -0.477 OA
DOCKED: ATOM     43  H   UNL d   1      -8.736  -7.899 -19.211 -0.44 -0.51    +0.295 HD
DOCKED: ENDBRANCH  40  42
DOCKED: ENDBRANCH  39  40
DOCKED: ENDBRANCH  27  38
DOCKED: BRANCH   8  44
DOCKED: ATOM     44  C   UNL d   1      -3.695   3.428 -13.496 -0.13 +0.01    +0.141 C 
DOCKED: BRANCH  44  45
DOCKED: ATOM     45  C   UNL d   1      -2.620   3.868 -12.540 -0.10 +0.04    +0.306 C 
DOCKED: ATOM     46  O   UNL d   1      -2.779   4.250 -11.393 -0.20 -0.05    -0.251 OA
DOCKED: BRANCH  45  47
DOCKED: ATOM     47  O   UNL d   1      -1.394   3.831 -13.091 -0.02 -0.04    -0.481 OA
DOCKED: ATOM     48  H   UNL d   1      -1.266   2.893 -13.349 +0.14 +0.01    +0.295 HD
DOCKED: ENDBRANCH  45  47
DOCKED: ENDBRANCH  44  45
DOCKED: ENDBRANCH   8  44
DOCKED: BRANCH  22  49
DOCKED: ATOM     49  C   UNL d   1      -3.466  -4.148 -19.449 -0.34 -0.01    +0.048 C 
DOCKED: BRANCH  49  50
DOCKED: ATOM     50  C   UNL d   1      -2.284  -3.795 -20.352 -0.19 -0.02    +0.125 C 
DOCKED: BRANCH  50  51
DOCKED: ATOM     51  C   UNL d   1      -1.250  -4.884 -20.331 -0.19 -0.07    +0.305 C 
DOCKED: ATOM     52  O   UNL d   1      -0.128  -4.835 -19.857 -0.22 +0.04    -0.251 OA
DOCKED: BRANCH  51  53
DOCKED: ATOM     53  O   UNL d   1      -1.687  -6.007 -20.936 -0.12 +0.17    -0.481 OA
DOCKED: ATOM     54  H   UNL d   1      -2.328  -6.386 -20.299 -0.43 -0.22    +0.295 HD
DOCKED: ENDBRANCH  51  53
DOCKED: ENDBRANCH  50  51
DOCKED: ENDBRANCH  49  50
DOCKED: ENDBRANCH  22  49
DOCKED: TORSDOF 13
DOCKED: TER
DOCKED: ENDMDL
________________________________________________________________________________


	BEGINNING GENETIC ALGORITHM DOCKING 9 of 100
Run: 9 Seed: 353007491 961361748 [ Run 9 of 100 GA/GALS ]
Beginning LAMARCKIAN GENETIC ALGORITHM (LGA), with a maximum of 25000000 energy evaluations.

Final-Value: -11.888


	FINAL GENETIC ALGORITHM DOCKED STATE
	_______________________________________________


Detailed state:  trans 8.359 -4.864 -16.752 quatxyzw 0.739732 -0.593888 0.115657 0.294478 center 0.153 0.018 -0.028 ntor 13 102.3888 -66.6362 -170.1219 -61.4712 -178.6622 -163.0395 139.7856 115.7127 -24.3476 -10.7624 128.7257 43.3549 38.7456
State:	  8.359  -4.864 -16.752   0.774 -0.621  0.121 145.747    102.39  -66.64 -170.12  -61.47 -178.66 -163.04  139.79  115.71  -24.35  -10.76  128.73   43.35   38.75

DOCKED: MODEL        9
DOCKED: USER    Run = 9
DOCKED: USER    DPF = D:/Protein_go_brrr/autodock/final/AncA/heme/dock.dpf
DOCKED: USER  
DOCKED: USER    Estimated Free Energy of Binding    =   -5.50 kcal/mol  [=(1)+(2)+(3)-(4)]
DOCKED: USER    Estimated Inhibition Constant, Ki   =   93.56 uM (micromolar)  [Temperature = 298.15 K]
DOCKED: USER    
DOCKED: USER    (1) Final Intermolecular Energy     =   -9.37 kcal/mol
DOCKED: USER        vdW + Hbond + desolv Energy     =   -8.93 kcal/mol
DOCKED: USER        Electrostatic Energy            =   -0.44 kcal/mol
DOCKED: USER    (2) Final Total Internal Energy     =   -2.51 kcal/mol
DOCKED: USER    (3) Torsional Free Energy           =   +3.88 kcal/mol
DOCKED: USER    (4) Unbound System's Energy  [=(2)] =   -2.51 kcal/mol
DOCKED: USER    
DOCKED: USER    
DOCKED: USER    NEWDPF move heme_opt.pdbqt
DOCKED: USER    NEWDPF about 0.153000 0.018000 -0.028000
DOCKED: USER    NEWDPF tran0 8.358536 -4.863851 -16.752092
DOCKED: USER    NEWDPF quaternion0 0.739732 -0.593888 0.115657 0.294478
DOCKED: USER    NEWDPF axisangle0 0.774055 -0.621444 0.121024 145.747496
DOCKED: USER    NEWDPF quat0 0.774055 -0.621444 0.121024 145.747496
DOCKED: USER    NEWDPF dihe0 102.39 -66.64 -170.12 -61.47 -178.66 -163.04 139.79 115.71 -24.35 -10.76 128.73 43.35 38.75 
DOCKED: USER  keepresnum = 1 
DOCKED: USER  
DOCKED: REMARK  13 active torsions:
DOCKED: REMARK  status: ('A' for Active; 'I' for Inactive)
DOCKED: REMARK    1  A    between atoms: O_3  and  C_38 
DOCKED: REMARK    2  A    between atoms: O_4  and  C_40 
DOCKED: REMARK    3  A    between atoms: O_7  and  C_46 
DOCKED: REMARK    4  A    between atoms: O_9  and  C_48 
DOCKED: REMARK    5  A    between atoms: C_15  and  C_20 
DOCKED: REMARK    6  A    between atoms: C_16  and  C_23 
DOCKED: REMARK    7  A    between atoms: C_20  and  C_38 
DOCKED: REMARK    8  A    between atoms: C_23  and  C_40 
DOCKED: REMARK    9  A    between atoms: C_32  and  C_41 
DOCKED: REMARK   10  A    between atoms: C_37  and  C_45 
DOCKED: REMARK   11  A    between atoms: C_41  and  C_44 
DOCKED: REMARK   12  A    between atoms: C_44  and  C_46 
DOCKED: REMARK   13  A    between atoms: C_47  and  C_48 
DOCKED: USER                              x       y       z     vdW  Elec       q    Type
DOCKED: USER                           _______ _______ _______ _____ _____    ______ ____
DOCKED: ROOT
DOCKED: ATOM      1  O   UNL d   1       5.824   0.437 -17.236 -0.06 -0.10    -0.289 OA
DOCKED: ATOM      2  O   UNL d   1      10.752  -2.232 -12.238 -0.96 -0.04    -0.289 OA
DOCKED: ATOM      3  N   UNL d   1       6.942  -2.826 -17.273 -0.09 +0.14    -0.247 NA
DOCKED: ATOM      4  N   UNL d   1       9.037  -2.854 -15.167 -0.11 +0.06    -0.247 NA
DOCKED: ATOM      5  N   UNL d   1       9.900  -5.399 -16.190 -0.04 +0.09    -0.354 N 
DOCKED: ATOM      6  N   UNL d   1       7.736  -5.352 -18.385 -0.08 +0.14    -0.354 N 
DOCKED: ATOM      7  C   UNL d   1       5.536  -1.462 -18.747 -0.06 -0.01    +0.084 A 
DOCKED: ATOM      8  C   UNL d   1       8.842  -1.206 -13.373 -0.27 +0.01    +0.084 A 
DOCKED: ATOM      9  C   UNL d   1       8.337  -1.760 -14.710 -0.20 -0.00    +0.058 A 
DOCKED: ATOM     10  C   UNL d   1       6.205  -2.807 -18.445 -0.11 -0.02    +0.058 A 
DOCKED: ATOM     11  C   UNL d   1       6.011  -0.730 -17.528 -0.05 +0.01    +0.193 A 
DOCKED: ATOM     12  C   UNL d   1       6.832  -1.671 -16.702 -0.13 -0.02    +0.109 A 
DOCKED: ATOM     13  C   UNL d   1       9.981  -2.166 -13.175 -0.29 +0.02    +0.193 A 
DOCKED: ATOM     14  C   UNL d   1       6.128  -0.792 -19.990 -0.02 +0.00    +0.026 C 
DOCKED: ATOM     15  C   UNL d   1       7.333  -1.194 -15.397 -0.22 -0.00    +0.055 C 
DOCKED: ATOM     16  C   UNL d   1       7.821  -1.416 -12.250 -0.07 +0.00    +0.026 C 
DOCKED: ATOM     17  C   UNL d   1       9.996  -3.108 -14.335 -0.29 -0.01    +0.109 A 
DOCKED: ATOM     18  C   UNL d   1       5.999  -3.885 -19.225 -0.13 -0.02    +0.050 C 
DOCKED: ATOM     19  C   UNL d   1       6.506  -5.186 -18.979 -0.14 -0.02    +0.045 A 
DOCKED: ATOM     20  C   UNL d   1      10.927  -5.134 -15.321 -0.31 -0.01    +0.045 A 
DOCKED: ATOM     21  C   UNL d   1      11.038  -4.140 -14.434 -0.40 -0.00    +0.057 C 
DOCKED: ATOM     22  C   UNL d   1      11.442  -7.007 -16.522 -0.16 +0.00    -0.019 A 
DOCKED: ATOM     23  C   UNL d   1      10.121  -6.511 -16.958 -0.12 -0.01    +0.045 A 
DOCKED: ATOM     24  C   UNL d   1      11.913  -6.189 -15.552 -0.22 +0.00    -0.022 A 
DOCKED: ATOM     25  C   UNL d   1       8.069  -6.685 -18.325 -0.11 -0.01    +0.049 A 
DOCKED: ATOM     26  C   UNL d   1       6.010  -6.445 -19.280 -0.14 +0.01    -0.018 A 
DOCKED: ATOM     27  C   UNL d   1       6.992  -7.389 -18.847 -0.13 -0.00    +0.003 A 
DOCKED: ATOM     28  C   UNL d   1       9.360  -7.096 -17.895 -0.11 -0.01    +0.052 C 
DOCKED: ATOM     29  C   UNL d   1      13.193  -6.281 -14.794 -0.03 -0.00    +0.046 C 
DOCKED: ATOM     30  C   UNL d   1       4.703  -6.756 -19.928 -0.15 -0.01    +0.046 C 
DOCKED: ATOM     31  H   UNL d   1       9.046  -4.851 -16.178 -0.52 -0.10    +0.166 HD
DOCKED: ATOM     32  H   UNL d   1       8.319  -4.582 -18.078 +0.01 -0.06    +0.166 HD
DOCKED: ENDROOT
DOCKED: BRANCH   7  33
DOCKED: ATOM     33  C   UNL d   1       4.004  -1.487 -18.797 -0.10 -0.01    +0.141 C 
DOCKED: BRANCH  33  34
DOCKED: ATOM     34  C   UNL d   1       3.418  -2.634 -18.020 -0.10 -0.11    +0.306 C 
DOCKED: ATOM     35  O   UNL d   1       2.654  -3.481 -18.451 -0.10 +0.06    -0.251 OA
DOCKED: BRANCH  34  36
DOCKED: ATOM     36  O   UNL d   1       3.827  -2.655 -16.739 -0.02 +0.39    -0.481 OA
DOCKED: ATOM     37  H   UNL d   1       4.719  -3.062 -16.772 -0.41 -0.49    +0.295 HD
DOCKED: ENDBRANCH  34  36
DOCKED: ENDBRANCH  33  34
DOCKED: ENDBRANCH   7  33
DOCKED: BRANCH  27  38
DOCKED: ATOM     38  C   UNL d   1       6.887  -8.810 -18.983 -0.10 +0.00    +0.017 C 
DOCKED: ATOM     39  C   UNL d   1       6.520  -9.656 -18.009 -0.17 +0.02    +0.092 C 
DOCKED: BRANCH  39  40
DOCKED: ATOM     40  C   UNL d   1       6.435 -11.093 -18.283 -0.05 +0.23    +0.330 C 
DOCKED: ATOM     41  O   UNL d   1       5.892 -11.948 -17.609 -0.61 -0.32    -0.246 OA
DOCKED: BRANCH  40  42
DOCKED: ATOM     42  O   UNL d   1       7.055 -11.380 -19.438 +0.01 -0.20    -0.477 OA
DOCKED: ATOM     43  H   UNL d   1       7.824 -11.920 -19.164 +0.03 +0.09    +0.295 HD
DOCKED: ENDBRANCH  40  42
DOCKED: ENDBRANCH  39  40
DOCKED: ENDBRANCH  27  38
DOCKED: BRANCH   8  44
DOCKED: ATOM     44  C   UNL d   1       9.342   0.241 -13.405 -0.26 +0.03    +0.141 C 
DOCKED: BRANCH  44  45
DOCKED: ATOM     45  C   UNL d   1      10.502   0.449 -14.341 -0.10 +0.06    +0.306 C 
DOCKED: ATOM     46  O   UNL d   1      10.445   0.841 -15.494 -0.16 -0.09    -0.251 OA
DOCKED: BRANCH  45  47
DOCKED: ATOM     47  O   UNL d   1      11.681   0.122 -13.781 -0.05 -0.04    -0.481 OA
DOCKED: ATOM     48  H   UNL d   1      11.441  -0.311 -12.934 +0.18 +0.01    +0.295 HD
DOCKED: ENDBRANCH  45  47
DOCKED: ENDBRANCH  44  45
DOCKED: ENDBRANCH   8  44
DOCKED: BRANCH  22  49
DOCKED: ATOM     49  C   UNL d   1      12.120  -8.215 -17.100 -0.10 +0.00    +0.048 C 
DOCKED: BRANCH  49  50
DOCKED: ATOM     50  C   UNL d   1      11.155  -9.389 -17.256 -0.07 +0.01    +0.125 C 
DOCKED: BRANCH  50  51
DOCKED: ATOM     51  C   UNL d   1      10.403  -9.639 -15.980 -0.14 +0.01    +0.305 C 
DOCKED: ATOM     52  O   UNL d   1       9.222  -9.434 -15.761 -0.21 -0.01    -0.251 OA
DOCKED: BRANCH  51  53
DOCKED: ATOM     53  O   UNL d   1      11.201 -10.136 -15.013 -0.19 -0.03    -0.481 OA
DOCKED: ATOM     54  H   UNL d   1      11.169  -9.459 -14.306 -0.48 -0.07    +0.295 HD
DOCKED: ENDBRANCH  51  53
DOCKED: ENDBRANCH  50  51
DOCKED: ENDBRANCH  49  50
DOCKED: ENDBRANCH  22  49
DOCKED: TORSDOF 13
DOCKED: TER
DOCKED: ENDMDL
________________________________________________________________________________


	BEGINNING GENETIC ALGORITHM DOCKING 10 of 100
Run: 10 Seed: 555116344 353577304 [ Run 10 of 100 GA/GALS ]
Beginning LAMARCKIAN GENETIC ALGORITHM (LGA), with a maximum of 25000000 energy evaluations.

Final-Value: -11.311


	FINAL GENETIC ALGORITHM DOCKED STATE
	_______________________________________________


Detailed state:  trans 13.914 -3.621 -14.142 quatxyzw 0.187426 -0.965552 -0.180087 0.012256 center 0.153 0.018 -0.028 ntor 13 124.9209 9.8437 -125.4540 -49.5530 -37.7670 -25.4827 123.5197 105.5040 123.0885 -23.5725 73.9065 -163.0617 158.8757
State:	 13.914  -3.621 -14.142   0.187 -0.966 -0.180 178.596    124.92    9.84 -125.45  -49.55  -37.77  -25.48  123.52  105.50  123.09  -23.57   73.91 -163.06  158.88

DOCKED: MODEL       10
DOCKED: USER    Run = 10
DOCKED: USER    DPF = D:/Protein_go_brrr/autodock/final/AncA/heme/dock.dpf
DOCKED: USER  
DOCKED: USER    Estimated Free Energy of Binding    =   -5.61 kcal/mol  [=(1)+(2)+(3)-(4)]
DOCKED: USER    Estimated Inhibition Constant, Ki   =   77.78 uM (micromolar)  [Temperature = 298.15 K]
DOCKED: USER    
DOCKED: USER    (1) Final Intermolecular Energy     =   -9.48 kcal/mol
DOCKED: USER        vdW + Hbond + desolv Energy     =   -9.07 kcal/mol
DOCKED: USER        Electrostatic Energy            =   -0.41 kcal/mol
DOCKED: USER    (2) Final Total Internal Energy     =   -1.83 kcal/mol
DOCKED: USER    (3) Torsional Free Energy           =   +3.88 kcal/mol
DOCKED: USER    (4) Unbound System's Energy  [=(2)] =   -1.83 kcal/mol
DOCKED: USER    
DOCKED: USER    
DOCKED: USER    NEWDPF move heme_opt.pdbqt
DOCKED: USER    NEWDPF about 0.153000 0.018000 -0.028000
DOCKED: USER    NEWDPF tran0 13.914034 -3.620574 -14.141554
DOCKED: USER    NEWDPF quaternion0 0.187426 -0.965552 -0.180087 0.012256
DOCKED: USER    NEWDPF axisangle0 0.187440 -0.965624 -0.180101 178.595571
DOCKED: USER    NEWDPF quat0 0.187440 -0.965624 -0.180101 178.595571
DOCKED: USER    NEWDPF dihe0 124.92 9.84 -125.45 -49.55 -37.77 -25.48 123.52 105.50 123.09 -23.57 73.91 -163.06 158.88 
DOCKED: USER  keepresnum = 1 
DOCKED: USER  
DOCKED: REMARK  13 active torsions:
DOCKED: REMARK  status: ('A' for Active; 'I' for Inactive)
DOCKED: REMARK    1  A    between atoms: O_3  and  C_38 
DOCKED: REMARK    2  A    between atoms: O_4  and  C_40 
DOCKED: REMARK    3  A    between atoms: O_7  and  C_46 
DOCKED: REMARK    4  A    between atoms: O_9  and  C_48 
DOCKED: REMARK    5  A    between atoms: C_15  and  C_20 
DOCKED: REMARK    6  A    between atoms: C_16  and  C_23 
DOCKED: REMARK    7  A    between atoms: C_20  and  C_38 
DOCKED: REMARK    8  A    between atoms: C_23  and  C_40 
DOCKED: REMARK    9  A    between atoms: C_32  and  C_41 
DOCKED: REMARK   10  A    between atoms: C_37  and  C_45 
DOCKED: REMARK   11  A    between atoms: C_41  and  C_44 
DOCKED: REMARK   12  A    between atoms: C_44  and  C_46 
DOCKED: REMARK   13  A    between atoms: C_47  and  C_48 
DOCKED: USER                              x       y       z     vdW  Elec       q    Type
DOCKED: USER                           _______ _______ _______ _____ _____    ______ ____
DOCKED: ROOT
DOCKED: ATOM      1  O   UNL d   1      18.482   0.075 -13.656 -0.07 +0.03    -0.289 OA
DOCKED: ATOM      2  O   UNL d   1      18.228  -7.418 -14.086 -0.01 -0.02    -0.289 OA
DOCKED: ATOM      3  N   UNL d   1      15.521  -1.689 -13.796 -0.13 +0.08    -0.247 NA
DOCKED: ATOM      4  N   UNL d   1      16.414  -4.487 -14.248 -0.10 +0.03    -0.247 NA
DOCKED: ATOM      5  N   UNL d   1      13.696  -5.148 -14.915 +0.04 +0.07    -0.354 N 
DOCKED: ATOM      6  N   UNL d   1      12.783  -2.239 -14.462 -0.04 +0.05    -0.354 N 
DOCKED: ATOM      7  C   UNL d   1      16.123   0.686 -13.841 -0.16 -0.01    +0.084 A 
DOCKED: ATOM      8  C   UNL d   1      18.648  -5.089 -13.462 -0.06 +0.00    +0.084 A 
DOCKED: ATOM      9  C   UNL d   1      17.581  -4.013 -13.692 -0.13 -0.00    +0.058 A 
DOCKED: ATOM     10  C   UNL d   1      15.038  -0.394 -13.883 -0.22 -0.01    +0.058 A 
DOCKED: ATOM     11  C   UNL d   1      17.303  -0.226 -13.696 -0.05 -0.06    +0.193 A 
DOCKED: ATOM     12  C   UNL d   1      16.806  -1.638 -13.655 -0.07 -0.04    +0.109 A 
DOCKED: ATOM     13  C   UNL d   1      17.884  -6.254 -14.025 -0.03 +0.01    +0.193 A 
DOCKED: ATOM     14  C   UNL d   1      16.238   1.437 -15.170 -0.13 +0.00    +0.026 C 
DOCKED: ATOM     15  C   UNL d   1      17.789  -2.715 -13.423 -0.13 -0.01    +0.055 C 
DOCKED: ATOM     16  C   UNL d   1      18.893  -5.335 -11.970 -0.09 +0.00    +0.026 C 
DOCKED: ATOM     17  C   UNL d   1      16.549  -5.755 -14.474 -0.11 -0.00    +0.109 A 
DOCKED: ATOM     18  C   UNL d   1      13.730  -0.077 -13.911 -0.28 -0.00    +0.050 C 
DOCKED: ATOM     19  C   UNL d   1      12.658  -1.005 -13.867 -0.23 -0.00    +0.045 A 
DOCKED: ATOM     20  C   UNL d   1      14.321  -6.308 -15.294 -0.18 -0.00    +0.045 A 
DOCKED: ATOM     21  C   UNL d   1      15.594  -6.672 -15.112 -0.14 +0.00    +0.057 C 
DOCKED: ATOM     22  C   UNL d   1      12.133  -6.401 -15.944 -0.19 +0.00    -0.019 A 
DOCKED: ATOM     23  C   UNL d   1      12.373  -5.112 -15.265 -0.24 -0.00    +0.045 A 
DOCKED: ATOM     24  C   UNL d   1      13.289  -7.106 -15.956 -0.15 +0.00    -0.022 A 
DOCKED: ATOM     25  C   UNL d   1      11.600  -2.938 -14.379 -0.24 -0.00    +0.049 A 
DOCKED: ATOM     26  C   UNL d   1      11.374  -0.912 -13.351 -0.30 -0.00    -0.018 A 
DOCKED: ATOM     27  C   UNL d   1      10.717  -2.143 -13.660 -0.35 +0.00    +0.003 A 
DOCKED: ATOM     28  C   UNL d   1      11.435  -4.175 -15.058 -0.31 -0.00    +0.052 C 
DOCKED: ATOM     29  C   UNL d   1      13.549  -8.463 -16.516 -0.10 +0.00    +0.046 C 
DOCKED: ATOM     30  C   UNL d   1      10.792   0.246 -12.615 -0.41 +0.00    +0.046 C 
DOCKED: ATOM     31  H   UNL d   1      14.179  -4.448 -14.362 -0.52 -0.10    +0.166 HD
DOCKED: ATOM     32  H   UNL d   1      13.625  -2.554 -14.928 -0.09 -0.03    +0.166 HD
DOCKED: ENDROOT
DOCKED: BRANCH   7  33
DOCKED: ATOM     33  C   UNL d   1      16.041   1.653 -12.655 -0.23 -0.00    +0.141 C 
DOCKED: BRANCH  33  34
DOCKED: ATOM     34  C   UNL d   1      17.250   2.543 -12.549 -0.16 +0.08    +0.306 C 
DOCKED: ATOM     35  O   UNL d   1      18.074   2.746 -13.424 -0.08 -0.04    -0.251 OA
DOCKED: BRANCH  34  36
DOCKED: ATOM     36  O   UNL d   1      17.355   3.134 -11.345 -0.13 -0.29    -0.481 OA
DOCKED: ATOM     37  H   UNL d   1      16.515   3.629 -11.239 -0.37 +0.03    +0.295 HD
DOCKED: ENDBRANCH  34  36
DOCKED: ENDBRANCH  33  34
DOCKED: ENDBRANCH   7  33
DOCKED: BRANCH  27  38
DOCKED: ATOM     38  C   UNL d   1       9.364  -2.464 -13.322 -0.45 +0.00    +0.017 C 
DOCKED: ATOM     39  C   UNL d   1       8.292  -1.716 -13.626 -0.35 +0.00    +0.092 C 
DOCKED: BRANCH  39  40
DOCKED: ATOM     40  C   UNL d   1       6.953  -2.167 -13.236 -0.33 -0.05    +0.330 C 
DOCKED: ATOM     41  O   UNL d   1       6.572  -3.310 -13.071 -0.38 +0.08    -0.246 OA
DOCKED: BRANCH  40  42
DOCKED: ATOM     42  O   UNL d   1       6.143  -1.111 -13.061 -0.22 +0.03    -0.477 OA
DOCKED: ATOM     43  H   UNL d   1       5.340  -1.496 -12.654 -0.30 -0.09    +0.295 HD
DOCKED: ENDBRANCH  40  42
DOCKED: ENDBRANCH  39  40
DOCKED: ENDBRANCH  27  38
DOCKED: BRANCH   8  44
DOCKED: ATOM     44  C   UNL d   1      19.967  -4.883 -14.214 -0.01 +0.00    +0.141 C 
DOCKED: BRANCH  44  45
DOCKED: ATOM     45  C   UNL d   1      19.858  -5.158 -15.690 +0.00 +0.01    +0.306 C 
DOCKED: ATOM     46  O   UNL d   1      19.400  -4.411 -16.537 -0.00 -0.01    -0.251 OA
DOCKED: BRANCH  45  47
DOCKED: ATOM     47  O   UNL d   1      20.312  -6.381 -16.021 +0.00 -0.03    -0.481 OA
DOCKED: ATOM     48  H   UNL d   1      19.818  -6.994 -15.437 +0.01 +0.02    +0.295 HD
DOCKED: ENDBRANCH  45  47
DOCKED: ENDBRANCH  44  45
DOCKED: ENDBRANCH   8  44
DOCKED: BRANCH  22  49
DOCKED: ATOM     49  C   UNL d   1      10.812  -6.815 -16.524 -0.20 -0.00    +0.048 C 
DOCKED: BRANCH  49  50
DOCKED: ATOM     50  C   UNL d   1      10.519  -6.094 -17.840 -0.07 -0.01    +0.125 C 
DOCKED: BRANCH  50  51
DOCKED: ATOM     51  C   UNL d   1       9.482  -5.024 -17.645 -0.05 -0.06    +0.305 C 
DOCKED: ATOM     52  O   UNL d   1       9.666  -3.827 -17.507 -0.06 +0.04    -0.251 OA
DOCKED: BRANCH  51  53
DOCKED: ATOM     53  O   UNL d   1       8.233  -5.530 -17.621 -0.05 +0.23    -0.481 OA
DOCKED: ATOM     54  H   UNL d   1       7.834  -5.142 -16.814 -0.43 -0.31    +0.295 HD
DOCKED: ENDBRANCH  51  53
DOCKED: ENDBRANCH  50  51
DOCKED: ENDBRANCH  49  50
DOCKED: ENDBRANCH  22  49
DOCKED: TORSDOF 13
DOCKED: TER
DOCKED: ENDMDL
________________________________________________________________________________


	BEGINNING GENETIC ALGORITHM DOCKING 11 of 100
Run: 11 Seed: 103662329 236083418 [ Run 11 of 100 GA/GALS ]
Beginning LAMARCKIAN GENETIC ALGORITHM (LGA), with a maximum of 25000000 energy evaluations.

Final-Value: -10.253


	FINAL GENETIC ALGORITHM DOCKED STATE
	_______________________________________________


Detailed state:  trans -13.138 -14.845 6.059 quatxyzw -0.565138 -0.402042 0.177784 0.698122 center 0.153 0.018 -0.028 ntor 13 139.5686 100.2012 109.6950 -136.3900 -138.4522 -129.6245 -45.5434 -35.0522 14.6105 -129.4782 99.0657 -68.1364 -180.0000
State:	-13.138 -14.845   6.059  -0.789 -0.562  0.248 91.447    139.57  100.20  109.70 -136.39 -138.45 -129.62  -45.54  -35.05   14.61 -129.48   99.07  -68.14 -180.00

DOCKED: MODEL       11
DOCKED: USER    Run = 11
DOCKED: USER    DPF = D:/Protein_go_brrr/autodock/final/AncA/heme/dock.dpf
DOCKED: USER  
DOCKED: USER    Estimated Free Energy of Binding    =   -3.70 kcal/mol  [=(1)+(2)+(3)-(4)]
DOCKED: USER    Estimated Inhibition Constant, Ki   =    1.93 mM (millimolar)  [Temperature = 298.15 K]
DOCKED: USER    
DOCKED: USER    (1) Final Intermolecular Energy     =   -7.58 kcal/mol
DOCKED: USER        vdW + Hbond + desolv Energy     =   -7.22 kcal/mol
DOCKED: USER        Electrostatic Energy            =   -0.36 kcal/mol
DOCKED: USER    (2) Final Total Internal Energy     =   -2.67 kcal/mol
DOCKED: USER    (3) Torsional Free Energy           =   +3.88 kcal/mol
DOCKED: USER    (4) Unbound System's Energy  [=(2)] =   -2.67 kcal/mol
DOCKED: USER    
DOCKED: USER    
DOCKED: USER    NEWDPF move heme_opt.pdbqt
DOCKED: USER    NEWDPF about 0.153000 0.018000 -0.028000
DOCKED: USER    NEWDPF tran0 -13.138457 -14.845284 6.058782
DOCKED: USER    NEWDPF quaternion0 -0.565138 -0.402042 0.177784 0.698122
DOCKED: USER    NEWDPF axisangle0 -0.789322 -0.561528 0.248309 91.446953
DOCKED: USER    NEWDPF quat0 -0.789322 -0.561528 0.248309 91.446953
DOCKED: USER    NEWDPF dihe0 139.57 100.20 109.70 -136.39 -138.45 -129.62 -45.54 -35.05 14.61 -129.48 99.07 -68.14 -180.00 
DOCKED: USER  keepresnum = 1 
DOCKED: USER  
DOCKED: REMARK  13 active torsions:
DOCKED: REMARK  status: ('A' for Active; 'I' for Inactive)
DOCKED: REMARK    1  A    between atoms: O_3  and  C_38 
DOCKED: REMARK    2  A    between atoms: O_4  and  C_40 
DOCKED: REMARK    3  A    between atoms: O_7  and  C_46 
DOCKED: REMARK    4  A    between atoms: O_9  and  C_48 
DOCKED: REMARK    5  A    between atoms: C_15  and  C_20 
DOCKED: REMARK    6  A    between atoms: C_16  and  C_23 
DOCKED: REMARK    7  A    between atoms: C_20  and  C_38 
DOCKED: REMARK    8  A    between atoms: C_23  and  C_40 
DOCKED: REMARK    9  A    between atoms: C_32  and  C_41 
DOCKED: REMARK   10  A    between atoms: C_37  and  C_45 
DOCKED: REMARK   11  A    between atoms: C_41  and  C_44 
DOCKED: REMARK   12  A    between atoms: C_44  and  C_46 
DOCKED: REMARK   13  A    between atoms: C_47  and  C_48 
DOCKED: USER                              x       y       z     vdW  Elec       q    Type
DOCKED: USER                           _______ _______ _______ _____ _____    ______ ____
DOCKED: ROOT
DOCKED: ATOM      1  O   UNL d   1     -15.161 -16.103  11.452 -0.01 -0.02    -0.289 OA
DOCKED: ATOM      2  O   UNL d   1     -18.743 -15.366   4.893 -0.08 -0.01    -0.289 OA
DOCKED: ATOM      3  N   UNL d   1     -13.551 -15.212   8.534 -0.08 -0.04    -0.247 NA
DOCKED: ATOM      4  N   UNL d   1     -15.677 -15.472   6.475 -0.11 -0.02    -0.247 NA
DOCKED: ATOM      5  N   UNL d   1     -13.625 -15.306   4.468 -0.13 -0.08    -0.354 N 
DOCKED: ATOM      6  N   UNL d   1     -11.424 -15.057   6.612 -0.07 -0.14    -0.354 N 
DOCKED: ATOM      7  C   UNL d   1     -12.827 -15.754  10.812 -0.05 +0.01    +0.084 A 
DOCKED: ATOM      8  C   UNL d   1     -17.991 -15.215   7.218 -0.10 +0.00    +0.084 A 
DOCKED: ATOM      9  C   UNL d   1     -16.502 -15.313   7.566 -0.14 +0.00    +0.058 A 
DOCKED: ATOM     10  C   UNL d   1     -12.463 -15.357   9.379 -0.12 +0.01    +0.058 A 
DOCKED: ATOM     11  C   UNL d   1     -14.315 -15.791  10.633 -0.03 +0.02    +0.193 A 
DOCKED: ATOM     12  C   UNL d   1     -14.630 -15.419   9.217 -0.10 +0.01    +0.109 A 
DOCKED: ATOM     13  C   UNL d   1     -17.862 -15.386   5.731 -0.09 +0.00    +0.193 A 
DOCKED: ATOM     14  C   UNL d   1     -12.336 -17.162  11.160 -0.02 +0.00    +0.026 C 
DOCKED: ATOM     15  C   UNL d   1     -16.049 -15.297   8.829 -0.13 +0.00    +0.055 C 
DOCKED: ATOM     16  C   UNL d   1     -18.551 -13.819   7.507 -0.19 +0.00    +0.026 C 
DOCKED: ATOM     17  C   UNL d   1     -16.410 -15.539   5.410 -0.15 +0.00    +0.109 A 
DOCKED: ATOM     18  C   UNL d   1     -11.192 -15.089   9.024 -0.18 +0.01    +0.050 C 
DOCKED: ATOM     19  C   UNL d   1     -10.773 -14.634   7.748 -0.15 +0.02    +0.045 A 
DOCKED: ATOM     20  C   UNL d   1     -14.692 -15.663   3.685 -0.23 +0.01    +0.045 A 
DOCKED: ATOM     21  C   UNL d   1     -15.981 -15.768   4.023 -0.20 +0.00    +0.057 C 
DOCKED: ATOM     22  C   UNL d   1     -12.796 -15.701   2.411 -0.08 -0.00    -0.019 A 
DOCKED: ATOM     23  C   UNL d   1     -12.437 -15.302   3.787 -0.21 +0.01    +0.045 A 
DOCKED: ATOM     24  C   UNL d   1     -14.132 -15.913   2.357 -0.14 -0.00    -0.022 A 
DOCKED: ATOM     25  C   UNL d   1     -10.799 -14.569   5.487 -0.22 +0.02    +0.049 A 
DOCKED: ATOM     26  C   UNL d   1      -9.721 -13.822   7.355 -0.27 -0.01    -0.018 A 
DOCKED: ATOM     27  C   UNL d   1      -9.754 -13.768   5.927 -0.32 +0.00    +0.003 A 
DOCKED: ATOM     28  C   UNL d   1     -11.194 -14.996   4.190 -0.21 +0.02    +0.052 C 
DOCKED: ATOM     29  C   UNL d   1     -14.966 -16.318   1.190 -0.16 +0.01    +0.046 C 
DOCKED: ATOM     30  C   UNL d   1      -8.744 -13.134   8.248 -0.22 +0.01    +0.046 C 
DOCKED: ATOM     31  H   UNL d   1     -13.754 -15.005   5.428 +0.05 +0.05    +0.166 HD
DOCKED: ATOM     32  H   UNL d   1     -12.226 -15.675   6.622 +0.04 +0.06    +0.166 HD
DOCKED: ENDROOT
DOCKED: BRANCH   7  33
DOCKED: ATOM     33  C   UNL d   1     -12.440 -14.740  11.894 -0.11 +0.02    +0.141 C 
DOCKED: BRANCH  33  34
DOCKED: ATOM     34  C   UNL d   1     -13.139 -13.418  11.725 -0.14 +0.05    +0.306 C 
DOCKED: ATOM     35  O   UNL d   1     -12.784 -12.502  11.003 -0.30 -0.06    -0.251 OA
DOCKED: BRANCH  34  36
DOCKED: ATOM     36  O   UNL d   1     -14.252 -13.321  12.473 -0.02 -0.04    -0.481 OA
DOCKED: ATOM     37  H   UNL d   1     -14.696 -14.190  12.370 +0.06 +0.02    +0.295 HD
DOCKED: ENDBRANCH  34  36
DOCKED: ENDBRANCH  33  34
DOCKED: ENDBRANCH   7  33
DOCKED: BRANCH  27  38
DOCKED: ATOM     38  C   UNL d   1      -8.829 -13.047   5.106 -0.45 +0.01    +0.017 C 
DOCKED: ATOM     39  C   UNL d   1      -8.443 -13.407   3.873 -0.30 +0.08    +0.092 C 
DOCKED: BRANCH  39  40
DOCKED: ATOM     40  C   UNL d   1      -7.500 -12.569   3.128 -0.24 +0.44    +0.330 C 
DOCKED: ATOM     41  O   UNL d   1      -7.595 -12.182   1.979 -0.91 -0.31    -0.246 OA
DOCKED: BRANCH  40  42
DOCKED: ATOM     42  O   UNL d   1      -6.455 -12.247   3.907 -0.77 -0.74    -0.477 OA
DOCKED: ATOM     43  H   UNL d   1      -6.791 -11.511   4.459 +0.18 +0.23    +0.295 HD
DOCKED: ENDBRANCH  40  42
DOCKED: ENDBRANCH  39  40
DOCKED: ENDBRANCH  27  38
DOCKED: BRANCH   8  44
DOCKED: ATOM     44  C   UNL d   1     -18.883 -16.306   7.820 -0.02 +0.01    +0.141 C 
DOCKED: BRANCH  44  45
DOCKED: ATOM     45  C   UNL d   1     -20.331 -16.173   7.428 +0.00 +0.02    +0.306 C 
DOCKED: ATOM     46  O   UNL d   1     -21.188 -15.541   8.020 -0.01 -0.02    -0.251 OA
DOCKED: BRANCH  45  47
DOCKED: ATOM     47  O   UNL d   1     -20.630 -16.871   6.318 +0.01 -0.03    -0.481 OA
DOCKED: ATOM     48  H   UNL d   1     -20.192 -16.380   5.591 +0.03 +0.02    +0.295 HD
DOCKED: ENDBRANCH  45  47
DOCKED: ENDBRANCH  44  45
DOCKED: ENDBRANCH   8  44
DOCKED: BRANCH  22  49
DOCKED: ATOM     49  C   UNL d   1     -11.807 -15.853   1.293 -0.13 +0.02    +0.048 C 
DOCKED: BRANCH  49  50
DOCKED: ATOM     50  C   UNL d   1     -11.368 -17.306   1.115 -0.03 +0.04    +0.125 C 
DOCKED: BRANCH  50  51
DOCKED: ATOM     51  C   UNL d   1     -10.319 -17.677   2.125 +0.01 +0.12    +0.305 C 
DOCKED: ATOM     52  O   UNL d   1      -9.375 -17.003   2.497 -0.00 -0.14    -0.251 OA
DOCKED: BRANCH  51  53
DOCKED: ATOM     53  O   UNL d   1     -10.511 -18.916   2.620 +0.01 -0.15    -0.481 OA
DOCKED: ATOM     54  H   UNL d   1     -10.737 -19.454   1.832 +0.00 +0.09    +0.295 HD
DOCKED: ENDBRANCH  51  53
DOCKED: ENDBRANCH  50  51
DOCKED: ENDBRANCH  49  50
DOCKED: ENDBRANCH  22  49
DOCKED: TORSDOF 13
DOCKED: TER
DOCKED: ENDMDL
________________________________________________________________________________


	BEGINNING GENETIC ALGORITHM DOCKING 12 of 100
Run: 12 Seed: 1638390484 1788158183 [ Run 12 of 100 GA/GALS ]
Beginning LAMARCKIAN GENETIC ALGORITHM (LGA), with a maximum of 25000000 energy evaluations.

Final-Value: -11.902


	FINAL GENETIC ALGORITHM DOCKED STATE
	_______________________________________________


Detailed state:  trans -8.951 6.344 9.638 quatxyzw -0.135309 0.343876 0.546392 0.751596 center 0.153 0.018 -0.028 ntor 13 124.8163 113.4128 90.6686 88.4606 -131.9837 32.0748 -49.7826 -63.9404 26.2722 -134.4975 24.3493 -77.8801 128.3725
State:	 -8.951   6.344   9.638  -0.205  0.521  0.828 82.542    124.82  113.41   90.67   88.46 -131.98   32.07  -49.78  -63.94   26.27 -134.50   24.35  -77.88  128.37

DOCKED: MODEL       12
DOCKED: USER    Run = 12
DOCKED: USER    DPF = D:/Protein_go_brrr/autodock/final/AncA/heme/dock.dpf
DOCKED: USER  
DOCKED: USER    Estimated Free Energy of Binding    =   -4.27 kcal/mol  [=(1)+(2)+(3)-(4)]
DOCKED: USER    Estimated Inhibition Constant, Ki   =  738.46 uM (micromolar)  [Temperature = 298.15 K]
DOCKED: USER    
DOCKED: USER    (1) Final Intermolecular Energy     =   -8.15 kcal/mol
DOCKED: USER        vdW + Hbond + desolv Energy     =   -8.00 kcal/mol
DOCKED: USER        Electrostatic Energy            =   -0.15 kcal/mol
DOCKED: USER    (2) Final Total Internal Energy     =   -3.75 kcal/mol
DOCKED: USER    (3) Torsional Free Energy           =   +3.88 kcal/mol
DOCKED: USER    (4) Unbound System's Energy  [=(2)] =   -3.75 kcal/mol
DOCKED: USER    
DOCKED: USER    
DOCKED: USER    NEWDPF move heme_opt.pdbqt
DOCKED: USER    NEWDPF about 0.153000 0.018000 -0.028000
DOCKED: USER    NEWDPF tran0 -8.950804 6.343706 9.638246
DOCKED: USER    NEWDPF quaternion0 -0.135309 0.343876 0.546392 0.751596
DOCKED: USER    NEWDPF axisangle0 -0.205130 0.521321 0.828339 82.542332
DOCKED: USER    NEWDPF quat0 -0.205130 0.521321 0.828339 82.542332
DOCKED: USER    NEWDPF dihe0 124.82 113.41 90.67 88.46 -131.98 32.07 -49.78 -63.94 26.27 -134.50 24.35 -77.88 128.37 
DOCKED: USER  keepresnum = 1 
DOCKED: USER  
DOCKED: REMARK  13 active torsions:
DOCKED: REMARK  status: ('A' for Active; 'I' for Inactive)
DOCKED: REMARK    1  A    between atoms: O_3  and  C_38 
DOCKED: REMARK    2  A    between atoms: O_4  and  C_40 
DOCKED: REMARK    3  A    between atoms: O_7  and  C_46 
DOCKED: REMARK    4  A    between atoms: O_9  and  C_48 
DOCKED: REMARK    5  A    between atoms: C_15  and  C_20 
DOCKED: REMARK    6  A    between atoms: C_16  and  C_23 
DOCKED: REMARK    7  A    between atoms: C_20  and  C_38 
DOCKED: REMARK    8  A    between atoms: C_23  and  C_40 
DOCKED: REMARK    9  A    between atoms: C_32  and  C_41 
DOCKED: REMARK   10  A    between atoms: C_37  and  C_45 
DOCKED: REMARK   11  A    between atoms: C_41  and  C_44 
DOCKED: REMARK   12  A    between atoms: C_44  and  C_46 
DOCKED: REMARK   13  A    between atoms: C_47  and  C_48 
DOCKED: USER                              x       y       z     vdW  Elec       q    Type
DOCKED: USER                           _______ _______ _______ _____ _____    ______ ____
DOCKED: ROOT
DOCKED: ATOM      1  O   UNL d   1      -9.085  12.205   9.017 -0.01 -0.07    -0.289 OA
DOCKED: ATOM      2  O   UNL d   1     -11.872   6.726   4.703 -0.28 +0.00    -0.289 OA
DOCKED: ATOM      3  N   UNL d   1      -8.636   8.859   9.724 -0.07 -0.14    -0.247 NA
DOCKED: ATOM      4  N   UNL d   1     -10.314   7.498   7.684 -0.14 -0.10    -0.247 NA
DOCKED: ATOM      5  N   UNL d   1     -10.041   5.076   9.209 -0.09 -0.07    -0.354 N 
DOCKED: ATOM      6  N   UNL d   1      -8.317   6.500  11.331 -0.06 -0.04    -0.354 N 
DOCKED: ATOM      7  C   UNL d   1      -8.112  10.956  10.879 -0.05 +0.02    +0.084 A 
DOCKED: ATOM      8  C   UNL d   1     -10.720   8.694   5.592 -0.23 +0.02    +0.084 A 
DOCKED: ATOM      9  C   UNL d   1     -10.137   8.685   7.009 -0.17 +0.03    +0.058 A 
DOCKED: ATOM     10  C   UNL d   1      -8.086   9.425  10.862 -0.09 +0.02    +0.058 A 
DOCKED: ATOM     11  C   UNL d   1      -8.758  11.156   9.541 -0.04 +0.07    +0.193 A 
DOCKED: ATOM     12  C   UNL d   1      -9.003   9.811   8.929 -0.07 +0.06    +0.109 A 
DOCKED: ATOM     13  C   UNL d   1     -11.294   7.305   5.601 -0.30 +0.03    +0.193 A 
DOCKED: ATOM     14  C   UNL d   1      -9.043  11.503  11.965 -0.00 +0.00    +0.026 C 
DOCKED: ATOM     15  C   UNL d   1      -9.551   9.760   7.559 -0.10 +0.03    +0.055 C 
DOCKED: ATOM     16  C   UNL d   1      -9.622   8.766   4.527 -0.35 +0.01    +0.026 C 
DOCKED: ATOM     17  C   UNL d   1     -10.986   6.691   6.928 -0.27 +0.03    +0.109 A 
DOCKED: ATOM     18  C   UNL d   1      -7.490   8.721  11.842 -0.10 +0.01    +0.050 C 
DOCKED: ATOM     19  C   UNL d   1      -7.343   7.310  11.870 -0.13 +0.00    +0.045 A 
DOCKED: ATOM     20  C   UNL d   1     -11.000   4.683   8.312 -0.32 +0.01    +0.045 A 
DOCKED: ATOM     21  C   UNL d   1     -11.467   5.337   7.243 -0.37 +0.01    +0.057 C 
DOCKED: ATOM     22  C   UNL d   1     -10.730   3.037   9.873 -0.25 -0.00    -0.019 A 
DOCKED: ATOM     23  C   UNL d   1      -9.809   4.148  10.188 -0.20 +0.01    +0.045 A 
DOCKED: ATOM     24  C   UNL d   1     -11.431   3.359   8.760 -0.30 -0.00    -0.022 A 
DOCKED: ATOM     25  C   UNL d   1      -8.017   5.175  11.546 -0.16 -0.00    +0.049 A 
DOCKED: ATOM     26  C   UNL d   1      -6.368   6.491  12.416 -0.17 +0.00    -0.018 A 
DOCKED: ATOM     27  C   UNL d   1      -6.788   5.144  12.191 -0.17 -0.00    +0.003 A 
DOCKED: ATOM     28  C   UNL d   1      -8.949   4.154  11.218 -0.18 +0.00    +0.052 C 
DOCKED: ATOM     29  C   UNL d   1     -12.468   2.560   8.047 -0.24 +0.01    +0.046 C 
DOCKED: ATOM     30  C   UNL d   1      -5.119   6.930  13.103 -0.18 -0.01    +0.046 C 
DOCKED: ATOM     31  H   UNL d   1      -9.521   5.938   9.079 +0.06 +0.05    +0.166 HD
DOCKED: ATOM     32  H   UNL d   1      -9.153   6.853  10.879 +0.04 +0.03    +0.166 HD
DOCKED: ENDROOT
DOCKED: BRANCH   7  33
DOCKED: ATOM     33  C   UNL d   1      -6.740  11.636  10.921 -0.07 +0.04    +0.141 C 
DOCKED: BRANCH  33  34
DOCKED: ATOM     34  C   UNL d   1      -6.018  11.565   9.603 -0.11 +0.14    +0.306 C 
DOCKED: ATOM     35  O   UNL d   1      -5.429  10.595   9.156 -0.60 -0.24    -0.251 OA
DOCKED: BRANCH  34  36
DOCKED: ATOM     36  O   UNL d   1      -6.078  12.719   8.916 -0.02 -0.13    -0.481 OA
DOCKED: ATOM     37  H   UNL d   1      -7.037  12.891   8.806 +0.04 +0.08    +0.295 HD
DOCKED: ENDBRANCH  34  36
DOCKED: ENDBRANCH  33  34
DOCKED: ENDBRANCH   7  33
DOCKED: BRANCH  27  38
DOCKED: ATOM     38  C   UNL d   1      -6.075   3.976  12.611 -0.15 -0.01    +0.017 C 
DOCKED: ATOM     39  C   UNL d   1      -6.633   2.875  13.136 -0.16 -0.02    +0.092 C 
DOCKED: BRANCH  39  40
DOCKED: ATOM     40  C   UNL d   1      -5.790   1.736  13.511 -0.08 -0.06    +0.330 C 
DOCKED: ATOM     41  O   UNL d   1      -4.635   1.759  13.890 -0.09 +0.06    -0.246 OA
DOCKED: BRANCH  40  42
DOCKED: ATOM     42  O   UNL d   1      -6.480   0.591  13.391 -0.04 +0.00    -0.477 OA
DOCKED: ATOM     43  H   UNL d   1      -7.170   0.660  14.083 +0.10 +0.01    +0.295 HD
DOCKED: ENDBRANCH  40  42
DOCKED: ENDBRANCH  39  40
DOCKED: ENDBRANCH  27  38
DOCKED: BRANCH   8  44
DOCKED: ATOM     44  C   UNL d   1     -11.812   9.737   5.333 -0.13 +0.02    +0.141 C 
DOCKED: BRANCH  44  45
DOCKED: ATOM     45  C   UNL d   1     -12.278   9.768   3.902 -0.14 -0.01    +0.306 C 
DOCKED: ATOM     46  O   UNL d   1     -11.862  10.496   3.018 -0.14 +0.00    -0.251 OA
DOCKED: BRANCH  45  47
DOCKED: ATOM     47  O   UNL d   1     -13.271   8.891   3.665 -0.17 +0.04    -0.481 OA
DOCKED: ATOM     48  H   UNL d   1     -12.814   8.066   3.396 -0.40 -0.11    +0.295 HD
DOCKED: ENDBRANCH  45  47
DOCKED: ENDBRANCH  44  45
DOCKED: ENDBRANCH   8  44
DOCKED: BRANCH  22  49
DOCKED: ATOM     49  C   UNL d   1     -10.848   1.783  10.688 -0.19 +0.01    +0.048 C 
DOCKED: BRANCH  49  50
DOCKED: ATOM     50  C   UNL d   1     -10.899   2.082  12.186 -0.16 +0.02    +0.125 C 
DOCKED: BRANCH  50  51
DOCKED: ATOM     51  C   UNL d   1     -10.413   0.906  12.985 -0.11 +0.06    +0.305 C 
DOCKED: ATOM     52  O   UNL d   1     -10.966  -0.169  13.138 -0.46 -0.06    -0.251 OA
DOCKED: BRANCH  51  53
DOCKED: ATOM     53  O   UNL d   1      -9.226   1.154  13.575 -0.05 -0.05    -0.481 OA
DOCKED: ATOM     54  H   UNL d   1      -8.566   0.834  12.926 +0.12 +0.04    +0.295 HD
DOCKED: ENDBRANCH  51  53
DOCKED: ENDBRANCH  50  51
DOCKED: ENDBRANCH  49  50
DOCKED: ENDBRANCH  22  49
DOCKED: TORSDOF 13
DOCKED: TER
DOCKED: ENDMDL
________________________________________________________________________________


	BEGINNING GENETIC ALGORITHM DOCKING 13 of 100
Run: 13 Seed: 2043456657 1720560725 [ Run 13 of 100 GA/GALS ]
Beginning LAMARCKIAN GENETIC ALGORITHM (LGA), with a maximum of 25000000 energy evaluations.

Final-Value: -10.068


	FINAL GENETIC ALGORITHM DOCKED STATE
	_______________________________________________


Detailed state:  trans -13.107 -15.801 -9.321 quatxyzw 0.361865 -0.734122 -0.277872 0.502898 center 0.153 0.018 -0.028 ntor 13 -47.2702 -12.7429 90.0980 -40.8245 -149.4326 -79.3515 -46.5403 171.8438 141.5252 -112.5717 -3.6608 -26.2867 18.6139
State:	-13.107 -15.801  -9.321   0.419 -0.849 -0.321 119.616    -47.27  -12.74   90.10  -40.82 -149.43  -79.35  -46.54  171.84  141.53 -112.57   -3.66  -26.29   18.61

DOCKED: MODEL       13
DOCKED: USER    Run = 13
DOCKED: USER    DPF = D:/Protein_go_brrr/autodock/final/AncA/heme/dock.dpf
DOCKED: USER  
DOCKED: USER    Estimated Free Energy of Binding    =   -4.54 kcal/mol  [=(1)+(2)+(3)-(4)]
DOCKED: USER    Estimated Inhibition Constant, Ki   =  472.70 uM (micromolar)  [Temperature = 298.15 K]
DOCKED: USER    
DOCKED: USER    (1) Final Intermolecular Energy     =   -8.41 kcal/mol
DOCKED: USER        vdW + Hbond + desolv Energy     =   -8.11 kcal/mol
DOCKED: USER        Electrostatic Energy            =   -0.31 kcal/mol
DOCKED: USER    (2) Final Total Internal Energy     =   -1.65 kcal/mol
DOCKED: USER    (3) Torsional Free Energy           =   +3.88 kcal/mol
DOCKED: USER    (4) Unbound System's Energy  [=(2)] =   -1.65 kcal/mol
DOCKED: USER    
DOCKED: USER    
DOCKED: USER    NEWDPF move heme_opt.pdbqt
DOCKED: USER    NEWDPF about 0.153000 0.018000 -0.028000
DOCKED: USER    NEWDPF tran0 -13.106640 -15.800694 -9.321136
DOCKED: USER    NEWDPF quaternion0 0.361865 -0.734122 -0.277872 0.502898
DOCKED: USER    NEWDPF axisangle0 0.418658 -0.849338 -0.321482 119.616194
DOCKED: USER    NEWDPF quat0 0.418658 -0.849338 -0.321482 119.616194
DOCKED: USER    NEWDPF dihe0 -47.27 -12.74 90.10 -40.82 -149.43 -79.35 -46.54 171.84 141.53 -112.57 -3.66 -26.29 18.61 
DOCKED: USER  keepresnum = 1 
DOCKED: USER  
DOCKED: REMARK  13 active torsions:
DOCKED: REMARK  status: ('A' for Active; 'I' for Inactive)
DOCKED: REMARK    1  A    between atoms: O_3  and  C_38 
DOCKED: REMARK    2  A    between atoms: O_4  and  C_40 
DOCKED: REMARK    3  A    between atoms: O_7  and  C_46 
DOCKED: REMARK    4  A    between atoms: O_9  and  C_48 
DOCKED: REMARK    5  A    between atoms: C_15  and  C_20 
DOCKED: REMARK    6  A    between atoms: C_16  and  C_23 
DOCKED: REMARK    7  A    between atoms: C_20  and  C_38 
DOCKED: REMARK    8  A    between atoms: C_23  and  C_40 
DOCKED: REMARK    9  A    between atoms: C_32  and  C_41 
DOCKED: REMARK   10  A    between atoms: C_37  and  C_45 
DOCKED: REMARK   11  A    between atoms: C_41  and  C_44 
DOCKED: REMARK   12  A    between atoms: C_44  and  C_46 
DOCKED: REMARK   13  A    between atoms: C_47  and  C_48 
DOCKED: USER                              x       y       z     vdW  Elec       q    Type
DOCKED: USER                           _______ _______ _______ _____ _____    ______ ____
DOCKED: ROOT
DOCKED: ATOM      1  O   UNL d   1     -12.825 -12.902  -4.196 -0.14 -0.04    -0.289 OA
DOCKED: ATOM      2  O   UNL d   1      -9.409 -19.179  -6.502 -0.06 -0.17    -0.289 OA
DOCKED: ATOM      3  N   UNL d   1     -13.411 -14.321  -7.284 -0.13 -0.02    -0.247 NA
DOCKED: ATOM      4  N   UNL d   1     -11.430 -16.533  -7.406 -0.15 -0.06    -0.247 NA
DOCKED: ATOM      5  N   UNL d   1     -11.971 -16.737 -10.223 -0.03 -0.07    -0.354 N 
DOCKED: ATOM      6  N   UNL d   1     -14.009 -14.428 -10.091 -0.13 -0.07    -0.354 N 
DOCKED: ATOM      7  C   UNL d   1     -14.101 -12.247  -6.175 -0.18 +0.01    +0.084 A 
DOCKED: ATOM      8  C   UNL d   1     -10.676 -17.476  -5.282 -0.08 +0.03    +0.084 A 
DOCKED: ATOM      9  C   UNL d   1     -11.485 -16.415  -6.035 -0.15 +0.02    +0.058 A 
DOCKED: ATOM     10  C   UNL d   1     -14.136 -13.148  -7.412 -0.19 +0.00    +0.058 A 
DOCKED: ATOM     11  C   UNL d   1     -13.242 -13.127  -5.317 -0.13 +0.03    +0.193 A 
DOCKED: ATOM     12  C   UNL d   1     -12.911 -14.364  -6.092 -0.17 +0.02    +0.109 A 
DOCKED: ATOM     13  C   UNL d   1     -10.123 -18.196  -6.480 -0.09 +0.10    +0.193 A 
DOCKED: ATOM     14  C   UNL d   1     -13.357 -10.935  -6.440 -0.37 -0.00    +0.026 C 
DOCKED: ATOM     15  C   UNL d   1     -12.144 -15.427  -5.411 -0.15 +0.01    +0.055 C 
DOCKED: ATOM     16  C   UNL d   1     -11.583 -18.437  -4.507 -0.03 +0.01    +0.026 C 
DOCKED: ATOM     17  C   UNL d   1     -10.650 -17.521  -7.705 -0.19 +0.05    +0.109 A 
DOCKED: ATOM     18  C   UNL d   1     -14.891 -12.842  -8.484 -0.20 +0.01    +0.050 C 
DOCKED: ATOM     19  C   UNL d   1     -15.052 -13.653  -9.636 -0.17 +0.01    +0.045 A 
DOCKED: ATOM     20  C   UNL d   1     -10.880 -17.562 -10.132 -0.17 +0.02    +0.045 A 
DOCKED: ATOM     21  C   UNL d   1     -10.239 -17.986  -9.038 -0.16 +0.03    +0.057 C 
DOCKED: ATOM     22  C   UNL d   1     -11.417 -17.289 -12.335 -0.24 -0.01    -0.019 A 
DOCKED: ATOM     23  C   UNL d   1     -12.368 -16.513 -11.514 -0.27 +0.02    +0.045 A 
DOCKED: ATOM     24  C   UNL d   1     -10.540 -17.909 -11.511 -0.23 -0.01    -0.022 A 
DOCKED: ATOM     25  C   UNL d   1     -14.352 -15.059 -11.264 -0.22 +0.02    +0.049 A 
DOCKED: ATOM     26  C   UNL d   1     -16.111 -13.812 -10.516 -0.11 -0.01    -0.018 A 
DOCKED: ATOM     27  C   UNL d   1     -15.670 -14.716 -11.532 -0.15 +0.00    +0.003 A 
DOCKED: ATOM     28  C   UNL d   1     -13.386 -15.791 -12.007 -0.28 +0.03    +0.052 C 
DOCKED: ATOM     29  C   UNL d   1      -9.406 -18.810 -11.864 -0.19 +0.03    +0.046 C 
DOCKED: ATOM     30  C   UNL d   1     -17.452 -13.167 -10.421 -0.04 +0.01    +0.046 C 
DOCKED: ATOM     31  H   UNL d   1     -12.455 -16.412  -9.393 -0.25 +0.01    +0.166 HD
DOCKED: ATOM     32  H   UNL d   1     -13.108 -14.480  -9.631 -0.43 -0.02    +0.166 HD
DOCKED: ENDROOT
DOCKED: BRANCH   7  33
DOCKED: ATOM     33  C   UNL d   1     -15.456 -11.999  -5.504 -0.13 +0.01    +0.141 C 
DOCKED: BRANCH  33  34
DOCKED: ATOM     34  C   UNL d   1     -15.390 -10.940  -4.437 -0.23 -0.00    +0.306 C 
DOCKED: ATOM     35  O   UNL d   1     -15.240 -11.129  -3.242 -0.51 -0.00    -0.251 OA
DOCKED: BRANCH  34  36
DOCKED: ATOM     36  O   UNL d   1     -15.513  -9.696  -4.934 -0.13 +0.01    -0.481 OA
DOCKED: ATOM     37  H   UNL d   1     -16.202  -9.275  -4.377 -0.41 -0.07    +0.295 HD
DOCKED: ENDBRANCH  34  36
DOCKED: ENDBRANCH  33  34
DOCKED: ENDBRANCH   7  33
DOCKED: BRANCH  27  38
DOCKED: ATOM     38  C   UNL d   1     -16.452 -15.144 -12.652 -0.13 +0.01    +0.017 C 
DOCKED: ATOM     39  C   UNL d   1     -16.121 -16.135 -13.494 -0.07 +0.07    +0.092 C 
DOCKED: BRANCH  39  40
DOCKED: ATOM     40  C   UNL d   1     -17.021 -16.488 -14.596 -0.05 +0.22    +0.330 C 
DOCKED: ATOM     41  O   UNL d   1     -18.012 -17.191 -14.550 -0.01 -0.10    -0.246 OA
DOCKED: BRANCH  40  42
DOCKED: ATOM     42  O   UNL d   1     -16.609 -15.906 -15.733 -0.23 -0.54    -0.477 OA
DOCKED: ATOM     43  H   UNL d   1     -17.128 -16.358 -16.429 +0.01 +0.21    +0.295 HD
DOCKED: ENDBRANCH  40  42
DOCKED: ENDBRANCH  39  40
DOCKED: ENDBRANCH  27  38
DOCKED: BRANCH   8  44
DOCKED: ATOM     44  C   UNL d   1      -9.548 -16.941  -4.395 -0.10 +0.08    +0.141 C 
DOCKED: BRANCH  44  45
DOCKED: ATOM     45  C   UNL d   1      -8.535 -17.991  -4.023 -0.04 +0.21    +0.306 C 
DOCKED: ATOM     46  O   UNL d   1      -8.563 -18.711  -3.040 -0.01 -0.15    -0.251 OA
DOCKED: BRANCH  45  47
DOCKED: ATOM     47  O   UNL d   1      -7.519 -18.059  -4.901 -0.03 -0.43    -0.481 OA
DOCKED: ATOM     48  H   UNL d   1      -7.807 -18.724  -5.562 +0.07 +0.25    +0.295 HD
DOCKED: ENDBRANCH  45  47
DOCKED: ENDBRANCH  44  45
DOCKED: ENDBRANCH   8  44
DOCKED: BRANCH  22  49
DOCKED: ATOM     49  C   UNL d   1     -11.445 -17.340 -13.835 -0.20 +0.03    +0.048 C 
DOCKED: BRANCH  49  50
DOCKED: ATOM     50  C   UNL d   1     -12.718 -18.006 -14.357 -0.11 +0.08    +0.125 C 
DOCKED: BRANCH  50  51
DOCKED: ATOM     51  C   UNL d   1     -12.757 -17.984 -15.859 -0.02 +0.22    +0.305 C 
DOCKED: ATOM     52  O   UNL d   1     -13.487 -18.627 -16.593 -0.03 -0.13    -0.251 OA
DOCKED: BRANCH  51  53
DOCKED: ATOM     53  O   UNL d   1     -11.840 -17.141 -16.375 -0.34 -0.42    -0.481 OA
DOCKED: ATOM     54  H   UNL d   1     -11.475 -17.628 -17.144 +0.05 +0.17    +0.295 HD
DOCKED: ENDBRANCH  51  53
DOCKED: ENDBRANCH  50  51
DOCKED: ENDBRANCH  49  50
DOCKED: ENDBRANCH  22  49
DOCKED: TORSDOF 13
DOCKED: TER
DOCKED: ENDMDL
________________________________________________________________________________


	BEGINNING GENETIC ALGORITHM DOCKING 14 of 100
Run: 14 Seed: 831484119 747858988 [ Run 14 of 100 GA/GALS ]
Beginning LAMARCKIAN GENETIC ALGORITHM (LGA), with a maximum of 25000000 energy evaluations.

Final-Value: -11.812


	FINAL GENETIC ALGORITHM DOCKED STATE
	_______________________________________________


Detailed state:  trans -6.831 -0.173 -16.465 quatxyzw -0.235582 -0.210424 0.576871 0.753288 center 0.153 0.018 -0.028 ntor 13 -178.9871 -85.4552 -92.5844 78.1364 -160.5339 -56.8177 136.3993 157.6545 1.7672 -56.4876 87.2520 -73.5925 22.2330
State:	 -6.831  -0.173 -16.465  -0.358 -0.320  0.877 82.248   -178.99  -85.46  -92.58   78.14 -160.53  -56.82  136.40  157.65    1.77  -56.49   87.25  -73.59   22.23

DOCKED: MODEL       14
DOCKED: USER    Run = 14
DOCKED: USER    DPF = D:/Protein_go_brrr/autodock/final/AncA/heme/dock.dpf
DOCKED: USER  
DOCKED: USER    Estimated Free Energy of Binding    =   -5.42 kcal/mol  [=(1)+(2)+(3)-(4)]
DOCKED: USER    Estimated Inhibition Constant, Ki   =  105.91 uM (micromolar)  [Temperature = 298.15 K]
DOCKED: USER    
DOCKED: USER    (1) Final Intermolecular Energy     =   -9.30 kcal/mol
DOCKED: USER        vdW + Hbond + desolv Energy     =   -8.96 kcal/mol
DOCKED: USER        Electrostatic Energy            =   -0.34 kcal/mol
DOCKED: USER    (2) Final Total Internal Energy     =   -2.51 kcal/mol
DOCKED: USER    (3) Torsional Free Energy           =   +3.88 kcal/mol
DOCKED: USER    (4) Unbound System's Energy  [=(2)] =   -2.51 kcal/mol
DOCKED: USER    
DOCKED: USER    
DOCKED: USER    NEWDPF move heme_opt.pdbqt
DOCKED: USER    NEWDPF about 0.153000 0.018000 -0.028000
DOCKED: USER    NEWDPF tran0 -6.831089 -0.172865 -16.465090
DOCKED: USER    NEWDPF quaternion0 -0.235582 -0.210424 0.576871 0.753288
DOCKED: USER    NEWDPF axisangle0 -0.358195 -0.319943 0.877116 82.248023
DOCKED: USER    NEWDPF quat0 -0.358195 -0.319943 0.877116 82.248023
DOCKED: USER    NEWDPF dihe0 -178.99 -85.46 -92.58 78.14 -160.53 -56.82 136.40 157.65 1.77 -56.49 87.25 -73.59 22.23 
DOCKED: USER  keepresnum = 1 
DOCKED: USER  
DOCKED: REMARK  13 active torsions:
DOCKED: REMARK  status: ('A' for Active; 'I' for Inactive)
DOCKED: REMARK    1  A    between atoms: O_3  and  C_38 
DOCKED: REMARK    2  A    between atoms: O_4  and  C_40 
DOCKED: REMARK    3  A    between atoms: O_7  and  C_46 
DOCKED: REMARK    4  A    between atoms: O_9  and  C_48 
DOCKED: REMARK    5  A    between atoms: C_15  and  C_20 
DOCKED: REMARK    6  A    between atoms: C_16  and  C_23 
DOCKED: REMARK    7  A    between atoms: C_20  and  C_38 
DOCKED: REMARK    8  A    between atoms: C_23  and  C_40 
DOCKED: REMARK    9  A    between atoms: C_32  and  C_41 
DOCKED: REMARK   10  A    between atoms: C_37  and  C_45 
DOCKED: REMARK   11  A    between atoms: C_41  and  C_44 
DOCKED: REMARK   12  A    between atoms: C_44  and  C_46 
DOCKED: REMARK   13  A    between atoms: C_47  and  C_48 
DOCKED: USER                              x       y       z     vdW  Elec       q    Type
DOCKED: USER                           _______ _______ _______ _____ _____    ______ ____
DOCKED: ROOT
DOCKED: ATOM      1  O   UNL d   1      -6.546   4.137 -12.453 -0.48 -0.07    -0.289 OA
DOCKED: ATOM      2  O   UNL d   1     -12.248   1.734 -16.708 -0.03 +0.11    -0.289 OA
DOCKED: ATOM      3  N   UNL d   1      -6.201   1.630 -14.796 -0.16 +0.02    -0.247 NA
DOCKED: ATOM      4  N   UNL d   1      -8.986   1.178 -15.728 -0.16 +0.10    -0.247 NA
DOCKED: ATOM      5  N   UNL d   1      -8.080  -1.256 -16.961 -0.08 +0.08    -0.354 N 
DOCKED: ATOM      6  N   UNL d   1      -5.198  -0.790 -15.973 +0.00 +0.02    -0.354 N 
DOCKED: ATOM      7  C   UNL d   1      -4.747   2.608 -13.082 -0.26 +0.00    +0.084 A 
DOCKED: ATOM      8  C   UNL d   1     -10.544   3.052 -15.546 -0.13 -0.02    +0.084 A 
DOCKED: ATOM      9  C   UNL d   1      -9.158   2.463 -15.264 -0.20 -0.01    +0.058 A 
DOCKED: ATOM     10  C   UNL d   1      -4.951   1.584 -14.203 -0.25 -0.00    +0.058 A 
DOCKED: ATOM     11  C   UNL d   1      -6.097   3.254 -13.160 -0.22 +0.02    +0.193 A 
DOCKED: ATOM     12  C   UNL d   1      -6.876   2.590 -14.253 -0.23 -0.00    +0.109 A 
DOCKED: ATOM     13  C   UNL d   1     -11.139   1.850 -16.224 -0.08 -0.09    +0.193 A 
DOCKED: ATOM     14  C   UNL d   1      -4.595   1.939 -11.714 -0.47 -0.00    +0.026 C 
DOCKED: ATOM     15  C   UNL d   1      -8.214   3.125 -14.577 -0.21 -0.00    +0.055 C 
DOCKED: ATOM     16  C   UNL d   1     -10.477   4.203 -16.555 -0.05 -0.00    +0.026 C 
DOCKED: ATOM     17  C   UNL d   1     -10.096   0.782 -16.264 -0.15 -0.06    +0.109 A 
DOCKED: ATOM     18  C   UNL d   1      -3.950   0.782 -14.614 -0.30 -0.00    +0.050 C 
DOCKED: ATOM     19  C   UNL d   1      -4.020  -0.133 -15.695 -0.22 -0.00    +0.045 A 
DOCKED: ATOM     20  C   UNL d   1      -9.435  -1.411 -17.102 -0.19 -0.02    +0.045 A 
DOCKED: ATOM     21  C   UNL d   1     -10.410  -0.536 -16.836 -0.18 -0.04    +0.057 C 
DOCKED: ATOM     22  C   UNL d   1      -8.399  -3.337 -17.761 -0.23 +0.00    -0.019 A 
DOCKED: ATOM     23  C   UNL d   1      -7.372  -2.367 -17.334 -0.15 -0.01    +0.045 A 
DOCKED: ATOM     24  C   UNL d   1      -9.619  -2.765 -17.623 -0.17 +0.01    -0.022 A 
DOCKED: ATOM     25  C   UNL d   1      -5.018  -1.691 -16.997 -0.25 -0.00    +0.049 A 
DOCKED: ATOM     26  C   UNL d   1      -3.060  -0.593 -16.583 -0.18 +0.00    -0.018 A 
DOCKED: ATOM     27  C   UNL d   1      -3.701  -1.562 -17.416 -0.23 -0.00    +0.003 A 
DOCKED: ATOM     28  C   UNL d   1      -6.050  -2.599 -17.359 -0.26 -0.00    +0.052 C 
DOCKED: ATOM     29  C   UNL d   1     -10.959  -3.338 -17.934 -0.11 -0.02    +0.046 C 
DOCKED: ATOM     30  C   UNL d   1      -1.636  -0.159 -16.658 -0.25 +0.00    +0.046 C 
DOCKED: ATOM     31  H   UNL d   1      -7.678  -0.367 -16.684 +0.05 -0.03    +0.166 HD
DOCKED: ATOM     32  H   UNL d   1      -6.056  -0.644 -15.456 +0.13 -0.01    +0.166 HD
DOCKED: ENDROOT
DOCKED: BRANCH   7  33
DOCKED: ATOM     33  C   UNL d   1      -3.641   3.640 -13.329 -0.13 +0.02    +0.141 C 
DOCKED: BRANCH  33  34
DOCKED: ATOM     34  C   UNL d   1      -3.750   4.292 -14.681 -0.01 +0.04    +0.306 C 
DOCKED: ATOM     35  O   UNL d   1      -3.029   4.082 -15.642 -0.01 -0.02    -0.251 OA
DOCKED: BRANCH  34  36
DOCKED: ATOM     36  O   UNL d   1      -4.763   5.174 -14.752 +0.01 -0.09    -0.481 OA
DOCKED: ATOM     37  H   UNL d   1      -5.189   5.131 -13.870 +0.08 +0.07    +0.295 HD
DOCKED: ENDBRANCH  34  36
DOCKED: ENDBRANCH  33  34
DOCKED: ENDBRANCH   7  33
DOCKED: BRANCH  27  38
DOCKED: ATOM     38  C   UNL d   1      -3.063  -2.299 -18.464 -0.25 -0.00    +0.017 C 
DOCKED: ATOM     39  C   UNL d   1      -3.315  -3.580 -18.774 -0.31 -0.02    +0.092 C 
DOCKED: BRANCH  39  40
DOCKED: ATOM     40  C   UNL d   1      -2.604  -4.216 -19.886 -0.19 -0.09    +0.330 C 
DOCKED: ATOM     41  O   UNL d   1      -2.589  -3.872 -21.053 -0.09 +0.05    -0.246 OA
DOCKED: BRANCH  40  42
DOCKED: ATOM     42  O   UNL d   1      -1.918  -5.283 -19.447 -0.24 +0.18    -0.477 OA
DOCKED: ATOM     43  H   UNL d   1      -2.527  -6.034 -19.604 -0.44 -0.21    +0.295 HD
DOCKED: ENDBRANCH  40  42
DOCKED: ENDBRANCH  39  40
DOCKED: ENDBRANCH  27  38
DOCKED: BRANCH   8  44
DOCKED: ATOM     44  C   UNL d   1     -11.359   3.445 -14.310 -0.16 -0.04    +0.141 C 
DOCKED: BRANCH  44  45
DOCKED: ATOM     45  C   UNL d   1     -12.489   2.495 -14.017 -0.13 -0.15    +0.306 C 
DOCKED: ATOM     46  O   UNL d   1     -12.450   1.523 -13.283 -0.23 +0.25    -0.251 OA
DOCKED: BRANCH  45  47
DOCKED: ATOM     47  O   UNL d   1     -13.611   2.806 -14.691 -0.00 +0.14    -0.481 OA
DOCKED: ATOM     48  H   UNL d   1     -13.513   2.355 -15.557 +0.04 -0.10    +0.295 HD
DOCKED: ENDBRANCH  45  47
DOCKED: ENDBRANCH  44  45
DOCKED: ENDBRANCH   8  44
DOCKED: BRANCH  22  49
DOCKED: ATOM     49  C   UNL d   1      -8.098  -4.725 -18.246 -0.27 -0.01    +0.048 C 
DOCKED: BRANCH  49  50
DOCKED: ATOM     50  C   UNL d   1      -7.234  -4.712 -19.507 -0.27 -0.06    +0.125 C 
DOCKED: BRANCH  50  51
DOCKED: ATOM     51  C   UNL d   1      -8.088  -4.728 -20.743 -0.12 -0.27    +0.305 C 
DOCKED: ATOM     52  O   UNL d   1      -7.820  -4.263 -21.837 -0.12 +0.20    -0.251 OA
DOCKED: BRANCH  51  53
DOCKED: ATOM     53  O   UNL d   1      -9.273  -5.335 -20.529 -0.06 +0.51    -0.481 OA
DOCKED: ATOM     54  H   UNL d   1      -9.161  -6.222 -20.931 -0.33 -0.71    +0.295 HD
DOCKED: ENDBRANCH  51  53
DOCKED: ENDBRANCH  50  51
DOCKED: ENDBRANCH  49  50
DOCKED: ENDBRANCH  22  49
DOCKED: TORSDOF 13
DOCKED: TER
DOCKED: ENDMDL
________________________________________________________________________________


	BEGINNING GENETIC ALGORITHM DOCKING 15 of 100
Run: 15 Seed: 263383751 14659385 [ Run 15 of 100 GA/GALS ]
Beginning LAMARCKIAN GENETIC ALGORITHM (LGA), with a maximum of 25000000 energy evaluations.

Final-Value: -13.052


	FINAL GENETIC ALGORITHM DOCKED STATE
	_______________________________________________


Detailed state:  trans -6.653 -1.488 -16.549 quatxyzw 0.700956 -0.665014 -0.219746 0.134643 center 0.153 0.018 -0.028 ntor 13 -169.8681 -76.4232 179.6984 -94.9332 -144.1835 -155.4057 148.3746 179.8859 -142.1315 -2.6094 -18.3868 -15.9231 140.4587
State:	 -6.653  -1.488 -16.549   0.707 -0.671 -0.222 164.524   -169.87  -76.42  179.70  -94.93 -144.18 -155.41  148.37  179.89 -142.13   -2.61  -18.39  -15.92  140.46

DOCKED: MODEL       15
DOCKED: USER    Run = 15
DOCKED: USER    DPF = D:/Protein_go_brrr/autodock/final/AncA/heme/dock.dpf
DOCKED: USER  
DOCKED: USER    Estimated Free Energy of Binding    =   -7.59 kcal/mol  [=(1)+(2)+(3)-(4)]
DOCKED: USER    Estimated Inhibition Constant, Ki   =    2.75 uM (micromolar)  [Temperature = 298.15 K]
DOCKED: USER    
DOCKED: USER    (1) Final Intermolecular Energy     =  -11.46 kcal/mol
DOCKED: USER        vdW + Hbond + desolv Energy     =  -10.52 kcal/mol
DOCKED: USER        Electrostatic Energy            =   -0.94 kcal/mol
DOCKED: USER    (2) Final Total Internal Energy     =   -1.59 kcal/mol
DOCKED: USER    (3) Torsional Free Energy           =   +3.88 kcal/mol
DOCKED: USER    (4) Unbound System's Energy  [=(2)] =   -1.59 kcal/mol
DOCKED: USER    
DOCKED: USER    
DOCKED: USER    NEWDPF move heme_opt.pdbqt
DOCKED: USER    NEWDPF about 0.153000 0.018000 -0.028000
DOCKED: USER    NEWDPF tran0 -6.652658 -1.488085 -16.549136
DOCKED: USER    NEWDPF quaternion0 0.700956 -0.665014 -0.219746 0.134643
DOCKED: USER    NEWDPF axisangle0 0.707397 -0.671126 -0.221765 164.524070
DOCKED: USER    NEWDPF quat0 0.707397 -0.671126 -0.221765 164.524070
DOCKED: USER    NEWDPF dihe0 -169.87 -76.42 179.70 -94.93 -144.18 -155.41 148.37 179.89 -142.13 -2.61 -18.39 -15.92 140.46 
DOCKED: USER  keepresnum = 1 
DOCKED: USER  
DOCKED: REMARK  13 active torsions:
DOCKED: REMARK  status: ('A' for Active; 'I' for Inactive)
DOCKED: REMARK    1  A    between atoms: O_3  and  C_38 
DOCKED: REMARK    2  A    between atoms: O_4  and  C_40 
DOCKED: REMARK    3  A    between atoms: O_7  and  C_46 
DOCKED: REMARK    4  A    between atoms: O_9  and  C_48 
DOCKED: REMARK    5  A    between atoms: C_15  and  C_20 
DOCKED: REMARK    6  A    between atoms: C_16  and  C_23 
DOCKED: REMARK    7  A    between atoms: C_20  and  C_38 
DOCKED: REMARK    8  A    between atoms: C_23  and  C_40 
DOCKED: REMARK    9  A    between atoms: C_32  and  C_41 
DOCKED: REMARK   10  A    between atoms: C_37  and  C_45 
DOCKED: REMARK   11  A    between atoms: C_41  and  C_44 
DOCKED: REMARK   12  A    between atoms: C_44  and  C_46 
DOCKED: REMARK   13  A    between atoms: C_47  and  C_48 
DOCKED: USER                              x       y       z     vdW  Elec       q    Type
DOCKED: USER                           _______ _______ _______ _____ _____    ______ ____
DOCKED: ROOT
DOCKED: ATOM      1  O   UNL d   1      -8.517   3.589 -14.203 -0.40 -0.02    -0.289 OA
DOCKED: ATOM      2  O   UNL d   1      -1.695   0.456 -14.387 -0.30 +0.02    -0.289 OA
DOCKED: ATOM      3  N   UNL d   1      -7.921   0.490 -15.594 -0.21 +0.07    -0.247 NA
DOCKED: ATOM      4  N   UNL d   1      -4.962   0.245 -15.476 -0.13 +0.01    -0.247 NA
DOCKED: ATOM      5  N   UNL d   1      -5.168  -1.990 -17.272 -0.12 +0.02    -0.354 N 
DOCKED: ATOM      6  N   UNL d   1      -8.236  -1.717 -17.405 -0.07 +0.08    -0.354 N 
DOCKED: ATOM      7  C   UNL d   1      -9.861   1.982 -15.462 -0.19 -0.04    +0.084 A 
DOCKED: ATOM      8  C   UNL d   1      -3.804   1.515 -13.739 -0.25 -0.00    +0.084 A 
DOCKED: ATOM      9  C   UNL d   1      -5.107   1.176 -14.472 -0.25 -0.00    +0.058 A 
DOCKED: ATOM     10  C   UNL d   1      -9.250   0.663 -15.945 -0.25 -0.03    +0.058 A 
DOCKED: ATOM     11  C   UNL d   1      -8.649   2.514 -14.760 -0.15 -0.04    +0.193 A 
DOCKED: ATOM     12  C   UNL d   1      -7.548   1.507 -14.889 -0.26 -0.02    +0.109 A 
DOCKED: ATOM     13  C   UNL d   1      -2.888   0.631 -14.537 -0.21 -0.01    +0.193 A 
DOCKED: ATOM     14  C   UNL d   1     -10.210   2.914 -16.625 -0.08 -0.00    +0.026 C 
DOCKED: ATOM     15  C   UNL d   1      -6.274   1.776 -14.192 -0.32 -0.00    +0.055 C 
DOCKED: ATOM     16  C   UNL d   1      -3.824   1.022 -12.289 -0.54 -0.00    +0.026 C 
DOCKED: ATOM     17  C   UNL d   1      -3.712  -0.078 -15.562 -0.18 -0.01    +0.109 A 
DOCKED: ATOM     18  C   UNL d   1      -9.992  -0.267 -16.575 -0.21 -0.03    +0.050 C 
DOCKED: ATOM     19  C   UNL d   1      -9.535  -1.546 -16.983 -0.20 -0.02    +0.045 A 
DOCKED: ATOM     20  C   UNL d   1      -3.810  -1.808 -17.278 -0.24 -0.00    +0.045 A 
DOCKED: ATOM     21  C   UNL d   1      -3.071  -0.987 -16.525 -0.02 -0.00    +0.057 C 
DOCKED: ATOM     22  C   UNL d   1      -4.350  -3.380 -18.844 -0.30 +0.00    -0.019 A 
DOCKED: ATOM     23  C   UNL d   1      -5.588  -2.921 -18.185 -0.26 -0.01    +0.045 A 
DOCKED: ATOM     24  C   UNL d   1      -3.300  -2.719 -18.302 -0.27 +0.00    -0.022 A 
DOCKED: ATOM     25  C   UNL d   1      -8.034  -3.008 -17.837 -0.21 -0.01    +0.049 A 
DOCKED: ATOM     26  C   UNL d   1     -10.184  -2.764 -17.109 -0.20 +0.01    -0.018 A 
DOCKED: ATOM     27  C   UNL d   1      -9.226  -3.688 -17.630 -0.22 -0.00    +0.003 A 
DOCKED: ATOM     28  C   UNL d   1      -6.816  -3.385 -18.465 -0.27 -0.01    +0.052 C 
DOCKED: ATOM     29  C   UNL d   1      -1.850  -2.845 -18.626 -0.28 -0.01    +0.046 C 
DOCKED: ATOM     30  C   UNL d   1     -11.605  -3.056 -16.765 -0.16 -0.03    +0.046 C 
DOCKED: ATOM     31  H   UNL d   1      -5.758  -1.525 -16.591 +0.07 -0.01    +0.166 HD
DOCKED: ATOM     32  H   UNL d   1      -7.550  -0.972 -17.425 +0.05 -0.03    +0.166 HD
DOCKED: ENDROOT
DOCKED: BRANCH   7  33
DOCKED: ATOM     33  C   UNL d   1     -11.032   1.843 -14.482 -0.10 -0.11    +0.141 C 
DOCKED: BRANCH  33  34
DOCKED: ATOM     34  C   UNL d   1     -12.370   1.876 -15.171 -0.09 -0.19    +0.306 C 
DOCKED: ATOM     35  O   UNL d   1     -13.039   2.870 -15.396 -0.04 +0.07    -0.251 OA
DOCKED: BRANCH  34  36
DOCKED: ATOM     36  O   UNL d   1     -12.793   0.655 -15.541 -0.04 +0.51    -0.481 OA
DOCKED: ATOM     37  H   UNL d   1     -12.145   0.037 -15.140 -0.47 -0.69    +0.295 HD
DOCKED: ENDBRANCH  34  36
DOCKED: ENDBRANCH  33  34
DOCKED: ENDBRANCH   7  33
DOCKED: BRANCH  27  38
DOCKED: ATOM     38  C   UNL d   1      -9.485  -5.065 -17.928 -0.27 -0.01    +0.017 C 
DOCKED: ATOM     39  C   UNL d   1      -8.552  -6.023 -18.035 -0.16 -0.04    +0.092 C 
DOCKED: BRANCH  39  40
DOCKED: ATOM     40  C   UNL d   1      -8.952  -7.402 -18.328 -0.09 -0.21    +0.330 C 
DOCKED: ATOM     41  O   UNL d   1      -8.331  -8.421 -18.095 -0.93 +0.07    -0.246 OA
DOCKED: BRANCH  40  42
DOCKED: ATOM     42  O   UNL d   1     -10.160  -7.418 -18.913 -0.06 +0.36    -0.477 OA
DOCKED: ATOM     43  H   UNL d   1      -9.961  -7.582 -19.858 -0.46 -0.51    +0.295 HD
DOCKED: ENDBRANCH  40  42
DOCKED: ENDBRANCH  39  40
DOCKED: ENDBRANCH  27  38
DOCKED: BRANCH   8  44
DOCKED: ATOM     44  C   UNL d   1      -3.362   2.980 -13.820 -0.12 +0.01    +0.141 C 
DOCKED: BRANCH  44  45
DOCKED: ATOM     45  C   UNL d   1      -3.303   3.505 -15.230 -0.00 +0.02    +0.306 C 
DOCKED: ATOM     46  O   UNL d   1      -4.107   4.250 -15.762 -0.01 -0.02    -0.251 OA
DOCKED: BRANCH  45  47
DOCKED: ATOM     47  O   UNL d   1      -2.239   3.039 -15.908 +0.01 -0.02    -0.481 OA
DOCKED: ATOM     48  H   UNL d   1      -1.762   2.473 -15.264 +0.09 +0.00    +0.295 HD
DOCKED: ENDBRANCH  45  47
DOCKED: ENDBRANCH  44  45
DOCKED: ENDBRANCH   8  44
DOCKED: BRANCH  22  49
DOCKED: ATOM     49  C   UNL d   1      -4.309  -4.403 -19.942 -0.18 -0.02    +0.048 C 
DOCKED: BRANCH  49  50
DOCKED: ATOM     50  C   UNL d   1      -5.173  -3.992 -21.134 -0.19 -0.05    +0.125 C 
DOCKED: BRANCH  50  51
DOCKED: ATOM     51  C   UNL d   1      -4.802  -4.776 -22.361 -0.13 -0.16    +0.305 C 
DOCKED: ATOM     52  O   UNL d   1      -5.362  -4.771 -23.443 -0.11 +0.16    -0.251 OA
DOCKED: BRANCH  51  53
DOCKED: ATOM     53  O   UNL d   1      -3.723  -5.557 -22.153 -0.10 +0.24    -0.481 OA
DOCKED: ATOM     54  H   UNL d   1      -4.092  -6.371 -21.753 -0.44 -0.25    +0.295 HD
DOCKED: ENDBRANCH  51  53
DOCKED: ENDBRANCH  50  51
DOCKED: ENDBRANCH  49  50
DOCKED: ENDBRANCH  22  49
DOCKED: TORSDOF 13
DOCKED: TER
DOCKED: ENDMDL
________________________________________________________________________________


	BEGINNING GENETIC ALGORITHM DOCKING 16 of 100
Run: 16 Seed: 42050288 1378965102 [ Run 16 of 100 GA/GALS ]
Beginning LAMARCKIAN GENETIC ALGORITHM (LGA), with a maximum of 25000000 energy evaluations.

Final-Value: -11.228


	FINAL GENETIC ALGORITHM DOCKED STATE
	_______________________________________________


Detailed state:  trans 1.953 15.469 5.434 quatxyzw 0.462974 0.472959 0.271103 0.698905 center 0.153 0.018 -0.028 ntor 13 129.3190 -168.7859 -170.6990 -5.3987 -130.9154 77.4265 139.0677 -169.5647 24.2839 -12.3505 -70.1993 -106.0584 -1.5336
State:	  1.953  15.469   5.434   0.647  0.661  0.379 91.322    129.32 -168.79 -170.70   -5.40 -130.92   77.43  139.07 -169.56   24.28  -12.35  -70.20 -106.06   -1.53

DOCKED: MODEL       16
DOCKED: USER    Run = 16
DOCKED: USER    DPF = D:/Protein_go_brrr/autodock/final/AncA/heme/dock.dpf
DOCKED: USER  
DOCKED: USER    Estimated Free Energy of Binding    =   -2.76 kcal/mol  [=(1)+(2)+(3)-(4)]
DOCKED: USER    Estimated Inhibition Constant, Ki   =    9.51 mM (millimolar)  [Temperature = 298.15 K]
DOCKED: USER    
DOCKED: USER    (1) Final Intermolecular Energy     =   -6.64 kcal/mol
DOCKED: USER        vdW + Hbond + desolv Energy     =   -6.61 kcal/mol
DOCKED: USER        Electrostatic Energy            =   -0.02 kcal/mol
DOCKED: USER    (2) Final Total Internal Energy     =   -4.59 kcal/mol
DOCKED: USER    (3) Torsional Free Energy           =   +3.88 kcal/mol
DOCKED: USER    (4) Unbound System's Energy  [=(2)] =   -4.59 kcal/mol
DOCKED: USER    
DOCKED: USER    
DOCKED: USER    NEWDPF move heme_opt.pdbqt
DOCKED: USER    NEWDPF about 0.153000 0.018000 -0.028000
DOCKED: USER    NEWDPF tran0 1.953241 15.469212 5.434135
DOCKED: USER    NEWDPF quaternion0 0.462974 0.472959 0.271103 0.698905
DOCKED: USER    NEWDPF axisangle0 0.647322 0.661282 0.379051 91.321599
DOCKED: USER    NEWDPF quat0 0.647322 0.661282 0.379051 91.321599
DOCKED: USER    NEWDPF dihe0 129.32 -168.79 -170.70 -5.40 -130.92 77.43 139.07 -169.56 24.28 -12.35 -70.20 -106.06 -1.53 
DOCKED: USER  keepresnum = 1 
DOCKED: USER  
DOCKED: REMARK  13 active torsions:
DOCKED: REMARK  status: ('A' for Active; 'I' for Inactive)
DOCKED: REMARK    1  A    between atoms: O_3  and  C_38 
DOCKED: REMARK    2  A    between atoms: O_4  and  C_40 
DOCKED: REMARK    3  A    between atoms: O_7  and  C_46 
DOCKED: REMARK    4  A    between atoms: O_9  and  C_48 
DOCKED: REMARK    5  A    between atoms: C_15  and  C_20 
DOCKED: REMARK    6  A    between atoms: C_16  and  C_23 
DOCKED: REMARK    7  A    between atoms: C_20  and  C_38 
DOCKED: REMARK    8  A    between atoms: C_23  and  C_40 
DOCKED: REMARK    9  A    between atoms: C_32  and  C_41 
DOCKED: REMARK   10  A    between atoms: C_37  and  C_45 
DOCKED: REMARK   11  A    between atoms: C_41  and  C_44 
DOCKED: REMARK   12  A    between atoms: C_44  and  C_46 
DOCKED: REMARK   13  A    between atoms: C_47  and  C_48 
DOCKED: USER                              x       y       z     vdW  Elec       q    Type
DOCKED: USER                           _______ _______ _______ _____ _____    ______ ____
DOCKED: ROOT
DOCKED: ATOM      1  O   UNL d   1       0.791  16.440  -0.263 -0.06 +0.02    -0.289 OA
DOCKED: ATOM      2  O   UNL d   1      -2.436  11.829   4.708 -0.26 -0.02    -0.289 OA
DOCKED: ATOM      3  N   UNL d   1       1.917  16.107   2.980 -0.06 +0.01    -0.247 NA
DOCKED: ATOM      4  N   UNL d   1      -0.121  14.344   4.232 -0.08 -0.00    -0.247 NA
DOCKED: ATOM      5  N   UNL d   1       0.975  15.053   6.794 -0.06 +0.02    -0.354 N 
DOCKED: ATOM      6  N   UNL d   1       3.073  16.895   5.487 -0.00 +0.03    -0.354 N 
DOCKED: ATOM      7  C   UNL d   1       2.484  17.567   1.094 -0.09 -0.00    +0.084 A 
DOCKED: ATOM      8  C   UNL d   1      -1.350  12.832   2.757 -0.28 -0.00    +0.084 A 
DOCKED: ATOM      9  C   UNL d   1      -0.343  13.976   2.924 -0.18 -0.00    +0.058 A 
DOCKED: ATOM     10  C   UNL d   1       2.720  17.149   2.548 -0.10 -0.00    +0.058 A 
DOCKED: ATOM     11  C   UNL d   1       1.417  16.563   0.774 -0.08 -0.01    +0.193 A 
DOCKED: ATOM     12  C   UNL d   1       1.181  15.721   1.989 -0.12 -0.00    +0.109 A 
DOCKED: ATOM     13  C   UNL d   1      -1.685  12.646   4.210 -0.21 +0.01    +0.193 A 
DOCKED: ATOM     14  C   UNL d   1       1.888  18.973   0.989 -0.04 -0.00    +0.026 C 
DOCKED: ATOM     15  C   UNL d   1       0.230  14.596   1.881 -0.17 -0.00    +0.055 C 
DOCKED: ATOM     16  C   UNL d   1      -0.679  11.557   2.239 -0.45 -0.00    +0.026 C 
DOCKED: ATOM     17  C   UNL d   1      -0.879  13.627   4.997 -0.06 +0.00    +0.109 A 
DOCKED: ATOM     18  C   UNL d   1       3.696  17.706   3.290 -0.15 -0.00    +0.050 C 
DOCKED: ATOM     19  C   UNL d   1       4.043  17.327   4.612 -0.13 -0.00    +0.045 A 
DOCKED: ATOM     20  C   UNL d   1      -0.157  14.394   7.197 -0.20 -0.00    +0.045 A 
DOCKED: ATOM     21  C   UNL d   1      -1.033  13.706   6.458 -0.25 +0.00    +0.057 C 
DOCKED: ATOM     22  C   UNL d   1       0.837  15.337   9.024 -0.12 +0.00    -0.019 A 
DOCKED: ATOM     23  C   UNL d   1       1.642  15.655   7.828 -0.12 -0.00    +0.045 A 
DOCKED: ATOM     24  C   UNL d   1      -0.226  14.589   8.644 -0.18 +0.00    -0.022 A 
DOCKED: ATOM     25  C   UNL d   1       3.613  16.668   6.732 -0.12 -0.01    +0.049 A 
DOCKED: ATOM     26  C   UNL d   1       5.250  17.346   5.294 -0.21 +0.00    -0.018 A 
DOCKED: ATOM     27  C   UNL d   1       4.975  16.911   6.627 -0.20 -0.00    +0.003 A 
DOCKED: ATOM     28  C   UNL d   1       2.780  16.366   7.844 -0.13 -0.00    +0.052 C 
DOCKED: ATOM     29  C   UNL d   1      -1.313  14.016   9.488 -0.20 -0.00    +0.046 C 
DOCKED: ATOM     30  C   UNL d   1       6.578  17.742   4.744 -0.24 -0.00    +0.046 C 
DOCKED: ATOM     31  H   UNL d   1       1.296  15.009   5.833 +0.06 -0.01    +0.166 HD
DOCKED: ATOM     32  H   UNL d   1       2.095  16.804   5.240 +0.04 -0.01    +0.166 HD
DOCKED: ENDROOT
DOCKED: BRANCH   7  33
DOCKED: ATOM     33  C   UNL d   1       3.684  17.393   0.157 -0.19 -0.01    +0.141 C 
DOCKED: BRANCH  33  34
DOCKED: ATOM     34  C   UNL d   1       3.970  15.950  -0.156 -0.25 -0.02    +0.306 C 
DOCKED: ATOM     35  O   UNL d   1       4.518  15.148   0.581 -0.37 +0.02    -0.251 OA
DOCKED: BRANCH  34  36
DOCKED: ATOM     36  O   UNL d   1       3.549  15.592  -1.382 -0.16 +0.06    -0.481 OA
DOCKED: ATOM     37  H   UNL d   1       2.605  15.857  -1.406 +0.09 -0.04    +0.295 HD
DOCKED: ENDBRANCH  34  36
DOCKED: ENDBRANCH  33  34
DOCKED: ENDBRANCH   7  33
DOCKED: BRANCH  27  38
DOCKED: ATOM     38  C   UNL d   1       5.945  16.798   7.675 -0.22 -0.00    +0.017 C 
DOCKED: ATOM     39  C   UNL d   1       6.007  17.583   8.760 -0.16 -0.01    +0.092 C 
DOCKED: BRANCH  39  40
DOCKED: ATOM     40  C   UNL d   1       7.042  17.351   9.771 -0.10 -0.02    +0.330 C 
DOCKED: ATOM     41  O   UNL d   1       8.225  17.627   9.702 -0.15 +0.01    -0.246 OA
DOCKED: BRANCH  40  42
DOCKED: ATOM     42  O   UNL d   1       6.506  16.771  10.856 -0.10 +0.01    -0.477 OA
DOCKED: ATOM     43  H   UNL d   1       5.607  16.514  10.565 +0.06 -0.01    +0.295 HD
DOCKED: ENDBRANCH  40  42
DOCKED: ENDBRANCH  39  40
DOCKED: ENDBRANCH  27  38
DOCKED: BRANCH   8  44
DOCKED: ATOM     44  C   UNL d   1      -2.603  13.170   1.943 -0.17 -0.00    +0.141 C 
DOCKED: BRANCH  44  45
DOCKED: ATOM     45  C   UNL d   1      -3.439  14.257   2.563 -0.05 +0.00    +0.306 C 
DOCKED: ATOM     46  O   UNL d   1      -3.395  15.447   2.302 -0.02 -0.00    -0.251 OA
DOCKED: BRANCH  45  47
DOCKED: ATOM     47  O   UNL d   1      -4.275  13.789   3.508 -0.03 -0.03    -0.481 OA
DOCKED: ATOM     48  H   UNL d   1      -4.009  12.853   3.633 +0.08 +0.03    +0.295 HD
DOCKED: ENDBRANCH  45  47
DOCKED: ENDBRANCH  44  45
DOCKED: ENDBRANCH   8  44
DOCKED: BRANCH  22  49
DOCKED: ATOM     49  C   UNL d   1       1.170  15.801  10.412 -0.08 -0.00    +0.048 C 
DOCKED: BRANCH  49  50
DOCKED: ATOM     50  C   UNL d   1       2.164  14.867  11.101 -0.14 -0.00    +0.125 C 
DOCKED: BRANCH  50  51
DOCKED: ATOM     51  C   UNL d   1       3.499  15.534  11.269 -0.08 +0.01    +0.305 C 
DOCKED: ATOM     52  O   UNL d   1       4.523  15.046  11.713 -0.16 -0.02    -0.251 OA
DOCKED: BRANCH  51  53
DOCKED: ATOM     53  O   UNL d   1       3.473  16.822  10.871 -0.02 +0.00    -0.481 OA
DOCKED: ATOM     54  H   UNL d   1       4.358  17.165  11.117 +0.04 -0.00    +0.295 HD
DOCKED: ENDBRANCH  51  53
DOCKED: ENDBRANCH  50  51
DOCKED: ENDBRANCH  49  50
DOCKED: ENDBRANCH  22  49
DOCKED: TORSDOF 13
DOCKED: TER
DOCKED: ENDMDL
________________________________________________________________________________


	BEGINNING GENETIC ALGORITHM DOCKING 17 of 100
Run: 17 Seed: 1222161517 2098598580 [ Run 17 of 100 GA/GALS ]
Beginning LAMARCKIAN GENETIC ALGORITHM (LGA), with a maximum of 25000000 energy evaluations.

Final-Value: -12.585


	FINAL GENETIC ALGORITHM DOCKED STATE
	_______________________________________________


Detailed state:  trans -12.322 -14.343 -1.069 quatxyzw 0.320050 0.735656 -0.152967 -0.577043 center 0.153 0.018 -0.028 ntor 13 -162.7172 118.4658 -180.0000 52.8116 47.1820 -23.7670 144.0208 43.8925 160.6116 -10.0596 -89.4644 3.4043 -4.8985
State:	-12.322 -14.343  -1.069   0.392  0.901 -0.187 -109.514   -162.72  118.47 -180.00   52.81   47.18  -23.77  144.02   43.89  160.61  -10.06  -89.46    3.40   -4.90

DOCKED: MODEL       17
DOCKED: USER    Run = 17
DOCKED: USER    DPF = D:/Protein_go_brrr/autodock/final/AncA/heme/dock.dpf
DOCKED: USER  
DOCKED: USER    Estimated Free Energy of Binding    =   -4.16 kcal/mol  [=(1)+(2)+(3)-(4)]
DOCKED: USER    Estimated Inhibition Constant, Ki   =  898.58 uM (micromolar)  [Temperature = 298.15 K]
DOCKED: USER    
DOCKED: USER    (1) Final Intermolecular Energy     =   -8.03 kcal/mol
DOCKED: USER        vdW + Hbond + desolv Energy     =   -7.93 kcal/mol
DOCKED: USER        Electrostatic Energy            =   -0.10 kcal/mol
DOCKED: USER    (2) Final Total Internal Energy     =   -4.55 kcal/mol
DOCKED: USER    (3) Torsional Free Energy           =   +3.88 kcal/mol
DOCKED: USER    (4) Unbound System's Energy  [=(2)] =   -4.55 kcal/mol
DOCKED: USER    
DOCKED: USER    
DOCKED: USER    NEWDPF move heme_opt.pdbqt
DOCKED: USER    NEWDPF about 0.153000 0.018000 -0.028000
DOCKED: USER    NEWDPF tran0 -12.321996 -14.343056 -1.068757
DOCKED: USER    NEWDPF quaternion0 0.320050 0.735656 -0.152967 -0.577043
DOCKED: USER    NEWDPF axisangle0 0.391876 0.900752 -0.187296 -109.514302
DOCKED: USER    NEWDPF quat0 0.391876 0.900752 -0.187296 -109.514302
DOCKED: USER    NEWDPF dihe0 -162.72 118.47 -180.00 52.81 47.18 -23.77 144.02 43.89 160.61 -10.06 -89.46 3.40 -4.90 
DOCKED: USER  keepresnum = 1 
DOCKED: USER  
DOCKED: REMARK  13 active torsions:
DOCKED: REMARK  status: ('A' for Active; 'I' for Inactive)
DOCKED: REMARK    1  A    between atoms: O_3  and  C_38 
DOCKED: REMARK    2  A    between atoms: O_4  and  C_40 
DOCKED: REMARK    3  A    between atoms: O_7  and  C_46 
DOCKED: REMARK    4  A    between atoms: O_9  and  C_48 
DOCKED: REMARK    5  A    between atoms: C_15  and  C_20 
DOCKED: REMARK    6  A    between atoms: C_16  and  C_23 
DOCKED: REMARK    7  A    between atoms: C_20  and  C_38 
DOCKED: REMARK    8  A    between atoms: C_23  and  C_40 
DOCKED: REMARK    9  A    between atoms: C_32  and  C_41 
DOCKED: REMARK   10  A    between atoms: C_37  and  C_45 
DOCKED: REMARK   11  A    between atoms: C_41  and  C_44 
DOCKED: REMARK   12  A    between atoms: C_44  and  C_46 
DOCKED: REMARK   13  A    between atoms: C_47  and  C_48 
DOCKED: USER                              x       y       z     vdW  Elec       q    Type
DOCKED: USER                           _______ _______ _______ _____ _____    ______ ____
DOCKED: ROOT
DOCKED: ATOM      1  O   UNL d   1     -10.017 -15.116   4.302 -0.06 -0.15    -0.289 OA
DOCKED: ATOM      2  O   UNL d   1     -16.302 -17.813   1.201 -0.03 -0.04    -0.289 OA
DOCKED: ATOM      3  N   UNL d   1     -11.043 -14.268   1.120 -0.12 -0.12    -0.247 NA
DOCKED: ATOM      4  N   UNL d   1     -13.402 -16.019   0.674 -0.08 -0.06    -0.247 NA
DOCKED: ATOM      5  N   UNL d   1     -13.258 -15.345  -2.117 -0.08 -0.07    -0.354 N 
DOCKED: ATOM      6  N   UNL d   1     -10.799 -13.545  -1.648 -0.08 -0.13    -0.354 N 
DOCKED: ATOM      7  C   UNL d   1      -9.044 -13.827   2.467 -0.19 +0.07    +0.084 A 
DOCKED: ATOM      8  C   UNL d   1     -14.629 -16.767   2.650 -0.11 +0.01    +0.084 A 
DOCKED: ATOM      9  C   UNL d   1     -13.425 -16.034   2.051 -0.09 +0.01    +0.058 A 
DOCKED: ATOM     10  C   UNL d   1      -9.802 -13.654   1.148 -0.18 +0.04    +0.058 A 
DOCKED: ATOM     11  C   UNL d   1     -10.083 -14.632   3.187 -0.11 +0.10    +0.193 A 
DOCKED: ATOM     12  C   UNL d   1     -11.257 -14.810   2.275 -0.14 +0.04    +0.109 A 
DOCKED: ATOM     13  C   UNL d   1     -15.265 -17.198   1.359 -0.07 +0.03    +0.193 A 
DOCKED: ATOM     14  C   UNL d   1      -7.785 -14.682   2.298 +0.00 +0.04    +0.026 C 
DOCKED: ATOM     15  C   UNL d   1     -12.452 -15.499   2.804 -0.18 +0.02    +0.055 C 
DOCKED: ATOM     16  C   UNL d   1     -15.579 -15.805   3.370 -0.23 +0.00    +0.026 C 
DOCKED: ATOM     17  C   UNL d   1     -14.420 -16.688   0.237 -0.10 +0.02    +0.109 A 
DOCKED: ATOM     18  C   UNL d   1      -9.317 -12.888   0.153 -0.28 +0.03    +0.050 C 
DOCKED: ATOM     19  C   UNL d   1      -9.984 -12.602  -1.065 -0.23 +0.02    +0.045 A 
DOCKED: ATOM     20  C   UNL d   1     -14.184 -16.354  -2.166 -0.08 +0.01    +0.045 A 
DOCKED: ATOM     21  C   UNL d   1     -14.777 -16.997  -1.155 -0.08 +0.01    +0.057 C 
DOCKED: ATOM     22  C   UNL d   1     -13.632 -15.754  -4.300 -0.05 -0.00    -0.019 A 
DOCKED: ATOM     23  C   UNL d   1     -12.864 -14.918  -3.357 -0.12 +0.01    +0.045 A 
DOCKED: ATOM     24  C   UNL d   1     -14.413 -16.602  -3.589 -0.03 -0.00    -0.022 A 
DOCKED: ATOM     25  C   UNL d   1     -11.269 -13.095  -2.861 -0.20 +0.01    +0.049 A 
DOCKED: ATOM     26  C   UNL d   1      -9.952 -11.497  -1.901 -0.34 -0.01    -0.018 A 
DOCKED: ATOM     27  C   UNL d   1     -10.781 -11.806  -3.024 -0.30 +0.00    +0.003 A 
DOCKED: ATOM     28  C   UNL d   1     -12.004 -13.954  -3.722 -0.18 +0.01    +0.052 C 
DOCKED: ATOM     29  C   UNL d   1     -15.372 -17.628  -4.089 -0.01 +0.01    +0.046 C 
DOCKED: ATOM     30  C   UNL d   1      -9.201 -10.229  -1.673 -0.33 +0.02    +0.046 C 
DOCKED: ATOM     31  H   UNL d   1     -12.979 -14.929  -1.235 +0.02 +0.03    +0.166 HD
DOCKED: ATOM     32  H   UNL d   1     -10.982 -14.456  -1.243 +0.04 +0.06    +0.166 HD
DOCKED: ENDROOT
DOCKED: BRANCH   7  33
DOCKED: ATOM     33  C   UNL d   1      -8.745 -12.531   3.229 -0.30 +0.11    +0.141 C 
DOCKED: BRANCH  33  34
DOCKED: ATOM     34  C   UNL d   1      -7.503 -12.628   4.073 -0.31 +0.35    +0.306 C 
DOCKED: ATOM     35  O   UNL d   1      -6.405 -12.177   3.793 -0.93 -0.39    -0.251 OA
DOCKED: BRANCH  34  36
DOCKED: ATOM     36  O   UNL d   1      -7.711 -13.286   5.227 -0.17 -0.41    -0.481 OA
DOCKED: ATOM     37  H   UNL d   1      -8.572 -13.739   5.101 +0.15 +0.21    +0.295 HD
DOCKED: ENDBRANCH  34  36
DOCKED: ENDBRANCH  33  34
DOCKED: ENDBRANCH   7  33
DOCKED: BRANCH  27  38
DOCKED: ATOM     38  C   UNL d   1     -11.015 -10.941  -4.140 -0.40 +0.00    +0.017 C 
DOCKED: ATOM     39  C   UNL d   1     -12.196 -10.773  -4.756 -0.42 +0.01    +0.092 C 
DOCKED: BRANCH  39  40
DOCKED: ATOM     40  C   UNL d   1     -12.307  -9.840  -5.880 -0.31 +0.01    +0.330 C 
DOCKED: ATOM     41  O   UNL d   1     -11.616  -8.865  -6.108 -0.39 -0.02    -0.246 OA
DOCKED: BRANCH  40  42
DOCKED: ATOM     42  O   UNL d   1     -13.313 -10.208  -6.688 -0.15 +0.05    -0.477 OA
DOCKED: ATOM     43  H   UNL d   1     -13.048 -11.096  -7.003 -0.25 -0.05    +0.295 HD
DOCKED: ENDBRANCH  40  42
DOCKED: ENDBRANCH  39  40
DOCKED: ENDBRANCH  27  38
DOCKED: BRANCH   8  44
DOCKED: ATOM     44  C   UNL d   1     -14.295 -17.978   3.528 -0.03 +0.02    +0.141 C 
DOCKED: BRANCH  44  45
DOCKED: ATOM     45  C   UNL d   1     -13.531 -19.049   2.797 +0.00 +0.06    +0.306 C 
DOCKED: ATOM     46  O   UNL d   1     -12.329 -19.244   2.842 -0.00 -0.06    -0.251 OA
DOCKED: BRANCH  45  47
DOCKED: ATOM     47  O   UNL d   1     -14.325 -19.809   2.021 +0.00 -0.08    -0.481 OA
DOCKED: ATOM     48  H   UNL d   1     -15.227 -19.448   2.160 +0.01 +0.05    +0.295 HD
DOCKED: ENDBRANCH  45  47
DOCKED: ENDBRANCH  44  45
DOCKED: ENDBRANCH   8  44
DOCKED: BRANCH  22  49
DOCKED: ATOM     49  C   UNL d   1     -13.522 -15.659  -5.794 -0.08 +0.01    +0.048 C 
DOCKED: BRANCH  49  50
DOCKED: ATOM     50  C   UNL d   1     -14.490 -14.626  -6.371 -0.07 +0.02    +0.125 C 
DOCKED: BRANCH  50  51
DOCKED: ATOM     51  C   UNL d   1     -13.838 -13.276  -6.469 -0.12 +0.03    +0.305 C 
DOCKED: ATOM     52  O   UNL d   1     -12.684 -13.029  -6.772 -0.26 -0.03    -0.251 OA
DOCKED: BRANCH  51  53
DOCKED: ATOM     53  O   UNL d   1     -14.691 -12.280  -6.160 -0.00 -0.04    -0.481 OA
DOCKED: ATOM     54  H   UNL d   1     -14.628 -11.667  -6.922 +0.12 +0.01    +0.295 HD
DOCKED: ENDBRANCH  51  53
DOCKED: ENDBRANCH  50  51
DOCKED: ENDBRANCH  49  50
DOCKED: ENDBRANCH  22  49
DOCKED: TORSDOF 13
DOCKED: TER
DOCKED: ENDMDL
________________________________________________________________________________


	BEGINNING GENETIC ALGORITHM DOCKING 18 of 100
Run: 18 Seed: 2074090504 619145491 [ Run 18 of 100 GA/GALS ]
Beginning LAMARCKIAN GENETIC ALGORITHM (LGA), with a maximum of 25000000 energy evaluations.

Final-Value: -10.671


	FINAL GENETIC ALGORITHM DOCKED STATE
	_______________________________________________


Detailed state:  trans -18.207 5.297 -6.178 quatxyzw -0.479875 -0.090797 -0.482505 0.727093 center 0.153 0.018 -0.028 ntor 13 112.7845 121.9199 109.3283 -65.7665 -132.7700 99.9716 -45.6059 12.5347 30.1302 -131.0083 -74.4598 -103.4139 3.8564
State:	-18.207   5.297  -6.178  -0.699 -0.132 -0.703 86.714    112.78  121.92  109.33  -65.77 -132.77   99.97  -45.61   12.53   30.13 -131.01  -74.46 -103.41    3.86

DOCKED: MODEL       18
DOCKED: USER    Run = 18
DOCKED: USER    DPF = D:/Protein_go_brrr/autodock/final/AncA/heme/dock.dpf
DOCKED: USER  
DOCKED: USER    Estimated Free Energy of Binding    =   -2.06 kcal/mol  [=(1)+(2)+(3)-(4)]
DOCKED: USER    Estimated Inhibition Constant, Ki   =   31.04 mM (millimolar)  [Temperature = 298.15 K]
DOCKED: USER    
DOCKED: USER    (1) Final Intermolecular Energy     =   -5.94 kcal/mol
DOCKED: USER        vdW + Hbond + desolv Energy     =   -5.97 kcal/mol
DOCKED: USER        Electrostatic Energy            =   +0.04 kcal/mol
DOCKED: USER    (2) Final Total Internal Energy     =   -4.74 kcal/mol
DOCKED: USER    (3) Torsional Free Energy           =   +3.88 kcal/mol
DOCKED: USER    (4) Unbound System's Energy  [=(2)] =   -4.74 kcal/mol
DOCKED: USER    
DOCKED: USER    
DOCKED: USER    NEWDPF move heme_opt.pdbqt
DOCKED: USER    NEWDPF about 0.153000 0.018000 -0.028000
DOCKED: USER    NEWDPF tran0 -18.207224 5.297387 -6.177749
DOCKED: USER    NEWDPF quaternion0 -0.479875 -0.090797 -0.482505 0.727093
DOCKED: USER    NEWDPF axisangle0 -0.698977 -0.132253 -0.702808 86.713537
DOCKED: USER    NEWDPF quat0 -0.698977 -0.132253 -0.702808 86.713537
DOCKED: USER    NEWDPF dihe0 112.78 121.92 109.33 -65.77 -132.77 99.97 -45.61 12.53 30.13 -131.01 -74.46 -103.41 3.86 
DOCKED: USER  keepresnum = 1 
DOCKED: USER  
DOCKED: REMARK  13 active torsions:
DOCKED: REMARK  status: ('A' for Active; 'I' for Inactive)
DOCKED: REMARK    1  A    between atoms: O_3  and  C_38 
DOCKED: REMARK    2  A    between atoms: O_4  and  C_40 
DOCKED: REMARK    3  A    between atoms: O_7  and  C_46 
DOCKED: REMARK    4  A    between atoms: O_9  and  C_48 
DOCKED: REMARK    5  A    between atoms: C_15  and  C_20 
DOCKED: REMARK    6  A    between atoms: C_16  and  C_23 
DOCKED: REMARK    7  A    between atoms: C_20  and  C_38 
DOCKED: REMARK    8  A    between atoms: C_23  and  C_40 
DOCKED: REMARK    9  A    between atoms: C_32  and  C_41 
DOCKED: REMARK   10  A    between atoms: C_37  and  C_45 
DOCKED: REMARK   11  A    between atoms: C_41  and  C_44 
DOCKED: REMARK   12  A    between atoms: C_44  and  C_46 
DOCKED: REMARK   13  A    between atoms: C_47  and  C_48 
DOCKED: USER                              x       y       z     vdW  Elec       q    Type
DOCKED: USER                           _______ _______ _______ _____ _____    ______ ____
DOCKED: ROOT
DOCKED: ATOM      1  O   UNL d   1     -21.765   0.601  -6.370 -0.05 -0.04    -0.289 OA
DOCKED: ATOM      2  O   UNL d   1     -17.545   3.807 -11.689 -0.01 -0.00    -0.289 OA
DOCKED: ATOM      3  N   UNL d   1     -19.921   3.463  -5.819 -0.15 -0.03    -0.247 NA
DOCKED: ATOM      4  N   UNL d   1     -18.387   3.783  -8.343 -0.10 -0.03    -0.247 NA
DOCKED: ATOM      5  N   UNL d   1     -16.742   5.714  -6.989 -0.05 +0.00    -0.354 N 
DOCKED: ATOM      6  N   UNL d   1     -18.327   5.361  -4.369 -0.15 +0.01    -0.354 N 
DOCKED: ATOM      7  C   UNL d   1     -21.259   1.969  -4.409 -0.18 +0.01    +0.084 A 
DOCKED: ATOM      8  C   UNL d   1     -19.353   2.817 -10.369 -0.03 +0.00    +0.084 A 
DOCKED: ATOM      9  C   UNL d   1     -19.409   3.013  -8.850 -0.08 +0.01    +0.058 A 
DOCKED: ATOM     10  C   UNL d   1     -20.370   3.211  -4.533 -0.26 +0.01    +0.058 A 
DOCKED: ATOM     11  C   UNL d   1     -21.247   1.575  -5.855 -0.09 +0.03    +0.193 A 
DOCKED: ATOM     12  C   UNL d   1     -20.425   2.572  -6.610 -0.11 +0.02    +0.109 A 
DOCKED: ATOM     13  C   UNL d   1     -18.088   3.588 -10.624 -0.02 +0.01    +0.193 A 
DOCKED: ATOM     14  C   UNL d   1     -20.589   0.863  -3.589 -0.26 +0.00    +0.026 C 
DOCKED: ATOM     15  C   UNL d   1     -20.346   2.440  -8.079 -0.10 +0.01    +0.055 C 
DOCKED: ATOM     16  C   UNL d   1     -20.512   3.525 -11.076 -0.01 +0.00    +0.026 C 
DOCKED: ATOM     17  C   UNL d   1     -17.599   4.115  -9.315 -0.09 +0.01    +0.109 A 
DOCKED: ATOM     18  C   UNL d   1     -20.139   4.018  -3.481 -0.29 +0.01    +0.050 C 
DOCKED: ATOM     19  C   UNL d   1     -19.403   5.229  -3.520 -0.26 +0.01    +0.045 A 
DOCKED: ATOM     20  C   UNL d   1     -16.021   5.560  -8.145 -0.16 +0.00    +0.045 A 
DOCKED: ATOM     21  C   UNL d   1     -16.344   4.879  -9.249 -0.15 +0.00    +0.057 C 
DOCKED: ATOM     22  C   UNL d   1     -14.827   6.864  -6.699 -0.27 -0.00    -0.019 A 
DOCKED: ATOM     23  C   UNL d   1     -16.101   6.485  -6.056 -0.18 -0.00    +0.045 A 
DOCKED: ATOM     24  C   UNL d   1     -14.786   6.314  -7.936 -0.22 -0.00    -0.022 A 
DOCKED: ATOM     25  C   UNL d   1     -17.707   6.574  -4.179 -0.29 -0.00    +0.049 A 
DOCKED: ATOM     26  C   UNL d   1     -19.507   6.401  -2.786 -0.16 -0.00    -0.018 A 
DOCKED: ATOM     27  C   UNL d   1     -18.446   7.254  -3.220 -0.21 +0.00    +0.003 A 
DOCKED: ATOM     28  C   UNL d   1     -16.480   6.876  -4.829 -0.36 -0.00    +0.052 C 
DOCKED: ATOM     29  C   UNL d   1     -13.716   6.419  -8.968 -0.25 +0.00    +0.046 C 
DOCKED: ATOM     30  C   UNL d   1     -20.530   6.712  -1.747 -0.13 +0.01    +0.046 C 
DOCKED: ATOM     31  H   UNL d   1     -17.683   5.346  -6.903 +0.04 +0.00    +0.166 HD
DOCKED: ATOM     32  H   UNL d   1     -18.025   4.635  -5.008 -0.37 -0.03    +0.166 HD
DOCKED: ENDROOT
DOCKED: BRANCH   7  33
DOCKED: ATOM     33  C   UNL d   1     -22.692   2.232  -3.934 -0.06 +0.02    +0.141 C 
DOCKED: BRANCH  33  34
DOCKED: ATOM     34  C   UNL d   1     -23.574   2.774  -5.026 -0.01 +0.03    +0.306 C 
DOCKED: ATOM     35  O   UNL d   1     -23.599   3.926  -5.426 -0.01 -0.02    -0.251 OA
DOCKED: BRANCH  34  36
DOCKED: ATOM     36  O   UNL d   1     -24.376   1.835  -5.559 +0.00 -0.05    -0.481 OA
DOCKED: ATOM     37  H   UNL d   1     -23.769   1.245  -6.055 +0.02 +0.03    +0.295 HD
DOCKED: ENDBRANCH  34  36
DOCKED: ENDBRANCH  33  34
DOCKED: ENDBRANCH   7  33
DOCKED: BRANCH  27  38
DOCKED: ATOM     38  C   UNL d   1     -18.177   8.563  -2.706 -0.17 +0.00    +0.017 C 
DOCKED: ATOM     39  C   UNL d   1     -17.089   8.910  -2.000 -0.20 -0.01    +0.092 C 
DOCKED: BRANCH  39  40
DOCKED: ATOM     40  C   UNL d   1     -16.925  10.293  -1.545 -0.06 -0.01    +0.330 C 
DOCKED: ATOM     41  O   UNL d   1     -17.183  10.750  -0.449 -0.04 +0.00    -0.246 OA
DOCKED: BRANCH  40  42
DOCKED: ATOM     42  O   UNL d   1     -16.416  11.046  -2.533 -0.00 +0.01    -0.477 OA
DOCKED: ATOM     43  H   UNL d   1     -15.570  10.604  -2.753 +0.07 -0.01    +0.295 HD
DOCKED: ENDBRANCH  40  42
DOCKED: ENDBRANCH  39  40
DOCKED: ENDBRANCH  27  38
DOCKED: BRANCH   8  44
DOCKED: ATOM     44  C   UNL d   1     -19.217   1.367 -10.843 -0.02 +0.01    +0.141 C 
DOCKED: BRANCH  44  45
DOCKED: ATOM     45  C   UNL d   1     -19.182   1.232 -12.342 +0.00 +0.00    +0.306 C 
DOCKED: ATOM     46  O   UNL d   1     -20.140   1.086 -13.081 -0.00 -0.00    -0.251 OA
DOCKED: BRANCH  45  47
DOCKED: ATOM     47  O   UNL d   1     -17.930   1.263 -12.833 +0.01 +0.02    -0.481 OA
DOCKED: ATOM     48  H   UNL d   1     -17.644   2.195 -12.726 +0.02 -0.01    +0.295 HD
DOCKED: ENDBRANCH  45  47
DOCKED: ENDBRANCH  44  45
DOCKED: ENDBRANCH   8  44
DOCKED: BRANCH  22  49
DOCKED: ATOM     49  C   UNL d   1     -13.772   7.708  -6.046 -0.11 +0.00    +0.048 C 
DOCKED: BRANCH  49  50
DOCKED: ATOM     50  C   UNL d   1     -14.117   9.195  -6.102 -0.14 +0.00    +0.125 C 
DOCKED: BRANCH  50  51
DOCKED: ATOM     51  C   UNL d   1     -14.548   9.698  -4.753 -0.10 -0.01    +0.305 C 
DOCKED: ATOM     52  O   UNL d   1     -14.533   9.093  -3.696 -0.22 +0.03    -0.251 OA
DOCKED: BRANCH  51  53
DOCKED: ATOM     53  O   UNL d   1     -14.998  10.967  -4.808 -0.00 +0.00    -0.481 OA
DOCKED: ATOM     54  H   UNL d   1     -15.951  10.891  -4.588 +0.04 -0.00    +0.295 HD
DOCKED: ENDBRANCH  51  53
DOCKED: ENDBRANCH  50  51
DOCKED: ENDBRANCH  49  50
DOCKED: ENDBRANCH  22  49
DOCKED: TORSDOF 13
DOCKED: TER
DOCKED: ENDMDL
________________________________________________________________________________


	BEGINNING GENETIC ALGORITHM DOCKING 19 of 100
Run: 19 Seed: 1437483701 1263676285 [ Run 19 of 100 GA/GALS ]
Beginning LAMARCKIAN GENETIC ALGORITHM (LGA), with a maximum of 25000000 energy evaluations.

Final-Value: -13.080


	FINAL GENETIC ALGORITHM DOCKED STATE
	_______________________________________________


Detailed state:  trans -4.864 0.076 -16.355 quatxyzw 0.279452 0.233619 -0.394441 -0.843650 center 0.153 0.018 -0.028 ntor 13 114.9847 -136.3060 -150.3760 128.7911 -133.4868 11.6404 -69.0384 -87.1258 28.4580 -133.6999 -40.8635 -96.4266 29.2757
State:	 -4.864   0.076 -16.355   0.520  0.435 -0.735 -64.945    114.98 -136.31 -150.38  128.79 -133.49   11.64  -69.04  -87.13   28.46 -133.70  -40.86  -96.43   29.28

DOCKED: MODEL       19
DOCKED: USER    Run = 19
DOCKED: USER    DPF = D:/Protein_go_brrr/autodock/final/AncA/heme/dock.dpf
DOCKED: USER  
DOCKED: USER    Estimated Free Energy of Binding    =   -6.05 kcal/mol  [=(1)+(2)+(3)-(4)]
DOCKED: USER    Estimated Inhibition Constant, Ki   =   36.83 uM (micromolar)  [Temperature = 298.15 K]
DOCKED: USER    
DOCKED: USER    (1) Final Intermolecular Energy     =   -9.93 kcal/mol
DOCKED: USER        vdW + Hbond + desolv Energy     =   -9.32 kcal/mol
DOCKED: USER        Electrostatic Energy            =   -0.61 kcal/mol
DOCKED: USER    (2) Final Total Internal Energy     =   -3.15 kcal/mol
DOCKED: USER    (3) Torsional Free Energy           =   +3.88 kcal/mol
DOCKED: USER    (4) Unbound System's Energy  [=(2)] =   -3.15 kcal/mol
DOCKED: USER    
DOCKED: USER    
DOCKED: USER    NEWDPF move heme_opt.pdbqt
DOCKED: USER    NEWDPF about 0.153000 0.018000 -0.028000
DOCKED: USER    NEWDPF tran0 -4.864268 0.076475 -16.355008
DOCKED: USER    NEWDPF quaternion0 0.279452 0.233619 -0.394441 -0.843650
DOCKED: USER    NEWDPF axisangle0 0.520498 0.435131 -0.734672 -64.944929
DOCKED: USER    NEWDPF quat0 0.520498 0.435131 -0.734672 -64.944929
DOCKED: USER    NEWDPF dihe0 114.98 -136.31 -150.38 128.79 -133.49 11.64 -69.04 -87.13 28.46 -133.70 -40.86 -96.43 29.28 
DOCKED: USER  keepresnum = 1 
DOCKED: USER  
DOCKED: REMARK  13 active torsions:
DOCKED: REMARK  status: ('A' for Active; 'I' for Inactive)
DOCKED: REMARK    1  A    between atoms: O_3  and  C_38 
DOCKED: REMARK    2  A    between atoms: O_4  and  C_40 
DOCKED: REMARK    3  A    between atoms: O_7  and  C_46 
DOCKED: REMARK    4  A    between atoms: O_9  and  C_48 
DOCKED: REMARK    5  A    between atoms: C_15  and  C_20 
DOCKED: REMARK    6  A    between atoms: C_16  and  C_23 
DOCKED: REMARK    7  A    between atoms: C_20  and  C_38 
DOCKED: REMARK    8  A    between atoms: C_23  and  C_40 
DOCKED: REMARK    9  A    between atoms: C_32  and  C_41 
DOCKED: REMARK   10  A    between atoms: C_37  and  C_45 
DOCKED: REMARK   11  A    between atoms: C_41  and  C_44 
DOCKED: REMARK   12  A    between atoms: C_44  and  C_46 
DOCKED: REMARK   13  A    between atoms: C_47  and  C_48 
DOCKED: USER                              x       y       z     vdW  Elec       q    Type
DOCKED: USER                           _______ _______ _______ _____ _____    ______ ____
DOCKED: ROOT
DOCKED: ATOM      1  O   UNL d   1      -6.660   3.553 -11.945 -0.31 -0.04    -0.289 OA
DOCKED: ATOM      2  O   UNL d   1     -10.537  -0.048 -17.274 -0.07 +0.14    -0.289 OA
DOCKED: ATOM      3  N   UNL d   1      -5.144   1.713 -14.437 -0.14 +0.01    -0.247 NA
DOCKED: ATOM      4  N   UNL d   1      -7.436   0.449 -15.844 -0.17 +0.05    -0.247 NA
DOCKED: ATOM      5  N   UNL d   1      -5.556  -1.292 -17.149 -0.08 +0.02    -0.354 N 
DOCKED: ATOM      6  N   UNL d   1      -3.185   0.013 -15.671 -0.08 +0.02    -0.354 N 
DOCKED: ATOM      7  C   UNL d   1      -4.361   2.873 -12.425 -0.30 +0.01    +0.084 A 
DOCKED: ATOM      8  C   UNL d   1      -9.589   1.599 -15.730 -0.19 -0.04    +0.084 A 
DOCKED: ATOM      9  C   UNL d   1      -8.125   1.504 -15.289 -0.26 -0.02    +0.058 A 
DOCKED: ATOM     10  C   UNL d   1      -4.041   2.024 -13.659 -0.23 -0.00    +0.058 A 
DOCKED: ATOM     11  C   UNL d   1      -5.837   3.002 -12.654 -0.25 +0.01    +0.193 A 
DOCKED: ATOM     12  C   UNL d   1      -6.184   2.278 -13.918 -0.25 -0.00    +0.109 A 
DOCKED: ATOM     13  C   UNL d   1      -9.613   0.380 -16.609 -0.13 -0.09    +0.193 A 
DOCKED: ATOM     14  C   UNL d   1      -4.127   2.105 -11.122 -0.56 +0.00    +0.026 C 
DOCKED: ATOM     15  C   UNL d   1      -7.579   2.347 -14.398 -0.28 -0.01    +0.055 C 
DOCKED: ATOM     16  C   UNL d   1      -9.842   2.836 -16.597 -0.08 -0.00    +0.026 C 
DOCKED: ATOM     17  C   UNL d   1      -8.250  -0.230 -16.586 -0.18 -0.03    +0.109 A 
DOCKED: ATOM     18  C   UNL d   1      -2.775   1.702 -13.981 -0.27 -0.00    +0.050 C 
DOCKED: ATOM     19  C   UNL d   1      -2.377   0.994 -15.144 -0.22 -0.00    +0.045 A 
DOCKED: ATOM     20  C   UNL d   1      -6.730  -1.893 -17.520 -0.18 -0.01    +0.045 A 
DOCKED: ATOM     21  C   UNL d   1      -7.984  -1.472 -17.329 -0.20 -0.01    +0.057 C 
DOCKED: ATOM     22  C   UNL d   1      -4.985  -3.205 -18.190 -0.30 +0.00    -0.019 A 
DOCKED: ATOM     23  C   UNL d   1      -4.447  -2.010 -17.510 -0.26 -0.00    +0.045 A 
DOCKED: ATOM     24  C   UNL d   1      -6.337  -3.130 -18.194 -0.26 +0.00    -0.022 A 
DOCKED: ATOM     25  C   UNL d   1      -2.568  -0.602 -16.736 -0.17 -0.00    +0.049 A 
DOCKED: ATOM     26  C   UNL d   1      -1.221   1.044 -15.908 -0.23 +0.00    -0.018 A 
DOCKED: ATOM     27  C   UNL d   1      -1.356   0.047 -16.924 -0.21 +0.00    +0.003 A 
DOCKED: ATOM     28  C   UNL d   1      -3.141  -1.751 -17.346 -0.20 -0.00    +0.052 C 
DOCKED: ATOM     29  C   UNL d   1      -7.323  -4.087 -18.771 -0.27 -0.01    +0.046 C 
DOCKED: ATOM     30  C   UNL d   1      -0.062   1.961 -15.711 -0.13 -0.00    +0.046 C 
DOCKED: ATOM     31  H   UNL d   1      -5.547  -0.370 -16.724 +0.06 -0.01    +0.166 HD
DOCKED: ATOM     32  H   UNL d   1      -4.089  -0.235 -15.286 +0.05 -0.01    +0.166 HD
DOCKED: ENDROOT
DOCKED: BRANCH   7  33
DOCKED: ATOM     33  C   UNL d   1      -3.700   4.255 -12.389 -0.19 +0.03    +0.141 C 
DOCKED: BRANCH  33  34
DOCKED: ATOM     34  C   UNL d   1      -4.369   5.242 -13.307 -0.08 +0.09    +0.306 C 
DOCKED: ATOM     35  O   UNL d   1      -4.217   5.321 -14.515 -0.03 -0.05    -0.251 OA
DOCKED: BRANCH  34  36
DOCKED: ATOM     36  O   UNL d   1      -5.198   6.076 -12.655 -0.07 -0.27    -0.481 OA
DOCKED: ATOM     37  H   UNL d   1      -5.931   5.503 -12.344 +0.11 +0.13    +0.295 HD
DOCKED: ENDBRANCH  34  36
DOCKED: ENDBRANCH  33  34
DOCKED: ENDBRANCH   7  33
DOCKED: BRANCH  27  38
DOCKED: ATOM     38  C   UNL d   1      -0.376  -0.250 -17.924 -0.17 +0.00    +0.017 C 
DOCKED: ATOM     39  C   UNL d   1       0.218  -1.441 -18.097 -0.23 -0.00    +0.092 C 
DOCKED: BRANCH  39  40
DOCKED: ATOM     40  C   UNL d   1       1.196  -1.619 -19.174 -0.06 -0.01    +0.330 C 
DOCKED: ATOM     41  O   UNL d   1       1.690  -0.760 -19.880 -0.03 -0.00    -0.246 OA
DOCKED: BRANCH  40  42
DOCKED: ATOM     42  O   UNL d   1       1.514  -2.917 -19.298 -0.05 +0.04    -0.477 OA
DOCKED: ATOM     43  H   UNL d   1       0.652  -3.377 -19.235 +0.11 -0.02    +0.295 HD
DOCKED: ENDBRANCH  40  42
DOCKED: ENDBRANCH  39  40
DOCKED: ENDBRANCH  27  38
DOCKED: BRANCH   8  44
DOCKED: ATOM     44  C   UNL d   1     -10.626   1.486 -14.608 -0.04 -0.14    +0.141 C 
DOCKED: BRANCH  44  45
DOCKED: ATOM     45  C   UNL d   1     -12.042   1.666 -15.087 -0.10 -0.24    +0.306 C 
DOCKED: ATOM     46  O   UNL d   1     -12.790   2.588 -14.812 -0.09 +0.10    -0.251 OA
DOCKED: BRANCH  45  47
DOCKED: ATOM     47  O   UNL d   1     -12.452   0.653 -15.871 -0.04 +0.47    -0.481 OA
DOCKED: ATOM     48  H   UNL d   1     -11.939  -0.124 -15.562 -0.48 -0.57    +0.295 HD
DOCKED: ENDBRANCH  45  47
DOCKED: ENDBRANCH  44  45
DOCKED: ENDBRANCH   8  44
DOCKED: BRANCH  22  49
DOCKED: ATOM     49  C   UNL d   1      -4.136  -4.307 -18.755 -0.16 -0.01    +0.048 C 
DOCKED: BRANCH  49  50
DOCKED: ATOM     50  C   UNL d   1      -3.084  -3.773 -19.727 -0.25 -0.03    +0.125 C 
DOCKED: BRANCH  50  51
DOCKED: ATOM     51  C   UNL d   1      -1.775  -4.487 -19.547 -0.23 -0.08    +0.305 C 
DOCKED: ATOM     52  O   UNL d   1      -0.836  -4.152 -18.847 -0.28 +0.04    -0.251 OA
DOCKED: BRANCH  51  53
DOCKED: ATOM     53  O   UNL d   1      -1.709  -5.612 -20.287 -0.17 +0.18    -0.481 OA
DOCKED: ATOM     54  H   UNL d   1      -2.530  -6.096 -20.058 -0.44 -0.23    +0.295 HD
DOCKED: ENDBRANCH  51  53
DOCKED: ENDBRANCH  50  51
DOCKED: ENDBRANCH  49  50
DOCKED: ENDBRANCH  22  49
DOCKED: TORSDOF 13
DOCKED: TER
DOCKED: ENDMDL
________________________________________________________________________________


	BEGINNING GENETIC ALGORITHM DOCKING 20 of 100
Run: 20 Seed: 1866297437 2004982466 [ Run 20 of 100 GA/GALS ]
Beginning LAMARCKIAN GENETIC ALGORITHM (LGA), with a maximum of 25000000 energy evaluations.

Final-Value: -10.480


	FINAL GENETIC ALGORITHM DOCKED STATE
	_______________________________________________


Detailed state:  trans -9.283 1.100 13.575 quatxyzw -0.564777 -0.770130 0.151114 0.255130 center 0.153 0.018 -0.028 ntor 13 48.1899 179.4221 -123.8451 -1.3209 -177.2418 -14.2796 85.9513 172.0053 90.9625 111.2855 57.6095 -54.0952 128.1543
State:	 -9.283   1.100  13.575  -0.584 -0.796  0.156 150.437     48.19  179.42 -123.85   -1.32 -177.24  -14.28   85.95  172.01   90.96  111.29   57.61  -54.10  128.15

DOCKED: MODEL       20
DOCKED: USER    Run = 20
DOCKED: USER    DPF = D:/Protein_go_brrr/autodock/final/AncA/heme/dock.dpf
DOCKED: USER  
DOCKED: USER    Estimated Free Energy of Binding    =   -3.35 kcal/mol  [=(1)+(2)+(3)-(4)]
DOCKED: USER    Estimated Inhibition Constant, Ki   =    3.52 mM (millimolar)  [Temperature = 298.15 K]
DOCKED: USER    
DOCKED: USER    (1) Final Intermolecular Energy     =   -7.22 kcal/mol
DOCKED: USER        vdW + Hbond + desolv Energy     =   -6.95 kcal/mol
DOCKED: USER        Electrostatic Energy            =   -0.28 kcal/mol
DOCKED: USER    (2) Final Total Internal Energy     =   -3.26 kcal/mol
DOCKED: USER    (3) Torsional Free Energy           =   +3.88 kcal/mol
DOCKED: USER    (4) Unbound System's Energy  [=(2)] =   -3.26 kcal/mol
DOCKED: USER    
DOCKED: USER    
DOCKED: USER    NEWDPF move heme_opt.pdbqt
DOCKED: USER    NEWDPF about 0.153000 0.018000 -0.028000
DOCKED: USER    NEWDPF tran0 -9.283193 1.100175 13.574854
DOCKED: USER    NEWDPF quaternion0 -0.564777 -0.770130 0.151114 0.255130
DOCKED: USER    NEWDPF axisangle0 -0.584107 -0.796488 0.156286 150.437420
DOCKED: USER    NEWDPF quat0 -0.584107 -0.796488 0.156286 150.437420
DOCKED: USER    NEWDPF dihe0 48.19 179.42 -123.85 -1.32 -177.24 -14.28 85.95 172.01 90.96 111.29 57.61 -54.10 128.15 
DOCKED: USER  keepresnum = 1 
DOCKED: USER  
DOCKED: REMARK  13 active torsions:
DOCKED: REMARK  status: ('A' for Active; 'I' for Inactive)
DOCKED: REMARK    1  A    between atoms: O_3  and  C_38 
DOCKED: REMARK    2  A    between atoms: O_4  and  C_40 
DOCKED: REMARK    3  A    between atoms: O_7  and  C_46 
DOCKED: REMARK    4  A    between atoms: O_9  and  C_48 
DOCKED: REMARK    5  A    between atoms: C_15  and  C_20 
DOCKED: REMARK    6  A    between atoms: C_16  and  C_23 
DOCKED: REMARK    7  A    between atoms: C_20  and  C_38 
DOCKED: REMARK    8  A    between atoms: C_23  and  C_40 
DOCKED: REMARK    9  A    between atoms: C_32  and  C_41 
DOCKED: REMARK   10  A    between atoms: C_37  and  C_45 
DOCKED: REMARK   11  A    between atoms: C_41  and  C_44 
DOCKED: REMARK   12  A    between atoms: C_44  and  C_46 
DOCKED: REMARK   13  A    between atoms: C_47  and  C_48 
DOCKED: USER                              x       y       z     vdW  Elec       q    Type
DOCKED: USER                           _______ _______ _______ _____ _____    ______ ____
DOCKED: ROOT
DOCKED: ATOM      1  O   UNL d   1      -6.239  -3.151  16.297 -0.45 -0.31    -0.289 OA
DOCKED: ATOM      2  O   UNL d   1     -13.607  -1.717  16.105 -0.04 +0.02    -0.289 OA
DOCKED: ATOM      3  N   UNL d   1      -7.569  -0.427  14.654 -0.12 -0.03    -0.247 NA
DOCKED: ATOM      4  N   UNL d   1     -10.500  -0.863  14.870 -0.12 -0.03    -0.247 NA
DOCKED: ATOM      5  N   UNL d   1     -10.857   1.172  12.870 -0.11 -0.06    -0.354 N 
DOCKED: ATOM      6  N   UNL d   1      -7.814   1.604  12.638 +0.01 -0.01    -0.354 N 
DOCKED: ATOM      7  C   UNL d   1      -5.331  -1.408  14.843 -0.18 +0.03    +0.084 A 
DOCKED: ATOM      8  C   UNL d   1     -11.297  -2.189  16.761 -0.08 +0.01    +0.084 A 
DOCKED: ATOM      9  C   UNL d   1     -10.124  -1.632  15.948 -0.05 +0.01    +0.058 A 
DOCKED: ATOM     10  C   UNL d   1      -6.244  -0.322  14.267 -0.17 +0.01    +0.058 A 
DOCKED: ATOM     11  C   UNL d   1      -6.373  -2.136  15.640 -0.13 +0.10    +0.193 A 
DOCKED: ATOM     12  C   UNL d   1      -7.681  -1.429  15.464 -0.15 +0.03    +0.109 A 
DOCKED: ATOM     13  C   UNL d   1     -12.409  -1.624  15.923 -0.08 -0.00    +0.193 A 
DOCKED: ATOM     14  C   UNL d   1      -4.796  -2.345  13.757 -0.33 +0.01    +0.026 C 
DOCKED: ATOM     15  C   UNL d   1      -8.843  -1.915  16.234 -0.08 +0.01    +0.055 C 
DOCKED: ATOM     16  C   UNL d   1     -11.366  -1.565  18.158 -0.02 +0.00    +0.026 C 
DOCKED: ATOM     17  C   UNL d   1     -11.793  -0.848  14.805 -0.18 +0.01    +0.109 A 
DOCKED: ATOM     18  C   UNL d   1      -5.752   0.688  13.525 -0.21 -0.00    +0.050 C 
DOCKED: ATOM     19  C   UNL d   1      -6.503   1.780  13.021 -0.18 -0.01    +0.045 A 
DOCKED: ATOM     20  C   UNL d   1     -12.135   0.680  12.936 -0.22 +0.01    +0.045 A 
DOCKED: ATOM     21  C   UNL d   1     -12.646  -0.212  13.791 -0.17 +0.00    +0.057 C 
DOCKED: ATOM     22  C   UNL d   1     -12.007   2.173  11.212 -0.20 -0.00    -0.019 A 
DOCKED: ATOM     23  C   UNL d   1     -10.683   2.080  11.860 -0.17 +0.01    +0.045 A 
DOCKED: ATOM     24  C   UNL d   1     -12.862   1.343  11.854 -0.18 -0.00    -0.022 A 
DOCKED: ATOM     25  C   UNL d   1      -8.320   2.764  12.099 -0.16 +0.00    +0.049 A 
DOCKED: ATOM     26  C   UNL d   1      -6.160   3.098  12.758 -0.18 +0.01    -0.018 A 
DOCKED: ATOM     27  C   UNL d   1      -7.317   3.719  12.194 -0.18 -0.00    +0.003 A 
DOCKED: ATOM     28  C   UNL d   1      -9.604   2.785  11.489 -0.19 +0.01    +0.052 C 
DOCKED: ATOM     29  C   UNL d   1     -14.307   1.097  11.580 -0.14 +0.01    +0.046 C 
DOCKED: ATOM     30  C   UNL d   1      -4.841   3.742  13.015 -0.05 -0.04    +0.046 C 
DOCKED: ATOM     31  H   UNL d   1     -10.162   0.925  13.566 +0.04 +0.02    +0.166 HD
DOCKED: ATOM     32  H   UNL d   1      -8.306   0.722  12.714 +0.09 +0.02    +0.166 HD
DOCKED: ENDROOT
DOCKED: BRANCH   7  33
DOCKED: ATOM     33  C   UNL d   1      -4.208  -0.907  15.757 -0.10 +0.02    +0.141 C 
DOCKED: BRANCH  33  34
DOCKED: ATOM     34  C   UNL d   1      -4.014  -1.779  16.968 -0.05 +0.09    +0.306 C 
DOCKED: ATOM     35  O   UNL d   1      -4.068  -1.418  18.132 -0.01 -0.04    -0.251 OA
DOCKED: BRANCH  34  36
DOCKED: ATOM     36  O   UNL d   1      -3.765  -3.061  16.649 -0.44 -0.35    -0.481 OA
DOCKED: ATOM     37  H   UNL d   1      -4.343  -3.581  17.246 +0.05 +0.31    +0.295 HD
DOCKED: ENDBRANCH  34  36
DOCKED: ENDBRANCH  33  34
DOCKED: ENDBRANCH   7  33
DOCKED: BRANCH  27  38
DOCKED: ATOM     38  C   UNL d   1      -7.393   5.082  11.761 -0.21 -0.00    +0.017 C 
DOCKED: ATOM     39  C   UNL d   1      -8.333   5.584  10.944 -0.21 +0.00    +0.092 C 
DOCKED: BRANCH  39  40
DOCKED: ATOM     40  C   UNL d   1      -8.308   7.005  10.590 -0.11 +0.09    +0.330 C 
DOCKED: ATOM     41  O   UNL d   1      -7.697   7.899  11.144 -0.10 -0.07    -0.246 OA
DOCKED: BRANCH  40  42
DOCKED: ATOM     42  O   UNL d   1      -9.077   7.226   9.513 -0.09 -0.21    -0.477 OA
DOCKED: ATOM     43  H   UNL d   1      -9.419   6.338   9.283 +0.10 +0.10    +0.295 HD
DOCKED: ENDBRANCH  40  42
DOCKED: ENDBRANCH  39  40
DOCKED: ENDBRANCH  27  38
DOCKED: BRANCH   8  44
DOCKED: ATOM     44  C   UNL d   1     -11.385  -3.717  16.832 -0.11 +0.01    +0.141 C 
DOCKED: BRANCH  44  45
DOCKED: ATOM     45  C   UNL d   1     -10.188  -4.352  17.489 -0.06 +0.04    +0.306 C 
DOCKED: ATOM     46  O   UNL d   1      -9.611  -3.955  18.487 -0.03 -0.04    -0.251 OA
DOCKED: BRANCH  45  47
DOCKED: ATOM     47  O   UNL d   1      -9.761  -5.446  16.834 -0.05 -0.04    -0.481 OA
DOCKED: ATOM     48  H   UNL d   1      -9.603  -5.140  15.916 -0.36 +0.01    +0.295 HD
DOCKED: ENDBRANCH  45  47
DOCKED: ENDBRANCH  44  45
DOCKED: ENDBRANCH   8  44
DOCKED: BRANCH  22  49
DOCKED: ATOM     49  C   UNL d   1     -12.306   3.045  10.028 -0.21 +0.01    +0.048 C 
DOCKED: BRANCH  49  50
DOCKED: ATOM     50  C   UNL d   1     -11.216   2.949   8.961 -0.20 +0.02    +0.125 C 
DOCKED: BRANCH  50  51
DOCKED: ATOM     51  C   UNL d   1     -10.614   4.299   8.686 -0.21 +0.05    +0.305 C 
DOCKED: ATOM     52  O   UNL d   1      -9.583   4.544   8.086 -0.24 -0.06    -0.251 OA
DOCKED: BRANCH  51  53
DOCKED: ATOM     53  O   UNL d   1     -11.356   5.297   9.206 -0.02 -0.08    -0.481 OA
DOCKED: ATOM     54  H   UNL d   1     -10.851   6.108   8.988 +0.10 +0.06    +0.295 HD
DOCKED: ENDBRANCH  51  53
DOCKED: ENDBRANCH  50  51
DOCKED: ENDBRANCH  49  50
DOCKED: ENDBRANCH  22  49
DOCKED: TORSDOF 13
DOCKED: TER
DOCKED: ENDMDL
________________________________________________________________________________


	BEGINNING GENETIC ALGORITHM DOCKING 21 of 100
Run: 21 Seed: 668129423 975550306 [ Run 21 of 100 GA/GALS ]
Beginning LAMARCKIAN GENETIC ALGORITHM (LGA), with a maximum of 25000000 energy evaluations.

Final-Value: -10.158


	FINAL GENETIC ALGORITHM DOCKED STATE
	_______________________________________________


Detailed state:  trans -8.583 7.664 9.371 quatxyzw -0.063341 0.417243 0.479876 0.769166 center 0.153 0.018 -0.028 ntor 13 144.3658 -109.8875 -146.8534 93.6425 -32.5468 -97.2335 128.4100 97.8554 -8.7364 -41.6319 143.0854 89.1359 180.0000
State:	 -8.583   7.664   9.371  -0.099  0.653  0.751 79.442    144.37 -109.89 -146.85   93.64  -32.55  -97.23  128.41   97.86   -8.74  -41.63  143.09   89.14  180.00

DOCKED: MODEL       21
DOCKED: USER    Run = 21
DOCKED: USER    DPF = D:/Protein_go_brrr/autodock/final/AncA/heme/dock.dpf
DOCKED: USER  
DOCKED: USER    Estimated Free Energy of Binding    =   -4.26 kcal/mol  [=(1)+(2)+(3)-(4)]
DOCKED: USER    Estimated Inhibition Constant, Ki   =  751.41 uM (micromolar)  [Temperature = 298.15 K]
DOCKED: USER    
DOCKED: USER    (1) Final Intermolecular Energy     =   -8.14 kcal/mol
DOCKED: USER        vdW + Hbond + desolv Energy     =   -7.42 kcal/mol
DOCKED: USER        Electrostatic Energy            =   -0.72 kcal/mol
DOCKED: USER    (2) Final Total Internal Energy     =   -2.02 kcal/mol
DOCKED: USER    (3) Torsional Free Energy           =   +3.88 kcal/mol
DOCKED: USER    (4) Unbound System's Energy  [=(2)] =   -2.02 kcal/mol
DOCKED: USER    
DOCKED: USER    
DOCKED: USER    NEWDPF move heme_opt.pdbqt
DOCKED: USER    NEWDPF about 0.153000 0.018000 -0.028000
DOCKED: USER    NEWDPF tran0 -8.583389 7.664238 9.371414
DOCKED: USER    NEWDPF quaternion0 -0.063341 0.417243 0.479876 0.769166
DOCKED: USER    NEWDPF axisangle0 -0.099118 0.652911 0.750921 79.441964
DOCKED: USER    NEWDPF quat0 -0.099118 0.652911 0.750921 79.441964
DOCKED: USER    NEWDPF dihe0 144.37 -109.89 -146.85 93.64 -32.55 -97.23 128.41 97.86 -8.74 -41.63 143.09 89.14 180.00 
DOCKED: USER  keepresnum = 1 
DOCKED: USER  
DOCKED: REMARK  13 active torsions:
DOCKED: REMARK  status: ('A' for Active; 'I' for Inactive)
DOCKED: REMARK    1  A    between atoms: O_3  and  C_38 
DOCKED: REMARK    2  A    between atoms: O_4  and  C_40 
DOCKED: REMARK    3  A    between atoms: O_7  and  C_46 
DOCKED: REMARK    4  A    between atoms: O_9  and  C_48 
DOCKED: REMARK    5  A    between atoms: C_15  and  C_20 
DOCKED: REMARK    6  A    between atoms: C_16  and  C_23 
DOCKED: REMARK    7  A    between atoms: C_20  and  C_38 
DOCKED: REMARK    8  A    between atoms: C_23  and  C_40 
DOCKED: REMARK    9  A    between atoms: C_32  and  C_41 
DOCKED: REMARK   10  A    between atoms: C_37  and  C_45 
DOCKED: REMARK   11  A    between atoms: C_41  and  C_44 
DOCKED: REMARK   12  A    between atoms: C_44  and  C_46 
DOCKED: REMARK   13  A    between atoms: C_47  and  C_48 
DOCKED: USER                              x       y       z     vdW  Elec       q    Type
DOCKED: USER                           _______ _______ _______ _____ _____    ______ ____
DOCKED: ROOT
DOCKED: ATOM      1  O   UNL d   1      -8.954  13.197   7.369 -0.00 -0.05    -0.289 OA
DOCKED: ATOM      2  O   UNL d   1     -11.303   6.712   4.398 -0.29 +0.02    -0.289 OA
DOCKED: ATOM      3  N   UNL d   1      -8.386  10.142   8.866 -0.18 -0.18    -0.247 NA
DOCKED: ATOM      4  N   UNL d   1      -9.912   8.250   7.157 -0.13 -0.13    -0.247 NA
DOCKED: ATOM      5  N   UNL d   1      -9.596   6.274   9.222 -0.10 -0.11    -0.354 N 
DOCKED: ATOM      6  N   UNL d   1      -8.031   8.250  10.997 -0.06 -0.12    -0.354 N 
DOCKED: ATOM      7  C   UNL d   1      -8.008  12.478   9.505 -0.03 +0.02    +0.084 A 
DOCKED: ATOM      8  C   UNL d   1     -10.280   8.894   4.829 -0.25 +0.02    +0.084 A 
DOCKED: ATOM      9  C   UNL d   1      -9.759   9.251   6.225 -0.15 +0.03    +0.058 A 
DOCKED: ATOM     10  C   UNL d   1      -7.912  10.989   9.853 -0.09 +0.03    +0.058 A 
DOCKED: ATOM     11  C   UNL d   1      -8.603  12.321   8.138 -0.03 +0.06    +0.193 A 
DOCKED: ATOM     12  C   UNL d   1      -8.760  10.859   7.857 -0.04 +0.06    +0.109 A 
DOCKED: ATOM     13  C   UNL d   1     -10.790   7.518   5.150 -0.31 +0.04    +0.193 A 
DOCKED: ATOM     14  C   UNL d   1      -9.008  13.214  10.400 -0.00 +0.00    +0.026 C 
DOCKED: ATOM     15  C   UNL d   1      -9.246  10.456   6.522 -0.10 +0.03    +0.055 C 
DOCKED: ATOM     16  C   UNL d   1      -9.141   8.771   3.812 -0.36 +0.01    +0.026 C 
DOCKED: ATOM     17  C   UNL d   1     -10.513   7.251   6.594 -0.24 +0.04    +0.109 A 
DOCKED: ATOM     18  C   UNL d   1      -7.328  10.570  10.991 -0.10 +0.02    +0.050 C 
DOCKED: ATOM     19  C   UNL d   1      -7.119   9.216  11.358 -0.09 +0.02    +0.045 A 
DOCKED: ATOM     20  C   UNL d   1     -10.497   5.629   8.415 -0.26 +0.01    +0.045 A 
DOCKED: ATOM     21  C   UNL d   1     -10.945   5.986   7.207 -0.35 +0.02    +0.057 C 
DOCKED: ATOM     22  C   UNL d   1     -10.220   4.415  10.330 -0.15 -0.00    -0.019 A 
DOCKED: ATOM     23  C   UNL d   1      -9.365   5.617  10.401 -0.15 +0.01    +0.045 A 
DOCKED: ATOM     24  C   UNL d   1     -10.887   4.428   9.151 -0.25 -0.00    -0.022 A 
DOCKED: ATOM     25  C   UNL d   1      -7.681   7.031  11.530 -0.14 +0.00    +0.049 A 
DOCKED: ATOM     26  C   UNL d   1      -6.132   8.602  12.113 -0.14 -0.00    -0.018 A 
DOCKED: ATOM     27  C   UNL d   1      -6.481   7.220  12.203 -0.17 -0.00    +0.003 A 
DOCKED: ATOM     28  C   UNL d   1      -8.552   5.912  11.427 -0.15 +0.00    +0.052 C 
DOCKED: ATOM     29  C   UNL d   1     -11.855   3.428   8.617 -0.34 +0.01    +0.046 C 
DOCKED: ATOM     30  C   UNL d   1      -4.935   9.258  12.715 -0.13 +0.00    +0.046 C 
DOCKED: ATOM     31  H   UNL d   1      -9.110   7.108   8.908 +0.04 +0.09    +0.166 HD
DOCKED: ATOM     32  H   UNL d   1      -8.862   8.440  10.449 +0.02 +0.06    +0.166 HD
DOCKED: ENDROOT
DOCKED: BRANCH   7  33
DOCKED: ATOM     33  C   UNL d   1      -6.670  13.221   9.427 -0.03 +0.03    +0.141 C 
DOCKED: BRANCH  33  34
DOCKED: ATOM     34  C   UNL d   1      -5.584  12.394   8.794 -0.09 +0.10    +0.306 C 
DOCKED: ATOM     35  O   UNL d   1      -5.744  11.438   8.055 -0.57 -0.17    -0.251 OA
DOCKED: BRANCH  34  36
DOCKED: ATOM     36  O   UNL d   1      -4.351  12.818   9.124 -0.02 -0.09    -0.481 OA
DOCKED: ATOM     37  H   UNL d   1      -4.421  13.796   9.136 +0.05 +0.03    +0.295 HD
DOCKED: ENDBRANCH  34  36
DOCKED: ENDBRANCH  33  34
DOCKED: ENDBRANCH   7  33
DOCKED: BRANCH  27  38
DOCKED: ATOM     38  C   UNL d   1      -5.735   6.224  12.911 -0.18 -0.01    +0.017 C 
DOCKED: ATOM     39  C   UNL d   1      -4.431   5.963  12.736 -0.20 -0.07    +0.092 C 
DOCKED: BRANCH  39  40
DOCKED: ATOM     40  C   UNL d   1      -3.779   4.926  13.540 -0.11 -0.22    +0.330 C 
DOCKED: ATOM     41  O   UNL d   1      -3.096   5.076  14.535 -0.11 +0.08    -0.246 OA
DOCKED: BRANCH  40  42
DOCKED: ATOM     42  O   UNL d   1      -4.043   3.713  13.030 -0.04 +0.50    -0.477 OA
DOCKED: ATOM     43  H   UNL d   1      -3.538   3.696  12.191 -0.21 -0.77    +0.295 HD
DOCKED: ENDBRANCH  40  42
DOCKED: ENDBRANCH  39  40
DOCKED: ENDBRANCH  27  38
DOCKED: BRANCH   8  44
DOCKED: ATOM     44  C   UNL d   1     -11.406   9.786   4.295 -0.17 +0.01    +0.141 C 
DOCKED: BRANCH  44  45
DOCKED: ATOM     45  C   UNL d   1     -12.780   9.271   4.628 -0.16 +0.00    +0.306 C 
DOCKED: ATOM     46  O   UNL d   1     -13.394   9.455   5.665 -0.10 -0.02    -0.251 OA
DOCKED: BRANCH  45  47
DOCKED: ATOM     47  O   UNL d   1     -13.303   8.522   3.641 -0.16 +0.06    -0.481 OA
DOCKED: ATOM     48  H   UNL d   1     -12.530   8.081   3.229 -0.41 -0.18    +0.295 HD
DOCKED: ENDBRANCH  45  47
DOCKED: ENDBRANCH  44  45
DOCKED: ENDBRANCH   8  44
DOCKED: BRANCH  22  49
DOCKED: ATOM     49  C   UNL d   1     -10.317   3.385  11.416 -0.14 +0.01    +0.048 C 
DOCKED: BRANCH  49  50
DOCKED: ATOM     50  C   UNL d   1     -11.519   3.630  12.328 -0.05 +0.01    +0.125 C 
DOCKED: BRANCH  50  51
DOCKED: ATOM     51  C   UNL d   1     -11.751   5.102  12.525 +0.00 +0.02    +0.305 C 
DOCKED: ATOM     52  O   UNL d   1     -12.470   5.835  11.868 -0.01 -0.02    -0.251 OA
DOCKED: BRANCH  51  53
DOCKED: ATOM     53  O   UNL d   1     -11.039   5.591  13.559 +0.01 -0.03    -0.481 OA
DOCKED: ATOM     54  H   UNL d   1     -11.613   5.437  14.338 +0.00 +0.02    +0.295 HD
DOCKED: ENDBRANCH  51  53
DOCKED: ENDBRANCH  50  51
DOCKED: ENDBRANCH  49  50
DOCKED: ENDBRANCH  22  49
DOCKED: TORSDOF 13
DOCKED: TER
DOCKED: ENDMDL
________________________________________________________________________________


	BEGINNING GENETIC ALGORITHM DOCKING 22 of 100
Run: 22 Seed: 1404099582 171014139 [ Run 22 of 100 GA/GALS ]
Beginning LAMARCKIAN GENETIC ALGORITHM (LGA), with a maximum of 25000000 energy evaluations.

Final-Value: -11.519


	FINAL GENETIC ALGORITHM DOCKED STATE
	_______________________________________________


Detailed state:  trans -12.439 -14.387 -1.175 quatxyzw 0.287572 0.771232 -0.183164 -0.537545 center 0.153 0.018 -0.028 ntor 13 162.9239 -64.6108 -111.0890 -44.7716 63.6057 164.4639 120.8770 65.2076 152.9145 -30.7918 62.6031 18.0456 -180.0000
State:	-12.439 -14.387  -1.175   0.341  0.915 -0.217 -114.967    162.92  -64.61 -111.09  -44.77   63.61  164.46  120.88   65.21  152.91  -30.79   62.60   18.05 -180.00

DOCKED: MODEL       22
DOCKED: USER    Run = 22
DOCKED: USER    DPF = D:/Protein_go_brrr/autodock/final/AncA/heme/dock.dpf
DOCKED: USER  
DOCKED: USER    Estimated Free Energy of Binding    =   -5.15 kcal/mol  [=(1)+(2)+(3)-(4)]
DOCKED: USER    Estimated Inhibition Constant, Ki   =  166.73 uM (micromolar)  [Temperature = 298.15 K]
DOCKED: USER    
DOCKED: USER    (1) Final Intermolecular Energy     =   -9.03 kcal/mol
DOCKED: USER        vdW + Hbond + desolv Energy     =   -8.67 kcal/mol
DOCKED: USER        Electrostatic Energy            =   -0.37 kcal/mol
DOCKED: USER    (2) Final Total Internal Energy     =   -2.49 kcal/mol
DOCKED: USER    (3) Torsional Free Energy           =   +3.88 kcal/mol
DOCKED: USER    (4) Unbound System's Energy  [=(2)] =   -2.49 kcal/mol
DOCKED: USER    
DOCKED: USER    
DOCKED: USER    NEWDPF move heme_opt.pdbqt
DOCKED: USER    NEWDPF about 0.153000 0.018000 -0.028000
DOCKED: USER    NEWDPF tran0 -12.439359 -14.387279 -1.174727
DOCKED: USER    NEWDPF quaternion0 0.287572 0.771232 -0.183164 -0.537545
DOCKED: USER    NEWDPF axisangle0 0.341034 0.914611 -0.217216 -114.966693
DOCKED: USER    NEWDPF quat0 0.341034 0.914611 -0.217216 -114.966693
DOCKED: USER    NEWDPF dihe0 162.92 -64.61 -111.09 -44.77 63.61 164.46 120.88 65.21 152.91 -30.79 62.60 18.05 -180.00 
DOCKED: USER  keepresnum = 1 
DOCKED: USER  
DOCKED: REMARK  13 active torsions:
DOCKED: REMARK  status: ('A' for Active; 'I' for Inactive)
DOCKED: REMARK    1  A    between atoms: O_3  and  C_38 
DOCKED: REMARK    2  A    between atoms: O_4  and  C_40 
DOCKED: REMARK    3  A    between atoms: O_7  and  C_46 
DOCKED: REMARK    4  A    between atoms: O_9  and  C_48 
DOCKED: REMARK    5  A    between atoms: C_15  and  C_20 
DOCKED: REMARK    6  A    between atoms: C_16  and  C_23 
DOCKED: REMARK    7  A    between atoms: C_20  and  C_38 
DOCKED: REMARK    8  A    between atoms: C_23  and  C_40 
DOCKED: REMARK    9  A    between atoms: C_32  and  C_41 
DOCKED: REMARK   10  A    between atoms: C_37  and  C_45 
DOCKED: REMARK   11  A    between atoms: C_41  and  C_44 
DOCKED: REMARK   12  A    between atoms: C_44  and  C_46 
DOCKED: REMARK   13  A    between atoms: C_47  and  C_48 
DOCKED: USER                              x       y       z     vdW  Elec       q    Type
DOCKED: USER                           _______ _______ _______ _____ _____    ______ ____
DOCKED: ROOT
DOCKED: ATOM      1  O   UNL d   1      -9.448 -14.858   3.884 -0.06 -0.18    -0.289 OA
DOCKED: ATOM      2  O   UNL d   1     -16.004 -17.828   1.740 -0.03 -0.04    -0.289 OA
DOCKED: ATOM      3  N   UNL d   1     -10.894 -14.183   0.826 -0.15 -0.12    -0.247 NA
DOCKED: ATOM      4  N   UNL d   1     -13.243 -16.001   0.764 -0.08 -0.06    -0.247 NA
DOCKED: ATOM      5  N   UNL d   1     -13.474 -15.457  -2.049 -0.08 -0.07    -0.354 N 
DOCKED: ATOM      6  N   UNL d   1     -11.025 -13.587  -1.980 -0.08 -0.12    -0.354 N 
DOCKED: ATOM      7  C   UNL d   1      -8.751 -13.638   1.884 -0.21 +0.08    +0.084 A 
DOCKED: ATOM      8  C   UNL d   1     -14.188 -16.680   2.913 -0.11 +0.02    +0.084 A 
DOCKED: ATOM      9  C   UNL d   1     -13.090 -15.952   2.132 -0.10 +0.01    +0.058 A 
DOCKED: ATOM     10  C   UNL d   1      -9.677 -13.542   0.667 -0.17 +0.04    +0.058 A 
DOCKED: ATOM     11  C   UNL d   1      -9.669 -14.429   2.766 -0.11 +0.12    +0.193 A 
DOCKED: ATOM     12  C   UNL d   1     -10.945 -14.674   2.021 -0.14 +0.05    +0.109 A 
DOCKED: ATOM     13  C   UNL d   1     -14.972 -17.185   1.735 -0.07 +0.03    +0.193 A 
DOCKED: ATOM     14  C   UNL d   1      -7.502 -14.473   1.592 -0.05 +0.04    +0.026 C 
DOCKED: ATOM     15  C   UNL d   1     -12.043 -15.362   2.730 -0.18 +0.02    +0.055 C 
DOCKED: ATOM     16  C   UNL d   1     -15.063 -15.705   3.706 -0.26 +0.00    +0.026 C 
DOCKED: ATOM     17  C   UNL d   1     -14.291 -16.711   0.493 -0.10 +0.02    +0.109 A 
DOCKED: ATOM     18  C   UNL d   1      -9.343 -12.814  -0.415 -0.27 +0.03    +0.050 C 
DOCKED: ATOM     19  C   UNL d   1     -10.167 -12.600  -1.549 -0.22 +0.02    +0.045 A 
DOCKED: ATOM     20  C   UNL d   1     -14.372 -16.486  -1.934 -0.08 +0.01    +0.045 A 
DOCKED: ATOM     21  C   UNL d   1     -14.815 -17.092  -0.827 -0.09 +0.01    +0.057 C 
DOCKED: ATOM     22  C   UNL d   1     -14.114 -15.976  -4.146 -0.04 -0.00    -0.019 A 
DOCKED: ATOM     23  C   UNL d   1     -13.253 -15.080  -3.347 -0.11 +0.01    +0.045 A 
DOCKED: ATOM     24  C   UNL d   1     -14.774 -16.805  -3.303 -0.03 -0.00    -0.022 A 
DOCKED: ATOM     25  C   UNL d   1     -11.657 -13.204  -3.140 -0.21 +0.01    +0.049 A 
DOCKED: ATOM     26  C   UNL d   1     -10.272 -11.535  -2.430 -0.32 -0.01    -0.018 A 
DOCKED: ATOM     27  C   UNL d   1     -11.228 -11.914  -3.422 -0.29 +0.00    +0.003 A 
DOCKED: ATOM     28  C   UNL d   1     -12.473 -14.118  -3.862 -0.17 +0.01    +0.052 C 
DOCKED: ATOM     29  C   UNL d   1     -15.762 -17.873  -3.629 -0.01 +0.01    +0.046 C 
DOCKED: ATOM     30  C   UNL d   1      -9.531 -10.243  -2.356 -0.45 +0.01    +0.046 C 
DOCKED: ATOM     31  H   UNL d   1     -13.096 -14.994  -1.229 +0.02 +0.03    +0.166 HD
DOCKED: ATOM     32  H   UNL d   1     -11.130 -14.481  -1.515 +0.04 +0.06    +0.166 HD
DOCKED: ENDROOT
DOCKED: BRANCH   7  33
DOCKED: ATOM     33  C   UNL d   1      -8.393 -12.301   2.543 -0.31 +0.13    +0.141 C 
DOCKED: BRANCH  33  34
DOCKED: ATOM     34  C   UNL d   1      -7.143 -12.384   3.377 -0.16 +0.44    +0.306 C 
DOCKED: ATOM     35  O   UNL d   1      -6.109 -11.765   3.189 -0.74 -0.36    -0.251 OA
DOCKED: BRANCH  34  36
DOCKED: ATOM     36  O   UNL d   1      -7.263 -13.240   4.407 -0.60 -0.69    -0.481 OA
DOCKED: ATOM     37  H   UNL d   1      -8.231 -13.346   4.529 +0.16 +0.26    +0.295 HD
DOCKED: ENDBRANCH  34  36
DOCKED: ENDBRANCH  33  34
DOCKED: ENDBRANCH   7  33
DOCKED: BRANCH  27  38
DOCKED: ATOM     38  C   UNL d   1     -11.626 -11.107  -4.536 -0.43 +0.00    +0.017 C 
DOCKED: ATOM     39  C   UNL d   1     -12.889 -10.769  -4.835 -0.37 +0.00    +0.092 C 
DOCKED: BRANCH  39  40
DOCKED: ATOM     40  C   UNL d   1     -13.162  -9.920  -5.997 -0.26 -0.00    +0.330 C 
DOCKED: ATOM     41  O   UNL d   1     -14.223  -9.764  -6.572 -0.32 +0.00    -0.246 OA
DOCKED: BRANCH  40  42
DOCKED: ATOM     42  O   UNL d   1     -12.043  -9.284  -6.378 -0.26 +0.00    -0.477 OA
DOCKED: ATOM     43  H   UNL d   1     -11.858  -9.647  -7.269 -0.26 -0.11    +0.295 HD
DOCKED: ENDBRANCH  40  42
DOCKED: ENDBRANCH  39  40
DOCKED: ENDBRANCH  27  38
DOCKED: BRANCH   8  44
DOCKED: ATOM     44  C   UNL d   1     -13.713 -17.841   3.794 -0.03 +0.03    +0.141 C 
DOCKED: BRANCH  44  45
DOCKED: ATOM     45  C   UNL d   1     -13.483 -19.115   3.025 +0.00 +0.06    +0.306 C 
DOCKED: ATOM     46  O   UNL d   1     -12.528 -19.371   2.312 -0.00 -0.06    -0.251 OA
DOCKED: BRANCH  45  47
DOCKED: ATOM     47  O   UNL d   1     -14.489 -19.995   3.174 +0.00 -0.08    -0.481 OA
DOCKED: ATOM     48  H   UNL d   1     -15.251 -19.580   2.715 +0.01 +0.04    +0.295 HD
DOCKED: ENDBRANCH  45  47
DOCKED: ENDBRANCH  44  45
DOCKED: ENDBRANCH   8  44
DOCKED: BRANCH  22  49
DOCKED: ATOM     49  C   UNL d   1     -14.198 -15.949  -5.643 -0.05 +0.01    +0.048 C 
DOCKED: BRANCH  49  50
DOCKED: ATOM     50  C   UNL d   1     -13.288 -16.998  -6.283 -0.05 +0.03    +0.125 C 
DOCKED: BRANCH  50  51
DOCKED: ATOM     51  C   UNL d   1     -12.220 -16.346  -7.115 -0.12 +0.07    +0.305 C 
DOCKED: ATOM     52  O   UNL d   1     -11.376 -15.548  -6.747 -0.22 -0.06    -0.251 OA
DOCKED: BRANCH  51  53
DOCKED: ATOM     53  O   UNL d   1     -12.277 -16.735  -8.404 -0.07 -0.08    -0.481 OA
DOCKED: ATOM     54  H   UNL d   1     -12.180 -15.900  -8.909 -0.39 -0.03    +0.295 HD
DOCKED: ENDBRANCH  51  53
DOCKED: ENDBRANCH  50  51
DOCKED: ENDBRANCH  49  50
DOCKED: ENDBRANCH  22  49
DOCKED: TORSDOF 13
DOCKED: TER
DOCKED: ENDMDL
________________________________________________________________________________


	BEGINNING GENETIC ALGORITHM DOCKING 23 of 100
Run: 23 Seed: 1319144746 1655070573 [ Run 23 of 100 GA/GALS ]
Beginning LAMARCKIAN GENETIC ALGORITHM (LGA), with a maximum of 25000000 energy evaluations.

Final-Value: -11.507


	FINAL GENETIC ALGORITHM DOCKED STATE
	_______________________________________________


Detailed state:  trans 8.443 -13.605 -3.212 quatxyzw -0.440512 0.467211 -0.347032 0.683544 center 0.153 0.018 -0.028 ntor 13 89.5934 158.9508 120.0514 46.9031 -142.2193 -22.3104 -45.4548 -117.6682 26.6080 -138.3286 -137.6989 -4.2219 -23.6883
State:	  8.443 -13.605  -3.212  -0.604  0.640 -0.475 93.758     89.59  158.95  120.05   46.90 -142.22  -22.31  -45.45 -117.67   26.61 -138.33 -137.70   -4.22  -23.69

DOCKED: MODEL       23
DOCKED: USER    Run = 23
DOCKED: USER    DPF = D:/Protein_go_brrr/autodock/final/AncA/heme/dock.dpf
DOCKED: USER  
DOCKED: USER    Estimated Free Energy of Binding    =   -4.24 kcal/mol  [=(1)+(2)+(3)-(4)]
DOCKED: USER    Estimated Inhibition Constant, Ki   =  779.00 uM (micromolar)  [Temperature = 298.15 K]
DOCKED: USER    
DOCKED: USER    (1) Final Intermolecular Energy     =   -8.12 kcal/mol
DOCKED: USER        vdW + Hbond + desolv Energy     =   -7.73 kcal/mol
DOCKED: USER        Electrostatic Energy            =   -0.39 kcal/mol
DOCKED: USER    (2) Final Total Internal Energy     =   -3.39 kcal/mol
DOCKED: USER    (3) Torsional Free Energy           =   +3.88 kcal/mol
DOCKED: USER    (4) Unbound System's Energy  [=(2)] =   -3.39 kcal/mol
DOCKED: USER    
DOCKED: USER    
DOCKED: USER    NEWDPF move heme_opt.pdbqt
DOCKED: USER    NEWDPF about 0.153000 0.018000 -0.028000
DOCKED: USER    NEWDPF tran0 8.442861 -13.604688 -3.211852
DOCKED: USER    NEWDPF quaternion0 -0.440512 0.467211 -0.347032 0.683544
DOCKED: USER    NEWDPF axisangle0 -0.603515 0.640095 -0.475445 93.757623
DOCKED: USER    NEWDPF quat0 -0.603515 0.640095 -0.475445 93.757623
DOCKED: USER    NEWDPF dihe0 89.59 158.95 120.05 46.90 -142.22 -22.31 -45.45 -117.67 26.61 -138.33 -137.70 -4.22 -23.69 
DOCKED: USER  keepresnum = 1 
DOCKED: USER  
DOCKED: REMARK  13 active torsions:
DOCKED: REMARK  status: ('A' for Active; 'I' for Inactive)
DOCKED: REMARK    1  A    between atoms: O_3  and  C_38 
DOCKED: REMARK    2  A    between atoms: O_4  and  C_40 
DOCKED: REMARK    3  A    between atoms: O_7  and  C_46 
DOCKED: REMARK    4  A    between atoms: O_9  and  C_48 
DOCKED: REMARK    5  A    between atoms: C_15  and  C_20 
DOCKED: REMARK    6  A    between atoms: C_16  and  C_23 
DOCKED: REMARK    7  A    between atoms: C_20  and  C_38 
DOCKED: REMARK    8  A    between atoms: C_23  and  C_40 
DOCKED: REMARK    9  A    between atoms: C_32  and  C_41 
DOCKED: REMARK   10  A    between atoms: C_37  and  C_45 
DOCKED: REMARK   11  A    between atoms: C_41  and  C_44 
DOCKED: REMARK   12  A    between atoms: C_44  and  C_46 
DOCKED: REMARK   13  A    between atoms: C_47  and  C_48 
DOCKED: USER                              x       y       z     vdW  Elec       q    Type
DOCKED: USER                           _______ _______ _______ _____ _____    ______ ____
DOCKED: ROOT
DOCKED: ATOM      1  O   UNL d   1       4.921 -13.931  -7.928 -0.35 -0.13    -0.289 OA
DOCKED: ATOM      2  O   UNL d   1      12.405 -14.107  -7.345 -0.04 -0.01    -0.289 OA
DOCKED: ATOM      3  N   UNL d   1       6.569 -13.565  -4.921 -0.08 -0.01    -0.247 NA
DOCKED: ATOM      4  N   UNL d   1       9.409 -14.070  -5.633 -0.07 +0.03    -0.247 NA
DOCKED: ATOM      5  N   UNL d   1       9.978 -14.292  -2.823 -0.05 +0.18    -0.354 N 
DOCKED: ATOM      6  N   UNL d   1       7.026 -13.786  -2.094 -0.05 +0.02    -0.354 N 
DOCKED: ATOM      7  C   UNL d   1       4.221 -13.768  -5.592 -0.21 +0.03    +0.084 A 
DOCKED: ATOM      8  C   UNL d   1      10.081 -13.620  -7.939 -0.15 +0.00    +0.084 A 
DOCKED: ATOM      9  C   UNL d   1       8.970 -13.714  -6.888 -0.17 +0.00    +0.058 A 
DOCKED: ATOM     10  C   UNL d   1       5.259 -13.613  -4.476 -0.12 +0.01    +0.058 A 
DOCKED: ATOM     11  C   UNL d   1       5.176 -13.781  -6.747 -0.23 +0.05    +0.193 A 
DOCKED: ATOM     12  C   UNL d   1       6.566 -13.624  -6.213 -0.15 +0.01    +0.109 A 
DOCKED: ATOM     13  C   UNL d   1      11.227 -14.026  -7.056 -0.06 -0.00    +0.193 A 
DOCKED: ATOM     14  C   UNL d   1       3.505 -15.120  -5.526 -0.21 +0.01    +0.026 C 
DOCKED: ATOM     15  C   UNL d   1       7.675 -13.515  -7.181 -0.21 +0.00    +0.055 C 
DOCKED: ATOM     16  C   UNL d   1      10.304 -12.177  -8.403 -0.17 +0.00    +0.026 C 
DOCKED: ATOM     17  C   UNL d   1      10.686 -14.278  -5.687 -0.08 -0.02    +0.109 A 
DOCKED: ATOM     18  C   UNL d   1       4.891 -13.448  -3.192 -0.12 +0.01    +0.050 C 
DOCKED: ATOM     19  C   UNL d   1       5.774 -13.214  -2.107 -0.11 +0.00    +0.045 A 
DOCKED: ATOM     20  C   UNL d   1      11.170 -14.730  -3.340 -0.07 -0.01    +0.045 A 
DOCKED: ATOM     21  C   UNL d   1      11.579 -14.736  -4.612 -0.08 -0.01    +0.057 C 
DOCKED: ATOM     22  C   UNL d   1      11.191 -15.033  -1.076 -0.05 +0.00    -0.019 A 
DOCKED: ATOM     23  C   UNL d   1       9.897 -14.436  -1.464 -0.09 -0.01    +0.045 A 
DOCKED: ATOM     24  C   UNL d   1      11.940 -15.204  -2.191 -0.04 +0.00    -0.022 A 
DOCKED: ATOM     25  C   UNL d   1       7.675 -13.503  -0.915 -0.12 -0.01    +0.049 A 
DOCKED: ATOM     26  C   UNL d   1       5.620 -12.510  -0.923 -0.17 -0.00    -0.018 A 
DOCKED: ATOM     27  C   UNL d   1       6.830 -12.680  -0.183 -0.16 -0.00    +0.003 A 
DOCKED: ATOM     28  C   UNL d   1       8.920 -14.113  -0.603 -0.11 -0.01    +0.052 C 
DOCKED: ATOM     29  C   UNL d   1      13.319 -15.758  -2.312 -0.01 +0.00    +0.046 C 
DOCKED: ATOM     30  C   UNL d   1       4.423 -11.725  -0.503 -0.27 +0.01    +0.046 C 
DOCKED: ATOM     31  H   UNL d   1       9.285 -13.840  -3.410 -0.01 -0.11    +0.166 HD
DOCKED: ATOM     32  H   UNL d   1       7.384 -14.367  -2.843 +0.03 -0.01    +0.166 HD
DOCKED: ENDROOT
DOCKED: BRANCH   7  33
DOCKED: ATOM     33  C   UNL d   1       3.225 -12.611  -5.729 -0.36 +0.04    +0.141 C 
DOCKED: BRANCH  33  34
DOCKED: ATOM     34  C   UNL d   1       3.843 -11.386  -6.348 -0.29 +0.05    +0.306 C 
DOCKED: ATOM     35  O   UNL d   1       4.422 -10.492  -5.754 -0.38 -0.01    -0.251 OA
DOCKED: BRANCH  34  36
DOCKED: ATOM     36  O   UNL d   1       3.701 -11.354  -7.685 -0.36 -0.13    -0.481 OA
DOCKED: ATOM     37  H   UNL d   1       4.520 -11.769  -8.031 -0.35 +0.01    +0.295 HD
DOCKED: ENDBRANCH  34  36
DOCKED: ENDBRANCH  33  34
DOCKED: ENDBRANCH   7  33
DOCKED: BRANCH  27  38
DOCKED: ATOM     38  C   UNL d   1       7.090 -12.128   1.113 -0.20 +0.00    +0.017 C 
DOCKED: ATOM     39  C   UNL d   1       8.291 -11.732   1.560 -0.19 +0.03    +0.092 C 
DOCKED: BRANCH  39  40
DOCKED: ATOM     40  C   UNL d   1       8.419 -11.166   2.905 -0.06 +0.23    +0.330 C 
DOCKED: ATOM     41  O   UNL d   1       7.558 -10.620   3.568 -0.09 -0.11    -0.246 OA
DOCKED: BRANCH  40  42
DOCKED: ATOM     42  O   UNL d   1       9.671 -11.334   3.360 -0.46 -0.57    -0.477 OA
DOCKED: ATOM     43  H   UNL d   1      10.020 -12.071   2.817 +0.04 +0.34    +0.295 HD
DOCKED: ENDBRANCH  40  42
DOCKED: ENDBRANCH  39  40
DOCKED: ENDBRANCH  27  38
DOCKED: BRANCH   8  44
DOCKED: ATOM     44  C   UNL d   1       9.944 -14.571  -9.132 -0.10 +0.02    +0.141 C 
DOCKED: BRANCH  44  45
DOCKED: ATOM     45  C   UNL d   1      10.949 -14.308 -10.221 -0.04 +0.05    +0.306 C 
DOCKED: ATOM     46  O   UNL d   1      10.815 -13.553 -11.168 -0.12 -0.03    -0.251 OA
DOCKED: BRANCH  45  47
DOCKED: ATOM     47  O   UNL d   1      12.071 -15.037 -10.073 +0.02 -0.08    -0.481 OA
DOCKED: ATOM     48  H   UNL d   1      12.436 -14.757  -9.207 +0.04 +0.04    +0.295 HD
DOCKED: ENDBRANCH  45  47
DOCKED: ENDBRANCH  44  45
DOCKED: ENDBRANCH   8  44
DOCKED: BRANCH  22  49
DOCKED: ATOM     49  C   UNL d   1      11.564 -15.392   0.332 -0.02 +0.01    +0.048 C 
DOCKED: BRANCH  49  50
DOCKED: ATOM     50  C   UNL d   1      12.598 -14.426   0.910 -0.03 +0.04    +0.125 C 
DOCKED: BRANCH  50  51
DOCKED: ATOM     51  C   UNL d   1      12.257 -13.005   0.563 -0.04 +0.20    +0.305 C 
DOCKED: ATOM     52  O   UNL d   1      12.957 -12.192  -0.015 -0.58 -0.19    -0.251 OA
DOCKED: BRANCH  51  53
DOCKED: ATOM     53  O   UNL d   1      11.022 -12.665   0.984 -0.07 -0.49    -0.481 OA
DOCKED: ATOM     54  H   UNL d   1      10.623 -12.214   0.211 -0.32 +0.12    +0.295 HD
DOCKED: ENDBRANCH  51  53
DOCKED: ENDBRANCH  50  51
DOCKED: ENDBRANCH  49  50
DOCKED: ENDBRANCH  22  49
DOCKED: TORSDOF 13
DOCKED: TER
DOCKED: ENDMDL
________________________________________________________________________________


	BEGINNING GENETIC ALGORITHM DOCKING 24 of 100
Run: 24 Seed: 1542607922 995860790 [ Run 24 of 100 GA/GALS ]
Beginning LAMARCKIAN GENETIC ALGORITHM (LGA), with a maximum of 25000000 energy evaluations.

Final-Value: -11.200


	FINAL GENETIC ALGORITHM DOCKED STATE
	_______________________________________________


Detailed state:  trans 3.645 15.985 8.783 quatxyzw 0.620544 0.301047 0.143458 -0.709730 center 0.153 0.018 -0.028 ntor 13 134.7143 179.8480 -87.5654 149.7726 -134.1266 27.9156 169.3468 16.5654 23.0232 -107.7413 67.4190 -96.3613 123.9229
State:	  3.645  15.985   8.783   0.881  0.427  0.204 -89.574    134.71  179.85  -87.57  149.77 -134.13   27.92  169.35   16.57   23.02 -107.74   67.42  -96.36  123.92

DOCKED: MODEL       24
DOCKED: USER    Run = 24
DOCKED: USER    DPF = D:/Protein_go_brrr/autodock/final/AncA/heme/dock.dpf
DOCKED: USER  
DOCKED: USER    Estimated Free Energy of Binding    =   -3.54 kcal/mol  [=(1)+(2)+(3)-(4)]
DOCKED: USER    Estimated Inhibition Constant, Ki   =    2.55 mM (millimolar)  [Temperature = 298.15 K]
DOCKED: USER    
DOCKED: USER    (1) Final Intermolecular Energy     =   -7.42 kcal/mol
DOCKED: USER        vdW + Hbond + desolv Energy     =   -7.32 kcal/mol
DOCKED: USER        Electrostatic Energy            =   -0.10 kcal/mol
DOCKED: USER    (2) Final Total Internal Energy     =   -3.79 kcal/mol
DOCKED: USER    (3) Torsional Free Energy           =   +3.88 kcal/mol
DOCKED: USER    (4) Unbound System's Energy  [=(2)] =   -3.79 kcal/mol
DOCKED: USER    
DOCKED: USER    
DOCKED: USER    NEWDPF move heme_opt.pdbqt
DOCKED: USER    NEWDPF about 0.153000 0.018000 -0.028000
DOCKED: USER    NEWDPF tran0 3.644695 15.985302 8.782578
DOCKED: USER    NEWDPF quaternion0 0.620544 0.301047 0.143458 -0.709730
DOCKED: USER    NEWDPF axisangle0 0.880861 0.427336 0.203638 -89.574142
DOCKED: USER    NEWDPF quat0 0.880861 0.427336 0.203638 -89.574142
DOCKED: USER    NEWDPF dihe0 134.71 179.85 -87.57 149.77 -134.13 27.92 169.35 16.57 23.02 -107.74 67.42 -96.36 123.92 
DOCKED: USER  keepresnum = 1 
DOCKED: USER  
DOCKED: REMARK  13 active torsions:
DOCKED: REMARK  status: ('A' for Active; 'I' for Inactive)
DOCKED: REMARK    1  A    between atoms: O_3  and  C_38 
DOCKED: REMARK    2  A    between atoms: O_4  and  C_40 
DOCKED: REMARK    3  A    between atoms: O_7  and  C_46 
DOCKED: REMARK    4  A    between atoms: O_9  and  C_48 
DOCKED: REMARK    5  A    between atoms: C_15  and  C_20 
DOCKED: REMARK    6  A    between atoms: C_16  and  C_23 
DOCKED: REMARK    7  A    between atoms: C_20  and  C_38 
DOCKED: REMARK    8  A    between atoms: C_23  and  C_40 
DOCKED: REMARK    9  A    between atoms: C_32  and  C_41 
DOCKED: REMARK   10  A    between atoms: C_37  and  C_45 
DOCKED: REMARK   11  A    between atoms: C_41  and  C_44 
DOCKED: REMARK   12  A    between atoms: C_44  and  C_46 
DOCKED: REMARK   13  A    between atoms: C_47  and  C_48 
DOCKED: USER                              x       y       z     vdW  Elec       q    Type
DOCKED: USER                           _______ _______ _______ _____ _____    ______ ____
DOCKED: ROOT
DOCKED: ATOM      1  O   UNL d   1      -0.039  12.550  11.846 -0.17 +0.06    -0.289 OA
DOCKED: ATOM      2  O   UNL d   1      -0.201  14.792   4.681 -0.07 +0.00    -0.289 OA
DOCKED: ATOM      3  N   UNL d   1       2.299  14.705  10.510 -0.11 +0.01    -0.247 NA
DOCKED: ATOM      4  N   UNL d   1       1.606  14.758   7.621 -0.14 +0.02    -0.247 NA
DOCKED: ATOM      5  N   UNL d   1       4.143  16.020   7.130 -0.08 +0.06    -0.354 N 
DOCKED: ATOM      6  N   UNL d   1       4.862  15.943  10.127 +0.01 -0.00    -0.354 N 
DOCKED: ATOM      7  C   UNL d   1       2.033  13.560  12.660 -0.14 -0.01    +0.084 A 
DOCKED: ATOM      8  C   UNL d   1      -0.711  14.270   7.018 -0.18 -0.00    +0.084 A 
DOCKED: ATOM      9  C   UNL d   1       0.377  14.358   8.094 -0.21 -0.00    +0.058 A 
DOCKED: ATOM     10  C   UNL d   1       2.848  14.496  11.764 -0.15 -0.00    +0.058 A 
DOCKED: ATOM     11  C   UNL d   1       0.916  13.290  11.698 -0.17 -0.03    +0.193 A 
DOCKED: ATOM     12  C   UNL d   1       1.180  14.061  10.441 -0.21 -0.01    +0.109 A 
DOCKED: ATOM     13  C   UNL d   1       0.139  14.658   5.841 -0.09 -0.00    +0.193 A 
DOCKED: ATOM     14  C   UNL d   1       2.771  12.248  12.943 -0.28 -0.00    +0.026 C 
DOCKED: ATOM     15  C   UNL d   1       0.158  14.023   9.375 -0.26 -0.01    +0.055 C 
DOCKED: ATOM     16  C   UNL d   1      -1.793  15.336   7.216 -0.08 +0.00    +0.026 C 
DOCKED: ATOM     17  C   UNL d   1       1.523  14.920   6.339 -0.15 -0.01    +0.109 A 
DOCKED: ATOM     18  C   UNL d   1       3.952  15.119  12.217 -0.16 +0.00    +0.050 C 
DOCKED: ATOM     19  C   UNL d   1       4.720  16.064  11.491 -0.15 +0.00    +0.045 A 
DOCKED: ATOM     20  C   UNL d   1       3.760  15.752   5.842 -0.22 -0.01    +0.045 A 
DOCKED: ATOM     21  C   UNL d   1       2.591  15.280   5.396 -0.22 -0.01    +0.057 C 
DOCKED: ATOM     22  C   UNL d   1       5.904  16.540   5.826 -0.32 +0.00    -0.019 A 
DOCKED: ATOM     23  C   UNL d   1       5.422  16.499   7.221 -0.14 -0.01    +0.045 A 
DOCKED: ATOM     24  C   UNL d   1       4.915  16.098   5.014 -0.30 +0.01    -0.022 A 
DOCKED: ATOM     25  C   UNL d   1       5.716  16.906   9.642 -0.16 -0.00    +0.049 A 
DOCKED: ATOM     26  C   UNL d   1       5.472  17.156  11.897 -0.11 +0.00    -0.018 A 
DOCKED: ATOM     27  C   UNL d   1       6.082  17.696  10.723 -0.13 -0.00    +0.003 A 
DOCKED: ATOM     28  C   UNL d   1       6.141  16.888   8.286 -0.18 -0.01    +0.052 C 
DOCKED: ATOM     29  C   UNL d   1       4.916  15.966   3.529 -0.40 -0.01    +0.046 C 
DOCKED: ATOM     30  C   UNL d   1       5.613  17.670  13.290 -0.05 -0.00    +0.046 C 
DOCKED: ATOM     31  H   UNL d   1       3.489  15.935   7.902 +0.05 -0.02    +0.166 HD
DOCKED: ATOM     32  H   UNL d   1       4.422  15.212   9.581 +0.07 +0.02    +0.166 HD
DOCKED: ENDROOT
DOCKED: BRANCH   7  33
DOCKED: ATOM     33  C   UNL d   1       1.493  14.189  13.949 -0.04 -0.01    +0.141 C 
DOCKED: BRANCH  33  34
DOCKED: ATOM     34  C   UNL d   1       0.387  15.177  13.691 -0.00 -0.01    +0.306 C 
DOCKED: ATOM     35  O   UNL d   1       0.524  16.332  13.325 -0.00 +0.00    -0.251 OA
DOCKED: BRANCH  34  36
DOCKED: ATOM     36  O   UNL d   1      -0.834  14.656  13.906 +0.01 +0.01    -0.481 OA
DOCKED: ATOM     37  H   UNL d   1      -0.822  13.796  13.434 +0.04 -0.01    +0.295 HD
DOCKED: ENDBRANCH  34  36
DOCKED: ENDBRANCH  33  34
DOCKED: ENDBRANCH   7  33
DOCKED: BRANCH  27  38
DOCKED: ATOM     38  C   UNL d   1       6.959  18.828  10.695 -0.07 -0.00    +0.017 C 
DOCKED: ATOM     39  C   UNL d   1       8.226  18.815  10.255 -0.08 -0.00    +0.092 C 
DOCKED: BRANCH  39  40
DOCKED: ATOM     40  C   UNL d   1       9.014  20.050  10.262 -0.01 -0.01    +0.330 C 
DOCKED: ATOM     41  O   UNL d   1       8.872  21.018  10.985 -0.00 +0.01    -0.246 OA
DOCKED: BRANCH  40  42
DOCKED: ATOM     42  O   UNL d   1       9.978  19.988   9.330 +0.00 +0.03    -0.477 OA
DOCKED: ATOM     43  H   UNL d   1       9.855  19.107   8.923 +0.04 -0.02    +0.295 HD
DOCKED: ENDBRANCH  40  42
DOCKED: ENDBRANCH  39  40
DOCKED: ENDBRANCH  27  38
DOCKED: BRANCH   8  44
DOCKED: ATOM     44  C   UNL d   1      -1.329  12.883   6.815 -0.28 +0.00    +0.141 C 
DOCKED: BRANCH  44  45
DOCKED: ATOM     45  C   UNL d   1      -1.957  12.705   5.458 -0.22 +0.01    +0.306 C 
DOCKED: ATOM     46  O   UNL d   1      -1.711  11.823   4.654 -0.34 -0.01    -0.251 OA
DOCKED: BRANCH  45  47
DOCKED: ATOM     47  O   UNL d   1      -2.850  13.670   5.173 -0.04 -0.03    -0.481 OA
DOCKED: ATOM     48  H   UNL d   1      -2.329  14.360   4.710 +0.07 +0.01    +0.295 HD
DOCKED: ENDBRANCH  45  47
DOCKED: ENDBRANCH  44  45
DOCKED: ENDBRANCH   8  44
DOCKED: BRANCH  22  49
DOCKED: ATOM     49  C   UNL d   1       7.277  16.989   5.421 -0.34 -0.01    +0.048 C 
DOCKED: BRANCH  49  50
DOCKED: ATOM     50  C   UNL d   1       8.349  16.479   6.384 -0.39 -0.03    +0.125 C 
DOCKED: BRANCH  50  51
DOCKED: ATOM     51  C   UNL d   1       8.954  17.612   7.164 -0.17 -0.05    +0.305 C 
DOCKED: ATOM     52  O   UNL d   1       8.565  18.765   7.221 -0.06 +0.03    -0.251 OA
DOCKED: BRANCH  51  53
DOCKED: ATOM     53  O   UNL d   1      10.053  17.227   7.842 -0.10 +0.11    -0.481 OA
DOCKED: ATOM     54  H   UNL d   1       9.886  16.284   8.051 -0.44 -0.15    +0.295 HD
DOCKED: ENDBRANCH  51  53
DOCKED: ENDBRANCH  50  51
DOCKED: ENDBRANCH  49  50
DOCKED: ENDBRANCH  22  49
DOCKED: TORSDOF 13
DOCKED: TER
DOCKED: ENDMDL
________________________________________________________________________________


	BEGINNING GENETIC ALGORITHM DOCKING 25 of 100
Run: 25 Seed: 1948903947 259213295 [ Run 25 of 100 GA/GALS ]
Beginning LAMARCKIAN GENETIC ALGORITHM (LGA), with a maximum of 25000000 energy evaluations.

Final-Value: -10.734


	FINAL GENETIC ALGORITHM DOCKED STATE
	_______________________________________________


Detailed state:  trans -13.969 -9.144 -17.013 quatxyzw -0.043734 -0.302092 0.712289 -0.632038 center 0.153 0.018 -0.028 ntor 13 -179.9360 169.7862 152.5738 30.6292 -152.5699 8.9079 177.0029 179.9209 12.9745 7.2880 65.9256 -72.7142 130.1201
State:	-13.969  -9.144 -17.013  -0.056 -0.390  0.919 -101.599   -179.94  169.79  152.57   30.63 -152.57    8.91  177.00  179.92   12.97    7.29   65.93  -72.71  130.12

DOCKED: MODEL       25
DOCKED: USER    Run = 25
DOCKED: USER    DPF = D:/Protein_go_brrr/autodock/final/AncA/heme/dock.dpf
DOCKED: USER  
DOCKED: USER    Estimated Free Energy of Binding    =   -2.79 kcal/mol  [=(1)+(2)+(3)-(4)]
DOCKED: USER    Estimated Inhibition Constant, Ki   =    9.01 mM (millimolar)  [Temperature = 298.15 K]
DOCKED: USER    
DOCKED: USER    (1) Final Intermolecular Energy     =   -6.67 kcal/mol
DOCKED: USER        vdW + Hbond + desolv Energy     =   -6.48 kcal/mol
DOCKED: USER        Electrostatic Energy            =   -0.19 kcal/mol
DOCKED: USER    (2) Final Total Internal Energy     =   -4.07 kcal/mol
DOCKED: USER    (3) Torsional Free Energy           =   +3.88 kcal/mol
DOCKED: USER    (4) Unbound System's Energy  [=(2)] =   -4.07 kcal/mol
DOCKED: USER    
DOCKED: USER    
DOCKED: USER    NEWDPF move heme_opt.pdbqt
DOCKED: USER    NEWDPF about 0.153000 0.018000 -0.028000
DOCKED: USER    NEWDPF tran0 -13.968793 -9.143505 -17.012541
DOCKED: USER    NEWDPF quaternion0 -0.043734 -0.302092 0.712289 -0.632038
DOCKED: USER    NEWDPF axisangle0 -0.056435 -0.389827 0.919157 -101.598760
DOCKED: USER    NEWDPF quat0 -0.056435 -0.389827 0.919157 -101.598760
DOCKED: USER    NEWDPF dihe0 -179.94 169.79 152.57 30.63 -152.57 8.91 177.00 179.92 12.97 7.29 65.93 -72.71 130.12 
DOCKED: USER  keepresnum = 1 
DOCKED: USER  
DOCKED: REMARK  13 active torsions:
DOCKED: REMARK  status: ('A' for Active; 'I' for Inactive)
DOCKED: REMARK    1  A    between atoms: O_3  and  C_38 
DOCKED: REMARK    2  A    between atoms: O_4  and  C_40 
DOCKED: REMARK    3  A    between atoms: O_7  and  C_46 
DOCKED: REMARK    4  A    between atoms: O_9  and  C_48 
DOCKED: REMARK    5  A    between atoms: C_15  and  C_20 
DOCKED: REMARK    6  A    between atoms: C_16  and  C_23 
DOCKED: REMARK    7  A    between atoms: C_20  and  C_38 
DOCKED: REMARK    8  A    between atoms: C_23  and  C_40 
DOCKED: REMARK    9  A    between atoms: C_32  and  C_41 
DOCKED: REMARK   10  A    between atoms: C_37  and  C_45 
DOCKED: REMARK   11  A    between atoms: C_41  and  C_44 
DOCKED: REMARK   12  A    between atoms: C_44  and  C_46 
DOCKED: REMARK   13  A    between atoms: C_47  and  C_48 
DOCKED: USER                              x       y       z     vdW  Elec       q    Type
DOCKED: USER                           _______ _______ _______ _____ _____    ______ ____
DOCKED: ROOT
DOCKED: ATOM      1  O   UNL d   1     -14.626 -14.618 -19.099 -0.08 -0.18    -0.289 OA
DOCKED: ATOM      2  O   UNL d   1      -8.508 -10.924 -16.793 -0.73 -0.05    -0.289 OA
DOCKED: ATOM      3  N   UNL d   1     -14.708 -11.327 -18.070 -0.06 -0.12    -0.247 NA
DOCKED: ATOM      4  N   UNL d   1     -11.946 -10.851 -17.083 -0.11 -0.08    -0.247 NA
DOCKED: ATOM      5  N   UNL d   1     -12.899  -8.429 -15.861 -0.04 -0.04    -0.354 N 
DOCKED: ATOM      6  N   UNL d   1     -15.766  -8.941 -16.873 -0.00 -0.08    -0.354 N 
DOCKED: ATOM      7  C   UNL d   1     -16.400 -12.982 -18.708 -0.05 +0.04    +0.084 A 
DOCKED: ATOM      8  C   UNL d   1     -10.166 -12.231 -18.032 -0.20 +0.03    +0.084 A 
DOCKED: ATOM      9  C   UNL d   1     -11.661 -11.912 -17.912 -0.15 +0.02    +0.058 A 
DOCKED: ATOM     10  C   UNL d   1     -16.062 -11.566 -18.232 -0.06 +0.03    +0.058 A 
DOCKED: ATOM     11  C   UNL d   1     -14.995 -13.496 -18.803 -0.06 +0.13    +0.193 A 
DOCKED: ATOM     12  C   UNL d   1     -14.060 -12.392 -18.416 -0.08 +0.07    +0.109 A 
DOCKED: ATOM     13  C   UNL d   1      -9.660 -11.178 -17.087 -0.20 +0.03    +0.193 A 
DOCKED: ATOM     14  C   UNL d   1     -17.149 -13.784 -17.640 +0.01 +0.02    +0.026 C 
DOCKED: ATOM     15  C   UNL d   1     -12.608 -12.639 -18.524 -0.12 +0.03    +0.055 C 
DOCKED: ATOM     16  C   UNL d   1      -9.632 -11.931 -19.435 -0.24 +0.00    +0.026 C 
DOCKED: ATOM     17  C   UNL d   1     -10.838 -10.415 -16.574 -0.23 +0.02    +0.109 A 
DOCKED: ATOM     18  C   UNL d   1     -17.017 -10.629 -18.082 -0.03 +0.01    +0.050 C 
DOCKED: ATOM     19  C   UNL d   1     -16.791  -9.274 -17.729 -0.01 +0.01    +0.045 A 
DOCKED: ATOM     20  C   UNL d   1     -11.647  -8.495 -15.308 -0.28 +0.00    +0.045 A 
DOCKED: ATOM     21  C   UNL d   1     -10.650  -9.340 -15.589 -0.36 +0.00    +0.057 C 
DOCKED: ATOM     22  C   UNL d   1     -12.799  -6.785 -14.325 -0.29 +0.00    -0.019 A 
DOCKED: ATOM     23  C   UNL d   1     -13.669  -7.428 -15.330 -0.11 +0.00    +0.045 A 
DOCKED: ATOM     24  C   UNL d   1     -11.604  -7.420 -14.317 -0.41 +0.00    -0.022 A 
DOCKED: ATOM     25  C   UNL d   1     -15.786  -7.593 -16.597 -0.01 +0.00    +0.049 A 
DOCKED: ATOM     26  C   UNL d   1     -17.472  -8.108 -18.046 +0.00 -0.00    -0.018 A 
DOCKED: ATOM     27  C   UNL d   1     -16.820  -7.048 -17.344 -0.00 +0.00    +0.003 A 
DOCKED: ATOM     28  C   UNL d   1     -14.920  -7.038 -15.615 -0.06 +0.00    +0.052 C 
DOCKED: ATOM     29  C   UNL d   1     -10.399  -7.132 -13.487 -0.24 -0.01    +0.046 C 
DOCKED: ATOM     30  C   UNL d   1     -18.653  -7.984 -18.947 +0.00 +0.00    +0.046 C 
DOCKED: ATOM     31  H   UNL d   1     -13.163  -9.026 -16.638 +0.04 +0.03    +0.166 HD
DOCKED: ATOM     32  H   UNL d   1     -15.122  -9.617 -16.479 +0.02 +0.06    +0.166 HD
DOCKED: ENDROOT
DOCKED: BRANCH   7  33
DOCKED: ATOM     33  C   UNL d   1     -17.098 -13.069 -20.069 -0.00 +0.04    +0.141 C 
DOCKED: BRANCH  33  34
DOCKED: ATOM     34  C   UNL d   1     -16.266 -12.496 -21.185 +0.01 +0.06    +0.306 C 
DOCKED: ATOM     35  O   UNL d   1     -16.373 -11.379 -21.662 +0.00 -0.03    -0.251 OA
DOCKED: BRANCH  34  36
DOCKED: ATOM     36  O   UNL d   1     -15.341 -13.360 -21.638 +0.01 -0.09    -0.481 OA
DOCKED: ATOM     37  H   UNL d   1     -15.440 -14.151 -21.065 +0.01 +0.07    +0.295 HD
DOCKED: ENDBRANCH  34  36
DOCKED: ENDBRANCH  33  34
DOCKED: ENDBRANCH   7  33
DOCKED: BRANCH  27  38
DOCKED: ATOM     38  C   UNL d   1     -17.213  -5.671 -17.379 +0.00 +0.00    +0.017 C 
DOCKED: ATOM     39  C   UNL d   1     -17.147  -4.821 -16.343 -0.00 -0.00    +0.092 C 
DOCKED: BRANCH  39  40
DOCKED: ATOM     40  C   UNL d   1     -17.566  -3.427 -16.515 +0.00 -0.02    +0.330 C 
DOCKED: ATOM     41  O   UNL d   1     -18.097  -2.925 -17.487 +0.00 +0.01    -0.246 OA
DOCKED: BRANCH  40  42
DOCKED: ATOM     42  O   UNL d   1     -17.289  -2.722 -15.408 +0.01 +0.05    -0.477 OA
DOCKED: ATOM     43  H   UNL d   1     -17.039  -3.404 -14.751 +0.02 -0.04    +0.295 HD
DOCKED: ENDBRANCH  40  42
DOCKED: ENDBRANCH  39  40
DOCKED: ENDBRANCH  27  38
DOCKED: BRANCH   8  44
DOCKED: ATOM     44  C   UNL d   1      -9.751 -13.631 -17.567 -0.26 +0.07    +0.141 C 
DOCKED: BRANCH  44  45
DOCKED: ATOM     45  C   UNL d   1     -10.423 -14.057 -16.290 -0.24 +0.23    +0.306 C 
DOCKED: ATOM     46  O   UNL d   1     -10.961 -15.129 -16.074 -0.59 -0.27    -0.251 OA
DOCKED: BRANCH  45  47
DOCKED: ATOM     47  O   UNL d   1     -10.405 -13.092 -15.352 -0.34 -0.32    -0.481 OA
DOCKED: ATOM     48  H   UNL d   1      -9.602 -12.567 -15.552 -0.30 +0.10    +0.295 HD
DOCKED: ENDBRANCH  45  47
DOCKED: ENDBRANCH  44  45
DOCKED: ENDBRANCH   8  44
DOCKED: BRANCH  22  49
DOCKED: ATOM     49  C   UNL d   1     -13.219  -5.631 -13.463 -0.38 -0.01    +0.048 C 
DOCKED: BRANCH  49  50
DOCKED: ATOM     50  C   UNL d   1     -14.598  -5.857 -12.842 -0.25 -0.03    +0.125 C 
DOCKED: BRANCH  50  51
DOCKED: ATOM     51  C   UNL d   1     -15.600  -4.883 -13.393 -0.06 -0.05    +0.305 C 
DOCKED: ATOM     52  O   UNL d   1     -16.802  -4.859 -13.191 -0.02 +0.02    -0.251 OA
DOCKED: BRANCH  51  53
DOCKED: ATOM     53  O   UNL d   1     -15.025  -3.970 -14.201 -0.04 +0.17    -0.481 OA
DOCKED: ATOM     54  H   UNL d   1     -15.583  -3.172 -14.095 +0.05 -0.10    +0.295 HD
DOCKED: ENDBRANCH  51  53
DOCKED: ENDBRANCH  50  51
DOCKED: ENDBRANCH  49  50
DOCKED: ENDBRANCH  22  49
DOCKED: TORSDOF 13
DOCKED: TER
DOCKED: ENDMDL
________________________________________________________________________________


	BEGINNING GENETIC ALGORITHM DOCKING 26 of 100
Run: 26 Seed: 1563262642 703105155 [ Run 26 of 100 GA/GALS ]
Beginning LAMARCKIAN GENETIC ALGORITHM (LGA), with a maximum of 25000000 energy evaluations.

Final-Value: -13.533


	FINAL GENETIC ALGORITHM DOCKED STATE
	_______________________________________________


Detailed state:  trans -7.929 -10.367 -2.900 quatxyzw 0.235730 -0.096311 -0.891886 0.373757 center 0.153 0.018 -0.028 ntor 13 106.6524 97.0432 178.0893 7.9609 175.4739 -30.3740 0.0235 -37.2555 -15.7310 137.0113 35.2143 122.2054 -64.8048
State:	 -7.929 -10.367  -2.900   0.254 -0.104 -0.962 136.105    106.65   97.04  178.09    7.96  175.47  -30.37    0.02  -37.26  -15.73  137.01   35.21  122.21  -64.80

DOCKED: MODEL       26
DOCKED: USER    Run = 26
DOCKED: USER    DPF = D:/Protein_go_brrr/autodock/final/AncA/heme/dock.dpf
DOCKED: USER  
DOCKED: USER    Estimated Free Energy of Binding    =   -8.48 kcal/mol  [=(1)+(2)+(3)-(4)]
DOCKED: USER    Estimated Inhibition Constant, Ki   =  603.31 nM (nanomolar)  [Temperature = 298.15 K]
DOCKED: USER    
DOCKED: USER    (1) Final Intermolecular Energy     =  -12.36 kcal/mol
DOCKED: USER        vdW + Hbond + desolv Energy     =  -11.85 kcal/mol
DOCKED: USER        Electrostatic Energy            =   -0.51 kcal/mol
DOCKED: USER    (2) Final Total Internal Energy     =   -1.17 kcal/mol
DOCKED: USER    (3) Torsional Free Energy           =   +3.88 kcal/mol
DOCKED: USER    (4) Unbound System's Energy  [=(2)] =   -1.17 kcal/mol
DOCKED: USER    
DOCKED: USER    
DOCKED: USER    NEWDPF move heme_opt.pdbqt
DOCKED: USER    NEWDPF about 0.153000 0.018000 -0.028000
DOCKED: USER    NEWDPF tran0 -7.928856 -10.366860 -2.900130
DOCKED: USER    NEWDPF quaternion0 0.235730 -0.096311 -0.891886 0.373757
DOCKED: USER    NEWDPF axisangle0 0.254149 -0.103836 -0.961575 136.105030
DOCKED: USER    NEWDPF quat0 0.254149 -0.103836 -0.961575 136.105030
DOCKED: USER    NEWDPF dihe0 106.65 97.04 178.09 7.96 175.47 -30.37 0.02 -37.26 -15.73 137.01 35.21 122.21 -64.80 
DOCKED: USER  keepresnum = 1 
DOCKED: USER  
DOCKED: REMARK  13 active torsions:
DOCKED: REMARK  status: ('A' for Active; 'I' for Inactive)
DOCKED: REMARK    1  A    between atoms: O_3  and  C_38 
DOCKED: REMARK    2  A    between atoms: O_4  and  C_40 
DOCKED: REMARK    3  A    between atoms: O_7  and  C_46 
DOCKED: REMARK    4  A    between atoms: O_9  and  C_48 
DOCKED: REMARK    5  A    between atoms: C_15  and  C_20 
DOCKED: REMARK    6  A    between atoms: C_16  and  C_23 
DOCKED: REMARK    7  A    between atoms: C_20  and  C_38 
DOCKED: REMARK    8  A    between atoms: C_23  and  C_40 
DOCKED: REMARK    9  A    between atoms: C_32  and  C_41 
DOCKED: REMARK   10  A    between atoms: C_37  and  C_45 
DOCKED: REMARK   11  A    between atoms: C_41  and  C_44 
DOCKED: REMARK   12  A    between atoms: C_44  and  C_46 
DOCKED: REMARK   13  A    between atoms: C_47  and  C_48 
DOCKED: USER                              x       y       z     vdW  Elec       q    Type
DOCKED: USER                           _______ _______ _______ _____ _____    ______ ____
DOCKED: ROOT
DOCKED: ATOM      1  O   UNL d   1      -5.938 -14.813   0.420 -0.45 -0.70    -0.289 OA
DOCKED: ATOM      2  O   UNL d   1      -2.308  -9.165  -2.944 -0.26 -0.12    -0.289 OA
DOCKED: ATOM      3  N   UNL d   1      -7.533 -12.486  -1.564 -0.14 -0.23    -0.247 NA
DOCKED: ATOM      4  N   UNL d   1      -5.386 -10.527  -2.180 -0.07 -0.18    -0.247 NA
DOCKED: ATOM      5  N   UNL d   1      -7.422  -8.733  -3.128 -0.19 -0.14    -0.354 N 
DOCKED: ATOM      6  N   UNL d   1      -9.645 -10.764  -2.468 -0.16 -0.12    -0.354 N 
DOCKED: ATOM      7  C   UNL d   1      -8.270 -14.339  -0.139 -0.10 +0.08    +0.084 A 
DOCKED: ATOM      8  C   UNL d   1      -3.082 -11.341  -2.133 -0.30 +0.08    +0.084 A 
DOCKED: ATOM      9  C   UNL d   1      -4.573 -11.599  -1.890 -0.30 +0.07    +0.058 A 
DOCKED: ATOM     10  C   UNL d   1      -8.626 -13.185  -1.080 -0.18 +0.04    +0.058 A 
DOCKED: ATOM     11  C   UNL d   1      -6.780 -14.180  -0.190 -0.13 +0.30    +0.193 A 
DOCKED: ATOM     12  C   UNL d   1      -6.458 -13.041  -1.107 -0.21 +0.15    +0.109 A 
DOCKED: ATOM     13  C   UNL d   1      -3.196  -9.910  -2.579 -0.27 +0.11    +0.193 A 
DOCKED: ATOM     14  C   UNL d   1      -8.746 -14.080   1.293 -0.20 +0.02    +0.026 C 
DOCKED: ATOM     15  C   UNL d   1      -5.036 -12.755  -1.388 -0.19 +0.10    +0.055 C 
DOCKED: ATOM     16  C   UNL d   1      -2.543 -12.178  -3.296 -0.04 +0.03    +0.026 C 
DOCKED: ATOM     17  C   UNL d   1      -4.643  -9.536  -2.556 -0.28 +0.06    +0.109 A 
DOCKED: ATOM     18  C   UNL d   1      -9.897 -12.953  -1.458 -0.24 +0.02    +0.050 C 
DOCKED: ATOM     19  C   UNL d   1     -10.312 -11.965  -2.388 -0.27 +0.02    +0.045 A 
DOCKED: ATOM     20  C   UNL d   1      -6.344  -7.886  -3.129 -0.21 +0.02    +0.045 A 
DOCKED: ATOM     21  C   UNL d   1      -5.057  -8.169  -2.907 +0.10 +0.03    +0.057 C 
DOCKED: ATOM     22  C   UNL d   1      -8.228  -6.681  -3.594 -0.43 -0.00    -0.019 A 
DOCKED: ATOM     23  C   UNL d   1      -8.604  -8.096  -3.398 -0.43 +0.01    +0.045 A 
DOCKED: ATOM     24  C   UNL d   1      -6.889  -6.564  -3.434 -0.42 -0.01    -0.022 A 
DOCKED: ATOM     25  C   UNL d   1     -10.267  -9.925  -3.365 -0.43 +0.01    +0.049 A 
DOCKED: ATOM     26  C   UNL d   1     -11.371 -11.921  -3.281 -0.29 -0.00    -0.018 A 
DOCKED: ATOM     27  C   UNL d   1     -11.326 -10.638  -3.910 -0.41 +0.00    +0.003 A 
DOCKED: ATOM     28  C   UNL d   1      -9.854  -8.572  -3.504 -0.55 +0.01    +0.052 C 
DOCKED: ATOM     29  C   UNL d   1      -6.040  -5.344  -3.545 -0.46 +0.01    +0.046 C 
DOCKED: ATOM     30  C   UNL d   1     -12.364 -13.003  -3.539 -0.26 +0.01    +0.046 C 
DOCKED: ATOM     31  H   UNL d   1      -7.305  -9.734  -3.015 +0.09 +0.08    +0.166 HD
DOCKED: ATOM     32  H   UNL d   1      -8.835 -10.533  -1.905 +0.09 +0.07    +0.166 HD
DOCKED: ENDROOT
DOCKED: BRANCH   7  33
DOCKED: ATOM     33  C   UNL d   1      -8.679 -15.734  -0.624 -0.04 +0.11    +0.141 C 
DOCKED: BRANCH  33  34
DOCKED: ATOM     34  C   UNL d   1      -8.638 -15.861  -2.123 -0.05 +0.25    +0.306 C 
DOCKED: ATOM     35  O   UNL d   1      -9.525 -16.304  -2.833 -0.05 -0.15    -0.251 OA
DOCKED: BRANCH  34  36
DOCKED: ATOM     36  O   UNL d   1      -7.481 -15.420  -2.648 -0.41 -0.74    -0.481 OA
DOCKED: ATOM     37  H   UNL d   1      -7.551 -14.442  -2.614 +0.07 +0.43    +0.295 HD
DOCKED: ENDBRANCH  34  36
DOCKED: ENDBRANCH  33  34
DOCKED: ENDBRANCH   7  33
DOCKED: BRANCH  27  38
DOCKED: ATOM     38  C   UNL d   1     -12.253 -10.168  -4.894 -0.48 +0.00    +0.017 C 
DOCKED: ATOM     39  C   UNL d   1     -13.033 -10.948  -5.658 -0.41 +0.00    +0.092 C 
DOCKED: BRANCH  39  40
DOCKED: ATOM     40  C   UNL d   1     -13.956 -10.340  -6.620 -0.22 -0.01    +0.330 C 
DOCKED: ATOM     41  O   UNL d   1     -14.542  -9.279  -6.519 -0.29 -0.00    -0.246 OA
DOCKED: BRANCH  40  42
DOCKED: ATOM     42  O   UNL d   1     -14.086 -11.128  -7.698 -0.06 +0.05    -0.477 OA
DOCKED: ATOM     43  H   UNL d   1     -13.312 -10.897  -8.252 -0.29 -0.18    +0.295 HD
DOCKED: ENDBRANCH  40  42
DOCKED: ENDBRANCH  39  40
DOCKED: ENDBRANCH  27  38
DOCKED: BRANCH   8  44
DOCKED: ATOM     44  C   UNL d   1      -2.181 -11.460  -0.899 -0.08 +0.11    +0.141 C 
DOCKED: BRANCH  44  45
DOCKED: ATOM     45  C   UNL d   1      -1.693 -12.863  -0.653 -0.13 +0.29    +0.306 C 
DOCKED: ATOM     46  O   UNL d   1      -2.356 -13.884  -0.714 -0.17 -0.34    -0.251 OA
DOCKED: BRANCH  45  47
DOCKED: ATOM     47  O   UNL d   1      -0.392 -12.904  -0.315 -0.08 -0.32    -0.481 OA
DOCKED: ATOM     48  H   UNL d   1      -0.093 -11.971  -0.365 +0.12 +0.15    +0.295 HD
DOCKED: ENDBRANCH  45  47
DOCKED: ENDBRANCH  44  45
DOCKED: ENDBRANCH   8  44
DOCKED: BRANCH  22  49
DOCKED: ATOM     49  C   UNL d   1      -9.205  -5.585  -3.901 -0.36 +0.01    +0.048 C 
DOCKED: BRANCH  49  50
DOCKED: ATOM     50  C   UNL d   1      -8.582  -4.495  -4.773 -0.45 +0.02    +0.125 C 
DOCKED: BRANCH  50  51
DOCKED: ATOM     51  C   UNL d   1      -9.103  -3.139  -4.391 -0.38 +0.05    +0.305 C 
DOCKED: ATOM     52  O   UNL d   1     -10.255  -2.828  -4.144 -0.51 -0.04    -0.251 OA
DOCKED: BRANCH  51  53
DOCKED: ATOM     53  O   UNL d   1      -8.122  -2.215  -4.349 -0.22 -0.04    -0.481 OA
DOCKED: ATOM     54  H   UNL d   1      -8.559  -1.421  -3.975 +0.19 -0.01    +0.295 HD
DOCKED: ENDBRANCH  51  53
DOCKED: ENDBRANCH  50  51
DOCKED: ENDBRANCH  49  50
DOCKED: ENDBRANCH  22  49
DOCKED: TORSDOF 13
DOCKED: TER
DOCKED: ENDMDL
________________________________________________________________________________


	BEGINNING GENETIC ALGORITHM DOCKING 27 of 100
Run: 27 Seed: 781252587 1313373779 [ Run 27 of 100 GA/GALS ]
Beginning LAMARCKIAN GENETIC ALGORITHM (LGA), with a maximum of 25000000 energy evaluations.

Final-Value: -10.749


	FINAL GENETIC ALGORITHM DOCKED STATE
	_______________________________________________


Detailed state:  trans -0.942 14.419 5.975 quatxyzw 0.500480 -0.516637 0.626334 -0.300518 center 0.153 0.018 -0.028 ntor 13 -110.5236 -167.4748 -56.2113 43.0187 32.7668 18.5940 82.0793 35.8429 134.6968 5.0349 -71.3191 -78.1333 4.9554
State:	 -0.942  14.419   5.975   0.525 -0.542  0.657 -145.023   -110.52 -167.47  -56.21   43.02   32.77   18.59   82.08   35.84  134.70    5.03  -71.32  -78.13    4.96

DOCKED: MODEL       27
DOCKED: USER    Run = 27
DOCKED: USER    DPF = D:/Protein_go_brrr/autodock/final/AncA/heme/dock.dpf
DOCKED: USER  
DOCKED: USER    Estimated Free Energy of Binding    =   -2.90 kcal/mol  [=(1)+(2)+(3)-(4)]
DOCKED: USER    Estimated Inhibition Constant, Ki   =    7.45 mM (millimolar)  [Temperature = 298.15 K]
DOCKED: USER    
DOCKED: USER    (1) Final Intermolecular Energy     =   -6.78 kcal/mol
DOCKED: USER        vdW + Hbond + desolv Energy     =   -6.72 kcal/mol
DOCKED: USER        Electrostatic Energy            =   -0.06 kcal/mol
DOCKED: USER    (2) Final Total Internal Energy     =   -3.97 kcal/mol
DOCKED: USER    (3) Torsional Free Energy           =   +3.88 kcal/mol
DOCKED: USER    (4) Unbound System's Energy  [=(2)] =   -3.97 kcal/mol
DOCKED: USER    
DOCKED: USER    
DOCKED: USER    NEWDPF move heme_opt.pdbqt
DOCKED: USER    NEWDPF about 0.153000 0.018000 -0.028000
DOCKED: USER    NEWDPF tran0 -0.941844 14.419398 5.975221
DOCKED: USER    NEWDPF quaternion0 0.500480 -0.516637 0.626334 -0.300518
DOCKED: USER    NEWDPF axisangle0 0.524736 -0.541675 0.656689 -145.022504
DOCKED: USER    NEWDPF quat0 0.524736 -0.541675 0.656689 -145.022504
DOCKED: USER    NEWDPF dihe0 -110.52 -167.47 -56.21 43.02 32.77 18.59 82.08 35.84 134.70 5.03 -71.32 -78.13 4.96 
DOCKED: USER  keepresnum = 1 
DOCKED: USER  
DOCKED: REMARK  13 active torsions:
DOCKED: REMARK  status: ('A' for Active; 'I' for Inactive)
DOCKED: REMARK    1  A    between atoms: O_3  and  C_38 
DOCKED: REMARK    2  A    between atoms: O_4  and  C_40 
DOCKED: REMARK    3  A    between atoms: O_7  and  C_46 
DOCKED: REMARK    4  A    between atoms: O_9  and  C_48 
DOCKED: REMARK    5  A    between atoms: C_15  and  C_20 
DOCKED: REMARK    6  A    between atoms: C_16  and  C_23 
DOCKED: REMARK    7  A    between atoms: C_20  and  C_38 
DOCKED: REMARK    8  A    between atoms: C_23  and  C_40 
DOCKED: REMARK    9  A    between atoms: C_32  and  C_41 
DOCKED: REMARK   10  A    between atoms: C_37  and  C_45 
DOCKED: REMARK   11  A    between atoms: C_41  and  C_44 
DOCKED: REMARK   12  A    between atoms: C_44  and  C_46 
DOCKED: REMARK   13  A    between atoms: C_47  and  C_48 
DOCKED: USER                              x       y       z     vdW  Elec       q    Type
DOCKED: USER                           _______ _______ _______ _____ _____    ______ ____
DOCKED: ROOT
DOCKED: ATOM      1  O   UNL d   1      -0.459  14.112   0.108 +0.16 +0.02    -0.289 OA
DOCKED: ATOM      2  O   UNL d   1       3.735  17.674   5.218 -0.04 +0.02    -0.289 OA
DOCKED: ATOM      3  N   UNL d   1      -1.218  14.116   3.472 -0.08 -0.00    -0.247 NA
DOCKED: ATOM      4  N   UNL d   1       1.117  15.486   4.697 -0.05 +0.01    -0.247 NA
DOCKED: ATOM      5  N   UNL d   1       0.205  14.551   7.258 -0.09 +0.02    -0.354 N 
DOCKED: ATOM      6  N   UNL d   1      -2.204  13.116   5.977 -0.13 -0.02    -0.354 N 
DOCKED: ATOM      7  C   UNL d   1      -2.126  12.986   1.496 -0.20 -0.00    +0.084 A 
DOCKED: ATOM      8  C   UNL d   1       2.358  17.054   3.292 -0.07 -0.00    +0.084 A 
DOCKED: ATOM      9  C   UNL d   1       1.251  16.003   3.428 -0.08 -0.00    +0.058 A 
DOCKED: ATOM     10  C   UNL d   1      -2.171  13.226   3.008 -0.21 +0.00    +0.058 A 
DOCKED: ATOM     11  C   UNL d   1      -0.990  13.913   1.185 -0.08 -0.01    +0.193 A 
DOCKED: ATOM     12  C   UNL d   1      -0.544  14.558   2.461 -0.12 -0.00    +0.109 A 
DOCKED: ATOM     13  C   UNL d   1       2.853  17.010   4.710 -0.04 -0.01    +0.193 A 
DOCKED: ATOM     14  C   UNL d   1      -1.705  11.555   1.154 -0.38 -0.00    +0.026 C 
DOCKED: ATOM     15  C   UNL d   1       0.512  15.588   2.387 -0.13 -0.00    +0.055 C 
DOCKED: ATOM     16  C   UNL d   1       1.787  18.447   3.012 -0.03 -0.00    +0.026 C 
DOCKED: ATOM     17  C   UNL d   1       2.023  16.016   5.455 -0.08 -0.01    +0.109 A 
DOCKED: ATOM     18  C   UNL d   1      -3.126  12.673   3.780 -0.20 +0.00    +0.050 C 
DOCKED: ATOM     19  C   UNL d   1      -3.297  12.903   5.169 -0.21 +0.00    +0.045 A 
DOCKED: ATOM     20  C   UNL d   1       1.438  15.036   7.610 -0.18 -0.00    +0.045 A 
DOCKED: ATOM     21  C   UNL d   1       2.309  15.727   6.868 -0.16 -0.00    +0.057 C 
DOCKED: ATOM     22  C   UNL d   1       0.529  13.958   9.407 -0.25 +0.00    -0.019 A 
DOCKED: ATOM     23  C   UNL d   1      -0.420  13.885   8.278 -0.25 -0.00    +0.045 A 
DOCKED: ATOM     24  C   UNL d   1       1.626  14.642   9.006 -0.22 +0.00    -0.022 A 
DOCKED: ATOM     25  C   UNL d   1      -2.590  13.226   7.293 -0.16 +0.00    +0.049 A 
DOCKED: ATOM     26  C   UNL d   1      -4.426  12.912   5.974 -0.17 -0.00    -0.018 A 
DOCKED: ATOM     27  C   UNL d   1      -3.975  13.135   7.311 -0.15 +0.00    +0.003 A 
DOCKED: ATOM     28  C   UNL d   1      -1.623  13.293   8.333 -0.18 +0.00    +0.052 C 
DOCKED: ATOM     29  C   UNL d   1       2.848  14.987   9.787 -0.03 -0.00    +0.046 C 
DOCKED: ATOM     30  C   UNL d   1      -5.837  12.726   5.530 -0.14 +0.01    +0.046 C 
DOCKED: ATOM     31  H   UNL d   1      -0.201  14.755   6.352 +0.05 -0.00    +0.166 HD
DOCKED: ATOM     32  H   UNL d   1      -1.250  13.143   5.635 +0.07 +0.00    +0.166 HD
DOCKED: ENDROOT
DOCKED: BRANCH   7  33
DOCKED: ATOM     33  C   UNL d   1      -3.385  13.401   0.728 -0.10 -0.01    +0.141 C 
DOCKED: BRANCH  33  34
DOCKED: ATOM     34  C   UNL d   1      -3.297  13.087  -0.741 -0.06 -0.03    +0.306 C 
DOCKED: ATOM     35  O   UNL d   1      -3.600  12.031  -1.272 -0.11 +0.04    -0.251 OA
DOCKED: BRANCH  34  36
DOCKED: ATOM     36  O   UNL d   1      -2.834  14.121  -1.466 +0.01 +0.05    -0.481 OA
DOCKED: ATOM     37  H   UNL d   1      -1.902  14.226  -1.178 +0.06 -0.03    +0.295 HD
DOCKED: ENDBRANCH  34  36
DOCKED: ENDBRANCH  33  34
DOCKED: ENDBRANCH   7  33
DOCKED: BRANCH  27  38
DOCKED: ATOM     38  C   UNL d   1      -4.819  13.202   8.466 -0.12 +0.00    +0.017 C 
DOCKED: ATOM     39  C   UNL d   1      -4.543  12.652   9.659 -0.09 +0.02    +0.092 C 
DOCKED: BRANCH  39  40
DOCKED: ATOM     40  C   UNL d   1      -5.486  12.808  10.770 -0.03 +0.05    +0.330 C 
DOCKED: ATOM     41  O   UNL d   1      -6.652  13.149  10.713 -0.01 -0.04    -0.246 OA
DOCKED: BRANCH  40  42
DOCKED: ATOM     42  O   UNL d   1      -4.886  12.506  11.931 -0.01 -0.05    -0.477 OA
DOCKED: ATOM     43  H   UNL d   1      -3.935  12.466  11.701 +0.05 +0.02    +0.295 HD
DOCKED: ENDBRANCH  40  42
DOCKED: ENDBRANCH  39  40
DOCKED: ENDBRANCH  27  38
DOCKED: BRANCH   8  44
DOCKED: ATOM     44  C   UNL d   1       3.480  16.707   2.308 -0.21 -0.01    +0.141 C 
DOCKED: BRANCH  44  45
DOCKED: ATOM     45  C   UNL d   1       3.967  15.289   2.438 -0.31 -0.04    +0.306 C 
DOCKED: ATOM     46  O   UNL d   1       3.285  14.304   2.664 -0.77 +0.00    -0.251 OA
DOCKED: BRANCH  45  47
DOCKED: ATOM     47  O   UNL d   1       5.302  15.188   2.301 -0.23 +0.14    -0.481 OA
DOCKED: ATOM     48  H   UNL d   1       5.604  14.761   3.131 -0.35 -0.19    +0.295 HD
DOCKED: ENDBRANCH  45  47
DOCKED: ENDBRANCH  44  45
DOCKED: ENDBRANCH   8  44
DOCKED: BRANCH  22  49
DOCKED: ATOM     49  C   UNL d   1       0.283  13.347  10.755 -0.28 -0.01    +0.048 C 
DOCKED: BRANCH  49  50
DOCKED: ATOM     50  C   UNL d   1      -0.659  14.200  11.604 -0.11 -0.00    +0.125 C 
DOCKED: BRANCH  50  51
DOCKED: ATOM     51  C   UNL d   1      -1.994  13.529  11.763 -0.09 -0.00    +0.305 C 
DOCKED: ATOM     52  O   UNL d   1      -2.228  12.334  11.771 -0.16 -0.00    -0.251 OA
DOCKED: BRANCH  51  53
DOCKED: ATOM     53  O   UNL d   1      -2.995  14.423  11.896 -0.00 -0.01    -0.481 OA
DOCKED: ATOM     54  H   UNL d   1      -3.553  14.050  12.610 +0.03 +0.01    +0.295 HD
DOCKED: ENDBRANCH  51  53
DOCKED: ENDBRANCH  50  51
DOCKED: ENDBRANCH  49  50
DOCKED: ENDBRANCH  22  49
DOCKED: TORSDOF 13
DOCKED: TER
DOCKED: ENDMDL
________________________________________________________________________________


	BEGINNING GENETIC ALGORITHM DOCKING 28 of 100
Run: 28 Seed: 1036874368 231611476 [ Run 28 of 100 GA/GALS ]
Beginning LAMARCKIAN GENETIC ALGORITHM (LGA), with a maximum of 25000000 energy evaluations.

Final-Value: -11.203


	FINAL GENETIC ALGORITHM DOCKED STATE
	_______________________________________________


Detailed state:  trans -11.597 -13.699 -2.887 quatxyzw 0.284482 0.272961 0.018571 0.918813 center 0.153 0.018 -0.028 ntor 13 -124.9346 -179.9700 168.5494 -23.4460 38.9439 -29.8982 155.5744 -103.4093 143.5813 -3.3086 38.3224 -12.0124 117.2441
State:	-11.597 -13.699  -2.887   0.721  0.692  0.047 46.494   -124.93 -179.97  168.55  -23.45   38.94  -29.90  155.57 -103.41  143.58   -3.31   38.32  -12.01  117.24

DOCKED: MODEL       28
DOCKED: USER    Run = 28
DOCKED: USER    DPF = D:/Protein_go_brrr/autodock/final/AncA/heme/dock.dpf
DOCKED: USER  
DOCKED: USER    Estimated Free Energy of Binding    =   -3.82 kcal/mol  [=(1)+(2)+(3)-(4)]
DOCKED: USER    Estimated Inhibition Constant, Ki   =    1.58 mM (millimolar)  [Temperature = 298.15 K]
DOCKED: USER    
DOCKED: USER    (1) Final Intermolecular Energy     =   -7.70 kcal/mol
DOCKED: USER        vdW + Hbond + desolv Energy     =   -7.61 kcal/mol
DOCKED: USER        Electrostatic Energy            =   -0.08 kcal/mol
DOCKED: USER    (2) Final Total Internal Energy     =   -3.50 kcal/mol
DOCKED: USER    (3) Torsional Free Energy           =   +3.88 kcal/mol
DOCKED: USER    (4) Unbound System's Energy  [=(2)] =   -3.50 kcal/mol
DOCKED: USER    
DOCKED: USER    
DOCKED: USER    NEWDPF move heme_opt.pdbqt
DOCKED: USER    NEWDPF about 0.153000 0.018000 -0.028000
DOCKED: USER    NEWDPF tran0 -11.597272 -13.699265 -2.887428
DOCKED: USER    NEWDPF quaternion0 0.284482 0.272961 0.018571 0.918813
DOCKED: USER    NEWDPF axisangle0 0.720768 0.691577 0.047052 46.493672
DOCKED: USER    NEWDPF quat0 0.720768 0.691577 0.047052 46.493672
DOCKED: USER    NEWDPF dihe0 -124.93 -179.97 168.55 -23.45 38.94 -29.90 155.57 -103.41 143.58 -3.31 38.32 -12.01 117.24 
DOCKED: USER  keepresnum = 1 
DOCKED: USER  
DOCKED: REMARK  13 active torsions:
DOCKED: REMARK  status: ('A' for Active; 'I' for Inactive)
DOCKED: REMARK    1  A    between atoms: O_3  and  C_38 
DOCKED: REMARK    2  A    between atoms: O_4  and  C_40 
DOCKED: REMARK    3  A    between atoms: O_7  and  C_46 
DOCKED: REMARK    4  A    between atoms: O_9  and  C_48 
DOCKED: REMARK    5  A    between atoms: C_15  and  C_20 
DOCKED: REMARK    6  A    between atoms: C_16  and  C_23 
DOCKED: REMARK    7  A    between atoms: C_20  and  C_38 
DOCKED: REMARK    8  A    between atoms: C_23  and  C_40 
DOCKED: REMARK    9  A    between atoms: C_32  and  C_41 
DOCKED: REMARK   10  A    between atoms: C_37  and  C_45 
DOCKED: REMARK   11  A    between atoms: C_41  and  C_44 
DOCKED: REMARK   12  A    between atoms: C_44  and  C_46 
DOCKED: REMARK   13  A    between atoms: C_47  and  C_48 
DOCKED: USER                              x       y       z     vdW  Elec       q    Type
DOCKED: USER                           _______ _______ _______ _____ _____    ______ ____
DOCKED: ROOT
DOCKED: ATOM      1  O   UNL d   1     -16.367 -12.619  -6.180 -0.02 -0.03    -0.289 OA
DOCKED: ATOM      2  O   UNL d   1     -13.999 -18.921  -2.852 -0.00 -0.06    -0.289 OA
DOCKED: ATOM      3  N   UNL d   1     -13.395 -12.810  -4.440 -0.11 -0.03    -0.247 NA
DOCKED: ATOM      4  N   UNL d   1     -13.469 -15.535  -3.258 -0.04 -0.05    -0.247 NA
DOCKED: ATOM      5  N   UNL d   1     -11.282 -14.759  -1.562 -0.07 -0.12    -0.354 N 
DOCKED: ATOM      6  N   UNL d   1     -11.225 -11.927  -2.779 -0.12 -0.08    -0.354 N 
DOCKED: ATOM      7  C   UNL d   1     -14.663 -11.002  -5.504 -0.25 +0.00    +0.084 A 
DOCKED: ATOM      8  C   UNL d   1     -14.802 -17.222  -4.421 -0.01 +0.02    +0.084 A 
DOCKED: ATOM      9  C   UNL d   1     -14.347 -15.764  -4.294 -0.04 +0.01    +0.058 A 
DOCKED: ATOM     10  C   UNL d   1     -13.435 -11.452  -4.707 -0.29 +0.00    +0.058 A 
DOCKED: ATOM     11  C   UNL d   1     -15.302 -12.350  -5.655 -0.06 +0.02    +0.193 A 
DOCKED: ATOM     12  C   UNL d   1     -14.425 -13.366  -4.991 -0.09 +0.01    +0.109 A 
DOCKED: ATOM     13  C   UNL d   1     -14.048 -17.771  -3.242 -0.00 +0.04    +0.193 A 
DOCKED: ATOM     14  C   UNL d   1     -15.588 -10.106  -4.676 -0.32 -0.00    +0.026 C 
DOCKED: ATOM     15  C   UNL d   1     -14.808 -14.788  -5.092 -0.05 +0.01    +0.055 C 
DOCKED: ATOM     16  C   UNL d   1     -14.264 -17.875  -5.697 -0.01 +0.01    +0.026 C 
DOCKED: ATOM     17  C   UNL d   1     -13.286 -16.646  -2.620 -0.04 +0.02    +0.109 A 
DOCKED: ATOM     18  C   UNL d   1     -12.450 -10.591  -4.388 -0.29 -0.00    +0.050 C 
DOCKED: ATOM     19  C   UNL d   1     -11.241 -10.931  -3.729 -0.36 +0.01    +0.045 A 
DOCKED: ATOM     20  C   UNL d   1     -11.611 -15.959  -0.987 -0.10 +0.01    +0.045 A 
DOCKED: ATOM     21  C   UNL d   1     -12.483 -16.879  -1.411 -0.06 +0.02    +0.057 C 
DOCKED: ATOM     22  C   UNL d   1     -10.038 -14.927   0.309 -0.12 -0.01    -0.019 A 
DOCKED: ATOM     23  C   UNL d   1     -10.340 -14.064  -0.851 -0.14 +0.02    +0.045 A 
DOCKED: ATOM     24  C   UNL d   1     -10.793 -16.048   0.222 -0.07 -0.01    -0.022 A 
DOCKED: ATOM     25  C   UNL d   1      -9.978 -12.029  -2.207 -0.27 +0.02    +0.049 A 
DOCKED: ATOM     26  C   UNL d   1      -9.964 -10.397  -3.803 -0.35 -0.00    -0.018 A 
DOCKED: ATOM     27  C   UNL d   1      -9.166 -11.107  -2.853 -0.29 +0.00    +0.003 A 
DOCKED: ATOM     28  C   UNL d   1      -9.755 -12.880  -1.091 -0.25 +0.03    +0.052 C 
DOCKED: ATOM     29  C   UNL d   1     -10.835 -17.218   1.144 -0.03 +0.02    +0.046 C 
DOCKED: ATOM     30  C   UNL d   1      -9.510  -9.296  -4.700 -0.40 +0.01    +0.046 C 
DOCKED: ATOM     31  H   UNL d   1     -11.658 -14.486  -2.463 +0.04 +0.05    +0.166 HD
DOCKED: ATOM     32  H   UNL d   1     -12.040 -12.470  -2.522 +0.07 +0.03    +0.166 HD
DOCKED: ENDROOT
DOCKED: BRANCH   7  33
DOCKED: ATOM     33  C   UNL d   1     -14.368 -10.390  -6.877 -0.31 -0.00    +0.141 C 
DOCKED: BRANCH  33  34
DOCKED: ATOM     34  C   UNL d   1     -15.574  -9.728  -7.488 -0.18 +0.00    +0.306 C 
DOCKED: ATOM     35  O   UNL d   1     -15.875  -8.551  -7.392 -0.26 -0.00    -0.251 OA
DOCKED: BRANCH  34  36
DOCKED: ATOM     36  O   UNL d   1     -16.335 -10.586  -8.189 +0.00 -0.03    -0.481 OA
DOCKED: ATOM     37  H   UNL d   1     -16.509 -11.326  -7.569 +0.09 +0.03    +0.295 HD
DOCKED: ENDBRANCH  34  36
DOCKED: ENDBRANCH  33  34
DOCKED: ENDBRANCH   7  33
DOCKED: BRANCH  27  38
DOCKED: ATOM     38  C   UNL d   1      -7.780 -10.861  -2.593 -0.25 +0.01    +0.017 C 
DOCKED: ATOM     39  C   UNL d   1      -6.915 -11.757  -2.093 -0.26 +0.08    +0.092 C 
DOCKED: BRANCH  39  40
DOCKED: ATOM     40  C   UNL d   1      -5.513 -11.383  -1.889 -0.12 +0.33    +0.330 C 
DOCKED: ATOM     41  O   UNL d   1      -4.849 -10.601  -2.542 -0.26 -0.19    -0.246 OA
DOCKED: BRANCH  40  42
DOCKED: ATOM     42  O   UNL d   1      -5.011 -12.033  -0.827 -0.13 -0.59    -0.477 OA
DOCKED: ATOM     43  H   UNL d   1      -5.763 -12.573  -0.506 +0.12 +0.40    +0.295 HD
DOCKED: ENDBRANCH  40  42
DOCKED: ENDBRANCH  39  40
DOCKED: ENDBRANCH  27  38
DOCKED: BRANCH   8  44
DOCKED: ATOM     44  C   UNL d   1     -16.308 -17.460  -4.268 -0.00 +0.02    +0.141 C 
DOCKED: BRANCH  44  45
DOCKED: ATOM     45  C   UNL d   1     -16.877 -16.871  -3.004 -0.00 +0.05    +0.306 C 
DOCKED: ATOM     46  O   UNL d   1     -17.645 -15.927  -2.924 -0.02 -0.03    -0.251 OA
DOCKED: BRANCH  45  47
DOCKED: ATOM     47  O   UNL d   1     -16.425 -17.489  -1.899 +0.00 -0.08    -0.481 OA
DOCKED: ATOM     48  H   UNL d   1     -15.988 -18.302  -2.231 +0.02 +0.05    +0.295 HD
DOCKED: ENDBRANCH  45  47
DOCKED: ENDBRANCH  44  45
DOCKED: ENDBRANCH   8  44
DOCKED: BRANCH  22  49
DOCKED: ATOM     49  C   UNL d   1      -9.061 -14.572   1.391 -0.15 +0.04    +0.048 C 
DOCKED: BRANCH  49  50
DOCKED: ATOM     50  C   UNL d   1      -9.039 -13.069   1.668 -0.28 +0.10    +0.125 C 
DOCKED: BRANCH  50  51
DOCKED: ATOM     51  C   UNL d   1      -7.638 -12.591   1.923 -0.13 +0.39    +0.305 C 
DOCKED: ATOM     52  O   UNL d   1      -7.163 -12.214   2.980 -1.06 -0.35    -0.251 OA
DOCKED: BRANCH  51  53
DOCKED: ATOM     53  O   UNL d   1      -6.890 -12.600   0.802 -0.42 -0.65    -0.481 OA
DOCKED: ATOM     54  H   UNL d   1      -6.187 -11.940   0.979 +0.14 +0.39    +0.295 HD
DOCKED: ENDBRANCH  51  53
DOCKED: ENDBRANCH  50  51
DOCKED: ENDBRANCH  49  50
DOCKED: ENDBRANCH  22  49
DOCKED: TORSDOF 13
DOCKED: TER
DOCKED: ENDMDL
________________________________________________________________________________


	BEGINNING GENETIC ALGORITHM DOCKING 29 of 100
Run: 29 Seed: 1764898314 1133556456 [ Run 29 of 100 GA/GALS ]
Beginning LAMARCKIAN GENETIC ALGORITHM (LGA), with a maximum of 25000000 energy evaluations.

Final-Value: -11.688


	FINAL GENETIC ALGORITHM DOCKED STATE
	_______________________________________________


Detailed state:  trans 15.704 0.324 6.921 quatxyzw 0.665708 0.516866 -0.292802 0.451607 center 0.153 0.018 -0.028 ntor 13 -144.1405 -121.5845 108.7674 -17.2740 36.9726 27.0341 -87.0896 161.8254 155.5723 -14.4855 -59.6560 -84.7397 0.8711
State:	 15.704   0.324   6.921   0.746  0.579 -0.328 126.306   -144.14 -121.58  108.77  -17.27   36.97   27.03  -87.09  161.83  155.57  -14.49  -59.66  -84.74    0.87

DOCKED: MODEL       29
DOCKED: USER    Run = 29
DOCKED: USER    DPF = D:/Protein_go_brrr/autodock/final/AncA/heme/dock.dpf
DOCKED: USER  
DOCKED: USER    Estimated Free Energy of Binding    =   -3.64 kcal/mol  [=(1)+(2)+(3)-(4)]
DOCKED: USER    Estimated Inhibition Constant, Ki   =    2.15 mM (millimolar)  [Temperature = 298.15 K]
DOCKED: USER    
DOCKED: USER    (1) Final Intermolecular Energy     =   -7.52 kcal/mol
DOCKED: USER        vdW + Hbond + desolv Energy     =   -7.48 kcal/mol
DOCKED: USER        Electrostatic Energy            =   -0.04 kcal/mol
DOCKED: USER    (2) Final Total Internal Energy     =   -4.17 kcal/mol
DOCKED: USER    (3) Torsional Free Energy           =   +3.88 kcal/mol
DOCKED: USER    (4) Unbound System's Energy  [=(2)] =   -4.17 kcal/mol
DOCKED: USER    
DOCKED: USER    
DOCKED: USER    NEWDPF move heme_opt.pdbqt
DOCKED: USER    NEWDPF about 0.153000 0.018000 -0.028000
DOCKED: USER    NEWDPF tran0 15.703553 0.323595 6.921298
DOCKED: USER    NEWDPF quaternion0 0.665708 0.516866 -0.292802 0.451607
DOCKED: USER    NEWDPF axisangle0 0.746128 0.579306 -0.328173 126.306297
DOCKED: USER    NEWDPF quat0 0.746128 0.579306 -0.328173 126.306297
DOCKED: USER    NEWDPF dihe0 -144.14 -121.58 108.77 -17.27 36.97 27.03 -87.09 161.83 155.57 -14.49 -59.66 -84.74 0.87 
DOCKED: USER  keepresnum = 1 
DOCKED: USER  
DOCKED: REMARK  13 active torsions:
DOCKED: REMARK  status: ('A' for Active; 'I' for Inactive)
DOCKED: REMARK    1  A    between atoms: O_3  and  C_38 
DOCKED: REMARK    2  A    between atoms: O_4  and  C_40 
DOCKED: REMARK    3  A    between atoms: O_7  and  C_46 
DOCKED: REMARK    4  A    between atoms: O_9  and  C_48 
DOCKED: REMARK    5  A    between atoms: C_15  and  C_20 
DOCKED: REMARK    6  A    between atoms: C_16  and  C_23 
DOCKED: REMARK    7  A    between atoms: C_20  and  C_38 
DOCKED: REMARK    8  A    between atoms: C_23  and  C_40 
DOCKED: REMARK    9  A    between atoms: C_32  and  C_41 
DOCKED: REMARK   10  A    between atoms: C_37  and  C_45 
DOCKED: REMARK   11  A    between atoms: C_41  and  C_44 
DOCKED: REMARK   12  A    between atoms: C_44  and  C_46 
DOCKED: REMARK   13  A    between atoms: C_47  and  C_48 
DOCKED: USER                              x       y       z     vdW  Elec       q    Type
DOCKED: USER                           _______ _______ _______ _____ _____    ______ ____
DOCKED: ROOT
DOCKED: ATOM      1  O   UNL d   1      14.213  -4.926   4.690 -0.07 -0.07    -0.289 OA
DOCKED: ATOM      2  O   UNL d   1      14.221  -2.399  11.761 -0.04 -0.01    -0.289 OA
DOCKED: ATOM      3  N   UNL d   1      15.314  -1.771   5.545 -0.10 -0.04    -0.247 NA
DOCKED: ATOM      4  N   UNL d   1      14.663  -1.581   8.438 -0.07 -0.03    -0.247 NA
DOCKED: ATOM      5  N   UNL d   1      15.140   1.249   8.265 -0.10 -0.05    -0.354 N 
DOCKED: ATOM      6  N   UNL d   1      15.795   1.046   5.260 -0.12 -0.03    -0.354 N 
DOCKED: ATOM      7  C   UNL d   1      14.941  -2.959   3.434 -0.20 +0.02    +0.084 A 
DOCKED: ATOM      8  C   UNL d   1      14.536  -3.673   9.695 -0.05 +0.01    +0.084 A 
DOCKED: ATOM      9  C   UNL d   1      14.698  -2.955   8.351 -0.10 +0.01    +0.058 A 
DOCKED: ATOM     10  C   UNL d   1      15.370  -1.683   4.164 -0.24 +0.01    +0.058 A 
DOCKED: ATOM     11  C   UNL d   1      14.650  -3.790   4.647 -0.09 +0.04    +0.193 A 
DOCKED: ATOM     12  C   UNL d   1      14.939  -2.967   5.864 -0.11 +0.02    +0.109 A 
DOCKED: ATOM     13  C   UNL d   1      14.365  -2.453  10.556 -0.06 +0.01    +0.193 A 
DOCKED: ATOM     14  C   UNL d   1      13.643  -2.761   2.646 -0.22 +0.01    +0.026 C 
DOCKED: ATOM     15  C   UNL d   1      14.812  -3.612   7.187 -0.10 +0.01    +0.055 C 
DOCKED: ATOM     16  C   UNL d   1      15.822  -4.393  10.112 -0.01 +0.00    +0.026 C 
DOCKED: ATOM     17  C   UNL d   1      14.454  -1.251   9.672 -0.10 +0.01    +0.109 A 
DOCKED: ATOM     18  C   UNL d   1      15.844  -0.615   3.495 -0.25 +0.02    +0.050 C 
DOCKED: ATOM     19  C   UNL d   1      16.341   0.573   4.088 -0.17 +0.01    +0.045 A 
DOCKED: ATOM     20  C   UNL d   1      14.594   1.178   9.521 -0.19 +0.01    +0.045 A 
DOCKED: ATOM     21  C   UNL d   1      14.278   0.095  10.237 -0.14 +0.00    +0.057 C 
DOCKED: ATOM     22  C   UNL d   1      14.856   3.375   8.952 -0.26 -0.00    -0.019 A 
DOCKED: ATOM     23  C   UNL d   1      15.334   2.535   7.836 -0.26 +0.01    +0.045 A 
DOCKED: ATOM     24  C   UNL d   1      14.421   2.566   9.947 -0.24 -0.00    -0.022 A 
DOCKED: ATOM     25  C   UNL d   1      16.363   2.250   5.606 -0.24 +0.01    +0.049 A 
DOCKED: ATOM     26  C   UNL d   1      17.313   1.474   3.682 -0.23 -0.01    -0.018 A 
DOCKED: ATOM     27  C   UNL d   1      17.336   2.521   4.654 -0.25 +0.00    +0.003 A 
DOCKED: ATOM     28  C   UNL d   1      15.853   3.010   6.693 -0.19 +0.01    +0.052 C 
DOCKED: ATOM     29  C   UNL d   1      13.860   2.942  11.276 -0.20 +0.01    +0.046 C 
DOCKED: ATOM     30  C   UNL d   1      18.172   1.370   2.467 -0.22 +0.02    +0.046 C 
DOCKED: ATOM     31  H   UNL d   1      15.431   0.413   7.770 +0.05 +0.03    +0.166 HD
DOCKED: ATOM     32  H   UNL d   1      15.050   0.576   5.760 -0.07 +0.01    +0.166 HD
DOCKED: ENDROOT
DOCKED: BRANCH   7  33
DOCKED: ATOM     33  C   UNL d   1      16.024  -3.621   2.576 -0.13 +0.05    +0.141 C 
DOCKED: BRANCH  33  34
DOCKED: ATOM     34  C   UNL d   1      15.452  -4.487   1.486 -0.14 +0.12    +0.306 C 
DOCKED: ATOM     35  O   UNL d   1      15.186  -4.133   0.350 -0.28 -0.12    -0.251 OA
DOCKED: BRANCH  34  36
DOCKED: ATOM     36  O   UNL d   1      15.246  -5.754   1.886 -0.04 -0.18    -0.481 OA
DOCKED: ATOM     37  H   UNL d   1      15.003  -5.678   2.833 +0.09 +0.10    +0.295 HD
DOCKED: ENDBRANCH  34  36
DOCKED: ENDBRANCH  33  34
DOCKED: ENDBRANCH   7  33
DOCKED: BRANCH  27  38
DOCKED: ATOM     38  C   UNL d   1      18.190   3.669   4.610 -0.21 +0.00    +0.017 C 
DOCKED: ATOM     39  C   UNL d   1      17.791   4.938   4.789 -0.21 +0.02    +0.092 C 
DOCKED: BRANCH  39  40
DOCKED: ATOM     40  C   UNL d   1      18.772   6.026   4.737 -0.09 +0.09    +0.330 C 
DOCKED: ATOM     41  O   UNL d   1      19.841   6.035   4.158 -0.66 -0.10    -0.246 OA
DOCKED: BRANCH  40  42
DOCKED: ATOM     42  O   UNL d   1      18.327   7.082   5.435 -0.04 -0.10    -0.477 OA
DOCKED: ATOM     43  H   UNL d   1      18.191   6.726   6.337 +0.05 +0.05    +0.295 HD
DOCKED: ENDBRANCH  40  42
DOCKED: ENDBRANCH  39  40
DOCKED: ENDBRANCH  27  38
DOCKED: BRANCH   8  44
DOCKED: ATOM     44  C   UNL d   1      13.320  -4.599   9.807 -0.08 +0.01    +0.141 C 
DOCKED: BRANCH  44  45
DOCKED: ATOM     45  C   UNL d   1      12.007  -3.869   9.710 -0.14 +0.01    +0.306 C 
DOCKED: ATOM     46  O   UNL d   1      11.055  -3.983  10.462 -0.25 -0.01    -0.251 OA
DOCKED: BRANCH  45  47
DOCKED: ATOM     47  O   UNL d   1      11.952  -3.048   8.645 -0.06 +0.00    -0.481 OA
DOCKED: ATOM     48  H   UNL d   1      12.548  -2.304   8.875 -0.38 -0.04    +0.295 HD
DOCKED: ENDBRANCH  45  47
DOCKED: ENDBRANCH  44  45
DOCKED: ENDBRANCH   8  44
DOCKED: BRANCH  22  49
DOCKED: ATOM     49  C   UNL d   1      14.856   4.876   8.936 -0.24 +0.02    +0.048 C 
DOCKED: BRANCH  49  50
DOCKED: ATOM     50  C   UNL d   1      16.222   5.449   9.313 -0.08 +0.03    +0.125 C 
DOCKED: BRANCH  50  51
DOCKED: ATOM     51  C   UNL d   1      16.764   6.312   8.209 -0.03 +0.07    +0.305 C 
DOCKED: ATOM     52  O   UNL d   1      17.574   7.217   8.304 -0.01 -0.04    -0.251 OA
DOCKED: BRANCH  51  53
DOCKED: ATOM     53  O   UNL d   1      16.235   5.990   7.012 -0.02 -0.15    -0.481 OA
DOCKED: ATOM     54  H   UNL d   1      16.424   6.771   6.451 +0.09 +0.09    +0.295 HD
DOCKED: ENDBRANCH  51  53
DOCKED: ENDBRANCH  50  51
DOCKED: ENDBRANCH  49  50
DOCKED: ENDBRANCH  22  49
DOCKED: TORSDOF 13
DOCKED: TER
DOCKED: ENDMDL
________________________________________________________________________________


	BEGINNING GENETIC ALGORITHM DOCKING 30 of 100
Run: 30 Seed: 1778297151 1216521619 [ Run 30 of 100 GA/GALS ]
Beginning LAMARCKIAN GENETIC ALGORITHM (LGA), with a maximum of 25000000 energy evaluations.

Final-Value: -10.376


	FINAL GENETIC ALGORITHM DOCKED STATE
	_______________________________________________


Detailed state:  trans 0.089 13.056 11.780 quatxyzw -0.746069 -0.431949 0.068329 0.502128 center 0.153 0.018 -0.028 ntor 13 -105.7021 -144.5929 -171.6621 -117.6016 32.9466 25.7661 138.4523 -28.1812 129.8856 -16.1775 133.6978 -22.7592 30.5883
State:	  0.089  13.056  11.780  -0.863 -0.499  0.079 119.718   -105.70 -144.59 -171.66 -117.60   32.95   25.77  138.45  -28.18  129.89  -16.18  133.70  -22.76   30.59

DOCKED: MODEL       30
DOCKED: USER    Run = 30
DOCKED: USER    DPF = D:/Protein_go_brrr/autodock/final/AncA/heme/dock.dpf
DOCKED: USER  
DOCKED: USER    Estimated Free Energy of Binding    =   -2.52 kcal/mol  [=(1)+(2)+(3)-(4)]
DOCKED: USER    Estimated Inhibition Constant, Ki   =   14.13 mM (millimolar)  [Temperature = 298.15 K]
DOCKED: USER    
DOCKED: USER    (1) Final Intermolecular Energy     =   -6.40 kcal/mol
DOCKED: USER        vdW + Hbond + desolv Energy     =   -6.22 kcal/mol
DOCKED: USER        Electrostatic Energy            =   -0.18 kcal/mol
DOCKED: USER    (2) Final Total Internal Energy     =   -3.97 kcal/mol
DOCKED: USER    (3) Torsional Free Energy           =   +3.88 kcal/mol
DOCKED: USER    (4) Unbound System's Energy  [=(2)] =   -3.97 kcal/mol
DOCKED: USER    
DOCKED: USER    
DOCKED: USER    NEWDPF move heme_opt.pdbqt
DOCKED: USER    NEWDPF about 0.153000 0.018000 -0.028000
DOCKED: USER    NEWDPF tran0 0.089305 13.056277 11.779762
DOCKED: USER    NEWDPF quaternion0 -0.746069 -0.431949 0.068329 0.502128
DOCKED: USER    NEWDPF axisangle0 -0.862714 -0.499482 0.079012 119.718232
DOCKED: USER    NEWDPF quat0 -0.862714 -0.499482 0.079012 119.718232
DOCKED: USER    NEWDPF dihe0 -105.70 -144.59 -171.66 -117.60 32.95 25.77 138.45 -28.18 129.89 -16.18 133.70 -22.76 30.59 
DOCKED: USER  keepresnum = 1 
DOCKED: USER  
DOCKED: REMARK  13 active torsions:
DOCKED: REMARK  status: ('A' for Active; 'I' for Inactive)
DOCKED: REMARK    1  A    between atoms: O_3  and  C_38 
DOCKED: REMARK    2  A    between atoms: O_4  and  C_40 
DOCKED: REMARK    3  A    between atoms: O_7  and  C_46 
DOCKED: REMARK    4  A    between atoms: O_9  and  C_48 
DOCKED: REMARK    5  A    between atoms: C_15  and  C_20 
DOCKED: REMARK    6  A    between atoms: C_16  and  C_23 
DOCKED: REMARK    7  A    between atoms: C_20  and  C_38 
DOCKED: REMARK    8  A    between atoms: C_23  and  C_40 
DOCKED: REMARK    9  A    between atoms: C_32  and  C_41 
DOCKED: REMARK   10  A    between atoms: C_37  and  C_45 
DOCKED: REMARK   11  A    between atoms: C_41  and  C_44 
DOCKED: REMARK   12  A    between atoms: C_44  and  C_46 
DOCKED: REMARK   13  A    between atoms: C_47  and  C_48 
DOCKED: USER                              x       y       z     vdW  Elec       q    Type
DOCKED: USER                           _______ _______ _______ _____ _____    ______ ____
DOCKED: ROOT
DOCKED: ATOM      1  O   UNL d   1      -1.956   9.094  15.636 -0.03 +0.02    -0.289 OA
DOCKED: ATOM      2  O   UNL d   1      -5.531  13.396  10.626 -0.02 -0.04    -0.289 OA
DOCKED: ATOM      3  N   UNL d   1      -0.328  11.401  13.656 -0.11 +0.05    -0.247 NA
DOCKED: ATOM      4  N   UNL d   1      -2.466  12.365  11.832 -0.11 -0.00    -0.247 NA
DOCKED: ATOM      5  N   UNL d   1      -0.415  13.556  10.206 -0.15 +0.02    -0.354 N 
DOCKED: ATOM      6  N   UNL d   1       1.798  12.535  12.093 -0.04 +0.09    -0.354 N 
DOCKED: ATOM      7  C   UNL d   1       0.385   9.680  15.248 -0.10 -0.01    +0.084 A 
DOCKED: ATOM      8  C   UNL d   1      -4.769  12.228  12.638 -0.05 +0.01    +0.084 A 
DOCKED: ATOM      9  C   UNL d   1      -3.283  11.919  12.847 -0.10 +0.00    +0.058 A 
DOCKED: ATOM     10  C   UNL d   1       0.757  10.790  14.261 -0.13 -0.01    +0.058 A 
DOCKED: ATOM     11  C   UNL d   1      -1.104   9.784  15.107 -0.06 -0.02    +0.193 A 
DOCKED: ATOM     12  C   UNL d   1      -1.410  10.879  14.134 -0.11 -0.01    +0.109 A 
DOCKED: ATOM     13  C   UNL d   1      -4.649  12.899  11.299 -0.05 +0.02    +0.193 A 
DOCKED: ATOM     14  C   UNL d   1       0.834   8.301  14.758 -0.27 -0.00    +0.026 C 
DOCKED: ATOM     15  C   UNL d   1      -2.827  11.228  13.903 -0.09 -0.00    +0.055 C 
DOCKED: ATOM     16  C   UNL d   1      -5.286  13.249  13.656 -0.02 +0.00    +0.026 C 
DOCKED: ATOM     17  C   UNL d   1      -3.204  12.911  10.919 -0.10 +0.01    +0.109 A 
DOCKED: ATOM     18  C   UNL d   1       2.035  11.178  14.088 -0.17 -0.01    +0.050 C 
DOCKED: ATOM     19  C   UNL d   1       2.465  12.248  13.263 -0.20 -0.01    +0.045 A 
DOCKED: ATOM     20  C   UNL d   1      -1.495  13.714   9.376 -0.19 +0.00    +0.045 A 
DOCKED: ATOM     21  C   UNL d   1      -2.786  13.472   9.626 -0.14 +0.00    +0.057 C 
DOCKED: ATOM     22  C   UNL d   1       0.396  14.335   8.255 -0.23 +0.00    -0.019 A 
DOCKED: ATOM     23  C   UNL d   1       0.770  13.905   9.617 -0.25 -0.01    +0.045 A 
DOCKED: ATOM     24  C   UNL d   1      -0.946  14.220   8.119 -0.20 +0.00    -0.022 A 
DOCKED: ATOM     25  C   UNL d   1       2.435  13.544  11.409 -0.22 -0.00    +0.049 A 
DOCKED: ATOM     26  C   UNL d   1       3.540  13.118  13.360 -0.17 +0.00    -0.018 A 
DOCKED: ATOM     27  C   UNL d   1       3.505  13.947  12.196 -0.18 +0.00    +0.003 A 
DOCKED: ATOM     28  C   UNL d   1       2.023  13.909  10.098 -0.23 -0.01    +0.052 C 
DOCKED: ATOM     29  C   UNL d   1      -1.795  14.543   6.937 -0.14 +0.00    +0.046 C 
DOCKED: ATOM     30  C   UNL d   1       4.540  13.178  14.465 -0.09 -0.00    +0.046 C 
DOCKED: ATOM     31  H   UNL d   1      -0.533  13.284  11.177 +0.04 -0.01    +0.166 HD
DOCKED: ATOM     32  H   UNL d   1       0.978  12.031  11.778 -0.49 -0.08    +0.166 HD
DOCKED: ENDROOT
DOCKED: BRANCH   7  33
DOCKED: ATOM     33  C   UNL d   1       0.806   9.925  16.702 -0.02 -0.01    +0.141 C 
DOCKED: BRANCH  33  34
DOCKED: ATOM     34  C   UNL d   1       0.359   8.825  17.627 -0.00 -0.01    +0.306 C 
DOCKED: ATOM     35  O   UNL d   1       0.967   7.796  17.869 -0.01 +0.01    -0.251 OA
DOCKED: BRANCH  34  36
DOCKED: ATOM     36  O   UNL d   1      -0.830   9.082  18.201 +0.00 +0.01    -0.481 OA
DOCKED: ATOM     37  H   UNL d   1      -1.481   8.981  17.475 +0.02 -0.01    +0.295 HD
DOCKED: ENDBRANCH  34  36
DOCKED: ENDBRANCH  33  34
DOCKED: ENDBRANCH   7  33
DOCKED: BRANCH  27  38
DOCKED: ATOM     38  C   UNL d   1       4.450  14.978  11.888 -0.16 +0.00    +0.017 C 
DOCKED: ATOM     39  C   UNL d   1       4.285  15.925  10.953 -0.15 +0.00    +0.092 C 
DOCKED: BRANCH  39  40
DOCKED: ATOM     40  C   UNL d   1       5.324  16.937  10.747 -0.11 -0.01    +0.330 C 
DOCKED: ATOM     41  O   UNL d   1       6.507  16.854  11.019 -0.16 +0.00    -0.246 OA
DOCKED: BRANCH  40  42
DOCKED: ATOM     42  O   UNL d   1       4.796  18.034  10.182 -0.01 +0.02    -0.477 OA
DOCKED: ATOM     43  H   UNL d   1       3.902  18.094  10.577 +0.03 -0.01    +0.295 HD
DOCKED: ENDBRANCH  40  42
DOCKED: ENDBRANCH  39  40
DOCKED: ENDBRANCH  27  38
DOCKED: BRANCH   8  44
DOCKED: ATOM     44  C   UNL d   1      -5.693  11.008  12.560 -0.06 +0.02    +0.141 C 
DOCKED: BRANCH  44  45
DOCKED: ATOM     45  C   UNL d   1      -5.439  10.147  11.351 -0.09 +0.10    +0.306 C 
DOCKED: ATOM     46  O   UNL d   1      -4.722   9.163  11.297 -0.16 -0.07    -0.251 OA
DOCKED: BRANCH  45  47
DOCKED: ATOM     47  O   UNL d   1      -6.085  10.591  10.258 -0.63 -0.31    -0.481 OA
DOCKED: ATOM     48  H   UNL d   1      -6.465  11.454  10.528 +0.05 +0.10    +0.295 HD
DOCKED: ENDBRANCH  45  47
DOCKED: ENDBRANCH  44  45
DOCKED: ENDBRANCH   8  44
DOCKED: BRANCH  22  49
DOCKED: ATOM     49  C   UNL d   1       1.377  14.798   7.218 -0.22 -0.00    +0.048 C 
DOCKED: BRANCH  49  50
DOCKED: ATOM     50  C   UNL d   1       2.275  15.917   7.745 -0.12 -0.01    +0.125 C 
DOCKED: BRANCH  50  51
DOCKED: ATOM     51  C   UNL d   1       1.470  16.951   8.479 -0.01 -0.01    +0.305 C 
DOCKED: ATOM     52  O   UNL d   1       0.337  17.324   8.231 -0.01 +0.00    -0.251 OA
DOCKED: BRANCH  51  53
DOCKED: ATOM     53  O   UNL d   1       2.156  17.486   9.509 +0.01 +0.01    -0.481 OA
DOCKED: ATOM     54  H   UNL d   1       2.927  17.916   9.083 +0.03 -0.01    +0.295 HD
DOCKED: ENDBRANCH  51  53
DOCKED: ENDBRANCH  50  51
DOCKED: ENDBRANCH  49  50
DOCKED: ENDBRANCH  22  49
DOCKED: TORSDOF 13
DOCKED: TER
DOCKED: ENDMDL
________________________________________________________________________________


	BEGINNING GENETIC ALGORITHM DOCKING 31 of 100
Run: 31 Seed: 983641541 405857163 [ Run 31 of 100 GA/GALS ]
Beginning LAMARCKIAN GENETIC ALGORITHM (LGA), with a maximum of 25000000 energy evaluations.

Final-Value: -11.867


	FINAL GENETIC ALGORITHM DOCKED STATE
	_______________________________________________


Detailed state:  trans -11.439 -11.890 -4.068 quatxyzw -0.353883 0.004678 0.730317 -0.584280 center 0.153 0.018 -0.028 ntor 13 139.6564 35.3874 -86.1722 9.1144 -136.7915 -45.3415 140.6641 -41.9894 17.5592 -64.3627 24.7838 121.8850 -70.2597
State:	-11.439 -11.890  -4.068  -0.436  0.006  0.900 -108.496    139.66   35.39  -86.17    9.11 -136.79  -45.34  140.66  -41.99   17.56  -64.36   24.78  121.88  -70.26

DOCKED: MODEL       31
DOCKED: USER    Run = 31
DOCKED: USER    DPF = D:/Protein_go_brrr/autodock/final/AncA/heme/dock.dpf
DOCKED: USER  
DOCKED: USER    Estimated Free Energy of Binding    =   -5.98 kcal/mol  [=(1)+(2)+(3)-(4)]
DOCKED: USER    Estimated Inhibition Constant, Ki   =   41.44 uM (micromolar)  [Temperature = 298.15 K]
DOCKED: USER    
DOCKED: USER    (1) Final Intermolecular Energy     =   -9.86 kcal/mol
DOCKED: USER        vdW + Hbond + desolv Energy     =   -9.40 kcal/mol
DOCKED: USER        Electrostatic Energy            =   -0.46 kcal/mol
DOCKED: USER    (2) Final Total Internal Energy     =   -2.01 kcal/mol
DOCKED: USER    (3) Torsional Free Energy           =   +3.88 kcal/mol
DOCKED: USER    (4) Unbound System's Energy  [=(2)] =   -2.01 kcal/mol
DOCKED: USER    
DOCKED: USER    
DOCKED: USER    NEWDPF move heme_opt.pdbqt
DOCKED: USER    NEWDPF about 0.153000 0.018000 -0.028000
DOCKED: USER    NEWDPF tran0 -11.439159 -11.890034 -4.068018
DOCKED: USER    NEWDPF quaternion0 -0.353883 0.004678 0.730317 -0.584280
DOCKED: USER    NEWDPF axisangle0 -0.436056 0.005764 0.899901 -108.495766
DOCKED: USER    NEWDPF quat0 -0.436056 0.005764 0.899901 -108.495766
DOCKED: USER    NEWDPF dihe0 139.66 35.39 -86.17 9.11 -136.79 -45.34 140.66 -41.99 17.56 -64.36 24.78 121.88 -70.26 
DOCKED: USER  keepresnum = 1 
DOCKED: USER  
DOCKED: REMARK  13 active torsions:
DOCKED: REMARK  status: ('A' for Active; 'I' for Inactive)
DOCKED: REMARK    1  A    between atoms: O_3  and  C_38 
DOCKED: REMARK    2  A    between atoms: O_4  and  C_40 
DOCKED: REMARK    3  A    between atoms: O_7  and  C_46 
DOCKED: REMARK    4  A    between atoms: O_9  and  C_48 
DOCKED: REMARK    5  A    between atoms: C_15  and  C_20 
DOCKED: REMARK    6  A    between atoms: C_16  and  C_23 
DOCKED: REMARK    7  A    between atoms: C_20  and  C_38 
DOCKED: REMARK    8  A    between atoms: C_23  and  C_40 
DOCKED: REMARK    9  A    between atoms: C_32  and  C_41 
DOCKED: REMARK   10  A    between atoms: C_37  and  C_45 
DOCKED: REMARK   11  A    between atoms: C_41  and  C_44 
DOCKED: REMARK   12  A    between atoms: C_44  and  C_46 
DOCKED: REMARK   13  A    between atoms: C_47  and  C_48 
DOCKED: USER                              x       y       z     vdW  Elec       q    Type
DOCKED: USER                           _______ _______ _______ _____ _____    ______ ____
DOCKED: ROOT
DOCKED: ATOM      1  O   UNL d   1     -12.843 -16.923  -1.338 -0.03 -0.07    -0.289 OA
DOCKED: ATOM      2  O   UNL d   1      -6.303 -13.275  -1.893 -0.21 -0.52    -0.289 OA
DOCKED: ATOM      3  N   UNL d   1     -12.466 -14.034  -3.183 -0.11 -0.05    -0.247 NA
DOCKED: ATOM      4  N   UNL d   1      -9.686 -13.186  -2.565 -0.09 -0.13    -0.247 NA
DOCKED: ATOM      5  N   UNL d   1     -10.302 -10.634  -3.738 -0.15 -0.09    -0.354 N 
DOCKED: ATOM      6  N   UNL d   1     -13.190 -11.515  -4.358 -0.14 -0.01    -0.354 N 
DOCKED: ATOM      7  C   UNL d   1     -14.367 -15.446  -2.550 -0.12 +0.01    +0.084 A 
DOCKED: ATOM      8  C   UNL d   1      -8.107 -14.930  -1.904 -0.11 +0.09    +0.084 A 
DOCKED: ATOM      9  C   UNL d   1      -9.541 -14.520  -2.257 -0.12 +0.04    +0.058 A 
DOCKED: ATOM     10  C   UNL d   1     -13.837 -14.206  -3.277 -0.15 +0.01    +0.058 A 
DOCKED: ATOM     11  C   UNL d   1     -13.050 -15.955  -2.046 -0.08 +0.04    +0.193 A 
DOCKED: ATOM     12  C   UNL d   1     -11.973 -15.027  -2.517 -0.12 +0.03    +0.109 A 
DOCKED: ATOM     13  C   UNL d   1      -7.473 -13.573  -2.033 -0.14 +0.24    +0.193 A 
DOCKED: ATOM     14  C   UNL d   1     -15.248 -15.078  -1.353 -0.08 +0.00    +0.026 C 
DOCKED: ATOM     15  C   UNL d   1     -10.571 -15.379  -2.217 -0.10 +0.02    +0.055 C 
DOCKED: ATOM     16  C   UNL d   1      -7.504 -15.858  -2.963 -0.09 +0.04    +0.026 C 
DOCKED: ATOM     17  C   UNL d   1      -8.538 -12.604  -2.431 -0.15 +0.08    +0.109 A 
DOCKED: ATOM     18  C   UNL d   1     -14.648 -13.421  -4.010 -0.17 +0.01    +0.050 C 
DOCKED: ATOM     19  C   UNL d   1     -14.235 -12.305  -4.782 -0.20 +0.00    +0.045 A 
DOCKED: ATOM     20  C   UNL d   1      -9.084 -10.348  -3.177 -0.31 +0.02    +0.045 A 
DOCKED: ATOM     21  C   UNL d   1      -8.216 -11.178  -2.591 -0.28 +0.03    +0.057 C 
DOCKED: ATOM     22  C   UNL d   1      -9.996  -8.417  -3.987 -0.52 -0.00    -0.019 A 
DOCKED: ATOM     23  C   UNL d   1     -10.928  -9.531  -4.253 -0.47 +0.01    +0.045 A 
DOCKED: ATOM     24  C   UNL d   1      -8.906  -8.907  -3.351 -0.45 -0.01    -0.022 A 
DOCKED: ATOM     25  C   UNL d   1     -13.019 -10.444  -5.204 -0.39 +0.00    +0.049 A 
DOCKED: ATOM     26  C   UNL d   1     -14.731 -11.755  -5.954 -0.19 -0.00    -0.018 A 
DOCKED: ATOM     27  C   UNL d   1     -13.947 -10.591  -6.226 -0.37 -0.00    +0.003 A 
DOCKED: ATOM     28  C   UNL d   1     -12.103  -9.404  -4.888 -0.25 +0.00    +0.052 C 
DOCKED: ATOM     29  C   UNL d   1      -7.691  -8.179  -2.886 -0.29 +0.02    +0.046 C 
DOCKED: ATOM     30  C   UNL d   1     -15.862 -12.276  -6.773 -0.10 +0.00    +0.046 C 
DOCKED: ATOM     31  H   UNL d   1     -10.633 -11.590  -3.816 +0.09 +0.04    +0.166 HD
DOCKED: ATOM     32  H   UNL d   1     -12.661 -11.693  -3.512 +0.04 +0.01    +0.166 HD
DOCKED: ENDROOT
DOCKED: BRANCH   7  33
DOCKED: ATOM     33  C   UNL d   1     -15.041 -16.493  -3.444 -0.03 +0.02    +0.141 C 
DOCKED: BRANCH  33  34
DOCKED: ATOM     34  C   UNL d   1     -14.084 -17.128  -4.415 -0.00 +0.06    +0.306 C 
DOCKED: ATOM     35  O   UNL d   1     -13.737 -16.668  -5.490 -0.02 -0.05    -0.251 OA
DOCKED: BRANCH  34  36
DOCKED: ATOM     36  O   UNL d   1     -13.611 -18.309  -3.980 +0.01 -0.11    -0.481 OA
DOCKED: ATOM     37  H   UNL d   1     -13.409 -18.159  -3.032 +0.02 +0.07    +0.295 HD
DOCKED: ENDBRANCH  34  36
DOCKED: ENDBRANCH  33  34
DOCKED: ENDBRANCH   7  33
DOCKED: BRANCH  27  38
DOCKED: ATOM     38  C   UNL d   1     -14.134  -9.712  -7.341 -0.33 -0.00    +0.017 C 
DOCKED: ATOM     39  C   UNL d   1     -14.761 -10.033  -8.483 -0.29 -0.01    +0.092 C 
DOCKED: BRANCH  39  40
DOCKED: ATOM     40  C   UNL d   1     -14.902  -9.032  -9.544 -0.22 -0.03    +0.330 C 
DOCKED: ATOM     41  O   UNL d   1     -15.274  -7.879  -9.434 -0.13 +0.02    -0.246 OA
DOCKED: BRANCH  40  42
DOCKED: ATOM     42  O   UNL d   1     -14.543  -9.558 -10.725 -0.10 +0.00    -0.477 OA
DOCKED: ATOM     43  H   UNL d   1     -14.118  -8.812 -11.195 -0.38 -0.07    +0.295 HD
DOCKED: ENDBRANCH  40  42
DOCKED: ENDBRANCH  39  40
DOCKED: ENDBRANCH  27  38
DOCKED: BRANCH   8  44
DOCKED: ATOM     44  C   UNL d   1      -7.909 -15.496  -0.494 -0.07 +0.15    +0.141 C 
DOCKED: BRANCH  44  45
DOCKED: ATOM     45  C   UNL d   1      -7.059 -14.618   0.385 -0.06 +0.48    +0.306 C 
DOCKED: ATOM     46  O   UNL d   1      -7.455 -13.797   1.193 -0.18 -0.37    -0.251 OA
DOCKED: BRANCH  45  47
DOCKED: ATOM     47  O   UNL d   1      -5.742 -14.804   0.178 -0.62 -1.09    -0.481 OA
DOCKED: ATOM     48  H   UNL d   1      -5.499 -14.129  -0.491 +0.07 +0.61    +0.295 HD
DOCKED: ENDBRANCH  45  47
DOCKED: ENDBRANCH  44  45
DOCKED: ENDBRANCH   8  44
DOCKED: BRANCH  22  49
DOCKED: ATOM     49  C   UNL d   1     -10.262  -6.988  -4.362 -0.23 +0.01    +0.048 C 
DOCKED: BRANCH  49  50
DOCKED: ATOM     50  C   UNL d   1      -8.966  -6.204  -4.568 -0.32 +0.03    +0.125 C 
DOCKED: BRANCH  50  51
DOCKED: ATOM     51  C   UNL d   1      -9.182  -4.737  -4.326 -0.33 +0.05    +0.305 C 
DOCKED: ATOM     52  O   UNL d   1     -10.074  -4.035  -4.769 -0.46 -0.04    -0.251 OA
DOCKED: BRANCH  51  53
DOCKED: ATOM     53  O   UNL d   1      -8.232  -4.213  -3.527 -0.11 -0.08    -0.481 OA
DOCKED: ATOM     54  H   UNL d   1      -8.558  -3.309  -3.332 +0.26 +0.04    +0.295 HD
DOCKED: ENDBRANCH  51  53
DOCKED: ENDBRANCH  50  51
DOCKED: ENDBRANCH  49  50
DOCKED: ENDBRANCH  22  49
DOCKED: TORSDOF 13
DOCKED: TER
DOCKED: ENDMDL
________________________________________________________________________________


	BEGINNING GENETIC ALGORITHM DOCKING 32 of 100
Run: 32 Seed: 857295930 1050128578 [ Run 32 of 100 GA/GALS ]
Beginning LAMARCKIAN GENETIC ALGORITHM (LGA), with a maximum of 25000000 energy evaluations.

Final-Value: -12.933


	FINAL GENETIC ALGORITHM DOCKED STATE
	_______________________________________________


Detailed state:  trans -13.468 -14.808 -7.936 quatxyzw 0.449499 0.613510 0.628315 -0.163633 center 0.153 0.018 -0.028 ntor 13 170.1502 14.1262 12.2784 -23.1255 54.8877 157.7564 126.1698 -8.7269 154.8006 3.4224 -57.7061 -59.4187 23.5263
State:	-13.468 -14.808  -7.936   0.456  0.622  0.637 -161.164    170.15   14.13   12.28  -23.13   54.89  157.76  126.17   -8.73  154.80    3.42  -57.71  -59.42   23.53

DOCKED: MODEL       32
DOCKED: USER    Run = 32
DOCKED: USER    DPF = D:/Protein_go_brrr/autodock/final/AncA/heme/dock.dpf
DOCKED: USER  
DOCKED: USER    Estimated Free Energy of Binding    =   -6.35 kcal/mol  [=(1)+(2)+(3)-(4)]
DOCKED: USER    Estimated Inhibition Constant, Ki   =   22.24 uM (micromolar)  [Temperature = 298.15 K]
DOCKED: USER    
DOCKED: USER    (1) Final Intermolecular Energy     =  -10.23 kcal/mol
DOCKED: USER        vdW + Hbond + desolv Energy     =   -9.79 kcal/mol
DOCKED: USER        Electrostatic Energy            =   -0.44 kcal/mol
DOCKED: USER    (2) Final Total Internal Energy     =   -2.71 kcal/mol
DOCKED: USER    (3) Torsional Free Energy           =   +3.88 kcal/mol
DOCKED: USER    (4) Unbound System's Energy  [=(2)] =   -2.71 kcal/mol
DOCKED: USER    
DOCKED: USER    
DOCKED: USER    NEWDPF move heme_opt.pdbqt
DOCKED: USER    NEWDPF about 0.153000 0.018000 -0.028000
DOCKED: USER    NEWDPF tran0 -13.467601 -14.808495 -7.936305
DOCKED: USER    NEWDPF quaternion0 0.449499 0.613510 0.628315 -0.163633
DOCKED: USER    NEWDPF axisangle0 0.455640 0.621892 0.636900 -161.164319
DOCKED: USER    NEWDPF quat0 0.455640 0.621892 0.636900 -161.164319
DOCKED: USER    NEWDPF dihe0 170.15 14.13 12.28 -23.13 54.89 157.76 126.17 -8.73 154.80 3.42 -57.71 -59.42 23.53 
DOCKED: USER  keepresnum = 1 
DOCKED: USER  
DOCKED: REMARK  13 active torsions:
DOCKED: REMARK  status: ('A' for Active; 'I' for Inactive)
DOCKED: REMARK    1  A    between atoms: O_3  and  C_38 
DOCKED: REMARK    2  A    between atoms: O_4  and  C_40 
DOCKED: REMARK    3  A    between atoms: O_7  and  C_46 
DOCKED: REMARK    4  A    between atoms: O_9  and  C_48 
DOCKED: REMARK    5  A    between atoms: C_15  and  C_20 
DOCKED: REMARK    6  A    between atoms: C_16  and  C_23 
DOCKED: REMARK    7  A    between atoms: C_20  and  C_38 
DOCKED: REMARK    8  A    between atoms: C_23  and  C_40 
DOCKED: REMARK    9  A    between atoms: C_32  and  C_41 
DOCKED: REMARK   10  A    between atoms: C_37  and  C_45 
DOCKED: REMARK   11  A    between atoms: C_41  and  C_44 
DOCKED: REMARK   12  A    between atoms: C_44  and  C_46 
DOCKED: REMARK   13  A    between atoms: C_47  and  C_48 
DOCKED: USER                              x       y       z     vdW  Elec       q    Type
DOCKED: USER                           _______ _______ _______ _____ _____    ______ ____
DOCKED: ROOT
DOCKED: ATOM      1  O   UNL d   1      -9.344 -18.980  -8.530 -0.15 -0.21    -0.289 OA
DOCKED: ATOM      2  O   UNL d   1     -14.912 -16.867 -13.105 -0.10 -0.20    -0.289 OA
DOCKED: ATOM      3  N   UNL d   1     -11.631 -16.540  -7.686 -0.15 -0.05    -0.247 NA
DOCKED: ATOM      4  N   UNL d   1     -13.211 -16.193 -10.179 -0.10 -0.05    -0.247 NA
DOCKED: ATOM      5  N   UNL d   1     -14.285 -13.776  -9.052 -0.11 -0.04    -0.354 N 
DOCKED: ATOM      6  N   UNL d   1     -12.627 -14.133  -6.478 -0.13 -0.05    -0.354 N 
DOCKED: ATOM      7  C   UNL d   1      -9.587 -17.423  -6.661 -0.21 +0.05    +0.084 A 
DOCKED: ATOM      8  C   UNL d   1     -13.332 -18.101 -11.700 -0.07 +0.03    +0.084 A 
DOCKED: ATOM      9  C   UNL d   1     -12.752 -17.466 -10.432 -0.14 +0.02    +0.058 A 
DOCKED: ATOM     10  C   UNL d   1     -10.761 -16.441  -6.613 -0.23 +0.02    +0.058 A 
DOCKED: ATOM     11  C   UNL d   1      -9.957 -18.107  -7.943 -0.15 +0.11    +0.193 A 
DOCKED: ATOM     12  C   UNL d   1     -11.227 -17.500  -8.453 -0.17 +0.04    +0.109 A 
DOCKED: ATOM     13  C   UNL d   1     -14.176 -16.938 -12.140 -0.10 +0.10    +0.193 A 
DOCKED: ATOM     14  C   UNL d   1      -8.247 -16.707  -6.851 -0.19 +0.02    +0.026 C 
DOCKED: ATOM     15  C   UNL d   1     -11.838 -18.081  -9.665 -0.18 +0.02    +0.055 C 
DOCKED: ATOM     16  C   UNL d   1     -14.253 -19.282 -11.375 -0.02 +0.01    +0.026 C 
DOCKED: ATOM     17  C   UNL d   1     -14.008 -15.843 -11.137 -0.18 +0.04    +0.109 A 
DOCKED: ATOM     18  C   UNL d   1     -10.954 -15.627  -5.558 -0.13 +0.02    +0.050 C 
DOCKED: ATOM     19  C   UNL d   1     -12.054 -14.748  -5.388 -0.16 +0.01    +0.045 A 
DOCKED: ATOM     20  C   UNL d   1     -14.747 -13.662 -10.337 -0.23 +0.01    +0.045 A 
DOCKED: ATOM     21  C   UNL d   1     -14.687 -14.554 -11.331 -0.22 +0.03    +0.057 C 
DOCKED: ATOM     22  C   UNL d   1     -15.214 -11.730  -9.211 -0.21 -0.00    -0.019 A 
DOCKED: ATOM     23  C   UNL d   1     -14.520 -12.658  -8.296 -0.21 +0.00    +0.045 A 
DOCKED: ATOM     24  C   UNL d   1     -15.347 -12.331 -10.418 -0.21 -0.01    -0.022 A 
DOCKED: ATOM     25  C   UNL d   1     -13.612 -13.260  -6.077 -0.18 +0.01    +0.049 A 
DOCKED: ATOM     26  C   UNL d   1     -12.707 -14.291  -4.253 -0.14 -0.00    -0.018 A 
DOCKED: ATOM     27  C   UNL d   1     -13.703 -13.367  -4.696 -0.16 +0.00    +0.003 A 
DOCKED: ATOM     28  C   UNL d   1     -14.241 -12.392  -7.011 -0.22 +0.00    +0.052 C 
DOCKED: ATOM     29  C   UNL d   1     -15.987 -11.804 -11.657 -0.14 +0.02    +0.046 C 
DOCKED: ATOM     30  C   UNL d   1     -12.427 -14.689  -2.844 -0.17 +0.01    +0.046 C 
DOCKED: ATOM     31  H   UNL d   1     -13.887 -14.644  -8.711 -0.01 +0.01    +0.166 HD
DOCKED: ATOM     32  H   UNL d   1     -12.323 -14.285  -7.432 -0.17 +0.00    +0.166 HD
DOCKED: ENDROOT
DOCKED: BRANCH   7  33
DOCKED: ATOM     33  C   UNL d   1      -9.527 -18.433  -5.510 -0.08 +0.08    +0.141 C 
DOCKED: BRANCH  33  34
DOCKED: ATOM     34  C   UNL d   1      -8.144 -18.985  -5.295 -0.05 +0.22    +0.306 C 
DOCKED: ATOM     35  O   UNL d   1      -7.409 -18.740  -4.354 -0.04 -0.20    -0.251 OA
DOCKED: BRANCH  34  36
DOCKED: ATOM     36  O   UNL d   1      -7.761 -19.820  -6.278 -0.06 -0.44    -0.481 OA
DOCKED: ATOM     37  H   UNL d   1      -8.583 -20.002  -6.781 +0.05 +0.23    +0.295 HD
DOCKED: ENDBRANCH  34  36
DOCKED: ENDBRANCH  33  34
DOCKED: ENDBRANCH   7  33
DOCKED: BRANCH  27  38
DOCKED: ATOM     38  C   UNL d   1     -14.598 -12.646  -3.842 -0.26 +0.00    +0.017 C 
DOCKED: ATOM     39  C   UNL d   1     -15.217 -11.499  -4.160 -0.31 +0.00    +0.092 C 
DOCKED: BRANCH  39  40
DOCKED: ATOM     40  C   UNL d   1     -16.126 -10.869  -3.199 -0.26 +0.00    +0.330 C 
DOCKED: ATOM     41  O   UNL d   1     -16.439  -9.696  -3.131 -0.55 +0.04    -0.246 OA
DOCKED: BRANCH  40  42
DOCKED: ATOM     42  O   UNL d   1     -16.614 -11.790  -2.353 -0.60 -0.08    -0.477 OA
DOCKED: ATOM     43  H   UNL d   1     -17.363 -11.334  -1.917 -0.39 -0.08    +0.295 HD
DOCKED: ENDBRANCH  40  42
DOCKED: ENDBRANCH  39  40
DOCKED: ENDBRANCH  27  38
DOCKED: BRANCH   8  44
DOCKED: ATOM     44  C   UNL d   1     -12.310 -18.476 -12.778 -0.09 +0.06    +0.141 C 
DOCKED: BRANCH  44  45
DOCKED: ATOM     45  C   UNL d   1     -11.305 -17.388 -13.048 -0.10 +0.12    +0.306 C 
DOCKED: ATOM     46  O   UNL d   1     -10.297 -17.153 -12.404 -0.13 -0.08    -0.251 OA
DOCKED: BRANCH  45  47
DOCKED: ATOM     47  O   UNL d   1     -11.640 -16.630 -14.108 -0.32 -0.36    -0.481 OA
DOCKED: ATOM     48  H   UNL d   1     -10.839 -16.096 -14.293 -0.43 +0.11    +0.295 HD
DOCKED: ENDBRANCH  45  47
DOCKED: ENDBRANCH  44  45
DOCKED: ENDBRANCH   8  44
DOCKED: BRANCH  22  49
DOCKED: ATOM     49  C   UNL d   1     -15.666 -10.351  -8.830 -0.23 +0.00    +0.048 C 
DOCKED: BRANCH  49  50
DOCKED: ATOM     50  C   UNL d   1     -16.661 -10.379  -7.670 -0.12 +0.01    +0.125 C 
DOCKED: BRANCH  50  51
DOCKED: ATOM     51  C   UNL d   1     -16.170  -9.544  -6.522 -0.20 +0.00    +0.305 C 
DOCKED: ATOM     52  O   UNL d   1     -15.044  -9.114  -6.344 -0.28 -0.01    -0.251 OA
DOCKED: BRANCH  51  53
DOCKED: ATOM     53  O   UNL d   1     -17.145  -9.296  -5.625 -0.08 +0.05    -0.481 OA
DOCKED: ATOM     54  H   UNL d   1     -16.662  -9.111  -4.793 -0.36 -0.10    +0.295 HD
DOCKED: ENDBRANCH  51  53
DOCKED: ENDBRANCH  50  51
DOCKED: ENDBRANCH  49  50
DOCKED: ENDBRANCH  22  49
DOCKED: TORSDOF 13
DOCKED: TER
DOCKED: ENDMDL
________________________________________________________________________________


	BEGINNING GENETIC ALGORITHM DOCKING 33 of 100
Run: 33 Seed: 701054185 1972867303 [ Run 33 of 100 GA/GALS ]
Beginning LAMARCKIAN GENETIC ALGORITHM (LGA), with a maximum of 25000000 energy evaluations.

Final-Value: -10.883


	FINAL GENETIC ALGORITHM DOCKED STATE
	_______________________________________________


Detailed state:  trans 2.135 15.420 7.742 quatxyzw -0.317282 0.678844 -0.654500 0.100662 center 0.153 0.018 -0.028 ntor 13 -109.8655 164.1839 -82.7231 40.6846 25.7693 131.2724 163.7907 75.0305 120.3216 -99.0477 -47.6703 -126.8780 19.1950
State:	  2.135  15.420   7.742  -0.319  0.682 -0.658 168.445   -109.87  164.18  -82.72   40.68   25.77  131.27  163.79   75.03  120.32  -99.05  -47.67 -126.88   19.20

DOCKED: MODEL       33
DOCKED: USER    Run = 33
DOCKED: USER    DPF = D:/Protein_go_brrr/autodock/final/AncA/heme/dock.dpf
DOCKED: USER  
DOCKED: USER    Estimated Free Energy of Binding    =   -3.31 kcal/mol  [=(1)+(2)+(3)-(4)]
DOCKED: USER    Estimated Inhibition Constant, Ki   =    3.73 mM (millimolar)  [Temperature = 298.15 K]
DOCKED: USER    
DOCKED: USER    (1) Final Intermolecular Energy     =   -7.19 kcal/mol
DOCKED: USER        vdW + Hbond + desolv Energy     =   -7.13 kcal/mol
DOCKED: USER        Electrostatic Energy            =   -0.06 kcal/mol
DOCKED: USER    (2) Final Total Internal Energy     =   -3.69 kcal/mol
DOCKED: USER    (3) Torsional Free Energy           =   +3.88 kcal/mol
DOCKED: USER    (4) Unbound System's Energy  [=(2)] =   -3.69 kcal/mol
DOCKED: USER    
DOCKED: USER    
DOCKED: USER    NEWDPF move heme_opt.pdbqt
DOCKED: USER    NEWDPF about 0.153000 0.018000 -0.028000
DOCKED: USER    NEWDPF tran0 2.134991 15.419876 7.742175
DOCKED: USER    NEWDPF quaternion0 -0.317282 0.678844 -0.654500 0.100662
DOCKED: USER    NEWDPF axisangle0 -0.318902 0.682309 -0.657841 168.445360
DOCKED: USER    NEWDPF quat0 -0.318902 0.682309 -0.657841 168.445360
DOCKED: USER    NEWDPF dihe0 -109.87 164.18 -82.72 40.68 25.77 131.27 163.79 75.03 120.32 -99.05 -47.67 -126.88 19.20 
DOCKED: USER  keepresnum = 1 
DOCKED: USER  
DOCKED: REMARK  13 active torsions:
DOCKED: REMARK  status: ('A' for Active; 'I' for Inactive)
DOCKED: REMARK    1  A    between atoms: O_3  and  C_38 
DOCKED: REMARK    2  A    between atoms: O_4  and  C_40 
DOCKED: REMARK    3  A    between atoms: O_7  and  C_46 
DOCKED: REMARK    4  A    between atoms: O_9  and  C_48 
DOCKED: REMARK    5  A    between atoms: C_15  and  C_20 
DOCKED: REMARK    6  A    between atoms: C_16  and  C_23 
DOCKED: REMARK    7  A    between atoms: C_20  and  C_38 
DOCKED: REMARK    8  A    between atoms: C_23  and  C_40 
DOCKED: REMARK    9  A    between atoms: C_32  and  C_41 
DOCKED: REMARK   10  A    between atoms: C_37  and  C_45 
DOCKED: REMARK   11  A    between atoms: C_41  and  C_44 
DOCKED: REMARK   12  A    between atoms: C_44  and  C_46 
DOCKED: REMARK   13  A    between atoms: C_47  and  C_48 
DOCKED: USER                              x       y       z     vdW  Elec       q    Type
DOCKED: USER                           _______ _______ _______ _____ _____    ______ ____
DOCKED: ROOT
DOCKED: ATOM      1  O   UNL d   1       5.733  16.382   3.172 -0.22 +0.06    -0.289 OA
DOCKED: ATOM      2  O   UNL d   1       6.489  18.000  10.466 -0.08 +0.01    -0.289 OA
DOCKED: ATOM      3  N   UNL d   1       3.265  15.739   5.494 -0.10 +0.03    -0.247 NA
DOCKED: ATOM      4  N   UNL d   1       4.565  16.418   8.078 -0.11 +0.04    -0.247 NA
DOCKED: ATOM      5  N   UNL d   1       2.399  15.078   9.413 -0.08 +0.02    -0.354 N 
DOCKED: ATOM      6  N   UNL d   1       1.068  14.361   6.727 -0.09 +0.02    -0.354 N 
DOCKED: ATOM      7  C   UNL d   1       3.572  15.241   3.114 -0.32 -0.01    +0.084 A 
DOCKED: ATOM      8  C   UNL d   1       6.379  18.053   8.022 -0.12 -0.01    +0.084 A 
DOCKED: ATOM      9  C   UNL d   1       5.370  17.183   7.265 -0.16 -0.01    +0.058 A 
DOCKED: ATOM     10  C   UNL d   1       2.713  15.135   4.377 -0.21 -0.01    +0.058 A 
DOCKED: ATOM     11  C   UNL d   1       4.700  16.028   3.710 -0.24 -0.04    +0.193 A 
DOCKED: ATOM     12  C   UNL d   1       4.384  16.290   5.150 -0.20 -0.02    +0.109 A 
DOCKED: ATOM     13  C   UNL d   1       6.022  17.613   9.413 -0.12 -0.01    +0.193 A 
DOCKED: ATOM     14  C   UNL d   1       4.103  13.878   2.664 -0.43 -0.00    +0.026 C 
DOCKED: ATOM     15  C   UNL d   1       5.315  17.134   5.925 -0.23 -0.01    +0.055 C 
DOCKED: ATOM     16  C   UNL d   1       6.061  19.545   7.880 -0.04 -0.00    +0.026 C 
DOCKED: ATOM     17  C   UNL d   1       4.914  16.615   9.309 -0.11 -0.01    +0.109 A 
DOCKED: ATOM     18  C   UNL d   1       1.488  14.576   4.349 -0.18 -0.00    +0.050 C 
DOCKED: ATOM     19  C   UNL d   1       0.590  14.509   5.445 -0.09 -0.00    +0.045 A 
DOCKED: ATOM     20  C   UNL d   1       3.245  15.274  10.474 -0.07 +0.00    +0.045 A 
DOCKED: ATOM     21  C   UNL d   1       4.383  15.973  10.520 -0.15 +0.00    +0.057 C 
DOCKED: ATOM     22  C   UNL d   1       1.497  13.970  11.155 -0.22 +0.00    -0.019 A 
DOCKED: ATOM     23  C   UNL d   1       1.315  14.302   9.727 -0.22 -0.00    +0.045 A 
DOCKED: ATOM     24  C   UNL d   1       2.640  14.550  11.591 -0.16 +0.00    -0.022 A 
DOCKED: ATOM     25  C   UNL d   1       0.028  14.227   7.618 -0.22 -0.00    +0.049 A 
DOCKED: ATOM     26  C   UNL d   1      -0.795  14.508   5.508 -0.14 -0.00    -0.018 A 
DOCKED: ATOM     27  C   UNL d   1      -1.144  14.350   6.885 -0.18 +0.00    +0.003 A 
DOCKED: ATOM     28  C   UNL d   1       0.272  13.907   8.981 -0.28 -0.01    +0.052 C 
DOCKED: ATOM     29  C   UNL d   1       3.241  14.515  12.955 -0.12 -0.00    +0.046 C 
DOCKED: ATOM     30  C   UNL d   1      -1.739  14.648   4.362 -0.11 +0.00    +0.046 C 
DOCKED: ATOM     31  H   UNL d   1       2.553  15.543   8.525 +0.05 -0.01    +0.166 HD
DOCKED: ATOM     32  H   UNL d   1       2.054  14.318   6.956 +0.05 -0.02    +0.166 HD
DOCKED: ENDROOT
DOCKED: BRANCH   7  33
DOCKED: ATOM     33  C   UNL d   1       2.937  16.009   1.949 -0.23 -0.01    +0.141 C 
DOCKED: BRANCH  33  34
DOCKED: ATOM     34  C   UNL d   1       3.924  16.326   0.858 -0.23 -0.02    +0.306 C 
DOCKED: ATOM     35  O   UNL d   1       4.306  15.561  -0.011 -0.36 +0.02    -0.251 OA
DOCKED: BRANCH  34  36
DOCKED: ATOM     36  O   UNL d   1       4.374  17.591   0.918 -0.07 +0.01    -0.481 OA
DOCKED: ATOM     37  H   UNL d   1       4.909  17.624   1.740 +0.10 -0.01    +0.295 HD
DOCKED: ENDBRANCH  34  36
DOCKED: ENDBRANCH  33  34
DOCKED: ENDBRANCH   7  33
DOCKED: BRANCH  27  38
DOCKED: ATOM     38  C   UNL d   1      -2.480  14.281   7.395 -0.14 +0.00    +0.017 C 
DOCKED: ATOM     39  C   UNL d   1      -3.196  13.156   7.544 -0.12 +0.01    +0.092 C 
DOCKED: BRANCH  39  40
DOCKED: ATOM     40  C   UNL d   1      -4.551  13.221   8.096 -0.06 +0.06    +0.330 C 
DOCKED: ATOM     41  O   UNL d   1      -5.566  12.733   7.635 -0.10 -0.07    -0.246 OA
DOCKED: BRANCH  40  42
DOCKED: ATOM     42  O   UNL d   1      -4.550  13.914   9.245 -0.01 -0.05    -0.477 OA
DOCKED: ATOM     43  H   UNL d   1      -3.604  13.946   9.499 +0.05 +0.02    +0.295 HD
DOCKED: ENDBRANCH  40  42
DOCKED: ENDBRANCH  39  40
DOCKED: ENDBRANCH  27  38
DOCKED: BRANCH   8  44
DOCKED: ATOM     44  C   UNL d   1       7.854  17.770   7.718 -0.19 -0.02    +0.141 C 
DOCKED: BRANCH  44  45
DOCKED: ATOM     45  C   UNL d   1       8.762  18.026   8.891 -0.11 -0.03    +0.306 C 
DOCKED: ATOM     46  O   UNL d   1       9.480  17.213   9.446 -0.16 +0.03    -0.251 OA
DOCKED: BRANCH  45  47
DOCKED: ATOM     47  O   UNL d   1       8.696  19.298   9.325 -0.00 +0.03    -0.481 OA
DOCKED: ATOM     48  H   UNL d   1       8.060  19.273  10.071 +0.03 -0.01    +0.295 HD
DOCKED: ENDBRANCH  45  47
DOCKED: ENDBRANCH  44  45
DOCKED: ENDBRANCH   8  44
DOCKED: BRANCH  22  49
DOCKED: ATOM     49  C   UNL d   1       0.553  13.114  11.947 -0.23 -0.01    +0.048 C 
DOCKED: BRANCH  49  50
DOCKED: ATOM     50  C   UNL d   1      -0.827  13.758  12.076 -0.12 -0.01    +0.125 C 
DOCKED: BRANCH  50  51
DOCKED: ATOM     51  C   UNL d   1      -1.913  12.764  11.775 -0.12 -0.00    +0.305 C 
DOCKED: ATOM     52  O   UNL d   1      -2.237  11.794  12.437 -0.13 +0.00    -0.251 OA
DOCKED: BRANCH  51  53
DOCKED: ATOM     53  O   UNL d   1      -2.546  13.044  10.618 -0.08 -0.02    -0.481 OA
DOCKED: ATOM     54  H   UNL d   1      -3.489  12.863  10.812 +0.06 +0.02    +0.295 HD
DOCKED: ENDBRANCH  51  53
DOCKED: ENDBRANCH  50  51
DOCKED: ENDBRANCH  49  50
DOCKED: ENDBRANCH  22  49
DOCKED: TORSDOF 13
DOCKED: TER
DOCKED: ENDMDL
________________________________________________________________________________


	BEGINNING GENETIC ALGORITHM DOCKING 34 of 100
Run: 34 Seed: 1641274707 540607672 [ Run 34 of 100 GA/GALS ]
Beginning LAMARCKIAN GENETIC ALGORITHM (LGA), with a maximum of 25000000 energy evaluations.

Final-Value: -13.457


	FINAL GENETIC ALGORITHM DOCKED STATE
	_______________________________________________


Detailed state:  trans -4.847 0.074 -16.407 quatxyzw 0.281099 0.231241 -0.393747 -0.844082 center 0.153 0.018 -0.028 ntor 13 108.2210 178.3623 -178.6917 -73.8274 -133.8908 82.0805 -54.2518 -3.3011 30.0338 -136.8135 -71.4643 -125.1569 17.7089
State:	 -4.847   0.074 -16.407   0.524  0.431 -0.734 -64.853    108.22  178.36 -178.69  -73.83 -133.89   82.08  -54.25   -3.30   30.03 -136.81  -71.46 -125.16   17.71

DOCKED: MODEL       34
DOCKED: USER    Run = 34
DOCKED: USER    DPF = D:/Protein_go_brrr/autodock/final/AncA/heme/dock.dpf
DOCKED: USER  
DOCKED: USER    Estimated Free Energy of Binding    =   -5.07 kcal/mol  [=(1)+(2)+(3)-(4)]
DOCKED: USER    Estimated Inhibition Constant, Ki   =  192.97 uM (micromolar)  [Temperature = 298.15 K]
DOCKED: USER    
DOCKED: USER    (1) Final Intermolecular Energy     =   -8.95 kcal/mol
DOCKED: USER        vdW + Hbond + desolv Energy     =   -8.53 kcal/mol
DOCKED: USER        Electrostatic Energy            =   -0.42 kcal/mol
DOCKED: USER    (2) Final Total Internal Energy     =   -4.51 kcal/mol
DOCKED: USER    (3) Torsional Free Energy           =   +3.88 kcal/mol
DOCKED: USER    (4) Unbound System's Energy  [=(2)] =   -4.51 kcal/mol
DOCKED: USER    
DOCKED: USER    
DOCKED: USER    NEWDPF move heme_opt.pdbqt
DOCKED: USER    NEWDPF about 0.153000 0.018000 -0.028000
DOCKED: USER    NEWDPF tran0 -4.847426 0.074327 -16.406747
DOCKED: USER    NEWDPF quaternion0 0.281099 0.231241 -0.393747 -0.844082
DOCKED: USER    NEWDPF axisangle0 0.524229 0.431247 -0.734309 -64.852626
DOCKED: USER    NEWDPF quat0 0.524229 0.431247 -0.734309 -64.852626
DOCKED: USER    NEWDPF dihe0 108.22 178.36 -178.69 -73.83 -133.89 82.08 -54.25 -3.30 30.03 -136.81 -71.46 -125.16 17.71 
DOCKED: USER  keepresnum = 1 
DOCKED: USER  
DOCKED: REMARK  13 active torsions:
DOCKED: REMARK  status: ('A' for Active; 'I' for Inactive)
DOCKED: REMARK    1  A    between atoms: O_3  and  C_38 
DOCKED: REMARK    2  A    between atoms: O_4  and  C_40 
DOCKED: REMARK    3  A    between atoms: O_7  and  C_46 
DOCKED: REMARK    4  A    between atoms: O_9  and  C_48 
DOCKED: REMARK    5  A    between atoms: C_15  and  C_20 
DOCKED: REMARK    6  A    between atoms: C_16  and  C_23 
DOCKED: REMARK    7  A    between atoms: C_20  and  C_38 
DOCKED: REMARK    8  A    between atoms: C_23  and  C_40 
DOCKED: REMARK    9  A    between atoms: C_32  and  C_41 
DOCKED: REMARK   10  A    between atoms: C_37  and  C_45 
DOCKED: REMARK   11  A    between atoms: C_41  and  C_44 
DOCKED: REMARK   12  A    between atoms: C_44  and  C_46 
DOCKED: REMARK   13  A    between atoms: C_47  and  C_48 
DOCKED: USER                              x       y       z     vdW  Elec       q    Type
DOCKED: USER                           _______ _______ _______ _____ _____    ______ ____
DOCKED: ROOT
DOCKED: ATOM      1  O   UNL d   1      -6.667   3.547 -12.004 -0.32 -0.04    -0.289 OA
DOCKED: ATOM      2  O   UNL d   1     -10.514  -0.046 -17.359 -0.06 +0.13    -0.289 OA
DOCKED: ATOM      3  N   UNL d   1      -5.137   1.709 -14.489 -0.13 +0.01    -0.247 NA
DOCKED: ATOM      4  N   UNL d   1      -7.422   0.447 -15.910 -0.16 +0.05    -0.247 NA
DOCKED: ATOM      5  N   UNL d   1      -5.535  -1.293 -17.206 -0.08 +0.02    -0.354 N 
DOCKED: ATOM      6  N   UNL d   1      -3.173   0.009 -15.713 -0.08 +0.02    -0.354 N 
DOCKED: ATOM      7  C   UNL d   1      -4.366   2.867 -12.471 -0.29 +0.00    +0.084 A 
DOCKED: ATOM      8  C   UNL d   1      -9.575   1.599 -15.808 -0.18 -0.04    +0.084 A 
DOCKED: ATOM      9  C   UNL d   1      -8.113   1.503 -15.358 -0.25 -0.01    +0.058 A 
DOCKED: ATOM     10  C   UNL d   1      -4.039   2.019 -13.704 -0.22 -0.00    +0.058 A 
DOCKED: ATOM     11  C   UNL d   1      -5.840   2.997 -12.709 -0.25 +0.01    +0.193 A 
DOCKED: ATOM     12  C   UNL d   1      -6.180   2.275 -13.975 -0.25 -0.00    +0.109 A 
DOCKED: ATOM     13  C   UNL d   1      -9.595   0.381 -16.689 -0.12 -0.09    +0.193 A 
DOCKED: ATOM     14  C   UNL d   1      -4.140   2.097 -11.168 -0.56 +0.00    +0.026 C 
DOCKED: ATOM     15  C   UNL d   1      -7.572   2.344 -14.464 -0.28 -0.01    +0.055 C 
DOCKED: ATOM     16  C   UNL d   1      -9.822   2.837 -16.675 -0.08 -0.00    +0.026 C 
DOCKED: ATOM     17  C   UNL d   1      -8.232  -0.230 -16.659 -0.17 -0.03    +0.109 A 
DOCKED: ATOM     18  C   UNL d   1      -2.771   1.696 -14.019 -0.27 -0.00    +0.050 C 
DOCKED: ATOM     19  C   UNL d   1      -2.366   0.989 -15.180 -0.22 -0.00    +0.045 A 
DOCKED: ATOM     20  C   UNL d   1      -6.707  -1.893 -17.584 -0.19 -0.01    +0.045 A 
DOCKED: ATOM     21  C   UNL d   1      -7.962  -1.471 -17.400 -0.19 -0.01    +0.057 C 
DOCKED: ATOM     22  C   UNL d   1      -4.959  -3.206 -18.246 -0.30 +0.00    -0.019 A 
DOCKED: ATOM     23  C   UNL d   1      -4.425  -2.011 -17.562 -0.26 -0.00    +0.045 A 
DOCKED: ATOM     24  C   UNL d   1      -6.311  -3.129 -18.257 -0.26 +0.00    -0.022 A 
DOCKED: ATOM     25  C   UNL d   1      -2.550  -0.605 -16.775 -0.17 -0.00    +0.049 A 
DOCKED: ATOM     26  C   UNL d   1      -1.206   1.039 -15.937 -0.22 +0.00    -0.018 A 
DOCKED: ATOM     27  C   UNL d   1      -1.336   0.043 -16.955 -0.20 +0.00    +0.003 A 
DOCKED: ATOM     28  C   UNL d   1      -3.119  -1.753 -17.389 -0.21 -0.00    +0.052 C 
DOCKED: ATOM     29  C   UNL d   1      -7.294  -4.086 -18.841 -0.27 -0.01    +0.046 C 
DOCKED: ATOM     30  C   UNL d   1      -0.048   1.955 -15.732 -0.13 -0.00    +0.046 C 
DOCKED: ATOM     31  H   UNL d   1      -5.529  -0.372 -16.781 +0.06 -0.01    +0.166 HD
DOCKED: ATOM     32  H   UNL d   1      -4.079  -0.239 -15.334 +0.05 -0.01    +0.166 HD
DOCKED: ENDROOT
DOCKED: BRANCH   7  33
DOCKED: ATOM     33  C   UNL d   1      -3.704   4.249 -12.430 -0.18 +0.03    +0.141 C 
DOCKED: BRANCH  33  34
DOCKED: ATOM     34  C   UNL d   1      -4.391   5.247 -13.323 -0.08 +0.09    +0.306 C 
DOCKED: ATOM     35  O   UNL d   1      -4.256   5.346 -14.530 -0.03 -0.05    -0.251 OA
DOCKED: BRANCH  34  36
DOCKED: ATOM     36  O   UNL d   1      -5.214   6.067 -12.646 -0.06 -0.27    -0.481 OA
DOCKED: ATOM     37  H   UNL d   1      -5.993   5.511 -12.429 +0.10 +0.12    +0.295 HD
DOCKED: ENDBRANCH  34  36
DOCKED: ENDBRANCH  33  34
DOCKED: ENDBRANCH   7  33
DOCKED: BRANCH  27  38
DOCKED: ATOM     38  C   UNL d   1      -0.350  -0.253 -17.950 -0.17 +0.00    +0.017 C 
DOCKED: ATOM     39  C   UNL d   1       0.618  -1.175 -17.831 -0.20 -0.00    +0.092 C 
DOCKED: BRANCH  39  40
DOCKED: ATOM     40  C   UNL d   1       1.557  -1.394 -18.934 -0.06 -0.01    +0.330 C 
DOCKED: ATOM     41  O   UNL d   1       2.537  -0.732 -19.218 -0.06 -0.00    -0.246 OA
DOCKED: BRANCH  40  42
DOCKED: ATOM     42  O   UNL d   1       1.200  -2.481 -19.636 -0.02 +0.02    -0.477 OA
DOCKED: ATOM     43  H   UNL d   1       0.412  -2.818 -19.162 +0.11 -0.02    +0.295 HD
DOCKED: ENDBRANCH  40  42
DOCKED: ENDBRANCH  39  40
DOCKED: ENDBRANCH  27  38
DOCKED: BRANCH   8  44
DOCKED: ATOM     44  C   UNL d   1     -10.618   1.486 -14.692 -0.13 -0.13    +0.141 C 
DOCKED: BRANCH  44  45
DOCKED: ATOM     45  C   UNL d   1     -12.025   1.740 -15.166 -0.10 -0.22    +0.306 C 
DOCKED: ATOM     46  O   UNL d   1     -12.647   2.784 -15.068 -0.07 +0.09    -0.251 OA
DOCKED: BRANCH  45  47
DOCKED: ATOM     47  O   UNL d   1     -12.587   0.650 -15.717 -0.04 +0.49    -0.481 OA
DOCKED: ATOM     48  H   UNL d   1     -11.899  -0.045 -15.650 -0.42 -0.51    +0.295 HD
DOCKED: ENDBRANCH  45  47
DOCKED: ENDBRANCH  44  45
DOCKED: ENDBRANCH   8  44
DOCKED: BRANCH  22  49
DOCKED: ATOM     49  C   UNL d   1      -4.107  -4.307 -18.807 -0.20 -0.01    +0.048 C 
DOCKED: BRANCH  49  50
DOCKED: ATOM     50  C   UNL d   1      -3.247  -3.823 -19.973 -0.23 -0.03    +0.125 C 
DOCKED: BRANCH  50  51
DOCKED: ATOM     51  C   UNL d   1      -1.798  -3.762 -19.582 -0.18 -0.05    +0.305 C 
DOCKED: ATOM     52  O   UNL d   1      -1.323  -3.889 -18.467 -0.28 +0.05    -0.251 OA
DOCKED: BRANCH  51  53
DOCKED: ATOM     53  O   UNL d   1      -0.999  -3.526 -20.642 -0.01 +0.05    -0.481 OA
DOCKED: ATOM     54  H   UNL d   1      -0.727  -2.591 -20.532 +0.07 -0.02    +0.295 HD
DOCKED: ENDBRANCH  51  53
DOCKED: ENDBRANCH  50  51
DOCKED: ENDBRANCH  49  50
DOCKED: ENDBRANCH  22  49
DOCKED: TORSDOF 13
DOCKED: TER
DOCKED: ENDMDL
________________________________________________________________________________


	BEGINNING GENETIC ALGORITHM DOCKING 35 of 100
Run: 35 Seed: 527006465 594426304 [ Run 35 of 100 GA/GALS ]
Beginning LAMARCKIAN GENETIC ALGORITHM (LGA), with a maximum of 25000000 energy evaluations.

Final-Value: -12.549


	FINAL GENETIC ALGORITHM DOCKED STATE
	_______________________________________________


Detailed state:  trans -6.643 -0.337 -16.377 quatxyzw 0.135171 -0.220340 0.673596 -0.692421 center 0.153 0.018 -0.028 ntor 13 -179.4446 123.3536 176.9426 -178.0976 -159.9683 -179.7770 -53.2198 44.9753 3.5045 -128.7060 -70.1526 176.1883 19.8992
State:	 -6.643  -0.337 -16.377   0.187 -0.305  0.934 -92.356   -179.44  123.35  176.94 -178.10 -159.97 -179.78  -53.22   44.98    3.50 -128.71  -70.15  176.19   19.90

DOCKED: MODEL       35
DOCKED: USER    Run = 35
DOCKED: USER    DPF = D:/Protein_go_brrr/autodock/final/AncA/heme/dock.dpf
DOCKED: USER  
DOCKED: USER    Estimated Free Energy of Binding    =   -5.58 kcal/mol  [=(1)+(2)+(3)-(4)]
DOCKED: USER    Estimated Inhibition Constant, Ki   =   80.87 uM (micromolar)  [Temperature = 298.15 K]
DOCKED: USER    
DOCKED: USER    (1) Final Intermolecular Energy     =   -9.46 kcal/mol
DOCKED: USER        vdW + Hbond + desolv Energy     =   -9.34 kcal/mol
DOCKED: USER        Electrostatic Energy            =   -0.12 kcal/mol
DOCKED: USER    (2) Final Total Internal Energy     =   -3.09 kcal/mol
DOCKED: USER    (3) Torsional Free Energy           =   +3.88 kcal/mol
DOCKED: USER    (4) Unbound System's Energy  [=(2)] =   -3.09 kcal/mol
DOCKED: USER    
DOCKED: USER    
DOCKED: USER    NEWDPF move heme_opt.pdbqt
DOCKED: USER    NEWDPF about 0.153000 0.018000 -0.028000
DOCKED: USER    NEWDPF tran0 -6.643329 -0.337088 -16.377030
DOCKED: USER    NEWDPF quaternion0 0.135171 -0.220340 0.673596 -0.692421
DOCKED: USER    NEWDPF axisangle0 0.187349 -0.305395 0.933614 -92.355847
DOCKED: USER    NEWDPF quat0 0.187349 -0.305395 0.933614 -92.355847
DOCKED: USER    NEWDPF dihe0 -179.44 123.35 176.94 -178.10 -159.97 -179.78 -53.22 44.98 3.50 -128.71 -70.15 176.19 19.90 
DOCKED: USER  keepresnum = 1 
DOCKED: USER  
DOCKED: REMARK  13 active torsions:
DOCKED: REMARK  status: ('A' for Active; 'I' for Inactive)
DOCKED: REMARK    1  A    between atoms: O_3  and  C_38 
DOCKED: REMARK    2  A    between atoms: O_4  and  C_40 
DOCKED: REMARK    3  A    between atoms: O_7  and  C_46 
DOCKED: REMARK    4  A    between atoms: O_9  and  C_48 
DOCKED: REMARK    5  A    between atoms: C_15  and  C_20 
DOCKED: REMARK    6  A    between atoms: C_16  and  C_23 
DOCKED: REMARK    7  A    between atoms: C_20  and  C_38 
DOCKED: REMARK    8  A    between atoms: C_23  and  C_40 
DOCKED: REMARK    9  A    between atoms: C_32  and  C_41 
DOCKED: REMARK   10  A    between atoms: C_37  and  C_45 
DOCKED: REMARK   11  A    between atoms: C_41  and  C_44 
DOCKED: REMARK   12  A    between atoms: C_44  and  C_46 
DOCKED: REMARK   13  A    between atoms: C_47  and  C_48 
DOCKED: USER                              x       y       z     vdW  Elec       q    Type
DOCKED: USER                           _______ _______ _______ _____ _____    ______ ____
DOCKED: ROOT
DOCKED: ATOM      1  O   UNL d   1      -8.374  -5.456 -18.735 -0.26 +0.15    -0.289 OA
DOCKED: ATOM      2  O   UNL d   1      -1.628  -2.164 -18.508 -0.13 +0.02    -0.289 OA
DOCKED: ATOM      3  N   UNL d   1      -7.859  -2.344 -17.340 -0.13 +0.05    -0.247 NA
DOCKED: ATOM      4  N   UNL d   1      -4.906  -2.030 -17.440 -0.17 +0.02    -0.247 NA
DOCKED: ATOM      5  N   UNL d   1      -5.175   0.200 -15.645 -0.07 +0.02    -0.354 N 
DOCKED: ATOM      6  N   UNL d   1      -8.236  -0.145 -15.531 -0.20 +0.15    -0.354 N 
DOCKED: ATOM      7  C   UNL d   1      -9.763  -3.881 -17.484 -0.18 -0.03    +0.084 A 
DOCKED: ATOM      8  C   UNL d   1      -3.708  -3.272 -19.170 -0.23 -0.02    +0.084 A 
DOCKED: ATOM      9  C   UNL d   1      -5.022  -2.964 -18.445 -0.26 -0.01    +0.058 A 
DOCKED: ATOM     10  C   UNL d   1      -9.186  -2.549 -16.997 -0.19 -0.02    +0.058 A 
DOCKED: ATOM     11  C   UNL d   1      -8.534  -4.385 -18.179 -0.19 -0.06    +0.193 A 
DOCKED: ATOM     12  C   UNL d   1      -7.458  -3.353 -18.042 -0.22 -0.02    +0.109 A 
DOCKED: ATOM     13  C   UNL d   1      -2.818  -2.367 -18.366 -0.16 -0.02    +0.193 A 
DOCKED: ATOM     14  C   UNL d   1     -10.097  -4.821 -16.323 -0.32 -0.01    +0.026 C 
DOCKED: ATOM     15  C   UNL d   1      -6.174  -3.591 -18.732 -0.24 -0.01    +0.055 C 
DOCKED: ATOM     16  C   UNL d   1      -3.731  -2.779 -20.620 -0.11 -0.00    +0.026 C 
DOCKED: ATOM     17  C   UNL d   1      -3.664  -1.677 -17.346 -0.19 -0.00    +0.109 A 
DOCKED: ATOM     18  C   UNL d   1      -9.953  -1.637 -16.371 -0.26 -0.04    +0.050 C 
DOCKED: ATOM     19  C   UNL d   1      -9.528  -0.347 -15.961 -0.28 -0.03    +0.045 A 
DOCKED: ATOM     20  C   UNL d   1      -3.813   0.049 -15.630 -0.21 -0.00    +0.045 A 
DOCKED: ATOM     21  C   UNL d   1      -3.051  -0.754 -16.379 -0.08 -0.00    +0.057 C 
DOCKED: ATOM     22  C   UNL d   1      -4.400   1.609 -14.068 -0.26 +0.00    -0.019 A 
DOCKED: ATOM     23  C   UNL d   1      -5.623   1.120 -14.735 -0.24 -0.00    +0.045 A 
DOCKED: ATOM     24  C   UNL d   1      -3.331   0.972 -14.603 -0.25 +0.00    -0.022 A 
DOCKED: ATOM     25  C   UNL d   1      -8.068   1.150 -15.098 -0.31 -0.02    +0.049 A 
DOCKED: ATOM     26  C   UNL d   1     -10.207   0.856 -15.839 -0.21 +0.01    -0.018 A 
DOCKED: ATOM     27  C   UNL d   1      -9.274   1.802 -15.312 -0.25 -0.00    +0.003 A 
DOCKED: ATOM     28  C   UNL d   1      -6.863   1.555 -14.462 -0.32 -0.01    +0.052 C 
DOCKED: ATOM     29  C   UNL d   1      -1.887   1.131 -14.271 -0.37 -0.00    +0.046 C 
DOCKED: ATOM     30  C   UNL d   1     -11.632   1.114 -16.192 -0.13 -0.03    +0.046 C 
DOCKED: ATOM     31  H   UNL d   1      -5.750  -0.279 -16.330 +0.06 -0.01    +0.166 HD
DOCKED: ATOM     32  H   UNL d   1      -7.534  -0.874 -15.506 +0.07 -0.04    +0.166 HD
DOCKED: ENDROOT
DOCKED: BRANCH   7  33
DOCKED: ATOM     33  C   UNL d   1     -10.931  -3.770 -18.471 -0.06 -0.04    +0.141 C 
DOCKED: BRANCH  33  34
DOCKED: ATOM     34  C   UNL d   1     -10.625  -2.860 -19.629 -0.00 -0.08    +0.306 C 
DOCKED: ATOM     35  O   UNL d   1     -11.064  -1.734 -19.797 -0.00 +0.05    -0.251 OA
DOCKED: BRANCH  34  36
DOCKED: ATOM     36  O   UNL d   1      -9.779  -3.415 -20.516 +0.00 +0.17    -0.481 OA
DOCKED: ATOM     37  H   UNL d   1      -9.558  -4.290 -20.131 +0.06 -0.15    +0.295 HD
DOCKED: ENDBRANCH  34  36
DOCKED: ENDBRANCH  33  34
DOCKED: ENDBRANCH   7  33
DOCKED: BRANCH  27  38
DOCKED: ATOM     38  C   UNL d   1      -9.567   3.172 -15.015 -0.21 -0.00    +0.017 C 
DOCKED: ATOM     39  C   UNL d   1     -10.750   3.635 -14.583 -0.16 -0.02    +0.092 C 
DOCKED: BRANCH  39  40
DOCKED: ATOM     40  C   UNL d   1     -10.916   5.062 -14.298 -0.07 -0.03    +0.330 C 
DOCKED: ATOM     41  O   UNL d   1     -11.924   5.636 -13.933 -0.12 +0.02    -0.246 OA
DOCKED: BRANCH  40  42
DOCKED: ATOM     42  O   UNL d   1      -9.755   5.709 -14.488 -0.10 -0.02    -0.477 OA
DOCKED: ATOM     43  H   UNL d   1      -9.128   5.244 -13.897 +0.06 +0.06    +0.295 HD
DOCKED: ENDBRANCH  40  42
DOCKED: ENDBRANCH  39  40
DOCKED: ENDBRANCH  27  38
DOCKED: BRANCH   8  44
DOCKED: ATOM     44  C   UNL d   1      -3.232  -4.726 -19.086 -0.13 -0.06    +0.141 C 
DOCKED: BRANCH  44  45
DOCKED: ATOM     45  C   UNL d   1      -1.918  -4.962 -19.781 -0.24 -0.10    +0.306 C 
DOCKED: ATOM     46  O   UNL d   1      -1.761  -5.399 -20.908 -0.19 +0.08    -0.251 OA
DOCKED: BRANCH  45  47
DOCKED: ATOM     47  O   UNL d   1      -0.863  -4.659 -19.005 -0.12 +0.09    -0.481 OA
DOCKED: ATOM     48  H   UNL d   1      -1.256  -4.293 -18.184 -0.09 -0.08    +0.295 HD
DOCKED: ENDBRANCH  45  47
DOCKED: ENDBRANCH  44  45
DOCKED: ENDBRANCH   8  44
DOCKED: BRANCH  22  49
DOCKED: ATOM     49  C   UNL d   1      -4.390   2.631 -12.970 -0.32 +0.00    +0.048 C 
DOCKED: BRANCH  49  50
DOCKED: ATOM     50  C   UNL d   1      -4.914   3.985 -13.448 -0.17 +0.02    +0.125 C 
DOCKED: BRANCH  50  51
DOCKED: ATOM     51  C   UNL d   1      -6.244   4.296 -12.825 -0.21 +0.07    +0.305 C 
DOCKED: ATOM     52  O   UNL d   1      -6.601   4.067 -11.682 -0.41 -0.04    -0.251 OA
DOCKED: BRANCH  51  53
DOCKED: ATOM     53  O   UNL d   1      -7.085   4.885 -13.698 -0.65 -0.14    -0.481 OA
DOCKED: ATOM     54  H   UNL d   1      -6.574   4.922 -14.533 +0.07 +0.05    +0.295 HD
DOCKED: ENDBRANCH  51  53
DOCKED: ENDBRANCH  50  51
DOCKED: ENDBRANCH  49  50
DOCKED: ENDBRANCH  22  49
DOCKED: TORSDOF 13
DOCKED: TER
DOCKED: ENDMDL
________________________________________________________________________________


	BEGINNING GENETIC ALGORITHM DOCKING 36 of 100
Run: 36 Seed: 403724907 278013475 [ Run 36 of 100 GA/GALS ]
Beginning LAMARCKIAN GENETIC ALGORITHM (LGA), with a maximum of 25000000 energy evaluations.

Final-Value: -11.549


	FINAL GENETIC ALGORITHM DOCKED STATE
	_______________________________________________


Detailed state:  trans -12.041 -13.551 -1.672 quatxyzw 0.833615 -0.103477 0.393041 -0.374028 center 0.153 0.018 -0.028 ntor 13 -179.9373 -75.8987 175.0871 -96.3995 -155.4465 76.6770 -53.6869 -162.5623 7.8198 -149.6319 60.7663 57.4995 -179.3320
State:	-12.041 -13.551  -1.672   0.899 -0.112  0.424 -136.072   -179.94  -75.90  175.09  -96.40 -155.45   76.68  -53.69 -162.56    7.82 -149.63   60.77   57.50 -179.33

DOCKED: MODEL       36
DOCKED: USER    Run = 36
DOCKED: USER    DPF = D:/Protein_go_brrr/autodock/final/AncA/heme/dock.dpf
DOCKED: USER  
DOCKED: USER    Estimated Free Energy of Binding    =   -5.35 kcal/mol  [=(1)+(2)+(3)-(4)]
DOCKED: USER    Estimated Inhibition Constant, Ki   =  120.29 uM (micromolar)  [Temperature = 298.15 K]
DOCKED: USER    
DOCKED: USER    (1) Final Intermolecular Energy     =   -9.23 kcal/mol
DOCKED: USER        vdW + Hbond + desolv Energy     =   -8.80 kcal/mol
DOCKED: USER        Electrostatic Energy            =   -0.43 kcal/mol
DOCKED: USER    (2) Final Total Internal Energy     =   -2.32 kcal/mol
DOCKED: USER    (3) Torsional Free Energy           =   +3.88 kcal/mol
DOCKED: USER    (4) Unbound System's Energy  [=(2)] =   -2.32 kcal/mol
DOCKED: USER    
DOCKED: USER    
DOCKED: USER    NEWDPF move heme_opt.pdbqt
DOCKED: USER    NEWDPF about 0.153000 0.018000 -0.028000
DOCKED: USER    NEWDPF tran0 -12.040939 -13.551315 -1.672186
DOCKED: USER    NEWDPF quaternion0 0.833615 -0.103477 0.393041 -0.374028
DOCKED: USER    NEWDPF axisangle0 0.898856 -0.111575 0.423802 -136.071559
DOCKED: USER    NEWDPF quat0 0.898856 -0.111575 0.423802 -136.071559
DOCKED: USER    NEWDPF dihe0 -179.94 -75.90 175.09 -96.40 -155.45 76.68 -53.69 -162.56 7.82 -149.63 60.77 57.50 -179.33 
DOCKED: USER  keepresnum = 1 
DOCKED: USER  
DOCKED: REMARK  13 active torsions:
DOCKED: REMARK  status: ('A' for Active; 'I' for Inactive)
DOCKED: REMARK    1  A    between atoms: O_3  and  C_38 
DOCKED: REMARK    2  A    between atoms: O_4  and  C_40 
DOCKED: REMARK    3  A    between atoms: O_7  and  C_46 
DOCKED: REMARK    4  A    between atoms: O_9  and  C_48 
DOCKED: REMARK    5  A    between atoms: C_15  and  C_20 
DOCKED: REMARK    6  A    between atoms: C_16  and  C_23 
DOCKED: REMARK    7  A    between atoms: C_20  and  C_38 
DOCKED: REMARK    8  A    between atoms: C_23  and  C_40 
DOCKED: REMARK    9  A    between atoms: C_32  and  C_41 
DOCKED: REMARK   10  A    between atoms: C_37  and  C_45 
DOCKED: REMARK   11  A    between atoms: C_41  and  C_44 
DOCKED: REMARK   12  A    between atoms: C_44  and  C_46 
DOCKED: REMARK   13  A    between atoms: C_47  and  C_48 
DOCKED: USER                              x       y       z     vdW  Elec       q    Type
DOCKED: USER                           _______ _______ _______ _____ _____    ______ ____
DOCKED: ROOT
DOCKED: ATOM      1  O   UNL d   1     -16.212 -15.870  -5.134 -0.00 -0.04    -0.289 OA
DOCKED: ATOM      2  O   UNL d   1     -12.472  -9.375  -5.597 -0.37 -0.02    -0.289 OA
DOCKED: ATOM      3  N   UNL d   1     -13.919 -14.861  -2.763 -0.10 -0.04    -0.247 NA
DOCKED: ATOM      4  N   UNL d   1     -12.771 -12.383  -3.934 -0.16 -0.03    -0.247 NA
DOCKED: ATOM      5  N   UNL d   1     -10.677 -12.535  -1.969 -0.09 -0.12    -0.354 N 
DOCKED: ATOM      6  N   UNL d   1     -11.864 -15.117  -0.773 -0.08 -0.10    -0.354 N 
DOCKED: ATOM      7  C   UNL d   1     -15.215 -16.904  -3.156 -0.02 +0.01    +0.084 A 
DOCKED: ATOM      8  C   UNL d   1     -14.170 -11.135  -5.500 -0.27 +0.00    +0.084 A 
DOCKED: ATOM      9  C   UNL d   1     -13.959 -12.378  -4.630 -0.20 +0.00    +0.058 A 
DOCKED: ATOM     10  C   UNL d   1     -14.191 -16.142  -2.310 -0.09 +0.01    +0.058 A 
DOCKED: ATOM     11  C   UNL d   1     -15.487 -15.822  -4.157 -0.01 +0.03    +0.193 A 
DOCKED: ATOM     12  C   UNL d   1     -14.661 -14.626  -3.796 -0.08 +0.02    +0.109 A 
DOCKED: ATOM     13  C   UNL d   1     -12.866 -10.453  -5.198 -0.30 +0.00    +0.193 A 
DOCKED: ATOM     14  C   UNL d   1     -14.587 -18.100  -3.878 -0.01 +0.01    +0.026 C 
DOCKED: ATOM     15  C   UNL d   1     -14.834 -13.395  -4.593 -0.13 +0.01    +0.055 C 
DOCKED: ATOM     16  C   UNL d   1     -15.315 -10.262  -4.975 -0.36 -0.00    +0.026 C 
DOCKED: ATOM     17  C   UNL d   1     -12.107 -11.316  -4.243 -0.30 +0.01    +0.109 A 
DOCKED: ATOM     18  C   UNL d   1     -13.685 -16.665  -1.178 -0.10 +0.01    +0.050 C 
DOCKED: ATOM     19  C   UNL d   1     -12.800 -16.002  -0.289 -0.12 +0.01    +0.045 A 
DOCKED: ATOM     20  C   UNL d   1     -10.177 -11.542  -2.770 -0.29 +0.01    +0.045 A 
DOCKED: ATOM     21  C   UNL d   1     -10.763 -10.920  -3.798 -0.38 +0.01    +0.057 C 
DOCKED: ATOM     22  C   UNL d   1      -8.598 -12.105  -1.218 -0.26 -0.01    -0.019 A 
DOCKED: ATOM     23  C   UNL d   1      -9.796 -12.941  -1.003 -0.21 +0.02    +0.045 A 
DOCKED: ATOM     24  C   UNL d   1      -8.830 -11.277  -2.265 -0.30 -0.01    -0.022 A 
DOCKED: ATOM     25  C   UNL d   1     -11.057 -14.663   0.244 -0.03 +0.02    +0.049 A 
DOCKED: ATOM     26  C   UNL d   1     -12.621 -16.098   1.082 -0.10 -0.00    -0.018 A 
DOCKED: ATOM     27  C   UNL d   1     -11.532 -15.235   1.416 -0.10 +0.00    +0.003 A 
DOCKED: ATOM     28  C   UNL d   1      -9.918 -13.860  -0.032 -0.18 +0.03    +0.052 C 
DOCKED: ATOM     29  C   UNL d   1      -7.932 -10.244  -2.854 -0.24 +0.02    +0.046 C 
DOCKED: ATOM     30  C   UNL d   1     -13.414 -16.937   2.027 -0.11 +0.01    +0.046 C 
DOCKED: ATOM     31  H   UNL d   1     -11.636 -12.854  -2.063 +0.06 +0.04    +0.166 HD
DOCKED: ATOM     32  H   UNL d   1     -11.772 -14.878  -1.753 +0.03 +0.05    +0.166 HD
DOCKED: ENDROOT
DOCKED: BRANCH   7  33
DOCKED: ATOM     33  C   UNL d   1     -16.504 -17.301  -2.428 -0.02 +0.02    +0.141 C 
DOCKED: BRANCH  33  34
DOCKED: ATOM     34  C   UNL d   1     -17.203 -16.122  -1.807 -0.04 +0.04    +0.306 C 
DOCKED: ATOM     35  O   UNL d   1     -17.175 -15.807  -0.629 -0.10 -0.04    -0.251 OA
DOCKED: BRANCH  34  36
DOCKED: ATOM     36  O   UNL d   1     -17.900 -15.401  -2.703 -0.00 -0.06    -0.481 OA
DOCKED: ATOM     37  H   UNL d   1     -17.722 -15.838  -3.563 +0.03 +0.04    +0.295 HD
DOCKED: ENDBRANCH  34  36
DOCKED: ENDBRANCH  33  34
DOCKED: ENDBRANCH   7  33
DOCKED: BRANCH  27  38
DOCKED: ATOM     38  C   UNL d   1     -11.004 -15.045   2.733 -0.20 +0.01    +0.017 C 
DOCKED: ATOM     39  C   UNL d   1     -11.472 -14.172   3.637 -0.26 +0.04    +0.092 C 
DOCKED: BRANCH  39  40
DOCKED: ATOM     40  C   UNL d   1     -10.851 -14.087   4.962 -0.18 +0.15    +0.330 C 
DOCKED: ATOM     41  O   UNL d   1      -9.782 -13.583   5.251 -0.25 -0.12    -0.246 OA
DOCKED: BRANCH  40  42
DOCKED: ATOM     42  O   UNL d   1     -11.645 -14.656   5.882 -0.66 -0.24    -0.477 OA
DOCKED: ATOM     43  H   UNL d   1     -11.215 -15.517   6.063 +0.08 +0.11    +0.295 HD
DOCKED: ENDBRANCH  40  42
DOCKED: ENDBRANCH  39  40
DOCKED: ENDBRANCH  27  38
DOCKED: BRANCH   8  44
DOCKED: ATOM     44  C   UNL d   1     -14.317 -11.397  -7.003 -0.23 -0.00    +0.141 C 
DOCKED: BRANCH  44  45
DOCKED: ATOM     45  C   UNL d   1     -14.966 -10.259  -7.744 -0.18 -0.01    +0.306 C 
DOCKED: ATOM     46  O   UNL d   1     -16.140 -10.173  -8.061 -0.10 -0.01    -0.251 OA
DOCKED: BRANCH  45  47
DOCKED: ATOM     47  O   UNL d   1     -14.089  -9.292  -8.073 -0.14 +0.08    -0.481 OA
DOCKED: ATOM     48  H   UNL d   1     -13.250  -9.562  -7.643 -0.34 -0.10    +0.295 HD
DOCKED: ENDBRANCH  45  47
DOCKED: ENDBRANCH  44  45
DOCKED: ENDBRANCH   8  44
DOCKED: BRANCH  22  49
DOCKED: ATOM     49  C   UNL d   1      -7.345 -12.201  -0.398 -0.15 +0.04    +0.048 C 
DOCKED: BRANCH  49  50
DOCKED: ATOM     50  C   UNL d   1      -6.286 -13.069  -1.078 -0.24 +0.18    +0.125 C 
DOCKED: BRANCH  50  51
DOCKED: ATOM     51  C   UNL d   1      -5.950 -14.265  -0.233 -0.11 +0.59    +0.305 C 
DOCKED: ATOM     52  O   UNL d   1      -5.027 -15.046  -0.384 -0.64 -0.56    -0.251 OA
DOCKED: BRANCH  51  53
DOCKED: ATOM     53  O   UNL d   1      -6.824 -14.428   0.780 -0.22 -0.92    -0.481 OA
DOCKED: ATOM     54  H   UNL d   1      -7.575 -14.908   0.372 +0.07 +0.37    +0.295 HD
DOCKED: ENDBRANCH  51  53
DOCKED: ENDBRANCH  50  51
DOCKED: ENDBRANCH  49  50
DOCKED: ENDBRANCH  22  49
DOCKED: TORSDOF 13
DOCKED: TER
DOCKED: ENDMDL
________________________________________________________________________________


	BEGINNING GENETIC ALGORITHM DOCKING 37 of 100
Run: 37 Seed: 1331629019 799911449 [ Run 37 of 100 GA/GALS ]
Beginning LAMARCKIAN GENETIC ALGORITHM (LGA), with a maximum of 25000000 energy evaluations.

Final-Value: -11.908


	FINAL GENETIC ALGORITHM DOCKED STATE
	_______________________________________________


Detailed state:  trans 13.664 -3.472 -14.114 quatxyzw -0.125700 0.972171 0.197506 0.008617 center 0.153 0.018 -0.028 ntor 13 -134.9715 145.3087 -164.6363 163.6549 31.1932 88.0322 138.2060 135.5545 109.3305 -8.8409 100.1543 -97.1943 172.9360
State:	 13.664  -3.472 -14.114  -0.126  0.972  0.198 179.012   -134.97  145.31 -164.64  163.65   31.19   88.03  138.21  135.55  109.33   -8.84  100.15  -97.19  172.94

DOCKED: MODEL       37
DOCKED: USER    Run = 37
DOCKED: USER    DPF = D:/Protein_go_brrr/autodock/final/AncA/heme/dock.dpf
DOCKED: USER  
DOCKED: USER    Estimated Free Energy of Binding    =   -5.57 kcal/mol  [=(1)+(2)+(3)-(4)]
DOCKED: USER    Estimated Inhibition Constant, Ki   =   82.67 uM (micromolar)  [Temperature = 298.15 K]
DOCKED: USER    
DOCKED: USER    (1) Final Intermolecular Energy     =   -9.45 kcal/mol
DOCKED: USER        vdW + Hbond + desolv Energy     =   -8.85 kcal/mol
DOCKED: USER        Electrostatic Energy            =   -0.60 kcal/mol
DOCKED: USER    (2) Final Total Internal Energy     =   -2.46 kcal/mol
DOCKED: USER    (3) Torsional Free Energy           =   +3.88 kcal/mol
DOCKED: USER    (4) Unbound System's Energy  [=(2)] =   -2.46 kcal/mol
DOCKED: USER    
DOCKED: USER    
DOCKED: USER    NEWDPF move heme_opt.pdbqt
DOCKED: USER    NEWDPF about 0.153000 0.018000 -0.028000
DOCKED: USER    NEWDPF tran0 13.664130 -3.471670 -14.114270
DOCKED: USER    NEWDPF quaternion0 -0.125700 0.972171 0.197506 0.008617
DOCKED: USER    NEWDPF axisangle0 -0.125704 0.972207 0.197513 179.012502
DOCKED: USER    NEWDPF quat0 -0.125704 0.972207 0.197513 179.012502
DOCKED: USER    NEWDPF dihe0 -134.97 145.31 -164.64 163.65 31.19 88.03 138.21 135.55 109.33 -8.84 100.15 -97.19 172.94 
DOCKED: USER  keepresnum = 1 
DOCKED: USER  
DOCKED: REMARK  13 active torsions:
DOCKED: REMARK  status: ('A' for Active; 'I' for Inactive)
DOCKED: REMARK    1  A    between atoms: O_3  and  C_38 
DOCKED: REMARK    2  A    between atoms: O_4  and  C_40 
DOCKED: REMARK    3  A    between atoms: O_7  and  C_46 
DOCKED: REMARK    4  A    between atoms: O_9  and  C_48 
DOCKED: REMARK    5  A    between atoms: C_15  and  C_20 
DOCKED: REMARK    6  A    between atoms: C_16  and  C_23 
DOCKED: REMARK    7  A    between atoms: C_20  and  C_38 
DOCKED: REMARK    8  A    between atoms: C_23  and  C_40 
DOCKED: REMARK    9  A    between atoms: C_32  and  C_41 
DOCKED: REMARK   10  A    between atoms: C_37  and  C_45 
DOCKED: REMARK   11  A    between atoms: C_41  and  C_44 
DOCKED: REMARK   12  A    between atoms: C_44  and  C_46 
DOCKED: REMARK   13  A    between atoms: C_47  and  C_48 
DOCKED: USER                              x       y       z     vdW  Elec       q    Type
DOCKED: USER                           _______ _______ _______ _____ _____    ______ ____
DOCKED: ROOT
DOCKED: ATOM      1  O   UNL d   1      18.647  -0.330 -13.875 -0.06 +0.03    -0.289 OA
DOCKED: ATOM      2  O   UNL d   1      17.510  -7.731 -14.443 -0.02 -0.02    -0.289 OA
DOCKED: ATOM      3  N   UNL d   1      15.502  -1.744 -13.843 -0.13 +0.08    -0.247 NA
DOCKED: ATOM      4  N   UNL d   1      16.036  -4.611 -14.415 -0.07 +0.04    -0.247 NA
DOCKED: ATOM      5  N   UNL d   1      13.221  -4.942 -14.902 +0.05 +0.07    -0.354 N 
DOCKED: ATOM      6  N   UNL d   1      12.679  -1.963 -14.325 -0.07 +0.04    -0.354 N 
DOCKED: ATOM      7  C   UNL d   1      16.366   0.549 -13.880 -0.15 -0.01    +0.084 A 
DOCKED: ATOM      8  C   UNL d   1      18.234  -5.483 -13.801 -0.06 +0.00    +0.084 A 
DOCKED: ATOM      9  C   UNL d   1      17.284  -4.288 -13.933 -0.13 -0.00    +0.058 A 
DOCKED: ATOM     10  C   UNL d   1      15.165  -0.401 -13.868 -0.21 -0.01    +0.058 A 
DOCKED: ATOM     11  C   UNL d   1      17.441  -0.495 -13.838 -0.07 -0.05    +0.193 A 
DOCKED: ATOM     12  C   UNL d   1      16.790  -1.842 -13.791 -0.11 -0.03    +0.109 A 
DOCKED: ATOM     13  C   UNL d   1      17.306  -6.538 -14.333 -0.05 +0.01    +0.193 A 
DOCKED: ATOM     14  C   UNL d   1      16.476   1.320 -15.198 -0.12 +0.00    +0.026 C 
DOCKED: ATOM     15  C   UNL d   1      17.657  -3.030 -13.651 -0.14 -0.01    +0.055 C 
DOCKED: ATOM     16  C   UNL d   1      18.550  -5.798 -12.336 -0.09 +0.00    +0.026 C 
DOCKED: ATOM     17  C   UNL d   1      16.009  -5.878 -14.676 -0.13 -0.00    +0.109 A 
DOCKED: ATOM     18  C   UNL d   1      13.903   0.062 -13.797 -0.30 -0.00    +0.050 C 
DOCKED: ATOM     19  C   UNL d   1      12.737  -0.740 -13.697 -0.25 -0.00    +0.045 A 
DOCKED: ATOM     20  C   UNL d   1      13.682  -6.154 -15.348 -0.19 -0.00    +0.045 A 
DOCKED: ATOM     21  C   UNL d   1      14.915  -6.664 -15.264 -0.17 -0.00    +0.057 C 
DOCKED: ATOM     22  C   UNL d   1      11.459  -5.981 -15.844 -0.24 +0.00    -0.019 A 
DOCKED: ATOM     23  C   UNL d   1      11.890  -4.747 -15.157 -0.27 -0.00    +0.045 A 
DOCKED: ATOM     24  C   UNL d   1      12.524  -6.810 -15.953 -0.17 +0.00    -0.022 A 
DOCKED: ATOM     25  C   UNL d   1      11.433  -2.526 -14.174 -0.25 -0.00    +0.049 A 
DOCKED: ATOM     26  C   UNL d   1      11.510  -0.518 -13.090 -0.32 -0.00    -0.018 A 
DOCKED: ATOM     27  C   UNL d   1      10.697  -1.658 -13.378 -0.35 +0.00    +0.003 A 
DOCKED: ATOM     28  C   UNL d   1      11.082  -3.717 -14.865 -0.31 -0.00    +0.052 C 
DOCKED: ATOM     29  C   UNL d   1      12.588  -8.172 -16.557 -0.12 -0.00    +0.046 C 
DOCKED: ATOM     30  C   UNL d   1      11.115   0.676 -12.290 -0.47 +0.00    +0.046 C 
DOCKED: ATOM     31  H   UNL d   1      13.817  -4.317 -14.370 -0.52 -0.11    +0.166 HD
DOCKED: ATOM     32  H   UNL d   1      13.447  -2.357 -14.856 -0.05 -0.03    +0.166 HD
DOCKED: ENDROOT
DOCKED: BRANCH   7  33
DOCKED: ATOM     33  C   UNL d   1      16.476   1.484 -12.671 -0.16 -0.01    +0.141 C 
DOCKED: BRANCH  33  34
DOCKED: ATOM     34  C   UNL d   1      17.881   1.973 -12.443 -0.13 +0.08    +0.306 C 
DOCKED: ATOM     35  O   UNL d   1      18.403   2.936 -12.977 -0.08 -0.06    -0.251 OA
DOCKED: BRANCH  34  36
DOCKED: ATOM     36  O   UNL d   1      18.552   1.223 -11.551 -0.08 -0.27    -0.481 OA
DOCKED: ATOM     37  H   UNL d   1      18.322   0.298 -11.784 -0.21 -0.09    +0.295 HD
DOCKED: ENDBRANCH  34  36
DOCKED: ENDBRANCH  33  34
DOCKED: ENDBRANCH   7  33
DOCKED: BRANCH  27  38
DOCKED: ATOM     38  C   UNL d   1       9.342  -1.834 -12.952 -0.42 +0.00    +0.017 C 
DOCKED: ATOM     39  C   UNL d   1       8.287  -1.988 -13.767 -0.35 -0.00    +0.092 C 
DOCKED: BRANCH  39  40
DOCKED: ATOM     40  C   UNL d   1       6.949  -2.177 -13.202 -0.33 -0.05    +0.330 C 
DOCKED: ATOM     41  O   UNL d   1       6.159  -1.319 -12.857 -0.38 +0.02    -0.246 OA
DOCKED: BRANCH  40  42
DOCKED: ATOM     42  O   UNL d   1       6.668  -3.486 -13.108 -0.15 +0.17    -0.477 OA
DOCKED: ATOM     43  H   UNL d   1       7.106  -3.877 -13.892 -0.34 -0.27    +0.295 HD
DOCKED: ENDBRANCH  40  42
DOCKED: ENDBRANCH  39  40
DOCKED: ENDBRANCH  27  38
DOCKED: BRANCH   8  44
DOCKED: ATOM     44  C   UNL d   1      19.514  -5.405 -14.640 -0.01 +0.01    +0.141 C 
DOCKED: BRANCH  44  45
DOCKED: ATOM     45  C   UNL d   1      19.250  -5.270 -16.116 +0.00 +0.01    +0.306 C 
DOCKED: ATOM     46  O   UNL d   1      19.190  -4.231 -16.751 -0.00 -0.01    -0.251 OA
DOCKED: BRANCH  45  47
DOCKED: ATOM     47  O   UNL d   1      19.046  -6.458 -16.713 +0.00 -0.03    -0.481 OA
DOCKED: ATOM     48  H   UNL d   1      18.893  -7.084 -15.974 +0.01 +0.02    +0.295 HD
DOCKED: ENDBRANCH  45  47
DOCKED: ENDBRANCH  44  45
DOCKED: ENDBRANCH   8  44
DOCKED: BRANCH  22  49
DOCKED: ATOM     49  C   UNL d   1      10.064  -6.226 -16.339 -0.06 -0.01    +0.048 C 
DOCKED: BRANCH  49  50
DOCKED: ATOM     50  C   UNL d   1       9.873  -5.730 -17.772 -0.08 -0.02    +0.125 C 
DOCKED: BRANCH  50  51
DOCKED: ATOM     51  C   UNL d   1       9.674  -4.241 -17.802 -0.04 -0.05    +0.305 C 
DOCKED: ATOM     52  O   UNL d   1      10.263  -3.427 -18.491 -0.01 +0.01    -0.251 OA
DOCKED: BRANCH  51  53
DOCKED: ATOM     53  O   UNL d   1       8.727  -3.841 -16.930 -0.02 +0.20    -0.481 OA
DOCKED: ATOM     54  H   UNL d   1       8.240  -4.663 -16.714 -0.47 -0.26    +0.295 HD
DOCKED: ENDBRANCH  51  53
DOCKED: ENDBRANCH  50  51
DOCKED: ENDBRANCH  49  50
DOCKED: ENDBRANCH  22  49
DOCKED: TORSDOF 13
DOCKED: TER
DOCKED: ENDMDL
________________________________________________________________________________


	BEGINNING GENETIC ALGORITHM DOCKING 38 of 100
Run: 38 Seed: 1621354451 1111359906 [ Run 38 of 100 GA/GALS ]
Beginning LAMARCKIAN GENETIC ALGORITHM (LGA), with a maximum of 25000000 energy evaluations.

Final-Value: -11.075


	FINAL GENETIC ALGORITHM DOCKED STATE
	_______________________________________________


Detailed state:  trans -11.606 10.098 -3.899 quatxyzw -0.476657 -0.594901 -0.410195 -0.500630 center 0.153 0.018 -0.028 ntor 13 106.6543 -165.1356 -64.3563 -46.5175 -142.0203 -61.4407 4.8273 2.9543 49.6314 139.0153 -82.6692 22.2158 -7.3685
State:	-11.606  10.098  -3.899  -0.551 -0.687 -0.474 -119.917    106.65 -165.14  -64.36  -46.52 -142.02  -61.44    4.83    2.95   49.63  139.02  -82.67   22.22   -7.37

DOCKED: MODEL       38
DOCKED: USER    Run = 38
DOCKED: USER    DPF = D:/Protein_go_brrr/autodock/final/AncA/heme/dock.dpf
DOCKED: USER  
DOCKED: USER    Estimated Free Energy of Binding    =   -3.43 kcal/mol  [=(1)+(2)+(3)-(4)]
DOCKED: USER    Estimated Inhibition Constant, Ki   =    3.06 mM (millimolar)  [Temperature = 298.15 K]
DOCKED: USER    
DOCKED: USER    (1) Final Intermolecular Energy     =   -7.31 kcal/mol
DOCKED: USER        vdW + Hbond + desolv Energy     =   -6.98 kcal/mol
DOCKED: USER        Electrostatic Energy            =   -0.33 kcal/mol
DOCKED: USER    (2) Final Total Internal Energy     =   -3.77 kcal/mol
DOCKED: USER    (3) Torsional Free Energy           =   +3.88 kcal/mol
DOCKED: USER    (4) Unbound System's Energy  [=(2)] =   -3.77 kcal/mol
DOCKED: USER    
DOCKED: USER    
DOCKED: USER    NEWDPF move heme_opt.pdbqt
DOCKED: USER    NEWDPF about 0.153000 0.018000 -0.028000
DOCKED: USER    NEWDPF tran0 -11.606087 10.097876 -3.898572
DOCKED: USER    NEWDPF quaternion0 -0.476657 -0.594901 -0.410195 -0.500630
DOCKED: USER    NEWDPF axisangle0 -0.550627 -0.687222 -0.473851 -119.916579
DOCKED: USER    NEWDPF quat0 -0.550627 -0.687222 -0.473851 -119.916579
DOCKED: USER    NEWDPF dihe0 106.65 -165.14 -64.36 -46.52 -142.02 -61.44 4.83 2.95 49.63 139.02 -82.67 22.22 -7.37 
DOCKED: USER  keepresnum = 1 
DOCKED: USER  
DOCKED: REMARK  13 active torsions:
DOCKED: REMARK  status: ('A' for Active; 'I' for Inactive)
DOCKED: REMARK    1  A    between atoms: O_3  and  C_38 
DOCKED: REMARK    2  A    between atoms: O_4  and  C_40 
DOCKED: REMARK    3  A    between atoms: O_7  and  C_46 
DOCKED: REMARK    4  A    between atoms: O_9  and  C_48 
DOCKED: REMARK    5  A    between atoms: C_15  and  C_20 
DOCKED: REMARK    6  A    between atoms: C_16  and  C_23 
DOCKED: REMARK    7  A    between atoms: C_20  and  C_38 
DOCKED: REMARK    8  A    between atoms: C_23  and  C_40 
DOCKED: REMARK    9  A    between atoms: C_32  and  C_41 
DOCKED: REMARK   10  A    between atoms: C_37  and  C_45 
DOCKED: REMARK   11  A    between atoms: C_41  and  C_44 
DOCKED: REMARK   12  A    between atoms: C_44  and  C_46 
DOCKED: REMARK   13  A    between atoms: C_47  and  C_48 
DOCKED: USER                              x       y       z     vdW  Elec       q    Type
DOCKED: USER                           _______ _______ _______ _____ _____    ______ ____
DOCKED: ROOT
DOCKED: ATOM      1  O   UNL d   1      -9.838  10.199  -9.522 -0.03 -0.04    -0.289 OA
DOCKED: ATOM      2  O   UNL d   1     -15.904   7.145  -6.316 -0.15 -0.00    -0.289 OA
DOCKED: ATOM      3  N   UNL d   1     -10.393  10.279  -6.119 -0.11 +0.05    -0.247 NA
DOCKED: ATOM      4  N   UNL d   1     -13.117   9.124  -5.843 -0.04 +0.00    -0.247 NA
DOCKED: ATOM      5  N   UNL d   1     -13.156  10.098  -3.138 -0.10 +0.03    -0.354 N 
DOCKED: ATOM      6  N   UNL d   1     -10.337  11.310  -3.439 -0.08 +0.08    -0.354 N 
DOCKED: ATOM      7  C   UNL d   1      -8.727  11.263  -7.623 -0.05 -0.00    +0.084 A 
DOCKED: ATOM      8  C   UNL d   1     -13.863   7.590  -7.592 -0.19 +0.01    +0.084 A 
DOCKED: ATOM      9  C   UNL d   1     -12.807   8.567  -7.063 -0.18 +0.00    +0.058 A 
DOCKED: ATOM     10  C   UNL d   1      -9.268  11.083  -6.202 -0.11 -0.01    +0.058 A 
DOCKED: ATOM     11  C   UNL d   1      -9.734  10.404  -8.326 -0.04 +0.01    +0.193 A 
DOCKED: ATOM     12  C   UNL d   1     -10.674   9.844  -7.304 -0.13 -0.01    +0.109 A 
DOCKED: ATOM     13  C   UNL d   1     -14.846   7.725  -6.464 -0.16 +0.01    +0.193 A 
DOCKED: ATOM     14  C   UNL d   1      -8.875  12.705  -8.115 -0.01 +0.00    +0.026 C 
DOCKED: ATOM     15  C   UNL d   1     -11.703   8.887  -7.756 -0.20 +0.00    +0.055 C 
DOCKED: ATOM     16  C   UNL d   1     -13.341   6.150  -7.621 -0.37 +0.00    +0.026 C 
DOCKED: ATOM     17  C   UNL d   1     -14.279   8.690  -5.474 -0.14 +0.00    +0.109 A 
DOCKED: ATOM     18  C   UNL d   1      -8.630  11.599  -5.135 -0.12 -0.01    +0.050 C 
DOCKED: ATOM     19  C   UNL d   1      -9.008  11.414  -3.781 -0.09 -0.01    +0.045 A 
DOCKED: ATOM     20  C   UNL d   1     -14.465   9.714  -3.269 -0.22 -0.00    +0.045 A 
DOCKED: ATOM     21  C   UNL d   1     -15.048   9.054  -4.275 -0.24 -0.00    +0.057 C 
DOCKED: ATOM     22  C   UNL d   1     -14.210  10.798  -1.275 -0.19 +0.00    -0.019 A 
DOCKED: ATOM     23  C   UNL d   1     -12.905  10.761  -1.966 -0.16 -0.00    +0.045 A 
DOCKED: ATOM     24  C   UNL d   1     -15.128  10.176  -2.050 -0.19 +0.00    -0.022 A 
DOCKED: ATOM     25  C   UNL d   1     -10.480  11.228  -2.073 -0.16 -0.01    +0.049 A 
DOCKED: ATOM     26  C   UNL d   1      -8.266  11.361  -2.611 -0.14 +0.00    -0.018 A 
DOCKED: ATOM     27  C   UNL d   1      -9.200  11.223  -1.538 -0.17 -0.00    +0.003 A 
DOCKED: ATOM     28  C   UNL d   1     -11.767  11.269  -1.471 -0.08 -0.00    +0.052 C 
DOCKED: ATOM     29  C   UNL d   1     -16.577   9.948  -1.780 -0.16 -0.00    +0.046 C 
DOCKED: ATOM     30  C   UNL d   1      -6.781  11.431  -2.495 -0.17 -0.01    +0.046 C 
DOCKED: ATOM     31  H   UNL d   1     -12.458   9.830  -3.823 +0.05 -0.02    +0.166 HD
DOCKED: ATOM     32  H   UNL d   1     -11.093  11.335  -4.113 +0.02 -0.03    +0.166 HD
DOCKED: ENDROOT
DOCKED: BRANCH   7  33
DOCKED: ATOM     33  C   UNL d   1      -7.309  10.732  -7.858 -0.12 +0.01    +0.141 C 
DOCKED: BRANCH  33  34
DOCKED: ATOM     34  C   UNL d   1      -7.299   9.357  -8.468 -0.10 +0.11    +0.306 C 
DOCKED: ATOM     35  O   UNL d   1      -7.333   8.299  -7.862 -0.29 +0.04    -0.251 OA
DOCKED: BRANCH  34  36
DOCKED: ATOM     36  O   UNL d   1      -7.251   9.386  -9.812 -0.32 -0.59    -0.481 OA
DOCKED: ATOM     37  H   UNL d   1      -8.160   9.632 -10.086 +0.07 +0.17    +0.295 HD
DOCKED: ENDBRANCH  34  36
DOCKED: ENDBRANCH  33  34
DOCKED: ENDBRANCH   7  33
DOCKED: BRANCH  27  38
DOCKED: ATOM     38  C   UNL d   1      -8.856  11.146  -0.150 -0.18 -0.00    +0.017 C 
DOCKED: ATOM     39  C   UNL d   1      -9.158  10.125   0.667 -0.13 +0.01    +0.092 C 
DOCKED: BRANCH  39  40
DOCKED: ATOM     40  C   UNL d   1      -8.731  10.161   2.069 -0.12 +0.05    +0.330 C 
DOCKED: ATOM     41  O   UNL d   1      -7.594  10.173   2.499 -0.16 -0.05    -0.246 OA
DOCKED: BRANCH  40  42
DOCKED: ATOM     42  O   UNL d   1      -9.802  10.191   2.877 -0.05 -0.06    -0.477 OA
DOCKED: ATOM     43  H   UNL d   1     -10.545   9.937   2.291 -0.11 +0.01    +0.295 HD
DOCKED: ENDBRANCH  40  42
DOCKED: ENDBRANCH  39  40
DOCKED: ENDBRANCH  27  38
DOCKED: BRANCH   8  44
DOCKED: ATOM     44  C   UNL d   1     -14.506   7.973  -8.930 -0.07 +0.01    +0.141 C 
DOCKED: BRANCH  44  45
DOCKED: ATOM     45  C   UNL d   1     -13.762   7.434 -10.122 -0.07 +0.02    +0.306 C 
DOCKED: ATOM     46  O   UNL d   1     -12.552   7.368 -10.255 -0.20 -0.02    -0.251 OA
DOCKED: BRANCH  45  47
DOCKED: ATOM     47  O   UNL d   1     -14.587   7.031 -11.105 -0.01 -0.01    -0.481 OA
DOCKED: ATOM     48  H   UNL d   1     -14.403   7.642 -11.850 +0.03 +0.01    +0.295 HD
DOCKED: ENDBRANCH  45  47
DOCKED: ENDBRANCH  44  45
DOCKED: ENDBRANCH   8  44
DOCKED: BRANCH  22  49
DOCKED: ATOM     49  C   UNL d   1     -14.437  11.445   0.060 -0.14 -0.00    +0.048 C 
DOCKED: BRANCH  49  50
DOCKED: ATOM     50  C   UNL d   1     -14.237  10.461   1.211 -0.20 +0.00    +0.125 C 
DOCKED: BRANCH  50  51
DOCKED: ATOM     51  C   UNL d   1     -12.866  10.605   1.808 -0.04 +0.00    +0.305 C 
DOCKED: ATOM     52  O   UNL d   1     -11.967  11.339   1.436 -0.10 -0.01    -0.251 OA
DOCKED: BRANCH  51  53
DOCKED: ATOM     53  O   UNL d   1     -12.686   9.786   2.864 -0.10 +0.04    -0.481 OA
DOCKED: ATOM     54  H   UNL d   1     -11.814   9.372   2.698 -0.45 -0.09    +0.295 HD
DOCKED: ENDBRANCH  51  53
DOCKED: ENDBRANCH  50  51
DOCKED: ENDBRANCH  49  50
DOCKED: ENDBRANCH  22  49
DOCKED: TORSDOF 13
DOCKED: TER
DOCKED: ENDMDL
________________________________________________________________________________


	BEGINNING GENETIC ALGORITHM DOCKING 39 of 100
Run: 39 Seed: 1729437941 2089726932 [ Run 39 of 100 GA/GALS ]
Beginning LAMARCKIAN GENETIC ALGORITHM (LGA), with a maximum of 25000000 energy evaluations.

Final-Value: -11.271


	FINAL GENETIC ALGORITHM DOCKED STATE
	_______________________________________________


Detailed state:  trans 8.288 -5.317 -16.666 quatxyzw -0.782335 0.564563 -0.118060 -0.235121 center 0.153 0.018 -0.028 ntor 13 50.8901 -37.2811 -132.0957 -179.7806 39.3737 113.4616 -32.5074 92.9011 -119.0479 111.2562 -58.7914 33.2807 -55.0667
State:	  8.288  -5.317 -16.666  -0.805  0.581 -0.121 -152.803     50.89  -37.28 -132.10 -179.78   39.37  113.46  -32.51   92.90 -119.05  111.26  -58.79   33.28  -55.07

DOCKED: MODEL       39
DOCKED: USER    Run = 39
DOCKED: USER    DPF = D:/Protein_go_brrr/autodock/final/AncA/heme/dock.dpf
DOCKED: USER  
DOCKED: USER    Estimated Free Energy of Binding    =   -6.62 kcal/mol  [=(1)+(2)+(3)-(4)]
DOCKED: USER    Estimated Inhibition Constant, Ki   =   14.15 uM (micromolar)  [Temperature = 298.15 K]
DOCKED: USER    
DOCKED: USER    (1) Final Intermolecular Energy     =  -10.49 kcal/mol
DOCKED: USER        vdW + Hbond + desolv Energy     =   -9.91 kcal/mol
DOCKED: USER        Electrostatic Energy            =   -0.58 kcal/mol
DOCKED: USER    (2) Final Total Internal Energy     =   -0.78 kcal/mol
DOCKED: USER    (3) Torsional Free Energy           =   +3.88 kcal/mol
DOCKED: USER    (4) Unbound System's Energy  [=(2)] =   -0.78 kcal/mol
DOCKED: USER    
DOCKED: USER    
DOCKED: USER    NEWDPF move heme_opt.pdbqt
DOCKED: USER    NEWDPF about 0.153000 0.018000 -0.028000
DOCKED: USER    NEWDPF tran0 8.287686 -5.316940 -16.666417
DOCKED: USER    NEWDPF quaternion0 -0.782335 0.564563 -0.118060 -0.235121
DOCKED: USER    NEWDPF axisangle0 -0.804900 0.580847 -0.121465 -152.802513
DOCKED: USER    NEWDPF quat0 -0.804900 0.580847 -0.121465 -152.802513
DOCKED: USER    NEWDPF dihe0 50.89 -37.28 -132.10 -179.78 39.37 113.46 -32.51 92.90 -119.05 111.26 -58.79 33.28 -55.07 
DOCKED: USER  keepresnum = 1 
DOCKED: USER  
DOCKED: REMARK  13 active torsions:
DOCKED: REMARK  status: ('A' for Active; 'I' for Inactive)
DOCKED: REMARK    1  A    between atoms: O_3  and  C_38 
DOCKED: REMARK    2  A    between atoms: O_4  and  C_40 
DOCKED: REMARK    3  A    between atoms: O_7  and  C_46 
DOCKED: REMARK    4  A    between atoms: O_9  and  C_48 
DOCKED: REMARK    5  A    between atoms: C_15  and  C_20 
DOCKED: REMARK    6  A    between atoms: C_16  and  C_23 
DOCKED: REMARK    7  A    between atoms: C_20  and  C_38 
DOCKED: REMARK    8  A    between atoms: C_23  and  C_40 
DOCKED: REMARK    9  A    between atoms: C_32  and  C_41 
DOCKED: REMARK   10  A    between atoms: C_37  and  C_45 
DOCKED: REMARK   11  A    between atoms: C_41  and  C_44 
DOCKED: REMARK   12  A    between atoms: C_44  and  C_46 
DOCKED: REMARK   13  A    between atoms: C_47  and  C_48 
DOCKED: USER                              x       y       z     vdW  Elec       q    Type
DOCKED: USER                           _______ _______ _______ _____ _____    ______ ____
DOCKED: ROOT
DOCKED: ATOM      1  O   UNL d   1       5.303  -0.323 -17.618 -0.06 -0.03    -0.289 OA
DOCKED: ATOM      2  O   UNL d   1      10.699  -1.972 -12.663 -0.52 -0.02    -0.289 OA
DOCKED: ATOM      3  N   UNL d   1       6.682  -3.471 -17.336 +0.01 +0.23    -0.247 NA
DOCKED: ATOM      4  N   UNL d   1       8.884  -3.080 -15.380 -0.06 +0.08    -0.247 NA
DOCKED: ATOM      5  N   UNL d   1       9.897  -5.661 -16.144 -0.02 +0.08    -0.354 N 
DOCKED: ATOM      6  N   UNL d   1       7.620  -6.050 -18.185 -0.09 +0.16    -0.354 N 
DOCKED: ATOM      7  C   UNL d   1       5.090  -2.412 -18.869 -0.10 -0.02    +0.084 A 
DOCKED: ATOM      8  C   UNL d   1       8.652  -1.241 -13.788 -0.24 +0.01    +0.084 A 
DOCKED: ATOM      9  C   UNL d   1       8.122  -1.994 -15.013 -0.20 -0.01    +0.058 A 
DOCKED: ATOM     10  C   UNL d   1       5.883  -3.654 -18.452 -0.11 -0.04    +0.058 A 
DOCKED: ATOM     11  C   UNL d   1       5.569  -1.500 -17.780 -0.08 -0.03    +0.193 A 
DOCKED: ATOM     12  C   UNL d   1       6.508  -2.266 -16.901 -0.13 -0.05    +0.109 A 
DOCKED: ATOM     13  C   UNL d   1       9.876  -2.080 -13.550 -0.25 +0.01    +0.193 A 
DOCKED: ATOM     14  C   UNL d   1       5.556  -1.859 -20.219 -0.03 -0.00    +0.026 C 
DOCKED: ATOM     15  C   UNL d   1       7.039  -1.594 -15.698 -0.23 -0.01    +0.055 C 
DOCKED: ATOM     16  C   UNL d   1       7.715  -1.385 -12.585 -0.39 +0.00    +0.026 C 
DOCKED: ATOM     17  C   UNL d   1       9.904  -3.156 -14.587 -0.26 -0.01    +0.109 A 
DOCKED: ATOM     18  C   UNL d   1       5.724  -4.833 -19.082 -0.15 -0.03    +0.050 C 
DOCKED: ATOM     19  C   UNL d   1       6.349  -6.052 -18.715 -0.14 -0.03    +0.045 A 
DOCKED: ATOM     20  C   UNL d   1      10.943  -5.214 -15.381 -0.30 -0.01    +0.045 A 
DOCKED: ATOM     21  C   UNL d   1      11.021  -4.111 -14.629 -0.38 -0.00    +0.057 C 
DOCKED: ATOM     22  C   UNL d   1      11.545  -7.178 -16.380 -0.17 +0.00    -0.019 A 
DOCKED: ATOM     23  C   UNL d   1      10.166  -6.840 -16.787 -0.14 -0.00    +0.045 A 
DOCKED: ATOM     24  C   UNL d   1      11.999  -6.212 -15.547 -0.21 +0.00    -0.022 A 
DOCKED: ATOM     25  C   UNL d   1       8.063  -7.337 -17.988 -0.10 -0.01    +0.049 A 
DOCKED: ATOM     26  C   UNL d   1       5.943  -7.373 -18.831 -0.16 +0.01    -0.018 A 
DOCKED: ATOM     27  C   UNL d   1       7.022  -8.178 -18.352 -0.15 -0.00    +0.003 A 
DOCKED: ATOM     28  C   UNL d   1       9.405  -7.593 -17.596 -0.13 -0.00    +0.052 C 
DOCKED: ATOM     29  C   UNL d   1      13.322  -6.113 -14.867 -0.15 -0.00    +0.046 C 
DOCKED: ATOM     30  C   UNL d   1       4.633  -7.859 -19.352 -0.20 -0.00    +0.046 C 
DOCKED: ATOM     31  H   UNL d   1       9.003  -5.182 -16.143 -0.50 -0.11    +0.166 HD
DOCKED: ATOM     32  H   UNL d   1       8.152  -5.206 -18.011 -0.01 -0.07    +0.166 HD
DOCKED: ENDROOT
DOCKED: BRANCH   7  33
DOCKED: ATOM     33  C   UNL d   1       3.565  -2.557 -18.818 -0.16 -0.03    +0.141 C 
DOCKED: BRANCH  33  34
DOCKED: ATOM     34  C   UNL d   1       3.032  -3.450 -19.905 -0.08 -0.04    +0.306 C 
DOCKED: ATOM     35  O   UNL d   1       2.813  -4.646 -19.812 -0.15 +0.04    -0.251 OA
DOCKED: BRANCH  34  36
DOCKED: ATOM     36  O   UNL d   1       2.798  -2.788 -21.052 +0.01 +0.01    -0.481 OA
DOCKED: ATOM     37  H   UNL d   1       1.896  -3.066 -21.318 +0.04 -0.01    +0.295 HD
DOCKED: ENDBRANCH  34  36
DOCKED: ENDBRANCH  33  34
DOCKED: ENDBRANCH   7  33
DOCKED: BRANCH  27  38
DOCKED: ATOM     38  C   UNL d   1       7.027  -9.610 -18.310 -0.13 +0.00    +0.017 C 
DOCKED: ATOM     39  C   UNL d   1       6.975 -10.351 -17.193 -0.20 +0.03    +0.092 C 
DOCKED: BRANCH  39  40
DOCKED: ATOM     40  C   UNL d   1       6.969 -11.814 -17.287 -0.07 +0.17    +0.330 C 
DOCKED: ATOM     41  O   UNL d   1       7.847 -12.584 -16.947 -0.05 -0.07    -0.246 OA
DOCKED: BRANCH  40  42
DOCKED: ATOM     42  O   UNL d   1       5.811 -12.238 -17.816 -0.52 -0.65    -0.477 OA
DOCKED: ATOM     43  H   UNL d   1       6.074 -12.994 -18.380 +0.04 +0.26    +0.295 HD
DOCKED: ENDBRANCH  40  42
DOCKED: ENDBRANCH  39  40
DOCKED: ENDBRANCH  27  38
DOCKED: BRANCH   8  44
DOCKED: ATOM     44  C   UNL d   1       9.029   0.225 -14.025 -0.22 +0.04    +0.141 C 
DOCKED: BRANCH  44  45
DOCKED: ATOM     45  C   UNL d   1       7.867   1.074 -14.466 -0.08 +0.25    +0.306 C 
DOCKED: ATOM     46  O   UNL d   1       7.370   1.104 -15.578 -0.55 -0.28    -0.251 OA
DOCKED: BRANCH  45  47
DOCKED: ATOM     47  O   UNL d   1       7.405   1.866 -13.481 -0.54 -0.43    -0.481 OA
DOCKED: ATOM     48  H   UNL d   1       8.209   2.275 -13.095 -0.37 +0.16    +0.295 HD
DOCKED: ENDBRANCH  45  47
DOCKED: ENDBRANCH  44  45
DOCKED: ENDBRANCH   8  44
DOCKED: BRANCH  22  49
DOCKED: ATOM     49  C   UNL d   1      12.288  -8.393 -16.851 -0.11 -0.00    +0.048 C 
DOCKED: BRANCH  49  50
DOCKED: ATOM     50  C   UNL d   1      13.078  -9.051 -15.719 -0.09 -0.00    +0.125 C 
DOCKED: BRANCH  50  51
DOCKED: ATOM     51  C   UNL d   1      12.656 -10.481 -15.531 -0.08 +0.03    +0.305 C 
DOCKED: ATOM     52  O   UNL d   1      13.083 -11.463 -16.112 -0.04 -0.03    -0.251 OA
DOCKED: BRANCH  51  53
DOCKED: ATOM     53  O   UNL d   1      11.685 -10.603 -14.605 -0.47 -0.09    -0.481 OA
DOCKED: ATOM     54  H   UNL d   1      11.526  -9.684 -14.304 -0.46 -0.03    +0.295 HD
DOCKED: ENDBRANCH  51  53
DOCKED: ENDBRANCH  50  51
DOCKED: ENDBRANCH  49  50
DOCKED: ENDBRANCH  22  49
DOCKED: TORSDOF 13
DOCKED: TER
DOCKED: ENDMDL
________________________________________________________________________________


	BEGINNING GENETIC ALGORITHM DOCKING 40 of 100
Run: 40 Seed: 2045652039 1139918721 [ Run 40 of 100 GA/GALS ]
Beginning LAMARCKIAN GENETIC ALGORITHM (LGA), with a maximum of 25000000 energy evaluations.

Final-Value: -11.001


	FINAL GENETIC ALGORITHM DOCKED STATE
	_______________________________________________


Detailed state:  trans -2.651 -0.594 -17.494 quatxyzw -0.272575 0.371107 -0.834318 0.303142 center 0.153 0.018 -0.028 ntor 13 149.6145 -35.1239 -123.1458 -180.0000 -140.0623 -158.5303 122.2291 104.3614 15.9805 -22.9890 51.0631 -8.8606 20.8315
State:	 -2.651  -0.594 -17.494  -0.286  0.389 -0.876 144.707    149.61  -35.12 -123.15 -180.00 -140.06 -158.53  122.23  104.36   15.98  -22.99   51.06   -8.86   20.83

DOCKED: MODEL       40
DOCKED: USER    Run = 40
DOCKED: USER    DPF = D:/Protein_go_brrr/autodock/final/AncA/heme/dock.dpf
DOCKED: USER  
DOCKED: USER    Estimated Free Energy of Binding    =   -4.46 kcal/mol  [=(1)+(2)+(3)-(4)]
DOCKED: USER    Estimated Inhibition Constant, Ki   =  534.94 uM (micromolar)  [Temperature = 298.15 K]
DOCKED: USER    
DOCKED: USER    (1) Final Intermolecular Energy     =   -8.34 kcal/mol
DOCKED: USER        vdW + Hbond + desolv Energy     =   -7.80 kcal/mol
DOCKED: USER        Electrostatic Energy            =   -0.54 kcal/mol
DOCKED: USER    (2) Final Total Internal Energy     =   -2.66 kcal/mol
DOCKED: USER    (3) Torsional Free Energy           =   +3.88 kcal/mol
DOCKED: USER    (4) Unbound System's Energy  [=(2)] =   -2.66 kcal/mol
DOCKED: USER    
DOCKED: USER    
DOCKED: USER    NEWDPF move heme_opt.pdbqt
DOCKED: USER    NEWDPF about 0.153000 0.018000 -0.028000
DOCKED: USER    NEWDPF tran0 -2.650951 -0.594001 -17.494344
DOCKED: USER    NEWDPF quaternion0 -0.272575 0.371107 -0.834318 0.303142
DOCKED: USER    NEWDPF axisangle0 -0.286034 0.389432 -0.875515 144.707129
DOCKED: USER    NEWDPF quat0 -0.286034 0.389432 -0.875515 144.707129
DOCKED: USER    NEWDPF dihe0 149.61 -35.12 -123.15 -180.00 -140.06 -158.53 122.23 104.36 15.98 -22.99 51.06 -8.86 20.83 
DOCKED: USER  keepresnum = 1 
DOCKED: USER  
DOCKED: REMARK  13 active torsions:
DOCKED: REMARK  status: ('A' for Active; 'I' for Inactive)
DOCKED: REMARK    1  A    between atoms: O_3  and  C_38 
DOCKED: REMARK    2  A    between atoms: O_4  and  C_40 
DOCKED: REMARK    3  A    between atoms: O_7  and  C_46 
DOCKED: REMARK    4  A    between atoms: O_9  and  C_48 
DOCKED: REMARK    5  A    between atoms: C_15  and  C_20 
DOCKED: REMARK    6  A    between atoms: C_16  and  C_23 
DOCKED: REMARK    7  A    between atoms: C_20  and  C_38 
DOCKED: REMARK    8  A    between atoms: C_23  and  C_40 
DOCKED: REMARK    9  A    between atoms: C_32  and  C_41 
DOCKED: REMARK   10  A    between atoms: C_37  and  C_45 
DOCKED: REMARK   11  A    between atoms: C_41  and  C_44 
DOCKED: REMARK   12  A    between atoms: C_44  and  C_46 
DOCKED: REMARK   13  A    between atoms: C_47  and  C_48 
DOCKED: USER                              x       y       z     vdW  Elec       q    Type
DOCKED: USER                           _______ _______ _______ _____ _____    ______ ____
DOCKED: ROOT
DOCKED: ATOM      1  O   UNL d   1       0.048  -3.719 -21.702 -0.02 +0.02    -0.289 OA
DOCKED: ATOM      2  O   UNL d   1       2.192   2.459 -18.010 -0.05 -0.04    -0.289 OA
DOCKED: ATOM      3  N   UNL d   1      -1.955  -2.141 -19.380 -0.06 +0.02    -0.247 NA
DOCKED: ATOM      4  N   UNL d   1      -0.180  -0.035 -18.265 -0.06 -0.00    -0.247 NA
DOCKED: ATOM      5  N   UNL d   1      -2.086   0.317 -16.142 -0.08 +0.00    -0.354 N 
DOCKED: ATOM      6  N   UNL d   1      -3.912  -1.882 -17.294 -0.12 +0.02    -0.354 N 
DOCKED: ATOM      7  C   UNL d   1      -2.110  -4.220 -20.669 -0.17 -0.02    +0.084 A 
DOCKED: ATOM      8  C   UNL d   1       1.627   0.776 -19.696 -0.04 +0.01    +0.084 A 
DOCKED: ATOM      9  C   UNL d   1       0.476  -0.207 -19.464 -0.05 +0.00    +0.058 A 
DOCKED: ATOM     10  C   UNL d   1      -2.720  -3.266 -19.638 -0.20 -0.01    +0.058 A 
DOCKED: ATOM     11  C   UNL d   1      -0.874  -3.425 -20.963 -0.05 -0.02    +0.193 A 
DOCKED: ATOM     12  C   UNL d   1      -0.909  -2.175 -20.139 -0.06 -0.01    +0.109 A 
DOCKED: ATOM     13  C   UNL d   1       1.527   1.515 -18.391 -0.04 +0.02    +0.193 A 
DOCKED: ATOM     14  C   UNL d   1      -1.702  -5.557 -20.045 -0.34 -0.01    +0.026 C 
DOCKED: ATOM     15  C   UNL d   1       0.169  -1.184 -20.332 -0.05 -0.00    +0.055 C 
DOCKED: ATOM     16  C   UNL d   1       1.320   1.750 -20.838 -0.01 +0.00    +0.026 C 
DOCKED: ATOM     17  C   UNL d   1       0.398   0.922 -17.613 -0.09 +0.00    +0.109 A 
DOCKED: ATOM     18  C   UNL d   1      -3.940  -3.486 -19.112 -0.31 -0.01    +0.050 C 
DOCKED: ATOM     19  C   UNL d   1      -4.619  -2.619 -18.218 -0.26 -0.00    +0.045 A 
DOCKED: ATOM     20  C   UNL d   1      -1.053   1.078 -15.660 -0.24 -0.00    +0.045 A 
DOCKED: ATOM     21  C   UNL d   1       0.089   1.420 -16.265 -0.09 -0.00    +0.057 C 
DOCKED: ATOM     22  C   UNL d   1      -2.671   0.928 -14.054 -0.34 +0.00    -0.019 A 
DOCKED: ATOM     23  C   UNL d   1      -3.109   0.170 -15.243 -0.22 -0.00    +0.045 A 
DOCKED: ATOM     24  C   UNL d   1      -1.453   1.464 -14.307 -0.32 +0.00    -0.022 A 
DOCKED: ATOM     25  C   UNL d   1      -4.769  -1.185 -16.475 -0.22 -0.00    +0.049 A 
DOCKED: ATOM     26  C   UNL d   1      -5.967  -2.366 -18.018 -0.23 +0.00    -0.018 A 
DOCKED: ATOM     27  C   UNL d   1      -6.055  -1.445 -16.929 -0.16 -0.00    +0.003 A 
DOCKED: ATOM     28  C   UNL d   1      -4.281  -0.475 -15.345 -0.10 -0.00    +0.052 C 
DOCKED: ATOM     29  C   UNL d   1      -0.608   2.318 -13.424 -0.31 -0.00    +0.046 C 
DOCKED: ATOM     30  C   UNL d   1      -7.105  -2.942 -18.790 -0.20 -0.01    +0.046 C 
DOCKED: ATOM     31  H   UNL d   1      -2.091  -0.016 -17.099 +0.06 -0.00    +0.166 HD
DOCKED: ATOM     32  H   UNL d   1      -2.902  -1.898 -17.219 +0.08 -0.00    +0.166 HD
DOCKED: ENDROOT
DOCKED: BRANCH   7  33
DOCKED: ATOM     33  C   UNL d   1      -2.935  -4.423 -21.945 -0.11 -0.04    +0.141 C 
DOCKED: BRANCH  33  34
DOCKED: ATOM     34  C   UNL d   1      -3.085  -3.157 -22.745 -0.01 -0.04    +0.306 C 
DOCKED: ATOM     35  O   UNL d   1      -3.938  -2.300 -22.584 -0.01 +0.03    -0.251 OA
DOCKED: BRANCH  34  36
DOCKED: ATOM     36  O   UNL d   1      -2.151  -3.037 -23.704 +0.01 +0.03    -0.481 OA
DOCKED: ATOM     37  H   UNL d   1      -1.353  -3.465 -23.327 +0.02 -0.02    +0.295 HD
DOCKED: ENDBRANCH  34  36
DOCKED: ENDBRANCH  33  34
DOCKED: ENDBRANCH   7  33
DOCKED: BRANCH  27  38
DOCKED: ATOM     38  C   UNL d   1      -7.273  -0.929 -16.381 -0.07 -0.00    +0.017 C 
DOCKED: ATOM     39  C   UNL d   1      -7.406   0.260 -15.772 -0.24 -0.02    +0.092 C 
DOCKED: BRANCH  39  40
DOCKED: ATOM     40  C   UNL d   1      -8.717   0.680 -15.270 -0.24 -0.17    +0.330 C 
DOCKED: ATOM     41  O   UNL d   1      -9.083   1.808 -15.000 -0.23 +0.10    -0.246 OA
DOCKED: BRANCH  40  42
DOCKED: ATOM     42  O   UNL d   1      -9.524  -0.384 -15.139 -0.23 +0.56    -0.477 OA
DOCKED: ATOM     43  H   UNL d   1     -10.059  -0.177 -14.345 -0.35 -0.78    +0.295 HD
DOCKED: ENDBRANCH  40  42
DOCKED: ENDBRANCH  39  40
DOCKED: ENDBRANCH  27  38
DOCKED: BRANCH   8  44
DOCKED: ATOM     44  C   UNL d   1       3.013   0.144 -19.864 -0.03 +0.01    +0.141 C 
DOCKED: BRANCH  44  45
DOCKED: ATOM     45  C   UNL d   1       3.579  -0.396 -18.578 +0.02 +0.01    +0.306 C 
DOCKED: ATOM     46  O   UNL d   1       3.278  -1.445 -18.035 -0.10 +0.03    -0.251 OA
DOCKED: BRANCH  45  47
DOCKED: ATOM     47  O   UNL d   1       4.482   0.433 -18.024 -0.00 -0.09    -0.481 OA
DOCKED: ATOM     48  H   UNL d   1       4.005   1.284 -17.920 +0.06 +0.07    +0.295 HD
DOCKED: ENDBRANCH  45  47
DOCKED: ENDBRANCH  44  45
DOCKED: ENDBRANCH   8  44
DOCKED: BRANCH  22  49
DOCKED: ATOM     49  C   UNL d   1      -3.468   1.044 -12.788 -0.49 -0.00    +0.048 C 
DOCKED: BRANCH  49  50
DOCKED: ATOM     50  C   UNL d   1      -4.803   1.751 -13.019 -0.33 -0.01    +0.125 C 
DOCKED: BRANCH  50  51
DOCKED: ATOM     51  C   UNL d   1      -4.986   2.883 -12.049 -0.29 +0.02    +0.305 C 
DOCKED: ATOM     52  O   UNL d   1      -4.775   4.068 -12.241 -0.21 -0.05    -0.251 OA
DOCKED: BRANCH  51  53
DOCKED: ATOM     53  O   UNL d   1      -5.425   2.453 -10.849 -0.36 -0.00    -0.481 OA
DOCKED: ATOM     54  H   UNL d   1      -5.510   1.483 -10.960 -0.25 -0.12    +0.295 HD
DOCKED: ENDBRANCH  51  53
DOCKED: ENDBRANCH  50  51
DOCKED: ENDBRANCH  49  50
DOCKED: ENDBRANCH  22  49
DOCKED: TORSDOF 13
DOCKED: TER
DOCKED: ENDMDL
________________________________________________________________________________


	BEGINNING GENETIC ALGORITHM DOCKING 41 of 100
Run: 41 Seed: 1216208117 800634744 [ Run 41 of 100 GA/GALS ]
Beginning LAMARCKIAN GENETIC ALGORITHM (LGA), with a maximum of 25000000 energy evaluations.

Final-Value: -11.652


	FINAL GENETIC ALGORITHM DOCKED STATE
	_______________________________________________


Detailed state:  trans 13.997 -3.693 -15.047 quatxyzw -0.218028 -0.163665 0.960940 -0.047655 center 0.153 0.018 -0.028 ntor 13 -99.8183 -180.0000 179.7628 -180.0000 33.9633 18.6603 -58.7902 95.5630 128.1255 -115.9443 145.9873 -91.9098 168.3855
State:	 13.997  -3.693 -15.047  -0.218 -0.164  0.962 -174.537    -99.82 -180.00  179.76 -180.00   33.96   18.66  -58.79   95.56  128.13 -115.94  145.99  -91.91  168.39

DOCKED: MODEL       41
DOCKED: USER    Run = 41
DOCKED: USER    DPF = D:/Protein_go_brrr/autodock/final/AncA/heme/dock.dpf
DOCKED: USER  
DOCKED: USER    Estimated Free Energy of Binding    =   -5.69 kcal/mol  [=(1)+(2)+(3)-(4)]
DOCKED: USER    Estimated Inhibition Constant, Ki   =   67.62 uM (micromolar)  [Temperature = 298.15 K]
DOCKED: USER    
DOCKED: USER    (1) Final Intermolecular Energy     =   -9.57 kcal/mol
DOCKED: USER        vdW + Hbond + desolv Energy     =   -8.91 kcal/mol
DOCKED: USER        Electrostatic Energy            =   -0.66 kcal/mol
DOCKED: USER    (2) Final Total Internal Energy     =   -2.09 kcal/mol
DOCKED: USER    (3) Torsional Free Energy           =   +3.88 kcal/mol
DOCKED: USER    (4) Unbound System's Energy  [=(2)] =   -2.09 kcal/mol
DOCKED: USER    
DOCKED: USER    
DOCKED: USER    NEWDPF move heme_opt.pdbqt
DOCKED: USER    NEWDPF about 0.153000 0.018000 -0.028000
DOCKED: USER    NEWDPF tran0 13.996645 -3.693020 -15.046891
DOCKED: USER    NEWDPF quaternion0 -0.218028 -0.163665 0.960940 -0.047655
DOCKED: USER    NEWDPF axisangle0 -0.218276 -0.163851 0.962033 -174.537104
DOCKED: USER    NEWDPF quat0 -0.218276 -0.163851 0.962033 -174.537104
DOCKED: USER    NEWDPF dihe0 -99.82 -180.00 179.76 -180.00 33.96 18.66 -58.79 95.56 128.13 -115.94 145.99 -91.91 168.39 
DOCKED: USER  keepresnum = 1 
DOCKED: USER  
DOCKED: REMARK  13 active torsions:
DOCKED: REMARK  status: ('A' for Active; 'I' for Inactive)
DOCKED: REMARK    1  A    between atoms: O_3  and  C_38 
DOCKED: REMARK    2  A    between atoms: O_4  and  C_40 
DOCKED: REMARK    3  A    between atoms: O_7  and  C_46 
DOCKED: REMARK    4  A    between atoms: O_9  and  C_48 
DOCKED: REMARK    5  A    between atoms: C_15  and  C_20 
DOCKED: REMARK    6  A    between atoms: C_16  and  C_23 
DOCKED: REMARK    7  A    between atoms: C_20  and  C_38 
DOCKED: REMARK    8  A    between atoms: C_23  and  C_40 
DOCKED: REMARK    9  A    between atoms: C_32  and  C_41 
DOCKED: REMARK   10  A    between atoms: C_37  and  C_45 
DOCKED: REMARK   11  A    between atoms: C_41  and  C_44 
DOCKED: REMARK   12  A    between atoms: C_44  and  C_46 
DOCKED: REMARK   13  A    between atoms: C_47  and  C_48 
DOCKED: USER                              x       y       z     vdW  Elec       q    Type
DOCKED: USER                           _______ _______ _______ _____ _____    ______ ____
DOCKED: ROOT
DOCKED: ATOM      1  O   UNL d   1      18.733  -6.389 -12.798 -0.02 -0.01    -0.289 OA
DOCKED: ATOM      2  O   UNL d   1      17.173   0.902 -13.694 -0.11 +0.03    -0.289 OA
DOCKED: ATOM      3  N   UNL d   1      15.843  -5.269 -14.311 -0.10 +0.03    -0.247 NA
DOCKED: ATOM      4  N   UNL d   1      15.972  -2.324 -13.936 -0.11 +0.07    -0.247 NA
DOCKED: ATOM      5  N   UNL d   1      13.205  -2.197 -14.707 -0.04 +0.05    -0.354 N 
DOCKED: ATOM      6  N   UNL d   1      13.074  -5.255 -15.075 -0.12 +0.05    -0.354 N 
DOCKED: ATOM      7  C   UNL d   1      16.700  -7.461 -13.628 -0.11 +0.01    +0.084 A 
DOCKED: ATOM      8  C   UNL d   1      18.189  -1.325 -13.687 -0.10 -0.02    +0.084 A 
DOCKED: ATOM      9  C   UNL d   1      17.319  -2.581 -13.811 -0.13 -0.01    +0.058 A 
DOCKED: ATOM     10  C   UNL d   1      15.580  -6.627 -14.257 -0.18 +0.00    +0.058 A 
DOCKED: ATOM     11  C   UNL d   1      17.650  -6.336 -13.352 -0.06 +0.01    +0.193 A 
DOCKED: ATOM     12  C   UNL d   1      17.027  -5.062 -13.835 -0.12 -0.00    +0.109 A 
DOCKED: ATOM     13  C   UNL d   1      17.082  -0.309 -13.727 -0.04 -0.06    +0.193 A 
DOCKED: ATOM     14  C   UNL d   1      16.272  -8.086 -12.298 -0.16 +0.00    +0.026 C 
DOCKED: ATOM     15  C   UNL d   1      17.825  -3.822 -13.751 -0.14 -0.00    +0.055 C 
DOCKED: ATOM     16  C   UNL d   1      19.081  -1.129 -14.916 -0.03 -0.00    +0.026 C 
DOCKED: ATOM     17  C   UNL d   1      15.789  -1.044 -13.872 -0.16 -0.03    +0.109 A 
DOCKED: ATOM     18  C   UNL d   1      14.485  -7.205 -14.787 -0.16 +0.00    +0.050 C 
DOCKED: ATOM     19  C   UNL d   1      13.440  -6.524 -15.462 -0.17 -0.00    +0.045 A 
DOCKED: ATOM     20  C   UNL d   1      13.387  -0.912 -14.267 -0.20 -0.00    +0.045 A 
DOCKED: ATOM     21  C   UNL d   1      14.518  -0.305 -13.896 -0.26 -0.01    +0.057 C 
DOCKED: ATOM     22  C   UNL d   1      11.171  -1.231 -14.720 -0.15 -0.00    -0.019 A 
DOCKED: ATOM     23  C   UNL d   1      11.900  -2.484 -15.005 -0.16 -0.00    +0.045 A 
DOCKED: ATOM     24  C   UNL d   1      12.056  -0.304 -14.285 -0.21 -0.00    -0.022 A 
DOCKED: ATOM     25  C   UNL d   1      11.988  -4.823 -15.800 -0.19 -0.00    +0.049 A 
DOCKED: ATOM     26  C   UNL d   1      12.594  -6.912 -16.489 -0.13 +0.00    -0.018 A 
DOCKED: ATOM     27  C   UNL d   1      11.692  -5.826 -16.712 -0.13 -0.00    +0.003 A 
DOCKED: ATOM     28  C   UNL d   1      11.331  -3.605 -15.473 -0.21 -0.00    +0.052 C 
DOCKED: ATOM     29  C   UNL d   1      11.806   1.110 -13.886 -0.33 +0.01    +0.046 C 
DOCKED: ATOM     30  C   UNL d   1      12.621  -8.210 -17.223 -0.08 +0.00    +0.046 C 
DOCKED: ATOM     31  H   UNL d   1      13.994  -2.817 -14.860 -0.24 -0.04    +0.166 HD
DOCKED: ATOM     32  H   UNL d   1      13.530  -4.744 -14.328 -0.54 -0.08    +0.166 HD
DOCKED: ENDROOT
DOCKED: BRANCH   7  33
DOCKED: ATOM     33  C   UNL d   1      17.347  -8.497 -14.554 -0.03 +0.01    +0.141 C 
DOCKED: BRANCH  33  34
DOCKED: ATOM     34  C   UNL d   1      18.503  -9.210 -13.907 +0.00 +0.03    +0.306 C 
DOCKED: ATOM     35  O   UNL d   1      18.438 -10.222 -13.230 -0.00 -0.03    -0.251 OA
DOCKED: BRANCH  34  36
DOCKED: ATOM     36  O   UNL d   1      19.682  -8.611 -14.149 +0.01 -0.04    -0.481 OA
DOCKED: ATOM     37  H   UNL d   1      19.697  -7.841 -13.541 +0.02 +0.02    +0.295 HD
DOCKED: ENDBRANCH  34  36
DOCKED: ENDBRANCH  33  34
DOCKED: ENDBRANCH   7  33
DOCKED: BRANCH  27  38
DOCKED: ATOM     38  C   UNL d   1      10.638  -5.814 -17.680 -0.09 -0.00    +0.017 C 
DOCKED: ATOM     39  C   UNL d   1       9.345  -5.575 -17.415 -0.08 -0.02    +0.092 C 
DOCKED: BRANCH  39  40
DOCKED: ATOM     40  C   UNL d   1       8.363  -5.575 -18.503 -0.06 -0.09    +0.330 C 
DOCKED: ATOM     41  O   UNL d   1       8.494  -6.034 -19.622 -0.02 +0.02    -0.246 OA
DOCKED: BRANCH  40  42
DOCKED: ATOM     42  O   UNL d   1       7.228  -4.982 -18.101 -0.09 +0.30    -0.477 OA
DOCKED: ATOM     43  H   UNL d   1       7.413  -4.726 -17.174 -0.37 -0.29    +0.295 HD
DOCKED: ENDBRANCH  40  42
DOCKED: ENDBRANCH  39  40
DOCKED: ENDBRANCH  27  38
DOCKED: BRANCH   8  44
DOCKED: ATOM     44  C   UNL d   1      18.996  -1.206 -12.391 -0.05 -0.04    +0.141 C 
DOCKED: BRANCH  44  45
DOCKED: ATOM     45  C   UNL d   1      19.552   0.174 -12.161 -0.08 +0.01    +0.306 C 
DOCKED: ATOM     46  O   UNL d   1      20.704   0.531 -12.335 -0.02 -0.03    -0.251 OA
DOCKED: BRANCH  45  47
DOCKED: ATOM     47  O   UNL d   1      18.626   1.031 -11.695 -0.11 -0.18    -0.481 OA
DOCKED: ATOM     48  H   UNL d   1      17.801   0.502 -11.646 -0.35 -0.12    +0.295 HD
DOCKED: ENDBRANCH  45  47
DOCKED: ENDBRANCH  44  45
DOCKED: ENDBRANCH   8  44
DOCKED: BRANCH  22  49
DOCKED: ATOM     49  C   UNL d   1       9.689  -1.063 -14.885 -0.16 +0.01    +0.048 C 
DOCKED: BRANCH  49  50
DOCKED: ATOM     50  C   UNL d   1       8.922  -1.537 -13.650 -0.28 +0.01    +0.125 C 
DOCKED: BRANCH  50  51
DOCKED: ATOM     51  C   UNL d   1       9.620  -2.696 -12.997 -0.22 +0.04    +0.305 C 
DOCKED: ATOM     52  O   UNL d   1      10.479  -2.655 -12.133 -0.92 -0.07    -0.251 OA
DOCKED: BRANCH  51  53
DOCKED: ATOM     53  O   UNL d   1       9.199  -3.879 -13.486 -0.77 -0.05    -0.481 OA
DOCKED: ATOM     54  H   UNL d   1       8.524  -3.634 -14.152 -0.32 -0.11    +0.295 HD
DOCKED: ENDBRANCH  51  53
DOCKED: ENDBRANCH  50  51
DOCKED: ENDBRANCH  49  50
DOCKED: ENDBRANCH  22  49
DOCKED: TORSDOF 13
DOCKED: TER
DOCKED: ENDMDL
________________________________________________________________________________


	BEGINNING GENETIC ALGORITHM DOCKING 42 of 100
Run: 42 Seed: 291638417 1072507522 [ Run 42 of 100 GA/GALS ]
Beginning LAMARCKIAN GENETIC ALGORITHM (LGA), with a maximum of 25000000 energy evaluations.

Final-Value: -11.862


	FINAL GENETIC ALGORITHM DOCKED STATE
	_______________________________________________


Detailed state:  trans 2.243 14.729 7.891 quatxyzw 0.077186 0.604437 0.663678 0.433854 center 0.153 0.018 -0.028 ntor 13 109.0639 -154.3922 115.0143 -14.4532 -132.8249 30.7902 -43.4488 22.1458 54.5250 -140.2016 63.6194 -89.2369 116.3529
State:	  2.243  14.729   7.891   0.086  0.671  0.737 128.575    109.06 -154.39  115.01  -14.45 -132.82   30.79  -43.45   22.15   54.52 -140.20   63.62  -89.24  116.35

DOCKED: MODEL       42
DOCKED: USER    Run = 42
DOCKED: USER    DPF = D:/Protein_go_brrr/autodock/final/AncA/heme/dock.dpf
DOCKED: USER  
DOCKED: USER    Estimated Free Energy of Binding    =   -3.80 kcal/mol  [=(1)+(2)+(3)-(4)]
DOCKED: USER    Estimated Inhibition Constant, Ki   =    1.64 mM (millimolar)  [Temperature = 298.15 K]
DOCKED: USER    
DOCKED: USER    (1) Final Intermolecular Energy     =   -7.68 kcal/mol
DOCKED: USER        vdW + Hbond + desolv Energy     =   -7.70 kcal/mol
DOCKED: USER        Electrostatic Energy            =   +0.02 kcal/mol
DOCKED: USER    (2) Final Total Internal Energy     =   -4.18 kcal/mol
DOCKED: USER    (3) Torsional Free Energy           =   +3.88 kcal/mol
DOCKED: USER    (4) Unbound System's Energy  [=(2)] =   -4.18 kcal/mol
DOCKED: USER    
DOCKED: USER    
DOCKED: USER    NEWDPF move heme_opt.pdbqt
DOCKED: USER    NEWDPF about 0.153000 0.018000 -0.028000
DOCKED: USER    NEWDPF tran0 2.243325 14.729332 7.890862
DOCKED: USER    NEWDPF quaternion0 0.077186 0.604437 0.663678 0.433854
DOCKED: USER    NEWDPF axisangle0 0.085669 0.670864 0.736616 128.575254
DOCKED: USER    NEWDPF quat0 0.085669 0.670864 0.736616 128.575254
DOCKED: USER    NEWDPF dihe0 109.06 -154.39 115.01 -14.45 -132.82 30.79 -43.45 22.15 54.52 -140.20 63.62 -89.24 116.35 
DOCKED: USER  keepresnum = 1 
DOCKED: USER  
DOCKED: REMARK  13 active torsions:
DOCKED: REMARK  status: ('A' for Active; 'I' for Inactive)
DOCKED: REMARK    1  A    between atoms: O_3  and  C_38 
DOCKED: REMARK    2  A    between atoms: O_4  and  C_40 
DOCKED: REMARK    3  A    between atoms: O_7  and  C_46 
DOCKED: REMARK    4  A    between atoms: O_9  and  C_48 
DOCKED: REMARK    5  A    between atoms: C_15  and  C_20 
DOCKED: REMARK    6  A    between atoms: C_16  and  C_23 
DOCKED: REMARK    7  A    between atoms: C_20  and  C_38 
DOCKED: REMARK    8  A    between atoms: C_23  and  C_40 
DOCKED: REMARK    9  A    between atoms: C_32  and  C_41 
DOCKED: REMARK   10  A    between atoms: C_37  and  C_45 
DOCKED: REMARK   11  A    between atoms: C_41  and  C_44 
DOCKED: REMARK   12  A    between atoms: C_44  and  C_46 
DOCKED: REMARK   13  A    between atoms: C_47  and  C_48 
DOCKED: USER                              x       y       z     vdW  Elec       q    Type
DOCKED: USER                           _______ _______ _______ _____ _____    ______ ____
DOCKED: ROOT
DOCKED: ATOM      1  O   UNL d   1       6.532  18.181   5.782 -0.10 +0.03    -0.289 OA
DOCKED: ATOM      2  O   UNL d   1       1.292  14.120   2.255 -0.31 -0.01    -0.289 OA
DOCKED: ATOM      3  N   UNL d   1       4.281  16.177   7.458 -0.12 +0.04    -0.247 NA
DOCKED: ATOM      4  N   UNL d   1       2.463  15.240   5.302 -0.10 +0.02    -0.247 NA
DOCKED: ATOM      5  N   UNL d   1       0.652  14.341   7.346 -0.11 +0.03    -0.354 N 
DOCKED: ATOM      6  N   UNL d   1       2.535  15.333   9.576 -0.07 +0.01    -0.354 N 
DOCKED: ATOM      7  C   UNL d   1       5.997  17.791   8.135 -0.13 -0.01    +0.084 A 
DOCKED: ATOM      8  C   UNL d   1       3.371  15.150   3.035 -0.31 -0.01    +0.084 A 
DOCKED: ATOM      9  C   UNL d   1       3.547  15.537   4.507 -0.23 -0.01    +0.058 A 
DOCKED: ATOM     10  C   UNL d   1       4.896  16.801   8.530 -0.16 -0.01    +0.058 A 
DOCKED: ATOM     11  C   UNL d   1       5.907  17.601   6.650 -0.11 -0.03    +0.193 A 
DOCKED: ATOM     12  C   UNL d   1       4.849  16.580   6.368 -0.18 -0.02    +0.109 A 
DOCKED: ATOM     13  C   UNL d   1       1.971  14.612   3.135 -0.17 -0.00    +0.193 A 
DOCKED: ATOM     14  C   UNL d   1       5.619  19.235   8.473 -0.04 -0.00    +0.026 C 
DOCKED: ATOM     15  C   UNL d   1       4.644  16.159   4.967 -0.30 -0.01    +0.055 C 
DOCKED: ATOM     16  C   UNL d   1       4.309  14.009   2.632 -0.34 -0.01    +0.026 C 
DOCKED: ATOM     17  C   UNL d   1       1.534  14.731   4.558 -0.14 -0.00    +0.109 A 
DOCKED: ATOM     18  C   UNL d   1       4.636  16.517   9.820 -0.16 -0.00    +0.050 C 
DOCKED: ATOM     19  C   UNL d   1       3.698  15.557  10.277 -0.06 +0.00    +0.045 A 
DOCKED: ATOM     20  C   UNL d   1      -0.145  14.187   6.241 -0.15 -0.00    +0.045 A 
DOCKED: ATOM     21  C   UNL d   1       0.178  14.319   4.951 -0.10 +0.00    +0.057 C 
DOCKED: ATOM     22  C   UNL d   1      -1.395  13.798   8.113 -0.23 +0.00    -0.019 A 
DOCKED: ATOM     23  C   UNL d   1      -0.015  14.127   8.523 -0.23 -0.00    +0.045 A 
DOCKED: ATOM     24  C   UNL d   1      -1.465  13.834   6.761 -0.22 -0.00    -0.022 A 
DOCKED: ATOM     25  C   UNL d   1       1.734  14.435  10.243 -0.20 -0.00    +0.049 A 
DOCKED: ATOM     26  C   UNL d   1       3.670  14.756  11.409 -0.04 -0.00    -0.018 A 
DOCKED: ATOM     27  C   UNL d   1       2.436  14.035  11.371 -0.22 -0.00    +0.003 A 
DOCKED: ATOM     28  C   UNL d   1       0.413  14.163   9.794 -0.24 -0.00    +0.052 C 
DOCKED: ATOM     29  C   UNL d   1      -2.637  13.564   5.880 -0.21 +0.00    +0.046 C 
DOCKED: ATOM     30  C   UNL d   1       4.723  14.663  12.460 -0.19 +0.00    +0.046 C 
DOCKED: ATOM     31  H   UNL d   1       1.647  14.516   7.257 +0.05 -0.02    +0.166 HD
DOCKED: ATOM     32  H   UNL d   1       2.301  15.807   8.712 +0.05 -0.01    +0.166 HD
DOCKED: ENDROOT
DOCKED: BRANCH   7  33
DOCKED: ATOM     33  C   UNL d   1       7.403  17.445   8.637 -0.20 -0.02    +0.141 C 
DOCKED: BRANCH  33  34
DOCKED: ATOM     34  C   UNL d   1       8.270  16.846   7.563 -0.23 -0.07    +0.306 C 
DOCKED: ATOM     35  O   UNL d   1       8.234  15.693   7.168 -0.36 +0.11    -0.251 OA
DOCKED: BRANCH  34  36
DOCKED: ATOM     36  O   UNL d   1       9.136  17.733   7.041 -0.08 +0.07    -0.481 OA
DOCKED: ATOM     37  H   UNL d   1       8.582  18.319   6.483 +0.10 -0.03    +0.295 HD
DOCKED: ENDBRANCH  34  36
DOCKED: ENDBRANCH  33  34
DOCKED: ENDBRANCH   7  33
DOCKED: BRANCH  27  38
DOCKED: ATOM     38  C   UNL d   1       1.996  13.102  12.364 -0.25 -0.00    +0.017 C 
DOCKED: ATOM     39  C   UNL d   1       0.808  13.137  12.987 -0.14 -0.01    +0.092 C 
DOCKED: BRANCH  39  40
DOCKED: ATOM     40  C   UNL d   1       0.471  12.109  13.975 -0.07 -0.05    +0.330 C 
DOCKED: ATOM     41  O   UNL d   1       1.234  11.482  14.686 -0.07 +0.03    -0.246 OA
DOCKED: BRANCH  40  42
DOCKED: ATOM     42  O   UNL d   1      -0.858  11.928  14.018 -0.04 +0.04    -0.477 OA
DOCKED: ATOM     43  H   UNL d   1      -1.162  12.208  13.131 +0.06 -0.03    +0.295 HD
DOCKED: ENDBRANCH  40  42
DOCKED: ENDBRANCH  39  40
DOCKED: ENDBRANCH  27  38
DOCKED: BRANCH   8  44
DOCKED: ATOM     44  C   UNL d   1       3.444  16.308   2.034 -0.25 -0.01    +0.141 C 
DOCKED: BRANCH  44  45
DOCKED: ATOM     45  C   UNL d   1       3.501  15.852   0.601 -0.23 -0.03    +0.306 C 
DOCKED: ATOM     46  O   UNL d   1       4.503  15.570  -0.033 -0.37 +0.01    -0.251 OA
DOCKED: BRANCH  45  47
DOCKED: ATOM     47  O   UNL d   1       2.285  15.800   0.028 -0.09 +0.06    -0.481 OA
DOCKED: ATOM     48  H   UNL d   1       1.812  15.090   0.513 +0.10 -0.04    +0.295 HD
DOCKED: ENDBRANCH  45  47
DOCKED: ENDBRANCH  44  45
DOCKED: ENDBRANCH   8  44
DOCKED: BRANCH  22  49
DOCKED: ATOM     49  C   UNL d   1      -2.509  13.497   9.072 -0.15 +0.00    +0.048 C 
DOCKED: BRANCH  49  50
DOCKED: ATOM     50  C   UNL d   1      -2.370  14.288  10.372 -0.10 +0.00    +0.125 C 
DOCKED: BRANCH  50  51
DOCKED: ATOM     51  C   UNL d   1      -2.143  13.368  11.538 -0.10 +0.00    +0.305 C 
DOCKED: ATOM     52  O   UNL d   1      -1.806  12.197  11.507 -0.17 +0.00    -0.251 OA
DOCKED: BRANCH  51  53
DOCKED: ATOM     53  O   UNL d   1      -2.370  13.982  12.717 -0.01 -0.00    -0.481 OA
DOCKED: ATOM     54  H   UNL d   1      -2.432  13.246  13.361 +0.03 -0.00    +0.295 HD
DOCKED: ENDBRANCH  51  53
DOCKED: ENDBRANCH  50  51
DOCKED: ENDBRANCH  49  50
DOCKED: ENDBRANCH  22  49
DOCKED: TORSDOF 13
DOCKED: TER
DOCKED: ENDMDL
________________________________________________________________________________


	BEGINNING GENETIC ALGORITHM DOCKING 43 of 100
Run: 43 Seed: 1199757481 553919729 [ Run 43 of 100 GA/GALS ]
Beginning LAMARCKIAN GENETIC ALGORITHM (LGA), with a maximum of 25000000 energy evaluations.

Final-Value: -11.121


	FINAL GENETIC ALGORITHM DOCKED STATE
	_______________________________________________


Detailed state:  trans 8.290 -7.089 8.811 quatxyzw 0.331868 -0.533000 0.710015 -0.318832 center 0.153 0.018 -0.028 ntor 13 2.9431 25.7146 -124.9976 134.1381 48.1404 157.9659 123.7682 91.9564 142.6285 -21.3806 111.6566 -89.7337 176.4838
State:	  8.290  -7.089   8.811   0.350 -0.562  0.749 -142.815      2.94   25.71 -125.00  134.14   48.14  157.97  123.77   91.96  142.63  -21.38  111.66  -89.73  176.48

DOCKED: MODEL       43
DOCKED: USER    Run = 43
DOCKED: USER    DPF = D:/Protein_go_brrr/autodock/final/AncA/heme/dock.dpf
DOCKED: USER  
DOCKED: USER    Estimated Free Energy of Binding    =   -5.25 kcal/mol  [=(1)+(2)+(3)-(4)]
DOCKED: USER    Estimated Inhibition Constant, Ki   =  142.32 uM (micromolar)  [Temperature = 298.15 K]
DOCKED: USER    
DOCKED: USER    (1) Final Intermolecular Energy     =   -9.13 kcal/mol
DOCKED: USER        vdW + Hbond + desolv Energy     =   -8.51 kcal/mol
DOCKED: USER        Electrostatic Energy            =   -0.62 kcal/mol
DOCKED: USER    (2) Final Total Internal Energy     =   -1.99 kcal/mol
DOCKED: USER    (3) Torsional Free Energy           =   +3.88 kcal/mol
DOCKED: USER    (4) Unbound System's Energy  [=(2)] =   -1.99 kcal/mol
DOCKED: USER    
DOCKED: USER    
DOCKED: USER    NEWDPF move heme_opt.pdbqt
DOCKED: USER    NEWDPF about 0.153000 0.018000 -0.028000
DOCKED: USER    NEWDPF tran0 8.290348 -7.089370 8.810511
DOCKED: USER    NEWDPF quaternion0 0.331868 -0.533000 0.710015 -0.318832
DOCKED: USER    NEWDPF axisangle0 0.350141 -0.562348 0.749110 -142.815341
DOCKED: USER    NEWDPF quat0 0.350141 -0.562348 0.749110 -142.815341
DOCKED: USER    NEWDPF dihe0 2.94 25.71 -125.00 134.14 48.14 157.97 123.77 91.96 142.63 -21.38 111.66 -89.73 176.48 
DOCKED: USER  keepresnum = 1 
DOCKED: USER  
DOCKED: REMARK  13 active torsions:
DOCKED: REMARK  status: ('A' for Active; 'I' for Inactive)
DOCKED: REMARK    1  A    between atoms: O_3  and  C_38 
DOCKED: REMARK    2  A    between atoms: O_4  and  C_40 
DOCKED: REMARK    3  A    between atoms: O_7  and  C_46 
DOCKED: REMARK    4  A    between atoms: O_9  and  C_48 
DOCKED: REMARK    5  A    between atoms: C_15  and  C_20 
DOCKED: REMARK    6  A    between atoms: C_16  and  C_23 
DOCKED: REMARK    7  A    between atoms: C_20  and  C_38 
DOCKED: REMARK    8  A    between atoms: C_23  and  C_40 
DOCKED: REMARK    9  A    between atoms: C_32  and  C_41 
DOCKED: REMARK   10  A    between atoms: C_37  and  C_45 
DOCKED: REMARK   11  A    between atoms: C_41  and  C_44 
DOCKED: REMARK   12  A    between atoms: C_44  and  C_46 
DOCKED: REMARK   13  A    between atoms: C_47  and  C_48 
DOCKED: USER                              x       y       z     vdW  Elec       q    Type
DOCKED: USER                           _______ _______ _______ _____ _____    ______ ____
DOCKED: ROOT
DOCKED: ATOM      1  O   UNL d   1      10.248  -8.658   3.475 -0.22 -0.34    -0.289 OA
DOCKED: ATOM      2  O   UNL d   1      13.523  -4.716   8.964 -0.04 -0.03    -0.289 OA
DOCKED: ATOM      3  N   UNL d   1       8.638  -7.861   6.419 -0.09 -0.06    -0.247 NA
DOCKED: ATOM      4  N   UNL d   1      10.777  -6.594   8.046 -0.06 -0.04    -0.247 NA
DOCKED: ATOM      5  N   UNL d   1       9.059  -6.852  10.338 -0.11 +0.01    -0.354 N 
DOCKED: ATOM      6  N   UNL d   1       6.853  -8.183   8.646 -0.06 -0.03    -0.354 N 
DOCKED: ATOM      7  C   UNL d   1       8.092  -9.242   4.469 -0.13 +0.04    +0.084 A 
DOCKED: ATOM      8  C   UNL d   1      12.616  -5.529   6.840 -0.12 +0.02    +0.084 A 
DOCKED: ATOM      9  C   UNL d   1      11.336  -6.371   6.808 -0.14 +0.01    +0.058 A 
DOCKED: ATOM     10  C   UNL d   1       7.693  -8.692   5.842 -0.11 +0.02    +0.058 A 
DOCKED: ATOM     11  C   UNL d   1       9.422  -8.558   4.365 -0.13 +0.12    +0.193 A 
DOCKED: ATOM     12  C   UNL d   1       9.626  -7.731   5.596 -0.15 +0.04    +0.109 A 
DOCKED: ATOM     13  C   UNL d   1      12.699  -5.346   8.329 -0.06 +0.03    +0.193 A 
DOCKED: ATOM     14  C   UNL d   1       8.314 -10.756   4.499 -0.08 +0.01    +0.026 C 
DOCKED: ATOM     15  C   UNL d   1      10.837  -6.889   5.675 -0.23 +0.02    +0.055 C 
DOCKED: ATOM     16  C   UNL d   1      12.410  -4.159   6.187 -0.34 +0.00    +0.026 C 
DOCKED: ATOM     17  C   UNL d   1      11.531  -6.045   8.944 -0.09 +0.02    +0.109 A 
DOCKED: ATOM     18  C   UNL d   1       6.481  -8.942   6.374 -0.15 +0.01    +0.050 C 
DOCKED: ATOM     19  C   UNL d   1       5.994  -8.410   7.595 -0.17 +0.01    +0.045 A 
DOCKED: ATOM     20  C   UNL d   1      10.222  -6.474  10.957 -0.18 +0.00    +0.045 A 
DOCKED: ATOM     21  C   UNL d   1      11.373  -6.073  10.406 -0.14 +0.01    +0.057 C 
DOCKED: ATOM     22  C   UNL d   1       8.683  -7.027  12.551 -0.17 -0.00    -0.019 A 
DOCKED: ATOM     23  C   UNL d   1       8.072  -7.204  11.219 -0.15 -0.00    +0.045 A 
DOCKED: ATOM     24  C   UNL d   1       9.956  -6.594  12.389 -0.14 -0.00    -0.022 A 
DOCKED: ATOM     25  C   UNL d   1       6.159  -7.755   9.754 -0.10 -0.00    +0.049 A 
DOCKED: ATOM     26  C   UNL d   1       4.714  -8.085   8.018 -0.28 -0.00    -0.018 A 
DOCKED: ATOM     27  C   UNL d   1       4.827  -7.654   9.376 -0.33 +0.00    +0.003 A 
DOCKED: ATOM     28  C   UNL d   1       6.809  -7.605  11.009 -0.18 -0.00    +0.052 C 
DOCKED: ATOM     29  C   UNL d   1      10.969  -6.263  13.432 -0.08 +0.00    +0.046 C 
DOCKED: ATOM     30  C   UNL d   1       3.462  -8.168   7.212 -0.37 +0.01    +0.046 C 
DOCKED: ATOM     31  H   UNL d   1       8.953  -6.786   9.331 -0.01 -0.00    +0.166 HD
DOCKED: ATOM     32  H   UNL d   1       7.850  -8.355   8.602 +0.04 +0.02    +0.166 HD
DOCKED: ENDROOT
DOCKED: BRANCH   7  33
DOCKED: ATOM     33  C   UNL d   1       7.183  -8.829   3.307 -0.30 +0.05    +0.141 C 
DOCKED: BRANCH  33  34
DOCKED: ATOM     34  C   UNL d   1       7.477  -9.591   2.043 -0.19 +0.09    +0.306 C 
DOCKED: ATOM     35  O   UNL d   1       6.830 -10.523   1.596 -0.23 -0.03    -0.251 OA
DOCKED: BRANCH  34  36
DOCKED: ATOM     36  O   UNL d   1       8.570  -9.135   1.406 -0.25 -0.31    -0.481 OA
DOCKED: ATOM     37  H   UNL d   1       8.646  -9.702   0.609 -0.40 +0.04    +0.295 HD
DOCKED: ENDBRANCH  34  36
DOCKED: ENDBRANCH  33  34
DOCKED: ENDBRANCH   7  33
DOCKED: BRANCH  27  38
DOCKED: ATOM     38  C   UNL d   1       3.735  -7.239  10.203 -0.49 +0.00    +0.017 C 
DOCKED: ATOM     39  C   UNL d   1       3.454  -7.732  11.419 -0.34 -0.00    +0.092 C 
DOCKED: BRANCH  39  40
DOCKED: ATOM     40  C   UNL d   1       2.313  -7.207  12.174 -0.22 -0.15    +0.330 C 
DOCKED: ATOM     41  O   UNL d   1       1.682  -7.765  13.052 -0.24 +0.16    -0.246 OA
DOCKED: BRANCH  40  42
DOCKED: ATOM     42  O   UNL d   1       2.026  -5.960  11.770 -0.69 +0.39    -0.477 OA
DOCKED: ATOM     43  H   UNL d   1       1.589  -5.556  12.548 -0.41 -0.68    +0.295 HD
DOCKED: ENDBRANCH  40  42
DOCKED: ENDBRANCH  39  40
DOCKED: ENDBRANCH  27  38
DOCKED: BRANCH   8  44
DOCKED: ATOM     44  C   UNL d   1      13.874  -6.217   6.301 -0.05 +0.03    +0.141 C 
DOCKED: BRANCH  44  45
DOCKED: ATOM     45  C   UNL d   1      14.389  -7.306   7.204 -0.00 +0.06    +0.306 C 
DOCKED: ATOM     46  O   UNL d   1      13.957  -8.442   7.291 -0.00 -0.05    -0.251 OA
DOCKED: BRANCH  45  47
DOCKED: ATOM     47  O   UNL d   1      15.412  -6.895   7.975 +0.00 -0.07    -0.481 OA
DOCKED: ATOM     48  H   UNL d   1      15.072  -6.097   8.433 +0.02 +0.04    +0.295 HD
DOCKED: ENDBRANCH  45  47
DOCKED: ENDBRANCH  44  45
DOCKED: ENDBRANCH   8  44
DOCKED: BRANCH  22  49
DOCKED: ATOM     49  C   UNL d   1       7.979  -7.310  13.846 -0.13 -0.00    +0.048 C 
DOCKED: BRANCH  49  50
DOCKED: ATOM     50  C   UNL d   1       8.240  -8.734  14.337 -0.02 +0.01    +0.125 C 
DOCKED: BRANCH  50  51
DOCKED: ATOM     51  C   UNL d   1       7.603  -9.742  13.423 +0.00 +0.03    +0.305 C 
DOCKED: ATOM     52  O   UNL d   1       8.068 -10.220  12.404 -0.00 -0.03    -0.251 OA
DOCKED: BRANCH  51  53
DOCKED: ATOM     53  O   UNL d   1       6.372 -10.097  13.844 +0.01 -0.06    -0.481 OA
DOCKED: ATOM     54  H   UNL d   1       6.488 -10.263  14.803 +0.01 +0.03    +0.295 HD
DOCKED: ENDBRANCH  51  53
DOCKED: ENDBRANCH  50  51
DOCKED: ENDBRANCH  49  50
DOCKED: ENDBRANCH  22  49
DOCKED: TORSDOF 13
DOCKED: TER
DOCKED: ENDMDL
________________________________________________________________________________


	BEGINNING GENETIC ALGORITHM DOCKING 44 of 100
Run: 44 Seed: 42069342 1207628811 [ Run 44 of 100 GA/GALS ]
Beginning LAMARCKIAN GENETIC ALGORITHM (LGA), with a maximum of 25000000 energy evaluations.

Final-Value: -11.859


	FINAL GENETIC ALGORITHM DOCKED STATE
	_______________________________________________


Detailed state:  trans -7.092 2.298 -14.698 quatxyzw 0.439754 -0.868482 -0.160404 0.163173 center 0.153 0.018 -0.028 ntor 13 137.5156 89.4861 -65.3145 77.0405 -168.8868 -174.4675 102.6005 87.3068 92.1137 -30.0478 -22.0034 -78.9370 24.3046
State:	 -7.092   2.298 -14.698   0.446 -0.880 -0.163 161.218    137.52   89.49  -65.31   77.04 -168.89 -174.47  102.60   87.31   92.11  -30.05  -22.00  -78.94   24.30

DOCKED: MODEL       44
DOCKED: USER    Run = 44
DOCKED: USER    DPF = D:/Protein_go_brrr/autodock/final/AncA/heme/dock.dpf
DOCKED: USER  
DOCKED: USER    Estimated Free Energy of Binding    =   -5.47 kcal/mol  [=(1)+(2)+(3)-(4)]
DOCKED: USER    Estimated Inhibition Constant, Ki   =   97.14 uM (micromolar)  [Temperature = 298.15 K]
DOCKED: USER    
DOCKED: USER    (1) Final Intermolecular Energy     =   -9.35 kcal/mol
DOCKED: USER        vdW + Hbond + desolv Energy     =   -8.47 kcal/mol
DOCKED: USER        Electrostatic Energy            =   -0.89 kcal/mol
DOCKED: USER    (2) Final Total Internal Energy     =   -2.51 kcal/mol
DOCKED: USER    (3) Torsional Free Energy           =   +3.88 kcal/mol
DOCKED: USER    (4) Unbound System's Energy  [=(2)] =   -2.51 kcal/mol
DOCKED: USER    
DOCKED: USER    
DOCKED: USER    NEWDPF move heme_opt.pdbqt
DOCKED: USER    NEWDPF about 0.153000 0.018000 -0.028000
DOCKED: USER    NEWDPF tran0 -7.092069 2.298449 -14.698191
DOCKED: USER    NEWDPF quaternion0 0.439754 -0.868482 -0.160404 0.163173
DOCKED: USER    NEWDPF axisangle0 0.445728 -0.880280 -0.162583 161.217743
DOCKED: USER    NEWDPF quat0 0.445728 -0.880280 -0.162583 161.217743
DOCKED: USER    NEWDPF dihe0 137.52 89.49 -65.31 77.04 -168.89 -174.47 102.60 87.31 92.11 -30.05 -22.00 -78.94 24.30 
DOCKED: USER  keepresnum = 1 
DOCKED: USER  
DOCKED: REMARK  13 active torsions:
DOCKED: REMARK  status: ('A' for Active; 'I' for Inactive)
DOCKED: REMARK    1  A    between atoms: O_3  and  C_38 
DOCKED: REMARK    2  A    between atoms: O_4  and  C_40 
DOCKED: REMARK    3  A    between atoms: O_7  and  C_46 
DOCKED: REMARK    4  A    between atoms: O_9  and  C_48 
DOCKED: REMARK    5  A    between atoms: C_15  and  C_20 
DOCKED: REMARK    6  A    between atoms: C_16  and  C_23 
DOCKED: REMARK    7  A    between atoms: C_20  and  C_38 
DOCKED: REMARK    8  A    between atoms: C_23  and  C_40 
DOCKED: REMARK    9  A    between atoms: C_32  and  C_41 
DOCKED: REMARK   10  A    between atoms: C_37  and  C_45 
DOCKED: REMARK   11  A    between atoms: C_41  and  C_44 
DOCKED: REMARK   12  A    between atoms: C_44  and  C_46 
DOCKED: REMARK   13  A    between atoms: C_47  and  C_48 
DOCKED: USER                              x       y       z     vdW  Elec       q    Type
DOCKED: USER                           _______ _______ _______ _____ _____    ______ ____
DOCKED: ROOT
DOCKED: ATOM      1  O   UNL d   1      -5.236   7.513 -12.668 -0.12 -0.35    -0.289 OA
DOCKED: ATOM      2  O   UNL d   1      -1.874   0.800 -12.811 -0.30 +0.01    -0.289 OA
DOCKED: ATOM      3  N   UNL d   1      -6.790   4.670 -13.852 -0.50 -0.06    -0.247 NA
DOCKED: ATOM      4  N   UNL d   1      -4.626   2.635 -13.795 -0.10 -0.01    -0.247 NA
DOCKED: ATOM      5  N   UNL d   1      -6.293   0.951 -15.423 -0.10 +0.03    -0.354 N 
DOCKED: ATOM      6  N   UNL d   1      -8.525   3.076 -15.493 -0.07 +0.04    -0.354 N 
DOCKED: ATOM      7  C   UNL d   1      -7.367   7.051 -13.774 -0.11 +0.03    +0.084 A 
DOCKED: ATOM      8  C   UNL d   1      -2.819   2.969 -12.184 -0.24 +0.01    +0.084 A 
DOCKED: ATOM      9  C   UNL d   1      -4.093   3.490 -12.856 -0.20 +0.01    +0.058 A 
DOCKED: ATOM     10  C   UNL d   1      -7.741   5.622 -14.179 -0.01 +0.01    +0.058 A 
DOCKED: ATOM     11  C   UNL d   1      -6.044   6.736 -13.144 -0.13 +0.11    +0.193 A 
DOCKED: ATOM     12  C   UNL d   1      -5.819   5.258 -13.231 -0.18 +0.03    +0.109 A 
DOCKED: ATOM     13  C   UNL d   1      -2.706   1.676 -12.942 -0.24 -0.00    +0.193 A 
DOCKED: ATOM     14  C   UNL d   1      -7.134   7.951 -14.991 -0.04 +0.01    +0.026 C 
DOCKED: ATOM     15  C   UNL d   1      -4.613   4.698 -12.588 -0.22 +0.02    +0.055 C 
DOCKED: ATOM     16  C   UNL d   1      -3.048   2.653 -10.703 -0.35 +0.00    +0.026 C 
DOCKED: ATOM     17  C   UNL d   1      -3.857   1.598 -13.892 -0.21 -0.00    +0.109 A 
DOCKED: ATOM     18  C   UNL d   1      -8.939   5.336 -14.722 -0.12 +0.00    +0.050 C 
DOCKED: ATOM     19  C   UNL d   1      -9.405   4.038 -15.050 -0.15 -0.00    +0.045 A 
DOCKED: ATOM     20  C   UNL d   1      -5.120   0.244 -15.478 -0.14 -0.00    +0.045 A 
DOCKED: ATOM     21  C   UNL d   1      -3.984   0.452 -14.804 -0.29 -0.00    +0.057 C 
DOCKED: ATOM     22  C   UNL d   1      -6.621  -0.705 -16.914 -0.17 +0.00    -0.019 A 
DOCKED: ATOM     23  C   UNL d   1      -7.259   0.453 -16.256 -0.19 -0.01    +0.045 A 
DOCKED: ATOM     24  C   UNL d   1      -5.355  -0.824 -16.448 -0.17 +0.00    -0.022 A 
DOCKED: ATOM     25  C   UNL d   1      -9.199   1.927 -15.838 -0.17 -0.02    +0.049 A 
DOCKED: ATOM     26  C   UNL d   1     -10.677   3.488 -15.072 -0.16 +0.00    -0.018 A 
DOCKED: ATOM     27  C   UNL d   1     -10.539   2.149 -15.552 -0.19 -0.00    +0.003 A 
DOCKED: ATOM     28  C   UNL d   1      -8.524   0.848 -16.470 -0.19 -0.01    +0.052 C 
DOCKED: ATOM     29  C   UNL d   1      -4.323  -1.841 -16.800 -0.29 -0.00    +0.046 C 
DOCKED: ATOM     30  C   UNL d   1     -11.945   4.163 -14.671 -0.14 -0.01    +0.046 C 
DOCKED: ATOM     31  H   UNL d   1      -6.420   1.709 -14.761 +0.06 -0.01    +0.166 HD
DOCKED: ATOM     32  H   UNL d   1      -7.528   3.228 -15.585 +0.04 -0.01    +0.166 HD
DOCKED: ENDROOT
DOCKED: BRANCH   7  33
DOCKED: ATOM     33  C   UNL d   1      -8.303   7.712 -12.757 -0.07 +0.05    +0.141 C 
DOCKED: BRANCH  33  34
DOCKED: ATOM     34  C   UNL d   1      -7.561   8.519 -11.726 -0.08 +0.27    +0.306 C 
DOCKED: ATOM     35  O   UNL d   1      -7.504   8.283 -10.531 -0.61 -0.25    -0.251 OA
DOCKED: BRANCH  34  36
DOCKED: ATOM     36  O   UNL d   1      -6.927   9.580 -12.256 -0.40 -0.56    -0.481 OA
DOCKED: ATOM     37  H   UNL d   1      -6.490   9.230 -13.061 +0.03 +0.27    +0.295 HD
DOCKED: ENDBRANCH  34  36
DOCKED: ENDBRANCH  33  34
DOCKED: ENDBRANCH   7  33
DOCKED: BRANCH  27  38
DOCKED: ATOM     38  C   UNL d   1     -11.617   1.226 -15.745 -0.16 -0.01    +0.017 C 
DOCKED: ATOM     39  C   UNL d   1     -11.754   0.406 -16.798 -0.10 -0.06    +0.092 C 
DOCKED: BRANCH  39  40
DOCKED: ATOM     40  C   UNL d   1     -12.898  -0.507 -16.868 -0.02 -0.25    +0.330 C 
DOCKED: ATOM     41  O   UNL d   1     -13.130  -1.345 -17.718 -0.04 +0.11    -0.246 OA
DOCKED: BRANCH  40  42
DOCKED: ATOM     42  O   UNL d   1     -13.710  -0.310 -15.818 +0.01 +0.49    -0.477 OA
DOCKED: ATOM     43  H   UNL d   1     -13.372  -0.931 -15.140 -0.42 -0.73    +0.295 HD
DOCKED: ENDBRANCH  40  42
DOCKED: ENDBRANCH  39  40
DOCKED: ENDBRANCH  27  38
DOCKED: BRANCH   8  44
DOCKED: ATOM     44  C   UNL d   1      -1.568   3.831 -12.380 -0.23 +0.01    +0.141 C 
DOCKED: BRANCH  44  45
DOCKED: ATOM     45  C   UNL d   1      -0.908   3.625 -13.717 -0.12 +0.01    +0.306 C 
DOCKED: ATOM     46  O   UNL d   1      -1.417   3.788 -14.812 -0.05 -0.01    -0.251 OA
DOCKED: BRANCH  45  47
DOCKED: ATOM     47  O   UNL d   1       0.361   3.193 -13.603 -0.04 +0.04    -0.481 OA
DOCKED: ATOM     48  H   UNL d   1       0.349   2.285 -13.974 -0.37 -0.09    +0.295 HD
DOCKED: ENDBRANCH  45  47
DOCKED: ENDBRANCH  44  45
DOCKED: ENDBRANCH   8  44
DOCKED: BRANCH  22  49
DOCKED: ATOM     49  C   UNL d   1      -7.297  -1.570 -17.937 -0.17 -0.01    +0.048 C 
DOCKED: BRANCH  49  50
DOCKED: ATOM     50  C   UNL d   1      -8.563  -2.223 -17.384 -0.19 -0.03    +0.125 C 
DOCKED: BRANCH  50  51
DOCKED: ATOM     51  C   UNL d   1      -9.480  -2.643 -18.497 -0.05 -0.09    +0.305 C 
DOCKED: ATOM     52  O   UNL d   1      -9.409  -3.651 -19.178 -0.06 +0.09    -0.251 OA
DOCKED: BRANCH  51  53
DOCKED: ATOM     53  O   UNL d   1     -10.460  -1.742 -18.711 +0.01 +0.14    -0.481 OA
DOCKED: ATOM     54  H   UNL d   1     -11.251  -2.149 -18.301 +0.05 -0.11    +0.295 HD
DOCKED: ENDBRANCH  51  53
DOCKED: ENDBRANCH  50  51
DOCKED: ENDBRANCH  49  50
DOCKED: ENDBRANCH  22  49
DOCKED: TORSDOF 13
DOCKED: TER
DOCKED: ENDMDL
________________________________________________________________________________


	BEGINNING GENETIC ALGORITHM DOCKING 45 of 100
Run: 45 Seed: 948462703 38026067 [ Run 45 of 100 GA/GALS ]
Beginning LAMARCKIAN GENETIC ALGORITHM (LGA), with a maximum of 25000000 energy evaluations.

Final-Value: -9.982


	FINAL GENETIC ALGORITHM DOCKED STATE
	_______________________________________________


Detailed state:  trans -12.362 -14.462 -0.220 quatxyzw -0.722585 0.250227 -0.474216 0.436322 center 0.153 0.018 -0.028 ntor 13 108.4448 -48.9553 -134.7746 82.2037 177.9799 -84.6983 -58.0574 29.9221 -20.3325 132.7222 69.4106 -90.4191 5.0501
State:	-12.362 -14.462  -0.220  -0.803  0.278 -0.527 128.261    108.44  -48.96 -134.77   82.20  177.98  -84.70  -58.06   29.92  -20.33  132.72   69.41  -90.42    5.05

DOCKED: MODEL       45
DOCKED: USER    Run = 45
DOCKED: USER    DPF = D:/Protein_go_brrr/autodock/final/AncA/heme/dock.dpf
DOCKED: USER  
DOCKED: USER    Estimated Free Energy of Binding    =   -4.48 kcal/mol  [=(1)+(2)+(3)-(4)]
DOCKED: USER    Estimated Inhibition Constant, Ki   =  524.12 uM (micromolar)  [Temperature = 298.15 K]
DOCKED: USER    
DOCKED: USER    (1) Final Intermolecular Energy     =   -8.35 kcal/mol
DOCKED: USER        vdW + Hbond + desolv Energy     =   -8.14 kcal/mol
DOCKED: USER        Electrostatic Energy            =   -0.21 kcal/mol
DOCKED: USER    (2) Final Total Internal Energy     =   -1.63 kcal/mol
DOCKED: USER    (3) Torsional Free Energy           =   +3.88 kcal/mol
DOCKED: USER    (4) Unbound System's Energy  [=(2)] =   -1.63 kcal/mol
DOCKED: USER    
DOCKED: USER    
DOCKED: USER    NEWDPF move heme_opt.pdbqt
DOCKED: USER    NEWDPF about 0.153000 0.018000 -0.028000
DOCKED: USER    NEWDPF tran0 -12.361957 -14.462076 -0.219513
DOCKED: USER    NEWDPF quaternion0 -0.722585 0.250227 -0.474216 0.436322
DOCKED: USER    NEWDPF axisangle0 -0.803059 0.278095 -0.527029 128.261065
DOCKED: USER    NEWDPF quat0 -0.803059 0.278095 -0.527029 128.261065
DOCKED: USER    NEWDPF dihe0 108.44 -48.96 -134.77 82.20 177.98 -84.70 -58.06 29.92 -20.33 132.72 69.41 -90.42 5.05 
DOCKED: USER  keepresnum = 1 
DOCKED: USER  
DOCKED: REMARK  13 active torsions:
DOCKED: REMARK  status: ('A' for Active; 'I' for Inactive)
DOCKED: REMARK    1  A    between atoms: O_3  and  C_38 
DOCKED: REMARK    2  A    between atoms: O_4  and  C_40 
DOCKED: REMARK    3  A    between atoms: O_7  and  C_46 
DOCKED: REMARK    4  A    between atoms: O_9  and  C_48 
DOCKED: REMARK    5  A    between atoms: C_15  and  C_20 
DOCKED: REMARK    6  A    between atoms: C_16  and  C_23 
DOCKED: REMARK    7  A    between atoms: C_20  and  C_38 
DOCKED: REMARK    8  A    between atoms: C_23  and  C_40 
DOCKED: REMARK    9  A    between atoms: C_32  and  C_41 
DOCKED: REMARK   10  A    between atoms: C_37  and  C_45 
DOCKED: REMARK   11  A    between atoms: C_41  and  C_44 
DOCKED: REMARK   12  A    between atoms: C_44  and  C_46 
DOCKED: REMARK   13  A    between atoms: C_47  and  C_48 
DOCKED: USER                              x       y       z     vdW  Elec       q    Type
DOCKED: USER                           _______ _______ _______ _____ _____    ______ ____
DOCKED: ROOT
DOCKED: ATOM      1  O   UNL d   1     -15.754 -16.152  -4.736 -0.00 -0.05    -0.289 OA
DOCKED: ATOM      2  O   UNL d   1     -10.471 -10.836  -4.259 -0.22 -0.07    -0.289 OA
DOCKED: ATOM      3  N   UNL d   1     -14.100 -15.420  -1.799 -0.12 -0.04    -0.247 NA
DOCKED: ATOM      4  N   UNL d   1     -12.041 -13.452  -2.646 -0.12 -0.05    -0.247 NA
DOCKED: ATOM      5  N   UNL d   1     -10.755 -13.843  -0.105 +0.18 -0.18    -0.354 N 
DOCKED: ATOM      6  N   UNL d   1     -12.884 -15.898   0.759 -0.06 -0.09    -0.354 N 
DOCKED: ATOM      7  C   UNL d   1     -15.709 -17.132  -2.497 -0.02 +0.01    +0.084 A 
DOCKED: ATOM      8  C   UNL d   1     -12.522 -12.118  -4.636 -0.27 +0.01    +0.084 A 
DOCKED: ATOM      9  C   UNL d   1     -12.918 -13.255  -3.689 -0.20 +0.01    +0.058 A 
DOCKED: ATOM     10  C   UNL d   1     -14.824 -16.531  -1.401 -0.10 +0.01    +0.058 A 
DOCKED: ATOM     11  C   UNL d   1     -15.371 -16.152  -3.580 -0.02 +0.03    +0.193 A 
DOCKED: ATOM     12  C   UNL d   1     -14.407 -15.149  -3.026 -0.10 +0.02    +0.109 A 
DOCKED: ATOM     13  C   UNL d   1     -11.237 -11.731  -3.959 -0.13 +0.04    +0.193 A 
DOCKED: ATOM     14  C   UNL d   1     -15.233 -18.523  -2.922 -0.01 +0.00    +0.026 C 
DOCKED: ATOM     15  C   UNL d   1     -14.000 -14.024  -3.891 -0.15 +0.01    +0.055 C 
DOCKED: ATOM     16  C   UNL d   1     -13.498 -10.941  -4.551 -0.29 -0.00    +0.026 C 
DOCKED: ATOM     17  C   UNL d   1     -11.058 -12.620  -2.772 -0.19 +0.03    +0.109 A 
DOCKED: ATOM     18  C   UNL d   1     -14.841 -17.010  -0.143 -0.11 +0.01    +0.050 C 
DOCKED: ATOM     19  C   UNL d   1     -14.122 -16.468   0.953 -0.12 +0.01    +0.045 A 
DOCKED: ATOM     20  C   UNL d   1      -9.793 -13.106  -0.745 -0.19 +0.03    +0.045 A 
DOCKED: ATOM     21  C   UNL d   1      -9.855 -12.499  -1.935 -0.27 +0.03    +0.057 C 
DOCKED: ATOM     22  C   UNL d   1      -8.962 -13.823   1.258 -0.20 -0.02    -0.019 A 
DOCKED: ATOM     23  C   UNL d   1     -10.345 -14.319   1.112 -0.15 +0.02    +0.045 A 
DOCKED: ATOM     24  C   UNL d   1      -8.641 -13.105   0.156 -0.23 -0.02    -0.022 A 
DOCKED: ATOM     25  C   UNL d   1     -12.331 -15.521   1.961 -0.03 +0.01    +0.049 A 
DOCKED: ATOM     26  C   UNL d   1     -14.396 -16.428   2.312 -0.15 -0.00    -0.018 A 
DOCKED: ATOM     27  C   UNL d   1     -13.271 -15.811   2.941 -0.17 +0.00    +0.003 A 
DOCKED: ATOM     28  C   UNL d   1     -10.992 -15.052   2.032 -0.17 +0.02    +0.052 C 
DOCKED: ATOM     29  C   UNL d   1      -7.367 -12.396  -0.157 -0.18 +0.05    +0.046 C 
DOCKED: ATOM     30  C   UNL d   1     -15.628 -16.929   2.986 -0.12 +0.01    +0.046 C 
DOCKED: ATOM     31  H   UNL d   1     -11.689 -13.936  -0.489 +0.06 +0.04    +0.166 HD
DOCKED: ATOM     32  H   UNL d   1     -12.442 -15.814  -0.149 +0.02 +0.04    +0.166 HD
DOCKED: ENDROOT
DOCKED: BRANCH   7  33
DOCKED: ATOM     33  C   UNL d   1     -17.214 -17.117  -2.208 -0.02 +0.02    +0.141 C 
DOCKED: BRANCH  33  34
DOCKED: ATOM     34  C   UNL d   1     -17.616 -15.996  -1.288 -0.05 +0.05    +0.306 C 
DOCKED: ATOM     35  O   UNL d   1     -18.270 -16.104  -0.264 -0.07 -0.04    -0.251 OA
DOCKED: BRANCH  34  36
DOCKED: ATOM     36  O   UNL d   1     -17.170 -14.798  -1.704 -0.07 -0.07    -0.481 OA
DOCKED: ATOM     37  H   UNL d   1     -16.209 -14.810  -1.506 +0.07 +0.05    +0.295 HD
DOCKED: ENDBRANCH  34  36
DOCKED: ENDBRANCH  33  34
DOCKED: ENDBRANCH   7  33
DOCKED: BRANCH  27  38
DOCKED: ATOM     38  C   UNL d   1     -13.133 -15.586   4.348 -0.24 +0.00    +0.017 C 
DOCKED: ATOM     39  C   UNL d   1     -12.095 -15.985   5.098 -0.13 +0.03    +0.092 C 
DOCKED: BRANCH  39  40
DOCKED: ATOM     40  C   UNL d   1     -12.066 -15.674   6.530 -0.06 +0.11    +0.330 C 
DOCKED: ATOM     41  O   UNL d   1     -11.647 -14.665   7.064 -0.48 -0.11    -0.246 OA
DOCKED: BRANCH  40  42
DOCKED: ATOM     42  O   UNL d   1     -12.597 -16.687   7.232 -0.02 -0.10    -0.477 OA
DOCKED: ATOM     43  H   UNL d   1     -11.937 -16.854   7.937 +0.03 +0.06    +0.295 HD
DOCKED: ENDBRANCH  40  42
DOCKED: ENDBRANCH  39  40
DOCKED: ENDBRANCH  27  38
DOCKED: BRANCH   8  44
DOCKED: ATOM     44  C   UNL d   1     -12.273 -12.528  -6.092 -0.21 +0.02    +0.141 C 
DOCKED: BRANCH  44  45
DOCKED: ATOM     45  C   UNL d   1     -13.535 -12.623  -6.906 -0.17 +0.02    +0.306 C 
DOCKED: ATOM     46  O   UNL d   1     -14.122 -13.644  -7.221 -0.11 -0.03    -0.251 OA
DOCKED: BRANCH  45  47
DOCKED: ATOM     47  O   UNL d   1     -13.981 -11.419  -7.308 -0.08 +0.03    -0.481 OA
DOCKED: ATOM     48  H   UNL d   1     -13.179 -10.950  -7.623 -0.39 -0.12    +0.295 HD
DOCKED: ENDBRANCH  45  47
DOCKED: ENDBRANCH  44  45
DOCKED: ENDBRANCH   8  44
DOCKED: BRANCH  22  49
DOCKED: ATOM     49  C   UNL d   1      -8.086 -14.108   2.443 -0.18 +0.06    +0.048 C 
DOCKED: BRANCH  49  50
DOCKED: ATOM     50  C   UNL d   1      -8.439 -13.222   3.638 -0.31 +0.12    +0.125 C 
DOCKED: BRANCH  50  51
DOCKED: ATOM     51  C   UNL d   1      -7.360 -12.209   3.893 -0.35 +0.33    +0.305 C 
DOCKED: ATOM     52  O   UNL d   1      -6.542 -11.779   3.099 -0.90 -0.34    -0.251 OA
DOCKED: BRANCH  51  53
DOCKED: ATOM     53  O   UNL d   1      -7.357 -11.786   5.173 -0.22 -0.28    -0.481 OA
DOCKED: ATOM     54  H   UNL d   1      -7.847 -10.938   5.144 -0.36 +0.05    +0.295 HD
DOCKED: ENDBRANCH  51  53
DOCKED: ENDBRANCH  50  51
DOCKED: ENDBRANCH  49  50
DOCKED: ENDBRANCH  22  49
DOCKED: TORSDOF 13
DOCKED: TER
DOCKED: ENDMDL
________________________________________________________________________________


	BEGINNING GENETIC ALGORITHM DOCKING 46 of 100
Run: 46 Seed: 199169520 1567182005 [ Run 46 of 100 GA/GALS ]
Beginning LAMARCKIAN GENETIC ALGORITHM (LGA), with a maximum of 25000000 energy evaluations.

Final-Value: -13.285


	FINAL GENETIC ALGORITHM DOCKED STATE
	_______________________________________________


Detailed state:  trans -7.869 2.749 -14.826 quatxyzw 0.382005 -0.891789 -0.178104 0.164506 center 0.153 0.018 -0.028 ntor 13 117.6649 178.6720 61.9475 -60.3072 179.9007 -56.0023 -52.6376 9.7501 98.5310 -100.5761 -87.4128 24.4185 -4.6489
State:	 -7.869   2.749 -14.826   0.387 -0.904 -0.181 161.063    117.66  178.67   61.95  -60.31  179.90  -56.00  -52.64    9.75   98.53 -100.58  -87.41   24.42   -4.65

DOCKED: MODEL       46
DOCKED: USER    Run = 46
DOCKED: USER    DPF = D:/Protein_go_brrr/autodock/final/AncA/heme/dock.dpf
DOCKED: USER  
DOCKED: USER    Estimated Free Energy of Binding    =   -5.44 kcal/mol  [=(1)+(2)+(3)-(4)]
DOCKED: USER    Estimated Inhibition Constant, Ki   =  102.66 uM (micromolar)  [Temperature = 298.15 K]
DOCKED: USER    
DOCKED: USER    (1) Final Intermolecular Energy     =   -9.32 kcal/mol
DOCKED: USER        vdW + Hbond + desolv Energy     =   -8.45 kcal/mol
DOCKED: USER        Electrostatic Energy            =   -0.87 kcal/mol
DOCKED: USER    (2) Final Total Internal Energy     =   -3.97 kcal/mol
DOCKED: USER    (3) Torsional Free Energy           =   +3.88 kcal/mol
DOCKED: USER    (4) Unbound System's Energy  [=(2)] =   -3.97 kcal/mol
DOCKED: USER    
DOCKED: USER    
DOCKED: USER    NEWDPF move heme_opt.pdbqt
DOCKED: USER    NEWDPF about 0.153000 0.018000 -0.028000
DOCKED: USER    NEWDPF tran0 -7.869245 2.748626 -14.825748
DOCKED: USER    NEWDPF quaternion0 0.382005 -0.891789 -0.178104 0.164506
DOCKED: USER    NEWDPF axisangle0 0.387282 -0.904107 -0.180564 161.062882
DOCKED: USER    NEWDPF quat0 0.387282 -0.904107 -0.180564 161.062882
DOCKED: USER    NEWDPF dihe0 117.66 178.67 61.95 -60.31 179.90 -56.00 -52.64 9.75 98.53 -100.58 -87.41 24.42 -4.65 
DOCKED: USER  keepresnum = 1 
DOCKED: USER  
DOCKED: REMARK  13 active torsions:
DOCKED: REMARK  status: ('A' for Active; 'I' for Inactive)
DOCKED: REMARK    1  A    between atoms: O_3  and  C_38 
DOCKED: REMARK    2  A    between atoms: O_4  and  C_40 
DOCKED: REMARK    3  A    between atoms: O_7  and  C_46 
DOCKED: REMARK    4  A    between atoms: O_9  and  C_48 
DOCKED: REMARK    5  A    between atoms: C_15  and  C_20 
DOCKED: REMARK    6  A    between atoms: C_16  and  C_23 
DOCKED: REMARK    7  A    between atoms: C_20  and  C_38 
DOCKED: REMARK    8  A    between atoms: C_23  and  C_40 
DOCKED: REMARK    9  A    between atoms: C_32  and  C_41 
DOCKED: REMARK   10  A    between atoms: C_37  and  C_45 
DOCKED: REMARK   11  A    between atoms: C_41  and  C_44 
DOCKED: REMARK   12  A    between atoms: C_44  and  C_46 
DOCKED: REMARK   13  A    between atoms: C_47  and  C_48 
DOCKED: USER                              x       y       z     vdW  Elec       q    Type
DOCKED: USER                           _______ _______ _______ _____ _____    ______ ____
DOCKED: ROOT
DOCKED: ATOM      1  O   UNL d   1      -5.347   7.619 -12.663 -0.11 -0.36    -0.289 OA
DOCKED: ATOM      2  O   UNL d   1      -2.794   0.579 -13.222 -0.31 +0.03    -0.289 OA
DOCKED: ATOM      3  N   UNL d   1      -7.263   5.029 -13.897 -0.68 -0.07    -0.247 NA
DOCKED: ATOM      4  N   UNL d   1      -5.349   2.760 -14.014 -0.11 -0.01    -0.247 NA
DOCKED: ATOM      5  N   UNL d   1      -7.259   1.353 -15.638 -0.10 +0.05    -0.354 N 
DOCKED: ATOM      6  N   UNL d   1      -9.231   3.720 -15.528 -0.06 +0.03    -0.354 N 
DOCKED: ATOM      7  C   UNL d   1      -7.556   7.455 -13.697 -0.11 +0.03    +0.084 A 
DOCKED: ATOM      8  C   UNL d   1      -3.458   2.811 -12.467 -0.25 +0.01    +0.084 A 
DOCKED: ATOM      9  C   UNL d   1      -4.687   3.505 -13.064 -0.22 +0.01    +0.058 A 
DOCKED: ATOM     10  C   UNL d   1      -8.108   6.098 -14.144 -0.05 +0.01    +0.058 A 
DOCKED: ATOM     11  C   UNL d   1      -6.256   6.962 -13.137 -0.13 +0.11    +0.193 A 
DOCKED: ATOM     12  C   UNL d   1      -6.209   5.473 -13.293 -0.17 +0.04    +0.109 A 
DOCKED: ATOM     13  C   UNL d   1      -3.523   1.550 -13.281 -0.23 -0.01    +0.193 A 
DOCKED: ATOM     14  C   UNL d   1      -7.265   8.376 -14.885 -0.04 +0.01    +0.026 C 
DOCKED: ATOM     15  C   UNL d   1      -5.053   4.751 -12.725 -0.25 +0.02    +0.055 C 
DOCKED: ATOM     16  C   UNL d   1      -3.667   2.456 -10.991 -0.48 +0.00    +0.026 C 
DOCKED: ATOM     17  C   UNL d   1      -4.710   1.647 -14.185 -0.21 -0.00    +0.109 A 
DOCKED: ATOM     18  C   UNL d   1      -9.351   5.976 -14.648 -0.11 +0.00    +0.050 C 
DOCKED: ATOM     19  C   UNL d   1      -9.976   4.755 -15.009 -0.13 -0.00    +0.045 A 
DOCKED: ATOM     20  C   UNL d   1      -6.179   0.520 -15.771 -0.16 -0.00    +0.045 A 
DOCKED: ATOM     21  C   UNL d   1      -5.003   0.566 -15.137 -0.22 -0.00    +0.057 C 
DOCKED: ATOM     22  C   UNL d   1      -7.832  -0.185 -17.180 -0.15 +0.00    -0.019 A 
DOCKED: ATOM     23  C   UNL d   1      -8.307   1.007 -16.450 -0.16 -0.01    +0.045 A 
DOCKED: ATOM     24  C   UNL d   1      -6.572  -0.469 -16.773 -0.18 +0.00    -0.022 A 
DOCKED: ATOM     25  C   UNL d   1     -10.046   2.673 -15.891 -0.12 -0.01    +0.049 A 
DOCKED: ATOM     26  C   UNL d   1     -11.303   4.356 -15.001 -0.13 +0.00    -0.018 A 
DOCKED: ATOM     27  C   UNL d   1     -11.339   3.033 -15.540 -0.13 -0.00    +0.003 A 
DOCKED: ATOM     28  C   UNL d   1      -9.524   1.553 -16.594 -0.13 -0.02    +0.052 C 
DOCKED: ATOM     29  C   UNL d   1      -5.679  -1.580 -17.210 -0.25 -0.00    +0.046 C 
DOCKED: ATOM     30  C   UNL d   1     -12.469   5.152 -14.520 -0.11 -0.00    +0.046 C 
DOCKED: ATOM     31  H   UNL d   1      -7.273   2.090 -14.941 +0.05 -0.02    +0.166 HD
DOCKED: ATOM     32  H   UNL d   1      -8.226   3.761 -15.654 +0.04 -0.00    +0.166 HD
DOCKED: ENDROOT
DOCKED: BRANCH   7  33
DOCKED: ATOM     33  C   UNL d   1      -8.371   8.172 -12.616 -0.11 +0.05    +0.141 C 
DOCKED: BRANCH  33  34
DOCKED: ATOM     34  C   UNL d   1      -7.509   8.968 -11.673 -0.00 +0.31    +0.306 C 
DOCKED: ATOM     35  O   UNL d   1      -7.498   8.877 -10.457 -0.65 -0.29    -0.251 OA
DOCKED: BRANCH  34  36
DOCKED: ATOM     36  O   UNL d   1      -6.705   9.835 -12.314 -0.31 -0.59    -0.481 OA
DOCKED: ATOM     37  H   UNL d   1      -6.096   9.268 -12.834 +0.03 +0.37    +0.295 HD
DOCKED: ENDBRANCH  34  36
DOCKED: ENDBRANCH  33  34
DOCKED: ENDBRANCH   7  33
DOCKED: BRANCH  27  38
DOCKED: ATOM     38  C   UNL d   1     -12.523   2.250 -15.726 -0.11 -0.01    +0.017 C 
DOCKED: ATOM     39  C   UNL d   1     -12.769   1.068 -15.141 -0.07 -0.09    +0.092 C 
DOCKED: BRANCH  39  40
DOCKED: ATOM     40  C   UNL d   1     -14.032   0.372 -15.402 +0.01 -0.26    +0.330 C 
DOCKED: ATOM     41  O   UNL d   1     -15.160   0.783 -15.209 -0.03 +0.09    -0.246 OA
DOCKED: BRANCH  40  42
DOCKED: ATOM     42  O   UNL d   1     -13.792  -0.843 -15.918 +0.05 +0.52    -0.477 OA
DOCKED: ATOM     43  H   UNL d   1     -12.815  -0.881 -15.983 -0.50 -0.49    +0.295 HD
DOCKED: ENDBRANCH  40  42
DOCKED: ENDBRANCH  39  40
DOCKED: ENDBRANCH  27  38
DOCKED: BRANCH   8  44
DOCKED: ATOM     44  C   UNL d   1      -2.123   3.533 -12.680 -0.19 +0.01    +0.141 C 
DOCKED: BRANCH  44  45
DOCKED: ATOM     45  C   UNL d   1      -0.946   2.597 -12.752 -0.24 +0.00    +0.306 C 
DOCKED: ATOM     46  O   UNL d   1      -0.192   2.306 -11.840 -0.25 +0.00    -0.251 OA
DOCKED: BRANCH  45  47
DOCKED: ATOM     47  O   UNL d   1      -0.764   2.094 -13.987 -0.13 +0.03    -0.481 OA
DOCKED: ATOM     48  H   UNL d   1      -0.864   1.125 -13.877 +0.12 -0.02    +0.295 HD
DOCKED: ENDBRANCH  45  47
DOCKED: ENDBRANCH  44  45
DOCKED: ENDBRANCH   8  44
DOCKED: BRANCH  22  49
DOCKED: ATOM     49  C   UNL d   1      -8.640  -0.920 -18.209 -0.10 -0.01    +0.048 C 
DOCKED: BRANCH  49  50
DOCKED: ATOM     50  C   UNL d   1      -9.515  -2.003 -17.578 -0.15 -0.04    +0.125 C 
DOCKED: BRANCH  50  51
DOCKED: ATOM     51  C   UNL d   1     -10.890  -1.476 -17.279 -0.08 -0.19    +0.305 C 
DOCKED: ATOM     52  O   UNL d   1     -11.335  -0.372 -17.538 -0.06 +0.13    -0.251 OA
DOCKED: BRANCH  51  53
DOCKED: ATOM     53  O   UNL d   1     -11.651  -2.387 -16.641 -0.03 +0.46    -0.481 OA
DOCKED: ATOM     54  H   UNL d   1     -11.869  -1.959 -15.787 -0.25 -0.70    +0.295 HD
DOCKED: ENDBRANCH  51  53
DOCKED: ENDBRANCH  50  51
DOCKED: ENDBRANCH  49  50
DOCKED: ENDBRANCH  22  49
DOCKED: TORSDOF 13
DOCKED: TER
DOCKED: ENDMDL
________________________________________________________________________________


	BEGINNING GENETIC ALGORITHM DOCKING 47 of 100
Run: 47 Seed: 58218381 1119635407 [ Run 47 of 100 GA/GALS ]
Beginning LAMARCKIAN GENETIC ALGORITHM (LGA), with a maximum of 25000000 energy evaluations.

Final-Value: -10.748


	FINAL GENETIC ALGORITHM DOCKED STATE
	_______________________________________________


Detailed state:  trans 3.396 15.870 8.962 quatxyzw -0.623337 -0.292465 -0.161745 0.706933 center 0.153 0.018 -0.028 ntor 13 133.5805 -167.6849 -91.8333 86.0033 -133.5311 44.0364 167.6729 49.8206 26.0094 -106.6054 60.6418 -106.9075 143.4895
State:	  3.396  15.870   8.962  -0.881 -0.414 -0.229 90.028    133.58 -167.68  -91.83   86.00 -133.53   44.04  167.67   49.82   26.01 -106.61   60.64 -106.91  143.49

DOCKED: MODEL       47
DOCKED: USER    Run = 47
DOCKED: USER    DPF = D:/Protein_go_brrr/autodock/final/AncA/heme/dock.dpf
DOCKED: USER  
DOCKED: USER    Estimated Free Energy of Binding    =   -3.59 kcal/mol  [=(1)+(2)+(3)-(4)]
DOCKED: USER    Estimated Inhibition Constant, Ki   =    2.34 mM (millimolar)  [Temperature = 298.15 K]
DOCKED: USER    
DOCKED: USER    (1) Final Intermolecular Energy     =   -7.47 kcal/mol
DOCKED: USER        vdW + Hbond + desolv Energy     =   -7.33 kcal/mol
DOCKED: USER        Electrostatic Energy            =   -0.14 kcal/mol
DOCKED: USER    (2) Final Total Internal Energy     =   -3.28 kcal/mol
DOCKED: USER    (3) Torsional Free Energy           =   +3.88 kcal/mol
DOCKED: USER    (4) Unbound System's Energy  [=(2)] =   -3.28 kcal/mol
DOCKED: USER    
DOCKED: USER    
DOCKED: USER    NEWDPF move heme_opt.pdbqt
DOCKED: USER    NEWDPF about 0.153000 0.018000 -0.028000
DOCKED: USER    NEWDPF tran0 3.396120 15.870073 8.962390
DOCKED: USER    NEWDPF quaternion0 -0.623337 -0.292465 -0.161745 0.706933
DOCKED: USER    NEWDPF axisangle0 -0.881314 -0.413507 -0.228686 90.028212
DOCKED: USER    NEWDPF quat0 -0.881314 -0.413507 -0.228686 90.028212
DOCKED: USER    NEWDPF dihe0 133.58 -167.68 -91.83 86.00 -133.53 44.04 167.67 49.82 26.01 -106.61 60.64 -106.91 143.49 
DOCKED: USER  keepresnum = 1 
DOCKED: USER  
DOCKED: REMARK  13 active torsions:
DOCKED: REMARK  status: ('A' for Active; 'I' for Inactive)
DOCKED: REMARK    1  A    between atoms: O_3  and  C_38 
DOCKED: REMARK    2  A    between atoms: O_4  and  C_40 
DOCKED: REMARK    3  A    between atoms: O_7  and  C_46 
DOCKED: REMARK    4  A    between atoms: O_9  and  C_48 
DOCKED: REMARK    5  A    between atoms: C_15  and  C_20 
DOCKED: REMARK    6  A    between atoms: C_16  and  C_23 
DOCKED: REMARK    7  A    between atoms: C_20  and  C_38 
DOCKED: REMARK    8  A    between atoms: C_23  and  C_40 
DOCKED: REMARK    9  A    between atoms: C_32  and  C_41 
DOCKED: REMARK   10  A    between atoms: C_37  and  C_45 
DOCKED: REMARK   11  A    between atoms: C_41  and  C_44 
DOCKED: REMARK   12  A    between atoms: C_44  and  C_46 
DOCKED: REMARK   13  A    between atoms: C_47  and  C_48 
DOCKED: USER                              x       y       z     vdW  Elec       q    Type
DOCKED: USER                           _______ _______ _______ _____ _____    ______ ____
DOCKED: ROOT
DOCKED: ATOM      1  O   UNL d   1      -0.333  12.319  11.833 -0.18 +0.05    -0.289 OA
DOCKED: ATOM      2  O   UNL d   1      -0.297  14.709   4.714 -0.07 +0.00    -0.289 OA
DOCKED: ATOM      3  N   UNL d   1       2.015  14.534  10.618 -0.12 +0.01    -0.247 NA
DOCKED: ATOM      4  N   UNL d   1       1.415  14.639   7.710 -0.14 +0.02    -0.247 NA
DOCKED: ATOM      5  N   UNL d   1       3.947  15.946   7.328 -0.08 +0.05    -0.354 N 
DOCKED: ATOM      6  N   UNL d   1       4.570  15.816  10.344 -0.01 -0.01    -0.354 N 
DOCKED: ATOM      7  C   UNL d   1       1.696  13.340  12.735 -0.14 -0.01    +0.084 A 
DOCKED: ATOM      8  C   UNL d   1      -0.875  14.132   7.022 -0.19 -0.00    +0.084 A 
DOCKED: ATOM      9  C   UNL d   1       0.176  14.212   8.134 -0.22 -0.00    +0.058 A 
DOCKED: ATOM     10  C   UNL d   1       2.526  14.307  11.885 -0.15 -0.00    +0.058 A 
DOCKED: ATOM     11  C   UNL d   1       0.615  13.076  11.731 -0.17 -0.03    +0.193 A 
DOCKED: ATOM     12  C   UNL d   1       0.908  13.877  10.500 -0.22 -0.01    +0.109 A 
DOCKED: ATOM     13  C   UNL d   1       0.007  14.556   5.881 -0.09 -0.00    +0.193 A 
DOCKED: ATOM     14  C   UNL d   1       2.444  12.034  13.014 -0.22 -0.01    +0.026 C 
DOCKED: ATOM     15  C   UNL d   1      -0.078  13.847   9.400 -0.27 -0.00    +0.055 C 
DOCKED: ATOM     16  C   UNL d   1      -1.978  15.177   7.207 -0.08 +0.00    +0.026 C 
DOCKED: ATOM     17  C   UNL d   1       1.370  14.827   6.430 -0.16 -0.01    +0.109 A 
DOCKED: ATOM     18  C   UNL d   1       3.605  14.936  12.387 -0.14 +0.00    +0.050 C 
DOCKED: ATOM     19  C   UNL d   1       4.383  15.907  11.705 -0.14 +0.00    +0.045 A 
DOCKED: ATOM     20  C   UNL d   1       3.609  15.701   6.023 -0.22 -0.01    +0.045 A 
DOCKED: ATOM     21  C   UNL d   1       2.463  15.222   5.529 -0.22 -0.01    +0.057 C 
DOCKED: ATOM     22  C   UNL d   1       5.741  16.519   6.093 -0.30 +0.00    -0.019 A 
DOCKED: ATOM     23  C   UNL d   1       5.215  16.442   7.471 -0.11 -0.01    +0.045 A 
DOCKED: ATOM     24  C   UNL d   1       4.785  16.080   5.240 -0.29 +0.01    -0.022 A 
DOCKED: ATOM     25  C   UNL d   1       5.425  16.802   9.907 -0.16 -0.00    +0.049 A 
DOCKED: ATOM     26  C   UNL d   1       5.104  17.001  12.158 -0.10 -0.00    -0.018 A 
DOCKED: ATOM     27  C   UNL d   1       5.744  17.573  11.016 -0.12 -0.00    +0.003 A 
DOCKED: ATOM     28  C   UNL d   1       5.894  16.818   8.566 -0.17 -0.01    +0.052 C 
DOCKED: ATOM     29  C   UNL d   1       4.836  15.980   3.754 -0.38 -0.01    +0.046 C 
DOCKED: ATOM     30  C   UNL d   1       5.193  17.487  13.565 -0.04 +0.00    +0.046 C 
DOCKED: ATOM     31  H   UNL d   1       3.270  15.836   8.076 +0.05 -0.01    +0.166 HD
DOCKED: ATOM     32  H   UNL d   1       4.159  15.091   9.769 +0.08 +0.02    +0.166 HD
DOCKED: ENDROOT
DOCKED: BRANCH   7  33
DOCKED: ATOM     33  C   UNL d   1       1.105  13.935  14.018 -0.04 -0.01    +0.141 C 
DOCKED: BRANCH  33  34
DOCKED: ATOM     34  C   UNL d   1      -0.053  14.858  13.748 -0.01 -0.01    +0.306 C 
DOCKED: ATOM     35  O   UNL d   1       0.021  16.016  13.375 -0.01 +0.00    -0.251 OA
DOCKED: BRANCH  34  36
DOCKED: ATOM     36  O   UNL d   1      -1.244  14.270  13.960 +0.00 +0.01    -0.481 OA
DOCKED: ATOM     37  H   UNL d   1      -1.187  13.417  13.479 +0.04 -0.01    +0.295 HD
DOCKED: ENDBRANCH  34  36
DOCKED: ENDBRANCH  33  34
DOCKED: ENDBRANCH   7  33
DOCKED: BRANCH  27  38
DOCKED: ATOM     38  C   UNL d   1       6.604  18.718  11.040 -0.07 -0.00    +0.017 C 
DOCKED: ATOM     39  C   UNL d   1       7.930  18.694  10.834 -0.08 -0.00    +0.092 C 
DOCKED: BRANCH  39  40
DOCKED: ATOM     40  C   UNL d   1       8.696  19.943  10.867 -0.01 -0.01    +0.330 C 
DOCKED: ATOM     41  O   UNL d   1       8.582  20.865  11.653 -0.00 +0.00    -0.246 OA
DOCKED: BRANCH  40  42
DOCKED: ATOM     42  O   UNL d   1       9.603  19.955   9.878 +0.00 +0.02    -0.477 OA
DOCKED: ATOM     43  H   UNL d   1       9.339  19.203   9.309 +0.04 -0.02    +0.295 HD
DOCKED: ENDBRANCH  40  42
DOCKED: ENDBRANCH  39  40
DOCKED: ENDBRANCH  27  38
DOCKED: BRANCH   8  44
DOCKED: ATOM     44  C   UNL d   1      -1.465  12.740   6.770 -0.28 +0.00    +0.141 C 
DOCKED: BRANCH  44  45
DOCKED: ATOM     45  C   UNL d   1      -2.022  12.573   5.382 -0.23 +0.01    +0.306 C 
DOCKED: ATOM     46  O   UNL d   1      -1.705  11.722   4.569 -0.30 -0.01    -0.251 OA
DOCKED: BRANCH  45  47
DOCKED: ATOM     47  O   UNL d   1      -2.937  13.511   5.077 -0.05 -0.03    -0.481 OA
DOCKED: ATOM     48  H   UNL d   1      -2.415  14.261   4.720 +0.07 +0.01    +0.295 HD
DOCKED: ENDBRANCH  45  47
DOCKED: ENDBRANCH  44  45
DOCKED: ENDBRANCH   8  44
DOCKED: BRANCH  22  49
DOCKED: ATOM     49  C   UNL d   1       7.120  16.996   5.743 -0.37 -0.01    +0.048 C 
DOCKED: BRANCH  49  50
DOCKED: ATOM     50  C   UNL d   1       8.202  16.135   6.394 -0.40 -0.03    +0.125 C 
DOCKED: BRANCH  50  51
DOCKED: ATOM     51  C   UNL d   1       9.050  16.953   7.326 -0.21 -0.07    +0.305 C 
DOCKED: ATOM     52  O   UNL d   1       8.675  17.784   8.135 -0.14 +0.03    -0.251 OA
DOCKED: BRANCH  51  53
DOCKED: ATOM     53  O   UNL d   1      10.363  16.686   7.180 -0.08 +0.14    -0.481 OA
DOCKED: ATOM     54  H   UNL d   1      10.545  16.007   7.863 -0.46 -0.20    +0.295 HD
DOCKED: ENDBRANCH  51  53
DOCKED: ENDBRANCH  50  51
DOCKED: ENDBRANCH  49  50
DOCKED: ENDBRANCH  22  49
DOCKED: TORSDOF 13
DOCKED: TER
DOCKED: ENDMDL
________________________________________________________________________________


	BEGINNING GENETIC ALGORITHM DOCKING 48 of 100
Run: 48 Seed: 677352124 1896822551 [ Run 48 of 100 GA/GALS ]
Beginning LAMARCKIAN GENETIC ALGORITHM (LGA), with a maximum of 25000000 energy evaluations.

Final-Value: -12.461


	FINAL GENETIC ALGORITHM DOCKED STATE
	_______________________________________________


Detailed state:  trans -6.810 -1.042 -16.499 quatxyzw -0.638263 -0.675060 -0.297905 -0.219472 center 0.153 0.018 -0.028 ntor 13 179.8204 -117.6022 154.8729 172.9099 45.1603 -78.8631 114.7213 51.5801 140.6313 -121.2644 52.1503 73.1125 143.4493
State:	 -6.810  -1.042 -16.499  -0.654 -0.692 -0.305 -154.644    179.82 -117.60  154.87  172.91   45.16  -78.86  114.72   51.58  140.63 -121.26   52.15   73.11  143.45

DOCKED: MODEL       48
DOCKED: USER    Run = 48
DOCKED: USER    DPF = D:/Protein_go_brrr/autodock/final/AncA/heme/dock.dpf
DOCKED: USER  
DOCKED: USER    Estimated Free Energy of Binding    =   -7.03 kcal/mol  [=(1)+(2)+(3)-(4)]
DOCKED: USER    Estimated Inhibition Constant, Ki   =    7.04 uM (micromolar)  [Temperature = 298.15 K]
DOCKED: USER    
DOCKED: USER    (1) Final Intermolecular Energy     =  -10.91 kcal/mol
DOCKED: USER        vdW + Hbond + desolv Energy     =  -10.23 kcal/mol
DOCKED: USER        Electrostatic Energy            =   -0.68 kcal/mol
DOCKED: USER    (2) Final Total Internal Energy     =   -1.55 kcal/mol
DOCKED: USER    (3) Torsional Free Energy           =   +3.88 kcal/mol
DOCKED: USER    (4) Unbound System's Energy  [=(2)] =   -1.55 kcal/mol
DOCKED: USER    
DOCKED: USER    
DOCKED: USER    NEWDPF move heme_opt.pdbqt
DOCKED: USER    NEWDPF about 0.153000 0.018000 -0.028000
DOCKED: USER    NEWDPF tran0 -6.809747 -1.041511 -16.498863
DOCKED: USER    NEWDPF quaternion0 -0.638263 -0.675060 -0.297905 -0.219472
DOCKED: USER    NEWDPF axisangle0 -0.654213 -0.691930 -0.305350 -154.643964
DOCKED: USER    NEWDPF quat0 -0.654213 -0.691930 -0.305350 -154.643964
DOCKED: USER    NEWDPF dihe0 179.82 -117.60 154.87 172.91 45.16 -78.86 114.72 51.58 140.63 -121.26 52.15 73.11 143.45 
DOCKED: USER  keepresnum = 1 
DOCKED: USER  
DOCKED: REMARK  13 active torsions:
DOCKED: REMARK  status: ('A' for Active; 'I' for Inactive)
DOCKED: REMARK    1  A    between atoms: O_3  and  C_38 
DOCKED: REMARK    2  A    between atoms: O_4  and  C_40 
DOCKED: REMARK    3  A    between atoms: O_7  and  C_46 
DOCKED: REMARK    4  A    between atoms: O_9  and  C_48 
DOCKED: REMARK    5  A    between atoms: C_15  and  C_20 
DOCKED: REMARK    6  A    between atoms: C_16  and  C_23 
DOCKED: REMARK    7  A    between atoms: C_20  and  C_38 
DOCKED: REMARK    8  A    between atoms: C_23  and  C_40 
DOCKED: REMARK    9  A    between atoms: C_32  and  C_41 
DOCKED: REMARK   10  A    between atoms: C_37  and  C_45 
DOCKED: REMARK   11  A    between atoms: C_41  and  C_44 
DOCKED: REMARK   12  A    between atoms: C_44  and  C_46 
DOCKED: REMARK   13  A    between atoms: C_47  and  C_48 
DOCKED: USER                              x       y       z     vdW  Elec       q    Type
DOCKED: USER                           _______ _______ _______ _____ _____    ______ ____
DOCKED: ROOT
DOCKED: ATOM      1  O   UNL d   1      -4.580  -4.688 -20.560 -0.19 +0.14    -0.289 OA
DOCKED: ATOM      2  O   UNL d   1     -11.516  -4.099 -17.741 -0.04 +0.10    -0.289 OA
DOCKED: ATOM      3  N   UNL d   1      -5.398  -2.456 -18.060 -0.14 +0.03    -0.247 NA
DOCKED: ATOM      4  N   UNL d   1      -8.347  -2.734 -17.834 -0.12 +0.06    -0.247 NA
DOCKED: ATOM      5  N   UNL d   1      -8.362  -0.322 -16.270 -0.13 +0.12    -0.354 N 
DOCKED: ATOM      6  N   UNL d   1      -5.304  -0.030 -16.526 -0.06 +0.02    -0.354 N 
DOCKED: ATOM      7  C   UNL d   1      -3.396  -2.886 -19.408 -0.17 -0.01    +0.084 A 
DOCKED: ATOM      8  C   UNL d   1      -9.324  -4.869 -18.513 -0.19 -0.03    +0.084 A 
DOCKED: ATOM      9  C   UNL d   1      -8.093  -3.963 -18.402 -0.23 -0.02    +0.058 A 
DOCKED: ATOM     10  C   UNL d   1      -4.093  -2.069 -18.316 -0.19 -0.00    +0.058 A 
DOCKED: ATOM     11  C   UNL d   1      -4.532  -3.816 -19.711 -0.19 -0.05    +0.193 A 
DOCKED: ATOM     12  C   UNL d   1      -5.678  -3.471 -18.812 -0.22 -0.02    +0.109 A 
DOCKED: ATOM     13  C   UNL d   1     -10.330  -3.913 -17.937 -0.08 -0.06    +0.193 A 
DOCKED: ATOM     14  C   UNL d   1      -3.097  -2.046 -20.652 -0.06 -0.00    +0.026 C 
DOCKED: ATOM     15  C   UNL d   1      -6.886  -4.319 -18.867 -0.15 -0.02    +0.055 C 
DOCKED: ATOM     16  C   UNL d   1      -9.217  -6.087 -17.591 -0.25 -0.01    +0.026 C 
DOCKED: ATOM     17  C   UNL d   1      -9.612  -2.655 -17.572 -0.14 -0.04    +0.109 A 
DOCKED: ATOM     18  C   UNL d   1      -3.436  -1.123 -17.619 -0.20 -0.00    +0.050 C 
DOCKED: ATOM     19  C   UNL d   1      -3.972  -0.377 -16.538 -0.19 -0.00    +0.045 A 
DOCKED: ATOM     20  C   UNL d   1      -9.709  -0.484 -16.465 -0.22 -0.03    +0.045 A 
DOCKED: ATOM     21  C   UNL d   1     -10.357  -1.514 -17.019 -0.19 -0.04    +0.057 C 
DOCKED: ATOM     22  C   UNL d   1      -9.347   1.531 -15.453 -0.25 +0.01    -0.019 A 
DOCKED: ATOM     23  C   UNL d   1      -8.047   0.865 -15.665 -0.27 -0.01    +0.045 A 
DOCKED: ATOM     24  C   UNL d   1     -10.328   0.727 -15.927 -0.20 +0.02    -0.022 A 
DOCKED: ATOM     25  C   UNL d   1      -5.587   0.763 -15.438 -0.19 -0.00    +0.049 A 
DOCKED: ATOM     26  C   UNL d   1      -3.382   0.174 -15.411 -0.23 +0.00    -0.018 A 
DOCKED: ATOM     27  C   UNL d   1      -4.411   0.876 -14.710 -0.27 -0.00    +0.003 A 
DOCKED: ATOM     28  C   UNL d   1      -6.862   1.375 -15.294 -0.27 -0.01    +0.052 C 
DOCKED: ATOM     29  C   UNL d   1     -11.801   0.953 -15.930 -0.13 -0.04    +0.046 C 
DOCKED: ATOM     30  C   UNL d   1      -1.952   0.055 -15.006 -0.27 -0.00    +0.046 C 
DOCKED: ATOM     31  H   UNL d   1      -7.705  -1.063 -16.489 +0.06 -0.04    +0.166 HD
DOCKED: ATOM     32  H   UNL d   1      -5.959  -0.299 -17.250 +0.05 -0.01    +0.166 HD
DOCKED: ENDROOT
DOCKED: BRANCH   7  33
DOCKED: ATOM     33  C   UNL d   1      -2.163  -3.675 -18.952 -0.26 -0.03    +0.141 C 
DOCKED: BRANCH  33  34
DOCKED: ATOM     34  C   UNL d   1      -1.413  -4.291 -20.102 -0.18 -0.06    +0.306 C 
DOCKED: ATOM     35  O   UNL d   1      -0.407  -3.846 -20.627 -0.09 +0.02    -0.251 OA
DOCKED: BRANCH  34  36
DOCKED: ATOM     36  O   UNL d   1      -1.970  -5.439 -20.528 -0.13 +0.18    -0.481 OA
DOCKED: ATOM     37  H   UNL d   1      -2.723  -5.589 -19.918 -0.37 -0.18    +0.295 HD
DOCKED: ENDBRANCH  34  36
DOCKED: ENDBRANCH  33  34
DOCKED: ENDBRANCH   7  33
DOCKED: BRANCH  27  38
DOCKED: ATOM     38  C   UNL d   1      -4.229   1.607 -13.492 -0.36 -0.00    +0.017 C 
DOCKED: ATOM     39  C   UNL d   1      -3.982   1.062 -12.291 -0.44 -0.01    +0.092 C 
DOCKED: BRANCH  39  40
DOCKED: ATOM     40  C   UNL d   1      -3.797   1.926 -11.122 -0.34 +0.00    +0.330 C 
DOCKED: ATOM     41  O   UNL d   1      -2.792   2.524 -10.791 -0.28 -0.02    -0.246 OA
DOCKED: BRANCH  40  42
DOCKED: ATOM     42  O   UNL d   1      -4.936   1.995 -10.415 -0.26 -0.01    -0.477 OA
DOCKED: ATOM     43  H   UNL d   1      -5.091   1.072 -10.128 -0.33 -0.09    +0.295 HD
DOCKED: ENDBRANCH  40  42
DOCKED: ENDBRANCH  39  40
DOCKED: ENDBRANCH  27  38
DOCKED: BRANCH   8  44
DOCKED: ATOM     44  C   UNL d   1      -9.713  -5.283 -19.936 -0.12 -0.11    +0.141 C 
DOCKED: BRANCH  44  45
DOCKED: ATOM     45  C   UNL d   1     -11.042  -5.986 -20.008 -0.05 -0.18    +0.306 C 
DOCKED: ATOM     46  O   UNL d   1     -12.140  -5.484 -19.841 -0.02 +0.07    -0.251 OA
DOCKED: BRANCH  45  47
DOCKED: ATOM     47  O   UNL d   1     -10.916  -7.302 -20.261 -0.02 +0.44    -0.481 OA
DOCKED: ATOM     48  H   UNL d   1     -10.063  -7.381 -20.738 -0.52 -0.68    +0.295 HD
DOCKED: ENDBRANCH  45  47
DOCKED: ENDBRANCH  44  45
DOCKED: ENDBRANCH   8  44
DOCKED: BRANCH  22  49
DOCKED: ATOM     49  C   UNL d   1      -9.509   2.885 -14.826 -0.20 -0.01    +0.048 C 
DOCKED: BRANCH  49  50
DOCKED: ATOM     50  C   UNL d   1      -8.778   3.969 -15.618 -0.12 -0.00    +0.125 C 
DOCKED: BRANCH  50  51
DOCKED: ATOM     51  C   UNL d   1      -7.859   4.757 -14.728 -0.09 +0.04    +0.305 C 
DOCKED: ATOM     52  O   UNL d   1      -7.084   4.326 -13.892 -0.73 -0.05    -0.251 OA
DOCKED: BRANCH  51  53
DOCKED: ATOM     53  O   UNL d   1      -7.975   6.084 -14.932 -0.07 -0.07    -0.481 OA
DOCKED: ATOM     54  H   UNL d   1      -8.560   6.155 -15.715 +0.04 +0.02    +0.295 HD
DOCKED: ENDBRANCH  51  53
DOCKED: ENDBRANCH  50  51
DOCKED: ENDBRANCH  49  50
DOCKED: ENDBRANCH  22  49
DOCKED: TORSDOF 13
DOCKED: TER
DOCKED: ENDMDL
________________________________________________________________________________


	BEGINNING GENETIC ALGORITHM DOCKING 49 of 100
Run: 49 Seed: 886266351 1675997458 [ Run 49 of 100 GA/GALS ]
Beginning LAMARCKIAN GENETIC ALGORITHM (LGA), with a maximum of 25000000 energy evaluations.

Final-Value: -12.945


	FINAL GENETIC ALGORITHM DOCKED STATE
	_______________________________________________


Detailed state:  trans -6.798 -1.295 -16.176 quatxyzw 0.727308 -0.651676 -0.187380 0.105977 center 0.153 0.018 -0.028 ntor 13 179.8036 61.8216 -103.7865 90.0999 -140.7821 98.0865 122.7474 -82.2811 -145.1533 -26.8571 -38.3221 -110.3718 180.0000
State:	 -6.798  -1.295 -16.176   0.731 -0.655 -0.188 167.833    179.80   61.82 -103.79   90.10 -140.78   98.09  122.75  -82.28 -145.15  -26.86  -38.32 -110.37  180.00

DOCKED: MODEL       49
DOCKED: USER    Run = 49
DOCKED: USER    DPF = D:/Protein_go_brrr/autodock/final/AncA/heme/dock.dpf
DOCKED: USER  
DOCKED: USER    Estimated Free Energy of Binding    =   -7.34 kcal/mol  [=(1)+(2)+(3)-(4)]
DOCKED: USER    Estimated Inhibition Constant, Ki   =    4.16 uM (micromolar)  [Temperature = 298.15 K]
DOCKED: USER    
DOCKED: USER    (1) Final Intermolecular Energy     =  -11.22 kcal/mol
DOCKED: USER        vdW + Hbond + desolv Energy     =  -10.29 kcal/mol
DOCKED: USER        Electrostatic Energy            =   -0.93 kcal/mol
DOCKED: USER    (2) Final Total Internal Energy     =   -1.73 kcal/mol
DOCKED: USER    (3) Torsional Free Energy           =   +3.88 kcal/mol
DOCKED: USER    (4) Unbound System's Energy  [=(2)] =   -1.73 kcal/mol
DOCKED: USER    
DOCKED: USER    
DOCKED: USER    NEWDPF move heme_opt.pdbqt
DOCKED: USER    NEWDPF about 0.153000 0.018000 -0.028000
DOCKED: USER    NEWDPF tran0 -6.797880 -1.295462 -16.176372
DOCKED: USER    NEWDPF quaternion0 0.727308 -0.651676 -0.187380 0.105977
DOCKED: USER    NEWDPF axisangle0 0.731427 -0.655366 -0.188441 167.833126
DOCKED: USER    NEWDPF quat0 0.731427 -0.655366 -0.188441 167.833126
DOCKED: USER    NEWDPF dihe0 179.80 61.82 -103.79 90.10 -140.78 98.09 122.75 -82.28 -145.15 -26.86 -38.32 -110.37 180.00 
DOCKED: USER  keepresnum = 1 
DOCKED: USER  
DOCKED: REMARK  13 active torsions:
DOCKED: REMARK  status: ('A' for Active; 'I' for Inactive)
DOCKED: REMARK    1  A    between atoms: O_3  and  C_38 
DOCKED: REMARK    2  A    between atoms: O_4  and  C_40 
DOCKED: REMARK    3  A    between atoms: O_7  and  C_46 
DOCKED: REMARK    4  A    between atoms: O_9  and  C_48 
DOCKED: REMARK    5  A    between atoms: C_15  and  C_20 
DOCKED: REMARK    6  A    between atoms: C_16  and  C_23 
DOCKED: REMARK    7  A    between atoms: C_20  and  C_38 
DOCKED: REMARK    8  A    between atoms: C_23  and  C_40 
DOCKED: REMARK    9  A    between atoms: C_32  and  C_41 
DOCKED: REMARK   10  A    between atoms: C_37  and  C_45 
DOCKED: REMARK   11  A    between atoms: C_41  and  C_44 
DOCKED: REMARK   12  A    between atoms: C_44  and  C_46 
DOCKED: REMARK   13  A    between atoms: C_47  and  C_48 
DOCKED: USER                              x       y       z     vdW  Elec       q    Type
DOCKED: USER                           _______ _______ _______ _____ _____    ______ ____
DOCKED: ROOT
DOCKED: ATOM      1  O   UNL d   1      -9.004   3.842 -14.308 -0.34 -0.00    -0.289 OA
DOCKED: ATOM      2  O   UNL d   1      -2.013   1.110 -14.089 -0.24 +0.01    -0.289 OA
DOCKED: ATOM      3  N   UNL d   1      -8.200   0.678 -15.419 -0.23 +0.09    -0.247 NA
DOCKED: ATOM      4  N   UNL d   1      -5.236   0.617 -15.221 -0.13 +0.01    -0.247 NA
DOCKED: ATOM      5  N   UNL d   1      -5.270  -1.769 -16.824 -0.12 +0.02    -0.354 N 
DOCKED: ATOM      6  N   UNL d   1      -8.344  -1.688 -17.041 -0.08 +0.09    -0.354 N 
DOCKED: ATOM      7  C   UNL d   1     -10.224   2.059 -15.452 -0.18 -0.04    +0.084 A 
DOCKED: ATOM      8  C   UNL d   1      -4.195   2.094 -13.575 -0.22 -0.00    +0.084 A 
DOCKED: ATOM      9  C   UNL d   1      -5.457   1.619 -14.303 -0.25 -0.00    +0.058 A 
DOCKED: ATOM     10  C   UNL d   1      -9.527   0.743 -15.809 -0.25 -0.04    +0.058 A 
DOCKED: ATOM     11  C   UNL d   1      -9.061   2.719 -14.774 -0.12 -0.04    +0.193 A 
DOCKED: ATOM     12  C   UNL d   1      -7.902   1.771 -14.795 -0.26 -0.02    +0.109 A 
DOCKED: ATOM     13  C   UNL d   1      -3.211   1.201 -14.277 -0.17 -0.01    +0.193 A 
DOCKED: ATOM     14  C   UNL d   1     -10.595   2.869 -16.697 -0.07 -0.01    +0.026 C 
DOCKED: ATOM     15  C   UNL d   1      -6.663   2.171 -14.098 -0.31 -0.00    +0.055 C 
DOCKED: ATOM     16  C   UNL d   1      -4.223   1.723 -12.089 -0.49 -0.00    +0.026 C 
DOCKED: ATOM     17  C   UNL d   1      -3.967   0.362 -15.254 -0.20 -0.01    +0.109 A 
DOCKED: ATOM     18  C   UNL d   1     -10.199  -0.278 -16.373 -0.22 -0.04    +0.050 C 
DOCKED: ATOM     19  C   UNL d   1      -9.660  -1.558 -16.661 -0.22 -0.03    +0.045 A 
DOCKED: ATOM     20  C   UNL d   1      -3.924  -1.508 -16.819 -0.18 -0.00    +0.045 A 
DOCKED: ATOM     21  C   UNL d   1      -3.252  -0.585 -16.123 -0.14 -0.00    +0.057 C 
DOCKED: ATOM     22  C   UNL d   1      -4.335  -3.235 -18.256 -0.33 +0.00    -0.019 A 
DOCKED: ATOM     23  C   UNL d   1      -5.614  -2.795 -17.663 -0.29 -0.00    +0.045 A 
DOCKED: ATOM     24  C   UNL d   1      -3.338  -2.470 -17.751 -0.27 +0.00    -0.022 A 
DOCKED: ATOM     25  C   UNL d   1      -8.059  -2.996 -17.358 -0.20 -0.01    +0.049 A 
DOCKED: ATOM     26  C   UNL d   1     -10.236  -2.818 -16.696 -0.23 +0.01    -0.018 A 
DOCKED: ATOM     27  C   UNL d   1      -9.215  -3.725 -17.118 -0.26 -0.00    +0.003 A 
DOCKED: ATOM     28  C   UNL d   1      -6.806  -3.352 -17.927 -0.28 -0.01    +0.052 C 
DOCKED: ATOM     29  C   UNL d   1      -1.876  -2.538 -18.034 -0.30 -0.00    +0.046 C 
DOCKED: ATOM     30  C   UNL d   1     -11.647  -3.163 -16.357 -0.11 -0.04    +0.046 C 
DOCKED: ATOM     31  H   UNL d   1      -5.902  -1.284 -16.197 +0.07 -0.01    +0.166 HD
DOCKED: ATOM     32  H   UNL d   1      -7.701  -0.908 -17.111 +0.05 -0.03    +0.166 HD
DOCKED: ENDROOT
DOCKED: BRANCH   7  33
DOCKED: ATOM     33  C   UNL d   1     -11.409   1.935 -14.488 -0.18 -0.11    +0.141 C 
DOCKED: BRANCH  33  34
DOCKED: ATOM     34  C   UNL d   1     -12.734   1.905 -15.200 -0.08 -0.17    +0.306 C 
DOCKED: ATOM     35  O   UNL d   1     -13.395   2.874 -15.532 -0.03 +0.07    -0.251 OA
DOCKED: BRANCH  34  36
DOCKED: ATOM     36  O   UNL d   1     -13.156   0.655 -15.458 -0.03 +0.47    -0.481 OA
DOCKED: ATOM     37  H   UNL d   1     -12.431   0.078 -15.136 -0.46 -0.64    +0.295 HD
DOCKED: ENDBRANCH  34  36
DOCKED: ENDBRANCH  33  34
DOCKED: ENDBRANCH   7  33
DOCKED: BRANCH  27  38
DOCKED: ATOM     38  C   UNL d   1      -9.388  -5.134 -17.303 -0.27 -0.00    +0.017 C 
DOCKED: ATOM     39  C   UNL d   1      -9.455  -5.757 -18.490 -0.25 -0.05    +0.092 C 
DOCKED: BRANCH  39  40
DOCKED: ATOM     40  C   UNL d   1      -9.617  -7.212 -18.542 -0.08 -0.23    +0.330 C 
DOCKED: ATOM     41  O   UNL d   1     -10.650  -7.841 -18.673 -0.11 +0.12    -0.246 OA
DOCKED: BRANCH  40  42
DOCKED: ATOM     42  O   UNL d   1      -8.423  -7.814 -18.433 -0.60 +0.28    -0.477 OA
DOCKED: ATOM     43  H   UNL d   1      -8.327  -8.301 -19.277 -0.45 -0.45    +0.295 HD
DOCKED: ENDBRANCH  40  42
DOCKED: ENDBRANCH  39  40
DOCKED: ENDBRANCH  27  38
DOCKED: BRANCH   8  44
DOCKED: ATOM     44  C   UNL d   1      -3.834   3.570 -13.772 -0.11 +0.01    +0.141 C 
DOCKED: BRANCH  44  45
DOCKED: ATOM     45  C   UNL d   1      -3.212   3.856 -15.112 -0.00 +0.03    +0.306 C 
DOCKED: ATOM     46  O   UNL d   1      -3.796   3.971 -16.175 -0.01 -0.02    -0.251 OA
DOCKED: BRANCH  45  47
DOCKED: ATOM     47  O   UNL d   1      -1.872   3.956 -15.047 +0.02 -0.04    -0.481 OA
DOCKED: ATOM     48  H   UNL d   1      -1.558   3.031 -14.956 +0.08 +0.01    +0.295 HD
DOCKED: ENDBRANCH  45  47
DOCKED: ENDBRANCH  44  45
DOCKED: ENDBRANCH   8  44
DOCKED: BRANCH  22  49
DOCKED: ATOM     49  C   UNL d   1      -4.209  -4.342 -19.262 -0.26 -0.01    +0.048 C 
DOCKED: BRANCH  49  50
DOCKED: ATOM     50  C   UNL d   1      -4.167  -3.807 -20.693 -0.18 -0.04    +0.125 C 
DOCKED: BRANCH  50  51
DOCKED: ATOM     51  C   UNL d   1      -3.213  -4.605 -21.536 -0.10 -0.10    +0.305 C 
DOCKED: ATOM     52  O   UNL d   1      -2.019  -4.416 -21.688 -0.07 +0.05    -0.251 OA
DOCKED: BRANCH  51  53
DOCKED: ATOM     53  O   UNL d   1      -3.830  -5.621 -22.171 -0.10 +0.26    -0.481 OA
DOCKED: ATOM     54  H   UNL d   1      -3.757  -6.372 -21.545 -0.44 -0.27    +0.295 HD
DOCKED: ENDBRANCH  51  53
DOCKED: ENDBRANCH  50  51
DOCKED: ENDBRANCH  49  50
DOCKED: ENDBRANCH  22  49
DOCKED: TORSDOF 13
DOCKED: TER
DOCKED: ENDMDL
________________________________________________________________________________


	BEGINNING GENETIC ALGORITHM DOCKING 50 of 100
Run: 50 Seed: 1731803330 238414219 [ Run 50 of 100 GA/GALS ]
Beginning LAMARCKIAN GENETIC ALGORITHM (LGA), with a maximum of 25000000 energy evaluations.

Final-Value: -10.148


	FINAL GENETIC ALGORITHM DOCKED STATE
	_______________________________________________


Detailed state:  trans 11.588 -2.681 -15.473 quatxyzw -0.925159 0.010267 -0.138522 -0.353251 center 0.153 0.018 -0.028 ntor 13 91.0463 -7.8877 81.5176 115.5312 -146.8950 169.9395 -87.1106 99.4490 24.2047 -36.7523 148.1886 18.8241 179.8651
State:	 11.588  -2.681 -15.473  -0.989  0.011 -0.148 -138.627     91.05   -7.89   81.52  115.53 -146.90  169.94  -87.11   99.45   24.20  -36.75  148.19   18.82  179.87

DOCKED: MODEL       50
DOCKED: USER    Run = 50
DOCKED: USER    DPF = D:/Protein_go_brrr/autodock/final/AncA/heme/dock.dpf
DOCKED: USER  
DOCKED: USER    Estimated Free Energy of Binding    =   -4.20 kcal/mol  [=(1)+(2)+(3)-(4)]
DOCKED: USER    Estimated Inhibition Constant, Ki   =  829.81 uM (micromolar)  [Temperature = 298.15 K]
DOCKED: USER    
DOCKED: USER    (1) Final Intermolecular Energy     =   -8.08 kcal/mol
DOCKED: USER        vdW + Hbond + desolv Energy     =   -7.55 kcal/mol
DOCKED: USER        Electrostatic Energy            =   -0.54 kcal/mol
DOCKED: USER    (2) Final Total Internal Energy     =   -2.07 kcal/mol
DOCKED: USER    (3) Torsional Free Energy           =   +3.88 kcal/mol
DOCKED: USER    (4) Unbound System's Energy  [=(2)] =   -2.07 kcal/mol
DOCKED: USER    
DOCKED: USER    
DOCKED: USER    NEWDPF move heme_opt.pdbqt
DOCKED: USER    NEWDPF about 0.153000 0.018000 -0.028000
DOCKED: USER    NEWDPF tran0 11.587785 -2.681467 -15.472980
DOCKED: USER    NEWDPF quaternion0 -0.925159 0.010267 -0.138522 -0.353251
DOCKED: USER    NEWDPF axisangle0 -0.988916 0.010975 -0.148068 -138.627401
DOCKED: USER    NEWDPF quat0 -0.988916 0.010975 -0.148068 -138.627401
DOCKED: USER    NEWDPF dihe0 91.05 -7.89 81.52 115.53 -146.90 169.94 -87.11 99.45 24.20 -36.75 148.19 18.82 179.87 
DOCKED: USER  keepresnum = 1 
DOCKED: USER  
DOCKED: REMARK  13 active torsions:
DOCKED: REMARK  status: ('A' for Active; 'I' for Inactive)
DOCKED: REMARK    1  A    between atoms: O_3  and  C_38 
DOCKED: REMARK    2  A    between atoms: O_4  and  C_40 
DOCKED: REMARK    3  A    between atoms: O_7  and  C_46 
DOCKED: REMARK    4  A    between atoms: O_9  and  C_48 
DOCKED: REMARK    5  A    between atoms: C_15  and  C_20 
DOCKED: REMARK    6  A    between atoms: C_16  and  C_23 
DOCKED: REMARK    7  A    between atoms: C_20  and  C_38 
DOCKED: REMARK    8  A    between atoms: C_23  and  C_40 
DOCKED: REMARK    9  A    between atoms: C_32  and  C_41 
DOCKED: REMARK   10  A    between atoms: C_37  and  C_45 
DOCKED: REMARK   11  A    between atoms: C_41  and  C_44 
DOCKED: REMARK   12  A    between atoms: C_44  and  C_46 
DOCKED: REMARK   13  A    between atoms: C_47  and  C_48 
DOCKED: USER                              x       y       z     vdW  Elec       q    Type
DOCKED: USER                           _______ _______ _______ _____ _____    ______ ____
DOCKED: ROOT
DOCKED: ATOM      1  O   UNL d   1       6.497  -2.871 -18.441 -0.08 +0.10    -0.289 OA
DOCKED: ATOM      2  O   UNL d   1       8.235   0.237 -11.829 -0.05 -0.06    -0.289 OA
DOCKED: ATOM      3  N   UNL d   1       9.628  -3.136 -17.017 -0.04 +0.03    -0.247 NA
DOCKED: ATOM      4  N   UNL d   1       9.444  -1.375 -14.630 -0.06 -0.02    -0.247 NA
DOCKED: ATOM      5  N   UNL d   1      12.307  -1.520 -14.418 -0.06 +0.01    -0.354 N 
DOCKED: ATOM      6  N   UNL d   1      12.491  -3.331 -16.906 +0.00 +0.00    -0.354 N 
DOCKED: ATOM      7  C   UNL d   1       8.646  -3.781 -19.168 -0.03 -0.01    +0.084 A 
DOCKED: ATOM      8  C   UNL d   1       7.226  -1.028 -13.666 -0.33 +0.00    +0.084 A 
DOCKED: ATOM      9  C   UNL d   1       8.096  -1.616 -14.781 -0.20 -0.00    +0.058 A 
DOCKED: ATOM     10  C   UNL d   1       9.869  -3.722 -18.248 -0.03 -0.00    +0.058 A 
DOCKED: ATOM     11  C   UNL d   1       7.666  -3.142 -18.232 -0.06 -0.05    +0.193 A 
DOCKED: ATOM     12  C   UNL d   1       8.375  -2.820 -16.953 -0.08 -0.03    +0.109 A 
DOCKED: ATOM     13  C   UNL d   1       8.325  -0.377 -12.874 -0.22 +0.03    +0.193 A 
DOCKED: ATOM     14  C   UNL d   1       8.810  -2.888 -20.400 -0.00 +0.00    +0.026 C 
DOCKED: ATOM     15  C   UNL d   1       7.582  -2.263 -15.839 -0.20 -0.02    +0.055 C 
DOCKED: ATOM     16  C   UNL d   1       6.584  -2.123 -12.810 -0.53 -0.00    +0.026 C 
DOCKED: ATOM     17  C   UNL d   1       9.618  -0.656 -13.569 -0.21 +0.01    +0.109 A 
DOCKED: ATOM     18  C   UNL d   1      11.042  -4.282 -18.600 -0.02 -0.00    +0.050 C 
DOCKED: ATOM     19  C   UNL d   1      12.199  -4.350 -17.783 -0.02 -0.00    +0.045 A 
DOCKED: ATOM     20  C   UNL d   1      12.052  -0.537 -13.498 -0.27 +0.00    +0.045 A 
DOCKED: ATOM     21  C   UNL d   1      10.874  -0.103 -13.040 -0.35 +0.00    +0.057 C 
DOCKED: ATOM     22  C   UNL d   1      14.313  -0.722 -13.773 -0.25 +0.00    -0.019 A 
DOCKED: ATOM     23  C   UNL d   1      13.644  -1.704 -14.650 -0.12 -0.01    +0.045 A 
DOCKED: ATOM     24  C   UNL d   1      13.365  -0.035 -13.093 -0.35 +0.00    -0.022 A 
DOCKED: ATOM     25  C   UNL d   1      13.697  -3.558 -16.285 -0.08 -0.00    +0.049 A 
DOCKED: ATOM     26  C   UNL d   1      13.223  -5.282 -17.704 -0.03 -0.00    -0.018 A 
DOCKED: ATOM     27  C   UNL d   1      14.156  -4.786 -16.742 -0.07 -0.00    +0.003 A 
DOCKED: ATOM     28  C   UNL d   1      14.286  -2.568 -15.452 -0.11 -0.01    +0.052 C 
DOCKED: ATOM     29  C   UNL d   1      13.542   1.048 -12.084 -0.55 +0.00    +0.046 C 
DOCKED: ATOM     30  C   UNL d   1      13.329  -6.556 -18.471 -0.02 +0.00    +0.046 C 
DOCKED: ATOM     31  H   UNL d   1      11.559  -2.087 -14.804 +0.07 -0.00    +0.166 HD
DOCKED: ATOM     32  H   UNL d   1      11.904  -2.514 -16.781 +0.03 +0.00    +0.166 HD
DOCKED: ENDROOT
DOCKED: BRANCH   7  33
DOCKED: ATOM     33  C   UNL d   1       8.181  -5.190 -19.553 -0.04 -0.02    +0.141 C 
DOCKED: BRANCH  33  34
DOCKED: ATOM     34  C   UNL d   1       7.533  -5.920 -18.408 -0.10 -0.13    +0.306 C 
DOCKED: ATOM     35  O   UNL d   1       8.091  -6.667 -17.622 -0.10 +0.09    -0.251 OA
DOCKED: BRANCH  34  36
DOCKED: ATOM     36  O   UNL d   1       6.216  -5.667 -18.312 -0.08 +0.42    -0.481 OA
DOCKED: ATOM     37  H   UNL d   1       6.155  -4.900 -17.703 -0.09 -0.43    +0.295 HD
DOCKED: ENDBRANCH  34  36
DOCKED: ENDBRANCH  33  34
DOCKED: ENDBRANCH   7  33
DOCKED: BRANCH  27  38
DOCKED: ATOM     38  C   UNL d   1      15.375  -5.435 -16.364 -0.08 -0.00    +0.017 C 
DOCKED: ATOM     39  C   UNL d   1      15.720  -5.766 -15.110 -0.13 -0.00    +0.092 C 
DOCKED: BRANCH  39  40
DOCKED: ATOM     40  C   UNL d   1      16.993  -6.446 -14.859 -0.03 +0.01    +0.330 C 
DOCKED: ATOM     41  O   UNL d   1      17.539  -6.629 -13.787 -0.05 -0.01    -0.246 OA
DOCKED: BRANCH  40  42
DOCKED: ATOM     42  O   UNL d   1      17.521  -6.879 -16.014 +0.01 -0.02    -0.477 OA
DOCKED: ATOM     43  H   UNL d   1      18.413  -7.194 -15.760 +0.02 +0.02    +0.295 HD
DOCKED: ENDBRANCH  40  42
DOCKED: ENDBRANCH  39  40
DOCKED: ENDBRANCH  27  38
DOCKED: BRANCH   8  44
DOCKED: ATOM     44  C   UNL d   1       6.187   0.006 -14.114 -0.35 +0.04    +0.141 C 
DOCKED: BRANCH  44  45
DOCKED: ATOM     45  C   UNL d   1       6.734   1.407 -14.182 -0.20 +0.28    +0.306 C 
DOCKED: ATOM     46  O   UNL d   1       6.228   2.408 -13.706 -0.58 -0.27    -0.251 OA
DOCKED: BRANCH  45  47
DOCKED: ATOM     47  O   UNL d   1       7.885   1.477 -14.875 -0.55 -0.64    -0.481 OA
DOCKED: ATOM     48  H   UNL d   1       8.586   1.492 -14.189 -0.43 +0.19    +0.295 HD
DOCKED: ENDBRANCH  45  47
DOCKED: ENDBRANCH  44  45
DOCKED: ENDBRANCH   8  44
DOCKED: BRANCH  22  49
DOCKED: ATOM     49  C   UNL d   1      15.800  -0.538 -13.694 -0.17 -0.02    +0.048 C 
DOCKED: BRANCH  49  50
DOCKED: ATOM     50  C   UNL d   1      16.280   0.607 -14.585 -0.13 -0.01    +0.125 C 
DOCKED: BRANCH  50  51
DOCKED: ATOM     51  C   UNL d   1      15.401   0.749 -15.796 -0.06 +0.02    +0.305 C 
DOCKED: ATOM     52  O   UNL d   1      14.431   1.473 -15.929 -0.11 -0.04    -0.251 OA
DOCKED: BRANCH  51  53
DOCKED: ATOM     53  O   UNL d   1      15.793  -0.060 -16.800 +0.00 -0.03    -0.481 OA
DOCKED: ATOM     54  H   UNL d   1      16.678   0.280 -17.049 +0.03 +0.02    +0.295 HD
DOCKED: ENDBRANCH  51  53
DOCKED: ENDBRANCH  50  51
DOCKED: ENDBRANCH  49  50
DOCKED: ENDBRANCH  22  49
DOCKED: TORSDOF 13
DOCKED: TER
DOCKED: ENDMDL
________________________________________________________________________________


	BEGINNING GENETIC ALGORITHM DOCKING 51 of 100
Run: 51 Seed: 1004091723 2070921680 [ Run 51 of 100 GA/GALS ]
Beginning LAMARCKIAN GENETIC ALGORITHM (LGA), with a maximum of 25000000 energy evaluations.

Final-Value: -13.170


	FINAL GENETIC ALGORITHM DOCKED STATE
	_______________________________________________


Detailed state:  trans -13.241 -14.932 -7.999 quatxyzw -0.440664 -0.586747 -0.661009 0.156879 center 0.153 0.018 -0.028 ntor 13 161.7871 -149.8532 -95.3967 -6.6139 59.5136 -32.6806 155.6232 -46.7872 151.7835 -82.7260 60.9212 -53.0261 128.0732
State:	-13.241 -14.932  -7.999  -0.446 -0.594 -0.669 161.948    161.79 -149.85  -95.40   -6.61   59.51  -32.68  155.62  -46.79  151.78  -82.73   60.92  -53.03  128.07

DOCKED: MODEL       51
DOCKED: USER    Run = 51
DOCKED: USER    DPF = D:/Protein_go_brrr/autodock/final/AncA/heme/dock.dpf
DOCKED: USER  
DOCKED: USER    Estimated Free Energy of Binding    =   -5.53 kcal/mol  [=(1)+(2)+(3)-(4)]
DOCKED: USER    Estimated Inhibition Constant, Ki   =   87.77 uM (micromolar)  [Temperature = 298.15 K]
DOCKED: USER    
DOCKED: USER    (1) Final Intermolecular Energy     =   -9.41 kcal/mol
DOCKED: USER        vdW + Hbond + desolv Energy     =   -9.15 kcal/mol
DOCKED: USER        Electrostatic Energy            =   -0.26 kcal/mol
DOCKED: USER    (2) Final Total Internal Energy     =   -3.76 kcal/mol
DOCKED: USER    (3) Torsional Free Energy           =   +3.88 kcal/mol
DOCKED: USER    (4) Unbound System's Energy  [=(2)] =   -3.76 kcal/mol
DOCKED: USER    
DOCKED: USER    
DOCKED: USER    NEWDPF move heme_opt.pdbqt
DOCKED: USER    NEWDPF about 0.153000 0.018000 -0.028000
DOCKED: USER    NEWDPF tran0 -13.240614 -14.932408 -7.999068
DOCKED: USER    NEWDPF quaternion0 -0.440664 -0.586747 -0.661009 0.156879
DOCKED: USER    NEWDPF axisangle0 -0.446189 -0.594103 -0.669296 161.948478
DOCKED: USER    NEWDPF quat0 -0.446189 -0.594103 -0.669296 161.948478
DOCKED: USER    NEWDPF dihe0 161.79 -149.85 -95.40 -6.61 59.51 -32.68 155.62 -46.79 151.78 -82.73 60.92 -53.03 128.07 
DOCKED: USER  keepresnum = 1 
DOCKED: USER  
DOCKED: REMARK  13 active torsions:
DOCKED: REMARK  status: ('A' for Active; 'I' for Inactive)
DOCKED: REMARK    1  A    between atoms: O_3  and  C_38 
DOCKED: REMARK    2  A    between atoms: O_4  and  C_40 
DOCKED: REMARK    3  A    between atoms: O_7  and  C_46 
DOCKED: REMARK    4  A    between atoms: O_9  and  C_48 
DOCKED: REMARK    5  A    between atoms: C_15  and  C_20 
DOCKED: REMARK    6  A    between atoms: C_16  and  C_23 
DOCKED: REMARK    7  A    between atoms: C_20  and  C_38 
DOCKED: REMARK    8  A    between atoms: C_23  and  C_40 
DOCKED: REMARK    9  A    between atoms: C_32  and  C_41 
DOCKED: REMARK   10  A    between atoms: C_37  and  C_45 
DOCKED: REMARK   11  A    between atoms: C_41  and  C_44 
DOCKED: REMARK   12  A    between atoms: C_44  and  C_46 
DOCKED: REMARK   13  A    between atoms: C_47  and  C_48 
DOCKED: USER                              x       y       z     vdW  Elec       q    Type
DOCKED: USER                           _______ _______ _______ _____ _____    ______ ____
DOCKED: ROOT
DOCKED: ATOM      1  O   UNL d   1      -9.065 -19.028  -8.741 -0.11 -0.24    -0.289 OA
DOCKED: ATOM      2  O   UNL d   1     -14.458 -16.593 -13.365 -0.09 -0.26    -0.289 OA
DOCKED: ATOM      3  N   UNL d   1     -11.403 -16.670  -7.807 -0.14 -0.06    -0.247 NA
DOCKED: ATOM      4  N   UNL d   1     -12.882 -16.139 -10.329 -0.06 -0.04    -0.247 NA
DOCKED: ATOM      5  N   UNL d   1     -14.019 -13.820  -9.065 -0.13 -0.03    -0.354 N 
DOCKED: ATOM      6  N   UNL d   1     -12.466 -14.367  -6.459 -0.13 -0.06    -0.354 N 
DOCKED: ATOM      7  C   UNL d   1      -9.396 -17.620  -6.770 -0.20 +0.05    +0.084 A 
DOCKED: ATOM      8  C   UNL d   1     -12.927 -17.925 -11.996 -0.10 +0.03    +0.084 A 
DOCKED: ATOM      9  C   UNL d   1     -12.404 -17.387 -10.660 -0.17 +0.02    +0.058 A 
DOCKED: ATOM     10  C   UNL d   1     -10.578 -16.650  -6.695 -0.23 +0.02    +0.058 A 
DOCKED: ATOM     11  C   UNL d   1      -9.708 -18.205  -8.114 -0.12 +0.12    +0.193 A 
DOCKED: ATOM     12  C   UNL d   1     -10.961 -17.566  -8.628 -0.19 +0.04    +0.109 A 
DOCKED: ATOM     13  C   UNL d   1     -13.761 -16.735 -12.380 -0.14 +0.11    +0.193 A 
DOCKED: ATOM     14  C   UNL d   1      -8.055 -16.886  -6.849 -0.18 +0.02    +0.026 C 
DOCKED: ATOM     15  C   UNL d   1     -11.518 -18.055  -9.906 -0.20 +0.02    +0.055 C 
DOCKED: ATOM     16  C   UNL d   1     -13.851 -19.131 -11.800 -0.03 +0.01    +0.026 C 
DOCKED: ATOM     17  C   UNL d   1     -13.642 -15.720 -11.289 -0.22 +0.05    +0.109 A 
DOCKED: ATOM     18  C   UNL d   1     -10.820 -15.920  -5.590 -0.19 +0.02    +0.050 C 
DOCKED: ATOM     19  C   UNL d   1     -11.933 -15.062  -5.397 -0.15 +0.01    +0.045 A 
DOCKED: ATOM     20  C   UNL d   1     -14.430 -13.610 -10.356 -0.26 +0.01    +0.045 A 
DOCKED: ATOM     21  C   UNL d   1     -14.323 -14.423 -11.412 -0.18 +0.03    +0.057 C 
DOCKED: ATOM     22  C   UNL d   1     -14.957 -11.773  -9.105 -0.24 -0.00    -0.019 A 
DOCKED: ATOM     23  C   UNL d   1     -14.294 -12.765  -8.236 -0.23 +0.00    +0.045 A 
DOCKED: ATOM     24  C   UNL d   1     -15.036 -12.279 -10.358 -0.24 -0.01    -0.022 A 
DOCKED: ATOM     25  C   UNL d   1     -13.472 -13.532  -6.034 -0.18 +0.01    +0.049 A 
DOCKED: ATOM     26  C   UNL d   1     -12.635 -14.697  -4.259 -0.12 -0.00    -0.018 A 
DOCKED: ATOM     27  C   UNL d   1     -13.618 -13.745  -4.670 -0.14 +0.00    +0.003 A 
DOCKED: ATOM     28  C   UNL d   1     -14.069 -12.598  -6.924 -0.23 +0.00    +0.052 C 
DOCKED: ATOM     29  C   UNL d   1     -15.629 -11.661 -11.578 -0.02 +0.02    +0.046 C 
DOCKED: ATOM     30  C   UNL d   1     -12.409 -15.201  -2.874 -0.14 +0.01    +0.046 C 
DOCKED: ATOM     31  H   UNL d   1     -13.629 -14.711  -8.775 -0.08 +0.01    +0.166 HD
DOCKED: ATOM     32  H   UNL d   1     -12.121 -14.444  -7.409 -0.20 +0.00    +0.166 HD
DOCKED: ENDROOT
DOCKED: BRANCH   7  33
DOCKED: ATOM     33  C   UNL d   1      -9.375 -18.715  -5.698 -0.08 +0.08    +0.141 C 
DOCKED: BRANCH  33  34
DOCKED: ATOM     34  C   UNL d   1      -8.012 -19.327  -5.521 -0.05 +0.23    +0.306 C 
DOCKED: ATOM     35  O   UNL d   1      -7.308 -19.242  -4.529 -0.03 -0.19    -0.251 OA
DOCKED: BRANCH  34  36
DOCKED: ATOM     36  O   UNL d   1      -7.608 -20.016  -6.603 -0.12 -0.50    -0.481 OA
DOCKED: ATOM     37  H   UNL d   1      -8.435 -20.220  -7.088 +0.04 +0.25    +0.295 HD
DOCKED: ENDBRANCH  34  36
DOCKED: ENDBRANCH  33  34
DOCKED: ENDBRANCH   7  33
DOCKED: BRANCH  27  38
DOCKED: ATOM     38  C   UNL d   1     -14.553 -13.097  -3.801 -0.23 +0.00    +0.017 C 
DOCKED: ATOM     39  C   UNL d   1     -15.258 -11.996  -4.105 -0.27 +0.00    +0.092 C 
DOCKED: BRANCH  39  40
DOCKED: ATOM     40  C   UNL d   1     -16.199 -11.439  -3.129 -0.21 +0.02    +0.330 C 
DOCKED: ATOM     41  O   UNL d   1     -16.888 -12.046  -2.330 -0.65 -0.02    -0.246 OA
DOCKED: BRANCH  40  42
DOCKED: ATOM     42  O   UNL d   1     -16.211 -10.100  -3.211 -0.49 +0.04    -0.477 OA
DOCKED: ATOM     43  H   UNL d   1     -16.002  -9.921  -4.151 +0.03 -0.03    +0.295 HD
DOCKED: ENDBRANCH  40  42
DOCKED: ENDBRANCH  39  40
DOCKED: ENDBRANCH  27  38
DOCKED: BRANCH   8  44
DOCKED: ATOM     44  C   UNL d   1     -11.859 -18.212 -13.056 -0.13 +0.06    +0.141 C 
DOCKED: BRANCH  44  45
DOCKED: ATOM     45  C   UNL d   1     -12.198 -17.646 -14.409 -0.09 +0.21    +0.306 C 
DOCKED: ATOM     46  O   UNL d   1     -11.631 -16.728 -14.977 -0.60 -0.25    -0.251 OA
DOCKED: BRANCH  45  47
DOCKED: ATOM     47  O   UNL d   1     -13.260 -18.254 -14.970 -0.03 -0.30    -0.481 OA
DOCKED: ATOM     48  H   UNL d   1     -14.038 -17.798 -14.584 +0.03 +0.22    +0.295 HD
DOCKED: ENDBRANCH  45  47
DOCKED: ENDBRANCH  44  45
DOCKED: ENDBRANCH   8  44
DOCKED: BRANCH  22  49
DOCKED: ATOM     49  C   UNL d   1     -15.434 -10.429  -8.638 -0.25 +0.00    +0.048 C 
DOCKED: BRANCH  49  50
DOCKED: ATOM     50  C   UNL d   1     -14.398  -9.733  -7.755 -0.27 -0.01    +0.125 C 
DOCKED: BRANCH  50  51
DOCKED: ATOM     51  C   UNL d   1     -14.942  -9.495  -6.375 -0.18 +0.01    +0.305 C 
DOCKED: ATOM     52  O   UNL d   1     -15.983  -8.938  -6.073 -0.31 +0.01    -0.251 OA
DOCKED: BRANCH  51  53
DOCKED: ATOM     53  O   UNL d   1     -14.120  -9.972  -5.420 -0.14 -0.01    -0.481 OA
DOCKED: ATOM     54  H   UNL d   1     -14.520  -9.657  -4.582 -0.11 -0.02    +0.295 HD
DOCKED: ENDBRANCH  51  53
DOCKED: ENDBRANCH  50  51
DOCKED: ENDBRANCH  49  50
DOCKED: ENDBRANCH  22  49
DOCKED: TORSDOF 13
DOCKED: TER
DOCKED: ENDMDL
________________________________________________________________________________


	BEGINNING GENETIC ALGORITHM DOCKING 52 of 100
Run: 52 Seed: 929076657 209483896 [ Run 52 of 100 GA/GALS ]
Beginning LAMARCKIAN GENETIC ALGORITHM (LGA), with a maximum of 25000000 energy evaluations.

Final-Value: -13.746


	FINAL GENETIC ALGORITHM DOCKED STATE
	_______________________________________________


Detailed state:  trans -6.028 -1.585 -16.818 quatxyzw 0.700497 -0.657580 -0.235616 0.146206 center 0.153 0.018 -0.028 ntor 13 -100.0492 54.5098 78.9234 21.1917 -159.8315 -110.7041 -45.6436 -59.9981 -140.0454 -122.9550 22.9200 84.8315 155.5646
State:	 -6.028  -1.585 -16.818   0.708 -0.665 -0.238 163.186   -100.05   54.51   78.92   21.19 -159.83 -110.70  -45.64  -60.00 -140.05 -122.95   22.92   84.83  155.56

DOCKED: MODEL       52
DOCKED: USER    Run = 52
DOCKED: USER    DPF = D:/Protein_go_brrr/autodock/final/AncA/heme/dock.dpf
DOCKED: USER  
DOCKED: USER    Estimated Free Energy of Binding    =   -8.33 kcal/mol  [=(1)+(2)+(3)-(4)]
DOCKED: USER    Estimated Inhibition Constant, Ki   =  783.46 nM (nanomolar)  [Temperature = 298.15 K]
DOCKED: USER    
DOCKED: USER    (1) Final Intermolecular Energy     =  -12.21 kcal/mol
DOCKED: USER        vdW + Hbond + desolv Energy     =  -11.06 kcal/mol
DOCKED: USER        Electrostatic Energy            =   -1.14 kcal/mol
DOCKED: USER    (2) Final Total Internal Energy     =   -1.54 kcal/mol
DOCKED: USER    (3) Torsional Free Energy           =   +3.88 kcal/mol
DOCKED: USER    (4) Unbound System's Energy  [=(2)] =   -1.54 kcal/mol
DOCKED: USER    
DOCKED: USER    
DOCKED: USER    NEWDPF move heme_opt.pdbqt
DOCKED: USER    NEWDPF about 0.153000 0.018000 -0.028000
DOCKED: USER    NEWDPF tran0 -6.028009 -1.584902 -16.818454
DOCKED: USER    NEWDPF quaternion0 0.700497 -0.657580 -0.235616 0.146206
DOCKED: USER    NEWDPF axisangle0 0.708107 -0.664723 -0.238176 163.185778
DOCKED: USER    NEWDPF quat0 0.708107 -0.664723 -0.238176 163.185778
DOCKED: USER    NEWDPF dihe0 -100.05 54.51 78.92 21.19 -159.83 -110.70 -45.64 -60.00 -140.05 -122.95 22.92 84.83 155.56 
DOCKED: USER  keepresnum = 1 
DOCKED: USER  
DOCKED: REMARK  13 active torsions:
DOCKED: REMARK  status: ('A' for Active; 'I' for Inactive)
DOCKED: REMARK    1  A    between atoms: O_3  and  C_38 
DOCKED: REMARK    2  A    between atoms: O_4  and  C_40 
DOCKED: REMARK    3  A    between atoms: O_7  and  C_46 
DOCKED: REMARK    4  A    between atoms: O_9  and  C_48 
DOCKED: REMARK    5  A    between atoms: C_15  and  C_20 
DOCKED: REMARK    6  A    between atoms: C_16  and  C_23 
DOCKED: REMARK    7  A    between atoms: C_20  and  C_38 
DOCKED: REMARK    8  A    between atoms: C_23  and  C_40 
DOCKED: REMARK    9  A    between atoms: C_32  and  C_41 
DOCKED: REMARK   10  A    between atoms: C_37  and  C_45 
DOCKED: REMARK   11  A    between atoms: C_41  and  C_44 
DOCKED: REMARK   12  A    between atoms: C_44  and  C_46 
DOCKED: REMARK   13  A    between atoms: C_47  and  C_48 
DOCKED: USER                              x       y       z     vdW  Elec       q    Type
DOCKED: USER                           _______ _______ _______ _____ _____    ______ ____
DOCKED: ROOT
DOCKED: ATOM      1  O   UNL d   1      -7.925   3.375 -14.258 -0.42 -0.01    -0.289 OA
DOCKED: ATOM      2  O   UNL d   1      -1.076   0.315 -14.603 -0.26 +0.00    -0.289 OA
DOCKED: ATOM      3  N   UNL d   1      -7.309   0.341 -15.778 -0.17 +0.05    -0.247 NA
DOCKED: ATOM      4  N   UNL d   1      -4.348   0.118 -15.684 -0.13 +0.01    -0.247 NA
DOCKED: ATOM      5  N   UNL d   1      -4.543  -2.044 -17.569 -0.12 +0.02    -0.354 N 
DOCKED: ATOM      6  N   UNL d   1      -7.613  -1.793 -17.675 -0.07 +0.06    -0.354 N 
DOCKED: ATOM      7  C   UNL d   1      -9.262   1.808 -15.575 -0.20 -0.03    +0.084 A 
DOCKED: ATOM      8  C   UNL d   1      -3.192   1.327 -13.902 -0.25 -0.00    +0.084 A 
DOCKED: ATOM      9  C   UNL d   1      -4.495   1.007 -14.642 -0.24 -0.00    +0.058 A 
DOCKED: ATOM     10  C   UNL d   1      -8.641   0.516 -16.114 -0.24 -0.02    +0.058 A 
DOCKED: ATOM     11  C   UNL d   1      -8.050   2.323 -14.858 -0.19 -0.03    +0.193 A 
DOCKED: ATOM     12  C   UNL d   1      -6.941   1.332 -15.034 -0.24 -0.01    +0.109 A 
DOCKED: ATOM     13  C   UNL d   1      -2.272   0.485 -14.740 -0.22 -0.01    +0.193 A 
DOCKED: ATOM     14  C   UNL d   1      -9.624   2.784 -16.697 -0.08 -0.00    +0.026 C 
DOCKED: ATOM     15  C   UNL d   1      -5.666   1.584 -14.332 -0.30 -0.00    +0.055 C 
DOCKED: ATOM     16  C   UNL d   1      -3.200   0.775 -12.473 -0.56 -0.00    +0.026 C 
DOCKED: ATOM     17  C   UNL d   1      -3.095  -0.190 -15.789 -0.14 -0.01    +0.109 A 
DOCKED: ATOM     18  C   UNL d   1      -9.378  -0.394 -16.779 -0.22 -0.02    +0.050 C 
DOCKED: ATOM     19  C   UNL d   1      -8.912  -1.651 -17.240 -0.18 -0.01    +0.045 A 
DOCKED: ATOM     20  C   UNL d   1      -3.186  -1.849 -17.574 -0.21 -0.00    +0.045 A 
DOCKED: ATOM     21  C   UNL d   1      -2.451  -1.052 -16.791 -0.10 +0.00    +0.057 C 
DOCKED: ATOM     22  C   UNL d   1      -3.720  -3.361 -19.200 -0.27 +0.00    -0.019 A 
DOCKED: ATOM     23  C   UNL d   1      -4.960  -2.940 -18.516 -0.26 -0.01    +0.045 A 
DOCKED: ATOM     24  C   UNL d   1      -2.674  -2.713 -18.637 -0.24 +0.00    -0.022 A 
DOCKED: ATOM     25  C   UNL d   1      -7.403  -3.063 -18.160 -0.22 -0.01    +0.049 A 
DOCKED: ATOM     26  C   UNL d   1      -9.550  -2.869 -17.412 -0.20 +0.01    -0.018 A 
DOCKED: ATOM     27  C   UNL d   1      -8.587  -3.763 -17.976 -0.24 -0.00    +0.003 A 
DOCKED: ATOM     28  C   UNL d   1      -6.185  -3.403 -18.809 -0.27 -0.01    +0.052 C 
DOCKED: ATOM     29  C   UNL d   1      -1.225  -2.812 -18.972 -0.26 -0.00    +0.046 C 
DOCKED: ATOM     30  C   UNL d   1     -10.967  -3.187 -17.074 -0.19 -0.02    +0.046 C 
DOCKED: ATOM     31  H   UNL d   1      -5.134  -1.612 -16.866 +0.07 -0.01    +0.166 HD
DOCKED: ATOM     32  H   UNL d   1      -6.934  -1.041 -17.669 +0.05 -0.02    +0.166 HD
DOCKED: ENDROOT
DOCKED: BRANCH   7  33
DOCKED: ATOM     33  C   UNL d   1     -10.426   1.619 -14.596 -0.01 -0.12    +0.141 C 
DOCKED: BRANCH  33  34
DOCKED: ATOM     34  C   UNL d   1     -11.765   1.618 -15.283 -0.10 -0.23    +0.306 C 
DOCKED: ATOM     35  O   UNL d   1     -12.584   2.521 -15.265 -0.07 +0.10    -0.251 OA
DOCKED: BRANCH  34  36
DOCKED: ATOM     36  O   UNL d   1     -12.001   0.479 -15.958 -0.04 +0.51    -0.481 OA
DOCKED: ATOM     37  H   UNL d   1     -12.247  -0.171 -15.266 -0.49 -0.72    +0.295 HD
DOCKED: ENDBRANCH  34  36
DOCKED: ENDBRANCH  33  34
DOCKED: ENDBRANCH   7  33
DOCKED: BRANCH  27  38
DOCKED: ATOM     38  C   UNL d   1      -8.836  -5.128 -18.328 -0.32 -0.01    +0.017 C 
DOCKED: ATOM     39  C   UNL d   1      -9.259  -6.081 -17.484 -0.15 -0.03    +0.092 C 
DOCKED: BRANCH  39  40
DOCKED: ATOM     40  C   UNL d   1      -9.492  -7.441 -17.977 -0.19 -0.14    +0.330 C 
DOCKED: ATOM     41  O   UNL d   1     -10.555  -8.027 -18.068 -0.12 +0.08    -0.246 OA
DOCKED: BRANCH  40  42
DOCKED: ATOM     42  O   UNL d   1      -8.332  -8.004 -18.348 -0.66 +0.23    -0.477 OA
DOCKED: ATOM     43  H   UNL d   1      -8.494  -8.288 -19.271 -0.46 -0.47    +0.295 HD
DOCKED: ENDBRANCH  40  42
DOCKED: ENDBRANCH  39  40
DOCKED: ENDBRANCH  27  38
DOCKED: BRANCH   8  44
DOCKED: ATOM     44  C   UNL d   1      -2.763   2.798 -13.926 -0.13 +0.01    +0.141 C 
DOCKED: BRANCH  44  45
DOCKED: ATOM     45  C   UNL d   1      -1.395   3.028 -13.340 -0.15 +0.01    +0.306 C 
DOCKED: ATOM     46  O   UNL d   1      -1.135   3.266 -12.174 -0.24 -0.02    -0.251 OA
DOCKED: BRANCH  45  47
DOCKED: ATOM     47  O   UNL d   1      -0.422   2.972 -14.268 -0.08 +0.02    -0.481 OA
DOCKED: ATOM     48  H   UNL d   1      -0.019   2.085 -14.151 -0.32 -0.06    +0.295 HD
DOCKED: ENDBRANCH  45  47
DOCKED: ENDBRANCH  44  45
DOCKED: ENDBRANCH   8  44
DOCKED: BRANCH  22  49
DOCKED: ATOM     49  C   UNL d   1      -3.676  -4.338 -20.339 -0.24 -0.02    +0.048 C 
DOCKED: BRANCH  49  50
DOCKED: ATOM     50  C   UNL d   1      -4.232  -3.733 -21.628 -0.12 -0.04    +0.125 C 
DOCKED: BRANCH  50  51
DOCKED: ATOM     51  C   UNL d   1      -4.716  -4.808 -22.559 -0.13 -0.16    +0.305 C 
DOCKED: ATOM     52  O   UNL d   1      -4.049  -5.655 -23.127 -0.15 +0.12    -0.251 OA
DOCKED: BRANCH  51  53
DOCKED: ATOM     53  O   UNL d   1      -6.051  -4.753 -22.742 -0.09 +0.42    -0.481 OA
DOCKED: ATOM     54  H   UNL d   1      -6.285  -5.651 -23.058 -0.26 -0.55    +0.295 HD
DOCKED: ENDBRANCH  51  53
DOCKED: ENDBRANCH  50  51
DOCKED: ENDBRANCH  49  50
DOCKED: ENDBRANCH  22  49
DOCKED: TORSDOF 13
DOCKED: TER
DOCKED: ENDMDL
________________________________________________________________________________


	BEGINNING GENETIC ALGORITHM DOCKING 53 of 100
Run: 53 Seed: 630439760 204600797 [ Run 53 of 100 GA/GALS ]
Beginning LAMARCKIAN GENETIC ALGORITHM (LGA), with a maximum of 25000000 energy evaluations.

Final-Value: -10.802


	FINAL GENETIC ALGORITHM DOCKED STATE
	_______________________________________________


Detailed state:  trans -20.367 -5.942 8.550 quatxyzw 0.378412 0.571524 0.062928 -0.725400 center 0.153 0.018 -0.028 ntor 13 111.1975 -113.7894 115.2339 32.7324 -179.6444 -167.4445 -48.3651 163.4316 -21.6777 -134.6826 32.3425 -142.8640 -28.7619
State:	-20.367  -5.942   8.550   0.550  0.830  0.091 -86.996    111.20 -113.79  115.23   32.73 -179.64 -167.44  -48.37  163.43  -21.68 -134.68   32.34 -142.86  -28.76

DOCKED: MODEL       53
DOCKED: USER    Run = 53
DOCKED: USER    DPF = D:/Protein_go_brrr/autodock/final/AncA/heme/dock.dpf
DOCKED: USER  
DOCKED: USER    Estimated Free Energy of Binding    =   -4.78 kcal/mol  [=(1)+(2)+(3)-(4)]
DOCKED: USER    Estimated Inhibition Constant, Ki   =  315.06 uM (micromolar)  [Temperature = 298.15 K]
DOCKED: USER    
DOCKED: USER    (1) Final Intermolecular Energy     =   -8.65 kcal/mol
DOCKED: USER        vdW + Hbond + desolv Energy     =   -8.19 kcal/mol
DOCKED: USER        Electrostatic Energy            =   -0.47 kcal/mol
DOCKED: USER    (2) Final Total Internal Energy     =   -2.15 kcal/mol
DOCKED: USER    (3) Torsional Free Energy           =   +3.88 kcal/mol
DOCKED: USER    (4) Unbound System's Energy  [=(2)] =   -2.15 kcal/mol
DOCKED: USER    
DOCKED: USER    
DOCKED: USER    NEWDPF move heme_opt.pdbqt
DOCKED: USER    NEWDPF about 0.153000 0.018000 -0.028000
DOCKED: USER    NEWDPF tran0 -20.366642 -5.942025 8.550236
DOCKED: USER    NEWDPF quaternion0 0.378412 0.571524 0.062928 -0.725400
DOCKED: USER    NEWDPF axisangle0 0.549755 0.830308 0.091421 -86.995717
DOCKED: USER    NEWDPF quat0 0.549755 0.830308 0.091421 -86.995717
DOCKED: USER    NEWDPF dihe0 111.20 -113.79 115.23 32.73 -179.64 -167.44 -48.37 163.43 -21.68 -134.68 32.34 -142.86 -28.76 
DOCKED: USER  keepresnum = 1 
DOCKED: USER  
DOCKED: REMARK  13 active torsions:
DOCKED: REMARK  status: ('A' for Active; 'I' for Inactive)
DOCKED: REMARK    1  A    between atoms: O_3  and  C_38 
DOCKED: REMARK    2  A    between atoms: O_4  and  C_40 
DOCKED: REMARK    3  A    between atoms: O_7  and  C_46 
DOCKED: REMARK    4  A    between atoms: O_9  and  C_48 
DOCKED: REMARK    5  A    between atoms: C_15  and  C_20 
DOCKED: REMARK    6  A    between atoms: C_16  and  C_23 
DOCKED: REMARK    7  A    between atoms: C_20  and  C_38 
DOCKED: REMARK    8  A    between atoms: C_23  and  C_40 
DOCKED: REMARK    9  A    between atoms: C_32  and  C_41 
DOCKED: REMARK   10  A    between atoms: C_37  and  C_45 
DOCKED: REMARK   11  A    between atoms: C_41  and  C_44 
DOCKED: REMARK   12  A    between atoms: C_44  and  C_46 
DOCKED: REMARK   13  A    between atoms: C_47  and  C_48 
DOCKED: USER                              x       y       z     vdW  Elec       q    Type
DOCKED: USER                           _______ _______ _______ _____ _____    ______ ____
DOCKED: ROOT
DOCKED: ATOM      1  O   UNL d   1     -21.123  -7.999  14.023 -0.01 +0.01    -0.289 OA
DOCKED: ATOM      2  O   UNL d   1     -24.305 -10.000   7.523 -0.01 -0.01    -0.289 OA
DOCKED: ATOM      3  N   UNL d   1     -20.456  -6.393  11.045 -0.10 +0.06    -0.247 NA
DOCKED: ATOM      4  N   UNL d   1     -21.903  -8.043   9.041 -0.07 +0.03    -0.247 NA
DOCKED: ATOM      5  N   UNL d   1     -20.433  -6.669   6.986 +0.04 +0.08    -0.354 N 
DOCKED: ATOM      6  N   UNL d   1     -18.923  -4.976   9.073 -0.09 +0.13    -0.354 N 
DOCKED: ATOM      7  C   UNL d   1     -19.563  -6.252  13.323 -0.08 -0.02    +0.084 A 
DOCKED: ATOM      8  C   UNL d   1     -23.839  -9.311   9.825 -0.02 +0.00    +0.084 A 
DOCKED: ATOM      9  C   UNL d   1     -22.640  -8.411  10.144 -0.07 -0.00    +0.058 A 
DOCKED: ATOM     10  C   UNL d   1     -19.536  -5.769  11.870 -0.16 -0.02    +0.058 A 
DOCKED: ATOM     11  C   UNL d   1     -20.675  -7.247  13.177 -0.02 -0.02    +0.193 A 
DOCKED: ATOM     12  C   UNL d   1     -21.149  -7.220  11.757 -0.07 -0.01    +0.109 A 
DOCKED: ATOM     13  C   UNL d   1     -23.623  -9.415   8.341 -0.02 +0.00    +0.193 A 
DOCKED: ATOM     14  C   UNL d   1     -18.281  -6.995  13.706 -0.14 -0.01    +0.026 C 
DOCKED: ATOM     15  C   UNL d   1     -22.310  -8.058  11.396 -0.06 -0.00    +0.055 C 
DOCKED: ATOM     16  C   UNL d   1     -25.169  -8.596  10.080 -0.01 +0.00    +0.026 C 
DOCKED: ATOM     17  C   UNL d   1     -22.414  -8.608   7.995 -0.10 -0.00    +0.109 A 
DOCKED: ATOM     18  C   UNL d   1     -18.737  -4.758  11.480 -0.12 -0.03    +0.050 C 
DOCKED: ATOM     19  C   UNL d   1     -18.704  -4.189  10.181 -0.18 -0.03    +0.045 A 
DOCKED: ATOM     20  C   UNL d   1     -21.014  -7.660   6.238 -0.20 -0.01    +0.045 A 
DOCKED: ATOM     21  C   UNL d   1     -21.933  -8.559   6.606 -0.17 -0.00    +0.057 C 
DOCKED: ATOM     22  C   UNL d   1     -19.536  -6.515   4.926 -0.29 +0.00    -0.019 A 
DOCKED: ATOM     23  C   UNL d   1     -19.526  -5.925   6.280 -0.33 -0.01    +0.045 A 
DOCKED: ATOM     24  C   UNL d   1     -20.420  -7.540   4.907 -0.23 +0.00    -0.022 A 
DOCKED: ATOM     25  C   UNL d   1     -18.756  -4.244   7.920 -0.33 -0.00    +0.049 A 
DOCKED: ATOM     26  C   UNL d   1     -18.423  -2.906   9.739 -0.23 +0.01    -0.018 A 
DOCKED: ATOM     27  C   UNL d   1     -18.477  -2.941   8.311 -0.29 -0.00    +0.003 A 
DOCKED: ATOM     28  C   UNL d   1     -18.776  -4.874   6.646 -0.41 -0.00    +0.052 C 
DOCKED: ATOM     29  C   UNL d   1     -20.790  -8.432   3.771 -0.27 -0.01    +0.046 C 
DOCKED: ATOM     30  C   UNL d   1     -18.126  -1.717  10.588 -0.17 -0.01    +0.046 C 
DOCKED: ATOM     31  H   UNL d   1     -20.731  -6.486   7.938 -0.26 -0.05    +0.166 HD
DOCKED: ATOM     32  H   UNL d   1     -19.136  -5.965   9.121 -0.52 -0.11    +0.166 HD
DOCKED: ENDROOT
DOCKED: BRANCH   7  33
DOCKED: ATOM     33  C   UNL d   1     -19.928  -5.186  14.362 -0.02 -0.02    +0.141 C 
DOCKED: BRANCH  33  34
DOCKED: ATOM     34  C   UNL d   1     -20.770  -4.080  13.787 +0.01 -0.03    +0.306 C 
DOCKED: ATOM     35  O   UNL d   1     -20.523  -2.887  13.836 -0.00 +0.02    -0.251 OA
DOCKED: BRANCH  34  36
DOCKED: ATOM     36  O   UNL d   1     -21.879  -4.536  13.178 +0.01 +0.03    -0.481 OA
DOCKED: ATOM     37  H   UNL d   1     -21.551  -4.964  12.358 +0.03 -0.03    +0.295 HD
DOCKED: ENDBRANCH  34  36
DOCKED: ENDBRANCH  33  34
DOCKED: ENDBRANCH   7  33
DOCKED: BRANCH  27  38
DOCKED: ATOM     38  C   UNL d   1     -18.232  -1.825   7.448 -0.30 +0.00    +0.017 C 
DOCKED: ATOM     39  C   UNL d   1     -17.027  -1.293   7.193 -0.28 +0.03    +0.092 C 
DOCKED: BRANCH  39  40
DOCKED: ATOM     40  C   UNL d   1     -16.910  -0.159   6.273 -0.25 +0.25    +0.330 C 
DOCKED: ATOM     41  O   UNL d   1     -15.893   0.318   5.806 -0.40 -0.16    -0.246 OA
DOCKED: BRANCH  40  42
DOCKED: ATOM     42  O   UNL d   1     -18.127   0.323   5.977 -0.22 -0.73    -0.477 OA
DOCKED: ATOM     43  H   UNL d   1     -18.450   0.684   6.828 +0.09 +0.25    +0.295 HD
DOCKED: ENDBRANCH  40  42
DOCKED: ENDBRANCH  39  40
DOCKED: ENDBRANCH  27  38
DOCKED: BRANCH   8  44
DOCKED: ATOM     44  C   UNL d   1     -23.818 -10.696  10.480 -0.01 +0.01    +0.141 C 
DOCKED: BRANCH  44  45
DOCKED: ATOM     45  C   UNL d   1     -25.066 -11.496  10.217 -0.00 +0.01    +0.306 C 
DOCKED: ATOM     46  O   UNL d   1     -26.062 -11.540  10.917 -0.00 -0.01    -0.251 OA
DOCKED: BRANCH  45  47
DOCKED: ATOM     47  O   UNL d   1     -24.980 -12.227   9.091 +0.00 -0.02    -0.481 OA
DOCKED: ATOM     48  H   UNL d   1     -24.931 -11.564   8.369 +0.01 +0.01    +0.295 HD
DOCKED: ENDBRANCH  45  47
DOCKED: ENDBRANCH  44  45
DOCKED: ENDBRANCH   8  44
DOCKED: BRANCH  22  49
DOCKED: ATOM     49  C   UNL d   1     -18.678  -6.035   3.792 -0.39 -0.00    +0.048 C 
DOCKED: BRANCH  49  50
DOCKED: ATOM     50  C   UNL d   1     -19.509  -5.390   2.684 -0.32 +0.02    +0.125 C 
DOCKED: BRANCH  50  51
DOCKED: ATOM     51  C   UNL d   1     -18.894  -5.641   1.336 -0.31 +0.03    +0.305 C 
DOCKED: ATOM     52  O   UNL d   1     -19.447  -5.620   0.251 -0.35 -0.03    -0.251 OA
DOCKED: BRANCH  51  53
DOCKED: ATOM     53  O   UNL d   1     -17.579  -5.925   1.427 -0.24 +0.03    -0.481 OA
DOCKED: ATOM     54  H   UNL d   1     -17.198  -5.557   0.602 -0.28 -0.10    +0.295 HD
DOCKED: ENDBRANCH  51  53
DOCKED: ENDBRANCH  50  51
DOCKED: ENDBRANCH  49  50
DOCKED: ENDBRANCH  22  49
DOCKED: TORSDOF 13
DOCKED: TER
DOCKED: ENDMDL
________________________________________________________________________________


	BEGINNING GENETIC ALGORITHM DOCKING 54 of 100
Run: 54 Seed: 816294439 195238449 [ Run 54 of 100 GA/GALS ]
Beginning LAMARCKIAN GENETIC ALGORITHM (LGA), with a maximum of 25000000 energy evaluations.

Final-Value: -11.751


	FINAL GENETIC ALGORITHM DOCKED STATE
	_______________________________________________


Detailed state:  trans -14.992 9.273 -2.162 quatxyzw 0.809182 -0.211704 -0.409184 0.364655 center 0.153 0.018 -0.028 ntor 13 -101.3141 138.5899 -114.4028 -180.0000 33.8089 32.9764 122.1070 37.8231 131.5515 -27.5747 -65.9367 -49.4509 -11.5072
State:	-14.992   9.273  -2.162   0.869 -0.227 -0.439 137.227   -101.31  138.59 -114.40 -180.00   33.81   32.98  122.11   37.82  131.55  -27.57  -65.94  -49.45  -11.51

DOCKED: MODEL       54
DOCKED: USER    Run = 54
DOCKED: USER    DPF = D:/Protein_go_brrr/autodock/final/AncA/heme/dock.dpf
DOCKED: USER  
DOCKED: USER    Estimated Free Energy of Binding    =   -3.91 kcal/mol  [=(1)+(2)+(3)-(4)]
DOCKED: USER    Estimated Inhibition Constant, Ki   =    1.35 mM (millimolar)  [Temperature = 298.15 K]
DOCKED: USER    
DOCKED: USER    (1) Final Intermolecular Energy     =   -7.79 kcal/mol
DOCKED: USER        vdW + Hbond + desolv Energy     =   -7.61 kcal/mol
DOCKED: USER        Electrostatic Energy            =   -0.18 kcal/mol
DOCKED: USER    (2) Final Total Internal Energy     =   -3.96 kcal/mol
DOCKED: USER    (3) Torsional Free Energy           =   +3.88 kcal/mol
DOCKED: USER    (4) Unbound System's Energy  [=(2)] =   -3.96 kcal/mol
DOCKED: USER    
DOCKED: USER    
DOCKED: USER    NEWDPF move heme_opt.pdbqt
DOCKED: USER    NEWDPF about 0.153000 0.018000 -0.028000
DOCKED: USER    NEWDPF tran0 -14.992203 9.272735 -2.161828
DOCKED: USER    NEWDPF quaternion0 0.809182 -0.211704 -0.409184 0.364655
DOCKED: USER    NEWDPF axisangle0 0.869021 -0.227360 -0.439443 137.227298
DOCKED: USER    NEWDPF quat0 0.869021 -0.227360 -0.439443 137.227298
DOCKED: USER    NEWDPF dihe0 -101.31 138.59 -114.40 -180.00 33.81 32.98 122.11 37.82 131.55 -27.57 -65.94 -49.45 -11.51 
DOCKED: USER  keepresnum = 1 
DOCKED: USER  
DOCKED: REMARK  13 active torsions:
DOCKED: REMARK  status: ('A' for Active; 'I' for Inactive)
DOCKED: REMARK    1  A    between atoms: O_3  and  C_38 
DOCKED: REMARK    2  A    between atoms: O_4  and  C_40 
DOCKED: REMARK    3  A    between atoms: O_7  and  C_46 
DOCKED: REMARK    4  A    between atoms: O_9  and  C_48 
DOCKED: REMARK    5  A    between atoms: C_15  and  C_20 
DOCKED: REMARK    6  A    between atoms: C_16  and  C_23 
DOCKED: REMARK    7  A    between atoms: C_20  and  C_38 
DOCKED: REMARK    8  A    between atoms: C_23  and  C_40 
DOCKED: REMARK    9  A    between atoms: C_32  and  C_41 
DOCKED: REMARK   10  A    between atoms: C_37  and  C_45 
DOCKED: REMARK   11  A    between atoms: C_41  and  C_44 
DOCKED: REMARK   12  A    between atoms: C_44  and  C_46 
DOCKED: REMARK   13  A    between atoms: C_47  and  C_48 
DOCKED: USER                              x       y       z     vdW  Elec       q    Type
DOCKED: USER                           _______ _______ _______ _____ _____    ______ ____
DOCKED: ROOT
DOCKED: ATOM      1  O   UNL d   1     -19.633   8.927   1.457 -0.03 -0.02    -0.289 OA
DOCKED: ATOM      2  O   UNL d   1     -12.613  11.308   2.658 -0.08 -0.01    -0.289 OA
DOCKED: ATOM      3  N   UNL d   1     -17.182   8.816  -0.967 -0.15 +0.02    -0.247 NA
DOCKED: ATOM      4  N   UNL d   1     -14.894  10.218   0.310 -0.16 +0.01    -0.247 NA
DOCKED: ATOM      5  N   UNL d   1     -13.653  10.356  -2.280 -0.14 +0.03    -0.354 N 
DOCKED: ATOM      6  N   UNL d   1     -16.040   8.919  -3.600 -0.09 +0.03    -0.354 N 
DOCKED: ATOM      7  C   UNL d   1     -19.590   8.357  -0.919 -0.09 +0.01    +0.084 A 
DOCKED: ATOM      8  C   UNL d   1     -14.791  10.194   2.751 -0.19 +0.00    +0.084 A 
DOCKED: ATOM      9  C   UNL d   1     -15.551   9.855   1.465 -0.24 -0.00    +0.058 A 
DOCKED: ATOM     10  C   UNL d   1     -18.282   8.427  -1.714 -0.16 +0.00    +0.058 A 
DOCKED: ATOM     11  C   UNL d   1     -19.031   8.759   0.413 -0.08 +0.01    +0.193 A 
DOCKED: ATOM     12  C   UNL d   1     -17.559   8.984   0.259 -0.19 -0.00    +0.109 A 
DOCKED: ATOM     13  C   UNL d   1     -13.598  10.849   2.114 -0.13 +0.00    +0.193 A 
DOCKED: ATOM     14  C   UNL d   1     -20.595   9.418  -1.374 -0.03 +0.00    +0.026 C 
DOCKED: ATOM     15  C   UNL d   1     -16.773   9.301   1.469 -0.25 -0.00    +0.055 C 
DOCKED: ATOM     16  C   UNL d   1     -14.326   8.933   3.485 -0.26 -0.00    +0.026 C 
DOCKED: ATOM     17  C   UNL d   1     -13.787  10.806   0.632 -0.12 +0.00    +0.109 A 
DOCKED: ATOM     18  C   UNL d   1     -18.222   8.048  -3.004 -0.19 +0.00    +0.050 C 
DOCKED: ATOM     19  C   UNL d   1     -17.045   7.998  -3.793 -0.23 -0.00    +0.045 A 
DOCKED: ATOM     20  C   UNL d   1     -12.814  11.177  -1.572 -0.14 -0.00    +0.045 A 
DOCKED: ATOM     21  C   UNL d   1     -12.789  11.417  -0.257 -0.10 +0.00    +0.057 C 
DOCKED: ATOM     22  C   UNL d   1     -12.250  11.274  -3.784 -0.15 +0.00    -0.019 A 
DOCKED: ATOM     23  C   UNL d   1     -13.391  10.349  -3.624 -0.17 -0.00    +0.045 A 
DOCKED: ATOM     24  C   UNL d   1     -11.913  11.760  -2.566 -0.14 +0.00    -0.022 A 
DOCKED: ATOM     25  C   UNL d   1     -15.039   8.744  -4.527 -0.23 -0.00    +0.049 A 
DOCKED: ATOM     26  C   UNL d   1     -16.670   7.180  -4.848 -0.30 +0.00    -0.018 A 
DOCKED: ATOM     27  C   UNL d   1     -15.394   7.643  -5.295 -0.31 -0.00    +0.003 A 
DOCKED: ATOM     28  C   UNL d   1     -13.968   9.673  -4.628 -0.17 -0.00    +0.052 C 
DOCKED: ATOM     29  C   UNL d   1     -10.823  12.713  -2.211 -0.08 -0.00    +0.046 C 
DOCKED: ATOM     30  C   UNL d   1     -17.447   6.037  -5.407 -0.01 -0.00    +0.046 C 
DOCKED: ATOM     31  H   UNL d   1     -14.333   9.768  -1.810 -0.15 -0.03    +0.166 HD
DOCKED: ATOM     32  H   UNL d   1     -16.072   9.644  -2.893 +0.03 -0.01    +0.166 HD
DOCKED: ENDROOT
DOCKED: BRANCH   7  33
DOCKED: ATOM     33  C   UNL d   1     -20.235   6.970  -0.836 -0.07 +0.02    +0.141 C 
DOCKED: BRANCH  33  34
DOCKED: ATOM     34  C   UNL d   1     -21.504   6.969  -0.028 -0.05 +0.04    +0.306 C 
DOCKED: ATOM     35  O   UNL d   1     -22.626   7.194  -0.448 -0.02 -0.03    -0.251 OA
DOCKED: BRANCH  34  36
DOCKED: ATOM     36  O   UNL d   1     -21.292   6.681   1.269 -0.02 -0.09    -0.481 OA
DOCKED: ATOM     37  H   UNL d   1     -20.917   7.505   1.646 +0.04 +0.04    +0.295 HD
DOCKED: ENDBRANCH  34  36
DOCKED: ENDBRANCH  33  34
DOCKED: ENDBRANCH   7  33
DOCKED: BRANCH  27  38
DOCKED: ATOM     38  C   UNL d   1     -14.649   7.086  -6.383 -0.32 +0.00    +0.017 C 
DOCKED: ATOM     39  C   UNL d   1     -13.580   7.654  -6.961 -0.27 +0.01    +0.092 C 
DOCKED: BRANCH  39  40
DOCKED: ATOM     40  C   UNL d   1     -12.893   6.969  -8.059 -0.19 +0.05    +0.330 C 
DOCKED: ATOM     41  O   UNL d   1     -13.377   6.221  -8.887 -0.47 -0.03    -0.246 OA
DOCKED: BRANCH  40  42
DOCKED: ATOM     42  O   UNL d   1     -11.588   7.284  -8.055 -0.63 -0.08    -0.477 OA
DOCKED: ATOM     43  H   UNL d   1     -11.579   8.244  -7.864 +0.11 +0.02    +0.295 HD
DOCKED: ENDBRANCH  40  42
DOCKED: ENDBRANCH  39  40
DOCKED: ENDBRANCH  27  38
DOCKED: BRANCH   8  44
DOCKED: ATOM     44  C   UNL d   1     -15.503  11.160   3.705 -0.06 +0.01    +0.141 C 
DOCKED: BRANCH  44  45
DOCKED: ATOM     45  C   UNL d   1     -15.430  12.596   3.260 -0.01 +0.01    +0.306 C 
DOCKED: ATOM     46  O   UNL d   1     -16.100  13.121   2.387 -0.01 -0.01    -0.251 OA
DOCKED: BRANCH  45  47
DOCKED: ATOM     47  O   UNL d   1     -14.491  13.293   3.924 +0.01 -0.02    -0.481 OA
DOCKED: ATOM     48  H   UNL d   1     -13.642  12.877   3.663 +0.02 +0.01    +0.295 HD
DOCKED: ENDBRANCH  45  47
DOCKED: ENDBRANCH  44  45
DOCKED: ENDBRANCH   8  44
DOCKED: BRANCH  22  49
DOCKED: ATOM     49  C   UNL d   1     -11.613  11.605  -5.101 -0.11 -0.00    +0.048 C 
DOCKED: BRANCH  49  50
DOCKED: ATOM     50  C   UNL d   1     -10.393  10.727  -5.380 -0.12 -0.03    +0.125 C 
DOCKED: BRANCH  50  51
DOCKED: ATOM     51  C   UNL d   1     -10.631   9.841  -6.570 -0.12 -0.04    +0.305 C 
DOCKED: ATOM     52  O   UNL d   1     -11.312  10.081  -7.551 -0.07 +0.00    -0.251 OA
DOCKED: BRANCH  51  53
DOCKED: ATOM     53  O   UNL d   1      -9.990   8.661  -6.455 -0.10 +0.12    -0.481 OA
DOCKED: ATOM     54  H   UNL d   1      -9.527   8.724  -5.593 -0.44 -0.19    +0.295 HD
DOCKED: ENDBRANCH  51  53
DOCKED: ENDBRANCH  50  51
DOCKED: ENDBRANCH  49  50
DOCKED: ENDBRANCH  22  49
DOCKED: TORSDOF 13
DOCKED: TER
DOCKED: ENDMDL
________________________________________________________________________________


	BEGINNING GENETIC ALGORITHM DOCKING 55 of 100
Run: 55 Seed: 89338732 1901533165 [ Run 55 of 100 GA/GALS ]
Beginning LAMARCKIAN GENETIC ALGORITHM (LGA), with a maximum of 25000000 energy evaluations.

Final-Value: -11.759


	FINAL GENETIC ALGORITHM DOCKED STATE
	_______________________________________________


Detailed state:  trans -10.076 -13.487 -4.071 quatxyzw 0.156866 0.384473 -0.328589 0.848294 center 0.153 0.018 -0.028 ntor 13 87.7860 7.8583 -82.6320 -94.0535 -166.2216 180.0000 163.8986 -104.5467 89.8106 -101.1581 -65.4956 13.5145 -172.3947
State:	-10.076 -13.487  -4.071   0.296  0.726 -0.621 63.947     87.79    7.86  -82.63  -94.05 -166.22  180.00  163.90 -104.55   89.81 -101.16  -65.50   13.51 -172.39

DOCKED: MODEL       55
DOCKED: USER    Run = 55
DOCKED: USER    DPF = D:/Protein_go_brrr/autodock/final/AncA/heme/dock.dpf
DOCKED: USER  
DOCKED: USER    Estimated Free Energy of Binding    =   -5.72 kcal/mol  [=(1)+(2)+(3)-(4)]
DOCKED: USER    Estimated Inhibition Constant, Ki   =   64.21 uM (micromolar)  [Temperature = 298.15 K]
DOCKED: USER    
DOCKED: USER    (1) Final Intermolecular Energy     =   -9.60 kcal/mol
DOCKED: USER        vdW + Hbond + desolv Energy     =   -9.28 kcal/mol
DOCKED: USER        Electrostatic Energy            =   -0.32 kcal/mol
DOCKED: USER    (2) Final Total Internal Energy     =   -2.16 kcal/mol
DOCKED: USER    (3) Torsional Free Energy           =   +3.88 kcal/mol
DOCKED: USER    (4) Unbound System's Energy  [=(2)] =   -2.16 kcal/mol
DOCKED: USER    
DOCKED: USER    
DOCKED: USER    NEWDPF move heme_opt.pdbqt
DOCKED: USER    NEWDPF about 0.153000 0.018000 -0.028000
DOCKED: USER    NEWDPF tran0 -10.076477 -13.487126 -4.071166
DOCKED: USER    NEWDPF quaternion0 0.156866 0.384473 -0.328589 0.848294
DOCKED: USER    NEWDPF axisangle0 0.296240 0.726070 -0.620535 63.946795
DOCKED: USER    NEWDPF quat0 0.296240 0.726070 -0.620535 63.946795
DOCKED: USER    NEWDPF dihe0 87.79 7.86 -82.63 -94.05 -166.22 180.00 163.90 -104.55 89.81 -101.16 -65.50 13.51 -172.39 
DOCKED: USER  keepresnum = 1 
DOCKED: USER  
DOCKED: REMARK  13 active torsions:
DOCKED: REMARK  status: ('A' for Active; 'I' for Inactive)
DOCKED: REMARK    1  A    between atoms: O_3  and  C_38 
DOCKED: REMARK    2  A    between atoms: O_4  and  C_40 
DOCKED: REMARK    3  A    between atoms: O_7  and  C_46 
DOCKED: REMARK    4  A    between atoms: O_9  and  C_48 
DOCKED: REMARK    5  A    between atoms: C_15  and  C_20 
DOCKED: REMARK    6  A    between atoms: C_16  and  C_23 
DOCKED: REMARK    7  A    between atoms: C_20  and  C_38 
DOCKED: REMARK    8  A    between atoms: C_23  and  C_40 
DOCKED: REMARK    9  A    between atoms: C_32  and  C_41 
DOCKED: REMARK   10  A    between atoms: C_37  and  C_45 
DOCKED: REMARK   11  A    between atoms: C_41  and  C_44 
DOCKED: REMARK   12  A    between atoms: C_44  and  C_46 
DOCKED: REMARK   13  A    between atoms: C_47  and  C_48 
DOCKED: USER                              x       y       z     vdW  Elec       q    Type
DOCKED: USER                           _______ _______ _______ _____ _____    ______ ____
DOCKED: ROOT
DOCKED: ATOM      1  O   UNL d   1     -14.044 -16.042  -7.604 -0.05 -0.05    -0.289 OA
DOCKED: ATOM      2  O   UNL d   1      -8.064 -18.871  -4.051 -0.02 -0.19    -0.289 OA
DOCKED: ATOM      3  N   UNL d   1     -11.900 -14.104  -5.723 -0.09 -0.06    -0.247 NA
DOCKED: ATOM      4  N   UNL d   1     -10.074 -16.101  -4.495 -0.07 -0.12    -0.247 NA
DOCKED: ATOM      5  N   UNL d   1      -9.165 -14.037  -2.712 -0.04 -0.24    -0.354 N 
DOCKED: ATOM      6  N   UNL d   1     -11.076 -11.976  -3.979 +0.02 -0.09    -0.354 N 
DOCKED: ATOM      7  C   UNL d   1     -14.025 -13.708  -6.879 -0.15 +0.01    +0.084 A 
DOCKED: ATOM      8  C   UNL d   1      -9.762 -18.211  -5.687 -0.09 +0.04    +0.084 A 
DOCKED: ATOM      9  C   UNL d   1     -10.482 -16.864  -5.566 -0.13 +0.03    +0.058 A 
DOCKED: ATOM     10  C   UNL d   1     -12.879 -13.170  -6.017 -0.24 +0.01    +0.058 A 
DOCKED: ATOM     11  C   UNL d   1     -13.511 -15.108  -7.035 -0.10 +0.03    +0.193 A 
DOCKED: ATOM     12  C   UNL d   1     -12.205 -15.215  -6.311 -0.18 +0.02    +0.109 A 
DOCKED: ATOM     13  C   UNL d   1      -8.896 -18.087  -4.464 -0.04 +0.12    +0.193 A 
DOCKED: ATOM     14  C   UNL d   1     -15.349 -13.749  -6.112 -0.07 +0.00    +0.026 C 
DOCKED: ATOM     15  C   UNL d   1     -11.460 -16.487  -6.403 -0.20 +0.02    +0.055 C 
DOCKED: ATOM     16  C   UNL d   1      -8.861 -18.265  -6.924 -0.21 +0.02    +0.026 C 
DOCKED: ATOM     17  C   UNL d   1      -9.187 -16.767  -3.828 -0.09 +0.07    +0.109 A 
DOCKED: ATOM     18  C   UNL d   1     -12.811 -11.871  -5.669 -0.35 +0.00    +0.050 C 
DOCKED: ATOM     19  C   UNL d   1     -11.750 -11.267  -4.947 -0.34 +0.01    +0.045 A 
DOCKED: ATOM     20  C   UNL d   1      -8.572 -15.127  -2.131 -0.11 +0.04    +0.045 A 
DOCKED: ATOM     21  C   UNL d   1      -8.513 -16.386  -2.578 -0.10 +0.05    +0.057 C 
DOCKED: ATOM     22  C   UNL d   1      -8.258 -13.311  -0.783 -0.18 -0.02    -0.019 A 
DOCKED: ATOM     23  C   UNL d   1      -9.028 -12.893  -1.971 -0.20 +0.03    +0.045 A 
DOCKED: ATOM     24  C   UNL d   1      -7.989 -14.634  -0.884 -0.11 -0.02    -0.022 A 
DOCKED: ATOM     25  C   UNL d   1     -10.154 -11.175  -3.347 -0.24 +0.01    +0.049 A 
DOCKED: ATOM     26  C   UNL d   1     -11.227  -9.983  -4.971 -0.50 -0.00    -0.018 A 
DOCKED: ATOM     27  C   UNL d   1     -10.206  -9.937  -3.972 -0.45 +0.00    +0.003 A 
DOCKED: ATOM     28  C   UNL d   1      -9.445 -11.639  -2.206 -0.33 +0.02    +0.052 C 
DOCKED: ATOM     29  C   UNL d   1      -7.232 -15.507   0.057 -0.11 +0.06    +0.046 C 
DOCKED: ATOM     30  C   UNL d   1     -11.646  -8.867  -5.866 -0.18 +0.00    +0.046 C 
DOCKED: ATOM     31  H   UNL d   1      -9.581 -14.094  -3.636 +0.09 +0.10    +0.166 HD
DOCKED: ATOM     32  H   UNL d   1     -11.277 -12.943  -3.751 +0.06 +0.05    +0.166 HD
DOCKED: ENDROOT
DOCKED: BRANCH   7  33
DOCKED: ATOM     33  C   UNL d   1     -14.187 -13.039  -8.248 -0.22 +0.01    +0.141 C 
DOCKED: BRANCH  33  34
DOCKED: ATOM     34  C   UNL d   1     -14.464 -14.029  -9.347 -0.14 +0.05    +0.306 C 
DOCKED: ATOM     35  O   UNL d   1     -13.714 -14.313 -10.266 -0.24 -0.05    -0.251 OA
DOCKED: BRANCH  34  36
DOCKED: ATOM     36  O   UNL d   1     -15.670 -14.612  -9.228 +0.01 -0.10    -0.481 OA
DOCKED: ATOM     37  H   UNL d   1     -15.493 -15.449  -8.748 +0.05 +0.06    +0.295 HD
DOCKED: ENDBRANCH  34  36
DOCKED: ENDBRANCH  33  34
DOCKED: ENDBRANCH   7  33
DOCKED: BRANCH  27  38
DOCKED: ATOM     38  C   UNL d   1      -9.417  -8.785  -3.651 -0.55 +0.00    +0.017 C 
DOCKED: ATOM     39  C   UNL d   1      -8.079  -8.764  -3.561 -0.44 +0.03    +0.092 C 
DOCKED: BRANCH  39  40
DOCKED: ATOM     40  C   UNL d   1      -7.388  -7.512  -3.241 -0.26 +0.12    +0.330 C 
DOCKED: ATOM     41  O   UNL d   1      -6.194  -7.339  -3.092 -1.13 -0.13    -0.246 OA
DOCKED: BRANCH  40  42
DOCKED: ATOM     42  O   UNL d   1      -8.275  -6.511  -3.132 -0.11 -0.12    -0.477 OA
DOCKED: ATOM     43  H   UNL d   1      -7.716  -5.711  -3.048 +0.22 +0.07    +0.295 HD
DOCKED: ENDBRANCH  40  42
DOCKED: ENDBRANCH  39  40
DOCKED: ENDBRANCH  27  38
DOCKED: BRANCH   8  44
DOCKED: ATOM     44  C   UNL d   1     -10.659 -19.450  -5.600 -0.03 +0.06    +0.141 C 
DOCKED: BRANCH  44  45
DOCKED: ATOM     45  C   UNL d   1      -9.956 -20.655  -5.035 +0.00 +0.13    +0.306 C 
DOCKED: ATOM     46  O   UNL d   1     -10.262 -21.270  -4.029 +0.00 -0.09    -0.251 OA
DOCKED: BRANCH  45  47
DOCKED: ATOM     47  O   UNL d   1      -8.879 -21.009  -5.759 +0.00 -0.26    -0.481 OA
DOCKED: ATOM     48  H   UNL d   1      -8.121 -20.592  -5.296 +0.03 +0.19    +0.295 HD
DOCKED: ENDBRANCH  45  47
DOCKED: ENDBRANCH  44  45
DOCKED: ENDBRANCH   8  44
DOCKED: BRANCH  22  49
DOCKED: ATOM     49  C   UNL d   1      -7.872 -12.390   0.338 -0.15 +0.05    +0.048 C 
DOCKED: BRANCH  49  50
DOCKED: ATOM     50  C   UNL d   1      -8.740 -12.607   1.577 -0.31 +0.10    +0.125 C 
DOCKED: BRANCH  50  51
DOCKED: ATOM     51  C   UNL d   1      -7.917 -13.116   2.726 -0.20 +0.39    +0.305 C 
DOCKED: ATOM     52  O   UNL d   1      -7.951 -14.224   3.230 -0.30 -0.35    -0.251 OA
DOCKED: BRANCH  51  53
DOCKED: ATOM     53  O   UNL d   1      -7.080 -12.173   3.203 -0.91 -0.66    -0.481 OA
DOCKED: ATOM     54  H   UNL d   1      -7.626 -11.671   3.843 +0.18 +0.24    +0.295 HD
DOCKED: ENDBRANCH  51  53
DOCKED: ENDBRANCH  50  51
DOCKED: ENDBRANCH  49  50
DOCKED: ENDBRANCH  22  49
DOCKED: TORSDOF 13
DOCKED: TER
DOCKED: ENDMDL
________________________________________________________________________________


	BEGINNING GENETIC ALGORITHM DOCKING 56 of 100
Run: 56 Seed: 1705688307 1040991816 [ Run 56 of 100 GA/GALS ]
Beginning LAMARCKIAN GENETIC ALGORITHM (LGA), with a maximum of 25000000 energy evaluations.

Final-Value: -10.867


	FINAL GENETIC ALGORITHM DOCKED STATE
	_______________________________________________


Detailed state:  trans -13.130 -14.097 -8.109 quatxyzw 0.101458 -0.442782 0.211458 -0.865411 center 0.153 0.018 -0.028 ntor 13 -179.8038 -136.7193 159.4868 -67.1982 -152.3741 -167.5738 -60.2341 -16.2626 11.1276 -161.1812 83.1153 14.3383 162.2487
State:	-13.130 -14.097  -8.109   0.202 -0.884  0.422 -60.141   -179.80 -136.72  159.49  -67.20 -152.37 -167.57  -60.23  -16.26   11.13 -161.18   83.12   14.34  162.25

DOCKED: MODEL       56
DOCKED: USER    Run = 56
DOCKED: USER    DPF = D:/Protein_go_brrr/autodock/final/AncA/heme/dock.dpf
DOCKED: USER  
DOCKED: USER    Estimated Free Energy of Binding    =   -4.48 kcal/mol  [=(1)+(2)+(3)-(4)]
DOCKED: USER    Estimated Inhibition Constant, Ki   =  522.05 uM (micromolar)  [Temperature = 298.15 K]
DOCKED: USER    
DOCKED: USER    (1) Final Intermolecular Energy     =   -8.36 kcal/mol
DOCKED: USER        vdW + Hbond + desolv Energy     =   -8.19 kcal/mol
DOCKED: USER        Electrostatic Energy            =   -0.16 kcal/mol
DOCKED: USER    (2) Final Total Internal Energy     =   -2.51 kcal/mol
DOCKED: USER    (3) Torsional Free Energy           =   +3.88 kcal/mol
DOCKED: USER    (4) Unbound System's Energy  [=(2)] =   -2.51 kcal/mol
DOCKED: USER    
DOCKED: USER    
DOCKED: USER    NEWDPF move heme_opt.pdbqt
DOCKED: USER    NEWDPF about 0.153000 0.018000 -0.028000
DOCKED: USER    NEWDPF tran0 -13.130302 -14.096781 -8.109196
DOCKED: USER    NEWDPF quaternion0 0.101458 -0.442782 0.211458 -0.865411
DOCKED: USER    NEWDPF axisangle0 0.202486 -0.883685 0.422019 -60.140645
DOCKED: USER    NEWDPF quat0 0.202486 -0.883685 0.422019 -60.140645
DOCKED: USER    NEWDPF dihe0 -179.80 -136.72 159.49 -67.20 -152.37 -167.57 -60.23 -16.26 11.13 -161.18 83.12 14.34 162.25 
DOCKED: USER  keepresnum = 1 
DOCKED: USER  
DOCKED: REMARK  13 active torsions:
DOCKED: REMARK  status: ('A' for Active; 'I' for Inactive)
DOCKED: REMARK    1  A    between atoms: O_3  and  C_38 
DOCKED: REMARK    2  A    between atoms: O_4  and  C_40 
DOCKED: REMARK    3  A    between atoms: O_7  and  C_46 
DOCKED: REMARK    4  A    between atoms: O_9  and  C_48 
DOCKED: REMARK    5  A    between atoms: C_15  and  C_20 
DOCKED: REMARK    6  A    between atoms: C_16  and  C_23 
DOCKED: REMARK    7  A    between atoms: C_20  and  C_38 
DOCKED: REMARK    8  A    between atoms: C_23  and  C_40 
DOCKED: REMARK    9  A    between atoms: C_32  and  C_41 
DOCKED: REMARK   10  A    between atoms: C_37  and  C_45 
DOCKED: REMARK   11  A    between atoms: C_41  and  C_44 
DOCKED: REMARK   12  A    between atoms: C_44  and  C_46 
DOCKED: REMARK   13  A    between atoms: C_47  and  C_48 
DOCKED: USER                              x       y       z     vdW  Elec       q    Type
DOCKED: USER                           _______ _______ _______ _____ _____    ______ ____
DOCKED: ROOT
DOCKED: ATOM      1  O   UNL d   1     -17.278 -14.378 -12.289 -0.06 -0.15    -0.289 OA
DOCKED: ATOM      2  O   UNL d   1     -11.156 -18.570 -11.130 -0.11 -0.12    -0.289 OA
DOCKED: ATOM      3  N   UNL d   1     -15.034 -13.745  -9.748 -0.10 -0.06    -0.247 NA
DOCKED: ATOM      4  N   UNL d   1     -13.166 -16.051  -9.896 -0.05 -0.03    -0.247 NA
DOCKED: ATOM      5  N   UNL d   1     -12.159 -15.282  -7.315 -0.08 -0.04    -0.354 N 
DOCKED: ATOM      6  N   UNL d   1     -14.114 -12.904  -7.161 -0.08 -0.03    -0.354 N 
DOCKED: ATOM      7  C   UNL d   1     -17.208 -12.823 -10.404 -0.04 +0.02    +0.084 A 
DOCKED: ATOM      8  C   UNL d   1     -12.924 -17.157 -12.062 -0.19 +0.04    +0.084 A 
DOCKED: ATOM      9  C   UNL d   1     -13.629 -16.110 -11.192 -0.21 +0.02    +0.058 A 
DOCKED: ATOM     10  C   UNL d   1     -16.019 -12.822  -9.439 -0.09 +0.01    +0.058 A 
DOCKED: ATOM     11  C   UNL d   1     -16.712 -13.898 -11.324 -0.07 +0.08    +0.193 A 
DOCKED: ATOM     12  C   UNL d   1     -15.374 -14.358 -10.835 -0.14 +0.04    +0.109 A 
DOCKED: ATOM     13  C   UNL d   1     -12.002 -17.705 -11.010 -0.14 +0.07    +0.193 A 
DOCKED: ATOM     14  C   UNL d   1     -18.495 -13.304  -9.730 -0.01 +0.00    +0.026 C 
DOCKED: ATOM     15  C   UNL d   1     -14.643 -15.356 -11.642 -0.21 +0.03    +0.055 C 
DOCKED: ATOM     16  C   UNL d   1     -12.083 -16.505 -13.164 -0.20 +0.02    +0.026 C 
DOCKED: ATOM     17  C   UNL d   1     -12.253 -16.955  -9.742 -0.04 +0.02    +0.109 A 
DOCKED: ATOM     18  C   UNL d   1     -15.926 -11.925  -8.439 -0.12 +0.01    +0.050 C 
DOCKED: ATOM     19  C   UNL d   1     -14.828 -11.794  -7.552 -0.18 +0.00    +0.045 A 
DOCKED: ATOM     20  C   UNL d   1     -11.547 -16.501  -7.453 -0.19 +0.01    +0.045 A 
DOCKED: ATOM     21  C   UNL d   1     -11.518 -17.308  -8.519 -0.20 +0.02    +0.057 C 
DOCKED: ATOM     22  C   UNL d   1     -11.157 -15.714  -5.344 -0.14 -0.01    -0.019 A 
DOCKED: ATOM     23  C   UNL d   1     -11.980 -14.729  -6.075 -0.20 +0.01    +0.045 A 
DOCKED: ATOM     24  C   UNL d   1     -10.903 -16.760  -6.166 -0.18 -0.01    -0.022 A 
DOCKED: ATOM     25  C   UNL d   1     -13.157 -12.561  -6.233 -0.26 +0.00    +0.049 A 
DOCKED: ATOM     26  C   UNL d   1     -14.298 -10.697  -6.890 -0.30 +0.00    -0.018 A 
DOCKED: ATOM     27  C   UNL d   1     -13.231 -11.184  -6.074 -0.37 +0.00    +0.003 A 
DOCKED: ATOM     28  C   UNL d   1     -12.399 -13.561  -5.565 -0.23 +0.01    +0.052 C 
DOCKED: ATOM     29  C   UNL d   1     -10.108 -17.991  -5.891 -0.12 +0.02    +0.046 C 
DOCKED: ATOM     30  C   UNL d   1     -14.752  -9.281  -7.009 -0.20 -0.00    +0.046 C 
DOCKED: ATOM     31  H   UNL d   1     -12.619 -14.833  -8.099 -0.37 -0.01    +0.166 HD
DOCKED: ATOM     32  H   UNL d   1     -14.310 -13.841  -7.491 +0.05 +0.02    +0.166 HD
DOCKED: ENDROOT
DOCKED: BRANCH   7  33
DOCKED: ATOM     33  C   UNL d   1     -17.431 -11.517 -11.174 -0.06 +0.04    +0.141 C 
DOCKED: BRANCH  33  34
DOCKED: ATOM     34  C   UNL d   1     -16.240 -11.124 -12.005 -0.10 +0.13    +0.306 C 
DOCKED: ATOM     35  O   UNL d   1     -15.379 -10.318 -11.695 -0.19 -0.08    -0.251 OA
DOCKED: BRANCH  34  36
DOCKED: ATOM     36  O   UNL d   1     -16.193 -11.771 -13.184 -0.51 -0.47    -0.481 OA
DOCKED: ATOM     37  H   UNL d   1     -16.964 -12.377 -13.163 +0.03 +0.23    +0.295 HD
DOCKED: ENDBRANCH  34  36
DOCKED: ENDBRANCH  33  34
DOCKED: ENDBRANCH   7  33
DOCKED: BRANCH  27  38
DOCKED: ATOM     38  C   UNL d   1     -12.420 -10.381  -5.209 -0.52 +0.00    +0.017 C 
DOCKED: ATOM     39  C   UNL d   1     -11.078 -10.375  -5.191 -0.40 +0.02    +0.092 C 
DOCKED: BRANCH  39  40
DOCKED: ATOM     40  C   UNL d   1     -10.365  -9.490  -4.266 -0.31 +0.06    +0.330 C 
DOCKED: ATOM     41  O   UNL d   1      -9.175  -9.239  -4.246 -0.32 -0.07    -0.246 OA
DOCKED: BRANCH  40  42
DOCKED: ATOM     42  O   UNL d   1     -11.226  -8.945  -3.393 -0.20 -0.01    -0.477 OA
DOCKED: ATOM     43  H   UNL d   1     -11.804  -9.693  -3.135 -0.27 -0.06    +0.295 HD
DOCKED: ENDBRANCH  40  42
DOCKED: ENDBRANCH  39  40
DOCKED: ENDBRANCH  27  38
DOCKED: BRANCH   8  44
DOCKED: ATOM     44  C   UNL d   1     -13.825 -18.258 -12.630 -0.06 +0.06    +0.141 C 
DOCKED: BRANCH  44  45
DOCKED: ATOM     45  C   UNL d   1     -13.358 -18.780 -13.962 -0.03 +0.14    +0.306 C 
DOCKED: ATOM     46  O   UNL d   1     -13.844 -18.530 -15.052 -0.04 -0.14    -0.251 OA
DOCKED: BRANCH  45  47
DOCKED: ATOM     47  O   UNL d   1     -12.312 -19.618 -13.849 +0.01 -0.18    -0.481 OA
DOCKED: ATOM     48  H   UNL d   1     -11.914 -19.401 -12.979 +0.05 +0.11    +0.295 HD
DOCKED: ENDBRANCH  45  47
DOCKED: ENDBRANCH  44  45
DOCKED: ENDBRANCH   8  44
DOCKED: BRANCH  22  49
DOCKED: ATOM     49  C   UNL d   1     -10.713 -15.550  -3.921 -0.11 +0.02    +0.048 C 
DOCKED: BRANCH  49  50
DOCKED: ATOM     50  C   UNL d   1     -11.830 -15.887  -2.934 -0.07 +0.04    +0.125 C 
DOCKED: BRANCH  50  51
DOCKED: ATOM     51  C   UNL d   1     -12.552 -14.644  -2.496 -0.11 +0.06    +0.305 C 
DOCKED: ATOM     52  O   UNL d   1     -12.139 -13.498  -2.517 -0.15 -0.05    -0.251 OA
DOCKED: BRANCH  51  53
DOCKED: ATOM     53  O   UNL d   1     -13.788 -14.916  -2.032 -0.10 -0.07    -0.481 OA
DOCKED: ATOM     54  H   UNL d   1     -13.734 -14.708  -1.076 +0.06 +0.03    +0.295 HD
DOCKED: ENDBRANCH  51  53
DOCKED: ENDBRANCH  50  51
DOCKED: ENDBRANCH  49  50
DOCKED: ENDBRANCH  22  49
DOCKED: TORSDOF 13
DOCKED: TER
DOCKED: ENDMDL
________________________________________________________________________________


	BEGINNING GENETIC ALGORITHM DOCKING 57 of 100
Run: 57 Seed: 1974353849 270151117 [ Run 57 of 100 GA/GALS ]
Beginning LAMARCKIAN GENETIC ALGORITHM (LGA), with a maximum of 25000000 energy evaluations.

Final-Value: -13.004


	FINAL GENETIC ALGORITHM DOCKED STATE
	_______________________________________________


Detailed state:  trans -6.925 -1.627 -16.415 quatxyzw 0.712814 -0.660338 -0.223077 0.078025 center 0.153 0.018 -0.028 ntor 13 -137.1238 69.9742 -116.5808 87.2190 -166.6253 72.6678 122.3431 -21.4571 -148.5962 -21.9096 -27.2285 -81.8926 156.8156
State:	 -6.925  -1.627 -16.415   0.715 -0.662 -0.224 171.050   -137.12   69.97 -116.58   87.22 -166.63   72.67  122.34  -21.46 -148.60  -21.91  -27.23  -81.89  156.82

DOCKED: MODEL       57
DOCKED: USER    Run = 57
DOCKED: USER    DPF = D:/Protein_go_brrr/autodock/final/AncA/heme/dock.dpf
DOCKED: USER  
DOCKED: USER    Estimated Free Energy of Binding    =   -7.40 kcal/mol  [=(1)+(2)+(3)-(4)]
DOCKED: USER    Estimated Inhibition Constant, Ki   =    3.74 uM (micromolar)  [Temperature = 298.15 K]
DOCKED: USER    
DOCKED: USER    (1) Final Intermolecular Energy     =  -11.28 kcal/mol
DOCKED: USER        vdW + Hbond + desolv Energy     =  -10.00 kcal/mol
DOCKED: USER        Electrostatic Energy            =   -1.28 kcal/mol
DOCKED: USER    (2) Final Total Internal Energy     =   -1.72 kcal/mol
DOCKED: USER    (3) Torsional Free Energy           =   +3.88 kcal/mol
DOCKED: USER    (4) Unbound System's Energy  [=(2)] =   -1.72 kcal/mol
DOCKED: USER    
DOCKED: USER    
DOCKED: USER    NEWDPF move heme_opt.pdbqt
DOCKED: USER    NEWDPF about 0.153000 0.018000 -0.028000
DOCKED: USER    NEWDPF tran0 -6.924651 -1.627415 -16.414853
DOCKED: USER    NEWDPF quaternion0 0.712814 -0.660338 -0.223077 0.078025
DOCKED: USER    NEWDPF axisangle0 0.714993 -0.662357 -0.223759 171.049931
DOCKED: USER    NEWDPF quat0 0.714993 -0.662357 -0.223759 171.049931
DOCKED: USER    NEWDPF dihe0 -137.12 69.97 -116.58 87.22 -166.63 72.67 122.34 -21.46 -148.60 -21.91 -27.23 -81.89 156.82 
DOCKED: USER  keepresnum = 1 
DOCKED: USER  
DOCKED: REMARK  13 active torsions:
DOCKED: REMARK  status: ('A' for Active; 'I' for Inactive)
DOCKED: REMARK    1  A    between atoms: O_3  and  C_38 
DOCKED: REMARK    2  A    between atoms: O_4  and  C_40 
DOCKED: REMARK    3  A    between atoms: O_7  and  C_46 
DOCKED: REMARK    4  A    between atoms: O_9  and  C_48 
DOCKED: REMARK    5  A    between atoms: C_15  and  C_20 
DOCKED: REMARK    6  A    between atoms: C_16  and  C_23 
DOCKED: REMARK    7  A    between atoms: C_20  and  C_38 
DOCKED: REMARK    8  A    between atoms: C_23  and  C_40 
DOCKED: REMARK    9  A    between atoms: C_32  and  C_41 
DOCKED: REMARK   10  A    between atoms: C_37  and  C_45 
DOCKED: REMARK   11  A    between atoms: C_41  and  C_44 
DOCKED: REMARK   12  A    between atoms: C_44  and  C_46 
DOCKED: REMARK   13  A    between atoms: C_47  and  C_48 
DOCKED: USER                              x       y       z     vdW  Elec       q    Type
DOCKED: USER                           _______ _______ _______ _____ _____    ______ ____
DOCKED: ROOT
DOCKED: ATOM      1  O   UNL d   1      -8.872   3.527 -14.318 -0.34 +0.00    -0.289 OA
DOCKED: ATOM      2  O   UNL d   1      -1.930   0.701 -14.782 -0.23 +0.01    -0.289 OA
DOCKED: ATOM      3  N   UNL d   1      -8.221   0.359 -15.517 -0.24 +0.09    -0.247 NA
DOCKED: ATOM      4  N   UNL d   1      -5.252   0.259 -15.603 -0.12 +0.01    -0.247 NA
DOCKED: ATOM      5  N   UNL d   1      -5.472  -2.117 -17.208 -0.13 +0.02    -0.354 N 
DOCKED: ATOM      6  N   UNL d   1      -8.551  -1.994 -17.130 -0.08 +0.10    -0.354 N 
DOCKED: ATOM      7  C   UNL d   1     -10.220   1.768 -15.350 -0.20 -0.05    +0.084 A 
DOCKED: ATOM      8  C   UNL d   1      -4.039   1.711 -14.057 -0.20 -0.00    +0.084 A 
DOCKED: ATOM      9  C   UNL d   1      -5.371   1.258 -14.663 -0.23 -0.00    +0.058 A 
DOCKED: ATOM     10  C   UNL d   1      -9.578   0.445 -15.778 -0.26 -0.04    +0.058 A 
DOCKED: ATOM     11  C   UNL d   1      -8.988   2.408 -14.782 -0.13 -0.05    +0.193 A 
DOCKED: ATOM     12  C   UNL d   1      -7.850   1.444 -14.919 -0.27 -0.03    +0.109 A 
DOCKED: ATOM     13  C   UNL d   1      -3.138   0.810 -14.854 -0.16 -0.01    +0.193 A 
DOCKED: ATOM     14  C   UNL d   1     -10.697   2.590 -16.549 -0.08 -0.01    +0.026 C 
DOCKED: ATOM     15  C   UNL d   1      -6.545   1.824 -14.341 -0.32 -0.00    +0.055 C 
DOCKED: ATOM     16  C   UNL d   1      -3.930   1.331 -12.577 -0.49 -0.00    +0.026 C 
DOCKED: ATOM     17  C   UNL d   1      -3.997  -0.014 -15.759 -0.18 -0.01    +0.109 A 
DOCKED: ATOM     18  C   UNL d   1     -10.315  -0.564 -16.280 -0.20 -0.05    +0.050 C 
DOCKED: ATOM     19  C   UNL d   1      -9.824  -1.849 -16.625 -0.22 -0.03    +0.045 A 
DOCKED: ATOM     20  C   UNL d   1      -4.128  -1.874 -17.330 -0.26 -0.00    +0.045 A 
DOCKED: ATOM     21  C   UNL d   1      -3.381  -0.964 -16.697 -0.18 -0.00    +0.057 C 
DOCKED: ATOM     22  C   UNL d   1      -4.699  -3.586 -18.730 -0.28 +0.00    -0.019 A 
DOCKED: ATOM     23  C   UNL d   1      -5.909  -3.133 -18.015 -0.26 -0.01    +0.045 A 
DOCKED: ATOM     24  C   UNL d   1      -3.648  -2.838 -18.319 -0.28 +0.00    -0.022 A 
DOCKED: ATOM     25  C   UNL d   1      -8.316  -3.303 -17.479 -0.23 -0.01    +0.049 A 
DOCKED: ATOM     26  C   UNL d   1     -10.417  -3.102 -16.611 -0.24 +0.01    -0.018 A 
DOCKED: ATOM     27  C   UNL d   1      -9.454  -4.019 -17.133 -0.26 -0.00    +0.003 A 
DOCKED: ATOM     28  C   UNL d   1      -7.128  -3.673 -18.167 -0.27 -0.01    +0.052 C 
DOCKED: ATOM     29  C   UNL d   1      -2.220  -2.923 -18.741 -0.28 -0.01    +0.046 C 
DOCKED: ATOM     30  C   UNL d   1     -11.794  -3.429 -16.141 -0.09 -0.04    +0.046 C 
DOCKED: ATOM     31  H   UNL d   1      -6.035  -1.627 -16.521 +0.07 -0.01    +0.166 HD
DOCKED: ATOM     32  H   UNL d   1      -7.907  -1.222 -17.257 +0.06 -0.03    +0.166 HD
DOCKED: ENDROOT
DOCKED: BRANCH   7  33
DOCKED: ATOM     33  C   UNL d   1     -11.309   1.653 -14.277 -0.00 -0.14    +0.141 C 
DOCKED: BRANCH  33  34
DOCKED: ATOM     34  C   UNL d   1     -12.697   1.728 -14.852 -0.09 -0.22    +0.306 C 
DOCKED: ATOM     35  O   UNL d   1     -13.500   2.629 -14.679 -0.05 +0.09    -0.251 OA
DOCKED: BRANCH  34  36
DOCKED: ATOM     36  O   UNL d   1     -13.000   0.664 -15.617 -0.04 +0.46    -0.481 OA
DOCKED: ATOM     37  H   UNL d   1     -12.620  -0.102 -15.136 -0.46 -0.69    +0.295 HD
DOCKED: ENDBRANCH  34  36
DOCKED: ENDBRANCH  33  34
DOCKED: ENDBRANCH   7  33
DOCKED: BRANCH  27  38
DOCKED: ATOM     38  C   UNL d   1      -9.663  -5.425 -17.308 -0.28 -0.00    +0.017 C 
DOCKED: ATOM     39  C   UNL d   1      -9.327  -6.128 -18.400 -0.28 -0.05    +0.092 C 
DOCKED: BRANCH  39  40
DOCKED: ATOM     40  C   UNL d   1      -9.580  -7.570 -18.447 -0.13 -0.21    +0.330 C 
DOCKED: ATOM     41  O   UNL d   1     -10.655  -8.134 -18.530 -0.11 +0.10    -0.246 OA
DOCKED: BRANCH  40  42
DOCKED: ATOM     42  O   UNL d   1      -8.421  -8.245 -18.393 -0.71 +0.23    -0.477 OA
DOCKED: ATOM     43  H   UNL d   1      -8.329  -8.626 -19.290 -0.44 -0.39    +0.295 HD
DOCKED: ENDBRANCH  40  42
DOCKED: ENDBRANCH  39  40
DOCKED: ENDBRANCH  27  38
DOCKED: BRANCH   8  44
DOCKED: ATOM     44  C   UNL d   1      -3.679   3.183 -14.280 -0.09 +0.01    +0.141 C 
DOCKED: BRANCH  44  45
DOCKED: ATOM     45  C   UNL d   1      -3.296   3.493 -15.703 -0.00 +0.02    +0.306 C 
DOCKED: ATOM     46  O   UNL d   1      -4.056   3.644 -16.643 -0.01 -0.01    -0.251 OA
DOCKED: BRANCH  45  47
DOCKED: ATOM     47  O   UNL d   1      -1.964   3.569 -15.873 +0.01 -0.03    -0.481 OA
DOCKED: ATOM     48  H   UNL d   1      -1.634   2.672 -15.652 +0.07 +0.01    +0.295 HD
DOCKED: ENDBRANCH  45  47
DOCKED: ENDBRANCH  44  45
DOCKED: ENDBRANCH   8  44
DOCKED: BRANCH  22  49
DOCKED: ATOM     49  C   UNL d   1      -4.685  -4.688 -19.749 +0.10 -0.02    +0.048 C 
DOCKED: BRANCH  49  50
DOCKED: ATOM     50  C   UNL d   1      -5.322  -4.251 -21.068 -0.22 -0.06    +0.125 C 
DOCKED: BRANCH  50  51
DOCKED: ATOM     51  C   UNL d   1      -4.766  -5.040 -22.219 -0.14 -0.18    +0.305 C 
DOCKED: ATOM     52  O   UNL d   1      -3.666  -5.557 -22.304 -0.17 +0.12    -0.251 OA
DOCKED: BRANCH  51  53
DOCKED: ATOM     53  O   UNL d   1      -5.644  -5.130 -23.239 -0.08 +0.43    -0.481 OA
DOCKED: ATOM     54  H   UNL d   1      -6.118  -5.972 -23.071 -0.31 -0.62    +0.295 HD
DOCKED: ENDBRANCH  51  53
DOCKED: ENDBRANCH  50  51
DOCKED: ENDBRANCH  49  50
DOCKED: ENDBRANCH  22  49
DOCKED: TORSDOF 13
DOCKED: TER
DOCKED: ENDMDL
________________________________________________________________________________


	BEGINNING GENETIC ALGORITHM DOCKING 58 of 100
Run: 58 Seed: 967499789 1501366075 [ Run 58 of 100 GA/GALS ]
Beginning LAMARCKIAN GENETIC ALGORITHM (LGA), with a maximum of 25000000 energy evaluations.

Final-Value: -12.152


	FINAL GENETIC ALGORITHM DOCKED STATE
	_______________________________________________


Detailed state:  trans -6.859 -0.524 -16.659 quatxyzw 0.112615 -0.221060 0.707924 -0.661282 center 0.153 0.018 -0.028 ntor 13 -82.7174 -18.1255 154.4663 140.1452 26.6624 35.2708 108.6398 66.6284 125.4756 -132.0302 -98.9328 -59.5280 -180.0000
State:	 -6.859  -0.524 -16.659   0.150 -0.295  0.944 -97.204    -82.72  -18.13  154.47  140.15   26.66   35.27  108.64   66.63  125.48 -132.03  -98.93  -59.53 -180.00

DOCKED: MODEL       58
DOCKED: USER    Run = 58
DOCKED: USER    DPF = D:/Protein_go_brrr/autodock/final/AncA/heme/dock.dpf
DOCKED: USER  
DOCKED: USER    Estimated Free Energy of Binding    =   -6.69 kcal/mol  [=(1)+(2)+(3)-(4)]
DOCKED: USER    Estimated Inhibition Constant, Ki   =   12.46 uM (micromolar)  [Temperature = 298.15 K]
DOCKED: USER    
DOCKED: USER    (1) Final Intermolecular Energy     =  -10.57 kcal/mol
DOCKED: USER        vdW + Hbond + desolv Energy     =  -10.16 kcal/mol
DOCKED: USER        Electrostatic Energy            =   -0.41 kcal/mol
DOCKED: USER    (2) Final Total Internal Energy     =   -1.58 kcal/mol
DOCKED: USER    (3) Torsional Free Energy           =   +3.88 kcal/mol
DOCKED: USER    (4) Unbound System's Energy  [=(2)] =   -1.58 kcal/mol
DOCKED: USER    
DOCKED: USER    
DOCKED: USER    NEWDPF move heme_opt.pdbqt
DOCKED: USER    NEWDPF about 0.153000 0.018000 -0.028000
DOCKED: USER    NEWDPF tran0 -6.858635 -0.523976 -16.658787
DOCKED: USER    NEWDPF quaternion0 0.112615 -0.221060 0.707924 -0.661282
DOCKED: USER    NEWDPF axisangle0 0.150126 -0.294693 0.943726 -97.204489
DOCKED: USER    NEWDPF quat0 0.150126 -0.294693 0.943726 -97.204489
DOCKED: USER    NEWDPF dihe0 -82.72 -18.13 154.47 140.15 26.66 35.27 108.64 66.63 125.48 -132.03 -98.93 -59.53 -180.00 
DOCKED: USER  keepresnum = 1 
DOCKED: USER  
DOCKED: REMARK  13 active torsions:
DOCKED: REMARK  status: ('A' for Active; 'I' for Inactive)
DOCKED: REMARK    1  A    between atoms: O_3  and  C_38 
DOCKED: REMARK    2  A    between atoms: O_4  and  C_40 
DOCKED: REMARK    3  A    between atoms: O_7  and  C_46 
DOCKED: REMARK    4  A    between atoms: O_9  and  C_48 
DOCKED: REMARK    5  A    between atoms: C_15  and  C_20 
DOCKED: REMARK    6  A    between atoms: C_16  and  C_23 
DOCKED: REMARK    7  A    between atoms: C_20  and  C_38 
DOCKED: REMARK    8  A    between atoms: C_23  and  C_40 
DOCKED: REMARK    9  A    between atoms: C_32  and  C_41 
DOCKED: REMARK   10  A    between atoms: C_37  and  C_45 
DOCKED: REMARK   11  A    between atoms: C_41  and  C_44 
DOCKED: REMARK   12  A    between atoms: C_44  and  C_46 
DOCKED: REMARK   13  A    between atoms: C_47  and  C_48 
DOCKED: USER                              x       y       z     vdW  Elec       q    Type
DOCKED: USER                           _______ _______ _______ _____ _____    ______ ____
DOCKED: ROOT
DOCKED: ATOM      1  O   UNL d   1      -8.049  -5.844 -18.903 -0.28 +0.19    -0.289 OA
DOCKED: ATOM      2  O   UNL d   1      -1.604  -2.016 -18.449 -0.13 +0.02    -0.289 OA
DOCKED: ATOM      3  N   UNL d   1      -7.858  -2.654 -17.605 -0.14 +0.05    -0.247 NA
DOCKED: ATOM      4  N   UNL d   1      -4.938  -2.108 -17.561 -0.17 +0.02    -0.247 NA
DOCKED: ATOM      5  N   UNL d   1      -5.480   0.154 -15.871 -0.07 +0.02    -0.354 N 
DOCKED: ATOM      6  N   UNL d   1      -8.507  -0.431 -15.906 -0.17 +0.15    -0.354 N 
DOCKED: ATOM      7  C   UNL d   1      -9.625  -4.343 -17.790 -0.18 -0.03    +0.084 A 
DOCKED: ATOM      8  C   UNL d   1      -3.552  -3.309 -19.176 -0.24 -0.02    +0.084 A 
DOCKED: ATOM      9  C   UNL d   1      -4.924  -3.083 -18.533 -0.26 -0.01    +0.058 A 
DOCKED: ATOM     10  C   UNL d   1      -9.181  -2.953 -17.326 -0.20 -0.02    +0.058 A 
DOCKED: ATOM     11  C   UNL d   1      -8.323  -4.771 -18.398 -0.21 -0.07    +0.193 A 
DOCKED: ATOM     12  C   UNL d   1      -7.340  -3.651 -18.246 -0.21 -0.02    +0.109 A 
DOCKED: ATOM     13  C   UNL d   1      -2.781  -2.308 -18.362 -0.15 -0.02    +0.193 A 
DOCKED: ATOM     14  C   UNL d   1      -9.948  -5.266 -16.612 -0.28 -0.01    +0.026 C 
DOCKED: ATOM     15  C   UNL d   1      -6.005  -3.810 -18.857 -0.21 -0.01    +0.055 C 
DOCKED: ATOM     16  C   UNL d   1      -3.532  -2.870 -20.643 -0.12 -0.00    +0.026 C 
DOCKED: ATOM     17  C   UNL d   1      -3.735  -1.654 -17.416 -0.19 -0.00    +0.109 A 
DOCKED: ATOM     18  C   UNL d   1     -10.052  -2.084 -16.777 -0.24 -0.03    +0.050 C 
DOCKED: ATOM     19  C   UNL d   1      -9.753  -0.751 -16.396 -0.23 -0.03    +0.045 A 
DOCKED: ATOM     20  C   UNL d   1      -4.113   0.114 -15.779 -0.21 -0.00    +0.045 A 
DOCKED: ATOM     21  C   UNL d   1      -3.250  -0.652 -16.455 -0.18 -0.00    +0.057 C 
DOCKED: ATOM     22  C   UNL d   1      -4.906   1.675 -14.312 -0.25 +0.00    -0.019 A 
DOCKED: ATOM     23  C   UNL d   1      -6.049   1.067 -15.023 -0.23 -0.00    +0.045 A 
DOCKED: ATOM     24  C   UNL d   1      -3.763   1.107 -14.765 -0.22 +0.00    -0.022 A 
DOCKED: ATOM     25  C   UNL d   1      -8.465   0.887 -15.516 -0.29 -0.02    +0.049 A 
DOCKED: ATOM     26  C   UNL d   1     -10.529   0.397 -16.357 -0.17 +0.01    -0.018 A 
DOCKED: ATOM     27  C   UNL d   1      -9.704   1.433 -15.819 -0.21 -0.00    +0.003 A 
DOCKED: ATOM     28  C   UNL d   1      -7.332   1.410 -14.834 -0.33 -0.01    +0.052 C 
DOCKED: ATOM     29  C   UNL d   1      -2.357   1.394 -14.363 -0.30 -0.00    +0.046 C 
DOCKED: ATOM     30  C   UNL d   1     -11.948   0.527 -16.794 -0.10 -0.03    +0.046 C 
DOCKED: ATOM     31  H   UNL d   1      -5.977  -0.393 -16.567 +0.06 -0.01    +0.166 HD
DOCKED: ATOM     32  H   UNL d   1      -7.751  -1.101 -15.816 +0.07 -0.04    +0.166 HD
DOCKED: ENDROOT
DOCKED: BRANCH   7  33
DOCKED: ATOM     33  C   UNL d   1     -10.741  -4.360 -18.840 -0.06 -0.05    +0.141 C 
DOCKED: BRANCH  33  34
DOCKED: ATOM     34  C   UNL d   1     -11.014  -5.741 -19.372 -0.05 -0.14    +0.306 C 
DOCKED: ATOM     35  O   UNL d   1     -11.692  -6.599 -18.833 -0.04 +0.08    -0.251 OA
DOCKED: BRANCH  34  36
DOCKED: ATOM     36  O   UNL d   1     -10.422  -5.966 -20.558 -0.05 +0.45    -0.481 OA
DOCKED: ATOM     37  H   UNL d   1      -9.574  -6.404 -20.331 -0.38 -0.53    +0.295 HD
DOCKED: ENDBRANCH  34  36
DOCKED: ENDBRANCH  33  34
DOCKED: ENDBRANCH   7  33
DOCKED: BRANCH  27  38
DOCKED: ATOM     38  C   UNL d   1     -10.120   2.784 -15.592 -0.18 -0.00    +0.017 C 
DOCKED: ATOM     39  C   UNL d   1      -9.550   3.634 -14.723 -0.18 -0.01    +0.092 C 
DOCKED: BRANCH  39  40
DOCKED: ATOM     40  C   UNL d   1     -10.062   5.001 -14.598 -0.03 -0.01    +0.330 C 
DOCKED: ATOM     41  O   UNL d   1     -11.211   5.379 -14.721 -0.10 +0.02    -0.246 OA
DOCKED: BRANCH  40  42
DOCKED: ATOM     42  O   UNL d   1      -9.059   5.844 -14.306 -0.21 -0.06    -0.477 OA
DOCKED: ATOM     43  H   UNL d   1      -9.419   6.726 -14.535 +0.04 +0.03    +0.295 HD
DOCKED: ENDBRANCH  40  42
DOCKED: ENDBRANCH  39  40
DOCKED: ENDBRANCH  27  38
DOCKED: BRANCH   8  44
DOCKED: ATOM     44  C   UNL d   1      -2.969  -4.717 -19.010 -0.07 -0.06    +0.141 C 
DOCKED: BRANCH  44  45
DOCKED: ATOM     45  C   UNL d   1      -1.639  -4.893 -19.694 -0.25 -0.09    +0.306 C 
DOCKED: ATOM     46  O   UNL d   1      -0.599  -4.321 -19.419 -0.25 +0.04    -0.251 OA
DOCKED: BRANCH  45  47
DOCKED: ATOM     47  O   UNL d   1      -1.697  -5.769 -20.714 -0.13 +0.17    -0.481 OA
DOCKED: ATOM     48  H   UNL d   1      -2.442  -6.365 -20.486 -0.42 -0.23    +0.295 HD
DOCKED: ENDBRANCH  45  47
DOCKED: ENDBRANCH  44  45
DOCKED: ENDBRANCH   8  44
DOCKED: BRANCH  22  49
DOCKED: ATOM     49  C   UNL d   1      -5.038   2.732 -13.256 -0.32 +0.00    +0.048 C 
DOCKED: BRANCH  49  50
DOCKED: ATOM     50  C   UNL d   1      -5.012   2.137 -11.848 -0.31 -0.01    +0.125 C 
DOCKED: BRANCH  50  51
DOCKED: ATOM     51  C   UNL d   1      -3.602   1.885 -11.397 -0.34 +0.00    +0.305 C 
DOCKED: ATOM     52  O   UNL d   1      -2.707   2.702 -11.264 -0.27 -0.02    -0.251 OA
DOCKED: BRANCH  51  53
DOCKED: ATOM     53  O   UNL d   1      -3.379   0.580 -11.143 -0.27 +0.03    -0.481 OA
DOCKED: ATOM     54  H   UNL d   1      -4.197   0.283 -10.693 -0.24 -0.09    +0.295 HD
DOCKED: ENDBRANCH  51  53
DOCKED: ENDBRANCH  50  51
DOCKED: ENDBRANCH  49  50
DOCKED: ENDBRANCH  22  49
DOCKED: TORSDOF 13
DOCKED: TER
DOCKED: ENDMDL
________________________________________________________________________________


	BEGINNING GENETIC ALGORITHM DOCKING 59 of 100
Run: 59 Seed: 1860081912 1424212929 [ Run 59 of 100 GA/GALS ]
Beginning LAMARCKIAN GENETIC ALGORITHM (LGA), with a maximum of 25000000 energy evaluations.

Final-Value: -12.245


	FINAL GENETIC ALGORITHM DOCKED STATE
	_______________________________________________


Detailed state:  trans -13.219 -15.227 -8.802 quatxyzw -0.269109 0.811254 0.272407 -0.441861 center 0.153 0.018 -0.028 ntor 13 -178.6893 133.1055 -133.6691 42.6896 -156.9574 75.1547 124.6183 81.8038 5.3971 -30.4319 -90.6022 -64.8867 -5.0565
State:	-13.219 -15.227  -8.802  -0.300  0.904  0.304 -127.555   -178.69  133.11 -133.67   42.69 -156.96   75.15  124.62   81.80    5.40  -30.43  -90.60  -64.89   -5.06

DOCKED: MODEL       59
DOCKED: USER    Run = 59
DOCKED: USER    DPF = D:/Protein_go_brrr/autodock/final/AncA/heme/dock.dpf
DOCKED: USER  
DOCKED: USER    Estimated Free Energy of Binding    =   -3.70 kcal/mol  [=(1)+(2)+(3)-(4)]
DOCKED: USER    Estimated Inhibition Constant, Ki   =    1.93 mM (millimolar)  [Temperature = 298.15 K]
DOCKED: USER    
DOCKED: USER    (1) Final Intermolecular Energy     =   -7.58 kcal/mol
DOCKED: USER        vdW + Hbond + desolv Energy     =   -7.48 kcal/mol
DOCKED: USER        Electrostatic Energy            =   -0.10 kcal/mol
DOCKED: USER    (2) Final Total Internal Energy     =   -4.66 kcal/mol
DOCKED: USER    (3) Torsional Free Energy           =   +3.88 kcal/mol
DOCKED: USER    (4) Unbound System's Energy  [=(2)] =   -4.66 kcal/mol
DOCKED: USER    
DOCKED: USER    
DOCKED: USER    NEWDPF move heme_opt.pdbqt
DOCKED: USER    NEWDPF about 0.153000 0.018000 -0.028000
DOCKED: USER    NEWDPF tran0 -13.219279 -15.227242 -8.801858
DOCKED: USER    NEWDPF quaternion0 -0.269109 0.811254 0.272407 -0.441861
DOCKED: USER    NEWDPF axisangle0 -0.299982 0.904324 0.303659 -127.554611
DOCKED: USER    NEWDPF quat0 -0.299982 0.904324 0.303659 -127.554611
DOCKED: USER    NEWDPF dihe0 -178.69 133.11 -133.67 42.69 -156.96 75.15 124.62 81.80 5.40 -30.43 -90.60 -64.89 -5.06 
DOCKED: USER  keepresnum = 1 
DOCKED: USER  
DOCKED: REMARK  13 active torsions:
DOCKED: REMARK  status: ('A' for Active; 'I' for Inactive)
DOCKED: REMARK    1  A    between atoms: O_3  and  C_38 
DOCKED: REMARK    2  A    between atoms: O_4  and  C_40 
DOCKED: REMARK    3  A    between atoms: O_7  and  C_46 
DOCKED: REMARK    4  A    between atoms: O_9  and  C_48 
DOCKED: REMARK    5  A    between atoms: C_15  and  C_20 
DOCKED: REMARK    6  A    between atoms: C_16  and  C_23 
DOCKED: REMARK    7  A    between atoms: C_20  and  C_38 
DOCKED: REMARK    8  A    between atoms: C_23  and  C_40 
DOCKED: REMARK    9  A    between atoms: C_32  and  C_41 
DOCKED: REMARK   10  A    between atoms: C_37  and  C_45 
DOCKED: REMARK   11  A    between atoms: C_41  and  C_44 
DOCKED: REMARK   12  A    between atoms: C_44  and  C_46 
DOCKED: REMARK   13  A    between atoms: C_47  and  C_48 
DOCKED: USER                              x       y       z     vdW  Elec       q    Type
DOCKED: USER                           _______ _______ _______ _____ _____    ______ ____
DOCKED: ROOT
DOCKED: ATOM      1  O   UNL d   1     -11.386 -12.494  -3.911 -0.14 -0.07    -0.289 OA
DOCKED: ATOM      2  O   UNL d   1      -9.603 -19.205  -6.769 -0.06 -0.17    -0.289 OA
DOCKED: ATOM      3  N   UNL d   1     -12.839 -13.750  -6.776 -0.19 -0.03    -0.247 NA
DOCKED: ATOM      4  N   UNL d   1     -11.315 -16.252  -7.274 -0.18 -0.06    -0.247 NA
DOCKED: ATOM      5  N   UNL d   1     -12.468 -16.321  -9.906 +0.15 -0.03    -0.354 N 
DOCKED: ATOM      6  N   UNL d   1     -14.031 -13.715  -9.388 -0.15 -0.04    -0.354 N 
DOCKED: ATOM      7  C   UNL d   1     -12.932 -11.609  -5.585 -0.31 +0.01    +0.084 A 
DOCKED: ATOM      8  C   UNL d   1     -10.288 -17.339  -5.341 -0.10 +0.04    +0.084 A 
DOCKED: ATOM      9  C   UNL d   1     -11.056 -16.148  -5.925 -0.18 +0.02    +0.058 A 
DOCKED: ATOM     10  C   UNL d   1     -13.375 -12.473  -6.769 -0.25 +0.00    +0.058 A 
DOCKED: ATOM     11  C   UNL d   1     -12.064 -12.630  -4.913 -0.12 +0.04    +0.193 A 
DOCKED: ATOM     12  C   UNL d   1     -12.110 -13.893  -5.717 -0.14 +0.02    +0.109 A 
DOCKED: ATOM     13  C   UNL d   1     -10.127 -18.119  -6.615 -0.10 +0.10    +0.193 A 
DOCKED: ATOM     14  C   UNL d   1     -12.060 -10.432  -6.028 -0.47 +0.00    +0.026 C 
DOCKED: ATOM     15  C   UNL d   1     -11.399 -15.077  -5.194 -0.08 +0.02    +0.055 C 
DOCKED: ATOM     16  C   UNL d   1     -11.153 -18.151  -4.372 -0.04 +0.01    +0.026 C 
DOCKED: ATOM     17  C   UNL d   1     -10.786 -17.349  -7.712 -0.20 +0.04    +0.109 A 
DOCKED: ATOM     18  C   UNL d   1     -14.282 -12.031  -7.662 -0.25 +0.00    +0.050 C 
DOCKED: ATOM     19  C   UNL d   1     -14.813 -12.787  -8.737 -0.20 +0.00    +0.045 A 
DOCKED: ATOM     20  C   UNL d   1     -11.532 -17.314 -10.033 -0.16 +0.01    +0.045 A 
DOCKED: ATOM     21  C   UNL d   1     -10.749 -17.853  -9.093 -0.22 +0.02    +0.057 C 
DOCKED: ATOM     22  C   UNL d   1     -12.474 -16.922 -12.077 -0.26 -0.01    -0.019 A 
DOCKED: ATOM     23  C   UNL d   1     -13.090 -16.015 -11.087 -0.22 +0.01    +0.045 A 
DOCKED: ATOM     24  C   UNL d   1     -11.554 -17.689 -11.447 -0.23 -0.01    -0.022 A 
DOCKED: ATOM     25  C   UNL d   1     -14.713 -14.262 -10.450 -0.21 +0.02    +0.049 A 
DOCKED: ATOM     26  C   UNL d   1     -16.047 -12.759  -9.369 -0.09 -0.00    -0.018 A 
DOCKED: ATOM     27  C   UNL d   1     -15.984 -13.706 -10.437 -0.12 +0.00    +0.003 A 
DOCKED: ATOM     28  C   UNL d   1     -14.059 -15.130 -11.367 -0.27 +0.03    +0.052 C 
DOCKED: ATOM     29  C   UNL d   1     -10.682 -18.757 -12.015 -0.19 +0.02    +0.046 C 
DOCKED: ATOM     30  C   UNL d   1     -17.214 -11.906  -9.003 -0.05 +0.01    +0.046 C 
DOCKED: ATOM     31  H   UNL d   1     -12.706 -15.934  -8.999 -0.32 +0.00    +0.166 HD
DOCKED: ATOM     32  H   UNL d   1     -13.073 -13.919  -9.130 -0.43 -0.02    +0.166 HD
DOCKED: ENDROOT
DOCKED: BRANCH   7  33
DOCKED: ATOM     33  C   UNL d   1     -14.055 -11.156  -4.646 -0.26 -0.00    +0.141 C 
DOCKED: BRANCH  33  34
DOCKED: ATOM     34  C   UNL d   1     -14.893 -12.302  -4.150 -0.14 +0.02    +0.306 C 
DOCKED: ATOM     35  O   UNL d   1     -16.004 -12.609  -4.550 -0.08 -0.02    -0.251 OA
DOCKED: BRANCH  34  36
DOCKED: ATOM     36  O   UNL d   1     -14.287 -13.005  -3.176 -0.08 -0.03    -0.481 OA
DOCKED: ATOM     37  H   UNL d   1     -13.415 -12.569  -3.064 +0.13 +0.02    +0.295 HD
DOCKED: ENDBRANCH  34  36
DOCKED: ENDBRANCH  33  34
DOCKED: ENDBRANCH   7  33
DOCKED: BRANCH  27  38
DOCKED: ATOM     38  C   UNL d   1     -17.046 -13.984 -11.357 -0.09 +0.01    +0.017 C 
DOCKED: ATOM     39  C   UNL d   1     -16.885 -14.416 -12.617 -0.10 +0.06    +0.092 C 
DOCKED: BRANCH  39  40
DOCKED: ATOM     40  C   UNL d   1     -18.059 -14.681 -13.453 -0.04 +0.17    +0.330 C 
DOCKED: ATOM     41  O   UNL d   1     -18.807 -13.868 -13.963 -0.03 -0.11    -0.246 OA
DOCKED: BRANCH  40  42
DOCKED: ATOM     42  O   UNL d   1     -18.225 -16.003 -13.612 -0.01 -0.20    -0.477 OA
DOCKED: ATOM     43  H   UNL d   1     -17.329 -16.326 -13.841 +0.02 +0.16    +0.295 HD
DOCKED: ENDBRANCH  40  42
DOCKED: ENDBRANCH  39  40
DOCKED: ENDBRANCH  27  38
DOCKED: BRANCH   8  44
DOCKED: ATOM     44  C   UNL d   1      -8.926 -17.008  -4.724 -0.14 +0.10    +0.141 C 
DOCKED: BRANCH  44  45
DOCKED: ATOM     45  C   UNL d   1      -7.831 -16.857  -5.746 -0.20 +0.29    +0.306 C 
DOCKED: ATOM     46  O   UNL d   1      -7.605 -15.873  -6.430 -0.35 -0.25    -0.251 OA
DOCKED: BRANCH  45  47
DOCKED: ATOM     47  O   UNL d   1      -7.090 -17.972  -5.875 -0.09 -0.51    -0.481 OA
DOCKED: ATOM     48  H   UNL d   1      -7.744 -18.701  -5.917 +0.07 +0.26    +0.295 HD
DOCKED: ENDBRANCH  45  47
DOCKED: ENDBRANCH  44  45
DOCKED: ENDBRANCH   8  44
DOCKED: BRANCH  22  49
DOCKED: ATOM     49  C   UNL d   1     -12.829 -16.944 -13.535 -0.15 +0.04    +0.048 C 
DOCKED: BRANCH  49  50
DOCKED: ATOM     50  C   UNL d   1     -13.993 -17.892 -13.823 -0.09 +0.08    +0.125 C 
DOCKED: BRANCH  50  51
DOCKED: ATOM     51  C   UNL d   1     -15.308 -17.172 -13.725 -0.06 +0.21    +0.305 C 
DOCKED: ATOM     52  O   UNL d   1     -15.793 -16.397 -14.531 -0.03 -0.26    -0.251 OA
DOCKED: BRANCH  51  53
DOCKED: ATOM     53  O   UNL d   1     -15.958 -17.463 -12.580 -0.00 -0.21    -0.481 OA
DOCKED: ATOM     54  H   UNL d   1     -16.890 -17.580 -12.859 +0.02 +0.11    +0.295 HD
DOCKED: ENDBRANCH  51  53
DOCKED: ENDBRANCH  50  51
DOCKED: ENDBRANCH  49  50
DOCKED: ENDBRANCH  22  49
DOCKED: TORSDOF 13
DOCKED: TER
DOCKED: ENDMDL
________________________________________________________________________________


	BEGINNING GENETIC ALGORITHM DOCKING 60 of 100
Run: 60 Seed: 287316164 546813808 [ Run 60 of 100 GA/GALS ]
Beginning LAMARCKIAN GENETIC ALGORITHM (LGA), with a maximum of 25000000 energy evaluations.

Final-Value: -12.170


	FINAL GENETIC ALGORITHM DOCKED STATE
	_______________________________________________


Detailed state:  trans 12.912 -2.568 -14.780 quatxyzw -0.060472 -0.300907 0.945338 -0.110153 center 0.153 0.018 -0.028 ntor 13 -107.1505 -91.3399 176.0875 144.3790 33.7709 -179.2968 -57.9822 -98.6085 133.1420 -115.2998 41.9164 -12.1293 41.4913
State:	 12.912  -2.568 -14.780  -0.061 -0.303  0.951 -167.352   -107.15  -91.34  176.09  144.38   33.77 -179.30  -57.98  -98.61  133.14 -115.30   41.92  -12.13   41.49

DOCKED: MODEL       60
DOCKED: USER    Run = 60
DOCKED: USER    DPF = D:/Protein_go_brrr/autodock/final/AncA/heme/dock.dpf
DOCKED: USER  
DOCKED: USER    Estimated Free Energy of Binding    =   -6.33 kcal/mol  [=(1)+(2)+(3)-(4)]
DOCKED: USER    Estimated Inhibition Constant, Ki   =   22.91 uM (micromolar)  [Temperature = 298.15 K]
DOCKED: USER    
DOCKED: USER    (1) Final Intermolecular Energy     =  -10.21 kcal/mol
DOCKED: USER        vdW + Hbond + desolv Energy     =   -9.10 kcal/mol
DOCKED: USER        Electrostatic Energy            =   -1.10 kcal/mol
DOCKED: USER    (2) Final Total Internal Energy     =   -1.96 kcal/mol
DOCKED: USER    (3) Torsional Free Energy           =   +3.88 kcal/mol
DOCKED: USER    (4) Unbound System's Energy  [=(2)] =   -1.96 kcal/mol
DOCKED: USER    
DOCKED: USER    
DOCKED: USER    NEWDPF move heme_opt.pdbqt
DOCKED: USER    NEWDPF about 0.153000 0.018000 -0.028000
DOCKED: USER    NEWDPF tran0 12.912410 -2.567898 -14.779702
DOCKED: USER    NEWDPF quaternion0 -0.060472 -0.300907 0.945338 -0.110153
DOCKED: USER    NEWDPF axisangle0 -0.060842 -0.302750 0.951126 -167.351687
DOCKED: USER    NEWDPF quat0 -0.060842 -0.302750 0.951126 -167.351687
DOCKED: USER    NEWDPF dihe0 -107.15 -91.34 176.09 144.38 33.77 -179.30 -57.98 -98.61 133.14 -115.30 41.92 -12.13 41.49 
DOCKED: USER  keepresnum = 1 
DOCKED: USER  
DOCKED: REMARK  13 active torsions:
DOCKED: REMARK  status: ('A' for Active; 'I' for Inactive)
DOCKED: REMARK    1  A    between atoms: O_3  and  C_38 
DOCKED: REMARK    2  A    between atoms: O_4  and  C_40 
DOCKED: REMARK    3  A    between atoms: O_7  and  C_46 
DOCKED: REMARK    4  A    between atoms: O_9  and  C_48 
DOCKED: REMARK    5  A    between atoms: C_15  and  C_20 
DOCKED: REMARK    6  A    between atoms: C_16  and  C_23 
DOCKED: REMARK    7  A    between atoms: C_20  and  C_38 
DOCKED: REMARK    8  A    between atoms: C_23  and  C_40 
DOCKED: REMARK    9  A    between atoms: C_32  and  C_41 
DOCKED: REMARK   10  A    between atoms: C_37  and  C_45 
DOCKED: REMARK   11  A    between atoms: C_41  and  C_44 
DOCKED: REMARK   12  A    between atoms: C_44  and  C_46 
DOCKED: REMARK   13  A    between atoms: C_47  and  C_48 
DOCKED: USER                              x       y       z     vdW  Elec       q    Type
DOCKED: USER                           _______ _______ _______ _____ _____    ______ ____
DOCKED: ROOT
DOCKED: ATOM      1  O   UNL d   1      17.939  -5.643 -14.968 -0.02 -0.01    -0.289 OA
DOCKED: ATOM      2  O   UNL d   1      16.604   1.510 -13.112 -0.19 +0.01    -0.289 OA
DOCKED: ATOM      3  N   UNL d   1      14.800  -4.223 -15.139 -0.02 +0.05    -0.247 NA
DOCKED: ATOM      4  N   UNL d   1      15.203  -1.531 -13.948 -0.14 +0.07    -0.247 NA
DOCKED: ATOM      5  N   UNL d   1      12.343  -1.278 -13.784 -0.10 +0.02    -0.354 N 
DOCKED: ATOM      6  N   UNL d   1      11.935  -4.080 -15.002 -0.12 +0.04    -0.354 N 
DOCKED: ATOM      7  C   UNL d   1      15.693  -6.486 -15.438 -0.10 +0.00    +0.084 A 
DOCKED: ATOM      8  C   UNL d   1      17.447  -0.574 -14.081 -0.10 -0.02    +0.084 A 
DOCKED: ATOM      9  C   UNL d   1      16.510  -1.763 -14.314 -0.15 -0.01    +0.058 A 
DOCKED: ATOM     10  C   UNL d   1      14.487  -5.542 -15.423 -0.15 -0.00    +0.058 A 
DOCKED: ATOM     11  C   UNL d   1      16.746  -5.464 -15.131 -0.06 -0.00    +0.193 A 
DOCKED: ATOM     12  C   UNL d   1      16.082  -4.128 -14.998 -0.09 -0.01    +0.109 A 
DOCKED: ATOM     13  C   UNL d   1      16.438   0.364 -13.480 -0.07 -0.06    +0.193 A 
DOCKED: ATOM     14  C   UNL d   1      15.642  -7.503 -14.295 -0.18 +0.00    +0.026 C 
DOCKED: ATOM     15  C   UNL d   1      16.939  -2.944 -14.785 -0.13 -0.01    +0.055 C 
DOCKED: ATOM     16  C   UNL d   1      17.948   0.022 -15.400 -0.05 +0.00    +0.026 C 
DOCKED: ATOM     17  C   UNL d   1      15.119  -0.339 -13.449 -0.18 -0.04    +0.109 A 
DOCKED: ATOM     18  C   UNL d   1      13.254  -5.971 -15.751 -0.20 -0.00    +0.050 C 
DOCKED: ATOM     19  C   UNL d   1      12.098  -5.156 -15.845 -0.19 -0.00    +0.045 A 
DOCKED: ATOM     20  C   UNL d   1      12.719  -0.182 -13.051 -0.33 -0.00    +0.045 A 
DOCKED: ATOM     21  C   UNL d   1      13.943   0.324 -12.869 -0.40 -0.01    +0.057 C 
DOCKED: ATOM     22  C   UNL d   1      10.453  -0.430 -12.899 -0.33 -0.00    -0.019 A 
DOCKED: ATOM     23  C   UNL d   1      10.994  -1.508 -13.752 -0.26 +0.00    +0.045 A 
DOCKED: ATOM     24  C   UNL d   1      11.479   0.352 -12.489 -0.40 -0.00    -0.022 A 
DOCKED: ATOM     25  C   UNL d   1      10.710  -3.488 -15.205 -0.22 -0.00    +0.049 A 
DOCKED: ATOM     26  C   UNL d   1      10.966  -5.243 -16.641 -0.14 +0.00    -0.018 A 
DOCKED: ATOM     27  C   UNL d   1      10.102  -4.175 -16.246 -0.15 -0.00    +0.003 A 
DOCKED: ATOM     28  C   UNL d   1      10.249  -2.454 -14.345 -0.29 -0.00    +0.052 C 
DOCKED: ATOM     29  C   UNL d   1      11.439   1.567 -11.625 -0.51 +0.01    +0.046 C 
DOCKED: ATOM     30  C   UNL d   1      10.702  -6.253 -17.706 -0.09 -0.00    +0.046 C 
DOCKED: ATOM     31  H   UNL d   1      13.015  -1.791 -14.345 +0.02 -0.02    +0.166 HD
DOCKED: ATOM     32  H   UNL d   1      12.619  -3.805 -14.307 -0.35 -0.05    +0.166 HD
DOCKED: ENDROOT
DOCKED: BRANCH   7  33
DOCKED: ATOM     33  C   UNL d   1      15.979  -7.165 -16.782 -0.02 +0.01    +0.141 C 
DOCKED: BRANCH  33  34
DOCKED: ATOM     34  C   UNL d   1      17.162  -8.092 -16.723 +0.00 +0.02    +0.306 C 
DOCKED: ATOM     35  O   UNL d   1      17.139  -9.271 -16.412 -0.00 -0.02    -0.251 OA
DOCKED: BRANCH  34  36
DOCKED: ATOM     36  O   UNL d   1      18.314  -7.485 -17.062 +0.00 -0.03    -0.481 OA
DOCKED: ATOM     37  H   UNL d   1      18.500  -6.875 -16.316 +0.01 +0.02    +0.295 HD
DOCKED: ENDBRANCH  34  36
DOCKED: ENDBRANCH  33  34
DOCKED: ENDBRANCH   7  33
DOCKED: BRANCH  27  38
DOCKED: ATOM     38  C   UNL d   1       8.811  -3.908 -16.805 +0.09 -0.01    +0.017 C 
DOCKED: ATOM     39  C   UNL d   1       8.201  -2.713 -16.808 -0.13 -0.03    +0.092 C 
DOCKED: BRANCH  39  40
DOCKED: ATOM     40  C   UNL d   1       6.883  -2.568 -17.431 -0.07 -0.14    +0.330 C 
DOCKED: ATOM     41  O   UNL d   1       6.197  -1.565 -17.495 -0.09 +0.04    -0.246 OA
DOCKED: BRANCH  40  42
DOCKED: ATOM     42  O   UNL d   1       6.495  -3.735 -17.967 -0.07 +0.37    -0.477 OA
DOCKED: ATOM     43  H   UNL d   1       6.032  -4.188 -17.233 -0.18 -0.59    +0.295 HD
DOCKED: ENDBRANCH  40  42
DOCKED: ENDBRANCH  39  40
DOCKED: ENDBRANCH  27  38
DOCKED: BRANCH   8  44
DOCKED: ATOM     44  C   UNL d   1      18.606  -0.826 -13.111 -0.10 -0.04    +0.141 C 
DOCKED: BRANCH  44  45
DOCKED: ATOM     45  C   UNL d   1      19.273   0.438 -12.640 -0.07 +0.00    +0.306 C 
DOCKED: ATOM     46  O   UNL d   1      20.332   0.893 -13.036 -0.02 -0.03    -0.251 OA
DOCKED: BRANCH  45  47
DOCKED: ATOM     47  O   UNL d   1      18.578   1.055 -11.667 -0.11 -0.19    -0.481 OA
DOCKED: ATOM     48  H   UNL d   1      17.755   0.529 -11.579 -0.36 -0.10    +0.295 HD
DOCKED: ENDBRANCH  45  47
DOCKED: ENDBRANCH  44  45
DOCKED: ENDBRANCH   8  44
DOCKED: BRANCH  22  49
DOCKED: ATOM     49  C   UNL d   1       9.001  -0.276 -12.556 -0.38 +0.01    +0.048 C 
DOCKED: BRANCH  49  50
DOCKED: ATOM     50  C   UNL d   1       8.101  -0.528 -13.765 -0.27 +0.02    +0.125 C 
DOCKED: BRANCH  50  51
DOCKED: ATOM     51  C   UNL d   1       6.998   0.491 -13.835 -0.23 +0.13    +0.305 C 
DOCKED: ATOM     52  O   UNL d   1       5.823   0.334 -13.555 -0.34 -0.07    -0.251 OA
DOCKED: BRANCH  51  53
DOCKED: ATOM     53  O   UNL d   1       7.442   1.684 -14.278 -0.67 -0.63    -0.481 OA
DOCKED: ATOM     54  H   UNL d   1       8.340   1.762 -13.893 -0.44 +0.21    +0.295 HD
DOCKED: ENDBRANCH  51  53
DOCKED: ENDBRANCH  50  51
DOCKED: ENDBRANCH  49  50
DOCKED: ENDBRANCH  22  49
DOCKED: TORSDOF 13
DOCKED: TER
DOCKED: ENDMDL
________________________________________________________________________________


	BEGINNING GENETIC ALGORITHM DOCKING 61 of 100
Run: 61 Seed: 1568033324 1017370977 [ Run 61 of 100 GA/GALS ]
Beginning LAMARCKIAN GENETIC ALGORITHM (LGA), with a maximum of 25000000 energy evaluations.

Final-Value: -10.966


	FINAL GENETIC ALGORITHM DOCKED STATE
	_______________________________________________


Detailed state:  trans 3.937 -12.545 0.166 quatxyzw 0.567585 -0.295244 0.331987 -0.693154 center 0.153 0.018 -0.028 ntor 13 -155.3248 -57.0137 89.1752 -165.2296 33.4517 163.0255 -43.3597 -65.8647 131.0775 -129.9635 143.1437 80.2854 180.0000
State:	  3.937 -12.545   0.166   0.787 -0.410  0.461 -92.239   -155.32  -57.01   89.18 -165.23   33.45  163.03  -43.36  -65.86  131.08 -129.96  143.14   80.29  180.00

DOCKED: MODEL       61
DOCKED: USER    Run = 61
DOCKED: USER    DPF = D:/Protein_go_brrr/autodock/final/AncA/heme/dock.dpf
DOCKED: USER  
DOCKED: USER    Estimated Free Energy of Binding    =   -4.69 kcal/mol  [=(1)+(2)+(3)-(4)]
DOCKED: USER    Estimated Inhibition Constant, Ki   =  365.03 uM (micromolar)  [Temperature = 298.15 K]
DOCKED: USER    
DOCKED: USER    (1) Final Intermolecular Energy     =   -8.57 kcal/mol
DOCKED: USER        vdW + Hbond + desolv Energy     =   -7.95 kcal/mol
DOCKED: USER        Electrostatic Energy            =   -0.61 kcal/mol
DOCKED: USER    (2) Final Total Internal Energy     =   -2.40 kcal/mol
DOCKED: USER    (3) Torsional Free Energy           =   +3.88 kcal/mol
DOCKED: USER    (4) Unbound System's Energy  [=(2)] =   -2.40 kcal/mol
DOCKED: USER    
DOCKED: USER    
DOCKED: USER    NEWDPF move heme_opt.pdbqt
DOCKED: USER    NEWDPF about 0.153000 0.018000 -0.028000
DOCKED: USER    NEWDPF tran0 3.936952 -12.545409 0.165697
DOCKED: USER    NEWDPF quaternion0 0.567585 -0.295244 0.331987 -0.693154
DOCKED: USER    NEWDPF axisangle0 0.787449 -0.409612 0.460589 -92.239393
DOCKED: USER    NEWDPF quat0 0.787449 -0.409612 0.460589 -92.239393
DOCKED: USER    NEWDPF dihe0 -155.32 -57.01 89.18 -165.23 33.45 163.03 -43.36 -65.86 131.08 -129.96 143.14 80.29 180.00 
DOCKED: USER  keepresnum = 1 
DOCKED: USER  
DOCKED: REMARK  13 active torsions:
DOCKED: REMARK  status: ('A' for Active; 'I' for Inactive)
DOCKED: REMARK    1  A    between atoms: O_3  and  C_38 
DOCKED: REMARK    2  A    between atoms: O_4  and  C_40 
DOCKED: REMARK    3  A    between atoms: O_7  and  C_46 
DOCKED: REMARK    4  A    between atoms: O_9  and  C_48 
DOCKED: REMARK    5  A    between atoms: C_15  and  C_20 
DOCKED: REMARK    6  A    between atoms: C_16  and  C_23 
DOCKED: REMARK    7  A    between atoms: C_20  and  C_38 
DOCKED: REMARK    8  A    between atoms: C_23  and  C_40 
DOCKED: REMARK    9  A    between atoms: C_32  and  C_41 
DOCKED: REMARK   10  A    between atoms: C_37  and  C_45 
DOCKED: REMARK   11  A    between atoms: C_41  and  C_44 
DOCKED: REMARK   12  A    between atoms: C_44  and  C_46 
DOCKED: REMARK   13  A    between atoms: C_47  and  C_48 
DOCKED: USER                              x       y       z     vdW  Elec       q    Type
DOCKED: USER                           _______ _______ _______ _____ _____    ______ ____
DOCKED: ROOT
DOCKED: ATOM      1  O   UNL d   1      -0.823 -13.656  -3.130 -0.13 -0.27    -0.289 OA
DOCKED: ATOM      2  O   UNL d   1       6.235 -11.981  -5.073 -0.19 +0.03    -0.289 OA
DOCKED: ATOM      3  N   UNL d   1       1.632 -12.942  -0.815 -0.07 -0.09    -0.247 NA
DOCKED: ATOM      4  N   UNL d   1       4.088 -12.717  -2.472 -0.06 -0.05    -0.247 NA
DOCKED: ATOM      5  N   UNL d   1       5.625 -12.837  -0.046 -0.03 -0.04    -0.354 N 
DOCKED: ATOM      6  N   UNL d   1       3.073 -13.091   1.664 -0.02 -0.11    -0.354 N 
DOCKED: ATOM      7  C   UNL d   1      -0.692 -13.710  -0.690 -0.15 +0.07    +0.084 A 
DOCKED: ATOM      8  C   UNL d   1       3.802 -12.076  -4.813 -0.27 +0.02    +0.084 A 
DOCKED: ATOM      9  C   UNL d   1       3.174 -12.459  -3.469 -0.18 +0.02    +0.058 A 
DOCKED: ATOM     10  C   UNL d   1       0.602 -13.321   0.030 -0.16 +0.03    +0.058 A 
DOCKED: ATOM     11  C   UNL d   1      -0.218 -13.467  -2.091 -0.10 +0.14    +0.193 A 
DOCKED: ATOM     12  C   UNL d   1       1.197 -12.980  -2.033 -0.12 +0.05    +0.109 A 
DOCKED: ATOM     13  C   UNL d   1       5.243 -12.200  -4.404 -0.16 +0.02    +0.193 A 
DOCKED: ATOM     14  C   UNL d   1      -1.015 -15.198  -0.528 -0.12 +0.02    +0.026 C 
DOCKED: ATOM     15  C   UNL d   1       1.849 -12.583  -3.297 -0.23 +0.02    +0.055 C 
DOCKED: ATOM     16  C   UNL d   1       3.517 -10.616  -5.177 -0.47 +0.01    +0.026 C 
DOCKED: ATOM     17  C   UNL d   1       5.279 -12.601  -2.965 -0.13 +0.01    +0.109 A 
DOCKED: ATOM     18  C   UNL d   1       0.673 -13.274   1.373 -0.20 +0.03    +0.050 C 
DOCKED: ATOM     19  C   UNL d   1       1.798 -12.846   2.123 -0.21 +0.02    +0.045 A 
DOCKED: ATOM     20  C   UNL d   1       6.632 -12.958  -0.968 -0.14 -0.00    +0.045 A 
DOCKED: ATOM     21  C   UNL d   1       6.567 -12.841  -2.298 -0.15 -0.00    +0.057 C 
DOCKED: ATOM     22  C   UNL d   1       7.501 -13.284   1.119 -0.08 -0.00    -0.019 A 
DOCKED: ATOM     23  C   UNL d   1       6.053 -13.019   1.242 -0.06 +0.01    +0.045 A 
DOCKED: ATOM     24  C   UNL d   1       7.837 -13.245  -0.192 -0.13 +0.00    -0.022 A 
DOCKED: ATOM     25  C   UNL d   1       4.006 -12.675   2.585 -0.10 +0.01    +0.049 A 
DOCKED: ATOM     26  C   UNL d   1       1.906 -12.222   3.357 -0.31 -0.01    -0.018 A 
DOCKED: ATOM     27  C   UNL d   1       3.303 -12.099   3.634 -0.20 +0.00    +0.003 A 
DOCKED: ATOM     28  C   UNL d   1       5.386 -12.963   2.406 -0.07 +0.01    +0.052 C 
DOCKED: ATOM     29  C   UNL d   1       9.177 -13.438  -0.817 -0.05 -0.02    +0.046 C 
DOCKED: ATOM     30  C   UNL d   1       0.783 -11.766   4.225 -0.26 +0.02    +0.046 C 
DOCKED: ATOM     31  H   UNL d   1       4.689 -12.561  -0.322 +0.05 +0.03    +0.166 HD
DOCKED: ATOM     32  H   UNL d   1       3.273 -13.553   0.785 +0.04 +0.05    +0.166 HD
DOCKED: ENDROOT
DOCKED: BRANCH   7  33
DOCKED: ATOM     33  C   UNL d   1      -1.909 -12.834  -0.374 +0.02 +0.14    +0.141 C 
DOCKED: BRANCH  33  34
DOCKED: ATOM     34  C   UNL d   1      -3.137 -13.251  -1.135 -0.11 +0.50    +0.306 C 
DOCKED: ATOM     35  O   UNL d   1      -3.952 -14.088  -0.785 -0.19 -0.52    -0.251 OA
DOCKED: BRANCH  34  36
DOCKED: ATOM     36  O   UNL d   1      -3.276 -12.590  -2.298 -0.61 -0.90    -0.481 OA
DOCKED: ATOM     37  H   UNL d   1      -2.372 -12.276  -2.513 +0.14 +0.36    +0.295 HD
DOCKED: ENDBRANCH  34  36
DOCKED: ENDBRANCH  33  34
DOCKED: ENDBRANCH   7  33
DOCKED: BRANCH  27  38
DOCKED: ATOM     38  C   UNL d   1       3.861 -11.522   4.820 -0.23 +0.01    +0.017 C 
DOCKED: ATOM     39  C   UNL d   1       3.713 -10.245   5.203 -0.30 +0.03    +0.092 C 
DOCKED: BRANCH  39  40
DOCKED: ATOM     40  C   UNL d   1       4.323  -9.782   6.453 -0.14 +0.13    +0.330 C 
DOCKED: ATOM     41  O   UNL d   1       4.560  -8.636   6.785 -0.20 -0.07    -0.246 OA
DOCKED: BRANCH  40  42
DOCKED: ATOM     42  O   UNL d   1       4.601 -10.828   7.246 -0.04 -0.27    -0.477 OA
DOCKED: ATOM     43  H   UNL d   1       5.563 -10.749   7.411 +0.06 +0.13    +0.295 HD
DOCKED: ENDBRANCH  40  42
DOCKED: ENDBRANCH  39  40
DOCKED: ENDBRANCH  27  38
DOCKED: BRANCH   8  44
DOCKED: ATOM     44  C   UNL d   1       3.482 -13.012  -5.983 -0.36 +0.04    +0.141 C 
DOCKED: BRANCH  44  45
DOCKED: ATOM     45  C   UNL d   1       4.132 -12.593  -7.275 -0.36 +0.07    +0.306 C 
DOCKED: ATOM     46  O   UNL d   1       3.680 -11.815  -8.097 -0.67 -0.09    -0.251 OA
DOCKED: BRANCH  45  47
DOCKED: ATOM     47  O   UNL d   1       5.315 -13.201  -7.477 -0.15 -0.06    -0.481 OA
DOCKED: ATOM     48  H   UNL d   1       5.977 -12.592  -7.086 -0.33 -0.10    +0.295 HD
DOCKED: ENDBRANCH  45  47
DOCKED: ENDBRANCH  44  45
DOCKED: ENDBRANCH   8  44
DOCKED: BRANCH  22  49
DOCKED: ATOM     49  C   UNL d   1       8.408 -13.562   2.281 -0.05 +0.01    +0.048 C 
DOCKED: BRANCH  49  50
DOCKED: ATOM     50  C   UNL d   1       8.614 -15.062   2.496 +0.00 +0.03    +0.125 C 
DOCKED: BRANCH  50  51
DOCKED: ATOM     51  C   UNL d   1       7.355 -15.824   2.193 +0.01 +0.06    +0.305 C 
DOCKED: ATOM     52  O   UNL d   1       6.330 -15.858   2.852 +0.00 -0.06    -0.251 OA
DOCKED: BRANCH  51  53
DOCKED: ATOM     53  O   UNL d   1       7.458 -16.534   1.052 +0.01 -0.09    -0.481 OA
DOCKED: ATOM     54  H   UNL d   1       8.418 -16.535   0.858 +0.01 +0.05    +0.295 HD
DOCKED: ENDBRANCH  51  53
DOCKED: ENDBRANCH  50  51
DOCKED: ENDBRANCH  49  50
DOCKED: ENDBRANCH  22  49
DOCKED: TORSDOF 13
DOCKED: TER
DOCKED: ENDMDL
________________________________________________________________________________


	BEGINNING GENETIC ALGORITHM DOCKING 62 of 100
Run: 62 Seed: 860826974 1493870131 [ Run 62 of 100 GA/GALS ]
Beginning LAMARCKIAN GENETIC ALGORITHM (LGA), with a maximum of 25000000 energy evaluations.

Final-Value: -10.256


	FINAL GENETIC ALGORITHM DOCKED STATE
	_______________________________________________


Detailed state:  trans 8.224 -13.704 -5.308 quatxyzw 0.608051 0.178087 -0.307845 -0.709782 center 0.153 0.018 -0.028 ntor 13 103.5244 -24.4393 -128.8197 -173.8539 -142.0616 103.3962 124.7954 87.0003 71.7300 -18.4085 137.7166 13.3943 -180.0000
State:	  8.224 -13.704  -5.308   0.863  0.253 -0.437 -89.566    103.52  -24.44 -128.82 -173.85 -142.06  103.40  124.80   87.00   71.73  -18.41  137.72   13.39 -180.00

DOCKED: MODEL       62
DOCKED: USER    Run = 62
DOCKED: USER    DPF = D:/Protein_go_brrr/autodock/final/AncA/heme/dock.dpf
DOCKED: USER  
DOCKED: USER    Estimated Free Energy of Binding    =   -3.76 kcal/mol  [=(1)+(2)+(3)-(4)]
DOCKED: USER    Estimated Inhibition Constant, Ki   =    1.74 mM (millimolar)  [Temperature = 298.15 K]
DOCKED: USER    
DOCKED: USER    (1) Final Intermolecular Energy     =   -7.64 kcal/mol
DOCKED: USER        vdW + Hbond + desolv Energy     =   -7.34 kcal/mol
DOCKED: USER        Electrostatic Energy            =   -0.31 kcal/mol
DOCKED: USER    (2) Final Total Internal Energy     =   -2.61 kcal/mol
DOCKED: USER    (3) Torsional Free Energy           =   +3.88 kcal/mol
DOCKED: USER    (4) Unbound System's Energy  [=(2)] =   -2.61 kcal/mol
DOCKED: USER    
DOCKED: USER    
DOCKED: USER    NEWDPF move heme_opt.pdbqt
DOCKED: USER    NEWDPF about 0.153000 0.018000 -0.028000
DOCKED: USER    NEWDPF tran0 8.223538 -13.703812 -5.307946
DOCKED: USER    NEWDPF quaternion0 0.608051 0.178087 -0.307845 -0.709782
DOCKED: USER    NEWDPF axisangle0 0.863192 0.252813 -0.437018 -89.565618
DOCKED: USER    NEWDPF quat0 0.863192 0.252813 -0.437018 -89.565618
DOCKED: USER    NEWDPF dihe0 103.52 -24.44 -128.82 -173.85 -142.06 103.40 124.80 87.00 71.73 -18.41 137.72 13.39 -180.00 
DOCKED: USER  keepresnum = 1 
DOCKED: USER  
DOCKED: REMARK  13 active torsions:
DOCKED: REMARK  status: ('A' for Active; 'I' for Inactive)
DOCKED: REMARK    1  A    between atoms: O_3  and  C_38 
DOCKED: REMARK    2  A    between atoms: O_4  and  C_40 
DOCKED: REMARK    3  A    between atoms: O_7  and  C_46 
DOCKED: REMARK    4  A    between atoms: O_9  and  C_48 
DOCKED: REMARK    5  A    between atoms: C_15  and  C_20 
DOCKED: REMARK    6  A    between atoms: C_16  and  C_23 
DOCKED: REMARK    7  A    between atoms: C_20  and  C_38 
DOCKED: REMARK    8  A    between atoms: C_23  and  C_40 
DOCKED: REMARK    9  A    between atoms: C_32  and  C_41 
DOCKED: REMARK   10  A    between atoms: C_37  and  C_45 
DOCKED: REMARK   11  A    between atoms: C_41  and  C_44 
DOCKED: REMARK   12  A    between atoms: C_44  and  C_46 
DOCKED: REMARK   13  A    between atoms: C_47  and  C_48 
DOCKED: USER                              x       y       z     vdW  Elec       q    Type
DOCKED: USER                           _______ _______ _______ _____ _____    ______ ____
DOCKED: ROOT
DOCKED: ATOM      1  O   UNL d   1       5.057 -12.977  -0.388 -0.05 -0.04    -0.289 OA
DOCKED: ATOM      2  O   UNL d   1       3.263 -11.926  -7.604 -0.52 -0.11    -0.289 OA
DOCKED: ATOM      3  N   UNL d   1       7.318 -13.409  -2.957 -0.10 +0.04    -0.247 NA
DOCKED: ATOM      4  N   UNL d   1       5.652 -13.076  -5.396 -0.11 -0.02    -0.247 NA
DOCKED: ATOM      5  N   UNL d   1       7.827 -14.180  -6.919 -0.06 -0.05    -0.354 N 
DOCKED: ATOM      6  N   UNL d   1       9.540 -14.540  -4.382 -0.03 +0.08    -0.354 N 
DOCKED: ATOM      7  C   UNL d   1       7.354 -13.800  -0.538 -0.08 -0.00    +0.084 A 
DOCKED: ATOM      8  C   UNL d   1       3.637 -11.710  -5.195 -0.35 +0.02    +0.084 A 
DOCKED: ATOM      9  C   UNL d   1       4.840 -12.384  -4.526 -0.22 +0.01    +0.058 A 
DOCKED: ATOM     10  C   UNL d   1       8.073 -13.862  -1.889 -0.10 -0.02    +0.058 A 
DOCKED: ATOM     11  C   UNL d   1       6.064 -13.216  -1.030 -0.07 +0.01    +0.193 A 
DOCKED: ATOM     12  C   UNL d   1       6.176 -13.001  -2.507 -0.11 +0.00    +0.109 A 
DOCKED: ATOM     13  C   UNL d   1       3.897 -12.180  -6.598 -0.37 +0.04    +0.193 A 
DOCKED: ATOM     14  C   UNL d   1       7.080 -15.195   0.031 -0.02 +0.00    +0.026 C 
DOCKED: ATOM     15  C   UNL d   1       5.051 -12.343  -3.202 -0.21 +0.01    +0.055 C 
DOCKED: ATOM     16  C   UNL d   1       3.749 -10.183  -5.158 -0.42 +0.00    +0.026 C 
DOCKED: ATOM     17  C   UNL d   1       5.142 -13.005  -6.583 -0.17 +0.01    +0.109 A 
DOCKED: ATOM     18  C   UNL d   1       9.361 -14.242  -1.983 -0.11 -0.02    +0.050 C 
DOCKED: ATOM     19  C   UNL d   1      10.132 -14.250  -3.173 -0.06 -0.02    +0.045 A 
DOCKED: ATOM     20  C   UNL d   1       6.849 -14.168  -7.879 -0.28 +0.01    +0.045 A 
DOCKED: ATOM     21  C   UNL d   1       5.623 -13.639  -7.820 -0.35 +0.01    +0.057 C 
DOCKED: ATOM     22  C   UNL d   1       8.681 -15.254  -8.705 -0.13 -0.01    -0.019 A 
DOCKED: ATOM     23  C   UNL d   1       8.970 -14.814  -7.325 -0.09 +0.01    +0.045 A 
DOCKED: ATOM     24  C   UNL d   1       7.424 -14.867  -9.028 -0.26 -0.01    -0.022 A 
DOCKED: ATOM     25  C   UNL d   1      10.482 -14.581  -5.383 -0.08 -0.01    +0.049 A 
DOCKED: ATOM     26  C   UNL d   1      11.486 -14.061  -3.401 -0.05 +0.01    -0.018 A 
DOCKED: ATOM     27  C   UNL d   1      11.698 -14.252  -4.801 -0.11 -0.00    +0.003 A 
DOCKED: ATOM     28  C   UNL d   1      10.136 -15.015  -6.692 -0.06 +0.01    +0.052 C 
DOCKED: ATOM     29  C   UNL d   1       6.685 -15.068 -10.307 -0.30 +0.02    +0.046 C 
DOCKED: ATOM     30  C   UNL d   1      12.521 -13.722  -2.383 -0.13 -0.02    +0.046 C 
DOCKED: ATOM     31  H   UNL d   1       7.707 -13.688  -6.040 +0.06 +0.00    +0.166 HD
DOCKED: ATOM     32  H   UNL d   1       8.552 -14.734  -4.490 +0.04 -0.01    +0.166 HD
DOCKED: ENDROOT
DOCKED: BRANCH   7  33
DOCKED: ATOM     33  C   UNL d   1       7.996 -12.883   0.508 -0.13 -0.00    +0.141 C 
DOCKED: BRANCH  33  34
DOCKED: ATOM     34  C   UNL d   1       7.078 -11.775   0.948 -0.15 +0.02    +0.306 C 
DOCKED: ATOM     35  O   UNL d   1       6.961 -10.683   0.418 -0.30 +0.03    -0.251 OA
DOCKED: BRANCH  34  36
DOCKED: ATOM     36  O   UNL d   1       6.354 -12.103   2.033 -0.01 -0.10    -0.481 OA
DOCKED: ATOM     37  H   UNL d   1       5.628 -12.663   1.684 +0.07 +0.06    +0.295 HD
DOCKED: ENDBRANCH  34  36
DOCKED: ENDBRANCH  33  34
DOCKED: ENDBRANCH   7  33
DOCKED: BRANCH  27  38
DOCKED: ATOM     38  C   UNL d   1      12.965 -14.164  -5.463 -0.11 -0.00    +0.017 C 
DOCKED: ATOM     39  C   UNL d   1      13.214 -13.442  -6.566 -0.11 +0.00    +0.092 C 
DOCKED: BRANCH  39  40
DOCKED: ATOM     40  C   UNL d   1      14.563 -13.423  -7.138 -0.04 +0.04    +0.330 C 
DOCKED: ATOM     41  O   UNL d   1      14.971 -14.042  -8.102 -0.02 -0.03    -0.246 OA
DOCKED: BRANCH  40  42
DOCKED: ATOM     42  O   UNL d   1      15.347 -12.586  -6.441 -0.58 -0.09    -0.477 OA
DOCKED: ATOM     43  H   UNL d   1      16.252 -12.922  -6.605 +0.03 +0.04    +0.295 HD
DOCKED: ENDBRANCH  40  42
DOCKED: ENDBRANCH  39  40
DOCKED: ENDBRANCH  27  38
DOCKED: BRANCH   8  44
DOCKED: ATOM     44  C   UNL d   1       2.262 -12.177  -4.705 -0.24 +0.05    +0.141 C 
DOCKED: BRANCH  44  45
DOCKED: ATOM     45  C   UNL d   1       1.946 -13.598  -5.088 -0.19 +0.13    +0.306 C 
DOCKED: ATOM     46  O   UNL d   1       2.333 -14.606  -4.523 -0.08 -0.11    -0.251 OA
DOCKED: BRANCH  45  47
DOCKED: ATOM     47  O   UNL d   1       1.176 -13.676  -6.189 -0.16 -0.22    -0.481 OA
DOCKED: ATOM     48  H   UNL d   1       1.627 -13.106  -6.848 +0.18 +0.11    +0.295 HD
DOCKED: ENDBRANCH  45  47
DOCKED: ENDBRANCH  44  45
DOCKED: ENDBRANCH   8  44
DOCKED: BRANCH  22  49
DOCKED: ATOM     49  C   UNL d   1       9.645 -16.017  -9.566 -0.07 +0.02    +0.048 C 
DOCKED: BRANCH  49  50
DOCKED: ATOM     50  C   UNL d   1       9.384 -17.522  -9.516 -0.07 +0.08    +0.125 C 
DOCKED: BRANCH  50  51
DOCKED: ATOM     51  C   UNL d   1       9.075 -17.966  -8.114 -0.05 +0.27    +0.305 C 
DOCKED: ATOM     52  O   UNL d   1       8.011 -17.885  -7.527 -0.42 -0.42    -0.251 OA
DOCKED: BRANCH  51  53
DOCKED: ATOM     53  O   UNL d   1      10.154 -18.494  -7.503 -0.00 -0.25    -0.481 OA
DOCKED: ATOM     54  H   UNL d   1      10.884 -18.349  -8.141 +0.01 +0.11    +0.295 HD
DOCKED: ENDBRANCH  51  53
DOCKED: ENDBRANCH  50  51
DOCKED: ENDBRANCH  49  50
DOCKED: ENDBRANCH  22  49
DOCKED: TORSDOF 13
DOCKED: TER
DOCKED: ENDMDL
________________________________________________________________________________


	BEGINNING GENETIC ALGORITHM DOCKING 63 of 100
Run: 63 Seed: 85830065 1944384509 [ Run 63 of 100 GA/GALS ]
Beginning LAMARCKIAN GENETIC ALGORITHM (LGA), with a maximum of 25000000 energy evaluations.

Final-Value: -11.185


	FINAL GENETIC ALGORITHM DOCKED STATE
	_______________________________________________


Detailed state:  trans 9.292 -13.228 -2.879 quatxyzw 0.468165 -0.473186 0.380148 -0.642187 center 0.153 0.018 -0.028 ntor 13 -169.3029 128.1624 -178.4114 18.9051 40.0992 -32.7307 -68.1518 -166.7669 131.0147 -161.5377 74.5910 4.9499 104.9487
State:	  9.292 -13.228  -2.879   0.611 -0.617  0.496 -100.090   -169.30  128.16 -178.41   18.91   40.10  -32.73  -68.15 -166.77  131.01 -161.54   74.59    4.95  104.95

DOCKED: MODEL       63
DOCKED: USER    Run = 63
DOCKED: USER    DPF = D:/Protein_go_brrr/autodock/final/AncA/heme/dock.dpf
DOCKED: USER  
DOCKED: USER    Estimated Free Energy of Binding    =   -3.73 kcal/mol  [=(1)+(2)+(3)-(4)]
DOCKED: USER    Estimated Inhibition Constant, Ki   =    1.85 mM (millimolar)  [Temperature = 298.15 K]
DOCKED: USER    
DOCKED: USER    (1) Final Intermolecular Energy     =   -7.61 kcal/mol
DOCKED: USER        vdW + Hbond + desolv Energy     =   -7.40 kcal/mol
DOCKED: USER        Electrostatic Energy            =   -0.21 kcal/mol
DOCKED: USER    (2) Final Total Internal Energy     =   -3.58 kcal/mol
DOCKED: USER    (3) Torsional Free Energy           =   +3.88 kcal/mol
DOCKED: USER    (4) Unbound System's Energy  [=(2)] =   -3.58 kcal/mol
DOCKED: USER    
DOCKED: USER    
DOCKED: USER    NEWDPF move heme_opt.pdbqt
DOCKED: USER    NEWDPF about 0.153000 0.018000 -0.028000
DOCKED: USER    NEWDPF tran0 9.292439 -13.227943 -2.878784
DOCKED: USER    NEWDPF quaternion0 0.468165 -0.473186 0.380148 -0.642187
DOCKED: USER    NEWDPF axisangle0 0.610744 -0.617294 0.495922 -100.089774
DOCKED: USER    NEWDPF quat0 0.610744 -0.617294 0.495922 -100.089774
DOCKED: USER    NEWDPF dihe0 -169.30 128.16 -178.41 18.91 40.10 -32.73 -68.15 -166.77 131.01 -161.54 74.59 4.95 104.95 
DOCKED: USER  keepresnum = 1 
DOCKED: USER  
DOCKED: REMARK  13 active torsions:
DOCKED: REMARK  status: ('A' for Active; 'I' for Inactive)
DOCKED: REMARK    1  A    between atoms: O_3  and  C_38 
DOCKED: REMARK    2  A    between atoms: O_4  and  C_40 
DOCKED: REMARK    3  A    between atoms: O_7  and  C_46 
DOCKED: REMARK    4  A    between atoms: O_9  and  C_48 
DOCKED: REMARK    5  A    between atoms: C_15  and  C_20 
DOCKED: REMARK    6  A    between atoms: C_16  and  C_23 
DOCKED: REMARK    7  A    between atoms: C_20  and  C_38 
DOCKED: REMARK    8  A    between atoms: C_23  and  C_40 
DOCKED: REMARK    9  A    between atoms: C_32  and  C_41 
DOCKED: REMARK   10  A    between atoms: C_37  and  C_45 
DOCKED: REMARK   11  A    between atoms: C_41  and  C_44 
DOCKED: REMARK   12  A    between atoms: C_44  and  C_46 
DOCKED: REMARK   13  A    between atoms: C_47  and  C_48 
DOCKED: USER                              x       y       z     vdW  Elec       q    Type
DOCKED: USER                           _______ _______ _______ _____ _____    ______ ____
DOCKED: ROOT
DOCKED: ATOM      1  O   UNL d   1       6.080 -13.644  -7.804 -0.27 -0.05    -0.289 OA
DOCKED: ATOM      2  O   UNL d   1      13.504 -13.152  -6.790 -0.22 -0.02    -0.289 OA
DOCKED: ATOM      3  N   UNL d   1       7.519 -13.277  -4.692 -0.11 +0.04    -0.247 NA
DOCKED: ATOM      4  N   UNL d   1      10.429 -13.480  -5.257 -0.11 +0.12    -0.247 NA
DOCKED: ATOM      5  N   UNL d   1      10.863 -13.788  -2.431 +0.11 +0.29    -0.354 N 
DOCKED: ATOM      6  N   UNL d   1       7.840 -13.596  -1.856 -0.07 +0.10    -0.354 N 
DOCKED: ATOM      7  C   UNL d   1       5.241 -13.664  -5.508 -0.17 +0.02    +0.084 A 
DOCKED: ATOM      8  C   UNL d   1      11.179 -12.854  -7.497 -0.20 -0.00    +0.084 A 
DOCKED: ATOM      9  C   UNL d   1      10.027 -13.103  -6.519 -0.22 -0.01    +0.058 A 
DOCKED: ATOM     10  C   UNL d   1       6.197 -13.469  -4.328 -0.14 +0.00    +0.058 A 
DOCKED: ATOM     11  C   UNL d   1       6.254 -13.530  -6.605 -0.10 +0.02    +0.193 A 
DOCKED: ATOM     12  C   UNL d   1       7.592 -13.272  -5.983 -0.17 -0.01    +0.109 A 
DOCKED: ATOM     13  C   UNL d   1      12.310 -13.195  -6.567 -0.09 -0.02    +0.193 A 
DOCKED: ATOM     14  C   UNL d   1       4.655 -15.078  -5.546 -0.18 +0.01    +0.026 C 
DOCKED: ATOM     15  C   UNL d   1       8.737 -13.012  -6.879 -0.27 -0.01    +0.055 C 
DOCKED: ATOM     16  C   UNL d   1      11.288 -11.376  -7.882 -0.27 -0.00    +0.026 C 
DOCKED: ATOM     17  C   UNL d   1      11.721 -13.565  -5.245 -0.13 -0.04    +0.109 A 
DOCKED: ATOM     18  C   UNL d   1       5.746 -13.404  -3.061 -0.13 +0.00    +0.050 C 
DOCKED: ATOM     19  C   UNL d   1       6.542 -13.143  -1.917 -0.13 -0.00    +0.045 A 
DOCKED: ATOM     20  C   UNL d   1      12.117 -14.087  -2.896 -0.09 -0.02    +0.045 A 
DOCKED: ATOM     21  C   UNL d   1      12.594 -13.991  -4.141 -0.13 -0.01    +0.057 C 
DOCKED: ATOM     22  C   UNL d   1      12.044 -14.500  -0.651 -0.07 -0.00    -0.019 A 
DOCKED: ATOM     23  C   UNL d   1      10.722 -14.006  -1.087 -0.11 -0.01    +0.045 A 
DOCKED: ATOM     24  C   UNL d   1      12.866 -14.544  -1.726 -0.05 +0.00    -0.022 A 
DOCKED: ATOM     25  C   UNL d   1       8.394 -13.313  -0.629 -0.08 -0.02    +0.049 A 
DOCKED: ATOM     26  C   UNL d   1       6.257 -12.516  -0.713 -0.17 +0.00    -0.018 A 
DOCKED: ATOM     27  C   UNL d   1       7.436 -12.610   0.089 -0.17 -0.00    +0.003 A 
DOCKED: ATOM     28  C   UNL d   1       9.673 -13.820  -0.271 -0.13 -0.01    +0.052 C 
DOCKED: ATOM     29  C   UNL d   1      14.296 -14.960  -1.791 -0.01 +0.00    +0.046 C 
DOCKED: ATOM     30  C   UNL d   1       4.970 -11.868  -0.330 -0.25 +0.01    +0.046 C 
DOCKED: ATOM     31  H   UNL d   1      10.162 -13.374  -3.037 -0.21 -0.25    +0.166 HD
DOCKED: ATOM     32  H   UNL d   1       8.293 -14.103  -2.607 +0.03 -0.05    +0.166 HD
DOCKED: ENDROOT
DOCKED: BRANCH   7  33
DOCKED: ATOM     33  C   UNL d   1       4.149 -12.599  -5.652 -0.32 +0.03    +0.141 C 
DOCKED: BRANCH  33  34
DOCKED: ATOM     34  C   UNL d   1       3.266 -12.833  -6.848 -0.30 +0.11    +0.306 C 
DOCKED: ATOM     35  O   UNL d   1       2.201 -13.428  -6.852 -0.23 -0.10    -0.251 OA
DOCKED: BRANCH  34  36
DOCKED: ATOM     36  O   UNL d   1       3.769 -12.302  -7.976 -0.55 -0.17    -0.481 OA
DOCKED: ATOM     37  H   UNL d   1       4.671 -12.006  -7.729 -0.31 -0.02    +0.295 HD
DOCKED: ENDBRANCH  34  36
DOCKED: ENDBRANCH  33  34
DOCKED: ENDBRANCH   7  33
DOCKED: BRANCH  27  38
DOCKED: ATOM     38  C   UNL d   1       7.571 -12.102   1.421 -0.19 +0.00    +0.017 C 
DOCKED: ATOM     39  C   UNL d   1       8.647 -11.461   1.900 -0.12 +0.06    +0.092 C 
DOCKED: BRANCH  39  40
DOCKED: ATOM     40  C   UNL d   1       8.652 -10.974   3.282 -0.05 +0.25    +0.330 C 
DOCKED: ATOM     41  O   UNL d   1       7.713 -10.533   3.918 -0.07 -0.11    -0.246 OA
DOCKED: BRANCH  40  42
DOCKED: ATOM     42  O   UNL d   1       9.882 -11.083   3.806 -0.51 -0.53    -0.477 OA
DOCKED: ATOM     43  H   UNL d   1      10.128 -12.016   3.636 +0.04 +0.26    +0.295 HD
DOCKED: ENDBRANCH  40  42
DOCKED: ENDBRANCH  39  40
DOCKED: ENDBRANCH  27  38
DOCKED: BRANCH   8  44
DOCKED: ATOM     44  C   UNL d   1      11.199 -13.753  -8.738 -0.11 +0.01    +0.141 C 
DOCKED: BRANCH  44  45
DOCKED: ATOM     45  C   UNL d   1      11.784 -13.080  -9.950 -0.10 +0.04    +0.306 C 
DOCKED: ATOM     46  O   UNL d   1      11.188 -12.763 -10.965 -0.18 -0.04    -0.251 OA
DOCKED: BRANCH  45  47
DOCKED: ATOM     47  O   UNL d   1      13.107 -12.865  -9.831 -0.01 -0.06    -0.481 OA
DOCKED: ATOM     48  H   UNL d   1      13.340 -13.232  -8.952 +0.06 +0.03    +0.295 HD
DOCKED: ENDBRANCH  45  47
DOCKED: ENDBRANCH  44  45
DOCKED: ENDBRANCH   8  44
DOCKED: BRANCH  22  49
DOCKED: ATOM     49  C   UNL d   1      12.373 -14.892   0.760 -0.02 +0.01    +0.048 C 
DOCKED: BRANCH  49  50
DOCKED: ATOM     50  C   UNL d   1      11.118 -15.229   1.564 -0.01 +0.03    +0.125 C 
DOCKED: BRANCH  50  51
DOCKED: ATOM     51  C   UNL d   1      10.775 -14.117   2.515 -0.02 +0.12    +0.305 C 
DOCKED: ATOM     52  O   UNL d   1       9.913 -14.115   3.376 -0.01 -0.09    -0.251 OA
DOCKED: BRANCH  51  53
DOCKED: ATOM     53  O   UNL d   1      11.548 -13.031   2.319 -0.12 -0.42    -0.481 OA
DOCKED: ATOM     54  H   UNL d   1      11.455 -12.520   3.150 +0.03 +0.28    +0.295 HD
DOCKED: ENDBRANCH  51  53
DOCKED: ENDBRANCH  50  51
DOCKED: ENDBRANCH  49  50
DOCKED: ENDBRANCH  22  49
DOCKED: TORSDOF 13
DOCKED: TER
DOCKED: ENDMDL
________________________________________________________________________________


	BEGINNING GENETIC ALGORITHM DOCKING 64 of 100
Run: 64 Seed: 971251762 2118245329 [ Run 64 of 100 GA/GALS ]
Beginning LAMARCKIAN GENETIC ALGORITHM (LGA), with a maximum of 25000000 energy evaluations.

Final-Value: -10.661


	FINAL GENETIC ALGORITHM DOCKED STATE
	_______________________________________________


Detailed state:  trans -12.771 -13.842 -2.378 quatxyzw 0.847894 -0.126378 0.396006 -0.329063 center 0.153 0.018 -0.028 ntor 13 -93.0256 69.6447 149.8255 -109.7615 31.5521 134.9734 -41.0143 -179.1325 125.2693 -134.3358 -15.1616 86.9944 14.3480
State:	-12.771 -13.842  -2.378   0.898 -0.134  0.419 -141.576    -93.03   69.64  149.83 -109.76   31.55  134.97  -41.01 -179.13  125.27 -134.34  -15.16   86.99   14.35

DOCKED: MODEL       64
DOCKED: USER    Run = 64
DOCKED: USER    DPF = D:/Protein_go_brrr/autodock/final/AncA/heme/dock.dpf
DOCKED: USER  
DOCKED: USER    Estimated Free Energy of Binding    =   -4.60 kcal/mol  [=(1)+(2)+(3)-(4)]
DOCKED: USER    Estimated Inhibition Constant, Ki   =  422.63 uM (micromolar)  [Temperature = 298.15 K]
DOCKED: USER    
DOCKED: USER    (1) Final Intermolecular Energy     =   -8.48 kcal/mol
DOCKED: USER        vdW + Hbond + desolv Energy     =   -8.04 kcal/mol
DOCKED: USER        Electrostatic Energy            =   -0.44 kcal/mol
DOCKED: USER    (2) Final Total Internal Energy     =   -2.18 kcal/mol
DOCKED: USER    (3) Torsional Free Energy           =   +3.88 kcal/mol
DOCKED: USER    (4) Unbound System's Energy  [=(2)] =   -2.18 kcal/mol
DOCKED: USER    
DOCKED: USER    
DOCKED: USER    NEWDPF move heme_opt.pdbqt
DOCKED: USER    NEWDPF about 0.153000 0.018000 -0.028000
DOCKED: USER    NEWDPF tran0 -12.770614 -13.842458 -2.378387
DOCKED: USER    NEWDPF quaternion0 0.847894 -0.126378 0.396006 -0.329063
DOCKED: USER    NEWDPF axisangle0 0.897901 -0.133831 0.419361 -141.576119
DOCKED: USER    NEWDPF quat0 0.897901 -0.133831 0.419361 -141.576119
DOCKED: USER    NEWDPF dihe0 -93.03 69.64 149.83 -109.76 31.55 134.97 -41.01 -179.13 125.27 -134.34 -15.16 86.99 14.35 
DOCKED: USER  keepresnum = 1 
DOCKED: USER  
DOCKED: REMARK  13 active torsions:
DOCKED: REMARK  status: ('A' for Active; 'I' for Inactive)
DOCKED: REMARK    1  A    between atoms: O_3  and  C_38 
DOCKED: REMARK    2  A    between atoms: O_4  and  C_40 
DOCKED: REMARK    3  A    between atoms: O_7  and  C_46 
DOCKED: REMARK    4  A    between atoms: O_9  and  C_48 
DOCKED: REMARK    5  A    between atoms: C_15  and  C_20 
DOCKED: REMARK    6  A    between atoms: C_16  and  C_23 
DOCKED: REMARK    7  A    between atoms: C_20  and  C_38 
DOCKED: REMARK    8  A    between atoms: C_23  and  C_40 
DOCKED: REMARK    9  A    between atoms: C_32  and  C_41 
DOCKED: REMARK   10  A    between atoms: C_37  and  C_45 
DOCKED: REMARK   11  A    between atoms: C_41  and  C_44 
DOCKED: REMARK   12  A    between atoms: C_44  and  C_46 
DOCKED: REMARK   13  A    between atoms: C_47  and  C_48 
DOCKED: USER                              x       y       z     vdW  Elec       q    Type
DOCKED: USER                           _______ _______ _______ _____ _____    ______ ____
DOCKED: ROOT
DOCKED: ATOM      1  O   UNL d   1     -16.863 -15.798  -6.144 +0.00 -0.04    -0.289 OA
DOCKED: ATOM      2  O   UNL d   1     -13.137  -9.285  -5.861 -0.27 -0.01    -0.289 OA
DOCKED: ATOM      3  N   UNL d   1     -14.622 -15.036  -3.636 -0.04 -0.04    -0.247 NA
DOCKED: ATOM      4  N   UNL d   1     -13.459 -12.449  -4.522 -0.13 -0.02    -0.247 NA
DOCKED: ATOM      5  N   UNL d   1     -11.405 -12.800  -2.542 -0.07 -0.09    -0.354 N 
DOCKED: ATOM      6  N   UNL d   1     -12.607 -15.492  -1.642 -0.08 -0.08    -0.354 N 
DOCKED: ATOM      7  C   UNL d   1     -15.903 -17.029  -4.264 -0.01 +0.01    +0.084 A 
DOCKED: ATOM      8  C   UNL d   1     -14.831 -11.047  -5.980 -0.23 +0.00    +0.084 A 
DOCKED: ATOM      9  C   UNL d   1     -14.633 -12.373  -5.238 -0.15 +0.00    +0.058 A 
DOCKED: ATOM     10  C   UNL d   1     -14.899 -16.356  -3.323 -0.03 +0.01    +0.058 A 
DOCKED: ATOM     11  C   UNL d   1     -16.159 -15.850  -5.153 -0.00 +0.03    +0.193 A 
DOCKED: ATOM     12  C   UNL d   1     -15.344 -14.697  -4.654 -0.03 +0.02    +0.109 A 
DOCKED: ATOM     13  C   UNL d   1     -13.535 -10.399  -5.582 -0.28 +0.00    +0.193 A 
DOCKED: ATOM     14  C   UNL d   1     -15.257 -18.143  -5.092 -0.00 +0.00    +0.026 C 
DOCKED: ATOM     15  C   UNL d   1     -15.505 -13.390  -5.323 -0.08 +0.01    +0.055 C 
DOCKED: ATOM     16  C   UNL d   1     -15.989 -10.235  -5.391 -0.36 -0.00    +0.026 C 
DOCKED: ATOM     17  C   UNL d   1     -12.793 -11.354  -4.706 -0.30 +0.01    +0.109 A 
DOCKED: ATOM     18  C   UNL d   1     -14.414 -16.992  -2.240 -0.05 +0.01    +0.050 C 
DOCKED: ATOM     19  C   UNL d   1     -13.549 -16.424  -1.270 -0.11 +0.01    +0.045 A 
DOCKED: ATOM     20  C   UNL d   1     -10.892 -11.728  -3.226 -0.27 +0.01    +0.045 A 
DOCKED: ATOM     21  C   UNL d   1     -11.459 -11.005  -4.196 -0.41 +0.01    +0.057 C 
DOCKED: ATOM     22  C   UNL d   1      -9.342 -12.446  -1.708 -0.25 -0.01    -0.019 A 
DOCKED: ATOM     23  C   UNL d   1     -10.541 -13.301  -1.605 -0.17 +0.02    +0.045 A 
DOCKED: ATOM     24  C   UNL d   1      -9.557 -11.516  -2.669 -0.28 -0.01    -0.022 A 
DOCKED: ATOM     25  C   UNL d   1     -11.822 -15.144  -0.567 -0.10 +0.01    +0.049 A 
DOCKED: ATOM     26  C   UNL d   1     -13.398 -16.660   0.087 -0.11 -0.00    -0.018 A 
DOCKED: ATOM     27  C   UNL d   1     -12.318 -15.835   0.530 -0.09 +0.00    +0.003 A 
DOCKED: ATOM     28  C   UNL d   1     -10.679 -14.315  -0.736 -0.14 +0.02    +0.052 C 
DOCKED: ATOM     29  C   UNL d   1      -8.650 -10.426  -3.131 -0.30 +0.02    +0.046 C 
DOCKED: ATOM     30  C   UNL d   1     -14.206 -17.592   0.924 -0.07 +0.01    +0.046 C 
DOCKED: ATOM     31  H   UNL d   1     -12.360 -13.108  -2.687 +0.06 +0.03    +0.166 HD
DOCKED: ATOM     32  H   UNL d   1     -12.496 -15.154  -2.590 +0.03 +0.04    +0.166 HD
DOCKED: ENDROOT
DOCKED: BRANCH   7  33
DOCKED: ATOM     33  C   UNL d   1     -17.205 -17.500  -3.606 -0.01 +0.02    +0.141 C 
DOCKED: BRANCH  33  34
DOCKED: ATOM     34  C   UNL d   1     -18.213 -17.995  -4.608 -0.00 +0.04    +0.306 C 
DOCKED: ATOM     35  O   UNL d   1     -18.281 -19.125  -5.063 +0.00 -0.04    -0.251 OA
DOCKED: BRANCH  34  36
DOCKED: ATOM     36  O   UNL d   1     -19.084 -17.042  -4.982 +0.00 -0.06    -0.481 OA
DOCKED: ATOM     37  H   UNL d   1     -18.625 -16.556  -5.700 +0.00 +0.04    +0.295 HD
DOCKED: ENDBRANCH  34  36
DOCKED: ENDBRANCH  33  34
DOCKED: ENDBRANCH   7  33
DOCKED: BRANCH  27  38
DOCKED: ATOM     38  C   UNL d   1     -11.817 -15.781   1.870 -0.14 +0.01    +0.017 C 
DOCKED: ATOM     39  C   UNL d   1     -12.547 -15.497   2.959 -0.18 +0.03    +0.092 C 
DOCKED: BRANCH  39  40
DOCKED: ATOM     40  C   UNL d   1     -11.914 -15.491   4.281 -0.10 +0.11    +0.330 C 
DOCKED: ATOM     41  O   UNL d   1     -12.015 -14.646   5.150 -0.75 -0.12    -0.246 OA
DOCKED: BRANCH  40  42
DOCKED: ATOM     42  O   UNL d   1     -11.171 -16.596   4.442 +0.01 -0.16    -0.477 OA
DOCKED: ATOM     43  H   UNL d   1     -11.661 -17.113   5.114 +0.04 +0.08    +0.295 HD
DOCKED: ENDBRANCH  40  42
DOCKED: ENDBRANCH  39  40
DOCKED: ENDBRANCH  27  38
DOCKED: BRANCH   8  44
DOCKED: ATOM     44  C   UNL d   1     -14.947 -11.154  -7.504 -0.20 +0.00    +0.141 C 
DOCKED: BRANCH  44  45
DOCKED: ATOM     45  C   UNL d   1     -15.235  -9.836  -8.171 -0.18 -0.00    +0.306 C 
DOCKED: ATOM     46  O   UNL d   1     -16.331  -9.328  -8.336 -0.13 -0.01    -0.251 OA
DOCKED: BRANCH  45  47
DOCKED: ATOM     47  O   UNL d   1     -14.121  -9.234  -8.625 -0.18 +0.09    -0.481 OA
DOCKED: ATOM     48  H   UNL d   1     -13.417  -9.514  -8.003 -0.33 -0.11    +0.295 HD
DOCKED: ENDBRANCH  45  47
DOCKED: ENDBRANCH  44  45
DOCKED: ENDBRANCH   8  44
DOCKED: BRANCH  22  49
DOCKED: ATOM     49  C   UNL d   1      -8.105 -12.624  -0.878 -0.25 +0.04    +0.048 C 
DOCKED: BRANCH  49  50
DOCKED: ATOM     50  C   UNL d   1      -8.350 -12.273   0.590 -0.20 +0.11    +0.125 C 
DOCKED: BRANCH  50  51
DOCKED: ATOM     51  C   UNL d   1      -7.231 -12.779   1.456 -0.07 +0.44    +0.305 C 
DOCKED: ATOM     52  O   UNL d   1      -7.073 -12.591   2.649 -0.99 -0.43    -0.251 OA
DOCKED: BRANCH  51  53
DOCKED: ATOM     53  O   UNL d   1      -6.339 -13.505   0.754 -0.18 -0.95    -0.481 OA
DOCKED: ATOM     54  H   UNL d   1      -5.890 -12.845   0.185 +0.11 +0.45    +0.295 HD
DOCKED: ENDBRANCH  51  53
DOCKED: ENDBRANCH  50  51
DOCKED: ENDBRANCH  49  50
DOCKED: ENDBRANCH  22  49
DOCKED: TORSDOF 13
DOCKED: TER
DOCKED: ENDMDL
________________________________________________________________________________


	BEGINNING GENETIC ALGORITHM DOCKING 65 of 100
Run: 65 Seed: 1070982305 1225311960 [ Run 65 of 100 GA/GALS ]
Beginning LAMARCKIAN GENETIC ALGORITHM (LGA), with a maximum of 25000000 energy evaluations.

Final-Value: -10.954


	FINAL GENETIC ALGORITHM DOCKED STATE
	_______________________________________________


Detailed state:  trans -12.083 -1.978 -16.378 quatxyzw -0.091444 0.176838 -0.365830 -0.909139 center 0.153 0.018 -0.028 ntor 13 169.4576 171.0482 -179.5029 -30.7069 -149.3387 13.7526 146.7589 -60.1913 11.3294 -5.2457 -100.8970 -18.4678 -17.6702
State:	-12.083  -1.978 -16.378  -0.220  0.425 -0.878 -49.227    169.46  171.05 -179.50  -30.71 -149.34   13.75  146.76  -60.19   11.33   -5.25 -100.90  -18.47  -17.67

DOCKED: MODEL       65
DOCKED: USER    Run = 65
DOCKED: USER    DPF = D:/Protein_go_brrr/autodock/final/AncA/heme/dock.dpf
DOCKED: USER  
DOCKED: USER    Estimated Free Energy of Binding    =   -2.40 kcal/mol  [=(1)+(2)+(3)-(4)]
DOCKED: USER    Estimated Inhibition Constant, Ki   =   17.29 mM (millimolar)  [Temperature = 298.15 K]
DOCKED: USER    
DOCKED: USER    (1) Final Intermolecular Energy     =   -6.28 kcal/mol
DOCKED: USER        vdW + Hbond + desolv Energy     =   -6.15 kcal/mol
DOCKED: USER        Electrostatic Energy            =   -0.13 kcal/mol
DOCKED: USER    (2) Final Total Internal Energy     =   -4.67 kcal/mol
DOCKED: USER    (3) Torsional Free Energy           =   +3.88 kcal/mol
DOCKED: USER    (4) Unbound System's Energy  [=(2)] =   -4.67 kcal/mol
DOCKED: USER    
DOCKED: USER    
DOCKED: USER    NEWDPF move heme_opt.pdbqt
DOCKED: USER    NEWDPF about 0.153000 0.018000 -0.028000
DOCKED: USER    NEWDPF tran0 -12.082519 -1.978202 -16.377678
DOCKED: USER    NEWDPF quaternion0 -0.091444 0.176838 -0.365830 -0.909139
DOCKED: USER    NEWDPF axisangle0 -0.219558 0.424589 -0.878361 -49.226608
DOCKED: USER    NEWDPF quat0 -0.219558 0.424589 -0.878361 -49.226608
DOCKED: USER    NEWDPF dihe0 169.46 171.05 -179.50 -30.71 -149.34 13.75 146.76 -60.19 11.33 -5.25 -100.90 -18.47 -17.67 
DOCKED: USER  keepresnum = 1 
DOCKED: USER  
DOCKED: REMARK  13 active torsions:
DOCKED: REMARK  status: ('A' for Active; 'I' for Inactive)
DOCKED: REMARK    1  A    between atoms: O_3  and  C_38 
DOCKED: REMARK    2  A    between atoms: O_4  and  C_40 
DOCKED: REMARK    3  A    between atoms: O_7  and  C_46 
DOCKED: REMARK    4  A    between atoms: O_9  and  C_48 
DOCKED: REMARK    5  A    between atoms: C_15  and  C_20 
DOCKED: REMARK    6  A    between atoms: C_16  and  C_23 
DOCKED: REMARK    7  A    between atoms: C_20  and  C_38 
DOCKED: REMARK    8  A    between atoms: C_23  and  C_40 
DOCKED: REMARK    9  A    between atoms: C_32  and  C_41 
DOCKED: REMARK   10  A    between atoms: C_37  and  C_45 
DOCKED: REMARK   11  A    between atoms: C_41  and  C_44 
DOCKED: REMARK   12  A    between atoms: C_44  and  C_46 
DOCKED: REMARK   13  A    between atoms: C_47  and  C_48 
DOCKED: USER                              x       y       z     vdW  Elec       q    Type
DOCKED: USER                           _______ _______ _______ _____ _____    ______ ____
DOCKED: ROOT
DOCKED: ATOM      1  O   UNL d   1     -14.520   3.168 -14.852 -0.01 +0.05    -0.289 OA
DOCKED: ATOM      2  O   UNL d   1     -17.542  -3.651 -15.722 +0.00 +0.02    -0.289 OA
DOCKED: ATOM      3  N   UNL d   1     -12.696   0.437 -15.904 -0.01 +0.25    -0.247 NA
DOCKED: ATOM      4  N   UNL d   1     -14.624  -1.810 -15.654 -0.04 +0.19    -0.247 NA
DOCKED: ATOM      5  N   UNL d   1     -12.412  -3.621 -15.962 -0.05 +0.29    -0.354 N 
DOCKED: ATOM      6  N   UNL d   1     -10.416  -1.284 -16.201 -0.07 +0.38    -0.354 N 
DOCKED: ATOM      7  C   UNL d   1     -12.154   2.749 -15.299 -0.11 -0.03    +0.084 A 
DOCKED: ATOM      8  C   UNL d   1     -17.001  -1.265 -15.808 -0.00 -0.01    +0.084 A 
DOCKED: ATOM      9  C   UNL d   1     -15.546  -0.791 -15.745 -0.04 -0.02    +0.058 A 
DOCKED: ATOM     10  C   UNL d   1     -11.681   1.368 -15.762 -0.13 -0.04    +0.058 A 
DOCKED: ATOM     11  C   UNL d   1     -13.618   2.439 -15.221 -0.04 -0.06    +0.193 A 
DOCKED: ATOM     12  C   UNL d   1     -13.822   1.015 -15.637 -0.06 -0.06    +0.109 A 
DOCKED: ATOM     13  C   UNL d   1     -16.737  -2.740 -15.699 -0.00 -0.03    +0.193 A 
DOCKED: ATOM     14  C   UNL d   1     -11.645   3.090 -13.896 -0.15 -0.01    +0.026 C 
DOCKED: ATOM     15  C   UNL d   1     -15.206   0.507 -15.728 -0.04 -0.02    +0.055 C 
DOCKED: ATOM     16  C   UNL d   1     -17.634  -0.978 -17.173 -0.00 -0.00    +0.026 C 
DOCKED: ATOM     17  C   UNL d   1     -15.259  -2.937 -15.604 -0.04 -0.04    +0.109 A 
DOCKED: ATOM     18  C   UNL d   1     -10.394   1.137 -16.084 -0.19 -0.03    +0.050 C 
DOCKED: ATOM     19  C   UNL d   1      -9.881  -0.080 -16.600 -0.19 -0.03    +0.045 A 
DOCKED: ATOM     20  C   UNL d   1     -13.394  -4.507 -15.602 -0.13 -0.02    +0.045 A 
DOCKED: ATOM     21  C   UNL d   1     -14.703  -4.288 -15.442 -0.08 -0.02    +0.057 C 
DOCKED: ATOM     22  C   UNL d   1     -11.394  -5.609 -15.672 -0.27 +0.00    -0.019 A 
DOCKED: ATOM     23  C   UNL d   1     -11.171  -4.194 -16.031 -0.25 -0.02    +0.045 A 
DOCKED: ATOM     24  C   UNL d   1     -12.712  -5.788 -15.421 -0.17 +0.00    -0.022 A 
DOCKED: ATOM     25  C   UNL d   1      -9.713  -2.331 -16.751 -0.21 -0.02    +0.049 A 
DOCKED: ATOM     26  C   UNL d   1      -8.829  -0.351 -17.461 -0.13 +0.01    -0.018 A 
DOCKED: ATOM     27  C   UNL d   1      -8.739  -1.773 -17.567 -0.17 -0.00    +0.003 A 
DOCKED: ATOM     28  C   UNL d   1      -9.979  -3.672 -16.361 -0.24 -0.02    +0.052 C 
DOCKED: ATOM     29  C   UNL d   1     -13.427  -7.038 -15.033 -0.18 -0.00    +0.046 C 
DOCKED: ATOM     30  C   UNL d   1      -7.958   0.649 -18.145 -0.06 -0.01    +0.046 C 
DOCKED: ATOM     31  H   UNL d   1     -12.635  -2.666 -16.222 -0.23 -0.19    +0.166 HD
DOCKED: ATOM     32  H   UNL d   1     -11.194  -1.366 -15.556 -0.39 -0.42    +0.166 HD
DOCKED: ENDROOT
DOCKED: BRANCH   7  33
DOCKED: ATOM     33  C   UNL d   1     -11.899   3.896 -16.283 -0.03 -0.02    +0.141 C 
DOCKED: BRANCH  33  34
DOCKED: ATOM     34  C   UNL d   1     -12.563   3.674 -17.615 +0.01 -0.03    +0.306 C 
DOCKED: ATOM     35  O   UNL d   1     -12.045   3.187 -18.606 +0.00 +0.02    -0.251 OA
DOCKED: BRANCH  34  36
DOCKED: ATOM     36  O   UNL d   1     -13.846   4.075 -17.628 +0.01 +0.03    -0.481 OA
DOCKED: ATOM     37  H   UNL d   1     -14.070   4.216 -16.683 +0.02 -0.02    +0.295 HD
DOCKED: ENDBRANCH  34  36
DOCKED: ENDBRANCH  33  34
DOCKED: ENDBRANCH   7  33
DOCKED: BRANCH  27  38
DOCKED: ATOM     38  C   UNL d   1      -7.772  -2.483 -18.349 -0.19 -0.00    +0.017 C 
DOCKED: ATOM     39  C   UNL d   1      -7.878  -3.764 -18.734 -0.23 -0.03    +0.092 C 
DOCKED: BRANCH  39  40
DOCKED: ATOM     40  C   UNL d   1      -6.822  -4.370 -19.550 -0.17 -0.13    +0.330 C 
DOCKED: ATOM     41  O   UNL d   1      -5.718  -3.920 -19.790 -0.20 +0.08    -0.246 OA
DOCKED: BRANCH  40  42
DOCKED: ATOM     42  O   UNL d   1      -7.230  -5.557 -20.026 -0.13 +0.46    -0.477 OA
DOCKED: ATOM     43  H   UNL d   1      -8.072  -5.722 -19.553 +0.06 -0.29    +0.295 HD
DOCKED: ENDBRANCH  40  42
DOCKED: ENDBRANCH  39  40
DOCKED: ENDBRANCH  27  38
DOCKED: BRANCH   8  44
DOCKED: ATOM     44  C   UNL d   1     -17.903  -0.783 -14.667 +0.00 -0.01    +0.141 C 
DOCKED: BRANCH  44  45
DOCKED: ATOM     45  C   UNL d   1     -17.366  -1.121 -13.302 +0.00 -0.04    +0.306 C 
DOCKED: ATOM     46  O   UNL d   1     -16.807  -0.360 -12.532 -0.02 +0.03    -0.251 OA
DOCKED: BRANCH  45  47
DOCKED: ATOM     47  O   UNL d   1     -17.540  -2.417 -12.987 +0.01 +0.04    -0.481 OA
DOCKED: ATOM     48  H   UNL d   1     -17.994  -2.803 -13.766 +0.02 -0.02    +0.295 HD
DOCKED: ENDBRANCH  45  47
DOCKED: ENDBRANCH  44  45
DOCKED: ENDBRANCH   8  44
DOCKED: BRANCH  22  49
DOCKED: ATOM     49  C   UNL d   1     -10.307  -6.640 -15.595 -0.25 -0.01    +0.048 C 
DOCKED: BRANCH  49  50
DOCKED: ATOM     50  C   UNL d   1     -10.278  -7.530 -16.838 -0.23 -0.02    +0.125 C 
DOCKED: BRANCH  50  51
DOCKED: ATOM     51  C   UNL d   1      -9.581  -6.840 -17.976 -0.19 -0.13    +0.305 C 
DOCKED: ATOM     52  O   UNL d   1      -9.948  -5.846 -18.579 -0.14 +0.12    -0.251 OA
DOCKED: BRANCH  51  53
DOCKED: ATOM     53  O   UNL d   1      -8.434  -7.460 -18.315 -0.49 +0.27    -0.481 OA
DOCKED: ATOM     54  H   UNL d   1      -8.349  -7.296 -19.277 -0.34 -0.51    +0.295 HD
DOCKED: ENDBRANCH  51  53
DOCKED: ENDBRANCH  50  51
DOCKED: ENDBRANCH  49  50
DOCKED: ENDBRANCH  22  49
DOCKED: TORSDOF 13
DOCKED: TER
DOCKED: ENDMDL
________________________________________________________________________________


	BEGINNING GENETIC ALGORITHM DOCKING 66 of 100
Run: 66 Seed: 148473436 101576267 [ Run 66 of 100 GA/GALS ]
Beginning LAMARCKIAN GENETIC ALGORITHM (LGA), with a maximum of 25000000 energy evaluations.

Final-Value: -11.588


	FINAL GENETIC ALGORITHM DOCKED STATE
	_______________________________________________


Detailed state:  trans 7.463 -7.332 10.758 quatxyzw 0.088125 0.646951 0.689060 0.314459 center 0.153 0.018 -0.028 ntor 13 174.9576 -143.7909 -160.1374 -59.0805 -150.0076 -47.8778 -84.4974 -135.8184 13.8852 -156.9572 -96.3749 1.9249 -13.3150
State:	  7.463  -7.332  10.758   0.093  0.682  0.726 143.344    174.96 -143.79 -160.14  -59.08 -150.01  -47.88  -84.50 -135.82   13.89 -156.96  -96.37    1.92  -13.31

DOCKED: MODEL       66
DOCKED: USER    Run = 66
DOCKED: USER    DPF = D:/Protein_go_brrr/autodock/final/AncA/heme/dock.dpf
DOCKED: USER  
DOCKED: USER    Estimated Free Energy of Binding    =   -3.12 kcal/mol  [=(1)+(2)+(3)-(4)]
DOCKED: USER    Estimated Inhibition Constant, Ki   =    5.14 mM (millimolar)  [Temperature = 298.15 K]
DOCKED: USER    
DOCKED: USER    (1) Final Intermolecular Energy     =   -7.00 kcal/mol
DOCKED: USER        vdW + Hbond + desolv Energy     =   -6.85 kcal/mol
DOCKED: USER        Electrostatic Energy            =   -0.15 kcal/mol
DOCKED: USER    (2) Final Total Internal Energy     =   -4.59 kcal/mol
DOCKED: USER    (3) Torsional Free Energy           =   +3.88 kcal/mol
DOCKED: USER    (4) Unbound System's Energy  [=(2)] =   -4.59 kcal/mol
DOCKED: USER    
DOCKED: USER    
DOCKED: USER    NEWDPF move heme_opt.pdbqt
DOCKED: USER    NEWDPF about 0.153000 0.018000 -0.028000
DOCKED: USER    NEWDPF tran0 7.463350 -7.332362 10.757671
DOCKED: USER    NEWDPF quaternion0 0.088125 0.646951 0.689060 0.314459
DOCKED: USER    NEWDPF axisangle0 0.092834 0.681524 0.725883 143.343735
DOCKED: USER    NEWDPF quat0 0.092834 0.681524 0.725883 143.343735
DOCKED: USER    NEWDPF dihe0 174.96 -143.79 -160.14 -59.08 -150.01 -47.88 -84.50 -135.82 13.89 -156.96 -96.37 1.92 -13.31 
DOCKED: USER  keepresnum = 1 
DOCKED: USER  
DOCKED: REMARK  13 active torsions:
DOCKED: REMARK  status: ('A' for Active; 'I' for Inactive)
DOCKED: REMARK    1  A    between atoms: O_3  and  C_38 
DOCKED: REMARK    2  A    between atoms: O_4  and  C_40 
DOCKED: REMARK    3  A    between atoms: O_7  and  C_46 
DOCKED: REMARK    4  A    between atoms: O_9  and  C_48 
DOCKED: REMARK    5  A    between atoms: C_15  and  C_20 
DOCKED: REMARK    6  A    between atoms: C_16  and  C_23 
DOCKED: REMARK    7  A    between atoms: C_20  and  C_38 
DOCKED: REMARK    8  A    between atoms: C_23  and  C_40 
DOCKED: REMARK    9  A    between atoms: C_32  and  C_41 
DOCKED: REMARK   10  A    between atoms: C_37  and  C_45 
DOCKED: REMARK   11  A    between atoms: C_41  and  C_44 
DOCKED: REMARK   12  A    between atoms: C_44  and  C_46 
DOCKED: REMARK   13  A    between atoms: C_47  and  C_48 
DOCKED: USER                              x       y       z     vdW  Elec       q    Type
DOCKED: USER                           _______ _______ _______ _____ _____    ______ ____
DOCKED: ROOT
DOCKED: ATOM      1  O   UNL d   1      12.617  -4.868   9.301 -0.08 -0.03    -0.289 OA
DOCKED: ATOM      2  O   UNL d   1       7.352  -8.148   5.069 -0.13 -0.08    -0.289 OA
DOCKED: ATOM      3  N   UNL d   1       9.782  -6.311  10.633 -0.16 -0.01    -0.247 NA
DOCKED: ATOM      4  N   UNL d   1       8.198  -7.050   8.229 -0.08 -0.01    -0.247 NA
DOCKED: ATOM      5  N   UNL d   1       5.939  -7.463   9.959 +0.01 +0.03    -0.354 N 
DOCKED: ATOM      6  N   UNL d   1       7.583  -6.676  12.444 -0.10 +0.03    -0.354 N 
DOCKED: ATOM      7  C   UNL d   1      11.638  -4.992  11.537 -0.13 +0.01    +0.084 A 
DOCKED: ATOM      8  C   UNL d   1       9.432  -7.460   6.160 -0.17 +0.02    +0.084 A 
DOCKED: ATOM      9  C   UNL d   1       9.435  -7.010   7.625 -0.11 +0.01    +0.058 A 
DOCKED: ATOM     10  C   UNL d   1      10.320  -5.736  11.771 -0.18 +0.00    +0.058 A 
DOCKED: ATOM     11  C   UNL d   1      11.759  -5.264  10.068 -0.10 +0.02    +0.193 A 
DOCKED: ATOM     12  C   UNL d   1      10.587  -6.094   9.644 -0.10 +0.01    +0.109 A 
DOCKED: ATOM     13  C   UNL d   1       7.959  -7.727   6.034 -0.14 +0.05    +0.193 A 
DOCKED: ATOM     14  C   UNL d   1      11.492  -3.483  11.751 -0.24 +0.00    +0.026 C 
DOCKED: ATOM     15  C   UNL d   1      10.539  -6.567   8.246 -0.03 +0.01    +0.055 C 
DOCKED: ATOM     16  C   UNL d   1      10.189  -8.777   5.969 -0.09 +0.01    +0.026 C 
DOCKED: ATOM     17  C   UNL d   1       7.324  -7.433   7.355 -0.20 +0.01    +0.109 A 
DOCKED: ATOM     18  C   UNL d   1       9.803  -5.878  13.006 -0.15 +0.00    +0.050 C 
DOCKED: ATOM     19  C   UNL d   1       8.637  -6.618  13.329 -0.15 +0.00    +0.045 A 
DOCKED: ATOM     20  C   UNL d   1       5.320  -7.546   8.739 -0.24 +0.00    +0.045 A 
DOCKED: ATOM     21  C   UNL d   1       5.869  -7.565   7.520 -0.28 +0.01    +0.057 C 
DOCKED: ATOM     22  C   UNL d   1       3.728  -7.572  10.377 -0.40 -0.00    -0.019 A 
DOCKED: ATOM     23  C   UNL d   1       5.059  -7.471  11.009 -0.28 -0.00    +0.045 A 
DOCKED: ATOM     24  C   UNL d   1       3.889  -7.618   9.034 -0.34 -0.00    -0.022 A 
DOCKED: ATOM     25  C   UNL d   1       6.528  -7.367  12.994 -0.15 -0.01    +0.049 A 
DOCKED: ATOM     26  C   UNL d   1       8.272  -7.321  14.467 -0.09 +0.00    -0.018 A 
DOCKED: ATOM     27  C   UNL d   1       6.947  -7.808  14.242 -0.09 -0.00    +0.003 A 
DOCKED: ATOM     28  C   UNL d   1       5.272  -7.425  12.333 -0.22 -0.01    +0.052 C 
DOCKED: ATOM     29  C   UNL d   1       2.848  -7.731   7.973 -0.26 +0.01    +0.046 C 
DOCKED: ATOM     30  C   UNL d   1       9.101  -7.530  15.688 -0.03 +0.00    +0.046 C 
DOCKED: ATOM     31  H   UNL d   1       6.950  -7.478  10.038 -0.21 -0.02    +0.166 HD
DOCKED: ATOM     32  H   UNL d   1       7.590  -6.228  11.535 -0.28 -0.04    +0.166 HD
DOCKED: ENDROOT
DOCKED: BRANCH   7  33
DOCKED: ATOM     33  C   UNL d   1      12.851  -5.551  12.289 -0.03 +0.01    +0.141 C 
DOCKED: BRANCH  33  34
DOCKED: ATOM     34  C   UNL d   1      13.174  -6.967  11.895 -0.00 +0.03    +0.306 C 
DOCKED: ATOM     35  O   UNL d   1      12.815  -7.976  12.477 -0.00 -0.02    -0.251 OA
DOCKED: BRANCH  34  36
DOCKED: ATOM     36  O   UNL d   1      13.932  -7.036  10.787 +0.01 -0.05    -0.481 OA
DOCKED: ATOM     37  H   UNL d   1      13.970  -6.113  10.456 +0.02 +0.03    +0.295 HD
DOCKED: ENDBRANCH  34  36
DOCKED: ENDBRANCH  33  34
DOCKED: ENDBRANCH   7  33
DOCKED: BRANCH  27  38
DOCKED: ATOM     38  C   UNL d   1       6.180  -8.575  15.177 -0.03 -0.00    +0.017 C 
DOCKED: ATOM     39  C   UNL d   1       5.374  -9.600  14.860 -0.01 +0.01    +0.092 C 
DOCKED: BRANCH  39  40
DOCKED: ATOM     40  C   UNL d   1       4.655 -10.316  15.917 +0.01 +0.02    +0.330 C 
DOCKED: ATOM     41  O   UNL d   1       5.111 -10.775  16.947 +0.00 -0.01    -0.246 OA
DOCKED: BRANCH  40  42
DOCKED: ATOM     42  O   UNL d   1       3.353 -10.410  15.608 +0.02 -0.03    -0.477 OA
DOCKED: ATOM     43  H   UNL d   1       3.350 -10.531  14.636 +0.03 +0.05    +0.295 HD
DOCKED: ENDBRANCH  40  42
DOCKED: ENDBRANCH  39  40
DOCKED: ENDBRANCH  27  38
DOCKED: BRANCH   8  44
DOCKED: ATOM     44  C   UNL d   1       9.887  -6.406   5.145 -0.21 +0.05    +0.141 C 
DOCKED: BRANCH  44  45
DOCKED: ATOM     45  C   UNL d   1      10.470  -7.002   3.891 -0.19 +0.18    +0.306 C 
DOCKED: ATOM     46  O   UNL d   1      11.542  -6.721   3.384 -0.56 -0.17    -0.251 OA
DOCKED: BRANCH  45  47
DOCKED: ATOM     47  O   UNL d   1       9.654  -7.908   3.324 -0.15 -0.37    -0.481 OA
DOCKED: ATOM     48  H   UNL d   1       8.770  -7.717   3.704 +0.17 +0.15    +0.295 HD
DOCKED: ENDBRANCH  45  47
DOCKED: ENDBRANCH  44  45
DOCKED: ENDBRANCH   8  44
DOCKED: BRANCH  22  49
DOCKED: ATOM     49  C   UNL d   1       2.435  -7.600  11.138 -0.37 -0.00    +0.048 C 
DOCKED: BRANCH  49  50
DOCKED: ATOM     50  C   UNL d   1       1.932  -9.027  11.354 -0.19 +0.04    +0.125 C 
DOCKED: BRANCH  50  51
DOCKED: ATOM     51  C   UNL d   1       2.572  -9.644  12.565 -0.10 +0.12    +0.305 C 
DOCKED: ATOM     52  O   UNL d   1       2.939 -10.797  12.706 -0.12 -0.23    -0.251 OA
DOCKED: BRANCH  51  53
DOCKED: ATOM     53  O   UNL d   1       2.711  -8.755  13.569 +0.00 +0.05    -0.481 OA
DOCKED: ATOM     54  H   UNL d   1       2.197  -9.147  14.306 +0.07 -0.05    +0.295 HD
DOCKED: ENDBRANCH  51  53
DOCKED: ENDBRANCH  50  51
DOCKED: ENDBRANCH  49  50
DOCKED: ENDBRANCH  22  49
DOCKED: TORSDOF 13
DOCKED: TER
DOCKED: ENDMDL
________________________________________________________________________________


	BEGINNING GENETIC ALGORITHM DOCKING 67 of 100
Run: 67 Seed: 398926588 1065248488 [ Run 67 of 100 GA/GALS ]
Beginning LAMARCKIAN GENETIC ALGORITHM (LGA), with a maximum of 25000000 energy evaluations.

Final-Value: -14.155


	FINAL GENETIC ALGORITHM DOCKED STATE
	_______________________________________________


Detailed state:  trans -9.323 -10.541 -2.818 quatxyzw 0.353635 0.916781 -0.058692 -0.176097 center 0.153 0.018 -0.028 ntor 13 107.5701 13.1419 -96.3070 -180.0000 6.1791 -150.0279 -50.5177 -60.8486 -128.8696 79.2117 -13.8289 169.6444 -159.0175
State:	 -9.323 -10.541  -2.818   0.359  0.931 -0.060 -159.715    107.57   13.14  -96.31 -180.00    6.18 -150.03  -50.52  -60.85 -128.87   79.21  -13.83  169.64 -159.02

DOCKED: MODEL       67
DOCKED: USER    Run = 67
DOCKED: USER    DPF = D:/Protein_go_brrr/autodock/final/AncA/heme/dock.dpf
DOCKED: USER  
DOCKED: USER    Estimated Free Energy of Binding    =   -9.75 kcal/mol  [=(1)+(2)+(3)-(4)]
DOCKED: USER    Estimated Inhibition Constant, Ki   =   71.05 nM (nanomolar)  [Temperature = 298.15 K]
DOCKED: USER    
DOCKED: USER    (1) Final Intermolecular Energy     =  -13.63 kcal/mol
DOCKED: USER        vdW + Hbond + desolv Energy     =  -12.96 kcal/mol
DOCKED: USER        Electrostatic Energy            =   -0.67 kcal/mol
DOCKED: USER    (2) Final Total Internal Energy     =   -0.53 kcal/mol
DOCKED: USER    (3) Torsional Free Energy           =   +3.88 kcal/mol
DOCKED: USER    (4) Unbound System's Energy  [=(2)] =   -0.53 kcal/mol
DOCKED: USER    
DOCKED: USER    
DOCKED: USER    NEWDPF move heme_opt.pdbqt
DOCKED: USER    NEWDPF about 0.153000 0.018000 -0.028000
DOCKED: USER    NEWDPF tran0 -9.323497 -10.540565 -2.817896
DOCKED: USER    NEWDPF quaternion0 0.353635 0.916781 -0.058692 -0.176097
DOCKED: USER    NEWDPF axisangle0 0.359249 0.931335 -0.059624 -159.714987
DOCKED: USER    NEWDPF quat0 0.359249 0.931335 -0.059624 -159.714987
DOCKED: USER    NEWDPF dihe0 107.57 13.14 -96.31 -180.00 6.18 -150.03 -50.52 -60.85 -128.87 79.21 -13.83 169.64 -159.02 
DOCKED: USER  keepresnum = 1 
DOCKED: USER  
DOCKED: REMARK  13 active torsions:
DOCKED: REMARK  status: ('A' for Active; 'I' for Inactive)
DOCKED: REMARK    1  A    between atoms: O_3  and  C_38 
DOCKED: REMARK    2  A    between atoms: O_4  and  C_40 
DOCKED: REMARK    3  A    between atoms: O_7  and  C_46 
DOCKED: REMARK    4  A    between atoms: O_9  and  C_48 
DOCKED: REMARK    5  A    between atoms: C_15  and  C_20 
DOCKED: REMARK    6  A    between atoms: C_16  and  C_23 
DOCKED: REMARK    7  A    between atoms: C_20  and  C_38 
DOCKED: REMARK    8  A    between atoms: C_23  and  C_40 
DOCKED: REMARK    9  A    between atoms: C_32  and  C_41 
DOCKED: REMARK   10  A    between atoms: C_37  and  C_45 
DOCKED: REMARK   11  A    between atoms: C_41  and  C_44 
DOCKED: REMARK   12  A    between atoms: C_44  and  C_46 
DOCKED: REMARK   13  A    between atoms: C_47  and  C_48 
DOCKED: USER                              x       y       z     vdW  Elec       q    Type
DOCKED: USER                           _______ _______ _______ _____ _____    ______ ____
DOCKED: ROOT
DOCKED: ATOM      1  O   UNL d   1      -4.151 -12.958  -1.348 -0.38 -0.55    -0.289 OA
DOCKED: ATOM      2  O   UNL d   1     -11.183 -15.442  -0.462 -0.08 -0.11    -0.289 OA
DOCKED: ATOM      3  N   UNL d   1      -6.916 -11.107  -2.257 -0.08 -0.18    -0.247 NA
DOCKED: ATOM      4  N   UNL d   1      -9.172 -12.990  -1.823 -0.11 -0.15    -0.247 NA
DOCKED: ATOM      5  N   UNL d   1     -10.841 -11.191  -3.322 -0.15 -0.07    -0.354 N 
DOCKED: ATOM      6  N   UNL d   1      -8.489  -9.252  -3.785 -0.17 -0.12    -0.354 N 
DOCKED: ATOM      7  C   UNL d   1      -4.493 -10.835  -2.509 -0.33 +0.07    +0.084 A 
DOCKED: ATOM      8  C   UNL d   1      -8.852 -14.755  -0.164 -0.07 +0.07    +0.084 A 
DOCKED: ATOM      9  C   UNL d   1      -8.273 -13.587  -0.969 -0.15 +0.05    +0.058 A 
DOCKED: ATOM     10  C   UNL d   1      -5.906 -10.299  -2.754 -0.20 +0.04    +0.058 A 
DOCKED: ATOM     11  C   UNL d   1      -4.881 -12.079  -1.769 -0.19 +0.28    +0.193 A 
DOCKED: ATOM     12  C   UNL d   1      -6.374 -12.117  -1.659 -0.21 +0.12    +0.109 A 
DOCKED: ATOM     13  C   UNL d   1     -10.237 -14.734  -0.747 -0.08 +0.10    +0.193 A 
DOCKED: ATOM     14  C   UNL d   1      -3.794 -11.231  -3.812 -0.37 +0.03    +0.026 C 
DOCKED: ATOM     15  C   UNL d   1      -6.986 -13.214  -0.883 -0.24 +0.07    +0.055 C 
DOCKED: ATOM     16  C   UNL d   1      -8.942 -14.427   1.329 -0.17 +0.02    +0.026 C 
DOCKED: ATOM     17  C   UNL d   1     -10.298 -13.624  -1.745 -0.15 +0.05    +0.109 A 
DOCKED: ATOM     18  C   UNL d   1      -6.114  -9.098  -3.326 -0.18 +0.03    +0.050 C 
DOCKED: ATOM     19  C   UNL d   1      -7.378  -8.485  -3.516 -0.39 +0.02    +0.045 A 
DOCKED: ATOM     20  C   UNL d   1     -11.685 -12.266  -3.221 -0.24 +0.01    +0.045 A 
DOCKED: ATOM     21  C   UNL d   1     -11.529 -13.390  -2.514 -0.19 +0.01    +0.057 C 
DOCKED: ATOM     22  C   UNL d   1     -12.625 -10.718  -4.612 -0.31 -0.00    -0.019 A 
DOCKED: ATOM     23  C   UNL d   1     -11.323 -10.205  -4.141 -0.41 +0.00    +0.045 A 
DOCKED: ATOM     24  C   UNL d   1     -12.834 -11.937  -4.063 -0.30 -0.00    -0.022 A 
DOCKED: ATOM     25  C   UNL d   1      -9.583  -8.453  -4.023 -0.47 +0.01    +0.049 A 
DOCKED: ATOM     26  C   UNL d   1      -7.768  -7.155  -3.543 -0.45 -0.01    -0.018 A 
DOCKED: ATOM     27  C   UNL d   1      -9.165  -7.141  -3.844 -0.44 +0.00    +0.003 A 
DOCKED: ATOM     28  C   UNL d   1     -10.809  -9.011  -4.475 -0.55 +0.01    +0.052 C 
DOCKED: ATOM     29  C   UNL d   1     -14.006 -12.845  -4.226 -0.22 +0.00    +0.046 C 
DOCKED: ATOM     30  C   UNL d   1      -6.899  -5.967  -3.303 -0.48 +0.01    +0.046 C 
DOCKED: ATOM     31  H   UNL d   1      -9.993 -11.134  -2.768 +0.09 +0.05    +0.166 HD
DOCKED: ATOM     32  H   UNL d   1      -8.472 -10.264  -3.837 +0.10 +0.07    +0.166 HD
DOCKED: ENDROOT
DOCKED: BRANCH   7  33
DOCKED: ATOM     33  C   UNL d   1      -3.596  -9.948  -1.638 -0.38 +0.08    +0.141 C 
DOCKED: BRANCH  33  34
DOCKED: ATOM     34  C   UNL d   1      -2.973  -8.818  -2.410 -0.30 +0.12    +0.306 C 
DOCKED: ATOM     35  O   UNL d   1      -3.570  -7.932  -2.999 -0.35 -0.10    -0.251 OA
DOCKED: BRANCH  34  36
DOCKED: ATOM     36  O   UNL d   1      -1.629  -8.861  -2.398 -0.19 -0.16    -0.481 OA
DOCKED: ATOM     37  H   UNL d   1      -1.380  -8.559  -1.499 +0.17 +0.07    +0.295 HD
DOCKED: ENDBRANCH  34  36
DOCKED: ENDBRANCH  33  34
DOCKED: ENDBRANCH   7  33
DOCKED: BRANCH  27  38
DOCKED: ATOM     38  C   UNL d   1      -9.968  -5.964  -3.983 -0.25 +0.00    +0.017 C 
DOCKED: ATOM     39  C   UNL d   1      -9.514  -4.755  -4.347 -0.53 +0.02    +0.092 C 
DOCKED: BRANCH  39  40
DOCKED: ATOM     40  C   UNL d   1     -10.446  -3.631  -4.469 -0.37 +0.05    +0.330 C 
DOCKED: ATOM     41  O   UNL d   1     -10.345  -2.657  -5.190 -0.36 -0.06    -0.246 OA
DOCKED: BRANCH  40  42
DOCKED: ATOM     42  O   UNL d   1     -11.496  -3.811  -3.653 -0.15 -0.03    -0.477 OA
DOCKED: ATOM     43  H   UNL d   1     -12.146  -3.144  -3.956 -0.10 +0.02    +0.295 HD
DOCKED: ENDBRANCH  40  42
DOCKED: ENDBRANCH  39  40
DOCKED: ENDBRANCH  27  38
DOCKED: BRANCH   8  44
DOCKED: ATOM     44  C   UNL d   1      -8.180 -16.113  -0.393 -0.04 +0.13    +0.141 C 
DOCKED: BRANCH  44  45
DOCKED: ATOM     45  C   UNL d   1      -6.725 -16.001  -0.762 -0.06 +0.44    +0.306 C 
DOCKED: ATOM     46  O   UNL d   1      -6.260 -15.986  -1.889 -0.50 -0.59    -0.251 OA
DOCKED: BRANCH  45  47
DOCKED: ATOM     47  O   UNL d   1      -5.923 -15.940   0.317 -0.49 -0.91    -0.481 OA
DOCKED: ATOM     48  H   UNL d   1      -5.798 -16.875   0.585 +0.03 +0.43    +0.295 HD
DOCKED: ENDBRANCH  45  47
DOCKED: ENDBRANCH  44  45
DOCKED: ENDBRANCH   8  44
DOCKED: BRANCH  22  49
DOCKED: ATOM     49  C   UNL d   1     -13.528  -9.981  -5.558 -0.40 +0.00    +0.048 C 
DOCKED: BRANCH  49  50
DOCKED: ATOM     50  C   UNL d   1     -13.731 -10.747  -6.865 -0.24 -0.01    +0.125 C 
DOCKED: BRANCH  50  51
DOCKED: ATOM     51  C   UNL d   1     -14.866 -10.165  -7.658 -0.19 -0.01    +0.305 C 
DOCKED: ATOM     52  O   UNL d   1     -16.050 -10.168  -7.372 -0.12 -0.01    -0.251 OA
DOCKED: BRANCH  51  53
DOCKED: ATOM     53  O   UNL d   1     -14.442  -9.604  -8.808 -0.16 +0.07    -0.481 OA
DOCKED: ATOM     54  H   UNL d   1     -13.471  -9.736  -8.793 -0.39 -0.17    +0.295 HD
DOCKED: ENDBRANCH  51  53
DOCKED: ENDBRANCH  50  51
DOCKED: ENDBRANCH  49  50
DOCKED: ENDBRANCH  22  49
DOCKED: TORSDOF 13
DOCKED: TER
DOCKED: ENDMDL
________________________________________________________________________________


	BEGINNING GENETIC ALGORITHM DOCKING 68 of 100
Run: 68 Seed: 1339792785 1126998842 [ Run 68 of 100 GA/GALS ]
Beginning LAMARCKIAN GENETIC ALGORITHM (LGA), with a maximum of 25000000 energy evaluations.

Final-Value: -11.239


	FINAL GENETIC ALGORITHM DOCKED STATE
	_______________________________________________


Detailed state:  trans -0.301 13.279 11.288 quatxyzw 0.721550 0.409812 -0.079200 -0.552401 center 0.153 0.018 -0.028 ntor 13 157.7983 -133.4247 -143.2097 13.3053 -146.3146 -70.5596 127.9426 145.3640 8.4721 -15.3610 -55.3787 -12.6334 8.5502
State:	 -0.301  13.279  11.288   0.866  0.492 -0.095 -112.936    157.80 -133.42 -143.21   13.31 -146.31  -70.56  127.94  145.36    8.47  -15.36  -55.38  -12.63    8.55

DOCKED: MODEL       68
DOCKED: USER    Run = 68
DOCKED: USER    DPF = D:/Protein_go_brrr/autodock/final/AncA/heme/dock.dpf
DOCKED: USER  
DOCKED: USER    Estimated Free Energy of Binding    =   -2.75 kcal/mol  [=(1)+(2)+(3)-(4)]
DOCKED: USER    Estimated Inhibition Constant, Ki   =    9.65 mM (millimolar)  [Temperature = 298.15 K]
DOCKED: USER    
DOCKED: USER    (1) Final Intermolecular Energy     =   -6.63 kcal/mol
DOCKED: USER        vdW + Hbond + desolv Energy     =   -6.41 kcal/mol
DOCKED: USER        Electrostatic Energy            =   -0.22 kcal/mol
DOCKED: USER    (2) Final Total Internal Energy     =   -4.61 kcal/mol
DOCKED: USER    (3) Torsional Free Energy           =   +3.88 kcal/mol
DOCKED: USER    (4) Unbound System's Energy  [=(2)] =   -4.61 kcal/mol
DOCKED: USER    
DOCKED: USER    
DOCKED: USER    NEWDPF move heme_opt.pdbqt
DOCKED: USER    NEWDPF about 0.153000 0.018000 -0.028000
DOCKED: USER    NEWDPF tran0 -0.300561 13.278714 11.288233
DOCKED: USER    NEWDPF quaternion0 0.721550 0.409812 -0.079200 -0.552401
DOCKED: USER    NEWDPF axisangle0 0.865606 0.491629 -0.095012 -112.936237
DOCKED: USER    NEWDPF quat0 0.865606 0.491629 -0.095012 -112.936237
DOCKED: USER    NEWDPF dihe0 157.80 -133.42 -143.21 13.31 -146.31 -70.56 127.94 145.36 8.47 -15.36 -55.38 -12.63 8.55 
DOCKED: USER  keepresnum = 1 
DOCKED: USER  
DOCKED: REMARK  13 active torsions:
DOCKED: REMARK  status: ('A' for Active; 'I' for Inactive)
DOCKED: REMARK    1  A    between atoms: O_3  and  C_38 
DOCKED: REMARK    2  A    between atoms: O_4  and  C_40 
DOCKED: REMARK    3  A    between atoms: O_7  and  C_46 
DOCKED: REMARK    4  A    between atoms: O_9  and  C_48 
DOCKED: REMARK    5  A    between atoms: C_15  and  C_20 
DOCKED: REMARK    6  A    between atoms: C_16  and  C_23 
DOCKED: REMARK    7  A    between atoms: C_20  and  C_38 
DOCKED: REMARK    8  A    between atoms: C_23  and  C_40 
DOCKED: REMARK    9  A    between atoms: C_32  and  C_41 
DOCKED: REMARK   10  A    between atoms: C_37  and  C_45 
DOCKED: REMARK   11  A    between atoms: C_41  and  C_44 
DOCKED: REMARK   12  A    between atoms: C_44  and  C_46 
DOCKED: REMARK   13  A    between atoms: C_47  and  C_48 
DOCKED: USER                              x       y       z     vdW  Elec       q    Type
DOCKED: USER                           _______ _______ _______ _____ _____    ______ ____
DOCKED: ROOT
DOCKED: ATOM      1  O   UNL d   1      -2.590   9.802  15.462 -0.02 +0.01    -0.289 OA
DOCKED: ATOM      2  O   UNL d   1      -5.856  13.562   9.842 -0.02 -0.04    -0.289 OA
DOCKED: ATOM      3  N   UNL d   1      -0.833  11.850  13.315 -0.11 +0.03    -0.247 NA
DOCKED: ATOM      4  N   UNL d   1      -2.868  12.632  11.297 -0.10 -0.01    -0.247 NA
DOCKED: ATOM      5  N   UNL d   1      -0.724  13.605   9.647 -0.14 +0.02    -0.354 N 
DOCKED: ATOM      6  N   UNL d   1       1.383  12.773  11.738 -0.11 +0.09    -0.354 N 
DOCKED: ATOM      7  C   UNL d   1      -0.224  10.309  15.122 -0.09 -0.01    +0.084 A 
DOCKED: ATOM      8  C   UNL d   1      -5.207  12.616  12.005 -0.04 +0.01    +0.084 A 
DOCKED: ATOM      9  C   UNL d   1      -3.738  12.313  12.316 -0.09 +0.00    +0.058 A 
DOCKED: ATOM     10  C   UNL d   1       0.213  11.297  14.036 -0.12 -0.01    +0.058 A 
DOCKED: ATOM     11  C   UNL d   1      -1.703  10.416  14.900 -0.05 -0.01    +0.193 A 
DOCKED: ATOM     12  C   UNL d   1      -1.945  11.400  13.797 -0.10 -0.01    +0.109 A 
DOCKED: ATOM     13  C   UNL d   1      -5.015  13.131  10.606 -0.04 +0.03    +0.193 A 
DOCKED: ATOM     14  C   UNL d   1       0.222   8.878  14.810 -0.21 -0.00    +0.026 C 
DOCKED: ATOM     15  C   UNL d   1      -3.343  11.740  13.463 -0.09 +0.00    +0.055 C 
DOCKED: ATOM     16  C   UNL d   1      -5.750  13.752  12.877 -0.02 +0.00    +0.026 C 
DOCKED: ATOM     17  C   UNL d   1      -3.554  13.082  10.296 -0.09 +0.01    +0.109 A 
DOCKED: ATOM     18  C   UNL d   1       1.504  11.646  13.880 -0.15 -0.01    +0.050 C 
DOCKED: ATOM     19  C   UNL d   1       1.990  12.611  12.962 -0.18 -0.01    +0.045 A 
DOCKED: ATOM     20  C   UNL d   1      -1.762  13.683   8.755 -0.19 +0.00    +0.045 A 
DOCKED: ATOM     21  C   UNL d   1      -3.067  13.488   8.969 -0.13 +0.00    +0.057 C 
DOCKED: ATOM     22  C   UNL d   1       0.188  14.149   7.661 -0.24 +0.00    -0.019 A 
DOCKED: ATOM     23  C   UNL d   1       0.493  13.870   9.079 -0.23 -0.01    +0.045 A 
DOCKED: ATOM     24  C   UNL d   1      -1.148  14.038   7.476 -0.22 +0.00    -0.022 A 
DOCKED: ATOM     25  C   UNL d   1       2.068  13.691  10.976 -0.24 -0.00    +0.049 A 
DOCKED: ATOM     26  C   UNL d   1       3.076  13.471  13.012 -0.16 +0.00    -0.018 A 
DOCKED: ATOM     27  C   UNL d   1       3.109  14.165  11.762 -0.15 +0.00    +0.003 A 
DOCKED: ATOM     28  C   UNL d   1       1.722  13.912   9.615 -0.21 -0.01    +0.052 C 
DOCKED: ATOM     29  C   UNL d   1      -1.937  14.237   6.227 -0.16 +0.00    +0.046 C 
DOCKED: ATOM     30  C   UNL d   1       4.026  13.642  14.149 -0.09 -0.00    +0.046 C 
DOCKED: ATOM     31  H   UNL d   1      -0.891  13.445  10.635 +0.04 -0.01    +0.166 HD
DOCKED: ATOM     32  H   UNL d   1       0.568  12.248  11.443 -0.44 -0.06    +0.166 HD
DOCKED: ENDROOT
DOCKED: BRANCH   7  33
DOCKED: ATOM     33  C   UNL d   1       0.135  10.710  16.557 -0.02 -0.01    +0.141 C 
DOCKED: BRANCH  33  34
DOCKED: ATOM     34  C   UNL d   1      -0.406  12.062  16.933 -0.00 -0.01    +0.306 C 
DOCKED: ATOM     35  O   UNL d   1       0.176  13.128  16.822 -0.00 +0.00    -0.251 OA
DOCKED: BRANCH  34  36
DOCKED: ATOM     36  O   UNL d   1      -1.655  12.001  17.428 +0.00 +0.00    -0.481 OA
DOCKED: ATOM     37  H   UNL d   1      -2.030  11.177  17.051 +0.01 -0.00    +0.295 HD
DOCKED: ENDBRANCH  34  36
DOCKED: ENDBRANCH  33  34
DOCKED: ENDBRANCH   7  33
DOCKED: BRANCH  27  38
DOCKED: ATOM     38  C   UNL d   1       4.085  15.142  11.386 -0.13 +0.00    +0.017 C 
DOCKED: ATOM     39  C   UNL d   1       3.904  16.106  10.470 -0.15 +0.00    +0.092 C 
DOCKED: BRANCH  39  40
DOCKED: ATOM     40  C   UNL d   1       4.981  17.058  10.189 -0.10 -0.01    +0.330 C 
DOCKED: ATOM     41  O   UNL d   1       5.371  17.969  10.894 -0.05 +0.01    -0.246 OA
DOCKED: BRANCH  40  42
DOCKED: ATOM     42  O   UNL d   1       5.533  16.791   8.995 -0.10 +0.06    -0.477 OA
DOCKED: ATOM     43  H   UNL d   1       4.763  16.666   8.403 +0.08 -0.04    +0.295 HD
DOCKED: ENDBRANCH  40  42
DOCKED: ENDBRANCH  39  40
DOCKED: ENDBRANCH  27  38
DOCKED: BRANCH   8  44
DOCKED: ATOM     44  C   UNL d   1      -6.149  11.407  12.020 -0.05 +0.02    +0.141 C 
DOCKED: BRANCH  44  45
DOCKED: ATOM     45  C   UNL d   1      -5.844  10.404  10.940 -0.05 +0.14    +0.306 C 
DOCKED: ATOM     46  O   UNL d   1      -5.011   9.515  10.988 -0.40 -0.12    -0.251 OA
DOCKED: BRANCH  45  47
DOCKED: ATOM     47  O   UNL d   1      -6.591  10.591   9.837 -0.54 -0.36    -0.481 OA
DOCKED: ATOM     48  H   UNL d   1      -6.685  11.565   9.763 +0.05 +0.13    +0.295 HD
DOCKED: ENDBRANCH  45  47
DOCKED: ENDBRANCH  44  45
DOCKED: ENDBRANCH   8  44
DOCKED: BRANCH  22  49
DOCKED: ATOM     49  C   UNL d   1       1.223  14.481   6.626 -0.22 -0.00    +0.048 C 
DOCKED: BRANCH  49  50
DOCKED: ATOM     50  C   UNL d   1       1.745  15.909   6.780 -0.10 -0.01    +0.125 C 
DOCKED: BRANCH  50  51
DOCKED: ATOM     51  C   UNL d   1       3.242  15.924   6.898 -0.10 -0.03    +0.305 C 
DOCKED: ATOM     52  O   UNL d   1       4.020  16.709   6.385 -0.09 +0.03    -0.251 OA
DOCKED: BRANCH  51  53
DOCKED: ATOM     53  O   UNL d   1       3.698  14.914   7.666 -0.06 +0.06    -0.481 OA
DOCKED: ATOM     54  H   UNL d   1       4.634  15.149   7.838 -0.16 -0.08    +0.295 HD
DOCKED: ENDBRANCH  51  53
DOCKED: ENDBRANCH  50  51
DOCKED: ENDBRANCH  49  50
DOCKED: ENDBRANCH  22  49
DOCKED: TORSDOF 13
DOCKED: TER
DOCKED: ENDMDL
________________________________________________________________________________


	BEGINNING GENETIC ALGORITHM DOCKING 69 of 100
Run: 69 Seed: 1656860269 1524561192 [ Run 69 of 100 GA/GALS ]
Beginning LAMARCKIAN GENETIC ALGORITHM (LGA), with a maximum of 25000000 energy evaluations.

Final-Value: -10.338


	FINAL GENETIC ALGORITHM DOCKED STATE
	_______________________________________________


Detailed state:  trans 1.238 -18.629 -9.438 quatxyzw -0.545817 -0.357308 0.698755 0.293524 center 0.153 0.018 -0.028 ntor 13 -86.2938 -175.4987 -126.2320 -133.3502 32.5015 -0.7383 134.4675 -63.7513 125.3096 -60.5490 -136.9482 3.8365 138.0434
State:	  1.238 -18.629  -9.438  -0.571 -0.374  0.731 145.862    -86.29 -175.50 -126.23 -133.35   32.50   -0.74  134.47  -63.75  125.31  -60.55 -136.95    3.84  138.04

DOCKED: MODEL       69
DOCKED: USER    Run = 69
DOCKED: USER    DPF = D:/Protein_go_brrr/autodock/final/AncA/heme/dock.dpf
DOCKED: USER  
DOCKED: USER    Estimated Free Energy of Binding    =   -4.07 kcal/mol  [=(1)+(2)+(3)-(4)]
DOCKED: USER    Estimated Inhibition Constant, Ki   =    1.04 mM (millimolar)  [Temperature = 298.15 K]
DOCKED: USER    
DOCKED: USER    (1) Final Intermolecular Energy     =   -7.95 kcal/mol
DOCKED: USER        vdW + Hbond + desolv Energy     =   -7.00 kcal/mol
DOCKED: USER        Electrostatic Energy            =   -0.95 kcal/mol
DOCKED: USER    (2) Final Total Internal Energy     =   -2.39 kcal/mol
DOCKED: USER    (3) Torsional Free Energy           =   +3.88 kcal/mol
DOCKED: USER    (4) Unbound System's Energy  [=(2)] =   -2.39 kcal/mol
DOCKED: USER    
DOCKED: USER    
DOCKED: USER    NEWDPF move heme_opt.pdbqt
DOCKED: USER    NEWDPF about 0.153000 0.018000 -0.028000
DOCKED: USER    NEWDPF tran0 1.237682 -18.628890 -9.438010
DOCKED: USER    NEWDPF quaternion0 -0.545817 -0.357308 0.698755 0.293524
DOCKED: USER    NEWDPF axisangle0 -0.570967 -0.373772 0.730952 145.861845
DOCKED: USER    NEWDPF quat0 -0.570967 -0.373772 0.730952 145.861845
DOCKED: USER    NEWDPF dihe0 -86.29 -175.50 -126.23 -133.35 32.50 -0.74 134.47 -63.75 125.31 -60.55 -136.95 3.84 138.04 
DOCKED: USER  keepresnum = 1 
DOCKED: USER  
DOCKED: REMARK  13 active torsions:
DOCKED: REMARK  status: ('A' for Active; 'I' for Inactive)
DOCKED: REMARK    1  A    between atoms: O_3  and  C_38 
DOCKED: REMARK    2  A    between atoms: O_4  and  C_40 
DOCKED: REMARK    3  A    between atoms: O_7  and  C_46 
DOCKED: REMARK    4  A    between atoms: O_9  and  C_48 
DOCKED: REMARK    5  A    between atoms: C_15  and  C_20 
DOCKED: REMARK    6  A    between atoms: C_16  and  C_23 
DOCKED: REMARK    7  A    between atoms: C_20  and  C_38 
DOCKED: REMARK    8  A    between atoms: C_23  and  C_40 
DOCKED: REMARK    9  A    between atoms: C_32  and  C_41 
DOCKED: REMARK   10  A    between atoms: C_37  and  C_45 
DOCKED: REMARK   11  A    between atoms: C_41  and  C_44 
DOCKED: REMARK   12  A    between atoms: C_44  and  C_46 
DOCKED: REMARK   13  A    between atoms: C_47  and  C_48 
DOCKED: USER                              x       y       z     vdW  Elec       q    Type
DOCKED: USER                           _______ _______ _______ _____ _____    ______ ____
DOCKED: ROOT
DOCKED: ATOM      1  O   UNL d   1       3.532 -20.014  -4.187 -0.01 -0.16    -0.289 OA
DOCKED: ATOM      2  O   UNL d   1      -1.151 -14.507  -6.222 -0.26 -0.23    -0.289 OA
DOCKED: ATOM      3  N   UNL d   1       2.553 -19.506  -7.455 -0.18 -0.27    -0.247 NA
DOCKED: ATOM      4  N   UNL d   1       0.514 -17.356  -7.231 -0.13 -0.16    -0.247 NA
DOCKED: ATOM      5  N   UNL d   1      -0.265 -17.942  -9.936 -0.13 -0.12    -0.354 N 
DOCKED: ATOM      6  N   UNL d   1       1.839 -20.184 -10.153 -0.06 -0.21    -0.354 N 
DOCKED: ATOM      7  C   UNL d   1       3.863 -21.218  -6.288 -0.06 +0.08    +0.084 A 
DOCKED: ATOM      8  C   UNL d   1       0.685 -15.849  -5.316 -0.16 +0.05    +0.084 A 
DOCKED: ATOM      9  C   UNL d   1       1.179 -17.098  -6.053 -0.14 +0.04    +0.058 A 
DOCKED: ATOM     10  C   UNL d   1       3.259 -20.690  -7.593 -0.00 +0.08    +0.058 A 
DOCKED: ATOM     11  C   UNL d   1       3.388 -20.115  -5.391 -0.05 +0.15    +0.193 A 
DOCKED: ATOM     12  C   UNL d   1       2.629 -19.126  -6.221 -0.09 +0.10    +0.109 A 
DOCKED: ATOM     13  C   UNL d   1      -0.407 -15.467  -6.274 -0.25 +0.13    +0.193 A 
DOCKED: ATOM     14  C   UNL d   1       3.212 -22.531  -5.844 -0.01 +0.01    +0.026 C 
DOCKED: ATOM     15  C   UNL d   1       2.140 -17.897  -5.565 -0.11 +0.04    +0.055 C 
DOCKED: ATOM     16  C   UNL d   1       1.741 -14.740  -5.307 -0.27 +0.01    +0.026 C 
DOCKED: ATOM     17  C   UNL d   1      -0.411 -16.465  -7.387 -0.26 +0.06    +0.109 A 
DOCKED: ATOM     18  C   UNL d   1       3.491 -21.298  -8.771 -0.07 +0.06    +0.050 C 
DOCKED: ATOM     19  C   UNL d   1       3.046 -20.836 -10.036 -0.07 +0.04    +0.045 A 
DOCKED: ATOM     20  C   UNL d   1      -1.280 -17.092  -9.577 -0.37 +0.02    +0.045 A 
DOCKED: ATOM     21  C   UNL d   1      -1.411 -16.369  -8.461 -0.34 +0.03    +0.057 C 
DOCKED: ATOM     22  C   UNL d   1      -1.745 -17.970 -11.634 -0.27 -0.00    -0.019 A 
DOCKED: ATOM     23  C   UNL d   1      -0.458 -18.520 -11.162 -0.18 +0.00    +0.045 A 
DOCKED: ATOM     24  C   UNL d   1      -2.226 -17.125 -10.692 -0.43 -0.01    -0.022 A 
DOCKED: ATOM     25  C   UNL d   1       1.565 -19.907 -11.472 -0.11 +0.01    +0.049 A 
DOCKED: ATOM     26  C   UNL d   1       3.587 -20.952 -11.307 -0.08 -0.01    -0.018 A 
DOCKED: ATOM     27  C   UNL d   1       2.657 -20.346 -12.207 -0.09 +0.00    +0.003 A 
DOCKED: ATOM     28  C   UNL d   1       0.304 -19.377 -11.859 -0.14 -0.00    +0.052 C 
DOCKED: ATOM     29  C   UNL d   1      -3.482 -16.322 -10.712 -0.27 +0.03    +0.046 C 
DOCKED: ATOM     30  C   UNL d   1       4.889 -21.584 -11.666 -0.07 +0.03    +0.046 C 
DOCKED: ATOM     31  H   UNL d   1       0.564 -18.043  -9.362 +0.05 +0.08    +0.166 HD
DOCKED: ATOM     32  H   UNL d   1       1.232 -19.983  -9.366 +0.03 +0.10    +0.166 HD
DOCKED: ENDROOT
DOCKED: BRANCH   7  33
DOCKED: ATOM     33  C   UNL d   1       5.392 -21.312  -6.262 -0.04 +0.16    +0.141 C 
DOCKED: BRANCH  33  34
DOCKED: ATOM     34  C   UNL d   1       5.927 -21.676  -4.903 -0.01 +0.18    +0.306 C 
DOCKED: ATOM     35  O   UNL d   1       6.076 -22.804  -4.466 +0.00 -0.10    -0.251 OA
DOCKED: BRANCH  34  36
DOCKED: ATOM     36  O   UNL d   1       6.249 -20.597  -4.167 +0.00 -0.26    -0.481 OA
DOCKED: ATOM     37  H   UNL d   1       5.433 -20.389  -3.665 +0.01 +0.14    +0.295 HD
DOCKED: ENDBRANCH  34  36
DOCKED: ENDBRANCH  33  34
DOCKED: ENDBRANCH   7  33
DOCKED: BRANCH  27  38
DOCKED: ATOM     38  C   UNL d   1       2.818 -20.262 -13.628 -0.07 +0.00    +0.017 C 
DOCKED: ATOM     39  C   UNL d   1       2.509 -19.195 -14.380 -0.11 -0.03    +0.092 C 
DOCKED: BRANCH  39  40
DOCKED: ATOM     40  C   UNL d   1       2.740 -19.230 -15.827 -0.04 -0.07    +0.330 C 
DOCKED: ATOM     41  O   UNL d   1       3.242 -20.126 -16.478 -0.01 -0.00    -0.246 OA
DOCKED: BRANCH  40  42
DOCKED: ATOM     42  O   UNL d   1       2.300 -18.095 -16.392 -0.04 +0.29    -0.477 OA
DOCKED: ATOM     43  H   UNL d   1       2.016 -17.548 -15.631 -0.51 -0.47    +0.295 HD
DOCKED: ENDBRANCH  40  42
DOCKED: ENDBRANCH  39  40
DOCKED: ENDBRANCH  27  38
DOCKED: BRANCH   8  44
DOCKED: ATOM     44  C   UNL d   1       0.123 -16.090  -3.911 -0.08 +0.10    +0.141 C 
DOCKED: BRANCH  44  45
DOCKED: ATOM     45  C   UNL d   1      -1.366 -15.888  -3.824 -0.08 +0.40    +0.306 C 
DOCKED: ATOM     46  O   UNL d   1      -2.226 -16.734  -3.995 -0.63 -0.41    -0.251 OA
DOCKED: BRANCH  45  47
DOCKED: ATOM     47  O   UNL d   1      -1.697 -14.612  -3.551 -0.13 -0.79    -0.481 OA
DOCKED: ATOM     48  H   UNL d   1      -1.226 -14.083  -4.229 +0.11 +0.34    +0.295 HD
DOCKED: ENDBRANCH  45  47
DOCKED: ENDBRANCH  44  45
DOCKED: ENDBRANCH   8  44
DOCKED: BRANCH  22  49
DOCKED: ATOM     49  C   UNL d   1      -2.386 -18.330 -12.942 -0.24 +0.00    +0.048 C 
DOCKED: BRANCH  49  50
DOCKED: ATOM     50  C   UNL d   1      -2.561 -19.841 -13.093 -0.10 +0.05    +0.125 C 
DOCKED: BRANCH  50  51
DOCKED: ATOM     51  C   UNL d   1      -3.082 -20.451 -11.822 -0.01 +0.34    +0.305 C 
DOCKED: ATOM     52  O   UNL d   1      -2.492 -20.581 -10.764 -0.23 -0.33    -0.251 OA
DOCKED: BRANCH  51  53
DOCKED: ATOM     53  O   UNL d   1      -4.350 -20.888 -11.955 -0.24 -0.70    -0.481 OA
DOCKED: ATOM     54  H   UNL d   1      -4.345 -21.378 -12.804 +0.03 +0.24    +0.295 HD
DOCKED: ENDBRANCH  51  53
DOCKED: ENDBRANCH  50  51
DOCKED: ENDBRANCH  49  50
DOCKED: ENDBRANCH  22  49
DOCKED: TORSDOF 13
DOCKED: TER
DOCKED: ENDMDL
________________________________________________________________________________


	BEGINNING GENETIC ALGORITHM DOCKING 70 of 100
Run: 70 Seed: 1106959653 1209117546 [ Run 70 of 100 GA/GALS ]
Beginning LAMARCKIAN GENETIC ALGORITHM (LGA), with a maximum of 25000000 energy evaluations.

Final-Value: -13.158


	FINAL GENETIC ALGORITHM DOCKED STATE
	_______________________________________________


Detailed state:  trans -6.375 -1.439 -16.763 quatxyzw -0.676571 0.681300 0.236699 -0.148511 center 0.153 0.018 -0.028 ntor 13 -163.2514 60.8235 74.4414 75.0501 55.7478 -50.0206 -43.8200 155.6054 166.3317 -120.5513 72.9169 31.0871 170.4224
State:	 -6.375  -1.439 -16.763  -0.684  0.689  0.239 -162.919   -163.25   60.82   74.44   75.05   55.75  -50.02  -43.82  155.61  166.33 -120.55   72.92   31.09  170.42

DOCKED: MODEL       70
DOCKED: USER    Run = 70
DOCKED: USER    DPF = D:/Protein_go_brrr/autodock/final/AncA/heme/dock.dpf
DOCKED: USER  
DOCKED: USER    Estimated Free Energy of Binding    =   -6.97 kcal/mol  [=(1)+(2)+(3)-(4)]
DOCKED: USER    Estimated Inhibition Constant, Ki   =    7.71 uM (micromolar)  [Temperature = 298.15 K]
DOCKED: USER    
DOCKED: USER    (1) Final Intermolecular Energy     =  -10.85 kcal/mol
DOCKED: USER        vdW + Hbond + desolv Energy     =  -10.17 kcal/mol
DOCKED: USER        Electrostatic Energy            =   -0.68 kcal/mol
DOCKED: USER    (2) Final Total Internal Energy     =   -2.30 kcal/mol
DOCKED: USER    (3) Torsional Free Energy           =   +3.88 kcal/mol
DOCKED: USER    (4) Unbound System's Energy  [=(2)] =   -2.30 kcal/mol
DOCKED: USER    
DOCKED: USER    
DOCKED: USER    NEWDPF move heme_opt.pdbqt
DOCKED: USER    NEWDPF about 0.153000 0.018000 -0.028000
DOCKED: USER    NEWDPF tran0 -6.374875 -1.439453 -16.762857
DOCKED: USER    NEWDPF quaternion0 -0.676571 0.681300 0.236699 -0.148511
DOCKED: USER    NEWDPF axisangle0 -0.684158 0.688939 0.239353 -162.918751
DOCKED: USER    NEWDPF quat0 -0.684158 0.688939 0.239353 -162.918751
DOCKED: USER    NEWDPF dihe0 -163.25 60.82 74.44 75.05 55.75 -50.02 -43.82 155.61 166.33 -120.55 72.92 31.09 170.42 
DOCKED: USER  keepresnum = 1 
DOCKED: USER  
DOCKED: REMARK  13 active torsions:
DOCKED: REMARK  status: ('A' for Active; 'I' for Inactive)
DOCKED: REMARK    1  A    between atoms: O_3  and  C_38 
DOCKED: REMARK    2  A    between atoms: O_4  and  C_40 
DOCKED: REMARK    3  A    between atoms: O_7  and  C_46 
DOCKED: REMARK    4  A    between atoms: O_9  and  C_48 
DOCKED: REMARK    5  A    between atoms: C_15  and  C_20 
DOCKED: REMARK    6  A    between atoms: C_16  and  C_23 
DOCKED: REMARK    7  A    between atoms: C_20  and  C_38 
DOCKED: REMARK    8  A    between atoms: C_23  and  C_40 
DOCKED: REMARK    9  A    between atoms: C_32  and  C_41 
DOCKED: REMARK   10  A    between atoms: C_37  and  C_45 
DOCKED: REMARK   11  A    between atoms: C_41  and  C_44 
DOCKED: REMARK   12  A    between atoms: C_44  and  C_46 
DOCKED: REMARK   13  A    between atoms: C_47  and  C_48 
DOCKED: USER                              x       y       z     vdW  Elec       q    Type
DOCKED: USER                           _______ _______ _______ _____ _____    ______ ____
DOCKED: ROOT
DOCKED: ATOM      1  O   UNL d   1      -7.900   3.632 -14.172 -0.52 -0.03    -0.289 OA
DOCKED: ATOM      2  O   UNL d   1      -1.273   0.130 -14.631 -0.32 +0.01    -0.289 OA
DOCKED: ATOM      3  N   UNL d   1      -7.510   0.565 -15.701 -0.18 +0.05    -0.247 NA
DOCKED: ATOM      4  N   UNL d   1      -4.568   0.149 -15.657 -0.14 +0.01    -0.247 NA
DOCKED: ATOM      5  N   UNL d   1      -4.936  -1.994 -17.538 -0.11 +0.02    -0.354 N 
DOCKED: ATOM      6  N   UNL d   1      -7.984  -1.543 -17.593 -0.06 +0.07    -0.354 N 
DOCKED: ATOM      7  C   UNL d   1      -9.359   2.157 -15.466 -0.19 -0.03    +0.084 A 
DOCKED: ATOM      8  C   UNL d   1      -3.306   1.278 -13.894 -0.26 -0.00    +0.084 A 
DOCKED: ATOM      9  C   UNL d   1      -4.639   1.044 -14.613 -0.24 -0.00    +0.058 A 
DOCKED: ATOM     10  C   UNL d   1      -8.833   0.828 -16.016 -0.23 -0.02    +0.058 A 
DOCKED: ATOM     11  C   UNL d   1      -8.104   2.590 -14.769 -0.17 -0.02    +0.193 A 
DOCKED: ATOM     12  C   UNL d   1      -7.065   1.529 -14.963 -0.24 -0.01    +0.109 A 
DOCKED: ATOM     13  C   UNL d   1      -2.457   0.378 -14.748 -0.20 -0.01    +0.193 A 
DOCKED: ATOM     14  C   UNL d   1      -9.675   3.155 -16.582 -0.08 -0.00    +0.026 C 
DOCKED: ATOM     15  C   UNL d   1      -5.765   1.696 -14.283 -0.30 -0.00    +0.055 C 
DOCKED: ATOM     16  C   UNL d   1      -3.326   0.726 -12.466 -0.57 -0.00    +0.026 C 
DOCKED: ATOM     17  C   UNL d   1      -3.340  -0.240 -15.783 -0.13 -0.01    +0.109 A 
DOCKED: ATOM     18  C   UNL d   1      -9.638  -0.032 -16.667 -0.21 -0.03    +0.050 C 
DOCKED: ATOM     19  C   UNL d   1      -9.263  -1.316 -17.136 -0.18 -0.02    +0.045 A 
DOCKED: ATOM     20  C   UNL d   1      -3.569  -1.888 -17.566 -0.23 -0.00    +0.045 A 
DOCKED: ATOM     21  C   UNL d   1      -2.771  -1.142 -16.795 -0.06 +0.00    +0.057 C 
DOCKED: ATOM     22  C   UNL d   1      -4.228  -3.361 -19.183 -0.27 +0.00    -0.019 A 
DOCKED: ATOM     23  C   UNL d   1      -5.426  -2.860 -18.478 -0.23 -0.01    +0.045 A 
DOCKED: ATOM     24  C   UNL d   1      -3.132  -2.782 -18.637 -0.25 +0.00    -0.022 A 
DOCKED: ATOM     25  C   UNL d   1      -7.866  -2.823 -18.081 -0.19 -0.01    +0.049 A 
DOCKED: ATOM     26  C   UNL d   1      -9.983  -2.490 -17.298 -0.19 +0.01    -0.018 A 
DOCKED: ATOM     27  C   UNL d   1      -9.090  -3.444 -17.877 -0.20 -0.00    +0.003 A 
DOCKED: ATOM     28  C   UNL d   1      -6.683  -3.242 -18.750 -0.25 -0.01    +0.052 C 
DOCKED: ATOM     29  C   UNL d   1      -1.699  -2.976 -18.996 -0.27 -0.01    +0.046 C 
DOCKED: ATOM     30  C   UNL d   1     -11.412  -2.715 -16.936 -0.15 -0.03    +0.046 C 
DOCKED: ATOM     31  H   UNL d   1      -5.485  -1.525 -16.826 +0.07 -0.01    +0.166 HD
DOCKED: ATOM     32  H   UNL d   1      -7.258  -0.837 -17.598 +0.05 -0.02    +0.166 HD
DOCKED: ENDROOT
DOCKED: BRANCH   7  33
DOCKED: ATOM     33  C   UNL d   1     -10.516   2.043 -14.468 +0.08 -0.09    +0.141 C 
DOCKED: BRANCH  33  34
DOCKED: ATOM     34  C   UNL d   1     -11.487   3.188 -14.575 -0.12 -0.10    +0.306 C 
DOCKED: ATOM     35  O   UNL d   1     -12.627   3.128 -15.003 -0.06 +0.07    -0.251 OA
DOCKED: BRANCH  34  36
DOCKED: ATOM     36  O   UNL d   1     -10.971   4.348 -14.133 -0.08 +0.08    -0.481 OA
DOCKED: ATOM     37  H   UNL d   1     -10.006   4.181 -14.070 +0.07 -0.03    +0.295 HD
DOCKED: ENDBRANCH  34  36
DOCKED: ENDBRANCH  33  34
DOCKED: ENDBRANCH   7  33
DOCKED: BRANCH  27  38
DOCKED: ATOM     38  C   UNL d   1      -9.433  -4.790 -18.225 -0.25 -0.01    +0.017 C 
DOCKED: ATOM     39  C   UNL d   1      -8.960  -5.891 -17.621 -0.13 -0.03    +0.092 C 
DOCKED: BRANCH  39  40
DOCKED: ATOM     40  C   UNL d   1      -9.406  -7.215 -18.064 -0.19 -0.16    +0.330 C 
DOCKED: ATOM     41  O   UNL d   1     -10.549  -7.607 -18.202 -0.12 +0.09    -0.246 OA
DOCKED: BRANCH  40  42
DOCKED: ATOM     42  O   UNL d   1      -8.346  -7.994 -18.326 -0.66 +0.23    -0.477 OA
DOCKED: ATOM     43  H   UNL d   1      -8.446  -8.216 -19.275 -0.46 -0.48    +0.295 HD
DOCKED: ENDBRANCH  40  42
DOCKED: ENDBRANCH  39  40
DOCKED: ENDBRANCH  27  38
DOCKED: BRANCH   8  44
DOCKED: ATOM     44  C   UNL d   1      -2.782   2.717 -13.925 -0.13 +0.01    +0.141 C 
DOCKED: BRANCH  44  45
DOCKED: ATOM     45  C   UNL d   1      -1.372   2.848 -13.416 -0.17 +0.01    +0.306 C 
DOCKED: ATOM     46  O   UNL d   1      -1.030   3.019 -12.259 -0.27 -0.01    -0.251 OA
DOCKED: BRANCH  45  47
DOCKED: ATOM     47  O   UNL d   1      -0.460   2.782 -14.403 -0.09 +0.03    -0.481 OA
DOCKED: ATOM     48  H   UNL d   1      -0.049   1.897 -14.302 -0.37 -0.06    +0.295 HD
DOCKED: ENDBRANCH  45  47
DOCKED: ENDBRANCH  44  45
DOCKED: ENDBRANCH   8  44
DOCKED: BRANCH  22  49
DOCKED: ATOM     49  C   UNL d   1      -4.267  -4.336 -20.322 -0.23 -0.02    +0.048 C 
DOCKED: BRANCH  49  50
DOCKED: ATOM     50  C   UNL d   1      -4.448  -3.634 -21.667 -0.12 -0.04    +0.125 C 
DOCKED: BRANCH  50  51
DOCKED: ATOM     51  C   UNL d   1      -5.842  -3.832 -22.192 -0.09 -0.14    +0.305 C 
DOCKED: ATOM     52  O   UNL d   1      -6.488  -3.071 -22.891 -0.03 +0.09    -0.251 OA
DOCKED: BRANCH  51  53
DOCKED: ATOM     53  O   UNL d   1      -6.370  -5.005 -21.790 -0.09 +0.50    -0.481 OA
DOCKED: ATOM     54  H   UNL d   1      -6.336  -5.568 -22.591 -0.15 -0.51    +0.295 HD
DOCKED: ENDBRANCH  51  53
DOCKED: ENDBRANCH  50  51
DOCKED: ENDBRANCH  49  50
DOCKED: ENDBRANCH  22  49
DOCKED: TORSDOF 13
DOCKED: TER
DOCKED: ENDMDL
________________________________________________________________________________


	BEGINNING GENETIC ALGORITHM DOCKING 71 of 100
Run: 71 Seed: 1638206952 883867472 [ Run 71 of 100 GA/GALS ]
Beginning LAMARCKIAN GENETIC ALGORITHM (LGA), with a maximum of 25000000 energy evaluations.

Final-Value: -10.254


	FINAL GENETIC ALGORITHM DOCKED STATE
	_______________________________________________


Detailed state:  trans -12.770 -13.724 -6.347 quatxyzw -0.005725 -0.511223 -0.090748 -0.854624 center 0.153 0.018 -0.028 ntor 13 -171.1445 85.6857 -167.4098 167.9630 39.6457 -37.7236 138.9276 -1.8880 131.7182 -9.5949 109.0825 -67.5806 -166.8710
State:	-12.770 -13.724  -6.347  -0.011 -0.985 -0.175 -62.563   -171.14   85.69 -167.41  167.96   39.65  -37.72  138.93   -1.89  131.72   -9.59  109.08  -67.58 -166.87

DOCKED: MODEL       71
DOCKED: USER    Run = 71
DOCKED: USER    DPF = D:/Protein_go_brrr/autodock/final/AncA/heme/dock.dpf
DOCKED: USER  
DOCKED: USER    Estimated Free Energy of Binding    =   -3.94 kcal/mol  [=(1)+(2)+(3)-(4)]
DOCKED: USER    Estimated Inhibition Constant, Ki   =    1.29 mM (millimolar)  [Temperature = 298.15 K]
DOCKED: USER    
DOCKED: USER    (1) Final Intermolecular Energy     =   -7.82 kcal/mol
DOCKED: USER        vdW + Hbond + desolv Energy     =   -7.74 kcal/mol
DOCKED: USER        Electrostatic Energy            =   -0.08 kcal/mol
DOCKED: USER    (2) Final Total Internal Energy     =   -2.43 kcal/mol
DOCKED: USER    (3) Torsional Free Energy           =   +3.88 kcal/mol
DOCKED: USER    (4) Unbound System's Energy  [=(2)] =   -2.43 kcal/mol
DOCKED: USER    
DOCKED: USER    
DOCKED: USER    NEWDPF move heme_opt.pdbqt
DOCKED: USER    NEWDPF about 0.153000 0.018000 -0.028000
DOCKED: USER    NEWDPF tran0 -12.769782 -13.724053 -6.346523
DOCKED: USER    NEWDPF quaternion0 -0.005725 -0.511223 -0.090748 -0.854624
DOCKED: USER    NEWDPF axisangle0 -0.011026 -0.984548 -0.174768 -62.563471
DOCKED: USER    NEWDPF quat0 -0.011026 -0.984548 -0.174768 -62.563471
DOCKED: USER    NEWDPF dihe0 -171.14 85.69 -167.41 167.96 39.65 -37.72 138.93 -1.89 131.72 -9.59 109.08 -67.58 -166.87 
DOCKED: USER  keepresnum = 1 
DOCKED: USER  
DOCKED: REMARK  13 active torsions:
DOCKED: REMARK  status: ('A' for Active; 'I' for Inactive)
DOCKED: REMARK    1  A    between atoms: O_3  and  C_38 
DOCKED: REMARK    2  A    between atoms: O_4  and  C_40 
DOCKED: REMARK    3  A    between atoms: O_7  and  C_46 
DOCKED: REMARK    4  A    between atoms: O_9  and  C_48 
DOCKED: REMARK    5  A    between atoms: C_15  and  C_20 
DOCKED: REMARK    6  A    between atoms: C_16  and  C_23 
DOCKED: REMARK    7  A    between atoms: C_20  and  C_38 
DOCKED: REMARK    8  A    between atoms: C_23  and  C_40 
DOCKED: REMARK    9  A    between atoms: C_32  and  C_41 
DOCKED: REMARK   10  A    between atoms: C_37  and  C_45 
DOCKED: REMARK   11  A    between atoms: C_41  and  C_44 
DOCKED: REMARK   12  A    between atoms: C_44  and  C_46 
DOCKED: REMARK   13  A    between atoms: C_47  and  C_48 
DOCKED: USER                              x       y       z     vdW  Elec       q    Type
DOCKED: USER                           _______ _______ _______ _____ _____    ______ ____
DOCKED: ROOT
DOCKED: ATOM      1  O   UNL d   1     -15.649 -11.159 -10.806 -0.14 -0.08    -0.289 OA
DOCKED: ATOM      2  O   UNL d   1     -13.396 -18.255  -9.827 -0.03 -0.08    -0.289 OA
DOCKED: ATOM      3  N   UNL d   1     -13.848 -12.184  -8.049 -0.15 +0.01    -0.247 NA
DOCKED: ATOM      4  N   UNL d   1     -13.692 -15.131  -8.391 -0.10 -0.02    -0.247 NA
DOCKED: ATOM      5  N   UNL d   1     -12.804 -15.308  -5.663 -0.04 -0.08    -0.354 N 
DOCKED: ATOM      6  N   UNL d   1     -12.988 -12.252  -5.310 -0.11 -0.04    -0.354 N 
DOCKED: ATOM      7  C   UNL d   1     -14.947 -10.098  -8.719 -0.27 -0.00    +0.084 A 
DOCKED: ATOM      8  C   UNL d   1     -13.843 -16.001 -10.670 -0.17 +0.03    +0.084 A 
DOCKED: ATOM      9  C   UNL d   1     -13.913 -14.808  -9.711 -0.14 +0.01    +0.058 A 
DOCKED: ATOM     10  C   UNL d   1     -14.135 -10.879  -7.682 -0.06 -0.01    +0.058 A 
DOCKED: ATOM     11  C   UNL d   1     -15.053 -11.186  -9.745 -0.19 +0.02    +0.193 A 
DOCKED: ATOM     12  C   UNL d   1     -14.325 -12.390  -9.233 -0.25 +0.01    +0.109 A 
DOCKED: ATOM     13  C   UNL d   1     -13.579 -17.067  -9.645 -0.07 +0.05    +0.193 A 
DOCKED: ATOM     14  C   UNL d   1     -16.351  -9.757  -8.212 -0.20 +0.00    +0.026 C 
DOCKED: ATOM     15  C   UNL d   1     -14.215 -13.566 -10.120 -0.31 +0.01    +0.055 C 
DOCKED: ATOM     16  C   UNL d   1     -12.635 -15.907 -11.606 -0.32 +0.01    +0.026 C 
DOCKED: ATOM     17  C   UNL d   1     -13.518 -16.411  -8.304 -0.09 +0.02    +0.109 A 
DOCKED: ATOM     18  C   UNL d   1     -13.676 -10.293  -6.560 -0.39 -0.00    +0.050 C 
DOCKED: ATOM     19  C   UNL d   1     -12.849 -10.911  -5.588 -0.40 +0.00    +0.045 A 
DOCKED: ATOM     20  C   UNL d   1     -13.012 -16.637  -5.929 -0.06 +0.01    +0.045 A 
DOCKED: ATOM     21  C   UNL d   1     -13.312 -17.221  -7.094 -0.07 +0.01    +0.057 C 
DOCKED: ATOM     22  C   UNL d   1     -12.538 -16.396  -3.708 -0.05 -0.01    -0.019 A 
DOCKED: ATOM     23  C   UNL d   1     -12.512 -15.065  -4.347 -0.10 +0.01    +0.045 A 
DOCKED: ATOM     24  C   UNL d   1     -12.833 -17.322  -4.650 -0.03 -0.01    -0.022 A 
DOCKED: ATOM     25  C   UNL d   1     -12.155 -12.619  -4.278 -0.23 +0.01    +0.049 A 
DOCKED: ATOM     26  C   UNL d   1     -11.876 -10.402  -4.742 -0.45 -0.00    -0.018 A 
DOCKED: ATOM     27  C   UNL d   1     -11.428 -11.490  -3.930 -0.32 +0.00    +0.003 A 
DOCKED: ATOM     28  C   UNL d   1     -12.232 -13.919  -3.707 -0.19 +0.01    +0.052 C 
DOCKED: ATOM     29  C   UNL d   1     -12.961 -18.800  -4.497 -0.01 +0.01    +0.046 C 
DOCKED: ATOM     30  C   UNL d   1     -11.390  -8.994  -4.689 -0.35 +0.01    +0.046 C 
DOCKED: ATOM     31  H   UNL d   1     -12.796 -14.618  -6.405 +0.05 +0.03    +0.166 HD
DOCKED: ATOM     32  H   UNL d   1     -13.648 -12.857  -5.783 +0.07 +0.02    +0.166 HD
DOCKED: ENDROOT
DOCKED: BRANCH   7  33
DOCKED: ATOM     33  C   UNL d   1     -14.249  -8.868  -9.309 -0.16 -0.03    +0.141 C 
DOCKED: BRANCH  33  34
DOCKED: ATOM     34  C   UNL d   1     -15.094  -8.156 -10.330 -0.15 -0.04    +0.306 C 
DOCKED: ATOM     35  O   UNL d   1     -15.836  -7.212 -10.118 -0.20 +0.02    -0.251 OA
DOCKED: BRANCH  34  36
DOCKED: ATOM     36  O   UNL d   1     -14.958  -8.670 -11.565 -0.12 +0.01    -0.481 OA
DOCKED: ATOM     37  H   UNL d   1     -14.397  -9.465 -11.441 -0.00 +0.02    +0.295 HD
DOCKED: ENDBRANCH  34  36
DOCKED: ENDBRANCH  33  34
DOCKED: ENDBRANCH   7  33
DOCKED: BRANCH  27  38
DOCKED: ATOM     38  C   UNL d   1     -10.432 -11.398  -2.905 -0.37 +0.00    +0.017 C 
DOCKED: ATOM     39  C   UNL d   1     -10.394 -12.150  -1.794 -0.26 +0.03    +0.092 C 
DOCKED: BRANCH  39  40
DOCKED: ATOM     40  C   UNL d   1      -9.308 -11.969  -0.827 -0.19 +0.18    +0.330 C 
DOCKED: ATOM     41  O   UNL d   1      -8.131 -11.769  -1.060 -0.18 -0.17    -0.246 OA
DOCKED: BRANCH  40  42
DOCKED: ATOM     42  O   UNL d   1      -9.786 -12.044   0.424 -0.62 -0.29    -0.477 OA
DOCKED: ATOM     43  H   UNL d   1      -9.956 -11.110   0.667 +0.17 +0.14    +0.295 HD
DOCKED: ENDBRANCH  40  42
DOCKED: ENDBRANCH  39  40
DOCKED: ENDBRANCH  27  38
DOCKED: BRANCH   8  44
DOCKED: ATOM     44  C   UNL d   1     -15.128 -16.297 -11.451 -0.10 +0.06    +0.141 C 
DOCKED: BRANCH  44  45
DOCKED: ATOM     45  C   UNL d   1     -16.309 -16.589 -10.564 -0.00 +0.09    +0.306 C 
DOCKED: ATOM     46  O   UNL d   1     -17.151 -15.791 -10.191 -0.01 -0.06    -0.251 OA
DOCKED: BRANCH  45  47
DOCKED: ATOM     47  O   UNL d   1     -16.351 -17.874 -10.168 +0.01 -0.12    -0.481 OA
DOCKED: ATOM     48  H   UNL d   1     -15.476 -18.239 -10.419 +0.02 +0.08    +0.295 HD
DOCKED: ENDBRANCH  45  47
DOCKED: ENDBRANCH  44  45
DOCKED: ENDBRANCH   8  44
DOCKED: BRANCH  22  49
DOCKED: ATOM     49  C   UNL d   1     -12.289 -16.634  -2.247 -0.06 +0.01    +0.048 C 
DOCKED: BRANCH  49  50
DOCKED: ATOM     50  C   UNL d   1     -13.564 -17.048  -1.513 -0.06 +0.03    +0.125 C 
DOCKED: BRANCH  50  51
DOCKED: ATOM     51  C   UNL d   1     -14.523 -15.897  -1.412 -0.10 +0.05    +0.305 C 
DOCKED: ATOM     52  O   UNL d   1     -14.322 -14.733  -1.711 -0.17 -0.03    -0.251 OA
DOCKED: BRANCH  51  53
DOCKED: ATOM     53  O   UNL d   1     -15.717 -16.278  -0.916 -0.06 -0.08    -0.481 OA
DOCKED: ATOM     54  H   UNL d   1     -15.687 -17.257  -0.947 +0.04 +0.05    +0.295 HD
DOCKED: ENDBRANCH  51  53
DOCKED: ENDBRANCH  50  51
DOCKED: ENDBRANCH  49  50
DOCKED: ENDBRANCH  22  49
DOCKED: TORSDOF 13
DOCKED: TER
DOCKED: ENDMDL
________________________________________________________________________________


	BEGINNING GENETIC ALGORITHM DOCKING 72 of 100
Run: 72 Seed: 770289362 1340258486 [ Run 72 of 100 GA/GALS ]
Beginning LAMARCKIAN GENETIC ALGORITHM (LGA), with a maximum of 25000000 energy evaluations.

Final-Value: -12.294


	FINAL GENETIC ALGORITHM DOCKED STATE
	_______________________________________________


Detailed state:  trans 13.559 -2.552 -14.201 quatxyzw 0.236491 0.933896 0.268047 -0.007775 center 0.153 0.018 -0.028 ntor 13 179.4061 -167.9578 -82.0311 6.7257 -133.3525 -138.1241 160.2917 37.1122 -129.7123 -97.1062 -65.4029 25.5310 28.3291
State:	 13.559  -2.552 -14.201   0.236  0.934  0.268 -179.109    179.41 -167.96  -82.03    6.73 -133.35 -138.12  160.29   37.11 -129.71  -97.11  -65.40   25.53   28.33

DOCKED: MODEL       72
DOCKED: USER    Run = 72
DOCKED: USER    DPF = D:/Protein_go_brrr/autodock/final/AncA/heme/dock.dpf
DOCKED: USER  
DOCKED: USER    Estimated Free Energy of Binding    =   -5.53 kcal/mol  [=(1)+(2)+(3)-(4)]
DOCKED: USER    Estimated Inhibition Constant, Ki   =   88.03 uM (micromolar)  [Temperature = 298.15 K]
DOCKED: USER    
DOCKED: USER    (1) Final Intermolecular Energy     =   -9.41 kcal/mol
DOCKED: USER        vdW + Hbond + desolv Energy     =   -8.80 kcal/mol
DOCKED: USER        Electrostatic Energy            =   -0.61 kcal/mol
DOCKED: USER    (2) Final Total Internal Energy     =   -2.88 kcal/mol
DOCKED: USER    (3) Torsional Free Energy           =   +3.88 kcal/mol
DOCKED: USER    (4) Unbound System's Energy  [=(2)] =   -2.88 kcal/mol
DOCKED: USER    
DOCKED: USER    
DOCKED: USER    NEWDPF move heme_opt.pdbqt
DOCKED: USER    NEWDPF about 0.153000 0.018000 -0.028000
DOCKED: USER    NEWDPF tran0 13.558661 -2.551644 -14.200569
DOCKED: USER    NEWDPF quaternion0 0.236491 0.933896 0.268047 -0.007775
DOCKED: USER    NEWDPF axisangle0 0.236498 0.933925 0.268055 -179.109066
DOCKED: USER    NEWDPF quat0 0.236498 0.933925 0.268055 -179.109066
DOCKED: USER    NEWDPF dihe0 179.41 -167.96 -82.03 6.73 -133.35 -138.12 160.29 37.11 -129.71 -97.11 -65.40 25.53 28.33 
DOCKED: USER  keepresnum = 1 
DOCKED: USER  
DOCKED: REMARK  13 active torsions:
DOCKED: REMARK  status: ('A' for Active; 'I' for Inactive)
DOCKED: REMARK    1  A    between atoms: O_3  and  C_38 
DOCKED: REMARK    2  A    between atoms: O_4  and  C_40 
DOCKED: REMARK    3  A    between atoms: O_7  and  C_46 
DOCKED: REMARK    4  A    between atoms: O_9  and  C_48 
DOCKED: REMARK    5  A    between atoms: C_15  and  C_20 
DOCKED: REMARK    6  A    between atoms: C_16  and  C_23 
DOCKED: REMARK    7  A    between atoms: C_20  and  C_38 
DOCKED: REMARK    8  A    between atoms: C_23  and  C_40 
DOCKED: REMARK    9  A    between atoms: C_32  and  C_41 
DOCKED: REMARK   10  A    between atoms: C_37  and  C_45 
DOCKED: REMARK   11  A    between atoms: C_41  and  C_44 
DOCKED: REMARK   12  A    between atoms: C_44  and  C_46 
DOCKED: REMARK   13  A    between atoms: C_47  and  C_48 
DOCKED: USER                              x       y       z     vdW  Elec       q    Type
DOCKED: USER                           _______ _______ _______ _____ _____    ______ ____
DOCKED: ROOT
DOCKED: ATOM      1  O   UNL d   1      19.372  -3.474 -14.533 -0.01 +0.00    -0.289 OA
DOCKED: ATOM      2  O   UNL d   1      13.575  -8.129 -15.591 -0.12 +0.01    -0.289 OA
DOCKED: ATOM      3  N   UNL d   1      16.092  -2.504 -14.090 -0.12 +0.06    -0.247 NA
DOCKED: ATOM      4  N   UNL d   1      14.549  -4.869 -15.014 +0.07 +0.05    -0.247 NA
DOCKED: ATOM      5  N   UNL d   1      12.199  -3.212 -15.035 -0.07 +0.04    -0.354 N 
DOCKED: ATOM      6  N   UNL d   1      13.811  -0.759 -14.094 -0.10 +0.03    -0.354 N 
DOCKED: ATOM      7  C   UNL d   1      18.255  -1.352 -14.060 -0.08 -0.01    +0.084 A 
DOCKED: ATOM      8  C   UNL d   1      15.650  -7.046 -14.876 -0.13 +0.00    +0.084 A 
DOCKED: ATOM      9  C   UNL d   1      15.727  -5.523 -14.728 -0.14 -0.00    +0.058 A 
DOCKED: ATOM     10  C   UNL d   1      16.731  -1.285 -13.930 -0.15 -0.02    +0.058 A 
DOCKED: ATOM     11  C   UNL d   1      18.367  -2.827 -14.304 -0.05 -0.01    +0.193 A 
DOCKED: ATOM     12  C   UNL d   1      16.991  -3.416 -14.272 -0.12 -0.01    +0.109 A 
DOCKED: ATOM     13  C   UNL d   1      14.222  -7.132 -15.335 -0.12 -0.00    +0.193 A 
DOCKED: ATOM     14  C   UNL d   1      18.759  -0.606 -15.299 -0.03 +0.00    +0.026 C 
DOCKED: ATOM     15  C   UNL d   1      16.858  -4.881 -14.398 -0.14 -0.00    +0.055 C 
DOCKED: ATOM     16  C   UNL d   1      15.776  -7.755 -13.524 -0.17 +0.00    +0.026 C 
DOCKED: ATOM     17  C   UNL d   1      13.671  -5.744 -15.385 -0.16 -0.01    +0.109 A 
DOCKED: ATOM     18  C   UNL d   1      16.103  -0.142 -13.598 -0.12 -0.02    +0.050 C 
DOCKED: ATOM     19  C   UNL d   1      14.709  -0.004 -13.373 -0.26 -0.01    +0.045 A 
DOCKED: ATOM     20  C   UNL d   1      11.708  -4.325 -15.666 -0.19 -0.00    +0.045 A 
DOCKED: ATOM     21  C   UNL d   1      12.294  -5.513 -15.846 -0.22 -0.00    +0.057 C 
DOCKED: ATOM     22  C   UNL d   1      10.133  -2.673 -15.751 -0.13 +0.00    -0.019 A 
DOCKED: ATOM     23  C   UNL d   1      11.320  -2.162 -15.036 -0.15 -0.00    +0.045 A 
DOCKED: ATOM     24  C   UNL d   1      10.369  -3.954 -16.120 -0.15 +0.00    -0.022 A 
DOCKED: ATOM     25  C   UNL d   1      12.520  -0.401 -13.783 -0.25 +0.00    +0.049 A 
DOCKED: ATOM     26  C   UNL d   1      13.983   0.838 -12.545 -0.44 +0.00    -0.018 A 
DOCKED: ATOM     27  C   UNL d   1      12.602   0.569 -12.794 -0.42 +0.00    +0.003 A 
DOCKED: ATOM     28  C   UNL d   1      11.421  -0.931 -14.512 -0.19 +0.00    +0.052 C 
DOCKED: ATOM     29  C   UNL d   1       9.472  -4.894 -16.852 -0.05 -0.01    +0.046 C 
DOCKED: ATOM     30  C   UNL d   1      14.536   1.831 -11.580 -0.53 +0.01    +0.046 C 
DOCKED: ATOM     31  H   UNL d   1      13.094  -3.230 -14.558 -0.28 -0.06    +0.166 HD
DOCKED: ATOM     32  H   UNL d   1      14.086  -1.447 -14.785 +0.03 -0.02    +0.166 HD
DOCKED: ENDROOT
DOCKED: BRANCH   7  33
DOCKED: ATOM     33  C   UNL d   1      19.040  -0.953 -12.806 -0.10 -0.03    +0.141 C 
DOCKED: BRANCH  33  34
DOCKED: ATOM     34  C   UNL d   1      19.192   0.538 -12.667 -0.07 +0.01    +0.306 C 
DOCKED: ATOM     35  O   UNL d   1      19.993   1.239 -13.261 -0.02 -0.03    -0.251 OA
DOCKED: BRANCH  34  36
DOCKED: ATOM     36  O   UNL d   1      18.323   1.068 -11.788 -0.16 -0.15    -0.481 OA
DOCKED: ATOM     37  H   UNL d   1      17.769   0.310 -11.501 -0.32 -0.23    +0.295 HD
DOCKED: ENDBRANCH  34  36
DOCKED: ENDBRANCH  33  34
DOCKED: ENDBRANCH   7  33
DOCKED: BRANCH  27  38
DOCKED: ATOM     38  C   UNL d   1      11.504   1.233 -12.157 -0.54 +0.00    +0.017 C 
DOCKED: ATOM     39  C   UNL d   1      10.586   0.639 -11.379 -0.50 +0.00    +0.092 C 
DOCKED: BRANCH  39  40
DOCKED: ATOM     40  C   UNL d   1       9.519   1.438 -10.771 -0.21 +0.05    +0.330 C 
DOCKED: ATOM     41  O   UNL d   1       9.059   1.333  -9.650 -0.23 -0.03    -0.246 OA
DOCKED: BRANCH  40  42
DOCKED: ATOM     42  O   UNL d   1       9.083   2.364 -11.639 -0.12 -0.10    -0.477 OA
DOCKED: ATOM     43  H   UNL d   1       9.483   2.094 -12.491 -0.26 +0.00    +0.295 HD
DOCKED: ENDBRANCH  40  42
DOCKED: ENDBRANCH  39  40
DOCKED: ENDBRANCH  27  38
DOCKED: BRANCH   8  44
DOCKED: ATOM     44  C   UNL d   1      16.598  -7.657 -15.913 -0.03 +0.01    +0.141 C 
DOCKED: BRANCH  44  45
DOCKED: ATOM     45  C   UNL d   1      16.027  -8.869 -16.598 -0.01 +0.02    +0.306 C 
DOCKED: ATOM     46  O   UNL d   1      15.765  -8.978 -17.783 -0.00 -0.02    -0.251 OA
DOCKED: BRANCH  45  47
DOCKED: ATOM     47  O   UNL d   1      15.789  -9.880 -15.743 -0.00 -0.04    -0.481 OA
DOCKED: ATOM     48  H   UNL d   1      14.835  -9.804 -15.529 +0.04 +0.02    +0.295 HD
DOCKED: ENDBRANCH  45  47
DOCKED: ENDBRANCH  44  45
DOCKED: ENDBRANCH   8  44
DOCKED: BRANCH  22  49
DOCKED: ATOM     49  C   UNL d   1       8.897  -1.864 -16.017 -0.13 -0.00    +0.048 C 
DOCKED: BRANCH  49  50
DOCKED: ATOM     50  C   UNL d   1       8.309  -1.284 -14.731 -0.18 +0.00    +0.125 C 
DOCKED: BRANCH  50  51
DOCKED: ATOM     51  C   UNL d   1       8.372   0.217 -14.742 -0.12 +0.12    +0.305 C 
DOCKED: ATOM     52  O   UNL d   1       8.310   0.956 -15.709 -0.34 -0.23    -0.251 OA
DOCKED: BRANCH  51  53
DOCKED: ATOM     53  O   UNL d   1       8.526   0.725 -13.503 -0.10 -0.16    -0.481 OA
DOCKED: ATOM     54  H   UNL d   1       8.449   1.693 -13.631 -0.41 +0.15    +0.295 HD
DOCKED: ENDBRANCH  51  53
DOCKED: ENDBRANCH  50  51
DOCKED: ENDBRANCH  49  50
DOCKED: ENDBRANCH  22  49
DOCKED: TORSDOF 13
DOCKED: TER
DOCKED: ENDMDL
________________________________________________________________________________


	BEGINNING GENETIC ALGORITHM DOCKING 73 of 100
Run: 73 Seed: 1450878210 703867450 [ Run 73 of 100 GA/GALS ]
Beginning LAMARCKIAN GENETIC ALGORITHM (LGA), with a maximum of 25000000 energy evaluations.

Final-Value: -12.802


	FINAL GENETIC ALGORITHM DOCKED STATE
	_______________________________________________


Detailed state:  trans -6.832 -1.027 -16.531 quatxyzw 0.665045 0.654976 0.282388 0.221311 center 0.153 0.018 -0.028 ntor 13 178.3201 177.2994 120.2612 -7.2339 48.7292 -34.9953 138.0089 120.7345 152.6092 -146.9319 70.6901 -37.9077 131.8203
State:	 -6.832  -1.027 -16.531   0.682  0.672  0.290 154.428    178.32  177.30  120.26   -7.23   48.73  -35.00  138.01  120.73  152.61 -146.93   70.69  -37.91  131.82

DOCKED: MODEL       73
DOCKED: USER    Run = 73
DOCKED: USER    DPF = D:/Protein_go_brrr/autodock/final/AncA/heme/dock.dpf
DOCKED: USER  
DOCKED: USER    Estimated Free Energy of Binding    =   -5.85 kcal/mol  [=(1)+(2)+(3)-(4)]
DOCKED: USER    Estimated Inhibition Constant, Ki   =   51.80 uM (micromolar)  [Temperature = 298.15 K]
DOCKED: USER    
DOCKED: USER    (1) Final Intermolecular Energy     =   -9.72 kcal/mol
DOCKED: USER        vdW + Hbond + desolv Energy     =   -9.13 kcal/mol
DOCKED: USER        Electrostatic Energy            =   -0.60 kcal/mol
DOCKED: USER    (2) Final Total Internal Energy     =   -3.08 kcal/mol
DOCKED: USER    (3) Torsional Free Energy           =   +3.88 kcal/mol
DOCKED: USER    (4) Unbound System's Energy  [=(2)] =   -3.08 kcal/mol
DOCKED: USER    
DOCKED: USER    
DOCKED: USER    NEWDPF move heme_opt.pdbqt
DOCKED: USER    NEWDPF about 0.153000 0.018000 -0.028000
DOCKED: USER    NEWDPF tran0 -6.831832 -1.027020 -16.530858
DOCKED: USER    NEWDPF quaternion0 0.665045 0.654976 0.282388 0.221311
DOCKED: USER    NEWDPF axisangle0 0.681955 0.671630 0.289569 154.427864
DOCKED: USER    NEWDPF quat0 0.681955 0.671630 0.289569 154.427864
DOCKED: USER    NEWDPF dihe0 178.32 177.30 120.26 -7.23 48.73 -35.00 138.01 120.73 152.61 -146.93 70.69 -37.91 131.82 
DOCKED: USER  keepresnum = 1 
DOCKED: USER  
DOCKED: REMARK  13 active torsions:
DOCKED: REMARK  status: ('A' for Active; 'I' for Inactive)
DOCKED: REMARK    1  A    between atoms: O_3  and  C_38 
DOCKED: REMARK    2  A    between atoms: O_4  and  C_40 
DOCKED: REMARK    3  A    between atoms: O_7  and  C_46 
DOCKED: REMARK    4  A    between atoms: O_9  and  C_48 
DOCKED: REMARK    5  A    between atoms: C_15  and  C_20 
DOCKED: REMARK    6  A    between atoms: C_16  and  C_23 
DOCKED: REMARK    7  A    between atoms: C_20  and  C_38 
DOCKED: REMARK    8  A    between atoms: C_23  and  C_40 
DOCKED: REMARK    9  A    between atoms: C_32  and  C_41 
DOCKED: REMARK   10  A    between atoms: C_37  and  C_45 
DOCKED: REMARK   11  A    between atoms: C_41  and  C_44 
DOCKED: REMARK   12  A    between atoms: C_44  and  C_46 
DOCKED: REMARK   13  A    between atoms: C_47  and  C_48 
DOCKED: USER                              x       y       z     vdW  Elec       q    Type
DOCKED: USER                           _______ _______ _______ _____ _____    ______ ____
DOCKED: ROOT
DOCKED: ATOM      1  O   UNL d   1      -4.996  -4.858 -20.619 -0.16 +0.16    -0.289 OA
DOCKED: ATOM      2  O   UNL d   1     -11.748  -3.845 -17.493 -0.05 +0.11    -0.289 OA
DOCKED: ATOM      3  N   UNL d   1      -5.573  -2.543 -18.128 -0.14 +0.03    -0.247 NA
DOCKED: ATOM      4  N   UNL d   1      -8.519  -2.657 -17.759 -0.11 +0.06    -0.247 NA
DOCKED: ATOM      5  N   UNL d   1      -8.331  -0.221 -16.244 -0.13 +0.12    -0.354 N 
DOCKED: ATOM      6  N   UNL d   1      -5.277  -0.100 -16.648 -0.06 +0.02    -0.354 N 
DOCKED: ATOM      7  C   UNL d   1      -3.663  -3.104 -19.558 -0.18 -0.01    +0.084 A 
DOCKED: ATOM      8  C   UNL d   1      -9.640  -4.746 -18.350 -0.17 -0.03    +0.084 A 
DOCKED: ATOM      9  C   UNL d   1      -8.359  -3.906 -18.315 -0.22 -0.02    +0.058 A 
DOCKED: ATOM     10  C   UNL d   1      -4.263  -2.232 -18.451 -0.19 -0.01    +0.058 A 
DOCKED: ATOM     11  C   UNL d   1      -4.861  -3.975 -19.791 -0.18 -0.06    +0.193 A 
DOCKED: ATOM     12  C   UNL d   1      -5.943  -3.553 -18.846 -0.20 -0.02    +0.109 A 
DOCKED: ATOM     13  C   UNL d   1     -10.565  -3.728 -17.747 -0.08 -0.07    +0.193 A 
DOCKED: ATOM     14  C   UNL d   1      -3.380  -2.302 -20.831 -0.07 -0.00    +0.026 C 
DOCKED: ATOM     15  C   UNL d   1      -7.195  -4.335 -18.828 -0.22 -0.02    +0.055 C 
DOCKED: ATOM     16  C   UNL d   1      -9.555  -5.952 -17.410 -0.26 -0.01    +0.026 C 
DOCKED: ATOM     17  C   UNL d   1      -9.764  -2.504 -17.440 -0.15 -0.04    +0.109 A 
DOCKED: ATOM     18  C   UNL d   1      -3.524  -1.310 -17.805 -0.20 -0.00    +0.050 C 
DOCKED: ATOM     19  C   UNL d   1      -3.968  -0.518 -16.715 -0.19 -0.00    +0.045 A 
DOCKED: ATOM     20  C   UNL d   1      -9.692  -0.313 -16.373 -0.22 -0.03    +0.045 A 
DOCKED: ATOM     21  C   UNL d   1     -10.420  -1.315 -16.876 -0.19 -0.04    +0.057 C 
DOCKED: ATOM     22  C   UNL d   1      -9.176   1.697 -15.419 -0.25 +0.01    -0.019 A 
DOCKED: ATOM     23  C   UNL d   1      -7.924   0.958 -15.678 -0.26 -0.01    +0.045 A 
DOCKED: ATOM     24  C   UNL d   1     -10.219   0.939 -15.831 -0.21 +0.02    -0.022 A 
DOCKED: ATOM     25  C   UNL d   1      -5.465   0.726 -15.564 -0.19 -0.00    +0.049 A 
DOCKED: ATOM     26  C   UNL d   1      -3.296   0.019 -15.627 -0.21 +0.00    -0.018 A 
DOCKED: ATOM     27  C   UNL d   1      -4.252   0.788 -14.893 -0.25 -0.00    +0.003 A 
DOCKED: ATOM     28  C   UNL d   1      -6.697   1.409 -15.373 -0.25 -0.01    +0.052 C 
DOCKED: ATOM     29  C   UNL d   1     -11.677   1.245 -15.770 -0.15 -0.04    +0.046 C 
DOCKED: ATOM     30  C   UNL d   1      -1.857  -0.170 -15.287 -0.24 -0.00    +0.046 C 
DOCKED: ATOM     31  H   UNL d   1      -7.726  -1.000 -16.479 +0.06 -0.04    +0.166 HD
DOCKED: ATOM     32  H   UNL d   1      -5.980  -0.344 -17.336 +0.05 -0.01    +0.166 HD
DOCKED: ENDROOT
DOCKED: BRANCH   7  33
DOCKED: ATOM     33  C   UNL d   1      -2.454  -3.950 -19.146 -0.28 -0.04    +0.141 C 
DOCKED: BRANCH  33  34
DOCKED: ATOM     34  C   UNL d   1      -1.626  -4.390 -20.323 -0.17 -0.06    +0.306 C 
DOCKED: ATOM     35  O   UNL d   1      -0.562  -3.910 -20.674 -0.09 +0.03    -0.251 OA
DOCKED: BRANCH  34  36
DOCKED: ATOM     36  O   UNL d   1      -2.183  -5.414 -20.994 -0.09 +0.18    -0.481 OA
DOCKED: ATOM     37  H   UNL d   1      -2.979  -5.648 -20.472 -0.37 -0.21    +0.295 HD
DOCKED: ENDBRANCH  34  36
DOCKED: ENDBRANCH  33  34
DOCKED: ENDBRANCH   7  33
DOCKED: BRANCH  27  38
DOCKED: ATOM     38  C   UNL d   1      -3.973   1.529 -13.700 -0.34 -0.00    +0.017 C 
DOCKED: ATOM     39  C   UNL d   1      -4.863   2.270 -13.023 -0.34 -0.00    +0.092 C 
DOCKED: BRANCH  39  40
DOCKED: ATOM     40  C   UNL d   1      -4.454   2.968 -11.802 -0.24 +0.03    +0.330 C 
DOCKED: ATOM     41  O   UNL d   1      -3.682   2.579 -10.947 -0.35 -0.02    -0.246 OA
DOCKED: BRANCH  40  42
DOCKED: ATOM     42  O   UNL d   1      -5.056   4.165 -11.730 -0.08 -0.11    -0.477 OA
DOCKED: ATOM     43  H   UNL d   1      -5.565   4.223 -12.565 +0.14 +0.06    +0.295 HD
DOCKED: ENDBRANCH  40  42
DOCKED: ENDBRANCH  39  40
DOCKED: ENDBRANCH  27  38
DOCKED: BRANCH   8  44
DOCKED: ATOM     44  C   UNL d   1     -10.118  -5.163 -19.745 -0.11 -0.08    +0.141 C 
DOCKED: BRANCH  44  45
DOCKED: ATOM     45  C   UNL d   1     -11.119  -6.287 -19.719 -0.05 -0.17    +0.306 C 
DOCKED: ATOM     46  O   UNL d   1     -12.333  -6.180 -19.718 -0.02 +0.07    -0.251 OA
DOCKED: BRANCH  45  47
DOCKED: ATOM     47  O   UNL d   1     -10.532  -7.497 -19.669 +0.02 +0.47    -0.481 OA
DOCKED: ATOM     48  H   UNL d   1      -9.994  -7.546 -20.487 -0.51 -0.70    +0.295 HD
DOCKED: ENDBRANCH  45  47
DOCKED: ENDBRANCH  44  45
DOCKED: ENDBRANCH   8  44
DOCKED: BRANCH  22  49
DOCKED: ATOM     49  C   UNL d   1      -9.234   3.068 -14.812 -0.20 -0.01    +0.048 C 
DOCKED: BRANCH  49  50
DOCKED: ATOM     50  C   UNL d   1      -8.262   4.033 -15.490 -0.12 +0.00    +0.125 C 
DOCKED: BRANCH  50  51
DOCKED: ATOM     51  C   UNL d   1      -7.105   4.352 -14.586 -0.10 +0.04    +0.305 C 
DOCKED: ATOM     52  O   UNL d   1      -5.932   4.066 -14.751 -0.07 -0.02    -0.251 OA
DOCKED: BRANCH  51  53
DOCKED: ATOM     53  O   UNL d   1      -7.497   5.023 -13.484 -0.57 -0.21    -0.481 OA
DOCKED: ATOM     54  H   UNL d   1      -6.690   5.058 -12.928 +0.10 +0.10    +0.295 HD
DOCKED: ENDBRANCH  51  53
DOCKED: ENDBRANCH  50  51
DOCKED: ENDBRANCH  49  50
DOCKED: ENDBRANCH  22  49
DOCKED: TORSDOF 13
DOCKED: TER
DOCKED: ENDMDL
________________________________________________________________________________


	BEGINNING GENETIC ALGORITHM DOCKING 74 of 100
Run: 74 Seed: 1622414751 440993057 [ Run 74 of 100 GA/GALS ]
Beginning LAMARCKIAN GENETIC ALGORITHM (LGA), with a maximum of 25000000 energy evaluations.

Final-Value: -11.560


	FINAL GENETIC ALGORITHM DOCKED STATE
	_______________________________________________


Detailed state:  trans 8.145 -7.052 9.721 quatxyzw 0.549853 0.438609 -0.216199 -0.677157 center 0.153 0.018 -0.028 ntor 13 -180.0000 -165.9293 -115.6284 28.9210 -155.3859 -110.8133 167.6153 49.9611 7.9227 24.0717 -71.8290 71.5292 19.1597
State:	  8.145  -7.052   9.721   0.747  0.596 -0.294 -94.756   -180.00 -165.93 -115.63   28.92 -155.39 -110.81  167.62   49.96    7.92   24.07  -71.83   71.53   19.16

DOCKED: MODEL       74
DOCKED: USER    Run = 74
DOCKED: USER    DPF = D:/Protein_go_brrr/autodock/final/AncA/heme/dock.dpf
DOCKED: USER  
DOCKED: USER    Estimated Free Energy of Binding    =   -3.88 kcal/mol  [=(1)+(2)+(3)-(4)]
DOCKED: USER    Estimated Inhibition Constant, Ki   =    1.43 mM (millimolar)  [Temperature = 298.15 K]
DOCKED: USER    
DOCKED: USER    (1) Final Intermolecular Energy     =   -7.76 kcal/mol
DOCKED: USER        vdW + Hbond + desolv Energy     =   -7.46 kcal/mol
DOCKED: USER        Electrostatic Energy            =   -0.30 kcal/mol
DOCKED: USER    (2) Final Total Internal Energy     =   -3.80 kcal/mol
DOCKED: USER    (3) Torsional Free Energy           =   +3.88 kcal/mol
DOCKED: USER    (4) Unbound System's Energy  [=(2)] =   -3.80 kcal/mol
DOCKED: USER    
DOCKED: USER    
DOCKED: USER    NEWDPF move heme_opt.pdbqt
DOCKED: USER    NEWDPF about 0.153000 0.018000 -0.028000
DOCKED: USER    NEWDPF tran0 8.144821 -7.051543 9.720963
DOCKED: USER    NEWDPF quaternion0 0.549853 0.438609 -0.216199 -0.677157
DOCKED: USER    NEWDPF axisangle0 0.747247 0.596066 -0.293813 -94.756232
DOCKED: USER    NEWDPF quat0 0.747247 0.596066 -0.293813 -94.756232
DOCKED: USER    NEWDPF dihe0 -180.00 -165.93 -115.63 28.92 -155.39 -110.81 167.62 49.96 7.92 24.07 -71.83 71.53 19.16 
DOCKED: USER  keepresnum = 1 
DOCKED: USER  
DOCKED: REMARK  13 active torsions:
DOCKED: REMARK  status: ('A' for Active; 'I' for Inactive)
DOCKED: REMARK    1  A    between atoms: O_3  and  C_38 
DOCKED: REMARK    2  A    between atoms: O_4  and  C_40 
DOCKED: REMARK    3  A    between atoms: O_7  and  C_46 
DOCKED: REMARK    4  A    between atoms: O_9  and  C_48 
DOCKED: REMARK    5  A    between atoms: C_15  and  C_20 
DOCKED: REMARK    6  A    between atoms: C_16  and  C_23 
DOCKED: REMARK    7  A    between atoms: C_20  and  C_38 
DOCKED: REMARK    8  A    between atoms: C_23  and  C_40 
DOCKED: REMARK    9  A    between atoms: C_32  and  C_41 
DOCKED: REMARK   10  A    between atoms: C_37  and  C_45 
DOCKED: REMARK   11  A    between atoms: C_41  and  C_44 
DOCKED: REMARK   12  A    between atoms: C_44  and  C_46 
DOCKED: REMARK   13  A    between atoms: C_47  and  C_48 
DOCKED: USER                              x       y       z     vdW  Elec       q    Type
DOCKED: USER                           _______ _______ _______ _____ _____    ______ ____
DOCKED: ROOT
DOCKED: ATOM      1  O   UNL d   1       6.757  -8.211  15.332 -0.02 +0.01    -0.289 OA
DOCKED: ATOM      2  O   UNL d   1       2.440  -7.543   9.225 -0.35 -0.06    -0.289 OA
DOCKED: ATOM      3  N   UNL d   1       8.021  -7.378  12.233 -0.13 +0.00    -0.247 NA
DOCKED: ATOM      4  N   UNL d   1       5.668  -7.651  10.440 -0.16 +0.01    -0.247 NA
DOCKED: ATOM      5  N   UNL d   1       7.473  -7.532   8.205 -0.07 -0.02    -0.354 N 
DOCKED: ATOM      6  N   UNL d   1       9.911  -7.269  10.074 -0.08 -0.03    -0.354 N 
DOCKED: ATOM      7  C   UNL d   1       9.002  -7.892  14.420 -0.04 +0.00    +0.084 A 
DOCKED: ATOM      8  C   UNL d   1       3.458  -7.363  11.443 -0.34 -0.01    +0.084 A 
DOCKED: ATOM      9  C   UNL d   1       4.977  -7.468  11.617 -0.24 -0.00    +0.058 A 
DOCKED: ATOM     10  C   UNL d   1       9.199  -7.519  12.947 -0.09 +0.00    +0.058 A 
DOCKED: ATOM     11  C   UNL d   1       7.503  -7.918  14.416 -0.04 -0.00    +0.193 A 
DOCKED: ATOM     12  C   UNL d   1       7.028  -7.565  13.041 -0.13 -0.01    +0.109 A 
DOCKED: ATOM     13  C   UNL d   1       3.412  -7.557   9.954 -0.31 +0.03    +0.193 A 
DOCKED: ATOM     14  C   UNL d   1       9.522  -9.297  14.731 -0.01 +0.00    +0.026 C 
DOCKED: ATOM     15  C   UNL d   1       5.574  -7.437  12.819 -0.17 -0.01    +0.055 C 
DOCKED: ATOM     16  C   UNL d   1       2.945  -5.959  11.773 -0.50 -0.01    +0.026 C 
DOCKED: ATOM     17  C   UNL d   1       4.815  -7.728   9.469 -0.26 +0.01    +0.109 A 
DOCKED: ATOM     18  C   UNL d   1      10.422  -7.267  12.443 -0.08 +0.00    +0.050 C 
DOCKED: ATOM     19  C   UNL d   1      10.693  -6.835  11.120 -0.11 +0.00    +0.045 A 
DOCKED: ATOM     20  C   UNL d   1       6.320  -7.892   7.558 -0.21 +0.01    +0.045 A 
DOCKED: ATOM     21  C   UNL d   1       5.078  -7.981   8.045 -0.28 +0.01    +0.057 C 
DOCKED: ATOM     22  C   UNL d   1       8.054  -7.965   6.073 -0.18 -0.00    -0.019 A 
DOCKED: ATOM     23  C   UNL d   1       8.574  -7.548   7.390 -0.18 +0.01    +0.045 A 
DOCKED: ATOM     24  C   UNL d   1       6.719  -8.166   6.178 -0.20 -0.01    -0.022 A 
DOCKED: ATOM     25  C   UNL d   1      10.404  -6.803   8.876 -0.13 +0.01    +0.049 A 
DOCKED: ATOM     26  C   UNL d   1      11.697  -6.037  10.593 -0.11 -0.00    -0.018 A 
DOCKED: ATOM     27  C   UNL d   1      11.498  -6.005   9.179 -0.13 +0.00    +0.003 A 
DOCKED: ATOM     28  C   UNL d   1       9.857  -7.246   7.641 -0.17 +0.01    +0.052 C 
DOCKED: ATOM     29  C   UNL d   1       5.752  -8.582   5.122 -0.29 +0.01    +0.046 C 
DOCKED: ATOM     30  C   UNL d   1      12.776  -5.344  11.356 -0.07 +0.00    +0.046 C 
DOCKED: ATOM     31  H   UNL d   1       7.458  -7.216   9.169 -0.32 -0.03    +0.166 HD
DOCKED: ATOM     32  H   UNL d   1       9.111  -7.881  10.188 +0.03 +0.01    +0.166 HD
DOCKED: ENDROOT
DOCKED: BRANCH   7  33
DOCKED: ATOM     33  C   UNL d   1       9.519  -6.864  15.432 -0.04 +0.00    +0.141 C 
DOCKED: BRANCH  33  34
DOCKED: ATOM     34  C   UNL d   1       8.930  -5.496  15.221 -0.07 +0.00    +0.306 C 
DOCKED: ATOM     35  O   UNL d   1       9.477  -4.553  14.673 -0.05 -0.01    -0.251 OA
DOCKED: BRANCH  34  36
DOCKED: ATOM     36  O   UNL d   1       7.682  -5.387  15.710 -0.07 +0.04    -0.481 OA
DOCKED: ATOM     37  H   UNL d   1       7.472  -6.283  16.051 +0.04 -0.02    +0.295 HD
DOCKED: ENDBRANCH  34  36
DOCKED: ENDBRANCH  33  34
DOCKED: ENDBRANCH   7  33
DOCKED: BRANCH  27  38
DOCKED: ATOM     38  C   UNL d   1      12.326  -5.304   8.244 -0.14 +0.00    +0.017 C 
DOCKED: ATOM     39  C   UNL d   1      12.373  -3.971   8.100 -0.16 +0.01    +0.092 C 
DOCKED: BRANCH  39  40
DOCKED: ATOM     40  C   UNL d   1      13.280  -3.375   7.115 -0.14 +0.05    +0.330 C 
DOCKED: ATOM     41  O   UNL d   1      14.260  -2.687   7.328 -0.13 -0.04    -0.246 OA
DOCKED: BRANCH  40  42
DOCKED: ATOM     42  O   UNL d   1      12.890  -3.699   5.873 -0.13 -0.08    -0.477 OA
DOCKED: ATOM     43  H   UNL d   1      11.983  -4.049   5.995 +0.14 +0.05    +0.295 HD
DOCKED: ENDBRANCH  40  42
DOCKED: ENDBRANCH  39  40
DOCKED: ENDBRANCH  27  38
DOCKED: BRANCH   8  44
DOCKED: ATOM     44  C   UNL d   1       2.635  -8.438  12.162 -0.24 -0.00    +0.141 C 
DOCKED: BRANCH  44  45
DOCKED: ATOM     45  C   UNL d   1       3.398  -9.715  12.393 -0.07 +0.15    +0.306 C 
DOCKED: ATOM     46  O   UNL d   1       3.591 -10.262  13.465 -0.03 -0.08    -0.251 OA
DOCKED: BRANCH  45  47
DOCKED: ATOM     47  O   UNL d   1       3.905 -10.225  11.256 -0.04 -0.46    -0.481 OA
DOCKED: ATOM     48  H   UNL d   1       4.545  -9.550  10.945 +0.09 +0.15    +0.295 HD
DOCKED: ENDBRANCH  45  47
DOCKED: ENDBRANCH  44  45
DOCKED: ENDBRANCH   8  44
DOCKED: BRANCH  22  49
DOCKED: ATOM     49  C   UNL d   1       8.905  -8.142   4.849 -0.23 +0.02    +0.048 C 
DOCKED: BRANCH  49  50
DOCKED: ATOM     50  C   UNL d   1       9.531  -6.823   4.397 -0.16 +0.05    +0.125 C 
DOCKED: BRANCH  50  51
DOCKED: ATOM     51  C   UNL d   1      11.010  -6.814   4.658 -0.16 +0.15    +0.305 C 
DOCKED: ATOM     52  O   UNL d   1      11.807  -7.711   4.450 -0.13 -0.15    -0.251 OA
DOCKED: BRANCH  51  53
DOCKED: ATOM     53  O   UNL d   1      11.420  -5.647   5.195 -0.47 -0.19    -0.481 OA
DOCKED: ATOM     54  H   UNL d   1      12.349  -5.561   4.897 +0.11 +0.11    +0.295 HD
DOCKED: ENDBRANCH  51  53
DOCKED: ENDBRANCH  50  51
DOCKED: ENDBRANCH  49  50
DOCKED: ENDBRANCH  22  49
DOCKED: TORSDOF 13
DOCKED: TER
DOCKED: ENDMDL
________________________________________________________________________________


	BEGINNING GENETIC ALGORITHM DOCKING 75 of 100
Run: 75 Seed: 1077444793 110346839 [ Run 75 of 100 GA/GALS ]
Beginning LAMARCKIAN GENETIC ALGORITHM (LGA), with a maximum of 25000000 energy evaluations.

Final-Value: -10.273


	FINAL GENETIC ALGORITHM DOCKED STATE
	_______________________________________________


Detailed state:  trans -12.468 -14.824 2.742 quatxyzw -0.440162 0.493902 -0.657398 0.360759 center 0.153 0.018 -0.028 ntor 13 -158.6704 -61.4464 69.8500 -82.8909 -169.7682 21.4068 -46.6190 -59.5791 5.2250 -101.1615 141.1968 -36.5504 -175.7803
State:	-12.468 -14.824   2.742  -0.472  0.530 -0.705 137.706   -158.67  -61.45   69.85  -82.89 -169.77   21.41  -46.62  -59.58    5.22 -101.16  141.20  -36.55 -175.78

DOCKED: MODEL       75
DOCKED: USER    Run = 75
DOCKED: USER    DPF = D:/Protein_go_brrr/autodock/final/AncA/heme/dock.dpf
DOCKED: USER  
DOCKED: USER    Estimated Free Energy of Binding    =   -4.02 kcal/mol  [=(1)+(2)+(3)-(4)]
DOCKED: USER    Estimated Inhibition Constant, Ki   =    1.12 mM (millimolar)  [Temperature = 298.15 K]
DOCKED: USER    
DOCKED: USER    (1) Final Intermolecular Energy     =   -7.90 kcal/mol
DOCKED: USER        vdW + Hbond + desolv Energy     =   -7.71 kcal/mol
DOCKED: USER        Electrostatic Energy            =   -0.19 kcal/mol
DOCKED: USER    (2) Final Total Internal Energy     =   -2.37 kcal/mol
DOCKED: USER    (3) Torsional Free Energy           =   +3.88 kcal/mol
DOCKED: USER    (4) Unbound System's Energy  [=(2)] =   -2.37 kcal/mol
DOCKED: USER    
DOCKED: USER    
DOCKED: USER    NEWDPF move heme_opt.pdbqt
DOCKED: USER    NEWDPF about 0.153000 0.018000 -0.028000
DOCKED: USER    NEWDPF tran0 -12.467880 -14.824455 2.741845
DOCKED: USER    NEWDPF quaternion0 -0.440162 0.493902 -0.657398 0.360759
DOCKED: USER    NEWDPF axisangle0 -0.471943 0.529563 -0.704864 137.706362
DOCKED: USER    NEWDPF quat0 -0.471943 0.529563 -0.704864 137.706362
DOCKED: USER    NEWDPF dihe0 -158.67 -61.45 69.85 -82.89 -169.77 21.41 -46.62 -59.58 5.22 -101.16 141.20 -36.55 -175.78 
DOCKED: USER  keepresnum = 1 
DOCKED: USER  
DOCKED: REMARK  13 active torsions:
DOCKED: REMARK  status: ('A' for Active; 'I' for Inactive)
DOCKED: REMARK    1  A    between atoms: O_3  and  C_38 
DOCKED: REMARK    2  A    between atoms: O_4  and  C_40 
DOCKED: REMARK    3  A    between atoms: O_7  and  C_46 
DOCKED: REMARK    4  A    between atoms: O_9  and  C_48 
DOCKED: REMARK    5  A    between atoms: C_15  and  C_20 
DOCKED: REMARK    6  A    between atoms: C_16  and  C_23 
DOCKED: REMARK    7  A    between atoms: C_20  and  C_38 
DOCKED: REMARK    8  A    between atoms: C_23  and  C_40 
DOCKED: REMARK    9  A    between atoms: C_32  and  C_41 
DOCKED: REMARK   10  A    between atoms: C_37  and  C_45 
DOCKED: REMARK   11  A    between atoms: C_41  and  C_44 
DOCKED: REMARK   12  A    between atoms: C_44  and  C_46 
DOCKED: REMARK   13  A    between atoms: C_47  and  C_48 
DOCKED: USER                              x       y       z     vdW  Elec       q    Type
DOCKED: USER                           _______ _______ _______ _____ _____    ______ ____
DOCKED: ROOT
DOCKED: ATOM      1  O   UNL d   1     -11.883 -16.098  -2.985 -0.03 -0.09    -0.289 OA
DOCKED: ATOM      2  O   UNL d   1      -7.478 -12.182   1.668 -0.81 -0.38    -0.289 OA
DOCKED: ATOM      3  N   UNL d   1     -12.714 -15.492   0.307 -0.01 -0.06    -0.247 NA
DOCKED: ATOM      4  N   UNL d   1     -10.285 -14.170   1.393 -0.27 -0.14    -0.247 NA
DOCKED: ATOM      5  N   UNL d   1     -11.343 -14.600   4.032 -0.12 -0.14    -0.354 N 
DOCKED: ATOM      6  N   UNL d   1     -13.852 -15.987   2.898 -0.09 -0.07    -0.354 N 
DOCKED: ATOM      7  C   UNL d   1     -13.684 -16.830  -1.503 -0.07 +0.02    +0.084 A 
DOCKED: ATOM      8  C   UNL d   1      -8.864 -12.967  -0.190 -0.20 +0.06    +0.084 A 
DOCKED: ATOM      9  C   UNL d   1     -10.072 -13.875   0.065 -0.11 +0.03    +0.058 A 
DOCKED: ATOM     10  C   UNL d   1     -13.740 -16.352  -0.049 -0.13 +0.01    +0.058 A 
DOCKED: ATOM     11  C   UNL d   1     -12.456 -16.074  -1.910 -0.07 +0.05    +0.193 A 
DOCKED: ATOM     12  C   UNL d   1     -11.977 -15.281  -0.734 -0.10 +0.03    +0.109 A 
DOCKED: ATOM     13  C   UNL d   1      -8.409 -12.833   1.236 -0.20 +0.18    +0.193 A 
DOCKED: ATOM     14  C   UNL d   1     -13.398 -18.331  -1.603 -0.02 +0.01    +0.026 C 
DOCKED: ATOM     15  C   UNL d   1     -10.824 -14.378  -0.926 -0.15 +0.02    +0.055 C 
DOCKED: ATOM     16  C   UNL d   1      -9.289 -11.588  -0.703 -0.38 +0.01    +0.026 C 
DOCKED: ATOM     17  C   UNL d   1      -9.349 -13.615   2.094 -0.20 +0.08    +0.109 A 
DOCKED: ATOM     18  C   UNL d   1     -14.762 -16.684   0.762 -0.13 +0.01    +0.050 C 
DOCKED: ATOM     19  C   UNL d   1     -14.942 -16.222   2.090 -0.15 +0.01    +0.045 A 
DOCKED: ATOM     20  C   UNL d   1     -10.077 -14.183   4.351 -0.22 +0.02    +0.045 A 
DOCKED: ATOM     21  C   UNL d   1      -9.125 -13.702   3.545 -0.27 +0.04    +0.057 C 
DOCKED: ATOM     22  C   UNL d   1     -11.129 -14.873   6.257 -0.18 -0.01    -0.019 A 
DOCKED: ATOM     23  C   UNL d   1     -12.055 -15.035   5.118 -0.11 +0.02    +0.045 A 
DOCKED: ATOM     24  C   UNL d   1      -9.961 -14.367   5.797 -0.23 -0.01    -0.022 A 
DOCKED: ATOM     25  C   UNL d   1     -14.255 -15.635   4.165 -0.23 +0.01    +0.049 A 
DOCKED: ATOM     26  C   UNL d   1     -16.082 -15.981   2.841 -0.17 -0.00    -0.018 A 
DOCKED: ATOM     27  C   UNL d   1     -15.642 -15.592   4.144 -0.20 +0.00    +0.003 A 
DOCKED: ATOM     28  C   UNL d   1     -13.311 -15.495   5.218 -0.13 +0.02    +0.052 C 
DOCKED: ATOM     29  C   UNL d   1      -8.729 -14.019   6.562 -0.28 +0.02    +0.046 C 
DOCKED: ATOM     30  C   UNL d   1     -17.494 -16.102   2.378 -0.15 +0.01    +0.046 C 
DOCKED: ATOM     31  H   UNL d   1     -11.707 -14.504   3.090 +0.05 +0.06    +0.166 HD
DOCKED: ATOM     32  H   UNL d   1     -12.893 -16.104   2.592 +0.04 +0.04    +0.166 HD
DOCKED: ENDROOT
DOCKED: BRANCH   7  33
DOCKED: ATOM     33  C   UNL d   1     -14.878 -16.426  -2.374 -0.07 +0.02    +0.141 C 
DOCKED: BRANCH  33  34
DOCKED: ATOM     34  C   UNL d   1     -15.149 -14.946  -2.336 -0.11 +0.04    +0.306 C 
DOCKED: ATOM     35  O   UNL d   1     -16.149 -14.408  -1.892 -0.17 -0.03    -0.251 OA
DOCKED: BRANCH  34  36
DOCKED: ATOM     36  O   UNL d   1     -14.142 -14.222  -2.856 -0.08 -0.06    -0.481 OA
DOCKED: ATOM     37  H   UNL d   1     -13.633 -14.861  -3.398 +0.07 +0.05    +0.295 HD
DOCKED: ENDBRANCH  34  36
DOCKED: ENDBRANCH  33  34
DOCKED: ENDBRANCH   7  33
DOCKED: BRANCH  27  38
DOCKED: ATOM     38  C   UNL d   1     -16.502 -15.265   5.242 -0.14 -0.00    +0.017 C 
DOCKED: ATOM     39  C   UNL d   1     -16.090 -14.898   6.465 -0.14 +0.00    +0.092 C 
DOCKED: BRANCH  39  40
DOCKED: ATOM     40  C   UNL d   1     -17.076 -14.572   7.499 -0.16 +0.00    +0.330 C 
DOCKED: ATOM     41  O   UNL d   1     -18.251 -14.883   7.531 -0.08 -0.01    -0.246 OA
DOCKED: BRANCH  40  42
DOCKED: ATOM     42  O   UNL d   1     -16.500 -13.854   8.476 -0.15 +0.05    -0.477 OA
DOCKED: ATOM     43  H   UNL d   1     -16.987 -13.005   8.461 -0.35 -0.08    +0.295 HD
DOCKED: ENDBRANCH  40  42
DOCKED: ENDBRANCH  39  40
DOCKED: ENDBRANCH  27  38
DOCKED: BRANCH   8  44
DOCKED: ATOM     44  C   UNL d   1      -7.759 -13.568  -1.064 -0.17 +0.15    +0.141 C 
DOCKED: BRANCH  44  45
DOCKED: ATOM     45  C   UNL d   1      -6.390 -13.029  -0.746 -0.17 +0.42    +0.306 C 
DOCKED: ATOM     46  O   UNL d   1      -5.854 -12.061  -1.257 -0.20 -0.29    -0.251 OA
DOCKED: BRANCH  45  47
DOCKED: ATOM     47  O   UNL d   1      -5.753 -13.760   0.186 -0.39 -0.97    -0.481 OA
DOCKED: ATOM     48  H   UNL d   1      -5.716 -13.178   0.975 +0.10 +0.66    +0.295 HD
DOCKED: ENDBRANCH  45  47
DOCKED: ENDBRANCH  44  45
DOCKED: ENDBRANCH   8  44
DOCKED: BRANCH  22  49
DOCKED: ATOM     49  C   UNL d   1     -11.465 -15.238   7.674 -0.17 +0.02    +0.048 C 
DOCKED: BRANCH  49  50
DOCKED: ATOM     50  C   UNL d   1     -10.861 -16.585   8.072 -0.05 +0.03    +0.125 C 
DOCKED: BRANCH  50  51
DOCKED: ATOM     51  C   UNL d   1     -10.922 -17.559   6.930 +0.00 +0.08    +0.305 C 
DOCKED: ATOM     52  O   UNL d   1     -11.917 -18.039   6.415 -0.01 -0.05    -0.251 OA
DOCKED: BRANCH  51  53
DOCKED: ATOM     53  O   UNL d   1      -9.694 -17.898   6.490 +0.01 -0.14    -0.481 OA
DOCKED: ATOM     54  H   UNL d   1      -9.502 -18.743   6.949 +0.01 +0.08    +0.295 HD
DOCKED: ENDBRANCH  51  53
DOCKED: ENDBRANCH  50  51
DOCKED: ENDBRANCH  49  50
DOCKED: ENDBRANCH  22  49
DOCKED: TORSDOF 13
DOCKED: TER
DOCKED: ENDMDL
________________________________________________________________________________


	BEGINNING GENETIC ALGORITHM DOCKING 76 of 100
Run: 76 Seed: 1534214574 394341250 [ Run 76 of 100 GA/GALS ]
Beginning LAMARCKIAN GENETIC ALGORITHM (LGA), with a maximum of 25000000 energy evaluations.

Final-Value: -12.336


	FINAL GENETIC ALGORITHM DOCKED STATE
	_______________________________________________


Detailed state:  trans -7.817 2.668 -14.653 quatxyzw -0.353645 0.905510 0.190586 -0.136616 center 0.153 0.018 -0.028 ntor 13 16.0621 -148.0650 92.0968 -51.7055 30.9141 -28.6503 16.1491 24.5399 164.7274 152.9895 -66.8932 -14.7005 -15.3799
State:	 -7.817   2.668 -14.653  -0.357  0.914  0.192 -164.296     16.06 -148.07   92.10  -51.71   30.91  -28.65   16.15   24.54  164.73  152.99  -66.89  -14.70  -15.38

DOCKED: MODEL       76
DOCKED: USER    Run = 76
DOCKED: USER    DPF = D:/Protein_go_brrr/autodock/final/AncA/heme/dock.dpf
DOCKED: USER  
DOCKED: USER    Estimated Free Energy of Binding    =   -5.92 kcal/mol  [=(1)+(2)+(3)-(4)]
DOCKED: USER    Estimated Inhibition Constant, Ki   =   45.94 uM (micromolar)  [Temperature = 298.15 K]
DOCKED: USER    
DOCKED: USER    (1) Final Intermolecular Energy     =   -9.80 kcal/mol
DOCKED: USER        vdW + Hbond + desolv Energy     =   -8.71 kcal/mol
DOCKED: USER        Electrostatic Energy            =   -1.09 kcal/mol
DOCKED: USER    (2) Final Total Internal Energy     =   -2.54 kcal/mol
DOCKED: USER    (3) Torsional Free Energy           =   +3.88 kcal/mol
DOCKED: USER    (4) Unbound System's Energy  [=(2)] =   -2.54 kcal/mol
DOCKED: USER    
DOCKED: USER    
DOCKED: USER    NEWDPF move heme_opt.pdbqt
DOCKED: USER    NEWDPF about 0.153000 0.018000 -0.028000
DOCKED: USER    NEWDPF tran0 -7.816560 2.668297 -14.652612
DOCKED: USER    NEWDPF quaternion0 -0.353645 0.905510 0.190586 -0.136616
DOCKED: USER    NEWDPF axisangle0 -0.356992 0.914080 0.192390 -164.295883
DOCKED: USER    NEWDPF quat0 -0.356992 0.914080 0.192390 -164.295883
DOCKED: USER    NEWDPF dihe0 16.06 -148.07 92.10 -51.71 30.91 -28.65 16.15 24.54 164.73 152.99 -66.89 -14.70 -15.38 
DOCKED: USER  keepresnum = 1 
DOCKED: USER  
DOCKED: REMARK  13 active torsions:
DOCKED: REMARK  status: ('A' for Active; 'I' for Inactive)
DOCKED: REMARK    1  A    between atoms: O_3  and  C_38 
DOCKED: REMARK    2  A    between atoms: O_4  and  C_40 
DOCKED: REMARK    3  A    between atoms: O_7  and  C_46 
DOCKED: REMARK    4  A    between atoms: O_9  and  C_48 
DOCKED: REMARK    5  A    between atoms: C_15  and  C_20 
DOCKED: REMARK    6  A    between atoms: C_16  and  C_23 
DOCKED: REMARK    7  A    between atoms: C_20  and  C_38 
DOCKED: REMARK    8  A    between atoms: C_23  and  C_40 
DOCKED: REMARK    9  A    between atoms: C_32  and  C_41 
DOCKED: REMARK   10  A    between atoms: C_37  and  C_45 
DOCKED: REMARK   11  A    between atoms: C_41  and  C_44 
DOCKED: REMARK   12  A    between atoms: C_44  and  C_46 
DOCKED: REMARK   13  A    between atoms: C_47  and  C_48 
DOCKED: USER                              x       y       z     vdW  Elec       q    Type
DOCKED: USER                           _______ _______ _______ _____ _____    ______ ____
DOCKED: ROOT
DOCKED: ATOM      1  O   UNL d   1      -4.915   7.400 -12.665 -0.16 -0.35    -0.289 OA
DOCKED: ATOM      2  O   UNL d   1      -2.745   0.252 -13.436 -0.31 +0.05    -0.289 OA
DOCKED: ATOM      3  N   UNL d   1      -7.036   4.912 -13.763 -0.66 -0.07    -0.247 NA
DOCKED: ATOM      4  N   UNL d   1      -5.245   2.556 -14.029 -0.12 -0.00    -0.247 NA
DOCKED: ATOM      5  N   UNL d   1      -7.335   1.252 -15.513 -0.12 +0.06    -0.354 N 
DOCKED: ATOM      6  N   UNL d   1      -9.179   3.707 -15.248 -0.08 +0.03    -0.354 N 
DOCKED: ATOM      7  C   UNL d   1      -7.200   7.346 -13.533 -0.13 +0.03    +0.084 A 
DOCKED: ATOM      8  C   UNL d   1      -3.245   2.507 -12.626 -0.25 +0.00    +0.084 A 
DOCKED: ATOM      9  C   UNL d   1      -4.481   3.262 -13.128 -0.21 +0.01    +0.058 A 
DOCKED: ATOM     10  C   UNL d   1      -7.846   6.020 -13.943 -0.03 +0.02    +0.058 A 
DOCKED: ATOM     11  C   UNL d   1      -5.887   6.789 -13.072 -0.13 +0.12    +0.193 A 
DOCKED: ATOM     12  C   UNL d   1      -5.921   5.301 -13.237 -0.18 +0.03    +0.109 A 
DOCKED: ATOM     13  C   UNL d   1      -3.430   1.256 -13.438 -0.24 -0.01    +0.193 A 
DOCKED: ATOM     14  C   UNL d   1      -6.954   8.262 -14.736 -0.04 +0.01    +0.026 C 
DOCKED: ATOM     15  C   UNL d   1      -4.762   4.521 -12.759 -0.24 +0.01    +0.055 C 
DOCKED: ATOM     16  C   UNL d   1      -3.362   2.152 -11.141 -0.52 +0.00    +0.026 C 
DOCKED: ATOM     17  C   UNL d   1      -4.674   1.416 -14.251 -0.22 -0.00    +0.109 A 
DOCKED: ATOM     18  C   UNL d   1      -9.127   5.960 -14.354 -0.07 +0.01    +0.050 C 
DOCKED: ATOM     19  C   UNL d   1      -9.834   4.772 -14.672 -0.09 -0.00    +0.045 A 
DOCKED: ATOM     20  C   UNL d   1      -6.307   0.370 -15.728 -0.12 -0.00    +0.045 A 
DOCKED: ATOM     21  C   UNL d   1      -5.087   0.356 -15.183 -0.13 -0.00    +0.057 C 
DOCKED: ATOM     22  C   UNL d   1      -8.091  -0.247 -17.014 -0.17 +0.00    -0.019 A 
DOCKED: ATOM     23  C   UNL d   1      -8.454   0.961 -16.246 -0.19 -0.01    +0.045 A 
DOCKED: ATOM     24  C   UNL d   1      -6.820  -0.593 -16.702 -0.17 +0.00    -0.022 A 
DOCKED: ATOM     25  C   UNL d   1     -10.067   2.702 -15.554 -0.16 -0.01    +0.049 A 
DOCKED: ATOM     26  C   UNL d   1     -11.175   4.436 -14.567 -0.14 +0.00    -0.018 A 
DOCKED: ATOM     27  C   UNL d   1     -11.312   3.120 -15.108 -0.16 -0.00    +0.003 A 
DOCKED: ATOM     28  C   UNL d   1      -9.651   1.564 -16.298 -0.16 -0.02    +0.052 C 
DOCKED: ATOM     29  C   UNL d   1      -6.015  -1.741 -17.208 -0.24 -0.00    +0.046 C 
DOCKED: ATOM     30  C   UNL d   1     -12.263   5.282 -13.999 -0.14 -0.00    +0.046 C 
DOCKED: ATOM     31  H   UNL d   1      -7.262   1.983 -14.814 +0.06 -0.02    +0.166 HD
DOCKED: ATOM     32  H   UNL d   1      -8.186   3.702 -15.449 +0.04 -0.00    +0.166 HD
DOCKED: ENDROOT
DOCKED: BRANCH   7  33
DOCKED: ATOM     33  C   UNL d   1      -7.898   8.093 -12.392 -0.15 +0.08    +0.141 C 
DOCKED: BRANCH  33  34
DOCKED: ATOM     34  C   UNL d   1      -7.784   9.588 -12.522 -0.06 +0.18    +0.306 C 
DOCKED: ATOM     35  O   UNL d   1      -8.516  10.312 -13.175 -0.01 -0.08    -0.251 OA
DOCKED: BRANCH  34  36
DOCKED: ATOM     36  O   UNL d   1      -6.754  10.092 -11.819 -0.33 -0.69    -0.481 OA
DOCKED: ATOM     37  H   UNL d   1      -6.917  11.059 -11.802 +0.02 +0.25    +0.295 HD
DOCKED: ENDBRANCH  34  36
DOCKED: ENDBRANCH  33  34
DOCKED: ENDBRANCH   7  33
DOCKED: BRANCH  27  38
DOCKED: ATOM     38  C   UNL d   1     -12.542   2.394 -15.208 -0.14 -0.01    +0.017 C 
DOCKED: ATOM     39  C   UNL d   1     -12.648   1.060 -15.310 -0.07 -0.09    +0.092 C 
DOCKED: BRANCH  39  40
DOCKED: ATOM     40  C   UNL d   1     -13.972   0.437 -15.389 +0.02 -0.26    +0.330 C 
DOCKED: ATOM     41  O   UNL d   1     -15.010   0.830 -14.892 -0.04 +0.11    -0.246 OA
DOCKED: BRANCH  40  42
DOCKED: ATOM     42  O   UNL d   1     -13.911  -0.684 -16.124 -0.02 +0.42    -0.477 OA
DOCKED: ATOM     43  H   UNL d   1     -13.010  -1.027 -15.955 -0.49 -0.48    +0.295 HD
DOCKED: ENDBRANCH  40  42
DOCKED: ENDBRANCH  39  40
DOCKED: ENDBRANCH  27  38
DOCKED: BRANCH   8  44
DOCKED: ATOM     44  C   UNL d   1      -1.898   3.168 -12.935 -0.21 +0.01    +0.141 C 
DOCKED: BRANCH  44  45
DOCKED: ATOM     45  C   UNL d   1      -1.286   3.856 -11.743 -0.20 +0.03    +0.306 C 
DOCKED: ATOM     46  O   UNL d   1      -1.884   4.341 -10.798 -0.25 -0.04    -0.251 OA
DOCKED: BRANCH  45  47
DOCKED: ATOM     47  O   UNL d   1       0.055   3.921 -11.819 -0.12 -0.03    -0.481 OA
DOCKED: ATOM     48  H   UNL d   1       0.368   3.089 -11.403 -0.39 -0.02    +0.295 HD
DOCKED: ENDBRANCH  45  47
DOCKED: ENDBRANCH  44  45
DOCKED: ENDBRANCH   8  44
DOCKED: BRANCH  22  49
DOCKED: ATOM     49  C   UNL d   1      -9.007  -0.936 -17.983 -0.11 -0.01    +0.048 C 
DOCKED: BRANCH  49  50
DOCKED: ATOM     50  C   UNL d   1      -9.689  -2.151 -17.356 -0.17 -0.05    +0.125 C 
DOCKED: BRANCH  50  51
DOCKED: ATOM     51  C   UNL d   1     -11.171  -1.934 -17.238 -0.08 -0.20    +0.305 C 
DOCKED: ATOM     52  O   UNL d   1     -11.851  -1.115 -17.830 -0.05 +0.12    -0.251 OA
DOCKED: BRANCH  51  53
DOCKED: ATOM     53  O   UNL d   1     -11.734  -2.773 -16.346 -0.02 +0.49    -0.481 OA
DOCKED: ATOM     54  H   UNL d   1     -12.239  -2.182 -15.749 -0.33 -0.68    +0.295 HD
DOCKED: ENDBRANCH  51  53
DOCKED: ENDBRANCH  50  51
DOCKED: ENDBRANCH  49  50
DOCKED: ENDBRANCH  22  49
DOCKED: TORSDOF 13
DOCKED: TER
DOCKED: ENDMDL
________________________________________________________________________________


	BEGINNING GENETIC ALGORITHM DOCKING 77 of 100
Run: 77 Seed: 2024637595 563233423 [ Run 77 of 100 GA/GALS ]
Beginning LAMARCKIAN GENETIC ALGORITHM (LGA), with a maximum of 25000000 energy evaluations.

Final-Value: -12.219


	FINAL GENETIC ALGORITHM DOCKED STATE
	_______________________________________________


Detailed state:  trans -6.692 -0.637 -16.105 quatxyzw -0.714829 -0.622903 -0.235526 -0.213399 center 0.153 0.018 -0.028 ntor 13 -177.6540 -154.0992 47.5928 7.1081 32.9738 -4.5932 164.4528 9.6060 176.5629 155.9269 51.1216 -67.9026 116.7948
State:	 -6.692  -0.637 -16.105  -0.732 -0.638 -0.241 -155.357   -177.65 -154.10   47.59    7.11   32.97   -4.59  164.45    9.61  176.56  155.93   51.12  -67.90  116.79

DOCKED: MODEL       77
DOCKED: USER    Run = 77
DOCKED: USER    DPF = D:/Protein_go_brrr/autodock/final/AncA/heme/dock.dpf
DOCKED: USER  
DOCKED: USER    Estimated Free Energy of Binding    =   -5.55 kcal/mol  [=(1)+(2)+(3)-(4)]
DOCKED: USER    Estimated Inhibition Constant, Ki   =   84.79 uM (micromolar)  [Temperature = 298.15 K]
DOCKED: USER    
DOCKED: USER    (1) Final Intermolecular Energy     =   -9.43 kcal/mol
DOCKED: USER        vdW + Hbond + desolv Energy     =   -9.03 kcal/mol
DOCKED: USER        Electrostatic Energy            =   -0.40 kcal/mol
DOCKED: USER    (2) Final Total Internal Energy     =   -2.79 kcal/mol
DOCKED: USER    (3) Torsional Free Energy           =   +3.88 kcal/mol
DOCKED: USER    (4) Unbound System's Energy  [=(2)] =   -2.79 kcal/mol
DOCKED: USER    
DOCKED: USER    
DOCKED: USER    NEWDPF move heme_opt.pdbqt
DOCKED: USER    NEWDPF about 0.153000 0.018000 -0.028000
DOCKED: USER    NEWDPF tran0 -6.691919 -0.637274 -16.105241
DOCKED: USER    NEWDPF quaternion0 -0.714829 -0.622903 -0.235526 -0.213399
DOCKED: USER    NEWDPF axisangle0 -0.731683 -0.637590 -0.241080 -155.356772
DOCKED: USER    NEWDPF quat0 -0.731683 -0.637590 -0.241080 -155.356772
DOCKED: USER    NEWDPF dihe0 -177.65 -154.10 47.59 7.11 32.97 -4.59 164.45 9.61 176.56 155.93 51.12 -67.90 116.79 
DOCKED: USER  keepresnum = 1 
DOCKED: USER  
DOCKED: REMARK  13 active torsions:
DOCKED: REMARK  status: ('A' for Active; 'I' for Inactive)
DOCKED: REMARK    1  A    between atoms: O_3  and  C_38 
DOCKED: REMARK    2  A    between atoms: O_4  and  C_40 
DOCKED: REMARK    3  A    between atoms: O_7  and  C_46 
DOCKED: REMARK    4  A    between atoms: O_9  and  C_48 
DOCKED: REMARK    5  A    between atoms: C_15  and  C_20 
DOCKED: REMARK    6  A    between atoms: C_16  and  C_23 
DOCKED: REMARK    7  A    between atoms: C_20  and  C_38 
DOCKED: REMARK    8  A    between atoms: C_23  and  C_40 
DOCKED: REMARK    9  A    between atoms: C_32  and  C_41 
DOCKED: REMARK   10  A    between atoms: C_37  and  C_45 
DOCKED: REMARK   11  A    between atoms: C_41  and  C_44 
DOCKED: REMARK   12  A    between atoms: C_44  and  C_46 
DOCKED: REMARK   13  A    between atoms: C_47  and  C_48 
DOCKED: USER                              x       y       z     vdW  Elec       q    Type
DOCKED: USER                           _______ _______ _______ _____ _____    ______ ____
DOCKED: ROOT
DOCKED: ATOM      1  O   UNL d   1      -5.606  -4.907 -20.023 -0.18 +0.14    -0.289 OA
DOCKED: ATOM      2  O   UNL d   1     -11.907  -3.037 -16.390 -0.12 +0.26    -0.289 OA
DOCKED: ATOM      3  N   UNL d   1      -5.733  -2.376 -17.684 -0.16 +0.02    -0.247 NA
DOCKED: ATOM      4  N   UNL d   1      -8.628  -2.183 -17.042 -0.13 +0.07    -0.247 NA
DOCKED: ATOM      5  N   UNL d   1      -8.079   0.326 -15.749 -0.16 +0.12    -0.354 N 
DOCKED: ATOM      6  N   UNL d   1      -5.081   0.128 -16.436 -0.06 +0.02    -0.354 N 
DOCKED: ATOM      7  C   UNL d   1      -4.028  -3.216 -19.231 -0.22 -0.02    +0.084 A 
DOCKED: ATOM      8  C   UNL d   1      -9.980  -4.193 -17.360 -0.18 -0.03    +0.084 A 
DOCKED: ATOM      9  C   UNL d   1      -8.632  -3.479 -17.508 -0.23 -0.01    +0.058 A 
DOCKED: ATOM     10  C   UNL d   1      -4.438  -2.214 -18.148 -0.22 -0.01    +0.058 A 
DOCKED: ATOM     11  C   UNL d   1      -5.315  -3.984 -19.284 -0.14 -0.05    +0.193 A 
DOCKED: ATOM     12  C   UNL d   1      -6.258  -3.395 -18.282 -0.20 -0.02    +0.109 A 
DOCKED: ATOM     13  C   UNL d   1     -10.749  -3.051 -16.758 -0.14 -0.12    +0.193 A 
DOCKED: ATOM     14  C   UNL d   1      -3.801  -2.538 -20.585 -0.10 -0.00    +0.026 C 
DOCKED: ATOM     15  C   UNL d   1      -7.567  -4.051 -18.088 -0.26 -0.01    +0.055 C 
DOCKED: ATOM     16  C   UNL d   1      -9.909  -5.332 -16.338 -0.23 -0.01    +0.026 C 
DOCKED: ATOM     17  C   UNL d   1      -9.817  -1.890 -16.625 -0.19 -0.07    +0.109 A 
DOCKED: ATOM     18  C   UNL d   1      -3.562  -1.323 -17.646 -0.22 -0.00    +0.050 C 
DOCKED: ATOM     19  C   UNL d   1      -3.826  -0.417 -16.588 -0.19 -0.00    +0.045 A 
DOCKED: ATOM     20  C   UNL d   1      -9.450   0.355 -15.747 -0.28 -0.03    +0.045 A 
DOCKED: ATOM     21  C   UNL d   1     -10.308  -0.607 -16.100 -0.15 -0.06    +0.057 C 
DOCKED: ATOM     22  C   UNL d   1      -8.668   2.370 -15.007 -0.23 +0.00    -0.019 A 
DOCKED: ATOM     23  C   UNL d   1      -7.517   1.498 -15.319 -0.25 -0.01    +0.045 A 
DOCKED: ATOM     24  C   UNL d   1      -9.809   1.686 -15.261 -0.25 +0.01    -0.022 A 
DOCKED: ATOM     25  C   UNL d   1      -5.089   1.043 -15.409 -0.18 -0.00    +0.049 A 
DOCKED: ATOM     26  C   UNL d   1      -3.007   0.130 -15.612 -0.21 +0.00    -0.018 A 
DOCKED: ATOM     27  C   UNL d   1      -3.815   1.037 -14.859 -0.23 -0.00    +0.003 A 
DOCKED: ATOM     28  C   UNL d   1      -6.232   1.851 -15.163 -0.23 -0.00    +0.052 C 
DOCKED: ATOM     29  C   UNL d   1     -11.221   2.133 -15.092 -0.21 -0.03    +0.046 C 
DOCKED: ATOM     30  C   UNL d   1      -1.564  -0.170 -15.390 -0.30 -0.00    +0.046 C 
DOCKED: ATOM     31  H   UNL d   1      -7.571  -0.522 -15.975 +0.06 -0.04    +0.166 HD
DOCKED: ATOM     32  H   UNL d   1      -5.866  -0.098 -17.036 +0.05 -0.01    +0.166 HD
DOCKED: ENDROOT
DOCKED: BRANCH   7  33
DOCKED: ATOM     33  C   UNL d   1      -2.864  -4.142 -18.864 -0.22 -0.04    +0.141 C 
DOCKED: BRANCH  33  34
DOCKED: ATOM     34  C   UNL d   1      -1.861  -4.282 -19.977 -0.20 -0.07    +0.306 C 
DOCKED: ATOM     35  O   UNL d   1      -0.908  -3.550 -20.184 -0.10 +0.03    -0.251 OA
DOCKED: BRANCH  34  36
DOCKED: ATOM     36  O   UNL d   1      -2.111  -5.339 -20.770 -0.11 +0.17    -0.481 OA
DOCKED: ATOM     37  H   UNL d   1      -2.914  -5.751 -20.386 -0.39 -0.22    +0.295 HD
DOCKED: ENDBRANCH  34  36
DOCKED: ENDBRANCH  33  34
DOCKED: ENDBRANCH   7  33
DOCKED: BRANCH  27  38
DOCKED: ATOM     38  C   UNL d   1      -3.358   1.831 -13.759 -0.28 -0.00    +0.017 C 
DOCKED: ATOM     39  C   UNL d   1      -3.834   3.040 -13.426 -0.18 +0.01    +0.092 C 
DOCKED: BRANCH  39  40
DOCKED: ATOM     40  C   UNL d   1      -3.290   3.744 -12.262 -0.12 +0.05    +0.330 C 
DOCKED: ATOM     41  O   UNL d   1      -2.494   3.324 -11.443 -0.23 -0.03    -0.246 OA
DOCKED: BRANCH  40  42
DOCKED: ATOM     42  O   UNL d   1      -3.790   4.988 -12.198 -0.04 -0.17    -0.477 OA
DOCKED: ATOM     43  H   UNL d   1      -4.648   4.920 -12.666 +0.11 +0.09    +0.295 HD
DOCKED: ENDBRANCH  40  42
DOCKED: ENDBRANCH  39  40
DOCKED: ENDBRANCH  27  38
DOCKED: BRANCH   8  44
DOCKED: ATOM     44  C   UNL d   1     -10.626  -4.661 -18.668 -0.08 -0.05    +0.141 C 
DOCKED: BRANCH  44  45
DOCKED: ATOM     45  C   UNL d   1     -10.547  -6.151 -18.870 -0.08 -0.15    +0.306 C 
DOCKED: ATOM     46  O   UNL d   1     -11.485  -6.918 -19.000 -0.05 +0.09    -0.251 OA
DOCKED: BRANCH  45  47
DOCKED: ATOM     47  O   UNL d   1      -9.280  -6.604 -18.871 -0.13 +0.41    -0.481 OA
DOCKED: ATOM     48  H   UNL d   1      -9.230  -7.199 -19.649 -0.36 -0.65    +0.295 HD
DOCKED: ENDBRANCH  45  47
DOCKED: ENDBRANCH  44  45
DOCKED: ENDBRANCH   8  44
DOCKED: BRANCH  22  49
DOCKED: ATOM     49  C   UNL d   1      -8.547   3.780 -14.508 -0.09 +0.00    +0.048 C 
DOCKED: BRANCH  49  50
DOCKED: ATOM     50  C   UNL d   1      -7.321   4.485 -15.089 -0.11 +0.01    +0.125 C 
DOCKED: BRANCH  50  51
DOCKED: ATOM     51  C   UNL d   1      -6.486   5.094 -13.999 -0.10 +0.07    +0.305 C 
DOCKED: ATOM     52  O   UNL d   1      -6.666   5.021 -12.796 -0.58 -0.09    -0.251 OA
DOCKED: BRANCH  51  53
DOCKED: ATOM     53  O   UNL d   1      -5.446   5.794 -14.493 +0.00 -0.12    -0.481 OA
DOCKED: ATOM     54  H   UNL d   1      -4.927   6.042 -13.699 +0.06 +0.11    +0.295 HD
DOCKED: ENDBRANCH  51  53
DOCKED: ENDBRANCH  50  51
DOCKED: ENDBRANCH  49  50
DOCKED: ENDBRANCH  22  49
DOCKED: TORSDOF 13
DOCKED: TER
DOCKED: ENDMDL
________________________________________________________________________________


	BEGINNING GENETIC ALGORITHM DOCKING 78 of 100
Run: 78 Seed: 1916128816 918724316 [ Run 78 of 100 GA/GALS ]
Beginning LAMARCKIAN GENETIC ALGORITHM (LGA), with a maximum of 25000000 energy evaluations.

Final-Value: -11.923


	FINAL GENETIC ALGORITHM DOCKED STATE
	_______________________________________________


Detailed state:  trans 13.342 -3.440 -14.328 quatxyzw -0.137371 0.971788 0.191325 -0.012351 center 0.153 0.018 -0.028 ntor 13 -159.2364 -98.3355 105.8754 125.7608 40.1442 -2.0989 -43.5925 -171.9584 113.6891 -127.3229 78.3293 -96.8957 173.5779
State:	 13.342  -3.440 -14.328  -0.137  0.972  0.191 -178.585   -159.24  -98.34  105.88  125.76   40.14   -2.10  -43.59 -171.96  113.69 -127.32   78.33  -96.90  173.58

DOCKED: MODEL       78
DOCKED: USER    Run = 78
DOCKED: USER    DPF = D:/Protein_go_brrr/autodock/final/AncA/heme/dock.dpf
DOCKED: USER  
DOCKED: USER    Estimated Free Energy of Binding    =   -5.93 kcal/mol  [=(1)+(2)+(3)-(4)]
DOCKED: USER    Estimated Inhibition Constant, Ki   =   45.17 uM (micromolar)  [Temperature = 298.15 K]
DOCKED: USER    
DOCKED: USER    (1) Final Intermolecular Energy     =   -9.81 kcal/mol
DOCKED: USER        vdW + Hbond + desolv Energy     =   -9.03 kcal/mol
DOCKED: USER        Electrostatic Energy            =   -0.78 kcal/mol
DOCKED: USER    (2) Final Total Internal Energy     =   -2.12 kcal/mol
DOCKED: USER    (3) Torsional Free Energy           =   +3.88 kcal/mol
DOCKED: USER    (4) Unbound System's Energy  [=(2)] =   -2.12 kcal/mol
DOCKED: USER    
DOCKED: USER    
DOCKED: USER    NEWDPF move heme_opt.pdbqt
DOCKED: USER    NEWDPF about 0.153000 0.018000 -0.028000
DOCKED: USER    NEWDPF tran0 13.342299 -3.439863 -14.327832
DOCKED: USER    NEWDPF quaternion0 -0.137371 0.971788 0.191325 -0.012351
DOCKED: USER    NEWDPF axisangle0 -0.137381 0.971862 0.191339 -178.584690
DOCKED: USER    NEWDPF quat0 -0.137381 0.971862 0.191339 -178.584690
DOCKED: USER    NEWDPF dihe0 -159.24 -98.34 105.88 125.76 40.14 -2.10 -43.59 -171.96 113.69 -127.32 78.33 -96.90 173.58 
DOCKED: USER  keepresnum = 1 
DOCKED: USER  
DOCKED: REMARK  13 active torsions:
DOCKED: REMARK  status: ('A' for Active; 'I' for Inactive)
DOCKED: REMARK    1  A    between atoms: O_3  and  C_38 
DOCKED: REMARK    2  A    between atoms: O_4  and  C_40 
DOCKED: REMARK    3  A    between atoms: O_7  and  C_46 
DOCKED: REMARK    4  A    between atoms: O_9  and  C_48 
DOCKED: REMARK    5  A    between atoms: C_15  and  C_20 
DOCKED: REMARK    6  A    between atoms: C_16  and  C_23 
DOCKED: REMARK    7  A    between atoms: C_20  and  C_38 
DOCKED: REMARK    8  A    between atoms: C_23  and  C_40 
DOCKED: REMARK    9  A    between atoms: C_32  and  C_41 
DOCKED: REMARK   10  A    between atoms: C_37  and  C_45 
DOCKED: REMARK   11  A    between atoms: C_41  and  C_44 
DOCKED: REMARK   12  A    between atoms: C_44  and  C_46 
DOCKED: REMARK   13  A    between atoms: C_47  and  C_48 
DOCKED: USER                              x       y       z     vdW  Elec       q    Type
DOCKED: USER                           _______ _______ _______ _____ _____    ______ ____
DOCKED: ROOT
DOCKED: ATOM      1  O   UNL d   1      18.262  -0.224 -13.876 -0.07 +0.04    -0.289 OA
DOCKED: ATOM      2  O   UNL d   1      17.260  -7.644 -14.447 -0.03 -0.02    -0.289 OA
DOCKED: ATOM      3  N   UNL d   1      15.140  -1.684 -13.982 -0.13 +0.07    -0.247 NA
DOCKED: ATOM      4  N   UNL d   1      15.742  -4.546 -14.510 +0.02 +0.05    -0.247 NA
DOCKED: ATOM      5  N   UNL d   1      12.958  -4.922 -15.126 -0.11 +0.05    -0.354 N 
DOCKED: ATOM      6  N   UNL d   1      12.346  -1.947 -14.595 -0.06 +0.02    -0.354 N 
DOCKED: ATOM      7  C   UNL d   1      15.972   0.621 -13.994 -0.16 -0.01    +0.084 A 
DOCKED: ATOM      8  C   UNL d   1      17.921  -5.381 -13.787 -0.08 +0.00    +0.084 A 
DOCKED: ATOM      9  C   UNL d   1      16.961  -4.201 -13.972 -0.14 -0.01    +0.058 A 
DOCKED: ATOM     10  C   UNL d   1      14.785  -0.346 -14.033 -0.21 -0.01    +0.058 A 
DOCKED: ATOM     11  C   UNL d   1      17.059  -0.406 -13.895 -0.09 -0.05    +0.193 A 
DOCKED: ATOM     12  C   UNL d   1      16.426  -1.763 -13.870 -0.13 -0.03    +0.109 A 
DOCKED: ATOM     13  C   UNL d   1      17.034  -6.453 -14.355 -0.06 +0.01    +0.193 A 
DOCKED: ATOM     14  C   UNL d   1      16.132   1.386 -15.311 -0.13 +0.00    +0.026 C 
DOCKED: ATOM     15  C   UNL d   1      17.302  -2.936 -13.681 -0.14 -0.01    +0.055 C 
DOCKED: ATOM     16  C   UNL d   1      18.173  -5.683 -12.307 -0.13 +0.00    +0.026 C 
DOCKED: ATOM     17  C   UNL d   1      15.746  -5.815 -14.763 -0.13 -0.00    +0.109 A 
DOCKED: ATOM     18  C   UNL d   1      13.515   0.098 -14.024 -0.28 +0.00    +0.050 C 
DOCKED: ATOM     19  C   UNL d   1      12.357  -0.720 -13.973 -0.22 +0.00    +0.045 A 
DOCKED: ATOM     20  C   UNL d   1      13.457  -6.129 -15.541 -0.18 -0.00    +0.045 A 
DOCKED: ATOM     21  C   UNL d   1      14.692  -6.620 -15.396 -0.17 -0.00    +0.057 C 
DOCKED: ATOM     22  C   UNL d   1      11.257  -5.992 -16.142 -0.21 +0.00    -0.019 A 
DOCKED: ATOM     23  C   UNL d   1      11.638  -4.748 -15.444 -0.25 -0.00    +0.045 A 
DOCKED: ATOM     24  C   UNL d   1      12.338  -6.806 -16.196 -0.15 +0.00    -0.022 A 
DOCKED: ATOM     25  C   UNL d   1      11.103  -2.527 -14.498 -0.23 -0.00    +0.049 A 
DOCKED: ATOM     26  C   UNL d   1      11.100  -0.513 -13.426 -0.28 -0.00    -0.018 A 
DOCKED: ATOM     27  C   UNL d   1      10.318  -1.666 -13.744 -0.29 +0.00    +0.003 A 
DOCKED: ATOM     28  C   UNL d   1      10.802  -3.728 -15.197 -0.27 -0.00    +0.052 C 
DOCKED: ATOM     29  C   UNL d   1      12.450  -8.170 -16.787 -0.11 -0.00    +0.046 C 
DOCKED: ATOM     30  C   UNL d   1      10.651   0.681 -12.653 -0.41 +0.00    +0.046 C 
DOCKED: ATOM     31  H   UNL d   1      13.519  -4.284 -14.571 -0.51 -0.08    +0.166 HD
DOCKED: ATOM     32  H   UNL d   1      13.144  -2.333 -15.087 +0.02 -0.02    +0.166 HD
DOCKED: ENDROOT
DOCKED: BRANCH   7  33
DOCKED: ATOM     33  C   UNL d   1      16.011   1.565 -12.788 -0.23 -0.01    +0.141 C 
DOCKED: BRANCH  33  34
DOCKED: ATOM     34  C   UNL d   1      17.375   2.158 -12.561 -0.15 +0.07    +0.306 C 
DOCKED: ATOM     35  O   UNL d   1      17.771   3.234 -12.976 -0.12 -0.05    -0.251 OA
DOCKED: BRANCH  34  36
DOCKED: ATOM     36  O   UNL d   1      18.169   1.365 -11.820 -0.20 -0.20    -0.481 OA
DOCKED: ATOM     37  H   UNL d   1      17.749   0.479 -11.870 -0.33 -0.16    +0.295 HD
DOCKED: ENDBRANCH  34  36
DOCKED: ENDBRANCH  33  34
DOCKED: ENDBRANCH   7  33
DOCKED: BRANCH  27  38
DOCKED: ATOM     38  C   UNL d   1       8.947  -1.859 -13.380 -0.40 +0.00    +0.017 C 
DOCKED: ATOM     39  C   UNL d   1       7.935  -2.039 -14.243 -0.32 -0.01    +0.092 C 
DOCKED: BRANCH  39  40
DOCKED: ATOM     40  C   UNL d   1       6.574  -2.244 -13.740 -0.34 -0.09    +0.330 C 
DOCKED: ATOM     41  O   UNL d   1       6.217  -2.345 -12.581 -0.36 +0.04    -0.246 OA
DOCKED: BRANCH  40  42
DOCKED: ATOM     42  O   UNL d   1       5.708  -2.303 -14.763 -0.20 +0.31    -0.477 OA
DOCKED: ATOM     43  H   UNL d   1       5.783  -3.226 -15.081 -0.35 -0.51    +0.295 HD
DOCKED: ENDBRANCH  40  42
DOCKED: ENDBRANCH  39  40
DOCKED: ENDBRANCH  27  38
DOCKED: BRANCH   8  44
DOCKED: ATOM     44  C   UNL d   1      19.238  -5.289 -14.566 -0.02 +0.00    +0.141 C 
DOCKED: BRANCH  44  45
DOCKED: ATOM     45  C   UNL d   1      20.109  -6.507 -14.405 +0.00 +0.02    +0.306 C 
DOCKED: ATOM     46  O   UNL d   1      20.933  -6.699 -13.528 -0.00 -0.02    -0.251 OA
DOCKED: BRANCH  45  47
DOCKED: ATOM     47  O   UNL d   1      19.915  -7.412 -15.381 +0.00 -0.03    -0.481 OA
DOCKED: ATOM     48  H   UNL d   1      19.057  -7.833 -15.160 +0.01 +0.02    +0.295 HD
DOCKED: ENDBRANCH  45  47
DOCKED: ENDBRANCH  44  45
DOCKED: ENDBRANCH   8  44
DOCKED: BRANCH  22  49
DOCKED: ATOM     49  C   UNL d   1       9.890  -6.261 -16.700 -0.09 -0.01    +0.048 C 
DOCKED: BRANCH  49  50
DOCKED: ATOM     50  C   UNL d   1       9.765  -5.790 -18.149 -0.07 -0.01    +0.125 C 
DOCKED: BRANCH  50  51
DOCKED: ATOM     51  C   UNL d   1       9.049  -4.472 -18.225 -0.05 -0.06    +0.305 C 
DOCKED: ATOM     52  O   UNL d   1       8.759  -3.840 -19.225 -0.02 +0.02    -0.251 OA
DOCKED: BRANCH  51  53
DOCKED: ATOM     53  O   UNL d   1       8.736  -3.997 -17.002 -0.01 +0.21    -0.481 OA
DOCKED: ATOM     54  H   UNL d   1       8.232  -4.726 -16.585 -0.47 -0.29    +0.295 HD
DOCKED: ENDBRANCH  51  53
DOCKED: ENDBRANCH  50  51
DOCKED: ENDBRANCH  49  50
DOCKED: ENDBRANCH  22  49
DOCKED: TORSDOF 13
DOCKED: TER
DOCKED: ENDMDL
________________________________________________________________________________


	BEGINNING GENETIC ALGORITHM DOCKING 79 of 100
Run: 79 Seed: 1262730730 1784465470 [ Run 79 of 100 GA/GALS ]
Beginning LAMARCKIAN GENETIC ALGORITHM (LGA), with a maximum of 25000000 energy evaluations.

Final-Value: -11.764


	FINAL GENETIC ALGORITHM DOCKED STATE
	_______________________________________________


Detailed state:  trans 4.321 -12.990 -1.324 quatxyzw -0.748396 -0.275171 -0.261787 -0.543739 center 0.153 0.018 -0.028 ntor 13 81.7293 172.5321 79.5753 70.0501 -151.2038 85.6540 -59.3183 145.9111 -148.8308 -76.7891 -60.5654 169.2152 38.3751
State:	  4.321 -12.990  -1.324  -0.892 -0.328 -0.312 -114.123     81.73  172.53   79.58   70.05 -151.20   85.65  -59.32  145.91 -148.83  -76.79  -60.57  169.22   38.38

DOCKED: MODEL       79
DOCKED: USER    Run = 79
DOCKED: USER    DPF = D:/Protein_go_brrr/autodock/final/AncA/heme/dock.dpf
DOCKED: USER  
DOCKED: USER    Estimated Free Energy of Binding    =   -6.62 kcal/mol  [=(1)+(2)+(3)-(4)]
DOCKED: USER    Estimated Inhibition Constant, Ki   =   13.93 uM (micromolar)  [Temperature = 298.15 K]
DOCKED: USER    
DOCKED: USER    (1) Final Intermolecular Energy     =  -10.50 kcal/mol
DOCKED: USER        vdW + Hbond + desolv Energy     =   -9.74 kcal/mol
DOCKED: USER        Electrostatic Energy            =   -0.77 kcal/mol
DOCKED: USER    (2) Final Total Internal Energy     =   -1.26 kcal/mol
DOCKED: USER    (3) Torsional Free Energy           =   +3.88 kcal/mol
DOCKED: USER    (4) Unbound System's Energy  [=(2)] =   -1.26 kcal/mol
DOCKED: USER    
DOCKED: USER    
DOCKED: USER    NEWDPF move heme_opt.pdbqt
DOCKED: USER    NEWDPF about 0.153000 0.018000 -0.028000
DOCKED: USER    NEWDPF tran0 4.321462 -12.990146 -1.324355
DOCKED: USER    NEWDPF quaternion0 -0.748396 -0.275171 -0.261787 -0.543739
DOCKED: USER    NEWDPF axisangle0 -0.891739 -0.327876 -0.311928 -114.122896
DOCKED: USER    NEWDPF quat0 -0.891739 -0.327876 -0.311928 -114.122896
DOCKED: USER    NEWDPF dihe0 81.73 172.53 79.58 70.05 -151.20 85.65 -59.32 145.91 -148.83 -76.79 -60.57 169.22 38.38 
DOCKED: USER  keepresnum = 1 
DOCKED: USER  
DOCKED: REMARK  13 active torsions:
DOCKED: REMARK  status: ('A' for Active; 'I' for Inactive)
DOCKED: REMARK    1  A    between atoms: O_3  and  C_38 
DOCKED: REMARK    2  A    between atoms: O_4  and  C_40 
DOCKED: REMARK    3  A    between atoms: O_7  and  C_46 
DOCKED: REMARK    4  A    between atoms: O_9  and  C_48 
DOCKED: REMARK    5  A    between atoms: C_15  and  C_20 
DOCKED: REMARK    6  A    between atoms: C_16  and  C_23 
DOCKED: REMARK    7  A    between atoms: C_20  and  C_38 
DOCKED: REMARK    8  A    between atoms: C_23  and  C_40 
DOCKED: REMARK    9  A    between atoms: C_32  and  C_41 
DOCKED: REMARK   10  A    between atoms: C_37  and  C_45 
DOCKED: REMARK   11  A    between atoms: C_41  and  C_44 
DOCKED: REMARK   12  A    between atoms: C_44  and  C_46 
DOCKED: REMARK   13  A    between atoms: C_47  and  C_48 
DOCKED: USER                              x       y       z     vdW  Elec       q    Type
DOCKED: USER                           _______ _______ _______ _____ _____    ______ ____
DOCKED: ROOT
DOCKED: ATOM      1  O   UNL d   1       1.566 -13.518  -6.509 -0.21 -0.12    -0.289 OA
DOCKED: ATOM      2  O   UNL d   1      -1.091 -13.594   0.514 -0.09 -0.26    -0.289 OA
DOCKED: ATOM      3  N   UNL d   1       3.607 -13.306  -3.738 -0.05 -0.07    -0.247 NA
DOCKED: ATOM      4  N   UNL d   1       1.681 -13.109  -1.484 -0.05 -0.10    -0.247 NA
DOCKED: ATOM      5  N   UNL d   1       3.872 -12.312   0.198 -0.06 -0.08    -0.354 N 
DOCKED: ATOM      6  N   UNL d   1       5.861 -12.500  -2.150 -0.07 -0.01    -0.354 N 
DOCKED: ATOM      7  C   UNL d   1       3.954 -13.135  -6.158 -0.34 +0.02    +0.084 A 
DOCKED: ATOM      8  C   UNL d   1      -0.536 -14.081  -1.820 -0.11 +0.07    +0.084 A 
DOCKED: ATOM      9  C   UNL d   1       0.835 -13.706  -2.392 -0.10 +0.03    +0.058 A 
DOCKED: ATOM     10  C   UNL d   1       4.537 -13.097  -4.742 -0.17 +0.01    +0.058 A 
DOCKED: ATOM     11  C   UNL d   1       2.533 -13.421  -5.776 -0.26 +0.08    +0.193 A 
DOCKED: ATOM     12  C   UNL d   1       2.457 -13.527  -4.285 -0.16 +0.04    +0.109 A 
DOCKED: ATOM     13  C   UNL d   1      -0.325 -13.551  -0.429 -0.11 +0.13    +0.193 A 
DOCKED: ATOM     14  C   UNL d   1       4.018 -11.768  -6.842 -0.46 +0.00    +0.026 C 
DOCKED: ATOM     15  C   UNL d   1       1.162 -13.898  -3.679 -0.17 +0.03    +0.055 C 
DOCKED: ATOM     16  C   UNL d   1      -0.725 -15.599  -1.745 -0.09 +0.02    +0.026 C 
DOCKED: ATOM     17  C   UNL d   1       1.054 -12.982  -0.358 -0.14 +0.05    +0.109 A 
DOCKED: ATOM     18  C   UNL d   1       5.860 -12.961  -4.530 -0.21 +0.00    +0.050 C 
DOCKED: ATOM     19  C   UNL d   1       6.498 -12.999  -3.264 -0.14 -0.00    +0.045 A 
DOCKED: ATOM     20  C   UNL d   1       2.823 -12.057   1.042 -0.24 +0.01    +0.045 A 
DOCKED: ATOM     21  C   UNL d   1       1.528 -12.348   0.881 -0.28 +0.02    +0.057 C 
DOCKED: ATOM     22  C   UNL d   1       4.745 -11.272   1.996 -0.11 -0.00    -0.019 A 
DOCKED: ATOM     23  C   UNL d   1       5.074 -11.874   0.688 -0.18 +0.01    +0.045 A 
DOCKED: ATOM     24  C   UNL d   1       3.411 -11.385   2.200 -0.25 -0.01    -0.022 A 
DOCKED: ATOM     25  C   UNL d   1       6.691 -12.554  -1.054 -0.15 -0.01    +0.049 A 
DOCKED: ATOM     26  C   UNL d   1       7.760 -13.421  -2.875 -0.09 +0.01    -0.018 A 
DOCKED: ATOM     27  C   UNL d   1       7.869 -13.155  -1.475 -0.01 -0.00    +0.003 A 
DOCKED: ATOM     28  C   UNL d   1       6.312 -11.953   0.177 -0.24 +0.00    +0.052 C 
DOCKED: ATOM     29  C   UNL d   1       2.606 -10.940   3.374 -0.35 +0.01    +0.046 C 
DOCKED: ATOM     30  C   UNL d   1       8.801 -14.035  -3.747 -0.11 -0.02    +0.046 C 
DOCKED: ATOM     31  H   UNL d   1       3.744 -12.846  -0.655 +0.05 +0.04    +0.166 HD
DOCKED: ATOM     32  H   UNL d   1       4.924 -12.114  -2.166 +0.06 +0.02    +0.166 HD
DOCKED: ENDROOT
DOCKED: BRANCH   7  33
DOCKED: ATOM     33  C   UNL d   1       4.501 -14.244  -7.064 -0.15 +0.07    +0.141 C 
DOCKED: BRANCH  33  34
DOCKED: ATOM     34  C   UNL d   1       5.535 -13.741  -8.035 -0.26 +0.09    +0.306 C 
DOCKED: ATOM     35  O   UNL d   1       5.340 -13.424  -9.196 -1.02 -0.12    -0.251 OA
DOCKED: BRANCH  34  36
DOCKED: ATOM     36  O   UNL d   1       6.762 -13.660  -7.490 -0.08 -0.05    -0.481 OA
DOCKED: ATOM     37  H   UNL d   1       6.876 -12.709  -7.278 -0.35 -0.11    +0.295 HD
DOCKED: ENDBRANCH  34  36
DOCKED: ENDBRANCH  33  34
DOCKED: ENDBRANCH   7  33
DOCKED: BRANCH  27  38
DOCKED: ATOM     38  C   UNL d   1       9.023 -13.425  -0.671 -0.10 -0.01    +0.017 C 
DOCKED: ATOM     39  C   UNL d   1      10.284 -13.489  -1.124 +0.05 -0.06    +0.092 C 
DOCKED: BRANCH  39  40
DOCKED: ATOM     40  C   UNL d   1      11.382 -13.757  -0.191 -0.09 +0.02    +0.330 C 
DOCKED: ATOM     41  O   UNL d   1      11.768 -14.838   0.213 -0.02 -0.04    -0.246 OA
DOCKED: BRANCH  40  42
DOCKED: ATOM     42  O   UNL d   1      11.958 -12.606   0.186 -0.42 -0.35    -0.477 OA
DOCKED: ATOM     43  H   UNL d   1      11.535 -11.933  -0.386 -0.30 +0.09    +0.295 HD
DOCKED: ENDBRANCH  40  42
DOCKED: ENDBRANCH  39  40
DOCKED: ENDBRANCH  27  38
DOCKED: BRANCH   8  44
DOCKED: ATOM     44  C   UNL d   1      -1.737 -13.405  -2.488 -0.19 +0.18    +0.141 C 
DOCKED: BRANCH  44  45
DOCKED: ATOM     45  C   UNL d   1      -2.639 -12.696  -1.513 -0.17 +0.40    +0.306 C 
DOCKED: ATOM     46  O   UNL d   1      -3.718 -13.087  -1.105 -0.35 -0.44    -0.251 OA
DOCKED: BRANCH  45  47
DOCKED: ATOM     47  O   UNL d   1      -2.141 -11.509  -1.122 -0.11 -0.38    -0.481 OA
DOCKED: ATOM     48  H   UNL d   1      -1.760 -11.680  -0.234 +0.15 +0.23    +0.295 HD
DOCKED: ENDBRANCH  45  47
DOCKED: ENDBRANCH  44  45
DOCKED: ENDBRANCH   8  44
DOCKED: BRANCH  22  49
DOCKED: ATOM     49  C   UNL d   1       5.752 -10.636   2.908 -0.13 +0.01    +0.048 C 
DOCKED: BRANCH  49  50
DOCKED: ATOM     50  C   UNL d   1       7.015 -11.487   3.043 -0.10 +0.04    +0.125 C 
DOCKED: BRANCH  50  51
DOCKED: ATOM     51  C   UNL d   1       8.226 -10.726   2.583 -0.13 +0.20    +0.305 C 
DOCKED: ATOM     52  O   UNL d   1       9.333 -10.714   3.091 -0.56 -0.36    -0.251 OA
DOCKED: BRANCH  51  53
DOCKED: ATOM     53  O   UNL d   1       7.971  -9.989   1.484 -0.23 -0.18    -0.481 OA
DOCKED: ATOM     54  H   UNL d   1       8.475 -10.438   0.774 -0.27 +0.03    +0.295 HD
DOCKED: ENDBRANCH  51  53
DOCKED: ENDBRANCH  50  51
DOCKED: ENDBRANCH  49  50
DOCKED: ENDBRANCH  22  49
DOCKED: TORSDOF 13
DOCKED: TER
DOCKED: ENDMDL
________________________________________________________________________________


	BEGINNING GENETIC ALGORITHM DOCKING 80 of 100
Run: 80 Seed: 2124133408 468526022 [ Run 80 of 100 GA/GALS ]
Beginning LAMARCKIAN GENETIC ALGORITHM (LGA), with a maximum of 25000000 energy evaluations.

Final-Value: -10.923


	FINAL GENETIC ALGORITHM DOCKED STATE
	_______________________________________________


Detailed state:  trans 7.981 -2.963 -16.754 quatxyzw 0.075261 0.430951 -0.591763 0.677077 center 0.153 0.018 -0.028 ntor 13 -114.6365 179.5911 -101.0022 -12.5895 32.5830 53.2593 122.3350 -180.0000 134.6775 -25.5832 68.2016 -170.3442 -10.2729
State:	  7.981  -2.963 -16.754   0.102  0.586 -0.804 94.769   -114.64  179.59 -101.00  -12.59   32.58   53.26  122.34 -180.00  134.68  -25.58   68.20 -170.34  -10.27

DOCKED: MODEL       80
DOCKED: USER    Run = 80
DOCKED: USER    DPF = D:/Protein_go_brrr/autodock/final/AncA/heme/dock.dpf
DOCKED: USER  
DOCKED: USER    Estimated Free Energy of Binding    =   -4.66 kcal/mol  [=(1)+(2)+(3)-(4)]
DOCKED: USER    Estimated Inhibition Constant, Ki   =  386.84 uM (micromolar)  [Temperature = 298.15 K]
DOCKED: USER    
DOCKED: USER    (1) Final Intermolecular Energy     =   -8.53 kcal/mol
DOCKED: USER        vdW + Hbond + desolv Energy     =   -8.20 kcal/mol
DOCKED: USER        Electrostatic Energy            =   -0.33 kcal/mol
DOCKED: USER    (2) Final Total Internal Energy     =   -2.39 kcal/mol
DOCKED: USER    (3) Torsional Free Energy           =   +3.88 kcal/mol
DOCKED: USER    (4) Unbound System's Energy  [=(2)] =   -2.39 kcal/mol
DOCKED: USER    
DOCKED: USER    
DOCKED: USER    NEWDPF move heme_opt.pdbqt
DOCKED: USER    NEWDPF about 0.153000 0.018000 -0.028000
DOCKED: USER    NEWDPF tran0 7.981359 -2.963172 -16.753680
DOCKED: USER    NEWDPF quaternion0 0.075261 0.430951 -0.591763 0.677077
DOCKED: USER    NEWDPF axisangle0 0.102269 0.585601 -0.804122 94.768696
DOCKED: USER    NEWDPF quat0 0.102269 0.585601 -0.804122 94.768696
DOCKED: USER    NEWDPF dihe0 -114.64 179.59 -101.00 -12.59 32.58 53.26 122.34 -180.00 134.68 -25.58 68.20 -170.34 -10.27 
DOCKED: USER  keepresnum = 1 
DOCKED: USER  
DOCKED: REMARK  13 active torsions:
DOCKED: REMARK  status: ('A' for Active; 'I' for Inactive)
DOCKED: REMARK    1  A    between atoms: O_3  and  C_38 
DOCKED: REMARK    2  A    between atoms: O_4  and  C_40 
DOCKED: REMARK    3  A    between atoms: O_7  and  C_46 
DOCKED: REMARK    4  A    between atoms: O_9  and  C_48 
DOCKED: REMARK    5  A    between atoms: C_15  and  C_20 
DOCKED: REMARK    6  A    between atoms: C_16  and  C_23 
DOCKED: REMARK    7  A    between atoms: C_20  and  C_38 
DOCKED: REMARK    8  A    between atoms: C_23  and  C_40 
DOCKED: REMARK    9  A    between atoms: C_32  and  C_41 
DOCKED: REMARK   10  A    between atoms: C_37  and  C_45 
DOCKED: REMARK   11  A    between atoms: C_41  and  C_44 
DOCKED: REMARK   12  A    between atoms: C_44  and  C_46 
DOCKED: REMARK   13  A    between atoms: C_47  and  C_48 
DOCKED: USER                              x       y       z     vdW  Elec       q    Type
DOCKED: USER                           _______ _______ _______ _____ _____    ______ ____
DOCKED: ROOT
DOCKED: ATOM      1  O   UNL d   1       6.704  -7.601 -20.162 -0.02 +0.01    -0.289 OA
DOCKED: ATOM      2  O   UNL d   1      12.803  -6.017 -16.077 -0.11 +0.02    -0.289 OA
DOCKED: ATOM      3  N   UNL d   1       7.064  -4.654 -18.407 -0.11 +0.14    -0.247 NA
DOCKED: ATOM      4  N   UNL d   1       9.591  -5.061 -16.898 -0.06 +0.07    -0.247 NA
DOCKED: ATOM      5  N   UNL d   1       8.902  -2.767 -15.307 -0.06 +0.09    -0.354 N 
DOCKED: ATOM      6  N   UNL d   1       6.273  -2.364 -16.865 -0.07 +0.21    -0.354 N 
DOCKED: ATOM      7  C   UNL d   1       5.251  -5.694 -19.688 -0.12 -0.03    +0.084 A 
DOCKED: ATOM      8  C   UNL d   1      11.220  -6.617 -17.844 -0.04 -0.00    +0.084 A 
DOCKED: ATOM      9  C   UNL d   1       9.829  -5.977 -17.898 -0.08 -0.01    +0.058 A 
DOCKED: ATOM     10  C   UNL d   1       5.755  -4.522 -18.840 -0.12 -0.04    +0.058 A 
DOCKED: ATOM     11  C   UNL d   1       6.513  -6.503 -19.672 -0.06 -0.04    +0.193 A 
DOCKED: ATOM     12  C   UNL d   1       7.544  -5.755 -18.886 -0.11 -0.03    +0.109 A 
DOCKED: ATOM     13  C   UNL d   1      11.713  -5.923 -16.606 -0.09 -0.01    +0.193 A 
DOCKED: ATOM     14  C   UNL d   1       4.148  -6.483 -18.979 +0.06 -0.01    +0.026 C 
DOCKED: ATOM     15  C   UNL d   1       8.907  -6.319 -18.811 -0.07 -0.01    +0.055 C 
DOCKED: ATOM     16  C   UNL d   1      12.089  -6.187 -19.030 -0.01 +0.00    +0.026 C 
DOCKED: ATOM     17  C   UNL d   1      10.629  -5.014 -16.126 -0.16 -0.02    +0.109 A 
DOCKED: ATOM     18  C   UNL d   1       4.997  -3.430 -18.628 -0.13 -0.03    +0.050 C 
DOCKED: ATOM     19  C   UNL d   1       5.408  -2.266 -17.931 -0.14 -0.02    +0.045 A 
DOCKED: ATOM     20  C   UNL d   1       9.970  -3.240 -14.589 -0.30 -0.00    +0.045 A 
DOCKED: ATOM     21  C   UNL d   1      10.814  -4.230 -14.896 -0.36 -0.01    +0.057 C 
DOCKED: ATOM     22  C   UNL d   1       8.999  -1.529 -13.428 -0.31 -0.00    -0.019 A 
DOCKED: ATOM     23  C   UNL d   1       8.253  -1.734 -14.686 -0.21 -0.00    +0.045 A 
DOCKED: ATOM     24  C   UNL d   1      10.015  -2.423 -13.377 -0.40 -0.00    -0.022 A 
DOCKED: ATOM     25  C   UNL d   1       6.464  -1.132 -16.283 -0.17 -0.00    +0.049 A 
DOCKED: ATOM     26  C   UNL d   1       5.057  -0.931 -18.068 -0.10 +0.00    -0.018 A 
DOCKED: ATOM     27  C   UNL d   1       5.742  -0.218 -17.037 -0.11 +0.00    +0.003 A 
DOCKED: ATOM     28  C   UNL d   1       7.194  -1.005 -15.069 -0.25 +0.00    +0.052 C 
DOCKED: ATOM     29  C   UNL d   1      11.047  -2.602 -12.317 -0.08 +0.01    +0.046 C 
DOCKED: ATOM     30  C   UNL d   1       4.143  -0.352 -19.094 -0.06 +0.00    +0.046 C 
DOCKED: ATOM     31  H   UNL d   1       8.696  -3.119 -16.236 -0.05 -0.06    +0.166 HD
DOCKED: ATOM     32  H   UNL d   1       6.670  -3.239 -16.544 -0.26 -0.18    +0.166 HD
DOCKED: ENDROOT
DOCKED: BRANCH   7  33
DOCKED: ATOM     33  C   UNL d   1       4.855  -5.342 -21.126 -0.04 -0.01    +0.141 C 
DOCKED: BRANCH  33  34
DOCKED: ATOM     34  C   UNL d   1       4.317  -6.525 -21.884 -0.00 +0.01    +0.306 C 
DOCKED: ATOM     35  O   UNL d   1       3.159  -6.905 -21.899 -0.03 -0.01    -0.251 OA
DOCKED: BRANCH  34  36
DOCKED: ATOM     36  O   UNL d   1       5.268  -7.166 -22.587 +0.01 -0.04    -0.481 OA
DOCKED: ATOM     37  H   UNL d   1       5.894  -7.498 -21.909 +0.02 +0.02    +0.295 HD
DOCKED: ENDBRANCH  34  36
DOCKED: ENDBRANCH  33  34
DOCKED: ENDBRANCH   7  33
DOCKED: BRANCH  27  38
DOCKED: ATOM     38  C   UNL d   1       5.648   1.192 -16.807 -0.16 +0.01    +0.017 C 
DOCKED: ATOM     39  C   UNL d   1       4.507   1.897 -16.774 +0.01 +0.05    +0.092 C 
DOCKED: BRANCH  39  40
DOCKED: ATOM     40  C   UNL d   1       4.546   3.338 -16.511 -0.12 +0.29    +0.330 C 
DOCKED: ATOM     41  O   UNL d   1       5.227   4.178 -17.067 -0.55 -0.37    -0.246 OA
DOCKED: BRANCH  40  42
DOCKED: ATOM     42  O   UNL d   1       3.684   3.652 -15.530 -0.10 -0.20    -0.477 OA
DOCKED: ATOM     43  H   UNL d   1       3.277   2.793 -15.292 -0.39 -0.00    +0.295 HD
DOCKED: ENDBRANCH  40  42
DOCKED: ENDBRANCH  39  40
DOCKED: ENDBRANCH  27  38
DOCKED: BRANCH   8  44
DOCKED: ATOM     44  C   UNL d   1      11.240  -8.139 -17.665 -0.05 +0.00    +0.141 C 
DOCKED: BRANCH  44  45
DOCKED: ATOM     45  C   UNL d   1      10.916  -8.576 -16.262 -0.12 -0.01    +0.306 C 
DOCKED: ATOM     46  O   UNL d   1       9.808  -8.635 -15.756 -0.23 +0.00    -0.251 OA
DOCKED: BRANCH  45  47
DOCKED: ATOM     47  O   UNL d   1      12.015  -8.893 -15.554 -0.03 +0.05    -0.481 OA
DOCKED: ATOM     48  H   UNL d   1      12.396  -8.029 -15.289 -0.12 -0.07    +0.295 HD
DOCKED: ENDBRANCH  45  47
DOCKED: ENDBRANCH  44  45
DOCKED: ENDBRANCH   8  44
DOCKED: BRANCH  22  49
DOCKED: ATOM     49  C   UNL d   1       8.644  -0.499 -12.396 -0.34 +0.01    +0.048 C 
DOCKED: BRANCH  49  50
DOCKED: ATOM     50  C   UNL d   1       9.419   0.803 -12.602 -0.24 +0.02    +0.125 C 
DOCKED: BRANCH  50  51
DOCKED: ATOM     51  C   UNL d   1      10.418   1.013 -11.500 -0.34 +0.03    +0.305 C 
DOCKED: ATOM     52  O   UNL d   1      11.261   1.888 -11.418 -0.76 -0.06    -0.251 OA
DOCKED: BRANCH  51  53
DOCKED: ATOM     53  O   UNL d   1      10.310   0.076 -10.536 -0.13 +0.03    -0.481 OA
DOCKED: ATOM     54  H   UNL d   1      11.125   0.186 -10.005 -0.33 -0.11    +0.295 HD
DOCKED: ENDBRANCH  51  53
DOCKED: ENDBRANCH  50  51
DOCKED: ENDBRANCH  49  50
DOCKED: ENDBRANCH  22  49
DOCKED: TORSDOF 13
DOCKED: TER
DOCKED: ENDMDL
________________________________________________________________________________


	BEGINNING GENETIC ALGORITHM DOCKING 81 of 100
Run: 81 Seed: 1597526852 1130225431 [ Run 81 of 100 GA/GALS ]
Beginning LAMARCKIAN GENETIC ALGORITHM (LGA), with a maximum of 25000000 energy evaluations.

Final-Value: -11.786


	FINAL GENETIC ALGORITHM DOCKED STATE
	_______________________________________________


Detailed state:  trans 13.203 -1.848 -14.600 quatxyzw 0.029945 0.374999 -0.926404 -0.015979 center 0.153 0.018 -0.028 ntor 13 150.3961 -81.7434 103.5536 -78.7876 -139.8898 45.5363 -52.1305 179.4256 17.2844 -131.1365 103.0130 180.0000 18.0644
State:	 13.203  -1.848 -14.600   0.030  0.375 -0.927 -178.169    150.40  -81.74  103.55  -78.79 -139.89   45.54  -52.13  179.43   17.28 -131.14  103.01  180.00   18.06

DOCKED: MODEL       81
DOCKED: USER    Run = 81
DOCKED: USER    DPF = D:/Protein_go_brrr/autodock/final/AncA/heme/dock.dpf
DOCKED: USER  
DOCKED: USER    Estimated Free Energy of Binding    =   -5.52 kcal/mol  [=(1)+(2)+(3)-(4)]
DOCKED: USER    Estimated Inhibition Constant, Ki   =   89.86 uM (micromolar)  [Temperature = 298.15 K]
DOCKED: USER    
DOCKED: USER    (1) Final Intermolecular Energy     =   -9.40 kcal/mol
DOCKED: USER        vdW + Hbond + desolv Energy     =   -8.59 kcal/mol
DOCKED: USER        Electrostatic Energy            =   -0.80 kcal/mol
DOCKED: USER    (2) Final Total Internal Energy     =   -2.39 kcal/mol
DOCKED: USER    (3) Torsional Free Energy           =   +3.88 kcal/mol
DOCKED: USER    (4) Unbound System's Energy  [=(2)] =   -2.39 kcal/mol
DOCKED: USER    
DOCKED: USER    
DOCKED: USER    NEWDPF move heme_opt.pdbqt
DOCKED: USER    NEWDPF about 0.153000 0.018000 -0.028000
DOCKED: USER    NEWDPF tran0 13.202823 -1.848125 -14.599502
DOCKED: USER    NEWDPF quaternion0 0.029945 0.374999 -0.926404 -0.015979
DOCKED: USER    NEWDPF axisangle0 0.029949 0.375047 -0.926522 -178.168910
DOCKED: USER    NEWDPF quat0 0.029949 0.375047 -0.926522 -178.168910
DOCKED: USER    NEWDPF dihe0 150.40 -81.74 103.55 -78.79 -139.89 45.54 -52.13 179.43 17.28 -131.14 103.01 180.00 18.06 
DOCKED: USER  keepresnum = 1 
DOCKED: USER  
DOCKED: REMARK  13 active torsions:
DOCKED: REMARK  status: ('A' for Active; 'I' for Inactive)
DOCKED: REMARK    1  A    between atoms: O_3  and  C_38 
DOCKED: REMARK    2  A    between atoms: O_4  and  C_40 
DOCKED: REMARK    3  A    between atoms: O_7  and  C_46 
DOCKED: REMARK    4  A    between atoms: O_9  and  C_48 
DOCKED: REMARK    5  A    between atoms: C_15  and  C_20 
DOCKED: REMARK    6  A    between atoms: C_16  and  C_23 
DOCKED: REMARK    7  A    between atoms: C_20  and  C_38 
DOCKED: REMARK    8  A    between atoms: C_23  and  C_40 
DOCKED: REMARK    9  A    between atoms: C_32  and  C_41 
DOCKED: REMARK   10  A    between atoms: C_37  and  C_45 
DOCKED: REMARK   11  A    between atoms: C_41  and  C_44 
DOCKED: REMARK   12  A    between atoms: C_44  and  C_46 
DOCKED: REMARK   13  A    between atoms: C_47  and  C_48 
DOCKED: USER                              x       y       z     vdW  Elec       q    Type
DOCKED: USER                           _______ _______ _______ _____ _____    ______ ____
DOCKED: ROOT
DOCKED: ATOM      1  O   UNL d   1      18.861  -3.472 -14.928 -0.01 +0.00    -0.289 OA
DOCKED: ATOM      2  O   UNL d   1      15.670   2.750 -12.190 -0.21 -0.05    -0.289 OA
DOCKED: ATOM      3  N   UNL d   1      15.464  -2.894 -15.077 -0.08 +0.04    -0.247 NA
DOCKED: ATOM      4  N   UNL d   1      15.127  -0.392 -13.509 -0.17 +0.08    -0.247 NA
DOCKED: ATOM      5  N   UNL d   1      12.299  -0.907 -13.470 -0.11 +0.01    -0.354 N 
DOCKED: ATOM      6  N   UNL d   1      12.659  -3.511 -15.080 -0.04 +0.06    -0.354 N 
DOCKED: ATOM      7  C   UNL d   1      16.922  -4.784 -15.633 -0.05 -0.00    +0.084 A 
DOCKED: ATOM      8  C   UNL d   1      17.046   1.116 -13.386 -0.15 -0.01    +0.084 A 
DOCKED: ATOM      9  C   UNL d   1      16.456  -0.226 -13.831 -0.13 -0.02    +0.058 A 
DOCKED: ATOM     10  C   UNL d   1      15.511  -4.193 -15.555 -0.09 -0.01    +0.058 A 
DOCKED: ATOM     11  C   UNL d   1      17.665  -3.582 -15.132 -0.04 -0.01    +0.193 A 
DOCKED: ATOM     12  C   UNL d   1      16.674  -2.495 -14.854 -0.11 -0.01    +0.109 A 
DOCKED: ATOM     13  C   UNL d   1      15.816   1.666 -12.720 -0.17 -0.00    +0.193 A 
DOCKED: ATOM     14  C   UNL d   1      17.118  -5.935 -14.643 -0.10 +0.00    +0.026 C 
DOCKED: ATOM     15  C   UNL d   1      17.187  -1.176 -14.435 -0.13 -0.01    +0.055 C 
DOCKED: ATOM     16  C   UNL d   1      17.397   2.006 -14.582 -0.11 +0.00    +0.026 C 
DOCKED: ATOM     17  C   UNL d   1      14.727   0.652 -12.858 -0.27 -0.02    +0.109 A 
DOCKED: ATOM     18  C   UNL d   1      14.439  -4.871 -16.006 -0.12 -0.00    +0.050 C 
DOCKED: ATOM     19  C   UNL d   1      13.112  -4.374 -16.052 -0.12 -0.00    +0.045 A 
DOCKED: ATOM     20  C   UNL d   1      12.362   0.130 -12.575 -0.38 -0.00    +0.045 A 
DOCKED: ATOM     21  C   UNL d   1      13.408   0.900 -12.258 -0.51 +0.00    +0.057 C 
DOCKED: ATOM     22  C   UNL d   1      10.238  -0.710 -12.583 -0.37 -0.00    -0.019 A 
DOCKED: ATOM     23  C   UNL d   1      11.056  -1.477 -13.544 -0.29 +0.00    +0.045 A 
DOCKED: ATOM     24  C   UNL d   1      11.016   0.240 -12.014 -0.42 -0.00    -0.022 A 
DOCKED: ATOM     25  C   UNL d   1      11.325  -3.229 -15.267 -0.18 -0.00    +0.049 A 
DOCKED: ATOM     26  C   UNL d   1      12.056  -4.631 -16.913 -0.07 +0.00    -0.018 A 
DOCKED: ATOM     27  C   UNL d   1      10.936  -3.890 -16.424 -0.11 -0.00    +0.003 A 
DOCKED: ATOM     28  C   UNL d   1      10.595  -2.484 -14.301 -0.30 -0.00    +0.052 C 
DOCKED: ATOM     29  C   UNL d   1      10.645   1.265 -10.996 -0.54 +0.00    +0.046 C 
DOCKED: ATOM     30  C   UNL d   1      12.084  -5.508 -18.119 -0.03 -0.00    +0.046 C 
DOCKED: ATOM     31  H   UNL d   1      13.091  -1.143 -14.058 +0.06 -0.01    +0.166 HD
DOCKED: ATOM     32  H   UNL d   1      13.234  -3.174 -14.317 -0.34 -0.07    +0.166 HD
DOCKED: ENDROOT
DOCKED: BRANCH   7  33
DOCKED: ATOM     33  C   UNL d   1      17.399  -5.163 -17.039 -0.01 +0.01    +0.141 C 
DOCKED: BRANCH  33  34
DOCKED: ATOM     34  C   UNL d   1      17.542  -3.969 -17.944 +0.00 +0.01    +0.306 C 
DOCKED: ATOM     35  O   UNL d   1      16.656  -3.460 -18.609 -0.00 -0.01    -0.251 OA
DOCKED: BRANCH  34  36
DOCKED: ATOM     36  O   UNL d   1      18.794  -3.478 -17.960 +0.00 -0.03    -0.481 OA
DOCKED: ATOM     37  H   UNL d   1      19.138  -3.651 -17.058 +0.01 +0.01    +0.295 HD
DOCKED: ENDBRANCH  34  36
DOCKED: ENDBRANCH  33  34
DOCKED: ENDBRANCH   7  33
DOCKED: BRANCH  27  38
DOCKED: ATOM     38  C   UNL d   1       9.631  -3.882 -17.012 -0.12 -0.00    +0.017 C 
DOCKED: ATOM     39  C   UNL d   1       9.031  -4.941 -17.578 -0.10 -0.03    +0.092 C 
DOCKED: BRANCH  39  40
DOCKED: ATOM     40  C   UNL d   1       7.680  -4.805 -18.130 -0.08 -0.16    +0.330 C 
DOCKED: ATOM     41  O   UNL d   1       7.243  -3.896 -18.810 -0.08 +0.08    -0.246 OA
DOCKED: BRANCH  40  42
DOCKED: ATOM     42  O   UNL d   1       6.933  -5.867 -17.790 -0.07 +0.41    -0.477 OA
DOCKED: ATOM     43  H   UNL d   1       6.422  -5.555 -17.015 -0.23 -0.55    +0.295 HD
DOCKED: ENDBRANCH  40  42
DOCKED: ENDBRANCH  39  40
DOCKED: ENDBRANCH  27  38
DOCKED: BRANCH   8  44
DOCKED: ATOM     44  C   UNL d   1      18.213   1.030 -12.398 -0.06 +0.01    +0.141 C 
DOCKED: BRANCH  44  45
DOCKED: ATOM     45  C   UNL d   1      18.765   2.376 -12.011 -0.10 +0.14    +0.306 C 
DOCKED: ATOM     46  O   UNL d   1      19.729   2.936 -12.504 -0.04 -0.07    -0.251 OA
DOCKED: BRANCH  45  47
DOCKED: ATOM     47  O   UNL d   1      18.084   2.939 -10.996 -0.09 -0.46    -0.481 OA
DOCKED: ATOM     48  H   UNL d   1      17.264   3.284 -11.409 +0.02 +0.15    +0.295 HD
DOCKED: ENDBRANCH  45  47
DOCKED: ENDBRANCH  44  45
DOCKED: ENDBRANCH   8  44
DOCKED: BRANCH  22  49
DOCKED: ATOM     49  C   UNL d   1       8.790  -0.984 -12.302 -0.28 +0.01    +0.048 C 
DOCKED: BRANCH  49  50
DOCKED: ATOM     50  C   UNL d   1       7.912  -0.714 -13.524 -0.31 +0.02    +0.125 C 
DOCKED: BRANCH  50  51
DOCKED: ATOM     51  C   UNL d   1       7.710   0.761 -13.724 -0.19 +0.15    +0.305 C 
DOCKED: ATOM     52  O   UNL d   1       7.164   1.317 -14.661 -0.76 -0.28    -0.251 OA
DOCKED: BRANCH  51  53
DOCKED: ATOM     53  O   UNL d   1       8.232   1.483 -12.712 -0.05 -0.18    -0.481 OA
DOCKED: ATOM     54  H   UNL d   1       9.085   1.810 -13.068 -0.36 +0.02    +0.295 HD
DOCKED: ENDBRANCH  51  53
DOCKED: ENDBRANCH  50  51
DOCKED: ENDBRANCH  49  50
DOCKED: ENDBRANCH  22  49
DOCKED: TORSDOF 13
DOCKED: TER
DOCKED: ENDMDL
________________________________________________________________________________


	BEGINNING GENETIC ALGORITHM DOCKING 82 of 100
Run: 82 Seed: 1439835715 508440547 [ Run 82 of 100 GA/GALS ]
Beginning LAMARCKIAN GENETIC ALGORITHM (LGA), with a maximum of 25000000 energy evaluations.

Final-Value: -13.947


	FINAL GENETIC ALGORITHM DOCKED STATE
	_______________________________________________


Detailed state:  trans -6.192 -1.669 -16.965 quatxyzw -0.689483 0.660115 0.252175 -0.158963 center 0.153 0.018 -0.028 ntor 13 -151.4486 -67.4752 77.5823 -5.7842 -139.8273 151.3364 -44.3939 88.9462 -150.6014 -124.1913 55.5478 42.8790 147.9772
State:	 -6.192  -1.669 -16.965  -0.698  0.669  0.255 -161.707   -151.45  -67.48   77.58   -5.78 -139.83  151.34  -44.39   88.95 -150.60 -124.19   55.55   42.88  147.98

DOCKED: MODEL       82
DOCKED: USER    Run = 82
DOCKED: USER    DPF = D:/Protein_go_brrr/autodock/final/AncA/heme/dock.dpf
DOCKED: USER  
DOCKED: USER    Estimated Free Energy of Binding    =   -8.32 kcal/mol  [=(1)+(2)+(3)-(4)]
DOCKED: USER    Estimated Inhibition Constant, Ki   =  802.21 nM (nanomolar)  [Temperature = 298.15 K]
DOCKED: USER    
DOCKED: USER    (1) Final Intermolecular Energy     =  -12.19 kcal/mol
DOCKED: USER        vdW + Hbond + desolv Energy     =  -11.03 kcal/mol
DOCKED: USER        Electrostatic Energy            =   -1.16 kcal/mol
DOCKED: USER    (2) Final Total Internal Energy     =   -1.75 kcal/mol
DOCKED: USER    (3) Torsional Free Energy           =   +3.88 kcal/mol
DOCKED: USER    (4) Unbound System's Energy  [=(2)] =   -1.75 kcal/mol
DOCKED: USER    
DOCKED: USER    
DOCKED: USER    NEWDPF move heme_opt.pdbqt
DOCKED: USER    NEWDPF about 0.153000 0.018000 -0.028000
DOCKED: USER    NEWDPF tran0 -6.191512 -1.668901 -16.964845
DOCKED: USER    NEWDPF quaternion0 -0.689483 0.660115 0.252175 -0.158963
DOCKED: USER    NEWDPF axisangle0 -0.698363 0.668617 0.255423 -161.706637
DOCKED: USER    NEWDPF quat0 -0.698363 0.668617 0.255423 -161.706637
DOCKED: USER    NEWDPF dihe0 -151.45 -67.48 77.58 -5.78 -139.83 151.34 -44.39 88.95 -150.60 -124.19 55.55 42.88 147.98 
DOCKED: USER  keepresnum = 1 
DOCKED: USER  
DOCKED: REMARK  13 active torsions:
DOCKED: REMARK  status: ('A' for Active; 'I' for Inactive)
DOCKED: REMARK    1  A    between atoms: O_3  and  C_38 
DOCKED: REMARK    2  A    between atoms: O_4  and  C_40 
DOCKED: REMARK    3  A    between atoms: O_7  and  C_46 
DOCKED: REMARK    4  A    between atoms: O_9  and  C_48 
DOCKED: REMARK    5  A    between atoms: C_15  and  C_20 
DOCKED: REMARK    6  A    between atoms: C_16  and  C_23 
DOCKED: REMARK    7  A    between atoms: C_20  and  C_38 
DOCKED: REMARK    8  A    between atoms: C_23  and  C_40 
DOCKED: REMARK    9  A    between atoms: C_32  and  C_41 
DOCKED: REMARK   10  A    between atoms: C_37  and  C_45 
DOCKED: REMARK   11  A    between atoms: C_41  and  C_44 
DOCKED: REMARK   12  A    between atoms: C_44  and  C_46 
DOCKED: REMARK   13  A    between atoms: C_47  and  C_48 
DOCKED: USER                              x       y       z     vdW  Elec       q    Type
DOCKED: USER                           _______ _______ _______ _____ _____    ______ ____
DOCKED: ROOT
DOCKED: ATOM      1  O   UNL d   1      -7.961   3.215 -14.177 -0.38 -0.01    -0.289 OA
DOCKED: ATOM      2  O   UNL d   1      -1.178   0.043 -14.736 -0.29 +0.00    -0.289 OA
DOCKED: ATOM      3  N   UNL d   1      -7.423   0.236 -15.829 -0.17 +0.05    -0.247 NA
DOCKED: ATOM      4  N   UNL d   1      -4.465  -0.047 -15.782 -0.14 +0.01    -0.247 NA
DOCKED: ATOM      5  N   UNL d   1      -4.725  -2.124 -17.752 -0.11 +0.03    -0.354 N 
DOCKED: ATOM      6  N   UNL d   1      -7.791  -1.811 -17.809 -0.06 +0.07    -0.354 N 
DOCKED: ATOM      7  C   UNL d   1      -9.344   1.730 -15.540 -0.21 -0.03    +0.084 A 
DOCKED: ATOM      8  C   UNL d   1      -3.265   1.064 -13.966 -0.28 -0.01    +0.084 A 
DOCKED: ATOM      9  C   UNL d   1      -4.582   0.800 -14.702 -0.24 -0.00    +0.058 A 
DOCKED: ATOM     10  C   UNL d   1      -8.755   0.450 -16.141 -0.24 -0.02    +0.058 A 
DOCKED: ATOM     11  C   UNL d   1      -8.114   2.191 -14.818 -0.19 -0.03    +0.193 A 
DOCKED: ATOM     12  C   UNL d   1      -7.026   1.188 -15.049 -0.24 -0.02    +0.109 A 
DOCKED: ATOM     13  C   UNL d   1      -2.371   0.241 -14.850 -0.20 -0.01    +0.193 A 
DOCKED: ATOM     14  C   UNL d   1      -9.701   2.759 -16.617 -0.08 -0.00    +0.026 C 
DOCKED: ATOM     15  C   UNL d   1      -5.738   1.386 -14.354 -0.30 -0.00    +0.055 C 
DOCKED: ATOM     16  C   UNL d   1      -3.266   0.453 -12.562 -0.55 -0.00    +0.026 C 
DOCKED: ATOM     17  C   UNL d   1      -3.220  -0.374 -15.916 -0.08 -0.00    +0.109 A 
DOCKED: ATOM     18  C   UNL d   1      -9.517  -0.417 -16.833 -0.21 -0.02    +0.050 C 
DOCKED: ATOM     19  C   UNL d   1      -9.081  -1.663 -17.352 -0.17 -0.02    +0.045 A 
DOCKED: ATOM     20  C   UNL d   1      -3.364  -1.955 -17.767 -0.23 -0.00    +0.045 A 
DOCKED: ATOM     21  C   UNL d   1      -2.605  -1.206 -16.961 -0.08 +0.00    +0.057 C 
DOCKED: ATOM     22  C   UNL d   1      -3.947  -3.388 -19.447 -0.25 +0.00    -0.019 A 
DOCKED: ATOM     23  C   UNL d   1      -5.170  -2.972 -18.731 -0.23 -0.01    +0.045 A 
DOCKED: ATOM     24  C   UNL d   1      -2.882  -2.783 -18.871 -0.23 +0.00    -0.022 A 
DOCKED: ATOM     25  C   UNL d   1      -7.611  -3.064 -18.349 -0.20 -0.01    +0.049 A 
DOCKED: ATOM     26  C   UNL d   1      -9.745  -2.860 -17.567 -0.17 +0.01    -0.018 A 
DOCKED: ATOM     27  C   UNL d   1      -8.806  -3.748 -18.179 -0.22 -0.00    +0.003 A 
DOCKED: ATOM     28  C   UNL d   1      -6.407  -3.399 -19.027 -0.25 -0.01    +0.052 C 
DOCKED: ATOM     29  C   UNL d   1      -1.439  -2.896 -19.229 -0.23 -0.00    +0.046 C 
DOCKED: ATOM     30  C   UNL d   1     -11.164  -3.165 -17.224 -0.16 -0.02    +0.046 C 
DOCKED: ATOM     31  H   UNL d   1      -5.299  -1.711 -17.025 +0.07 -0.01    +0.166 HD
DOCKED: ATOM     32  H   UNL d   1      -7.097  -1.073 -17.780 +0.05 -0.02    +0.166 HD
DOCKED: ENDROOT
DOCKED: BRANCH   7  33
DOCKED: ATOM     33  C   UNL d   1     -10.499   1.522 -14.556 +0.03 -0.13    +0.141 C 
DOCKED: BRANCH  33  34
DOCKED: ATOM     34  C   UNL d   1     -11.841   1.824 -15.166 -0.11 -0.21    +0.306 C 
DOCKED: ATOM     35  O   UNL d   1     -12.372   2.920 -15.234 -0.07 +0.08    -0.251 OA
DOCKED: BRANCH  34  36
DOCKED: ATOM     36  O   UNL d   1     -12.444   0.729 -15.662 -0.04 +0.50    -0.481 OA
DOCKED: ATOM     37  H   UNL d   1     -12.072  -0.015 -15.141 -0.47 -0.72    +0.295 HD
DOCKED: ENDBRANCH  34  36
DOCKED: ENDBRANCH  33  34
DOCKED: ENDBRANCH   7  33
DOCKED: BRANCH  27  38
DOCKED: ATOM     38  C   UNL d   1      -9.086  -5.092 -18.585 -0.28 -0.01    +0.017 C 
DOCKED: ATOM     39  C   UNL d   1      -8.751  -6.194 -17.896 -0.17 -0.03    +0.092 C 
DOCKED: BRANCH  39  40
DOCKED: ATOM     40  C   UNL d   1      -9.112  -7.516 -18.415 -0.08 -0.22    +0.330 C 
DOCKED: ATOM     41  O   UNL d   1      -8.513  -8.564 -18.262 -0.89 +0.10    -0.246 OA
DOCKED: BRANCH  40  42
DOCKED: ATOM     42  O   UNL d   1     -10.254  -7.442 -19.115 -0.03 +0.40    -0.477 OA
DOCKED: ATOM     43  H   UNL d   1      -9.977  -7.623 -20.037 -0.48 -0.57    +0.295 HD
DOCKED: ENDBRANCH  40  42
DOCKED: ENDBRANCH  39  40
DOCKED: ENDBRANCH  27  38
DOCKED: BRANCH   8  44
DOCKED: ATOM     44  C   UNL d   1      -2.808   2.527 -13.934 -0.15 +0.00    +0.141 C 
DOCKED: BRANCH  44  45
DOCKED: ATOM     45  C   UNL d   1      -1.441   2.709 -13.330 -0.18 +0.01    +0.306 C 
DOCKED: ATOM     46  O   UNL d   1      -1.184   2.879 -12.151 -0.27 -0.01    -0.251 OA
DOCKED: BRANCH  45  47
DOCKED: ATOM     47  O   UNL d   1      -0.463   2.694 -14.254 -0.10 +0.03    -0.481 OA
DOCKED: ATOM     48  H   UNL d   1      -0.056   1.806 -14.170 -0.37 -0.06    +0.295 HD
DOCKED: ENDBRANCH  45  47
DOCKED: ENDBRANCH  44  45
DOCKED: ENDBRANCH   8  44
DOCKED: BRANCH  22  49
DOCKED: ATOM     49  C   UNL d   1      -3.936  -4.316 -20.626 -0.23 -0.02    +0.048 C 
DOCKED: BRANCH  49  50
DOCKED: ATOM     50  C   UNL d   1      -4.662  -3.716 -21.830 -0.12 -0.04    +0.125 C 
DOCKED: BRANCH  50  51
DOCKED: ATOM     51  C   UNL d   1      -5.765  -4.623 -22.298 -0.12 -0.22    +0.305 C 
DOCKED: ATOM     52  O   UNL d   1      -6.895  -4.711 -21.851 -0.17 +0.25    -0.251 OA
DOCKED: BRANCH  51  53
DOCKED: ATOM     53  O   UNL d   1      -5.373  -5.404 -23.325 -0.09 +0.42    -0.481 OA
DOCKED: ATOM     54  H   UNL d   1      -6.132  -6.009 -23.467 -0.38 -0.60    +0.295 HD
DOCKED: ENDBRANCH  51  53
DOCKED: ENDBRANCH  50  51
DOCKED: ENDBRANCH  49  50
DOCKED: ENDBRANCH  22  49
DOCKED: TORSDOF 13
DOCKED: TER
DOCKED: ENDMDL
________________________________________________________________________________


	BEGINNING GENETIC ALGORITHM DOCKING 83 of 100
Run: 83 Seed: 1647034155 1857559477 [ Run 83 of 100 GA/GALS ]
Beginning LAMARCKIAN GENETIC ALGORITHM (LGA), with a maximum of 25000000 energy evaluations.

Final-Value: -11.539


	FINAL GENETIC ALGORITHM DOCKED STATE
	_______________________________________________


Detailed state:  trans -13.413 -15.214 -8.321 quatxyzw 0.275620 -0.773235 -0.119154 0.558519 center 0.153 0.018 -0.028 ntor 13 144.9179 67.3670 -120.8822 -103.3576 -135.4024 89.1153 120.9140 -101.9008 28.3329 -26.0278 9.4282 14.2937 -170.1898
State:	-13.413 -15.214  -8.321   0.332 -0.932 -0.144 112.093    144.92   67.37 -120.88 -103.36 -135.40   89.12  120.91 -101.90   28.33  -26.03    9.43   14.29 -170.19

DOCKED: MODEL       83
DOCKED: USER    Run = 83
DOCKED: USER    DPF = D:/Protein_go_brrr/autodock/final/AncA/heme/dock.dpf
DOCKED: USER  
DOCKED: USER    Estimated Free Energy of Binding    =   -5.10 kcal/mol  [=(1)+(2)+(3)-(4)]
DOCKED: USER    Estimated Inhibition Constant, Ki   =  183.30 uM (micromolar)  [Temperature = 298.15 K]
DOCKED: USER    
DOCKED: USER    (1) Final Intermolecular Energy     =   -8.98 kcal/mol
DOCKED: USER        vdW + Hbond + desolv Energy     =   -8.58 kcal/mol
DOCKED: USER        Electrostatic Energy            =   -0.39 kcal/mol
DOCKED: USER    (2) Final Total Internal Energy     =   -2.56 kcal/mol
DOCKED: USER    (3) Torsional Free Energy           =   +3.88 kcal/mol
DOCKED: USER    (4) Unbound System's Energy  [=(2)] =   -2.56 kcal/mol
DOCKED: USER    
DOCKED: USER    
DOCKED: USER    NEWDPF move heme_opt.pdbqt
DOCKED: USER    NEWDPF about 0.153000 0.018000 -0.028000
DOCKED: USER    NEWDPF tran0 -13.413275 -15.214479 -8.320501
DOCKED: USER    NEWDPF quaternion0 0.275620 -0.773235 -0.119154 0.558519
DOCKED: USER    NEWDPF axisangle0 0.332276 -0.932179 -0.143647 112.093161
DOCKED: USER    NEWDPF quat0 0.332276 -0.932179 -0.143647 112.093161
DOCKED: USER    NEWDPF dihe0 144.92 67.37 -120.88 -103.36 -135.40 89.12 120.91 -101.90 28.33 -26.03 9.43 14.29 -170.19 
DOCKED: USER  keepresnum = 1 
DOCKED: USER  
DOCKED: REMARK  13 active torsions:
DOCKED: REMARK  status: ('A' for Active; 'I' for Inactive)
DOCKED: REMARK    1  A    between atoms: O_3  and  C_38 
DOCKED: REMARK    2  A    between atoms: O_4  and  C_40 
DOCKED: REMARK    3  A    between atoms: O_7  and  C_46 
DOCKED: REMARK    4  A    between atoms: O_9  and  C_48 
DOCKED: REMARK    5  A    between atoms: C_15  and  C_20 
DOCKED: REMARK    6  A    between atoms: C_16  and  C_23 
DOCKED: REMARK    7  A    between atoms: C_20  and  C_38 
DOCKED: REMARK    8  A    between atoms: C_23  and  C_40 
DOCKED: REMARK    9  A    between atoms: C_32  and  C_41 
DOCKED: REMARK   10  A    between atoms: C_37  and  C_45 
DOCKED: REMARK   11  A    between atoms: C_41  and  C_44 
DOCKED: REMARK   12  A    between atoms: C_44  and  C_46 
DOCKED: REMARK   13  A    between atoms: C_47  and  C_48 
DOCKED: USER                              x       y       z     vdW  Elec       q    Type
DOCKED: USER                           _______ _______ _______ _____ _____    ______ ____
DOCKED: ROOT
DOCKED: ATOM      1  O   UNL d   1     -12.583 -11.866  -3.540 -0.21 -0.02    -0.289 OA
DOCKED: ATOM      2  O   UNL d   1     -11.367 -19.185  -4.703 -0.01 -0.10    -0.289 OA
DOCKED: ATOM      3  N   UNL d   1     -13.359 -13.440  -6.509 -0.14 -0.03    -0.247 NA
DOCKED: ATOM      4  N   UNL d   1     -12.263 -16.177  -6.138 -0.08 -0.06    -0.247 NA
DOCKED: ATOM      5  N   UNL d   1     -12.599 -16.594  -8.963 -0.03 -0.05    -0.354 N 
DOCKED: ATOM      6  N   UNL d   1     -13.716 -13.746  -9.342 -0.15 -0.02    -0.354 N 
DOCKED: ATOM      7  C   UNL d   1     -13.381 -11.118  -5.726 -0.32 +0.00    +0.084 A 
DOCKED: ATOM      8  C   UNL d   1     -12.066 -17.001  -3.846 -0.03 +0.03    +0.084 A 
DOCKED: ATOM      9  C   UNL d   1     -12.390 -15.852  -4.806 -0.08 +0.02    +0.058 A 
DOCKED: ATOM     10  C   UNL d   1     -13.620 -12.125  -6.854 -0.24 +0.00    +0.058 A 
DOCKED: ATOM     11  C   UNL d   1     -12.956 -12.099  -4.675 -0.20 +0.02    +0.193 A 
DOCKED: ATOM     12  C   UNL d   1     -13.008 -13.474  -5.265 -0.16 +0.02    +0.109 A 
DOCKED: ATOM     13  C   UNL d   1     -11.696 -18.028  -4.879 -0.02 +0.06    +0.193 A 
DOCKED: ATOM     14  C   UNL d   1     -12.209 -10.180  -6.030 -0.51 +0.00    +0.026 C 
DOCKED: ATOM     15  C   UNL d   1     -12.718 -14.622  -4.381 -0.13 +0.01    +0.055 C 
DOCKED: ATOM     16  C   UNL d   1     -13.312 -17.483  -3.096 -0.02 +0.01    +0.026 C 
DOCKED: ATOM     17  C   UNL d   1     -11.850 -17.401  -6.226 -0.07 +0.03    +0.109 A 
DOCKED: ATOM     18  C   UNL d   1     -14.128 -11.743  -8.041 -0.19 -0.00    +0.050 C 
DOCKED: ATOM     19  C   UNL d   1     -14.461 -12.612  -9.111 -0.26 +0.00    +0.045 A 
DOCKED: ATOM     20  C   UNL d   1     -11.873 -17.713  -8.644 -0.16 +0.01    +0.045 A 
DOCKED: ATOM     21  C   UNL d   1     -11.514 -18.163  -7.438 -0.12 +0.02    +0.057 C 
DOCKED: ATOM     22  C   UNL d   1     -12.093 -17.597 -10.915 -0.20 -0.01    -0.019 A 
DOCKED: ATOM     23  C   UNL d   1     -12.783 -16.440 -10.311 -0.05 +0.01    +0.045 A 
DOCKED: ATOM     24  C   UNL d   1     -11.558 -18.348  -9.923 -0.17 -0.01    -0.022 A 
DOCKED: ATOM     25  C   UNL d   1     -14.154 -14.390 -10.476 -0.25 +0.01    +0.049 A 
DOCKED: ATOM     26  C   UNL d   1     -15.431 -12.536 -10.099 -0.19 -0.00    -0.018 A 
DOCKED: ATOM     27  C   UNL d   1     -15.245 -13.671 -10.947 -0.19 +0.00    +0.003 A 
DOCKED: ATOM     28  C   UNL d   1     -13.442 -15.500 -11.006 -0.27 +0.02    +0.052 C 
DOCKED: ATOM     29  C   UNL d   1     -10.780 -19.616 -10.028 -0.12 +0.02    +0.046 C 
DOCKED: ATOM     30  C   UNL d   1     -16.469 -11.475 -10.248 -0.12 +0.01    +0.046 C 
DOCKED: ATOM     31  H   UNL d   1     -13.010 -16.011  -8.242 -0.02 +0.02    +0.166 HD
DOCKED: ATOM     32  H   UNL d   1     -12.931 -14.028  -8.767 -0.49 -0.03    +0.166 HD
DOCKED: ENDROOT
DOCKED: BRANCH   7  33
DOCKED: ATOM     33  C   UNL d   1     -14.618 -10.340  -5.266 -0.30 +0.00    +0.141 C 
DOCKED: BRANCH  33  34
DOCKED: ATOM     34  C   UNL d   1     -15.537 -11.168  -4.408 -0.22 +0.00    +0.306 C 
DOCKED: ATOM     35  O   UNL d   1     -16.362 -11.973  -4.804 -0.10 -0.02    -0.251 OA
DOCKED: BRANCH  34  36
DOCKED: ATOM     36  O   UNL d   1     -15.365 -10.938  -3.094 -0.49 -0.01    -0.481 OA
DOCKED: ATOM     37  H   UNL d   1     -14.398 -10.815  -2.989 -0.15 -0.08    +0.295 HD
DOCKED: ENDBRANCH  34  36
DOCKED: ENDBRANCH  33  34
DOCKED: ENDBRANCH   7  33
DOCKED: BRANCH  27  38
DOCKED: ATOM     38  C   UNL d   1     -16.028 -13.972 -12.107 -0.13 +0.01    +0.017 C 
DOCKED: ATOM     39  C   UNL d   1     -16.617 -15.151 -12.359 -0.11 +0.05    +0.092 C 
DOCKED: BRANCH  39  40
DOCKED: ATOM     40  C   UNL d   1     -17.409 -15.325 -13.579 -0.05 +0.21    +0.330 C 
DOCKED: ATOM     41  O   UNL d   1     -17.015 -15.659 -14.681 -0.10 -0.22    -0.246 OA
DOCKED: BRANCH  40  42
DOCKED: ATOM     42  O   UNL d   1     -18.702 -15.068 -13.331 -0.00 -0.18    -0.477 OA
DOCKED: ATOM     43  H   UNL d   1     -19.139 -15.938 -13.434 +0.01 +0.09    +0.295 HD
DOCKED: ENDBRANCH  40  42
DOCKED: ENDBRANCH  39  40
DOCKED: ENDBRANCH  27  38
DOCKED: BRANCH   8  44
DOCKED: ATOM     44  C   UNL d   1     -10.902 -16.748  -2.882 -0.04 +0.06    +0.141 C 
DOCKED: BRANCH  44  45
DOCKED: ATOM     45  C   UNL d   1      -9.552 -16.848  -3.541 -0.04 +0.18    +0.306 C 
DOCKED: ATOM     46  O   UNL d   1      -9.031 -16.013  -4.260 -0.12 -0.18    -0.251 OA
DOCKED: BRANCH  45  47
DOCKED: ATOM     47  O   UNL d   1      -8.937 -18.016  -3.280 +0.01 -0.29    -0.481 OA
DOCKED: ATOM     48  H   UNL d   1      -9.557 -18.701  -3.608 +0.03 +0.14    +0.295 HD
DOCKED: ENDBRANCH  45  47
DOCKED: ENDBRANCH  44  45
DOCKED: ENDBRANCH   8  44
DOCKED: BRANCH  22  49
DOCKED: ATOM     49  C   UNL d   1     -12.009 -17.852 -12.391 -0.20 +0.02    +0.048 C 
DOCKED: BRANCH  49  50
DOCKED: ATOM     50  C   UNL d   1     -10.613 -17.561 -12.940 -0.14 +0.04    +0.125 C 
DOCKED: BRANCH  50  51
DOCKED: ATOM     51  C   UNL d   1     -10.612 -17.580 -14.443 -0.12 +0.14    +0.305 C 
DOCKED: ATOM     52  O   UNL d   1     -10.127 -18.424 -15.175 -0.07 -0.10    -0.251 OA
DOCKED: BRANCH  51  53
DOCKED: ATOM     53  O   UNL d   1     -11.229 -16.499 -14.961 -0.60 -0.41    -0.481 OA
DOCKED: ATOM     54  H   UNL d   1     -10.577 -15.776 -14.848 -0.44 +0.15    +0.295 HD
DOCKED: ENDBRANCH  51  53
DOCKED: ENDBRANCH  50  51
DOCKED: ENDBRANCH  49  50
DOCKED: ENDBRANCH  22  49
DOCKED: TORSDOF 13
DOCKED: TER
DOCKED: ENDMDL
________________________________________________________________________________


	BEGINNING GENETIC ALGORITHM DOCKING 84 of 100
Run: 84 Seed: 1146109337 1379053440 [ Run 84 of 100 GA/GALS ]
Beginning LAMARCKIAN GENETIC ALGORITHM (LGA), with a maximum of 25000000 energy evaluations.

Final-Value: -9.960


	FINAL GENETIC ALGORITHM DOCKED STATE
	_______________________________________________


Detailed state:  trans 5.312 16.954 9.242 quatxyzw 0.605798 0.089623 0.333280 -0.716868 center 0.153 0.018 -0.028 ntor 13 -111.5653 -9.8250 -84.0975 153.5991 67.3628 -132.8977 155.2041 -5.0568 150.9834 -93.4254 79.6398 -91.1430 180.0000
State:	  5.312  16.954   9.242   0.869  0.129  0.478 -88.407   -111.57   -9.82  -84.10  153.60   67.36 -132.90  155.20   -5.06  150.98  -93.43   79.64  -91.14  180.00

DOCKED: MODEL       84
DOCKED: USER    Run = 84
DOCKED: USER    DPF = D:/Protein_go_brrr/autodock/final/AncA/heme/dock.dpf
DOCKED: USER  
DOCKED: USER    Estimated Free Energy of Binding    =   -3.82 kcal/mol  [=(1)+(2)+(3)-(4)]
DOCKED: USER    Estimated Inhibition Constant, Ki   =    1.57 mM (millimolar)  [Temperature = 298.15 K]
DOCKED: USER    
DOCKED: USER    (1) Final Intermolecular Energy     =   -7.70 kcal/mol
DOCKED: USER        vdW + Hbond + desolv Energy     =   -7.56 kcal/mol
DOCKED: USER        Electrostatic Energy            =   -0.15 kcal/mol
DOCKED: USER    (2) Final Total Internal Energy     =   -2.26 kcal/mol
DOCKED: USER    (3) Torsional Free Energy           =   +3.88 kcal/mol
DOCKED: USER    (4) Unbound System's Energy  [=(2)] =   -2.26 kcal/mol
DOCKED: USER    
DOCKED: USER    
DOCKED: USER    NEWDPF move heme_opt.pdbqt
DOCKED: USER    NEWDPF about 0.153000 0.018000 -0.028000
DOCKED: USER    NEWDPF tran0 5.312318 16.953977 9.242099
DOCKED: USER    NEWDPF quaternion0 0.605798 0.089623 0.333280 -0.716868
DOCKED: USER    NEWDPF axisangle0 0.868891 0.128545 0.478021 -88.406922
DOCKED: USER    NEWDPF quat0 0.868891 0.128545 0.478021 -88.406922
DOCKED: USER    NEWDPF dihe0 -111.57 -9.82 -84.10 153.60 67.36 -132.90 155.20 -5.06 150.98 -93.43 79.64 -91.14 180.00 
DOCKED: USER  keepresnum = 1 
DOCKED: USER  
DOCKED: REMARK  13 active torsions:
DOCKED: REMARK  status: ('A' for Active; 'I' for Inactive)
DOCKED: REMARK    1  A    between atoms: O_3  and  C_38 
DOCKED: REMARK    2  A    between atoms: O_4  and  C_40 
DOCKED: REMARK    3  A    between atoms: O_7  and  C_46 
DOCKED: REMARK    4  A    between atoms: O_9  and  C_48 
DOCKED: REMARK    5  A    between atoms: C_15  and  C_20 
DOCKED: REMARK    6  A    between atoms: C_16  and  C_23 
DOCKED: REMARK    7  A    between atoms: C_20  and  C_38 
DOCKED: REMARK    8  A    between atoms: C_23  and  C_40 
DOCKED: REMARK    9  A    between atoms: C_32  and  C_41 
DOCKED: REMARK   10  A    between atoms: C_37  and  C_45 
DOCKED: REMARK   11  A    between atoms: C_41  and  C_44 
DOCKED: REMARK   12  A    between atoms: C_44  and  C_46 
DOCKED: REMARK   13  A    between atoms: C_47  and  C_48 
DOCKED: USER                              x       y       z     vdW  Elec       q    Type
DOCKED: USER                           _______ _______ _______ _____ _____    ______ ____
DOCKED: ROOT
DOCKED: ATOM      1  O   UNL d   1       0.759  13.214   9.427 -0.15 +0.07    -0.289 OA
DOCKED: ATOM      2  O   UNL d   1       4.237  16.460   3.617 -0.17 +0.04    -0.289 OA
DOCKED: ATOM      3  N   UNL d   1       3.334  15.475   9.818 -0.07 -0.00    -0.247 NA
DOCKED: ATOM      4  N   UNL d   1       4.246  15.959   7.032 -0.13 +0.05    -0.247 NA
DOCKED: ATOM      5  N   UNL d   1       6.596  17.211   8.117 -0.11 +0.06    -0.354 N 
DOCKED: ATOM      6  N   UNL d   1       5.651  16.688  11.004 -0.11 +0.00    -0.354 N 
DOCKED: ATOM      7  C   UNL d   1       2.047  14.042  11.333 -0.20 -0.01    +0.084 A 
DOCKED: ATOM      8  C   UNL d   1       2.612  15.624   5.246 -0.14 -0.01    +0.084 A 
DOCKED: ATOM      9  C   UNL d   1       2.973  15.528   6.732 -0.19 -0.01    +0.058 A 
DOCKED: ATOM     10  C   UNL d   1       3.159  15.075  11.132 -0.11 +0.00    +0.058 A 
DOCKED: ATOM     11  C   UNL d   1       1.611  13.942   9.902 -0.18 -0.03    +0.193 A 
DOCKED: ATOM     12  C   UNL d   1       2.450  14.878   9.087 -0.13 -0.01    +0.109 A 
DOCKED: ATOM     13  C   UNL d   1       3.929  16.154   4.753 -0.14 -0.03    +0.193 A 
DOCKED: ATOM     14  C   UNL d   1       2.597  12.684  11.779 -0.31 -0.00    +0.026 C 
DOCKED: ATOM     15  C   UNL d   1       2.138  15.019   7.651 -0.24 -0.01    +0.055 C 
DOCKED: ATOM     16  C   UNL d   1       1.531  16.678   4.991 -0.07 -0.00    +0.026 C 
DOCKED: ATOM     17  C   UNL d   1       4.834  16.305   5.932 -0.22 -0.02    +0.109 A 
DOCKED: ATOM     18  C   UNL d   1       3.830  15.598  12.176 -0.13 +0.00    +0.050 C 
DOCKED: ATOM     19  C   UNL d   1       4.813  16.617  12.094 -0.11 +0.00    +0.045 A 
DOCKED: ATOM     20  C   UNL d   1       6.955  17.141   6.796 -0.27 -0.01    +0.045 A 
DOCKED: ATOM     21  C   UNL d   1       6.217  16.768   5.746 -0.35 -0.01    +0.057 C 
DOCKED: ATOM     22  C   UNL d   1       8.748  17.867   8.012 -0.19 +0.00    -0.019 A 
DOCKED: ATOM     23  C   UNL d   1       7.613  17.639   8.928 -0.19 -0.00    +0.045 A 
DOCKED: ATOM     24  C   UNL d   1       8.352  17.571   6.751 -0.26 +0.00    -0.022 A 
DOCKED: ATOM     25  C   UNL d   1       6.580  17.688  11.174 -0.12 -0.00    +0.049 A 
DOCKED: ATOM     26  C   UNL d   1       5.183  17.619  12.977 -0.04 +0.00    -0.018 A 
DOCKED: ATOM     27  C   UNL d   1       6.287  18.305  12.382 -0.05 -0.00    +0.003 A 
DOCKED: ATOM     28  C   UNL d   1       7.650  17.853  10.252 -0.15 -0.00    +0.052 C 
DOCKED: ATOM     29  C   UNL d   1       9.134  17.654   5.484 -0.26 -0.00    +0.046 C 
DOCKED: ATOM     30  C   UNL d   1       4.551  17.925  14.293 -0.01 -0.00    +0.046 C 
DOCKED: ATOM     31  H   UNL d   1       5.642  17.035   8.413 +0.04 -0.02    +0.166 HD
DOCKED: ATOM     32  H   UNL d   1       5.599  16.054  10.215 +0.03 -0.01    +0.166 HD
DOCKED: ENDROOT
DOCKED: BRANCH   7  33
DOCKED: ATOM     33  C   UNL d   1       0.881  14.494  12.219 -0.08 -0.01    +0.141 C 
DOCKED: BRANCH  33  34
DOCKED: ATOM     34  C   UNL d   1       0.069  13.341  12.742 -0.09 -0.03    +0.306 C 
DOCKED: ATOM     35  O   UNL d   1      -0.132  13.074  13.915 -0.05 +0.02    -0.251 OA
DOCKED: BRANCH  34  36
DOCKED: ATOM     36  O   UNL d   1      -0.450  12.585  11.759 -0.12 +0.07    -0.481 OA
DOCKED: ATOM     37  H   UNL d   1       0.329  12.180  11.321 -0.35 -0.09    +0.295 HD
DOCKED: ENDBRANCH  34  36
DOCKED: ENDBRANCH  33  34
DOCKED: ENDBRANCH   7  33
DOCKED: BRANCH  27  38
DOCKED: ATOM     38  C   UNL d   1       6.989  19.406  12.970 -0.02 -0.00    +0.017 C 
DOCKED: ATOM     39  C   UNL d   1       8.314  19.461  13.170 -0.02 -0.00    +0.092 C 
DOCKED: BRANCH  39  40
DOCKED: ATOM     40  C   UNL d   1       8.913  20.657  13.768 -0.00 -0.00    +0.330 C 
DOCKED: ATOM     41  O   UNL d   1       9.914  21.247  13.408 -0.00 +0.00    -0.246 OA
DOCKED: BRANCH  40  42
DOCKED: ATOM     42  O   UNL d   1       8.183  21.064  14.818 +0.00 +0.00    -0.477 OA
DOCKED: ATOM     43  H   UNL d   1       8.739  21.751  15.239 +0.00 +0.00    +0.295 HD
DOCKED: ENDBRANCH  40  42
DOCKED: ENDBRANCH  39  40
DOCKED: ENDBRANCH  27  38
DOCKED: BRANCH   8  44
DOCKED: ATOM     44  C   UNL d   1       2.265  14.296   4.564 -0.19 -0.01    +0.141 C 
DOCKED: BRANCH  44  45
DOCKED: ATOM     45  C   UNL d   1       2.760  14.210   3.145 -0.20 -0.00    +0.306 C 
DOCKED: ATOM     46  O   UNL d   1       3.649  13.487   2.728 -0.88 -0.00    -0.251 OA
DOCKED: BRANCH  45  47
DOCKED: ATOM     47  O   UNL d   1       2.124  15.065   2.324 -0.17 +0.01    -0.481 OA
DOCKED: ATOM     48  H   UNL d   1       2.702  15.857   2.295 +0.12 -0.02    +0.295 HD
DOCKED: ENDBRANCH  45  47
DOCKED: ENDBRANCH  44  45
DOCKED: ENDBRANCH   8  44
DOCKED: BRANCH  22  49
DOCKED: ATOM     49  C   UNL d   1      10.105  18.333   8.451 -0.13 -0.01    +0.048 C 
DOCKED: BRANCH  49  50
DOCKED: ATOM     50  C   UNL d   1      11.076  17.166   8.634 -0.13 -0.03    +0.125 C 
DOCKED: BRANCH  50  51
DOCKED: ATOM     51  C   UNL d   1      11.195  16.790  10.084 -0.08 -0.05    +0.305 C 
DOCKED: ATOM     52  O   UNL d   1      10.782  17.410  11.048 -0.10 +0.02    -0.251 OA
DOCKED: BRANCH  51  53
DOCKED: ATOM     53  O   UNL d   1      11.857  15.628  10.250 -0.06 +0.13    -0.481 OA
DOCKED: ATOM     54  H   UNL d   1      11.698  15.142   9.414 -0.26 -0.19    +0.295 HD
DOCKED: ENDBRANCH  51  53
DOCKED: ENDBRANCH  50  51
DOCKED: ENDBRANCH  49  50
DOCKED: ENDBRANCH  22  49
DOCKED: TORSDOF 13
DOCKED: TER
DOCKED: ENDMDL
________________________________________________________________________________


	BEGINNING GENETIC ALGORITHM DOCKING 85 of 100
Run: 85 Seed: 537055084 2061600628 [ Run 85 of 100 GA/GALS ]
Beginning LAMARCKIAN GENETIC ALGORITHM (LGA), with a maximum of 25000000 energy evaluations.

Final-Value: -12.952


	FINAL GENETIC ALGORITHM DOCKED STATE
	_______________________________________________


Detailed state:  trans -6.675 -1.326 -16.266 quatxyzw 0.724419 -0.652485 -0.201974 0.093208 center 0.153 0.018 -0.028 ntor 13 -121.5063 54.5188 -103.6349 -92.7818 -171.3896 97.9253 122.9041 -180.0000 -140.5258 -29.6977 -34.0163 -109.5224 148.0470
State:	 -6.675  -1.326 -16.266   0.728 -0.655 -0.203 169.304   -121.51   54.52 -103.63  -92.78 -171.39   97.93  122.90 -180.00 -140.53  -29.70  -34.02 -109.52  148.05

DOCKED: MODEL       85
DOCKED: USER    Run = 85
DOCKED: USER    DPF = D:/Protein_go_brrr/autodock/final/AncA/heme/dock.dpf
DOCKED: USER  
DOCKED: USER    Estimated Free Energy of Binding    =   -7.39 kcal/mol  [=(1)+(2)+(3)-(4)]
DOCKED: USER    Estimated Inhibition Constant, Ki   =    3.81 uM (micromolar)  [Temperature = 298.15 K]
DOCKED: USER    
DOCKED: USER    (1) Final Intermolecular Energy     =  -11.27 kcal/mol
DOCKED: USER        vdW + Hbond + desolv Energy     =  -10.28 kcal/mol
DOCKED: USER        Electrostatic Energy            =   -0.99 kcal/mol
DOCKED: USER    (2) Final Total Internal Energy     =   -1.68 kcal/mol
DOCKED: USER    (3) Torsional Free Energy           =   +3.88 kcal/mol
DOCKED: USER    (4) Unbound System's Energy  [=(2)] =   -1.68 kcal/mol
DOCKED: USER    
DOCKED: USER    
DOCKED: USER    NEWDPF move heme_opt.pdbqt
DOCKED: USER    NEWDPF about 0.153000 0.018000 -0.028000
DOCKED: USER    NEWDPF tran0 -6.675495 -1.325536 -16.265898
DOCKED: USER    NEWDPF quaternion0 0.724419 -0.652485 -0.201974 0.093208
DOCKED: USER    NEWDPF axisangle0 0.727586 -0.655338 -0.202857 169.303633
DOCKED: USER    NEWDPF quat0 0.727586 -0.655338 -0.202857 169.303633
DOCKED: USER    NEWDPF dihe0 -121.51 54.52 -103.63 -92.78 -171.39 97.93 122.90 -180.00 -140.53 -29.70 -34.02 -109.52 148.05 
DOCKED: USER  keepresnum = 1 
DOCKED: USER  
DOCKED: REMARK  13 active torsions:
DOCKED: REMARK  status: ('A' for Active; 'I' for Inactive)
DOCKED: REMARK    1  A    between atoms: O_3  and  C_38 
DOCKED: REMARK    2  A    between atoms: O_4  and  C_40 
DOCKED: REMARK    3  A    between atoms: O_7  and  C_46 
DOCKED: REMARK    4  A    between atoms: O_9  and  C_48 
DOCKED: REMARK    5  A    between atoms: C_15  and  C_20 
DOCKED: REMARK    6  A    between atoms: C_16  and  C_23 
DOCKED: REMARK    7  A    between atoms: C_20  and  C_38 
DOCKED: REMARK    8  A    between atoms: C_23  and  C_40 
DOCKED: REMARK    9  A    between atoms: C_32  and  C_41 
DOCKED: REMARK   10  A    between atoms: C_37  and  C_45 
DOCKED: REMARK   11  A    between atoms: C_41  and  C_44 
DOCKED: REMARK   12  A    between atoms: C_44  and  C_46 
DOCKED: REMARK   13  A    between atoms: C_47  and  C_48 
DOCKED: USER                              x       y       z     vdW  Elec       q    Type
DOCKED: USER                           _______ _______ _______ _____ _____    ______ ____
DOCKED: ROOT
DOCKED: ATOM      1  O   UNL d   1      -8.822   3.804 -14.308 -0.38 -0.01    -0.289 OA
DOCKED: ATOM      2  O   UNL d   1      -1.820   1.092 -14.365 -0.23 +0.01    -0.289 OA
DOCKED: ATOM      3  N   UNL d   1      -8.053   0.643 -15.452 -0.23 +0.08    -0.247 NA
DOCKED: ATOM      4  N   UNL d   1      -5.083   0.591 -15.371 -0.13 +0.01    -0.247 NA
DOCKED: ATOM      5  N   UNL d   1      -5.172  -1.794 -16.974 -0.12 +0.02    -0.354 N 
DOCKED: ATOM      6  N   UNL d   1      -8.253  -1.722 -17.070 -0.08 +0.09    -0.354 N 
DOCKED: ATOM      7  C   UNL d   1     -10.080   2.019 -15.405 -0.19 -0.04    +0.084 A 
DOCKED: ATOM      8  C   UNL d   1      -3.983   2.069 -13.766 -0.19 -0.00    +0.084 A 
DOCKED: ATOM      9  C   UNL d   1      -5.271   1.592 -14.444 -0.24 -0.00    +0.058 A 
DOCKED: ATOM     10  C   UNL d   1      -9.394   0.705 -15.791 -0.26 -0.03    +0.058 A 
DOCKED: ATOM     11  C   UNL d   1      -8.894   2.681 -14.773 -0.13 -0.04    +0.193 A 
DOCKED: ATOM     12  C   UNL d   1      -7.734   1.737 -14.840 -0.25 -0.02    +0.109 A 
DOCKED: ATOM     13  C   UNL d   1      -3.024   1.180 -14.506 -0.16 -0.01    +0.193 A 
DOCKED: ATOM     14  C   UNL d   1     -10.503   2.828 -16.634 -0.07 -0.01    +0.026 C 
DOCKED: ATOM     15  C   UNL d   1      -6.470   2.140 -14.191 -0.31 -0.00    +0.055 C 
DOCKED: ATOM     16  C   UNL d   1      -3.951   1.698 -12.280 -0.49 -0.00    +0.026 C 
DOCKED: ATOM     17  C   UNL d   1      -3.816   0.339 -15.454 -0.18 -0.01    +0.109 A 
DOCKED: ATOM     18  C   UNL d   1     -10.085  -0.318 -16.328 -0.23 -0.04    +0.050 C 
DOCKED: ATOM     19  C   UNL d   1      -9.554  -1.596 -16.638 -0.22 -0.02    +0.045 A 
DOCKED: ATOM     20  C   UNL d   1      -3.828  -1.529 -17.021 -0.20 -0.00    +0.045 A 
DOCKED: ATOM     21  C   UNL d   1      -3.133  -0.605 -16.351 -0.17 -0.00    +0.057 C 
DOCKED: ATOM     22  C   UNL d   1      -4.290  -3.257 -18.442 -0.32 +0.00    -0.019 A 
DOCKED: ATOM     23  C   UNL d   1      -5.546  -2.821 -17.799 -0.29 -0.00    +0.045 A 
DOCKED: ATOM     24  C   UNL d   1      -3.277  -2.489 -17.976 -0.27 +0.00    -0.022 A 
DOCKED: ATOM     25  C   UNL d   1      -7.977  -3.029 -17.398 -0.20 -0.01    +0.049 A 
DOCKED: ATOM     26  C   UNL d   1     -10.127  -2.858 -16.652 -0.23 +0.01    -0.018 A 
DOCKED: ATOM     27  C   UNL d   1      -9.121  -3.762 -17.114 -0.26 -0.00    +0.003 A 
DOCKED: ATOM     28  C   UNL d   1      -6.746  -3.381 -18.016 -0.28 -0.01    +0.052 C 
DOCKED: ATOM     29  C   UNL d   1      -1.827  -2.552 -18.316 -0.28 -0.00    +0.046 C 
DOCKED: ATOM     30  C   UNL d   1     -11.522  -3.207 -16.258 -0.08 -0.04    +0.046 C 
DOCKED: ATOM     31  H   UNL d   1      -5.781  -1.311 -16.322 +0.07 -0.01    +0.166 HD
DOCKED: ATOM     32  H   UNL d   1      -7.616  -0.940 -17.164 +0.05 -0.03    +0.166 HD
DOCKED: ENDROOT
DOCKED: BRANCH   7  33
DOCKED: ATOM     33  C   UNL d   1     -11.226   1.890 -14.396 -0.14 -0.11    +0.141 C 
DOCKED: BRANCH  33  34
DOCKED: ATOM     34  C   UNL d   1     -12.569   1.745 -15.059 -0.09 -0.21    +0.306 C 
DOCKED: ATOM     35  O   UNL d   1     -13.504   2.523 -14.970 -0.05 +0.09    -0.251 OA
DOCKED: BRANCH  34  36
DOCKED: ATOM     36  O   UNL d   1     -12.662   0.628 -15.803 -0.03 +0.47    -0.481 OA
DOCKED: ATOM     37  H   UNL d   1     -12.448  -0.100 -15.182 -0.47 -0.70    +0.295 HD
DOCKED: ENDBRANCH  34  36
DOCKED: ENDBRANCH  33  34
DOCKED: ENDBRANCH   7  33
DOCKED: BRANCH  27  38
DOCKED: ATOM     38  C   UNL d   1      -9.297  -5.171 -17.293 -0.25 -0.00    +0.017 C 
DOCKED: ATOM     39  C   UNL d   1      -9.392  -5.795 -18.477 -0.26 -0.05    +0.092 C 
DOCKED: BRANCH  39  40
DOCKED: ATOM     40  C   UNL d   1      -9.554  -7.251 -18.525 -0.08 -0.23    +0.330 C 
DOCKED: ATOM     41  O   UNL d   1     -10.589  -7.881 -18.626 -0.11 +0.12    -0.246 OA
DOCKED: BRANCH  40  42
DOCKED: ATOM     42  O   UNL d   1      -8.356  -7.851 -18.447 -0.61 +0.27    -0.477 OA
DOCKED: ATOM     43  H   UNL d   1      -8.333  -8.432 -19.236 -0.46 -0.40    +0.295 HD
DOCKED: ENDBRANCH  40  42
DOCKED: ENDBRANCH  39  40
DOCKED: ENDBRANCH  27  38
DOCKED: BRANCH   8  44
DOCKED: ATOM     44  C   UNL d   1      -3.634   3.547 -13.975 -0.09 +0.01    +0.141 C 
DOCKED: BRANCH  44  45
DOCKED: ATOM     45  C   UNL d   1      -3.003   3.825 -15.313 -0.00 +0.02    +0.306 C 
DOCKED: ATOM     46  O   UNL d   1      -3.580   3.925 -16.382 -0.01 -0.02    -0.251 OA
DOCKED: BRANCH  45  47
DOCKED: ATOM     47  O   UNL d   1      -1.664   3.935 -15.238 +0.01 -0.03    -0.481 OA
DOCKED: ATOM     48  H   UNL d   1      -1.345   3.013 -15.138 +0.08 +0.01    +0.295 HD
DOCKED: ENDBRANCH  45  47
DOCKED: ENDBRANCH  44  45
DOCKED: ENDBRANCH   8  44
DOCKED: BRANCH  22  49
DOCKED: ATOM     49  C   UNL d   1      -4.201  -4.362 -19.453 -0.24 -0.02    +0.048 C 
DOCKED: BRANCH  49  50
DOCKED: ATOM     50  C   UNL d   1      -4.958  -4.021 -20.736 -0.21 -0.05    +0.125 C 
DOCKED: BRANCH  50  51
DOCKED: ATOM     51  C   UNL d   1      -4.279  -4.621 -21.935 -0.13 -0.13    +0.305 C 
DOCKED: ATOM     52  O   UNL d   1      -4.675  -4.630 -23.087 -0.10 +0.11    -0.251 OA
DOCKED: BRANCH  51  53
DOCKED: ATOM     53  O   UNL d   1      -3.109  -5.207 -21.611 -0.06 +0.20    -0.481 OA
DOCKED: ATOM     54  H   UNL d   1      -3.363  -6.117 -21.349 -0.42 -0.24    +0.295 HD
DOCKED: ENDBRANCH  51  53
DOCKED: ENDBRANCH  50  51
DOCKED: ENDBRANCH  49  50
DOCKED: ENDBRANCH  22  49
DOCKED: TORSDOF 13
DOCKED: TER
DOCKED: ENDMDL
________________________________________________________________________________


	BEGINNING GENETIC ALGORITHM DOCKING 86 of 100
Run: 86 Seed: 35560953 1951910342 [ Run 86 of 100 GA/GALS ]
Beginning LAMARCKIAN GENETIC ALGORITHM (LGA), with a maximum of 25000000 energy evaluations.

Final-Value: -11.914


	FINAL GENETIC ALGORITHM DOCKED STATE
	_______________________________________________


Detailed state:  trans 14.740 -3.173 -13.886 quatxyzw 0.990071 -0.036762 0.124285 0.054417 center 0.153 0.018 -0.028 ntor 13 -128.3625 114.2454 174.3975 59.2010 -131.5747 67.5585 151.1085 81.3178 -131.2997 -2.7686 -77.8531 -64.9613 -6.5215
State:	 14.740  -3.173 -13.886   0.992 -0.037  0.124 173.761   -128.36  114.25  174.40   59.20 -131.57   67.56  151.11   81.32 -131.30   -2.77  -77.85  -64.96   -6.52

DOCKED: MODEL       86
DOCKED: USER    Run = 86
DOCKED: USER    DPF = D:/Protein_go_brrr/autodock/final/AncA/heme/dock.dpf
DOCKED: USER  
DOCKED: USER    Estimated Free Energy of Binding    =   -4.17 kcal/mol  [=(1)+(2)+(3)-(4)]
DOCKED: USER    Estimated Inhibition Constant, Ki   =  877.54 uM (micromolar)  [Temperature = 298.15 K]
DOCKED: USER    
DOCKED: USER    (1) Final Intermolecular Energy     =   -8.05 kcal/mol
DOCKED: USER        vdW + Hbond + desolv Energy     =   -8.01 kcal/mol
DOCKED: USER        Electrostatic Energy            =   -0.04 kcal/mol
DOCKED: USER    (2) Final Total Internal Energy     =   -3.87 kcal/mol
DOCKED: USER    (3) Torsional Free Energy           =   +3.88 kcal/mol
DOCKED: USER    (4) Unbound System's Energy  [=(2)] =   -3.87 kcal/mol
DOCKED: USER    
DOCKED: USER    
DOCKED: USER    NEWDPF move heme_opt.pdbqt
DOCKED: USER    NEWDPF about 0.153000 0.018000 -0.028000
DOCKED: USER    NEWDPF tran0 14.739690 -3.172826 -13.885873
DOCKED: USER    NEWDPF quaternion0 0.990071 -0.036762 0.124285 0.054417
DOCKED: USER    NEWDPF axisangle0 0.991540 -0.036817 0.124470 173.761212
DOCKED: USER    NEWDPF quat0 0.991540 -0.036817 0.124470 173.761212
DOCKED: USER    NEWDPF dihe0 -128.36 114.25 174.40 59.20 -131.57 67.56 151.11 81.32 -131.30 -2.77 -77.85 -64.96 -6.52 
DOCKED: USER  keepresnum = 1 
DOCKED: USER  
DOCKED: REMARK  13 active torsions:
DOCKED: REMARK  status: ('A' for Active; 'I' for Inactive)
DOCKED: REMARK    1  A    between atoms: O_3  and  C_38 
DOCKED: REMARK    2  A    between atoms: O_4  and  C_40 
DOCKED: REMARK    3  A    between atoms: O_7  and  C_46 
DOCKED: REMARK    4  A    between atoms: O_9  and  C_48 
DOCKED: REMARK    5  A    between atoms: C_15  and  C_20 
DOCKED: REMARK    6  A    between atoms: C_16  and  C_23 
DOCKED: REMARK    7  A    between atoms: C_20  and  C_38 
DOCKED: REMARK    8  A    between atoms: C_23  and  C_40 
DOCKED: REMARK    9  A    between atoms: C_32  and  C_41 
DOCKED: REMARK   10  A    between atoms: C_37  and  C_45 
DOCKED: REMARK   11  A    between atoms: C_41  and  C_44 
DOCKED: REMARK   12  A    between atoms: C_44  and  C_46 
DOCKED: REMARK   13  A    between atoms: C_47  and  C_48 
DOCKED: USER                              x       y       z     vdW  Elec       q    Type
DOCKED: USER                           _______ _______ _______ _____ _____    ______ ____
DOCKED: ROOT
DOCKED: ATOM      1  O   UNL d   1       9.379  -4.299 -16.066 +0.05 +0.12    -0.289 OA
DOCKED: ATOM      2  O   UNL d   1      12.064   1.705 -12.442 -0.74 -0.08    -0.289 OA
DOCKED: ATOM      3  N   UNL d   1      12.599  -4.143 -14.839 -0.02 +0.05    -0.247 NA
DOCKED: ATOM      4  N   UNL d   1      12.825  -1.344 -13.869 -0.15 +0.02    -0.247 NA
DOCKED: ATOM      5  N   UNL d   1      15.669  -1.730 -13.698 -0.09 +0.13    -0.354 N 
DOCKED: ATOM      6  N   UNL d   1      15.427  -4.627 -14.724 +0.02 +0.07    -0.354 N 
DOCKED: ATOM      7  C   UNL d   1      11.347  -5.741 -16.213 -0.17 -0.01    +0.084 A 
DOCKED: ATOM      8  C   UNL d   1      10.759  -0.220 -13.205 -0.26 +0.01    +0.084 A 
DOCKED: ATOM      9  C   UNL d   1      11.453  -1.442 -13.816 -0.24 +0.00    +0.058 A 
DOCKED: ATOM     10  C   UNL d   1      12.658  -5.343 -15.527 -0.20 -0.01    +0.058 A 
DOCKED: ATOM     11  C   UNL d   1      10.532  -4.562 -15.776 -0.16 -0.03    +0.193 A 
DOCKED: ATOM     12  C   UNL d   1      11.395  -3.679 -14.928 -0.23 -0.01    +0.109 A 
DOCKED: ATOM     13  C   UNL d   1      11.989   0.606 -12.956 -0.28 +0.02    +0.193 A 
DOCKED: ATOM     14  C   UNL d   1      11.469  -5.721 -17.739 -0.06 -0.00    +0.026 C 
DOCKED: ATOM     15  C   UNL d   1      10.775  -2.493 -14.303 -0.30 -0.00    +0.055 C 
DOCKED: ATOM     16  C   UNL d   1      10.107  -0.551 -11.859 -0.45 +0.00    +0.026 C 
DOCKED: ATOM     17  C   UNL d   1      13.173  -0.185 -13.408 -0.27 -0.00    +0.109 A 
DOCKED: ATOM     18  C   UNL d   1      13.730  -6.157 -15.534 -0.20 -0.00    +0.050 C 
DOCKED: ATOM     19  C   UNL d   1      14.953  -5.912 -14.859 -0.16 -0.00    +0.045 A 
DOCKED: ATOM     20  C   UNL d   1      15.603  -0.377 -13.492 -0.14 -0.02    +0.045 A 
DOCKED: ATOM     21  C   UNL d   1      14.523   0.393 -13.326 -0.33 -0.01    +0.057 C 
DOCKED: ATOM     22  C   UNL d   1      17.796  -0.988 -13.682 -0.11 +0.01    -0.019 A 
DOCKED: ATOM     23  C   UNL d   1      16.952  -2.192 -13.826 -0.13 -0.01    +0.045 A 
DOCKED: ATOM     24  C   UNL d   1      16.991   0.083 -13.483 -0.07 +0.01    -0.022 A 
DOCKED: ATOM     25  C   UNL d   1      16.664  -4.629 -14.121 -0.12 -0.00    +0.049 A 
DOCKED: ATOM     26  C   UNL d   1      15.887  -6.768 -14.296 -0.17 -0.00    -0.018 A 
DOCKED: ATOM     27  C   UNL d   1      16.956  -5.951 -13.814 -0.14 +0.00    +0.003 A 
DOCKED: ATOM     28  C   UNL d   1      17.425  -3.433 -14.015 -0.15 -0.01    +0.052 C 
DOCKED: ATOM     29  C   UNL d   1      17.371   1.509 -13.273 -0.19 +0.00    +0.046 C 
DOCKED: ATOM     30  C   UNL d   1      15.794  -8.254 -14.207 -0.14 +0.00    +0.046 C 
DOCKED: ATOM     31  H   UNL d   1      14.836  -2.308 -13.672 -0.50 -0.07    +0.166 HD
DOCKED: ATOM     32  H   UNL d   1      14.936  -3.810 -15.067 -0.19 -0.04    +0.166 HD
DOCKED: ENDROOT
DOCKED: BRANCH   7  33
DOCKED: ATOM     33  C   UNL d   1      10.715  -7.046 -15.717 -0.15 -0.02    +0.141 C 
DOCKED: BRANCH  33  34
DOCKED: ATOM     34  C   UNL d   1      11.304  -8.263 -16.378 -0.11 -0.02    +0.306 C 
DOCKED: ATOM     35  O   UNL d   1      11.054  -8.662 -17.503 -0.04 -0.01    -0.251 OA
DOCKED: BRANCH  34  36
DOCKED: ATOM     36  O   UNL d   1      12.178  -8.911 -15.588 -0.04 +0.05    -0.481 OA
DOCKED: ATOM     37  H   UNL d   1      11.709  -9.011 -14.732 -0.41 -0.11    +0.295 HD
DOCKED: ENDBRANCH  34  36
DOCKED: ENDBRANCH  33  34
DOCKED: ENDBRANCH   7  33
DOCKED: BRANCH  27  38
DOCKED: ATOM     38  C   UNL d   1      18.140  -6.435 -13.172 -0.08 +0.00    +0.017 C 
DOCKED: ATOM     39  C   UNL d   1      19.337  -5.828 -13.193 -0.03 +0.00    +0.092 C 
DOCKED: BRANCH  39  40
DOCKED: ATOM     40  C   UNL d   1      20.470  -6.421 -12.478 +0.00 +0.02    +0.330 C 
DOCKED: ATOM     41  O   UNL d   1      21.029  -7.475 -12.715 -0.00 -0.02    -0.246 OA
DOCKED: BRANCH  40  42
DOCKED: ATOM     42  O   UNL d   1      20.854  -5.617 -11.474 +0.01 -0.02    -0.477 OA
DOCKED: ATOM     43  H   UNL d   1      21.191  -4.818 -11.929 +0.02 +0.01    +0.295 HD
DOCKED: ENDBRANCH  40  42
DOCKED: ENDBRANCH  39  40
DOCKED: ENDBRANCH  27  38
DOCKED: BRANCH   8  44
DOCKED: ATOM     44  C   UNL d   1       9.782   0.515 -14.129 -0.10 +0.03    +0.141 C 
DOCKED: BRANCH  44  45
DOCKED: ATOM     45  C   UNL d   1      10.386   0.888 -15.457 -0.09 +0.11    +0.306 C 
DOCKED: ATOM     46  O   UNL d   1      10.152   0.368 -16.534 -0.08 -0.09    -0.251 OA
DOCKED: BRANCH  45  47
DOCKED: ATOM     47  O   UNL d   1      11.282   1.886 -15.352 -0.04 -0.18    -0.481 OA
DOCKED: ATOM     48  H   UNL d   1      11.220   2.179 -14.418 -0.37 +0.06    +0.295 HD
DOCKED: ENDBRANCH  45  47
DOCKED: ENDBRANCH  44  45
DOCKED: ENDBRANCH   8  44
DOCKED: BRANCH  22  49
DOCKED: ATOM     49  C   UNL d   1      19.294  -0.994 -13.766 -0.07 -0.00    +0.048 C 
DOCKED: BRANCH  49  50
DOCKED: ATOM     50  C   UNL d   1      19.939  -1.218 -12.398 -0.09 -0.01    +0.125 C 
DOCKED: BRANCH  50  51
DOCKED: ATOM     51  C   UNL d   1      20.434  -2.630 -12.263 -0.03 -0.02    +0.305 C 
DOCKED: ATOM     52  O   UNL d   1      21.425  -3.122 -12.774 -0.00 -0.01    -0.251 OA
DOCKED: BRANCH  51  53
DOCKED: ATOM     53  O   UNL d   1      19.628  -3.374 -11.480 -0.06 +0.07    -0.481 OA
DOCKED: ATOM     54  H   UNL d   1      20.215  -3.680 -10.757 +0.04 -0.03    +0.295 HD
DOCKED: ENDBRANCH  51  53
DOCKED: ENDBRANCH  50  51
DOCKED: ENDBRANCH  49  50
DOCKED: ENDBRANCH  22  49
DOCKED: TORSDOF 13
DOCKED: TER
DOCKED: ENDMDL
________________________________________________________________________________


	BEGINNING GENETIC ALGORITHM DOCKING 87 of 100
Run: 87 Seed: 1150973077 275466509 [ Run 87 of 100 GA/GALS ]
Beginning LAMARCKIAN GENETIC ALGORITHM (LGA), with a maximum of 25000000 energy evaluations.

Final-Value: -9.982


	FINAL GENETIC ALGORITHM DOCKED STATE
	_______________________________________________


Detailed state:  trans -2.311 -16.560 -1.904 quatxyzw 0.052934 0.675841 0.547360 0.490749 center 0.153 0.018 -0.028 ntor 13 -42.3507 0.4936 102.3287 122.0076 41.4503 -46.7167 120.6165 93.8607 -124.4582 -123.9297 147.6278 -75.9249 173.7792
State:	 -2.311 -16.560  -1.904   0.061  0.776  0.628 121.220    -42.35    0.49  102.33  122.01   41.45  -46.72  120.62   93.86 -124.46 -123.93  147.63  -75.92  173.78

DOCKED: MODEL       87
DOCKED: USER    Run = 87
DOCKED: USER    DPF = D:/Protein_go_brrr/autodock/final/AncA/heme/dock.dpf
DOCKED: USER  
DOCKED: USER    Estimated Free Energy of Binding    =   -4.95 kcal/mol  [=(1)+(2)+(3)-(4)]
DOCKED: USER    Estimated Inhibition Constant, Ki   =  235.43 uM (micromolar)  [Temperature = 298.15 K]
DOCKED: USER    
DOCKED: USER    (1) Final Intermolecular Energy     =   -8.83 kcal/mol
DOCKED: USER        vdW + Hbond + desolv Energy     =   -7.94 kcal/mol
DOCKED: USER        Electrostatic Energy            =   -0.89 kcal/mol
DOCKED: USER    (2) Final Total Internal Energy     =   -1.15 kcal/mol
DOCKED: USER    (3) Torsional Free Energy           =   +3.88 kcal/mol
DOCKED: USER    (4) Unbound System's Energy  [=(2)] =   -1.15 kcal/mol
DOCKED: USER    
DOCKED: USER    
DOCKED: USER    NEWDPF move heme_opt.pdbqt
DOCKED: USER    NEWDPF about 0.153000 0.018000 -0.028000
DOCKED: USER    NEWDPF tran0 -2.311358 -16.560329 -1.903878
DOCKED: USER    NEWDPF quaternion0 0.052934 0.675841 0.547360 0.490749
DOCKED: USER    NEWDPF axisangle0 0.060752 0.775669 0.628210 121.220396
DOCKED: USER    NEWDPF quat0 0.060752 0.775669 0.628210 121.220396
DOCKED: USER    NEWDPF dihe0 -42.35 0.49 102.33 122.01 41.45 -46.72 120.62 93.86 -124.46 -123.93 147.63 -75.92 173.78 
DOCKED: USER  keepresnum = 1 
DOCKED: USER  
DOCKED: REMARK  13 active torsions:
DOCKED: REMARK  status: ('A' for Active; 'I' for Inactive)
DOCKED: REMARK    1  A    between atoms: O_3  and  C_38 
DOCKED: REMARK    2  A    between atoms: O_4  and  C_40 
DOCKED: REMARK    3  A    between atoms: O_7  and  C_46 
DOCKED: REMARK    4  A    between atoms: O_9  and  C_48 
DOCKED: REMARK    5  A    between atoms: C_15  and  C_20 
DOCKED: REMARK    6  A    between atoms: C_16  and  C_23 
DOCKED: REMARK    7  A    between atoms: C_20  and  C_38 
DOCKED: REMARK    8  A    between atoms: C_23  and  C_40 
DOCKED: REMARK    9  A    between atoms: C_32  and  C_41 
DOCKED: REMARK   10  A    between atoms: C_37  and  C_45 
DOCKED: REMARK   11  A    between atoms: C_41  and  C_44 
DOCKED: REMARK   12  A    between atoms: C_44  and  C_46 
DOCKED: REMARK   13  A    between atoms: C_47  and  C_48 
DOCKED: USER                              x       y       z     vdW  Elec       q    Type
DOCKED: USER                           _______ _______ _______ _____ _____    ______ ____
DOCKED: ROOT
DOCKED: ATOM      1  O   UNL d   1       1.201 -12.767  -4.737 -0.18 -0.13    -0.289 OA
DOCKED: ATOM      2  O   UNL d   1      -2.943 -18.488  -7.282 -0.63 -0.44    -0.289 OA
DOCKED: ATOM      3  N   UNL d   1      -0.618 -14.827  -2.654 -0.07 -0.23    -0.247 NA
DOCKED: ATOM      4  N   UNL d   1      -2.129 -16.549  -4.546 -0.40 -0.38    -0.247 NA
DOCKED: ATOM      5  N   UNL d   1      -3.766 -17.384  -2.334 +0.02 -0.62    -0.354 N 
DOCKED: ATOM      6  N   UNL d   1      -2.206 -15.579  -0.382 -0.08 -0.44    -0.354 N 
DOCKED: ATOM      7  C   UNL d   1       0.692 -12.779  -2.346 -0.16 +0.04    +0.084 A 
DOCKED: ATOM      8  C   UNL d   1      -1.156 -16.899  -6.760 -0.21 +0.07    +0.084 A 
DOCKED: ATOM      9  C   UNL d   1      -1.110 -16.193  -5.401 -0.18 +0.05    +0.058 A 
DOCKED: ATOM     10  C   UNL d   1      -0.182 -13.881  -1.741 -0.11 +0.04    +0.058 A 
DOCKED: ATOM     11  C   UNL d   1       0.689 -13.280  -3.759 -0.12 +0.10    +0.193 A 
DOCKED: ATOM     12  C   UNL d   1      -0.117 -14.540  -3.811 -0.15 +0.08    +0.109 A 
DOCKED: ATOM     13  C   UNL d   1      -2.411 -17.693  -6.532 -0.15 +0.21    +0.193 A 
DOCKED: ATOM     14  C   UNL d   1       0.005 -11.412  -2.304 -0.32 +0.01    +0.026 C 
DOCKED: ATOM     15  C   UNL d   1      -0.186 -15.270  -5.093 -0.25 +0.04    +0.055 C 
DOCKED: ATOM     16  C   UNL d   1       0.016 -17.869  -6.936 -0.17 +0.02    +0.026 C 
DOCKED: ATOM     17  C   UNL d   1      -2.906 -17.386  -5.155 -0.07 +0.15    +0.109 A 
DOCKED: ATOM     18  C   UNL d   1      -0.414 -13.947  -0.417 -0.16 +0.04    +0.050 C 
DOCKED: ATOM     19  C   UNL d   1      -1.138 -14.973   0.241 -0.12 +0.04    +0.045 A 
DOCKED: ATOM     20  C   UNL d   1      -4.479 -17.926  -3.372 -0.04 +0.07    +0.045 A 
DOCKED: ATOM     21  C   UNL d   1      -4.153 -17.992  -4.667 -0.14 +0.08    +0.057 C 
DOCKED: ATOM     22  C   UNL d   1      -5.672 -18.188  -1.442 -0.04 -0.02    -0.019 A 
DOCKED: ATOM     23  C   UNL d   1      -4.406 -17.494  -1.129 -0.07 +0.06    +0.045 A 
DOCKED: ATOM     24  C   UNL d   1      -5.708 -18.442  -2.771 -0.07 -0.02    -0.022 A 
DOCKED: ATOM     25  C   UNL d   1      -2.815 -16.475   0.466 -0.10 +0.06    +0.049 A 
DOCKED: ATOM     26  C   UNL d   1      -1.029 -15.516   1.513 -0.09 -0.02    -0.018 A 
DOCKED: ATOM     27  C   UNL d   1      -2.078 -16.477   1.642 -0.06 +0.00    +0.003 A 
DOCKED: ATOM     28  C   UNL d   1      -4.034 -17.110   0.102 -0.09 +0.07    +0.052 C 
DOCKED: ATOM     29  C   UNL d   1      -6.768 -19.131  -3.561 -0.05 +0.04    +0.046 C 
DOCKED: ATOM     30  C   UNL d   1      -0.011 -15.165   2.545 -0.13 +0.03    +0.046 C 
DOCKED: ATOM     31  H   UNL d   1      -2.829 -17.021  -2.472 +0.01 +0.29    +0.166 HD
DOCKED: ATOM     32  H   UNL d   1      -2.509 -15.352  -1.321 +0.02 +0.28    +0.166 HD
DOCKED: ENDROOT
DOCKED: BRANCH   7  33
DOCKED: ATOM     33  C   UNL d   1       2.124 -12.705  -1.805 -0.14 +0.05    +0.141 C 
DOCKED: BRANCH  33  34
DOCKED: ATOM     34  C   UNL d   1       2.197 -12.069  -0.443 -0.16 +0.09    +0.306 C 
DOCKED: ATOM     35  O   UNL d   1       2.215 -12.655   0.626 -0.12 -0.08    -0.251 OA
DOCKED: BRANCH  34  36
DOCKED: ATOM     36  O   UNL d   1       2.245 -10.726  -0.500 -0.14 -0.07    -0.481 OA
DOCKED: ATOM     37  H   UNL d   1       1.610 -10.427   0.185 -0.44 -0.01    +0.295 HD
DOCKED: ENDBRANCH  34  36
DOCKED: ENDBRANCH  33  34
DOCKED: ENDBRANCH   7  33
DOCKED: BRANCH  27  38
DOCKED: ATOM     38  C   UNL d   1      -2.338 -17.263   2.810 -0.08 +0.02    +0.017 C 
DOCKED: ATOM     39  C   UNL d   1      -3.556 -17.564   3.286 -0.06 +0.11    +0.092 C 
DOCKED: BRANCH  39  40
DOCKED: ATOM     40  C   UNL d   1      -3.687 -18.394   4.486 -0.03 +0.23    +0.330 C 
DOCKED: ATOM     41  O   UNL d   1      -3.135 -19.453   4.721 -0.00 -0.11    -0.246 OA
DOCKED: BRANCH  40  42
DOCKED: ATOM     42  O   UNL d   1      -4.529 -17.818   5.357 -0.06 -0.37    -0.477 OA
DOCKED: ATOM     43  H   UNL d   1      -4.543 -18.437   6.115 +0.02 +0.15    +0.295 HD
DOCKED: ENDBRANCH  40  42
DOCKED: ENDBRANCH  39  40
DOCKED: ENDBRANCH  27  38
DOCKED: BRANCH   8  44
DOCKED: ATOM     44  C   UNL d   1      -1.303 -15.980  -7.977 -0.17 +0.08    +0.141 C 
DOCKED: BRANCH  44  45
DOCKED: ATOM     45  C   UNL d   1      -1.496 -16.729  -9.268 -0.27 +0.15    +0.306 C 
DOCKED: ATOM     46  O   UNL d   1      -2.521 -17.268  -9.649 -0.34 -0.23    -0.251 OA
DOCKED: BRANCH  45  47
DOCKED: ATOM     47  O   UNL d   1      -0.372 -16.784 -10.005 -0.19 -0.06    -0.481 OA
DOCKED: ATOM     48  H   UNL d   1      -0.313 -15.904 -10.432 -0.38 -0.07    +0.295 HD
DOCKED: ENDBRANCH  45  47
DOCKED: ENDBRANCH  44  45
DOCKED: ENDBRANCH   8  44
DOCKED: BRANCH  22  49
DOCKED: ATOM     49  C   UNL d   1      -6.724 -18.521  -0.425 -0.01 +0.04    +0.048 C 
DOCKED: BRANCH  49  50
DOCKED: ATOM     50  C   UNL d   1      -7.753 -17.401  -0.283 -0.01 +0.10    +0.125 C 
DOCKED: BRANCH  50  51
DOCKED: ATOM     51  C   UNL d   1      -7.125 -16.060  -0.537 -0.05 +0.38    +0.305 C 
DOCKED: ATOM     52  O   UNL d   1      -6.992 -15.492  -1.607 -0.61 -0.42    -0.251 OA
DOCKED: BRANCH  51  53
DOCKED: ATOM     53  O   UNL d   1      -6.672 -15.492   0.598 -0.39 -0.86    -0.481 OA
DOCKED: ATOM     54  H   UNL d   1      -7.468 -15.429   1.167 +0.06 +0.42    +0.295 HD
DOCKED: ENDBRANCH  51  53
DOCKED: ENDBRANCH  50  51
DOCKED: ENDBRANCH  49  50
DOCKED: ENDBRANCH  22  49
DOCKED: TORSDOF 13
DOCKED: TER
DOCKED: ENDMDL
________________________________________________________________________________


	BEGINNING GENETIC ALGORITHM DOCKING 88 of 100
Run: 88 Seed: 487680153 379939367 [ Run 88 of 100 GA/GALS ]
Beginning LAMARCKIAN GENETIC ALGORITHM (LGA), with a maximum of 25000000 energy evaluations.

Final-Value: -11.409


	FINAL GENETIC ALGORITHM DOCKED STATE
	_______________________________________________


Detailed state:  trans 17.912 -0.771 1.765 quatxyzw -0.181131 -0.381909 -0.130304 0.896860 center 0.153 0.018 -0.028 ntor 13 32.7418 -163.5690 105.2273 -75.7341 -140.6615 -39.0089 138.9131 -101.5121 172.9404 153.1159 -110.5606 11.5779 -7.7380
State:	 17.912  -0.771   1.765  -0.410 -0.863 -0.295 52.503     32.74 -163.57  105.23  -75.73 -140.66  -39.01  138.91 -101.51  172.94  153.12 -110.56   11.58   -7.74

DOCKED: MODEL       88
DOCKED: USER    Run = 88
DOCKED: USER    DPF = D:/Protein_go_brrr/autodock/final/AncA/heme/dock.dpf
DOCKED: USER  
DOCKED: USER    Estimated Free Energy of Binding    =   -4.24 kcal/mol  [=(1)+(2)+(3)-(4)]
DOCKED: USER    Estimated Inhibition Constant, Ki   =  779.97 uM (micromolar)  [Temperature = 298.15 K]
DOCKED: USER    
DOCKED: USER    (1) Final Intermolecular Energy     =   -8.12 kcal/mol
DOCKED: USER        vdW + Hbond + desolv Energy     =   -7.80 kcal/mol
DOCKED: USER        Electrostatic Energy            =   -0.31 kcal/mol
DOCKED: USER    (2) Final Total Internal Energy     =   -3.29 kcal/mol
DOCKED: USER    (3) Torsional Free Energy           =   +3.88 kcal/mol
DOCKED: USER    (4) Unbound System's Energy  [=(2)] =   -3.29 kcal/mol
DOCKED: USER    
DOCKED: USER    
DOCKED: USER    NEWDPF move heme_opt.pdbqt
DOCKED: USER    NEWDPF about 0.153000 0.018000 -0.028000
DOCKED: USER    NEWDPF tran0 17.911654 -0.771000 1.765405
DOCKED: USER    NEWDPF quaternion0 -0.181131 -0.381909 -0.130304 0.896860
DOCKED: USER    NEWDPF axisangle0 -0.409507 -0.863433 -0.294596 52.503290
DOCKED: USER    NEWDPF quat0 -0.409507 -0.863433 -0.294596 52.503290
DOCKED: USER    NEWDPF dihe0 32.74 -163.57 105.23 -75.73 -140.66 -39.01 138.91 -101.51 172.94 153.12 -110.56 11.58 -7.74 
DOCKED: USER  keepresnum = 1 
DOCKED: USER  
DOCKED: REMARK  13 active torsions:
DOCKED: REMARK  status: ('A' for Active; 'I' for Inactive)
DOCKED: REMARK    1  A    between atoms: O_3  and  C_38 
DOCKED: REMARK    2  A    between atoms: O_4  and  C_40 
DOCKED: REMARK    3  A    between atoms: O_7  and  C_46 
DOCKED: REMARK    4  A    between atoms: O_9  and  C_48 
DOCKED: REMARK    5  A    between atoms: C_15  and  C_20 
DOCKED: REMARK    6  A    between atoms: C_16  and  C_23 
DOCKED: REMARK    7  A    between atoms: C_20  and  C_38 
DOCKED: REMARK    8  A    between atoms: C_23  and  C_40 
DOCKED: REMARK    9  A    between atoms: C_32  and  C_41 
DOCKED: REMARK   10  A    between atoms: C_37  and  C_45 
DOCKED: REMARK   11  A    between atoms: C_41  and  C_44 
DOCKED: REMARK   12  A    between atoms: C_44  and  C_46 
DOCKED: REMARK   13  A    between atoms: C_47  and  C_48 
DOCKED: USER                              x       y       z     vdW  Elec       q    Type
DOCKED: USER                           _______ _______ _______ _____ _____    ______ ____
DOCKED: ROOT
DOCKED: ATOM      1  O   UNL d   1      14.441  -1.484   6.478 -0.06 -0.06    -0.289 OA
DOCKED: ATOM      2  O   UNL d   1      15.426  -5.767   0.389 -0.15 -0.12    -0.289 OA
DOCKED: ATOM      3  N   UNL d   1      16.513  -0.580   3.873 -0.15 -0.07    -0.247 NA
DOCKED: ATOM      4  N   UNL d   1      16.492  -2.978   2.119 -0.10 -0.12    -0.247 NA
DOCKED: ATOM      5  N   UNL d   1      18.750  -1.867   0.728 -0.01 -0.46    -0.354 N 
DOCKED: ATOM      6  N   UNL d   1      18.777   0.609   2.564 -0.06 -0.15    -0.354 N 
DOCKED: ATOM      7  C   UNL d   1      16.017   0.344   6.088 -0.19 +0.01    +0.084 A 
DOCKED: ATOM      8  C   UNL d   1      14.525  -4.424   2.226 -0.23 +0.03    +0.084 A 
DOCKED: ATOM      9  C   UNL d   1      15.300  -3.217   2.765 -0.20 +0.02    +0.058 A 
DOCKED: ATOM     10  C   UNL d   1      16.797   0.433   4.773 -0.20 +0.01    +0.058 A 
DOCKED: ATOM     11  C   UNL d   1      15.228  -0.889   5.764 -0.16 +0.03    +0.193 A 
DOCKED: ATOM     12  C   UNL d   1      15.599  -1.338   4.384 -0.21 +0.02    +0.109 A 
DOCKED: ATOM     13  C   UNL d   1      15.517  -4.849   1.180 -0.16 +0.08    +0.193 A 
DOCKED: ATOM     14  C   UNL d   1      16.932   0.046   7.280 -0.09 +0.00    +0.026 C 
DOCKED: ATOM     15  C   UNL d   1      14.875  -2.489   3.809 -0.28 +0.01    +0.055 C 
DOCKED: ATOM     16  C   UNL d   1      13.227  -4.003   1.532 -0.48 +0.01    +0.026 C 
DOCKED: ATOM     17  C   UNL d   1      16.666  -3.895   1.222 -0.15 +0.06    +0.109 A 
DOCKED: ATOM     18  C   UNL d   1      17.614   1.470   4.510 -0.21 +0.01    +0.050 C 
DOCKED: ATOM     19  C   UNL d   1      18.310   1.680   3.292 -0.18 +0.01    +0.045 A 
DOCKED: ATOM     20  C   UNL d   1      18.731  -3.124   0.181 -0.03 +0.05    +0.045 A 
DOCKED: ATOM     21  C   UNL d   1      17.819  -4.089   0.331 -0.15 +0.04    +0.057 C 
DOCKED: ATOM     22  C   UNL d   1      20.609  -2.035  -0.533 -0.05 -0.02    -0.019 A 
DOCKED: ATOM     23  C   UNL d   1      19.846  -1.135   0.355 -0.04 +0.05    +0.045 A 
DOCKED: ATOM     24  C   UNL d   1      19.943  -3.210  -0.633 -0.04 -0.02    -0.022 A 
DOCKED: ATOM     25  C   UNL d   1      19.495   1.041   1.474 -0.14 +0.03    +0.049 A 
DOCKED: ATOM     26  C   UNL d   1      18.703   2.838   2.638 -0.24 -0.01    -0.018 A 
DOCKED: ATOM     27  C   UNL d   1      19.435   2.428   1.480 -0.22 +0.00    +0.003 A 
DOCKED: ATOM     28  C   UNL d   1      20.208   0.120   0.659 -0.13 +0.04    +0.052 C 
DOCKED: ATOM     29  C   UNL d   1      20.306  -4.423  -1.420 -0.05 +0.03    +0.046 C 
DOCKED: ATOM     30  C   UNL d   1      18.417   4.239   3.059 -0.30 +0.01    +0.046 C 
DOCKED: ATOM     31  H   UNL d   1      17.973  -1.523   1.282 +0.02 +0.17    +0.166 HD
DOCKED: ATOM     32  H   UNL d   1      18.635  -0.357   2.836 +0.03 +0.07    +0.166 HD
DOCKED: ENDROOT
DOCKED: BRANCH   7  33
DOCKED: ATOM     33  C   UNL d   1      15.081   1.522   6.378 -0.25 +0.01    +0.141 C 
DOCKED: BRANCH  33  34
DOCKED: ATOM     34  C   UNL d   1      15.110   1.943   7.822 -0.20 +0.04    +0.306 C 
DOCKED: ATOM     35  O   UNL d   1      14.435   1.473   8.723 -0.23 -0.04    -0.251 OA
DOCKED: BRANCH  34  36
DOCKED: ATOM     36  O   UNL d   1      15.989   2.933   8.056 -0.04 -0.08    -0.481 OA
DOCKED: ATOM     37  H   UNL d   1      16.284   2.787   8.981 +0.07 +0.05    +0.295 HD
DOCKED: ENDBRANCH  34  36
DOCKED: ENDBRANCH  33  34
DOCKED: ENDBRANCH   7  33
DOCKED: BRANCH  27  38
DOCKED: ATOM     38  C   UNL d   1      20.037   3.312   0.529 -0.24 +0.01    +0.017 C 
DOCKED: ATOM     39  C   UNL d   1      19.912   3.217  -0.804 -0.27 +0.04    +0.092 C 
DOCKED: BRANCH  39  40
DOCKED: ATOM     40  C   UNL d   1      20.567   4.200  -1.670 -0.15 +0.10    +0.330 C 
DOCKED: ATOM     41  O   UNL d   1      20.648   5.402  -1.503 -0.20 -0.04    -0.246 OA
DOCKED: BRANCH  40  42
DOCKED: ATOM     42  O   UNL d   1      21.112   3.588  -2.734 -0.02 -0.15    -0.477 OA
DOCKED: ATOM     43  H   UNL d   1      20.680   2.710  -2.745 +0.11 +0.14    +0.295 HD
DOCKED: ENDBRANCH  40  42
DOCKED: ENDBRANCH  39  40
DOCKED: ENDBRANCH  27  38
DOCKED: BRANCH   8  44
DOCKED: ATOM     44  C   UNL d   1      14.275  -5.551   3.234 -0.17 +0.05    +0.141 C 
DOCKED: BRANCH  44  45
DOCKED: ATOM     45  C   UNL d   1      12.864  -5.575   3.760 -0.14 +0.12    +0.306 C 
DOCKED: ATOM     46  O   UNL d   1      11.940  -6.245   3.332 -0.71 -0.15    -0.251 OA
DOCKED: BRANCH  45  47
DOCKED: ATOM     47  O   UNL d   1      12.684  -4.727   4.789 -0.23 -0.14    -0.481 OA
DOCKED: ATOM     48  H   UNL d   1      13.108  -5.172   5.554 +0.10 +0.07    +0.295 HD
DOCKED: ENDBRANCH  45  47
DOCKED: ENDBRANCH  44  45
DOCKED: ENDBRANCH   8  44
DOCKED: BRANCH  22  49
DOCKED: ATOM     49  C   UNL d   1      21.912  -1.672  -1.182 -0.04 +0.03    +0.048 C 
DOCKED: BRANCH  49  50
DOCKED: ATOM     50  C   UNL d   1      21.705  -1.051  -2.563 -0.04 +0.09    +0.125 C 
DOCKED: BRANCH  50  51
DOCKED: ATOM     51  C   UNL d   1      21.104   0.321  -2.449 -0.05 +0.27    +0.305 C 
DOCKED: ATOM     52  O   UNL d   1      19.966   0.659  -2.725 -0.57 -0.39    -0.251 OA
DOCKED: BRANCH  51  53
DOCKED: ATOM     53  O   UNL d   1      21.993   1.226  -1.993 +0.01 -0.23    -0.481 OA
DOCKED: ATOM     54  H   UNL d   1      22.248   1.733  -2.792 +0.05 +0.11    +0.295 HD
DOCKED: ENDBRANCH  51  53
DOCKED: ENDBRANCH  50  51
DOCKED: ENDBRANCH  49  50
DOCKED: ENDBRANCH  22  49
DOCKED: TORSDOF 13
DOCKED: TER
DOCKED: ENDMDL
________________________________________________________________________________


	BEGINNING GENETIC ALGORITHM DOCKING 89 of 100
Run: 89 Seed: 123540444 1047662660 [ Run 89 of 100 GA/GALS ]
Beginning LAMARCKIAN GENETIC ALGORITHM (LGA), with a maximum of 25000000 energy evaluations.

Final-Value: -11.191


	FINAL GENETIC ALGORITHM DOCKED STATE
	_______________________________________________


Detailed state:  trans 0.744 15.101 2.345 quatxyzw 0.628041 -0.370456 0.538935 -0.421753 center 0.153 0.018 -0.028 ntor 13 131.5118 -132.7969 -104.8690 -69.0685 -136.1050 66.4798 -179.8670 -135.4093 18.0555 13.7840 -94.8222 -96.9998 -2.9278
State:	  0.744  15.101   2.345   0.693 -0.409  0.594 -130.109    131.51 -132.80 -104.87  -69.07 -136.10   66.48 -179.87 -135.41   18.06   13.78  -94.82  -97.00   -2.93

DOCKED: MODEL       89
DOCKED: USER    Run = 89
DOCKED: USER    DPF = D:/Protein_go_brrr/autodock/final/AncA/heme/dock.dpf
DOCKED: USER  
DOCKED: USER    Estimated Free Energy of Binding    =   -2.72 kcal/mol  [=(1)+(2)+(3)-(4)]
DOCKED: USER    Estimated Inhibition Constant, Ki   =   10.14 mM (millimolar)  [Temperature = 298.15 K]
DOCKED: USER    
DOCKED: USER    (1) Final Intermolecular Energy     =   -6.60 kcal/mol
DOCKED: USER        vdW + Hbond + desolv Energy     =   -6.57 kcal/mol
DOCKED: USER        Electrostatic Energy            =   -0.03 kcal/mol
DOCKED: USER    (2) Final Total Internal Energy     =   -4.59 kcal/mol
DOCKED: USER    (3) Torsional Free Energy           =   +3.88 kcal/mol
DOCKED: USER    (4) Unbound System's Energy  [=(2)] =   -4.59 kcal/mol
DOCKED: USER    
DOCKED: USER    
DOCKED: USER    NEWDPF move heme_opt.pdbqt
DOCKED: USER    NEWDPF about 0.153000 0.018000 -0.028000
DOCKED: USER    NEWDPF tran0 0.744091 15.101198 2.344725
DOCKED: USER    NEWDPF quaternion0 0.628041 -0.370456 0.538935 -0.421753
DOCKED: USER    NEWDPF axisangle0 0.692659 -0.408571 0.594385 -130.109355
DOCKED: USER    NEWDPF quat0 0.692659 -0.408571 0.594385 -130.109355
DOCKED: USER    NEWDPF dihe0 131.51 -132.80 -104.87 -69.07 -136.10 66.48 -179.87 -135.41 18.06 13.78 -94.82 -97.00 -2.93 
DOCKED: USER  keepresnum = 1 
DOCKED: USER  
DOCKED: REMARK  13 active torsions:
DOCKED: REMARK  status: ('A' for Active; 'I' for Inactive)
DOCKED: REMARK    1  A    between atoms: O_3  and  C_38 
DOCKED: REMARK    2  A    between atoms: O_4  and  C_40 
DOCKED: REMARK    3  A    between atoms: O_7  and  C_46 
DOCKED: REMARK    4  A    between atoms: O_9  and  C_48 
DOCKED: REMARK    5  A    between atoms: C_15  and  C_20 
DOCKED: REMARK    6  A    between atoms: C_16  and  C_23 
DOCKED: REMARK    7  A    between atoms: C_20  and  C_38 
DOCKED: REMARK    8  A    between atoms: C_23  and  C_40 
DOCKED: REMARK    9  A    between atoms: C_32  and  C_41 
DOCKED: REMARK   10  A    between atoms: C_37  and  C_45 
DOCKED: REMARK   11  A    between atoms: C_41  and  C_44 
DOCKED: REMARK   12  A    between atoms: C_44  and  C_46 
DOCKED: REMARK   13  A    between atoms: C_47  and  C_48 
DOCKED: USER                              x       y       z     vdW  Elec       q    Type
DOCKED: USER                           _______ _______ _______ _____ _____    ______ ____
DOCKED: ROOT
DOCKED: ATOM      1  O   UNL d   1      -1.385  13.935  -3.028 -0.07 +0.05    -0.289 OA
DOCKED: ATOM      2  O   UNL d   1       4.242  18.389  -0.816 -0.11 +0.01    -0.289 OA
DOCKED: ATOM      3  N   UNL d   1      -0.576  14.415   0.291 -0.00 +0.02    -0.247 NA
DOCKED: ATOM      4  N   UNL d   1       1.905  16.045   0.160 -0.11 +0.02    -0.247 NA
DOCKED: ATOM      5  N   UNL d   1       2.320  15.469   2.946 -0.07 +0.02    -0.354 N 
DOCKED: ATOM      6  N   UNL d   1      -0.245  13.764   3.068 -0.09 +0.00    -0.354 N 
DOCKED: ATOM      7  C   UNL d   1      -2.141  12.965  -0.915 -0.15 -0.01    +0.084 A 
DOCKED: ATOM      8  C   UNL d   1       2.228  17.432  -1.826 -0.07 -0.01    +0.084 A 
DOCKED: ATOM      9  C   UNL d   1       1.410  16.370  -1.083 -0.12 -0.01    +0.058 A 
DOCKED: ATOM     10  C   UNL d   1      -1.538  13.427   0.414 -0.12 -0.00    +0.058 A 
DOCKED: ATOM     11  C   UNL d   1      -1.362  13.879  -1.812 -0.08 -0.02    +0.193 A 
DOCKED: ATOM     12  C   UNL d   1      -0.467  14.725  -0.960 -0.03 -0.01    +0.109 A 
DOCKED: ATOM     13  C   UNL d   1       3.300  17.621  -0.790 -0.10 -0.01    +0.193 A 
DOCKED: ATOM     14  C   UNL d   1      -1.769  11.516  -1.242 -0.36 -0.01    +0.026 C 
DOCKED: ATOM     15  C   UNL d   1       0.335  15.774  -1.622 -0.12 -0.01    +0.055 C 
DOCKED: ATOM     16  C   UNL d   1       1.452  18.743  -1.977 -0.03 -0.00    +0.026 C 
DOCKED: ATOM     17  C   UNL d   1       2.992  16.718   0.360 -0.19 -0.01    +0.109 A 
DOCKED: ATOM     18  C   UNL d   1      -1.992  12.959   1.592 -0.26 -0.00    +0.050 C 
DOCKED: ATOM     19  C   UNL d   1      -1.555  13.388   2.871 -0.22 +0.00    +0.045 A 
DOCKED: ATOM     20  C   UNL d   1       3.524  16.051   2.644 -0.27 -0.00    +0.045 A 
DOCKED: ATOM     21  C   UNL d   1       3.901  16.657   1.514 -0.31 -0.00    +0.057 C 
DOCKED: ATOM     22  C   UNL d   1       3.618  15.220   4.770 -0.29 +0.00    -0.019 A 
DOCKED: ATOM     23  C   UNL d   1       2.281  14.940   4.208 -0.21 -0.00    +0.045 A 
DOCKED: ATOM     24  C   UNL d   1       4.348  15.879   3.840 -0.32 +0.00    -0.022 A 
DOCKED: ATOM     25  C   UNL d   1      -0.020  14.055   4.394 +0.02 +0.00    +0.049 A 
DOCKED: ATOM     26  C   UNL d   1      -2.206  13.473   4.092 -0.21 -0.00    -0.018 A 
DOCKED: ATOM     27  C   UNL d   1      -1.237  13.913   5.046 -0.18 +0.00    +0.003 A 
DOCKED: ATOM     28  C   UNL d   1       1.294  14.316   4.869 -0.04 -0.00    +0.052 C 
DOCKED: ATOM     29  C   UNL d   1       5.747  16.386   3.939 -0.32 -0.01    +0.046 C 
DOCKED: ATOM     30  C   UNL d   1      -3.641  13.166   4.359 -0.19 +0.00    +0.046 C 
DOCKED: ATOM     31  H   UNL d   1       1.536  15.519   2.304 +0.05 -0.01    +0.166 HD
DOCKED: ATOM     32  H   UNL d   1       0.451  13.777   2.332 +0.06 -0.00    +0.166 HD
DOCKED: ENDROOT
DOCKED: BRANCH   7  33
DOCKED: ATOM     33  C   UNL d   1      -3.646  13.209  -1.075 -0.07 -0.02    +0.141 C 
DOCKED: BRANCH  33  34
DOCKED: ATOM     34  C   UNL d   1      -3.994  14.672  -1.118 -0.00 -0.02    +0.306 C 
DOCKED: ATOM     35  O   UNL d   1      -4.128  15.409  -0.155 -0.01 +0.01    -0.251 OA
DOCKED: BRANCH  34  36
DOCKED: ATOM     36  O   UNL d   1      -4.151  15.131  -2.372 +0.01 +0.03    -0.481 OA
DOCKED: ATOM     37  H   UNL d   1      -3.342  14.841  -2.844 +0.02 -0.03    +0.295 HD
DOCKED: ENDBRANCH  34  36
DOCKED: ENDBRANCH  33  34
DOCKED: ENDBRANCH   7  33
DOCKED: BRANCH  27  38
DOCKED: ATOM     38  C   UNL d   1      -1.486  14.118   6.441 -0.21 +0.00    +0.017 C 
DOCKED: ATOM     39  C   UNL d   1      -0.866  13.474   7.441 -0.29 -0.00    +0.092 C 
DOCKED: BRANCH  39  40
DOCKED: ATOM     40  C   UNL d   1      -1.201  13.790   8.832 -0.15 -0.00    +0.330 C 
DOCKED: ATOM     41  O   UNL d   1      -2.265  13.622   9.397 -0.13 -0.01    -0.246 OA
DOCKED: BRANCH  40  42
DOCKED: ATOM     42  O   UNL d   1      -0.134  14.312   9.457 -0.07 +0.03    -0.477 OA
DOCKED: ATOM     43  H   UNL d   1       0.200  14.985   8.830 +0.08 -0.02    +0.295 HD
DOCKED: ENDBRANCH  40  42
DOCKED: ENDBRANCH  39  40
DOCKED: ENDBRANCH  27  38
DOCKED: BRANCH   8  44
DOCKED: ATOM     44  C   UNL d   1       2.830  16.986  -3.163 -0.08 -0.01    +0.141 C 
DOCKED: BRANCH  44  45
DOCKED: ATOM     45  C   UNL d   1       3.279  15.549  -3.163 -0.15 -0.04    +0.306 C 
DOCKED: ATOM     46  O   UNL d   1       3.091  14.729  -4.044 -0.17 +0.05    -0.251 OA
DOCKED: BRANCH  45  47
DOCKED: ATOM     47  O   UNL d   1       3.924  15.212  -2.031 -0.18 +0.06    -0.481 OA
DOCKED: ATOM     48  H   UNL d   1       3.217  15.140  -1.355 +0.12 -0.05    +0.295 HD
DOCKED: ENDBRANCH  45  47
DOCKED: ENDBRANCH  44  45
DOCKED: ENDBRANCH   8  44
DOCKED: BRANCH  22  49
DOCKED: ATOM     49  C   UNL d   1       4.057  14.809   6.145 -0.40 -0.01    +0.048 C 
DOCKED: BRANCH  49  50
DOCKED: ATOM     50  C   UNL d   1       3.668  15.845   7.199 -0.19 -0.02    +0.125 C 
DOCKED: BRANCH  50  51
DOCKED: ATOM     51  C   UNL d   1       2.270  15.607   7.695 -0.10 -0.02    +0.305 C 
DOCKED: ATOM     52  O   UNL d   1       1.428  16.443   7.973 -0.03 +0.01    -0.251 OA
DOCKED: BRANCH  51  53
DOCKED: ATOM     53  O   UNL d   1       1.999  14.294   7.829 -0.11 +0.07    -0.481 OA
DOCKED: ATOM     54  H   UNL d   1       1.937  14.162   8.798 +0.04 -0.05    +0.295 HD
DOCKED: ENDBRANCH  51  53
DOCKED: ENDBRANCH  50  51
DOCKED: ENDBRANCH  49  50
DOCKED: ENDBRANCH  22  49
DOCKED: TORSDOF 13
DOCKED: TER
DOCKED: ENDMDL
________________________________________________________________________________


	BEGINNING GENETIC ALGORITHM DOCKING 90 of 100
Run: 90 Seed: 1021948017 1035474698 [ Run 90 of 100 GA/GALS ]
Beginning LAMARCKIAN GENETIC ALGORITHM (LGA), with a maximum of 25000000 energy evaluations.

Final-Value: -11.801


	FINAL GENETIC ALGORITHM DOCKED STATE
	_______________________________________________


Detailed state:  trans 7.441 -13.231 -2.208 quatxyzw -0.295830 0.744419 0.469355 -0.371525 center 0.153 0.018 -0.028 ntor 13 156.1513 142.7710 -171.3940 66.5921 -142.9341 -80.3530 147.3175 -101.8993 13.2297 1.6131 -62.6047 42.7272 14.7943
State:	  7.441 -13.231  -2.208  -0.319  0.802  0.506 -136.381    156.15  142.77 -171.39   66.59 -142.93  -80.35  147.32 -101.90   13.23    1.61  -62.60   42.73   14.79

DOCKED: MODEL       90
DOCKED: USER    Run = 90
DOCKED: USER    DPF = D:/Protein_go_brrr/autodock/final/AncA/heme/dock.dpf
DOCKED: USER  
DOCKED: USER    Estimated Free Energy of Binding    =   -4.45 kcal/mol  [=(1)+(2)+(3)-(4)]
DOCKED: USER    Estimated Inhibition Constant, Ki   =  549.03 uM (micromolar)  [Temperature = 298.15 K]
DOCKED: USER    
DOCKED: USER    (1) Final Intermolecular Energy     =   -8.33 kcal/mol
DOCKED: USER        vdW + Hbond + desolv Energy     =   -8.00 kcal/mol
DOCKED: USER        Electrostatic Energy            =   -0.32 kcal/mol
DOCKED: USER    (2) Final Total Internal Energy     =   -3.47 kcal/mol
DOCKED: USER    (3) Torsional Free Energy           =   +3.88 kcal/mol
DOCKED: USER    (4) Unbound System's Energy  [=(2)] =   -3.47 kcal/mol
DOCKED: USER    
DOCKED: USER    
DOCKED: USER    NEWDPF move heme_opt.pdbqt
DOCKED: USER    NEWDPF about 0.153000 0.018000 -0.028000
DOCKED: USER    NEWDPF tran0 7.440939 -13.230613 -2.208056
DOCKED: USER    NEWDPF quaternion0 -0.295830 0.744419 0.469355 -0.371525
DOCKED: USER    NEWDPF axisangle0 -0.318638 0.801810 0.505540 -136.380648
DOCKED: USER    NEWDPF quat0 -0.318638 0.801810 0.505540 -136.380648
DOCKED: USER    NEWDPF dihe0 156.15 142.77 -171.39 66.59 -142.93 -80.35 147.32 -101.90 13.23 1.61 -62.60 42.73 14.79 
DOCKED: USER  keepresnum = 1 
DOCKED: USER  
DOCKED: REMARK  13 active torsions:
DOCKED: REMARK  status: ('A' for Active; 'I' for Inactive)
DOCKED: REMARK    1  A    between atoms: O_3  and  C_38 
DOCKED: REMARK    2  A    between atoms: O_4  and  C_40 
DOCKED: REMARK    3  A    between atoms: O_7  and  C_46 
DOCKED: REMARK    4  A    between atoms: O_9  and  C_48 
DOCKED: REMARK    5  A    between atoms: C_15  and  C_20 
DOCKED: REMARK    6  A    between atoms: C_16  and  C_23 
DOCKED: REMARK    7  A    between atoms: C_20  and  C_38 
DOCKED: REMARK    8  A    between atoms: C_23  and  C_40 
DOCKED: REMARK    9  A    between atoms: C_32  and  C_41 
DOCKED: REMARK   10  A    between atoms: C_37  and  C_45 
DOCKED: REMARK   11  A    between atoms: C_41  and  C_44 
DOCKED: REMARK   12  A    between atoms: C_44  and  C_46 
DOCKED: REMARK   13  A    between atoms: C_47  and  C_48 
DOCKED: USER                              x       y       z     vdW  Elec       q    Type
DOCKED: USER                           _______ _______ _______ _____ _____    ______ ____
DOCKED: ROOT
DOCKED: ATOM      1  O   UNL d   1       9.366 -11.472   3.079 -0.45 -0.31    -0.289 OA
DOCKED: ATOM      2  O   UNL d   1      12.289 -16.300  -1.874 +0.00 -0.02    -0.289 OA
DOCKED: ATOM      3  N   UNL d   1       7.789 -12.303   0.127 -0.12 +0.05    -0.247 NA
DOCKED: ATOM      4  N   UNL d   1       9.797 -13.990  -1.269 -0.08 +0.10    -0.247 NA
DOCKED: ATOM      5  N   UNL d   1       8.234 -13.707  -3.665 -0.06 +0.12    -0.354 N 
DOCKED: ATOM      6  N   UNL d   1       6.166 -11.940  -2.215 -0.02 +0.01    -0.354 N 
DOCKED: ATOM      7  C   UNL d   1       7.359 -10.691   1.923 -0.25 +0.02    +0.084 A 
DOCKED: ATOM      8  C   UNL d   1      11.414 -15.184   0.121 -0.02 +0.01    +0.084 A 
DOCKED: ATOM      9  C   UNL d   1      10.266 -14.175   0.013 -0.09 +0.00    +0.058 A 
DOCKED: ATOM     10  C   UNL d   1       6.947 -11.301   0.580 -0.26 -0.00    +0.058 A 
DOCKED: ATOM     11  C   UNL d   1       8.574 -11.537   2.157 -0.08 +0.13    +0.193 A 
DOCKED: ATOM     12  C   UNL d   1       8.713 -12.492   1.011 -0.12 +0.02    +0.109 A 
DOCKED: ATOM     13  C   UNL d   1      11.536 -15.509  -1.341 -0.01 +0.00    +0.193 A 
DOCKED: ATOM     14  C   UNL d   1       7.793  -9.230   1.780 -0.41 +0.01    +0.026 C 
DOCKED: ATOM     15  C   UNL d   1       9.795 -13.495   1.069 -0.12 +0.02    +0.055 C 
DOCKED: ATOM     16  C   UNL d   1      10.990 -16.449   0.873 +0.00 +0.00    +0.026 C 
DOCKED: ATOM     17  C   UNL d   1      10.505 -14.715  -2.075 -0.07 -0.03    +0.109 A 
DOCKED: ATOM     18  C   UNL d   1       5.807 -10.938  -0.037 -0.22 -0.00    +0.050 C 
DOCKED: ATOM     19  C   UNL d   1       5.302 -11.505  -1.235 -0.27 +0.00    +0.045 A 
DOCKED: ATOM     20  C   UNL d   1       9.358 -14.294  -4.186 -0.10 -0.01    +0.045 A 
DOCKED: ATOM     21  C   UNL d   1      10.416 -14.797  -3.541 -0.08 -0.02    +0.057 C 
DOCKED: ATOM     22  C   UNL d   1       7.983 -13.681  -5.904 -0.18 +0.00    -0.019 A 
DOCKED: ATOM     23  C   UNL d   1       7.346 -13.303  -4.626 -0.17 -0.00    +0.045 A 
DOCKED: ATOM     24  C   UNL d   1       9.174 -14.268  -5.636 -0.11 +0.00    -0.022 A 
DOCKED: ATOM     25  C   UNL d   1       5.467 -12.368  -3.320 -0.17 +0.00    +0.049 A 
DOCKED: ATOM     26  C   UNL d   1       4.010 -11.689  -1.700 -0.25 -0.00    -0.018 A 
DOCKED: ATOM     27  C   UNL d   1       4.119 -12.252  -3.009 -0.20 +0.00    +0.003 A 
DOCKED: ATOM     28  C   UNL d   1       6.144 -12.717  -4.520 -0.23 +0.00    +0.052 C 
DOCKED: ATOM     29  C   UNL d   1      10.174 -14.826  -6.590 -0.07 +0.00    +0.046 C 
DOCKED: ATOM     30  C   UNL d   1       2.748 -11.364  -0.974 -0.32 +0.01    +0.046 C 
DOCKED: ATOM     31  H   UNL d   1       8.077 -13.667  -2.664 +0.03 -0.06    +0.166 HD
DOCKED: ATOM     32  H   UNL d   1       7.175 -11.903  -2.129 +0.09 -0.05    +0.166 HD
DOCKED: ENDROOT
DOCKED: BRANCH   7  33
DOCKED: ATOM     33  C   UNL d   1       6.352 -10.870   3.063 -0.14 +0.04    +0.141 C 
DOCKED: BRANCH  33  34
DOCKED: ATOM     34  C   UNL d   1       6.094 -12.317   3.387 -0.01 +0.09    +0.306 C 
DOCKED: ATOM     35  O   UNL d   1       5.249 -13.030   2.874 -0.03 -0.07    -0.251 OA
DOCKED: BRANCH  34  36
DOCKED: ATOM     36  O   UNL d   1       6.918 -12.789   4.340 +0.02 -0.15    -0.481 OA
DOCKED: ATOM     37  H   UNL d   1       7.721 -12.230   4.271 +0.04 +0.11    +0.295 HD
DOCKED: ENDBRANCH  34  36
DOCKED: ENDBRANCH  33  34
DOCKED: ENDBRANCH   7  33
DOCKED: BRANCH  27  38
DOCKED: ATOM     38  C   UNL d   1       3.016 -12.586  -3.859 -0.25 +0.00    +0.017 C 
DOCKED: ATOM     39  C   UNL d   1       2.522 -13.821  -4.036 -0.15 +0.04    +0.092 C 
DOCKED: BRANCH  39  40
DOCKED: ATOM     40  C   UNL d   1       1.374 -14.027  -4.924 -0.16 +0.16    +0.330 C 
DOCKED: ATOM     41  O   UNL d   1       0.196 -13.875  -4.663 -0.20 -0.16    -0.246 OA
DOCKED: BRANCH  40  42
DOCKED: ATOM     42  O   UNL d   1       1.793 -14.418  -6.137 -0.15 -0.23    -0.477 OA
DOCKED: ATOM     43  H   UNL d   1       2.614 -13.904  -6.279 +0.14 +0.13    +0.295 HD
DOCKED: ENDBRANCH  40  42
DOCKED: ENDBRANCH  39  40
DOCKED: ENDBRANCH  27  38
DOCKED: BRANCH   8  44
DOCKED: ATOM     44  C   UNL d   1      12.732 -14.628   0.671 -0.02 +0.03    +0.141 C 
DOCKED: BRANCH  44  45
DOCKED: ATOM     45  C   UNL d   1      13.153 -13.340   0.014 -0.07 +0.10    +0.306 C 
DOCKED: ATOM     46  O   UNL d   1      13.057 -12.220   0.484 -0.66 -0.26    -0.251 OA
DOCKED: BRANCH  45  47
DOCKED: ATOM     47  O   UNL d   1      13.653 -13.531  -1.220 -0.01 -0.03    -0.481 OA
DOCKED: ATOM     48  H   UNL d   1      13.488 -14.479  -1.411 +0.04 +0.01    +0.295 HD
DOCKED: ENDBRANCH  45  47
DOCKED: ENDBRANCH  44  45
DOCKED: ENDBRANCH   8  44
DOCKED: BRANCH  22  49
DOCKED: ATOM     49  C   UNL d   1       7.382 -13.422  -7.254 -0.16 -0.00    +0.048 C 
DOCKED: BRANCH  49  50
DOCKED: ATOM     50  C   UNL d   1       6.140 -14.278  -7.497 -0.29 +0.04    +0.125 C 
DOCKED: BRANCH  50  51
DOCKED: ATOM     51  C   UNL d   1       4.925 -13.417  -7.698 -0.29 +0.09    +0.305 C 
DOCKED: ATOM     52  O   UNL d   1       3.993 -13.256  -6.931 -0.36 -0.08    -0.251 OA
DOCKED: BRANCH  51  53
DOCKED: ATOM     53  O   UNL d   1       4.942 -12.793  -8.893 -0.66 -0.16    -0.481 OA
DOCKED: ATOM     54  H   UNL d   1       5.026 -11.844  -8.665 -0.22 -0.03    +0.295 HD
DOCKED: ENDBRANCH  51  53
DOCKED: ENDBRANCH  50  51
DOCKED: ENDBRANCH  49  50
DOCKED: ENDBRANCH  22  49
DOCKED: TORSDOF 13
DOCKED: TER
DOCKED: ENDMDL
________________________________________________________________________________


	BEGINNING GENETIC ALGORITHM DOCKING 91 of 100
Run: 91 Seed: 1892924028 1538777335 [ Run 91 of 100 GA/GALS ]
Beginning LAMARCKIAN GENETIC ALGORITHM (LGA), with a maximum of 25000000 energy evaluations.

Final-Value: -12.375


	FINAL GENETIC ALGORITHM DOCKED STATE
	_______________________________________________


Detailed state:  trans -13.186 -14.934 -7.885 quatxyzw -0.447488 -0.590883 -0.654435 0.149421 center 0.153 0.018 -0.028 ntor 13 160.0143 -17.7396 -114.2733 79.0217 61.0571 -109.2439 133.4615 79.0712 151.4895 -68.7304 -76.8585 6.5121 -169.5727
State:	-13.186 -14.934  -7.885  -0.453 -0.598 -0.662 162.813    160.01  -17.74 -114.27   79.02   61.06 -109.24  133.46   79.07  151.49  -68.73  -76.86    6.51 -169.57

DOCKED: MODEL       91
DOCKED: USER    Run = 91
DOCKED: USER    DPF = D:/Protein_go_brrr/autodock/final/AncA/heme/dock.dpf
DOCKED: USER  
DOCKED: USER    Estimated Free Energy of Binding    =   -6.31 kcal/mol  [=(1)+(2)+(3)-(4)]
DOCKED: USER    Estimated Inhibition Constant, Ki   =   23.68 uM (micromolar)  [Temperature = 298.15 K]
DOCKED: USER    
DOCKED: USER    (1) Final Intermolecular Energy     =  -10.19 kcal/mol
DOCKED: USER        vdW + Hbond + desolv Energy     =   -9.67 kcal/mol
DOCKED: USER        Electrostatic Energy            =   -0.52 kcal/mol
DOCKED: USER    (2) Final Total Internal Energy     =   -2.19 kcal/mol
DOCKED: USER    (3) Torsional Free Energy           =   +3.88 kcal/mol
DOCKED: USER    (4) Unbound System's Energy  [=(2)] =   -2.19 kcal/mol
DOCKED: USER    
DOCKED: USER    
DOCKED: USER    NEWDPF move heme_opt.pdbqt
DOCKED: USER    NEWDPF about 0.153000 0.018000 -0.028000
DOCKED: USER    NEWDPF tran0 -13.185973 -14.934237 -7.884891
DOCKED: USER    NEWDPF quaternion0 -0.447488 -0.590883 -0.654435 0.149421
DOCKED: USER    NEWDPF axisangle0 -0.452569 -0.597592 -0.661865 162.813309
DOCKED: USER    NEWDPF quat0 -0.452569 -0.597592 -0.661865 162.813309
DOCKED: USER    NEWDPF dihe0 160.01 -17.74 -114.27 79.02 61.06 -109.24 133.46 79.07 151.49 -68.73 -76.86 6.51 -169.57 
DOCKED: USER  keepresnum = 1 
DOCKED: USER  
DOCKED: REMARK  13 active torsions:
DOCKED: REMARK  status: ('A' for Active; 'I' for Inactive)
DOCKED: REMARK    1  A    between atoms: O_3  and  C_38 
DOCKED: REMARK    2  A    between atoms: O_4  and  C_40 
DOCKED: REMARK    3  A    between atoms: O_7  and  C_46 
DOCKED: REMARK    4  A    between atoms: O_9  and  C_48 
DOCKED: REMARK    5  A    between atoms: C_15  and  C_20 
DOCKED: REMARK    6  A    between atoms: C_16  and  C_23 
DOCKED: REMARK    7  A    between atoms: C_20  and  C_38 
DOCKED: REMARK    8  A    between atoms: C_23  and  C_40 
DOCKED: REMARK    9  A    between atoms: C_32  and  C_41 
DOCKED: REMARK   10  A    between atoms: C_37  and  C_45 
DOCKED: REMARK   11  A    between atoms: C_41  and  C_44 
DOCKED: REMARK   12  A    between atoms: C_44  and  C_46 
DOCKED: REMARK   13  A    between atoms: C_47  and  C_48 
DOCKED: USER                              x       y       z     vdW  Elec       q    Type
DOCKED: USER                           _______ _______ _______ _____ _____    ______ ____
DOCKED: ROOT
DOCKED: ATOM      1  O   UNL d   1      -9.016 -19.019  -8.712 -0.10 -0.25    -0.289 OA
DOCKED: ATOM      2  O   UNL d   1     -14.530 -16.623 -13.212 -0.10 -0.24    -0.289 OA
DOCKED: ATOM      3  N   UNL d   1     -11.338 -16.664  -7.731 -0.15 -0.06    -0.247 NA
DOCKED: ATOM      4  N   UNL d   1     -12.881 -16.150 -10.218 -0.04 -0.04    -0.247 NA
DOCKED: ATOM      5  N   UNL d   1     -13.995 -13.829  -8.936 -0.12 -0.03    -0.354 N 
DOCKED: ATOM      6  N   UNL d   1     -12.375 -14.360  -6.368 -0.13 -0.06    -0.354 N 
DOCKED: ATOM      7  C   UNL d   1      -9.302 -17.603  -6.740 -0.21 +0.05    +0.084 A 
DOCKED: ATOM      8  C   UNL d   1     -12.962 -17.944 -11.875 -0.10 +0.03    +0.084 A 
DOCKED: ATOM      9  C   UNL d   1     -12.408 -17.398 -10.555 -0.17 +0.02    +0.058 A 
DOCKED: ATOM     10  C   UNL d   1     -10.486 -16.637  -6.640 -0.23 +0.02    +0.058 A 
DOCKED: ATOM     11  C   UNL d   1      -9.646 -18.196  -8.074 -0.11 +0.12    +0.193 A 
DOCKED: ATOM     12  C   UNL d   1     -10.914 -17.563  -8.559 -0.19 +0.04    +0.109 A 
DOCKED: ATOM     13  C   UNL d   1     -13.809 -16.758 -12.243 -0.13 +0.11    +0.193 A 
DOCKED: ATOM     14  C   UNL d   1      -7.966 -16.865  -6.855 -0.16 +0.02    +0.026 C 
DOCKED: ATOM     15  C   UNL d   1     -11.500 -18.060  -9.820 -0.20 +0.02    +0.055 C 
DOCKED: ATOM     16  C   UNL d   1     -13.876 -19.152 -11.651 -0.03 +0.01    +0.026 C 
DOCKED: ATOM     17  C   UNL d   1     -13.666 -15.738 -11.161 -0.22 +0.04    +0.109 A 
DOCKED: ATOM     18  C   UNL d   1     -10.703 -15.903  -5.532 -0.17 +0.02    +0.050 C 
DOCKED: ATOM     19  C   UNL d   1     -11.813 -15.048  -5.316 -0.14 +0.01    +0.045 A 
DOCKED: ATOM     20  C   UNL d   1     -14.438 -13.627 -10.217 -0.26 +0.01    +0.045 A 
DOCKED: ATOM     21  C   UNL d   1     -14.354 -14.443 -11.272 -0.21 +0.03    +0.057 C 
DOCKED: ATOM     22  C   UNL d   1     -14.941 -11.785  -8.962 -0.23 -0.00    -0.019 A 
DOCKED: ATOM     23  C   UNL d   1     -14.252 -12.772  -8.105 -0.22 +0.00    +0.045 A 
DOCKED: ATOM     24  C   UNL d   1     -15.049 -12.298 -10.210 -0.24 -0.01    -0.022 A 
DOCKED: ATOM     25  C   UNL d   1     -13.374 -13.526  -5.921 -0.18 +0.01    +0.049 A 
DOCKED: ATOM     26  C   UNL d   1     -12.488 -14.680  -4.162 -0.12 -0.00    -0.018 A 
DOCKED: ATOM     27  C   UNL d   1     -13.485 -13.733  -4.553 -0.15 +0.00    +0.003 A 
DOCKED: ATOM     28  C   UNL d   1     -13.996 -12.598  -6.800 -0.23 +0.00    +0.052 C 
DOCKED: ATOM     29  C   UNL d   1     -15.674 -11.688 -11.418 -0.14 +0.02    +0.046 C 
DOCKED: ATOM     30  C   UNL d   1     -12.227 -15.177  -2.781 -0.14 +0.01    +0.046 C 
DOCKED: ATOM     31  H   UNL d   1     -13.595 -14.717  -8.652 -0.08 +0.01    +0.166 HD
DOCKED: ATOM     32  H   UNL d   1     -12.054 -14.440  -7.325 -0.16 +0.01    +0.166 HD
DOCKED: ENDROOT
DOCKED: BRANCH   7  33
DOCKED: ATOM     33  C   UNL d   1      -9.251 -18.694  -5.664 -0.08 +0.08    +0.141 C 
DOCKED: BRANCH  33  34
DOCKED: ATOM     34  C   UNL d   1      -7.884 -19.305  -5.523 -0.06 +0.24    +0.306 C 
DOCKED: ATOM     35  O   UNL d   1      -7.162 -19.237  -4.542 -0.04 -0.20    -0.251 OA
DOCKED: BRANCH  34  36
DOCKED: ATOM     36  O   UNL d   1      -7.497 -19.971  -6.625 -0.14 -0.52    -0.481 OA
DOCKED: ATOM     37  H   UNL d   1      -8.334 -20.193  -7.086 +0.04 +0.26    +0.295 HD
DOCKED: ENDBRANCH  34  36
DOCKED: ENDBRANCH  33  34
DOCKED: ENDBRANCH   7  33
DOCKED: BRANCH  27  38
DOCKED: ATOM     38  C   UNL d   1     -14.400 -13.084  -3.664 -0.24 +0.00    +0.017 C 
DOCKED: ATOM     39  C   UNL d   1     -15.708 -12.899  -3.898 -0.19 +0.01    +0.092 C 
DOCKED: BRANCH  39  40
DOCKED: ATOM     40  C   UNL d   1     -16.542 -12.232  -2.895 -0.12 +0.03    +0.330 C 
DOCKED: ATOM     41  O   UNL d   1     -17.424 -12.723  -2.216 -0.34 -0.01    -0.246 OA
DOCKED: BRANCH  40  42
DOCKED: ATOM     42  O   UNL d   1     -16.199 -10.939  -2.794 -0.82 -0.04    -0.477 OA
DOCKED: ATOM     43  H   UNL d   1     -16.966 -10.526  -2.347 -0.40 -0.07    +0.295 HD
DOCKED: ENDBRANCH  40  42
DOCKED: ENDBRANCH  39  40
DOCKED: ENDBRANCH  27  38
DOCKED: BRANCH   8  44
DOCKED: ATOM     44  C   UNL d   1     -11.919 -18.232 -12.960 -0.13 +0.06    +0.141 C 
DOCKED: BRANCH  44  45
DOCKED: ATOM     45  C   UNL d   1     -12.114 -17.407 -14.205 -0.10 +0.21    +0.306 C 
DOCKED: ATOM     46  O   UNL d   1     -11.639 -16.308 -14.430 -0.51 -0.25    -0.251 OA
DOCKED: BRANCH  45  47
DOCKED: ATOM     47  O   UNL d   1     -12.926 -18.005 -15.096 -0.05 -0.33    -0.481 OA
DOCKED: ATOM     48  H   UNL d   1     -13.798 -18.043 -14.649 +0.04 +0.20    +0.295 HD
DOCKED: ENDBRANCH  45  47
DOCKED: ENDBRANCH  44  45
DOCKED: ENDBRANCH   8  44
DOCKED: BRANCH  22  49
DOCKED: ATOM     49  C   UNL d   1     -15.410 -10.441  -8.489 -0.25 +0.00    +0.048 C 
DOCKED: BRANCH  49  50
DOCKED: ATOM     50  C   UNL d   1     -14.536  -9.310  -9.029 -0.34 -0.02    +0.125 C 
DOCKED: BRANCH  50  51
DOCKED: ATOM     51  C   UNL d   1     -15.228  -8.584 -10.148 -0.20 -0.02    +0.305 C 
DOCKED: ATOM     52  O   UNL d   1     -16.170  -7.817 -10.064 -0.15 +0.01    -0.251 OA
DOCKED: BRANCH  51  53
DOCKED: ATOM     53  O   UNL d   1     -14.691  -8.880 -11.349 -0.08 +0.03    -0.481 OA
DOCKED: ATOM     54  H   UNL d   1     -14.124  -8.107 -11.552 -0.44 -0.12    +0.295 HD
DOCKED: ENDBRANCH  51  53
DOCKED: ENDBRANCH  50  51
DOCKED: ENDBRANCH  49  50
DOCKED: ENDBRANCH  22  49
DOCKED: TORSDOF 13
DOCKED: TER
DOCKED: ENDMDL
________________________________________________________________________________


	BEGINNING GENETIC ALGORITHM DOCKING 92 of 100
Run: 92 Seed: 1484857930 1553098901 [ Run 92 of 100 GA/GALS ]
Beginning LAMARCKIAN GENETIC ALGORITHM (LGA), with a maximum of 25000000 energy evaluations.

Final-Value: -12.926


	FINAL GENETIC ALGORITHM DOCKED STATE
	_______________________________________________


Detailed state:  trans -6.627 -1.633 -16.740 quatxyzw -0.689275 0.669273 0.239840 -0.139463 center 0.153 0.018 -0.028 ntor 13 -157.1586 -74.7372 -180.0000 -119.8220 50.5521 -164.4604 -60.3349 -98.5509 162.9045 -152.9778 -31.2852 0.1487 146.9225
State:	 -6.627  -1.633 -16.740  -0.696  0.676  0.242 -163.966   -157.16  -74.74 -180.00 -119.82   50.55 -164.46  -60.33  -98.55  162.90 -152.98  -31.29    0.15  146.92

DOCKED: MODEL       92
DOCKED: USER    Run = 92
DOCKED: USER    DPF = D:/Protein_go_brrr/autodock/final/AncA/heme/dock.dpf
DOCKED: USER  
DOCKED: USER    Estimated Free Energy of Binding    =   -6.92 kcal/mol  [=(1)+(2)+(3)-(4)]
DOCKED: USER    Estimated Inhibition Constant, Ki   =    8.41 uM (micromolar)  [Temperature = 298.15 K]
DOCKED: USER    
DOCKED: USER    (1) Final Intermolecular Energy     =  -10.80 kcal/mol
DOCKED: USER        vdW + Hbond + desolv Energy     =   -9.99 kcal/mol
DOCKED: USER        Electrostatic Energy            =   -0.81 kcal/mol
DOCKED: USER    (2) Final Total Internal Energy     =   -2.12 kcal/mol
DOCKED: USER    (3) Torsional Free Energy           =   +3.88 kcal/mol
DOCKED: USER    (4) Unbound System's Energy  [=(2)] =   -2.12 kcal/mol
DOCKED: USER    
DOCKED: USER    
DOCKED: USER    NEWDPF move heme_opt.pdbqt
DOCKED: USER    NEWDPF about 0.153000 0.018000 -0.028000
DOCKED: USER    NEWDPF tran0 -6.627486 -1.632942 -16.740219
DOCKED: USER    NEWDPF quaternion0 -0.689275 0.669273 0.239840 -0.139463
DOCKED: USER    NEWDPF axisangle0 -0.696078 0.675878 0.242207 -163.966417
DOCKED: USER    NEWDPF quat0 -0.696078 0.675878 0.242207 -163.966417
DOCKED: USER    NEWDPF dihe0 -157.16 -74.74 -180.00 -119.82 50.55 -164.46 -60.33 -98.55 162.90 -152.98 -31.29 0.15 146.92 
DOCKED: USER  keepresnum = 1 
DOCKED: USER  
DOCKED: REMARK  13 active torsions:
DOCKED: REMARK  status: ('A' for Active; 'I' for Inactive)
DOCKED: REMARK    1  A    between atoms: O_3  and  C_38 
DOCKED: REMARK    2  A    between atoms: O_4  and  C_40 
DOCKED: REMARK    3  A    between atoms: O_7  and  C_46 
DOCKED: REMARK    4  A    between atoms: O_9  and  C_48 
DOCKED: REMARK    5  A    between atoms: C_15  and  C_20 
DOCKED: REMARK    6  A    between atoms: C_16  and  C_23 
DOCKED: REMARK    7  A    between atoms: C_20  and  C_38 
DOCKED: REMARK    8  A    between atoms: C_23  and  C_40 
DOCKED: REMARK    9  A    between atoms: C_32  and  C_41 
DOCKED: REMARK   10  A    between atoms: C_37  and  C_45 
DOCKED: REMARK   11  A    between atoms: C_41  and  C_44 
DOCKED: REMARK   12  A    between atoms: C_44  and  C_46 
DOCKED: REMARK   13  A    between atoms: C_47  and  C_48 
DOCKED: USER                              x       y       z     vdW  Elec       q    Type
DOCKED: USER                           _______ _______ _______ _____ _____    ______ ____
DOCKED: ROOT
DOCKED: ATOM      1  O   UNL d   1      -8.331   3.391 -14.168 -0.39 -0.01    -0.289 OA
DOCKED: ATOM      2  O   UNL d   1      -1.576   0.146 -14.654 -0.31 +0.01    -0.289 OA
DOCKED: ATOM      3  N   UNL d   1      -7.832   0.332 -15.682 -0.20 +0.07    -0.247 NA
DOCKED: ATOM      4  N   UNL d   1      -4.876   0.031 -15.656 -0.13 +0.01    -0.247 NA
DOCKED: ATOM      5  N   UNL d   1      -5.173  -2.136 -17.522 -0.12 +0.03    -0.354 N 
DOCKED: ATOM      6  N   UNL d   1      -8.238  -1.804 -17.558 -0.06 +0.08    -0.354 N 
DOCKED: ATOM      7  C   UNL d   1      -9.740   1.853 -15.443 -0.20 -0.04    +0.084 A 
DOCKED: ATOM      8  C   UNL d   1      -3.647   1.219 -13.910 -0.26 -0.00    +0.084 A 
DOCKED: ATOM      9  C   UNL d   1      -4.975   0.929 -14.617 -0.22 -0.00    +0.058 A 
DOCKED: ATOM     10  C   UNL d   1      -9.166   0.542 -15.989 -0.25 -0.03    +0.058 A 
DOCKED: ATOM     11  C   UNL d   1      -8.498   2.339 -14.758 -0.17 -0.04    +0.193 A 
DOCKED: ATOM     12  C   UNL d   1      -7.420   1.318 -14.953 -0.26 -0.02    +0.109 A 
DOCKED: ATOM     13  C   UNL d   1      -2.770   0.347 -14.764 -0.19 -0.02    +0.193 A 
DOCKED: ATOM     14  C   UNL d   1     -10.102   2.831 -16.563 -0.08 -0.01    +0.026 C 
DOCKED: ATOM     15  C   UNL d   1      -6.123   1.539 -14.283 -0.32 -0.00    +0.055 C 
DOCKED: ATOM     16  C   UNL d   1      -3.636   0.675 -12.478 -0.56 -0.00    +0.026 C 
DOCKED: ATOM     17  C   UNL d   1      -3.635  -0.311 -15.789 -0.14 -0.01    +0.109 A 
DOCKED: ATOM     18  C   UNL d   1      -9.943  -0.352 -16.630 -0.21 -0.03    +0.050 C 
DOCKED: ATOM     19  C   UNL d   1      -9.521  -1.624 -17.094 -0.19 -0.02    +0.045 A 
DOCKED: ATOM     20  C   UNL d   1      -3.812  -1.977 -17.560 -0.25 -0.00    +0.045 A 
DOCKED: ATOM     21  C   UNL d   1      -3.038  -1.196 -16.800 -0.08 -0.00    +0.057 C 
DOCKED: ATOM     22  C   UNL d   1      -4.425  -3.484 -19.164 -0.28 +0.00    -0.019 A 
DOCKED: ATOM     23  C   UNL d   1      -5.636  -3.026 -18.454 -0.25 -0.01    +0.045 A 
DOCKED: ATOM     24  C   UNL d   1      -3.348  -2.861 -18.629 -0.26 +0.00    -0.022 A 
DOCKED: ATOM     25  C   UNL d   1      -8.072  -3.082 -18.040 -0.20 -0.01    +0.049 A 
DOCKED: ATOM     26  C   UNL d   1     -10.196  -2.826 -17.243 -0.19 +0.01    -0.018 A 
DOCKED: ATOM     27  C   UNL d   1      -9.271  -3.748 -17.823 -0.21 -0.00    +0.003 A 
DOCKED: ATOM     28  C   UNL d   1      -6.879  -3.458 -18.715 -0.26 -0.01    +0.052 C 
DOCKED: ATOM     29  C   UNL d   1      -1.911  -3.001 -18.998 -0.27 -0.01    +0.046 C 
DOCKED: ATOM     30  C   UNL d   1     -11.612  -3.104 -16.870 -0.16 -0.03    +0.046 C 
DOCKED: ATOM     31  H   UNL d   1      -5.736  -1.685 -16.809 +0.07 -0.01    +0.166 HD
DOCKED: ATOM     32  H   UNL d   1      -7.539  -1.070 -17.572 +0.05 -0.03    +0.166 HD
DOCKED: ENDROOT
DOCKED: BRANCH   7  33
DOCKED: ATOM     33  C   UNL d   1     -10.885   1.701 -14.437 +0.01 -0.13    +0.141 C 
DOCKED: BRANCH  33  34
DOCKED: ATOM     34  C   UNL d   1     -11.857   2.849 -14.487 -0.13 -0.12    +0.306 C 
DOCKED: ATOM     35  O   UNL d   1     -12.970   2.829 -14.983 -0.06 +0.08    -0.251 OA
DOCKED: BRANCH  34  36
DOCKED: ATOM     36  O   UNL d   1     -11.374   3.962 -13.906 -0.09 +0.11    -0.481 OA
DOCKED: ATOM     37  H   UNL d   1     -10.402   3.833 -13.895 +0.08 -0.06    +0.295 HD
DOCKED: ENDBRANCH  34  36
DOCKED: ENDBRANCH  33  34
DOCKED: ENDBRANCH   7  33
DOCKED: BRANCH  27  38
DOCKED: ATOM     38  C   UNL d   1      -9.563  -5.108 -18.161 -0.25 -0.01    +0.017 C 
DOCKED: ATOM     39  C   UNL d   1      -8.713  -6.138 -18.033 -0.26 -0.04    +0.092 C 
DOCKED: BRANCH  39  40
DOCKED: ATOM     40  C   UNL d   1      -9.144  -7.490 -18.400 -0.09 -0.22    +0.330 C 
DOCKED: ATOM     41  O   UNL d   1      -8.593  -8.542 -18.138 -0.85 +0.09    -0.246 OA
DOCKED: BRANCH  40  42
DOCKED: ATOM     42  O   UNL d   1     -10.291  -7.437 -19.093 -0.04 +0.38    -0.477 OA
DOCKED: ATOM     43  H   UNL d   1     -10.017  -7.615 -20.016 -0.48 -0.54    +0.295 HD
DOCKED: ENDBRANCH  40  42
DOCKED: ENDBRANCH  39  40
DOCKED: ENDBRANCH  27  38
DOCKED: BRANCH   8  44
DOCKED: ATOM     44  C   UNL d   1      -3.180   2.677 -13.953 -0.13 +0.01    +0.141 C 
DOCKED: BRANCH  44  45
DOCKED: ATOM     45  C   UNL d   1      -2.220   3.027 -12.847 -0.12 +0.02    +0.306 C 
DOCKED: ATOM     46  O   UNL d   1      -2.471   3.674 -11.845 -0.18 -0.03    -0.251 OA
DOCKED: BRANCH  45  47
DOCKED: ATOM     47  O   UNL d   1      -0.979   2.563 -13.076 -0.14 -0.00    -0.481 OA
DOCKED: ATOM     48  H   UNL d   1      -1.045   2.091 -13.934 +0.12 -0.01    +0.295 HD
DOCKED: ENDBRANCH  45  47
DOCKED: ENDBRANCH  44  45
DOCKED: ENDBRANCH   8  44
DOCKED: BRANCH  22  49
DOCKED: ATOM     49  C   UNL d   1      -4.434  -4.468 -20.297 -0.14 -0.02    +0.048 C 
DOCKED: BRANCH  49  50
DOCKED: ATOM     50  C   UNL d   1      -5.192  -3.931 -21.510 -0.17 -0.05    +0.125 C 
DOCKED: BRANCH  50  51
DOCKED: ATOM     51  C   UNL d   1      -4.624  -4.484 -22.786 -0.10 -0.13    +0.305 C 
DOCKED: ATOM     52  O   UNL d   1      -3.919  -3.908 -23.596 -0.03 +0.06    -0.251 OA
DOCKED: BRANCH  51  53
DOCKED: ATOM     53  O   UNL d   1      -4.991  -5.765 -22.989 -0.12 +0.41    -0.481 OA
DOCKED: ATOM     54  H   UNL d   1      -5.970  -5.729 -23.022 -0.26 -0.47    +0.295 HD
DOCKED: ENDBRANCH  51  53
DOCKED: ENDBRANCH  50  51
DOCKED: ENDBRANCH  49  50
DOCKED: ENDBRANCH  22  49
DOCKED: TORSDOF 13
DOCKED: TER
DOCKED: ENDMDL
________________________________________________________________________________


	BEGINNING GENETIC ALGORITHM DOCKING 93 of 100
Run: 93 Seed: 1286501564 275329963 [ Run 93 of 100 GA/GALS ]
Beginning LAMARCKIAN GENETIC ALGORITHM (LGA), with a maximum of 25000000 energy evaluations.

Final-Value: -12.314


	FINAL GENETIC ALGORITHM DOCKED STATE
	_______________________________________________


Detailed state:  trans -11.362 -14.982 2.162 quatxyzw -0.297277 -0.640159 -0.410525 -0.577315 center 0.153 0.018 -0.028 ntor 13 150.1440 122.5484 -122.8963 63.0858 -148.9188 -25.4531 123.1376 55.1319 4.6021 -20.5340 -98.7762 13.7990 -2.2405
State:	-11.362 -14.982   2.162  -0.364 -0.784 -0.503 -109.476    150.14  122.55 -122.90   63.09 -148.92  -25.45  123.14   55.13    4.60  -20.53  -98.78   13.80   -2.24

DOCKED: MODEL       93
DOCKED: USER    Run = 93
DOCKED: USER    DPF = D:/Protein_go_brrr/autodock/final/AncA/heme/dock.dpf
DOCKED: USER  
DOCKED: USER    Estimated Free Energy of Binding    =   -3.64 kcal/mol  [=(1)+(2)+(3)-(4)]
DOCKED: USER    Estimated Inhibition Constant, Ki   =    2.15 mM (millimolar)  [Temperature = 298.15 K]
DOCKED: USER    
DOCKED: USER    (1) Final Intermolecular Energy     =   -7.52 kcal/mol
DOCKED: USER        vdW + Hbond + desolv Energy     =   -7.06 kcal/mol
DOCKED: USER        Electrostatic Energy            =   -0.46 kcal/mol
DOCKED: USER    (2) Final Total Internal Energy     =   -4.80 kcal/mol
DOCKED: USER    (3) Torsional Free Energy           =   +3.88 kcal/mol
DOCKED: USER    (4) Unbound System's Energy  [=(2)] =   -4.80 kcal/mol
DOCKED: USER    
DOCKED: USER    
DOCKED: USER    NEWDPF move heme_opt.pdbqt
DOCKED: USER    NEWDPF about 0.153000 0.018000 -0.028000
DOCKED: USER    NEWDPF tran0 -11.362173 -14.981825 2.162313
DOCKED: USER    NEWDPF quaternion0 -0.297277 -0.640159 -0.410525 -0.577315
DOCKED: USER    NEWDPF axisangle0 -0.364078 -0.784007 -0.502773 -109.476199
DOCKED: USER    NEWDPF quat0 -0.364078 -0.784007 -0.502773 -109.476199
DOCKED: USER    NEWDPF dihe0 150.14 122.55 -122.90 63.09 -148.92 -25.45 123.14 55.13 4.60 -20.53 -98.78 13.80 -2.24 
DOCKED: USER  keepresnum = 1 
DOCKED: USER  
DOCKED: REMARK  13 active torsions:
DOCKED: REMARK  status: ('A' for Active; 'I' for Inactive)
DOCKED: REMARK    1  A    between atoms: O_3  and  C_38 
DOCKED: REMARK    2  A    between atoms: O_4  and  C_40 
DOCKED: REMARK    3  A    between atoms: O_7  and  C_46 
DOCKED: REMARK    4  A    between atoms: O_9  and  C_48 
DOCKED: REMARK    5  A    between atoms: C_15  and  C_20 
DOCKED: REMARK    6  A    between atoms: C_16  and  C_23 
DOCKED: REMARK    7  A    between atoms: C_20  and  C_38 
DOCKED: REMARK    8  A    between atoms: C_23  and  C_40 
DOCKED: REMARK    9  A    between atoms: C_32  and  C_41 
DOCKED: REMARK   10  A    between atoms: C_37  and  C_45 
DOCKED: REMARK   11  A    between atoms: C_41  and  C_44 
DOCKED: REMARK   12  A    between atoms: C_44  and  C_46 
DOCKED: REMARK   13  A    between atoms: C_47  and  C_48 
DOCKED: USER                              x       y       z     vdW  Elec       q    Type
DOCKED: USER                           _______ _______ _______ _____ _____    ______ ____
DOCKED: ROOT
DOCKED: ATOM      1  O   UNL d   1      -9.360 -13.074  -3.044 +0.08 -0.16    -0.289 OA
DOCKED: ATOM      2  O   UNL d   1     -14.306 -18.462  -1.340 -0.01 -0.06    -0.289 OA
DOCKED: ATOM      3  N   UNL d   1     -10.132 -13.942   0.203 -0.32 -0.14    -0.247 NA
DOCKED: ATOM      4  N   UNL d   1     -12.347 -15.896  -0.120 -0.09 -0.06    -0.247 NA
DOCKED: ATOM      5  N   UNL d   1     -12.874 -15.622   2.693 -0.07 -0.09    -0.354 N 
DOCKED: ATOM      6  N   UNL d   1     -10.587 -13.581   3.016 -0.02 -0.17    -0.354 N 
DOCKED: ATOM      7  C   UNL d   1      -8.779 -12.185  -0.842 -0.24 +0.05    +0.084 A 
DOCKED: ATOM      8  C   UNL d   1     -12.440 -17.143  -2.219 -0.02 +0.02    +0.084 A 
DOCKED: ATOM      9  C   UNL d   1     -11.795 -16.041  -1.373 -0.09 +0.02    +0.058 A 
DOCKED: ATOM     10  C   UNL d   1      -9.325 -12.840   0.431 -0.25 +0.04    +0.058 A 
DOCKED: ATOM     11  C   UNL d   1      -9.406 -13.124  -1.829 -0.13 +0.11    +0.193 A 
DOCKED: ATOM     12  C   UNL d   1     -10.179 -14.159  -1.071 -0.12 +0.05    +0.109 A 
DOCKED: ATOM     13  C   UNL d   1     -13.486 -17.571  -1.228 -0.02 +0.04    +0.193 A 
DOCKED: ATOM     14  C   UNL d   1      -9.354 -10.783  -1.059 -0.38 +0.01    +0.026 C 
DOCKED: ATOM     15  C   UNL d   1     -10.811 -15.253  -1.835 -0.12 +0.02    +0.055 C 
DOCKED: ATOM     16  C   UNL d   1     -11.480 -18.312  -2.458 -0.01 +0.01    +0.026 C 
DOCKED: ATOM     17  C   UNL d   1     -13.327 -16.733  -0.001 -0.09 +0.02    +0.109 A 
DOCKED: ATOM     18  C   UNL d   1      -8.958 -12.412   1.653 -0.34 +0.04    +0.050 C 
DOCKED: ATOM     19  C   UNL d   1      -9.344 -13.006   2.882 -0.22 +0.03    +0.045 A 
DOCKED: ATOM     20  C   UNL d   1     -13.977 -16.344   2.316 -0.14 +0.01    +0.045 A 
DOCKED: ATOM     21  C   UNL d   1     -14.249 -16.901   1.132 -0.12 +0.01    +0.057 C 
DOCKED: ATOM     22  C   UNL d   1     -14.217 -15.717   4.500 -0.22 -0.00    -0.019 A 
DOCKED: ATOM     23  C   UNL d   1     -12.929 -15.201   3.995 -0.25 +0.01    +0.045 A 
DOCKED: ATOM     24  C   UNL d   1     -14.832 -16.394   3.501 -0.16 -0.00    -0.022 A 
DOCKED: ATOM     25  C   UNL d   1     -10.784 -14.012   4.307 -0.27 +0.02    +0.049 A 
DOCKED: ATOM     26  C   UNL d   1      -8.702 -13.098   4.108 -0.35 -0.01    -0.018 A 
DOCKED: ATOM     27  C   UNL d   1      -9.609 -13.752   4.999 -0.30 +0.00    +0.003 A 
DOCKED: ATOM     28  C   UNL d   1     -12.051 -14.499   4.729 -0.13 +0.02    +0.052 C 
DOCKED: ATOM     29  C   UNL d   1     -16.143 -17.103   3.525 -0.10 +0.01    +0.046 C 
DOCKED: ATOM     30  C   UNL d   1      -7.331 -12.611   4.433 -0.49 +0.05    +0.046 C 
DOCKED: ATOM     31  H   UNL d   1     -12.084 -15.504   2.069 +0.04 +0.05    +0.166 HD
DOCKED: ATOM     32  H   UNL d   1     -11.264 -13.633   2.264 +0.06 +0.07    +0.166 HD
DOCKED: ENDROOT
DOCKED: BRANCH   7  33
DOCKED: ATOM     33  C   UNL d   1      -7.253 -12.196  -0.985 -0.18 +0.13    +0.141 C 
DOCKED: BRANCH  33  34
DOCKED: ATOM     34  C   UNL d   1      -6.665 -13.570  -0.814 -0.15 +0.45    +0.306 C 
DOCKED: ATOM     35  O   UNL d   1      -6.219 -14.040   0.219 -0.48 -0.48    -0.251 OA
DOCKED: BRANCH  34  36
DOCKED: ATOM     36  O   UNL d   1      -6.673 -14.283  -1.955 -0.34 -1.01    -0.481 OA
DOCKED: ATOM     37  H   UNL d   1      -7.477 -13.980  -2.429 +0.09 +0.41    +0.295 HD
DOCKED: ENDBRANCH  34  36
DOCKED: ENDBRANCH  33  34
DOCKED: ENDBRANCH   7  33
DOCKED: BRANCH  27  38
DOCKED: ATOM     38  C   UNL d   1      -9.349 -14.036   6.378 -0.31 +0.01    +0.017 C 
DOCKED: ATOM     39  C   UNL d   1      -9.512 -15.230   6.966 -0.13 +0.04    +0.092 C 
DOCKED: BRANCH  39  40
DOCKED: ATOM     40  C   UNL d   1      -9.193 -15.394   8.387 -0.05 +0.10    +0.330 C 
DOCKED: ATOM     41  O   UNL d   1      -8.388 -14.763   9.046 -0.12 -0.07    -0.246 OA
DOCKED: BRANCH  40  42
DOCKED: ATOM     42  O   UNL d   1      -9.941 -16.373   8.919 +0.01 -0.11    -0.477 OA
DOCKED: ATOM     43  H   UNL d   1     -10.861 -16.084   8.747 +0.05 +0.07    +0.295 HD
DOCKED: ENDBRANCH  40  42
DOCKED: ENDBRANCH  39  40
DOCKED: ENDBRANCH  27  38
DOCKED: BRANCH   8  44
DOCKED: ATOM     44  C   UNL d   1     -13.084 -16.678  -3.529 -0.03 +0.03    +0.141 C 
DOCKED: BRANCH  44  45
DOCKED: ATOM     45  C   UNL d   1     -14.338 -15.871  -3.322 -0.03 +0.05    +0.306 C 
DOCKED: ATOM     46  O   UNL d   1     -14.401 -14.695  -3.008 -0.12 -0.03    -0.251 OA
DOCKED: BRANCH  45  47
DOCKED: ATOM     47  O   UNL d   1     -15.454 -16.601  -3.495 +0.01 -0.08    -0.481 OA
DOCKED: ATOM     48  H   UNL d   1     -15.361 -17.349  -2.867 +0.02 +0.05    +0.295 HD
DOCKED: ENDBRANCH  45  47
DOCKED: ENDBRANCH  44  45
DOCKED: ENDBRANCH   8  44
DOCKED: BRANCH  22  49
DOCKED: ATOM     49  C   UNL d   1     -14.728 -15.491   5.892 -0.09 +0.01    +0.048 C 
DOCKED: BRANCH  49  50
DOCKED: ATOM     50  C   UNL d   1     -14.192 -16.534   6.872 -0.09 +0.02    +0.125 C 
DOCKED: BRANCH  50  51
DOCKED: ATOM     51  C   UNL d   1     -12.812 -16.171   7.341 -0.06 +0.07    +0.305 C 
DOCKED: ATOM     52  O   UNL d   1     -12.432 -15.095   7.768 -0.21 -0.08    -0.251 OA
DOCKED: BRANCH  51  53
DOCKED: ATOM     53  O   UNL d   1     -11.955 -17.206   7.234 +0.00 -0.11    -0.481 OA
DOCKED: ATOM     54  H   UNL d   1     -11.684 -17.387   8.158 +0.02 +0.06    +0.295 HD
DOCKED: ENDBRANCH  51  53
DOCKED: ENDBRANCH  50  51
DOCKED: ENDBRANCH  49  50
DOCKED: ENDBRANCH  22  49
DOCKED: TORSDOF 13
DOCKED: TER
DOCKED: ENDMDL
________________________________________________________________________________


	BEGINNING GENETIC ALGORITHM DOCKING 94 of 100
Run: 94 Seed: 1467507271 538803833 [ Run 94 of 100 GA/GALS ]
Beginning LAMARCKIAN GENETIC ALGORITHM (LGA), with a maximum of 25000000 energy evaluations.

Final-Value: -10.826


	FINAL GENETIC ALGORITHM DOCKED STATE
	_______________________________________________


Detailed state:  trans -16.177 9.413 -1.581 quatxyzw -0.393320 0.533680 -0.741959 0.099908 center 0.153 0.018 -0.028 ntor 13 -179.8966 167.3781 -24.7917 50.9329 -154.7431 -60.0316 -34.1135 40.6122 8.9253 20.6176 -86.5882 8.8198 -4.4335
State:	-16.177   9.413  -1.581  -0.395  0.536 -0.746 168.532   -179.90  167.38  -24.79   50.93 -154.74  -60.03  -34.11   40.61    8.93   20.62  -86.59    8.82   -4.43

DOCKED: MODEL       94
DOCKED: USER    Run = 94
DOCKED: USER    DPF = D:/Protein_go_brrr/autodock/final/AncA/heme/dock.dpf
DOCKED: USER  
DOCKED: USER    Estimated Free Energy of Binding    =   -2.74 kcal/mol  [=(1)+(2)+(3)-(4)]
DOCKED: USER    Estimated Inhibition Constant, Ki   =    9.80 mM (millimolar)  [Temperature = 298.15 K]
DOCKED: USER    
DOCKED: USER    (1) Final Intermolecular Energy     =   -6.62 kcal/mol
DOCKED: USER        vdW + Hbond + desolv Energy     =   -6.49 kcal/mol
DOCKED: USER        Electrostatic Energy            =   -0.13 kcal/mol
DOCKED: USER    (2) Final Total Internal Energy     =   -4.21 kcal/mol
DOCKED: USER    (3) Torsional Free Energy           =   +3.88 kcal/mol
DOCKED: USER    (4) Unbound System's Energy  [=(2)] =   -4.21 kcal/mol
DOCKED: USER    
DOCKED: USER    
DOCKED: USER    NEWDPF move heme_opt.pdbqt
DOCKED: USER    NEWDPF about 0.153000 0.018000 -0.028000
DOCKED: USER    NEWDPF tran0 -16.177380 9.412762 -1.581255
DOCKED: USER    NEWDPF quaternion0 -0.393320 0.533680 -0.741959 0.099908
DOCKED: USER    NEWDPF axisangle0 -0.395298 0.536363 -0.745690 168.532276
DOCKED: USER    NEWDPF quat0 -0.395298 0.536363 -0.745690 168.532276
DOCKED: USER    NEWDPF dihe0 -179.90 167.38 -24.79 50.93 -154.74 -60.03 -34.11 40.61 8.93 20.62 -86.59 8.82 -4.43 
DOCKED: USER  keepresnum = 1 
DOCKED: USER  
DOCKED: REMARK  13 active torsions:
DOCKED: REMARK  status: ('A' for Active; 'I' for Inactive)
DOCKED: REMARK    1  A    between atoms: O_3  and  C_38 
DOCKED: REMARK    2  A    between atoms: O_4  and  C_40 
DOCKED: REMARK    3  A    between atoms: O_7  and  C_46 
DOCKED: REMARK    4  A    between atoms: O_9  and  C_48 
DOCKED: REMARK    5  A    between atoms: C_15  and  C_20 
DOCKED: REMARK    6  A    between atoms: C_16  and  C_23 
DOCKED: REMARK    7  A    between atoms: C_20  and  C_38 
DOCKED: REMARK    8  A    between atoms: C_23  and  C_40 
DOCKED: REMARK    9  A    between atoms: C_32  and  C_41 
DOCKED: REMARK   10  A    between atoms: C_37  and  C_45 
DOCKED: REMARK   11  A    between atoms: C_41  and  C_44 
DOCKED: REMARK   12  A    between atoms: C_44  and  C_46 
DOCKED: REMARK   13  A    between atoms: C_47  and  C_48 
DOCKED: USER                              x       y       z     vdW  Elec       q    Type
DOCKED: USER                           _______ _______ _______ _____ _____    ______ ____
DOCKED: ROOT
DOCKED: ATOM      1  O   UNL d   1     -13.065   9.679  -6.581 -0.08 +0.00    -0.289 OA
DOCKED: ATOM      2  O   UNL d   1     -12.396  13.498  -0.150 -0.01 -0.00    -0.289 OA
DOCKED: ATOM      3  N   UNL d   1     -15.236   9.272  -3.932 -0.14 +0.02    -0.247 NA
DOCKED: ATOM      4  N   UNL d   1     -14.017  10.930  -1.789 -0.12 +0.01    -0.247 NA
DOCKED: ATOM      5  N   UNL d   1     -15.778   9.640   0.083 -0.12 +0.04    -0.354 N 
DOCKED: ATOM      6  N   UNL d   1     -17.024   7.910  -2.144 -0.12 +0.04    -0.354 N 
DOCKED: ATOM      7  C   UNL d   1     -14.921   8.164  -6.096 -0.18 +0.00    +0.084 A 
DOCKED: ATOM      8  C   UNL d   1     -12.612  12.803  -2.487 -0.05 -0.00    +0.084 A 
DOCKED: ATOM      9  C   UNL d   1     -13.433  11.565  -2.862 -0.12 -0.00    +0.058 A 
DOCKED: ATOM     10  C   UNL d   1     -15.685   8.267  -4.773 -0.24 -0.00    +0.058 A 
DOCKED: ATOM     11  C   UNL d   1     -13.972   9.301  -5.863 -0.10 +0.00    +0.193 A 
DOCKED: ATOM     12  C   UNL d   1     -14.281   9.908  -4.529 -0.14 -0.00    +0.109 A 
DOCKED: ATOM     13  C   UNL d   1     -12.807  12.731  -0.999 -0.04 +0.00    +0.193 A 
DOCKED: ATOM     14  C   UNL d   1     -14.120   6.864  -6.197 -0.25 +0.00    +0.026 C 
DOCKED: ATOM     15  C   UNL d   1     -13.529  11.112  -4.121 -0.13 -0.00    +0.055 C 
DOCKED: ATOM     16  C   UNL d   1     -13.257  14.091  -3.007 -0.02 +0.00    +0.026 C 
DOCKED: ATOM     17  C   UNL d   1     -13.671  11.548  -0.705 -0.11 -0.00    +0.109 A 
DOCKED: ATOM     18  C   UNL d   1     -16.756   7.492  -4.517 -0.30 -0.00    +0.050 C 
DOCKED: ATOM     19  C   UNL d   1     -17.573   7.574  -3.361 -0.24 -0.00    +0.045 A 
DOCKED: ATOM     20  C   UNL d   1     -14.956  10.306   0.954 -0.22 -0.00    +0.045 A 
DOCKED: ATOM     21  C   UNL d   1     -13.998  11.200   0.685 -0.17 +0.00    +0.057 C 
DOCKED: ATOM     22  C   UNL d   1     -16.344   8.940   2.147 -0.26 +0.00    -0.019 A 
DOCKED: ATOM     23  C   UNL d   1     -16.651   8.792   0.710 -0.27 -0.01    +0.045 A 
DOCKED: ATOM     24  C   UNL d   1     -15.341   9.839   2.285 -0.25 +0.00    -0.022 A 
DOCKED: ATOM     25  C   UNL d   1     -17.972   7.841  -1.150 -0.14 +0.00    +0.049 A 
DOCKED: ATOM     26  C   UNL d   1     -18.920   7.315  -3.159 -0.17 -0.00    -0.018 A 
DOCKED: ATOM     27  C   UNL d   1     -19.171   7.505  -1.764 -0.15 +0.00    +0.003 A 
DOCKED: ATOM     28  C   UNL d   1     -17.609   7.993   0.216 -0.29 -0.00    +0.052 C 
DOCKED: ATOM     29  C   UNL d   1     -14.693  10.329   3.535 -0.18 +0.00    +0.046 C 
DOCKED: ATOM     30  C   UNL d   1     -19.916   6.918  -4.195 -0.11 +0.00    +0.046 C 
DOCKED: ATOM     31  H   UNL d   1     -15.766   9.843  -0.911 -0.03 -0.02    +0.166 HD
DOCKED: ATOM     32  H   UNL d   1     -16.044   8.134  -2.014 -0.44 -0.08    +0.166 HD
DOCKED: ENDROOT
DOCKED: BRANCH   7  33
DOCKED: ATOM     33  C   UNL d   1     -15.755   8.411  -7.357 -0.07 +0.00    +0.141 C 
DOCKED: BRANCH  33  34
DOCKED: ATOM     34  C   UNL d   1     -16.442   9.750  -7.346 -0.00 +0.01    +0.306 C 
DOCKED: ATOM     35  O   UNL d   1     -17.611   9.957  -7.070 -0.00 -0.01    -0.251 OA
DOCKED: BRANCH  34  36
DOCKED: ATOM     36  O   UNL d   1     -15.617  10.758  -7.679 +0.01 -0.01    -0.481 OA
DOCKED: ATOM     37  H   UNL d   1     -14.744  10.330  -7.808 +0.03 +0.01    +0.295 HD
DOCKED: ENDBRANCH  34  36
DOCKED: ENDBRANCH  33  34
DOCKED: ENDBRANCH   7  33
DOCKED: BRANCH  27  38
DOCKED: ATOM     38  C   UNL d   1     -20.437   7.325  -1.122 -0.12 +0.00    +0.017 C 
DOCKED: ATOM     39  C   UNL d   1     -20.982   8.170  -0.234 -0.06 +0.01    +0.092 C 
DOCKED: BRANCH  39  40
DOCKED: ATOM     40  C   UNL d   1     -22.298   7.878   0.340 -0.01 +0.04    +0.330 C 
DOCKED: ATOM     41  O   UNL d   1     -23.359   7.778  -0.246 -0.01 -0.02    -0.246 OA
DOCKED: BRANCH  40  42
DOCKED: ATOM     42  O   UNL d   1     -22.197   7.714   1.668 +0.00 -0.06    -0.477 OA
DOCKED: ATOM     43  H   UNL d   1     -21.233   7.636   1.822 +0.03 +0.04    +0.295 HD
DOCKED: ENDBRANCH  40  42
DOCKED: ENDBRANCH  39  40
DOCKED: ENDBRANCH  27  38
DOCKED: BRANCH   8  44
DOCKED: ATOM     44  C   UNL d   1     -11.124  12.743  -2.848 -0.06 -0.01    +0.141 C 
DOCKED: BRANCH  44  45
DOCKED: ATOM     45  C   UNL d   1     -10.569  11.344  -2.853 -0.10 -0.05    +0.306 C 
DOCKED: ATOM     46  O   UNL d   1     -10.252  10.684  -1.879 -0.18 +0.04    -0.251 OA
DOCKED: BRANCH  45  47
DOCKED: ATOM     47  O   UNL d   1     -10.416  10.855  -4.097 -0.02 +0.16    -0.481 OA
DOCKED: ATOM     48  H   UNL d   1      -9.706  10.184  -4.014 -0.44 -0.25    +0.295 HD
DOCKED: ENDBRANCH  45  47
DOCKED: ENDBRANCH  44  45
DOCKED: ENDBRANCH   8  44
DOCKED: BRANCH  22  49
DOCKED: ATOM     49  C   UNL d   1     -17.043   8.186   3.240 -0.11 -0.00    +0.048 C 
DOCKED: BRANCH  49  50
DOCKED: ATOM     50  C   UNL d   1     -18.300   8.913   3.718 -0.10 +0.01    +0.125 C 
DOCKED: BRANCH  50  51
DOCKED: ATOM     51  C   UNL d   1     -19.518   8.408   2.997 -0.04 +0.03    +0.305 C 
DOCKED: ATOM     52  O   UNL d   1     -19.738   7.272   2.614 -0.08 -0.03    -0.251 OA
DOCKED: BRANCH  51  53
DOCKED: ATOM     53  O   UNL d   1     -20.417   9.388   2.779 +0.00 -0.04    -0.481 OA
DOCKED: ATOM     54  H   UNL d   1     -21.261   9.016   3.111 +0.01 +0.03    +0.295 HD
DOCKED: ENDBRANCH  51  53
DOCKED: ENDBRANCH  50  51
DOCKED: ENDBRANCH  49  50
DOCKED: ENDBRANCH  22  49
DOCKED: TORSDOF 13
DOCKED: TER
DOCKED: ENDMDL
________________________________________________________________________________


	BEGINNING GENETIC ALGORITHM DOCKING 95 of 100
Run: 95 Seed: 1869608006 2007004528 [ Run 95 of 100 GA/GALS ]
Beginning LAMARCKIAN GENETIC ALGORITHM (LGA), with a maximum of 25000000 energy evaluations.

Final-Value: -11.943


	FINAL GENETIC ALGORITHM DOCKED STATE
	_______________________________________________


Detailed state:  trans 7.858 -7.458 10.123 quatxyzw 0.026183 -0.666463 -0.695395 -0.267520 center 0.153 0.018 -0.028 ntor 13 156.3538 145.7725 127.8209 18.9828 -143.7254 32.4882 -41.0259 176.1415 13.4584 -140.4367 61.6029 -74.4130 123.9381
State:	  7.858  -7.458  10.123   0.027 -0.692 -0.722 -148.967    156.35  145.77  127.82   18.98 -143.73   32.49  -41.03  176.14   13.46 -140.44   61.60  -74.41  123.94

DOCKED: MODEL       95
DOCKED: USER    Run = 95
DOCKED: USER    DPF = D:/Protein_go_brrr/autodock/final/AncA/heme/dock.dpf
DOCKED: USER  
DOCKED: USER    Estimated Free Energy of Binding    =   -3.74 kcal/mol  [=(1)+(2)+(3)-(4)]
DOCKED: USER    Estimated Inhibition Constant, Ki   =    1.81 mM (millimolar)  [Temperature = 298.15 K]
DOCKED: USER    
DOCKED: USER    (1) Final Intermolecular Energy     =   -7.62 kcal/mol
DOCKED: USER        vdW + Hbond + desolv Energy     =   -7.41 kcal/mol
DOCKED: USER        Electrostatic Energy            =   -0.20 kcal/mol
DOCKED: USER    (2) Final Total Internal Energy     =   -4.32 kcal/mol
DOCKED: USER    (3) Torsional Free Energy           =   +3.88 kcal/mol
DOCKED: USER    (4) Unbound System's Energy  [=(2)] =   -4.32 kcal/mol
DOCKED: USER    
DOCKED: USER    
DOCKED: USER    NEWDPF move heme_opt.pdbqt
DOCKED: USER    NEWDPF about 0.153000 0.018000 -0.028000
DOCKED: USER    NEWDPF tran0 7.857510 -7.457901 10.122971
DOCKED: USER    NEWDPF quaternion0 0.026183 -0.666463 -0.695395 -0.267520
DOCKED: USER    NEWDPF axisangle0 0.027174 -0.691673 -0.721699 -148.966529
DOCKED: USER    NEWDPF quat0 0.027174 -0.691673 -0.721699 -148.966529
DOCKED: USER    NEWDPF dihe0 156.35 145.77 127.82 18.98 -143.73 32.49 -41.03 176.14 13.46 -140.44 61.60 -74.41 123.94 
DOCKED: USER  keepresnum = 1 
DOCKED: USER  
DOCKED: REMARK  13 active torsions:
DOCKED: REMARK  status: ('A' for Active; 'I' for Inactive)
DOCKED: REMARK    1  A    between atoms: O_3  and  C_38 
DOCKED: REMARK    2  A    between atoms: O_4  and  C_40 
DOCKED: REMARK    3  A    between atoms: O_7  and  C_46 
DOCKED: REMARK    4  A    between atoms: O_9  and  C_48 
DOCKED: REMARK    5  A    between atoms: C_15  and  C_20 
DOCKED: REMARK    6  A    between atoms: C_16  and  C_23 
DOCKED: REMARK    7  A    between atoms: C_20  and  C_38 
DOCKED: REMARK    8  A    between atoms: C_23  and  C_40 
DOCKED: REMARK    9  A    between atoms: C_32  and  C_41 
DOCKED: REMARK   10  A    between atoms: C_37  and  C_45 
DOCKED: REMARK   11  A    between atoms: C_41  and  C_44 
DOCKED: REMARK   12  A    between atoms: C_44  and  C_46 
DOCKED: REMARK   13  A    between atoms: C_47  and  C_48 
DOCKED: USER                              x       y       z     vdW  Elec       q    Type
DOCKED: USER                           _______ _______ _______ _____ _____    ______ ____
DOCKED: ROOT
DOCKED: ATOM      1  O   UNL d   1      12.972  -4.530   9.987 -0.06 -0.02    -0.289 OA
DOCKED: ATOM      2  O   UNL d   1       9.117  -7.971   4.538 -0.15 -0.13    -0.289 OA
DOCKED: ATOM      3  N   UNL d   1      10.045  -6.256  10.574 -0.15 -0.01    -0.247 NA
DOCKED: ATOM      4  N   UNL d   1       9.122  -6.983   7.845 -0.11 -0.04    -0.247 NA
DOCKED: ATOM      5  N   UNL d   1       6.573  -7.662   8.989 -0.05 +0.01    -0.354 N 
DOCKED: ATOM      6  N   UNL d   1       7.532  -6.886  11.814 -0.12 +0.04    -0.354 N 
DOCKED: ATOM      7  C   UNL d   1      11.524  -4.849  11.930 -0.13 +0.00    +0.084 A 
DOCKED: ATOM      8  C   UNL d   1      10.826  -7.184   6.105 -0.14 +0.03    +0.084 A 
DOCKED: ATOM      9  C   UNL d   1      10.455  -6.816   7.546 -0.11 +0.01    +0.058 A 
DOCKED: ATOM     10  C   UNL d   1      10.258  -5.704  11.826 -0.18 +0.00    +0.058 A 
DOCKED: ATOM     11  C   UNL d   1      12.000  -5.031  10.520 -0.10 +0.01    +0.193 A 
DOCKED: ATOM     12  C   UNL d   1      11.032  -5.925   9.808 -0.13 +0.01    +0.109 A 
DOCKED: ATOM     13  C   UNL d   1       9.449  -7.557   5.632 -0.13 +0.06    +0.193 A 
DOCKED: ATOM     14  C   UNL d   1      11.202  -3.370  12.157 -0.19 +0.00    +0.026 C 
DOCKED: ATOM     15  C   UNL d   1      11.346  -6.323   8.421 -0.10 +0.01    +0.055 C 
DOCKED: ATOM     16  C   UNL d   1      11.719  -8.428   6.049 -0.07 +0.01    +0.026 C 
DOCKED: ATOM     17  C   UNL d   1       8.507  -7.385   6.779 -0.18 +0.02    +0.109 A 
DOCKED: ATOM     18  C   UNL d   1       9.487  -5.952  12.901 -0.16 +0.00    +0.050 C 
DOCKED: ATOM     19  C   UNL d   1       8.347  -6.796  12.919 -0.17 -0.00    +0.045 A 
DOCKED: ATOM     20  C   UNL d   1       6.258  -7.726   7.656 -0.23 +0.01    +0.045 A 
DOCKED: ATOM     21  C   UNL d   1       7.070  -7.636   6.598 -0.27 +0.01    +0.057 C 
DOCKED: ATOM     22  C   UNL d   1       4.343  -7.963   8.879 -0.32 -0.00    -0.019 A 
DOCKED: ATOM     23  C   UNL d   1       5.481  -7.794   9.805 -0.23 +0.00    +0.045 A 
DOCKED: ATOM     24  C   UNL d   1       4.809  -7.923   7.609 -0.23 -0.01    -0.022 A 
DOCKED: ATOM     25  C   UNL d   1       6.444  -7.685  12.079 -0.17 -0.00    +0.049 A 
DOCKED: ATOM     26  C   UNL d   1       7.795  -7.585  13.916 -0.10 +0.00    -0.018 A 
DOCKED: ATOM     27  C   UNL d   1       6.604  -8.159  13.374 -0.10 -0.00    +0.003 A 
DOCKED: ATOM     28  C   UNL d   1       5.381  -7.804  11.143 -0.25 -0.00    +0.052 C 
DOCKED: ATOM     29  C   UNL d   1       4.051  -8.059   6.332 -0.45 +0.01    +0.046 C 
DOCKED: ATOM     30  C   UNL d   1       8.338  -7.796  15.289 -0.04 +0.00    +0.046 C 
DOCKED: ATOM     31  H   UNL d   1       7.536  -7.603   9.299 -0.08 -0.01    +0.166 HD
DOCKED: ATOM     32  H   UNL d   1       7.706  -6.391  10.947 -0.38 -0.05    +0.166 HD
DOCKED: ENDROOT
DOCKED: BRANCH   7  33
DOCKED: ATOM     33  C   UNL d   1      12.578  -5.353  12.923 -0.04 +0.01    +0.141 C 
DOCKED: BRANCH  33  34
DOCKED: ATOM     34  C   UNL d   1      13.097  -6.721  12.571 -0.00 +0.02    +0.306 C 
DOCKED: ATOM     35  O   UNL d   1      12.631  -7.786  12.940 -0.01 -0.02    -0.251 OA
DOCKED: BRANCH  34  36
DOCKED: ATOM     36  O   UNL d   1      14.175  -6.675  11.768 +0.00 -0.04    -0.481 OA
DOCKED: ATOM     37  H   UNL d   1      14.090  -5.824  11.289 +0.02 +0.03    +0.295 HD
DOCKED: ENDBRANCH  34  36
DOCKED: ENDBRANCH  33  34
DOCKED: ENDBRANCH   7  33
DOCKED: BRANCH  27  38
DOCKED: ATOM     38  C   UNL d   1       5.714  -9.033  14.078 -0.04 +0.00    +0.017 C 
DOCKED: ATOM     39  C   UNL d   1       4.377  -9.028  13.968 -0.04 +0.00    +0.092 C 
DOCKED: BRANCH  39  40
DOCKED: ATOM     40  C   UNL d   1       3.578  -9.990  14.734 +0.01 +0.03    +0.330 C 
DOCKED: ATOM     41  O   UNL d   1       3.838 -10.475  15.818 +0.00 -0.02    -0.246 OA
DOCKED: BRANCH  40  42
DOCKED: ATOM     42  O   UNL d   1       2.452 -10.288  14.068 -0.00 -0.08    -0.477 OA
DOCKED: ATOM     43  H   UNL d   1       2.217  -9.451  13.617 +0.08 -0.00    +0.295 HD
DOCKED: ENDBRANCH  40  42
DOCKED: ENDBRANCH  39  40
DOCKED: ENDBRANCH  27  38
DOCKED: BRANCH   8  44
DOCKED: ATOM     44  C   UNL d   1      11.407  -6.046   5.261 -0.16 +0.05    +0.141 C 
DOCKED: BRANCH  44  45
DOCKED: ATOM     45  C   UNL d   1      11.974  -6.511   3.946 -0.14 +0.17    +0.306 C 
DOCKED: ATOM     46  O   UNL d   1      13.096  -6.944   3.750 -0.15 -0.13    -0.251 OA
DOCKED: BRANCH  45  47
DOCKED: ATOM     47  O   UNL d   1      11.098  -6.378   2.932 -0.54 -0.30    -0.481 OA
DOCKED: ATOM     48  H   UNL d   1      10.289  -6.839   3.242 +0.16 +0.18    +0.295 HD
DOCKED: ENDBRANCH  45  47
DOCKED: ENDBRANCH  44  45
DOCKED: ENDBRANCH   8  44
DOCKED: BRANCH  22  49
DOCKED: ATOM     49  C   UNL d   1       2.918  -8.131   9.318 -0.42 +0.02    +0.048 C 
DOCKED: BRANCH  49  50
DOCKED: ATOM     50  C   UNL d   1       2.572  -7.215  10.492 -0.14 +0.00    +0.125 C 
DOCKED: BRANCH  50  51
DOCKED: ATOM     51  C   UNL d   1       2.196  -8.016  11.705 -0.18 -0.04    +0.305 C 
DOCKED: ATOM     52  O   UNL d   1       2.032  -7.611  12.842 -0.23 +0.13    -0.251 OA
DOCKED: BRANCH  51  53
DOCKED: ATOM     53  O   UNL d   1       2.052  -9.326  11.420 -0.38 -0.29    -0.481 OA
DOCKED: ATOM     54  H   UNL d   1       1.529  -9.677  12.171 +0.07 +0.10    +0.295 HD
DOCKED: ENDBRANCH  51  53
DOCKED: ENDBRANCH  50  51
DOCKED: ENDBRANCH  49  50
DOCKED: ENDBRANCH  22  49
DOCKED: TORSDOF 13
DOCKED: TER
DOCKED: ENDMDL
________________________________________________________________________________


	BEGINNING GENETIC ALGORITHM DOCKING 96 of 100
Run: 96 Seed: 214103708 1107393040 [ Run 96 of 100 GA/GALS ]
Beginning LAMARCKIAN GENETIC ALGORITHM (LGA), with a maximum of 25000000 energy evaluations.

Final-Value: -10.485


	FINAL GENETIC ALGORITHM DOCKED STATE
	_______________________________________________


Detailed state:  trans -15.112 9.426 -0.060 quatxyzw 0.246669 0.595103 0.460751 0.610504 center 0.153 0.018 -0.028 ntor 13 -6.6428 -7.9091 -114.2793 141.3246 -131.8137 -180.0000 120.7506 -43.5111 2.9525 -28.3643 108.3481 62.5502 -8.1300
State:	-15.112   9.426  -0.060   0.311  0.751  0.582 104.748     -6.64   -7.91 -114.28  141.32 -131.81 -180.00  120.75  -43.51    2.95  -28.36  108.35   62.55   -8.13

DOCKED: MODEL       96
DOCKED: USER    Run = 96
DOCKED: USER    DPF = D:/Protein_go_brrr/autodock/final/AncA/heme/dock.dpf
DOCKED: USER  
DOCKED: USER    Estimated Free Energy of Binding    =   -4.55 kcal/mol  [=(1)+(2)+(3)-(4)]
DOCKED: USER    Estimated Inhibition Constant, Ki   =  459.49 uM (micromolar)  [Temperature = 298.15 K]
DOCKED: USER    
DOCKED: USER    (1) Final Intermolecular Energy     =   -8.43 kcal/mol
DOCKED: USER        vdW + Hbond + desolv Energy     =   -8.06 kcal/mol
DOCKED: USER        Electrostatic Energy            =   -0.37 kcal/mol
DOCKED: USER    (2) Final Total Internal Energy     =   -2.05 kcal/mol
DOCKED: USER    (3) Torsional Free Energy           =   +3.88 kcal/mol
DOCKED: USER    (4) Unbound System's Energy  [=(2)] =   -2.05 kcal/mol
DOCKED: USER    
DOCKED: USER    
DOCKED: USER    NEWDPF move heme_opt.pdbqt
DOCKED: USER    NEWDPF about 0.153000 0.018000 -0.028000
DOCKED: USER    NEWDPF tran0 -15.111950 9.425844 -0.060145
DOCKED: USER    NEWDPF quaternion0 0.246669 0.595103 0.460751 0.610504
DOCKED: USER    NEWDPF axisangle0 0.311445 0.751380 0.581747 104.748070
DOCKED: USER    NEWDPF quat0 0.311445 0.751380 0.581747 104.748070
DOCKED: USER    NEWDPF dihe0 -6.64 -7.91 -114.28 141.32 -131.81 -180.00 120.75 -43.51 2.95 -28.36 108.35 62.55 -8.13 
DOCKED: USER  keepresnum = 1 
DOCKED: USER  
DOCKED: REMARK  13 active torsions:
DOCKED: REMARK  status: ('A' for Active; 'I' for Inactive)
DOCKED: REMARK    1  A    between atoms: O_3  and  C_38 
DOCKED: REMARK    2  A    between atoms: O_4  and  C_40 
DOCKED: REMARK    3  A    between atoms: O_7  and  C_46 
DOCKED: REMARK    4  A    between atoms: O_9  and  C_48 
DOCKED: REMARK    5  A    between atoms: C_15  and  C_20 
DOCKED: REMARK    6  A    between atoms: C_16  and  C_23 
DOCKED: REMARK    7  A    between atoms: C_20  and  C_38 
DOCKED: REMARK    8  A    between atoms: C_23  and  C_40 
DOCKED: REMARK    9  A    between atoms: C_32  and  C_41 
DOCKED: REMARK   10  A    between atoms: C_37  and  C_45 
DOCKED: REMARK   11  A    between atoms: C_41  and  C_44 
DOCKED: REMARK   12  A    between atoms: C_44  and  C_46 
DOCKED: REMARK   13  A    between atoms: C_47  and  C_48 
DOCKED: USER                              x       y       z     vdW  Elec       q    Type
DOCKED: USER                           _______ _______ _______ _____ _____    ______ ____
DOCKED: ROOT
DOCKED: ATOM      1  O   UNL d   1     -13.244  12.252  -4.885 -0.02 +0.00    -0.289 OA
DOCKED: ATOM      2  O   UNL d   1     -18.119   6.600  -4.061 -0.19 +0.00    -0.289 OA
DOCKED: ATOM      3  N   UNL d   1     -13.933  10.810  -1.829 -0.13 +0.01    -0.247 NA
DOCKED: ATOM      4  N   UNL d   1     -16.146   8.925  -2.446 -0.08 +0.05    -0.247 NA
DOCKED: ATOM      5  N   UNL d   1     -16.608   8.687   0.382 -0.17 +0.05    -0.354 N 
DOCKED: ATOM      6  N   UNL d   1     -14.324  10.658   1.013 -0.11 -0.00    -0.354 N 
DOCKED: ATOM      7  C   UNL d   1     -12.615  12.738  -2.573 -0.05 -0.00    +0.084 A 
DOCKED: ATOM      8  C   UNL d   1     -16.282   8.072  -4.732 -0.21 -0.00    +0.084 A 
DOCKED: ATOM      9  C   UNL d   1     -15.622   9.011  -3.717 -0.21 -0.01    +0.058 A 
DOCKED: ATOM     10  C   UNL d   1     -13.127  11.862  -1.426 -0.10 -0.00    +0.058 A 
DOCKED: ATOM     11  C   UNL d   1     -13.260  11.985  -3.697 -0.05 -0.00    +0.193 A 
DOCKED: ATOM     12  C   UNL d   1     -14.009  10.824  -3.120 -0.15 -0.00    +0.109 A 
DOCKED: ATOM     13  C   UNL d   1     -17.302   7.464  -3.811 -0.21 -0.01    +0.193 A 
DOCKED: ATOM     14  C   UNL d   1     -13.202  14.151  -2.523 -0.02 +0.00    +0.026 C 
DOCKED: ATOM     15  C   UNL d   1     -14.654   9.878  -4.053 -0.20 -0.00    +0.055 C 
DOCKED: ATOM     16  C   UNL d   1     -15.322   6.974  -5.197 -0.39 +0.00    +0.026 C 
DOCKED: ATOM     17  C   UNL d   1     -17.118   8.071  -2.458 -0.20 -0.01    +0.109 A 
DOCKED: ATOM     18  C   UNL d   1     -12.734  12.068  -0.155 -0.10 +0.00    +0.050 C 
DOCKED: ATOM     19  C   UNL d   1     -13.087  11.260   0.956 -0.11 +0.00    +0.045 A 
DOCKED: ATOM     20  C   UNL d   1     -17.716   8.034  -0.094 -0.24 -0.00    +0.045 A 
DOCKED: ATOM     21  C   UNL d   1     -18.012   7.695  -1.353 -0.14 +0.00    +0.057 C 
DOCKED: ATOM     22  C   UNL d   1     -17.907   8.258   2.171 -0.20 +0.00    -0.019 A 
DOCKED: ATOM     23  C   UNL d   1     -16.634   8.868   1.739 -0.23 -0.00    +0.045 A 
DOCKED: ATOM     24  C   UNL d   1     -18.542   7.765   1.082 -0.21 -0.00    -0.022 A 
DOCKED: ATOM     25  C   UNL d   1     -14.488  10.002   2.210 -0.25 +0.00    +0.049 A 
DOCKED: ATOM     26  C   UNL d   1     -12.416  10.957   2.131 -0.14 -0.00    -0.018 A 
DOCKED: ATOM     27  C   UNL d   1     -13.298  10.146   2.910 -0.23 -0.00    +0.003 A 
DOCKED: ATOM     28  C   UNL d   1     -15.742   9.436   2.566 -0.27 -0.00    +0.052 C 
DOCKED: ATOM     29  C   UNL d   1     -19.849   7.051   1.008 -0.11 +0.01    +0.046 C 
DOCKED: ATOM     30  C   UNL d   1     -11.040  11.390   2.508 -0.13 +0.00    +0.046 C 
DOCKED: ATOM     31  H   UNL d   1     -15.833   8.922  -0.229 -0.34 -0.04    +0.166 HD
DOCKED: ATOM     32  H   UNL d   1     -15.019  10.736   0.279 +0.04 -0.00    +0.166 HD
DOCKED: ENDROOT
DOCKED: BRANCH   7  33
DOCKED: ATOM     33  C   UNL d   1     -11.093  12.767  -2.749 -0.06 -0.01    +0.141 C 
DOCKED: BRANCH  33  34
DOCKED: ATOM     34  C   UNL d   1     -10.490  11.390  -2.801 -0.11 -0.05    +0.306 C 
DOCKED: ATOM     35  O   UNL d   1     -10.282  10.658  -1.848 -0.18 +0.04    -0.251 OA
DOCKED: BRANCH  34  36
DOCKED: ATOM     36  O   UNL d   1     -10.181  11.006  -4.052 -0.05 +0.16    -0.481 OA
DOCKED: ATOM     37  H   UNL d   1      -9.669  10.177  -3.937 -0.44 -0.26    +0.295 HD
DOCKED: ENDBRANCH  34  36
DOCKED: ENDBRANCH  33  34
DOCKED: ENDBRANCH   7  33
DOCKED: BRANCH  27  38
DOCKED: ATOM     38  C   UNL d   1     -13.005   9.622   4.210 -0.25 +0.00    +0.017 C 
DOCKED: ATOM     39  C   UNL d   1     -12.271   8.527   4.457 -0.18 -0.01    +0.092 C 
DOCKED: BRANCH  39  40
DOCKED: ATOM     40  C   UNL d   1     -12.029   8.105   5.839 -0.14 +0.04    +0.330 C 
DOCKED: ATOM     41  O   UNL d   1     -11.419   7.125   6.222 -0.28 -0.05    -0.246 OA
DOCKED: BRANCH  40  42
DOCKED: ATOM     42  O   UNL d   1     -12.583   8.980   6.692 -0.02 -0.06    -0.477 OA
DOCKED: ATOM     43  H   UNL d   1     -12.485   8.550   7.566 +0.07 +0.05    +0.295 HD
DOCKED: ENDBRANCH  40  42
DOCKED: ENDBRANCH  39  40
DOCKED: ENDBRANCH  27  38
DOCKED: BRANCH   8  44
DOCKED: ATOM     44  C   UNL d   1     -16.959   8.758  -5.923 -0.06 +0.00    +0.141 C 
DOCKED: BRANCH  44  45
DOCKED: ATOM     45  C   UNL d   1     -18.304   9.344  -5.586 -0.00 +0.01    +0.306 C 
DOCKED: ATOM     46  O   UNL d   1     -18.515  10.376  -4.974 -0.01 -0.01    -0.251 OA
DOCKED: BRANCH  45  47
DOCKED: ATOM     47  O   UNL d   1     -19.322   8.577  -6.018 +0.01 -0.02    -0.481 OA
DOCKED: ATOM     48  H   UNL d   1     -19.244   7.747  -5.502 +0.05 +0.01    +0.295 HD
DOCKED: ENDBRANCH  45  47
DOCKED: ENDBRANCH  44  45
DOCKED: ENDBRANCH   8  44
DOCKED: BRANCH  22  49
DOCKED: ATOM     49  C   UNL d   1     -18.386   8.228   3.593 -0.16 +0.00    +0.048 C 
DOCKED: BRANCH  49  50
DOCKED: ATOM     50  C   UNL d   1     -17.941   6.957   4.316 -0.17 +0.01    +0.125 C 
DOCKED: BRANCH  50  51
DOCKED: ATOM     51  C   UNL d   1     -18.682   5.757   3.799 -0.18 +0.09    +0.305 C 
DOCKED: ATOM     52  O   UNL d   1     -19.886   5.634   3.652 -0.09 -0.09    -0.251 OA
DOCKED: BRANCH  51  53
DOCKED: ATOM     53  O   UNL d   1     -17.850   4.742   3.495 -0.28 -0.24    -0.481 OA
DOCKED: ATOM     54  H   UNL d   1     -17.074   5.183   3.089 -0.41 -0.02    +0.295 HD
DOCKED: ENDBRANCH  51  53
DOCKED: ENDBRANCH  50  51
DOCKED: ENDBRANCH  49  50
DOCKED: ENDBRANCH  22  49
DOCKED: TORSDOF 13
DOCKED: TER
DOCKED: ENDMDL
________________________________________________________________________________


	BEGINNING GENETIC ALGORITHM DOCKING 97 of 100
Run: 97 Seed: 1154650169 1387710894 [ Run 97 of 100 GA/GALS ]
Beginning LAMARCKIAN GENETIC ALGORITHM (LGA), with a maximum of 25000000 energy evaluations.

Final-Value: -10.928


	FINAL GENETIC ALGORITHM DOCKED STATE
	_______________________________________________


Detailed state:  trans 11.662 -2.787 -15.325 quatxyzw 0.933740 0.002845 0.135096 0.331468 center 0.153 0.018 -0.028 ntor 13 117.1924 0.4152 -101.7789 153.4210 -142.6143 169.4163 133.4172 164.7770 13.0935 -15.1099 -41.0414 17.4499 -165.7840
State:	 11.662  -2.787 -15.325   0.990  0.003  0.143 141.284    117.19    0.42 -101.78  153.42 -142.61  169.42  133.42  164.78   13.09  -15.11  -41.04   17.45 -165.78

DOCKED: MODEL       97
DOCKED: USER    Run = 97
DOCKED: USER    DPF = D:/Protein_go_brrr/autodock/final/AncA/heme/dock.dpf
DOCKED: USER  
DOCKED: USER    Estimated Free Energy of Binding    =   -4.69 kcal/mol  [=(1)+(2)+(3)-(4)]
DOCKED: USER    Estimated Inhibition Constant, Ki   =  364.34 uM (micromolar)  [Temperature = 298.15 K]
DOCKED: USER    
DOCKED: USER    (1) Final Intermolecular Energy     =   -8.57 kcal/mol
DOCKED: USER        vdW + Hbond + desolv Energy     =   -7.93 kcal/mol
DOCKED: USER        Electrostatic Energy            =   -0.64 kcal/mol
DOCKED: USER    (2) Final Total Internal Energy     =   -2.36 kcal/mol
DOCKED: USER    (3) Torsional Free Energy           =   +3.88 kcal/mol
DOCKED: USER    (4) Unbound System's Energy  [=(2)] =   -2.36 kcal/mol
DOCKED: USER    
DOCKED: USER    
DOCKED: USER    NEWDPF move heme_opt.pdbqt
DOCKED: USER    NEWDPF about 0.153000 0.018000 -0.028000
DOCKED: USER    NEWDPF tran0 11.662129 -2.786611 -15.325084
DOCKED: USER    NEWDPF quaternion0 0.933740 0.002845 0.135096 0.331468
DOCKED: USER    NEWDPF axisangle0 0.989691 0.003016 0.143191 141.284242
DOCKED: USER    NEWDPF quat0 0.989691 0.003016 0.143191 141.284242
DOCKED: USER    NEWDPF dihe0 117.19 0.42 -101.78 153.42 -142.61 169.42 133.42 164.78 13.09 -15.11 -41.04 17.45 -165.78 
DOCKED: USER  keepresnum = 1 
DOCKED: USER  
DOCKED: REMARK  13 active torsions:
DOCKED: REMARK  status: ('A' for Active; 'I' for Inactive)
DOCKED: REMARK    1  A    between atoms: O_3  and  C_38 
DOCKED: REMARK    2  A    between atoms: O_4  and  C_40 
DOCKED: REMARK    3  A    between atoms: O_7  and  C_46 
DOCKED: REMARK    4  A    between atoms: O_9  and  C_48 
DOCKED: REMARK    5  A    between atoms: C_15  and  C_20 
DOCKED: REMARK    6  A    between atoms: C_16  and  C_23 
DOCKED: REMARK    7  A    between atoms: C_20  and  C_38 
DOCKED: REMARK    8  A    between atoms: C_23  and  C_40 
DOCKED: REMARK    9  A    between atoms: C_32  and  C_41 
DOCKED: REMARK   10  A    between atoms: C_37  and  C_45 
DOCKED: REMARK   11  A    between atoms: C_41  and  C_44 
DOCKED: REMARK   12  A    between atoms: C_44  and  C_46 
DOCKED: REMARK   13  A    between atoms: C_47  and  C_48 
DOCKED: USER                              x       y       z     vdW  Elec       q    Type
DOCKED: USER                           _______ _______ _______ _____ _____    ______ ____
DOCKED: ROOT
DOCKED: ATOM      1  O   UNL d   1       6.579  -3.230 -18.277 -0.10 +0.14    -0.289 OA
DOCKED: ATOM      2  O   UNL d   1       8.247   0.240 -11.830 -0.06 -0.06    -0.289 OA
DOCKED: ATOM      3  N   UNL d   1       9.713  -3.358 -16.844 -0.05 +0.04    -0.247 NA
DOCKED: ATOM      4  N   UNL d   1       9.491  -1.485 -14.548 -0.07 -0.01    -0.247 NA
DOCKED: ATOM      5  N   UNL d   1      12.357  -1.560 -14.330 -0.07 +0.02    -0.354 N 
DOCKED: ATOM      6  N   UNL d   1      12.579  -3.488 -16.724 -0.00 +0.01    -0.354 N 
DOCKED: ATOM      7  C   UNL d   1       8.746  -4.131 -18.960 -0.04 -0.01    +0.084 A 
DOCKED: ATOM      8  C   UNL d   1       7.265  -1.136 -13.601 -0.34 +0.00    +0.084 A 
DOCKED: ATOM      9  C   UNL d   1       8.149  -1.760 -14.686 -0.21 -0.00    +0.058 A 
DOCKED: ATOM     10  C   UNL d   1       9.967  -4.000 -18.044 -0.04 -0.01    +0.058 A 
DOCKED: ATOM     11  C   UNL d   1       7.752  -3.466 -18.056 -0.08 -0.07    +0.193 A 
DOCKED: ATOM     12  C   UNL d   1       8.454  -3.066 -16.795 -0.08 -0.04    +0.109 A 
DOCKED: ATOM     13  C   UNL d   1       8.350  -0.424 -12.843 -0.22 +0.03    +0.193 A 
DOCKED: ATOM     14  C   UNL d   1       8.892  -3.296 -20.235 -0.01 -0.00    +0.026 C 
DOCKED: ATOM     15  C   UNL d   1       7.649  -2.470 -15.709 -0.12 -0.02    +0.055 C 
DOCKED: ATOM     16  C   UNL d   1       6.646  -2.200 -12.691 -0.49 -0.00    +0.026 C 
DOCKED: ATOM     17  C   UNL d   1       9.650  -0.710 -13.523 -0.21 +0.01    +0.109 A 
DOCKED: ATOM     18  C   UNL d   1      11.151  -4.553 -18.368 -0.03 -0.00    +0.050 C 
DOCKED: ATOM     19  C   UNL d   1      12.309  -4.556 -17.550 -0.03 -0.00    +0.045 A 
DOCKED: ATOM     20  C   UNL d   1      12.081  -0.537 -13.460 -0.27 +0.00    +0.045 A 
DOCKED: ATOM     21  C   UNL d   1      10.893  -0.105 -13.024 -0.35 +0.00    +0.057 C 
DOCKED: ATOM     22  C   UNL d   1      14.344  -0.688 -13.726 -0.25 +0.00    -0.019 A 
DOCKED: ATOM     23  C   UNL d   1      13.697  -1.727 -14.553 -0.10 -0.01    +0.045 A 
DOCKED: ATOM     24  C   UNL d   1      13.382   0.012 -13.081 -0.35 +0.00    -0.022 A 
DOCKED: ATOM     25  C   UNL d   1      13.790  -3.658 -16.093 -0.09 -0.00    +0.049 A 
DOCKED: ATOM     26  C   UNL d   1      13.352  -5.460 -17.424 -0.04 -0.00    -0.018 A 
DOCKED: ATOM     27  C   UNL d   1      14.274  -4.897 -16.488 -0.08 -0.00    +0.003 A 
DOCKED: ATOM     28  C   UNL d   1      14.357  -2.616 -15.311 -0.09 -0.01    +0.052 C 
DOCKED: ATOM     29  C   UNL d   1      13.536   1.148 -12.127 -0.54 +0.00    +0.046 C 
DOCKED: ATOM     30  C   UNL d   1      13.485  -6.769 -18.126 -0.02 +0.00    +0.046 C 
DOCKED: ATOM     31  H   UNL d   1      11.621  -2.160 -14.686 +0.07 -0.00    +0.166 HD
DOCKED: ATOM     32  H   UNL d   1      11.976  -2.678 -16.640 +0.04 +0.00    +0.166 HD
DOCKED: ENDROOT
DOCKED: BRANCH   7  33
DOCKED: ATOM     33  C   UNL d   1       8.311  -5.566 -19.274 -0.05 -0.02    +0.141 C 
DOCKED: BRANCH  33  34
DOCKED: ATOM     34  C   UNL d   1       7.927  -6.338 -18.040 -0.07 -0.11    +0.306 C 
DOCKED: ATOM     35  O   UNL d   1       8.678  -6.989 -17.335 -0.04 +0.05    -0.251 OA
DOCKED: BRANCH  34  36
DOCKED: ATOM     36  O   UNL d   1       6.615  -6.246 -17.760 -0.07 +0.47    -0.481 OA
DOCKED: ATOM     37  H   UNL d   1       6.475  -5.300 -17.541 -0.11 -0.40    +0.295 HD
DOCKED: ENDBRANCH  34  36
DOCKED: ENDBRANCH  33  34
DOCKED: ENDBRANCH   7  33
DOCKED: BRANCH  27  38
DOCKED: ATOM     38  C   UNL d   1      15.506  -5.501 -16.079 -0.09 -0.00    +0.017 C 
DOCKED: ATOM     39  C   UNL d   1      15.868  -5.739 -14.809 -0.15 -0.00    +0.092 C 
DOCKED: BRANCH  39  40
DOCKED: ATOM     40  C   UNL d   1      17.154  -6.381 -14.524 -0.04 +0.01    +0.330 C 
DOCKED: ATOM     41  O   UNL d   1      17.717  -6.474 -13.450 -0.05 -0.01    -0.246 OA
DOCKED: BRANCH  40  42
DOCKED: ATOM     42  O   UNL d   1      17.672  -6.898 -15.650 +0.01 -0.02    -0.477 OA
DOCKED: ATOM     43  H   UNL d   1      18.514  -7.302 -15.356 +0.02 +0.02    +0.295 HD
DOCKED: ENDBRANCH  40  42
DOCKED: ENDBRANCH  39  40
DOCKED: ENDBRANCH  27  38
DOCKED: BRANCH   8  44
DOCKED: ATOM     44  C   UNL d   1       6.206  -0.148 -14.100 -0.35 +0.03    +0.141 C 
DOCKED: BRANCH  44  45
DOCKED: ATOM     45  C   UNL d   1       6.794   1.090 -14.724 -0.19 +0.26    +0.306 C 
DOCKED: ATOM     46  O   UNL d   1       7.090   1.243 -15.896 -0.40 -0.30    -0.251 OA
DOCKED: BRANCH  45  47
DOCKED: ATOM     47  O   UNL d   1       7.006   2.068 -13.825 -0.61 -0.60    -0.481 OA
DOCKED: ATOM     48  H   UNL d   1       7.823   1.799 -13.353 -0.22 +0.21    +0.295 HD
DOCKED: ENDBRANCH  45  47
DOCKED: ENDBRANCH  44  45
DOCKED: ENDBRANCH   8  44
DOCKED: BRANCH  22  49
DOCKED: ATOM     49  C   UNL d   1      15.827  -0.470 -13.657 -0.16 -0.02    +0.048 C 
DOCKED: BRANCH  49  50
DOCKED: ATOM     50  C   UNL d   1      16.240   0.845 -14.319 -0.15 -0.01    +0.125 C 
DOCKED: BRANCH  50  51
DOCKED: ATOM     51  C   UNL d   1      17.310   1.535 -13.521 -0.10 +0.00    +0.305 C 
DOCKED: ATOM     52  O   UNL d   1      18.102   2.375 -13.910 -0.06 -0.03    -0.251 OA
DOCKED: BRANCH  51  53
DOCKED: ATOM     53  O   UNL d   1      17.336   1.112 -12.241 -0.31 +0.04    -0.481 OA
DOCKED: ATOM     54  H   UNL d   1      16.416   0.820 -12.068 -0.42 -0.22    +0.295 HD
DOCKED: ENDBRANCH  51  53
DOCKED: ENDBRANCH  50  51
DOCKED: ENDBRANCH  49  50
DOCKED: ENDBRANCH  22  49
DOCKED: TORSDOF 13
DOCKED: TER
DOCKED: ENDMDL
________________________________________________________________________________


	BEGINNING GENETIC ALGORITHM DOCKING 98 of 100
Run: 98 Seed: 1829343490 1228970178 [ Run 98 of 100 GA/GALS ]
Beginning LAMARCKIAN GENETIC ALGORITHM (LGA), with a maximum of 25000000 energy evaluations.

Final-Value: -13.521


	FINAL GENETIC ALGORITHM DOCKED STATE
	_______________________________________________


Detailed state:  trans -6.280 -1.230 -16.466 quatxyzw -0.686490 0.683195 0.206026 -0.139746 center 0.153 0.018 -0.028 ntor 13 -170.7800 -77.9841 78.2491 93.5508 53.6180 -132.2855 -43.0163 -85.8970 163.5798 -121.7083 -57.2869 -31.3092 -133.1114
State:	 -6.280  -1.230 -16.466  -0.693  0.690  0.208 -163.934   -170.78  -77.98   78.25   93.55   53.62 -132.29  -43.02  -85.90  163.58 -121.71  -57.29  -31.31 -133.11

DOCKED: MODEL       98
DOCKED: USER    Run = 98
DOCKED: USER    DPF = D:/Protein_go_brrr/autodock/final/AncA/heme/dock.dpf
DOCKED: USER  
DOCKED: USER    Estimated Free Energy of Binding    =   -7.65 kcal/mol  [=(1)+(2)+(3)-(4)]
DOCKED: USER    Estimated Inhibition Constant, Ki   =    2.48 uM (micromolar)  [Temperature = 298.15 K]
DOCKED: USER    
DOCKED: USER    (1) Final Intermolecular Energy     =  -11.53 kcal/mol
DOCKED: USER        vdW + Hbond + desolv Energy     =  -10.75 kcal/mol
DOCKED: USER        Electrostatic Energy            =   -0.77 kcal/mol
DOCKED: USER    (2) Final Total Internal Energy     =   -2.00 kcal/mol
DOCKED: USER    (3) Torsional Free Energy           =   +3.88 kcal/mol
DOCKED: USER    (4) Unbound System's Energy  [=(2)] =   -2.00 kcal/mol
DOCKED: USER    
DOCKED: USER    
DOCKED: USER    NEWDPF move heme_opt.pdbqt
DOCKED: USER    NEWDPF about 0.153000 0.018000 -0.028000
DOCKED: USER    NEWDPF tran0 -6.279947 -1.230421 -16.465887
DOCKED: USER    NEWDPF quaternion0 -0.686490 0.683195 0.206026 -0.139746
DOCKED: USER    NEWDPF axisangle0 -0.693293 0.689966 0.208068 -163.933671
DOCKED: USER    NEWDPF quat0 -0.693293 0.689966 0.208068 -163.933671
DOCKED: USER    NEWDPF dihe0 -170.78 -77.98 78.25 93.55 53.62 -132.29 -43.02 -85.90 163.58 -121.71 -57.29 -31.31 -133.11 
DOCKED: USER  keepresnum = 1 
DOCKED: USER  
DOCKED: REMARK  13 active torsions:
DOCKED: REMARK  status: ('A' for Active; 'I' for Inactive)
DOCKED: REMARK    1  A    between atoms: O_3  and  C_38 
DOCKED: REMARK    2  A    between atoms: O_4  and  C_40 
DOCKED: REMARK    3  A    between atoms: O_7  and  C_46 
DOCKED: REMARK    4  A    between atoms: O_9  and  C_48 
DOCKED: REMARK    5  A    between atoms: C_15  and  C_20 
DOCKED: REMARK    6  A    between atoms: C_16  and  C_23 
DOCKED: REMARK    7  A    between atoms: C_20  and  C_38 
DOCKED: REMARK    8  A    between atoms: C_23  and  C_40 
DOCKED: REMARK    9  A    between atoms: C_32  and  C_41 
DOCKED: REMARK   10  A    between atoms: C_37  and  C_45 
DOCKED: REMARK   11  A    between atoms: C_41  and  C_44 
DOCKED: REMARK   12  A    between atoms: C_44  and  C_46 
DOCKED: REMARK   13  A    between atoms: C_47  and  C_48 
DOCKED: USER                              x       y       z     vdW  Elec       q    Type
DOCKED: USER                           _______ _______ _______ _____ _____    ______ ____
DOCKED: ROOT
DOCKED: ATOM      1  O   UNL d   1      -7.918   3.970 -14.224 -0.62 -0.04    -0.289 OA
DOCKED: ATOM      2  O   UNL d   1      -1.261   0.494 -14.258 -0.31 +0.01    -0.289 OA
DOCKED: ATOM      3  N   UNL d   1      -7.460   0.824 -15.560 -0.18 +0.05    -0.247 NA
DOCKED: ATOM      4  N   UNL d   1      -4.520   0.432 -15.393 -0.14 +0.01    -0.247 NA
DOCKED: ATOM      5  N   UNL d   1      -4.812  -1.818 -17.159 -0.12 +0.02    -0.354 N 
DOCKED: ATOM      6  N   UNL d   1      -7.860  -1.393 -17.342 -0.07 +0.07    -0.354 N 
DOCKED: ATOM      7  C   UNL d   1      -9.324   2.414 -15.479 -0.17 -0.02    +0.084 A 
DOCKED: ATOM      8  C   UNL d   1      -3.324   1.668 -13.657 -0.24 -0.00    +0.084 A 
DOCKED: ATOM      9  C   UNL d   1      -4.631   1.385 -14.405 -0.23 -0.00    +0.058 A 
DOCKED: ATOM     10  C   UNL d   1      -8.773   1.059 -15.933 -0.22 -0.02    +0.058 A 
DOCKED: ATOM     11  C   UNL d   1      -8.096   2.895 -14.766 -0.16 -0.01    +0.193 A 
DOCKED: ATOM     12  C   UNL d   1      -7.046   1.832 -14.864 -0.23 -0.01    +0.109 A 
DOCKED: ATOM     13  C   UNL d   1      -2.442   0.727 -14.429 -0.23 -0.01    +0.193 A 
DOCKED: ATOM     14  C   UNL d   1      -9.608   3.344 -16.661 -0.07 -0.00    +0.026 C 
DOCKED: ATOM     15  C   UNL d   1      -5.770   2.046 -14.152 -0.30 -0.00    +0.055 C 
DOCKED: ATOM     16  C   UNL d   1      -3.390   1.199 -12.201 -0.55 -0.00    +0.026 C 
DOCKED: ATOM     17  C   UNL d   1      -3.286   0.044 -15.455 -0.17 -0.01    +0.109 A 
DOCKED: ATOM     18  C   UNL d   1      -9.552   0.158 -16.561 -0.22 -0.03    +0.050 C 
DOCKED: ATOM     19  C   UNL d   1      -9.155  -1.149 -16.942 -0.20 -0.02    +0.045 A 
DOCKED: ATOM     20  C   UNL d   1      -3.447  -1.704 -17.147 -0.14 -0.00    +0.045 A 
DOCKED: ATOM     21  C   UNL d   1      -2.678  -0.910 -16.395 +0.12 +0.00    +0.057 C 
DOCKED: ATOM     22  C   UNL d   1      -4.043  -3.272 -18.698 -0.30 +0.00    -0.019 A 
DOCKED: ATOM     23  C   UNL d   1      -5.266  -2.740 -18.064 -0.27 -0.00    +0.045 A 
DOCKED: ATOM     24  C   UNL d   1      -2.969  -2.656 -18.150 -0.27 +0.00    -0.022 A 
DOCKED: ATOM     25  C   UNL d   1      -7.718  -2.698 -17.752 -0.21 -0.01    +0.049 A 
DOCKED: ATOM     26  C   UNL d   1      -9.863  -2.335 -17.060 -0.21 +0.01    -0.018 A 
DOCKED: ATOM     27  C   UNL d   1      -8.946  -3.314 -17.553 -0.23 -0.00    +0.003 A 
DOCKED: ATOM     28  C   UNL d   1      -6.512  -3.146 -18.356 -0.27 -0.01    +0.052 C 
DOCKED: ATOM     29  C   UNL d   1      -1.523  -2.860 -18.449 -0.30 -0.00    +0.046 C 
DOCKED: ATOM     30  C   UNL d   1     -11.302  -2.549 -16.734 -0.13 -0.04    +0.046 C 
DOCKED: ATOM     31  H   UNL d   1      -5.388  -1.314 -16.494 +0.07 -0.01    +0.166 HD
DOCKED: ATOM     32  H   UNL d   1      -7.137  -0.683 -17.363 +0.05 -0.02    +0.166 HD
DOCKED: ENDROOT
DOCKED: BRANCH   7  33
DOCKED: ATOM     33  C   UNL d   1     -10.514   2.349 -14.515 +0.02 -0.07    +0.141 C 
DOCKED: BRANCH  33  34
DOCKED: ATOM     34  C   UNL d   1     -11.452   3.515 -14.675 -0.11 -0.08    +0.306 C 
DOCKED: ATOM     35  O   UNL d   1     -12.566   3.480 -15.171 -0.05 +0.06    -0.251 OA
DOCKED: BRANCH  34  36
DOCKED: ATOM     36  O   UNL d   1     -10.938   4.663 -14.200 -0.09 +0.07    -0.481 OA
DOCKED: ATOM     37  H   UNL d   1     -10.013   4.440 -13.964 +0.07 -0.03    +0.295 HD
DOCKED: ENDBRANCH  34  36
DOCKED: ENDBRANCH  33  34
DOCKED: ENDBRANCH   7  33
DOCKED: BRANCH  27  38
DOCKED: ATOM     38  C   UNL d   1      -9.270  -4.680 -17.835 -0.28 -0.01    +0.017 C 
DOCKED: ATOM     39  C   UNL d   1      -8.391  -5.625 -18.200 -0.20 -0.04    +0.092 C 
DOCKED: BRANCH  39  40
DOCKED: ATOM     40  C   UNL d   1      -8.850  -6.995 -18.443 -0.11 -0.22    +0.330 C 
DOCKED: ATOM     41  O   UNL d   1      -8.345  -8.030 -18.052 -0.85 +0.08    -0.246 OA
DOCKED: BRANCH  40  42
DOCKED: ATOM     42  O   UNL d   1      -9.968  -6.982 -19.186 -0.03 +0.45    -0.477 OA
DOCKED: ATOM     43  H   UNL d   1      -9.654  -7.212 -20.086 -0.44 -0.71    +0.295 HD
DOCKED: ENDBRANCH  40  42
DOCKED: ENDBRANCH  39  40
DOCKED: ENDBRANCH  27  38
DOCKED: BRANCH   8  44
DOCKED: ATOM     44  C   UNL d   1      -2.806   3.107 -13.754 -0.12 +0.01    +0.141 C 
DOCKED: BRANCH  44  45
DOCKED: ATOM     45  C   UNL d   1      -1.425   3.282 -13.180 -0.14 +0.02    +0.306 C 
DOCKED: ATOM     46  O   UNL d   1      -1.145   3.517 -12.018 -0.23 -0.02    -0.251 OA
DOCKED: BRANCH  45  47
DOCKED: ATOM     47  O   UNL d   1      -0.463   3.178 -14.115 -0.07 +0.01    -0.481 OA
DOCKED: ATOM     48  H   UNL d   1      -0.090   2.279 -13.988 -0.23 -0.05    +0.295 HD
DOCKED: ENDBRANCH  45  47
DOCKED: ENDBRANCH  44  45
DOCKED: ENDBRANCH   8  44
DOCKED: BRANCH  22  49
DOCKED: ATOM     49  C   UNL d   1      -4.039  -4.312 -19.779 -0.29 -0.02    +0.048 C 
DOCKED: BRANCH  49  50
DOCKED: ATOM     50  C   UNL d   1      -2.938  -4.057 -20.809 -0.17 -0.03    +0.125 C 
DOCKED: BRANCH  50  51
DOCKED: ATOM     51  C   UNL d   1      -2.033  -5.250 -20.934 -0.14 -0.10    +0.305 C 
DOCKED: ATOM     52  O   UNL d   1      -1.000  -5.466 -20.326 -0.24 +0.07    -0.251 OA
DOCKED: BRANCH  51  53
DOCKED: ATOM     53  O   UNL d   1      -2.482  -6.129 -21.852 -0.06 +0.19    -0.481 OA
DOCKED: ATOM     54  H   UNL d   1      -3.100  -6.702 -21.351 -0.46 -0.26    +0.295 HD
DOCKED: ENDBRANCH  51  53
DOCKED: ENDBRANCH  50  51
DOCKED: ENDBRANCH  49  50
DOCKED: ENDBRANCH  22  49
DOCKED: TORSDOF 13
DOCKED: TER
DOCKED: ENDMDL
________________________________________________________________________________


	BEGINNING GENETIC ALGORITHM DOCKING 99 of 100
Run: 99 Seed: 464851539 70611 [ Run 99 of 100 GA/GALS ]
Beginning LAMARCKIAN GENETIC ALGORITHM (LGA), with a maximum of 25000000 energy evaluations.

Final-Value: -12.546


	FINAL GENETIC ALGORITHM DOCKED STATE
	_______________________________________________


Detailed state:  trans -6.254 -1.528 -16.528 quatxyzw 0.726545 -0.640641 -0.211020 0.131082 center 0.153 0.018 -0.028 ntor 13 -159.7064 77.8828 -175.7311 102.9408 49.6379 -180.0000 142.1149 177.8669 159.1998 -8.4426 67.2250 -180.0000 172.6398
State:	 -6.254  -1.528 -16.528   0.733 -0.646 -0.213 164.936   -159.71   77.88 -175.73  102.94   49.64 -180.00  142.11  177.87  159.20   -8.44   67.22 -180.00  172.64

DOCKED: MODEL       99
DOCKED: USER    Run = 99
DOCKED: USER    DPF = D:/Protein_go_brrr/autodock/final/AncA/heme/dock.dpf
DOCKED: USER  
DOCKED: USER    Estimated Free Energy of Binding    =   -6.36 kcal/mol  [=(1)+(2)+(3)-(4)]
DOCKED: USER    Estimated Inhibition Constant, Ki   =   21.68 uM (micromolar)  [Temperature = 298.15 K]
DOCKED: USER    
DOCKED: USER    (1) Final Intermolecular Energy     =  -10.24 kcal/mol
DOCKED: USER        vdW + Hbond + desolv Energy     =   -9.67 kcal/mol
DOCKED: USER        Electrostatic Energy            =   -0.58 kcal/mol
DOCKED: USER    (2) Final Total Internal Energy     =   -2.31 kcal/mol
DOCKED: USER    (3) Torsional Free Energy           =   +3.88 kcal/mol
DOCKED: USER    (4) Unbound System's Energy  [=(2)] =   -2.31 kcal/mol
DOCKED: USER    
DOCKED: USER    
DOCKED: USER    NEWDPF move heme_opt.pdbqt
DOCKED: USER    NEWDPF about 0.153000 0.018000 -0.028000
DOCKED: USER    NEWDPF tran0 -6.253937 -1.527808 -16.527986
DOCKED: USER    NEWDPF quaternion0 0.726545 -0.640641 -0.211020 0.131082
DOCKED: USER    NEWDPF axisangle0 0.732868 -0.646217 -0.212857 164.935708
DOCKED: USER    NEWDPF quat0 0.732868 -0.646217 -0.212857 164.935708
DOCKED: USER    NEWDPF dihe0 -159.71 77.88 -175.73 102.94 49.64 -180.00 142.11 177.87 159.20 -8.44 67.22 -180.00 172.64 
DOCKED: USER  keepresnum = 1 
DOCKED: USER  
DOCKED: REMARK  13 active torsions:
DOCKED: REMARK  status: ('A' for Active; 'I' for Inactive)
DOCKED: REMARK    1  A    between atoms: O_3  and  C_38 
DOCKED: REMARK    2  A    between atoms: O_4  and  C_40 
DOCKED: REMARK    3  A    between atoms: O_7  and  C_46 
DOCKED: REMARK    4  A    between atoms: O_9  and  C_48 
DOCKED: REMARK    5  A    between atoms: C_15  and  C_20 
DOCKED: REMARK    6  A    between atoms: C_16  and  C_23 
DOCKED: REMARK    7  A    between atoms: C_20  and  C_38 
DOCKED: REMARK    8  A    between atoms: C_23  and  C_40 
DOCKED: REMARK    9  A    between atoms: C_32  and  C_41 
DOCKED: REMARK   10  A    between atoms: C_37  and  C_45 
DOCKED: REMARK   11  A    between atoms: C_41  and  C_44 
DOCKED: REMARK   12  A    between atoms: C_44  and  C_46 
DOCKED: REMARK   13  A    between atoms: C_47  and  C_48 
DOCKED: USER                              x       y       z     vdW  Elec       q    Type
DOCKED: USER                           _______ _______ _______ _____ _____    ______ ____
DOCKED: ROOT
DOCKED: ATOM      1  O   UNL d   1      -8.515   3.439 -14.298 -0.39 -0.00    -0.289 OA
DOCKED: ATOM      2  O   UNL d   1      -1.495   0.773 -14.270 -0.30 +0.01    -0.289 OA
DOCKED: ATOM      3  N   UNL d   1      -7.677   0.371 -15.632 -0.20 +0.06    -0.247 NA
DOCKED: ATOM      4  N   UNL d   1      -4.712   0.328 -15.437 -0.14 +0.01    -0.247 NA
DOCKED: ATOM      5  N   UNL d   1      -4.721  -1.937 -17.207 -0.13 +0.02    -0.354 N 
DOCKED: ATOM      6  N   UNL d   1      -7.795  -1.874 -17.420 -0.07 +0.07    -0.354 N 
DOCKED: ATOM      7  C   UNL d   1      -9.716   1.730 -15.568 -0.20 -0.04    +0.084 A 
DOCKED: ATOM      8  C   UNL d   1      -3.687   1.694 -13.689 -0.23 -0.00    +0.084 A 
DOCKED: ATOM      9  C   UNL d   1      -4.944   1.260 -14.449 -0.25 -0.00    +0.058 A 
DOCKED: ATOM     10  C   UNL d   1      -9.004   0.450 -16.018 -0.25 -0.03    +0.058 A 
DOCKED: ATOM     11  C   UNL d   1      -8.560   2.352 -14.843 -0.17 -0.04    +0.193 A 
DOCKED: ATOM     12  C   UNL d   1      -7.391   1.420 -14.932 -0.26 -0.02    +0.109 A 
DOCKED: ATOM     13  C   UNL d   1      -2.693   0.864 -14.452 -0.21 -0.01    +0.193 A 
DOCKED: ATOM     14  C   UNL d   1     -10.096   2.623 -16.752 -0.08 -0.01    +0.026 C 
DOCKED: ATOM     15  C   UNL d   1      -6.156   1.782 -14.207 -0.31 -0.00    +0.055 C 
DOCKED: ATOM     16  C   UNL d   1      -3.711   1.218 -12.233 -0.55 -0.00    +0.026 C 
DOCKED: ATOM     17  C   UNL d   1      -3.441   0.089 -15.488 -0.18 -0.01    +0.109 A 
DOCKED: ATOM     18  C   UNL d   1      -9.666  -0.535 -16.654 -0.23 -0.03    +0.050 C 
DOCKED: ATOM     19  C   UNL d   1      -9.113  -1.785 -17.032 -0.20 -0.02    +0.045 A 
DOCKED: ATOM     20  C   UNL d   1      -3.378  -1.663 -17.182 -0.16 -0.00    +0.045 A 
DOCKED: ATOM     21  C   UNL d   1      -2.716  -0.785 -16.421 -0.01 -0.00    +0.057 C 
DOCKED: ATOM     22  C   UNL d   1      -3.771  -3.288 -18.739 -0.30 +0.00    -0.019 A 
DOCKED: ATOM     23  C   UNL d   1      -5.054  -2.905 -18.117 -0.29 -0.01    +0.045 A 
DOCKED: ATOM     24  C   UNL d   1      -2.782  -2.550 -18.180 -0.26 +0.00    -0.022 A 
DOCKED: ATOM     25  C   UNL d   1      -7.497  -3.153 -17.829 -0.24 -0.01    +0.049 A 
DOCKED: ATOM     26  C   UNL d   1      -9.676  -3.046 -17.158 -0.22 +0.01    -0.018 A 
DOCKED: ATOM     27  C   UNL d   1      -8.645  -3.910 -17.643 -0.27 -0.00    +0.003 A 
DOCKED: ATOM     28  C   UNL d   1      -6.240  -3.454 -18.421 -0.27 -0.01    +0.052 C 
DOCKED: ATOM     29  C   UNL d   1      -1.319  -2.581 -18.466 -0.28 -0.00    +0.046 C 
DOCKED: ATOM     30  C   UNL d   1     -11.083  -3.429 -16.846 -0.20 -0.02    +0.046 C 
DOCKED: ATOM     31  H   UNL d   1      -5.358  -1.505 -16.547 +0.07 -0.01    +0.166 HD
DOCKED: ATOM     32  H   UNL d   1      -7.161  -1.084 -17.433 +0.05 -0.02    +0.166 HD
DOCKED: ENDROOT
DOCKED: BRANCH   7  33
DOCKED: ATOM     33  C   UNL d   1     -10.899   1.524 -14.616 -0.09 -0.14    +0.141 C 
DOCKED: BRANCH  33  34
DOCKED: ATOM     34  C   UNL d   1     -11.917   2.628 -14.711 -0.12 -0.14    +0.306 C 
DOCKED: ATOM     35  O   UNL d   1     -12.998   2.566 -15.272 -0.05 +0.09    -0.251 OA
DOCKED: BRANCH  34  36
DOCKED: ATOM     36  O   UNL d   1     -11.520   3.753 -14.090 -0.10 +0.12    -0.481 OA
DOCKED: ATOM     37  H   UNL d   1     -10.550   3.649 -13.986 +0.08 -0.07    +0.295 HD
DOCKED: ENDBRANCH  34  36
DOCKED: ENDBRANCH  33  34
DOCKED: ENDBRANCH   7  33
DOCKED: BRANCH  27  38
DOCKED: ATOM     38  C   UNL d   1      -8.803  -5.304 -17.928 -0.30 -0.01    +0.017 C 
DOCKED: ATOM     39  C   UNL d   1      -9.901  -5.866 -18.457 -0.21 -0.04    +0.092 C 
DOCKED: BRANCH  39  40
DOCKED: ATOM     40  C   UNL d   1      -9.929  -7.308 -18.718 -0.04 -0.24    +0.330 C 
DOCKED: ATOM     41  O   UNL d   1     -10.852  -7.966 -19.158 -0.10 +0.14    -0.246 OA
DOCKED: BRANCH  40  42
DOCKED: ATOM     42  O   UNL d   1      -8.744  -7.856 -18.406 -0.59 +0.31    -0.477 OA
DOCKED: ATOM     43  H   UNL d   1      -8.308  -7.982 -19.274 -0.43 -0.50    +0.295 HD
DOCKED: ENDBRANCH  40  42
DOCKED: ENDBRANCH  39  40
DOCKED: ENDBRANCH  27  38
DOCKED: BRANCH   8  44
DOCKED: ATOM     44  C   UNL d   1      -3.342   3.184 -13.779 -0.11 +0.01    +0.141 C 
DOCKED: BRANCH  44  45
DOCKED: ATOM     45  C   UNL d   1      -3.145   3.664 -15.192 -0.00 +0.02    +0.306 C 
DOCKED: ATOM     46  O   UNL d   1      -3.967   4.235 -15.887 -0.01 -0.02    -0.251 OA
DOCKED: BRANCH  45  47
DOCKED: ATOM     47  O   UNL d   1      -1.921   3.372 -15.669 +0.01 -0.02    -0.481 OA
DOCKED: ATOM     48  H   UNL d   1      -1.493   2.856 -14.952 +0.09 +0.01    +0.295 HD
DOCKED: ENDBRANCH  45  47
DOCKED: ENDBRANCH  44  45
DOCKED: ENDBRANCH   8  44
DOCKED: BRANCH  22  49
DOCKED: ATOM     49  C   UNL d   1      -3.633  -4.318 -19.822 -0.30 -0.02    +0.048 C 
DOCKED: BRANCH  49  50
DOCKED: ATOM     50  C   UNL d   1      -3.777  -3.703 -21.214 -0.13 -0.03    +0.125 C 
DOCKED: BRANCH  50  51
DOCKED: ATOM     51  C   UNL d   1      -5.040  -4.172 -21.879 -0.12 -0.14    +0.305 C 
DOCKED: ATOM     52  O   UNL d   1      -5.523  -3.769 -22.923 -0.06 +0.10    -0.251 OA
DOCKED: BRANCH  51  53
DOCKED: ATOM     53  O   UNL d   1      -5.653  -5.142 -21.171 -0.17 +0.38    -0.481 OA
DOCKED: ATOM     54  H   UNL d   1      -5.129  -5.947 -21.367 -0.21 -0.29    +0.295 HD
DOCKED: ENDBRANCH  51  53
DOCKED: ENDBRANCH  50  51
DOCKED: ENDBRANCH  49  50
DOCKED: ENDBRANCH  22  49
DOCKED: TORSDOF 13
DOCKED: TER
DOCKED: ENDMDL
________________________________________________________________________________


	BEGINNING GENETIC ALGORITHM DOCKING 100 of 100
Run: 100 Seed: 2026741110 1862910158 [ Run 100 of 100 GA/GALS ]
Beginning LAMARCKIAN GENETIC ALGORITHM (LGA), with a maximum of 25000000 energy evaluations.

Final-Value: -10.381


	FINAL GENETIC ALGORITHM DOCKED STATE
	_______________________________________________


Detailed state:  trans 2.876 15.423 8.997 quatxyzw -0.434269 0.626883 -0.627662 0.156425 center 0.153 0.018 -0.028 ntor 13 177.7447 -150.0520 20.6747 -141.3099 -151.3824 71.9278 123.9906 -61.3292 14.6527 -1.3065 -179.3827 -62.5906 10.0532
State:	  2.876  15.423   8.997  -0.440  0.635 -0.635 162.001    177.74 -150.05   20.67 -141.31 -151.38   71.93  123.99  -61.33   14.65   -1.31 -179.38  -62.59   10.05

DOCKED: MODEL      100
DOCKED: USER    Run = 100
DOCKED: USER    DPF = D:/Protein_go_brrr/autodock/final/AncA/heme/dock.dpf
DOCKED: USER  
DOCKED: USER    Estimated Free Energy of Binding    =   -3.23 kcal/mol  [=(1)+(2)+(3)-(4)]
DOCKED: USER    Estimated Inhibition Constant, Ki   =    4.26 mM (millimolar)  [Temperature = 298.15 K]
DOCKED: USER    
DOCKED: USER    (1) Final Intermolecular Energy     =   -7.11 kcal/mol
DOCKED: USER        vdW + Hbond + desolv Energy     =   -7.01 kcal/mol
DOCKED: USER        Electrostatic Energy            =   -0.10 kcal/mol
DOCKED: USER    (2) Final Total Internal Energy     =   -3.27 kcal/mol
DOCKED: USER    (3) Torsional Free Energy           =   +3.88 kcal/mol
DOCKED: USER    (4) Unbound System's Energy  [=(2)] =   -3.27 kcal/mol
DOCKED: USER    
DOCKED: USER    
DOCKED: USER    NEWDPF move heme_opt.pdbqt
DOCKED: USER    NEWDPF about 0.153000 0.018000 -0.028000
DOCKED: USER    NEWDPF tran0 2.875710 15.422879 8.996713
DOCKED: USER    NEWDPF quaternion0 -0.434269 0.626883 -0.627662 0.156425
DOCKED: USER    NEWDPF axisangle0 -0.439682 0.634696 -0.635485 162.001078
DOCKED: USER    NEWDPF quat0 -0.439682 0.634696 -0.635485 162.001078
DOCKED: USER    NEWDPF dihe0 177.74 -150.05 20.67 -141.31 -151.38 71.93 123.99 -61.33 14.65 -1.31 -179.38 -62.59 10.05 
DOCKED: USER  keepresnum = 1 
DOCKED: USER  
DOCKED: REMARK  13 active torsions:
DOCKED: REMARK  status: ('A' for Active; 'I' for Inactive)
DOCKED: REMARK    1  A    between atoms: O_3  and  C_38 
DOCKED: REMARK    2  A    between atoms: O_4  and  C_40 
DOCKED: REMARK    3  A    between atoms: O_7  and  C_46 
DOCKED: REMARK    4  A    between atoms: O_9  and  C_48 
DOCKED: REMARK    5  A    between atoms: C_15  and  C_20 
DOCKED: REMARK    6  A    between atoms: C_16  and  C_23 
DOCKED: REMARK    7  A    between atoms: C_20  and  C_38 
DOCKED: REMARK    8  A    between atoms: C_23  and  C_40 
DOCKED: REMARK    9  A    between atoms: C_32  and  C_41 
DOCKED: REMARK   10  A    between atoms: C_37  and  C_45 
DOCKED: REMARK   11  A    between atoms: C_41  and  C_44 
DOCKED: REMARK   12  A    between atoms: C_44  and  C_46 
DOCKED: REMARK   13  A    between atoms: C_47  and  C_48 
DOCKED: USER                              x       y       z     vdW  Elec       q    Type
DOCKED: USER                           _______ _______ _______ _____ _____    ______ ____
DOCKED: ROOT
DOCKED: ATOM      1  O   UNL d   1       5.071  16.499   3.632 -0.26 +0.05    -0.289 OA
DOCKED: ATOM      2  O   UNL d   1       7.439  18.605  10.440 -0.05 +0.01    -0.289 OA
DOCKED: ATOM      3  N   UNL d   1       3.359  15.731   6.526 -0.11 +0.03    -0.247 NA
DOCKED: ATOM      4  N   UNL d   1       5.177  16.692   8.671 -0.12 +0.03    -0.247 NA
DOCKED: ATOM      5  N   UNL d   1       3.590  15.208  10.553 -0.00 -0.02    -0.354 N 
DOCKED: ATOM      6  N   UNL d   1       1.720  14.200   8.319 -0.08 +0.06    -0.354 N 
DOCKED: ATOM      7  C   UNL d   1       3.114  15.133   4.162 -0.24 -0.01    +0.084 A 
DOCKED: ATOM      8  C   UNL d   1       6.713  18.506   8.104 -0.08 -0.01    +0.084 A 
DOCKED: ATOM      9  C   UNL d   1       5.656  17.491   7.657 -0.14 -0.01    +0.058 A 
DOCKED: ATOM     10  C   UNL d   1       2.619  15.008   5.605 -0.22 -0.01    +0.058 A 
DOCKED: ATOM     11  C   UNL d   1       4.255  16.069   4.427 -0.18 -0.04    +0.193 A 
DOCKED: ATOM     12  C   UNL d   1       4.282  16.377   5.892 -0.17 -0.02    +0.109 A 
DOCKED: ATOM     13  C   UNL d   1       6.772  18.110   9.553 -0.09 -0.01    +0.193 A 
DOCKED: ATOM     14  C   UNL d   1       3.673  13.810   3.630 -0.42 -0.00    +0.026 C 
DOCKED: ATOM     15  C   UNL d   1       5.272  17.359   6.378 -0.18 -0.01    +0.055 C 
DOCKED: ATOM     16  C   UNL d   1       6.196  19.944   8.007 -0.03 -0.00    +0.026 C 
DOCKED: ATOM     17  C   UNL d   1       5.799  16.996   9.764 -0.14 -0.01    +0.109 A 
DOCKED: ATOM     18  C   UNL d   1       1.501  14.321   5.908 -0.14 -0.00    +0.050 C 
DOCKED: ATOM     19  C   UNL d   1       0.921  14.221   7.199 -0.20 -0.00    +0.045 A 
DOCKED: ATOM     20  C   UNL d   1       4.645  15.554  11.356 -0.13 +0.00    +0.045 A 
DOCKED: ATOM     21  C   UNL d   1       5.669  16.372  11.089 -0.17 -0.00    +0.057 C 
DOCKED: ATOM     22  C   UNL d   1       3.291  14.112  12.499 -0.16 +0.00    -0.019 A 
DOCKED: ATOM     23  C   UNL d   1       2.719  14.340  11.156 -0.11 -0.00    +0.045 A 
DOCKED: ATOM     24  C   UNL d   1       4.430  14.834  12.611 -0.16 -0.00    -0.022 A 
DOCKED: ATOM     25  C   UNL d   1       0.961  14.007   9.450 -0.23 -0.01    +0.049 A 
DOCKED: ATOM     26  C   UNL d   1      -0.393  14.077   7.614 -0.24 +0.00    -0.018 A 
DOCKED: ATOM     27  C   UNL d   1      -0.364  13.961   9.039 -0.25 -0.00    +0.003 A 
DOCKED: ATOM     28  C   UNL d   1       1.576  13.793  10.714 -0.29 -0.01    +0.052 C 
DOCKED: ATOM     29  C   UNL d   1       5.355  14.942  13.776 -0.12 +0.00    +0.046 C 
DOCKED: ATOM     30  C   UNL d   1      -1.604  14.049   6.745 -0.20 +0.00    +0.046 C 
DOCKED: ATOM     31  H   UNL d   1       3.460  15.635   9.643 +0.04 +0.00    +0.166 HD
DOCKED: ATOM     32  H   UNL d   1       2.730  14.275   8.289 +0.01 -0.02    +0.166 HD
DOCKED: ENDROOT
DOCKED: BRANCH   7  33
DOCKED: ATOM     33  C   UNL d   1       2.121  15.760   3.178 -0.15 -0.01    +0.141 C 
DOCKED: BRANCH  33  34
DOCKED: ATOM     34  C   UNL d   1       1.771  17.179   3.534 -0.02 -0.01    +0.306 C 
DOCKED: ATOM     35  O   UNL d   1       0.785  17.544   4.153 -0.01 +0.01    -0.251 OA
DOCKED: BRANCH  34  36
DOCKED: ATOM     36  O   UNL d   1       2.683  18.064   3.095 +0.00 +0.02    -0.481 OA
DOCKED: ATOM     37  H   UNL d   1       3.397  17.513   2.710 +0.08 -0.02    +0.295 HD
DOCKED: ENDBRANCH  34  36
DOCKED: ENDBRANCH  33  34
DOCKED: ENDBRANCH   7  33
DOCKED: BRANCH  27  38
DOCKED: ATOM     38  C   UNL d   1      -1.511  13.780   9.876 -0.21 -0.00    +0.017 C 
DOCKED: ATOM     39  C   UNL d   1      -1.504  13.198  11.085 -0.20 -0.00    +0.092 C 
DOCKED: BRANCH  39  40
DOCKED: ATOM     40  C   UNL d   1      -2.749  13.090  11.850 -0.08 +0.01    +0.330 C 
DOCKED: ATOM     41  O   UNL d   1      -3.711  12.386  11.610 -0.10 -0.02    -0.246 OA
DOCKED: BRANCH  40  42
DOCKED: ATOM     42  O   UNL d   1      -2.704  13.899  12.920 -0.00 -0.00    -0.477 OA
DOCKED: ATOM     43  H   UNL d   1      -2.129  14.637  12.633 +0.03 +0.00    +0.295 HD
DOCKED: ENDBRANCH  40  42
DOCKED: ENDBRANCH  39  40
DOCKED: ENDBRANCH  27  38
DOCKED: BRANCH   8  44
DOCKED: ATOM     44  C   UNL d   1       8.087  18.365   7.441 -0.13 -0.02    +0.141 C 
DOCKED: BRANCH  44  45
DOCKED: ATOM     45  C   UNL d   1       8.637  16.965   7.505 -0.22 -0.07    +0.306 C 
DOCKED: ATOM     46  O   UNL d   1       8.335  16.032   6.781 -0.42 +0.08    -0.251 OA
DOCKED: BRANCH  45  47
DOCKED: ATOM     47  O   UNL d   1       9.525  16.805   8.503 -0.09 +0.12    -0.481 OA
DOCKED: ATOM     48  H   UNL d   1      10.036  16.005   8.255 -0.45 -0.20    +0.295 HD
DOCKED: ENDBRANCH  45  47
DOCKED: ENDBRANCH  44  45
DOCKED: ENDBRANCH   8  44
DOCKED: BRANCH  22  49
DOCKED: ATOM     49  C   UNL d   1       2.684  13.207  13.530 -0.14 -0.00    +0.048 C 
DOCKED: BRANCH  49  50
DOCKED: ATOM     50  C   UNL d   1       1.427  13.816  14.153 -0.04 -0.01    +0.125 C 
DOCKED: BRANCH  50  51
DOCKED: ATOM     51  C   UNL d   1       1.115  15.149  13.535 -0.00 -0.01    +0.305 C 
DOCKED: ATOM     52  O   UNL d   1       1.757  16.181  13.630 -0.01 +0.00    -0.251 OA
DOCKED: BRANCH  51  53
DOCKED: ATOM     53  O   UNL d   1      -0.028  15.119  12.821 +0.01 +0.01    -0.481 OA
DOCKED: ATOM     54  H   UNL d   1      -0.622  14.544  13.347 +0.03 -0.01    +0.295 HD
DOCKED: ENDBRANCH  51  53
DOCKED: ENDBRANCH  50  51
DOCKED: ENDBRANCH  49  50
DOCKED: ENDBRANCH  22  49
DOCKED: TORSDOF 13
DOCKED: TER
DOCKED: ENDMDL
________________________________________________________________________________

DPF> analysis                             # perform a ranked cluster analysis


		CLUSTER ANALYSIS OF CONFORMATIONS
		_________________________________

Number of conformations = 100

RMSD cluster analysis will be performed using the ligand atoms only (54 / 54 total atoms).

Outputting structurally similar clusters, ranked in order of increasing energy.


________________________________________________________________________________

Number of distinct conformational clusters found = 57,  out of 100 runs,
Using an rmsd-tolerance of 2.0 A


	CLUSTERING HISTOGRAM
	____________________

________________________________________________________________________________
     |           |     |           |     |                                    
Clus | Lowest    | Run | Mean      | Num | Histogram                          
-ter | Binding   |     | Binding   | in  |                                    
Rank | Energy    |     | Energy    | Clus|    5    10   15   20   25   30   35
_____|___________|_____|___________|_____|____:____|____:____|____:____|____:___
   1 |     -9.75 |  67 |     -9.12 |   2 |##
   2 |     -8.33 |  52 |     -7.42 |  11 |###########
   3 |     -7.03 |  48 |     -6.14 |   5 |#####
   4 |     -6.62 |  79 |     -6.62 |   1 |#
   5 |     -6.62 |  39 |     -6.06 |   2 |##
   6 |     -6.35 |  32 |     -6.06 |   3 |###
   7 |     -6.33 |  60 |     -5.85 |   6 |######
   8 |     -6.05 |  19 |     -5.05 |   3 |###
   9 |     -5.98 |  31 |     -5.98 |   1 |#
  10 |     -5.92 |  76 |     -5.61 |   3 |###
  11 |     -5.72 |  55 |     -5.72 |   1 |#
  12 |     -5.69 |  41 |     -5.65 |   2 |##
  13 |     -5.59 |   5 |     -5.59 |   1 |#
  14 |     -5.42 |  14 |     -5.42 |   1 |#
  15 |     -5.35 |  36 |     -4.59 |   3 |###
  16 |     -5.25 |  43 |     -5.25 |   1 |#
  17 |     -5.23 |   4 |     -5.23 |   1 |#
  18 |     -5.15 |  22 |     -4.66 |   2 |##
  19 |     -5.10 |  83 |     -4.53 |   4 |####
  20 |     -4.95 |  87 |     -4.95 |   1 |#
  21 |     -4.78 |  53 |     -4.78 |   1 |#
  22 |     -4.69 |  97 |     -4.45 |   2 |##
  23 |     -4.69 |  61 |     -4.69 |   1 |#
  24 |     -4.66 |  80 |     -4.66 |   1 |#
  25 |     -4.55 |  96 |     -4.55 |   1 |#
  26 |     -4.48 |  56 |     -4.48 |   1 |#
  27 |     -4.48 |  45 |     -4.48 |   1 |#
  28 |     -4.46 |  40 |     -4.46 |   1 |#
  29 |     -4.45 |  90 |     -4.45 |   1 |#
  30 |     -4.27 |  12 |     -4.27 |   1 |#
  31 |     -4.26 |  21 |     -4.26 |   1 |#
  32 |     -4.24 |  23 |     -3.98 |   2 |##
  33 |     -4.24 |  88 |     -4.24 |   1 |#
  34 |     -4.17 |  86 |     -4.17 |   1 |#
  35 |     -4.07 |  69 |     -4.07 |   1 |#
  36 |     -4.02 |  75 |     -3.83 |   2 |##
  37 |     -3.94 |  71 |     -3.94 |   1 |#
  38 |     -3.91 |  54 |     -3.55 |   2 |##
  39 |     -3.88 |  74 |     -3.88 |   1 |#
  40 |     -3.82 |  84 |     -3.82 |   1 |#
  41 |     -3.80 |  42 |     -3.45 |   3 |###
  42 |     -3.76 |  62 |     -3.76 |   1 |#
  43 |     -3.74 |  95 |     -3.43 |   2 |##
  44 |     -3.70 |  11 |     -3.70 |   1 |#
  45 |     -3.64 |  29 |     -3.64 |   1 |#
  46 |     -3.59 |  47 |     -3.56 |   2 |##
  47 |     -3.43 |  38 |     -3.43 |   1 |#
  48 |     -3.35 |  20 |     -3.35 |   1 |#
  49 |     -3.15 |   6 |     -3.15 |   1 |#
  50 |     -2.90 |  27 |     -2.90 |   1 |#
  51 |     -2.79 |  25 |     -2.79 |   1 |#
  52 |     -2.76 |  16 |     -2.76 |   1 |#
  53 |     -2.75 |  68 |     -2.64 |   2 |##
  54 |     -2.74 |  94 |     -2.74 |   1 |#
  55 |     -2.72 |  89 |     -2.72 |   1 |#
  56 |     -2.40 |  65 |     -2.40 |   1 |#
  57 |     -2.06 |  18 |     -2.06 |   1 |#
_____|___________|_____|___________|_____|______________________________________


Number of multi-member conformational clusters found = 20, out of 100 runs.

	RMSD TABLE
	__________

_____________________________________________________________________
     |      |      |           |         |                 |
Rank | Sub- | Run  | Binding   | Cluster | Reference       | Grep
     | Rank |      | Energy    | RMSD    | RMSD            | Pattern
_____|______|______|___________|_________|_________________|___________
   1      1     67       -9.75      0.00     10.69           RANKING
   1      2     26       -8.48      1.83     10.04           RANKING
   2      1     52       -8.33      0.00     16.31           RANKING
   2      2     82       -8.32      0.51     16.42           RANKING
   2      3     98       -7.65      1.37     15.91           RANKING
   2      4     15       -7.59      1.10     16.33           RANKING
   2      5     57       -7.40      1.21     16.39           RANKING
   2      6      8       -7.39      1.55     15.69           RANKING
   2      7     85       -7.39      1.21     16.18           RANKING
   2      8     49       -7.34      1.30     16.12           RANKING
   2      9     70       -6.97      0.96     16.18           RANKING
   2     10     92       -6.92      1.04     16.25           RANKING
   2     11     99       -6.36      1.17     16.16           RANKING
   3      1     48       -7.03      0.00     16.31           RANKING
   3      2     58       -6.69      1.29     16.05           RANKING
   3      3     73       -5.85      0.95     16.32           RANKING
   3      4     35       -5.58      1.74     15.93           RANKING
   3      5     77       -5.55      1.44     15.90           RANKING
   4      1     79       -6.62      0.00     10.54           RANKING
   5      1     39       -6.62      0.00     17.89           RANKING
   5      2      9       -5.50      1.45     17.71           RANKING
   6      1     32       -6.35      0.00     17.16           RANKING
   6      2     91       -6.31      1.57     17.40           RANKING
   6      3     51       -5.53      0.91     17.24           RANKING
   7      1     60       -6.33      0.00     17.52           RANKING
   7      2      1       -6.24      1.16     17.84           RANKING
   7      3     78       -5.93      1.89     17.73           RANKING
   7      4     37       -5.57      1.90     17.76           RANKING
   7      5     72       -5.53      1.73     17.23           RANKING
   7      6     81       -5.52      1.71     17.53           RANKING
   8      1     19       -6.05      0.00     15.45           RANKING
   8      2     34       -5.07      0.47     15.44           RANKING
   8      3      3       -4.05      2.00     15.78           RANKING
   9      1     31       -5.98      0.00     13.11           RANKING
  10      1     76       -5.92      0.00     14.74           RANKING
  10      2     44       -5.47      1.39     14.81           RANKING
  10      3     46       -5.44      0.86     14.86           RANKING
  11      1     55       -5.72      0.00     13.95           RANKING
  12      1     41       -5.69      0.00     18.03           RANKING
  12      2     10       -5.61      1.91     17.80           RANKING
  13      1      5       -5.59      0.00     15.11           RANKING
  14      1     14       -5.42      0.00     15.99           RANKING
  15      1     36       -5.35      0.00     14.35           RANKING
  15      2     64       -4.60      1.46     15.14           RANKING
  15      3     28       -3.82      1.97     14.16           RANKING
  16      1     43       -5.25      0.00     11.43           RANKING
  17      1      4       -5.23      0.00     16.96           RANKING
  18      1     22       -5.15      0.00     14.92           RANKING
  18      2     17       -4.16      1.04     14.75           RANKING
  19      1     83       -5.10      0.00     17.59           RANKING
  19      2      2       -4.78      1.37     17.67           RANKING
  19      3     13       -4.54      1.72     18.39           RANKING
  19      4     59       -3.70      1.63     17.84           RANKING
  20      1     87       -4.95      0.00     13.33           RANKING
  21      1     53       -4.78      0.00     19.02           RANKING
  22      1     97       -4.69      0.00     17.23           RANKING
  22      2     50       -4.20      1.18     17.43           RANKING
  23      1     61       -4.69      0.00     10.58           RANKING
  24      1     80       -4.66      0.00     17.49           RANKING
  25      1     96       -4.55      0.00     13.86           RANKING
  26      1     56       -4.48      0.00     17.20           RANKING
  27      1     45       -4.48      0.00     14.84           RANKING
  28      1     40       -4.46      0.00     16.51           RANKING
  29      1     90       -4.45      0.00     11.93           RANKING
  30      1     12       -4.27      0.00     11.84           RANKING
  31      1     21       -4.26      0.00     12.06           RANKING
  32      1     23       -4.24      0.00     12.90           RANKING
  32      2     63       -3.73      1.26     12.91           RANKING
  33      1     88       -4.24      0.00     13.54           RANKING
  34      1     86       -4.17      0.00     17.70           RANKING
  35      1     69       -4.07      0.00     18.07           RANKING
  36      1     75       -4.02      0.00     15.23           RANKING
  36      2     93       -3.64      1.95     14.78           RANKING
  37      1     71       -3.94      0.00     16.10           RANKING
  38      1     54       -3.91      0.00     14.12           RANKING
  38      2      7       -3.18      1.10     13.92           RANKING
  39      1     74       -3.88      0.00     11.96           RANKING
  40      1     84       -3.82      0.00     16.88           RANKING
  41      1     42       -3.80      0.00     14.53           RANKING
  41      2     33       -3.31      1.93     14.65           RANKING
  41      3    100       -3.23      1.92     15.47           RANKING
  42      1     62       -3.76      0.00     13.48           RANKING
  43      1     95       -3.74      0.00     12.17           RANKING
  43      2     66       -3.12      1.12     12.52           RANKING
  44      1     11       -3.70      0.00     17.03           RANKING
  45      1     29       -3.64      0.00     13.06           RANKING
  46      1     47       -3.59      0.00     15.69           RANKING
  46      2     24       -3.54      0.47     15.76           RANKING
  47      1     38       -3.43      0.00     12.10           RANKING
  48      1     20       -3.35      0.00     14.03           RANKING
  49      1      6       -3.15      0.00     16.40           RANKING
  50      1     27       -2.90      0.00     12.62           RANKING
  51      1     25       -2.79      0.00     20.51           RANKING
  52      1     16       -2.76      0.00     13.76           RANKING
  53      1     68       -2.75      0.00     15.16           RANKING
  53      2     30       -2.52      1.47     15.46           RANKING
  54      1     94       -2.74      0.00     14.85           RANKING
  55      1     89       -2.72      0.00     12.18           RANKING
  56      1     65       -2.40      0.00     17.81           RANKING
  57      1     18       -2.06      0.00     16.66           RANKING
_______________________________________________________________________



	INFORMATION ENTROPY ANALYSIS FOR THIS CLUSTERING
	________________________________________________


Information entropy for this clustering = 0.82  (rmstol = 2.00 Angstrom)

_______________________________________________________________________


	STATISTICAL MECHANICAL ANALYSIS
	_______________________________


Partition function, Q =   100.84            at Temperature, T = 298.15 K
Free energy,        A ~ -2733.43 kcal/mol   at Temperature, T = 298.15 K
Internal energy,    U =    -4.96 kcal/mol   at Temperature, T = 298.15 K
Entropy,            S =     9.15 kcal/mol/K at Temperature, T = 298.15 K

_______________________________________________________________________


	LOWEST ENERGY DOCKED CONFORMATION from EACH CLUSTER
	___________________________________________________



Keeping original residue number (specified in the input PDBQ file) for outputting.

MODEL       67
USER    Run = 67
USER    Cluster Rank = 1
USER    Number of conformations in this cluster = 2
USER  
USER    RMSD from reference structure       = 10.692 A
USER  
USER    Estimated Free Energy of Binding    =   -9.75 kcal/mol  [=(1)+(2)+(3)-(4)]
USER    Estimated Inhibition Constant, Ki   =   71.05 nM (nanomolar)  [Temperature = 298.15 K]
USER    
USER    (1) Final Intermolecular Energy     =  -13.63 kcal/mol
USER        vdW + Hbond + desolv Energy     =  -12.96 kcal/mol
USER        Electrostatic Energy            =   -0.67 kcal/mol
USER    (2) Final Total Internal Energy     =   -0.53 kcal/mol
USER    (3) Torsional Free Energy           =   +3.88 kcal/mol
USER    (4) Unbound System's Energy  [=(2)] =   -0.53 kcal/mol
USER    
USER    
USER  
USER    DPF = D:/Protein_go_brrr/autodock/final/AncA/heme/dock.dpf
USER    NEWDPF move	heme_opt.pdbqt
USER    NEWDPF about	0.153000 0.018000 -0.028000
USER    NEWDPF tran0	-9.323497 -10.540565 -2.817896
USER    NEWDPF axisangle0	0.359249 0.931335 -0.059624 -159.714987
USER    NEWDPF quaternion0	0.353635 0.916781 -0.058692 -0.176097
USER    NEWDPF dihe0	107.57 13.14 -96.31 -180.00 6.18 -150.03 -50.52 -60.85 -128.87 79.21 -13.83 169.64 -159.02 
USER  
USER                              x       y       z    vdW   Elec        q     RMS 
ATOM      1  O   UNL d   1      -4.151 -12.958  -1.348 -0.38 -0.55    -0.289    10.692
ATOM      2  O   UNL d   1     -11.183 -15.442  -0.462 -0.08 -0.11    -0.289    10.692
ATOM      3  N   UNL d   1      -6.916 -11.107  -2.257 -0.08 -0.18    -0.247    10.692
ATOM      4  N   UNL d   1      -9.172 -12.990  -1.823 -0.11 -0.15    -0.247    10.692
ATOM      5  N   UNL d   1     -10.841 -11.191  -3.322 -0.15 -0.07    -0.354    10.692
ATOM      6  N   UNL d   1      -8.489  -9.252  -3.785 -0.17 -0.12    -0.354    10.692
ATOM      7  C   UNL d   1      -4.493 -10.835  -2.509 -0.33 +0.07    +0.084    10.692
ATOM      8  C   UNL d   1      -8.852 -14.755  -0.164 -0.07 +0.07    +0.084    10.692
ATOM      9  C   UNL d   1      -8.273 -13.587  -0.969 -0.15 +0.05    +0.058    10.692
ATOM     10  C   UNL d   1      -5.906 -10.299  -2.754 -0.20 +0.04    +0.058    10.692
ATOM     11  C   UNL d   1      -4.881 -12.079  -1.769 -0.19 +0.28    +0.193    10.692
ATOM     12  C   UNL d   1      -6.374 -12.117  -1.659 -0.21 +0.12    +0.109    10.692
ATOM     13  C   UNL d   1     -10.237 -14.734  -0.747 -0.08 +0.10    +0.193    10.692
ATOM     14  C   UNL d   1      -3.794 -11.231  -3.812 -0.37 +0.03    +0.026    10.692
ATOM     15  C   UNL d   1      -6.986 -13.214  -0.883 -0.24 +0.07    +0.055    10.692
ATOM     16  C   UNL d   1      -8.942 -14.427   1.329 -0.17 +0.02    +0.026    10.692
ATOM     17  C   UNL d   1     -10.298 -13.624  -1.745 -0.15 +0.05    +0.109    10.692
ATOM     18  C   UNL d   1      -6.114  -9.098  -3.326 -0.18 +0.03    +0.050    10.692
ATOM     19  C   UNL d   1      -7.378  -8.485  -3.516 -0.39 +0.02    +0.045    10.692
ATOM     20  C   UNL d   1     -11.685 -12.266  -3.221 -0.24 +0.01    +0.045    10.692
ATOM     21  C   UNL d   1     -11.529 -13.390  -2.514 -0.19 +0.01    +0.057    10.692
ATOM     22  C   UNL d   1     -12.625 -10.718  -4.612 -0.31 -0.00    -0.019    10.692
ATOM     23  C   UNL d   1     -11.323 -10.205  -4.141 -0.41 +0.00    +0.045    10.692
ATOM     24  C   UNL d   1     -12.834 -11.937  -4.063 -0.30 -0.00    -0.022    10.692
ATOM     25  C   UNL d   1      -9.583  -8.453  -4.023 -0.47 +0.01    +0.049    10.692
ATOM     26  C   UNL d   1      -7.768  -7.155  -3.543 -0.45 -0.01    -0.018    10.692
ATOM     27  C   UNL d   1      -9.165  -7.141  -3.844 -0.44 +0.00    +0.003    10.692
ATOM     28  C   UNL d   1     -10.809  -9.011  -4.475 -0.55 +0.01    +0.052    10.692
ATOM     29  C   UNL d   1     -14.006 -12.845  -4.226 -0.22 +0.00    +0.046    10.692
ATOM     30  C   UNL d   1      -6.899  -5.967  -3.303 -0.48 +0.01    +0.046    10.692
ATOM     31  H   UNL d   1      -9.993 -11.134  -2.768 +0.09 +0.05    +0.166    10.692
ATOM     32  H   UNL d   1      -8.472 -10.264  -3.837 +0.10 +0.07    +0.166    10.692
ATOM     33  C   UNL d   1      -3.596  -9.948  -1.638 -0.38 +0.08    +0.141    10.692
ATOM     34  C   UNL d   1      -2.973  -8.818  -2.410 -0.30 +0.12    +0.306    10.692
ATOM     35  O   UNL d   1      -3.570  -7.932  -2.999 -0.35 -0.10    -0.251    10.692
ATOM     36  O   UNL d   1      -1.629  -8.861  -2.398 -0.19 -0.16    -0.481    10.692
ATOM     37  H   UNL d   1      -1.380  -8.559  -1.499 +0.17 +0.07    +0.295    10.692
ATOM     38  C   UNL d   1      -9.968  -5.964  -3.983 -0.25 +0.00    +0.017    10.692
ATOM     39  C   UNL d   1      -9.514  -4.755  -4.347 -0.53 +0.02    +0.092    10.692
ATOM     40  C   UNL d   1     -10.446  -3.631  -4.469 -0.37 +0.05    +0.330    10.692
ATOM     41  O   UNL d   1     -10.345  -2.657  -5.190 -0.36 -0.06    -0.246    10.692
ATOM     42  O   UNL d   1     -11.496  -3.811  -3.653 -0.15 -0.03    -0.477    10.692
ATOM     43  H   UNL d   1     -12.146  -3.144  -3.956 -0.10 +0.02    +0.295    10.692
ATOM     44  C   UNL d   1      -8.180 -16.113  -0.393 -0.04 +0.13    +0.141    10.692
ATOM     45  C   UNL d   1      -6.725 -16.001  -0.762 -0.06 +0.44    +0.306    10.692
ATOM     46  O   UNL d   1      -6.260 -15.986  -1.889 -0.50 -0.59    -0.251    10.692
ATOM     47  O   UNL d   1      -5.923 -15.940   0.317 -0.49 -0.91    -0.481    10.692
ATOM     48  H   UNL d   1      -5.798 -16.875   0.585 +0.03 +0.43    +0.295    10.692
ATOM     49  C   UNL d   1     -13.528  -9.981  -5.558 -0.40 +0.00    +0.048    10.692
ATOM     50  C   UNL d   1     -13.731 -10.747  -6.865 -0.24 -0.01    +0.125    10.692
ATOM     51  C   UNL d   1     -14.866 -10.165  -7.658 -0.19 -0.01    +0.305    10.692
ATOM     52  O   UNL d   1     -16.050 -10.168  -7.372 -0.12 -0.01    -0.251    10.692
ATOM     53  O   UNL d   1     -14.442  -9.604  -8.808 -0.16 +0.07    -0.481    10.692
ATOM     54  H   UNL d   1     -13.471  -9.736  -8.793 -0.39 -0.17    +0.295    10.692
TER
ENDMDL
MODEL       52
USER    Run = 52
USER    Cluster Rank = 2
USER    Number of conformations in this cluster = 11
USER  
USER    RMSD from reference structure       = 16.306 A
USER  
USER    Estimated Free Energy of Binding    =   -8.33 kcal/mol  [=(1)+(2)+(3)-(4)]
USER    Estimated Inhibition Constant, Ki   =  783.46 nM (nanomolar)  [Temperature = 298.15 K]
USER    
USER    (1) Final Intermolecular Energy     =  -12.21 kcal/mol
USER        vdW + Hbond + desolv Energy     =  -11.06 kcal/mol
USER        Electrostatic Energy            =   -1.14 kcal/mol
USER    (2) Final Total Internal Energy     =   -1.54 kcal/mol
USER    (3) Torsional Free Energy           =   +3.88 kcal/mol
USER    (4) Unbound System's Energy  [=(2)] =   -1.54 kcal/mol
USER    
USER    
USER  
USER    DPF = D:/Protein_go_brrr/autodock/final/AncA/heme/dock.dpf
USER    NEWDPF move	heme_opt.pdbqt
USER    NEWDPF about	0.153000 0.018000 -0.028000
USER    NEWDPF tran0	-6.028009 -1.584902 -16.818454
USER    NEWDPF axisangle0	0.708107 -0.664723 -0.238176 163.185778
USER    NEWDPF quaternion0	0.700497 -0.657580 -0.235616 0.146206
USER    NEWDPF dihe0	-100.05 54.51 78.92 21.19 -159.83 -110.70 -45.64 -60.00 -140.05 -122.95 22.92 84.83 155.56 
USER  
USER                              x       y       z    vdW   Elec        q     RMS 
ATOM      1  O   UNL d   1      -7.925   3.375 -14.258 -0.42 -0.01    -0.289    16.306
ATOM      2  O   UNL d   1      -1.076   0.315 -14.603 -0.26 +0.00    -0.289    16.306
ATOM      3  N   UNL d   1      -7.309   0.341 -15.778 -0.17 +0.05    -0.247    16.306
ATOM      4  N   UNL d   1      -4.348   0.118 -15.684 -0.13 +0.01    -0.247    16.306
ATOM      5  N   UNL d   1      -4.543  -2.044 -17.569 -0.12 +0.02    -0.354    16.306
ATOM      6  N   UNL d   1      -7.613  -1.793 -17.675 -0.07 +0.06    -0.354    16.306
ATOM      7  C   UNL d   1      -9.262   1.808 -15.575 -0.20 -0.03    +0.084    16.306
ATOM      8  C   UNL d   1      -3.192   1.327 -13.902 -0.25 -0.00    +0.084    16.306
ATOM      9  C   UNL d   1      -4.495   1.007 -14.642 -0.24 -0.00    +0.058    16.306
ATOM     10  C   UNL d   1      -8.641   0.516 -16.114 -0.24 -0.02    +0.058    16.306
ATOM     11  C   UNL d   1      -8.050   2.323 -14.858 -0.19 -0.03    +0.193    16.306
ATOM     12  C   UNL d   1      -6.941   1.332 -15.034 -0.24 -0.01    +0.109    16.306
ATOM     13  C   UNL d   1      -2.272   0.485 -14.740 -0.22 -0.01    +0.193    16.306
ATOM     14  C   UNL d   1      -9.624   2.784 -16.697 -0.08 -0.00    +0.026    16.306
ATOM     15  C   UNL d   1      -5.666   1.584 -14.332 -0.30 -0.00    +0.055    16.306
ATOM     16  C   UNL d   1      -3.200   0.775 -12.473 -0.56 -0.00    +0.026    16.306
ATOM     17  C   UNL d   1      -3.095  -0.190 -15.789 -0.14 -0.01    +0.109    16.306
ATOM     18  C   UNL d   1      -9.378  -0.394 -16.779 -0.22 -0.02    +0.050    16.306
ATOM     19  C   UNL d   1      -8.912  -1.651 -17.240 -0.18 -0.01    +0.045    16.306
ATOM     20  C   UNL d   1      -3.186  -1.849 -17.574 -0.21 -0.00    +0.045    16.306
ATOM     21  C   UNL d   1      -2.451  -1.052 -16.791 -0.10 +0.00    +0.057    16.306
ATOM     22  C   UNL d   1      -3.720  -3.361 -19.200 -0.27 +0.00    -0.019    16.306
ATOM     23  C   UNL d   1      -4.960  -2.940 -18.516 -0.26 -0.01    +0.045    16.306
ATOM     24  C   UNL d   1      -2.674  -2.713 -18.637 -0.24 +0.00    -0.022    16.306
ATOM     25  C   UNL d   1      -7.403  -3.063 -18.160 -0.22 -0.01    +0.049    16.306
ATOM     26  C   UNL d   1      -9.550  -2.869 -17.412 -0.20 +0.01    -0.018    16.306
ATOM     27  C   UNL d   1      -8.587  -3.763 -17.976 -0.24 -0.00    +0.003    16.306
ATOM     28  C   UNL d   1      -6.185  -3.403 -18.809 -0.27 -0.01    +0.052    16.306
ATOM     29  C   UNL d   1      -1.225  -2.812 -18.972 -0.26 -0.00    +0.046    16.306
ATOM     30  C   UNL d   1     -10.967  -3.187 -17.074 -0.19 -0.02    +0.046    16.306
ATOM     31  H   UNL d   1      -5.134  -1.612 -16.866 +0.07 -0.01    +0.166    16.306
ATOM     32  H   UNL d   1      -6.934  -1.041 -17.669 +0.05 -0.02    +0.166    16.306
ATOM     33  C   UNL d   1     -10.426   1.619 -14.596 -0.01 -0.12    +0.141    16.306
ATOM     34  C   UNL d   1     -11.765   1.618 -15.283 -0.10 -0.23    +0.306    16.306
ATOM     35  O   UNL d   1     -12.584   2.521 -15.265 -0.07 +0.10    -0.251    16.306
ATOM     36  O   UNL d   1     -12.001   0.479 -15.958 -0.04 +0.51    -0.481    16.306
ATOM     37  H   UNL d   1     -12.247  -0.171 -15.266 -0.49 -0.72    +0.295    16.306
ATOM     38  C   UNL d   1      -8.836  -5.128 -18.328 -0.32 -0.01    +0.017    16.306
ATOM     39  C   UNL d   1      -9.259  -6.081 -17.484 -0.15 -0.03    +0.092    16.306
ATOM     40  C   UNL d   1      -9.492  -7.441 -17.977 -0.19 -0.14    +0.330    16.306
ATOM     41  O   UNL d   1     -10.555  -8.027 -18.068 -0.12 +0.08    -0.246    16.306
ATOM     42  O   UNL d   1      -8.332  -8.004 -18.348 -0.66 +0.23    -0.477    16.306
ATOM     43  H   UNL d   1      -8.494  -8.288 -19.271 -0.46 -0.47    +0.295    16.306
ATOM     44  C   UNL d   1      -2.763   2.798 -13.926 -0.13 +0.01    +0.141    16.306
ATOM     45  C   UNL d   1      -1.395   3.028 -13.340 -0.15 +0.01    +0.306    16.306
ATOM     46  O   UNL d   1      -1.135   3.266 -12.174 -0.24 -0.02    -0.251    16.306
ATOM     47  O   UNL d   1      -0.422   2.972 -14.268 -0.08 +0.02    -0.481    16.306
ATOM     48  H   UNL d   1      -0.019   2.085 -14.151 -0.32 -0.06    +0.295    16.306
ATOM     49  C   UNL d   1      -3.676  -4.338 -20.339 -0.24 -0.02    +0.048    16.306
ATOM     50  C   UNL d   1      -4.232  -3.733 -21.628 -0.12 -0.04    +0.125    16.306
ATOM     51  C   UNL d   1      -4.716  -4.808 -22.559 -0.13 -0.16    +0.305    16.306
ATOM     52  O   UNL d   1      -4.049  -5.655 -23.127 -0.15 +0.12    -0.251    16.306
ATOM     53  O   UNL d   1      -6.051  -4.753 -22.742 -0.09 +0.42    -0.481    16.306
ATOM     54  H   UNL d   1      -6.285  -5.651 -23.058 -0.26 -0.55    +0.295    16.306
TER
ENDMDL
MODEL       48
USER    Run = 48
USER    Cluster Rank = 3
USER    Number of conformations in this cluster = 5
USER  
USER    RMSD from reference structure       = 16.308 A
USER  
USER    Estimated Free Energy of Binding    =   -7.03 kcal/mol  [=(1)+(2)+(3)-(4)]
USER    Estimated Inhibition Constant, Ki   =    7.04 uM (micromolar)  [Temperature = 298.15 K]
USER    
USER    (1) Final Intermolecular Energy     =  -10.91 kcal/mol
USER        vdW + Hbond + desolv Energy     =  -10.23 kcal/mol
USER        Electrostatic Energy            =   -0.68 kcal/mol
USER    (2) Final Total Internal Energy     =   -1.55 kcal/mol
USER    (3) Torsional Free Energy           =   +3.88 kcal/mol
USER    (4) Unbound System's Energy  [=(2)] =   -1.55 kcal/mol
USER    
USER    
USER  
USER    DPF = D:/Protein_go_brrr/autodock/final/AncA/heme/dock.dpf
USER    NEWDPF move	heme_opt.pdbqt
USER    NEWDPF about	0.153000 0.018000 -0.028000
USER    NEWDPF tran0	-6.809747 -1.041511 -16.498863
USER    NEWDPF axisangle0	-0.654213 -0.691930 -0.305350 -154.643964
USER    NEWDPF quaternion0	-0.638263 -0.675060 -0.297905 -0.219472
USER    NEWDPF dihe0	179.82 -117.60 154.87 172.91 45.16 -78.86 114.72 51.58 140.63 -121.26 52.15 73.11 143.45 
USER  
USER                              x       y       z    vdW   Elec        q     RMS 
ATOM      1  O   UNL d   1      -4.580  -4.688 -20.560 -0.19 +0.14    -0.289    16.308
ATOM      2  O   UNL d   1     -11.516  -4.099 -17.741 -0.04 +0.10    -0.289    16.308
ATOM      3  N   UNL d   1      -5.398  -2.456 -18.060 -0.14 +0.03    -0.247    16.308
ATOM      4  N   UNL d   1      -8.347  -2.734 -17.834 -0.12 +0.06    -0.247    16.308
ATOM      5  N   UNL d   1      -8.362  -0.322 -16.270 -0.13 +0.12    -0.354    16.308
ATOM      6  N   UNL d   1      -5.304  -0.030 -16.526 -0.06 +0.02    -0.354    16.308
ATOM      7  C   UNL d   1      -3.396  -2.886 -19.408 -0.17 -0.01    +0.084    16.308
ATOM      8  C   UNL d   1      -9.324  -4.869 -18.513 -0.19 -0.03    +0.084    16.308
ATOM      9  C   UNL d   1      -8.093  -3.963 -18.402 -0.23 -0.02    +0.058    16.308
ATOM     10  C   UNL d   1      -4.093  -2.069 -18.316 -0.19 -0.00    +0.058    16.308
ATOM     11  C   UNL d   1      -4.532  -3.816 -19.711 -0.19 -0.05    +0.193    16.308
ATOM     12  C   UNL d   1      -5.678  -3.471 -18.812 -0.22 -0.02    +0.109    16.308
ATOM     13  C   UNL d   1     -10.330  -3.913 -17.937 -0.08 -0.06    +0.193    16.308
ATOM     14  C   UNL d   1      -3.097  -2.046 -20.652 -0.06 -0.00    +0.026    16.308
ATOM     15  C   UNL d   1      -6.886  -4.319 -18.867 -0.15 -0.02    +0.055    16.308
ATOM     16  C   UNL d   1      -9.217  -6.087 -17.591 -0.25 -0.01    +0.026    16.308
ATOM     17  C   UNL d   1      -9.612  -2.655 -17.572 -0.14 -0.04    +0.109    16.308
ATOM     18  C   UNL d   1      -3.436  -1.123 -17.619 -0.20 -0.00    +0.050    16.308
ATOM     19  C   UNL d   1      -3.972  -0.377 -16.538 -0.19 -0.00    +0.045    16.308
ATOM     20  C   UNL d   1      -9.709  -0.484 -16.465 -0.22 -0.03    +0.045    16.308
ATOM     21  C   UNL d   1     -10.357  -1.514 -17.019 -0.19 -0.04    +0.057    16.308
ATOM     22  C   UNL d   1      -9.347   1.531 -15.453 -0.25 +0.01    -0.019    16.308
ATOM     23  C   UNL d   1      -8.047   0.865 -15.665 -0.27 -0.01    +0.045    16.308
ATOM     24  C   UNL d   1     -10.328   0.727 -15.927 -0.20 +0.02    -0.022    16.308
ATOM     25  C   UNL d   1      -5.587   0.763 -15.438 -0.19 -0.00    +0.049    16.308
ATOM     26  C   UNL d   1      -3.382   0.174 -15.411 -0.23 +0.00    -0.018    16.308
ATOM     27  C   UNL d   1      -4.411   0.876 -14.710 -0.27 -0.00    +0.003    16.308
ATOM     28  C   UNL d   1      -6.862   1.375 -15.294 -0.27 -0.01    +0.052    16.308
ATOM     29  C   UNL d   1     -11.801   0.953 -15.930 -0.13 -0.04    +0.046    16.308
ATOM     30  C   UNL d   1      -1.952   0.055 -15.006 -0.27 -0.00    +0.046    16.308
ATOM     31  H   UNL d   1      -7.705  -1.063 -16.489 +0.06 -0.04    +0.166    16.308
ATOM     32  H   UNL d   1      -5.959  -0.299 -17.250 +0.05 -0.01    +0.166    16.308
ATOM     33  C   UNL d   1      -2.163  -3.675 -18.952 -0.26 -0.03    +0.141    16.308
ATOM     34  C   UNL d   1      -1.413  -4.291 -20.102 -0.18 -0.06    +0.306    16.308
ATOM     35  O   UNL d   1      -0.407  -3.846 -20.627 -0.09 +0.02    -0.251    16.308
ATOM     36  O   UNL d   1      -1.970  -5.439 -20.528 -0.13 +0.18    -0.481    16.308
ATOM     37  H   UNL d   1      -2.723  -5.589 -19.918 -0.37 -0.18    +0.295    16.308
ATOM     38  C   UNL d   1      -4.229   1.607 -13.492 -0.36 -0.00    +0.017    16.308
ATOM     39  C   UNL d   1      -3.982   1.062 -12.291 -0.44 -0.01    +0.092    16.308
ATOM     40  C   UNL d   1      -3.797   1.926 -11.122 -0.34 +0.00    +0.330    16.308
ATOM     41  O   UNL d   1      -2.792   2.524 -10.791 -0.28 -0.02    -0.246    16.308
ATOM     42  O   UNL d   1      -4.936   1.995 -10.415 -0.26 -0.01    -0.477    16.308
ATOM     43  H   UNL d   1      -5.091   1.072 -10.128 -0.33 -0.09    +0.295    16.308
ATOM     44  C   UNL d   1      -9.713  -5.283 -19.936 -0.12 -0.11    +0.141    16.308
ATOM     45  C   UNL d   1     -11.042  -5.986 -20.008 -0.05 -0.18    +0.306    16.308
ATOM     46  O   UNL d   1     -12.140  -5.484 -19.841 -0.02 +0.07    -0.251    16.308
ATOM     47  O   UNL d   1     -10.916  -7.302 -20.261 -0.02 +0.44    -0.481    16.308
ATOM     48  H   UNL d   1     -10.063  -7.381 -20.738 -0.52 -0.68    +0.295    16.308
ATOM     49  C   UNL d   1      -9.509   2.885 -14.826 -0.20 -0.01    +0.048    16.308
ATOM     50  C   UNL d   1      -8.778   3.969 -15.618 -0.12 -0.00    +0.125    16.308
ATOM     51  C   UNL d   1      -7.859   4.757 -14.728 -0.09 +0.04    +0.305    16.308
ATOM     52  O   UNL d   1      -7.084   4.326 -13.892 -0.73 -0.05    -0.251    16.308
ATOM     53  O   UNL d   1      -7.975   6.084 -14.932 -0.07 -0.07    -0.481    16.308
ATOM     54  H   UNL d   1      -8.560   6.155 -15.715 +0.04 +0.02    +0.295    16.308
TER
ENDMDL
MODEL       79
USER    Run = 79
USER    Cluster Rank = 4
USER    Number of conformations in this cluster = 1
USER  
USER    RMSD from reference structure       = 10.539 A
USER  
USER    Estimated Free Energy of Binding    =   -6.62 kcal/mol  [=(1)+(2)+(3)-(4)]
USER    Estimated Inhibition Constant, Ki   =   13.93 uM (micromolar)  [Temperature = 298.15 K]
USER    
USER    (1) Final Intermolecular Energy     =  -10.50 kcal/mol
USER        vdW + Hbond + desolv Energy     =   -9.74 kcal/mol
USER        Electrostatic Energy            =   -0.77 kcal/mol
USER    (2) Final Total Internal Energy     =   -1.26 kcal/mol
USER    (3) Torsional Free Energy           =   +3.88 kcal/mol
USER    (4) Unbound System's Energy  [=(2)] =   -1.26 kcal/mol
USER    
USER    
USER  
USER    DPF = D:/Protein_go_brrr/autodock/final/AncA/heme/dock.dpf
USER    NEWDPF move	heme_opt.pdbqt
USER    NEWDPF about	0.153000 0.018000 -0.028000
USER    NEWDPF tran0	4.321462 -12.990146 -1.324355
USER    NEWDPF axisangle0	-0.891739 -0.327876 -0.311928 -114.122896
USER    NEWDPF quaternion0	-0.748396 -0.275171 -0.261787 -0.543739
USER    NEWDPF dihe0	81.73 172.53 79.58 70.05 -151.20 85.65 -59.32 145.91 -148.83 -76.79 -60.57 169.22 38.38 
USER  
USER                              x       y       z    vdW   Elec        q     RMS 
ATOM      1  O   UNL d   1       1.566 -13.518  -6.509 -0.21 -0.12    -0.289    10.539
ATOM      2  O   UNL d   1      -1.091 -13.594   0.514 -0.09 -0.26    -0.289    10.539
ATOM      3  N   UNL d   1       3.607 -13.306  -3.738 -0.05 -0.07    -0.247    10.539
ATOM      4  N   UNL d   1       1.681 -13.109  -1.484 -0.05 -0.10    -0.247    10.539
ATOM      5  N   UNL d   1       3.872 -12.312   0.198 -0.06 -0.08    -0.354    10.539
ATOM      6  N   UNL d   1       5.861 -12.500  -2.150 -0.07 -0.01    -0.354    10.539
ATOM      7  C   UNL d   1       3.954 -13.135  -6.158 -0.34 +0.02    +0.084    10.539
ATOM      8  C   UNL d   1      -0.536 -14.081  -1.820 -0.11 +0.07    +0.084    10.539
ATOM      9  C   UNL d   1       0.835 -13.706  -2.392 -0.10 +0.03    +0.058    10.539
ATOM     10  C   UNL d   1       4.537 -13.097  -4.742 -0.17 +0.01    +0.058    10.539
ATOM     11  C   UNL d   1       2.533 -13.421  -5.776 -0.26 +0.08    +0.193    10.539
ATOM     12  C   UNL d   1       2.457 -13.527  -4.285 -0.16 +0.04    +0.109    10.539
ATOM     13  C   UNL d   1      -0.325 -13.551  -0.429 -0.11 +0.13    +0.193    10.539
ATOM     14  C   UNL d   1       4.018 -11.768  -6.842 -0.46 +0.00    +0.026    10.539
ATOM     15  C   UNL d   1       1.162 -13.898  -3.679 -0.17 +0.03    +0.055    10.539
ATOM     16  C   UNL d   1      -0.725 -15.599  -1.745 -0.09 +0.02    +0.026    10.539
ATOM     17  C   UNL d   1       1.054 -12.982  -0.358 -0.14 +0.05    +0.109    10.539
ATOM     18  C   UNL d   1       5.860 -12.961  -4.530 -0.21 +0.00    +0.050    10.539
ATOM     19  C   UNL d   1       6.498 -12.999  -3.264 -0.14 -0.00    +0.045    10.539
ATOM     20  C   UNL d   1       2.823 -12.057   1.042 -0.24 +0.01    +0.045    10.539
ATOM     21  C   UNL d   1       1.528 -12.348   0.881 -0.28 +0.02    +0.057    10.539
ATOM     22  C   UNL d   1       4.745 -11.272   1.996 -0.11 -0.00    -0.019    10.539
ATOM     23  C   UNL d   1       5.074 -11.874   0.688 -0.18 +0.01    +0.045    10.539
ATOM     24  C   UNL d   1       3.411 -11.385   2.200 -0.25 -0.01    -0.022    10.539
ATOM     25  C   UNL d   1       6.691 -12.554  -1.054 -0.15 -0.01    +0.049    10.539
ATOM     26  C   UNL d   1       7.760 -13.421  -2.875 -0.09 +0.01    -0.018    10.539
ATOM     27  C   UNL d   1       7.869 -13.155  -1.475 -0.01 -0.00    +0.003    10.539
ATOM     28  C   UNL d   1       6.312 -11.953   0.177 -0.24 +0.00    +0.052    10.539
ATOM     29  C   UNL d   1       2.606 -10.940   3.374 -0.35 +0.01    +0.046    10.539
ATOM     30  C   UNL d   1       8.801 -14.035  -3.747 -0.11 -0.02    +0.046    10.539
ATOM     31  H   UNL d   1       3.744 -12.846  -0.655 +0.05 +0.04    +0.166    10.539
ATOM     32  H   UNL d   1       4.924 -12.114  -2.166 +0.06 +0.02    +0.166    10.539
ATOM     33  C   UNL d   1       4.501 -14.244  -7.064 -0.15 +0.07    +0.141    10.539
ATOM     34  C   UNL d   1       5.535 -13.741  -8.035 -0.26 +0.09    +0.306    10.539
ATOM     35  O   UNL d   1       5.340 -13.424  -9.196 -1.02 -0.12    -0.251    10.539
ATOM     36  O   UNL d   1       6.762 -13.660  -7.490 -0.08 -0.05    -0.481    10.539
ATOM     37  H   UNL d   1       6.876 -12.709  -7.278 -0.35 -0.11    +0.295    10.539
ATOM     38  C   UNL d   1       9.023 -13.425  -0.671 -0.10 -0.01    +0.017    10.539
ATOM     39  C   UNL d   1      10.284 -13.489  -1.124 +0.05 -0.06    +0.092    10.539
ATOM     40  C   UNL d   1      11.382 -13.757  -0.191 -0.09 +0.02    +0.330    10.539
ATOM     41  O   UNL d   1      11.768 -14.838   0.213 -0.02 -0.04    -0.246    10.539
ATOM     42  O   UNL d   1      11.958 -12.606   0.186 -0.42 -0.35    -0.477    10.539
ATOM     43  H   UNL d   1      11.535 -11.933  -0.386 -0.30 +0.09    +0.295    10.539
ATOM     44  C   UNL d   1      -1.737 -13.405  -2.488 -0.19 +0.18    +0.141    10.539
ATOM     45  C   UNL d   1      -2.639 -12.696  -1.513 -0.17 +0.40    +0.306    10.539
ATOM     46  O   UNL d   1      -3.718 -13.087  -1.105 -0.35 -0.44    -0.251    10.539
ATOM     47  O   UNL d   1      -2.141 -11.509  -1.122 -0.11 -0.38    -0.481    10.539
ATOM     48  H   UNL d   1      -1.760 -11.680  -0.234 +0.15 +0.23    +0.295    10.539
ATOM     49  C   UNL d   1       5.752 -10.636   2.908 -0.13 +0.01    +0.048    10.539
ATOM     50  C   UNL d   1       7.015 -11.487   3.043 -0.10 +0.04    +0.125    10.539
ATOM     51  C   UNL d   1       8.226 -10.726   2.583 -0.13 +0.20    +0.305    10.539
ATOM     52  O   UNL d   1       9.333 -10.714   3.091 -0.56 -0.36    -0.251    10.539
ATOM     53  O   UNL d   1       7.971  -9.989   1.484 -0.23 -0.18    -0.481    10.539
ATOM     54  H   UNL d   1       8.475 -10.438   0.774 -0.27 +0.03    +0.295    10.539
TER
ENDMDL
MODEL       39
USER    Run = 39
USER    Cluster Rank = 5
USER    Number of conformations in this cluster = 2
USER  
USER    RMSD from reference structure       = 17.894 A
USER  
USER    Estimated Free Energy of Binding    =   -6.62 kcal/mol  [=(1)+(2)+(3)-(4)]
USER    Estimated Inhibition Constant, Ki   =   14.15 uM (micromolar)  [Temperature = 298.15 K]
USER    
USER    (1) Final Intermolecular Energy     =  -10.49 kcal/mol
USER        vdW + Hbond + desolv Energy     =   -9.91 kcal/mol
USER        Electrostatic Energy            =   -0.58 kcal/mol
USER    (2) Final Total Internal Energy     =   -0.78 kcal/mol
USER    (3) Torsional Free Energy           =   +3.88 kcal/mol
USER    (4) Unbound System's Energy  [=(2)] =   -0.78 kcal/mol
USER    
USER    
USER  
USER    DPF = D:/Protein_go_brrr/autodock/final/AncA/heme/dock.dpf
USER    NEWDPF move	heme_opt.pdbqt
USER    NEWDPF about	0.153000 0.018000 -0.028000
USER    NEWDPF tran0	8.287686 -5.316940 -16.666417
USER    NEWDPF axisangle0	-0.804900 0.580847 -0.121465 -152.802513
USER    NEWDPF quaternion0	-0.782335 0.564563 -0.118060 -0.235121
USER    NEWDPF dihe0	50.89 -37.28 -132.10 -179.78 39.37 113.46 -32.51 92.90 -119.05 111.26 -58.79 33.28 -55.07 
USER  
USER                              x       y       z    vdW   Elec        q     RMS 
ATOM      1  O   UNL d   1       5.303  -0.323 -17.618 -0.06 -0.03    -0.289    17.894
ATOM      2  O   UNL d   1      10.699  -1.972 -12.663 -0.52 -0.02    -0.289    17.894
ATOM      3  N   UNL d   1       6.682  -3.471 -17.336 +0.01 +0.23    -0.247    17.894
ATOM      4  N   UNL d   1       8.884  -3.080 -15.380 -0.06 +0.08    -0.247    17.894
ATOM      5  N   UNL d   1       9.897  -5.661 -16.144 -0.02 +0.08    -0.354    17.894
ATOM      6  N   UNL d   1       7.620  -6.050 -18.185 -0.09 +0.16    -0.354    17.894
ATOM      7  C   UNL d   1       5.090  -2.412 -18.869 -0.10 -0.02    +0.084    17.894
ATOM      8  C   UNL d   1       8.652  -1.241 -13.788 -0.24 +0.01    +0.084    17.894
ATOM      9  C   UNL d   1       8.122  -1.994 -15.013 -0.20 -0.01    +0.058    17.894
ATOM     10  C   UNL d   1       5.883  -3.654 -18.452 -0.11 -0.04    +0.058    17.894
ATOM     11  C   UNL d   1       5.569  -1.500 -17.780 -0.08 -0.03    +0.193    17.894
ATOM     12  C   UNL d   1       6.508  -2.266 -16.901 -0.13 -0.05    +0.109    17.894
ATOM     13  C   UNL d   1       9.876  -2.080 -13.550 -0.25 +0.01    +0.193    17.894
ATOM     14  C   UNL d   1       5.556  -1.859 -20.219 -0.03 -0.00    +0.026    17.894
ATOM     15  C   UNL d   1       7.039  -1.594 -15.698 -0.23 -0.01    +0.055    17.894
ATOM     16  C   UNL d   1       7.715  -1.385 -12.585 -0.39 +0.00    +0.026    17.894
ATOM     17  C   UNL d   1       9.904  -3.156 -14.587 -0.26 -0.01    +0.109    17.894
ATOM     18  C   UNL d   1       5.724  -4.833 -19.082 -0.15 -0.03    +0.050    17.894
ATOM     19  C   UNL d   1       6.349  -6.052 -18.715 -0.14 -0.03    +0.045    17.894
ATOM     20  C   UNL d   1      10.943  -5.214 -15.381 -0.30 -0.01    +0.045    17.894
ATOM     21  C   UNL d   1      11.021  -4.111 -14.629 -0.38 -0.00    +0.057    17.894
ATOM     22  C   UNL d   1      11.545  -7.178 -16.380 -0.17 +0.00    -0.019    17.894
ATOM     23  C   UNL d   1      10.166  -6.840 -16.787 -0.14 -0.00    +0.045    17.894
ATOM     24  C   UNL d   1      11.999  -6.212 -15.547 -0.21 +0.00    -0.022    17.894
ATOM     25  C   UNL d   1       8.063  -7.337 -17.988 -0.10 -0.01    +0.049    17.894
ATOM     26  C   UNL d   1       5.943  -7.373 -18.831 -0.16 +0.01    -0.018    17.894
ATOM     27  C   UNL d   1       7.022  -8.178 -18.352 -0.15 -0.00    +0.003    17.894
ATOM     28  C   UNL d   1       9.405  -7.593 -17.596 -0.13 -0.00    +0.052    17.894
ATOM     29  C   UNL d   1      13.322  -6.113 -14.867 -0.15 -0.00    +0.046    17.894
ATOM     30  C   UNL d   1       4.633  -7.859 -19.352 -0.20 -0.00    +0.046    17.894
ATOM     31  H   UNL d   1       9.003  -5.182 -16.143 -0.50 -0.11    +0.166    17.894
ATOM     32  H   UNL d   1       8.152  -5.206 -18.011 -0.01 -0.07    +0.166    17.894
ATOM     33  C   UNL d   1       3.565  -2.557 -18.818 -0.16 -0.03    +0.141    17.894
ATOM     34  C   UNL d   1       3.032  -3.450 -19.905 -0.08 -0.04    +0.306    17.894
ATOM     35  O   UNL d   1       2.813  -4.646 -19.812 -0.15 +0.04    -0.251    17.894
ATOM     36  O   UNL d   1       2.798  -2.788 -21.052 +0.01 +0.01    -0.481    17.894
ATOM     37  H   UNL d   1       1.896  -3.066 -21.318 +0.04 -0.01    +0.295    17.894
ATOM     38  C   UNL d   1       7.027  -9.610 -18.310 -0.13 +0.00    +0.017    17.894
ATOM     39  C   UNL d   1       6.975 -10.351 -17.193 -0.20 +0.03    +0.092    17.894
ATOM     40  C   UNL d   1       6.969 -11.814 -17.287 -0.07 +0.17    +0.330    17.894
ATOM     41  O   UNL d   1       7.847 -12.584 -16.947 -0.05 -0.07    -0.246    17.894
ATOM     42  O   UNL d   1       5.811 -12.238 -17.816 -0.52 -0.65    -0.477    17.894
ATOM     43  H   UNL d   1       6.074 -12.994 -18.380 +0.04 +0.26    +0.295    17.894
ATOM     44  C   UNL d   1       9.029   0.225 -14.025 -0.22 +0.04    +0.141    17.894
ATOM     45  C   UNL d   1       7.867   1.074 -14.466 -0.08 +0.25    +0.306    17.894
ATOM     46  O   UNL d   1       7.370   1.104 -15.578 -0.55 -0.28    -0.251    17.894
ATOM     47  O   UNL d   1       7.405   1.866 -13.481 -0.54 -0.43    -0.481    17.894
ATOM     48  H   UNL d   1       8.209   2.275 -13.095 -0.37 +0.16    +0.295    17.894
ATOM     49  C   UNL d   1      12.288  -8.393 -16.851 -0.11 -0.00    +0.048    17.894
ATOM     50  C   UNL d   1      13.078  -9.051 -15.719 -0.09 -0.00    +0.125    17.894
ATOM     51  C   UNL d   1      12.656 -10.481 -15.531 -0.08 +0.03    +0.305    17.894
ATOM     52  O   UNL d   1      13.083 -11.463 -16.112 -0.04 -0.03    -0.251    17.894
ATOM     53  O   UNL d   1      11.685 -10.603 -14.605 -0.47 -0.09    -0.481    17.894
ATOM     54  H   UNL d   1      11.526  -9.684 -14.304 -0.46 -0.03    +0.295    17.894
TER
ENDMDL
MODEL       32
USER    Run = 32
USER    Cluster Rank = 6
USER    Number of conformations in this cluster = 3
USER  
USER    RMSD from reference structure       = 17.157 A
USER  
USER    Estimated Free Energy of Binding    =   -6.35 kcal/mol  [=(1)+(2)+(3)-(4)]
USER    Estimated Inhibition Constant, Ki   =   22.24 uM (micromolar)  [Temperature = 298.15 K]
USER    
USER    (1) Final Intermolecular Energy     =  -10.23 kcal/mol
USER        vdW + Hbond + desolv Energy     =   -9.79 kcal/mol
USER        Electrostatic Energy            =   -0.44 kcal/mol
USER    (2) Final Total Internal Energy     =   -2.71 kcal/mol
USER    (3) Torsional Free Energy           =   +3.88 kcal/mol
USER    (4) Unbound System's Energy  [=(2)] =   -2.71 kcal/mol
USER    
USER    
USER  
USER    DPF = D:/Protein_go_brrr/autodock/final/AncA/heme/dock.dpf
USER    NEWDPF move	heme_opt.pdbqt
USER    NEWDPF about	0.153000 0.018000 -0.028000
USER    NEWDPF tran0	-13.467601 -14.808495 -7.936305
USER    NEWDPF axisangle0	0.455640 0.621892 0.636900 -161.164319
USER    NEWDPF quaternion0	0.449499 0.613510 0.628315 -0.163633
USER    NEWDPF dihe0	170.15 14.13 12.28 -23.13 54.89 157.76 126.17 -8.73 154.80 3.42 -57.71 -59.42 23.53 
USER  
USER                              x       y       z    vdW   Elec        q     RMS 
ATOM      1  O   UNL d   1      -9.344 -18.980  -8.530 -0.15 -0.21    -0.289    17.157
ATOM      2  O   UNL d   1     -14.912 -16.867 -13.105 -0.10 -0.20    -0.289    17.157
ATOM      3  N   UNL d   1     -11.631 -16.540  -7.686 -0.15 -0.05    -0.247    17.157
ATOM      4  N   UNL d   1     -13.211 -16.193 -10.179 -0.10 -0.05    -0.247    17.157
ATOM      5  N   UNL d   1     -14.285 -13.776  -9.052 -0.11 -0.04    -0.354    17.157
ATOM      6  N   UNL d   1     -12.627 -14.133  -6.478 -0.13 -0.05    -0.354    17.157
ATOM      7  C   UNL d   1      -9.587 -17.423  -6.661 -0.21 +0.05    +0.084    17.157
ATOM      8  C   UNL d   1     -13.332 -18.101 -11.700 -0.07 +0.03    +0.084    17.157
ATOM      9  C   UNL d   1     -12.752 -17.466 -10.432 -0.14 +0.02    +0.058    17.157
ATOM     10  C   UNL d   1     -10.761 -16.441  -6.613 -0.23 +0.02    +0.058    17.157
ATOM     11  C   UNL d   1      -9.957 -18.107  -7.943 -0.15 +0.11    +0.193    17.157
ATOM     12  C   UNL d   1     -11.227 -17.500  -8.453 -0.17 +0.04    +0.109    17.157
ATOM     13  C   UNL d   1     -14.176 -16.938 -12.140 -0.10 +0.10    +0.193    17.157
ATOM     14  C   UNL d   1      -8.247 -16.707  -6.851 -0.19 +0.02    +0.026    17.157
ATOM     15  C   UNL d   1     -11.838 -18.081  -9.665 -0.18 +0.02    +0.055    17.157
ATOM     16  C   UNL d   1     -14.253 -19.282 -11.375 -0.02 +0.01    +0.026    17.157
ATOM     17  C   UNL d   1     -14.008 -15.843 -11.137 -0.18 +0.04    +0.109    17.157
ATOM     18  C   UNL d   1     -10.954 -15.627  -5.558 -0.13 +0.02    +0.050    17.157
ATOM     19  C   UNL d   1     -12.054 -14.748  -5.388 -0.16 +0.01    +0.045    17.157
ATOM     20  C   UNL d   1     -14.747 -13.662 -10.337 -0.23 +0.01    +0.045    17.157
ATOM     21  C   UNL d   1     -14.687 -14.554 -11.331 -0.22 +0.03    +0.057    17.157
ATOM     22  C   UNL d   1     -15.214 -11.730  -9.211 -0.21 -0.00    -0.019    17.157
ATOM     23  C   UNL d   1     -14.520 -12.658  -8.296 -0.21 +0.00    +0.045    17.157
ATOM     24  C   UNL d   1     -15.347 -12.331 -10.418 -0.21 -0.01    -0.022    17.157
ATOM     25  C   UNL d   1     -13.612 -13.260  -6.077 -0.18 +0.01    +0.049    17.157
ATOM     26  C   UNL d   1     -12.707 -14.291  -4.253 -0.14 -0.00    -0.018    17.157
ATOM     27  C   UNL d   1     -13.703 -13.367  -4.696 -0.16 +0.00    +0.003    17.157
ATOM     28  C   UNL d   1     -14.241 -12.392  -7.011 -0.22 +0.00    +0.052    17.157
ATOM     29  C   UNL d   1     -15.987 -11.804 -11.657 -0.14 +0.02    +0.046    17.157
ATOM     30  C   UNL d   1     -12.427 -14.689  -2.844 -0.17 +0.01    +0.046    17.157
ATOM     31  H   UNL d   1     -13.887 -14.644  -8.711 -0.01 +0.01    +0.166    17.157
ATOM     32  H   UNL d   1     -12.323 -14.285  -7.432 -0.17 +0.00    +0.166    17.157
ATOM     33  C   UNL d   1      -9.527 -18.433  -5.510 -0.08 +0.08    +0.141    17.157
ATOM     34  C   UNL d   1      -8.144 -18.985  -5.295 -0.05 +0.22    +0.306    17.157
ATOM     35  O   UNL d   1      -7.409 -18.740  -4.354 -0.04 -0.20    -0.251    17.157
ATOM     36  O   UNL d   1      -7.761 -19.820  -6.278 -0.06 -0.44    -0.481    17.157
ATOM     37  H   UNL d   1      -8.583 -20.002  -6.781 +0.05 +0.23    +0.295    17.157
ATOM     38  C   UNL d   1     -14.598 -12.646  -3.842 -0.26 +0.00    +0.017    17.157
ATOM     39  C   UNL d   1     -15.217 -11.499  -4.160 -0.31 +0.00    +0.092    17.157
ATOM     40  C   UNL d   1     -16.126 -10.869  -3.199 -0.26 +0.00    +0.330    17.157
ATOM     41  O   UNL d   1     -16.439  -9.696  -3.131 -0.55 +0.04    -0.246    17.157
ATOM     42  O   UNL d   1     -16.614 -11.790  -2.353 -0.60 -0.08    -0.477    17.157
ATOM     43  H   UNL d   1     -17.363 -11.334  -1.917 -0.39 -0.08    +0.295    17.157
ATOM     44  C   UNL d   1     -12.310 -18.476 -12.778 -0.09 +0.06    +0.141    17.157
ATOM     45  C   UNL d   1     -11.305 -17.388 -13.048 -0.10 +0.12    +0.306    17.157
ATOM     46  O   UNL d   1     -10.297 -17.153 -12.404 -0.13 -0.08    -0.251    17.157
ATOM     47  O   UNL d   1     -11.640 -16.630 -14.108 -0.32 -0.36    -0.481    17.157
ATOM     48  H   UNL d   1     -10.839 -16.096 -14.293 -0.43 +0.11    +0.295    17.157
ATOM     49  C   UNL d   1     -15.666 -10.351  -8.830 -0.23 +0.00    +0.048    17.157
ATOM     50  C   UNL d   1     -16.661 -10.379  -7.670 -0.12 +0.01    +0.125    17.157
ATOM     51  C   UNL d   1     -16.170  -9.544  -6.522 -0.20 +0.00    +0.305    17.157
ATOM     52  O   UNL d   1     -15.044  -9.114  -6.344 -0.28 -0.01    -0.251    17.157
ATOM     53  O   UNL d   1     -17.145  -9.296  -5.625 -0.08 +0.05    -0.481    17.157
ATOM     54  H   UNL d   1     -16.662  -9.111  -4.793 -0.36 -0.10    +0.295    17.157
TER
ENDMDL
MODEL       60
USER    Run = 60
USER    Cluster Rank = 7
USER    Number of conformations in this cluster = 6
USER  
USER    RMSD from reference structure       = 17.515 A
USER  
USER    Estimated Free Energy of Binding    =   -6.33 kcal/mol  [=(1)+(2)+(3)-(4)]
USER    Estimated Inhibition Constant, Ki   =   22.91 uM (micromolar)  [Temperature = 298.15 K]
USER    
USER    (1) Final Intermolecular Energy     =  -10.21 kcal/mol
USER        vdW + Hbond + desolv Energy     =   -9.10 kcal/mol
USER        Electrostatic Energy            =   -1.10 kcal/mol
USER    (2) Final Total Internal Energy     =   -1.96 kcal/mol
USER    (3) Torsional Free Energy           =   +3.88 kcal/mol
USER    (4) Unbound System's Energy  [=(2)] =   -1.96 kcal/mol
USER    
USER    
USER  
USER    DPF = D:/Protein_go_brrr/autodock/final/AncA/heme/dock.dpf
USER    NEWDPF move	heme_opt.pdbqt
USER    NEWDPF about	0.153000 0.018000 -0.028000
USER    NEWDPF tran0	12.912410 -2.567898 -14.779702
USER    NEWDPF axisangle0	-0.060842 -0.302750 0.951126 -167.351687
USER    NEWDPF quaternion0	-0.060472 -0.300907 0.945338 -0.110153
USER    NEWDPF dihe0	-107.15 -91.34 176.09 144.38 33.77 -179.30 -57.98 -98.61 133.14 -115.30 41.92 -12.13 41.49 
USER  
USER                              x       y       z    vdW   Elec        q     RMS 
ATOM      1  O   UNL d   1      17.939  -5.643 -14.968 -0.02 -0.01    -0.289    17.515
ATOM      2  O   UNL d   1      16.604   1.510 -13.112 -0.19 +0.01    -0.289    17.515
ATOM      3  N   UNL d   1      14.800  -4.223 -15.139 -0.02 +0.05    -0.247    17.515
ATOM      4  N   UNL d   1      15.203  -1.531 -13.948 -0.14 +0.07    -0.247    17.515
ATOM      5  N   UNL d   1      12.343  -1.278 -13.784 -0.10 +0.02    -0.354    17.515
ATOM      6  N   UNL d   1      11.935  -4.080 -15.002 -0.12 +0.04    -0.354    17.515
ATOM      7  C   UNL d   1      15.693  -6.486 -15.438 -0.10 +0.00    +0.084    17.515
ATOM      8  C   UNL d   1      17.447  -0.574 -14.081 -0.10 -0.02    +0.084    17.515
ATOM      9  C   UNL d   1      16.510  -1.763 -14.314 -0.15 -0.01    +0.058    17.515
ATOM     10  C   UNL d   1      14.487  -5.542 -15.423 -0.15 -0.00    +0.058    17.515
ATOM     11  C   UNL d   1      16.746  -5.464 -15.131 -0.06 -0.00    +0.193    17.515
ATOM     12  C   UNL d   1      16.082  -4.128 -14.998 -0.09 -0.01    +0.109    17.515
ATOM     13  C   UNL d   1      16.438   0.364 -13.480 -0.07 -0.06    +0.193    17.515
ATOM     14  C   UNL d   1      15.642  -7.503 -14.295 -0.18 +0.00    +0.026    17.515
ATOM     15  C   UNL d   1      16.939  -2.944 -14.785 -0.13 -0.01    +0.055    17.515
ATOM     16  C   UNL d   1      17.948   0.022 -15.400 -0.05 +0.00    +0.026    17.515
ATOM     17  C   UNL d   1      15.119  -0.339 -13.449 -0.18 -0.04    +0.109    17.515
ATOM     18  C   UNL d   1      13.254  -5.971 -15.751 -0.20 -0.00    +0.050    17.515
ATOM     19  C   UNL d   1      12.098  -5.156 -15.845 -0.19 -0.00    +0.045    17.515
ATOM     20  C   UNL d   1      12.719  -0.182 -13.051 -0.33 -0.00    +0.045    17.515
ATOM     21  C   UNL d   1      13.943   0.324 -12.869 -0.40 -0.01    +0.057    17.515
ATOM     22  C   UNL d   1      10.453  -0.430 -12.899 -0.33 -0.00    -0.019    17.515
ATOM     23  C   UNL d   1      10.994  -1.508 -13.752 -0.26 +0.00    +0.045    17.515
ATOM     24  C   UNL d   1      11.479   0.352 -12.489 -0.40 -0.00    -0.022    17.515
ATOM     25  C   UNL d   1      10.710  -3.488 -15.205 -0.22 -0.00    +0.049    17.515
ATOM     26  C   UNL d   1      10.966  -5.243 -16.641 -0.14 +0.00    -0.018    17.515
ATOM     27  C   UNL d   1      10.102  -4.175 -16.246 -0.15 -0.00    +0.003    17.515
ATOM     28  C   UNL d   1      10.249  -2.454 -14.345 -0.29 -0.00    +0.052    17.515
ATOM     29  C   UNL d   1      11.439   1.567 -11.625 -0.51 +0.01    +0.046    17.515
ATOM     30  C   UNL d   1      10.702  -6.253 -17.706 -0.09 -0.00    +0.046    17.515
ATOM     31  H   UNL d   1      13.015  -1.791 -14.345 +0.02 -0.02    +0.166    17.515
ATOM     32  H   UNL d   1      12.619  -3.805 -14.307 -0.35 -0.05    +0.166    17.515
ATOM     33  C   UNL d   1      15.979  -7.165 -16.782 -0.02 +0.01    +0.141    17.515
ATOM     34  C   UNL d   1      17.162  -8.092 -16.723 +0.00 +0.02    +0.306    17.515
ATOM     35  O   UNL d   1      17.139  -9.271 -16.412 -0.00 -0.02    -0.251    17.515
ATOM     36  O   UNL d   1      18.314  -7.485 -17.062 +0.00 -0.03    -0.481    17.515
ATOM     37  H   UNL d   1      18.500  -6.875 -16.316 +0.01 +0.02    +0.295    17.515
ATOM     38  C   UNL d   1       8.811  -3.908 -16.805 +0.09 -0.01    +0.017    17.515
ATOM     39  C   UNL d   1       8.201  -2.713 -16.808 -0.13 -0.03    +0.092    17.515
ATOM     40  C   UNL d   1       6.883  -2.568 -17.431 -0.07 -0.14    +0.330    17.515
ATOM     41  O   UNL d   1       6.197  -1.565 -17.495 -0.09 +0.04    -0.246    17.515
ATOM     42  O   UNL d   1       6.495  -3.735 -17.967 -0.07 +0.37    -0.477    17.515
ATOM     43  H   UNL d   1       6.032  -4.188 -17.233 -0.18 -0.59    +0.295    17.515
ATOM     44  C   UNL d   1      18.606  -0.826 -13.111 -0.10 -0.04    +0.141    17.515
ATOM     45  C   UNL d   1      19.273   0.438 -12.640 -0.07 +0.00    +0.306    17.515
ATOM     46  O   UNL d   1      20.332   0.893 -13.036 -0.02 -0.03    -0.251    17.515
ATOM     47  O   UNL d   1      18.578   1.055 -11.667 -0.11 -0.19    -0.481    17.515
ATOM     48  H   UNL d   1      17.755   0.529 -11.579 -0.36 -0.10    +0.295    17.515
ATOM     49  C   UNL d   1       9.001  -0.276 -12.556 -0.38 +0.01    +0.048    17.515
ATOM     50  C   UNL d   1       8.101  -0.528 -13.765 -0.27 +0.02    +0.125    17.515
ATOM     51  C   UNL d   1       6.998   0.491 -13.835 -0.23 +0.13    +0.305    17.515
ATOM     52  O   UNL d   1       5.823   0.334 -13.555 -0.34 -0.07    -0.251    17.515
ATOM     53  O   UNL d   1       7.442   1.684 -14.278 -0.67 -0.63    -0.481    17.515
ATOM     54  H   UNL d   1       8.340   1.762 -13.893 -0.44 +0.21    +0.295    17.515
TER
ENDMDL
MODEL       19
USER    Run = 19
USER    Cluster Rank = 8
USER    Number of conformations in this cluster = 3
USER  
USER    RMSD from reference structure       = 15.451 A
USER  
USER    Estimated Free Energy of Binding    =   -6.05 kcal/mol  [=(1)+(2)+(3)-(4)]
USER    Estimated Inhibition Constant, Ki   =   36.83 uM (micromolar)  [Temperature = 298.15 K]
USER    
USER    (1) Final Intermolecular Energy     =   -9.93 kcal/mol
USER        vdW + Hbond + desolv Energy     =   -9.32 kcal/mol
USER        Electrostatic Energy            =   -0.61 kcal/mol
USER    (2) Final Total Internal Energy     =   -3.15 kcal/mol
USER    (3) Torsional Free Energy           =   +3.88 kcal/mol
USER    (4) Unbound System's Energy  [=(2)] =   -3.15 kcal/mol
USER    
USER    
USER  
USER    DPF = D:/Protein_go_brrr/autodock/final/AncA/heme/dock.dpf
USER    NEWDPF move	heme_opt.pdbqt
USER    NEWDPF about	0.153000 0.018000 -0.028000
USER    NEWDPF tran0	-4.864268 0.076475 -16.355008
USER    NEWDPF axisangle0	0.520498 0.435131 -0.734672 -64.944929
USER    NEWDPF quaternion0	0.279452 0.233619 -0.394441 -0.843650
USER    NEWDPF dihe0	114.98 -136.31 -150.38 128.79 -133.49 11.64 -69.04 -87.13 28.46 -133.70 -40.86 -96.43 29.28 
USER  
USER                              x       y       z    vdW   Elec        q     RMS 
ATOM      1  O   UNL d   1      -6.660   3.553 -11.945 -0.31 -0.04    -0.289    15.451
ATOM      2  O   UNL d   1     -10.537  -0.048 -17.274 -0.07 +0.14    -0.289    15.451
ATOM      3  N   UNL d   1      -5.144   1.713 -14.437 -0.14 +0.01    -0.247    15.451
ATOM      4  N   UNL d   1      -7.436   0.449 -15.844 -0.17 +0.05    -0.247    15.451
ATOM      5  N   UNL d   1      -5.556  -1.292 -17.149 -0.08 +0.02    -0.354    15.451
ATOM      6  N   UNL d   1      -3.185   0.013 -15.671 -0.08 +0.02    -0.354    15.451
ATOM      7  C   UNL d   1      -4.361   2.873 -12.425 -0.30 +0.01    +0.084    15.451
ATOM      8  C   UNL d   1      -9.589   1.599 -15.730 -0.19 -0.04    +0.084    15.451
ATOM      9  C   UNL d   1      -8.125   1.504 -15.289 -0.26 -0.02    +0.058    15.451
ATOM     10  C   UNL d   1      -4.041   2.024 -13.659 -0.23 -0.00    +0.058    15.451
ATOM     11  C   UNL d   1      -5.837   3.002 -12.654 -0.25 +0.01    +0.193    15.451
ATOM     12  C   UNL d   1      -6.184   2.278 -13.918 -0.25 -0.00    +0.109    15.451
ATOM     13  C   UNL d   1      -9.613   0.380 -16.609 -0.13 -0.09    +0.193    15.451
ATOM     14  C   UNL d   1      -4.127   2.105 -11.122 -0.56 +0.00    +0.026    15.451
ATOM     15  C   UNL d   1      -7.579   2.347 -14.398 -0.28 -0.01    +0.055    15.451
ATOM     16  C   UNL d   1      -9.842   2.836 -16.597 -0.08 -0.00    +0.026    15.451
ATOM     17  C   UNL d   1      -8.250  -0.230 -16.586 -0.18 -0.03    +0.109    15.451
ATOM     18  C   UNL d   1      -2.775   1.702 -13.981 -0.27 -0.00    +0.050    15.451
ATOM     19  C   UNL d   1      -2.377   0.994 -15.144 -0.22 -0.00    +0.045    15.451
ATOM     20  C   UNL d   1      -6.730  -1.893 -17.520 -0.18 -0.01    +0.045    15.451
ATOM     21  C   UNL d   1      -7.984  -1.472 -17.329 -0.20 -0.01    +0.057    15.451
ATOM     22  C   UNL d   1      -4.985  -3.205 -18.190 -0.30 +0.00    -0.019    15.451
ATOM     23  C   UNL d   1      -4.447  -2.010 -17.510 -0.26 -0.00    +0.045    15.451
ATOM     24  C   UNL d   1      -6.337  -3.130 -18.194 -0.26 +0.00    -0.022    15.451
ATOM     25  C   UNL d   1      -2.568  -0.602 -16.736 -0.17 -0.00    +0.049    15.451
ATOM     26  C   UNL d   1      -1.221   1.044 -15.908 -0.23 +0.00    -0.018    15.451
ATOM     27  C   UNL d   1      -1.356   0.047 -16.924 -0.21 +0.00    +0.003    15.451
ATOM     28  C   UNL d   1      -3.141  -1.751 -17.346 -0.20 -0.00    +0.052    15.451
ATOM     29  C   UNL d   1      -7.323  -4.087 -18.771 -0.27 -0.01    +0.046    15.451
ATOM     30  C   UNL d   1      -0.062   1.961 -15.711 -0.13 -0.00    +0.046    15.451
ATOM     31  H   UNL d   1      -5.547  -0.370 -16.724 +0.06 -0.01    +0.166    15.451
ATOM     32  H   UNL d   1      -4.089  -0.235 -15.286 +0.05 -0.01    +0.166    15.451
ATOM     33  C   UNL d   1      -3.700   4.255 -12.389 -0.19 +0.03    +0.141    15.451
ATOM     34  C   UNL d   1      -4.369   5.242 -13.307 -0.08 +0.09    +0.306    15.451
ATOM     35  O   UNL d   1      -4.217   5.321 -14.515 -0.03 -0.05    -0.251    15.451
ATOM     36  O   UNL d   1      -5.198   6.076 -12.655 -0.07 -0.27    -0.481    15.451
ATOM     37  H   UNL d   1      -5.931   5.503 -12.344 +0.11 +0.13    +0.295    15.451
ATOM     38  C   UNL d   1      -0.376  -0.250 -17.924 -0.17 +0.00    +0.017    15.451
ATOM     39  C   UNL d   1       0.218  -1.441 -18.097 -0.23 -0.00    +0.092    15.451
ATOM     40  C   UNL d   1       1.196  -1.619 -19.174 -0.06 -0.01    +0.330    15.451
ATOM     41  O   UNL d   1       1.690  -0.760 -19.880 -0.03 -0.00    -0.246    15.451
ATOM     42  O   UNL d   1       1.514  -2.917 -19.298 -0.05 +0.04    -0.477    15.451
ATOM     43  H   UNL d   1       0.652  -3.377 -19.235 +0.11 -0.02    +0.295    15.451
ATOM     44  C   UNL d   1     -10.626   1.486 -14.608 -0.04 -0.14    +0.141    15.451
ATOM     45  C   UNL d   1     -12.042   1.666 -15.087 -0.10 -0.24    +0.306    15.451
ATOM     46  O   UNL d   1     -12.790   2.588 -14.812 -0.09 +0.10    -0.251    15.451
ATOM     47  O   UNL d   1     -12.452   0.653 -15.871 -0.04 +0.47    -0.481    15.451
ATOM     48  H   UNL d   1     -11.939  -0.124 -15.562 -0.48 -0.57    +0.295    15.451
ATOM     49  C   UNL d   1      -4.136  -4.307 -18.755 -0.16 -0.01    +0.048    15.451
ATOM     50  C   UNL d   1      -3.084  -3.773 -19.727 -0.25 -0.03    +0.125    15.451
ATOM     51  C   UNL d   1      -1.775  -4.487 -19.547 -0.23 -0.08    +0.305    15.451
ATOM     52  O   UNL d   1      -0.836  -4.152 -18.847 -0.28 +0.04    -0.251    15.451
ATOM     53  O   UNL d   1      -1.709  -5.612 -20.287 -0.17 +0.18    -0.481    15.451
ATOM     54  H   UNL d   1      -2.530  -6.096 -20.058 -0.44 -0.23    +0.295    15.451
TER
ENDMDL
MODEL       31
USER    Run = 31
USER    Cluster Rank = 9
USER    Number of conformations in this cluster = 1
USER  
USER    RMSD from reference structure       = 13.106 A
USER  
USER    Estimated Free Energy of Binding    =   -5.98 kcal/mol  [=(1)+(2)+(3)-(4)]
USER    Estimated Inhibition Constant, Ki   =   41.44 uM (micromolar)  [Temperature = 298.15 K]
USER    
USER    (1) Final Intermolecular Energy     =   -9.86 kcal/mol
USER        vdW + Hbond + desolv Energy     =   -9.40 kcal/mol
USER        Electrostatic Energy            =   -0.46 kcal/mol
USER    (2) Final Total Internal Energy     =   -2.01 kcal/mol
USER    (3) Torsional Free Energy           =   +3.88 kcal/mol
USER    (4) Unbound System's Energy  [=(2)] =   -2.01 kcal/mol
USER    
USER    
USER  
USER    DPF = D:/Protein_go_brrr/autodock/final/AncA/heme/dock.dpf
USER    NEWDPF move	heme_opt.pdbqt
USER    NEWDPF about	0.153000 0.018000 -0.028000
USER    NEWDPF tran0	-11.439159 -11.890034 -4.068018
USER    NEWDPF axisangle0	-0.436056 0.005764 0.899901 -108.495766
USER    NEWDPF quaternion0	-0.353883 0.004678 0.730317 -0.584280
USER    NEWDPF dihe0	139.66 35.39 -86.17 9.11 -136.79 -45.34 140.66 -41.99 17.56 -64.36 24.78 121.88 -70.26 
USER  
USER                              x       y       z    vdW   Elec        q     RMS 
ATOM      1  O   UNL d   1     -12.843 -16.923  -1.338 -0.03 -0.07    -0.289    13.106
ATOM      2  O   UNL d   1      -6.303 -13.275  -1.893 -0.21 -0.52    -0.289    13.106
ATOM      3  N   UNL d   1     -12.466 -14.034  -3.183 -0.11 -0.05    -0.247    13.106
ATOM      4  N   UNL d   1      -9.686 -13.186  -2.565 -0.09 -0.13    -0.247    13.106
ATOM      5  N   UNL d   1     -10.302 -10.634  -3.738 -0.15 -0.09    -0.354    13.106
ATOM      6  N   UNL d   1     -13.190 -11.515  -4.358 -0.14 -0.01    -0.354    13.106
ATOM      7  C   UNL d   1     -14.367 -15.446  -2.550 -0.12 +0.01    +0.084    13.106
ATOM      8  C   UNL d   1      -8.107 -14.930  -1.904 -0.11 +0.09    +0.084    13.106
ATOM      9  C   UNL d   1      -9.541 -14.520  -2.257 -0.12 +0.04    +0.058    13.106
ATOM     10  C   UNL d   1     -13.837 -14.206  -3.277 -0.15 +0.01    +0.058    13.106
ATOM     11  C   UNL d   1     -13.050 -15.955  -2.046 -0.08 +0.04    +0.193    13.106
ATOM     12  C   UNL d   1     -11.973 -15.027  -2.517 -0.12 +0.03    +0.109    13.106
ATOM     13  C   UNL d   1      -7.473 -13.573  -2.033 -0.14 +0.24    +0.193    13.106
ATOM     14  C   UNL d   1     -15.248 -15.078  -1.353 -0.08 +0.00    +0.026    13.106
ATOM     15  C   UNL d   1     -10.571 -15.379  -2.217 -0.10 +0.02    +0.055    13.106
ATOM     16  C   UNL d   1      -7.504 -15.858  -2.963 -0.09 +0.04    +0.026    13.106
ATOM     17  C   UNL d   1      -8.538 -12.604  -2.431 -0.15 +0.08    +0.109    13.106
ATOM     18  C   UNL d   1     -14.648 -13.421  -4.010 -0.17 +0.01    +0.050    13.106
ATOM     19  C   UNL d   1     -14.235 -12.305  -4.782 -0.20 +0.00    +0.045    13.106
ATOM     20  C   UNL d   1      -9.084 -10.348  -3.177 -0.31 +0.02    +0.045    13.106
ATOM     21  C   UNL d   1      -8.216 -11.178  -2.591 -0.28 +0.03    +0.057    13.106
ATOM     22  C   UNL d   1      -9.996  -8.417  -3.987 -0.52 -0.00    -0.019    13.106
ATOM     23  C   UNL d   1     -10.928  -9.531  -4.253 -0.47 +0.01    +0.045    13.106
ATOM     24  C   UNL d   1      -8.906  -8.907  -3.351 -0.45 -0.01    -0.022    13.106
ATOM     25  C   UNL d   1     -13.019 -10.444  -5.204 -0.39 +0.00    +0.049    13.106
ATOM     26  C   UNL d   1     -14.731 -11.755  -5.954 -0.19 -0.00    -0.018    13.106
ATOM     27  C   UNL d   1     -13.947 -10.591  -6.226 -0.37 -0.00    +0.003    13.106
ATOM     28  C   UNL d   1     -12.103  -9.404  -4.888 -0.25 +0.00    +0.052    13.106
ATOM     29  C   UNL d   1      -7.691  -8.179  -2.886 -0.29 +0.02    +0.046    13.106
ATOM     30  C   UNL d   1     -15.862 -12.276  -6.773 -0.10 +0.00    +0.046    13.106
ATOM     31  H   UNL d   1     -10.633 -11.590  -3.816 +0.09 +0.04    +0.166    13.106
ATOM     32  H   UNL d   1     -12.661 -11.693  -3.512 +0.04 +0.01    +0.166    13.106
ATOM     33  C   UNL d   1     -15.041 -16.493  -3.444 -0.03 +0.02    +0.141    13.106
ATOM     34  C   UNL d   1     -14.084 -17.128  -4.415 -0.00 +0.06    +0.306    13.106
ATOM     35  O   UNL d   1     -13.737 -16.668  -5.490 -0.02 -0.05    -0.251    13.106
ATOM     36  O   UNL d   1     -13.611 -18.309  -3.980 +0.01 -0.11    -0.481    13.106
ATOM     37  H   UNL d   1     -13.409 -18.159  -3.032 +0.02 +0.07    +0.295    13.106
ATOM     38  C   UNL d   1     -14.134  -9.712  -7.341 -0.33 -0.00    +0.017    13.106
ATOM     39  C   UNL d   1     -14.761 -10.033  -8.483 -0.29 -0.01    +0.092    13.106
ATOM     40  C   UNL d   1     -14.902  -9.032  -9.544 -0.22 -0.03    +0.330    13.106
ATOM     41  O   UNL d   1     -15.274  -7.879  -9.434 -0.13 +0.02    -0.246    13.106
ATOM     42  O   UNL d   1     -14.543  -9.558 -10.725 -0.10 +0.00    -0.477    13.106
ATOM     43  H   UNL d   1     -14.118  -8.812 -11.195 -0.38 -0.07    +0.295    13.106
ATOM     44  C   UNL d   1      -7.909 -15.496  -0.494 -0.07 +0.15    +0.141    13.106
ATOM     45  C   UNL d   1      -7.059 -14.618   0.385 -0.06 +0.48    +0.306    13.106
ATOM     46  O   UNL d   1      -7.455 -13.797   1.193 -0.18 -0.37    -0.251    13.106
ATOM     47  O   UNL d   1      -5.742 -14.804   0.178 -0.62 -1.09    -0.481    13.106
ATOM     48  H   UNL d   1      -5.499 -14.129  -0.491 +0.07 +0.61    +0.295    13.106
ATOM     49  C   UNL d   1     -10.262  -6.988  -4.362 -0.23 +0.01    +0.048    13.106
ATOM     50  C   UNL d   1      -8.966  -6.204  -4.568 -0.32 +0.03    +0.125    13.106
ATOM     51  C   UNL d   1      -9.182  -4.737  -4.326 -0.33 +0.05    +0.305    13.106
ATOM     52  O   UNL d   1     -10.074  -4.035  -4.769 -0.46 -0.04    -0.251    13.106
ATOM     53  O   UNL d   1      -8.232  -4.213  -3.527 -0.11 -0.08    -0.481    13.106
ATOM     54  H   UNL d   1      -8.558  -3.309  -3.332 +0.26 +0.04    +0.295    13.106
TER
ENDMDL
MODEL       76
USER    Run = 76
USER    Cluster Rank = 10
USER    Number of conformations in this cluster = 3
USER  
USER    RMSD from reference structure       = 14.740 A
USER  
USER    Estimated Free Energy of Binding    =   -5.92 kcal/mol  [=(1)+(2)+(3)-(4)]
USER    Estimated Inhibition Constant, Ki   =   45.94 uM (micromolar)  [Temperature = 298.15 K]
USER    
USER    (1) Final Intermolecular Energy     =   -9.80 kcal/mol
USER        vdW + Hbond + desolv Energy     =   -8.71 kcal/mol
USER        Electrostatic Energy            =   -1.09 kcal/mol
USER    (2) Final Total Internal Energy     =   -2.54 kcal/mol
USER    (3) Torsional Free Energy           =   +3.88 kcal/mol
USER    (4) Unbound System's Energy  [=(2)] =   -2.54 kcal/mol
USER    
USER    
USER  
USER    DPF = D:/Protein_go_brrr/autodock/final/AncA/heme/dock.dpf
USER    NEWDPF move	heme_opt.pdbqt
USER    NEWDPF about	0.153000 0.018000 -0.028000
USER    NEWDPF tran0	-7.816560 2.668297 -14.652612
USER    NEWDPF axisangle0	-0.356992 0.914080 0.192390 -164.295883
USER    NEWDPF quaternion0	-0.353645 0.905510 0.190586 -0.136616
USER    NEWDPF dihe0	16.06 -148.07 92.10 -51.71 30.91 -28.65 16.15 24.54 164.73 152.99 -66.89 -14.70 -15.38 
USER  
USER                              x       y       z    vdW   Elec        q     RMS 
ATOM      1  O   UNL d   1      -4.915   7.400 -12.665 -0.16 -0.35    -0.289    14.740
ATOM      2  O   UNL d   1      -2.745   0.252 -13.436 -0.31 +0.05    -0.289    14.740
ATOM      3  N   UNL d   1      -7.036   4.912 -13.763 -0.66 -0.07    -0.247    14.740
ATOM      4  N   UNL d   1      -5.245   2.556 -14.029 -0.12 -0.00    -0.247    14.740
ATOM      5  N   UNL d   1      -7.335   1.252 -15.513 -0.12 +0.06    -0.354    14.740
ATOM      6  N   UNL d   1      -9.179   3.707 -15.248 -0.08 +0.03    -0.354    14.740
ATOM      7  C   UNL d   1      -7.200   7.346 -13.533 -0.13 +0.03    +0.084    14.740
ATOM      8  C   UNL d   1      -3.245   2.507 -12.626 -0.25 +0.00    +0.084    14.740
ATOM      9  C   UNL d   1      -4.481   3.262 -13.128 -0.21 +0.01    +0.058    14.740
ATOM     10  C   UNL d   1      -7.846   6.020 -13.943 -0.03 +0.02    +0.058    14.740
ATOM     11  C   UNL d   1      -5.887   6.789 -13.072 -0.13 +0.12    +0.193    14.740
ATOM     12  C   UNL d   1      -5.921   5.301 -13.237 -0.18 +0.03    +0.109    14.740
ATOM     13  C   UNL d   1      -3.430   1.256 -13.438 -0.24 -0.01    +0.193    14.740
ATOM     14  C   UNL d   1      -6.954   8.262 -14.736 -0.04 +0.01    +0.026    14.740
ATOM     15  C   UNL d   1      -4.762   4.521 -12.759 -0.24 +0.01    +0.055    14.740
ATOM     16  C   UNL d   1      -3.362   2.152 -11.141 -0.52 +0.00    +0.026    14.740
ATOM     17  C   UNL d   1      -4.674   1.416 -14.251 -0.22 -0.00    +0.109    14.740
ATOM     18  C   UNL d   1      -9.127   5.960 -14.354 -0.07 +0.01    +0.050    14.740
ATOM     19  C   UNL d   1      -9.834   4.772 -14.672 -0.09 -0.00    +0.045    14.740
ATOM     20  C   UNL d   1      -6.307   0.370 -15.728 -0.12 -0.00    +0.045    14.740
ATOM     21  C   UNL d   1      -5.087   0.356 -15.183 -0.13 -0.00    +0.057    14.740
ATOM     22  C   UNL d   1      -8.091  -0.247 -17.014 -0.17 +0.00    -0.019    14.740
ATOM     23  C   UNL d   1      -8.454   0.961 -16.246 -0.19 -0.01    +0.045    14.740
ATOM     24  C   UNL d   1      -6.820  -0.593 -16.702 -0.17 +0.00    -0.022    14.740
ATOM     25  C   UNL d   1     -10.067   2.702 -15.554 -0.16 -0.01    +0.049    14.740
ATOM     26  C   UNL d   1     -11.175   4.436 -14.567 -0.14 +0.00    -0.018    14.740
ATOM     27  C   UNL d   1     -11.312   3.120 -15.108 -0.16 -0.00    +0.003    14.740
ATOM     28  C   UNL d   1      -9.651   1.564 -16.298 -0.16 -0.02    +0.052    14.740
ATOM     29  C   UNL d   1      -6.015  -1.741 -17.208 -0.24 -0.00    +0.046    14.740
ATOM     30  C   UNL d   1     -12.263   5.282 -13.999 -0.14 -0.00    +0.046    14.740
ATOM     31  H   UNL d   1      -7.262   1.983 -14.814 +0.06 -0.02    +0.166    14.740
ATOM     32  H   UNL d   1      -8.186   3.702 -15.449 +0.04 -0.00    +0.166    14.740
ATOM     33  C   UNL d   1      -7.898   8.093 -12.392 -0.15 +0.08    +0.141    14.740
ATOM     34  C   UNL d   1      -7.784   9.588 -12.522 -0.06 +0.18    +0.306    14.740
ATOM     35  O   UNL d   1      -8.516  10.312 -13.175 -0.01 -0.08    -0.251    14.740
ATOM     36  O   UNL d   1      -6.754  10.092 -11.819 -0.33 -0.69    -0.481    14.740
ATOM     37  H   UNL d   1      -6.917  11.059 -11.802 +0.02 +0.25    +0.295    14.740
ATOM     38  C   UNL d   1     -12.542   2.394 -15.208 -0.14 -0.01    +0.017    14.740
ATOM     39  C   UNL d   1     -12.648   1.060 -15.310 -0.07 -0.09    +0.092    14.740
ATOM     40  C   UNL d   1     -13.972   0.437 -15.389 +0.02 -0.26    +0.330    14.740
ATOM     41  O   UNL d   1     -15.010   0.830 -14.892 -0.04 +0.11    -0.246    14.740
ATOM     42  O   UNL d   1     -13.911  -0.684 -16.124 -0.02 +0.42    -0.477    14.740
ATOM     43  H   UNL d   1     -13.010  -1.027 -15.955 -0.49 -0.48    +0.295    14.740
ATOM     44  C   UNL d   1      -1.898   3.168 -12.935 -0.21 +0.01    +0.141    14.740
ATOM     45  C   UNL d   1      -1.286   3.856 -11.743 -0.20 +0.03    +0.306    14.740
ATOM     46  O   UNL d   1      -1.884   4.341 -10.798 -0.25 -0.04    -0.251    14.740
ATOM     47  O   UNL d   1       0.055   3.921 -11.819 -0.12 -0.03    -0.481    14.740
ATOM     48  H   UNL d   1       0.368   3.089 -11.403 -0.39 -0.02    +0.295    14.740
ATOM     49  C   UNL d   1      -9.007  -0.936 -17.983 -0.11 -0.01    +0.048    14.740
ATOM     50  C   UNL d   1      -9.689  -2.151 -17.356 -0.17 -0.05    +0.125    14.740
ATOM     51  C   UNL d   1     -11.171  -1.934 -17.238 -0.08 -0.20    +0.305    14.740
ATOM     52  O   UNL d   1     -11.851  -1.115 -17.830 -0.05 +0.12    -0.251    14.740
ATOM     53  O   UNL d   1     -11.734  -2.773 -16.346 -0.02 +0.49    -0.481    14.740
ATOM     54  H   UNL d   1     -12.239  -2.182 -15.749 -0.33 -0.68    +0.295    14.740
TER
ENDMDL
MODEL       55
USER    Run = 55
USER    Cluster Rank = 11
USER    Number of conformations in this cluster = 1
USER  
USER    RMSD from reference structure       = 13.949 A
USER  
USER    Estimated Free Energy of Binding    =   -5.72 kcal/mol  [=(1)+(2)+(3)-(4)]
USER    Estimated Inhibition Constant, Ki   =   64.21 uM (micromolar)  [Temperature = 298.15 K]
USER    
USER    (1) Final Intermolecular Energy     =   -9.60 kcal/mol
USER        vdW + Hbond + desolv Energy     =   -9.28 kcal/mol
USER        Electrostatic Energy            =   -0.32 kcal/mol
USER    (2) Final Total Internal Energy     =   -2.16 kcal/mol
USER    (3) Torsional Free Energy           =   +3.88 kcal/mol
USER    (4) Unbound System's Energy  [=(2)] =   -2.16 kcal/mol
USER    
USER    
USER  
USER    DPF = D:/Protein_go_brrr/autodock/final/AncA/heme/dock.dpf
USER    NEWDPF move	heme_opt.pdbqt
USER    NEWDPF about	0.153000 0.018000 -0.028000
USER    NEWDPF tran0	-10.076477 -13.487126 -4.071166
USER    NEWDPF axisangle0	0.296240 0.726070 -0.620535 63.946795
USER    NEWDPF quaternion0	0.156866 0.384473 -0.328589 0.848294
USER    NEWDPF dihe0	87.79 7.86 -82.63 -94.05 -166.22 180.00 163.90 -104.55 89.81 -101.16 -65.50 13.51 -172.39 
USER  
USER                              x       y       z    vdW   Elec        q     RMS 
ATOM      1  O   UNL d   1     -14.044 -16.042  -7.604 -0.05 -0.05    -0.289    13.949
ATOM      2  O   UNL d   1      -8.064 -18.871  -4.051 -0.02 -0.19    -0.289    13.949
ATOM      3  N   UNL d   1     -11.900 -14.104  -5.723 -0.09 -0.06    -0.247    13.949
ATOM      4  N   UNL d   1     -10.074 -16.101  -4.495 -0.07 -0.12    -0.247    13.949
ATOM      5  N   UNL d   1      -9.165 -14.037  -2.712 -0.04 -0.24    -0.354    13.949
ATOM      6  N   UNL d   1     -11.076 -11.976  -3.979 +0.02 -0.09    -0.354    13.949
ATOM      7  C   UNL d   1     -14.025 -13.708  -6.879 -0.15 +0.01    +0.084    13.949
ATOM      8  C   UNL d   1      -9.762 -18.211  -5.687 -0.09 +0.04    +0.084    13.949
ATOM      9  C   UNL d   1     -10.482 -16.864  -5.566 -0.13 +0.03    +0.058    13.949
ATOM     10  C   UNL d   1     -12.879 -13.170  -6.017 -0.24 +0.01    +0.058    13.949
ATOM     11  C   UNL d   1     -13.511 -15.108  -7.035 -0.10 +0.03    +0.193    13.949
ATOM     12  C   UNL d   1     -12.205 -15.215  -6.311 -0.18 +0.02    +0.109    13.949
ATOM     13  C   UNL d   1      -8.896 -18.087  -4.464 -0.04 +0.12    +0.193    13.949
ATOM     14  C   UNL d   1     -15.349 -13.749  -6.112 -0.07 +0.00    +0.026    13.949
ATOM     15  C   UNL d   1     -11.460 -16.487  -6.403 -0.20 +0.02    +0.055    13.949
ATOM     16  C   UNL d   1      -8.861 -18.265  -6.924 -0.21 +0.02    +0.026    13.949
ATOM     17  C   UNL d   1      -9.187 -16.767  -3.828 -0.09 +0.07    +0.109    13.949
ATOM     18  C   UNL d   1     -12.811 -11.871  -5.669 -0.35 +0.00    +0.050    13.949
ATOM     19  C   UNL d   1     -11.750 -11.267  -4.947 -0.34 +0.01    +0.045    13.949
ATOM     20  C   UNL d   1      -8.572 -15.127  -2.131 -0.11 +0.04    +0.045    13.949
ATOM     21  C   UNL d   1      -8.513 -16.386  -2.578 -0.10 +0.05    +0.057    13.949
ATOM     22  C   UNL d   1      -8.258 -13.311  -0.783 -0.18 -0.02    -0.019    13.949
ATOM     23  C   UNL d   1      -9.028 -12.893  -1.971 -0.20 +0.03    +0.045    13.949
ATOM     24  C   UNL d   1      -7.989 -14.634  -0.884 -0.11 -0.02    -0.022    13.949
ATOM     25  C   UNL d   1     -10.154 -11.175  -3.347 -0.24 +0.01    +0.049    13.949
ATOM     26  C   UNL d   1     -11.227  -9.983  -4.971 -0.50 -0.00    -0.018    13.949
ATOM     27  C   UNL d   1     -10.206  -9.937  -3.972 -0.45 +0.00    +0.003    13.949
ATOM     28  C   UNL d   1      -9.445 -11.639  -2.206 -0.33 +0.02    +0.052    13.949
ATOM     29  C   UNL d   1      -7.232 -15.507   0.057 -0.11 +0.06    +0.046    13.949
ATOM     30  C   UNL d   1     -11.646  -8.867  -5.866 -0.18 +0.00    +0.046    13.949
ATOM     31  H   UNL d   1      -9.581 -14.094  -3.636 +0.09 +0.10    +0.166    13.949
ATOM     32  H   UNL d   1     -11.277 -12.943  -3.751 +0.06 +0.05    +0.166    13.949
ATOM     33  C   UNL d   1     -14.187 -13.039  -8.248 -0.22 +0.01    +0.141    13.949
ATOM     34  C   UNL d   1     -14.464 -14.029  -9.347 -0.14 +0.05    +0.306    13.949
ATOM     35  O   UNL d   1     -13.714 -14.313 -10.266 -0.24 -0.05    -0.251    13.949
ATOM     36  O   UNL d   1     -15.670 -14.612  -9.228 +0.01 -0.10    -0.481    13.949
ATOM     37  H   UNL d   1     -15.493 -15.449  -8.748 +0.05 +0.06    +0.295    13.949
ATOM     38  C   UNL d   1      -9.417  -8.785  -3.651 -0.55 +0.00    +0.017    13.949
ATOM     39  C   UNL d   1      -8.079  -8.764  -3.561 -0.44 +0.03    +0.092    13.949
ATOM     40  C   UNL d   1      -7.388  -7.512  -3.241 -0.26 +0.12    +0.330    13.949
ATOM     41  O   UNL d   1      -6.194  -7.339  -3.092 -1.13 -0.13    -0.246    13.949
ATOM     42  O   UNL d   1      -8.275  -6.511  -3.132 -0.11 -0.12    -0.477    13.949
ATOM     43  H   UNL d   1      -7.716  -5.711  -3.048 +0.22 +0.07    +0.295    13.949
ATOM     44  C   UNL d   1     -10.659 -19.450  -5.600 -0.03 +0.06    +0.141    13.949
ATOM     45  C   UNL d   1      -9.956 -20.655  -5.035 +0.00 +0.13    +0.306    13.949
ATOM     46  O   UNL d   1     -10.262 -21.270  -4.029 +0.00 -0.09    -0.251    13.949
ATOM     47  O   UNL d   1      -8.879 -21.009  -5.759 +0.00 -0.26    -0.481    13.949
ATOM     48  H   UNL d   1      -8.121 -20.592  -5.296 +0.03 +0.19    +0.295    13.949
ATOM     49  C   UNL d   1      -7.872 -12.390   0.338 -0.15 +0.05    +0.048    13.949
ATOM     50  C   UNL d   1      -8.740 -12.607   1.577 -0.31 +0.10    +0.125    13.949
ATOM     51  C   UNL d   1      -7.917 -13.116   2.726 -0.20 +0.39    +0.305    13.949
ATOM     52  O   UNL d   1      -7.951 -14.224   3.230 -0.30 -0.35    -0.251    13.949
ATOM     53  O   UNL d   1      -7.080 -12.173   3.203 -0.91 -0.66    -0.481    13.949
ATOM     54  H   UNL d   1      -7.626 -11.671   3.843 +0.18 +0.24    +0.295    13.949
TER
ENDMDL
MODEL       41
USER    Run = 41
USER    Cluster Rank = 12
USER    Number of conformations in this cluster = 2
USER  
USER    RMSD from reference structure       = 18.035 A
USER  
USER    Estimated Free Energy of Binding    =   -5.69 kcal/mol  [=(1)+(2)+(3)-(4)]
USER    Estimated Inhibition Constant, Ki   =   67.62 uM (micromolar)  [Temperature = 298.15 K]
USER    
USER    (1) Final Intermolecular Energy     =   -9.57 kcal/mol
USER        vdW + Hbond + desolv Energy     =   -8.91 kcal/mol
USER        Electrostatic Energy            =   -0.66 kcal/mol
USER    (2) Final Total Internal Energy     =   -2.09 kcal/mol
USER    (3) Torsional Free Energy           =   +3.88 kcal/mol
USER    (4) Unbound System's Energy  [=(2)] =   -2.09 kcal/mol
USER    
USER    
USER  
USER    DPF = D:/Protein_go_brrr/autodock/final/AncA/heme/dock.dpf
USER    NEWDPF move	heme_opt.pdbqt
USER    NEWDPF about	0.153000 0.018000 -0.028000
USER    NEWDPF tran0	13.996645 -3.693020 -15.046891
USER    NEWDPF axisangle0	-0.218276 -0.163851 0.962033 -174.537104
USER    NEWDPF quaternion0	-0.218028 -0.163665 0.960940 -0.047655
USER    NEWDPF dihe0	-99.82 -180.00 179.76 -180.00 33.96 18.66 -58.79 95.56 128.13 -115.94 145.99 -91.91 168.39 
USER  
USER                              x       y       z    vdW   Elec        q     RMS 
ATOM      1  O   UNL d   1      18.733  -6.389 -12.798 -0.02 -0.01    -0.289    18.035
ATOM      2  O   UNL d   1      17.173   0.902 -13.694 -0.11 +0.03    -0.289    18.035
ATOM      3  N   UNL d   1      15.843  -5.269 -14.311 -0.10 +0.03    -0.247    18.035
ATOM      4  N   UNL d   1      15.972  -2.324 -13.936 -0.11 +0.07    -0.247    18.035
ATOM      5  N   UNL d   1      13.205  -2.197 -14.707 -0.04 +0.05    -0.354    18.035
ATOM      6  N   UNL d   1      13.074  -5.255 -15.075 -0.12 +0.05    -0.354    18.035
ATOM      7  C   UNL d   1      16.700  -7.461 -13.628 -0.11 +0.01    +0.084    18.035
ATOM      8  C   UNL d   1      18.189  -1.325 -13.687 -0.10 -0.02    +0.084    18.035
ATOM      9  C   UNL d   1      17.319  -2.581 -13.811 -0.13 -0.01    +0.058    18.035
ATOM     10  C   UNL d   1      15.580  -6.627 -14.257 -0.18 +0.00    +0.058    18.035
ATOM     11  C   UNL d   1      17.650  -6.336 -13.352 -0.06 +0.01    +0.193    18.035
ATOM     12  C   UNL d   1      17.027  -5.062 -13.835 -0.12 -0.00    +0.109    18.035
ATOM     13  C   UNL d   1      17.082  -0.309 -13.727 -0.04 -0.06    +0.193    18.035
ATOM     14  C   UNL d   1      16.272  -8.086 -12.298 -0.16 +0.00    +0.026    18.035
ATOM     15  C   UNL d   1      17.825  -3.822 -13.751 -0.14 -0.00    +0.055    18.035
ATOM     16  C   UNL d   1      19.081  -1.129 -14.916 -0.03 -0.00    +0.026    18.035
ATOM     17  C   UNL d   1      15.789  -1.044 -13.872 -0.16 -0.03    +0.109    18.035
ATOM     18  C   UNL d   1      14.485  -7.205 -14.787 -0.16 +0.00    +0.050    18.035
ATOM     19  C   UNL d   1      13.440  -6.524 -15.462 -0.17 -0.00    +0.045    18.035
ATOM     20  C   UNL d   1      13.387  -0.912 -14.267 -0.20 -0.00    +0.045    18.035
ATOM     21  C   UNL d   1      14.518  -0.305 -13.896 -0.26 -0.01    +0.057    18.035
ATOM     22  C   UNL d   1      11.171  -1.231 -14.720 -0.15 -0.00    -0.019    18.035
ATOM     23  C   UNL d   1      11.900  -2.484 -15.005 -0.16 -0.00    +0.045    18.035
ATOM     24  C   UNL d   1      12.056  -0.304 -14.285 -0.21 -0.00    -0.022    18.035
ATOM     25  C   UNL d   1      11.988  -4.823 -15.800 -0.19 -0.00    +0.049    18.035
ATOM     26  C   UNL d   1      12.594  -6.912 -16.489 -0.13 +0.00    -0.018    18.035
ATOM     27  C   UNL d   1      11.692  -5.826 -16.712 -0.13 -0.00    +0.003    18.035
ATOM     28  C   UNL d   1      11.331  -3.605 -15.473 -0.21 -0.00    +0.052    18.035
ATOM     29  C   UNL d   1      11.806   1.110 -13.886 -0.33 +0.01    +0.046    18.035
ATOM     30  C   UNL d   1      12.621  -8.210 -17.223 -0.08 +0.00    +0.046    18.035
ATOM     31  H   UNL d   1      13.994  -2.817 -14.860 -0.24 -0.04    +0.166    18.035
ATOM     32  H   UNL d   1      13.530  -4.744 -14.328 -0.54 -0.08    +0.166    18.035
ATOM     33  C   UNL d   1      17.347  -8.497 -14.554 -0.03 +0.01    +0.141    18.035
ATOM     34  C   UNL d   1      18.503  -9.210 -13.907 +0.00 +0.03    +0.306    18.035
ATOM     35  O   UNL d   1      18.438 -10.222 -13.230 -0.00 -0.03    -0.251    18.035
ATOM     36  O   UNL d   1      19.682  -8.611 -14.149 +0.01 -0.04    -0.481    18.035
ATOM     37  H   UNL d   1      19.697  -7.841 -13.541 +0.02 +0.02    +0.295    18.035
ATOM     38  C   UNL d   1      10.638  -5.814 -17.680 -0.09 -0.00    +0.017    18.035
ATOM     39  C   UNL d   1       9.345  -5.575 -17.415 -0.08 -0.02    +0.092    18.035
ATOM     40  C   UNL d   1       8.363  -5.575 -18.503 -0.06 -0.09    +0.330    18.035
ATOM     41  O   UNL d   1       8.494  -6.034 -19.622 -0.02 +0.02    -0.246    18.035
ATOM     42  O   UNL d   1       7.228  -4.982 -18.101 -0.09 +0.30    -0.477    18.035
ATOM     43  H   UNL d   1       7.413  -4.726 -17.174 -0.37 -0.29    +0.295    18.035
ATOM     44  C   UNL d   1      18.996  -1.206 -12.391 -0.05 -0.04    +0.141    18.035
ATOM     45  C   UNL d   1      19.552   0.174 -12.161 -0.08 +0.01    +0.306    18.035
ATOM     46  O   UNL d   1      20.704   0.531 -12.335 -0.02 -0.03    -0.251    18.035
ATOM     47  O   UNL d   1      18.626   1.031 -11.695 -0.11 -0.18    -0.481    18.035
ATOM     48  H   UNL d   1      17.801   0.502 -11.646 -0.35 -0.12    +0.295    18.035
ATOM     49  C   UNL d   1       9.689  -1.063 -14.885 -0.16 +0.01    +0.048    18.035
ATOM     50  C   UNL d   1       8.922  -1.537 -13.650 -0.28 +0.01    +0.125    18.035
ATOM     51  C   UNL d   1       9.620  -2.696 -12.997 -0.22 +0.04    +0.305    18.035
ATOM     52  O   UNL d   1      10.479  -2.655 -12.133 -0.92 -0.07    -0.251    18.035
ATOM     53  O   UNL d   1       9.199  -3.879 -13.486 -0.77 -0.05    -0.481    18.035
ATOM     54  H   UNL d   1       8.524  -3.634 -14.152 -0.32 -0.11    +0.295    18.035
TER
ENDMDL
MODEL        5
USER    Run = 5
USER    Cluster Rank = 13
USER    Number of conformations in this cluster = 1
USER  
USER    RMSD from reference structure       = 15.113 A
USER  
USER    Estimated Free Energy of Binding    =   -5.59 kcal/mol  [=(1)+(2)+(3)-(4)]
USER    Estimated Inhibition Constant, Ki   =   80.30 uM (micromolar)  [Temperature = 298.15 K]
USER    
USER    (1) Final Intermolecular Energy     =   -9.46 kcal/mol
USER        vdW + Hbond + desolv Energy     =   -9.17 kcal/mol
USER        Electrostatic Energy            =   -0.30 kcal/mol
USER    (2) Final Total Internal Energy     =   -1.78 kcal/mol
USER    (3) Torsional Free Energy           =   +3.88 kcal/mol
USER    (4) Unbound System's Energy  [=(2)] =   -1.78 kcal/mol
USER    
USER    
USER  
USER    DPF = D:/Protein_go_brrr/autodock/final/AncA/heme/dock.dpf
USER    NEWDPF move	heme_opt.pdbqt
USER    NEWDPF about	0.153000 0.018000 -0.028000
USER    NEWDPF tran0	-11.320346 -14.519977 -5.306931
USER    NEWDPF axisangle0	0.556170 0.156693 -0.816163 -169.104658
USER    NEWDPF quaternion0	0.553658 0.155985 -0.812477 -0.094937
USER    NEWDPF dihe0	-97.28 69.59 -62.03 178.55 36.56 163.23 116.65 -68.42 130.04 112.11 69.36 -72.77 -16.44 
USER  
USER                              x       y       z    vdW   Elec        q     RMS 
ATOM      1  O   UNL d   1      -9.262 -16.432  -0.124 -0.00 -0.18    -0.289    15.113
ATOM      2  O   UNL d   1     -10.551  -9.480  -2.653 -0.36 -0.04    -0.289    15.113
ATOM      3  N   UNL d   1     -10.360 -15.784  -3.329 -0.05 -0.12    -0.247    15.113
ATOM      4  N   UNL d   1     -10.864 -12.856  -3.299 -0.07 -0.08    -0.247    15.113
ATOM      5  N   UNL d   1     -12.284 -13.168  -5.779 -0.12 -0.06    -0.354    15.113
ATOM      6  N   UNL d   1     -11.774 -16.208  -5.792 -0.05 -0.10    -0.354    15.113
ATOM      7  C   UNL d   1      -9.990 -17.813  -2.005 -0.00 +0.04    +0.084    15.113
ATOM      8  C   UNL d   1      -9.591 -11.519  -1.697 -0.29 +0.03    +0.084    15.113
ATOM      9  C   UNL d   1      -9.974 -12.896  -2.248 -0.20 +0.03    +0.058    15.113
ATOM     10  C   UNL d   1     -10.430 -17.167  -3.322 -0.04 +0.03    +0.058    15.113
ATOM     11  C   UNL d   1      -9.641 -16.551  -1.275 -0.00 +0.11    +0.193    15.113
ATOM     12  C   UNL d   1      -9.884 -15.393  -2.192 -0.07 +0.06    +0.109    15.113
ATOM     13  C   UNL d   1     -10.456 -10.691  -2.605 -0.29 +0.04    +0.193    15.113
ATOM     14  C   UNL d   1     -11.153 -18.497  -1.283 -0.01 +0.01    +0.026    15.113
ATOM     15  C   UNL d   1      -9.521 -14.042  -1.717 -0.16 +0.03    +0.055    15.113
ATOM     16  C   UNL d   1      -8.123 -11.184  -1.977 -0.21 +0.01    +0.026    15.113
ATOM     17  C   UNL d   1     -11.181 -11.621  -3.523 -0.25 +0.02    +0.109    15.113
ATOM     18  C   UNL d   1     -10.764 -17.911  -4.393 -0.05 +0.02    +0.050    15.113
ATOM     19  C   UNL d   1     -11.102 -17.403  -5.674 -0.09 +0.02    +0.045    15.113
ATOM     20  C   UNL d   1     -12.610 -11.870  -5.483 -0.32 +0.00    +0.045    15.113
ATOM     21  C   UNL d   1     -12.142 -11.092  -4.502 -0.41 +0.00    +0.057    15.113
ATOM     22  C   UNL d   1     -13.815 -12.536  -7.305 -0.25 -0.00    -0.019    15.113
ATOM     23  C   UNL d   1     -12.962 -13.657  -6.864 -0.26 +0.00    +0.045    15.113
ATOM     24  C   UNL d   1     -13.601 -11.480  -6.485 -0.29 -0.00    -0.022    15.113
ATOM     25  C   UNL d   1     -12.079 -15.953  -7.109 -0.19 +0.01    +0.049    15.113
ATOM     26  C   UNL d   1     -10.933 -17.921  -6.949 -0.14 -0.01    -0.018    15.113
ATOM     27  C   UNL d   1     -11.534 -16.991  -7.853 -0.20 +0.00    +0.003    15.113
ATOM     28  C   UNL d   1     -12.907 -14.855  -7.467 -0.17 +0.00    +0.052    15.113
ATOM     29  C   UNL d   1     -14.216 -10.123  -6.531 -0.41 -0.00    +0.046    15.113
ATOM     30  C   UNL d   1     -10.253 -19.198  -7.308 -0.12 +0.02    +0.046    15.113
ATOM     31  H   UNL d   1     -11.552 -13.655  -5.273 +0.06 +0.04    +0.166    15.113
ATOM     32  H   UNL d   1     -12.035 -15.631  -5.001 +0.04 +0.05    +0.166    15.113
ATOM     33  C   UNL d   1      -8.768 -18.734  -2.101 -0.00 +0.08    +0.141    15.113
ATOM     34  C   UNL d   1      -8.356 -19.291  -0.766 +0.01 +0.15    +0.306    15.113
ATOM     35  O   UNL d   1      -8.743 -20.337  -0.271 +0.00 -0.10    -0.251    15.113
ATOM     36  O   UNL d   1      -7.477 -18.502  -0.124 +0.01 -0.32    -0.481    15.113
ATOM     37  H   UNL d   1      -8.026 -17.797   0.279 +0.02 +0.20    +0.295    15.113
ATOM     38  C   UNL d   1     -11.598 -17.146  -9.275 -0.17 +0.00    +0.017    15.113
ATOM     39  C   UNL d   1     -12.625 -16.766 -10.050 -0.14 +0.02    +0.092    15.113
ATOM     40  C   UNL d   1     -12.558 -16.966 -11.500 -0.16 +0.12    +0.330    15.113
ATOM     41  O   UNL d   1     -13.481 -16.979 -12.292 -0.13 -0.13    -0.246    15.113
ATOM     42  O   UNL d   1     -11.283 -17.136 -11.884 -0.16 -0.17    -0.477    15.113
ATOM     43  H   UNL d   1     -11.078 -16.320 -12.385 -0.44 +0.06    +0.295    15.113
ATOM     44  C   UNL d   1      -9.945 -11.273  -0.227 -0.35 +0.06    +0.141    15.113
ATOM     45  C   UNL d   1      -9.237 -12.206   0.719 -0.21 +0.20    +0.306    15.113
ATOM     46  O   UNL d   1      -8.055 -12.179   1.017 -0.67 -0.25    -0.251    15.113
ATOM     47  O   UNL d   1     -10.054 -13.148   1.222 -0.60 -0.32    -0.481    15.113
ATOM     48  H   UNL d   1      -9.686 -13.997   0.896 +0.11 +0.19    +0.295    15.113
ATOM     49  C   UNL d   1     -14.762 -12.605  -8.468 -0.22 +0.00    +0.048    15.113
ATOM     50  C   UNL d   1     -14.170 -11.961  -9.722 -0.25 +0.01    +0.125    15.113
ATOM     51  C   UNL d   1     -14.877 -10.676 -10.050 -0.18 +0.02    +0.305    15.113
ATOM     52  O   UNL d   1     -15.986 -10.541 -10.536 -0.12 -0.04    -0.251    15.113
ATOM     53  O   UNL d   1     -14.125  -9.598  -9.752 -0.19 +0.09    -0.481    15.113
ATOM     54  H   UNL d   1     -13.309  -9.976  -9.362 -0.37 -0.20    +0.295    15.113
TER
ENDMDL
MODEL       14
USER    Run = 14
USER    Cluster Rank = 14
USER    Number of conformations in this cluster = 1
USER  
USER    RMSD from reference structure       = 15.995 A
USER  
USER    Estimated Free Energy of Binding    =   -5.42 kcal/mol  [=(1)+(2)+(3)-(4)]
USER    Estimated Inhibition Constant, Ki   =  105.91 uM (micromolar)  [Temperature = 298.15 K]
USER    
USER    (1) Final Intermolecular Energy     =   -9.30 kcal/mol
USER        vdW + Hbond + desolv Energy     =   -8.96 kcal/mol
USER        Electrostatic Energy            =   -0.34 kcal/mol
USER    (2) Final Total Internal Energy     =   -2.51 kcal/mol
USER    (3) Torsional Free Energy           =   +3.88 kcal/mol
USER    (4) Unbound System's Energy  [=(2)] =   -2.51 kcal/mol
USER    
USER    
USER  
USER    DPF = D:/Protein_go_brrr/autodock/final/AncA/heme/dock.dpf
USER    NEWDPF move	heme_opt.pdbqt
USER    NEWDPF about	0.153000 0.018000 -0.028000
USER    NEWDPF tran0	-6.831089 -0.172865 -16.465090
USER    NEWDPF axisangle0	-0.358195 -0.319943 0.877116 82.248023
USER    NEWDPF quaternion0	-0.235582 -0.210424 0.576871 0.753288
USER    NEWDPF dihe0	-178.99 -85.46 -92.58 78.14 -160.53 -56.82 136.40 157.65 1.77 -56.49 87.25 -73.59 22.23 
USER  
USER                              x       y       z    vdW   Elec        q     RMS 
ATOM      1  O   UNL d   1      -6.546   4.137 -12.453 -0.48 -0.07    -0.289    15.995
ATOM      2  O   UNL d   1     -12.248   1.734 -16.708 -0.03 +0.11    -0.289    15.995
ATOM      3  N   UNL d   1      -6.201   1.630 -14.796 -0.16 +0.02    -0.247    15.995
ATOM      4  N   UNL d   1      -8.986   1.178 -15.728 -0.16 +0.10    -0.247    15.995
ATOM      5  N   UNL d   1      -8.080  -1.256 -16.961 -0.08 +0.08    -0.354    15.995
ATOM      6  N   UNL d   1      -5.198  -0.790 -15.973 +0.00 +0.02    -0.354    15.995
ATOM      7  C   UNL d   1      -4.747   2.608 -13.082 -0.26 +0.00    +0.084    15.995
ATOM      8  C   UNL d   1     -10.544   3.052 -15.546 -0.13 -0.02    +0.084    15.995
ATOM      9  C   UNL d   1      -9.158   2.463 -15.264 -0.20 -0.01    +0.058    15.995
ATOM     10  C   UNL d   1      -4.951   1.584 -14.203 -0.25 -0.00    +0.058    15.995
ATOM     11  C   UNL d   1      -6.097   3.254 -13.160 -0.22 +0.02    +0.193    15.995
ATOM     12  C   UNL d   1      -6.876   2.590 -14.253 -0.23 -0.00    +0.109    15.995
ATOM     13  C   UNL d   1     -11.139   1.850 -16.224 -0.08 -0.09    +0.193    15.995
ATOM     14  C   UNL d   1      -4.595   1.939 -11.714 -0.47 -0.00    +0.026    15.995
ATOM     15  C   UNL d   1      -8.214   3.125 -14.577 -0.21 -0.00    +0.055    15.995
ATOM     16  C   UNL d   1     -10.477   4.203 -16.555 -0.05 -0.00    +0.026    15.995
ATOM     17  C   UNL d   1     -10.096   0.782 -16.264 -0.15 -0.06    +0.109    15.995
ATOM     18  C   UNL d   1      -3.950   0.782 -14.614 -0.30 -0.00    +0.050    15.995
ATOM     19  C   UNL d   1      -4.020  -0.133 -15.695 -0.22 -0.00    +0.045    15.995
ATOM     20  C   UNL d   1      -9.435  -1.411 -17.102 -0.19 -0.02    +0.045    15.995
ATOM     21  C   UNL d   1     -10.410  -0.536 -16.836 -0.18 -0.04    +0.057    15.995
ATOM     22  C   UNL d   1      -8.399  -3.337 -17.761 -0.23 +0.00    -0.019    15.995
ATOM     23  C   UNL d   1      -7.372  -2.367 -17.334 -0.15 -0.01    +0.045    15.995
ATOM     24  C   UNL d   1      -9.619  -2.765 -17.623 -0.17 +0.01    -0.022    15.995
ATOM     25  C   UNL d   1      -5.018  -1.691 -16.997 -0.25 -0.00    +0.049    15.995
ATOM     26  C   UNL d   1      -3.060  -0.593 -16.583 -0.18 +0.00    -0.018    15.995
ATOM     27  C   UNL d   1      -3.701  -1.562 -17.416 -0.23 -0.00    +0.003    15.995
ATOM     28  C   UNL d   1      -6.050  -2.599 -17.359 -0.26 -0.00    +0.052    15.995
ATOM     29  C   UNL d   1     -10.959  -3.338 -17.934 -0.11 -0.02    +0.046    15.995
ATOM     30  C   UNL d   1      -1.636  -0.159 -16.658 -0.25 +0.00    +0.046    15.995
ATOM     31  H   UNL d   1      -7.678  -0.367 -16.684 +0.05 -0.03    +0.166    15.995
ATOM     32  H   UNL d   1      -6.056  -0.644 -15.456 +0.13 -0.01    +0.166    15.995
ATOM     33  C   UNL d   1      -3.641   3.640 -13.329 -0.13 +0.02    +0.141    15.995
ATOM     34  C   UNL d   1      -3.750   4.292 -14.681 -0.01 +0.04    +0.306    15.995
ATOM     35  O   UNL d   1      -3.029   4.082 -15.642 -0.01 -0.02    -0.251    15.995
ATOM     36  O   UNL d   1      -4.763   5.174 -14.752 +0.01 -0.09    -0.481    15.995
ATOM     37  H   UNL d   1      -5.189   5.131 -13.870 +0.08 +0.07    +0.295    15.995
ATOM     38  C   UNL d   1      -3.063  -2.299 -18.464 -0.25 -0.00    +0.017    15.995
ATOM     39  C   UNL d   1      -3.315  -3.580 -18.774 -0.31 -0.02    +0.092    15.995
ATOM     40  C   UNL d   1      -2.604  -4.216 -19.886 -0.19 -0.09    +0.330    15.995
ATOM     41  O   UNL d   1      -2.589  -3.872 -21.053 -0.09 +0.05    -0.246    15.995
ATOM     42  O   UNL d   1      -1.918  -5.283 -19.447 -0.24 +0.18    -0.477    15.995
ATOM     43  H   UNL d   1      -2.527  -6.034 -19.604 -0.44 -0.21    +0.295    15.995
ATOM     44  C   UNL d   1     -11.359   3.445 -14.310 -0.16 -0.04    +0.141    15.995
ATOM     45  C   UNL d   1     -12.489   2.495 -14.017 -0.13 -0.15    +0.306    15.995
ATOM     46  O   UNL d   1     -12.450   1.523 -13.283 -0.23 +0.25    -0.251    15.995
ATOM     47  O   UNL d   1     -13.611   2.806 -14.691 -0.00 +0.14    -0.481    15.995
ATOM     48  H   UNL d   1     -13.513   2.355 -15.557 +0.04 -0.10    +0.295    15.995
ATOM     49  C   UNL d   1      -8.098  -4.725 -18.246 -0.27 -0.01    +0.048    15.995
ATOM     50  C   UNL d   1      -7.234  -4.712 -19.507 -0.27 -0.06    +0.125    15.995
ATOM     51  C   UNL d   1      -8.088  -4.728 -20.743 -0.12 -0.27    +0.305    15.995
ATOM     52  O   UNL d   1      -7.820  -4.263 -21.837 -0.12 +0.20    -0.251    15.995
ATOM     53  O   UNL d   1      -9.273  -5.335 -20.529 -0.06 +0.51    -0.481    15.995
ATOM     54  H   UNL d   1      -9.161  -6.222 -20.931 -0.33 -0.71    +0.295    15.995
TER
ENDMDL
MODEL       36
USER    Run = 36
USER    Cluster Rank = 15
USER    Number of conformations in this cluster = 3
USER  
USER    RMSD from reference structure       = 14.346 A
USER  
USER    Estimated Free Energy of Binding    =   -5.35 kcal/mol  [=(1)+(2)+(3)-(4)]
USER    Estimated Inhibition Constant, Ki   =  120.29 uM (micromolar)  [Temperature = 298.15 K]
USER    
USER    (1) Final Intermolecular Energy     =   -9.23 kcal/mol
USER        vdW + Hbond + desolv Energy     =   -8.80 kcal/mol
USER        Electrostatic Energy            =   -0.43 kcal/mol
USER    (2) Final Total Internal Energy     =   -2.32 kcal/mol
USER    (3) Torsional Free Energy           =   +3.88 kcal/mol
USER    (4) Unbound System's Energy  [=(2)] =   -2.32 kcal/mol
USER    
USER    
USER  
USER    DPF = D:/Protein_go_brrr/autodock/final/AncA/heme/dock.dpf
USER    NEWDPF move	heme_opt.pdbqt
USER    NEWDPF about	0.153000 0.018000 -0.028000
USER    NEWDPF tran0	-12.040939 -13.551315 -1.672186
USER    NEWDPF axisangle0	0.898856 -0.111575 0.423802 -136.071559
USER    NEWDPF quaternion0	0.833615 -0.103477 0.393041 -0.374028
USER    NEWDPF dihe0	-179.94 -75.90 175.09 -96.40 -155.45 76.68 -53.69 -162.56 7.82 -149.63 60.77 57.50 -179.33 
USER  
USER                              x       y       z    vdW   Elec        q     RMS 
ATOM      1  O   UNL d   1     -16.212 -15.870  -5.134 -0.00 -0.04    -0.289    14.346
ATOM      2  O   UNL d   1     -12.472  -9.375  -5.597 -0.37 -0.02    -0.289    14.346
ATOM      3  N   UNL d   1     -13.919 -14.861  -2.763 -0.10 -0.04    -0.247    14.346
ATOM      4  N   UNL d   1     -12.771 -12.383  -3.934 -0.16 -0.03    -0.247    14.346
ATOM      5  N   UNL d   1     -10.677 -12.535  -1.969 -0.09 -0.12    -0.354    14.346
ATOM      6  N   UNL d   1     -11.864 -15.117  -0.773 -0.08 -0.10    -0.354    14.346
ATOM      7  C   UNL d   1     -15.215 -16.904  -3.156 -0.02 +0.01    +0.084    14.346
ATOM      8  C   UNL d   1     -14.170 -11.135  -5.500 -0.27 +0.00    +0.084    14.346
ATOM      9  C   UNL d   1     -13.959 -12.378  -4.630 -0.20 +0.00    +0.058    14.346
ATOM     10  C   UNL d   1     -14.191 -16.142  -2.310 -0.09 +0.01    +0.058    14.346
ATOM     11  C   UNL d   1     -15.487 -15.822  -4.157 -0.01 +0.03    +0.193    14.346
ATOM     12  C   UNL d   1     -14.661 -14.626  -3.796 -0.08 +0.02    +0.109    14.346
ATOM     13  C   UNL d   1     -12.866 -10.453  -5.198 -0.30 +0.00    +0.193    14.346
ATOM     14  C   UNL d   1     -14.587 -18.100  -3.878 -0.01 +0.01    +0.026    14.346
ATOM     15  C   UNL d   1     -14.834 -13.395  -4.593 -0.13 +0.01    +0.055    14.346
ATOM     16  C   UNL d   1     -15.315 -10.262  -4.975 -0.36 -0.00    +0.026    14.346
ATOM     17  C   UNL d   1     -12.107 -11.316  -4.243 -0.30 +0.01    +0.109    14.346
ATOM     18  C   UNL d   1     -13.685 -16.665  -1.178 -0.10 +0.01    +0.050    14.346
ATOM     19  C   UNL d   1     -12.800 -16.002  -0.289 -0.12 +0.01    +0.045    14.346
ATOM     20  C   UNL d   1     -10.177 -11.542  -2.770 -0.29 +0.01    +0.045    14.346
ATOM     21  C   UNL d   1     -10.763 -10.920  -3.798 -0.38 +0.01    +0.057    14.346
ATOM     22  C   UNL d   1      -8.598 -12.105  -1.218 -0.26 -0.01    -0.019    14.346
ATOM     23  C   UNL d   1      -9.796 -12.941  -1.003 -0.21 +0.02    +0.045    14.346
ATOM     24  C   UNL d   1      -8.830 -11.277  -2.265 -0.30 -0.01    -0.022    14.346
ATOM     25  C   UNL d   1     -11.057 -14.663   0.244 -0.03 +0.02    +0.049    14.346
ATOM     26  C   UNL d   1     -12.621 -16.098   1.082 -0.10 -0.00    -0.018    14.346
ATOM     27  C   UNL d   1     -11.532 -15.235   1.416 -0.10 +0.00    +0.003    14.346
ATOM     28  C   UNL d   1      -9.918 -13.860  -0.032 -0.18 +0.03    +0.052    14.346
ATOM     29  C   UNL d   1      -7.932 -10.244  -2.854 -0.24 +0.02    +0.046    14.346
ATOM     30  C   UNL d   1     -13.414 -16.937   2.027 -0.11 +0.01    +0.046    14.346
ATOM     31  H   UNL d   1     -11.636 -12.854  -2.063 +0.06 +0.04    +0.166    14.346
ATOM     32  H   UNL d   1     -11.772 -14.878  -1.753 +0.03 +0.05    +0.166    14.346
ATOM     33  C   UNL d   1     -16.504 -17.301  -2.428 -0.02 +0.02    +0.141    14.346
ATOM     34  C   UNL d   1     -17.203 -16.122  -1.807 -0.04 +0.04    +0.306    14.346
ATOM     35  O   UNL d   1     -17.175 -15.807  -0.629 -0.10 -0.04    -0.251    14.346
ATOM     36  O   UNL d   1     -17.900 -15.401  -2.703 -0.00 -0.06    -0.481    14.346
ATOM     37  H   UNL d   1     -17.722 -15.838  -3.563 +0.03 +0.04    +0.295    14.346
ATOM     38  C   UNL d   1     -11.004 -15.045   2.733 -0.20 +0.01    +0.017    14.346
ATOM     39  C   UNL d   1     -11.472 -14.172   3.637 -0.26 +0.04    +0.092    14.346
ATOM     40  C   UNL d   1     -10.851 -14.087   4.962 -0.18 +0.15    +0.330    14.346
ATOM     41  O   UNL d   1      -9.782 -13.583   5.251 -0.25 -0.12    -0.246    14.346
ATOM     42  O   UNL d   1     -11.645 -14.656   5.882 -0.66 -0.24    -0.477    14.346
ATOM     43  H   UNL d   1     -11.215 -15.517   6.063 +0.08 +0.11    +0.295    14.346
ATOM     44  C   UNL d   1     -14.317 -11.397  -7.003 -0.23 -0.00    +0.141    14.346
ATOM     45  C   UNL d   1     -14.966 -10.259  -7.744 -0.18 -0.01    +0.306    14.346
ATOM     46  O   UNL d   1     -16.140 -10.173  -8.061 -0.10 -0.01    -0.251    14.346
ATOM     47  O   UNL d   1     -14.089  -9.292  -8.073 -0.14 +0.08    -0.481    14.346
ATOM     48  H   UNL d   1     -13.250  -9.562  -7.643 -0.34 -0.10    +0.295    14.346
ATOM     49  C   UNL d   1      -7.345 -12.201  -0.398 -0.15 +0.04    +0.048    14.346
ATOM     50  C   UNL d   1      -6.286 -13.069  -1.078 -0.24 +0.18    +0.125    14.346
ATOM     51  C   UNL d   1      -5.950 -14.265  -0.233 -0.11 +0.59    +0.305    14.346
ATOM     52  O   UNL d   1      -5.027 -15.046  -0.384 -0.64 -0.56    -0.251    14.346
ATOM     53  O   UNL d   1      -6.824 -14.428   0.780 -0.22 -0.92    -0.481    14.346
ATOM     54  H   UNL d   1      -7.575 -14.908   0.372 +0.07 +0.37    +0.295    14.346
TER
ENDMDL
MODEL       43
USER    Run = 43
USER    Cluster Rank = 16
USER    Number of conformations in this cluster = 1
USER  
USER    RMSD from reference structure       = 11.433 A
USER  
USER    Estimated Free Energy of Binding    =   -5.25 kcal/mol  [=(1)+(2)+(3)-(4)]
USER    Estimated Inhibition Constant, Ki   =  142.32 uM (micromolar)  [Temperature = 298.15 K]
USER    
USER    (1) Final Intermolecular Energy     =   -9.13 kcal/mol
USER        vdW + Hbond + desolv Energy     =   -8.51 kcal/mol
USER        Electrostatic Energy            =   -0.62 kcal/mol
USER    (2) Final Total Internal Energy     =   -1.99 kcal/mol
USER    (3) Torsional Free Energy           =   +3.88 kcal/mol
USER    (4) Unbound System's Energy  [=(2)] =   -1.99 kcal/mol
USER    
USER    
USER  
USER    DPF = D:/Protein_go_brrr/autodock/final/AncA/heme/dock.dpf
USER    NEWDPF move	heme_opt.pdbqt
USER    NEWDPF about	0.153000 0.018000 -0.028000
USER    NEWDPF tran0	8.290348 -7.089370 8.810511
USER    NEWDPF axisangle0	0.350141 -0.562348 0.749110 -142.815341
USER    NEWDPF quaternion0	0.331868 -0.533000 0.710015 -0.318832
USER    NEWDPF dihe0	2.94 25.71 -125.00 134.14 48.14 157.97 123.77 91.96 142.63 -21.38 111.66 -89.73 176.48 
USER  
USER                              x       y       z    vdW   Elec        q     RMS 
ATOM      1  O   UNL d   1      10.248  -8.658   3.475 -0.22 -0.34    -0.289    11.433
ATOM      2  O   UNL d   1      13.523  -4.716   8.964 -0.04 -0.03    -0.289    11.433
ATOM      3  N   UNL d   1       8.638  -7.861   6.419 -0.09 -0.06    -0.247    11.433
ATOM      4  N   UNL d   1      10.777  -6.594   8.046 -0.06 -0.04    -0.247    11.433
ATOM      5  N   UNL d   1       9.059  -6.852  10.338 -0.11 +0.01    -0.354    11.433
ATOM      6  N   UNL d   1       6.853  -8.183   8.646 -0.06 -0.03    -0.354    11.433
ATOM      7  C   UNL d   1       8.092  -9.242   4.469 -0.13 +0.04    +0.084    11.433
ATOM      8  C   UNL d   1      12.616  -5.529   6.840 -0.12 +0.02    +0.084    11.433
ATOM      9  C   UNL d   1      11.336  -6.371   6.808 -0.14 +0.01    +0.058    11.433
ATOM     10  C   UNL d   1       7.693  -8.692   5.842 -0.11 +0.02    +0.058    11.433
ATOM     11  C   UNL d   1       9.422  -8.558   4.365 -0.13 +0.12    +0.193    11.433
ATOM     12  C   UNL d   1       9.626  -7.731   5.596 -0.15 +0.04    +0.109    11.433
ATOM     13  C   UNL d   1      12.699  -5.346   8.329 -0.06 +0.03    +0.193    11.433
ATOM     14  C   UNL d   1       8.314 -10.756   4.499 -0.08 +0.01    +0.026    11.433
ATOM     15  C   UNL d   1      10.837  -6.889   5.675 -0.23 +0.02    +0.055    11.433
ATOM     16  C   UNL d   1      12.410  -4.159   6.187 -0.34 +0.00    +0.026    11.433
ATOM     17  C   UNL d   1      11.531  -6.045   8.944 -0.09 +0.02    +0.109    11.433
ATOM     18  C   UNL d   1       6.481  -8.942   6.374 -0.15 +0.01    +0.050    11.433
ATOM     19  C   UNL d   1       5.994  -8.410   7.595 -0.17 +0.01    +0.045    11.433
ATOM     20  C   UNL d   1      10.222  -6.474  10.957 -0.18 +0.00    +0.045    11.433
ATOM     21  C   UNL d   1      11.373  -6.073  10.406 -0.14 +0.01    +0.057    11.433
ATOM     22  C   UNL d   1       8.683  -7.027  12.551 -0.17 -0.00    -0.019    11.433
ATOM     23  C   UNL d   1       8.072  -7.204  11.219 -0.15 -0.00    +0.045    11.433
ATOM     24  C   UNL d   1       9.956  -6.594  12.389 -0.14 -0.00    -0.022    11.433
ATOM     25  C   UNL d   1       6.159  -7.755   9.754 -0.10 -0.00    +0.049    11.433
ATOM     26  C   UNL d   1       4.714  -8.085   8.018 -0.28 -0.00    -0.018    11.433
ATOM     27  C   UNL d   1       4.827  -7.654   9.376 -0.33 +0.00    +0.003    11.433
ATOM     28  C   UNL d   1       6.809  -7.605  11.009 -0.18 -0.00    +0.052    11.433
ATOM     29  C   UNL d   1      10.969  -6.263  13.432 -0.08 +0.00    +0.046    11.433
ATOM     30  C   UNL d   1       3.462  -8.168   7.212 -0.37 +0.01    +0.046    11.433
ATOM     31  H   UNL d   1       8.953  -6.786   9.331 -0.01 -0.00    +0.166    11.433
ATOM     32  H   UNL d   1       7.850  -8.355   8.602 +0.04 +0.02    +0.166    11.433
ATOM     33  C   UNL d   1       7.183  -8.829   3.307 -0.30 +0.05    +0.141    11.433
ATOM     34  C   UNL d   1       7.477  -9.591   2.043 -0.19 +0.09    +0.306    11.433
ATOM     35  O   UNL d   1       6.830 -10.523   1.596 -0.23 -0.03    -0.251    11.433
ATOM     36  O   UNL d   1       8.570  -9.135   1.406 -0.25 -0.31    -0.481    11.433
ATOM     37  H   UNL d   1       8.646  -9.702   0.609 -0.40 +0.04    +0.295    11.433
ATOM     38  C   UNL d   1       3.735  -7.239  10.203 -0.49 +0.00    +0.017    11.433
ATOM     39  C   UNL d   1       3.454  -7.732  11.419 -0.34 -0.00    +0.092    11.433
ATOM     40  C   UNL d   1       2.313  -7.207  12.174 -0.22 -0.15    +0.330    11.433
ATOM     41  O   UNL d   1       1.682  -7.765  13.052 -0.24 +0.16    -0.246    11.433
ATOM     42  O   UNL d   1       2.026  -5.960  11.770 -0.69 +0.39    -0.477    11.433
ATOM     43  H   UNL d   1       1.589  -5.556  12.548 -0.41 -0.68    +0.295    11.433
ATOM     44  C   UNL d   1      13.874  -6.217   6.301 -0.05 +0.03    +0.141    11.433
ATOM     45  C   UNL d   1      14.389  -7.306   7.204 -0.00 +0.06    +0.306    11.433
ATOM     46  O   UNL d   1      13.957  -8.442   7.291 -0.00 -0.05    -0.251    11.433
ATOM     47  O   UNL d   1      15.412  -6.895   7.975 +0.00 -0.07    -0.481    11.433
ATOM     48  H   UNL d   1      15.072  -6.097   8.433 +0.02 +0.04    +0.295    11.433
ATOM     49  C   UNL d   1       7.979  -7.310  13.846 -0.13 -0.00    +0.048    11.433
ATOM     50  C   UNL d   1       8.240  -8.734  14.337 -0.02 +0.01    +0.125    11.433
ATOM     51  C   UNL d   1       7.603  -9.742  13.423 +0.00 +0.03    +0.305    11.433
ATOM     52  O   UNL d   1       8.068 -10.220  12.404 -0.00 -0.03    -0.251    11.433
ATOM     53  O   UNL d   1       6.372 -10.097  13.844 +0.01 -0.06    -0.481    11.433
ATOM     54  H   UNL d   1       6.488 -10.263  14.803 +0.01 +0.03    +0.295    11.433
TER
ENDMDL
MODEL        4
USER    Run = 4
USER    Cluster Rank = 17
USER    Number of conformations in this cluster = 1
USER  
USER    RMSD from reference structure       = 16.959 A
USER  
USER    Estimated Free Energy of Binding    =   -5.23 kcal/mol  [=(1)+(2)+(3)-(4)]
USER    Estimated Inhibition Constant, Ki   =  146.06 uM (micromolar)  [Temperature = 298.15 K]
USER    
USER    (1) Final Intermolecular Energy     =   -9.11 kcal/mol
USER        vdW + Hbond + desolv Energy     =   -8.64 kcal/mol
USER        Electrostatic Energy            =   -0.47 kcal/mol
USER    (2) Final Total Internal Energy     =   -2.55 kcal/mol
USER    (3) Torsional Free Energy           =   +3.88 kcal/mol
USER    (4) Unbound System's Energy  [=(2)] =   -2.55 kcal/mol
USER    
USER    
USER  
USER    DPF = D:/Protein_go_brrr/autodock/final/AncA/heme/dock.dpf
USER    NEWDPF move	heme_opt.pdbqt
USER    NEWDPF about	0.153000 0.018000 -0.028000
USER    NEWDPF tran0	-11.767965 -15.712266 -7.371255
USER    NEWDPF axisangle0	0.258004 0.577882 -0.774265 130.085924
USER    NEWDPF quaternion0	0.233913 0.523922 -0.701967 0.421939
USER    NEWDPF dihe0	-14.33 -135.69 -100.91 118.20 28.60 -4.43 -30.63 -3.74 -10.10 143.85 119.45 -4.91 35.27 
USER  
USER                              x       y       z    vdW   Elec        q     RMS 
ATOM      1  O   UNL d   1      -9.855 -20.920  -9.364 -0.05 -0.16    -0.289    16.959
ATOM      2  O   UNL d   1      -7.448 -16.628  -3.692 -0.13 -0.36    -0.289    16.959
ATOM      3  N   UNL d   1     -11.221 -17.837  -8.645 -0.14 -0.09    -0.247    16.959
ATOM      4  N   UNL d   1      -9.863 -17.059  -6.119 -0.13 -0.13    -0.247    16.959
ATOM      5  N   UNL d   1     -11.832 -14.988  -5.806 -0.09 -0.09    -0.354    16.959
ATOM      6  N   UNL d   1     -13.246 -15.813  -8.417 -0.05 -0.03    -0.354    16.959
ATOM      7  C   UNL d   1     -11.760 -19.644 -10.210 -0.05 +0.03    +0.084    16.959
ATOM      8  C   UNL d   1      -7.653 -18.014  -5.698 -0.18 +0.08    +0.084    16.959
ATOM      9  C   UNL d   1      -8.914 -17.951  -6.567 -0.19 +0.04    +0.058    16.959
ATOM     10  C   UNL d   1     -12.089 -18.263  -9.637 -0.12 +0.02    +0.058    16.959
ATOM     11  C   UNL d   1     -10.542 -19.915  -9.380 -0.08 +0.09    +0.193    16.959
ATOM     12  C   UNL d   1     -10.304 -18.735  -8.490 -0.15 +0.06    +0.109    16.959
ATOM     13  C   UNL d   1      -8.078 -17.021  -4.654 -0.13 +0.17    +0.193    16.959
ATOM     14  C   UNL d   1     -12.834 -20.679  -9.867 -0.02 +0.01    +0.026    16.959
ATOM     15  C   UNL d   1      -9.096 -18.736  -7.640 -0.18 +0.04    +0.055    16.959
ATOM     16  C   UNL d   1      -6.429 -17.462  -6.434 -0.17 +0.03    +0.026    16.959
ATOM     17  C   UNL d   1      -9.438 -16.522  -5.021 -0.14 +0.07    +0.109    16.959
ATOM     18  C   UNL d   1     -13.088 -17.513 -10.138 -0.13 +0.01    +0.050    16.959
ATOM     19  C   UNL d   1     -13.412 -16.194  -9.730 -0.11 +0.01    +0.045    16.959
ATOM     20  C   UNL d   1     -11.226 -14.924  -4.578 -0.01 +0.02    +0.045    16.959
ATOM     21  C   UNL d   1     -10.131 -15.561  -4.150 -0.04 +0.03    +0.057    16.959
ATOM     22  C   UNL d   1     -13.052 -13.552  -4.572 -0.17 -0.00    -0.019    16.959
ATOM     23  C   UNL d   1     -12.944 -14.193  -5.897 -0.18 +0.01    +0.045    16.959
ATOM     24  C   UNL d   1     -12.031 -13.987  -3.796 -0.16 -0.01    -0.022    16.959
ATOM     25  C   UNL d   1     -13.704 -14.530  -8.225 -0.17 +0.00    +0.049    16.959
ATOM     26  C   UNL d   1     -13.956 -15.119 -10.416 -0.21 -0.00    -0.018    16.959
ATOM     27  C   UNL d   1     -14.121 -14.065  -9.465 -0.25 +0.00    +0.003    16.959
ATOM     28  C   UNL d   1     -13.783 -13.972  -6.920 -0.19 +0.01    +0.052    16.959
ATOM     29  C   UNL d   1     -11.707 -13.619  -2.388 -0.17 +0.01    +0.046    16.959
ATOM     30  C   UNL d   1     -14.302 -15.071 -11.866 -0.19 +0.03    +0.046    16.959
ATOM     31  H   UNL d   1     -11.422 -15.517  -6.568 +0.04 +0.04    +0.166    16.959
ATOM     32  H   UNL d   1     -12.875 -16.423  -7.699 +0.03 +0.03    +0.166    16.959
ATOM     33  C   UNL d   1     -11.410 -19.670 -11.702 -0.06 +0.05    +0.141    16.959
ATOM     34  C   UNL d   1     -10.604 -18.473 -12.129 -0.14 +0.13    +0.306    16.959
ATOM     35  O   UNL d   1      -9.397 -18.341 -12.016 -0.21 -0.14    -0.251    16.959
ATOM     36  O   UNL d   1     -11.361 -17.507 -12.678 -0.10 -0.19    -0.481    16.959
ATOM     37  H   UNL d   1     -10.795 -16.706 -12.654 -0.43 +0.06    +0.295    16.959
ATOM     38  C   UNL d   1     -14.669 -12.774  -9.751 -0.30 +0.00    +0.017    16.959
ATOM     39  C   UNL d   1     -14.318 -11.631  -9.143 -0.13 -0.00    +0.092    16.959
ATOM     40  C   UNL d   1     -14.945 -10.368  -9.542 -0.20 +0.00    +0.330    16.959
ATOM     41  O   UNL d   1     -15.710 -10.178 -10.469 -0.16 -0.03    -0.246    16.959
ATOM     42  O   UNL d   1     -14.566  -9.382  -8.715 -0.18 +0.05    -0.477    16.959
ATOM     43  H   UNL d   1     -13.602  -9.519  -8.612 -0.37 -0.12    +0.295    16.959
ATOM     44  C   UNL d   1      -7.353 -19.378  -5.068 -0.07 +0.11    +0.141    16.959
ATOM     45  C   UNL d   1      -6.409 -20.217  -5.887 -0.07 +0.33    +0.306    16.959
ATOM     46  O   UNL d   1      -6.671 -20.809  -6.920 -0.63 -0.38    -0.251    16.959
ATOM     47  O   UNL d   1      -5.180 -20.288  -5.343 -0.02 -0.49    -0.481    16.959
ATOM     48  H   UNL d   1      -5.267 -20.944  -4.619 +0.03 +0.22    +0.295    16.959
ATOM     49  C   UNL d   1     -14.141 -12.594  -4.186 -0.24 +0.00    +0.048    16.959
ATOM     50  C   UNL d   1     -14.345 -11.509  -5.243 -0.25 +0.00    +0.125    16.959
ATOM     51  C   UNL d   1     -13.086 -10.714  -5.446 -0.28 +0.01    +0.305    16.959
ATOM     52  O   UNL d   1     -12.072 -10.744  -4.772 -0.32 -0.02    -0.251    16.959
ATOM     53  O   UNL d   1     -13.176  -9.890  -6.509 -0.19 +0.03    -0.481    16.959
ATOM     54  H   UNL d   1     -13.300 -10.495  -7.270 -0.41 -0.07    +0.295    16.959
TER
ENDMDL
MODEL       22
USER    Run = 22
USER    Cluster Rank = 18
USER    Number of conformations in this cluster = 2
USER  
USER    RMSD from reference structure       = 14.919 A
USER  
USER    Estimated Free Energy of Binding    =   -5.15 kcal/mol  [=(1)+(2)+(3)-(4)]
USER    Estimated Inhibition Constant, Ki   =  166.73 uM (micromolar)  [Temperature = 298.15 K]
USER    
USER    (1) Final Intermolecular Energy     =   -9.03 kcal/mol
USER        vdW + Hbond + desolv Energy     =   -8.67 kcal/mol
USER        Electrostatic Energy            =   -0.37 kcal/mol
USER    (2) Final Total Internal Energy     =   -2.49 kcal/mol
USER    (3) Torsional Free Energy           =   +3.88 kcal/mol
USER    (4) Unbound System's Energy  [=(2)] =   -2.49 kcal/mol
USER    
USER    
USER  
USER    DPF = D:/Protein_go_brrr/autodock/final/AncA/heme/dock.dpf
USER    NEWDPF move	heme_opt.pdbqt
USER    NEWDPF about	0.153000 0.018000 -0.028000
USER    NEWDPF tran0	-12.439359 -14.387279 -1.174727
USER    NEWDPF axisangle0	0.341034 0.914611 -0.217216 -114.966693
USER    NEWDPF quaternion0	0.287572 0.771232 -0.183164 -0.537545
USER    NEWDPF dihe0	162.92 -64.61 -111.09 -44.77 63.61 164.46 120.88 65.21 152.91 -30.79 62.60 18.05 -180.00 
USER  
USER                              x       y       z    vdW   Elec        q     RMS 
ATOM      1  O   UNL d   1      -9.448 -14.858   3.884 -0.06 -0.18    -0.289    14.919
ATOM      2  O   UNL d   1     -16.004 -17.828   1.740 -0.03 -0.04    -0.289    14.919
ATOM      3  N   UNL d   1     -10.894 -14.183   0.826 -0.15 -0.12    -0.247    14.919
ATOM      4  N   UNL d   1     -13.243 -16.001   0.764 -0.08 -0.06    -0.247    14.919
ATOM      5  N   UNL d   1     -13.474 -15.457  -2.049 -0.08 -0.07    -0.354    14.919
ATOM      6  N   UNL d   1     -11.025 -13.587  -1.980 -0.08 -0.12    -0.354    14.919
ATOM      7  C   UNL d   1      -8.751 -13.638   1.884 -0.21 +0.08    +0.084    14.919
ATOM      8  C   UNL d   1     -14.188 -16.680   2.913 -0.11 +0.02    +0.084    14.919
ATOM      9  C   UNL d   1     -13.090 -15.952   2.132 -0.10 +0.01    +0.058    14.919
ATOM     10  C   UNL d   1      -9.677 -13.542   0.667 -0.17 +0.04    +0.058    14.919
ATOM     11  C   UNL d   1      -9.669 -14.429   2.766 -0.11 +0.12    +0.193    14.919
ATOM     12  C   UNL d   1     -10.945 -14.674   2.021 -0.14 +0.05    +0.109    14.919
ATOM     13  C   UNL d   1     -14.972 -17.185   1.735 -0.07 +0.03    +0.193    14.919
ATOM     14  C   UNL d   1      -7.502 -14.473   1.592 -0.05 +0.04    +0.026    14.919
ATOM     15  C   UNL d   1     -12.043 -15.362   2.730 -0.18 +0.02    +0.055    14.919
ATOM     16  C   UNL d   1     -15.063 -15.705   3.706 -0.26 +0.00    +0.026    14.919
ATOM     17  C   UNL d   1     -14.291 -16.711   0.493 -0.10 +0.02    +0.109    14.919
ATOM     18  C   UNL d   1      -9.343 -12.814  -0.415 -0.27 +0.03    +0.050    14.919
ATOM     19  C   UNL d   1     -10.167 -12.600  -1.549 -0.22 +0.02    +0.045    14.919
ATOM     20  C   UNL d   1     -14.372 -16.486  -1.934 -0.08 +0.01    +0.045    14.919
ATOM     21  C   UNL d   1     -14.815 -17.092  -0.827 -0.09 +0.01    +0.057    14.919
ATOM     22  C   UNL d   1     -14.114 -15.976  -4.146 -0.04 -0.00    -0.019    14.919
ATOM     23  C   UNL d   1     -13.253 -15.080  -3.347 -0.11 +0.01    +0.045    14.919
ATOM     24  C   UNL d   1     -14.774 -16.805  -3.303 -0.03 -0.00    -0.022    14.919
ATOM     25  C   UNL d   1     -11.657 -13.204  -3.140 -0.21 +0.01    +0.049    14.919
ATOM     26  C   UNL d   1     -10.272 -11.535  -2.430 -0.32 -0.01    -0.018    14.919
ATOM     27  C   UNL d   1     -11.228 -11.914  -3.422 -0.29 +0.00    +0.003    14.919
ATOM     28  C   UNL d   1     -12.473 -14.118  -3.862 -0.17 +0.01    +0.052    14.919
ATOM     29  C   UNL d   1     -15.762 -17.873  -3.629 -0.01 +0.01    +0.046    14.919
ATOM     30  C   UNL d   1      -9.531 -10.243  -2.356 -0.45 +0.01    +0.046    14.919
ATOM     31  H   UNL d   1     -13.096 -14.994  -1.229 +0.02 +0.03    +0.166    14.919
ATOM     32  H   UNL d   1     -11.130 -14.481  -1.515 +0.04 +0.06    +0.166    14.919
ATOM     33  C   UNL d   1      -8.393 -12.301   2.543 -0.31 +0.13    +0.141    14.919
ATOM     34  C   UNL d   1      -7.143 -12.384   3.377 -0.16 +0.44    +0.306    14.919
ATOM     35  O   UNL d   1      -6.109 -11.765   3.189 -0.74 -0.36    -0.251    14.919
ATOM     36  O   UNL d   1      -7.263 -13.240   4.407 -0.60 -0.69    -0.481    14.919
ATOM     37  H   UNL d   1      -8.231 -13.346   4.529 +0.16 +0.26    +0.295    14.919
ATOM     38  C   UNL d   1     -11.626 -11.107  -4.536 -0.43 +0.00    +0.017    14.919
ATOM     39  C   UNL d   1     -12.889 -10.769  -4.835 -0.37 +0.00    +0.092    14.919
ATOM     40  C   UNL d   1     -13.162  -9.920  -5.997 -0.26 -0.00    +0.330    14.919
ATOM     41  O   UNL d   1     -14.223  -9.764  -6.572 -0.32 +0.00    -0.246    14.919
ATOM     42  O   UNL d   1     -12.043  -9.284  -6.378 -0.26 +0.00    -0.477    14.919
ATOM     43  H   UNL d   1     -11.858  -9.647  -7.269 -0.26 -0.11    +0.295    14.919
ATOM     44  C   UNL d   1     -13.713 -17.841   3.794 -0.03 +0.03    +0.141    14.919
ATOM     45  C   UNL d   1     -13.483 -19.115   3.025 +0.00 +0.06    +0.306    14.919
ATOM     46  O   UNL d   1     -12.528 -19.371   2.312 -0.00 -0.06    -0.251    14.919
ATOM     47  O   UNL d   1     -14.489 -19.995   3.174 +0.00 -0.08    -0.481    14.919
ATOM     48  H   UNL d   1     -15.251 -19.580   2.715 +0.01 +0.04    +0.295    14.919
ATOM     49  C   UNL d   1     -14.198 -15.949  -5.643 -0.05 +0.01    +0.048    14.919
ATOM     50  C   UNL d   1     -13.288 -16.998  -6.283 -0.05 +0.03    +0.125    14.919
ATOM     51  C   UNL d   1     -12.220 -16.346  -7.115 -0.12 +0.07    +0.305    14.919
ATOM     52  O   UNL d   1     -11.376 -15.548  -6.747 -0.22 -0.06    -0.251    14.919
ATOM     53  O   UNL d   1     -12.277 -16.735  -8.404 -0.07 -0.08    -0.481    14.919
ATOM     54  H   UNL d   1     -12.180 -15.900  -8.909 -0.39 -0.03    +0.295    14.919
TER
ENDMDL
MODEL       83
USER    Run = 83
USER    Cluster Rank = 19
USER    Number of conformations in this cluster = 4
USER  
USER    RMSD from reference structure       = 17.592 A
USER  
USER    Estimated Free Energy of Binding    =   -5.10 kcal/mol  [=(1)+(2)+(3)-(4)]
USER    Estimated Inhibition Constant, Ki   =  183.30 uM (micromolar)  [Temperature = 298.15 K]
USER    
USER    (1) Final Intermolecular Energy     =   -8.98 kcal/mol
USER        vdW + Hbond + desolv Energy     =   -8.58 kcal/mol
USER        Electrostatic Energy            =   -0.39 kcal/mol
USER    (2) Final Total Internal Energy     =   -2.56 kcal/mol
USER    (3) Torsional Free Energy           =   +3.88 kcal/mol
USER    (4) Unbound System's Energy  [=(2)] =   -2.56 kcal/mol
USER    
USER    
USER  
USER    DPF = D:/Protein_go_brrr/autodock/final/AncA/heme/dock.dpf
USER    NEWDPF move	heme_opt.pdbqt
USER    NEWDPF about	0.153000 0.018000 -0.028000
USER    NEWDPF tran0	-13.413275 -15.214479 -8.320501
USER    NEWDPF axisangle0	0.332276 -0.932179 -0.143647 112.093161
USER    NEWDPF quaternion0	0.275620 -0.773235 -0.119154 0.558519
USER    NEWDPF dihe0	144.92 67.37 -120.88 -103.36 -135.40 89.12 120.91 -101.90 28.33 -26.03 9.43 14.29 -170.19 
USER  
USER                              x       y       z    vdW   Elec        q     RMS 
ATOM      1  O   UNL d   1     -12.583 -11.866  -3.540 -0.21 -0.02    -0.289    17.592
ATOM      2  O   UNL d   1     -11.367 -19.185  -4.703 -0.01 -0.10    -0.289    17.592
ATOM      3  N   UNL d   1     -13.359 -13.440  -6.509 -0.14 -0.03    -0.247    17.592
ATOM      4  N   UNL d   1     -12.263 -16.177  -6.138 -0.08 -0.06    -0.247    17.592
ATOM      5  N   UNL d   1     -12.599 -16.594  -8.963 -0.03 -0.05    -0.354    17.592
ATOM      6  N   UNL d   1     -13.716 -13.746  -9.342 -0.15 -0.02    -0.354    17.592
ATOM      7  C   UNL d   1     -13.381 -11.118  -5.726 -0.32 +0.00    +0.084    17.592
ATOM      8  C   UNL d   1     -12.066 -17.001  -3.846 -0.03 +0.03    +0.084    17.592
ATOM      9  C   UNL d   1     -12.390 -15.852  -4.806 -0.08 +0.02    +0.058    17.592
ATOM     10  C   UNL d   1     -13.620 -12.125  -6.854 -0.24 +0.00    +0.058    17.592
ATOM     11  C   UNL d   1     -12.956 -12.099  -4.675 -0.20 +0.02    +0.193    17.592
ATOM     12  C   UNL d   1     -13.008 -13.474  -5.265 -0.16 +0.02    +0.109    17.592
ATOM     13  C   UNL d   1     -11.696 -18.028  -4.879 -0.02 +0.06    +0.193    17.592
ATOM     14  C   UNL d   1     -12.209 -10.180  -6.030 -0.51 +0.00    +0.026    17.592
ATOM     15  C   UNL d   1     -12.718 -14.622  -4.381 -0.13 +0.01    +0.055    17.592
ATOM     16  C   UNL d   1     -13.312 -17.483  -3.096 -0.02 +0.01    +0.026    17.592
ATOM     17  C   UNL d   1     -11.850 -17.401  -6.226 -0.07 +0.03    +0.109    17.592
ATOM     18  C   UNL d   1     -14.128 -11.743  -8.041 -0.19 -0.00    +0.050    17.592
ATOM     19  C   UNL d   1     -14.461 -12.612  -9.111 -0.26 +0.00    +0.045    17.592
ATOM     20  C   UNL d   1     -11.873 -17.713  -8.644 -0.16 +0.01    +0.045    17.592
ATOM     21  C   UNL d   1     -11.514 -18.163  -7.438 -0.12 +0.02    +0.057    17.592
ATOM     22  C   UNL d   1     -12.093 -17.597 -10.915 -0.20 -0.01    -0.019    17.592
ATOM     23  C   UNL d   1     -12.783 -16.440 -10.311 -0.05 +0.01    +0.045    17.592
ATOM     24  C   UNL d   1     -11.558 -18.348  -9.923 -0.17 -0.01    -0.022    17.592
ATOM     25  C   UNL d   1     -14.154 -14.390 -10.476 -0.25 +0.01    +0.049    17.592
ATOM     26  C   UNL d   1     -15.431 -12.536 -10.099 -0.19 -0.00    -0.018    17.592
ATOM     27  C   UNL d   1     -15.245 -13.671 -10.947 -0.19 +0.00    +0.003    17.592
ATOM     28  C   UNL d   1     -13.442 -15.500 -11.006 -0.27 +0.02    +0.052    17.592
ATOM     29  C   UNL d   1     -10.780 -19.616 -10.028 -0.12 +0.02    +0.046    17.592
ATOM     30  C   UNL d   1     -16.469 -11.475 -10.248 -0.12 +0.01    +0.046    17.592
ATOM     31  H   UNL d   1     -13.010 -16.011  -8.242 -0.02 +0.02    +0.166    17.592
ATOM     32  H   UNL d   1     -12.931 -14.028  -8.767 -0.49 -0.03    +0.166    17.592
ATOM     33  C   UNL d   1     -14.618 -10.340  -5.266 -0.30 +0.00    +0.141    17.592
ATOM     34  C   UNL d   1     -15.537 -11.168  -4.408 -0.22 +0.00    +0.306    17.592
ATOM     35  O   UNL d   1     -16.362 -11.973  -4.804 -0.10 -0.02    -0.251    17.592
ATOM     36  O   UNL d   1     -15.365 -10.938  -3.094 -0.49 -0.01    -0.481    17.592
ATOM     37  H   UNL d   1     -14.398 -10.815  -2.989 -0.15 -0.08    +0.295    17.592
ATOM     38  C   UNL d   1     -16.028 -13.972 -12.107 -0.13 +0.01    +0.017    17.592
ATOM     39  C   UNL d   1     -16.617 -15.151 -12.359 -0.11 +0.05    +0.092    17.592
ATOM     40  C   UNL d   1     -17.409 -15.325 -13.579 -0.05 +0.21    +0.330    17.592
ATOM     41  O   UNL d   1     -17.015 -15.659 -14.681 -0.10 -0.22    -0.246    17.592
ATOM     42  O   UNL d   1     -18.702 -15.068 -13.331 -0.00 -0.18    -0.477    17.592
ATOM     43  H   UNL d   1     -19.139 -15.938 -13.434 +0.01 +0.09    +0.295    17.592
ATOM     44  C   UNL d   1     -10.902 -16.748  -2.882 -0.04 +0.06    +0.141    17.592
ATOM     45  C   UNL d   1      -9.552 -16.848  -3.541 -0.04 +0.18    +0.306    17.592
ATOM     46  O   UNL d   1      -9.031 -16.013  -4.260 -0.12 -0.18    -0.251    17.592
ATOM     47  O   UNL d   1      -8.937 -18.016  -3.280 +0.01 -0.29    -0.481    17.592
ATOM     48  H   UNL d   1      -9.557 -18.701  -3.608 +0.03 +0.14    +0.295    17.592
ATOM     49  C   UNL d   1     -12.009 -17.852 -12.391 -0.20 +0.02    +0.048    17.592
ATOM     50  C   UNL d   1     -10.613 -17.561 -12.940 -0.14 +0.04    +0.125    17.592
ATOM     51  C   UNL d   1     -10.612 -17.580 -14.443 -0.12 +0.14    +0.305    17.592
ATOM     52  O   UNL d   1     -10.127 -18.424 -15.175 -0.07 -0.10    -0.251    17.592
ATOM     53  O   UNL d   1     -11.229 -16.499 -14.961 -0.60 -0.41    -0.481    17.592
ATOM     54  H   UNL d   1     -10.577 -15.776 -14.848 -0.44 +0.15    +0.295    17.592
TER
ENDMDL
MODEL       87
USER    Run = 87
USER    Cluster Rank = 20
USER    Number of conformations in this cluster = 1
USER  
USER    RMSD from reference structure       = 13.332 A
USER  
USER    Estimated Free Energy of Binding    =   -4.95 kcal/mol  [=(1)+(2)+(3)-(4)]
USER    Estimated Inhibition Constant, Ki   =  235.43 uM (micromolar)  [Temperature = 298.15 K]
USER    
USER    (1) Final Intermolecular Energy     =   -8.83 kcal/mol
USER        vdW + Hbond + desolv Energy     =   -7.94 kcal/mol
USER        Electrostatic Energy            =   -0.89 kcal/mol
USER    (2) Final Total Internal Energy     =   -1.15 kcal/mol
USER    (3) Torsional Free Energy           =   +3.88 kcal/mol
USER    (4) Unbound System's Energy  [=(2)] =   -1.15 kcal/mol
USER    
USER    
USER  
USER    DPF = D:/Protein_go_brrr/autodock/final/AncA/heme/dock.dpf
USER    NEWDPF move	heme_opt.pdbqt
USER    NEWDPF about	0.153000 0.018000 -0.028000
USER    NEWDPF tran0	-2.311358 -16.560329 -1.903878
USER    NEWDPF axisangle0	0.060752 0.775669 0.628210 121.220396
USER    NEWDPF quaternion0	0.052934 0.675841 0.547360 0.490749
USER    NEWDPF dihe0	-42.35 0.49 102.33 122.01 41.45 -46.72 120.62 93.86 -124.46 -123.93 147.63 -75.92 173.78 
USER  
USER                              x       y       z    vdW   Elec        q     RMS 
ATOM      1  O   UNL d   1       1.201 -12.767  -4.737 -0.18 -0.13    -0.289    13.332
ATOM      2  O   UNL d   1      -2.943 -18.488  -7.282 -0.63 -0.44    -0.289    13.332
ATOM      3  N   UNL d   1      -0.618 -14.827  -2.654 -0.07 -0.23    -0.247    13.332
ATOM      4  N   UNL d   1      -2.129 -16.549  -4.546 -0.40 -0.38    -0.247    13.332
ATOM      5  N   UNL d   1      -3.766 -17.384  -2.334 +0.02 -0.62    -0.354    13.332
ATOM      6  N   UNL d   1      -2.206 -15.579  -0.382 -0.08 -0.44    -0.354    13.332
ATOM      7  C   UNL d   1       0.692 -12.779  -2.346 -0.16 +0.04    +0.084    13.332
ATOM      8  C   UNL d   1      -1.156 -16.899  -6.760 -0.21 +0.07    +0.084    13.332
ATOM      9  C   UNL d   1      -1.110 -16.193  -5.401 -0.18 +0.05    +0.058    13.332
ATOM     10  C   UNL d   1      -0.182 -13.881  -1.741 -0.11 +0.04    +0.058    13.332
ATOM     11  C   UNL d   1       0.689 -13.280  -3.759 -0.12 +0.10    +0.193    13.332
ATOM     12  C   UNL d   1      -0.117 -14.540  -3.811 -0.15 +0.08    +0.109    13.332
ATOM     13  C   UNL d   1      -2.411 -17.693  -6.532 -0.15 +0.21    +0.193    13.332
ATOM     14  C   UNL d   1       0.005 -11.412  -2.304 -0.32 +0.01    +0.026    13.332
ATOM     15  C   UNL d   1      -0.186 -15.270  -5.093 -0.25 +0.04    +0.055    13.332
ATOM     16  C   UNL d   1       0.016 -17.869  -6.936 -0.17 +0.02    +0.026    13.332
ATOM     17  C   UNL d   1      -2.906 -17.386  -5.155 -0.07 +0.15    +0.109    13.332
ATOM     18  C   UNL d   1      -0.414 -13.947  -0.417 -0.16 +0.04    +0.050    13.332
ATOM     19  C   UNL d   1      -1.138 -14.973   0.241 -0.12 +0.04    +0.045    13.332
ATOM     20  C   UNL d   1      -4.479 -17.926  -3.372 -0.04 +0.07    +0.045    13.332
ATOM     21  C   UNL d   1      -4.153 -17.992  -4.667 -0.14 +0.08    +0.057    13.332
ATOM     22  C   UNL d   1      -5.672 -18.188  -1.442 -0.04 -0.02    -0.019    13.332
ATOM     23  C   UNL d   1      -4.406 -17.494  -1.129 -0.07 +0.06    +0.045    13.332
ATOM     24  C   UNL d   1      -5.708 -18.442  -2.771 -0.07 -0.02    -0.022    13.332
ATOM     25  C   UNL d   1      -2.815 -16.475   0.466 -0.10 +0.06    +0.049    13.332
ATOM     26  C   UNL d   1      -1.029 -15.516   1.513 -0.09 -0.02    -0.018    13.332
ATOM     27  C   UNL d   1      -2.078 -16.477   1.642 -0.06 +0.00    +0.003    13.332
ATOM     28  C   UNL d   1      -4.034 -17.110   0.102 -0.09 +0.07    +0.052    13.332
ATOM     29  C   UNL d   1      -6.768 -19.131  -3.561 -0.05 +0.04    +0.046    13.332
ATOM     30  C   UNL d   1      -0.011 -15.165   2.545 -0.13 +0.03    +0.046    13.332
ATOM     31  H   UNL d   1      -2.829 -17.021  -2.472 +0.01 +0.29    +0.166    13.332
ATOM     32  H   UNL d   1      -2.509 -15.352  -1.321 +0.02 +0.28    +0.166    13.332
ATOM     33  C   UNL d   1       2.124 -12.705  -1.805 -0.14 +0.05    +0.141    13.332
ATOM     34  C   UNL d   1       2.197 -12.069  -0.443 -0.16 +0.09    +0.306    13.332
ATOM     35  O   UNL d   1       2.215 -12.655   0.626 -0.12 -0.08    -0.251    13.332
ATOM     36  O   UNL d   1       2.245 -10.726  -0.500 -0.14 -0.07    -0.481    13.332
ATOM     37  H   UNL d   1       1.610 -10.427   0.185 -0.44 -0.01    +0.295    13.332
ATOM     38  C   UNL d   1      -2.338 -17.263   2.810 -0.08 +0.02    +0.017    13.332
ATOM     39  C   UNL d   1      -3.556 -17.564   3.286 -0.06 +0.11    +0.092    13.332
ATOM     40  C   UNL d   1      -3.687 -18.394   4.486 -0.03 +0.23    +0.330    13.332
ATOM     41  O   UNL d   1      -3.135 -19.453   4.721 -0.00 -0.11    -0.246    13.332
ATOM     42  O   UNL d   1      -4.529 -17.818   5.357 -0.06 -0.37    -0.477    13.332
ATOM     43  H   UNL d   1      -4.543 -18.437   6.115 +0.02 +0.15    +0.295    13.332
ATOM     44  C   UNL d   1      -1.303 -15.980  -7.977 -0.17 +0.08    +0.141    13.332
ATOM     45  C   UNL d   1      -1.496 -16.729  -9.268 -0.27 +0.15    +0.306    13.332
ATOM     46  O   UNL d   1      -2.521 -17.268  -9.649 -0.34 -0.23    -0.251    13.332
ATOM     47  O   UNL d   1      -0.372 -16.784 -10.005 -0.19 -0.06    -0.481    13.332
ATOM     48  H   UNL d   1      -0.313 -15.904 -10.432 -0.38 -0.07    +0.295    13.332
ATOM     49  C   UNL d   1      -6.724 -18.521  -0.425 -0.01 +0.04    +0.048    13.332
ATOM     50  C   UNL d   1      -7.753 -17.401  -0.283 -0.01 +0.10    +0.125    13.332
ATOM     51  C   UNL d   1      -7.125 -16.060  -0.537 -0.05 +0.38    +0.305    13.332
ATOM     52  O   UNL d   1      -6.992 -15.492  -1.607 -0.61 -0.42    -0.251    13.332
ATOM     53  O   UNL d   1      -6.672 -15.492   0.598 -0.39 -0.86    -0.481    13.332
ATOM     54  H   UNL d   1      -7.468 -15.429   1.167 +0.06 +0.42    +0.295    13.332
TER
ENDMDL
MODEL       53
USER    Run = 53
USER    Cluster Rank = 21
USER    Number of conformations in this cluster = 1
USER  
USER    RMSD from reference structure       = 19.015 A
USER  
USER    Estimated Free Energy of Binding    =   -4.78 kcal/mol  [=(1)+(2)+(3)-(4)]
USER    Estimated Inhibition Constant, Ki   =  315.06 uM (micromolar)  [Temperature = 298.15 K]
USER    
USER    (1) Final Intermolecular Energy     =   -8.65 kcal/mol
USER        vdW + Hbond + desolv Energy     =   -8.19 kcal/mol
USER        Electrostatic Energy            =   -0.47 kcal/mol
USER    (2) Final Total Internal Energy     =   -2.15 kcal/mol
USER    (3) Torsional Free Energy           =   +3.88 kcal/mol
USER    (4) Unbound System's Energy  [=(2)] =   -2.15 kcal/mol
USER    
USER    
USER  
USER    DPF = D:/Protein_go_brrr/autodock/final/AncA/heme/dock.dpf
USER    NEWDPF move	heme_opt.pdbqt
USER    NEWDPF about	0.153000 0.018000 -0.028000
USER    NEWDPF tran0	-20.366642 -5.942025 8.550236
USER    NEWDPF axisangle0	0.549755 0.830308 0.091421 -86.995717
USER    NEWDPF quaternion0	0.378412 0.571524 0.062928 -0.725400
USER    NEWDPF dihe0	111.20 -113.79 115.23 32.73 -179.64 -167.44 -48.37 163.43 -21.68 -134.68 32.34 -142.86 -28.76 
USER  
USER                              x       y       z    vdW   Elec        q     RMS 
ATOM      1  O   UNL d   1     -21.123  -7.999  14.023 -0.01 +0.01    -0.289    19.015
ATOM      2  O   UNL d   1     -24.305 -10.000   7.523 -0.01 -0.01    -0.289    19.015
ATOM      3  N   UNL d   1     -20.456  -6.393  11.045 -0.10 +0.06    -0.247    19.015
ATOM      4  N   UNL d   1     -21.903  -8.043   9.041 -0.07 +0.03    -0.247    19.015
ATOM      5  N   UNL d   1     -20.433  -6.669   6.986 +0.04 +0.08    -0.354    19.015
ATOM      6  N   UNL d   1     -18.923  -4.976   9.073 -0.09 +0.13    -0.354    19.015
ATOM      7  C   UNL d   1     -19.563  -6.252  13.323 -0.08 -0.02    +0.084    19.015
ATOM      8  C   UNL d   1     -23.839  -9.311   9.825 -0.02 +0.00    +0.084    19.015
ATOM      9  C   UNL d   1     -22.640  -8.411  10.144 -0.07 -0.00    +0.058    19.015
ATOM     10  C   UNL d   1     -19.536  -5.769  11.870 -0.16 -0.02    +0.058    19.015
ATOM     11  C   UNL d   1     -20.675  -7.247  13.177 -0.02 -0.02    +0.193    19.015
ATOM     12  C   UNL d   1     -21.149  -7.220  11.757 -0.07 -0.01    +0.109    19.015
ATOM     13  C   UNL d   1     -23.623  -9.415   8.341 -0.02 +0.00    +0.193    19.015
ATOM     14  C   UNL d   1     -18.281  -6.995  13.706 -0.14 -0.01    +0.026    19.015
ATOM     15  C   UNL d   1     -22.310  -8.058  11.396 -0.06 -0.00    +0.055    19.015
ATOM     16  C   UNL d   1     -25.169  -8.596  10.080 -0.01 +0.00    +0.026    19.015
ATOM     17  C   UNL d   1     -22.414  -8.608   7.995 -0.10 -0.00    +0.109    19.015
ATOM     18  C   UNL d   1     -18.737  -4.758  11.480 -0.12 -0.03    +0.050    19.015
ATOM     19  C   UNL d   1     -18.704  -4.189  10.181 -0.18 -0.03    +0.045    19.015
ATOM     20  C   UNL d   1     -21.014  -7.660   6.238 -0.20 -0.01    +0.045    19.015
ATOM     21  C   UNL d   1     -21.933  -8.559   6.606 -0.17 -0.00    +0.057    19.015
ATOM     22  C   UNL d   1     -19.536  -6.515   4.926 -0.29 +0.00    -0.019    19.015
ATOM     23  C   UNL d   1     -19.526  -5.925   6.280 -0.33 -0.01    +0.045    19.015
ATOM     24  C   UNL d   1     -20.420  -7.540   4.907 -0.23 +0.00    -0.022    19.015
ATOM     25  C   UNL d   1     -18.756  -4.244   7.920 -0.33 -0.00    +0.049    19.015
ATOM     26  C   UNL d   1     -18.423  -2.906   9.739 -0.23 +0.01    -0.018    19.015
ATOM     27  C   UNL d   1     -18.477  -2.941   8.311 -0.29 -0.00    +0.003    19.015
ATOM     28  C   UNL d   1     -18.776  -4.874   6.646 -0.41 -0.00    +0.052    19.015
ATOM     29  C   UNL d   1     -20.790  -8.432   3.771 -0.27 -0.01    +0.046    19.015
ATOM     30  C   UNL d   1     -18.126  -1.717  10.588 -0.17 -0.01    +0.046    19.015
ATOM     31  H   UNL d   1     -20.731  -6.486   7.938 -0.26 -0.05    +0.166    19.015
ATOM     32  H   UNL d   1     -19.136  -5.965   9.121 -0.52 -0.11    +0.166    19.015
ATOM     33  C   UNL d   1     -19.928  -5.186  14.362 -0.02 -0.02    +0.141    19.015
ATOM     34  C   UNL d   1     -20.770  -4.080  13.787 +0.01 -0.03    +0.306    19.015
ATOM     35  O   UNL d   1     -20.523  -2.887  13.836 -0.00 +0.02    -0.251    19.015
ATOM     36  O   UNL d   1     -21.879  -4.536  13.178 +0.01 +0.03    -0.481    19.015
ATOM     37  H   UNL d   1     -21.551  -4.964  12.358 +0.03 -0.03    +0.295    19.015
ATOM     38  C   UNL d   1     -18.232  -1.825   7.448 -0.30 +0.00    +0.017    19.015
ATOM     39  C   UNL d   1     -17.027  -1.293   7.193 -0.28 +0.03    +0.092    19.015
ATOM     40  C   UNL d   1     -16.910  -0.159   6.273 -0.25 +0.25    +0.330    19.015
ATOM     41  O   UNL d   1     -15.893   0.318   5.806 -0.40 -0.16    -0.246    19.015
ATOM     42  O   UNL d   1     -18.127   0.323   5.977 -0.22 -0.73    -0.477    19.015
ATOM     43  H   UNL d   1     -18.450   0.684   6.828 +0.09 +0.25    +0.295    19.015
ATOM     44  C   UNL d   1     -23.818 -10.696  10.480 -0.01 +0.01    +0.141    19.015
ATOM     45  C   UNL d   1     -25.066 -11.496  10.217 -0.00 +0.01    +0.306    19.015
ATOM     46  O   UNL d   1     -26.062 -11.540  10.917 -0.00 -0.01    -0.251    19.015
ATOM     47  O   UNL d   1     -24.980 -12.227   9.091 +0.00 -0.02    -0.481    19.015
ATOM     48  H   UNL d   1     -24.931 -11.564   8.369 +0.01 +0.01    +0.295    19.015
ATOM     49  C   UNL d   1     -18.678  -6.035   3.792 -0.39 -0.00    +0.048    19.015
ATOM     50  C   UNL d   1     -19.509  -5.390   2.684 -0.32 +0.02    +0.125    19.015
ATOM     51  C   UNL d   1     -18.894  -5.641   1.336 -0.31 +0.03    +0.305    19.015
ATOM     52  O   UNL d   1     -19.447  -5.620   0.251 -0.35 -0.03    -0.251    19.015
ATOM     53  O   UNL d   1     -17.579  -5.925   1.427 -0.24 +0.03    -0.481    19.015
ATOM     54  H   UNL d   1     -17.198  -5.557   0.602 -0.28 -0.10    +0.295    19.015
TER
ENDMDL
MODEL       97
USER    Run = 97
USER    Cluster Rank = 22
USER    Number of conformations in this cluster = 2
USER  
USER    RMSD from reference structure       = 17.230 A
USER  
USER    Estimated Free Energy of Binding    =   -4.69 kcal/mol  [=(1)+(2)+(3)-(4)]
USER    Estimated Inhibition Constant, Ki   =  364.34 uM (micromolar)  [Temperature = 298.15 K]
USER    
USER    (1) Final Intermolecular Energy     =   -8.57 kcal/mol
USER        vdW + Hbond + desolv Energy     =   -7.93 kcal/mol
USER        Electrostatic Energy            =   -0.64 kcal/mol
USER    (2) Final Total Internal Energy     =   -2.36 kcal/mol
USER    (3) Torsional Free Energy           =   +3.88 kcal/mol
USER    (4) Unbound System's Energy  [=(2)] =   -2.36 kcal/mol
USER    
USER    
USER  
USER    DPF = D:/Protein_go_brrr/autodock/final/AncA/heme/dock.dpf
USER    NEWDPF move	heme_opt.pdbqt
USER    NEWDPF about	0.153000 0.018000 -0.028000
USER    NEWDPF tran0	11.662129 -2.786611 -15.325084
USER    NEWDPF axisangle0	0.989691 0.003016 0.143191 141.284242
USER    NEWDPF quaternion0	0.933740 0.002845 0.135096 0.331468
USER    NEWDPF dihe0	117.19 0.42 -101.78 153.42 -142.61 169.42 133.42 164.78 13.09 -15.11 -41.04 17.45 -165.78 
USER  
USER                              x       y       z    vdW   Elec        q     RMS 
ATOM      1  O   UNL d   1       6.579  -3.230 -18.277 -0.10 +0.14    -0.289    17.230
ATOM      2  O   UNL d   1       8.247   0.240 -11.830 -0.06 -0.06    -0.289    17.230
ATOM      3  N   UNL d   1       9.713  -3.358 -16.844 -0.05 +0.04    -0.247    17.230
ATOM      4  N   UNL d   1       9.491  -1.485 -14.548 -0.07 -0.01    -0.247    17.230
ATOM      5  N   UNL d   1      12.357  -1.560 -14.330 -0.07 +0.02    -0.354    17.230
ATOM      6  N   UNL d   1      12.579  -3.488 -16.724 -0.00 +0.01    -0.354    17.230
ATOM      7  C   UNL d   1       8.746  -4.131 -18.960 -0.04 -0.01    +0.084    17.230
ATOM      8  C   UNL d   1       7.265  -1.136 -13.601 -0.34 +0.00    +0.084    17.230
ATOM      9  C   UNL d   1       8.149  -1.760 -14.686 -0.21 -0.00    +0.058    17.230
ATOM     10  C   UNL d   1       9.967  -4.000 -18.044 -0.04 -0.01    +0.058    17.230
ATOM     11  C   UNL d   1       7.752  -3.466 -18.056 -0.08 -0.07    +0.193    17.230
ATOM     12  C   UNL d   1       8.454  -3.066 -16.795 -0.08 -0.04    +0.109    17.230
ATOM     13  C   UNL d   1       8.350  -0.424 -12.843 -0.22 +0.03    +0.193    17.230
ATOM     14  C   UNL d   1       8.892  -3.296 -20.235 -0.01 -0.00    +0.026    17.230
ATOM     15  C   UNL d   1       7.649  -2.470 -15.709 -0.12 -0.02    +0.055    17.230
ATOM     16  C   UNL d   1       6.646  -2.200 -12.691 -0.49 -0.00    +0.026    17.230
ATOM     17  C   UNL d   1       9.650  -0.710 -13.523 -0.21 +0.01    +0.109    17.230
ATOM     18  C   UNL d   1      11.151  -4.553 -18.368 -0.03 -0.00    +0.050    17.230
ATOM     19  C   UNL d   1      12.309  -4.556 -17.550 -0.03 -0.00    +0.045    17.230
ATOM     20  C   UNL d   1      12.081  -0.537 -13.460 -0.27 +0.00    +0.045    17.230
ATOM     21  C   UNL d   1      10.893  -0.105 -13.024 -0.35 +0.00    +0.057    17.230
ATOM     22  C   UNL d   1      14.344  -0.688 -13.726 -0.25 +0.00    -0.019    17.230
ATOM     23  C   UNL d   1      13.697  -1.727 -14.553 -0.10 -0.01    +0.045    17.230
ATOM     24  C   UNL d   1      13.382   0.012 -13.081 -0.35 +0.00    -0.022    17.230
ATOM     25  C   UNL d   1      13.790  -3.658 -16.093 -0.09 -0.00    +0.049    17.230
ATOM     26  C   UNL d   1      13.352  -5.460 -17.424 -0.04 -0.00    -0.018    17.230
ATOM     27  C   UNL d   1      14.274  -4.897 -16.488 -0.08 -0.00    +0.003    17.230
ATOM     28  C   UNL d   1      14.357  -2.616 -15.311 -0.09 -0.01    +0.052    17.230
ATOM     29  C   UNL d   1      13.536   1.148 -12.127 -0.54 +0.00    +0.046    17.230
ATOM     30  C   UNL d   1      13.485  -6.769 -18.126 -0.02 +0.00    +0.046    17.230
ATOM     31  H   UNL d   1      11.621  -2.160 -14.686 +0.07 -0.00    +0.166    17.230
ATOM     32  H   UNL d   1      11.976  -2.678 -16.640 +0.04 +0.00    +0.166    17.230
ATOM     33  C   UNL d   1       8.311  -5.566 -19.274 -0.05 -0.02    +0.141    17.230
ATOM     34  C   UNL d   1       7.927  -6.338 -18.040 -0.07 -0.11    +0.306    17.230
ATOM     35  O   UNL d   1       8.678  -6.989 -17.335 -0.04 +0.05    -0.251    17.230
ATOM     36  O   UNL d   1       6.615  -6.246 -17.760 -0.07 +0.47    -0.481    17.230
ATOM     37  H   UNL d   1       6.475  -5.300 -17.541 -0.11 -0.40    +0.295    17.230
ATOM     38  C   UNL d   1      15.506  -5.501 -16.079 -0.09 -0.00    +0.017    17.230
ATOM     39  C   UNL d   1      15.868  -5.739 -14.809 -0.15 -0.00    +0.092    17.230
ATOM     40  C   UNL d   1      17.154  -6.381 -14.524 -0.04 +0.01    +0.330    17.230
ATOM     41  O   UNL d   1      17.717  -6.474 -13.450 -0.05 -0.01    -0.246    17.230
ATOM     42  O   UNL d   1      17.672  -6.898 -15.650 +0.01 -0.02    -0.477    17.230
ATOM     43  H   UNL d   1      18.514  -7.302 -15.356 +0.02 +0.02    +0.295    17.230
ATOM     44  C   UNL d   1       6.206  -0.148 -14.100 -0.35 +0.03    +0.141    17.230
ATOM     45  C   UNL d   1       6.794   1.090 -14.724 -0.19 +0.26    +0.306    17.230
ATOM     46  O   UNL d   1       7.090   1.243 -15.896 -0.40 -0.30    -0.251    17.230
ATOM     47  O   UNL d   1       7.006   2.068 -13.825 -0.61 -0.60    -0.481    17.230
ATOM     48  H   UNL d   1       7.823   1.799 -13.353 -0.22 +0.21    +0.295    17.230
ATOM     49  C   UNL d   1      15.827  -0.470 -13.657 -0.16 -0.02    +0.048    17.230
ATOM     50  C   UNL d   1      16.240   0.845 -14.319 -0.15 -0.01    +0.125    17.230
ATOM     51  C   UNL d   1      17.310   1.535 -13.521 -0.10 +0.00    +0.305    17.230
ATOM     52  O   UNL d   1      18.102   2.375 -13.910 -0.06 -0.03    -0.251    17.230
ATOM     53  O   UNL d   1      17.336   1.112 -12.241 -0.31 +0.04    -0.481    17.230
ATOM     54  H   UNL d   1      16.416   0.820 -12.068 -0.42 -0.22    +0.295    17.230
TER
ENDMDL
MODEL       61
USER    Run = 61
USER    Cluster Rank = 23
USER    Number of conformations in this cluster = 1
USER  
USER    RMSD from reference structure       = 10.584 A
USER  
USER    Estimated Free Energy of Binding    =   -4.69 kcal/mol  [=(1)+(2)+(3)-(4)]
USER    Estimated Inhibition Constant, Ki   =  365.03 uM (micromolar)  [Temperature = 298.15 K]
USER    
USER    (1) Final Intermolecular Energy     =   -8.57 kcal/mol
USER        vdW + Hbond + desolv Energy     =   -7.95 kcal/mol
USER        Electrostatic Energy            =   -0.61 kcal/mol
USER    (2) Final Total Internal Energy     =   -2.40 kcal/mol
USER    (3) Torsional Free Energy           =   +3.88 kcal/mol
USER    (4) Unbound System's Energy  [=(2)] =   -2.40 kcal/mol
USER    
USER    
USER  
USER    DPF = D:/Protein_go_brrr/autodock/final/AncA/heme/dock.dpf
USER    NEWDPF move	heme_opt.pdbqt
USER    NEWDPF about	0.153000 0.018000 -0.028000
USER    NEWDPF tran0	3.936952 -12.545409 0.165697
USER    NEWDPF axisangle0	0.787449 -0.409612 0.460589 -92.239393
USER    NEWDPF quaternion0	0.567585 -0.295244 0.331987 -0.693154
USER    NEWDPF dihe0	-155.32 -57.01 89.18 -165.23 33.45 163.03 -43.36 -65.86 131.08 -129.96 143.14 80.29 180.00 
USER  
USER                              x       y       z    vdW   Elec        q     RMS 
ATOM      1  O   UNL d   1      -0.823 -13.656  -3.130 -0.13 -0.27    -0.289    10.584
ATOM      2  O   UNL d   1       6.235 -11.981  -5.073 -0.19 +0.03    -0.289    10.584
ATOM      3  N   UNL d   1       1.632 -12.942  -0.815 -0.07 -0.09    -0.247    10.584
ATOM      4  N   UNL d   1       4.088 -12.717  -2.472 -0.06 -0.05    -0.247    10.584
ATOM      5  N   UNL d   1       5.625 -12.837  -0.046 -0.03 -0.04    -0.354    10.584
ATOM      6  N   UNL d   1       3.073 -13.091   1.664 -0.02 -0.11    -0.354    10.584
ATOM      7  C   UNL d   1      -0.692 -13.710  -0.690 -0.15 +0.07    +0.084    10.584
ATOM      8  C   UNL d   1       3.802 -12.076  -4.813 -0.27 +0.02    +0.084    10.584
ATOM      9  C   UNL d   1       3.174 -12.459  -3.469 -0.18 +0.02    +0.058    10.584
ATOM     10  C   UNL d   1       0.602 -13.321   0.030 -0.16 +0.03    +0.058    10.584
ATOM     11  C   UNL d   1      -0.218 -13.467  -2.091 -0.10 +0.14    +0.193    10.584
ATOM     12  C   UNL d   1       1.197 -12.980  -2.033 -0.12 +0.05    +0.109    10.584
ATOM     13  C   UNL d   1       5.243 -12.200  -4.404 -0.16 +0.02    +0.193    10.584
ATOM     14  C   UNL d   1      -1.015 -15.198  -0.528 -0.12 +0.02    +0.026    10.584
ATOM     15  C   UNL d   1       1.849 -12.583  -3.297 -0.23 +0.02    +0.055    10.584
ATOM     16  C   UNL d   1       3.517 -10.616  -5.177 -0.47 +0.01    +0.026    10.584
ATOM     17  C   UNL d   1       5.279 -12.601  -2.965 -0.13 +0.01    +0.109    10.584
ATOM     18  C   UNL d   1       0.673 -13.274   1.373 -0.20 +0.03    +0.050    10.584
ATOM     19  C   UNL d   1       1.798 -12.846   2.123 -0.21 +0.02    +0.045    10.584
ATOM     20  C   UNL d   1       6.632 -12.958  -0.968 -0.14 -0.00    +0.045    10.584
ATOM     21  C   UNL d   1       6.567 -12.841  -2.298 -0.15 -0.00    +0.057    10.584
ATOM     22  C   UNL d   1       7.501 -13.284   1.119 -0.08 -0.00    -0.019    10.584
ATOM     23  C   UNL d   1       6.053 -13.019   1.242 -0.06 +0.01    +0.045    10.584
ATOM     24  C   UNL d   1       7.837 -13.245  -0.192 -0.13 +0.00    -0.022    10.584
ATOM     25  C   UNL d   1       4.006 -12.675   2.585 -0.10 +0.01    +0.049    10.584
ATOM     26  C   UNL d   1       1.906 -12.222   3.357 -0.31 -0.01    -0.018    10.584
ATOM     27  C   UNL d   1       3.303 -12.099   3.634 -0.20 +0.00    +0.003    10.584
ATOM     28  C   UNL d   1       5.386 -12.963   2.406 -0.07 +0.01    +0.052    10.584
ATOM     29  C   UNL d   1       9.177 -13.438  -0.817 -0.05 -0.02    +0.046    10.584
ATOM     30  C   UNL d   1       0.783 -11.766   4.225 -0.26 +0.02    +0.046    10.584
ATOM     31  H   UNL d   1       4.689 -12.561  -0.322 +0.05 +0.03    +0.166    10.584
ATOM     32  H   UNL d   1       3.273 -13.553   0.785 +0.04 +0.05    +0.166    10.584
ATOM     33  C   UNL d   1      -1.909 -12.834  -0.374 +0.02 +0.14    +0.141    10.584
ATOM     34  C   UNL d   1      -3.137 -13.251  -1.135 -0.11 +0.50    +0.306    10.584
ATOM     35  O   UNL d   1      -3.952 -14.088  -0.785 -0.19 -0.52    -0.251    10.584
ATOM     36  O   UNL d   1      -3.276 -12.590  -2.298 -0.61 -0.90    -0.481    10.584
ATOM     37  H   UNL d   1      -2.372 -12.276  -2.513 +0.14 +0.36    +0.295    10.584
ATOM     38  C   UNL d   1       3.861 -11.522   4.820 -0.23 +0.01    +0.017    10.584
ATOM     39  C   UNL d   1       3.713 -10.245   5.203 -0.30 +0.03    +0.092    10.584
ATOM     40  C   UNL d   1       4.323  -9.782   6.453 -0.14 +0.13    +0.330    10.584
ATOM     41  O   UNL d   1       4.560  -8.636   6.785 -0.20 -0.07    -0.246    10.584
ATOM     42  O   UNL d   1       4.601 -10.828   7.246 -0.04 -0.27    -0.477    10.584
ATOM     43  H   UNL d   1       5.563 -10.749   7.411 +0.06 +0.13    +0.295    10.584
ATOM     44  C   UNL d   1       3.482 -13.012  -5.983 -0.36 +0.04    +0.141    10.584
ATOM     45  C   UNL d   1       4.132 -12.593  -7.275 -0.36 +0.07    +0.306    10.584
ATOM     46  O   UNL d   1       3.680 -11.815  -8.097 -0.67 -0.09    -0.251    10.584
ATOM     47  O   UNL d   1       5.315 -13.201  -7.477 -0.15 -0.06    -0.481    10.584
ATOM     48  H   UNL d   1       5.977 -12.592  -7.086 -0.33 -0.10    +0.295    10.584
ATOM     49  C   UNL d   1       8.408 -13.562   2.281 -0.05 +0.01    +0.048    10.584
ATOM     50  C   UNL d   1       8.614 -15.062   2.496 +0.00 +0.03    +0.125    10.584
ATOM     51  C   UNL d   1       7.355 -15.824   2.193 +0.01 +0.06    +0.305    10.584
ATOM     52  O   UNL d   1       6.330 -15.858   2.852 +0.00 -0.06    -0.251    10.584
ATOM     53  O   UNL d   1       7.458 -16.534   1.052 +0.01 -0.09    -0.481    10.584
ATOM     54  H   UNL d   1       8.418 -16.535   0.858 +0.01 +0.05    +0.295    10.584
TER
ENDMDL
MODEL       80
USER    Run = 80
USER    Cluster Rank = 24
USER    Number of conformations in this cluster = 1
USER  
USER    RMSD from reference structure       = 17.491 A
USER  
USER    Estimated Free Energy of Binding    =   -4.66 kcal/mol  [=(1)+(2)+(3)-(4)]
USER    Estimated Inhibition Constant, Ki   =  386.84 uM (micromolar)  [Temperature = 298.15 K]
USER    
USER    (1) Final Intermolecular Energy     =   -8.53 kcal/mol
USER        vdW + Hbond + desolv Energy     =   -8.20 kcal/mol
USER        Electrostatic Energy            =   -0.33 kcal/mol
USER    (2) Final Total Internal Energy     =   -2.39 kcal/mol
USER    (3) Torsional Free Energy           =   +3.88 kcal/mol
USER    (4) Unbound System's Energy  [=(2)] =   -2.39 kcal/mol
USER    
USER    
USER  
USER    DPF = D:/Protein_go_brrr/autodock/final/AncA/heme/dock.dpf
USER    NEWDPF move	heme_opt.pdbqt
USER    NEWDPF about	0.153000 0.018000 -0.028000
USER    NEWDPF tran0	7.981359 -2.963172 -16.753680
USER    NEWDPF axisangle0	0.102269 0.585601 -0.804122 94.768696
USER    NEWDPF quaternion0	0.075261 0.430951 -0.591763 0.677077
USER    NEWDPF dihe0	-114.64 179.59 -101.00 -12.59 32.58 53.26 122.34 -180.00 134.68 -25.58 68.20 -170.34 -10.27 
USER  
USER                              x       y       z    vdW   Elec        q     RMS 
ATOM      1  O   UNL d   1       6.704  -7.601 -20.162 -0.02 +0.01    -0.289    17.491
ATOM      2  O   UNL d   1      12.803  -6.017 -16.077 -0.11 +0.02    -0.289    17.491
ATOM      3  N   UNL d   1       7.064  -4.654 -18.407 -0.11 +0.14    -0.247    17.491
ATOM      4  N   UNL d   1       9.591  -5.061 -16.898 -0.06 +0.07    -0.247    17.491
ATOM      5  N   UNL d   1       8.902  -2.767 -15.307 -0.06 +0.09    -0.354    17.491
ATOM      6  N   UNL d   1       6.273  -2.364 -16.865 -0.07 +0.21    -0.354    17.491
ATOM      7  C   UNL d   1       5.251  -5.694 -19.688 -0.12 -0.03    +0.084    17.491
ATOM      8  C   UNL d   1      11.220  -6.617 -17.844 -0.04 -0.00    +0.084    17.491
ATOM      9  C   UNL d   1       9.829  -5.977 -17.898 -0.08 -0.01    +0.058    17.491
ATOM     10  C   UNL d   1       5.755  -4.522 -18.840 -0.12 -0.04    +0.058    17.491
ATOM     11  C   UNL d   1       6.513  -6.503 -19.672 -0.06 -0.04    +0.193    17.491
ATOM     12  C   UNL d   1       7.544  -5.755 -18.886 -0.11 -0.03    +0.109    17.491
ATOM     13  C   UNL d   1      11.713  -5.923 -16.606 -0.09 -0.01    +0.193    17.491
ATOM     14  C   UNL d   1       4.148  -6.483 -18.979 +0.06 -0.01    +0.026    17.491
ATOM     15  C   UNL d   1       8.907  -6.319 -18.811 -0.07 -0.01    +0.055    17.491
ATOM     16  C   UNL d   1      12.089  -6.187 -19.030 -0.01 +0.00    +0.026    17.491
ATOM     17  C   UNL d   1      10.629  -5.014 -16.126 -0.16 -0.02    +0.109    17.491
ATOM     18  C   UNL d   1       4.997  -3.430 -18.628 -0.13 -0.03    +0.050    17.491
ATOM     19  C   UNL d   1       5.408  -2.266 -17.931 -0.14 -0.02    +0.045    17.491
ATOM     20  C   UNL d   1       9.970  -3.240 -14.589 -0.30 -0.00    +0.045    17.491
ATOM     21  C   UNL d   1      10.814  -4.230 -14.896 -0.36 -0.01    +0.057    17.491
ATOM     22  C   UNL d   1       8.999  -1.529 -13.428 -0.31 -0.00    -0.019    17.491
ATOM     23  C   UNL d   1       8.253  -1.734 -14.686 -0.21 -0.00    +0.045    17.491
ATOM     24  C   UNL d   1      10.015  -2.423 -13.377 -0.40 -0.00    -0.022    17.491
ATOM     25  C   UNL d   1       6.464  -1.132 -16.283 -0.17 -0.00    +0.049    17.491
ATOM     26  C   UNL d   1       5.057  -0.931 -18.068 -0.10 +0.00    -0.018    17.491
ATOM     27  C   UNL d   1       5.742  -0.218 -17.037 -0.11 +0.00    +0.003    17.491
ATOM     28  C   UNL d   1       7.194  -1.005 -15.069 -0.25 +0.00    +0.052    17.491
ATOM     29  C   UNL d   1      11.047  -2.602 -12.317 -0.08 +0.01    +0.046    17.491
ATOM     30  C   UNL d   1       4.143  -0.352 -19.094 -0.06 +0.00    +0.046    17.491
ATOM     31  H   UNL d   1       8.696  -3.119 -16.236 -0.05 -0.06    +0.166    17.491
ATOM     32  H   UNL d   1       6.670  -3.239 -16.544 -0.26 -0.18    +0.166    17.491
ATOM     33  C   UNL d   1       4.855  -5.342 -21.126 -0.04 -0.01    +0.141    17.491
ATOM     34  C   UNL d   1       4.317  -6.525 -21.884 -0.00 +0.01    +0.306    17.491
ATOM     35  O   UNL d   1       3.159  -6.905 -21.899 -0.03 -0.01    -0.251    17.491
ATOM     36  O   UNL d   1       5.268  -7.166 -22.587 +0.01 -0.04    -0.481    17.491
ATOM     37  H   UNL d   1       5.894  -7.498 -21.909 +0.02 +0.02    +0.295    17.491
ATOM     38  C   UNL d   1       5.648   1.192 -16.807 -0.16 +0.01    +0.017    17.491
ATOM     39  C   UNL d   1       4.507   1.897 -16.774 +0.01 +0.05    +0.092    17.491
ATOM     40  C   UNL d   1       4.546   3.338 -16.511 -0.12 +0.29    +0.330    17.491
ATOM     41  O   UNL d   1       5.227   4.178 -17.067 -0.55 -0.37    -0.246    17.491
ATOM     42  O   UNL d   1       3.684   3.652 -15.530 -0.10 -0.20    -0.477    17.491
ATOM     43  H   UNL d   1       3.277   2.793 -15.292 -0.39 -0.00    +0.295    17.491
ATOM     44  C   UNL d   1      11.240  -8.139 -17.665 -0.05 +0.00    +0.141    17.491
ATOM     45  C   UNL d   1      10.916  -8.576 -16.262 -0.12 -0.01    +0.306    17.491
ATOM     46  O   UNL d   1       9.808  -8.635 -15.756 -0.23 +0.00    -0.251    17.491
ATOM     47  O   UNL d   1      12.015  -8.893 -15.554 -0.03 +0.05    -0.481    17.491
ATOM     48  H   UNL d   1      12.396  -8.029 -15.289 -0.12 -0.07    +0.295    17.491
ATOM     49  C   UNL d   1       8.644  -0.499 -12.396 -0.34 +0.01    +0.048    17.491
ATOM     50  C   UNL d   1       9.419   0.803 -12.602 -0.24 +0.02    +0.125    17.491
ATOM     51  C   UNL d   1      10.418   1.013 -11.500 -0.34 +0.03    +0.305    17.491
ATOM     52  O   UNL d   1      11.261   1.888 -11.418 -0.76 -0.06    -0.251    17.491
ATOM     53  O   UNL d   1      10.310   0.076 -10.536 -0.13 +0.03    -0.481    17.491
ATOM     54  H   UNL d   1      11.125   0.186 -10.005 -0.33 -0.11    +0.295    17.491
TER
ENDMDL
MODEL       96
USER    Run = 96
USER    Cluster Rank = 25
USER    Number of conformations in this cluster = 1
USER  
USER    RMSD from reference structure       = 13.864 A
USER  
USER    Estimated Free Energy of Binding    =   -4.55 kcal/mol  [=(1)+(2)+(3)-(4)]
USER    Estimated Inhibition Constant, Ki   =  459.49 uM (micromolar)  [Temperature = 298.15 K]
USER    
USER    (1) Final Intermolecular Energy     =   -8.43 kcal/mol
USER        vdW + Hbond + desolv Energy     =   -8.06 kcal/mol
USER        Electrostatic Energy            =   -0.37 kcal/mol
USER    (2) Final Total Internal Energy     =   -2.05 kcal/mol
USER    (3) Torsional Free Energy           =   +3.88 kcal/mol
USER    (4) Unbound System's Energy  [=(2)] =   -2.05 kcal/mol
USER    
USER    
USER  
USER    DPF = D:/Protein_go_brrr/autodock/final/AncA/heme/dock.dpf
USER    NEWDPF move	heme_opt.pdbqt
USER    NEWDPF about	0.153000 0.018000 -0.028000
USER    NEWDPF tran0	-15.111950 9.425844 -0.060145
USER    NEWDPF axisangle0	0.311445 0.751380 0.581747 104.748070
USER    NEWDPF quaternion0	0.246669 0.595103 0.460751 0.610504
USER    NEWDPF dihe0	-6.64 -7.91 -114.28 141.32 -131.81 -180.00 120.75 -43.51 2.95 -28.36 108.35 62.55 -8.13 
USER  
USER                              x       y       z    vdW   Elec        q     RMS 
ATOM      1  O   UNL d   1     -13.244  12.252  -4.885 -0.02 +0.00    -0.289    13.864
ATOM      2  O   UNL d   1     -18.119   6.600  -4.061 -0.19 +0.00    -0.289    13.864
ATOM      3  N   UNL d   1     -13.933  10.810  -1.829 -0.13 +0.01    -0.247    13.864
ATOM      4  N   UNL d   1     -16.146   8.925  -2.446 -0.08 +0.05    -0.247    13.864
ATOM      5  N   UNL d   1     -16.608   8.687   0.382 -0.17 +0.05    -0.354    13.864
ATOM      6  N   UNL d   1     -14.324  10.658   1.013 -0.11 -0.00    -0.354    13.864
ATOM      7  C   UNL d   1     -12.615  12.738  -2.573 -0.05 -0.00    +0.084    13.864
ATOM      8  C   UNL d   1     -16.282   8.072  -4.732 -0.21 -0.00    +0.084    13.864
ATOM      9  C   UNL d   1     -15.622   9.011  -3.717 -0.21 -0.01    +0.058    13.864
ATOM     10  C   UNL d   1     -13.127  11.862  -1.426 -0.10 -0.00    +0.058    13.864
ATOM     11  C   UNL d   1     -13.260  11.985  -3.697 -0.05 -0.00    +0.193    13.864
ATOM     12  C   UNL d   1     -14.009  10.824  -3.120 -0.15 -0.00    +0.109    13.864
ATOM     13  C   UNL d   1     -17.302   7.464  -3.811 -0.21 -0.01    +0.193    13.864
ATOM     14  C   UNL d   1     -13.202  14.151  -2.523 -0.02 +0.00    +0.026    13.864
ATOM     15  C   UNL d   1     -14.654   9.878  -4.053 -0.20 -0.00    +0.055    13.864
ATOM     16  C   UNL d   1     -15.322   6.974  -5.197 -0.39 +0.00    +0.026    13.864
ATOM     17  C   UNL d   1     -17.118   8.071  -2.458 -0.20 -0.01    +0.109    13.864
ATOM     18  C   UNL d   1     -12.734  12.068  -0.155 -0.10 +0.00    +0.050    13.864
ATOM     19  C   UNL d   1     -13.087  11.260   0.956 -0.11 +0.00    +0.045    13.864
ATOM     20  C   UNL d   1     -17.716   8.034  -0.094 -0.24 -0.00    +0.045    13.864
ATOM     21  C   UNL d   1     -18.012   7.695  -1.353 -0.14 +0.00    +0.057    13.864
ATOM     22  C   UNL d   1     -17.907   8.258   2.171 -0.20 +0.00    -0.019    13.864
ATOM     23  C   UNL d   1     -16.634   8.868   1.739 -0.23 -0.00    +0.045    13.864
ATOM     24  C   UNL d   1     -18.542   7.765   1.082 -0.21 -0.00    -0.022    13.864
ATOM     25  C   UNL d   1     -14.488  10.002   2.210 -0.25 +0.00    +0.049    13.864
ATOM     26  C   UNL d   1     -12.416  10.957   2.131 -0.14 -0.00    -0.018    13.864
ATOM     27  C   UNL d   1     -13.298  10.146   2.910 -0.23 -0.00    +0.003    13.864
ATOM     28  C   UNL d   1     -15.742   9.436   2.566 -0.27 -0.00    +0.052    13.864
ATOM     29  C   UNL d   1     -19.849   7.051   1.008 -0.11 +0.01    +0.046    13.864
ATOM     30  C   UNL d   1     -11.040  11.390   2.508 -0.13 +0.00    +0.046    13.864
ATOM     31  H   UNL d   1     -15.833   8.922  -0.229 -0.34 -0.04    +0.166    13.864
ATOM     32  H   UNL d   1     -15.019  10.736   0.279 +0.04 -0.00    +0.166    13.864
ATOM     33  C   UNL d   1     -11.093  12.767  -2.749 -0.06 -0.01    +0.141    13.864
ATOM     34  C   UNL d   1     -10.490  11.390  -2.801 -0.11 -0.05    +0.306    13.864
ATOM     35  O   UNL d   1     -10.282  10.658  -1.848 -0.18 +0.04    -0.251    13.864
ATOM     36  O   UNL d   1     -10.181  11.006  -4.052 -0.05 +0.16    -0.481    13.864
ATOM     37  H   UNL d   1      -9.669  10.177  -3.937 -0.44 -0.26    +0.295    13.864
ATOM     38  C   UNL d   1     -13.005   9.622   4.210 -0.25 +0.00    +0.017    13.864
ATOM     39  C   UNL d   1     -12.271   8.527   4.457 -0.18 -0.01    +0.092    13.864
ATOM     40  C   UNL d   1     -12.029   8.105   5.839 -0.14 +0.04    +0.330    13.864
ATOM     41  O   UNL d   1     -11.419   7.125   6.222 -0.28 -0.05    -0.246    13.864
ATOM     42  O   UNL d   1     -12.583   8.980   6.692 -0.02 -0.06    -0.477    13.864
ATOM     43  H   UNL d   1     -12.485   8.550   7.566 +0.07 +0.05    +0.295    13.864
ATOM     44  C   UNL d   1     -16.959   8.758  -5.923 -0.06 +0.00    +0.141    13.864
ATOM     45  C   UNL d   1     -18.304   9.344  -5.586 -0.00 +0.01    +0.306    13.864
ATOM     46  O   UNL d   1     -18.515  10.376  -4.974 -0.01 -0.01    -0.251    13.864
ATOM     47  O   UNL d   1     -19.322   8.577  -6.018 +0.01 -0.02    -0.481    13.864
ATOM     48  H   UNL d   1     -19.244   7.747  -5.502 +0.05 +0.01    +0.295    13.864
ATOM     49  C   UNL d   1     -18.386   8.228   3.593 -0.16 +0.00    +0.048    13.864
ATOM     50  C   UNL d   1     -17.941   6.957   4.316 -0.17 +0.01    +0.125    13.864
ATOM     51  C   UNL d   1     -18.682   5.757   3.799 -0.18 +0.09    +0.305    13.864
ATOM     52  O   UNL d   1     -19.886   5.634   3.652 -0.09 -0.09    -0.251    13.864
ATOM     53  O   UNL d   1     -17.850   4.742   3.495 -0.28 -0.24    -0.481    13.864
ATOM     54  H   UNL d   1     -17.074   5.183   3.089 -0.41 -0.02    +0.295    13.864
TER
ENDMDL
MODEL       56
USER    Run = 56
USER    Cluster Rank = 26
USER    Number of conformations in this cluster = 1
USER  
USER    RMSD from reference structure       = 17.203 A
USER  
USER    Estimated Free Energy of Binding    =   -4.48 kcal/mol  [=(1)+(2)+(3)-(4)]
USER    Estimated Inhibition Constant, Ki   =  522.05 uM (micromolar)  [Temperature = 298.15 K]
USER    
USER    (1) Final Intermolecular Energy     =   -8.36 kcal/mol
USER        vdW + Hbond + desolv Energy     =   -8.19 kcal/mol
USER        Electrostatic Energy            =   -0.16 kcal/mol
USER    (2) Final Total Internal Energy     =   -2.51 kcal/mol
USER    (3) Torsional Free Energy           =   +3.88 kcal/mol
USER    (4) Unbound System's Energy  [=(2)] =   -2.51 kcal/mol
USER    
USER    
USER  
USER    DPF = D:/Protein_go_brrr/autodock/final/AncA/heme/dock.dpf
USER    NEWDPF move	heme_opt.pdbqt
USER    NEWDPF about	0.153000 0.018000 -0.028000
USER    NEWDPF tran0	-13.130302 -14.096781 -8.109196
USER    NEWDPF axisangle0	0.202486 -0.883685 0.422019 -60.140645
USER    NEWDPF quaternion0	0.101458 -0.442782 0.211458 -0.865411
USER    NEWDPF dihe0	-179.80 -136.72 159.49 -67.20 -152.37 -167.57 -60.23 -16.26 11.13 -161.18 83.12 14.34 162.25 
USER  
USER                              x       y       z    vdW   Elec        q     RMS 
ATOM      1  O   UNL d   1     -17.278 -14.378 -12.289 -0.06 -0.15    -0.289    17.203
ATOM      2  O   UNL d   1     -11.156 -18.570 -11.130 -0.11 -0.12    -0.289    17.203
ATOM      3  N   UNL d   1     -15.034 -13.745  -9.748 -0.10 -0.06    -0.247    17.203
ATOM      4  N   UNL d   1     -13.166 -16.051  -9.896 -0.05 -0.03    -0.247    17.203
ATOM      5  N   UNL d   1     -12.159 -15.282  -7.315 -0.08 -0.04    -0.354    17.203
ATOM      6  N   UNL d   1     -14.114 -12.904  -7.161 -0.08 -0.03    -0.354    17.203
ATOM      7  C   UNL d   1     -17.208 -12.823 -10.404 -0.04 +0.02    +0.084    17.203
ATOM      8  C   UNL d   1     -12.924 -17.157 -12.062 -0.19 +0.04    +0.084    17.203
ATOM      9  C   UNL d   1     -13.629 -16.110 -11.192 -0.21 +0.02    +0.058    17.203
ATOM     10  C   UNL d   1     -16.019 -12.822  -9.439 -0.09 +0.01    +0.058    17.203
ATOM     11  C   UNL d   1     -16.712 -13.898 -11.324 -0.07 +0.08    +0.193    17.203
ATOM     12  C   UNL d   1     -15.374 -14.358 -10.835 -0.14 +0.04    +0.109    17.203
ATOM     13  C   UNL d   1     -12.002 -17.705 -11.010 -0.14 +0.07    +0.193    17.203
ATOM     14  C   UNL d   1     -18.495 -13.304  -9.730 -0.01 +0.00    +0.026    17.203
ATOM     15  C   UNL d   1     -14.643 -15.356 -11.642 -0.21 +0.03    +0.055    17.203
ATOM     16  C   UNL d   1     -12.083 -16.505 -13.164 -0.20 +0.02    +0.026    17.203
ATOM     17  C   UNL d   1     -12.253 -16.955  -9.742 -0.04 +0.02    +0.109    17.203
ATOM     18  C   UNL d   1     -15.926 -11.925  -8.439 -0.12 +0.01    +0.050    17.203
ATOM     19  C   UNL d   1     -14.828 -11.794  -7.552 -0.18 +0.00    +0.045    17.203
ATOM     20  C   UNL d   1     -11.547 -16.501  -7.453 -0.19 +0.01    +0.045    17.203
ATOM     21  C   UNL d   1     -11.518 -17.308  -8.519 -0.20 +0.02    +0.057    17.203
ATOM     22  C   UNL d   1     -11.157 -15.714  -5.344 -0.14 -0.01    -0.019    17.203
ATOM     23  C   UNL d   1     -11.980 -14.729  -6.075 -0.20 +0.01    +0.045    17.203
ATOM     24  C   UNL d   1     -10.903 -16.760  -6.166 -0.18 -0.01    -0.022    17.203
ATOM     25  C   UNL d   1     -13.157 -12.561  -6.233 -0.26 +0.00    +0.049    17.203
ATOM     26  C   UNL d   1     -14.298 -10.697  -6.890 -0.30 +0.00    -0.018    17.203
ATOM     27  C   UNL d   1     -13.231 -11.184  -6.074 -0.37 +0.00    +0.003    17.203
ATOM     28  C   UNL d   1     -12.399 -13.561  -5.565 -0.23 +0.01    +0.052    17.203
ATOM     29  C   UNL d   1     -10.108 -17.991  -5.891 -0.12 +0.02    +0.046    17.203
ATOM     30  C   UNL d   1     -14.752  -9.281  -7.009 -0.20 -0.00    +0.046    17.203
ATOM     31  H   UNL d   1     -12.619 -14.833  -8.099 -0.37 -0.01    +0.166    17.203
ATOM     32  H   UNL d   1     -14.310 -13.841  -7.491 +0.05 +0.02    +0.166    17.203
ATOM     33  C   UNL d   1     -17.431 -11.517 -11.174 -0.06 +0.04    +0.141    17.203
ATOM     34  C   UNL d   1     -16.240 -11.124 -12.005 -0.10 +0.13    +0.306    17.203
ATOM     35  O   UNL d   1     -15.379 -10.318 -11.695 -0.19 -0.08    -0.251    17.203
ATOM     36  O   UNL d   1     -16.193 -11.771 -13.184 -0.51 -0.47    -0.481    17.203
ATOM     37  H   UNL d   1     -16.964 -12.377 -13.163 +0.03 +0.23    +0.295    17.203
ATOM     38  C   UNL d   1     -12.420 -10.381  -5.209 -0.52 +0.00    +0.017    17.203
ATOM     39  C   UNL d   1     -11.078 -10.375  -5.191 -0.40 +0.02    +0.092    17.203
ATOM     40  C   UNL d   1     -10.365  -9.490  -4.266 -0.31 +0.06    +0.330    17.203
ATOM     41  O   UNL d   1      -9.175  -9.239  -4.246 -0.32 -0.07    -0.246    17.203
ATOM     42  O   UNL d   1     -11.226  -8.945  -3.393 -0.20 -0.01    -0.477    17.203
ATOM     43  H   UNL d   1     -11.804  -9.693  -3.135 -0.27 -0.06    +0.295    17.203
ATOM     44  C   UNL d   1     -13.825 -18.258 -12.630 -0.06 +0.06    +0.141    17.203
ATOM     45  C   UNL d   1     -13.358 -18.780 -13.962 -0.03 +0.14    +0.306    17.203
ATOM     46  O   UNL d   1     -13.844 -18.530 -15.052 -0.04 -0.14    -0.251    17.203
ATOM     47  O   UNL d   1     -12.312 -19.618 -13.849 +0.01 -0.18    -0.481    17.203
ATOM     48  H   UNL d   1     -11.914 -19.401 -12.979 +0.05 +0.11    +0.295    17.203
ATOM     49  C   UNL d   1     -10.713 -15.550  -3.921 -0.11 +0.02    +0.048    17.203
ATOM     50  C   UNL d   1     -11.830 -15.887  -2.934 -0.07 +0.04    +0.125    17.203
ATOM     51  C   UNL d   1     -12.552 -14.644  -2.496 -0.11 +0.06    +0.305    17.203
ATOM     52  O   UNL d   1     -12.139 -13.498  -2.517 -0.15 -0.05    -0.251    17.203
ATOM     53  O   UNL d   1     -13.788 -14.916  -2.032 -0.10 -0.07    -0.481    17.203
ATOM     54  H   UNL d   1     -13.734 -14.708  -1.076 +0.06 +0.03    +0.295    17.203
TER
ENDMDL
MODEL       45
USER    Run = 45
USER    Cluster Rank = 27
USER    Number of conformations in this cluster = 1
USER  
USER    RMSD from reference structure       = 14.836 A
USER  
USER    Estimated Free Energy of Binding    =   -4.48 kcal/mol  [=(1)+(2)+(3)-(4)]
USER    Estimated Inhibition Constant, Ki   =  524.12 uM (micromolar)  [Temperature = 298.15 K]
USER    
USER    (1) Final Intermolecular Energy     =   -8.35 kcal/mol
USER        vdW + Hbond + desolv Energy     =   -8.14 kcal/mol
USER        Electrostatic Energy            =   -0.21 kcal/mol
USER    (2) Final Total Internal Energy     =   -1.63 kcal/mol
USER    (3) Torsional Free Energy           =   +3.88 kcal/mol
USER    (4) Unbound System's Energy  [=(2)] =   -1.63 kcal/mol
USER    
USER    
USER  
USER    DPF = D:/Protein_go_brrr/autodock/final/AncA/heme/dock.dpf
USER    NEWDPF move	heme_opt.pdbqt
USER    NEWDPF about	0.153000 0.018000 -0.028000
USER    NEWDPF tran0	-12.361957 -14.462076 -0.219513
USER    NEWDPF axisangle0	-0.803059 0.278095 -0.527029 128.261065
USER    NEWDPF quaternion0	-0.722585 0.250227 -0.474216 0.436322
USER    NEWDPF dihe0	108.44 -48.96 -134.77 82.20 177.98 -84.70 -58.06 29.92 -20.33 132.72 69.41 -90.42 5.05 
USER  
USER                              x       y       z    vdW   Elec        q     RMS 
ATOM      1  O   UNL d   1     -15.754 -16.152  -4.736 -0.00 -0.05    -0.289    14.836
ATOM      2  O   UNL d   1     -10.471 -10.836  -4.259 -0.22 -0.07    -0.289    14.836
ATOM      3  N   UNL d   1     -14.100 -15.420  -1.799 -0.12 -0.04    -0.247    14.836
ATOM      4  N   UNL d   1     -12.041 -13.452  -2.646 -0.12 -0.05    -0.247    14.836
ATOM      5  N   UNL d   1     -10.755 -13.843  -0.105 +0.18 -0.18    -0.354    14.836
ATOM      6  N   UNL d   1     -12.884 -15.898   0.759 -0.06 -0.09    -0.354    14.836
ATOM      7  C   UNL d   1     -15.709 -17.132  -2.497 -0.02 +0.01    +0.084    14.836
ATOM      8  C   UNL d   1     -12.522 -12.118  -4.636 -0.27 +0.01    +0.084    14.836
ATOM      9  C   UNL d   1     -12.918 -13.255  -3.689 -0.20 +0.01    +0.058    14.836
ATOM     10  C   UNL d   1     -14.824 -16.531  -1.401 -0.10 +0.01    +0.058    14.836
ATOM     11  C   UNL d   1     -15.371 -16.152  -3.580 -0.02 +0.03    +0.193    14.836
ATOM     12  C   UNL d   1     -14.407 -15.149  -3.026 -0.10 +0.02    +0.109    14.836
ATOM     13  C   UNL d   1     -11.237 -11.731  -3.959 -0.13 +0.04    +0.193    14.836
ATOM     14  C   UNL d   1     -15.233 -18.523  -2.922 -0.01 +0.00    +0.026    14.836
ATOM     15  C   UNL d   1     -14.000 -14.024  -3.891 -0.15 +0.01    +0.055    14.836
ATOM     16  C   UNL d   1     -13.498 -10.941  -4.551 -0.29 -0.00    +0.026    14.836
ATOM     17  C   UNL d   1     -11.058 -12.620  -2.772 -0.19 +0.03    +0.109    14.836
ATOM     18  C   UNL d   1     -14.841 -17.010  -0.143 -0.11 +0.01    +0.050    14.836
ATOM     19  C   UNL d   1     -14.122 -16.468   0.953 -0.12 +0.01    +0.045    14.836
ATOM     20  C   UNL d   1      -9.793 -13.106  -0.745 -0.19 +0.03    +0.045    14.836
ATOM     21  C   UNL d   1      -9.855 -12.499  -1.935 -0.27 +0.03    +0.057    14.836
ATOM     22  C   UNL d   1      -8.962 -13.823   1.258 -0.20 -0.02    -0.019    14.836
ATOM     23  C   UNL d   1     -10.345 -14.319   1.112 -0.15 +0.02    +0.045    14.836
ATOM     24  C   UNL d   1      -8.641 -13.105   0.156 -0.23 -0.02    -0.022    14.836
ATOM     25  C   UNL d   1     -12.331 -15.521   1.961 -0.03 +0.01    +0.049    14.836
ATOM     26  C   UNL d   1     -14.396 -16.428   2.312 -0.15 -0.00    -0.018    14.836
ATOM     27  C   UNL d   1     -13.271 -15.811   2.941 -0.17 +0.00    +0.003    14.836
ATOM     28  C   UNL d   1     -10.992 -15.052   2.032 -0.17 +0.02    +0.052    14.836
ATOM     29  C   UNL d   1      -7.367 -12.396  -0.157 -0.18 +0.05    +0.046    14.836
ATOM     30  C   UNL d   1     -15.628 -16.929   2.986 -0.12 +0.01    +0.046    14.836
ATOM     31  H   UNL d   1     -11.689 -13.936  -0.489 +0.06 +0.04    +0.166    14.836
ATOM     32  H   UNL d   1     -12.442 -15.814  -0.149 +0.02 +0.04    +0.166    14.836
ATOM     33  C   UNL d   1     -17.214 -17.117  -2.208 -0.02 +0.02    +0.141    14.836
ATOM     34  C   UNL d   1     -17.616 -15.996  -1.288 -0.05 +0.05    +0.306    14.836
ATOM     35  O   UNL d   1     -18.270 -16.104  -0.264 -0.07 -0.04    -0.251    14.836
ATOM     36  O   UNL d   1     -17.170 -14.798  -1.704 -0.07 -0.07    -0.481    14.836
ATOM     37  H   UNL d   1     -16.209 -14.810  -1.506 +0.07 +0.05    +0.295    14.836
ATOM     38  C   UNL d   1     -13.133 -15.586   4.348 -0.24 +0.00    +0.017    14.836
ATOM     39  C   UNL d   1     -12.095 -15.985   5.098 -0.13 +0.03    +0.092    14.836
ATOM     40  C   UNL d   1     -12.066 -15.674   6.530 -0.06 +0.11    +0.330    14.836
ATOM     41  O   UNL d   1     -11.647 -14.665   7.064 -0.48 -0.11    -0.246    14.836
ATOM     42  O   UNL d   1     -12.597 -16.687   7.232 -0.02 -0.10    -0.477    14.836
ATOM     43  H   UNL d   1     -11.937 -16.854   7.937 +0.03 +0.06    +0.295    14.836
ATOM     44  C   UNL d   1     -12.273 -12.528  -6.092 -0.21 +0.02    +0.141    14.836
ATOM     45  C   UNL d   1     -13.535 -12.623  -6.906 -0.17 +0.02    +0.306    14.836
ATOM     46  O   UNL d   1     -14.122 -13.644  -7.221 -0.11 -0.03    -0.251    14.836
ATOM     47  O   UNL d   1     -13.981 -11.419  -7.308 -0.08 +0.03    -0.481    14.836
ATOM     48  H   UNL d   1     -13.179 -10.950  -7.623 -0.39 -0.12    +0.295    14.836
ATOM     49  C   UNL d   1      -8.086 -14.108   2.443 -0.18 +0.06    +0.048    14.836
ATOM     50  C   UNL d   1      -8.439 -13.222   3.638 -0.31 +0.12    +0.125    14.836
ATOM     51  C   UNL d   1      -7.360 -12.209   3.893 -0.35 +0.33    +0.305    14.836
ATOM     52  O   UNL d   1      -6.542 -11.779   3.099 -0.90 -0.34    -0.251    14.836
ATOM     53  O   UNL d   1      -7.357 -11.786   5.173 -0.22 -0.28    -0.481    14.836
ATOM     54  H   UNL d   1      -7.847 -10.938   5.144 -0.36 +0.05    +0.295    14.836
TER
ENDMDL
MODEL       40
USER    Run = 40
USER    Cluster Rank = 28
USER    Number of conformations in this cluster = 1
USER  
USER    RMSD from reference structure       = 16.506 A
USER  
USER    Estimated Free Energy of Binding    =   -4.46 kcal/mol  [=(1)+(2)+(3)-(4)]
USER    Estimated Inhibition Constant, Ki   =  534.94 uM (micromolar)  [Temperature = 298.15 K]
USER    
USER    (1) Final Intermolecular Energy     =   -8.34 kcal/mol
USER        vdW + Hbond + desolv Energy     =   -7.80 kcal/mol
USER        Electrostatic Energy            =   -0.54 kcal/mol
USER    (2) Final Total Internal Energy     =   -2.66 kcal/mol
USER    (3) Torsional Free Energy           =   +3.88 kcal/mol
USER    (4) Unbound System's Energy  [=(2)] =   -2.66 kcal/mol
USER    
USER    
USER  
USER    DPF = D:/Protein_go_brrr/autodock/final/AncA/heme/dock.dpf
USER    NEWDPF move	heme_opt.pdbqt
USER    NEWDPF about	0.153000 0.018000 -0.028000
USER    NEWDPF tran0	-2.650951 -0.594001 -17.494344
USER    NEWDPF axisangle0	-0.286034 0.389432 -0.875515 144.707129
USER    NEWDPF quaternion0	-0.272575 0.371107 -0.834318 0.303142
USER    NEWDPF dihe0	149.61 -35.12 -123.15 -180.00 -140.06 -158.53 122.23 104.36 15.98 -22.99 51.06 -8.86 20.83 
USER  
USER                              x       y       z    vdW   Elec        q     RMS 
ATOM      1  O   UNL d   1       0.048  -3.719 -21.702 -0.02 +0.02    -0.289    16.506
ATOM      2  O   UNL d   1       2.192   2.459 -18.010 -0.05 -0.04    -0.289    16.506
ATOM      3  N   UNL d   1      -1.955  -2.141 -19.380 -0.06 +0.02    -0.247    16.506
ATOM      4  N   UNL d   1      -0.180  -0.035 -18.265 -0.06 -0.00    -0.247    16.506
ATOM      5  N   UNL d   1      -2.086   0.317 -16.142 -0.08 +0.00    -0.354    16.506
ATOM      6  N   UNL d   1      -3.912  -1.882 -17.294 -0.12 +0.02    -0.354    16.506
ATOM      7  C   UNL d   1      -2.110  -4.220 -20.669 -0.17 -0.02    +0.084    16.506
ATOM      8  C   UNL d   1       1.627   0.776 -19.696 -0.04 +0.01    +0.084    16.506
ATOM      9  C   UNL d   1       0.476  -0.207 -19.464 -0.05 +0.00    +0.058    16.506
ATOM     10  C   UNL d   1      -2.720  -3.266 -19.638 -0.20 -0.01    +0.058    16.506
ATOM     11  C   UNL d   1      -0.874  -3.425 -20.963 -0.05 -0.02    +0.193    16.506
ATOM     12  C   UNL d   1      -0.909  -2.175 -20.139 -0.06 -0.01    +0.109    16.506
ATOM     13  C   UNL d   1       1.527   1.515 -18.391 -0.04 +0.02    +0.193    16.506
ATOM     14  C   UNL d   1      -1.702  -5.557 -20.045 -0.34 -0.01    +0.026    16.506
ATOM     15  C   UNL d   1       0.169  -1.184 -20.332 -0.05 -0.00    +0.055    16.506
ATOM     16  C   UNL d   1       1.320   1.750 -20.838 -0.01 +0.00    +0.026    16.506
ATOM     17  C   UNL d   1       0.398   0.922 -17.613 -0.09 +0.00    +0.109    16.506
ATOM     18  C   UNL d   1      -3.940  -3.486 -19.112 -0.31 -0.01    +0.050    16.506
ATOM     19  C   UNL d   1      -4.619  -2.619 -18.218 -0.26 -0.00    +0.045    16.506
ATOM     20  C   UNL d   1      -1.053   1.078 -15.660 -0.24 -0.00    +0.045    16.506
ATOM     21  C   UNL d   1       0.089   1.420 -16.265 -0.09 -0.00    +0.057    16.506
ATOM     22  C   UNL d   1      -2.671   0.928 -14.054 -0.34 +0.00    -0.019    16.506
ATOM     23  C   UNL d   1      -3.109   0.170 -15.243 -0.22 -0.00    +0.045    16.506
ATOM     24  C   UNL d   1      -1.453   1.464 -14.307 -0.32 +0.00    -0.022    16.506
ATOM     25  C   UNL d   1      -4.769  -1.185 -16.475 -0.22 -0.00    +0.049    16.506
ATOM     26  C   UNL d   1      -5.967  -2.366 -18.018 -0.23 +0.00    -0.018    16.506
ATOM     27  C   UNL d   1      -6.055  -1.445 -16.929 -0.16 -0.00    +0.003    16.506
ATOM     28  C   UNL d   1      -4.281  -0.475 -15.345 -0.10 -0.00    +0.052    16.506
ATOM     29  C   UNL d   1      -0.608   2.318 -13.424 -0.31 -0.00    +0.046    16.506
ATOM     30  C   UNL d   1      -7.105  -2.942 -18.790 -0.20 -0.01    +0.046    16.506
ATOM     31  H   UNL d   1      -2.091  -0.016 -17.099 +0.06 -0.00    +0.166    16.506
ATOM     32  H   UNL d   1      -2.902  -1.898 -17.219 +0.08 -0.00    +0.166    16.506
ATOM     33  C   UNL d   1      -2.935  -4.423 -21.945 -0.11 -0.04    +0.141    16.506
ATOM     34  C   UNL d   1      -3.085  -3.157 -22.745 -0.01 -0.04    +0.306    16.506
ATOM     35  O   UNL d   1      -3.938  -2.300 -22.584 -0.01 +0.03    -0.251    16.506
ATOM     36  O   UNL d   1      -2.151  -3.037 -23.704 +0.01 +0.03    -0.481    16.506
ATOM     37  H   UNL d   1      -1.353  -3.465 -23.327 +0.02 -0.02    +0.295    16.506
ATOM     38  C   UNL d   1      -7.273  -0.929 -16.381 -0.07 -0.00    +0.017    16.506
ATOM     39  C   UNL d   1      -7.406   0.260 -15.772 -0.24 -0.02    +0.092    16.506
ATOM     40  C   UNL d   1      -8.717   0.680 -15.270 -0.24 -0.17    +0.330    16.506
ATOM     41  O   UNL d   1      -9.083   1.808 -15.000 -0.23 +0.10    -0.246    16.506
ATOM     42  O   UNL d   1      -9.524  -0.384 -15.139 -0.23 +0.56    -0.477    16.506
ATOM     43  H   UNL d   1     -10.059  -0.177 -14.345 -0.35 -0.78    +0.295    16.506
ATOM     44  C   UNL d   1       3.013   0.144 -19.864 -0.03 +0.01    +0.141    16.506
ATOM     45  C   UNL d   1       3.579  -0.396 -18.578 +0.02 +0.01    +0.306    16.506
ATOM     46  O   UNL d   1       3.278  -1.445 -18.035 -0.10 +0.03    -0.251    16.506
ATOM     47  O   UNL d   1       4.482   0.433 -18.024 -0.00 -0.09    -0.481    16.506
ATOM     48  H   UNL d   1       4.005   1.284 -17.920 +0.06 +0.07    +0.295    16.506
ATOM     49  C   UNL d   1      -3.468   1.044 -12.788 -0.49 -0.00    +0.048    16.506
ATOM     50  C   UNL d   1      -4.803   1.751 -13.019 -0.33 -0.01    +0.125    16.506
ATOM     51  C   UNL d   1      -4.986   2.883 -12.049 -0.29 +0.02    +0.305    16.506
ATOM     52  O   UNL d   1      -4.775   4.068 -12.241 -0.21 -0.05    -0.251    16.506
ATOM     53  O   UNL d   1      -5.425   2.453 -10.849 -0.36 -0.00    -0.481    16.506
ATOM     54  H   UNL d   1      -5.510   1.483 -10.960 -0.25 -0.12    +0.295    16.506
TER
ENDMDL
MODEL       90
USER    Run = 90
USER    Cluster Rank = 29
USER    Number of conformations in this cluster = 1
USER  
USER    RMSD from reference structure       = 11.934 A
USER  
USER    Estimated Free Energy of Binding    =   -4.45 kcal/mol  [=(1)+(2)+(3)-(4)]
USER    Estimated Inhibition Constant, Ki   =  549.03 uM (micromolar)  [Temperature = 298.15 K]
USER    
USER    (1) Final Intermolecular Energy     =   -8.33 kcal/mol
USER        vdW + Hbond + desolv Energy     =   -8.00 kcal/mol
USER        Electrostatic Energy            =   -0.32 kcal/mol
USER    (2) Final Total Internal Energy     =   -3.47 kcal/mol
USER    (3) Torsional Free Energy           =   +3.88 kcal/mol
USER    (4) Unbound System's Energy  [=(2)] =   -3.47 kcal/mol
USER    
USER    
USER  
USER    DPF = D:/Protein_go_brrr/autodock/final/AncA/heme/dock.dpf
USER    NEWDPF move	heme_opt.pdbqt
USER    NEWDPF about	0.153000 0.018000 -0.028000
USER    NEWDPF tran0	7.440939 -13.230613 -2.208056
USER    NEWDPF axisangle0	-0.318638 0.801810 0.505540 -136.380648
USER    NEWDPF quaternion0	-0.295830 0.744419 0.469355 -0.371525
USER    NEWDPF dihe0	156.15 142.77 -171.39 66.59 -142.93 -80.35 147.32 -101.90 13.23 1.61 -62.60 42.73 14.79 
USER  
USER                              x       y       z    vdW   Elec        q     RMS 
ATOM      1  O   UNL d   1       9.366 -11.472   3.079 -0.45 -0.31    -0.289    11.934
ATOM      2  O   UNL d   1      12.289 -16.300  -1.874 +0.00 -0.02    -0.289    11.934
ATOM      3  N   UNL d   1       7.789 -12.303   0.127 -0.12 +0.05    -0.247    11.934
ATOM      4  N   UNL d   1       9.797 -13.990  -1.269 -0.08 +0.10    -0.247    11.934
ATOM      5  N   UNL d   1       8.234 -13.707  -3.665 -0.06 +0.12    -0.354    11.934
ATOM      6  N   UNL d   1       6.166 -11.940  -2.215 -0.02 +0.01    -0.354    11.934
ATOM      7  C   UNL d   1       7.359 -10.691   1.923 -0.25 +0.02    +0.084    11.934
ATOM      8  C   UNL d   1      11.414 -15.184   0.121 -0.02 +0.01    +0.084    11.934
ATOM      9  C   UNL d   1      10.266 -14.175   0.013 -0.09 +0.00    +0.058    11.934
ATOM     10  C   UNL d   1       6.947 -11.301   0.580 -0.26 -0.00    +0.058    11.934
ATOM     11  C   UNL d   1       8.574 -11.537   2.157 -0.08 +0.13    +0.193    11.934
ATOM     12  C   UNL d   1       8.713 -12.492   1.011 -0.12 +0.02    +0.109    11.934
ATOM     13  C   UNL d   1      11.536 -15.509  -1.341 -0.01 +0.00    +0.193    11.934
ATOM     14  C   UNL d   1       7.793  -9.230   1.780 -0.41 +0.01    +0.026    11.934
ATOM     15  C   UNL d   1       9.795 -13.495   1.069 -0.12 +0.02    +0.055    11.934
ATOM     16  C   UNL d   1      10.990 -16.449   0.873 +0.00 +0.00    +0.026    11.934
ATOM     17  C   UNL d   1      10.505 -14.715  -2.075 -0.07 -0.03    +0.109    11.934
ATOM     18  C   UNL d   1       5.807 -10.938  -0.037 -0.22 -0.00    +0.050    11.934
ATOM     19  C   UNL d   1       5.302 -11.505  -1.235 -0.27 +0.00    +0.045    11.934
ATOM     20  C   UNL d   1       9.358 -14.294  -4.186 -0.10 -0.01    +0.045    11.934
ATOM     21  C   UNL d   1      10.416 -14.797  -3.541 -0.08 -0.02    +0.057    11.934
ATOM     22  C   UNL d   1       7.983 -13.681  -5.904 -0.18 +0.00    -0.019    11.934
ATOM     23  C   UNL d   1       7.346 -13.303  -4.626 -0.17 -0.00    +0.045    11.934
ATOM     24  C   UNL d   1       9.174 -14.268  -5.636 -0.11 +0.00    -0.022    11.934
ATOM     25  C   UNL d   1       5.467 -12.368  -3.320 -0.17 +0.00    +0.049    11.934
ATOM     26  C   UNL d   1       4.010 -11.689  -1.700 -0.25 -0.00    -0.018    11.934
ATOM     27  C   UNL d   1       4.119 -12.252  -3.009 -0.20 +0.00    +0.003    11.934
ATOM     28  C   UNL d   1       6.144 -12.717  -4.520 -0.23 +0.00    +0.052    11.934
ATOM     29  C   UNL d   1      10.174 -14.826  -6.590 -0.07 +0.00    +0.046    11.934
ATOM     30  C   UNL d   1       2.748 -11.364  -0.974 -0.32 +0.01    +0.046    11.934
ATOM     31  H   UNL d   1       8.077 -13.667  -2.664 +0.03 -0.06    +0.166    11.934
ATOM     32  H   UNL d   1       7.175 -11.903  -2.129 +0.09 -0.05    +0.166    11.934
ATOM     33  C   UNL d   1       6.352 -10.870   3.063 -0.14 +0.04    +0.141    11.934
ATOM     34  C   UNL d   1       6.094 -12.317   3.387 -0.01 +0.09    +0.306    11.934
ATOM     35  O   UNL d   1       5.249 -13.030   2.874 -0.03 -0.07    -0.251    11.934
ATOM     36  O   UNL d   1       6.918 -12.789   4.340 +0.02 -0.15    -0.481    11.934
ATOM     37  H   UNL d   1       7.721 -12.230   4.271 +0.04 +0.11    +0.295    11.934
ATOM     38  C   UNL d   1       3.016 -12.586  -3.859 -0.25 +0.00    +0.017    11.934
ATOM     39  C   UNL d   1       2.522 -13.821  -4.036 -0.15 +0.04    +0.092    11.934
ATOM     40  C   UNL d   1       1.374 -14.027  -4.924 -0.16 +0.16    +0.330    11.934
ATOM     41  O   UNL d   1       0.196 -13.875  -4.663 -0.20 -0.16    -0.246    11.934
ATOM     42  O   UNL d   1       1.793 -14.418  -6.137 -0.15 -0.23    -0.477    11.934
ATOM     43  H   UNL d   1       2.614 -13.904  -6.279 +0.14 +0.13    +0.295    11.934
ATOM     44  C   UNL d   1      12.732 -14.628   0.671 -0.02 +0.03    +0.141    11.934
ATOM     45  C   UNL d   1      13.153 -13.340   0.014 -0.07 +0.10    +0.306    11.934
ATOM     46  O   UNL d   1      13.057 -12.220   0.484 -0.66 -0.26    -0.251    11.934
ATOM     47  O   UNL d   1      13.653 -13.531  -1.220 -0.01 -0.03    -0.481    11.934
ATOM     48  H   UNL d   1      13.488 -14.479  -1.411 +0.04 +0.01    +0.295    11.934
ATOM     49  C   UNL d   1       7.382 -13.422  -7.254 -0.16 -0.00    +0.048    11.934
ATOM     50  C   UNL d   1       6.140 -14.278  -7.497 -0.29 +0.04    +0.125    11.934
ATOM     51  C   UNL d   1       4.925 -13.417  -7.698 -0.29 +0.09    +0.305    11.934
ATOM     52  O   UNL d   1       3.993 -13.256  -6.931 -0.36 -0.08    -0.251    11.934
ATOM     53  O   UNL d   1       4.942 -12.793  -8.893 -0.66 -0.16    -0.481    11.934
ATOM     54  H   UNL d   1       5.026 -11.844  -8.665 -0.22 -0.03    +0.295    11.934
TER
ENDMDL
MODEL       12
USER    Run = 12
USER    Cluster Rank = 30
USER    Number of conformations in this cluster = 1
USER  
USER    RMSD from reference structure       = 11.836 A
USER  
USER    Estimated Free Energy of Binding    =   -4.27 kcal/mol  [=(1)+(2)+(3)-(4)]
USER    Estimated Inhibition Constant, Ki   =  738.46 uM (micromolar)  [Temperature = 298.15 K]
USER    
USER    (1) Final Intermolecular Energy     =   -8.15 kcal/mol
USER        vdW + Hbond + desolv Energy     =   -8.00 kcal/mol
USER        Electrostatic Energy            =   -0.15 kcal/mol
USER    (2) Final Total Internal Energy     =   -3.75 kcal/mol
USER    (3) Torsional Free Energy           =   +3.88 kcal/mol
USER    (4) Unbound System's Energy  [=(2)] =   -3.75 kcal/mol
USER    
USER    
USER  
USER    DPF = D:/Protein_go_brrr/autodock/final/AncA/heme/dock.dpf
USER    NEWDPF move	heme_opt.pdbqt
USER    NEWDPF about	0.153000 0.018000 -0.028000
USER    NEWDPF tran0	-8.950804 6.343706 9.638246
USER    NEWDPF axisangle0	-0.205130 0.521321 0.828339 82.542332
USER    NEWDPF quaternion0	-0.135309 0.343876 0.546392 0.751596
USER    NEWDPF dihe0	124.82 113.41 90.67 88.46 -131.98 32.07 -49.78 -63.94 26.27 -134.50 24.35 -77.88 128.37 
USER  
USER                              x       y       z    vdW   Elec        q     RMS 
ATOM      1  O   UNL d   1      -9.085  12.205   9.017 -0.01 -0.07    -0.289    11.836
ATOM      2  O   UNL d   1     -11.872   6.726   4.703 -0.28 +0.00    -0.289    11.836
ATOM      3  N   UNL d   1      -8.636   8.859   9.724 -0.07 -0.14    -0.247    11.836
ATOM      4  N   UNL d   1     -10.314   7.498   7.684 -0.14 -0.10    -0.247    11.836
ATOM      5  N   UNL d   1     -10.041   5.076   9.209 -0.09 -0.07    -0.354    11.836
ATOM      6  N   UNL d   1      -8.317   6.500  11.331 -0.06 -0.04    -0.354    11.836
ATOM      7  C   UNL d   1      -8.112  10.956  10.879 -0.05 +0.02    +0.084    11.836
ATOM      8  C   UNL d   1     -10.720   8.694   5.592 -0.23 +0.02    +0.084    11.836
ATOM      9  C   UNL d   1     -10.137   8.685   7.009 -0.17 +0.03    +0.058    11.836
ATOM     10  C   UNL d   1      -8.086   9.425  10.862 -0.09 +0.02    +0.058    11.836
ATOM     11  C   UNL d   1      -8.758  11.156   9.541 -0.04 +0.07    +0.193    11.836
ATOM     12  C   UNL d   1      -9.003   9.811   8.929 -0.07 +0.06    +0.109    11.836
ATOM     13  C   UNL d   1     -11.294   7.305   5.601 -0.30 +0.03    +0.193    11.836
ATOM     14  C   UNL d   1      -9.043  11.503  11.965 -0.00 +0.00    +0.026    11.836
ATOM     15  C   UNL d   1      -9.551   9.760   7.559 -0.10 +0.03    +0.055    11.836
ATOM     16  C   UNL d   1      -9.622   8.766   4.527 -0.35 +0.01    +0.026    11.836
ATOM     17  C   UNL d   1     -10.986   6.691   6.928 -0.27 +0.03    +0.109    11.836
ATOM     18  C   UNL d   1      -7.490   8.721  11.842 -0.10 +0.01    +0.050    11.836
ATOM     19  C   UNL d   1      -7.343   7.310  11.870 -0.13 +0.00    +0.045    11.836
ATOM     20  C   UNL d   1     -11.000   4.683   8.312 -0.32 +0.01    +0.045    11.836
ATOM     21  C   UNL d   1     -11.467   5.337   7.243 -0.37 +0.01    +0.057    11.836
ATOM     22  C   UNL d   1     -10.730   3.037   9.873 -0.25 -0.00    -0.019    11.836
ATOM     23  C   UNL d   1      -9.809   4.148  10.188 -0.20 +0.01    +0.045    11.836
ATOM     24  C   UNL d   1     -11.431   3.359   8.760 -0.30 -0.00    -0.022    11.836
ATOM     25  C   UNL d   1      -8.017   5.175  11.546 -0.16 -0.00    +0.049    11.836
ATOM     26  C   UNL d   1      -6.368   6.491  12.416 -0.17 +0.00    -0.018    11.836
ATOM     27  C   UNL d   1      -6.788   5.144  12.191 -0.17 -0.00    +0.003    11.836
ATOM     28  C   UNL d   1      -8.949   4.154  11.218 -0.18 +0.00    +0.052    11.836
ATOM     29  C   UNL d   1     -12.468   2.560   8.047 -0.24 +0.01    +0.046    11.836
ATOM     30  C   UNL d   1      -5.119   6.930  13.103 -0.18 -0.01    +0.046    11.836
ATOM     31  H   UNL d   1      -9.521   5.938   9.079 +0.06 +0.05    +0.166    11.836
ATOM     32  H   UNL d   1      -9.153   6.853  10.879 +0.04 +0.03    +0.166    11.836
ATOM     33  C   UNL d   1      -6.740  11.636  10.921 -0.07 +0.04    +0.141    11.836
ATOM     34  C   UNL d   1      -6.018  11.565   9.603 -0.11 +0.14    +0.306    11.836
ATOM     35  O   UNL d   1      -5.429  10.595   9.156 -0.60 -0.24    -0.251    11.836
ATOM     36  O   UNL d   1      -6.078  12.719   8.916 -0.02 -0.13    -0.481    11.836
ATOM     37  H   UNL d   1      -7.037  12.891   8.806 +0.04 +0.08    +0.295    11.836
ATOM     38  C   UNL d   1      -6.075   3.976  12.611 -0.15 -0.01    +0.017    11.836
ATOM     39  C   UNL d   1      -6.633   2.875  13.136 -0.16 -0.02    +0.092    11.836
ATOM     40  C   UNL d   1      -5.790   1.736  13.511 -0.08 -0.06    +0.330    11.836
ATOM     41  O   UNL d   1      -4.635   1.759  13.890 -0.09 +0.06    -0.246    11.836
ATOM     42  O   UNL d   1      -6.480   0.591  13.391 -0.04 +0.00    -0.477    11.836
ATOM     43  H   UNL d   1      -7.170   0.660  14.083 +0.10 +0.01    +0.295    11.836
ATOM     44  C   UNL d   1     -11.812   9.737   5.333 -0.13 +0.02    +0.141    11.836
ATOM     45  C   UNL d   1     -12.278   9.768   3.902 -0.14 -0.01    +0.306    11.836
ATOM     46  O   UNL d   1     -11.862  10.496   3.018 -0.14 +0.00    -0.251    11.836
ATOM     47  O   UNL d   1     -13.271   8.891   3.665 -0.17 +0.04    -0.481    11.836
ATOM     48  H   UNL d   1     -12.814   8.066   3.396 -0.40 -0.11    +0.295    11.836
ATOM     49  C   UNL d   1     -10.848   1.783  10.688 -0.19 +0.01    +0.048    11.836
ATOM     50  C   UNL d   1     -10.899   2.082  12.186 -0.16 +0.02    +0.125    11.836
ATOM     51  C   UNL d   1     -10.413   0.906  12.985 -0.11 +0.06    +0.305    11.836
ATOM     52  O   UNL d   1     -10.966  -0.169  13.138 -0.46 -0.06    -0.251    11.836
ATOM     53  O   UNL d   1      -9.226   1.154  13.575 -0.05 -0.05    -0.481    11.836
ATOM     54  H   UNL d   1      -8.566   0.834  12.926 +0.12 +0.04    +0.295    11.836
TER
ENDMDL
MODEL       21
USER    Run = 21
USER    Cluster Rank = 31
USER    Number of conformations in this cluster = 1
USER  
USER    RMSD from reference structure       = 12.064 A
USER  
USER    Estimated Free Energy of Binding    =   -4.26 kcal/mol  [=(1)+(2)+(3)-(4)]
USER    Estimated Inhibition Constant, Ki   =  751.41 uM (micromolar)  [Temperature = 298.15 K]
USER    
USER    (1) Final Intermolecular Energy     =   -8.14 kcal/mol
USER        vdW + Hbond + desolv Energy     =   -7.42 kcal/mol
USER        Electrostatic Energy            =   -0.72 kcal/mol
USER    (2) Final Total Internal Energy     =   -2.02 kcal/mol
USER    (3) Torsional Free Energy           =   +3.88 kcal/mol
USER    (4) Unbound System's Energy  [=(2)] =   -2.02 kcal/mol
USER    
USER    
USER  
USER    DPF = D:/Protein_go_brrr/autodock/final/AncA/heme/dock.dpf
USER    NEWDPF move	heme_opt.pdbqt
USER    NEWDPF about	0.153000 0.018000 -0.028000
USER    NEWDPF tran0	-8.583389 7.664238 9.371414
USER    NEWDPF axisangle0	-0.099118 0.652911 0.750921 79.441964
USER    NEWDPF quaternion0	-0.063341 0.417243 0.479876 0.769166
USER    NEWDPF dihe0	144.37 -109.89 -146.85 93.64 -32.55 -97.23 128.41 97.86 -8.74 -41.63 143.09 89.14 180.00 
USER  
USER                              x       y       z    vdW   Elec        q     RMS 
ATOM      1  O   UNL d   1      -8.954  13.197   7.369 -0.00 -0.05    -0.289    12.064
ATOM      2  O   UNL d   1     -11.303   6.712   4.398 -0.29 +0.02    -0.289    12.064
ATOM      3  N   UNL d   1      -8.386  10.142   8.866 -0.18 -0.18    -0.247    12.064
ATOM      4  N   UNL d   1      -9.912   8.250   7.157 -0.13 -0.13    -0.247    12.064
ATOM      5  N   UNL d   1      -9.596   6.274   9.222 -0.10 -0.11    -0.354    12.064
ATOM      6  N   UNL d   1      -8.031   8.250  10.997 -0.06 -0.12    -0.354    12.064
ATOM      7  C   UNL d   1      -8.008  12.478   9.505 -0.03 +0.02    +0.084    12.064
ATOM      8  C   UNL d   1     -10.280   8.894   4.829 -0.25 +0.02    +0.084    12.064
ATOM      9  C   UNL d   1      -9.759   9.251   6.225 -0.15 +0.03    +0.058    12.064
ATOM     10  C   UNL d   1      -7.912  10.989   9.853 -0.09 +0.03    +0.058    12.064
ATOM     11  C   UNL d   1      -8.603  12.321   8.138 -0.03 +0.06    +0.193    12.064
ATOM     12  C   UNL d   1      -8.760  10.859   7.857 -0.04 +0.06    +0.109    12.064
ATOM     13  C   UNL d   1     -10.790   7.518   5.150 -0.31 +0.04    +0.193    12.064
ATOM     14  C   UNL d   1      -9.008  13.214  10.400 -0.00 +0.00    +0.026    12.064
ATOM     15  C   UNL d   1      -9.246  10.456   6.522 -0.10 +0.03    +0.055    12.064
ATOM     16  C   UNL d   1      -9.141   8.771   3.812 -0.36 +0.01    +0.026    12.064
ATOM     17  C   UNL d   1     -10.513   7.251   6.594 -0.24 +0.04    +0.109    12.064
ATOM     18  C   UNL d   1      -7.328  10.570  10.991 -0.10 +0.02    +0.050    12.064
ATOM     19  C   UNL d   1      -7.119   9.216  11.358 -0.09 +0.02    +0.045    12.064
ATOM     20  C   UNL d   1     -10.497   5.629   8.415 -0.26 +0.01    +0.045    12.064
ATOM     21  C   UNL d   1     -10.945   5.986   7.207 -0.35 +0.02    +0.057    12.064
ATOM     22  C   UNL d   1     -10.220   4.415  10.330 -0.15 -0.00    -0.019    12.064
ATOM     23  C   UNL d   1      -9.365   5.617  10.401 -0.15 +0.01    +0.045    12.064
ATOM     24  C   UNL d   1     -10.887   4.428   9.151 -0.25 -0.00    -0.022    12.064
ATOM     25  C   UNL d   1      -7.681   7.031  11.530 -0.14 +0.00    +0.049    12.064
ATOM     26  C   UNL d   1      -6.132   8.602  12.113 -0.14 -0.00    -0.018    12.064
ATOM     27  C   UNL d   1      -6.481   7.220  12.203 -0.17 -0.00    +0.003    12.064
ATOM     28  C   UNL d   1      -8.552   5.912  11.427 -0.15 +0.00    +0.052    12.064
ATOM     29  C   UNL d   1     -11.855   3.428   8.617 -0.34 +0.01    +0.046    12.064
ATOM     30  C   UNL d   1      -4.935   9.258  12.715 -0.13 +0.00    +0.046    12.064
ATOM     31  H   UNL d   1      -9.110   7.108   8.908 +0.04 +0.09    +0.166    12.064
ATOM     32  H   UNL d   1      -8.862   8.440  10.449 +0.02 +0.06    +0.166    12.064
ATOM     33  C   UNL d   1      -6.670  13.221   9.427 -0.03 +0.03    +0.141    12.064
ATOM     34  C   UNL d   1      -5.584  12.394   8.794 -0.09 +0.10    +0.306    12.064
ATOM     35  O   UNL d   1      -5.744  11.438   8.055 -0.57 -0.17    -0.251    12.064
ATOM     36  O   UNL d   1      -4.351  12.818   9.124 -0.02 -0.09    -0.481    12.064
ATOM     37  H   UNL d   1      -4.421  13.796   9.136 +0.05 +0.03    +0.295    12.064
ATOM     38  C   UNL d   1      -5.735   6.224  12.911 -0.18 -0.01    +0.017    12.064
ATOM     39  C   UNL d   1      -4.431   5.963  12.736 -0.20 -0.07    +0.092    12.064
ATOM     40  C   UNL d   1      -3.779   4.926  13.540 -0.11 -0.22    +0.330    12.064
ATOM     41  O   UNL d   1      -3.096   5.076  14.535 -0.11 +0.08    -0.246    12.064
ATOM     42  O   UNL d   1      -4.043   3.713  13.030 -0.04 +0.50    -0.477    12.064
ATOM     43  H   UNL d   1      -3.538   3.696  12.191 -0.21 -0.77    +0.295    12.064
ATOM     44  C   UNL d   1     -11.406   9.786   4.295 -0.17 +0.01    +0.141    12.064
ATOM     45  C   UNL d   1     -12.780   9.271   4.628 -0.16 +0.00    +0.306    12.064
ATOM     46  O   UNL d   1     -13.394   9.455   5.665 -0.10 -0.02    -0.251    12.064
ATOM     47  O   UNL d   1     -13.303   8.522   3.641 -0.16 +0.06    -0.481    12.064
ATOM     48  H   UNL d   1     -12.530   8.081   3.229 -0.41 -0.18    +0.295    12.064
ATOM     49  C   UNL d   1     -10.317   3.385  11.416 -0.14 +0.01    +0.048    12.064
ATOM     50  C   UNL d   1     -11.519   3.630  12.328 -0.05 +0.01    +0.125    12.064
ATOM     51  C   UNL d   1     -11.751   5.102  12.525 +0.00 +0.02    +0.305    12.064
ATOM     52  O   UNL d   1     -12.470   5.835  11.868 -0.01 -0.02    -0.251    12.064
ATOM     53  O   UNL d   1     -11.039   5.591  13.559 +0.01 -0.03    -0.481    12.064
ATOM     54  H   UNL d   1     -11.613   5.437  14.338 +0.00 +0.02    +0.295    12.064
TER
ENDMDL
MODEL       23
USER    Run = 23
USER    Cluster Rank = 32
USER    Number of conformations in this cluster = 2
USER  
USER    RMSD from reference structure       = 12.904 A
USER  
USER    Estimated Free Energy of Binding    =   -4.24 kcal/mol  [=(1)+(2)+(3)-(4)]
USER    Estimated Inhibition Constant, Ki   =  779.00 uM (micromolar)  [Temperature = 298.15 K]
USER    
USER    (1) Final Intermolecular Energy     =   -8.12 kcal/mol
USER        vdW + Hbond + desolv Energy     =   -7.73 kcal/mol
USER        Electrostatic Energy            =   -0.39 kcal/mol
USER    (2) Final Total Internal Energy     =   -3.39 kcal/mol
USER    (3) Torsional Free Energy           =   +3.88 kcal/mol
USER    (4) Unbound System's Energy  [=(2)] =   -3.39 kcal/mol
USER    
USER    
USER  
USER    DPF = D:/Protein_go_brrr/autodock/final/AncA/heme/dock.dpf
USER    NEWDPF move	heme_opt.pdbqt
USER    NEWDPF about	0.153000 0.018000 -0.028000
USER    NEWDPF tran0	8.442861 -13.604688 -3.211852
USER    NEWDPF axisangle0	-0.603515 0.640095 -0.475445 93.757623
USER    NEWDPF quaternion0	-0.440512 0.467211 -0.347032 0.683544
USER    NEWDPF dihe0	89.59 158.95 120.05 46.90 -142.22 -22.31 -45.45 -117.67 26.61 -138.33 -137.70 -4.22 -23.69 
USER  
USER                              x       y       z    vdW   Elec        q     RMS 
ATOM      1  O   UNL d   1       4.921 -13.931  -7.928 -0.35 -0.13    -0.289    12.904
ATOM      2  O   UNL d   1      12.405 -14.107  -7.345 -0.04 -0.01    -0.289    12.904
ATOM      3  N   UNL d   1       6.569 -13.565  -4.921 -0.08 -0.01    -0.247    12.904
ATOM      4  N   UNL d   1       9.409 -14.070  -5.633 -0.07 +0.03    -0.247    12.904
ATOM      5  N   UNL d   1       9.978 -14.292  -2.823 -0.05 +0.18    -0.354    12.904
ATOM      6  N   UNL d   1       7.026 -13.786  -2.094 -0.05 +0.02    -0.354    12.904
ATOM      7  C   UNL d   1       4.221 -13.768  -5.592 -0.21 +0.03    +0.084    12.904
ATOM      8  C   UNL d   1      10.081 -13.620  -7.939 -0.15 +0.00    +0.084    12.904
ATOM      9  C   UNL d   1       8.970 -13.714  -6.888 -0.17 +0.00    +0.058    12.904
ATOM     10  C   UNL d   1       5.259 -13.613  -4.476 -0.12 +0.01    +0.058    12.904
ATOM     11  C   UNL d   1       5.176 -13.781  -6.747 -0.23 +0.05    +0.193    12.904
ATOM     12  C   UNL d   1       6.566 -13.624  -6.213 -0.15 +0.01    +0.109    12.904
ATOM     13  C   UNL d   1      11.227 -14.026  -7.056 -0.06 -0.00    +0.193    12.904
ATOM     14  C   UNL d   1       3.505 -15.120  -5.526 -0.21 +0.01    +0.026    12.904
ATOM     15  C   UNL d   1       7.675 -13.515  -7.181 -0.21 +0.00    +0.055    12.904
ATOM     16  C   UNL d   1      10.304 -12.177  -8.403 -0.17 +0.00    +0.026    12.904
ATOM     17  C   UNL d   1      10.686 -14.278  -5.687 -0.08 -0.02    +0.109    12.904
ATOM     18  C   UNL d   1       4.891 -13.448  -3.192 -0.12 +0.01    +0.050    12.904
ATOM     19  C   UNL d   1       5.774 -13.214  -2.107 -0.11 +0.00    +0.045    12.904
ATOM     20  C   UNL d   1      11.170 -14.730  -3.340 -0.07 -0.01    +0.045    12.904
ATOM     21  C   UNL d   1      11.579 -14.736  -4.612 -0.08 -0.01    +0.057    12.904
ATOM     22  C   UNL d   1      11.191 -15.033  -1.076 -0.05 +0.00    -0.019    12.904
ATOM     23  C   UNL d   1       9.897 -14.436  -1.464 -0.09 -0.01    +0.045    12.904
ATOM     24  C   UNL d   1      11.940 -15.204  -2.191 -0.04 +0.00    -0.022    12.904
ATOM     25  C   UNL d   1       7.675 -13.503  -0.915 -0.12 -0.01    +0.049    12.904
ATOM     26  C   UNL d   1       5.620 -12.510  -0.923 -0.17 -0.00    -0.018    12.904
ATOM     27  C   UNL d   1       6.830 -12.680  -0.183 -0.16 -0.00    +0.003    12.904
ATOM     28  C   UNL d   1       8.920 -14.113  -0.603 -0.11 -0.01    +0.052    12.904
ATOM     29  C   UNL d   1      13.319 -15.758  -2.312 -0.01 +0.00    +0.046    12.904
ATOM     30  C   UNL d   1       4.423 -11.725  -0.503 -0.27 +0.01    +0.046    12.904
ATOM     31  H   UNL d   1       9.285 -13.840  -3.410 -0.01 -0.11    +0.166    12.904
ATOM     32  H   UNL d   1       7.384 -14.367  -2.843 +0.03 -0.01    +0.166    12.904
ATOM     33  C   UNL d   1       3.225 -12.611  -5.729 -0.36 +0.04    +0.141    12.904
ATOM     34  C   UNL d   1       3.843 -11.386  -6.348 -0.29 +0.05    +0.306    12.904
ATOM     35  O   UNL d   1       4.422 -10.492  -5.754 -0.38 -0.01    -0.251    12.904
ATOM     36  O   UNL d   1       3.701 -11.354  -7.685 -0.36 -0.13    -0.481    12.904
ATOM     37  H   UNL d   1       4.520 -11.769  -8.031 -0.35 +0.01    +0.295    12.904
ATOM     38  C   UNL d   1       7.090 -12.128   1.113 -0.20 +0.00    +0.017    12.904
ATOM     39  C   UNL d   1       8.291 -11.732   1.560 -0.19 +0.03    +0.092    12.904
ATOM     40  C   UNL d   1       8.419 -11.166   2.905 -0.06 +0.23    +0.330    12.904
ATOM     41  O   UNL d   1       7.558 -10.620   3.568 -0.09 -0.11    -0.246    12.904
ATOM     42  O   UNL d   1       9.671 -11.334   3.360 -0.46 -0.57    -0.477    12.904
ATOM     43  H   UNL d   1      10.020 -12.071   2.817 +0.04 +0.34    +0.295    12.904
ATOM     44  C   UNL d   1       9.944 -14.571  -9.132 -0.10 +0.02    +0.141    12.904
ATOM     45  C   UNL d   1      10.949 -14.308 -10.221 -0.04 +0.05    +0.306    12.904
ATOM     46  O   UNL d   1      10.815 -13.553 -11.168 -0.12 -0.03    -0.251    12.904
ATOM     47  O   UNL d   1      12.071 -15.037 -10.073 +0.02 -0.08    -0.481    12.904
ATOM     48  H   UNL d   1      12.436 -14.757  -9.207 +0.04 +0.04    +0.295    12.904
ATOM     49  C   UNL d   1      11.564 -15.392   0.332 -0.02 +0.01    +0.048    12.904
ATOM     50  C   UNL d   1      12.598 -14.426   0.910 -0.03 +0.04    +0.125    12.904
ATOM     51  C   UNL d   1      12.257 -13.005   0.563 -0.04 +0.20    +0.305    12.904
ATOM     52  O   UNL d   1      12.957 -12.192  -0.015 -0.58 -0.19    -0.251    12.904
ATOM     53  O   UNL d   1      11.022 -12.665   0.984 -0.07 -0.49    -0.481    12.904
ATOM     54  H   UNL d   1      10.623 -12.214   0.211 -0.32 +0.12    +0.295    12.904
TER
ENDMDL
MODEL       88
USER    Run = 88
USER    Cluster Rank = 33
USER    Number of conformations in this cluster = 1
USER  
USER    RMSD from reference structure       = 13.539 A
USER  
USER    Estimated Free Energy of Binding    =   -4.24 kcal/mol  [=(1)+(2)+(3)-(4)]
USER    Estimated Inhibition Constant, Ki   =  779.97 uM (micromolar)  [Temperature = 298.15 K]
USER    
USER    (1) Final Intermolecular Energy     =   -8.12 kcal/mol
USER        vdW + Hbond + desolv Energy     =   -7.80 kcal/mol
USER        Electrostatic Energy            =   -0.31 kcal/mol
USER    (2) Final Total Internal Energy     =   -3.29 kcal/mol
USER    (3) Torsional Free Energy           =   +3.88 kcal/mol
USER    (4) Unbound System's Energy  [=(2)] =   -3.29 kcal/mol
USER    
USER    
USER  
USER    DPF = D:/Protein_go_brrr/autodock/final/AncA/heme/dock.dpf
USER    NEWDPF move	heme_opt.pdbqt
USER    NEWDPF about	0.153000 0.018000 -0.028000
USER    NEWDPF tran0	17.911654 -0.771000 1.765405
USER    NEWDPF axisangle0	-0.409507 -0.863433 -0.294596 52.503290
USER    NEWDPF quaternion0	-0.181131 -0.381909 -0.130304 0.896860
USER    NEWDPF dihe0	32.74 -163.57 105.23 -75.73 -140.66 -39.01 138.91 -101.51 172.94 153.12 -110.56 11.58 -7.74 
USER  
USER                              x       y       z    vdW   Elec        q     RMS 
ATOM      1  O   UNL d   1      14.441  -1.484   6.478 -0.06 -0.06    -0.289    13.539
ATOM      2  O   UNL d   1      15.426  -5.767   0.389 -0.15 -0.12    -0.289    13.539
ATOM      3  N   UNL d   1      16.513  -0.580   3.873 -0.15 -0.07    -0.247    13.539
ATOM      4  N   UNL d   1      16.492  -2.978   2.119 -0.10 -0.12    -0.247    13.539
ATOM      5  N   UNL d   1      18.750  -1.867   0.728 -0.01 -0.46    -0.354    13.539
ATOM      6  N   UNL d   1      18.777   0.609   2.564 -0.06 -0.15    -0.354    13.539
ATOM      7  C   UNL d   1      16.017   0.344   6.088 -0.19 +0.01    +0.084    13.539
ATOM      8  C   UNL d   1      14.525  -4.424   2.226 -0.23 +0.03    +0.084    13.539
ATOM      9  C   UNL d   1      15.300  -3.217   2.765 -0.20 +0.02    +0.058    13.539
ATOM     10  C   UNL d   1      16.797   0.433   4.773 -0.20 +0.01    +0.058    13.539
ATOM     11  C   UNL d   1      15.228  -0.889   5.764 -0.16 +0.03    +0.193    13.539
ATOM     12  C   UNL d   1      15.599  -1.338   4.384 -0.21 +0.02    +0.109    13.539
ATOM     13  C   UNL d   1      15.517  -4.849   1.180 -0.16 +0.08    +0.193    13.539
ATOM     14  C   UNL d   1      16.932   0.046   7.280 -0.09 +0.00    +0.026    13.539
ATOM     15  C   UNL d   1      14.875  -2.489   3.809 -0.28 +0.01    +0.055    13.539
ATOM     16  C   UNL d   1      13.227  -4.003   1.532 -0.48 +0.01    +0.026    13.539
ATOM     17  C   UNL d   1      16.666  -3.895   1.222 -0.15 +0.06    +0.109    13.539
ATOM     18  C   UNL d   1      17.614   1.470   4.510 -0.21 +0.01    +0.050    13.539
ATOM     19  C   UNL d   1      18.310   1.680   3.292 -0.18 +0.01    +0.045    13.539
ATOM     20  C   UNL d   1      18.731  -3.124   0.181 -0.03 +0.05    +0.045    13.539
ATOM     21  C   UNL d   1      17.819  -4.089   0.331 -0.15 +0.04    +0.057    13.539
ATOM     22  C   UNL d   1      20.609  -2.035  -0.533 -0.05 -0.02    -0.019    13.539
ATOM     23  C   UNL d   1      19.846  -1.135   0.355 -0.04 +0.05    +0.045    13.539
ATOM     24  C   UNL d   1      19.943  -3.210  -0.633 -0.04 -0.02    -0.022    13.539
ATOM     25  C   UNL d   1      19.495   1.041   1.474 -0.14 +0.03    +0.049    13.539
ATOM     26  C   UNL d   1      18.703   2.838   2.638 -0.24 -0.01    -0.018    13.539
ATOM     27  C   UNL d   1      19.435   2.428   1.480 -0.22 +0.00    +0.003    13.539
ATOM     28  C   UNL d   1      20.208   0.120   0.659 -0.13 +0.04    +0.052    13.539
ATOM     29  C   UNL d   1      20.306  -4.423  -1.420 -0.05 +0.03    +0.046    13.539
ATOM     30  C   UNL d   1      18.417   4.239   3.059 -0.30 +0.01    +0.046    13.539
ATOM     31  H   UNL d   1      17.973  -1.523   1.282 +0.02 +0.17    +0.166    13.539
ATOM     32  H   UNL d   1      18.635  -0.357   2.836 +0.03 +0.07    +0.166    13.539
ATOM     33  C   UNL d   1      15.081   1.522   6.378 -0.25 +0.01    +0.141    13.539
ATOM     34  C   UNL d   1      15.110   1.943   7.822 -0.20 +0.04    +0.306    13.539
ATOM     35  O   UNL d   1      14.435   1.473   8.723 -0.23 -0.04    -0.251    13.539
ATOM     36  O   UNL d   1      15.989   2.933   8.056 -0.04 -0.08    -0.481    13.539
ATOM     37  H   UNL d   1      16.284   2.787   8.981 +0.07 +0.05    +0.295    13.539
ATOM     38  C   UNL d   1      20.037   3.312   0.529 -0.24 +0.01    +0.017    13.539
ATOM     39  C   UNL d   1      19.912   3.217  -0.804 -0.27 +0.04    +0.092    13.539
ATOM     40  C   UNL d   1      20.567   4.200  -1.670 -0.15 +0.10    +0.330    13.539
ATOM     41  O   UNL d   1      20.648   5.402  -1.503 -0.20 -0.04    -0.246    13.539
ATOM     42  O   UNL d   1      21.112   3.588  -2.734 -0.02 -0.15    -0.477    13.539
ATOM     43  H   UNL d   1      20.680   2.710  -2.745 +0.11 +0.14    +0.295    13.539
ATOM     44  C   UNL d   1      14.275  -5.551   3.234 -0.17 +0.05    +0.141    13.539
ATOM     45  C   UNL d   1      12.864  -5.575   3.760 -0.14 +0.12    +0.306    13.539
ATOM     46  O   UNL d   1      11.940  -6.245   3.332 -0.71 -0.15    -0.251    13.539
ATOM     47  O   UNL d   1      12.684  -4.727   4.789 -0.23 -0.14    -0.481    13.539
ATOM     48  H   UNL d   1      13.108  -5.172   5.554 +0.10 +0.07    +0.295    13.539
ATOM     49  C   UNL d   1      21.912  -1.672  -1.182 -0.04 +0.03    +0.048    13.539
ATOM     50  C   UNL d   1      21.705  -1.051  -2.563 -0.04 +0.09    +0.125    13.539
ATOM     51  C   UNL d   1      21.104   0.321  -2.449 -0.05 +0.27    +0.305    13.539
ATOM     52  O   UNL d   1      19.966   0.659  -2.725 -0.57 -0.39    -0.251    13.539
ATOM     53  O   UNL d   1      21.993   1.226  -1.993 +0.01 -0.23    -0.481    13.539
ATOM     54  H   UNL d   1      22.248   1.733  -2.792 +0.05 +0.11    +0.295    13.539
TER
ENDMDL
MODEL       86
USER    Run = 86
USER    Cluster Rank = 34
USER    Number of conformations in this cluster = 1
USER  
USER    RMSD from reference structure       = 17.703 A
USER  
USER    Estimated Free Energy of Binding    =   -4.17 kcal/mol  [=(1)+(2)+(3)-(4)]
USER    Estimated Inhibition Constant, Ki   =  877.54 uM (micromolar)  [Temperature = 298.15 K]
USER    
USER    (1) Final Intermolecular Energy     =   -8.05 kcal/mol
USER        vdW + Hbond + desolv Energy     =   -8.01 kcal/mol
USER        Electrostatic Energy            =   -0.04 kcal/mol
USER    (2) Final Total Internal Energy     =   -3.87 kcal/mol
USER    (3) Torsional Free Energy           =   +3.88 kcal/mol
USER    (4) Unbound System's Energy  [=(2)] =   -3.87 kcal/mol
USER    
USER    
USER  
USER    DPF = D:/Protein_go_brrr/autodock/final/AncA/heme/dock.dpf
USER    NEWDPF move	heme_opt.pdbqt
USER    NEWDPF about	0.153000 0.018000 -0.028000
USER    NEWDPF tran0	14.739690 -3.172826 -13.885873
USER    NEWDPF axisangle0	0.991540 -0.036817 0.124470 173.761212
USER    NEWDPF quaternion0	0.990071 -0.036762 0.124285 0.054417
USER    NEWDPF dihe0	-128.36 114.25 174.40 59.20 -131.57 67.56 151.11 81.32 -131.30 -2.77 -77.85 -64.96 -6.52 
USER  
USER                              x       y       z    vdW   Elec        q     RMS 
ATOM      1  O   UNL d   1       9.379  -4.299 -16.066 +0.05 +0.12    -0.289    17.703
ATOM      2  O   UNL d   1      12.064   1.705 -12.442 -0.74 -0.08    -0.289    17.703
ATOM      3  N   UNL d   1      12.599  -4.143 -14.839 -0.02 +0.05    -0.247    17.703
ATOM      4  N   UNL d   1      12.825  -1.344 -13.869 -0.15 +0.02    -0.247    17.703
ATOM      5  N   UNL d   1      15.669  -1.730 -13.698 -0.09 +0.13    -0.354    17.703
ATOM      6  N   UNL d   1      15.427  -4.627 -14.724 +0.02 +0.07    -0.354    17.703
ATOM      7  C   UNL d   1      11.347  -5.741 -16.213 -0.17 -0.01    +0.084    17.703
ATOM      8  C   UNL d   1      10.759  -0.220 -13.205 -0.26 +0.01    +0.084    17.703
ATOM      9  C   UNL d   1      11.453  -1.442 -13.816 -0.24 +0.00    +0.058    17.703
ATOM     10  C   UNL d   1      12.658  -5.343 -15.527 -0.20 -0.01    +0.058    17.703
ATOM     11  C   UNL d   1      10.532  -4.562 -15.776 -0.16 -0.03    +0.193    17.703
ATOM     12  C   UNL d   1      11.395  -3.679 -14.928 -0.23 -0.01    +0.109    17.703
ATOM     13  C   UNL d   1      11.989   0.606 -12.956 -0.28 +0.02    +0.193    17.703
ATOM     14  C   UNL d   1      11.469  -5.721 -17.739 -0.06 -0.00    +0.026    17.703
ATOM     15  C   UNL d   1      10.775  -2.493 -14.303 -0.30 -0.00    +0.055    17.703
ATOM     16  C   UNL d   1      10.107  -0.551 -11.859 -0.45 +0.00    +0.026    17.703
ATOM     17  C   UNL d   1      13.173  -0.185 -13.408 -0.27 -0.00    +0.109    17.703
ATOM     18  C   UNL d   1      13.730  -6.157 -15.534 -0.20 -0.00    +0.050    17.703
ATOM     19  C   UNL d   1      14.953  -5.912 -14.859 -0.16 -0.00    +0.045    17.703
ATOM     20  C   UNL d   1      15.603  -0.377 -13.492 -0.14 -0.02    +0.045    17.703
ATOM     21  C   UNL d   1      14.523   0.393 -13.326 -0.33 -0.01    +0.057    17.703
ATOM     22  C   UNL d   1      17.796  -0.988 -13.682 -0.11 +0.01    -0.019    17.703
ATOM     23  C   UNL d   1      16.952  -2.192 -13.826 -0.13 -0.01    +0.045    17.703
ATOM     24  C   UNL d   1      16.991   0.083 -13.483 -0.07 +0.01    -0.022    17.703
ATOM     25  C   UNL d   1      16.664  -4.629 -14.121 -0.12 -0.00    +0.049    17.703
ATOM     26  C   UNL d   1      15.887  -6.768 -14.296 -0.17 -0.00    -0.018    17.703
ATOM     27  C   UNL d   1      16.956  -5.951 -13.814 -0.14 +0.00    +0.003    17.703
ATOM     28  C   UNL d   1      17.425  -3.433 -14.015 -0.15 -0.01    +0.052    17.703
ATOM     29  C   UNL d   1      17.371   1.509 -13.273 -0.19 +0.00    +0.046    17.703
ATOM     30  C   UNL d   1      15.794  -8.254 -14.207 -0.14 +0.00    +0.046    17.703
ATOM     31  H   UNL d   1      14.836  -2.308 -13.672 -0.50 -0.07    +0.166    17.703
ATOM     32  H   UNL d   1      14.936  -3.810 -15.067 -0.19 -0.04    +0.166    17.703
ATOM     33  C   UNL d   1      10.715  -7.046 -15.717 -0.15 -0.02    +0.141    17.703
ATOM     34  C   UNL d   1      11.304  -8.263 -16.378 -0.11 -0.02    +0.306    17.703
ATOM     35  O   UNL d   1      11.054  -8.662 -17.503 -0.04 -0.01    -0.251    17.703
ATOM     36  O   UNL d   1      12.178  -8.911 -15.588 -0.04 +0.05    -0.481    17.703
ATOM     37  H   UNL d   1      11.709  -9.011 -14.732 -0.41 -0.11    +0.295    17.703
ATOM     38  C   UNL d   1      18.140  -6.435 -13.172 -0.08 +0.00    +0.017    17.703
ATOM     39  C   UNL d   1      19.337  -5.828 -13.193 -0.03 +0.00    +0.092    17.703
ATOM     40  C   UNL d   1      20.470  -6.421 -12.478 +0.00 +0.02    +0.330    17.703
ATOM     41  O   UNL d   1      21.029  -7.475 -12.715 -0.00 -0.02    -0.246    17.703
ATOM     42  O   UNL d   1      20.854  -5.617 -11.474 +0.01 -0.02    -0.477    17.703
ATOM     43  H   UNL d   1      21.191  -4.818 -11.929 +0.02 +0.01    +0.295    17.703
ATOM     44  C   UNL d   1       9.782   0.515 -14.129 -0.10 +0.03    +0.141    17.703
ATOM     45  C   UNL d   1      10.386   0.888 -15.457 -0.09 +0.11    +0.306    17.703
ATOM     46  O   UNL d   1      10.152   0.368 -16.534 -0.08 -0.09    -0.251    17.703
ATOM     47  O   UNL d   1      11.282   1.886 -15.352 -0.04 -0.18    -0.481    17.703
ATOM     48  H   UNL d   1      11.220   2.179 -14.418 -0.37 +0.06    +0.295    17.703
ATOM     49  C   UNL d   1      19.294  -0.994 -13.766 -0.07 -0.00    +0.048    17.703
ATOM     50  C   UNL d   1      19.939  -1.218 -12.398 -0.09 -0.01    +0.125    17.703
ATOM     51  C   UNL d   1      20.434  -2.630 -12.263 -0.03 -0.02    +0.305    17.703
ATOM     52  O   UNL d   1      21.425  -3.122 -12.774 -0.00 -0.01    -0.251    17.703
ATOM     53  O   UNL d   1      19.628  -3.374 -11.480 -0.06 +0.07    -0.481    17.703
ATOM     54  H   UNL d   1      20.215  -3.680 -10.757 +0.04 -0.03    +0.295    17.703
TER
ENDMDL
MODEL       69
USER    Run = 69
USER    Cluster Rank = 35
USER    Number of conformations in this cluster = 1
USER  
USER    RMSD from reference structure       = 18.074 A
USER  
USER    Estimated Free Energy of Binding    =   -4.07 kcal/mol  [=(1)+(2)+(3)-(4)]
USER    Estimated Inhibition Constant, Ki   =    1.04 mM (millimolar)  [Temperature = 298.15 K]
USER    
USER    (1) Final Intermolecular Energy     =   -7.95 kcal/mol
USER        vdW + Hbond + desolv Energy     =   -7.00 kcal/mol
USER        Electrostatic Energy            =   -0.95 kcal/mol
USER    (2) Final Total Internal Energy     =   -2.39 kcal/mol
USER    (3) Torsional Free Energy           =   +3.88 kcal/mol
USER    (4) Unbound System's Energy  [=(2)] =   -2.39 kcal/mol
USER    
USER    
USER  
USER    DPF = D:/Protein_go_brrr/autodock/final/AncA/heme/dock.dpf
USER    NEWDPF move	heme_opt.pdbqt
USER    NEWDPF about	0.153000 0.018000 -0.028000
USER    NEWDPF tran0	1.237682 -18.628890 -9.438010
USER    NEWDPF axisangle0	-0.570967 -0.373772 0.730952 145.861845
USER    NEWDPF quaternion0	-0.545817 -0.357308 0.698755 0.293524
USER    NEWDPF dihe0	-86.29 -175.50 -126.23 -133.35 32.50 -0.74 134.47 -63.75 125.31 -60.55 -136.95 3.84 138.04 
USER  
USER                              x       y       z    vdW   Elec        q     RMS 
ATOM      1  O   UNL d   1       3.532 -20.014  -4.187 -0.01 -0.16    -0.289    18.074
ATOM      2  O   UNL d   1      -1.151 -14.507  -6.222 -0.26 -0.23    -0.289    18.074
ATOM      3  N   UNL d   1       2.553 -19.506  -7.455 -0.18 -0.27    -0.247    18.074
ATOM      4  N   UNL d   1       0.514 -17.356  -7.231 -0.13 -0.16    -0.247    18.074
ATOM      5  N   UNL d   1      -0.265 -17.942  -9.936 -0.13 -0.12    -0.354    18.074
ATOM      6  N   UNL d   1       1.839 -20.184 -10.153 -0.06 -0.21    -0.354    18.074
ATOM      7  C   UNL d   1       3.863 -21.218  -6.288 -0.06 +0.08    +0.084    18.074
ATOM      8  C   UNL d   1       0.685 -15.849  -5.316 -0.16 +0.05    +0.084    18.074
ATOM      9  C   UNL d   1       1.179 -17.098  -6.053 -0.14 +0.04    +0.058    18.074
ATOM     10  C   UNL d   1       3.259 -20.690  -7.593 -0.00 +0.08    +0.058    18.074
ATOM     11  C   UNL d   1       3.388 -20.115  -5.391 -0.05 +0.15    +0.193    18.074
ATOM     12  C   UNL d   1       2.629 -19.126  -6.221 -0.09 +0.10    +0.109    18.074
ATOM     13  C   UNL d   1      -0.407 -15.467  -6.274 -0.25 +0.13    +0.193    18.074
ATOM     14  C   UNL d   1       3.212 -22.531  -5.844 -0.01 +0.01    +0.026    18.074
ATOM     15  C   UNL d   1       2.140 -17.897  -5.565 -0.11 +0.04    +0.055    18.074
ATOM     16  C   UNL d   1       1.741 -14.740  -5.307 -0.27 +0.01    +0.026    18.074
ATOM     17  C   UNL d   1      -0.411 -16.465  -7.387 -0.26 +0.06    +0.109    18.074
ATOM     18  C   UNL d   1       3.491 -21.298  -8.771 -0.07 +0.06    +0.050    18.074
ATOM     19  C   UNL d   1       3.046 -20.836 -10.036 -0.07 +0.04    +0.045    18.074
ATOM     20  C   UNL d   1      -1.280 -17.092  -9.577 -0.37 +0.02    +0.045    18.074
ATOM     21  C   UNL d   1      -1.411 -16.369  -8.461 -0.34 +0.03    +0.057    18.074
ATOM     22  C   UNL d   1      -1.745 -17.970 -11.634 -0.27 -0.00    -0.019    18.074
ATOM     23  C   UNL d   1      -0.458 -18.520 -11.162 -0.18 +0.00    +0.045    18.074
ATOM     24  C   UNL d   1      -2.226 -17.125 -10.692 -0.43 -0.01    -0.022    18.074
ATOM     25  C   UNL d   1       1.565 -19.907 -11.472 -0.11 +0.01    +0.049    18.074
ATOM     26  C   UNL d   1       3.587 -20.952 -11.307 -0.08 -0.01    -0.018    18.074
ATOM     27  C   UNL d   1       2.657 -20.346 -12.207 -0.09 +0.00    +0.003    18.074
ATOM     28  C   UNL d   1       0.304 -19.377 -11.859 -0.14 -0.00    +0.052    18.074
ATOM     29  C   UNL d   1      -3.482 -16.322 -10.712 -0.27 +0.03    +0.046    18.074
ATOM     30  C   UNL d   1       4.889 -21.584 -11.666 -0.07 +0.03    +0.046    18.074
ATOM     31  H   UNL d   1       0.564 -18.043  -9.362 +0.05 +0.08    +0.166    18.074
ATOM     32  H   UNL d   1       1.232 -19.983  -9.366 +0.03 +0.10    +0.166    18.074
ATOM     33  C   UNL d   1       5.392 -21.312  -6.262 -0.04 +0.16    +0.141    18.074
ATOM     34  C   UNL d   1       5.927 -21.676  -4.903 -0.01 +0.18    +0.306    18.074
ATOM     35  O   UNL d   1       6.076 -22.804  -4.466 +0.00 -0.10    -0.251    18.074
ATOM     36  O   UNL d   1       6.249 -20.597  -4.167 +0.00 -0.26    -0.481    18.074
ATOM     37  H   UNL d   1       5.433 -20.389  -3.665 +0.01 +0.14    +0.295    18.074
ATOM     38  C   UNL d   1       2.818 -20.262 -13.628 -0.07 +0.00    +0.017    18.074
ATOM     39  C   UNL d   1       2.509 -19.195 -14.380 -0.11 -0.03    +0.092    18.074
ATOM     40  C   UNL d   1       2.740 -19.230 -15.827 -0.04 -0.07    +0.330    18.074
ATOM     41  O   UNL d   1       3.242 -20.126 -16.478 -0.01 -0.00    -0.246    18.074
ATOM     42  O   UNL d   1       2.300 -18.095 -16.392 -0.04 +0.29    -0.477    18.074
ATOM     43  H   UNL d   1       2.016 -17.548 -15.631 -0.51 -0.47    +0.295    18.074
ATOM     44  C   UNL d   1       0.123 -16.090  -3.911 -0.08 +0.10    +0.141    18.074
ATOM     45  C   UNL d   1      -1.366 -15.888  -3.824 -0.08 +0.40    +0.306    18.074
ATOM     46  O   UNL d   1      -2.226 -16.734  -3.995 -0.63 -0.41    -0.251    18.074
ATOM     47  O   UNL d   1      -1.697 -14.612  -3.551 -0.13 -0.79    -0.481    18.074
ATOM     48  H   UNL d   1      -1.226 -14.083  -4.229 +0.11 +0.34    +0.295    18.074
ATOM     49  C   UNL d   1      -2.386 -18.330 -12.942 -0.24 +0.00    +0.048    18.074
ATOM     50  C   UNL d   1      -2.561 -19.841 -13.093 -0.10 +0.05    +0.125    18.074
ATOM     51  C   UNL d   1      -3.082 -20.451 -11.822 -0.01 +0.34    +0.305    18.074
ATOM     52  O   UNL d   1      -2.492 -20.581 -10.764 -0.23 -0.33    -0.251    18.074
ATOM     53  O   UNL d   1      -4.350 -20.888 -11.955 -0.24 -0.70    -0.481    18.074
ATOM     54  H   UNL d   1      -4.345 -21.378 -12.804 +0.03 +0.24    +0.295    18.074
TER
ENDMDL
MODEL       75
USER    Run = 75
USER    Cluster Rank = 36
USER    Number of conformations in this cluster = 2
USER  
USER    RMSD from reference structure       = 15.226 A
USER  
USER    Estimated Free Energy of Binding    =   -4.02 kcal/mol  [=(1)+(2)+(3)-(4)]
USER    Estimated Inhibition Constant, Ki   =    1.12 mM (millimolar)  [Temperature = 298.15 K]
USER    
USER    (1) Final Intermolecular Energy     =   -7.90 kcal/mol
USER        vdW + Hbond + desolv Energy     =   -7.71 kcal/mol
USER        Electrostatic Energy            =   -0.19 kcal/mol
USER    (2) Final Total Internal Energy     =   -2.37 kcal/mol
USER    (3) Torsional Free Energy           =   +3.88 kcal/mol
USER    (4) Unbound System's Energy  [=(2)] =   -2.37 kcal/mol
USER    
USER    
USER  
USER    DPF = D:/Protein_go_brrr/autodock/final/AncA/heme/dock.dpf
USER    NEWDPF move	heme_opt.pdbqt
USER    NEWDPF about	0.153000 0.018000 -0.028000
USER    NEWDPF tran0	-12.467880 -14.824455 2.741845
USER    NEWDPF axisangle0	-0.471943 0.529563 -0.704864 137.706362
USER    NEWDPF quaternion0	-0.440162 0.493902 -0.657398 0.360759
USER    NEWDPF dihe0	-158.67 -61.45 69.85 -82.89 -169.77 21.41 -46.62 -59.58 5.22 -101.16 141.20 -36.55 -175.78 
USER  
USER                              x       y       z    vdW   Elec        q     RMS 
ATOM      1  O   UNL d   1     -11.883 -16.098  -2.985 -0.03 -0.09    -0.289    15.226
ATOM      2  O   UNL d   1      -7.478 -12.182   1.668 -0.81 -0.38    -0.289    15.226
ATOM      3  N   UNL d   1     -12.714 -15.492   0.307 -0.01 -0.06    -0.247    15.226
ATOM      4  N   UNL d   1     -10.285 -14.170   1.393 -0.27 -0.14    -0.247    15.226
ATOM      5  N   UNL d   1     -11.343 -14.600   4.032 -0.12 -0.14    -0.354    15.226
ATOM      6  N   UNL d   1     -13.852 -15.987   2.898 -0.09 -0.07    -0.354    15.226
ATOM      7  C   UNL d   1     -13.684 -16.830  -1.503 -0.07 +0.02    +0.084    15.226
ATOM      8  C   UNL d   1      -8.864 -12.967  -0.190 -0.20 +0.06    +0.084    15.226
ATOM      9  C   UNL d   1     -10.072 -13.875   0.065 -0.11 +0.03    +0.058    15.226
ATOM     10  C   UNL d   1     -13.740 -16.352  -0.049 -0.13 +0.01    +0.058    15.226
ATOM     11  C   UNL d   1     -12.456 -16.074  -1.910 -0.07 +0.05    +0.193    15.226
ATOM     12  C   UNL d   1     -11.977 -15.281  -0.734 -0.10 +0.03    +0.109    15.226
ATOM     13  C   UNL d   1      -8.409 -12.833   1.236 -0.20 +0.18    +0.193    15.226
ATOM     14  C   UNL d   1     -13.398 -18.331  -1.603 -0.02 +0.01    +0.026    15.226
ATOM     15  C   UNL d   1     -10.824 -14.378  -0.926 -0.15 +0.02    +0.055    15.226
ATOM     16  C   UNL d   1      -9.289 -11.588  -0.703 -0.38 +0.01    +0.026    15.226
ATOM     17  C   UNL d   1      -9.349 -13.615   2.094 -0.20 +0.08    +0.109    15.226
ATOM     18  C   UNL d   1     -14.762 -16.684   0.762 -0.13 +0.01    +0.050    15.226
ATOM     19  C   UNL d   1     -14.942 -16.222   2.090 -0.15 +0.01    +0.045    15.226
ATOM     20  C   UNL d   1     -10.077 -14.183   4.351 -0.22 +0.02    +0.045    15.226
ATOM     21  C   UNL d   1      -9.125 -13.702   3.545 -0.27 +0.04    +0.057    15.226
ATOM     22  C   UNL d   1     -11.129 -14.873   6.257 -0.18 -0.01    -0.019    15.226
ATOM     23  C   UNL d   1     -12.055 -15.035   5.118 -0.11 +0.02    +0.045    15.226
ATOM     24  C   UNL d   1      -9.961 -14.367   5.797 -0.23 -0.01    -0.022    15.226
ATOM     25  C   UNL d   1     -14.255 -15.635   4.165 -0.23 +0.01    +0.049    15.226
ATOM     26  C   UNL d   1     -16.082 -15.981   2.841 -0.17 -0.00    -0.018    15.226
ATOM     27  C   UNL d   1     -15.642 -15.592   4.144 -0.20 +0.00    +0.003    15.226
ATOM     28  C   UNL d   1     -13.311 -15.495   5.218 -0.13 +0.02    +0.052    15.226
ATOM     29  C   UNL d   1      -8.729 -14.019   6.562 -0.28 +0.02    +0.046    15.226
ATOM     30  C   UNL d   1     -17.494 -16.102   2.378 -0.15 +0.01    +0.046    15.226
ATOM     31  H   UNL d   1     -11.707 -14.504   3.090 +0.05 +0.06    +0.166    15.226
ATOM     32  H   UNL d   1     -12.893 -16.104   2.592 +0.04 +0.04    +0.166    15.226
ATOM     33  C   UNL d   1     -14.878 -16.426  -2.374 -0.07 +0.02    +0.141    15.226
ATOM     34  C   UNL d   1     -15.149 -14.946  -2.336 -0.11 +0.04    +0.306    15.226
ATOM     35  O   UNL d   1     -16.149 -14.408  -1.892 -0.17 -0.03    -0.251    15.226
ATOM     36  O   UNL d   1     -14.142 -14.222  -2.856 -0.08 -0.06    -0.481    15.226
ATOM     37  H   UNL d   1     -13.633 -14.861  -3.398 +0.07 +0.05    +0.295    15.226
ATOM     38  C   UNL d   1     -16.502 -15.265   5.242 -0.14 -0.00    +0.017    15.226
ATOM     39  C   UNL d   1     -16.090 -14.898   6.465 -0.14 +0.00    +0.092    15.226
ATOM     40  C   UNL d   1     -17.076 -14.572   7.499 -0.16 +0.00    +0.330    15.226
ATOM     41  O   UNL d   1     -18.251 -14.883   7.531 -0.08 -0.01    -0.246    15.226
ATOM     42  O   UNL d   1     -16.500 -13.854   8.476 -0.15 +0.05    -0.477    15.226
ATOM     43  H   UNL d   1     -16.987 -13.005   8.461 -0.35 -0.08    +0.295    15.226
ATOM     44  C   UNL d   1      -7.759 -13.568  -1.064 -0.17 +0.15    +0.141    15.226
ATOM     45  C   UNL d   1      -6.390 -13.029  -0.746 -0.17 +0.42    +0.306    15.226
ATOM     46  O   UNL d   1      -5.854 -12.061  -1.257 -0.20 -0.29    -0.251    15.226
ATOM     47  O   UNL d   1      -5.753 -13.760   0.186 -0.39 -0.97    -0.481    15.226
ATOM     48  H   UNL d   1      -5.716 -13.178   0.975 +0.10 +0.66    +0.295    15.226
ATOM     49  C   UNL d   1     -11.465 -15.238   7.674 -0.17 +0.02    +0.048    15.226
ATOM     50  C   UNL d   1     -10.861 -16.585   8.072 -0.05 +0.03    +0.125    15.226
ATOM     51  C   UNL d   1     -10.922 -17.559   6.930 +0.00 +0.08    +0.305    15.226
ATOM     52  O   UNL d   1     -11.917 -18.039   6.415 -0.01 -0.05    -0.251    15.226
ATOM     53  O   UNL d   1      -9.694 -17.898   6.490 +0.01 -0.14    -0.481    15.226
ATOM     54  H   UNL d   1      -9.502 -18.743   6.949 +0.01 +0.08    +0.295    15.226
TER
ENDMDL
MODEL       71
USER    Run = 71
USER    Cluster Rank = 37
USER    Number of conformations in this cluster = 1
USER  
USER    RMSD from reference structure       = 16.104 A
USER  
USER    Estimated Free Energy of Binding    =   -3.94 kcal/mol  [=(1)+(2)+(3)-(4)]
USER    Estimated Inhibition Constant, Ki   =    1.29 mM (millimolar)  [Temperature = 298.15 K]
USER    
USER    (1) Final Intermolecular Energy     =   -7.82 kcal/mol
USER        vdW + Hbond + desolv Energy     =   -7.74 kcal/mol
USER        Electrostatic Energy            =   -0.08 kcal/mol
USER    (2) Final Total Internal Energy     =   -2.43 kcal/mol
USER    (3) Torsional Free Energy           =   +3.88 kcal/mol
USER    (4) Unbound System's Energy  [=(2)] =   -2.43 kcal/mol
USER    
USER    
USER  
USER    DPF = D:/Protein_go_brrr/autodock/final/AncA/heme/dock.dpf
USER    NEWDPF move	heme_opt.pdbqt
USER    NEWDPF about	0.153000 0.018000 -0.028000
USER    NEWDPF tran0	-12.769782 -13.724053 -6.346523
USER    NEWDPF axisangle0	-0.011026 -0.984548 -0.174768 -62.563471
USER    NEWDPF quaternion0	-0.005725 -0.511223 -0.090748 -0.854624
USER    NEWDPF dihe0	-171.14 85.69 -167.41 167.96 39.65 -37.72 138.93 -1.89 131.72 -9.59 109.08 -67.58 -166.87 
USER  
USER                              x       y       z    vdW   Elec        q     RMS 
ATOM      1  O   UNL d   1     -15.649 -11.159 -10.806 -0.14 -0.08    -0.289    16.104
ATOM      2  O   UNL d   1     -13.396 -18.255  -9.827 -0.03 -0.08    -0.289    16.104
ATOM      3  N   UNL d   1     -13.848 -12.184  -8.049 -0.15 +0.01    -0.247    16.104
ATOM      4  N   UNL d   1     -13.692 -15.131  -8.391 -0.10 -0.02    -0.247    16.104
ATOM      5  N   UNL d   1     -12.804 -15.308  -5.663 -0.04 -0.08    -0.354    16.104
ATOM      6  N   UNL d   1     -12.988 -12.252  -5.310 -0.11 -0.04    -0.354    16.104
ATOM      7  C   UNL d   1     -14.947 -10.098  -8.719 -0.27 -0.00    +0.084    16.104
ATOM      8  C   UNL d   1     -13.843 -16.001 -10.670 -0.17 +0.03    +0.084    16.104
ATOM      9  C   UNL d   1     -13.913 -14.808  -9.711 -0.14 +0.01    +0.058    16.104
ATOM     10  C   UNL d   1     -14.135 -10.879  -7.682 -0.06 -0.01    +0.058    16.104
ATOM     11  C   UNL d   1     -15.053 -11.186  -9.745 -0.19 +0.02    +0.193    16.104
ATOM     12  C   UNL d   1     -14.325 -12.390  -9.233 -0.25 +0.01    +0.109    16.104
ATOM     13  C   UNL d   1     -13.579 -17.067  -9.645 -0.07 +0.05    +0.193    16.104
ATOM     14  C   UNL d   1     -16.351  -9.757  -8.212 -0.20 +0.00    +0.026    16.104
ATOM     15  C   UNL d   1     -14.215 -13.566 -10.120 -0.31 +0.01    +0.055    16.104
ATOM     16  C   UNL d   1     -12.635 -15.907 -11.606 -0.32 +0.01    +0.026    16.104
ATOM     17  C   UNL d   1     -13.518 -16.411  -8.304 -0.09 +0.02    +0.109    16.104
ATOM     18  C   UNL d   1     -13.676 -10.293  -6.560 -0.39 -0.00    +0.050    16.104
ATOM     19  C   UNL d   1     -12.849 -10.911  -5.588 -0.40 +0.00    +0.045    16.104
ATOM     20  C   UNL d   1     -13.012 -16.637  -5.929 -0.06 +0.01    +0.045    16.104
ATOM     21  C   UNL d   1     -13.312 -17.221  -7.094 -0.07 +0.01    +0.057    16.104
ATOM     22  C   UNL d   1     -12.538 -16.396  -3.708 -0.05 -0.01    -0.019    16.104
ATOM     23  C   UNL d   1     -12.512 -15.065  -4.347 -0.10 +0.01    +0.045    16.104
ATOM     24  C   UNL d   1     -12.833 -17.322  -4.650 -0.03 -0.01    -0.022    16.104
ATOM     25  C   UNL d   1     -12.155 -12.619  -4.278 -0.23 +0.01    +0.049    16.104
ATOM     26  C   UNL d   1     -11.876 -10.402  -4.742 -0.45 -0.00    -0.018    16.104
ATOM     27  C   UNL d   1     -11.428 -11.490  -3.930 -0.32 +0.00    +0.003    16.104
ATOM     28  C   UNL d   1     -12.232 -13.919  -3.707 -0.19 +0.01    +0.052    16.104
ATOM     29  C   UNL d   1     -12.961 -18.800  -4.497 -0.01 +0.01    +0.046    16.104
ATOM     30  C   UNL d   1     -11.390  -8.994  -4.689 -0.35 +0.01    +0.046    16.104
ATOM     31  H   UNL d   1     -12.796 -14.618  -6.405 +0.05 +0.03    +0.166    16.104
ATOM     32  H   UNL d   1     -13.648 -12.857  -5.783 +0.07 +0.02    +0.166    16.104
ATOM     33  C   UNL d   1     -14.249  -8.868  -9.309 -0.16 -0.03    +0.141    16.104
ATOM     34  C   UNL d   1     -15.094  -8.156 -10.330 -0.15 -0.04    +0.306    16.104
ATOM     35  O   UNL d   1     -15.836  -7.212 -10.118 -0.20 +0.02    -0.251    16.104
ATOM     36  O   UNL d   1     -14.958  -8.670 -11.565 -0.12 +0.01    -0.481    16.104
ATOM     37  H   UNL d   1     -14.397  -9.465 -11.441 -0.00 +0.02    +0.295    16.104
ATOM     38  C   UNL d   1     -10.432 -11.398  -2.905 -0.37 +0.00    +0.017    16.104
ATOM     39  C   UNL d   1     -10.394 -12.150  -1.794 -0.26 +0.03    +0.092    16.104
ATOM     40  C   UNL d   1      -9.308 -11.969  -0.827 -0.19 +0.18    +0.330    16.104
ATOM     41  O   UNL d   1      -8.131 -11.769  -1.060 -0.18 -0.17    -0.246    16.104
ATOM     42  O   UNL d   1      -9.786 -12.044   0.424 -0.62 -0.29    -0.477    16.104
ATOM     43  H   UNL d   1      -9.956 -11.110   0.667 +0.17 +0.14    +0.295    16.104
ATOM     44  C   UNL d   1     -15.128 -16.297 -11.451 -0.10 +0.06    +0.141    16.104
ATOM     45  C   UNL d   1     -16.309 -16.589 -10.564 -0.00 +0.09    +0.306    16.104
ATOM     46  O   UNL d   1     -17.151 -15.791 -10.191 -0.01 -0.06    -0.251    16.104
ATOM     47  O   UNL d   1     -16.351 -17.874 -10.168 +0.01 -0.12    -0.481    16.104
ATOM     48  H   UNL d   1     -15.476 -18.239 -10.419 +0.02 +0.08    +0.295    16.104
ATOM     49  C   UNL d   1     -12.289 -16.634  -2.247 -0.06 +0.01    +0.048    16.104
ATOM     50  C   UNL d   1     -13.564 -17.048  -1.513 -0.06 +0.03    +0.125    16.104
ATOM     51  C   UNL d   1     -14.523 -15.897  -1.412 -0.10 +0.05    +0.305    16.104
ATOM     52  O   UNL d   1     -14.322 -14.733  -1.711 -0.17 -0.03    -0.251    16.104
ATOM     53  O   UNL d   1     -15.717 -16.278  -0.916 -0.06 -0.08    -0.481    16.104
ATOM     54  H   UNL d   1     -15.687 -17.257  -0.947 +0.04 +0.05    +0.295    16.104
TER
ENDMDL
MODEL       54
USER    Run = 54
USER    Cluster Rank = 38
USER    Number of conformations in this cluster = 2
USER  
USER    RMSD from reference structure       = 14.125 A
USER  
USER    Estimated Free Energy of Binding    =   -3.91 kcal/mol  [=(1)+(2)+(3)-(4)]
USER    Estimated Inhibition Constant, Ki   =    1.35 mM (millimolar)  [Temperature = 298.15 K]
USER    
USER    (1) Final Intermolecular Energy     =   -7.79 kcal/mol
USER        vdW + Hbond + desolv Energy     =   -7.61 kcal/mol
USER        Electrostatic Energy            =   -0.18 kcal/mol
USER    (2) Final Total Internal Energy     =   -3.96 kcal/mol
USER    (3) Torsional Free Energy           =   +3.88 kcal/mol
USER    (4) Unbound System's Energy  [=(2)] =   -3.96 kcal/mol
USER    
USER    
USER  
USER    DPF = D:/Protein_go_brrr/autodock/final/AncA/heme/dock.dpf
USER    NEWDPF move	heme_opt.pdbqt
USER    NEWDPF about	0.153000 0.018000 -0.028000
USER    NEWDPF tran0	-14.992203 9.272735 -2.161828
USER    NEWDPF axisangle0	0.869021 -0.227360 -0.439443 137.227298
USER    NEWDPF quaternion0	0.809182 -0.211704 -0.409184 0.364655
USER    NEWDPF dihe0	-101.31 138.59 -114.40 -180.00 33.81 32.98 122.11 37.82 131.55 -27.57 -65.94 -49.45 -11.51 
USER  
USER                              x       y       z    vdW   Elec        q     RMS 
ATOM      1  O   UNL d   1     -19.633   8.927   1.457 -0.03 -0.02    -0.289    14.125
ATOM      2  O   UNL d   1     -12.613  11.308   2.658 -0.08 -0.01    -0.289    14.125
ATOM      3  N   UNL d   1     -17.182   8.816  -0.967 -0.15 +0.02    -0.247    14.125
ATOM      4  N   UNL d   1     -14.894  10.218   0.310 -0.16 +0.01    -0.247    14.125
ATOM      5  N   UNL d   1     -13.653  10.356  -2.280 -0.14 +0.03    -0.354    14.125
ATOM      6  N   UNL d   1     -16.040   8.919  -3.600 -0.09 +0.03    -0.354    14.125
ATOM      7  C   UNL d   1     -19.590   8.357  -0.919 -0.09 +0.01    +0.084    14.125
ATOM      8  C   UNL d   1     -14.791  10.194   2.751 -0.19 +0.00    +0.084    14.125
ATOM      9  C   UNL d   1     -15.551   9.855   1.465 -0.24 -0.00    +0.058    14.125
ATOM     10  C   UNL d   1     -18.282   8.427  -1.714 -0.16 +0.00    +0.058    14.125
ATOM     11  C   UNL d   1     -19.031   8.759   0.413 -0.08 +0.01    +0.193    14.125
ATOM     12  C   UNL d   1     -17.559   8.984   0.259 -0.19 -0.00    +0.109    14.125
ATOM     13  C   UNL d   1     -13.598  10.849   2.114 -0.13 +0.00    +0.193    14.125
ATOM     14  C   UNL d   1     -20.595   9.418  -1.374 -0.03 +0.00    +0.026    14.125
ATOM     15  C   UNL d   1     -16.773   9.301   1.469 -0.25 -0.00    +0.055    14.125
ATOM     16  C   UNL d   1     -14.326   8.933   3.485 -0.26 -0.00    +0.026    14.125
ATOM     17  C   UNL d   1     -13.787  10.806   0.632 -0.12 +0.00    +0.109    14.125
ATOM     18  C   UNL d   1     -18.222   8.048  -3.004 -0.19 +0.00    +0.050    14.125
ATOM     19  C   UNL d   1     -17.045   7.998  -3.793 -0.23 -0.00    +0.045    14.125
ATOM     20  C   UNL d   1     -12.814  11.177  -1.572 -0.14 -0.00    +0.045    14.125
ATOM     21  C   UNL d   1     -12.789  11.417  -0.257 -0.10 +0.00    +0.057    14.125
ATOM     22  C   UNL d   1     -12.250  11.274  -3.784 -0.15 +0.00    -0.019    14.125
ATOM     23  C   UNL d   1     -13.391  10.349  -3.624 -0.17 -0.00    +0.045    14.125
ATOM     24  C   UNL d   1     -11.913  11.760  -2.566 -0.14 +0.00    -0.022    14.125
ATOM     25  C   UNL d   1     -15.039   8.744  -4.527 -0.23 -0.00    +0.049    14.125
ATOM     26  C   UNL d   1     -16.670   7.180  -4.848 -0.30 +0.00    -0.018    14.125
ATOM     27  C   UNL d   1     -15.394   7.643  -5.295 -0.31 -0.00    +0.003    14.125
ATOM     28  C   UNL d   1     -13.968   9.673  -4.628 -0.17 -0.00    +0.052    14.125
ATOM     29  C   UNL d   1     -10.823  12.713  -2.211 -0.08 -0.00    +0.046    14.125
ATOM     30  C   UNL d   1     -17.447   6.037  -5.407 -0.01 -0.00    +0.046    14.125
ATOM     31  H   UNL d   1     -14.333   9.768  -1.810 -0.15 -0.03    +0.166    14.125
ATOM     32  H   UNL d   1     -16.072   9.644  -2.893 +0.03 -0.01    +0.166    14.125
ATOM     33  C   UNL d   1     -20.235   6.970  -0.836 -0.07 +0.02    +0.141    14.125
ATOM     34  C   UNL d   1     -21.504   6.969  -0.028 -0.05 +0.04    +0.306    14.125
ATOM     35  O   UNL d   1     -22.626   7.194  -0.448 -0.02 -0.03    -0.251    14.125
ATOM     36  O   UNL d   1     -21.292   6.681   1.269 -0.02 -0.09    -0.481    14.125
ATOM     37  H   UNL d   1     -20.917   7.505   1.646 +0.04 +0.04    +0.295    14.125
ATOM     38  C   UNL d   1     -14.649   7.086  -6.383 -0.32 +0.00    +0.017    14.125
ATOM     39  C   UNL d   1     -13.580   7.654  -6.961 -0.27 +0.01    +0.092    14.125
ATOM     40  C   UNL d   1     -12.893   6.969  -8.059 -0.19 +0.05    +0.330    14.125
ATOM     41  O   UNL d   1     -13.377   6.221  -8.887 -0.47 -0.03    -0.246    14.125
ATOM     42  O   UNL d   1     -11.588   7.284  -8.055 -0.63 -0.08    -0.477    14.125
ATOM     43  H   UNL d   1     -11.579   8.244  -7.864 +0.11 +0.02    +0.295    14.125
ATOM     44  C   UNL d   1     -15.503  11.160   3.705 -0.06 +0.01    +0.141    14.125
ATOM     45  C   UNL d   1     -15.430  12.596   3.260 -0.01 +0.01    +0.306    14.125
ATOM     46  O   UNL d   1     -16.100  13.121   2.387 -0.01 -0.01    -0.251    14.125
ATOM     47  O   UNL d   1     -14.491  13.293   3.924 +0.01 -0.02    -0.481    14.125
ATOM     48  H   UNL d   1     -13.642  12.877   3.663 +0.02 +0.01    +0.295    14.125
ATOM     49  C   UNL d   1     -11.613  11.605  -5.101 -0.11 -0.00    +0.048    14.125
ATOM     50  C   UNL d   1     -10.393  10.727  -5.380 -0.12 -0.03    +0.125    14.125
ATOM     51  C   UNL d   1     -10.631   9.841  -6.570 -0.12 -0.04    +0.305    14.125
ATOM     52  O   UNL d   1     -11.312  10.081  -7.551 -0.07 +0.00    -0.251    14.125
ATOM     53  O   UNL d   1      -9.990   8.661  -6.455 -0.10 +0.12    -0.481    14.125
ATOM     54  H   UNL d   1      -9.527   8.724  -5.593 -0.44 -0.19    +0.295    14.125
TER
ENDMDL
MODEL       74
USER    Run = 74
USER    Cluster Rank = 39
USER    Number of conformations in this cluster = 1
USER  
USER    RMSD from reference structure       = 11.956 A
USER  
USER    Estimated Free Energy of Binding    =   -3.88 kcal/mol  [=(1)+(2)+(3)-(4)]
USER    Estimated Inhibition Constant, Ki   =    1.43 mM (millimolar)  [Temperature = 298.15 K]
USER    
USER    (1) Final Intermolecular Energy     =   -7.76 kcal/mol
USER        vdW + Hbond + desolv Energy     =   -7.46 kcal/mol
USER        Electrostatic Energy            =   -0.30 kcal/mol
USER    (2) Final Total Internal Energy     =   -3.80 kcal/mol
USER    (3) Torsional Free Energy           =   +3.88 kcal/mol
USER    (4) Unbound System's Energy  [=(2)] =   -3.80 kcal/mol
USER    
USER    
USER  
USER    DPF = D:/Protein_go_brrr/autodock/final/AncA/heme/dock.dpf
USER    NEWDPF move	heme_opt.pdbqt
USER    NEWDPF about	0.153000 0.018000 -0.028000
USER    NEWDPF tran0	8.144821 -7.051543 9.720963
USER    NEWDPF axisangle0	0.747247 0.596066 -0.293813 -94.756232
USER    NEWDPF quaternion0	0.549853 0.438609 -0.216199 -0.677157
USER    NEWDPF dihe0	-180.00 -165.93 -115.63 28.92 -155.39 -110.81 167.62 49.96 7.92 24.07 -71.83 71.53 19.16 
USER  
USER                              x       y       z    vdW   Elec        q     RMS 
ATOM      1  O   UNL d   1       6.757  -8.211  15.332 -0.02 +0.01    -0.289    11.956
ATOM      2  O   UNL d   1       2.440  -7.543   9.225 -0.35 -0.06    -0.289    11.956
ATOM      3  N   UNL d   1       8.021  -7.378  12.233 -0.13 +0.00    -0.247    11.956
ATOM      4  N   UNL d   1       5.668  -7.651  10.440 -0.16 +0.01    -0.247    11.956
ATOM      5  N   UNL d   1       7.473  -7.532   8.205 -0.07 -0.02    -0.354    11.956
ATOM      6  N   UNL d   1       9.911  -7.269  10.074 -0.08 -0.03    -0.354    11.956
ATOM      7  C   UNL d   1       9.002  -7.892  14.420 -0.04 +0.00    +0.084    11.956
ATOM      8  C   UNL d   1       3.458  -7.363  11.443 -0.34 -0.01    +0.084    11.956
ATOM      9  C   UNL d   1       4.977  -7.468  11.617 -0.24 -0.00    +0.058    11.956
ATOM     10  C   UNL d   1       9.199  -7.519  12.947 -0.09 +0.00    +0.058    11.956
ATOM     11  C   UNL d   1       7.503  -7.918  14.416 -0.04 -0.00    +0.193    11.956
ATOM     12  C   UNL d   1       7.028  -7.565  13.041 -0.13 -0.01    +0.109    11.956
ATOM     13  C   UNL d   1       3.412  -7.557   9.954 -0.31 +0.03    +0.193    11.956
ATOM     14  C   UNL d   1       9.522  -9.297  14.731 -0.01 +0.00    +0.026    11.956
ATOM     15  C   UNL d   1       5.574  -7.437  12.819 -0.17 -0.01    +0.055    11.956
ATOM     16  C   UNL d   1       2.945  -5.959  11.773 -0.50 -0.01    +0.026    11.956
ATOM     17  C   UNL d   1       4.815  -7.728   9.469 -0.26 +0.01    +0.109    11.956
ATOM     18  C   UNL d   1      10.422  -7.267  12.443 -0.08 +0.00    +0.050    11.956
ATOM     19  C   UNL d   1      10.693  -6.835  11.120 -0.11 +0.00    +0.045    11.956
ATOM     20  C   UNL d   1       6.320  -7.892   7.558 -0.21 +0.01    +0.045    11.956
ATOM     21  C   UNL d   1       5.078  -7.981   8.045 -0.28 +0.01    +0.057    11.956
ATOM     22  C   UNL d   1       8.054  -7.965   6.073 -0.18 -0.00    -0.019    11.956
ATOM     23  C   UNL d   1       8.574  -7.548   7.390 -0.18 +0.01    +0.045    11.956
ATOM     24  C   UNL d   1       6.719  -8.166   6.178 -0.20 -0.01    -0.022    11.956
ATOM     25  C   UNL d   1      10.404  -6.803   8.876 -0.13 +0.01    +0.049    11.956
ATOM     26  C   UNL d   1      11.697  -6.037  10.593 -0.11 -0.00    -0.018    11.956
ATOM     27  C   UNL d   1      11.498  -6.005   9.179 -0.13 +0.00    +0.003    11.956
ATOM     28  C   UNL d   1       9.857  -7.246   7.641 -0.17 +0.01    +0.052    11.956
ATOM     29  C   UNL d   1       5.752  -8.582   5.122 -0.29 +0.01    +0.046    11.956
ATOM     30  C   UNL d   1      12.776  -5.344  11.356 -0.07 +0.00    +0.046    11.956
ATOM     31  H   UNL d   1       7.458  -7.216   9.169 -0.32 -0.03    +0.166    11.956
ATOM     32  H   UNL d   1       9.111  -7.881  10.188 +0.03 +0.01    +0.166    11.956
ATOM     33  C   UNL d   1       9.519  -6.864  15.432 -0.04 +0.00    +0.141    11.956
ATOM     34  C   UNL d   1       8.930  -5.496  15.221 -0.07 +0.00    +0.306    11.956
ATOM     35  O   UNL d   1       9.477  -4.553  14.673 -0.05 -0.01    -0.251    11.956
ATOM     36  O   UNL d   1       7.682  -5.387  15.710 -0.07 +0.04    -0.481    11.956
ATOM     37  H   UNL d   1       7.472  -6.283  16.051 +0.04 -0.02    +0.295    11.956
ATOM     38  C   UNL d   1      12.326  -5.304   8.244 -0.14 +0.00    +0.017    11.956
ATOM     39  C   UNL d   1      12.373  -3.971   8.100 -0.16 +0.01    +0.092    11.956
ATOM     40  C   UNL d   1      13.280  -3.375   7.115 -0.14 +0.05    +0.330    11.956
ATOM     41  O   UNL d   1      14.260  -2.687   7.328 -0.13 -0.04    -0.246    11.956
ATOM     42  O   UNL d   1      12.890  -3.699   5.873 -0.13 -0.08    -0.477    11.956
ATOM     43  H   UNL d   1      11.983  -4.049   5.995 +0.14 +0.05    +0.295    11.956
ATOM     44  C   UNL d   1       2.635  -8.438  12.162 -0.24 -0.00    +0.141    11.956
ATOM     45  C   UNL d   1       3.398  -9.715  12.393 -0.07 +0.15    +0.306    11.956
ATOM     46  O   UNL d   1       3.591 -10.262  13.465 -0.03 -0.08    -0.251    11.956
ATOM     47  O   UNL d   1       3.905 -10.225  11.256 -0.04 -0.46    -0.481    11.956
ATOM     48  H   UNL d   1       4.545  -9.550  10.945 +0.09 +0.15    +0.295    11.956
ATOM     49  C   UNL d   1       8.905  -8.142   4.849 -0.23 +0.02    +0.048    11.956
ATOM     50  C   UNL d   1       9.531  -6.823   4.397 -0.16 +0.05    +0.125    11.956
ATOM     51  C   UNL d   1      11.010  -6.814   4.658 -0.16 +0.15    +0.305    11.956
ATOM     52  O   UNL d   1      11.807  -7.711   4.450 -0.13 -0.15    -0.251    11.956
ATOM     53  O   UNL d   1      11.420  -5.647   5.195 -0.47 -0.19    -0.481    11.956
ATOM     54  H   UNL d   1      12.349  -5.561   4.897 +0.11 +0.11    +0.295    11.956
TER
ENDMDL
MODEL       84
USER    Run = 84
USER    Cluster Rank = 40
USER    Number of conformations in this cluster = 1
USER  
USER    RMSD from reference structure       = 16.881 A
USER  
USER    Estimated Free Energy of Binding    =   -3.82 kcal/mol  [=(1)+(2)+(3)-(4)]
USER    Estimated Inhibition Constant, Ki   =    1.57 mM (millimolar)  [Temperature = 298.15 K]
USER    
USER    (1) Final Intermolecular Energy     =   -7.70 kcal/mol
USER        vdW + Hbond + desolv Energy     =   -7.56 kcal/mol
USER        Electrostatic Energy            =   -0.15 kcal/mol
USER    (2) Final Total Internal Energy     =   -2.26 kcal/mol
USER    (3) Torsional Free Energy           =   +3.88 kcal/mol
USER    (4) Unbound System's Energy  [=(2)] =   -2.26 kcal/mol
USER    
USER    
USER  
USER    DPF = D:/Protein_go_brrr/autodock/final/AncA/heme/dock.dpf
USER    NEWDPF move	heme_opt.pdbqt
USER    NEWDPF about	0.153000 0.018000 -0.028000
USER    NEWDPF tran0	5.312318 16.953977 9.242099
USER    NEWDPF axisangle0	0.868891 0.128545 0.478021 -88.406922
USER    NEWDPF quaternion0	0.605798 0.089623 0.333280 -0.716868
USER    NEWDPF dihe0	-111.57 -9.82 -84.10 153.60 67.36 -132.90 155.20 -5.06 150.98 -93.43 79.64 -91.14 180.00 
USER  
USER                              x       y       z    vdW   Elec        q     RMS 
ATOM      1  O   UNL d   1       0.759  13.214   9.427 -0.15 +0.07    -0.289    16.881
ATOM      2  O   UNL d   1       4.237  16.460   3.617 -0.17 +0.04    -0.289    16.881
ATOM      3  N   UNL d   1       3.334  15.475   9.818 -0.07 -0.00    -0.247    16.881
ATOM      4  N   UNL d   1       4.246  15.959   7.032 -0.13 +0.05    -0.247    16.881
ATOM      5  N   UNL d   1       6.596  17.211   8.117 -0.11 +0.06    -0.354    16.881
ATOM      6  N   UNL d   1       5.651  16.688  11.004 -0.11 +0.00    -0.354    16.881
ATOM      7  C   UNL d   1       2.047  14.042  11.333 -0.20 -0.01    +0.084    16.881
ATOM      8  C   UNL d   1       2.612  15.624   5.246 -0.14 -0.01    +0.084    16.881
ATOM      9  C   UNL d   1       2.973  15.528   6.732 -0.19 -0.01    +0.058    16.881
ATOM     10  C   UNL d   1       3.159  15.075  11.132 -0.11 +0.00    +0.058    16.881
ATOM     11  C   UNL d   1       1.611  13.942   9.902 -0.18 -0.03    +0.193    16.881
ATOM     12  C   UNL d   1       2.450  14.878   9.087 -0.13 -0.01    +0.109    16.881
ATOM     13  C   UNL d   1       3.929  16.154   4.753 -0.14 -0.03    +0.193    16.881
ATOM     14  C   UNL d   1       2.597  12.684  11.779 -0.31 -0.00    +0.026    16.881
ATOM     15  C   UNL d   1       2.138  15.019   7.651 -0.24 -0.01    +0.055    16.881
ATOM     16  C   UNL d   1       1.531  16.678   4.991 -0.07 -0.00    +0.026    16.881
ATOM     17  C   UNL d   1       4.834  16.305   5.932 -0.22 -0.02    +0.109    16.881
ATOM     18  C   UNL d   1       3.830  15.598  12.176 -0.13 +0.00    +0.050    16.881
ATOM     19  C   UNL d   1       4.813  16.617  12.094 -0.11 +0.00    +0.045    16.881
ATOM     20  C   UNL d   1       6.955  17.141   6.796 -0.27 -0.01    +0.045    16.881
ATOM     21  C   UNL d   1       6.217  16.768   5.746 -0.35 -0.01    +0.057    16.881
ATOM     22  C   UNL d   1       8.748  17.867   8.012 -0.19 +0.00    -0.019    16.881
ATOM     23  C   UNL d   1       7.613  17.639   8.928 -0.19 -0.00    +0.045    16.881
ATOM     24  C   UNL d   1       8.352  17.571   6.751 -0.26 +0.00    -0.022    16.881
ATOM     25  C   UNL d   1       6.580  17.688  11.174 -0.12 -0.00    +0.049    16.881
ATOM     26  C   UNL d   1       5.183  17.619  12.977 -0.04 +0.00    -0.018    16.881
ATOM     27  C   UNL d   1       6.287  18.305  12.382 -0.05 -0.00    +0.003    16.881
ATOM     28  C   UNL d   1       7.650  17.853  10.252 -0.15 -0.00    +0.052    16.881
ATOM     29  C   UNL d   1       9.134  17.654   5.484 -0.26 -0.00    +0.046    16.881
ATOM     30  C   UNL d   1       4.551  17.925  14.293 -0.01 -0.00    +0.046    16.881
ATOM     31  H   UNL d   1       5.642  17.035   8.413 +0.04 -0.02    +0.166    16.881
ATOM     32  H   UNL d   1       5.599  16.054  10.215 +0.03 -0.01    +0.166    16.881
ATOM     33  C   UNL d   1       0.881  14.494  12.219 -0.08 -0.01    +0.141    16.881
ATOM     34  C   UNL d   1       0.069  13.341  12.742 -0.09 -0.03    +0.306    16.881
ATOM     35  O   UNL d   1      -0.132  13.074  13.915 -0.05 +0.02    -0.251    16.881
ATOM     36  O   UNL d   1      -0.450  12.585  11.759 -0.12 +0.07    -0.481    16.881
ATOM     37  H   UNL d   1       0.329  12.180  11.321 -0.35 -0.09    +0.295    16.881
ATOM     38  C   UNL d   1       6.989  19.406  12.970 -0.02 -0.00    +0.017    16.881
ATOM     39  C   UNL d   1       8.314  19.461  13.170 -0.02 -0.00    +0.092    16.881
ATOM     40  C   UNL d   1       8.913  20.657  13.768 -0.00 -0.00    +0.330    16.881
ATOM     41  O   UNL d   1       9.914  21.247  13.408 -0.00 +0.00    -0.246    16.881
ATOM     42  O   UNL d   1       8.183  21.064  14.818 +0.00 +0.00    -0.477    16.881
ATOM     43  H   UNL d   1       8.739  21.751  15.239 +0.00 +0.00    +0.295    16.881
ATOM     44  C   UNL d   1       2.265  14.296   4.564 -0.19 -0.01    +0.141    16.881
ATOM     45  C   UNL d   1       2.760  14.210   3.145 -0.20 -0.00    +0.306    16.881
ATOM     46  O   UNL d   1       3.649  13.487   2.728 -0.88 -0.00    -0.251    16.881
ATOM     47  O   UNL d   1       2.124  15.065   2.324 -0.17 +0.01    -0.481    16.881
ATOM     48  H   UNL d   1       2.702  15.857   2.295 +0.12 -0.02    +0.295    16.881
ATOM     49  C   UNL d   1      10.105  18.333   8.451 -0.13 -0.01    +0.048    16.881
ATOM     50  C   UNL d   1      11.076  17.166   8.634 -0.13 -0.03    +0.125    16.881
ATOM     51  C   UNL d   1      11.195  16.790  10.084 -0.08 -0.05    +0.305    16.881
ATOM     52  O   UNL d   1      10.782  17.410  11.048 -0.10 +0.02    -0.251    16.881
ATOM     53  O   UNL d   1      11.857  15.628  10.250 -0.06 +0.13    -0.481    16.881
ATOM     54  H   UNL d   1      11.698  15.142   9.414 -0.26 -0.19    +0.295    16.881
TER
ENDMDL
MODEL       42
USER    Run = 42
USER    Cluster Rank = 41
USER    Number of conformations in this cluster = 3
USER  
USER    RMSD from reference structure       = 14.531 A
USER  
USER    Estimated Free Energy of Binding    =   -3.80 kcal/mol  [=(1)+(2)+(3)-(4)]
USER    Estimated Inhibition Constant, Ki   =    1.64 mM (millimolar)  [Temperature = 298.15 K]
USER    
USER    (1) Final Intermolecular Energy     =   -7.68 kcal/mol
USER        vdW + Hbond + desolv Energy     =   -7.70 kcal/mol
USER        Electrostatic Energy            =   +0.02 kcal/mol
USER    (2) Final Total Internal Energy     =   -4.18 kcal/mol
USER    (3) Torsional Free Energy           =   +3.88 kcal/mol
USER    (4) Unbound System's Energy  [=(2)] =   -4.18 kcal/mol
USER    
USER    
USER  
USER    DPF = D:/Protein_go_brrr/autodock/final/AncA/heme/dock.dpf
USER    NEWDPF move	heme_opt.pdbqt
USER    NEWDPF about	0.153000 0.018000 -0.028000
USER    NEWDPF tran0	2.243325 14.729332 7.890862
USER    NEWDPF axisangle0	0.085669 0.670864 0.736616 128.575254
USER    NEWDPF quaternion0	0.077186 0.604437 0.663678 0.433854
USER    NEWDPF dihe0	109.06 -154.39 115.01 -14.45 -132.82 30.79 -43.45 22.15 54.52 -140.20 63.62 -89.24 116.35 
USER  
USER                              x       y       z    vdW   Elec        q     RMS 
ATOM      1  O   UNL d   1       6.532  18.181   5.782 -0.10 +0.03    -0.289    14.531
ATOM      2  O   UNL d   1       1.292  14.120   2.255 -0.31 -0.01    -0.289    14.531
ATOM      3  N   UNL d   1       4.281  16.177   7.458 -0.12 +0.04    -0.247    14.531
ATOM      4  N   UNL d   1       2.463  15.240   5.302 -0.10 +0.02    -0.247    14.531
ATOM      5  N   UNL d   1       0.652  14.341   7.346 -0.11 +0.03    -0.354    14.531
ATOM      6  N   UNL d   1       2.535  15.333   9.576 -0.07 +0.01    -0.354    14.531
ATOM      7  C   UNL d   1       5.997  17.791   8.135 -0.13 -0.01    +0.084    14.531
ATOM      8  C   UNL d   1       3.371  15.150   3.035 -0.31 -0.01    +0.084    14.531
ATOM      9  C   UNL d   1       3.547  15.537   4.507 -0.23 -0.01    +0.058    14.531
ATOM     10  C   UNL d   1       4.896  16.801   8.530 -0.16 -0.01    +0.058    14.531
ATOM     11  C   UNL d   1       5.907  17.601   6.650 -0.11 -0.03    +0.193    14.531
ATOM     12  C   UNL d   1       4.849  16.580   6.368 -0.18 -0.02    +0.109    14.531
ATOM     13  C   UNL d   1       1.971  14.612   3.135 -0.17 -0.00    +0.193    14.531
ATOM     14  C   UNL d   1       5.619  19.235   8.473 -0.04 -0.00    +0.026    14.531
ATOM     15  C   UNL d   1       4.644  16.159   4.967 -0.30 -0.01    +0.055    14.531
ATOM     16  C   UNL d   1       4.309  14.009   2.632 -0.34 -0.01    +0.026    14.531
ATOM     17  C   UNL d   1       1.534  14.731   4.558 -0.14 -0.00    +0.109    14.531
ATOM     18  C   UNL d   1       4.636  16.517   9.820 -0.16 -0.00    +0.050    14.531
ATOM     19  C   UNL d   1       3.698  15.557  10.277 -0.06 +0.00    +0.045    14.531
ATOM     20  C   UNL d   1      -0.145  14.187   6.241 -0.15 -0.00    +0.045    14.531
ATOM     21  C   UNL d   1       0.178  14.319   4.951 -0.10 +0.00    +0.057    14.531
ATOM     22  C   UNL d   1      -1.395  13.798   8.113 -0.23 +0.00    -0.019    14.531
ATOM     23  C   UNL d   1      -0.015  14.127   8.523 -0.23 -0.00    +0.045    14.531
ATOM     24  C   UNL d   1      -1.465  13.834   6.761 -0.22 -0.00    -0.022    14.531
ATOM     25  C   UNL d   1       1.734  14.435  10.243 -0.20 -0.00    +0.049    14.531
ATOM     26  C   UNL d   1       3.670  14.756  11.409 -0.04 -0.00    -0.018    14.531
ATOM     27  C   UNL d   1       2.436  14.035  11.371 -0.22 -0.00    +0.003    14.531
ATOM     28  C   UNL d   1       0.413  14.163   9.794 -0.24 -0.00    +0.052    14.531
ATOM     29  C   UNL d   1      -2.637  13.564   5.880 -0.21 +0.00    +0.046    14.531
ATOM     30  C   UNL d   1       4.723  14.663  12.460 -0.19 +0.00    +0.046    14.531
ATOM     31  H   UNL d   1       1.647  14.516   7.257 +0.05 -0.02    +0.166    14.531
ATOM     32  H   UNL d   1       2.301  15.807   8.712 +0.05 -0.01    +0.166    14.531
ATOM     33  C   UNL d   1       7.403  17.445   8.637 -0.20 -0.02    +0.141    14.531
ATOM     34  C   UNL d   1       8.270  16.846   7.563 -0.23 -0.07    +0.306    14.531
ATOM     35  O   UNL d   1       8.234  15.693   7.168 -0.36 +0.11    -0.251    14.531
ATOM     36  O   UNL d   1       9.136  17.733   7.041 -0.08 +0.07    -0.481    14.531
ATOM     37  H   UNL d   1       8.582  18.319   6.483 +0.10 -0.03    +0.295    14.531
ATOM     38  C   UNL d   1       1.996  13.102  12.364 -0.25 -0.00    +0.017    14.531
ATOM     39  C   UNL d   1       0.808  13.137  12.987 -0.14 -0.01    +0.092    14.531
ATOM     40  C   UNL d   1       0.471  12.109  13.975 -0.07 -0.05    +0.330    14.531
ATOM     41  O   UNL d   1       1.234  11.482  14.686 -0.07 +0.03    -0.246    14.531
ATOM     42  O   UNL d   1      -0.858  11.928  14.018 -0.04 +0.04    -0.477    14.531
ATOM     43  H   UNL d   1      -1.162  12.208  13.131 +0.06 -0.03    +0.295    14.531
ATOM     44  C   UNL d   1       3.444  16.308   2.034 -0.25 -0.01    +0.141    14.531
ATOM     45  C   UNL d   1       3.501  15.852   0.601 -0.23 -0.03    +0.306    14.531
ATOM     46  O   UNL d   1       4.503  15.570  -0.033 -0.37 +0.01    -0.251    14.531
ATOM     47  O   UNL d   1       2.285  15.800   0.028 -0.09 +0.06    -0.481    14.531
ATOM     48  H   UNL d   1       1.812  15.090   0.513 +0.10 -0.04    +0.295    14.531
ATOM     49  C   UNL d   1      -2.509  13.497   9.072 -0.15 +0.00    +0.048    14.531
ATOM     50  C   UNL d   1      -2.370  14.288  10.372 -0.10 +0.00    +0.125    14.531
ATOM     51  C   UNL d   1      -2.143  13.368  11.538 -0.10 +0.00    +0.305    14.531
ATOM     52  O   UNL d   1      -1.806  12.197  11.507 -0.17 +0.00    -0.251    14.531
ATOM     53  O   UNL d   1      -2.370  13.982  12.717 -0.01 -0.00    -0.481    14.531
ATOM     54  H   UNL d   1      -2.432  13.246  13.361 +0.03 -0.00    +0.295    14.531
TER
ENDMDL
MODEL       62
USER    Run = 62
USER    Cluster Rank = 42
USER    Number of conformations in this cluster = 1
USER  
USER    RMSD from reference structure       = 13.476 A
USER  
USER    Estimated Free Energy of Binding    =   -3.76 kcal/mol  [=(1)+(2)+(3)-(4)]
USER    Estimated Inhibition Constant, Ki   =    1.74 mM (millimolar)  [Temperature = 298.15 K]
USER    
USER    (1) Final Intermolecular Energy     =   -7.64 kcal/mol
USER        vdW + Hbond + desolv Energy     =   -7.34 kcal/mol
USER        Electrostatic Energy            =   -0.31 kcal/mol
USER    (2) Final Total Internal Energy     =   -2.61 kcal/mol
USER    (3) Torsional Free Energy           =   +3.88 kcal/mol
USER    (4) Unbound System's Energy  [=(2)] =   -2.61 kcal/mol
USER    
USER    
USER  
USER    DPF = D:/Protein_go_brrr/autodock/final/AncA/heme/dock.dpf
USER    NEWDPF move	heme_opt.pdbqt
USER    NEWDPF about	0.153000 0.018000 -0.028000
USER    NEWDPF tran0	8.223538 -13.703812 -5.307946
USER    NEWDPF axisangle0	0.863192 0.252813 -0.437018 -89.565618
USER    NEWDPF quaternion0	0.608051 0.178087 -0.307845 -0.709782
USER    NEWDPF dihe0	103.52 -24.44 -128.82 -173.85 -142.06 103.40 124.80 87.00 71.73 -18.41 137.72 13.39 -180.00 
USER  
USER                              x       y       z    vdW   Elec        q     RMS 
ATOM      1  O   UNL d   1       5.057 -12.977  -0.388 -0.05 -0.04    -0.289    13.476
ATOM      2  O   UNL d   1       3.263 -11.926  -7.604 -0.52 -0.11    -0.289    13.476
ATOM      3  N   UNL d   1       7.318 -13.409  -2.957 -0.10 +0.04    -0.247    13.476
ATOM      4  N   UNL d   1       5.652 -13.076  -5.396 -0.11 -0.02    -0.247    13.476
ATOM      5  N   UNL d   1       7.827 -14.180  -6.919 -0.06 -0.05    -0.354    13.476
ATOM      6  N   UNL d   1       9.540 -14.540  -4.382 -0.03 +0.08    -0.354    13.476
ATOM      7  C   UNL d   1       7.354 -13.800  -0.538 -0.08 -0.00    +0.084    13.476
ATOM      8  C   UNL d   1       3.637 -11.710  -5.195 -0.35 +0.02    +0.084    13.476
ATOM      9  C   UNL d   1       4.840 -12.384  -4.526 -0.22 +0.01    +0.058    13.476
ATOM     10  C   UNL d   1       8.073 -13.862  -1.889 -0.10 -0.02    +0.058    13.476
ATOM     11  C   UNL d   1       6.064 -13.216  -1.030 -0.07 +0.01    +0.193    13.476
ATOM     12  C   UNL d   1       6.176 -13.001  -2.507 -0.11 +0.00    +0.109    13.476
ATOM     13  C   UNL d   1       3.897 -12.180  -6.598 -0.37 +0.04    +0.193    13.476
ATOM     14  C   UNL d   1       7.080 -15.195   0.031 -0.02 +0.00    +0.026    13.476
ATOM     15  C   UNL d   1       5.051 -12.343  -3.202 -0.21 +0.01    +0.055    13.476
ATOM     16  C   UNL d   1       3.749 -10.183  -5.158 -0.42 +0.00    +0.026    13.476
ATOM     17  C   UNL d   1       5.142 -13.005  -6.583 -0.17 +0.01    +0.109    13.476
ATOM     18  C   UNL d   1       9.361 -14.242  -1.983 -0.11 -0.02    +0.050    13.476
ATOM     19  C   UNL d   1      10.132 -14.250  -3.173 -0.06 -0.02    +0.045    13.476
ATOM     20  C   UNL d   1       6.849 -14.168  -7.879 -0.28 +0.01    +0.045    13.476
ATOM     21  C   UNL d   1       5.623 -13.639  -7.820 -0.35 +0.01    +0.057    13.476
ATOM     22  C   UNL d   1       8.681 -15.254  -8.705 -0.13 -0.01    -0.019    13.476
ATOM     23  C   UNL d   1       8.970 -14.814  -7.325 -0.09 +0.01    +0.045    13.476
ATOM     24  C   UNL d   1       7.424 -14.867  -9.028 -0.26 -0.01    -0.022    13.476
ATOM     25  C   UNL d   1      10.482 -14.581  -5.383 -0.08 -0.01    +0.049    13.476
ATOM     26  C   UNL d   1      11.486 -14.061  -3.401 -0.05 +0.01    -0.018    13.476
ATOM     27  C   UNL d   1      11.698 -14.252  -4.801 -0.11 -0.00    +0.003    13.476
ATOM     28  C   UNL d   1      10.136 -15.015  -6.692 -0.06 +0.01    +0.052    13.476
ATOM     29  C   UNL d   1       6.685 -15.068 -10.307 -0.30 +0.02    +0.046    13.476
ATOM     30  C   UNL d   1      12.521 -13.722  -2.383 -0.13 -0.02    +0.046    13.476
ATOM     31  H   UNL d   1       7.707 -13.688  -6.040 +0.06 +0.00    +0.166    13.476
ATOM     32  H   UNL d   1       8.552 -14.734  -4.490 +0.04 -0.01    +0.166    13.476
ATOM     33  C   UNL d   1       7.996 -12.883   0.508 -0.13 -0.00    +0.141    13.476
ATOM     34  C   UNL d   1       7.078 -11.775   0.948 -0.15 +0.02    +0.306    13.476
ATOM     35  O   UNL d   1       6.961 -10.683   0.418 -0.30 +0.03    -0.251    13.476
ATOM     36  O   UNL d   1       6.354 -12.103   2.033 -0.01 -0.10    -0.481    13.476
ATOM     37  H   UNL d   1       5.628 -12.663   1.684 +0.07 +0.06    +0.295    13.476
ATOM     38  C   UNL d   1      12.965 -14.164  -5.463 -0.11 -0.00    +0.017    13.476
ATOM     39  C   UNL d   1      13.214 -13.442  -6.566 -0.11 +0.00    +0.092    13.476
ATOM     40  C   UNL d   1      14.563 -13.423  -7.138 -0.04 +0.04    +0.330    13.476
ATOM     41  O   UNL d   1      14.971 -14.042  -8.102 -0.02 -0.03    -0.246    13.476
ATOM     42  O   UNL d   1      15.347 -12.586  -6.441 -0.58 -0.09    -0.477    13.476
ATOM     43  H   UNL d   1      16.252 -12.922  -6.605 +0.03 +0.04    +0.295    13.476
ATOM     44  C   UNL d   1       2.262 -12.177  -4.705 -0.24 +0.05    +0.141    13.476
ATOM     45  C   UNL d   1       1.946 -13.598  -5.088 -0.19 +0.13    +0.306    13.476
ATOM     46  O   UNL d   1       2.333 -14.606  -4.523 -0.08 -0.11    -0.251    13.476
ATOM     47  O   UNL d   1       1.176 -13.676  -6.189 -0.16 -0.22    -0.481    13.476
ATOM     48  H   UNL d   1       1.627 -13.106  -6.848 +0.18 +0.11    +0.295    13.476
ATOM     49  C   UNL d   1       9.645 -16.017  -9.566 -0.07 +0.02    +0.048    13.476
ATOM     50  C   UNL d   1       9.384 -17.522  -9.516 -0.07 +0.08    +0.125    13.476
ATOM     51  C   UNL d   1       9.075 -17.966  -8.114 -0.05 +0.27    +0.305    13.476
ATOM     52  O   UNL d   1       8.011 -17.885  -7.527 -0.42 -0.42    -0.251    13.476
ATOM     53  O   UNL d   1      10.154 -18.494  -7.503 -0.00 -0.25    -0.481    13.476
ATOM     54  H   UNL d   1      10.884 -18.349  -8.141 +0.01 +0.11    +0.295    13.476
TER
ENDMDL
MODEL       95
USER    Run = 95
USER    Cluster Rank = 43
USER    Number of conformations in this cluster = 2
USER  
USER    RMSD from reference structure       = 12.168 A
USER  
USER    Estimated Free Energy of Binding    =   -3.74 kcal/mol  [=(1)+(2)+(3)-(4)]
USER    Estimated Inhibition Constant, Ki   =    1.81 mM (millimolar)  [Temperature = 298.15 K]
USER    
USER    (1) Final Intermolecular Energy     =   -7.62 kcal/mol
USER        vdW + Hbond + desolv Energy     =   -7.41 kcal/mol
USER        Electrostatic Energy            =   -0.20 kcal/mol
USER    (2) Final Total Internal Energy     =   -4.32 kcal/mol
USER    (3) Torsional Free Energy           =   +3.88 kcal/mol
USER    (4) Unbound System's Energy  [=(2)] =   -4.32 kcal/mol
USER    
USER    
USER  
USER    DPF = D:/Protein_go_brrr/autodock/final/AncA/heme/dock.dpf
USER    NEWDPF move	heme_opt.pdbqt
USER    NEWDPF about	0.153000 0.018000 -0.028000
USER    NEWDPF tran0	7.857510 -7.457901 10.122971
USER    NEWDPF axisangle0	0.027174 -0.691673 -0.721699 -148.966529
USER    NEWDPF quaternion0	0.026183 -0.666463 -0.695395 -0.267520
USER    NEWDPF dihe0	156.35 145.77 127.82 18.98 -143.73 32.49 -41.03 176.14 13.46 -140.44 61.60 -74.41 123.94 
USER  
USER                              x       y       z    vdW   Elec        q     RMS 
ATOM      1  O   UNL d   1      12.972  -4.530   9.987 -0.06 -0.02    -0.289    12.168
ATOM      2  O   UNL d   1       9.117  -7.971   4.538 -0.15 -0.13    -0.289    12.168
ATOM      3  N   UNL d   1      10.045  -6.256  10.574 -0.15 -0.01    -0.247    12.168
ATOM      4  N   UNL d   1       9.122  -6.983   7.845 -0.11 -0.04    -0.247    12.168
ATOM      5  N   UNL d   1       6.573  -7.662   8.989 -0.05 +0.01    -0.354    12.168
ATOM      6  N   UNL d   1       7.532  -6.886  11.814 -0.12 +0.04    -0.354    12.168
ATOM      7  C   UNL d   1      11.524  -4.849  11.930 -0.13 +0.00    +0.084    12.168
ATOM      8  C   UNL d   1      10.826  -7.184   6.105 -0.14 +0.03    +0.084    12.168
ATOM      9  C   UNL d   1      10.455  -6.816   7.546 -0.11 +0.01    +0.058    12.168
ATOM     10  C   UNL d   1      10.258  -5.704  11.826 -0.18 +0.00    +0.058    12.168
ATOM     11  C   UNL d   1      12.000  -5.031  10.520 -0.10 +0.01    +0.193    12.168
ATOM     12  C   UNL d   1      11.032  -5.925   9.808 -0.13 +0.01    +0.109    12.168
ATOM     13  C   UNL d   1       9.449  -7.557   5.632 -0.13 +0.06    +0.193    12.168
ATOM     14  C   UNL d   1      11.202  -3.370  12.157 -0.19 +0.00    +0.026    12.168
ATOM     15  C   UNL d   1      11.346  -6.323   8.421 -0.10 +0.01    +0.055    12.168
ATOM     16  C   UNL d   1      11.719  -8.428   6.049 -0.07 +0.01    +0.026    12.168
ATOM     17  C   UNL d   1       8.507  -7.385   6.779 -0.18 +0.02    +0.109    12.168
ATOM     18  C   UNL d   1       9.487  -5.952  12.901 -0.16 +0.00    +0.050    12.168
ATOM     19  C   UNL d   1       8.347  -6.796  12.919 -0.17 -0.00    +0.045    12.168
ATOM     20  C   UNL d   1       6.258  -7.726   7.656 -0.23 +0.01    +0.045    12.168
ATOM     21  C   UNL d   1       7.070  -7.636   6.598 -0.27 +0.01    +0.057    12.168
ATOM     22  C   UNL d   1       4.343  -7.963   8.879 -0.32 -0.00    -0.019    12.168
ATOM     23  C   UNL d   1       5.481  -7.794   9.805 -0.23 +0.00    +0.045    12.168
ATOM     24  C   UNL d   1       4.809  -7.923   7.609 -0.23 -0.01    -0.022    12.168
ATOM     25  C   UNL d   1       6.444  -7.685  12.079 -0.17 -0.00    +0.049    12.168
ATOM     26  C   UNL d   1       7.795  -7.585  13.916 -0.10 +0.00    -0.018    12.168
ATOM     27  C   UNL d   1       6.604  -8.159  13.374 -0.10 -0.00    +0.003    12.168
ATOM     28  C   UNL d   1       5.381  -7.804  11.143 -0.25 -0.00    +0.052    12.168
ATOM     29  C   UNL d   1       4.051  -8.059   6.332 -0.45 +0.01    +0.046    12.168
ATOM     30  C   UNL d   1       8.338  -7.796  15.289 -0.04 +0.00    +0.046    12.168
ATOM     31  H   UNL d   1       7.536  -7.603   9.299 -0.08 -0.01    +0.166    12.168
ATOM     32  H   UNL d   1       7.706  -6.391  10.947 -0.38 -0.05    +0.166    12.168
ATOM     33  C   UNL d   1      12.578  -5.353  12.923 -0.04 +0.01    +0.141    12.168
ATOM     34  C   UNL d   1      13.097  -6.721  12.571 -0.00 +0.02    +0.306    12.168
ATOM     35  O   UNL d   1      12.631  -7.786  12.940 -0.01 -0.02    -0.251    12.168
ATOM     36  O   UNL d   1      14.175  -6.675  11.768 +0.00 -0.04    -0.481    12.168
ATOM     37  H   UNL d   1      14.090  -5.824  11.289 +0.02 +0.03    +0.295    12.168
ATOM     38  C   UNL d   1       5.714  -9.033  14.078 -0.04 +0.00    +0.017    12.168
ATOM     39  C   UNL d   1       4.377  -9.028  13.968 -0.04 +0.00    +0.092    12.168
ATOM     40  C   UNL d   1       3.578  -9.990  14.734 +0.01 +0.03    +0.330    12.168
ATOM     41  O   UNL d   1       3.838 -10.475  15.818 +0.00 -0.02    -0.246    12.168
ATOM     42  O   UNL d   1       2.452 -10.288  14.068 -0.00 -0.08    -0.477    12.168
ATOM     43  H   UNL d   1       2.217  -9.451  13.617 +0.08 -0.00    +0.295    12.168
ATOM     44  C   UNL d   1      11.407  -6.046   5.261 -0.16 +0.05    +0.141    12.168
ATOM     45  C   UNL d   1      11.974  -6.511   3.946 -0.14 +0.17    +0.306    12.168
ATOM     46  O   UNL d   1      13.096  -6.944   3.750 -0.15 -0.13    -0.251    12.168
ATOM     47  O   UNL d   1      11.098  -6.378   2.932 -0.54 -0.30    -0.481    12.168
ATOM     48  H   UNL d   1      10.289  -6.839   3.242 +0.16 +0.18    +0.295    12.168
ATOM     49  C   UNL d   1       2.918  -8.131   9.318 -0.42 +0.02    +0.048    12.168
ATOM     50  C   UNL d   1       2.572  -7.215  10.492 -0.14 +0.00    +0.125    12.168
ATOM     51  C   UNL d   1       2.196  -8.016  11.705 -0.18 -0.04    +0.305    12.168
ATOM     52  O   UNL d   1       2.032  -7.611  12.842 -0.23 +0.13    -0.251    12.168
ATOM     53  O   UNL d   1       2.052  -9.326  11.420 -0.38 -0.29    -0.481    12.168
ATOM     54  H   UNL d   1       1.529  -9.677  12.171 +0.07 +0.10    +0.295    12.168
TER
ENDMDL
MODEL       11
USER    Run = 11
USER    Cluster Rank = 44
USER    Number of conformations in this cluster = 1
USER  
USER    RMSD from reference structure       = 17.026 A
USER  
USER    Estimated Free Energy of Binding    =   -3.70 kcal/mol  [=(1)+(2)+(3)-(4)]
USER    Estimated Inhibition Constant, Ki   =    1.93 mM (millimolar)  [Temperature = 298.15 K]
USER    
USER    (1) Final Intermolecular Energy     =   -7.58 kcal/mol
USER        vdW + Hbond + desolv Energy     =   -7.22 kcal/mol
USER        Electrostatic Energy            =   -0.36 kcal/mol
USER    (2) Final Total Internal Energy     =   -2.67 kcal/mol
USER    (3) Torsional Free Energy           =   +3.88 kcal/mol
USER    (4) Unbound System's Energy  [=(2)] =   -2.67 kcal/mol
USER    
USER    
USER  
USER    DPF = D:/Protein_go_brrr/autodock/final/AncA/heme/dock.dpf
USER    NEWDPF move	heme_opt.pdbqt
USER    NEWDPF about	0.153000 0.018000 -0.028000
USER    NEWDPF tran0	-13.138457 -14.845284 6.058782
USER    NEWDPF axisangle0	-0.789322 -0.561528 0.248309 91.446953
USER    NEWDPF quaternion0	-0.565138 -0.402042 0.177784 0.698122
USER    NEWDPF dihe0	139.57 100.20 109.70 -136.39 -138.45 -129.62 -45.54 -35.05 14.61 -129.48 99.07 -68.14 -180.00 
USER  
USER                              x       y       z    vdW   Elec        q     RMS 
ATOM      1  O   UNL d   1     -15.161 -16.103  11.452 -0.01 -0.02    -0.289    17.026
ATOM      2  O   UNL d   1     -18.743 -15.366   4.893 -0.08 -0.01    -0.289    17.026
ATOM      3  N   UNL d   1     -13.551 -15.212   8.534 -0.08 -0.04    -0.247    17.026
ATOM      4  N   UNL d   1     -15.677 -15.472   6.475 -0.11 -0.02    -0.247    17.026
ATOM      5  N   UNL d   1     -13.625 -15.306   4.468 -0.13 -0.08    -0.354    17.026
ATOM      6  N   UNL d   1     -11.424 -15.057   6.612 -0.07 -0.14    -0.354    17.026
ATOM      7  C   UNL d   1     -12.827 -15.754  10.812 -0.05 +0.01    +0.084    17.026
ATOM      8  C   UNL d   1     -17.991 -15.215   7.218 -0.10 +0.00    +0.084    17.026
ATOM      9  C   UNL d   1     -16.502 -15.313   7.566 -0.14 +0.00    +0.058    17.026
ATOM     10  C   UNL d   1     -12.463 -15.357   9.379 -0.12 +0.01    +0.058    17.026
ATOM     11  C   UNL d   1     -14.315 -15.791  10.633 -0.03 +0.02    +0.193    17.026
ATOM     12  C   UNL d   1     -14.630 -15.419   9.217 -0.10 +0.01    +0.109    17.026
ATOM     13  C   UNL d   1     -17.862 -15.386   5.731 -0.09 +0.00    +0.193    17.026
ATOM     14  C   UNL d   1     -12.336 -17.162  11.160 -0.02 +0.00    +0.026    17.026
ATOM     15  C   UNL d   1     -16.049 -15.297   8.829 -0.13 +0.00    +0.055    17.026
ATOM     16  C   UNL d   1     -18.551 -13.819   7.507 -0.19 +0.00    +0.026    17.026
ATOM     17  C   UNL d   1     -16.410 -15.539   5.410 -0.15 +0.00    +0.109    17.026
ATOM     18  C   UNL d   1     -11.192 -15.089   9.024 -0.18 +0.01    +0.050    17.026
ATOM     19  C   UNL d   1     -10.773 -14.634   7.748 -0.15 +0.02    +0.045    17.026
ATOM     20  C   UNL d   1     -14.692 -15.663   3.685 -0.23 +0.01    +0.045    17.026
ATOM     21  C   UNL d   1     -15.981 -15.768   4.023 -0.20 +0.00    +0.057    17.026
ATOM     22  C   UNL d   1     -12.796 -15.701   2.411 -0.08 -0.00    -0.019    17.026
ATOM     23  C   UNL d   1     -12.437 -15.302   3.787 -0.21 +0.01    +0.045    17.026
ATOM     24  C   UNL d   1     -14.132 -15.913   2.357 -0.14 -0.00    -0.022    17.026
ATOM     25  C   UNL d   1     -10.799 -14.569   5.487 -0.22 +0.02    +0.049    17.026
ATOM     26  C   UNL d   1      -9.721 -13.822   7.355 -0.27 -0.01    -0.018    17.026
ATOM     27  C   UNL d   1      -9.754 -13.768   5.927 -0.32 +0.00    +0.003    17.026
ATOM     28  C   UNL d   1     -11.194 -14.996   4.190 -0.21 +0.02    +0.052    17.026
ATOM     29  C   UNL d   1     -14.966 -16.318   1.190 -0.16 +0.01    +0.046    17.026
ATOM     30  C   UNL d   1      -8.744 -13.134   8.248 -0.22 +0.01    +0.046    17.026
ATOM     31  H   UNL d   1     -13.754 -15.005   5.428 +0.05 +0.05    +0.166    17.026
ATOM     32  H   UNL d   1     -12.226 -15.675   6.622 +0.04 +0.06    +0.166    17.026
ATOM     33  C   UNL d   1     -12.440 -14.740  11.894 -0.11 +0.02    +0.141    17.026
ATOM     34  C   UNL d   1     -13.139 -13.418  11.725 -0.14 +0.05    +0.306    17.026
ATOM     35  O   UNL d   1     -12.784 -12.502  11.003 -0.30 -0.06    -0.251    17.026
ATOM     36  O   UNL d   1     -14.252 -13.321  12.473 -0.02 -0.04    -0.481    17.026
ATOM     37  H   UNL d   1     -14.696 -14.190  12.370 +0.06 +0.02    +0.295    17.026
ATOM     38  C   UNL d   1      -8.829 -13.047   5.106 -0.45 +0.01    +0.017    17.026
ATOM     39  C   UNL d   1      -8.443 -13.407   3.873 -0.30 +0.08    +0.092    17.026
ATOM     40  C   UNL d   1      -7.500 -12.569   3.128 -0.24 +0.44    +0.330    17.026
ATOM     41  O   UNL d   1      -7.595 -12.182   1.979 -0.91 -0.31    -0.246    17.026
ATOM     42  O   UNL d   1      -6.455 -12.247   3.907 -0.77 -0.74    -0.477    17.026
ATOM     43  H   UNL d   1      -6.791 -11.511   4.459 +0.18 +0.23    +0.295    17.026
ATOM     44  C   UNL d   1     -18.883 -16.306   7.820 -0.02 +0.01    +0.141    17.026
ATOM     45  C   UNL d   1     -20.331 -16.173   7.428 +0.00 +0.02    +0.306    17.026
ATOM     46  O   UNL d   1     -21.188 -15.541   8.020 -0.01 -0.02    -0.251    17.026
ATOM     47  O   UNL d   1     -20.630 -16.871   6.318 +0.01 -0.03    -0.481    17.026
ATOM     48  H   UNL d   1     -20.192 -16.380   5.591 +0.03 +0.02    +0.295    17.026
ATOM     49  C   UNL d   1     -11.807 -15.853   1.293 -0.13 +0.02    +0.048    17.026
ATOM     50  C   UNL d   1     -11.368 -17.306   1.115 -0.03 +0.04    +0.125    17.026
ATOM     51  C   UNL d   1     -10.319 -17.677   2.125 +0.01 +0.12    +0.305    17.026
ATOM     52  O   UNL d   1      -9.375 -17.003   2.497 -0.00 -0.14    -0.251    17.026
ATOM     53  O   UNL d   1     -10.511 -18.916   2.620 +0.01 -0.15    -0.481    17.026
ATOM     54  H   UNL d   1     -10.737 -19.454   1.832 +0.00 +0.09    +0.295    17.026
TER
ENDMDL
MODEL       29
USER    Run = 29
USER    Cluster Rank = 45
USER    Number of conformations in this cluster = 1
USER  
USER    RMSD from reference structure       = 13.058 A
USER  
USER    Estimated Free Energy of Binding    =   -3.64 kcal/mol  [=(1)+(2)+(3)-(4)]
USER    Estimated Inhibition Constant, Ki   =    2.15 mM (millimolar)  [Temperature = 298.15 K]
USER    
USER    (1) Final Intermolecular Energy     =   -7.52 kcal/mol
USER        vdW + Hbond + desolv Energy     =   -7.48 kcal/mol
USER        Electrostatic Energy            =   -0.04 kcal/mol
USER    (2) Final Total Internal Energy     =   -4.17 kcal/mol
USER    (3) Torsional Free Energy           =   +3.88 kcal/mol
USER    (4) Unbound System's Energy  [=(2)] =   -4.17 kcal/mol
USER    
USER    
USER  
USER    DPF = D:/Protein_go_brrr/autodock/final/AncA/heme/dock.dpf
USER    NEWDPF move	heme_opt.pdbqt
USER    NEWDPF about	0.153000 0.018000 -0.028000
USER    NEWDPF tran0	15.703553 0.323595 6.921298
USER    NEWDPF axisangle0	0.746128 0.579306 -0.328173 126.306297
USER    NEWDPF quaternion0	0.665708 0.516866 -0.292802 0.451607
USER    NEWDPF dihe0	-144.14 -121.58 108.77 -17.27 36.97 27.03 -87.09 161.83 155.57 -14.49 -59.66 -84.74 0.87 
USER  
USER                              x       y       z    vdW   Elec        q     RMS 
ATOM      1  O   UNL d   1      14.213  -4.926   4.690 -0.07 -0.07    -0.289    13.058
ATOM      2  O   UNL d   1      14.221  -2.399  11.761 -0.04 -0.01    -0.289    13.058
ATOM      3  N   UNL d   1      15.314  -1.771   5.545 -0.10 -0.04    -0.247    13.058
ATOM      4  N   UNL d   1      14.663  -1.581   8.438 -0.07 -0.03    -0.247    13.058
ATOM      5  N   UNL d   1      15.140   1.249   8.265 -0.10 -0.05    -0.354    13.058
ATOM      6  N   UNL d   1      15.795   1.046   5.260 -0.12 -0.03    -0.354    13.058
ATOM      7  C   UNL d   1      14.941  -2.959   3.434 -0.20 +0.02    +0.084    13.058
ATOM      8  C   UNL d   1      14.536  -3.673   9.695 -0.05 +0.01    +0.084    13.058
ATOM      9  C   UNL d   1      14.698  -2.955   8.351 -0.10 +0.01    +0.058    13.058
ATOM     10  C   UNL d   1      15.370  -1.683   4.164 -0.24 +0.01    +0.058    13.058
ATOM     11  C   UNL d   1      14.650  -3.790   4.647 -0.09 +0.04    +0.193    13.058
ATOM     12  C   UNL d   1      14.939  -2.967   5.864 -0.11 +0.02    +0.109    13.058
ATOM     13  C   UNL d   1      14.365  -2.453  10.556 -0.06 +0.01    +0.193    13.058
ATOM     14  C   UNL d   1      13.643  -2.761   2.646 -0.22 +0.01    +0.026    13.058
ATOM     15  C   UNL d   1      14.812  -3.612   7.187 -0.10 +0.01    +0.055    13.058
ATOM     16  C   UNL d   1      15.822  -4.393  10.112 -0.01 +0.00    +0.026    13.058
ATOM     17  C   UNL d   1      14.454  -1.251   9.672 -0.10 +0.01    +0.109    13.058
ATOM     18  C   UNL d   1      15.844  -0.615   3.495 -0.25 +0.02    +0.050    13.058
ATOM     19  C   UNL d   1      16.341   0.573   4.088 -0.17 +0.01    +0.045    13.058
ATOM     20  C   UNL d   1      14.594   1.178   9.521 -0.19 +0.01    +0.045    13.058
ATOM     21  C   UNL d   1      14.278   0.095  10.237 -0.14 +0.00    +0.057    13.058
ATOM     22  C   UNL d   1      14.856   3.375   8.952 -0.26 -0.00    -0.019    13.058
ATOM     23  C   UNL d   1      15.334   2.535   7.836 -0.26 +0.01    +0.045    13.058
ATOM     24  C   UNL d   1      14.421   2.566   9.947 -0.24 -0.00    -0.022    13.058
ATOM     25  C   UNL d   1      16.363   2.250   5.606 -0.24 +0.01    +0.049    13.058
ATOM     26  C   UNL d   1      17.313   1.474   3.682 -0.23 -0.01    -0.018    13.058
ATOM     27  C   UNL d   1      17.336   2.521   4.654 -0.25 +0.00    +0.003    13.058
ATOM     28  C   UNL d   1      15.853   3.010   6.693 -0.19 +0.01    +0.052    13.058
ATOM     29  C   UNL d   1      13.860   2.942  11.276 -0.20 +0.01    +0.046    13.058
ATOM     30  C   UNL d   1      18.172   1.370   2.467 -0.22 +0.02    +0.046    13.058
ATOM     31  H   UNL d   1      15.431   0.413   7.770 +0.05 +0.03    +0.166    13.058
ATOM     32  H   UNL d   1      15.050   0.576   5.760 -0.07 +0.01    +0.166    13.058
ATOM     33  C   UNL d   1      16.024  -3.621   2.576 -0.13 +0.05    +0.141    13.058
ATOM     34  C   UNL d   1      15.452  -4.487   1.486 -0.14 +0.12    +0.306    13.058
ATOM     35  O   UNL d   1      15.186  -4.133   0.350 -0.28 -0.12    -0.251    13.058
ATOM     36  O   UNL d   1      15.246  -5.754   1.886 -0.04 -0.18    -0.481    13.058
ATOM     37  H   UNL d   1      15.003  -5.678   2.833 +0.09 +0.10    +0.295    13.058
ATOM     38  C   UNL d   1      18.190   3.669   4.610 -0.21 +0.00    +0.017    13.058
ATOM     39  C   UNL d   1      17.791   4.938   4.789 -0.21 +0.02    +0.092    13.058
ATOM     40  C   UNL d   1      18.772   6.026   4.737 -0.09 +0.09    +0.330    13.058
ATOM     41  O   UNL d   1      19.841   6.035   4.158 -0.66 -0.10    -0.246    13.058
ATOM     42  O   UNL d   1      18.327   7.082   5.435 -0.04 -0.10    -0.477    13.058
ATOM     43  H   UNL d   1      18.191   6.726   6.337 +0.05 +0.05    +0.295    13.058
ATOM     44  C   UNL d   1      13.320  -4.599   9.807 -0.08 +0.01    +0.141    13.058
ATOM     45  C   UNL d   1      12.007  -3.869   9.710 -0.14 +0.01    +0.306    13.058
ATOM     46  O   UNL d   1      11.055  -3.983  10.462 -0.25 -0.01    -0.251    13.058
ATOM     47  O   UNL d   1      11.952  -3.048   8.645 -0.06 +0.00    -0.481    13.058
ATOM     48  H   UNL d   1      12.548  -2.304   8.875 -0.38 -0.04    +0.295    13.058
ATOM     49  C   UNL d   1      14.856   4.876   8.936 -0.24 +0.02    +0.048    13.058
ATOM     50  C   UNL d   1      16.222   5.449   9.313 -0.08 +0.03    +0.125    13.058
ATOM     51  C   UNL d   1      16.764   6.312   8.209 -0.03 +0.07    +0.305    13.058
ATOM     52  O   UNL d   1      17.574   7.217   8.304 -0.01 -0.04    -0.251    13.058
ATOM     53  O   UNL d   1      16.235   5.990   7.012 -0.02 -0.15    -0.481    13.058
ATOM     54  H   UNL d   1      16.424   6.771   6.451 +0.09 +0.09    +0.295    13.058
TER
ENDMDL
MODEL       47
USER    Run = 47
USER    Cluster Rank = 46
USER    Number of conformations in this cluster = 2
USER  
USER    RMSD from reference structure       = 15.687 A
USER  
USER    Estimated Free Energy of Binding    =   -3.59 kcal/mol  [=(1)+(2)+(3)-(4)]
USER    Estimated Inhibition Constant, Ki   =    2.34 mM (millimolar)  [Temperature = 298.15 K]
USER    
USER    (1) Final Intermolecular Energy     =   -7.47 kcal/mol
USER        vdW + Hbond + desolv Energy     =   -7.33 kcal/mol
USER        Electrostatic Energy            =   -0.14 kcal/mol
USER    (2) Final Total Internal Energy     =   -3.28 kcal/mol
USER    (3) Torsional Free Energy           =   +3.88 kcal/mol
USER    (4) Unbound System's Energy  [=(2)] =   -3.28 kcal/mol
USER    
USER    
USER  
USER    DPF = D:/Protein_go_brrr/autodock/final/AncA/heme/dock.dpf
USER    NEWDPF move	heme_opt.pdbqt
USER    NEWDPF about	0.153000 0.018000 -0.028000
USER    NEWDPF tran0	3.396120 15.870073 8.962390
USER    NEWDPF axisangle0	-0.881314 -0.413507 -0.228686 90.028212
USER    NEWDPF quaternion0	-0.623337 -0.292465 -0.161745 0.706933
USER    NEWDPF dihe0	133.58 -167.68 -91.83 86.00 -133.53 44.04 167.67 49.82 26.01 -106.61 60.64 -106.91 143.49 
USER  
USER                              x       y       z    vdW   Elec        q     RMS 
ATOM      1  O   UNL d   1      -0.333  12.319  11.833 -0.18 +0.05    -0.289    15.687
ATOM      2  O   UNL d   1      -0.297  14.709   4.714 -0.07 +0.00    -0.289    15.687
ATOM      3  N   UNL d   1       2.015  14.534  10.618 -0.12 +0.01    -0.247    15.687
ATOM      4  N   UNL d   1       1.415  14.639   7.710 -0.14 +0.02    -0.247    15.687
ATOM      5  N   UNL d   1       3.947  15.946   7.328 -0.08 +0.05    -0.354    15.687
ATOM      6  N   UNL d   1       4.570  15.816  10.344 -0.01 -0.01    -0.354    15.687
ATOM      7  C   UNL d   1       1.696  13.340  12.735 -0.14 -0.01    +0.084    15.687
ATOM      8  C   UNL d   1      -0.875  14.132   7.022 -0.19 -0.00    +0.084    15.687
ATOM      9  C   UNL d   1       0.176  14.212   8.134 -0.22 -0.00    +0.058    15.687
ATOM     10  C   UNL d   1       2.526  14.307  11.885 -0.15 -0.00    +0.058    15.687
ATOM     11  C   UNL d   1       0.615  13.076  11.731 -0.17 -0.03    +0.193    15.687
ATOM     12  C   UNL d   1       0.908  13.877  10.500 -0.22 -0.01    +0.109    15.687
ATOM     13  C   UNL d   1       0.007  14.556   5.881 -0.09 -0.00    +0.193    15.687
ATOM     14  C   UNL d   1       2.444  12.034  13.014 -0.22 -0.01    +0.026    15.687
ATOM     15  C   UNL d   1      -0.078  13.847   9.400 -0.27 -0.00    +0.055    15.687
ATOM     16  C   UNL d   1      -1.978  15.177   7.207 -0.08 +0.00    +0.026    15.687
ATOM     17  C   UNL d   1       1.370  14.827   6.430 -0.16 -0.01    +0.109    15.687
ATOM     18  C   UNL d   1       3.605  14.936  12.387 -0.14 +0.00    +0.050    15.687
ATOM     19  C   UNL d   1       4.383  15.907  11.705 -0.14 +0.00    +0.045    15.687
ATOM     20  C   UNL d   1       3.609  15.701   6.023 -0.22 -0.01    +0.045    15.687
ATOM     21  C   UNL d   1       2.463  15.222   5.529 -0.22 -0.01    +0.057    15.687
ATOM     22  C   UNL d   1       5.741  16.519   6.093 -0.30 +0.00    -0.019    15.687
ATOM     23  C   UNL d   1       5.215  16.442   7.471 -0.11 -0.01    +0.045    15.687
ATOM     24  C   UNL d   1       4.785  16.080   5.240 -0.29 +0.01    -0.022    15.687
ATOM     25  C   UNL d   1       5.425  16.802   9.907 -0.16 -0.00    +0.049    15.687
ATOM     26  C   UNL d   1       5.104  17.001  12.158 -0.10 -0.00    -0.018    15.687
ATOM     27  C   UNL d   1       5.744  17.573  11.016 -0.12 -0.00    +0.003    15.687
ATOM     28  C   UNL d   1       5.894  16.818   8.566 -0.17 -0.01    +0.052    15.687
ATOM     29  C   UNL d   1       4.836  15.980   3.754 -0.38 -0.01    +0.046    15.687
ATOM     30  C   UNL d   1       5.193  17.487  13.565 -0.04 +0.00    +0.046    15.687
ATOM     31  H   UNL d   1       3.270  15.836   8.076 +0.05 -0.01    +0.166    15.687
ATOM     32  H   UNL d   1       4.159  15.091   9.769 +0.08 +0.02    +0.166    15.687
ATOM     33  C   UNL d   1       1.105  13.935  14.018 -0.04 -0.01    +0.141    15.687
ATOM     34  C   UNL d   1      -0.053  14.858  13.748 -0.01 -0.01    +0.306    15.687
ATOM     35  O   UNL d   1       0.021  16.016  13.375 -0.01 +0.00    -0.251    15.687
ATOM     36  O   UNL d   1      -1.244  14.270  13.960 +0.00 +0.01    -0.481    15.687
ATOM     37  H   UNL d   1      -1.187  13.417  13.479 +0.04 -0.01    +0.295    15.687
ATOM     38  C   UNL d   1       6.604  18.718  11.040 -0.07 -0.00    +0.017    15.687
ATOM     39  C   UNL d   1       7.930  18.694  10.834 -0.08 -0.00    +0.092    15.687
ATOM     40  C   UNL d   1       8.696  19.943  10.867 -0.01 -0.01    +0.330    15.687
ATOM     41  O   UNL d   1       8.582  20.865  11.653 -0.00 +0.00    -0.246    15.687
ATOM     42  O   UNL d   1       9.603  19.955   9.878 +0.00 +0.02    -0.477    15.687
ATOM     43  H   UNL d   1       9.339  19.203   9.309 +0.04 -0.02    +0.295    15.687
ATOM     44  C   UNL d   1      -1.465  12.740   6.770 -0.28 +0.00    +0.141    15.687
ATOM     45  C   UNL d   1      -2.022  12.573   5.382 -0.23 +0.01    +0.306    15.687
ATOM     46  O   UNL d   1      -1.705  11.722   4.569 -0.30 -0.01    -0.251    15.687
ATOM     47  O   UNL d   1      -2.937  13.511   5.077 -0.05 -0.03    -0.481    15.687
ATOM     48  H   UNL d   1      -2.415  14.261   4.720 +0.07 +0.01    +0.295    15.687
ATOM     49  C   UNL d   1       7.120  16.996   5.743 -0.37 -0.01    +0.048    15.687
ATOM     50  C   UNL d   1       8.202  16.135   6.394 -0.40 -0.03    +0.125    15.687
ATOM     51  C   UNL d   1       9.050  16.953   7.326 -0.21 -0.07    +0.305    15.687
ATOM     52  O   UNL d   1       8.675  17.784   8.135 -0.14 +0.03    -0.251    15.687
ATOM     53  O   UNL d   1      10.363  16.686   7.180 -0.08 +0.14    -0.481    15.687
ATOM     54  H   UNL d   1      10.545  16.007   7.863 -0.46 -0.20    +0.295    15.687
TER
ENDMDL
MODEL       38
USER    Run = 38
USER    Cluster Rank = 47
USER    Number of conformations in this cluster = 1
USER  
USER    RMSD from reference structure       = 12.103 A
USER  
USER    Estimated Free Energy of Binding    =   -3.43 kcal/mol  [=(1)+(2)+(3)-(4)]
USER    Estimated Inhibition Constant, Ki   =    3.06 mM (millimolar)  [Temperature = 298.15 K]
USER    
USER    (1) Final Intermolecular Energy     =   -7.31 kcal/mol
USER        vdW + Hbond + desolv Energy     =   -6.98 kcal/mol
USER        Electrostatic Energy            =   -0.33 kcal/mol
USER    (2) Final Total Internal Energy     =   -3.77 kcal/mol
USER    (3) Torsional Free Energy           =   +3.88 kcal/mol
USER    (4) Unbound System's Energy  [=(2)] =   -3.77 kcal/mol
USER    
USER    
USER  
USER    DPF = D:/Protein_go_brrr/autodock/final/AncA/heme/dock.dpf
USER    NEWDPF move	heme_opt.pdbqt
USER    NEWDPF about	0.153000 0.018000 -0.028000
USER    NEWDPF tran0	-11.606087 10.097876 -3.898572
USER    NEWDPF axisangle0	-0.550627 -0.687222 -0.473851 -119.916579
USER    NEWDPF quaternion0	-0.476657 -0.594901 -0.410195 -0.500630
USER    NEWDPF dihe0	106.65 -165.14 -64.36 -46.52 -142.02 -61.44 4.83 2.95 49.63 139.02 -82.67 22.22 -7.37 
USER  
USER                              x       y       z    vdW   Elec        q     RMS 
ATOM      1  O   UNL d   1      -9.838  10.199  -9.522 -0.03 -0.04    -0.289    12.103
ATOM      2  O   UNL d   1     -15.904   7.145  -6.316 -0.15 -0.00    -0.289    12.103
ATOM      3  N   UNL d   1     -10.393  10.279  -6.119 -0.11 +0.05    -0.247    12.103
ATOM      4  N   UNL d   1     -13.117   9.124  -5.843 -0.04 +0.00    -0.247    12.103
ATOM      5  N   UNL d   1     -13.156  10.098  -3.138 -0.10 +0.03    -0.354    12.103
ATOM      6  N   UNL d   1     -10.337  11.310  -3.439 -0.08 +0.08    -0.354    12.103
ATOM      7  C   UNL d   1      -8.727  11.263  -7.623 -0.05 -0.00    +0.084    12.103
ATOM      8  C   UNL d   1     -13.863   7.590  -7.592 -0.19 +0.01    +0.084    12.103
ATOM      9  C   UNL d   1     -12.807   8.567  -7.063 -0.18 +0.00    +0.058    12.103
ATOM     10  C   UNL d   1      -9.268  11.083  -6.202 -0.11 -0.01    +0.058    12.103
ATOM     11  C   UNL d   1      -9.734  10.404  -8.326 -0.04 +0.01    +0.193    12.103
ATOM     12  C   UNL d   1     -10.674   9.844  -7.304 -0.13 -0.01    +0.109    12.103
ATOM     13  C   UNL d   1     -14.846   7.725  -6.464 -0.16 +0.01    +0.193    12.103
ATOM     14  C   UNL d   1      -8.875  12.705  -8.115 -0.01 +0.00    +0.026    12.103
ATOM     15  C   UNL d   1     -11.703   8.887  -7.756 -0.20 +0.00    +0.055    12.103
ATOM     16  C   UNL d   1     -13.341   6.150  -7.621 -0.37 +0.00    +0.026    12.103
ATOM     17  C   UNL d   1     -14.279   8.690  -5.474 -0.14 +0.00    +0.109    12.103
ATOM     18  C   UNL d   1      -8.630  11.599  -5.135 -0.12 -0.01    +0.050    12.103
ATOM     19  C   UNL d   1      -9.008  11.414  -3.781 -0.09 -0.01    +0.045    12.103
ATOM     20  C   UNL d   1     -14.465   9.714  -3.269 -0.22 -0.00    +0.045    12.103
ATOM     21  C   UNL d   1     -15.048   9.054  -4.275 -0.24 -0.00    +0.057    12.103
ATOM     22  C   UNL d   1     -14.210  10.798  -1.275 -0.19 +0.00    -0.019    12.103
ATOM     23  C   UNL d   1     -12.905  10.761  -1.966 -0.16 -0.00    +0.045    12.103
ATOM     24  C   UNL d   1     -15.128  10.176  -2.050 -0.19 +0.00    -0.022    12.103
ATOM     25  C   UNL d   1     -10.480  11.228  -2.073 -0.16 -0.01    +0.049    12.103
ATOM     26  C   UNL d   1      -8.266  11.361  -2.611 -0.14 +0.00    -0.018    12.103
ATOM     27  C   UNL d   1      -9.200  11.223  -1.538 -0.17 -0.00    +0.003    12.103
ATOM     28  C   UNL d   1     -11.767  11.269  -1.471 -0.08 -0.00    +0.052    12.103
ATOM     29  C   UNL d   1     -16.577   9.948  -1.780 -0.16 -0.00    +0.046    12.103
ATOM     30  C   UNL d   1      -6.781  11.431  -2.495 -0.17 -0.01    +0.046    12.103
ATOM     31  H   UNL d   1     -12.458   9.830  -3.823 +0.05 -0.02    +0.166    12.103
ATOM     32  H   UNL d   1     -11.093  11.335  -4.113 +0.02 -0.03    +0.166    12.103
ATOM     33  C   UNL d   1      -7.309  10.732  -7.858 -0.12 +0.01    +0.141    12.103
ATOM     34  C   UNL d   1      -7.299   9.357  -8.468 -0.10 +0.11    +0.306    12.103
ATOM     35  O   UNL d   1      -7.333   8.299  -7.862 -0.29 +0.04    -0.251    12.103
ATOM     36  O   UNL d   1      -7.251   9.386  -9.812 -0.32 -0.59    -0.481    12.103
ATOM     37  H   UNL d   1      -8.160   9.632 -10.086 +0.07 +0.17    +0.295    12.103
ATOM     38  C   UNL d   1      -8.856  11.146  -0.150 -0.18 -0.00    +0.017    12.103
ATOM     39  C   UNL d   1      -9.158  10.125   0.667 -0.13 +0.01    +0.092    12.103
ATOM     40  C   UNL d   1      -8.731  10.161   2.069 -0.12 +0.05    +0.330    12.103
ATOM     41  O   UNL d   1      -7.594  10.173   2.499 -0.16 -0.05    -0.246    12.103
ATOM     42  O   UNL d   1      -9.802  10.191   2.877 -0.05 -0.06    -0.477    12.103
ATOM     43  H   UNL d   1     -10.545   9.937   2.291 -0.11 +0.01    +0.295    12.103
ATOM     44  C   UNL d   1     -14.506   7.973  -8.930 -0.07 +0.01    +0.141    12.103
ATOM     45  C   UNL d   1     -13.762   7.434 -10.122 -0.07 +0.02    +0.306    12.103
ATOM     46  O   UNL d   1     -12.552   7.368 -10.255 -0.20 -0.02    -0.251    12.103
ATOM     47  O   UNL d   1     -14.587   7.031 -11.105 -0.01 -0.01    -0.481    12.103
ATOM     48  H   UNL d   1     -14.403   7.642 -11.850 +0.03 +0.01    +0.295    12.103
ATOM     49  C   UNL d   1     -14.437  11.445   0.060 -0.14 -0.00    +0.048    12.103
ATOM     50  C   UNL d   1     -14.237  10.461   1.211 -0.20 +0.00    +0.125    12.103
ATOM     51  C   UNL d   1     -12.866  10.605   1.808 -0.04 +0.00    +0.305    12.103
ATOM     52  O   UNL d   1     -11.967  11.339   1.436 -0.10 -0.01    -0.251    12.103
ATOM     53  O   UNL d   1     -12.686   9.786   2.864 -0.10 +0.04    -0.481    12.103
ATOM     54  H   UNL d   1     -11.814   9.372   2.698 -0.45 -0.09    +0.295    12.103
TER
ENDMDL
MODEL       20
USER    Run = 20
USER    Cluster Rank = 48
USER    Number of conformations in this cluster = 1
USER  
USER    RMSD from reference structure       = 14.026 A
USER  
USER    Estimated Free Energy of Binding    =   -3.35 kcal/mol  [=(1)+(2)+(3)-(4)]
USER    Estimated Inhibition Constant, Ki   =    3.52 mM (millimolar)  [Temperature = 298.15 K]
USER    
USER    (1) Final Intermolecular Energy     =   -7.22 kcal/mol
USER        vdW + Hbond + desolv Energy     =   -6.95 kcal/mol
USER        Electrostatic Energy            =   -0.28 kcal/mol
USER    (2) Final Total Internal Energy     =   -3.26 kcal/mol
USER    (3) Torsional Free Energy           =   +3.88 kcal/mol
USER    (4) Unbound System's Energy  [=(2)] =   -3.26 kcal/mol
USER    
USER    
USER  
USER    DPF = D:/Protein_go_brrr/autodock/final/AncA/heme/dock.dpf
USER    NEWDPF move	heme_opt.pdbqt
USER    NEWDPF about	0.153000 0.018000 -0.028000
USER    NEWDPF tran0	-9.283193 1.100175 13.574854
USER    NEWDPF axisangle0	-0.584107 -0.796488 0.156286 150.437420
USER    NEWDPF quaternion0	-0.564777 -0.770130 0.151114 0.255130
USER    NEWDPF dihe0	48.19 179.42 -123.85 -1.32 -177.24 -14.28 85.95 172.01 90.96 111.29 57.61 -54.10 128.15 
USER  
USER                              x       y       z    vdW   Elec        q     RMS 
ATOM      1  O   UNL d   1      -6.239  -3.151  16.297 -0.45 -0.31    -0.289    14.026
ATOM      2  O   UNL d   1     -13.607  -1.717  16.105 -0.04 +0.02    -0.289    14.026
ATOM      3  N   UNL d   1      -7.569  -0.427  14.654 -0.12 -0.03    -0.247    14.026
ATOM      4  N   UNL d   1     -10.500  -0.863  14.870 -0.12 -0.03    -0.247    14.026
ATOM      5  N   UNL d   1     -10.857   1.172  12.870 -0.11 -0.06    -0.354    14.026
ATOM      6  N   UNL d   1      -7.814   1.604  12.638 +0.01 -0.01    -0.354    14.026
ATOM      7  C   UNL d   1      -5.331  -1.408  14.843 -0.18 +0.03    +0.084    14.026
ATOM      8  C   UNL d   1     -11.297  -2.189  16.761 -0.08 +0.01    +0.084    14.026
ATOM      9  C   UNL d   1     -10.124  -1.632  15.948 -0.05 +0.01    +0.058    14.026
ATOM     10  C   UNL d   1      -6.244  -0.322  14.267 -0.17 +0.01    +0.058    14.026
ATOM     11  C   UNL d   1      -6.373  -2.136  15.640 -0.13 +0.10    +0.193    14.026
ATOM     12  C   UNL d   1      -7.681  -1.429  15.464 -0.15 +0.03    +0.109    14.026
ATOM     13  C   UNL d   1     -12.409  -1.624  15.923 -0.08 -0.00    +0.193    14.026
ATOM     14  C   UNL d   1      -4.796  -2.345  13.757 -0.33 +0.01    +0.026    14.026
ATOM     15  C   UNL d   1      -8.843  -1.915  16.234 -0.08 +0.01    +0.055    14.026
ATOM     16  C   UNL d   1     -11.366  -1.565  18.158 -0.02 +0.00    +0.026    14.026
ATOM     17  C   UNL d   1     -11.793  -0.848  14.805 -0.18 +0.01    +0.109    14.026
ATOM     18  C   UNL d   1      -5.752   0.688  13.525 -0.21 -0.00    +0.050    14.026
ATOM     19  C   UNL d   1      -6.503   1.780  13.021 -0.18 -0.01    +0.045    14.026
ATOM     20  C   UNL d   1     -12.135   0.680  12.936 -0.22 +0.01    +0.045    14.026
ATOM     21  C   UNL d   1     -12.646  -0.212  13.791 -0.17 +0.00    +0.057    14.026
ATOM     22  C   UNL d   1     -12.007   2.173  11.212 -0.20 -0.00    -0.019    14.026
ATOM     23  C   UNL d   1     -10.683   2.080  11.860 -0.17 +0.01    +0.045    14.026
ATOM     24  C   UNL d   1     -12.862   1.343  11.854 -0.18 -0.00    -0.022    14.026
ATOM     25  C   UNL d   1      -8.320   2.764  12.099 -0.16 +0.00    +0.049    14.026
ATOM     26  C   UNL d   1      -6.160   3.098  12.758 -0.18 +0.01    -0.018    14.026
ATOM     27  C   UNL d   1      -7.317   3.719  12.194 -0.18 -0.00    +0.003    14.026
ATOM     28  C   UNL d   1      -9.604   2.785  11.489 -0.19 +0.01    +0.052    14.026
ATOM     29  C   UNL d   1     -14.307   1.097  11.580 -0.14 +0.01    +0.046    14.026
ATOM     30  C   UNL d   1      -4.841   3.742  13.015 -0.05 -0.04    +0.046    14.026
ATOM     31  H   UNL d   1     -10.162   0.925  13.566 +0.04 +0.02    +0.166    14.026
ATOM     32  H   UNL d   1      -8.306   0.722  12.714 +0.09 +0.02    +0.166    14.026
ATOM     33  C   UNL d   1      -4.208  -0.907  15.757 -0.10 +0.02    +0.141    14.026
ATOM     34  C   UNL d   1      -4.014  -1.779  16.968 -0.05 +0.09    +0.306    14.026
ATOM     35  O   UNL d   1      -4.068  -1.418  18.132 -0.01 -0.04    -0.251    14.026
ATOM     36  O   UNL d   1      -3.765  -3.061  16.649 -0.44 -0.35    -0.481    14.026
ATOM     37  H   UNL d   1      -4.343  -3.581  17.246 +0.05 +0.31    +0.295    14.026
ATOM     38  C   UNL d   1      -7.393   5.082  11.761 -0.21 -0.00    +0.017    14.026
ATOM     39  C   UNL d   1      -8.333   5.584  10.944 -0.21 +0.00    +0.092    14.026
ATOM     40  C   UNL d   1      -8.308   7.005  10.590 -0.11 +0.09    +0.330    14.026
ATOM     41  O   UNL d   1      -7.697   7.899  11.144 -0.10 -0.07    -0.246    14.026
ATOM     42  O   UNL d   1      -9.077   7.226   9.513 -0.09 -0.21    -0.477    14.026
ATOM     43  H   UNL d   1      -9.419   6.338   9.283 +0.10 +0.10    +0.295    14.026
ATOM     44  C   UNL d   1     -11.385  -3.717  16.832 -0.11 +0.01    +0.141    14.026
ATOM     45  C   UNL d   1     -10.188  -4.352  17.489 -0.06 +0.04    +0.306    14.026
ATOM     46  O   UNL d   1      -9.611  -3.955  18.487 -0.03 -0.04    -0.251    14.026
ATOM     47  O   UNL d   1      -9.761  -5.446  16.834 -0.05 -0.04    -0.481    14.026
ATOM     48  H   UNL d   1      -9.603  -5.140  15.916 -0.36 +0.01    +0.295    14.026
ATOM     49  C   UNL d   1     -12.306   3.045  10.028 -0.21 +0.01    +0.048    14.026
ATOM     50  C   UNL d   1     -11.216   2.949   8.961 -0.20 +0.02    +0.125    14.026
ATOM     51  C   UNL d   1     -10.614   4.299   8.686 -0.21 +0.05    +0.305    14.026
ATOM     52  O   UNL d   1      -9.583   4.544   8.086 -0.24 -0.06    -0.251    14.026
ATOM     53  O   UNL d   1     -11.356   5.297   9.206 -0.02 -0.08    -0.481    14.026
ATOM     54  H   UNL d   1     -10.851   6.108   8.988 +0.10 +0.06    +0.295    14.026
TER
ENDMDL
MODEL        6
USER    Run = 6
USER    Cluster Rank = 49
USER    Number of conformations in this cluster = 1
USER  
USER    RMSD from reference structure       = 16.396 A
USER  
USER    Estimated Free Energy of Binding    =   -3.15 kcal/mol  [=(1)+(2)+(3)-(4)]
USER    Estimated Inhibition Constant, Ki   =    4.88 mM (millimolar)  [Temperature = 298.15 K]
USER    
USER    (1) Final Intermolecular Energy     =   -7.03 kcal/mol
USER        vdW + Hbond + desolv Energy     =   -6.77 kcal/mol
USER        Electrostatic Energy            =   -0.26 kcal/mol
USER    (2) Final Total Internal Energy     =   -3.52 kcal/mol
USER    (3) Torsional Free Energy           =   +3.88 kcal/mol
USER    (4) Unbound System's Energy  [=(2)] =   -3.52 kcal/mol
USER    
USER    
USER  
USER    DPF = D:/Protein_go_brrr/autodock/final/AncA/heme/dock.dpf
USER    NEWDPF move	heme_opt.pdbqt
USER    NEWDPF about	0.153000 0.018000 -0.028000
USER    NEWDPF tran0	-11.716158 -14.382478 7.675117
USER    NEWDPF axisangle0	-0.518072 0.509492 -0.687036 113.022844
USER    NEWDPF quaternion0	-0.432070 0.424914 -0.572986 0.551771
USER    NEWDPF dihe0	-110.27 -139.68 120.11 2.65 40.32 -72.65 -82.10 -163.73 135.19 -14.28 65.06 -1.20 136.55 
USER  
USER                              x       y       z    vdW   Elec        q     RMS 
ATOM      1  O   UNL d   1     -13.288 -16.545   2.421 -0.08 -0.07    -0.289    16.396
ATOM      2  O   UNL d   1      -6.867 -13.420   4.743 -0.64 -0.45    -0.289    16.396
ATOM      3  N   UNL d   1     -12.869 -15.283   5.603 -0.41 -0.10    -0.247    16.396
ATOM      4  N   UNL d   1      -9.988 -14.559   5.677 -0.12 -0.11    -0.247    16.396
ATOM      5  N   UNL d   1     -10.219 -14.307   8.531 -0.12 -0.12    -0.354    16.396
ATOM      6  N   UNL d   1     -13.203 -15.078   8.448 -0.07 -0.07    -0.354    16.396
ATOM      7  C   UNL d   1     -14.640 -16.531   4.457 -0.11 +0.01    +0.084    16.396
ATOM      8  C   UNL d   1      -8.912 -14.032   3.547 -0.18 +0.07    +0.084    16.396
ATOM      9  C   UNL d   1     -10.148 -14.521   4.310 -0.18 +0.03    +0.058    16.396
ATOM     10  C   UNL d   1     -14.120 -15.861   5.733 -0.12 +0.01    +0.058    16.396
ATOM     11  C   UNL d   1     -13.468 -16.214   3.578 -0.11 +0.04    +0.193    16.396
ATOM     12  C   UNL d   1     -12.474 -15.432   4.381 -0.17 +0.03    +0.109    16.396
ATOM     13  C   UNL d   1      -8.009 -13.836   4.731 -0.18 +0.19    +0.193    16.396
ATOM     14  C   UNL d   1     -14.747 -18.051   4.610 -0.03 +0.00    +0.026    16.396
ATOM     15  C   UNL d   1     -11.269 -14.925   3.693 -0.22 +0.02    +0.055    16.396
ATOM     16  C   UNL d   1      -9.156 -12.674   2.882 -0.26 +0.02    +0.026    16.396
ATOM     17  C   UNL d   1      -8.778 -14.197   5.960 -0.18 +0.06    +0.109    16.396
ATOM     18  C   UNL d   1     -14.878 -15.778   6.842 -0.12 +0.01    +0.050    16.396
ATOM     19  C   UNL d   1     -14.517 -15.106   8.037 -0.01 +0.00    +0.045    16.396
ATOM     20  C   UNL d   1      -8.858 -14.222   8.397 -0.25 +0.01    +0.045    16.396
ATOM     21  C   UNL d   1      -8.130 -14.143   7.279 -0.21 +0.03    +0.057    16.396
ATOM     22  C   UNL d   1      -9.376 -14.320  10.620 -0.22 -0.00    -0.019    16.396
ATOM     23  C   UNL d   1     -10.627 -14.371   9.837 -0.23 +0.01    +0.045    16.396
ATOM     24  C   UNL d   1      -8.332 -14.230   9.762 -0.23 -0.00    -0.022    16.396
ATOM     25  C   UNL d   1     -13.092 -14.456   9.670 -0.11 +0.01    +0.049    16.396
ATOM     26  C   UNL d   1     -15.273 -14.454   8.999 -0.17 -0.00    -0.018    16.396
ATOM     27  C   UNL d   1     -14.366 -14.028  10.017 -0.18 +0.00    +0.003    16.396
ATOM     28  C   UNL d   1     -11.856 -14.442  10.371 -0.21 +0.01    +0.052    16.396
ATOM     29  C   UNL d   1      -6.876 -14.140  10.070 -0.19 +0.01    +0.046    16.396
ATOM     30  C   UNL d   1     -16.748 -14.236   8.974 -0.21 -0.00    +0.046    16.396
ATOM     31  H   UNL d   1     -10.832 -14.244   7.726 +0.05 +0.07    +0.166    16.396
ATOM     32  H   UNL d   1     -12.444 -15.499   7.926 +0.03 +0.04    +0.166    16.396
ATOM     33  C   UNL d   1     -15.925 -15.933   3.877 -0.18 +0.01    +0.141    16.396
ATOM     34  C   UNL d   1     -16.417 -16.679   2.667 -0.08 +0.04    +0.306    16.396
ATOM     35  O   UNL d   1     -17.246 -17.574   2.660 -0.03 -0.03    -0.251    16.396
ATOM     36  O   UNL d   1     -15.840 -16.258   1.528 -0.07 -0.09    -0.481    16.396
ATOM     37  H   UNL d   1     -14.900 -16.524   1.614 +0.06 +0.06    +0.295    16.396
ATOM     38  C   UNL d   1     -14.734 -13.326  11.210 -0.22 +0.00    +0.017    16.396
ATOM     39  C   UNL d   1     -13.999 -12.376  11.807 -0.26 +0.01    +0.092    16.396
ATOM     40  C   UNL d   1     -14.499 -11.719  13.018 -0.09 +0.02    +0.330    16.396
ATOM     41  O   UNL d   1     -15.376 -10.880  13.100 -0.11 -0.00    -0.246    16.396
ATOM     42  O   UNL d   1     -13.847 -12.180  14.096 -0.04 -0.05    -0.477    16.396
ATOM     43  H   UNL d   1     -12.919 -12.257  13.794 +0.07 +0.05    +0.295    16.396
ATOM     44  C   UNL d   1      -8.309 -15.034   2.556 -0.10 +0.16    +0.141    16.396
ATOM     45  C   UNL d   1      -7.772 -16.275   3.219 -0.02 +0.35    +0.306    16.396
ATOM     46  O   UNL d   1      -6.649 -16.734   3.101 -0.16 -0.42    -0.251    16.396
ATOM     47  O   UNL d   1      -8.694 -16.892   3.979 +0.01 -0.31    -0.481    16.396
ATOM     48  H   UNL d   1      -8.938 -16.230   4.660 +0.05 +0.18    +0.295    16.396
ATOM     49  C   UNL d   1      -9.316 -14.378  12.118 -0.01 +0.01    +0.048    16.396
ATOM     50  C   UNL d   1     -10.068 -15.588  12.671 -0.08 +0.02    +0.125    16.396
ATOM     51  C   UNL d   1     -11.266 -15.157  13.468 -0.06 +0.04    +0.305    16.396
ATOM     52  O   UNL d   1     -11.976 -15.849  14.177 -0.02 -0.03    -0.251    16.396
ATOM     53  O   UNL d   1     -11.525 -13.843  13.318 -0.05 -0.09    -0.481    16.396
ATOM     54  H   UNL d   1     -12.293 -13.683  13.906 +0.05 +0.05    +0.295    16.396
TER
ENDMDL
MODEL       27
USER    Run = 27
USER    Cluster Rank = 50
USER    Number of conformations in this cluster = 1
USER  
USER    RMSD from reference structure       = 12.623 A
USER  
USER    Estimated Free Energy of Binding    =   -2.90 kcal/mol  [=(1)+(2)+(3)-(4)]
USER    Estimated Inhibition Constant, Ki   =    7.45 mM (millimolar)  [Temperature = 298.15 K]
USER    
USER    (1) Final Intermolecular Energy     =   -6.78 kcal/mol
USER        vdW + Hbond + desolv Energy     =   -6.72 kcal/mol
USER        Electrostatic Energy            =   -0.06 kcal/mol
USER    (2) Final Total Internal Energy     =   -3.97 kcal/mol
USER    (3) Torsional Free Energy           =   +3.88 kcal/mol
USER    (4) Unbound System's Energy  [=(2)] =   -3.97 kcal/mol
USER    
USER    
USER  
USER    DPF = D:/Protein_go_brrr/autodock/final/AncA/heme/dock.dpf
USER    NEWDPF move	heme_opt.pdbqt
USER    NEWDPF about	0.153000 0.018000 -0.028000
USER    NEWDPF tran0	-0.941844 14.419398 5.975221
USER    NEWDPF axisangle0	0.524736 -0.541675 0.656689 -145.022504
USER    NEWDPF quaternion0	0.500480 -0.516637 0.626334 -0.300518
USER    NEWDPF dihe0	-110.52 -167.47 -56.21 43.02 32.77 18.59 82.08 35.84 134.70 5.03 -71.32 -78.13 4.96 
USER  
USER                              x       y       z    vdW   Elec        q     RMS 
ATOM      1  O   UNL d   1      -0.459  14.112   0.108 +0.16 +0.02    -0.289    12.623
ATOM      2  O   UNL d   1       3.735  17.674   5.218 -0.04 +0.02    -0.289    12.623
ATOM      3  N   UNL d   1      -1.218  14.116   3.472 -0.08 -0.00    -0.247    12.623
ATOM      4  N   UNL d   1       1.117  15.486   4.697 -0.05 +0.01    -0.247    12.623
ATOM      5  N   UNL d   1       0.205  14.551   7.258 -0.09 +0.02    -0.354    12.623
ATOM      6  N   UNL d   1      -2.204  13.116   5.977 -0.13 -0.02    -0.354    12.623
ATOM      7  C   UNL d   1      -2.126  12.986   1.496 -0.20 -0.00    +0.084    12.623
ATOM      8  C   UNL d   1       2.358  17.054   3.292 -0.07 -0.00    +0.084    12.623
ATOM      9  C   UNL d   1       1.251  16.003   3.428 -0.08 -0.00    +0.058    12.623
ATOM     10  C   UNL d   1      -2.171  13.226   3.008 -0.21 +0.00    +0.058    12.623
ATOM     11  C   UNL d   1      -0.990  13.913   1.185 -0.08 -0.01    +0.193    12.623
ATOM     12  C   UNL d   1      -0.544  14.558   2.461 -0.12 -0.00    +0.109    12.623
ATOM     13  C   UNL d   1       2.853  17.010   4.710 -0.04 -0.01    +0.193    12.623
ATOM     14  C   UNL d   1      -1.705  11.555   1.154 -0.38 -0.00    +0.026    12.623
ATOM     15  C   UNL d   1       0.512  15.588   2.387 -0.13 -0.00    +0.055    12.623
ATOM     16  C   UNL d   1       1.787  18.447   3.012 -0.03 -0.00    +0.026    12.623
ATOM     17  C   UNL d   1       2.023  16.016   5.455 -0.08 -0.01    +0.109    12.623
ATOM     18  C   UNL d   1      -3.126  12.673   3.780 -0.20 +0.00    +0.050    12.623
ATOM     19  C   UNL d   1      -3.297  12.903   5.169 -0.21 +0.00    +0.045    12.623
ATOM     20  C   UNL d   1       1.438  15.036   7.610 -0.18 -0.00    +0.045    12.623
ATOM     21  C   UNL d   1       2.309  15.727   6.868 -0.16 -0.00    +0.057    12.623
ATOM     22  C   UNL d   1       0.529  13.958   9.407 -0.25 +0.00    -0.019    12.623
ATOM     23  C   UNL d   1      -0.420  13.885   8.278 -0.25 -0.00    +0.045    12.623
ATOM     24  C   UNL d   1       1.626  14.642   9.006 -0.22 +0.00    -0.022    12.623
ATOM     25  C   UNL d   1      -2.590  13.226   7.293 -0.16 +0.00    +0.049    12.623
ATOM     26  C   UNL d   1      -4.426  12.912   5.974 -0.17 -0.00    -0.018    12.623
ATOM     27  C   UNL d   1      -3.975  13.135   7.311 -0.15 +0.00    +0.003    12.623
ATOM     28  C   UNL d   1      -1.623  13.293   8.333 -0.18 +0.00    +0.052    12.623
ATOM     29  C   UNL d   1       2.848  14.987   9.787 -0.03 -0.00    +0.046    12.623
ATOM     30  C   UNL d   1      -5.837  12.726   5.530 -0.14 +0.01    +0.046    12.623
ATOM     31  H   UNL d   1      -0.201  14.755   6.352 +0.05 -0.00    +0.166    12.623
ATOM     32  H   UNL d   1      -1.250  13.143   5.635 +0.07 +0.00    +0.166    12.623
ATOM     33  C   UNL d   1      -3.385  13.401   0.728 -0.10 -0.01    +0.141    12.623
ATOM     34  C   UNL d   1      -3.297  13.087  -0.741 -0.06 -0.03    +0.306    12.623
ATOM     35  O   UNL d   1      -3.600  12.031  -1.272 -0.11 +0.04    -0.251    12.623
ATOM     36  O   UNL d   1      -2.834  14.121  -1.466 +0.01 +0.05    -0.481    12.623
ATOM     37  H   UNL d   1      -1.902  14.226  -1.178 +0.06 -0.03    +0.295    12.623
ATOM     38  C   UNL d   1      -4.819  13.202   8.466 -0.12 +0.00    +0.017    12.623
ATOM     39  C   UNL d   1      -4.543  12.652   9.659 -0.09 +0.02    +0.092    12.623
ATOM     40  C   UNL d   1      -5.486  12.808  10.770 -0.03 +0.05    +0.330    12.623
ATOM     41  O   UNL d   1      -6.652  13.149  10.713 -0.01 -0.04    -0.246    12.623
ATOM     42  O   UNL d   1      -4.886  12.506  11.931 -0.01 -0.05    -0.477    12.623
ATOM     43  H   UNL d   1      -3.935  12.466  11.701 +0.05 +0.02    +0.295    12.623
ATOM     44  C   UNL d   1       3.480  16.707   2.308 -0.21 -0.01    +0.141    12.623
ATOM     45  C   UNL d   1       3.967  15.289   2.438 -0.31 -0.04    +0.306    12.623
ATOM     46  O   UNL d   1       3.285  14.304   2.664 -0.77 +0.00    -0.251    12.623
ATOM     47  O   UNL d   1       5.302  15.188   2.301 -0.23 +0.14    -0.481    12.623
ATOM     48  H   UNL d   1       5.604  14.761   3.131 -0.35 -0.19    +0.295    12.623
ATOM     49  C   UNL d   1       0.283  13.347  10.755 -0.28 -0.01    +0.048    12.623
ATOM     50  C   UNL d   1      -0.659  14.200  11.604 -0.11 -0.00    +0.125    12.623
ATOM     51  C   UNL d   1      -1.994  13.529  11.763 -0.09 -0.00    +0.305    12.623
ATOM     52  O   UNL d   1      -2.228  12.334  11.771 -0.16 -0.00    -0.251    12.623
ATOM     53  O   UNL d   1      -2.995  14.423  11.896 -0.00 -0.01    -0.481    12.623
ATOM     54  H   UNL d   1      -3.553  14.050  12.610 +0.03 +0.01    +0.295    12.623
TER
ENDMDL
MODEL       25
USER    Run = 25
USER    Cluster Rank = 51
USER    Number of conformations in this cluster = 1
USER  
USER    RMSD from reference structure       = 20.515 A
USER  
USER    Estimated Free Energy of Binding    =   -2.79 kcal/mol  [=(1)+(2)+(3)-(4)]
USER    Estimated Inhibition Constant, Ki   =    9.01 mM (millimolar)  [Temperature = 298.15 K]
USER    
USER    (1) Final Intermolecular Energy     =   -6.67 kcal/mol
USER        vdW + Hbond + desolv Energy     =   -6.48 kcal/mol
USER        Electrostatic Energy            =   -0.19 kcal/mol
USER    (2) Final Total Internal Energy     =   -4.07 kcal/mol
USER    (3) Torsional Free Energy           =   +3.88 kcal/mol
USER    (4) Unbound System's Energy  [=(2)] =   -4.07 kcal/mol
USER    
USER    
USER  
USER    DPF = D:/Protein_go_brrr/autodock/final/AncA/heme/dock.dpf
USER    NEWDPF move	heme_opt.pdbqt
USER    NEWDPF about	0.153000 0.018000 -0.028000
USER    NEWDPF tran0	-13.968793 -9.143505 -17.012541
USER    NEWDPF axisangle0	-0.056435 -0.389827 0.919157 -101.598760
USER    NEWDPF quaternion0	-0.043734 -0.302092 0.712289 -0.632038
USER    NEWDPF dihe0	-179.94 169.79 152.57 30.63 -152.57 8.91 177.00 179.92 12.97 7.29 65.93 -72.71 130.12 
USER  
USER                              x       y       z    vdW   Elec        q     RMS 
ATOM      1  O   UNL d   1     -14.626 -14.618 -19.099 -0.08 -0.18    -0.289    20.515
ATOM      2  O   UNL d   1      -8.508 -10.924 -16.793 -0.73 -0.05    -0.289    20.515
ATOM      3  N   UNL d   1     -14.708 -11.327 -18.070 -0.06 -0.12    -0.247    20.515
ATOM      4  N   UNL d   1     -11.946 -10.851 -17.083 -0.11 -0.08    -0.247    20.515
ATOM      5  N   UNL d   1     -12.899  -8.429 -15.861 -0.04 -0.04    -0.354    20.515
ATOM      6  N   UNL d   1     -15.766  -8.941 -16.873 -0.00 -0.08    -0.354    20.515
ATOM      7  C   UNL d   1     -16.400 -12.982 -18.708 -0.05 +0.04    +0.084    20.515
ATOM      8  C   UNL d   1     -10.166 -12.231 -18.032 -0.20 +0.03    +0.084    20.515
ATOM      9  C   UNL d   1     -11.661 -11.912 -17.912 -0.15 +0.02    +0.058    20.515
ATOM     10  C   UNL d   1     -16.062 -11.566 -18.232 -0.06 +0.03    +0.058    20.515
ATOM     11  C   UNL d   1     -14.995 -13.496 -18.803 -0.06 +0.13    +0.193    20.515
ATOM     12  C   UNL d   1     -14.060 -12.392 -18.416 -0.08 +0.07    +0.109    20.515
ATOM     13  C   UNL d   1      -9.660 -11.178 -17.087 -0.20 +0.03    +0.193    20.515
ATOM     14  C   UNL d   1     -17.149 -13.784 -17.640 +0.01 +0.02    +0.026    20.515
ATOM     15  C   UNL d   1     -12.608 -12.639 -18.524 -0.12 +0.03    +0.055    20.515
ATOM     16  C   UNL d   1      -9.632 -11.931 -19.435 -0.24 +0.00    +0.026    20.515
ATOM     17  C   UNL d   1     -10.838 -10.415 -16.574 -0.23 +0.02    +0.109    20.515
ATOM     18  C   UNL d   1     -17.017 -10.629 -18.082 -0.03 +0.01    +0.050    20.515
ATOM     19  C   UNL d   1     -16.791  -9.274 -17.729 -0.01 +0.01    +0.045    20.515
ATOM     20  C   UNL d   1     -11.647  -8.495 -15.308 -0.28 +0.00    +0.045    20.515
ATOM     21  C   UNL d   1     -10.650  -9.340 -15.589 -0.36 +0.00    +0.057    20.515
ATOM     22  C   UNL d   1     -12.799  -6.785 -14.325 -0.29 +0.00    -0.019    20.515
ATOM     23  C   UNL d   1     -13.669  -7.428 -15.330 -0.11 +0.00    +0.045    20.515
ATOM     24  C   UNL d   1     -11.604  -7.420 -14.317 -0.41 +0.00    -0.022    20.515
ATOM     25  C   UNL d   1     -15.786  -7.593 -16.597 -0.01 +0.00    +0.049    20.515
ATOM     26  C   UNL d   1     -17.472  -8.108 -18.046 +0.00 -0.00    -0.018    20.515
ATOM     27  C   UNL d   1     -16.820  -7.048 -17.344 -0.00 +0.00    +0.003    20.515
ATOM     28  C   UNL d   1     -14.920  -7.038 -15.615 -0.06 +0.00    +0.052    20.515
ATOM     29  C   UNL d   1     -10.399  -7.132 -13.487 -0.24 -0.01    +0.046    20.515
ATOM     30  C   UNL d   1     -18.653  -7.984 -18.947 +0.00 +0.00    +0.046    20.515
ATOM     31  H   UNL d   1     -13.163  -9.026 -16.638 +0.04 +0.03    +0.166    20.515
ATOM     32  H   UNL d   1     -15.122  -9.617 -16.479 +0.02 +0.06    +0.166    20.515
ATOM     33  C   UNL d   1     -17.098 -13.069 -20.069 -0.00 +0.04    +0.141    20.515
ATOM     34  C   UNL d   1     -16.266 -12.496 -21.185 +0.01 +0.06    +0.306    20.515
ATOM     35  O   UNL d   1     -16.373 -11.379 -21.662 +0.00 -0.03    -0.251    20.515
ATOM     36  O   UNL d   1     -15.341 -13.360 -21.638 +0.01 -0.09    -0.481    20.515
ATOM     37  H   UNL d   1     -15.440 -14.151 -21.065 +0.01 +0.07    +0.295    20.515
ATOM     38  C   UNL d   1     -17.213  -5.671 -17.379 +0.00 +0.00    +0.017    20.515
ATOM     39  C   UNL d   1     -17.147  -4.821 -16.343 -0.00 -0.00    +0.092    20.515
ATOM     40  C   UNL d   1     -17.566  -3.427 -16.515 +0.00 -0.02    +0.330    20.515
ATOM     41  O   UNL d   1     -18.097  -2.925 -17.487 +0.00 +0.01    -0.246    20.515
ATOM     42  O   UNL d   1     -17.289  -2.722 -15.408 +0.01 +0.05    -0.477    20.515
ATOM     43  H   UNL d   1     -17.039  -3.404 -14.751 +0.02 -0.04    +0.295    20.515
ATOM     44  C   UNL d   1      -9.751 -13.631 -17.567 -0.26 +0.07    +0.141    20.515
ATOM     45  C   UNL d   1     -10.423 -14.057 -16.290 -0.24 +0.23    +0.306    20.515
ATOM     46  O   UNL d   1     -10.961 -15.129 -16.074 -0.59 -0.27    -0.251    20.515
ATOM     47  O   UNL d   1     -10.405 -13.092 -15.352 -0.34 -0.32    -0.481    20.515
ATOM     48  H   UNL d   1      -9.602 -12.567 -15.552 -0.30 +0.10    +0.295    20.515
ATOM     49  C   UNL d   1     -13.219  -5.631 -13.463 -0.38 -0.01    +0.048    20.515
ATOM     50  C   UNL d   1     -14.598  -5.857 -12.842 -0.25 -0.03    +0.125    20.515
ATOM     51  C   UNL d   1     -15.600  -4.883 -13.393 -0.06 -0.05    +0.305    20.515
ATOM     52  O   UNL d   1     -16.802  -4.859 -13.191 -0.02 +0.02    -0.251    20.515
ATOM     53  O   UNL d   1     -15.025  -3.970 -14.201 -0.04 +0.17    -0.481    20.515
ATOM     54  H   UNL d   1     -15.583  -3.172 -14.095 +0.05 -0.10    +0.295    20.515
TER
ENDMDL
MODEL       16
USER    Run = 16
USER    Cluster Rank = 52
USER    Number of conformations in this cluster = 1
USER  
USER    RMSD from reference structure       = 13.762 A
USER  
USER    Estimated Free Energy of Binding    =   -2.76 kcal/mol  [=(1)+(2)+(3)-(4)]
USER    Estimated Inhibition Constant, Ki   =    9.51 mM (millimolar)  [Temperature = 298.15 K]
USER    
USER    (1) Final Intermolecular Energy     =   -6.64 kcal/mol
USER        vdW + Hbond + desolv Energy     =   -6.61 kcal/mol
USER        Electrostatic Energy            =   -0.02 kcal/mol
USER    (2) Final Total Internal Energy     =   -4.59 kcal/mol
USER    (3) Torsional Free Energy           =   +3.88 kcal/mol
USER    (4) Unbound System's Energy  [=(2)] =   -4.59 kcal/mol
USER    
USER    
USER  
USER    DPF = D:/Protein_go_brrr/autodock/final/AncA/heme/dock.dpf
USER    NEWDPF move	heme_opt.pdbqt
USER    NEWDPF about	0.153000 0.018000 -0.028000
USER    NEWDPF tran0	1.953241 15.469212 5.434135
USER    NEWDPF axisangle0	0.647322 0.661282 0.379051 91.321599
USER    NEWDPF quaternion0	0.462974 0.472959 0.271103 0.698905
USER    NEWDPF dihe0	129.32 -168.79 -170.70 -5.40 -130.92 77.43 139.07 -169.56 24.28 -12.35 -70.20 -106.06 -1.53 
USER  
USER                              x       y       z    vdW   Elec        q     RMS 
ATOM      1  O   UNL d   1       0.791  16.440  -0.263 -0.06 +0.02    -0.289    13.762
ATOM      2  O   UNL d   1      -2.436  11.829   4.708 -0.26 -0.02    -0.289    13.762
ATOM      3  N   UNL d   1       1.917  16.107   2.980 -0.06 +0.01    -0.247    13.762
ATOM      4  N   UNL d   1      -0.121  14.344   4.232 -0.08 -0.00    -0.247    13.762
ATOM      5  N   UNL d   1       0.975  15.053   6.794 -0.06 +0.02    -0.354    13.762
ATOM      6  N   UNL d   1       3.073  16.895   5.487 -0.00 +0.03    -0.354    13.762
ATOM      7  C   UNL d   1       2.484  17.567   1.094 -0.09 -0.00    +0.084    13.762
ATOM      8  C   UNL d   1      -1.350  12.832   2.757 -0.28 -0.00    +0.084    13.762
ATOM      9  C   UNL d   1      -0.343  13.976   2.924 -0.18 -0.00    +0.058    13.762
ATOM     10  C   UNL d   1       2.720  17.149   2.548 -0.10 -0.00    +0.058    13.762
ATOM     11  C   UNL d   1       1.417  16.563   0.774 -0.08 -0.01    +0.193    13.762
ATOM     12  C   UNL d   1       1.181  15.721   1.989 -0.12 -0.00    +0.109    13.762
ATOM     13  C   UNL d   1      -1.685  12.646   4.210 -0.21 +0.01    +0.193    13.762
ATOM     14  C   UNL d   1       1.888  18.973   0.989 -0.04 -0.00    +0.026    13.762
ATOM     15  C   UNL d   1       0.230  14.596   1.881 -0.17 -0.00    +0.055    13.762
ATOM     16  C   UNL d   1      -0.679  11.557   2.239 -0.45 -0.00    +0.026    13.762
ATOM     17  C   UNL d   1      -0.879  13.627   4.997 -0.06 +0.00    +0.109    13.762
ATOM     18  C   UNL d   1       3.696  17.706   3.290 -0.15 -0.00    +0.050    13.762
ATOM     19  C   UNL d   1       4.043  17.327   4.612 -0.13 -0.00    +0.045    13.762
ATOM     20  C   UNL d   1      -0.157  14.394   7.197 -0.20 -0.00    +0.045    13.762
ATOM     21  C   UNL d   1      -1.033  13.706   6.458 -0.25 +0.00    +0.057    13.762
ATOM     22  C   UNL d   1       0.837  15.337   9.024 -0.12 +0.00    -0.019    13.762
ATOM     23  C   UNL d   1       1.642  15.655   7.828 -0.12 -0.00    +0.045    13.762
ATOM     24  C   UNL d   1      -0.226  14.589   8.644 -0.18 +0.00    -0.022    13.762
ATOM     25  C   UNL d   1       3.613  16.668   6.732 -0.12 -0.01    +0.049    13.762
ATOM     26  C   UNL d   1       5.250  17.346   5.294 -0.21 +0.00    -0.018    13.762
ATOM     27  C   UNL d   1       4.975  16.911   6.627 -0.20 -0.00    +0.003    13.762
ATOM     28  C   UNL d   1       2.780  16.366   7.844 -0.13 -0.00    +0.052    13.762
ATOM     29  C   UNL d   1      -1.313  14.016   9.488 -0.20 -0.00    +0.046    13.762
ATOM     30  C   UNL d   1       6.578  17.742   4.744 -0.24 -0.00    +0.046    13.762
ATOM     31  H   UNL d   1       1.296  15.009   5.833 +0.06 -0.01    +0.166    13.762
ATOM     32  H   UNL d   1       2.095  16.804   5.240 +0.04 -0.01    +0.166    13.762
ATOM     33  C   UNL d   1       3.684  17.393   0.157 -0.19 -0.01    +0.141    13.762
ATOM     34  C   UNL d   1       3.970  15.950  -0.156 -0.25 -0.02    +0.306    13.762
ATOM     35  O   UNL d   1       4.518  15.148   0.581 -0.37 +0.02    -0.251    13.762
ATOM     36  O   UNL d   1       3.549  15.592  -1.382 -0.16 +0.06    -0.481    13.762
ATOM     37  H   UNL d   1       2.605  15.857  -1.406 +0.09 -0.04    +0.295    13.762
ATOM     38  C   UNL d   1       5.945  16.798   7.675 -0.22 -0.00    +0.017    13.762
ATOM     39  C   UNL d   1       6.007  17.583   8.760 -0.16 -0.01    +0.092    13.762
ATOM     40  C   UNL d   1       7.042  17.351   9.771 -0.10 -0.02    +0.330    13.762
ATOM     41  O   UNL d   1       8.225  17.627   9.702 -0.15 +0.01    -0.246    13.762
ATOM     42  O   UNL d   1       6.506  16.771  10.856 -0.10 +0.01    -0.477    13.762
ATOM     43  H   UNL d   1       5.607  16.514  10.565 +0.06 -0.01    +0.295    13.762
ATOM     44  C   UNL d   1      -2.603  13.170   1.943 -0.17 -0.00    +0.141    13.762
ATOM     45  C   UNL d   1      -3.439  14.257   2.563 -0.05 +0.00    +0.306    13.762
ATOM     46  O   UNL d   1      -3.395  15.447   2.302 -0.02 -0.00    -0.251    13.762
ATOM     47  O   UNL d   1      -4.275  13.789   3.508 -0.03 -0.03    -0.481    13.762
ATOM     48  H   UNL d   1      -4.009  12.853   3.633 +0.08 +0.03    +0.295    13.762
ATOM     49  C   UNL d   1       1.170  15.801  10.412 -0.08 -0.00    +0.048    13.762
ATOM     50  C   UNL d   1       2.164  14.867  11.101 -0.14 -0.00    +0.125    13.762
ATOM     51  C   UNL d   1       3.499  15.534  11.269 -0.08 +0.01    +0.305    13.762
ATOM     52  O   UNL d   1       4.523  15.046  11.713 -0.16 -0.02    -0.251    13.762
ATOM     53  O   UNL d   1       3.473  16.822  10.871 -0.02 +0.00    -0.481    13.762
ATOM     54  H   UNL d   1       4.358  17.165  11.117 +0.04 -0.00    +0.295    13.762
TER
ENDMDL
MODEL       68
USER    Run = 68
USER    Cluster Rank = 53
USER    Number of conformations in this cluster = 2
USER  
USER    RMSD from reference structure       = 15.162 A
USER  
USER    Estimated Free Energy of Binding    =   -2.75 kcal/mol  [=(1)+(2)+(3)-(4)]
USER    Estimated Inhibition Constant, Ki   =    9.65 mM (millimolar)  [Temperature = 298.15 K]
USER    
USER    (1) Final Intermolecular Energy     =   -6.63 kcal/mol
USER        vdW + Hbond + desolv Energy     =   -6.41 kcal/mol
USER        Electrostatic Energy            =   -0.22 kcal/mol
USER    (2) Final Total Internal Energy     =   -4.61 kcal/mol
USER    (3) Torsional Free Energy           =   +3.88 kcal/mol
USER    (4) Unbound System's Energy  [=(2)] =   -4.61 kcal/mol
USER    
USER    
USER  
USER    DPF = D:/Protein_go_brrr/autodock/final/AncA/heme/dock.dpf
USER    NEWDPF move	heme_opt.pdbqt
USER    NEWDPF about	0.153000 0.018000 -0.028000
USER    NEWDPF tran0	-0.300561 13.278714 11.288233
USER    NEWDPF axisangle0	0.865606 0.491629 -0.095012 -112.936237
USER    NEWDPF quaternion0	0.721550 0.409812 -0.079200 -0.552401
USER    NEWDPF dihe0	157.80 -133.42 -143.21 13.31 -146.31 -70.56 127.94 145.36 8.47 -15.36 -55.38 -12.63 8.55 
USER  
USER                              x       y       z    vdW   Elec        q     RMS 
ATOM      1  O   UNL d   1      -2.590   9.802  15.462 -0.02 +0.01    -0.289    15.162
ATOM      2  O   UNL d   1      -5.856  13.562   9.842 -0.02 -0.04    -0.289    15.162
ATOM      3  N   UNL d   1      -0.833  11.850  13.315 -0.11 +0.03    -0.247    15.162
ATOM      4  N   UNL d   1      -2.868  12.632  11.297 -0.10 -0.01    -0.247    15.162
ATOM      5  N   UNL d   1      -0.724  13.605   9.647 -0.14 +0.02    -0.354    15.162
ATOM      6  N   UNL d   1       1.383  12.773  11.738 -0.11 +0.09    -0.354    15.162
ATOM      7  C   UNL d   1      -0.224  10.309  15.122 -0.09 -0.01    +0.084    15.162
ATOM      8  C   UNL d   1      -5.207  12.616  12.005 -0.04 +0.01    +0.084    15.162
ATOM      9  C   UNL d   1      -3.738  12.313  12.316 -0.09 +0.00    +0.058    15.162
ATOM     10  C   UNL d   1       0.213  11.297  14.036 -0.12 -0.01    +0.058    15.162
ATOM     11  C   UNL d   1      -1.703  10.416  14.900 -0.05 -0.01    +0.193    15.162
ATOM     12  C   UNL d   1      -1.945  11.400  13.797 -0.10 -0.01    +0.109    15.162
ATOM     13  C   UNL d   1      -5.015  13.131  10.606 -0.04 +0.03    +0.193    15.162
ATOM     14  C   UNL d   1       0.222   8.878  14.810 -0.21 -0.00    +0.026    15.162
ATOM     15  C   UNL d   1      -3.343  11.740  13.463 -0.09 +0.00    +0.055    15.162
ATOM     16  C   UNL d   1      -5.750  13.752  12.877 -0.02 +0.00    +0.026    15.162
ATOM     17  C   UNL d   1      -3.554  13.082  10.296 -0.09 +0.01    +0.109    15.162
ATOM     18  C   UNL d   1       1.504  11.646  13.880 -0.15 -0.01    +0.050    15.162
ATOM     19  C   UNL d   1       1.990  12.611  12.962 -0.18 -0.01    +0.045    15.162
ATOM     20  C   UNL d   1      -1.762  13.683   8.755 -0.19 +0.00    +0.045    15.162
ATOM     21  C   UNL d   1      -3.067  13.488   8.969 -0.13 +0.00    +0.057    15.162
ATOM     22  C   UNL d   1       0.188  14.149   7.661 -0.24 +0.00    -0.019    15.162
ATOM     23  C   UNL d   1       0.493  13.870   9.079 -0.23 -0.01    +0.045    15.162
ATOM     24  C   UNL d   1      -1.148  14.038   7.476 -0.22 +0.00    -0.022    15.162
ATOM     25  C   UNL d   1       2.068  13.691  10.976 -0.24 -0.00    +0.049    15.162
ATOM     26  C   UNL d   1       3.076  13.471  13.012 -0.16 +0.00    -0.018    15.162
ATOM     27  C   UNL d   1       3.109  14.165  11.762 -0.15 +0.00    +0.003    15.162
ATOM     28  C   UNL d   1       1.722  13.912   9.615 -0.21 -0.01    +0.052    15.162
ATOM     29  C   UNL d   1      -1.937  14.237   6.227 -0.16 +0.00    +0.046    15.162
ATOM     30  C   UNL d   1       4.026  13.642  14.149 -0.09 -0.00    +0.046    15.162
ATOM     31  H   UNL d   1      -0.891  13.445  10.635 +0.04 -0.01    +0.166    15.162
ATOM     32  H   UNL d   1       0.568  12.248  11.443 -0.44 -0.06    +0.166    15.162
ATOM     33  C   UNL d   1       0.135  10.710  16.557 -0.02 -0.01    +0.141    15.162
ATOM     34  C   UNL d   1      -0.406  12.062  16.933 -0.00 -0.01    +0.306    15.162
ATOM     35  O   UNL d   1       0.176  13.128  16.822 -0.00 +0.00    -0.251    15.162
ATOM     36  O   UNL d   1      -1.655  12.001  17.428 +0.00 +0.00    -0.481    15.162
ATOM     37  H   UNL d   1      -2.030  11.177  17.051 +0.01 -0.00    +0.295    15.162
ATOM     38  C   UNL d   1       4.085  15.142  11.386 -0.13 +0.00    +0.017    15.162
ATOM     39  C   UNL d   1       3.904  16.106  10.470 -0.15 +0.00    +0.092    15.162
ATOM     40  C   UNL d   1       4.981  17.058  10.189 -0.10 -0.01    +0.330    15.162
ATOM     41  O   UNL d   1       5.371  17.969  10.894 -0.05 +0.01    -0.246    15.162
ATOM     42  O   UNL d   1       5.533  16.791   8.995 -0.10 +0.06    -0.477    15.162
ATOM     43  H   UNL d   1       4.763  16.666   8.403 +0.08 -0.04    +0.295    15.162
ATOM     44  C   UNL d   1      -6.149  11.407  12.020 -0.05 +0.02    +0.141    15.162
ATOM     45  C   UNL d   1      -5.844  10.404  10.940 -0.05 +0.14    +0.306    15.162
ATOM     46  O   UNL d   1      -5.011   9.515  10.988 -0.40 -0.12    -0.251    15.162
ATOM     47  O   UNL d   1      -6.591  10.591   9.837 -0.54 -0.36    -0.481    15.162
ATOM     48  H   UNL d   1      -6.685  11.565   9.763 +0.05 +0.13    +0.295    15.162
ATOM     49  C   UNL d   1       1.223  14.481   6.626 -0.22 -0.00    +0.048    15.162
ATOM     50  C   UNL d   1       1.745  15.909   6.780 -0.10 -0.01    +0.125    15.162
ATOM     51  C   UNL d   1       3.242  15.924   6.898 -0.10 -0.03    +0.305    15.162
ATOM     52  O   UNL d   1       4.020  16.709   6.385 -0.09 +0.03    -0.251    15.162
ATOM     53  O   UNL d   1       3.698  14.914   7.666 -0.06 +0.06    -0.481    15.162
ATOM     54  H   UNL d   1       4.634  15.149   7.838 -0.16 -0.08    +0.295    15.162
TER
ENDMDL
MODEL       94
USER    Run = 94
USER    Cluster Rank = 54
USER    Number of conformations in this cluster = 1
USER  
USER    RMSD from reference structure       = 14.854 A
USER  
USER    Estimated Free Energy of Binding    =   -2.74 kcal/mol  [=(1)+(2)+(3)-(4)]
USER    Estimated Inhibition Constant, Ki   =    9.80 mM (millimolar)  [Temperature = 298.15 K]
USER    
USER    (1) Final Intermolecular Energy     =   -6.62 kcal/mol
USER        vdW + Hbond + desolv Energy     =   -6.49 kcal/mol
USER        Electrostatic Energy            =   -0.13 kcal/mol
USER    (2) Final Total Internal Energy     =   -4.21 kcal/mol
USER    (3) Torsional Free Energy           =   +3.88 kcal/mol
USER    (4) Unbound System's Energy  [=(2)] =   -4.21 kcal/mol
USER    
USER    
USER  
USER    DPF = D:/Protein_go_brrr/autodock/final/AncA/heme/dock.dpf
USER    NEWDPF move	heme_opt.pdbqt
USER    NEWDPF about	0.153000 0.018000 -0.028000
USER    NEWDPF tran0	-16.177380 9.412762 -1.581255
USER    NEWDPF axisangle0	-0.395298 0.536363 -0.745690 168.532276
USER    NEWDPF quaternion0	-0.393320 0.533680 -0.741959 0.099908
USER    NEWDPF dihe0	-179.90 167.38 -24.79 50.93 -154.74 -60.03 -34.11 40.61 8.93 20.62 -86.59 8.82 -4.43 
USER  
USER                              x       y       z    vdW   Elec        q     RMS 
ATOM      1  O   UNL d   1     -13.065   9.679  -6.581 -0.08 +0.00    -0.289    14.854
ATOM      2  O   UNL d   1     -12.396  13.498  -0.150 -0.01 -0.00    -0.289    14.854
ATOM      3  N   UNL d   1     -15.236   9.272  -3.932 -0.14 +0.02    -0.247    14.854
ATOM      4  N   UNL d   1     -14.017  10.930  -1.789 -0.12 +0.01    -0.247    14.854
ATOM      5  N   UNL d   1     -15.778   9.640   0.083 -0.12 +0.04    -0.354    14.854
ATOM      6  N   UNL d   1     -17.024   7.910  -2.144 -0.12 +0.04    -0.354    14.854
ATOM      7  C   UNL d   1     -14.921   8.164  -6.096 -0.18 +0.00    +0.084    14.854
ATOM      8  C   UNL d   1     -12.612  12.803  -2.487 -0.05 -0.00    +0.084    14.854
ATOM      9  C   UNL d   1     -13.433  11.565  -2.862 -0.12 -0.00    +0.058    14.854
ATOM     10  C   UNL d   1     -15.685   8.267  -4.773 -0.24 -0.00    +0.058    14.854
ATOM     11  C   UNL d   1     -13.972   9.301  -5.863 -0.10 +0.00    +0.193    14.854
ATOM     12  C   UNL d   1     -14.281   9.908  -4.529 -0.14 -0.00    +0.109    14.854
ATOM     13  C   UNL d   1     -12.807  12.731  -0.999 -0.04 +0.00    +0.193    14.854
ATOM     14  C   UNL d   1     -14.120   6.864  -6.197 -0.25 +0.00    +0.026    14.854
ATOM     15  C   UNL d   1     -13.529  11.112  -4.121 -0.13 -0.00    +0.055    14.854
ATOM     16  C   UNL d   1     -13.257  14.091  -3.007 -0.02 +0.00    +0.026    14.854
ATOM     17  C   UNL d   1     -13.671  11.548  -0.705 -0.11 -0.00    +0.109    14.854
ATOM     18  C   UNL d   1     -16.756   7.492  -4.517 -0.30 -0.00    +0.050    14.854
ATOM     19  C   UNL d   1     -17.573   7.574  -3.361 -0.24 -0.00    +0.045    14.854
ATOM     20  C   UNL d   1     -14.956  10.306   0.954 -0.22 -0.00    +0.045    14.854
ATOM     21  C   UNL d   1     -13.998  11.200   0.685 -0.17 +0.00    +0.057    14.854
ATOM     22  C   UNL d   1     -16.344   8.940   2.147 -0.26 +0.00    -0.019    14.854
ATOM     23  C   UNL d   1     -16.651   8.792   0.710 -0.27 -0.01    +0.045    14.854
ATOM     24  C   UNL d   1     -15.341   9.839   2.285 -0.25 +0.00    -0.022    14.854
ATOM     25  C   UNL d   1     -17.972   7.841  -1.150 -0.14 +0.00    +0.049    14.854
ATOM     26  C   UNL d   1     -18.920   7.315  -3.159 -0.17 -0.00    -0.018    14.854
ATOM     27  C   UNL d   1     -19.171   7.505  -1.764 -0.15 +0.00    +0.003    14.854
ATOM     28  C   UNL d   1     -17.609   7.993   0.216 -0.29 -0.00    +0.052    14.854
ATOM     29  C   UNL d   1     -14.693  10.329   3.535 -0.18 +0.00    +0.046    14.854
ATOM     30  C   UNL d   1     -19.916   6.918  -4.195 -0.11 +0.00    +0.046    14.854
ATOM     31  H   UNL d   1     -15.766   9.843  -0.911 -0.03 -0.02    +0.166    14.854
ATOM     32  H   UNL d   1     -16.044   8.134  -2.014 -0.44 -0.08    +0.166    14.854
ATOM     33  C   UNL d   1     -15.755   8.411  -7.357 -0.07 +0.00    +0.141    14.854
ATOM     34  C   UNL d   1     -16.442   9.750  -7.346 -0.00 +0.01    +0.306    14.854
ATOM     35  O   UNL d   1     -17.611   9.957  -7.070 -0.00 -0.01    -0.251    14.854
ATOM     36  O   UNL d   1     -15.617  10.758  -7.679 +0.01 -0.01    -0.481    14.854
ATOM     37  H   UNL d   1     -14.744  10.330  -7.808 +0.03 +0.01    +0.295    14.854
ATOM     38  C   UNL d   1     -20.437   7.325  -1.122 -0.12 +0.00    +0.017    14.854
ATOM     39  C   UNL d   1     -20.982   8.170  -0.234 -0.06 +0.01    +0.092    14.854
ATOM     40  C   UNL d   1     -22.298   7.878   0.340 -0.01 +0.04    +0.330    14.854
ATOM     41  O   UNL d   1     -23.359   7.778  -0.246 -0.01 -0.02    -0.246    14.854
ATOM     42  O   UNL d   1     -22.197   7.714   1.668 +0.00 -0.06    -0.477    14.854
ATOM     43  H   UNL d   1     -21.233   7.636   1.822 +0.03 +0.04    +0.295    14.854
ATOM     44  C   UNL d   1     -11.124  12.743  -2.848 -0.06 -0.01    +0.141    14.854
ATOM     45  C   UNL d   1     -10.569  11.344  -2.853 -0.10 -0.05    +0.306    14.854
ATOM     46  O   UNL d   1     -10.252  10.684  -1.879 -0.18 +0.04    -0.251    14.854
ATOM     47  O   UNL d   1     -10.416  10.855  -4.097 -0.02 +0.16    -0.481    14.854
ATOM     48  H   UNL d   1      -9.706  10.184  -4.014 -0.44 -0.25    +0.295    14.854
ATOM     49  C   UNL d   1     -17.043   8.186   3.240 -0.11 -0.00    +0.048    14.854
ATOM     50  C   UNL d   1     -18.300   8.913   3.718 -0.10 +0.01    +0.125    14.854
ATOM     51  C   UNL d   1     -19.518   8.408   2.997 -0.04 +0.03    +0.305    14.854
ATOM     52  O   UNL d   1     -19.738   7.272   2.614 -0.08 -0.03    -0.251    14.854
ATOM     53  O   UNL d   1     -20.417   9.388   2.779 +0.00 -0.04    -0.481    14.854
ATOM     54  H   UNL d   1     -21.261   9.016   3.111 +0.01 +0.03    +0.295    14.854
TER
ENDMDL
MODEL       89
USER    Run = 89
USER    Cluster Rank = 55
USER    Number of conformations in this cluster = 1
USER  
USER    RMSD from reference structure       = 12.177 A
USER  
USER    Estimated Free Energy of Binding    =   -2.72 kcal/mol  [=(1)+(2)+(3)-(4)]
USER    Estimated Inhibition Constant, Ki   =   10.14 mM (millimolar)  [Temperature = 298.15 K]
USER    
USER    (1) Final Intermolecular Energy     =   -6.60 kcal/mol
USER        vdW + Hbond + desolv Energy     =   -6.57 kcal/mol
USER        Electrostatic Energy            =   -0.03 kcal/mol
USER    (2) Final Total Internal Energy     =   -4.59 kcal/mol
USER    (3) Torsional Free Energy           =   +3.88 kcal/mol
USER    (4) Unbound System's Energy  [=(2)] =   -4.59 kcal/mol
USER    
USER    
USER  
USER    DPF = D:/Protein_go_brrr/autodock/final/AncA/heme/dock.dpf
USER    NEWDPF move	heme_opt.pdbqt
USER    NEWDPF about	0.153000 0.018000 -0.028000
USER    NEWDPF tran0	0.744091 15.101198 2.344725
USER    NEWDPF axisangle0	0.692659 -0.408571 0.594385 -130.109355
USER    NEWDPF quaternion0	0.628041 -0.370456 0.538935 -0.421753
USER    NEWDPF dihe0	131.51 -132.80 -104.87 -69.07 -136.10 66.48 -179.87 -135.41 18.06 13.78 -94.82 -97.00 -2.93 
USER  
USER                              x       y       z    vdW   Elec        q     RMS 
ATOM      1  O   UNL d   1      -1.385  13.935  -3.028 -0.07 +0.05    -0.289    12.177
ATOM      2  O   UNL d   1       4.242  18.389  -0.816 -0.11 +0.01    -0.289    12.177
ATOM      3  N   UNL d   1      -0.576  14.415   0.291 -0.00 +0.02    -0.247    12.177
ATOM      4  N   UNL d   1       1.905  16.045   0.160 -0.11 +0.02    -0.247    12.177
ATOM      5  N   UNL d   1       2.320  15.469   2.946 -0.07 +0.02    -0.354    12.177
ATOM      6  N   UNL d   1      -0.245  13.764   3.068 -0.09 +0.00    -0.354    12.177
ATOM      7  C   UNL d   1      -2.141  12.965  -0.915 -0.15 -0.01    +0.084    12.177
ATOM      8  C   UNL d   1       2.228  17.432  -1.826 -0.07 -0.01    +0.084    12.177
ATOM      9  C   UNL d   1       1.410  16.370  -1.083 -0.12 -0.01    +0.058    12.177
ATOM     10  C   UNL d   1      -1.538  13.427   0.414 -0.12 -0.00    +0.058    12.177
ATOM     11  C   UNL d   1      -1.362  13.879  -1.812 -0.08 -0.02    +0.193    12.177
ATOM     12  C   UNL d   1      -0.467  14.725  -0.960 -0.03 -0.01    +0.109    12.177
ATOM     13  C   UNL d   1       3.300  17.621  -0.790 -0.10 -0.01    +0.193    12.177
ATOM     14  C   UNL d   1      -1.769  11.516  -1.242 -0.36 -0.01    +0.026    12.177
ATOM     15  C   UNL d   1       0.335  15.774  -1.622 -0.12 -0.01    +0.055    12.177
ATOM     16  C   UNL d   1       1.452  18.743  -1.977 -0.03 -0.00    +0.026    12.177
ATOM     17  C   UNL d   1       2.992  16.718   0.360 -0.19 -0.01    +0.109    12.177
ATOM     18  C   UNL d   1      -1.992  12.959   1.592 -0.26 -0.00    +0.050    12.177
ATOM     19  C   UNL d   1      -1.555  13.388   2.871 -0.22 +0.00    +0.045    12.177
ATOM     20  C   UNL d   1       3.524  16.051   2.644 -0.27 -0.00    +0.045    12.177
ATOM     21  C   UNL d   1       3.901  16.657   1.514 -0.31 -0.00    +0.057    12.177
ATOM     22  C   UNL d   1       3.618  15.220   4.770 -0.29 +0.00    -0.019    12.177
ATOM     23  C   UNL d   1       2.281  14.940   4.208 -0.21 -0.00    +0.045    12.177
ATOM     24  C   UNL d   1       4.348  15.879   3.840 -0.32 +0.00    -0.022    12.177
ATOM     25  C   UNL d   1      -0.020  14.055   4.394 +0.02 +0.00    +0.049    12.177
ATOM     26  C   UNL d   1      -2.206  13.473   4.092 -0.21 -0.00    -0.018    12.177
ATOM     27  C   UNL d   1      -1.237  13.913   5.046 -0.18 +0.00    +0.003    12.177
ATOM     28  C   UNL d   1       1.294  14.316   4.869 -0.04 -0.00    +0.052    12.177
ATOM     29  C   UNL d   1       5.747  16.386   3.939 -0.32 -0.01    +0.046    12.177
ATOM     30  C   UNL d   1      -3.641  13.166   4.359 -0.19 +0.00    +0.046    12.177
ATOM     31  H   UNL d   1       1.536  15.519   2.304 +0.05 -0.01    +0.166    12.177
ATOM     32  H   UNL d   1       0.451  13.777   2.332 +0.06 -0.00    +0.166    12.177
ATOM     33  C   UNL d   1      -3.646  13.209  -1.075 -0.07 -0.02    +0.141    12.177
ATOM     34  C   UNL d   1      -3.994  14.672  -1.118 -0.00 -0.02    +0.306    12.177
ATOM     35  O   UNL d   1      -4.128  15.409  -0.155 -0.01 +0.01    -0.251    12.177
ATOM     36  O   UNL d   1      -4.151  15.131  -2.372 +0.01 +0.03    -0.481    12.177
ATOM     37  H   UNL d   1      -3.342  14.841  -2.844 +0.02 -0.03    +0.295    12.177
ATOM     38  C   UNL d   1      -1.486  14.118   6.441 -0.21 +0.00    +0.017    12.177
ATOM     39  C   UNL d   1      -0.866  13.474   7.441 -0.29 -0.00    +0.092    12.177
ATOM     40  C   UNL d   1      -1.201  13.790   8.832 -0.15 -0.00    +0.330    12.177
ATOM     41  O   UNL d   1      -2.265  13.622   9.397 -0.13 -0.01    -0.246    12.177
ATOM     42  O   UNL d   1      -0.134  14.312   9.457 -0.07 +0.03    -0.477    12.177
ATOM     43  H   UNL d   1       0.200  14.985   8.830 +0.08 -0.02    +0.295    12.177
ATOM     44  C   UNL d   1       2.830  16.986  -3.163 -0.08 -0.01    +0.141    12.177
ATOM     45  C   UNL d   1       3.279  15.549  -3.163 -0.15 -0.04    +0.306    12.177
ATOM     46  O   UNL d   1       3.091  14.729  -4.044 -0.17 +0.05    -0.251    12.177
ATOM     47  O   UNL d   1       3.924  15.212  -2.031 -0.18 +0.06    -0.481    12.177
ATOM     48  H   UNL d   1       3.217  15.140  -1.355 +0.12 -0.05    +0.295    12.177
ATOM     49  C   UNL d   1       4.057  14.809   6.145 -0.40 -0.01    +0.048    12.177
ATOM     50  C   UNL d   1       3.668  15.845   7.199 -0.19 -0.02    +0.125    12.177
ATOM     51  C   UNL d   1       2.270  15.607   7.695 -0.10 -0.02    +0.305    12.177
ATOM     52  O   UNL d   1       1.428  16.443   7.973 -0.03 +0.01    -0.251    12.177
ATOM     53  O   UNL d   1       1.999  14.294   7.829 -0.11 +0.07    -0.481    12.177
ATOM     54  H   UNL d   1       1.937  14.162   8.798 +0.04 -0.05    +0.295    12.177
TER
ENDMDL
MODEL       65
USER    Run = 65
USER    Cluster Rank = 56
USER    Number of conformations in this cluster = 1
USER  
USER    RMSD from reference structure       = 17.806 A
USER  
USER    Estimated Free Energy of Binding    =   -2.40 kcal/mol  [=(1)+(2)+(3)-(4)]
USER    Estimated Inhibition Constant, Ki   =   17.29 mM (millimolar)  [Temperature = 298.15 K]
USER    
USER    (1) Final Intermolecular Energy     =   -6.28 kcal/mol
USER        vdW + Hbond + desolv Energy     =   -6.15 kcal/mol
USER        Electrostatic Energy            =   -0.13 kcal/mol
USER    (2) Final Total Internal Energy     =   -4.67 kcal/mol
USER    (3) Torsional Free Energy           =   +3.88 kcal/mol
USER    (4) Unbound System's Energy  [=(2)] =   -4.67 kcal/mol
USER    
USER    
USER  
USER    DPF = D:/Protein_go_brrr/autodock/final/AncA/heme/dock.dpf
USER    NEWDPF move	heme_opt.pdbqt
USER    NEWDPF about	0.153000 0.018000 -0.028000
USER    NEWDPF tran0	-12.082519 -1.978202 -16.377678
USER    NEWDPF axisangle0	-0.219558 0.424589 -0.878361 -49.226608
USER    NEWDPF quaternion0	-0.091444 0.176838 -0.365830 -0.909139
USER    NEWDPF dihe0	169.46 171.05 -179.50 -30.71 -149.34 13.75 146.76 -60.19 11.33 -5.25 -100.90 -18.47 -17.67 
USER  
USER                              x       y       z    vdW   Elec        q     RMS 
ATOM      1  O   UNL d   1     -14.520   3.168 -14.852 -0.01 +0.05    -0.289    17.806
ATOM      2  O   UNL d   1     -17.542  -3.651 -15.722 +0.00 +0.02    -0.289    17.806
ATOM      3  N   UNL d   1     -12.696   0.437 -15.904 -0.01 +0.25    -0.247    17.806
ATOM      4  N   UNL d   1     -14.624  -1.810 -15.654 -0.04 +0.19    -0.247    17.806
ATOM      5  N   UNL d   1     -12.412  -3.621 -15.962 -0.05 +0.29    -0.354    17.806
ATOM      6  N   UNL d   1     -10.416  -1.284 -16.201 -0.07 +0.38    -0.354    17.806
ATOM      7  C   UNL d   1     -12.154   2.749 -15.299 -0.11 -0.03    +0.084    17.806
ATOM      8  C   UNL d   1     -17.001  -1.265 -15.808 -0.00 -0.01    +0.084    17.806
ATOM      9  C   UNL d   1     -15.546  -0.791 -15.745 -0.04 -0.02    +0.058    17.806
ATOM     10  C   UNL d   1     -11.681   1.368 -15.762 -0.13 -0.04    +0.058    17.806
ATOM     11  C   UNL d   1     -13.618   2.439 -15.221 -0.04 -0.06    +0.193    17.806
ATOM     12  C   UNL d   1     -13.822   1.015 -15.637 -0.06 -0.06    +0.109    17.806
ATOM     13  C   UNL d   1     -16.737  -2.740 -15.699 -0.00 -0.03    +0.193    17.806
ATOM     14  C   UNL d   1     -11.645   3.090 -13.896 -0.15 -0.01    +0.026    17.806
ATOM     15  C   UNL d   1     -15.206   0.507 -15.728 -0.04 -0.02    +0.055    17.806
ATOM     16  C   UNL d   1     -17.634  -0.978 -17.173 -0.00 -0.00    +0.026    17.806
ATOM     17  C   UNL d   1     -15.259  -2.937 -15.604 -0.04 -0.04    +0.109    17.806
ATOM     18  C   UNL d   1     -10.394   1.137 -16.084 -0.19 -0.03    +0.050    17.806
ATOM     19  C   UNL d   1      -9.881  -0.080 -16.600 -0.19 -0.03    +0.045    17.806
ATOM     20  C   UNL d   1     -13.394  -4.507 -15.602 -0.13 -0.02    +0.045    17.806
ATOM     21  C   UNL d   1     -14.703  -4.288 -15.442 -0.08 -0.02    +0.057    17.806
ATOM     22  C   UNL d   1     -11.394  -5.609 -15.672 -0.27 +0.00    -0.019    17.806
ATOM     23  C   UNL d   1     -11.171  -4.194 -16.031 -0.25 -0.02    +0.045    17.806
ATOM     24  C   UNL d   1     -12.712  -5.788 -15.421 -0.17 +0.00    -0.022    17.806
ATOM     25  C   UNL d   1      -9.713  -2.331 -16.751 -0.21 -0.02    +0.049    17.806
ATOM     26  C   UNL d   1      -8.829  -0.351 -17.461 -0.13 +0.01    -0.018    17.806
ATOM     27  C   UNL d   1      -8.739  -1.773 -17.567 -0.17 -0.00    +0.003    17.806
ATOM     28  C   UNL d   1      -9.979  -3.672 -16.361 -0.24 -0.02    +0.052    17.806
ATOM     29  C   UNL d   1     -13.427  -7.038 -15.033 -0.18 -0.00    +0.046    17.806
ATOM     30  C   UNL d   1      -7.958   0.649 -18.145 -0.06 -0.01    +0.046    17.806
ATOM     31  H   UNL d   1     -12.635  -2.666 -16.222 -0.23 -0.19    +0.166    17.806
ATOM     32  H   UNL d   1     -11.194  -1.366 -15.556 -0.39 -0.42    +0.166    17.806
ATOM     33  C   UNL d   1     -11.899   3.896 -16.283 -0.03 -0.02    +0.141    17.806
ATOM     34  C   UNL d   1     -12.563   3.674 -17.615 +0.01 -0.03    +0.306    17.806
ATOM     35  O   UNL d   1     -12.045   3.187 -18.606 +0.00 +0.02    -0.251    17.806
ATOM     36  O   UNL d   1     -13.846   4.075 -17.628 +0.01 +0.03    -0.481    17.806
ATOM     37  H   UNL d   1     -14.070   4.216 -16.683 +0.02 -0.02    +0.295    17.806
ATOM     38  C   UNL d   1      -7.772  -2.483 -18.349 -0.19 -0.00    +0.017    17.806
ATOM     39  C   UNL d   1      -7.878  -3.764 -18.734 -0.23 -0.03    +0.092    17.806
ATOM     40  C   UNL d   1      -6.822  -4.370 -19.550 -0.17 -0.13    +0.330    17.806
ATOM     41  O   UNL d   1      -5.718  -3.920 -19.790 -0.20 +0.08    -0.246    17.806
ATOM     42  O   UNL d   1      -7.230  -5.557 -20.026 -0.13 +0.46    -0.477    17.806
ATOM     43  H   UNL d   1      -8.072  -5.722 -19.553 +0.06 -0.29    +0.295    17.806
ATOM     44  C   UNL d   1     -17.903  -0.783 -14.667 +0.00 -0.01    +0.141    17.806
ATOM     45  C   UNL d   1     -17.366  -1.121 -13.302 +0.00 -0.04    +0.306    17.806
ATOM     46  O   UNL d   1     -16.807  -0.360 -12.532 -0.02 +0.03    -0.251    17.806
ATOM     47  O   UNL d   1     -17.540  -2.417 -12.987 +0.01 +0.04    -0.481    17.806
ATOM     48  H   UNL d   1     -17.994  -2.803 -13.766 +0.02 -0.02    +0.295    17.806
ATOM     49  C   UNL d   1     -10.307  -6.640 -15.595 -0.25 -0.01    +0.048    17.806
ATOM     50  C   UNL d   1     -10.278  -7.530 -16.838 -0.23 -0.02    +0.125    17.806
ATOM     51  C   UNL d   1      -9.581  -6.840 -17.976 -0.19 -0.13    +0.305    17.806
ATOM     52  O   UNL d   1      -9.948  -5.846 -18.579 -0.14 +0.12    -0.251    17.806
ATOM     53  O   UNL d   1      -8.434  -7.460 -18.315 -0.49 +0.27    -0.481    17.806
ATOM     54  H   UNL d   1      -8.349  -7.296 -19.277 -0.34 -0.51    +0.295    17.806
TER
ENDMDL
MODEL       18
USER    Run = 18
USER    Cluster Rank = 57
USER    Number of conformations in this cluster = 1
USER  
USER    RMSD from reference structure       = 16.659 A
USER  
USER    Estimated Free Energy of Binding    =   -2.06 kcal/mol  [=(1)+(2)+(3)-(4)]
USER    Estimated Inhibition Constant, Ki   =   31.04 mM (millimolar)  [Temperature = 298.15 K]
USER    
USER    (1) Final Intermolecular Energy     =   -5.94 kcal/mol
USER        vdW + Hbond + desolv Energy     =   -5.97 kcal/mol
USER        Electrostatic Energy            =   +0.04 kcal/mol
USER    (2) Final Total Internal Energy     =   -4.74 kcal/mol
USER    (3) Torsional Free Energy           =   +3.88 kcal/mol
USER    (4) Unbound System's Energy  [=(2)] =   -4.74 kcal/mol
USER    
USER    
USER  
USER    DPF = D:/Protein_go_brrr/autodock/final/AncA/heme/dock.dpf
USER    NEWDPF move	heme_opt.pdbqt
USER    NEWDPF about	0.153000 0.018000 -0.028000
USER    NEWDPF tran0	-18.207224 5.297387 -6.177749
USER    NEWDPF axisangle0	-0.698977 -0.132253 -0.702808 86.713537
USER    NEWDPF quaternion0	-0.479875 -0.090797 -0.482505 0.727093
USER    NEWDPF dihe0	112.78 121.92 109.33 -65.77 -132.77 99.97 -45.61 12.53 30.13 -131.01 -74.46 -103.41 3.86 
USER  
USER                              x       y       z    vdW   Elec        q     RMS 
ATOM      1  O   UNL d   1     -21.765   0.601  -6.370 -0.05 -0.04    -0.289    16.659
ATOM      2  O   UNL d   1     -17.545   3.807 -11.689 -0.01 -0.00    -0.289    16.659
ATOM      3  N   UNL d   1     -19.921   3.463  -5.819 -0.15 -0.03    -0.247    16.659
ATOM      4  N   UNL d   1     -18.387   3.783  -8.343 -0.10 -0.03    -0.247    16.659
ATOM      5  N   UNL d   1     -16.742   5.714  -6.989 -0.05 +0.00    -0.354    16.659
ATOM      6  N   UNL d   1     -18.327   5.361  -4.369 -0.15 +0.01    -0.354    16.659
ATOM      7  C   UNL d   1     -21.259   1.969  -4.409 -0.18 +0.01    +0.084    16.659
ATOM      8  C   UNL d   1     -19.353   2.817 -10.369 -0.03 +0.00    +0.084    16.659
ATOM      9  C   UNL d   1     -19.409   3.013  -8.850 -0.08 +0.01    +0.058    16.659
ATOM     10  C   UNL d   1     -20.370   3.211  -4.533 -0.26 +0.01    +0.058    16.659
ATOM     11  C   UNL d   1     -21.247   1.575  -5.855 -0.09 +0.03    +0.193    16.659
ATOM     12  C   UNL d   1     -20.425   2.572  -6.610 -0.11 +0.02    +0.109    16.659
ATOM     13  C   UNL d   1     -18.088   3.588 -10.624 -0.02 +0.01    +0.193    16.659
ATOM     14  C   UNL d   1     -20.589   0.863  -3.589 -0.26 +0.00    +0.026    16.659
ATOM     15  C   UNL d   1     -20.346   2.440  -8.079 -0.10 +0.01    +0.055    16.659
ATOM     16  C   UNL d   1     -20.512   3.525 -11.076 -0.01 +0.00    +0.026    16.659
ATOM     17  C   UNL d   1     -17.599   4.115  -9.315 -0.09 +0.01    +0.109    16.659
ATOM     18  C   UNL d   1     -20.139   4.018  -3.481 -0.29 +0.01    +0.050    16.659
ATOM     19  C   UNL d   1     -19.403   5.229  -3.520 -0.26 +0.01    +0.045    16.659
ATOM     20  C   UNL d   1     -16.021   5.560  -8.145 -0.16 +0.00    +0.045    16.659
ATOM     21  C   UNL d   1     -16.344   4.879  -9.249 -0.15 +0.00    +0.057    16.659
ATOM     22  C   UNL d   1     -14.827   6.864  -6.699 -0.27 -0.00    -0.019    16.659
ATOM     23  C   UNL d   1     -16.101   6.485  -6.056 -0.18 -0.00    +0.045    16.659
ATOM     24  C   UNL d   1     -14.786   6.314  -7.936 -0.22 -0.00    -0.022    16.659
ATOM     25  C   UNL d   1     -17.707   6.574  -4.179 -0.29 -0.00    +0.049    16.659
ATOM     26  C   UNL d   1     -19.507   6.401  -2.786 -0.16 -0.00    -0.018    16.659
ATOM     27  C   UNL d   1     -18.446   7.254  -3.220 -0.21 +0.00    +0.003    16.659
ATOM     28  C   UNL d   1     -16.480   6.876  -4.829 -0.36 -0.00    +0.052    16.659
ATOM     29  C   UNL d   1     -13.716   6.419  -8.968 -0.25 +0.00    +0.046    16.659
ATOM     30  C   UNL d   1     -20.530   6.712  -1.747 -0.13 +0.01    +0.046    16.659
ATOM     31  H   UNL d   1     -17.683   5.346  -6.903 +0.04 +0.00    +0.166    16.659
ATOM     32  H   UNL d   1     -18.025   4.635  -5.008 -0.37 -0.03    +0.166    16.659
ATOM     33  C   UNL d   1     -22.692   2.232  -3.934 -0.06 +0.02    +0.141    16.659
ATOM     34  C   UNL d   1     -23.574   2.774  -5.026 -0.01 +0.03    +0.306    16.659
ATOM     35  O   UNL d   1     -23.599   3.926  -5.426 -0.01 -0.02    -0.251    16.659
ATOM     36  O   UNL d   1     -24.376   1.835  -5.559 +0.00 -0.05    -0.481    16.659
ATOM     37  H   UNL d   1     -23.769   1.245  -6.055 +0.02 +0.03    +0.295    16.659
ATOM     38  C   UNL d   1     -18.177   8.563  -2.706 -0.17 +0.00    +0.017    16.659
ATOM     39  C   UNL d   1     -17.089   8.910  -2.000 -0.20 -0.01    +0.092    16.659
ATOM     40  C   UNL d   1     -16.925  10.293  -1.545 -0.06 -0.01    +0.330    16.659
ATOM     41  O   UNL d   1     -17.183  10.750  -0.449 -0.04 +0.00    -0.246    16.659
ATOM     42  O   UNL d   1     -16.416  11.046  -2.533 -0.00 +0.01    -0.477    16.659
ATOM     43  H   UNL d   1     -15.570  10.604  -2.753 +0.07 -0.01    +0.295    16.659
ATOM     44  C   UNL d   1     -19.217   1.367 -10.843 -0.02 +0.01    +0.141    16.659
ATOM     45  C   UNL d   1     -19.182   1.232 -12.342 +0.00 +0.00    +0.306    16.659
ATOM     46  O   UNL d   1     -20.140   1.086 -13.081 -0.00 -0.00    -0.251    16.659
ATOM     47  O   UNL d   1     -17.930   1.263 -12.833 +0.01 +0.02    -0.481    16.659
ATOM     48  H   UNL d   1     -17.644   2.195 -12.726 +0.02 -0.01    +0.295    16.659
ATOM     49  C   UNL d   1     -13.772   7.708  -6.046 -0.11 +0.00    +0.048    16.659
ATOM     50  C   UNL d   1     -14.117   9.195  -6.102 -0.14 +0.00    +0.125    16.659
ATOM     51  C   UNL d   1     -14.548   9.698  -4.753 -0.10 -0.01    +0.305    16.659
ATOM     52  O   UNL d   1     -14.533   9.093  -3.696 -0.22 +0.03    -0.251    16.659
ATOM     53  O   UNL d   1     -14.998  10.967  -4.808 -0.00 +0.00    -0.481    16.659
ATOM     54  H   UNL d   1     -15.951  10.891  -4.588 +0.04 -0.00    +0.295    16.659
TER
ENDMDL


AVSFLD: # AVS field file
AVSFLD: #
AVSFLD: # Created by AutoDock
AVSFLD: #
AVSFLD: ndim=2           # number of dimensions in the field
AVSFLD: nspace=1         # number of physical coordinates
AVSFLD: veclen=7         # vector size
AVSFLD: dim1=54          # atoms
AVSFLD: dim2=57          # conformations
AVSFLD: data=Real       # data type (byte,integer,Real,double)
AVSFLD: field=uniform    # field coordinate layout
AVSFLD: label= x y z vdW Elec q RMS
AVSFLD: variable 1 file = D:/Protein_go_brrr/autodock/final/AncA/heme/dock.dlg.pdb filetype = ascii offset = 5 stride = 12
AVSFLD: variable 2 file = D:/Protein_go_brrr/autodock/final/AncA/heme/dock.dlg.pdb filetype = ascii offset = 6 stride = 12
AVSFLD: variable 3 file = D:/Protein_go_brrr/autodock/final/AncA/heme/dock.dlg.pdb filetype = ascii offset = 7 stride = 12
AVSFLD: variable 4 file = D:/Protein_go_brrr/autodock/final/AncA/heme/dock.dlg.pdb filetype = ascii offset = 8 stride = 12
AVSFLD: variable 5 file = D:/Protein_go_brrr/autodock/final/AncA/heme/dock.dlg.pdb filetype = ascii offset = 9 stride = 12
AVSFLD: variable 6 file = D:/Protein_go_brrr/autodock/final/AncA/heme/dock.dlg.pdb filetype = ascii offset = 10 stride = 12
AVSFLD: variable 7 file = D:/Protein_go_brrr/autodock/final/AncA/heme/dock.dlg.pdb filetype = ascii offset = 11 stride = 12
AVSFLD: # end of file

>>> Closing the docking parameter file (DPF)...
This docking finished at:			9:05 22" a.m., 09/30/2025


________________________________________________________________________________

D:/autodockScripts/autodock4.exe: Successful Completion on "ACER"

Real= 17h 01m 00.01s,  CPU= 5m 38.34s,  System= 1m 57.91s
________________________________________________________________________________

