          AutoDock 4.2 Release 4.2.6   
         (C) 1989-2012 The Scripps Research Institute
        AutoDock comes with ABSOLUTELY NO WARRANTY.
        AutoDock is free software, and you are welcome
        to redistribute it under certain conditions;
        for details type 'autodock4 -C'

                     main.cc  $Revision: 1.213 $

                   Compiled on Jul 18 2014 at 15:34:58


This file was created at:			1:23 20" p.m., 10/17/2025
                   on host:		"ACER"
Current Working Directory = "D:\Protein_go_brrr\autodock\final\mut_D99N\heme_O2"

      ________________________________________________________________

                   SETTING UP DEFAULT PARAMETER LIBRARY
      ________________________________________________________________


Random number generator was seeded with values 27672, 1760700200.
Docking parameter file (DPF) used for this docking:		D:/Protein_go_brrr/autodock/final/mut_D99N/heme_O2/dock.dpf
DPF> autodock_parameter_version 4.2       # used by autodock to validate parameter set

	Autodock parameter version 4.2.
DPF> outlev 1                             # diagnostic output level

Output Level = 1  ADT-COMPATIBLE OUTPUT DURING DOCKING.
DPF> intelec                              # calculate internal electrostatics

Electrostatic energies will be calculated for all non-bonds between moving atoms.
DPF> seed pid time                        # seeds for random generator

Random number generator was seeded with values 27672, 1760700200.
DPF> ligand_types A C OA N Fe HD          # atoms types in ligand

DPF> fld mut_D99N_m0.maps.fld             # grid_data_file

Opening Grid Map Dimensions file:		mut_D99N_m0.maps.fld
Grid Point Spacing =				0.669 Angstroms

Even Number of User-specified Grid Points =	126 x-points
						126 y-points
						124 z-points

Coordinates of Central Grid Point of Maps =	(-0.119, -0.072, -0.886)
Macromolecule file used to create Grid Maps =	mut_D99N_m0.pdbqt
Grid Parameter file used to create Grid Maps =	D:/Protein_go_brrr/autodock/final/mut_D99N/heme_O2/grid.gpf
Minimum coordinates in grid = (-42.266, -42.219, -42.364)
Maximum coordinates in grid = (42.028, 42.075, 40.592)

DPF> map mut_D99N_m0.A.map                # atom-specific affinity map

DPF> map mut_D99N_m0.C.map                # atom-specific affinity map

DPF> map mut_D99N_m0.OA.map               # atom-specific affinity map

DPF> map mut_D99N_m0.N.map                # atom-specific affinity map

DPF> map mut_D99N_m0.Fe.map               # atom-specific affinity map

DPF> map mut_D99N_m0.HD.map               # atom-specific affinity map

DPF> elecmap mut_D99N_m0.e.map            # electrostatics map

DPF> desolvmap mut_D99N_m0.d.map          # desolvation map

DPF> move heme_O2_opt.pdbqt               # small molecule

1,4-interactions will be _ignored_ in the non-bonded internal energy calculation.

Ligand PDBQT file = "heme_O2_opt.pdbqt"

INPUT LIGAND PDBQT FILE:
________________________

INPUT-LIGAND-PDBQT: REMARK  10 active torsions:
INPUT-LIGAND-PDBQT: REMARK  status: ('A' for Active; 'I' for Inactive)
INPUT-LIGAND-PDBQT: REMARK    1  A    between atoms: C_6  and  C_10 
INPUT-LIGAND-PDBQT: REMARK    2  A    between atoms: C_10  and  C_11 
INPUT-LIGAND-PDBQT: REMARK    3  A    between atoms: C_11  and  C_12 
INPUT-LIGAND-PDBQT: REMARK    4  A    between atoms: C_12  and  O_14 
INPUT-LIGAND-PDBQT: REMARK    5  A    between atoms: C_17  and  C_20 
INPUT-LIGAND-PDBQT: REMARK    6  A    between atoms: C_24  and  C_27 
INPUT-LIGAND-PDBQT: REMARK    7  A    between atoms: C_31  and  C_34 
INPUT-LIGAND-PDBQT: REMARK    8  A    between atoms: C_34  and  C_35 
INPUT-LIGAND-PDBQT: REMARK    9  A    between atoms: C_35  and  C_36 
INPUT-LIGAND-PDBQT: REMARK   10  A    between atoms: C_36  and  O_38 
INPUT-LIGAND-PDBQT: ROOT
INPUT-LIGAND-PDBQT: ATOM      1  C   UNL d   1       6.417  35.070  -1.470  0.00  0.00     0.064 A 
INPUT-LIGAND-PDBQT: ATOM      2  C   UNL d   1       7.592  32.343   2.237  0.00  0.00     0.064 A 
INPUT-LIGAND-PDBQT: ATOM      3  C   UNL d   1      12.269  32.904   1.285  0.00  0.00     0.064 C 
INPUT-LIGAND-PDBQT: ATOM      4  C   UNL d   1      11.084  36.099  -2.244  0.00  0.00     0.064 A 
INPUT-LIGAND-PDBQT: ATOM      5  C   UNL d   1       6.355  34.284  -0.383  0.00  0.00     0.066 A 
INPUT-LIGAND-PDBQT: ATOM      6  C   UNL d   1       5.162  33.858   0.208  0.00  0.00    -0.021 A 
INPUT-LIGAND-PDBQT: ATOM      7  C   UNL d   1       5.501  33.104   1.307  0.00  0.00    -0.025 A 
INPUT-LIGAND-PDBQT: ATOM      8  C   UNL d   1       6.892  33.050   1.329  0.00  0.00     0.066 A 
INPUT-LIGAND-PDBQT: ATOM      9  C   UNL d   1       4.513  32.505   2.284  0.00  0.00     0.051 C 
INPUT-LIGAND-PDBQT: ATOM     10  C   UNL d   1       9.050  32.230   2.297  0.00  0.00     0.066 A 
INPUT-LIGAND-PDBQT: ATOM     11  C   UNL d   1       9.719  31.353   3.158  0.00  0.00    -0.021 A 
INPUT-LIGAND-PDBQT: ATOM     12  C   UNL d   1      11.068  31.487   2.886  0.00  0.00     0.000 A 
INPUT-LIGAND-PDBQT: ATOM     13  C   UNL d   1      11.148  32.469   1.860  0.00  0.00     0.070 A 
INPUT-LIGAND-PDBQT: ATOM     14  C   UNL d   1       9.096  30.407   4.178  0.00  0.00     0.052 C 
INPUT-LIGAND-PDBQT: ATOM     15  C   UNL d   1      12.395  33.921   0.269  0.00  0.00     0.066 A 
INPUT-LIGAND-PDBQT: ATOM     16  C   UNL d   1      13.607  34.449  -0.175  0.00  0.00    -0.021 A 
INPUT-LIGAND-PDBQT: ATOM     17  C   UNL d   1      13.294  35.363  -1.181  0.00  0.00     0.000 A 
INPUT-LIGAND-PDBQT: ATOM     18  C   UNL d   1      11.896  35.322  -1.278  0.00  0.00     0.070 A 
INPUT-LIGAND-PDBQT: ATOM     19  C   UNL d   1      14.937  34.079   0.432  0.00  0.00     0.052 C 
INPUT-LIGAND-PDBQT: ATOM     20  C   UNL d   1       9.740  36.116  -2.335  0.00  0.00     0.066 A 
INPUT-LIGAND-PDBQT: ATOM     21  C   UNL d   1       9.031  36.855  -3.278  0.00  0.00    -0.025 A 
INPUT-LIGAND-PDBQT: ATOM     22  C   UNL d   1       7.701  36.553  -3.090  0.00  0.00    -0.021 A 
INPUT-LIGAND-PDBQT: ATOM     23  C   UNL d   1       7.646  35.651  -2.023  0.00  0.00     0.066 A 
INPUT-LIGAND-PDBQT: ATOM     24  C   UNL d   1       9.594  37.804  -4.304  0.00  0.00     0.051 C 
INPUT-LIGAND-PDBQT: ATOM     25  N   UNL d   1       7.418  33.831   0.326  0.00  0.00    -0.248 N 
INPUT-LIGAND-PDBQT: ATOM     26  N   UNL d   1       9.916  32.919   1.511  0.00  0.00    -0.248 N 
INPUT-LIGAND-PDBQT: ATOM     27  N   UNL d   1      11.363  34.498  -0.340  0.00  0.00    -0.248 N 
INPUT-LIGAND-PDBQT: ATOM     28  N   UNL d   1       8.884  35.423  -1.538  0.00  0.00    -0.248 N 
INPUT-LIGAND-PDBQT: ATOM     29 FE   UNL d   1       9.399  34.181  -0.025  0.00  0.00     0.000 Fe
INPUT-LIGAND-PDBQT: ATOM     30  O   UNL d   1       8.866  34.841   1.280  0.00  0.00     0.000 OA
INPUT-LIGAND-PDBQT: ATOM     31  O   UNL d   1       9.881  35.626   0.366  0.00  0.00     0.000 OA
INPUT-LIGAND-PDBQT: ENDROOT
INPUT-LIGAND-PDBQT: BRANCH   6  32
INPUT-LIGAND-PDBQT: ATOM     32  C   UNL d   1       3.756  34.255  -0.161  0.00  0.00     0.052 C 
INPUT-LIGAND-PDBQT: BRANCH  32  33
INPUT-LIGAND-PDBQT: ATOM     33  C   UNL d   1       3.190  33.429  -1.312  0.00  0.00     0.115 C 
INPUT-LIGAND-PDBQT: BRANCH  33  34
INPUT-LIGAND-PDBQT: ATOM     34  C   UNL d   1       1.764  33.798  -1.638  0.00  0.00     0.139 C 
INPUT-LIGAND-PDBQT: ATOM     35  O   UNL d   1       1.015  32.956  -2.107  0.00  0.00    -0.650 OA
INPUT-LIGAND-PDBQT: BRANCH  34  36
INPUT-LIGAND-PDBQT: ATOM     36  O   UNL d   1       1.301  35.051  -1.449  0.00  0.00    -0.776 OA
INPUT-LIGAND-PDBQT: ATOM     37  H   UNL d   1       1.861  35.756  -1.104  0.00  0.00     0.167 HD
INPUT-LIGAND-PDBQT: ENDBRANCH  34  36
INPUT-LIGAND-PDBQT: ENDBRANCH  33  34
INPUT-LIGAND-PDBQT: ENDBRANCH  32  33
INPUT-LIGAND-PDBQT: ENDBRANCH   6  32
INPUT-LIGAND-PDBQT: BRANCH  22  38
INPUT-LIGAND-PDBQT: ATOM     38  C   UNL d   1       6.548  37.151  -3.854  0.00  0.00     0.052 C 
INPUT-LIGAND-PDBQT: BRANCH  38  39
INPUT-LIGAND-PDBQT: ATOM     39  C   UNL d   1       6.010  36.208  -4.928  0.00  0.00     0.115 C 
INPUT-LIGAND-PDBQT: BRANCH  39  40
INPUT-LIGAND-PDBQT: ATOM     40  C   UNL d   1       4.838  36.794  -5.675  0.00  0.00     0.139 C 
INPUT-LIGAND-PDBQT: ATOM     41  O   UNL d   1       4.700  36.561  -6.865  0.00  0.00    -0.650 OA
INPUT-LIGAND-PDBQT: BRANCH  40  42
INPUT-LIGAND-PDBQT: ATOM     42  O   UNL d   1       3.907  37.532  -5.040  0.00  0.00    -0.776 OA
INPUT-LIGAND-PDBQT: ATOM     43  H   UNL d   1       3.982  37.740  -4.101  0.00  0.00     0.167 HD
INPUT-LIGAND-PDBQT: ENDBRANCH  40  42
INPUT-LIGAND-PDBQT: ENDBRANCH  39  40
INPUT-LIGAND-PDBQT: ENDBRANCH  38  39
INPUT-LIGAND-PDBQT: ENDBRANCH  22  38
INPUT-LIGAND-PDBQT: BRANCH  12  44
INPUT-LIGAND-PDBQT: ATOM     44  C   UNL d   1      12.120  30.683   3.621  0.00  0.00     0.004 C 
INPUT-LIGAND-PDBQT: ATOM     45  C   UNL d   1      13.434  30.659   3.401  0.00  0.00     0.012 C 
INPUT-LIGAND-PDBQT: ENDBRANCH  12  44
INPUT-LIGAND-PDBQT: BRANCH  17  46
INPUT-LIGAND-PDBQT: ATOM     46  C   UNL d   1      14.171  36.282  -1.989  0.00  0.00     0.004 C 
INPUT-LIGAND-PDBQT: ATOM     47  C   UNL d   1      15.480  36.522  -1.839  0.00  0.00     0.012 C 
INPUT-LIGAND-PDBQT: ENDBRANCH  17  46
INPUT-LIGAND-PDBQT: TORSDOF 10
________________________________________________________________________________

Total charge on ligand                               =	-2.002 e
REMARK  10 active torsions:
REMARK  status: ('A' for Active; 'I' for Inactive)
REMARK    1  A    between atoms: C_6  and  C_10 
REMARK    2  A    between atoms: C_10  and  C_11 
REMARK    3  A    between atoms: C_11  and  C_12 
REMARK    4  A    between atoms: C_12  and  O_14 
REMARK    5  A    between atoms: C_17  and  C_20 
REMARK    6  A    between atoms: C_24  and  C_27 
REMARK    7  A    between atoms: C_31  and  C_34 
REMARK    8  A    between atoms: C_34  and  C_35 
REMARK    9  A    between atoms: C_35  and  C_36 
REMARK   10  A    between atoms: C_36  and  O_38 


Number of Rotatable Bonds in Small Molecule =	10 torsions
Number of atoms in ligand:  47

Number of non-hydrogen atoms in ligand:  45

Number of vibrational degrees of freedom of ligand:  135


Number of torsional degrees of freedom = 10
Estimated loss of torsional free energy upon binding = +2.9830 kcal/mol


DPF> about 8.287 34.468 -0.670            # small molecule center

Small molecule center of rotation =	(+8.287, +34.468, -0.670)

DPF> tran0 random                         # initial coordinates/A or random

Initial translation =			(4.184, 18.779, -3.390) Angstroms
DPF> quaternion0 random                   # initial orientation

Each run will begin with a new, random initial orientation.
Initial quaternion,  (x,y,z,w) =	( 0.448, 0.739, -0.341, -0.370 ),
DPF> dihe0 random                         # initial dihedrals (relative) or random

DPF> torsdof 10                            # torsional degrees of freedom

Number of torsional degrees of freedom = 10
Free energy coefficient for torsional degrees of freedom = 0.2983, the factory default value.

Estimated loss of torsional free energy upon binding = +2.9830 kcal/mol

DPF> rmstol 2.0                           # cluster_tolerance/A

Maximum RMS tolerance for conformational cluster analysis = 2.00 Angstroms
DPF> extnrg 1000.0                        # external grid energy

External grid energy (beyond grid map walls) = 1000.00

DPF> e0max 0.0 10000                      # max initial energy; max number of retries

Using user-specified maximum number of retries for simanneal initialization, 10000 retries.
If the simanneal initial energy is greater than e0max, 0.000,
then a new, random initial state will be created.

DPF> ga_pop_size 150                      # number of individuals in population

A population of 150 individuals will be used
DPF> ga_num_evals 25000000                # maximum number of energy evaluations

There will be at most 25000000 function evaluations used.
DPF> ga_num_generations 27000             # maximum number of generations

The GA will run for at most 27000 generations.
DPF> ga_elitism 1                         # number of top individuals to survive to next generation

The 1 best will be preserved each GA generation.
DPF> ga_mutation_rate 0.02                # rate of gene mutation

The mutation rate is 0.020000.
DPF> ga_crossover_rate 0.8                # rate of crossover

The crossover rate is 0.800000.
DPF> ga_window_size 10                    # 

The GA's selection window is 10 generations.
DPF> ga_cauchy_alpha 0.0                  # Alpha parameter of Cauchy distribution

The alpha parameter (for the Cauchy distribution) is being set to 0.000000.
DPF> ga_cauchy_beta 1.0                   # Beta parameter Cauchy distribution

The beta parameter (for the Cauchy distribution) is being set to 1.000000.
DPF> set_ga                               # set the above parameters for GA or LGA

DPF> sw_max_its 300                       # iterations of Solis & Wets local search

Solis & Wets algorithms will perform at most 300 iterations.
DPF> sw_max_succ 4                        # consecutive successes before changing rho

Solis & Wets algorithms expand rho every 4 in a row successes.
DPF> sw_max_fail 4                        # consecutive failures before changing rho

Solis & Wets algorithms contract rho every 4 in a row failures.
DPF> sw_rho 1.0                           # size of local search space to sample

rho is set to 1.000000.
DPF> sw_lb_rho 0.01                       # lower bound on rho

rho will never get smaller than 0.010000.
DPF> ls_search_freq 0.06                  # probability of performing local search on individual

Local search will be performed with frequency 0.060000.
DPF> set_psw1                             # set the above pseudo-Solis & Wets parameters

Creating a new Local Search object using the pseudo-Solis-Wets algorithm (pSW1) with the current settings.

DPF> unbound_model bound                  # state of unbound ligand

DPF> ga_run 100                           # do this many hybrid GA-LS runs

centering ligand on specified point: 8.287 34.468 -0.670
Furthest true ligand atom from "about" center is 7.588 Angstroms (maxrad).
Number of requested GA dockings = 100 runs
Unbound model to be used is 'same as bound' [AutoDock 4.2 default].

	BEGINNING GENETIC ALGORITHM DOCKING 1 of 100
Run: 1 Seed: 1503198369 820448780 [ Run 1 of 100 GA/GALS ]
Beginning LAMARCKIAN GENETIC ALGORITHM (LGA), with a maximum of 25000000 energy evaluations.

Final-Value: -10.923


	FINAL GENETIC ALGORITHM DOCKED STATE
	_______________________________________________


Detailed state:  trans 6.266 -0.110 -17.839 quatxyzw -0.836504 0.025090 -0.167866 0.521011 center 8.287 34.468 -0.670 ntor 10 12.9740 94.4064 53.8208 -124.1596 18.0694 132.4126 10.9308 51.3330 46.2175 122.2249
State:	  6.266  -0.110 -17.839  -0.980  0.029 -0.197 117.200     12.97   94.41   53.82 -124.16   18.07  132.41   10.93   51.33   46.22  122.22

DOCKED: MODEL        1
DOCKED: USER    Run = 1
DOCKED: USER    DPF = D:/Protein_go_brrr/autodock/final/mut_D99N/heme_O2/dock.dpf
DOCKED: USER  
DOCKED: USER    Estimated Free Energy of Binding    =   -6.43 kcal/mol  [=(1)+(2)+(3)-(4)]
DOCKED: USER    Estimated Inhibition Constant, Ki   =   19.34 uM (micromolar)  [Temperature = 298.15 K]
DOCKED: USER    
DOCKED: USER    (1) Final Intermolecular Energy     =   -9.41 kcal/mol
DOCKED: USER        vdW + Hbond + desolv Energy     =   -7.13 kcal/mol
DOCKED: USER        Electrostatic Energy            =   -2.28 kcal/mol
DOCKED: USER    (2) Final Total Internal Energy     =   -1.51 kcal/mol
DOCKED: USER    (3) Torsional Free Energy           =   +2.98 kcal/mol
DOCKED: USER    (4) Unbound System's Energy  [=(2)] =   -1.51 kcal/mol
DOCKED: USER    
DOCKED: USER    
DOCKED: USER    NEWDPF move heme_O2_opt.pdbqt
DOCKED: USER    NEWDPF about 8.287000 34.468000 -0.670000
DOCKED: USER    NEWDPF tran0 6.266035 -0.110340 -17.838650
DOCKED: USER    NEWDPF quaternion0 -0.836504 0.025090 -0.167866 0.521011
DOCKED: USER    NEWDPF axisangle0 -0.980029 0.029395 -0.196668 117.199804
DOCKED: USER    NEWDPF quat0 -0.980029 0.029395 -0.196668 117.199804
DOCKED: USER    NEWDPF dihe0 12.97 94.41 53.82 -124.16 18.07 132.41 10.93 51.33 46.22 122.22 
DOCKED: USER  keepresnum = 1 
DOCKED: USER  
DOCKED: REMARK  10 active torsions:
DOCKED: REMARK  status: ('A' for Active; 'I' for Inactive)
DOCKED: REMARK    1  A    between atoms: C_6  and  C_10 
DOCKED: REMARK    2  A    between atoms: C_10  and  C_11 
DOCKED: REMARK    3  A    between atoms: C_11  and  C_12 
DOCKED: REMARK    4  A    between atoms: C_12  and  O_14 
DOCKED: REMARK    5  A    between atoms: C_17  and  C_20 
DOCKED: REMARK    6  A    between atoms: C_24  and  C_27 
DOCKED: REMARK    7  A    between atoms: C_31  and  C_34 
DOCKED: REMARK    8  A    between atoms: C_34  and  C_35 
DOCKED: REMARK    9  A    between atoms: C_35  and  C_36 
DOCKED: REMARK   10  A    between atoms: C_36  and  O_38 
DOCKED: USER                              x       y       z     vdW  Elec       q    Type
DOCKED: USER                           _______ _______ _______ _____ _____    ______ ____
DOCKED: ROOT
DOCKED: ATOM      1  C   UNL d   1       4.169   0.071 -17.572 -0.18 +0.02    +0.064 A 
DOCKED: ATOM      2  C   UNL d   1       6.812  -1.792 -21.051 -0.12 +0.01    +0.064 A 
DOCKED: ATOM      3  C   UNL d   1      10.856  -0.589 -18.750 -0.06 +0.02    +0.064 C 
DOCKED: ATOM      4  C   UNL d   1       8.147   0.903 -14.941 -0.11 +0.02    +0.064 A 
DOCKED: ATOM      5  C   UNL d   1       4.558  -0.536 -18.706 -0.19 +0.02    +0.066 A 
DOCKED: ATOM      6  C   UNL d   1       3.677  -1.020 -19.676 -0.21 -0.01    -0.021 A 
DOCKED: ATOM      7  C   UNL d   1       4.440  -1.599 -20.664 -0.08 -0.01    -0.025 A 
DOCKED: ATOM      8  C   UNL d   1       5.768  -1.409 -20.292 -0.12 +0.01    +0.066 A 
DOCKED: ATOM      9  C   UNL d   1       3.888  -2.317 -21.876 -0.16 +0.01    +0.051 C 
DOCKED: ATOM     10  C   UNL d   1       8.226  -1.600 -20.725 -0.11 +0.01    +0.066 A 
DOCKED: ATOM     11  C   UNL d   1       9.266  -1.869 -21.622 -0.07 -0.00    -0.021 A 
DOCKED: ATOM     12  C   UNL d   1      10.439  -1.511 -20.983 -0.03 +0.00    +0.000 A 
DOCKED: ATOM     13  C   UNL d   1      10.040  -1.045 -19.700 -0.04 +0.02    +0.070 A 
DOCKED: ATOM     14  C   UNL d   1       9.144  -2.418 -23.039 -0.06 +0.00    +0.052 C 
DOCKED: ATOM     15  C   UNL d   1      10.495  -0.141 -17.426 -0.07 +0.03    +0.066 A 
DOCKED: ATOM     16  C   UNL d   1      11.410   0.170 -16.420 -0.07 -0.01    -0.021 A 
DOCKED: ATOM     17  C   UNL d   1      10.660   0.597 -15.324 -0.11 +0.00    +0.000 A 
DOCKED: ATOM     18  C   UNL d   1       9.327   0.515 -15.750 -0.09 +0.03    +0.070 A 
DOCKED: ATOM     19  C   UNL d   1      12.898  -0.019 -16.575 -0.06 +0.01    +0.052 C 
DOCKED: ATOM     20  C   UNL d   1       6.854   0.797 -15.303 -0.17 +0.02    +0.066 A 
DOCKED: ATOM     21  C   UNL d   1       5.785   1.196 -14.505 -0.23 -0.01    -0.025 A 
DOCKED: ATOM     22  C   UNL d   1       4.645   0.991 -15.249 -0.21 -0.01    -0.021 A 
DOCKED: ATOM     23  C   UNL d   1       5.061   0.456 -16.472 -0.15 +0.02    +0.066 A 
DOCKED: ATOM     24  C   UNL d   1       5.849   1.741 -13.101 -0.22 +0.01    +0.051 C 
DOCKED: ATOM     25  N   UNL d   1       5.839  -0.812 -19.054 -0.10 -0.06    -0.248 N 
DOCKED: ATOM     26  N   UNL d   1       8.693  -1.107 -19.550 -0.05 -0.06    -0.248 N 
DOCKED: ATOM     27  N   UNL d   1       9.242  -0.006 -17.001 -0.08 -0.10    -0.248 N 
DOCKED: ATOM     28  N   UNL d   1       6.400   0.298 -16.483 -0.08 -0.07    -0.248 N 
DOCKED: ATOM     29 FE   UNL d   1       7.540  -0.399 -18.004 -0.03 +0.00    +0.000 Fe
DOCKED: ATOM     30  O   UNL d   1       7.227  -1.920 -18.120 -0.36 +0.00    +0.000 OA
DOCKED: ATOM     31  O   UNL d   1       7.781  -1.338 -16.765 -0.34 +0.00    +0.000 OA
DOCKED: ENDROOT
DOCKED: BRANCH   6  32
DOCKED: ATOM     32  C   UNL d   1       2.172  -1.064 -19.617 -0.09 +0.02    +0.052 C 
DOCKED: BRANCH  32  33
DOCKED: ATOM     33  C   UNL d   1       1.513  -0.485 -20.866 -0.14 +0.05    +0.115 C 
DOCKED: BRANCH  33  34
DOCKED: ATOM     34  C   UNL d   1       0.020  -0.338 -20.713 -0.14 +0.12    +0.139 C 
DOCKED: ATOM     35  O   UNL d   1      -0.719  -0.730 -21.602 -0.02 -0.42    -0.650 OA
DOCKED: BRANCH  34  36
DOCKED: ATOM     36  O   UNL d   1      -0.522   0.244 -19.623 -0.50 -1.25    -0.776 OA
DOCKED: ATOM     37  H   UNL d   1       0.009   0.751 -18.998 +0.00 +0.23    +0.167 HD
DOCKED: ENDBRANCH  34  36
DOCKED: ENDBRANCH  33  34
DOCKED: ENDBRANCH  32  33
DOCKED: ENDBRANCH   6  32
DOCKED: BRANCH  22  38
DOCKED: ATOM     38  C   UNL d   1       3.234   1.238 -14.781 -0.33 +0.02    +0.052 C 
DOCKED: BRANCH  38  39
DOCKED: ATOM     39  C   UNL d   1       2.287   0.102 -15.163 -0.32 +0.05    +0.115 C 
DOCKED: BRANCH  39  40
DOCKED: ATOM     40  C   UNL d   1       1.034   0.600 -15.839 -0.21 +0.11    +0.139 C 
DOCKED: ATOM     41  O   UNL d   1       0.100   1.001 -15.163 -0.52 -0.68    -0.650 OA
DOCKED: BRANCH  40  42
DOCKED: ATOM     42  O   UNL d   1       0.944   0.660 -17.182 +0.07 -0.73    -0.776 OA
DOCKED: ATOM     43  H   UNL d   1       0.521  -0.042 -17.691 -0.45 +0.27    +0.167 HD
DOCKED: ENDBRANCH  40  42
DOCKED: ENDBRANCH  39  40
DOCKED: ENDBRANCH  38  39
DOCKED: ENDBRANCH  22  38
DOCKED: BRANCH  12  44
DOCKED: ATOM     44  C   UNL d   1      11.792  -1.652 -21.649 -0.01 +0.00    +0.004 C 
DOCKED: ATOM     45  C   UNL d   1      12.892  -2.220 -21.156 -0.01 +0.00    +0.012 C 
DOCKED: ENDBRANCH  12  44
DOCKED: BRANCH  17  46
DOCKED: ATOM     46  C   UNL d   1      11.082   1.006 -13.938 -0.18 +0.00    +0.004 C 
DOCKED: ATOM     47  C   UNL d   1      10.584   0.593 -12.765 -0.33 +0.00    +0.012 C 
DOCKED: ENDBRANCH  17  46
DOCKED: TORSDOF 10
DOCKED: TER
DOCKED: ENDMDL
________________________________________________________________________________


	BEGINNING GENETIC ALGORITHM DOCKING 2 of 100
Run: 2 Seed: 1183370008 1553980668 [ Run 2 of 100 GA/GALS ]
Beginning LAMARCKIAN GENETIC ALGORITHM (LGA), with a maximum of 25000000 energy evaluations.

Final-Value: -10.453


	FINAL GENETIC ALGORITHM DOCKED STATE
	_______________________________________________


Detailed state:  trans -14.520 5.492 8.910 quatxyzw 0.609474 0.285822 -0.579432 0.459463 center 8.287 34.468 -0.670 ntor 10 111.6910 49.9251 -45.7443 -94.2368 -123.9167 -91.5229 -137.1784 -23.8098 1.4538 178.5784
State:	-14.520   5.492   8.910   0.686  0.322 -0.652 125.295    111.69   49.93  -45.74  -94.24 -123.92  -91.52 -137.18  -23.81    1.45  178.58

DOCKED: MODEL        2
DOCKED: USER    Run = 2
DOCKED: USER    DPF = D:/Protein_go_brrr/autodock/final/mut_D99N/heme_O2/dock.dpf
DOCKED: USER  
DOCKED: USER    Estimated Free Energy of Binding    =   -6.72 kcal/mol  [=(1)+(2)+(3)-(4)]
DOCKED: USER    Estimated Inhibition Constant, Ki   =   11.80 uM (micromolar)  [Temperature = 298.15 K]
DOCKED: USER    
DOCKED: USER    (1) Final Intermolecular Energy     =   -9.71 kcal/mol
DOCKED: USER        vdW + Hbond + desolv Energy     =   -6.69 kcal/mol
DOCKED: USER        Electrostatic Energy            =   -3.02 kcal/mol
DOCKED: USER    (2) Final Total Internal Energy     =   -0.75 kcal/mol
DOCKED: USER    (3) Torsional Free Energy           =   +2.98 kcal/mol
DOCKED: USER    (4) Unbound System's Energy  [=(2)] =   -0.75 kcal/mol
DOCKED: USER    
DOCKED: USER    
DOCKED: USER    NEWDPF move heme_O2_opt.pdbqt
DOCKED: USER    NEWDPF about 8.287000 34.468000 -0.670000
DOCKED: USER    NEWDPF tran0 -14.519509 5.492284 8.910299
DOCKED: USER    NEWDPF quaternion0 0.609474 0.285822 -0.579432 0.459463
DOCKED: USER    NEWDPF axisangle0 0.686193 0.321800 -0.652368 125.295112
DOCKED: USER    NEWDPF quat0 0.686193 0.321800 -0.652368 125.295112
DOCKED: USER    NEWDPF dihe0 111.69 49.93 -45.74 -94.24 -123.92 -91.52 -137.18 -23.81 1.45 178.58 
DOCKED: USER  keepresnum = 1 
DOCKED: USER  
DOCKED: REMARK  10 active torsions:
DOCKED: REMARK  status: ('A' for Active; 'I' for Inactive)
DOCKED: REMARK    1  A    between atoms: C_6  and  C_10 
DOCKED: REMARK    2  A    between atoms: C_10  and  C_11 
DOCKED: REMARK    3  A    between atoms: C_11  and  C_12 
DOCKED: REMARK    4  A    between atoms: C_12  and  O_14 
DOCKED: REMARK    5  A    between atoms: C_17  and  C_20 
DOCKED: REMARK    6  A    between atoms: C_24  and  C_27 
DOCKED: REMARK    7  A    between atoms: C_31  and  C_34 
DOCKED: REMARK    8  A    between atoms: C_34  and  C_35 
DOCKED: REMARK    9  A    between atoms: C_35  and  C_36 
DOCKED: REMARK   10  A    between atoms: C_36  and  O_38 
DOCKED: USER                              x       y       z     vdW  Elec       q    Type
DOCKED: USER                           _______ _______ _______ _____ _____    ______ ____
DOCKED: ROOT
DOCKED: ATOM      1  C   UNL d   1     -14.164   3.413   9.128 -0.09 +0.02    +0.064 A 
DOCKED: ATOM      2  C   UNL d   1     -17.060   6.426  11.385 -0.03 +0.02    +0.064 A 
DOCKED: ATOM      3  C   UNL d   1     -15.468  10.095   8.721 -0.16 -0.01    +0.064 C 
DOCKED: ATOM      4  C   UNL d   1     -12.833   6.920   6.068 -0.18 -0.01    +0.064 A 
DOCKED: ATOM      5  C   UNL d   1     -15.083   3.932   9.958 +0.00 +0.03    +0.066 A 
DOCKED: ATOM      6  C   UNL d   1     -15.774   3.193  10.923 -0.09 -0.01    -0.021 A 
DOCKED: ATOM      7  C   UNL d   1     -16.644   4.056  11.547 -0.07 -0.01    -0.025 A 
DOCKED: ATOM      8  C   UNL d   1     -16.426   5.309  10.980 +0.02 +0.02    +0.066 A 
DOCKED: ATOM      9  C   UNL d   1     -17.644   3.657  12.611 -0.02 +0.01    +0.051 C 
DOCKED: ATOM     10  C   UNL d   1     -16.856   7.771  10.844 -0.06 +0.01    +0.066 A 
DOCKED: ATOM     11  C   UNL d   1     -17.419   8.921  11.410 -0.06 -0.00    -0.021 A 
DOCKED: ATOM     12  C   UNL d   1     -16.957   9.991  10.667 -0.07 -0.00    +0.000 A 
DOCKED: ATOM     13  C   UNL d   1     -16.131   9.420   9.660 -0.11 -0.00    +0.070 A 
DOCKED: ATOM     14  C   UNL d   1     -18.336   8.997  12.625 -0.03 +0.00    +0.052 C 
DOCKED: ATOM     15  C   UNL d   1     -14.650   9.552   7.663 -0.16 -0.01    +0.066 A 
DOCKED: ATOM     16  C   UNL d   1     -14.117  10.300   6.613 -0.20 +0.01    -0.021 A 
DOCKED: ATOM     17  C   UNL d   1     -13.362   9.415   5.843 -0.26 -0.00    +0.000 A 
DOCKED: ATOM     18  C   UNL d   1     -13.492   8.178   6.491 -0.22 -0.01    +0.070 A 
DOCKED: ATOM     19  C   UNL d   1     -14.418  11.763   6.410 -0.18 -0.02    +0.052 C 
DOCKED: ATOM     20  C   UNL d   1     -12.970   5.708   6.641 -0.22 +0.00    +0.066 A 
DOCKED: ATOM     21  C   UNL d   1     -12.309   4.562   6.208 -0.25 -0.00    -0.025 A 
DOCKED: ATOM     22  C   UNL d   1     -12.655   3.558   7.085 -0.21 -0.00    -0.021 A 
DOCKED: ATOM     23  C   UNL d   1     -13.532   4.128   8.014 -0.14 +0.02    +0.066 A 
DOCKED: ATOM     24  C   UNL d   1     -11.397   4.430   5.017 -0.36 +0.00    +0.051 C 
DOCKED: ATOM     25  N   UNL d   1     -15.511   5.219   9.957 +0.11 -0.12    -0.248 N 
DOCKED: ATOM     26  N   UNL d   1     -16.079   8.068   9.773 -0.06 -0.03    -0.248 N 
DOCKED: ATOM     27  N   UNL d   1     -14.337   8.265   7.550 -0.12 +0.01    -0.248 N 
DOCKED: ATOM     28  N   UNL d   1     -13.756   5.424   7.713 -0.11 -0.04    -0.248 N 
DOCKED: ATOM     29 FE   UNL d   1     -14.908   6.738   8.733 -0.04 +0.00    +0.000 Fe
DOCKED: ATOM     30  O   UNL d   1     -16.382   6.294   8.504 -0.09 +0.00    +0.000 OA
DOCKED: ATOM     31  O   UNL d   1     -15.473   6.654   7.268 -0.10 +0.00    +0.000 OA
DOCKED: ENDROOT
DOCKED: BRANCH   6  32
DOCKED: ATOM     32  C   UNL d   1     -15.722   1.706  11.158 -0.05 +0.02    +0.052 C 
DOCKED: BRANCH  32  33
DOCKED: ATOM     33  C   UNL d   1     -14.569   1.290  12.066 -0.10 +0.05    +0.115 C 
DOCKED: BRANCH  33  34
DOCKED: ATOM     34  C   UNL d   1     -14.373   2.242  13.220 -0.15 +0.12    +0.139 C 
DOCKED: ATOM     35  O   UNL d   1     -15.032   2.099  14.238 -0.01 -0.56    -0.650 OA
DOCKED: BRANCH  34  36
DOCKED: ATOM     36  O   UNL d   1     -13.503   3.270  13.145 -0.34 -1.09    -0.776 OA
DOCKED: ATOM     37  H   UNL d   1     -13.798   4.188  13.127 -0.11 +0.21    +0.167 HD
DOCKED: ENDBRANCH  34  36
DOCKED: ENDBRANCH  33  34
DOCKED: ENDBRANCH  32  33
DOCKED: ENDBRANCH   6  32
DOCKED: BRANCH  22  38
DOCKED: ATOM     38  C   UNL d   1     -12.215   2.120   6.992 -0.25 +0.02    +0.052 C 
DOCKED: BRANCH  38  39
DOCKED: ATOM     39  C   UNL d   1     -13.024   1.329   5.966 -0.14 +0.06    +0.115 C 
DOCKED: BRANCH  39  40
DOCKED: ATOM     40  C   UNL d   1     -12.267   0.142   5.427 -0.10 +0.15    +0.139 C 
DOCKED: ATOM     41  O   UNL d   1     -11.781  -0.669   6.199 -0.40 -0.72    -0.650 OA
DOCKED: BRANCH  40  42
DOCKED: ATOM     42  O   UNL d   1     -12.160  -0.071   4.101 -0.53 -1.26    -0.776 OA
DOCKED: ATOM     43  H   UNL d   1     -11.840   0.615   3.504 +0.06 +0.15    +0.167 HD
DOCKED: ENDBRANCH  40  42
DOCKED: ENDBRANCH  39  40
DOCKED: ENDBRANCH  38  39
DOCKED: ENDBRANCH  22  38
DOCKED: BRANCH  12  44
DOCKED: ATOM     44  C   UNL d   1     -17.348  11.419  10.985 -0.05 -0.00    +0.004 C 
DOCKED: ATOM     45  C   UNL d   1     -16.547  12.474  11.131 -0.10 -0.01    +0.012 C 
DOCKED: ENDBRANCH  12  44
DOCKED: BRANCH  17  46
DOCKED: ATOM     46  C   UNL d   1     -12.604   9.622   4.559 -0.36 -0.00    +0.004 C 
DOCKED: ATOM     47  C   UNL d   1     -12.976   9.294   3.315 -0.47 -0.00    +0.012 C 
DOCKED: ENDBRANCH  17  46
DOCKED: TORSDOF 10
DOCKED: TER
DOCKED: ENDMDL
________________________________________________________________________________


	BEGINNING GENETIC ALGORITHM DOCKING 3 of 100
Run: 3 Seed: 1008919480 186410310 [ Run 3 of 100 GA/GALS ]
Beginning LAMARCKIAN GENETIC ALGORITHM (LGA), with a maximum of 25000000 energy evaluations.

Final-Value: -8.718


	FINAL GENETIC ALGORITHM DOCKED STATE
	_______________________________________________


Detailed state:  trans 0.466 17.563 0.334 quatxyzw 0.564763 0.134697 -0.015840 0.814032 center 8.287 34.468 -0.670 ntor 10 93.7266 37.9234 -53.0092 124.9356 63.4501 -62.7642 35.9128 63.5272 -165.9061 -162.1146
State:	  0.466  17.563   0.334   0.972  0.232 -0.027 71.016     93.73   37.92  -53.01  124.94   63.45  -62.76   35.91   63.53 -165.91 -162.11

DOCKED: MODEL        3
DOCKED: USER    Run = 3
DOCKED: USER    DPF = D:/Protein_go_brrr/autodock/final/mut_D99N/heme_O2/dock.dpf
DOCKED: USER  
DOCKED: USER    Estimated Free Energy of Binding    =   -5.21 kcal/mol  [=(1)+(2)+(3)-(4)]
DOCKED: USER    Estimated Inhibition Constant, Ki   =  151.09 uM (micromolar)  [Temperature = 298.15 K]
DOCKED: USER    
DOCKED: USER    (1) Final Intermolecular Energy     =   -8.20 kcal/mol
DOCKED: USER        vdW + Hbond + desolv Energy     =   -7.10 kcal/mol
DOCKED: USER        Electrostatic Energy            =   -1.09 kcal/mol
DOCKED: USER    (2) Final Total Internal Energy     =   -0.52 kcal/mol
DOCKED: USER    (3) Torsional Free Energy           =   +2.98 kcal/mol
DOCKED: USER    (4) Unbound System's Energy  [=(2)] =   -0.52 kcal/mol
DOCKED: USER    
DOCKED: USER    
DOCKED: USER    NEWDPF move heme_O2_opt.pdbqt
DOCKED: USER    NEWDPF about 8.287000 34.468000 -0.670000
DOCKED: USER    NEWDPF tran0 0.466495 17.562899 0.334016
DOCKED: USER    NEWDPF quaternion0 0.564763 0.134697 -0.015840 0.814032
DOCKED: USER    NEWDPF axisangle0 0.972355 0.231908 -0.027272 71.016393
DOCKED: USER    NEWDPF quat0 0.972355 0.231908 -0.027272 71.016393
DOCKED: USER    NEWDPF dihe0 93.73 37.92 -53.01 124.94 63.45 -62.76 35.91 63.53 -165.91 -162.11 
DOCKED: USER  keepresnum = 1 
DOCKED: USER  
DOCKED: REMARK  10 active torsions:
DOCKED: REMARK  status: ('A' for Active; 'I' for Inactive)
DOCKED: REMARK    1  A    between atoms: C_6  and  C_10 
DOCKED: REMARK    2  A    between atoms: C_10  and  C_11 
DOCKED: REMARK    3  A    between atoms: C_11  and  C_12 
DOCKED: REMARK    4  A    between atoms: C_12  and  O_14 
DOCKED: REMARK    5  A    between atoms: C_17  and  C_20 
DOCKED: REMARK    6  A    between atoms: C_24  and  C_27 
DOCKED: REMARK    7  A    between atoms: C_31  and  C_34 
DOCKED: REMARK    8  A    between atoms: C_34  and  C_35 
DOCKED: REMARK    9  A    between atoms: C_35  and  C_36 
DOCKED: REMARK   10  A    between atoms: C_36  and  O_38 
DOCKED: USER                              x       y       z     vdW  Elec       q    Type
DOCKED: USER                           _______ _______ _______ _____ _____    ______ ____
DOCKED: ROOT
DOCKED: ATOM      1  C   UNL d   1      -1.069  16.716  -0.859 -0.22 +0.01    +0.064 A 
DOCKED: ATOM      2  C   UNL d   1      -1.161  19.331   3.104 -0.18 +0.01    +0.064 A 
DOCKED: ATOM      3  C   UNL d   1       3.641  19.495   3.218 -0.13 +0.00    +0.064 C 
DOCKED: ATOM      4  C   UNL d   1       3.740  17.210  -1.122 -0.13 +0.00    +0.064 A 
DOCKED: ATOM      5  C   UNL d   1      -1.486  17.415   0.208 -0.17 +0.01    +0.066 A 
DOCKED: ATOM      6  C   UNL d   1      -2.829  17.590   0.554 -0.23 -0.01    -0.021 A 
DOCKED: ATOM      7  C   UNL d   1      -2.858  18.383   1.677 -0.20 -0.01    -0.025 A 
DOCKED: ATOM      8  C   UNL d   1      -1.530  18.631   2.014 -0.14 +0.02    +0.066 A 
DOCKED: ATOM      9  C   UNL d   1      -4.117  18.885   2.350 -0.21 +0.03    +0.051 C 
DOCKED: ATOM     10  C   UNL d   1       0.215  19.605   3.522 -0.18 +0.01    +0.066 A 
DOCKED: ATOM     11  C   UNL d   1       0.544  20.195   4.747 -0.13 -0.00    -0.021 A 
DOCKED: ATOM     12  C   UNL d   1       1.925  20.234   4.806 -0.11 +0.00    +0.000 A 
DOCKED: ATOM     13  C   UNL d   1       2.370  19.665   3.581 -0.13 +0.00    +0.070 A 
DOCKED: ATOM     14  C   UNL d   1      -0.417  20.675   5.828 -0.08 +0.00    +0.052 C 
DOCKED: ATOM     15  C   UNL d   1       4.132  18.955   1.973 -0.12 +0.00    +0.066 A 
DOCKED: ATOM     16  C   UNL d   1       5.471  18.956   1.584 -0.08 -0.00    -0.021 A 
DOCKED: ATOM     17  C   UNL d   1       5.524  18.310   0.349 -0.08 +0.00    +0.000 A 
DOCKED: ATOM     18  C   UNL d   1       4.195  17.957   0.074 -0.12 +0.00    +0.070 A 
DOCKED: ATOM     19  C   UNL d   1       6.561  19.614   2.392 -0.03 +0.00    +0.052 C 
DOCKED: ATOM     20  C   UNL d   1       2.469  16.894  -1.438 -0.15 +0.00    +0.066 A 
DOCKED: ATOM     21  C   UNL d   1       2.103  16.172  -2.571 -0.16 +0.00    -0.025 A 
DOCKED: ATOM     22  C   UNL d   1       0.739  15.998  -2.498 -0.21 +0.00    -0.021 A 
DOCKED: ATOM     23  C   UNL d   1       0.319  16.638  -1.329 -0.21 +0.00    +0.066 A 
DOCKED: ATOM     24  C   UNL d   1       3.009  15.676  -3.668 -0.15 -0.01    +0.051 C 
DOCKED: ATOM     25  N   UNL d   1      -0.687  18.089   1.072 -0.19 -0.04    -0.248 N 
DOCKED: ATOM     26  N   UNL d   1       1.323  19.289   2.804 -0.14 -0.02    -0.248 N 
DOCKED: ATOM     27  N   UNL d   1       3.355  18.423   1.033 -0.11 -0.01    -0.248 N 
DOCKED: ATOM     28  N   UNL d   1       1.368  17.220  -0.711 -0.15 -0.01    -0.248 N 
DOCKED: ATOM     29 FE   UNL d   1       1.348  18.247   1.033 -0.05 +0.00    +0.000 Fe
DOCKED: ATOM     30  O   UNL d   1       0.609  19.585   0.741 -0.13 +0.00    +0.000 OA
DOCKED: ATOM     31  O   UNL d   1       1.902  19.213  -0.077 -0.11 +0.00    +0.000 OA
DOCKED: ENDROOT
DOCKED: BRANCH   6  32
DOCKED: ATOM     32  C   UNL d   1      -4.045  17.146  -0.216 -0.20 +0.04    +0.052 C 
DOCKED: BRANCH  32  33
DOCKED: ATOM     33  C   UNL d   1      -4.422  18.110  -1.337 -0.12 +0.07    +0.115 C 
DOCKED: BRANCH  33  34
DOCKED: ATOM     34  C   UNL d   1      -5.913  18.185  -1.554 -0.02 +0.13    +0.139 C 
DOCKED: ATOM     35  O   UNL d   1      -6.453  17.393  -2.309 -0.59 -0.59    -0.650 OA
DOCKED: BRANCH  34  36
DOCKED: ATOM     36  O   UNL d   1      -6.664  19.130  -0.952 -0.49 -0.64    -0.776 OA
DOCKED: ATOM     37  H   UNL d   1      -6.878  19.965  -1.385 +0.01 +0.07    +0.167 HD
DOCKED: ENDBRANCH  34  36
DOCKED: ENDBRANCH  33  34
DOCKED: ENDBRANCH  32  33
DOCKED: ENDBRANCH   6  32
DOCKED: BRANCH  22  38
DOCKED: ATOM     38  C   UNL d   1      -0.114  15.310  -3.532 -0.22 -0.00    +0.052 C 
DOCKED: BRANCH  38  39
DOCKED: ATOM     39  C   UNL d   1      -0.037  15.990  -4.897 -0.14 -0.01    +0.115 C 
DOCKED: BRANCH  39  40
DOCKED: ATOM     40  C   UNL d   1      -1.370  16.531  -5.348 -0.12 +0.01    +0.139 C 
DOCKED: ATOM     41  O   UNL d   1      -1.756  17.613  -4.934 -0.01 -0.07    -0.650 OA
DOCKED: BRANCH  40  42
DOCKED: ATOM     42  O   UNL d   1      -2.126  15.865  -6.242 -0.48 -0.11    -0.776 OA
DOCKED: ATOM     43  H   UNL d   1      -2.217  14.905  -6.210 -0.10 +0.01    +0.167 HD
DOCKED: ENDBRANCH  40  42
DOCKED: ENDBRANCH  39  40
DOCKED: ENDBRANCH  38  39
DOCKED: ENDBRANCH  22  38
DOCKED: BRANCH  12  44
DOCKED: ATOM     44  C   UNL d   1       2.662  20.803   6.000 -0.06 +0.00    +0.004 C 
DOCKED: ATOM     45  C   UNL d   1       3.563  20.196   6.772 -0.06 +0.00    +0.012 C 
DOCKED: ENDBRANCH  12  44
DOCKED: BRANCH  17  46
DOCKED: ATOM     46  C   UNL d   1       6.676  18.059  -0.586 -0.04 +0.00    +0.004 C 
DOCKED: ATOM     47  C   UNL d   1       7.175  16.883  -0.990 -0.04 +0.00    +0.012 C 
DOCKED: ENDBRANCH  17  46
DOCKED: TORSDOF 10
DOCKED: TER
DOCKED: ENDMDL
________________________________________________________________________________


	BEGINNING GENETIC ALGORITHM DOCKING 4 of 100
Run: 4 Seed: 543647994 1328612116 [ Run 4 of 100 GA/GALS ]
Beginning LAMARCKIAN GENETIC ALGORITHM (LGA), with a maximum of 25000000 energy evaluations.

Final-Value: -8.830


	FINAL GENETIC ALGORITHM DOCKED STATE
	_______________________________________________


Detailed state:  trans 16.903 -11.240 7.825 quatxyzw 0.171903 0.951802 -0.148080 0.206384 center 8.287 34.468 -0.670 ntor 10 151.0361 3.1763 52.4130 -64.9665 37.3110 96.5018 71.4727 5.1088 -55.2593 -180.0000
State:	 16.903 -11.240   7.825   0.176  0.973 -0.151 156.179    151.04    3.18   52.41  -64.97   37.31   96.50   71.47    5.11  -55.26 -180.00

DOCKED: MODEL        4
DOCKED: USER    Run = 4
DOCKED: USER    DPF = D:/Protein_go_brrr/autodock/final/mut_D99N/heme_O2/dock.dpf
DOCKED: USER  
DOCKED: USER    Estimated Free Energy of Binding    =   -4.03 kcal/mol  [=(1)+(2)+(3)-(4)]
DOCKED: USER    Estimated Inhibition Constant, Ki   =    1.11 mM (millimolar)  [Temperature = 298.15 K]
DOCKED: USER    
DOCKED: USER    (1) Final Intermolecular Energy     =   -7.01 kcal/mol
DOCKED: USER        vdW + Hbond + desolv Energy     =   -5.12 kcal/mol
DOCKED: USER        Electrostatic Energy            =   -1.90 kcal/mol
DOCKED: USER    (2) Final Total Internal Energy     =   -1.82 kcal/mol
DOCKED: USER    (3) Torsional Free Energy           =   +2.98 kcal/mol
DOCKED: USER    (4) Unbound System's Energy  [=(2)] =   -1.82 kcal/mol
DOCKED: USER    
DOCKED: USER    
DOCKED: USER    NEWDPF move heme_O2_opt.pdbqt
DOCKED: USER    NEWDPF about 8.287000 34.468000 -0.670000
DOCKED: USER    NEWDPF tran0 16.903337 -11.239954 7.824547
DOCKED: USER    NEWDPF quaternion0 0.171903 0.951802 -0.148080 0.206384
DOCKED: USER    NEWDPF axisangle0 0.175685 0.972744 -0.151338 156.178944
DOCKED: USER    NEWDPF quat0 0.175685 0.972744 -0.151338 156.178944
DOCKED: USER    NEWDPF dihe0 151.04 3.18 52.41 -64.97 37.31 96.50 71.47 5.11 -55.26 -180.00 
DOCKED: USER  keepresnum = 1 
DOCKED: USER  
DOCKED: REMARK  10 active torsions:
DOCKED: REMARK  status: ('A' for Active; 'I' for Inactive)
DOCKED: REMARK    1  A    between atoms: C_6  and  C_10 
DOCKED: REMARK    2  A    between atoms: C_10  and  C_11 
DOCKED: REMARK    3  A    between atoms: C_11  and  C_12 
DOCKED: REMARK    4  A    between atoms: C_12  and  O_14 
DOCKED: REMARK    5  A    between atoms: C_17  and  C_20 
DOCKED: REMARK    6  A    between atoms: C_24  and  C_27 
DOCKED: REMARK    7  A    between atoms: C_31  and  C_34 
DOCKED: REMARK    8  A    between atoms: C_34  and  C_35 
DOCKED: REMARK    9  A    between atoms: C_35  and  C_36 
DOCKED: REMARK   10  A    between atoms: C_36  and  O_38 
DOCKED: USER                              x       y       z     vdW  Elec       q    Type
DOCKED: USER                           _______ _______ _______ _____ _____    ______ ____
DOCKED: ROOT
DOCKED: ATOM      1  C   UNL d   1      19.019 -11.257   7.669 -0.04 +0.00    +0.064 A 
DOCKED: ATOM      2  C   UNL d   1      15.642 -14.029   5.805 +0.00 -0.05    +0.064 A 
DOCKED: ATOM      3  C   UNL d   1      12.212 -11.509   8.035 -0.17 -0.02    +0.064 C 
DOCKED: ATOM      4  C   UNL d   1      15.642  -8.359   9.576 -0.09 -0.01    +0.064 A 
DOCKED: ATOM      5  C   UNL d   1      18.380 -12.216   6.979 -0.04 -0.00    +0.066 A 
DOCKED: ATOM      6  C   UNL d   1      19.025 -13.186   6.206 -0.05 +0.00    -0.021 A 
DOCKED: ATOM      7  C   UNL d   1      18.047 -13.962   5.631 -0.07 +0.01    -0.025 A 
DOCKED: ATOM      8  C   UNL d   1      16.833 -13.475   6.107 -0.07 -0.03    +0.066 A 
DOCKED: ATOM      9  C   UNL d   1      18.299 -15.090   4.654 -0.08 -0.01    +0.051 C 
DOCKED: ATOM     10  C   UNL d   1      14.338 -13.577   6.291 -0.08 -0.04    +0.066 A 
DOCKED: ATOM     11  C   UNL d   1      13.150 -14.286   6.079 -0.15 +0.01    -0.021 A 
DOCKED: ATOM     12  C   UNL d   1      12.152 -13.584   6.730 -0.15 -0.00    +0.000 A 
DOCKED: ATOM     13  C   UNL d   1      12.800 -12.456   7.305 -0.13 -0.02    +0.070 A 
DOCKED: ATOM     14  C   UNL d   1      12.979 -15.591   5.312 -0.18 -0.01    +0.052 C 
DOCKED: ATOM     15  C   UNL d   1      12.826 -10.333   8.605 -0.06 -0.03    +0.066 A 
DOCKED: ATOM     16  C   UNL d   1      12.126  -9.295   9.219 -0.19 +0.01    -0.021 A 
DOCKED: ATOM     17  C   UNL d   1      13.084  -8.385   9.666 -0.17 -0.00    +0.000 A 
DOCKED: ATOM     18  C   UNL d   1      14.312  -8.944   9.287 -0.11 -0.02    +0.070 A 
DOCKED: ATOM     19  C   UNL d   1      10.620  -9.239   9.276 -0.16 -0.02    +0.052 C 
DOCKED: ATOM     20  C   UNL d   1      16.837  -8.846   9.190 -0.05 -0.01    +0.066 A 
DOCKED: ATOM     21  C   UNL d   1      18.059  -8.260   9.508 -0.03 +0.00    -0.025 A 
DOCKED: ATOM     22  C   UNL d   1      19.034  -9.087   8.996 -0.03 -0.00    -0.021 A 
DOCKED: ATOM     23  C   UNL d   1      18.367 -10.142   8.366 -0.03 +0.00    +0.066 A 
DOCKED: ATOM     24  C   UNL d   1      18.285  -6.973  10.259 -0.02 -0.00    +0.051 C 
DOCKED: ATOM     25  N   UNL d   1      17.035 -12.359   6.885 -0.03 +0.06    -0.248 N 
DOCKED: ATOM     26  N   UNL d   1      14.129 -12.457   7.029 -0.07 +0.10    -0.248 N 
DOCKED: ATOM     27  N   UNL d   1      14.133 -10.088   8.578 -0.07 +0.09    -0.248 N 
DOCKED: ATOM     28  N   UNL d   1      17.032  -9.968   8.448 -0.02 +0.03    -0.248 N 
DOCKED: ATOM     29 FE   UNL d   1      15.589 -11.202   7.744 -0.03 -0.00    +0.000 Fe
DOCKED: ATOM     30  O   UNL d   1      15.642 -11.092   6.193 -0.31 -0.00    +0.000 OA
DOCKED: ATOM     31  O   UNL d   1      15.388  -9.801   7.059 -0.31 -0.00    +0.000 OA
DOCKED: ENDROOT
DOCKED: BRANCH   6  32
DOCKED: ATOM     32  C   UNL d   1      20.498 -13.298   5.907 -0.06 +0.01    +0.052 C 
DOCKED: BRANCH  32  33
DOCKED: ATOM     33  C   UNL d   1      21.373 -12.716   7.013 -0.04 +0.03    +0.115 C 
DOCKED: BRANCH  33  34
DOCKED: ATOM     34  C   UNL d   1      22.077 -11.452   6.584 -0.10 +0.10    +0.139 C 
DOCKED: ATOM     35  O   UNL d   1      23.293 -11.445   6.478 -0.57 -0.99    -0.650 OA
DOCKED: BRANCH  34  36
DOCKED: ATOM     36  O   UNL d   1      21.393 -10.315   6.341 +0.03 -0.55    -0.776 OA
DOCKED: ATOM     37  H   UNL d   1      21.789  -9.444   6.465 +0.01 +0.16    +0.167 HD
DOCKED: ENDBRANCH  34  36
DOCKED: ENDBRANCH  33  34
DOCKED: ENDBRANCH  32  33
DOCKED: ENDBRANCH   6  32
DOCKED: BRANCH  22  38
DOCKED: ATOM     38  C   UNL d   1      20.518  -8.837   9.056 -0.03 +0.01    +0.052 C 
DOCKED: BRANCH  38  39
DOCKED: ATOM     39  C   UNL d   1      20.979  -7.816   8.019 -0.08 +0.03    +0.115 C 
DOCKED: BRANCH  39  40
DOCKED: ATOM     40  C   UNL d   1      22.477  -7.635   8.013 -0.08 +0.07    +0.139 C 
DOCKED: ATOM     41  O   UNL d   1      22.956  -6.541   8.265 +0.00 -0.24    -0.650 OA
DOCKED: BRANCH  40  42
DOCKED: ATOM     42  O   UNL d   1      23.302  -8.675   7.784 +0.00 -0.72    -0.776 OA
DOCKED: ATOM     43  H   UNL d   1      22.963  -9.543   7.535 +0.00 +0.18    +0.167 HD
DOCKED: ENDBRANCH  40  42
DOCKED: ENDBRANCH  39  40
DOCKED: ENDBRANCH  38  39
DOCKED: ENDBRANCH  22  38
DOCKED: BRANCH  12  44
DOCKED: ATOM     44  C   UNL d   1      10.712 -14.052   6.734 -0.20 -0.00    +0.004 C 
DOCKED: ATOM     45  C   UNL d   1       9.618 -13.336   6.474 -0.28 -0.00    +0.012 C 
DOCKED: ENDBRANCH  12  44
DOCKED: BRANCH  17  46
DOCKED: ATOM     46  C   UNL d   1      12.936  -7.049  10.345 -0.28 -0.00    +0.004 C 
DOCKED: ATOM     47  C   UNL d   1      12.511  -5.894   9.818 -0.44 -0.01    +0.012 C 
DOCKED: ENDBRANCH  17  46
DOCKED: TORSDOF 10
DOCKED: TER
DOCKED: ENDMDL
________________________________________________________________________________


	BEGINNING GENETIC ALGORITHM DOCKING 5 of 100
Run: 5 Seed: 1962103967 1770456678 [ Run 5 of 100 GA/GALS ]
Beginning LAMARCKIAN GENETIC ALGORITHM (LGA), with a maximum of 25000000 energy evaluations.

Final-Value: -10.868


	FINAL GENETIC ALGORITHM DOCKED STATE
	_______________________________________________


Detailed state:  trans -14.963 4.239 4.121 quatxyzw 0.178637 -0.272373 -0.893722 0.308485 center 8.287 34.468 -0.670 ntor 10 91.8837 -125.4825 -57.8923 141.0904 118.1692 126.5459 -65.0916 69.3308 -136.8343 -172.9591
State:	-14.963   4.239   4.121   0.188 -0.286 -0.940 144.064     91.88 -125.48  -57.89  141.09  118.17  126.55  -65.09   69.33 -136.83 -172.96

DOCKED: MODEL        5
DOCKED: USER    Run = 5
DOCKED: USER    DPF = D:/Protein_go_brrr/autodock/final/mut_D99N/heme_O2/dock.dpf
DOCKED: USER  
DOCKED: USER    Estimated Free Energy of Binding    =   -6.06 kcal/mol  [=(1)+(2)+(3)-(4)]
DOCKED: USER    Estimated Inhibition Constant, Ki   =   36.21 uM (micromolar)  [Temperature = 298.15 K]
DOCKED: USER    
DOCKED: USER    (1) Final Intermolecular Energy     =   -9.04 kcal/mol
DOCKED: USER        vdW + Hbond + desolv Energy     =   -6.77 kcal/mol
DOCKED: USER        Electrostatic Energy            =   -2.27 kcal/mol
DOCKED: USER    (2) Final Total Internal Energy     =   -1.83 kcal/mol
DOCKED: USER    (3) Torsional Free Energy           =   +2.98 kcal/mol
DOCKED: USER    (4) Unbound System's Energy  [=(2)] =   -1.83 kcal/mol
DOCKED: USER    
DOCKED: USER    
DOCKED: USER    NEWDPF move heme_O2_opt.pdbqt
DOCKED: USER    NEWDPF about 8.287000 34.468000 -0.670000
DOCKED: USER    NEWDPF tran0 -14.962714 4.238770 4.120969
DOCKED: USER    NEWDPF quaternion0 0.178637 -0.272373 -0.893722 0.308485
DOCKED: USER    NEWDPF axisangle0 0.187796 -0.286337 -0.939544 144.064149
DOCKED: USER    NEWDPF quat0 0.187796 -0.286337 -0.939544 144.064149
DOCKED: USER    NEWDPF dihe0 91.88 -125.48 -57.89 141.09 118.17 126.55 -65.09 69.33 -136.83 -172.96 
DOCKED: USER  keepresnum = 1 
DOCKED: USER  
DOCKED: REMARK  10 active torsions:
DOCKED: REMARK  status: ('A' for Active; 'I' for Inactive)
DOCKED: REMARK    1  A    between atoms: C_6  and  C_10 
DOCKED: REMARK    2  A    between atoms: C_10  and  C_11 
DOCKED: REMARK    3  A    between atoms: C_11  and  C_12 
DOCKED: REMARK    4  A    between atoms: C_12  and  O_14 
DOCKED: REMARK    5  A    between atoms: C_17  and  C_20 
DOCKED: REMARK    6  A    between atoms: C_24  and  C_27 
DOCKED: REMARK    7  A    between atoms: C_31  and  C_34 
DOCKED: REMARK    8  A    between atoms: C_34  and  C_35 
DOCKED: REMARK    9  A    between atoms: C_35  and  C_36 
DOCKED: REMARK   10  A    between atoms: C_36  and  O_38 
DOCKED: USER                              x       y       z     vdW  Elec       q    Type
DOCKED: USER                           _______ _______ _______ _____ _____    ______ ____
DOCKED: ROOT
DOCKED: ATOM      1  C   UNL d   1     -13.837   2.514   4.629 -0.11 +0.02    +0.064 A 
DOCKED: ATOM      2  C   UNL d   1     -13.506   7.064   5.949 -0.19 -0.00    +0.064 A 
DOCKED: ATOM      3  C   UNL d   1     -17.214   8.248   3.131 -0.20 -0.00    +0.064 C 
DOCKED: ATOM      4  C   UNL d   1     -17.869   3.490   2.132 -0.15 +0.01    +0.064 A 
DOCKED: ATOM      5  C   UNL d   1     -13.446   3.655   5.219 -0.12 +0.01    +0.066 A 
DOCKED: ATOM      6  C   UNL d   1     -12.369   3.747   6.106 -0.22 -0.00    -0.021 A 
DOCKED: ATOM      7  C   UNL d   1     -12.299   5.056   6.522 -0.29 -0.00    -0.025 A 
DOCKED: ATOM      8  C   UNL d   1     -13.305   5.737   5.842 -0.17 +0.00    +0.066 A 
DOCKED: ATOM      9  C   UNL d   1     -11.321   5.587   7.548 -0.39 -0.00    +0.051 C 
DOCKED: ATOM     10  C   UNL d   1     -14.529   7.837   5.244 -0.14 -0.00    +0.066 A 
DOCKED: ATOM     11  C   UNL d   1     -14.589   9.235   5.266 -0.15 +0.00    -0.021 A 
DOCKED: ATOM     12  C   UNL d   1     -15.641   9.596   4.444 -0.13 -0.00    +0.000 A 
DOCKED: ATOM     13  C   UNL d   1     -16.183   8.370   3.967 -0.10 -0.00    +0.070 A 
DOCKED: ATOM     14  C   UNL d   1     -13.665  10.186   6.016 -0.27 -0.01    +0.052 C 
DOCKED: ATOM     15  C   UNL d   1     -17.814   7.027   2.653 -0.21 +0.00    +0.066 A 
DOCKED: ATOM     16  C   UNL d   1     -18.993   6.963   1.911 -0.23 -0.00    -0.021 A 
DOCKED: ATOM     17  C   UNL d   1     -19.200   5.615   1.615 -0.20 +0.00    +0.000 A 
DOCKED: ATOM     18  C   UNL d   1     -18.117   4.950   2.205 -0.21 +0.01    +0.070 A 
DOCKED: ATOM     19  C   UNL d   1     -19.837   8.174   1.602 -0.21 +0.01    +0.052 C 
DOCKED: ATOM     20  C   UNL d   1     -16.864   2.815   2.722 -0.15 +0.01    +0.066 A 
DOCKED: ATOM     21  C   UNL d   1     -16.672   1.441   2.603 -0.13 -0.01    -0.025 A 
DOCKED: ATOM     22  C   UNL d   1     -15.512   1.149   3.285 -0.12 -0.01    -0.021 A 
DOCKED: ATOM     23  C   UNL d   1     -15.047   2.358   3.813 -0.12 +0.02    +0.066 A 
DOCKED: ATOM     24  C   UNL d   1     -17.552   0.456   1.878 -0.11 +0.01    +0.051 C 
DOCKED: ATOM     25  N   UNL d   1     -14.052   4.860   5.089 -0.07 -0.02    -0.248 N 
DOCKED: ATOM     26  N   UNL d   1     -15.503   7.305   4.462 +0.00 -0.00    -0.248 N 
DOCKED: ATOM     27  N   UNL d   1     -17.326   5.813   2.893 -0.09 -0.02    -0.248 N 
DOCKED: ATOM     28  N   UNL d   1     -15.896   3.360   3.506 -0.10 -0.05    -0.248 N 
DOCKED: ATOM     29 FE   UNL d   1     -15.703   5.319   3.979 -0.04 +0.00    +0.000 Fe
DOCKED: ATOM     30  O   UNL d   1     -15.931   5.419   5.515 -0.09 +0.00    +0.000 OA
DOCKED: ATOM     31  O   UNL d   1     -17.060   4.815   4.596 -0.09 +0.00    +0.000 OA
DOCKED: ENDROOT
DOCKED: BRANCH   6  32
DOCKED: ATOM     32  C   UNL d   1     -11.522   2.626   6.650 -0.29 +0.01    +0.052 C 
DOCKED: BRANCH  32  33
DOCKED: ATOM     33  C   UNL d   1     -12.350   1.512   7.284 -0.21 +0.04    +0.115 C 
DOCKED: BRANCH  33  34
DOCKED: ATOM     34  C   UNL d   1     -12.274   0.224   6.502 -0.16 +0.10    +0.139 C 
DOCKED: ATOM     35  O   UNL d   1     -12.158   0.261   5.288 -0.33 -0.67    -0.650 OA
DOCKED: BRANCH  34  36
DOCKED: ATOM     36  O   UNL d   1     -12.361  -0.976   7.114 -0.13 -0.62    -0.776 OA
DOCKED: ATOM     37  H   UNL d   1     -13.203  -1.434   7.223 +0.03 +0.13    +0.167 HD
DOCKED: ENDBRANCH  34  36
DOCKED: ENDBRANCH  33  34
DOCKED: ENDBRANCH  32  33
DOCKED: ENDBRANCH   6  32
DOCKED: BRANCH  22  38
DOCKED: ATOM     38  C   UNL d   1     -14.925  -0.226   3.471 -0.09 +0.05    +0.052 C 
DOCKED: BRANCH  38  39
DOCKED: ATOM     39  C   UNL d   1     -15.748  -1.087   4.426 -0.05 +0.11    +0.115 C 
DOCKED: BRANCH  39  40
DOCKED: ATOM     40  C   UNL d   1     -15.023  -1.369   5.718 -0.04 +0.15    +0.139 C 
DOCKED: ATOM     41  O   UNL d   1     -14.296  -2.345   5.805 -0.17 -1.21    -0.650 OA
DOCKED: BRANCH  40  42
DOCKED: ATOM     42  O   UNL d   1     -15.122  -0.531   6.769 +0.03 -0.43    -0.776 OA
DOCKED: ATOM     43  H   UNL d   1     -14.343  -0.127   7.168 +0.02 +0.09    +0.167 HD
DOCKED: ENDBRANCH  40  42
DOCKED: ENDBRANCH  39  40
DOCKED: ENDBRANCH  38  39
DOCKED: ENDBRANCH  22  38
DOCKED: BRANCH  12  44
DOCKED: ATOM     44  C   UNL d   1     -16.015  11.044   4.208 -0.11 -0.00    +0.004 C 
DOCKED: ATOM     45  C   UNL d   1     -16.002  11.716   3.057 -0.17 -0.00    +0.012 C 
DOCKED: ENDBRANCH  12  44
DOCKED: BRANCH  17  46
DOCKED: ATOM     46  C   UNL d   1     -20.329   4.923   0.898 -0.17 +0.00    +0.004 C 
DOCKED: ATOM     47  C   UNL d   1     -20.253   3.981  -0.051 -0.15 +0.00    +0.012 C 
DOCKED: ENDBRANCH  17  46
DOCKED: TORSDOF 10
DOCKED: TER
DOCKED: ENDMDL
________________________________________________________________________________


	BEGINNING GENETIC ALGORITHM DOCKING 6 of 100
Run: 6 Seed: 1539418084 485287530 [ Run 6 of 100 GA/GALS ]
Beginning LAMARCKIAN GENETIC ALGORITHM (LGA), with a maximum of 25000000 energy evaluations.

Final-Value: -9.661


	FINAL GENETIC ALGORITHM DOCKED STATE
	_______________________________________________


Detailed state:  trans -18.623 10.281 2.140 quatxyzw 0.121046 -0.023704 0.145240 -0.981678 center 8.287 34.468 -0.670 ntor 10 -115.6870 -27.1890 -49.9941 70.9989 24.5677 163.4462 87.6394 145.1598 23.7436 20.3258
State:	-18.623  10.281   2.140   0.635 -0.124  0.762 -21.970   -115.69  -27.19  -49.99   71.00   24.57  163.45   87.64  145.16   23.74   20.33

DOCKED: MODEL        6
DOCKED: USER    Run = 6
DOCKED: USER    DPF = D:/Protein_go_brrr/autodock/final/mut_D99N/heme_O2/dock.dpf
DOCKED: USER  
DOCKED: USER    Estimated Free Energy of Binding    =   -4.98 kcal/mol  [=(1)+(2)+(3)-(4)]
DOCKED: USER    Estimated Inhibition Constant, Ki   =  223.57 uM (micromolar)  [Temperature = 298.15 K]
DOCKED: USER    
DOCKED: USER    (1) Final Intermolecular Energy     =   -7.96 kcal/mol
DOCKED: USER        vdW + Hbond + desolv Energy     =   -6.29 kcal/mol
DOCKED: USER        Electrostatic Energy            =   -1.67 kcal/mol
DOCKED: USER    (2) Final Total Internal Energy     =   -1.70 kcal/mol
DOCKED: USER    (3) Torsional Free Energy           =   +2.98 kcal/mol
DOCKED: USER    (4) Unbound System's Energy  [=(2)] =   -1.70 kcal/mol
DOCKED: USER    
DOCKED: USER    
DOCKED: USER    NEWDPF move heme_O2_opt.pdbqt
DOCKED: USER    NEWDPF about 8.287000 34.468000 -0.670000
DOCKED: USER    NEWDPF tran0 -18.622958 10.281307 2.139874
DOCKED: USER    NEWDPF quaternion0 0.121046 -0.023704 0.145240 -0.981678
DOCKED: USER    NEWDPF axisangle0 0.635250 -0.124397 0.762223 -21.969583
DOCKED: USER    NEWDPF quat0 0.635250 -0.124397 0.762223 -21.969583
DOCKED: USER    NEWDPF dihe0 -115.69 -27.19 -49.99 71.00 24.57 163.45 87.64 145.16 23.74 20.33 
DOCKED: USER  keepresnum = 1 
DOCKED: USER  
DOCKED: REMARK  10 active torsions:
DOCKED: REMARK  status: ('A' for Active; 'I' for Inactive)
DOCKED: REMARK    1  A    between atoms: C_6  and  C_10 
DOCKED: REMARK    2  A    between atoms: C_10  and  C_11 
DOCKED: REMARK    3  A    between atoms: C_11  and  C_12 
DOCKED: REMARK    4  A    between atoms: C_12  and  O_14 
DOCKED: REMARK    5  A    between atoms: C_17  and  C_20 
DOCKED: REMARK    6  A    between atoms: C_24  and  C_27 
DOCKED: REMARK    7  A    between atoms: C_31  and  C_34 
DOCKED: REMARK    8  A    between atoms: C_34  and  C_35 
DOCKED: REMARK    9  A    between atoms: C_35  and  C_36 
DOCKED: REMARK   10  A    between atoms: C_36  and  O_38 
DOCKED: USER                              x       y       z     vdW  Elec       q    Type
DOCKED: USER                           _______ _______ _______ _____ _____    ______ ____
DOCKED: ROOT
DOCKED: ATOM      1  C   UNL d   1     -20.578  10.513   1.350 -0.08 +0.01    +0.064 A 
DOCKED: ATOM      2  C   UNL d   1     -18.703   7.403   4.411 -0.05 +0.00    +0.064 A 
DOCKED: ATOM      3  C   UNL d   1     -14.381   9.464   4.000 -0.25 -0.01    +0.064 C 
DOCKED: ATOM      4  C   UNL d   1     -16.404  12.962   1.219 -0.18 -0.01    +0.064 A 
DOCKED: ATOM      5  C   UNL d   1     -20.421   9.500   2.218 -0.08 +0.01    +0.066 A 
DOCKED: ATOM      6  C   UNL d   1     -21.445   8.627   2.595 -0.04 -0.00    -0.021 A 
DOCKED: ATOM      7  C   UNL d   1     -20.914   7.753   3.514 -0.03 -0.00    -0.025 A 
DOCKED: ATOM      8  C   UNL d   1     -19.568   8.086   3.637 -0.06 +0.00    +0.066 A 
DOCKED: ATOM      9  C   UNL d   1     -21.696   6.682   4.243 -0.02 +0.01    +0.051 C 
DOCKED: ATOM     10  C   UNL d   1     -17.276   7.691   4.562 -0.08 +0.00    +0.066 A 
DOCKED: ATOM     11  C   UNL d   1     -16.390   6.853   5.250 -0.07 -0.00    -0.021 A 
DOCKED: ATOM     12  C   UNL d   1     -15.136   7.421   5.127 -0.11 -0.00    +0.000 A 
DOCKED: ATOM     13  C   UNL d   1     -15.333   8.606   4.365 -0.11 -0.00    +0.070 A 
DOCKED: ATOM     14  C   UNL d   1     -16.723   5.551   5.969 -0.05 +0.00    +0.052 C 
DOCKED: ATOM     15  C   UNL d   1     -14.544  10.692   3.260 -0.25 -0.01    +0.066 A 
DOCKED: ATOM     16  C   UNL d   1     -13.533  11.629   3.050 -0.30 +0.00    -0.021 A 
DOCKED: ATOM     17  C   UNL d   1     -14.087  12.636   2.260 -0.27 -0.00    +0.000 A 
DOCKED: ATOM     18  C   UNL d   1     -15.412  12.231   2.042 -0.23 -0.01    +0.070 A 
DOCKED: ATOM     19  C   UNL d   1     -12.160  11.509   3.662 -0.40 -0.01    +0.052 C 
DOCKED: ATOM     20  C   UNL d   1     -17.693  12.625   1.025 -0.16 -0.01    +0.066 A 
DOCKED: ATOM     21  C   UNL d   1     -18.576  13.343   0.223 -0.10 +0.00    -0.025 A 
DOCKED: ATOM     22  C   UNL d   1     -19.763  12.645   0.227 -0.11 -0.00    -0.021 A 
DOCKED: ATOM     23  C   UNL d   1     -19.565  11.531   1.049 -0.12 -0.00    +0.066 A 
DOCKED: ATOM     24  C   UNL d   1     -18.302  14.633  -0.507 -0.08 -0.00    +0.051 C 
DOCKED: ATOM     25  N   UNL d   1     -19.280   9.203   2.888 -0.06 -0.01    -0.248 N 
DOCKED: ATOM     26  N   UNL d   1     -16.639   8.765   4.030 -0.08 +0.01    -0.248 N 
DOCKED: ATOM     27  N   UNL d   1     -15.693  11.088   2.718 -0.15 +0.05    -0.248 N 
DOCKED: ATOM     28  N   UNL d   1     -18.320  11.547   1.567 -0.10 +0.03    -0.248 N 
DOCKED: ATOM     29 FE   UNL d   1     -17.483  10.168   2.790 -0.03 -0.00    +0.000 Fe
DOCKED: ATOM     30  O   UNL d   1     -18.200  10.313   4.164 -0.06 -0.00    +0.000 OA
DOCKED: ATOM     31  O   UNL d   1     -17.447  11.549   3.542 -0.08 -0.00    +0.000 OA
DOCKED: ENDROOT
DOCKED: BRANCH   6  32
DOCKED: ATOM     32  C   UNL d   1     -22.902   8.693   2.214 -0.03 +0.01    +0.052 C 
DOCKED: BRANCH  32  33
DOCKED: ATOM     33  C   UNL d   1     -23.303   7.609   1.219 -0.07 +0.05    +0.115 C 
DOCKED: BRANCH  33  34
DOCKED: ATOM     34  C   UNL d   1     -23.245   8.090  -0.210 +0.04 +0.16    +0.139 C 
DOCKED: ATOM     35  O   UNL d   1     -24.225   7.969  -0.928 -0.45 -0.86    -0.650 OA
DOCKED: BRANCH  34  36
DOCKED: ATOM     36  O   UNL d   1     -22.120   8.628  -0.726 -0.22 -1.06    -0.776 OA
DOCKED: ATOM     37  H   UNL d   1     -22.078   9.547  -1.012 +0.02 +0.15    +0.167 HD
DOCKED: ENDBRANCH  34  36
DOCKED: ENDBRANCH  33  34
DOCKED: ENDBRANCH  32  33
DOCKED: ENDBRANCH   6  32
DOCKED: BRANCH  22  38
DOCKED: ATOM     38  C   UNL d   1     -21.031  13.065  -0.470 -0.06 +0.00    +0.052 C 
DOCKED: BRANCH  38  39
DOCKED: ATOM     39  C   UNL d   1     -21.524  12.015  -1.463 -0.08 +0.02    +0.115 C 
DOCKED: BRANCH  39  40
DOCKED: ATOM     40  C   UNL d   1     -20.391  11.312  -2.169 -0.23 +0.02    +0.139 C 
DOCKED: ATOM     41  O   UNL d   1     -19.522  11.967  -2.721 -0.30 -0.07    -0.650 OA
DOCKED: BRANCH  40  42
DOCKED: ATOM     42  O   UNL d   1     -20.292   9.969  -2.158 -0.04 -0.27    -0.776 OA
DOCKED: ATOM     43  H   UNL d   1     -20.691   9.439  -1.457 +0.02 +0.12    +0.167 HD
DOCKED: ENDBRANCH  40  42
DOCKED: ENDBRANCH  39  40
DOCKED: ENDBRANCH  38  39
DOCKED: ENDBRANCH  22  38
DOCKED: BRANCH  12  44
DOCKED: ATOM     44  C   UNL d   1     -13.904   6.789   5.740 -0.21 -0.00    +0.004 C 
DOCKED: ATOM     45  C   UNL d   1     -12.764   6.461   5.133 -0.29 -0.00    +0.012 C 
DOCKED: ENDBRANCH  12  44
DOCKED: BRANCH  17  46
DOCKED: ATOM     46  C   UNL d   1     -13.506  13.932   1.760 -0.26 -0.00    +0.004 C 
DOCKED: ATOM     47  C   UNL d   1     -12.483  14.110   0.915 -0.36 -0.00    +0.012 C 
DOCKED: ENDBRANCH  17  46
DOCKED: TORSDOF 10
DOCKED: TER
DOCKED: ENDMDL
________________________________________________________________________________


	BEGINNING GENETIC ALGORITHM DOCKING 7 of 100
Run: 7 Seed: 905174699 1991403112 [ Run 7 of 100 GA/GALS ]
Beginning LAMARCKIAN GENETIC ALGORITHM (LGA), with a maximum of 25000000 energy evaluations.

Final-Value: -11.394


	FINAL GENETIC ALGORITHM DOCKED STATE
	_______________________________________________


Detailed state:  trans -15.409 4.541 3.620 quatxyzw -0.085354 0.227316 0.886589 -0.393703 center 8.287 34.468 -0.670 ntor 10 1.6107 -174.6155 -94.2257 -120.3097 -143.5756 140.8046 -14.9683 65.8816 -153.9047 -178.8569
State:	-15.409   4.541   3.620  -0.093  0.247  0.964 -133.630      1.61 -174.62  -94.23 -120.31 -143.58  140.80  -14.97   65.88 -153.90 -178.86

DOCKED: MODEL        7
DOCKED: USER    Run = 7
DOCKED: USER    DPF = D:/Protein_go_brrr/autodock/final/mut_D99N/heme_O2/dock.dpf
DOCKED: USER  
DOCKED: USER    Estimated Free Energy of Binding    =   -6.37 kcal/mol  [=(1)+(2)+(3)-(4)]
DOCKED: USER    Estimated Inhibition Constant, Ki   =   21.28 uM (micromolar)  [Temperature = 298.15 K]
DOCKED: USER    
DOCKED: USER    (1) Final Intermolecular Energy     =   -9.36 kcal/mol
DOCKED: USER        vdW + Hbond + desolv Energy     =   -6.72 kcal/mol
DOCKED: USER        Electrostatic Energy            =   -2.63 kcal/mol
DOCKED: USER    (2) Final Total Internal Energy     =   -2.04 kcal/mol
DOCKED: USER    (3) Torsional Free Energy           =   +2.98 kcal/mol
DOCKED: USER    (4) Unbound System's Energy  [=(2)] =   -2.04 kcal/mol
DOCKED: USER    
DOCKED: USER    
DOCKED: USER    NEWDPF move heme_O2_opt.pdbqt
DOCKED: USER    NEWDPF about 8.287000 34.468000 -0.670000
DOCKED: USER    NEWDPF tran0 -15.409477 4.541230 3.620083
DOCKED: USER    NEWDPF quaternion0 -0.085354 0.227316 0.886589 -0.393703
DOCKED: USER    NEWDPF axisangle0 -0.092853 0.247287 0.964483 -133.629808
DOCKED: USER    NEWDPF quat0 -0.092853 0.247287 0.964483 -133.629808
DOCKED: USER    NEWDPF dihe0 1.61 -174.62 -94.23 -120.31 -143.58 140.80 -14.97 65.88 -153.90 -178.86 
DOCKED: USER  keepresnum = 1 
DOCKED: USER  
DOCKED: REMARK  10 active torsions:
DOCKED: REMARK  status: ('A' for Active; 'I' for Inactive)
DOCKED: REMARK    1  A    between atoms: C_6  and  C_10 
DOCKED: REMARK    2  A    between atoms: C_10  and  C_11 
DOCKED: REMARK    3  A    between atoms: C_11  and  C_12 
DOCKED: REMARK    4  A    between atoms: C_12  and  O_14 
DOCKED: REMARK    5  A    between atoms: C_17  and  C_20 
DOCKED: REMARK    6  A    between atoms: C_24  and  C_27 
DOCKED: REMARK    7  A    between atoms: C_31  and  C_34 
DOCKED: REMARK    8  A    between atoms: C_34  and  C_35 
DOCKED: REMARK    9  A    between atoms: C_35  and  C_36 
DOCKED: REMARK   10  A    between atoms: C_36  and  O_38 
DOCKED: USER                              x       y       z     vdW  Elec       q    Type
DOCKED: USER                           _______ _______ _______ _____ _____    ______ ____
DOCKED: ROOT
DOCKED: ATOM      1  C   UNL d   1     -14.612   2.579   3.734 -0.14 +0.02    +0.064 A 
DOCKED: ATOM      2  C   UNL d   1     -13.294   6.697   5.700 -0.19 -0.00    +0.064 A 
DOCKED: ATOM      3  C   UNL d   1     -16.892   9.003   3.504 -0.18 -0.01    +0.064 C 
DOCKED: ATOM      4  C   UNL d   1     -18.544   4.688   1.856 -0.21 +0.01    +0.064 A 
DOCKED: ATOM      5  C   UNL d   1     -13.961   3.510   4.450 -0.13 +0.01    +0.066 A 
DOCKED: ATOM      6  C   UNL d   1     -12.825   3.252   5.222 -0.17 -0.00    -0.021 A 
DOCKED: ATOM      7  C   UNL d   1     -12.468   4.434   5.826 -0.22 -0.00    -0.025 A 
DOCKED: ATOM      8  C   UNL d   1     -13.367   5.393   5.368 -0.16 +0.00    +0.066 A 
DOCKED: ATOM      9  C   UNL d   1     -11.332   4.594   6.813 -0.41 +0.00    +0.051 C 
DOCKED: ATOM     10  C   UNL d   1     -14.194   7.753   5.234 -0.16 -0.00    +0.066 A 
DOCKED: ATOM     11  C   UNL d   1     -13.975   9.113   5.477 -0.20 +0.00    -0.021 A 
DOCKED: ATOM     12  C   UNL d   1     -14.993   9.796   4.837 -0.14 -0.00    +0.000 A 
DOCKED: ATOM     13  C   UNL d   1     -15.799   8.790   4.235 -0.12 -0.00    +0.070 A 
DOCKED: ATOM     14  C   UNL d   1     -12.829   9.737   6.265 -0.34 -0.01    +0.052 C 
DOCKED: ATOM     15  C   UNL d   1     -17.755   8.012   2.908 -0.19 -0.00    +0.066 A 
DOCKED: ATOM     16  C   UNL d   1     -18.975   8.293   2.293 -0.19 -0.00    -0.021 A 
DOCKED: ATOM     17  C   UNL d   1     -19.465   7.077   1.816 -0.22 +0.00    +0.000 A 
DOCKED: ATOM     18  C   UNL d   1     -18.493   6.134   2.178 -0.21 +0.01    +0.070 A 
DOCKED: ATOM     19  C   UNL d   1     -19.584   9.672   2.265 -0.13 +0.00    +0.052 C 
DOCKED: ATOM     20  C   UNL d   1     -17.651   3.749   2.225 -0.17 +0.01    +0.066 A 
DOCKED: ATOM     21  C   UNL d   1     -17.743   2.405   1.876 -0.09 -0.00    -0.025 A 
DOCKED: ATOM     22  C   UNL d   1     -16.617   1.794   2.379 -0.13 -0.01    -0.021 A 
DOCKED: ATOM     23  C   UNL d   1     -15.886   2.788   3.036 -0.16 +0.01    +0.066 A 
DOCKED: ATOM     24  C   UNL d   1     -18.851   1.737   1.103 -0.13 +0.01    +0.051 C 
DOCKED: ATOM     25  N   UNL d   1     -14.326   4.810   4.572 -0.06 -0.03    -0.248 N 
DOCKED: ATOM     26  N   UNL d   1     -15.308   7.550   4.486 -0.00 +0.00    -0.248 N 
DOCKED: ATOM     27  N   UNL d   1     -17.500   6.707   2.905 -0.14 -0.02    -0.248 N 
DOCKED: ATOM     28  N   UNL d   1     -16.540   3.966   2.978 -0.12 -0.04    -0.248 N 
DOCKED: ATOM     29 FE   UNL d   1     -15.931   5.746   3.725 -0.04 +0.00    +0.000 Fe
DOCKED: ATOM     30  O   UNL d   1     -16.022   5.621   5.274 -0.09 +0.00    +0.000 OA
DOCKED: ATOM     31  O   UNL d   1     -17.311   5.400   4.396 -0.10 +0.00    +0.000 OA
DOCKED: ENDROOT
DOCKED: BRANCH   6  32
DOCKED: ATOM     32  C   UNL d   1     -12.178   1.918   5.494 -0.16 +0.02    +0.052 C 
DOCKED: BRANCH  32  33
DOCKED: ATOM     33  C   UNL d   1     -13.021   1.024   6.398 -0.14 +0.06    +0.115 C 
DOCKED: BRANCH  33  34
DOCKED: ATOM     34  C   UNL d   1     -12.595  -0.422   6.337 -0.16 +0.14    +0.139 C 
DOCKED: ATOM     35  O   UNL d   1     -11.492  -0.744   6.748 -0.54 -0.61    -0.650 OA
DOCKED: BRANCH  34  36
DOCKED: ATOM     36  O   UNL d   1     -13.398  -1.369   5.809 +0.02 -1.41    -0.776 OA
DOCKED: ATOM     37  H   UNL d   1     -14.258  -1.156   5.429 +0.01 +0.27    +0.167 HD
DOCKED: ENDBRANCH  34  36
DOCKED: ENDBRANCH  33  34
DOCKED: ENDBRANCH  32  33
DOCKED: ENDBRANCH   6  32
DOCKED: BRANCH  22  38
DOCKED: ATOM     38  C   UNL d   1     -16.300   0.323   2.287 -0.12 +0.02    +0.052 C 
DOCKED: BRANCH  38  39
DOCKED: ATOM     39  C   UNL d   1     -17.104  -0.509   3.283 -0.05 +0.05    +0.115 C 
DOCKED: BRANCH  39  40
DOCKED: ATOM     40  C   UNL d   1     -16.230  -1.174   4.317 -0.06 +0.10    +0.139 C 
DOCKED: ATOM     41  O   UNL d   1     -15.557  -2.144   4.007 -0.02 -0.92    -0.650 OA
DOCKED: BRANCH  40  42
DOCKED: ATOM     42  O   UNL d   1     -16.139  -0.686   5.569 +0.02 -0.43    -0.776 OA
DOCKED: ATOM     43  H   UNL d   1     -15.497  -1.033   6.200 +0.01 +0.11    +0.167 HD
DOCKED: ENDBRANCH  40  42
DOCKED: ENDBRANCH  39  40
DOCKED: ENDBRANCH  38  39
DOCKED: ENDBRANCH  22  38
DOCKED: BRANCH  12  44
DOCKED: ATOM     44  C   UNL d   1     -15.091  11.307   4.868 -0.12 -0.00    +0.004 C 
DOCKED: ATOM     45  C   UNL d   1     -14.434  12.185   4.111 -0.17 -0.00    +0.012 C 
DOCKED: ENDBRANCH  12  44
DOCKED: BRANCH  17  46
DOCKED: ATOM     46  C   UNL d   1     -20.757   6.736   1.122 -0.18 +0.00    +0.004 C 
DOCKED: ATOM     47  C   UNL d   1     -21.652   5.796   1.452 -0.13 +0.00    +0.012 C 
DOCKED: ENDBRANCH  17  46
DOCKED: TORSDOF 10
DOCKED: TER
DOCKED: ENDMDL
________________________________________________________________________________


	BEGINNING GENETIC ALGORITHM DOCKING 8 of 100
Run: 8 Seed: 753730046 929782518 [ Run 8 of 100 GA/GALS ]
Beginning LAMARCKIAN GENETIC ALGORITHM (LGA), with a maximum of 25000000 energy evaluations.

Final-Value: -8.516


	FINAL GENETIC ALGORITHM DOCKED STATE
	_______________________________________________


Detailed state:  trans -5.288 16.626 10.133 quatxyzw 0.981037 -0.022728 0.164876 -0.099330 center 8.287 34.468 -0.670 ntor 10 37.0784 149.8797 73.9996 -54.6959 52.6199 171.1645 -131.5781 137.4993 1.0903 -176.9573
State:	 -5.288  16.626  10.133   0.986 -0.023  0.166 -168.599     37.08  149.88   74.00  -54.70   52.62  171.16 -131.58  137.50    1.09 -176.96

DOCKED: MODEL        8
DOCKED: USER    Run = 8
DOCKED: USER    DPF = D:/Protein_go_brrr/autodock/final/mut_D99N/heme_O2/dock.dpf
DOCKED: USER  
DOCKED: USER    Estimated Free Energy of Binding    =   -4.68 kcal/mol  [=(1)+(2)+(3)-(4)]
DOCKED: USER    Estimated Inhibition Constant, Ki   =  370.69 uM (micromolar)  [Temperature = 298.15 K]
DOCKED: USER    
DOCKED: USER    (1) Final Intermolecular Energy     =   -7.66 kcal/mol
DOCKED: USER        vdW + Hbond + desolv Energy     =   -7.99 kcal/mol
DOCKED: USER        Electrostatic Energy            =   +0.33 kcal/mol
DOCKED: USER    (2) Final Total Internal Energy     =   -0.85 kcal/mol
DOCKED: USER    (3) Torsional Free Energy           =   +2.98 kcal/mol
DOCKED: USER    (4) Unbound System's Energy  [=(2)] =   -0.85 kcal/mol
DOCKED: USER    
DOCKED: USER    
DOCKED: USER    NEWDPF move heme_O2_opt.pdbqt
DOCKED: USER    NEWDPF about 8.287000 34.468000 -0.670000
DOCKED: USER    NEWDPF tran0 -5.288371 16.626338 10.133342
DOCKED: USER    NEWDPF quaternion0 0.981037 -0.022728 0.164876 -0.099330
DOCKED: USER    NEWDPF axisangle0 0.985912 -0.022841 0.165695 -168.598795
DOCKED: USER    NEWDPF quat0 0.985912 -0.022841 0.165695 -168.598795
DOCKED: USER    NEWDPF dihe0 37.08 149.88 74.00 -54.70 52.62 171.16 -131.58 137.50 1.09 -176.96 
DOCKED: USER  keepresnum = 1 
DOCKED: USER  
DOCKED: REMARK  10 active torsions:
DOCKED: REMARK  status: ('A' for Active; 'I' for Inactive)
DOCKED: REMARK    1  A    between atoms: C_6  and  C_10 
DOCKED: REMARK    2  A    between atoms: C_10  and  C_11 
DOCKED: REMARK    3  A    between atoms: C_11  and  C_12 
DOCKED: REMARK    4  A    between atoms: C_12  and  O_14 
DOCKED: REMARK    5  A    between atoms: C_17  and  C_20 
DOCKED: REMARK    6  A    between atoms: C_24  and  C_27 
DOCKED: REMARK    7  A    between atoms: C_31  and  C_34 
DOCKED: REMARK    8  A    between atoms: C_34  and  C_35 
DOCKED: REMARK    9  A    between atoms: C_35  and  C_36 
DOCKED: REMARK   10  A    between atoms: C_36  and  O_38 
DOCKED: USER                              x       y       z     vdW  Elec       q    Type
DOCKED: USER                           _______ _______ _______ _____ _____    ______ ____
DOCKED: ROOT
DOCKED: ATOM      1  C   UNL d   1      -7.357  16.221  10.373 -0.15 -0.01    +0.064 A 
DOCKED: ATOM      2  C   UNL d   1      -4.853  18.127   6.816 -0.20 +0.01    +0.064 A 
DOCKED: ATOM      3  C   UNL d   1      -0.782  17.715   9.336 -0.20 +0.00    +0.064 C 
DOCKED: ATOM      4  C   UNL d   1      -3.275  15.315  12.814 -0.12 -0.02    +0.064 A 
DOCKED: ATOM      5  C   UNL d   1      -7.008  16.771   9.199 -0.16 -0.01    +0.066 A 
DOCKED: ATOM      6  C   UNL d   1      -7.913  17.083   8.181 -0.06 +0.00    -0.021 A 
DOCKED: ATOM      7  C   UNL d   1      -7.184  17.595   7.133 -0.08 -0.00    -0.025 A 
DOCKED: ATOM      8  C   UNL d   1      -5.859  17.627   7.559 -0.19 +0.00    +0.066 A 
DOCKED: ATOM      9  C   UNL d   1      -7.759  17.995   5.792 -0.16 +0.01    +0.051 C 
DOCKED: ATOM     10  C   UNL d   1      -3.448  18.208   7.217 -0.19 +0.01    +0.066 A 
DOCKED: ATOM     11  C   UNL d   1      -2.474  18.885   6.475 -0.18 -0.00    -0.021 A 
DOCKED: ATOM     12  C   UNL d   1      -1.297  18.793   7.194 -0.23 +0.00    +0.000 A 
DOCKED: ATOM     13  C   UNL d   1      -1.624  18.038   8.355 -0.23 +0.00    +0.070 A 
DOCKED: ATOM     14  C   UNL d   1      -2.664  19.612   5.149 -0.14 +0.01    +0.052 C 
DOCKED: ATOM     15  C   UNL d   1      -1.066  16.923  10.509 -0.14 -0.00    +0.066 A 
DOCKED: ATOM     16  C   UNL d   1      -0.104  16.482  11.416 -0.07 +0.00    -0.021 A 
DOCKED: ATOM     17  C   UNL d   1      -0.791  15.794  12.417 -0.23 -0.00    +0.000 A 
DOCKED: ATOM     18  C   UNL d   1      -2.139  15.870  12.040 -0.18 -0.02    +0.070 A 
DOCKED: ATOM     19  C   UNL d   1       1.375  16.705  11.221 -0.04 -0.00    +0.052 C 
DOCKED: ATOM     20  C   UNL d   1      -4.574  15.332  12.460 -0.15 -0.02    +0.066 A 
DOCKED: ATOM     21  C   UNL d   1      -5.602  14.808  13.239 -0.16 +0.01    -0.025 A 
DOCKED: ATOM     22  C   UNL d   1      -6.775  15.081  12.573 -0.12 +0.00    -0.021 A 
DOCKED: ATOM     23  C   UNL d   1      -6.417  15.749  11.398 -0.13 -0.01    +0.066 A 
DOCKED: ATOM     24  C   UNL d   1      -5.471  14.080  14.552 -0.28 -0.01    +0.051 C 
DOCKED: ATOM     25  N   UNL d   1      -5.742  17.059   8.807 -0.11 +0.01    -0.248 N 
DOCKED: ATOM     26  N   UNL d   1      -2.934  17.682   8.358 -0.16 -0.01    -0.248 N 
DOCKED: ATOM     27  N   UNL d   1      -2.280  16.494  10.842 -0.15 +0.03    -0.248 N 
DOCKED: ATOM     28  N   UNL d   1      -5.075  15.860  11.312 -0.09 +0.04    -0.248 N 
DOCKED: ATOM     29 FE   UNL d   1      -4.010  16.764   9.847 -0.04 -0.00    +0.000 Fe
DOCKED: ATOM     30  O   UNL d   1      -4.148  15.860   8.588 -0.49 -0.00    +0.000 OA
DOCKED: ATOM     31  O   UNL d   1      -3.542  15.264   9.914 -0.46 -0.00    +0.000 OA
DOCKED: ENDROOT
DOCKED: BRANCH   6  32
DOCKED: ATOM     32  C   UNL d   1      -9.390  16.786   8.136 -0.16 -0.03    +0.052 C 
DOCKED: BRANCH  32  33
DOCKED: ATOM     33  C   UNL d   1     -10.229  17.848   8.838 -0.09 -0.07    +0.115 C 
DOCKED: BRANCH  33  34
DOCKED: ATOM     34  C   UNL d   1      -9.820  19.249   8.458 -0.03 -0.03    +0.139 C 
DOCKED: ATOM     35  O   UNL d   1      -9.080  19.882   9.193 +0.02 +0.09    -0.650 OA
DOCKED: BRANCH  34  36
DOCKED: ATOM     36  O   UNL d   1     -10.277  19.834   7.331 +0.03 +0.10    -0.776 OA
DOCKED: ATOM     37  H   UNL d   1     -11.179  19.701   7.016 +0.02 -0.03    +0.167 HD
DOCKED: ENDBRANCH  34  36
DOCKED: ENDBRANCH  33  34
DOCKED: ENDBRANCH  32  33
DOCKED: ENDBRANCH   6  32
DOCKED: BRANCH  22  38
DOCKED: ATOM     38  C   UNL d   1      -8.154  14.664  13.014 -0.14 -0.01    +0.052 C 
DOCKED: BRANCH  38  39
DOCKED: ATOM     39  C   UNL d   1      -8.415  13.177  12.781 -0.28 -0.03    +0.115 C 
DOCKED: BRANCH  39  40
DOCKED: ATOM     40  C   UNL d   1      -7.926  12.711  11.433 -0.42 -0.04    +0.139 C 
DOCKED: ATOM     41  O   UNL d   1      -8.147  13.387  10.441 -0.12 +0.21    -0.650 OA
DOCKED: BRANCH  40  42
DOCKED: ATOM     42  O   UNL d   1      -7.203  11.581  11.307 +0.04 +0.21    -0.776 OA
DOCKED: ATOM     43  H   UNL d   1      -7.210  11.065  10.493 -0.29 -0.07    +0.167 HD
DOCKED: ENDBRANCH  40  42
DOCKED: ENDBRANCH  39  40
DOCKED: ENDBRANCH  38  39
DOCKED: ENDBRANCH  22  38
DOCKED: BRANCH  12  44
DOCKED: ATOM     44  C   UNL d   1      -0.006  19.419   6.708 -0.20 +0.00    +0.004 C 
DOCKED: ATOM     45  C   UNL d   1       1.089  18.800   6.268 -0.29 +0.00    +0.012 C 
DOCKED: ENDBRANCH  12  44
DOCKED: BRANCH  17  46
DOCKED: ATOM     46  C   UNL d   1      -0.291  15.047  13.625 -0.34 -0.00    +0.004 C 
DOCKED: ATOM     47  C   UNL d   1       0.508  13.973  13.663 -0.42 -0.00    +0.012 C 
DOCKED: ENDBRANCH  17  46
DOCKED: TORSDOF 10
DOCKED: TER
DOCKED: ENDMDL
________________________________________________________________________________


	BEGINNING GENETIC ALGORITHM DOCKING 9 of 100
Run: 9 Seed: 1330945395 682749589 [ Run 9 of 100 GA/GALS ]
Beginning LAMARCKIAN GENETIC ALGORITHM (LGA), with a maximum of 25000000 energy evaluations.

Final-Value: -10.471


	FINAL GENETIC ALGORITHM DOCKED STATE
	_______________________________________________


Detailed state:  trans 5.160 0.343 -17.871 quatxyzw -0.736306 0.122595 -0.309503 0.589094 center 8.287 34.468 -0.670 ntor 10 14.8638 -166.3332 75.5186 -120.1792 125.7493 160.2778 69.8741 -86.3790 -23.7578 138.7038
State:	  5.160   0.343 -17.871  -0.911  0.152 -0.383 107.814     14.86 -166.33   75.52 -120.18  125.75  160.28   69.87  -86.38  -23.76  138.70

DOCKED: MODEL        9
DOCKED: USER    Run = 9
DOCKED: USER    DPF = D:/Protein_go_brrr/autodock/final/mut_D99N/heme_O2/dock.dpf
DOCKED: USER  
DOCKED: USER    Estimated Free Energy of Binding    =   -6.76 kcal/mol  [=(1)+(2)+(3)-(4)]
DOCKED: USER    Estimated Inhibition Constant, Ki   =   11.16 uM (micromolar)  [Temperature = 298.15 K]
DOCKED: USER    
DOCKED: USER    (1) Final Intermolecular Energy     =   -9.74 kcal/mol
DOCKED: USER        vdW + Hbond + desolv Energy     =   -7.31 kcal/mol
DOCKED: USER        Electrostatic Energy            =   -2.43 kcal/mol
DOCKED: USER    (2) Final Total Internal Energy     =   -0.73 kcal/mol
DOCKED: USER    (3) Torsional Free Energy           =   +2.98 kcal/mol
DOCKED: USER    (4) Unbound System's Energy  [=(2)] =   -0.73 kcal/mol
DOCKED: USER    
DOCKED: USER    
DOCKED: USER    NEWDPF move heme_O2_opt.pdbqt
DOCKED: USER    NEWDPF about 8.287000 34.468000 -0.670000
DOCKED: USER    NEWDPF tran0 5.160241 0.342758 -17.871202
DOCKED: USER    NEWDPF quaternion0 -0.736306 0.122595 -0.309503 0.589094
DOCKED: USER    NEWDPF axisangle0 -0.911197 0.151714 -0.383018 107.814480
DOCKED: USER    NEWDPF quat0 -0.911197 0.151714 -0.383018 107.814480
DOCKED: USER    NEWDPF dihe0 14.86 -166.33 75.52 -120.18 125.75 160.28 69.87 -86.38 -23.76 138.70 
DOCKED: USER  keepresnum = 1 
DOCKED: USER  
DOCKED: REMARK  10 active torsions:
DOCKED: REMARK  status: ('A' for Active; 'I' for Inactive)
DOCKED: REMARK    1  A    between atoms: C_6  and  C_10 
DOCKED: REMARK    2  A    between atoms: C_10  and  C_11 
DOCKED: REMARK    3  A    between atoms: C_11  and  C_12 
DOCKED: REMARK    4  A    between atoms: C_12  and  O_14 
DOCKED: REMARK    5  A    between atoms: C_17  and  C_20 
DOCKED: REMARK    6  A    between atoms: C_24  and  C_27 
DOCKED: REMARK    7  A    between atoms: C_31  and  C_34 
DOCKED: REMARK    8  A    between atoms: C_34  and  C_35 
DOCKED: REMARK    9  A    between atoms: C_35  and  C_36 
DOCKED: REMARK   10  A    between atoms: C_36  and  O_38 
DOCKED: USER                              x       y       z     vdW  Elec       q    Type
DOCKED: USER                           _______ _______ _______ _____ _____    ______ ____
DOCKED: ROOT
DOCKED: ATOM      1  C   UNL d   1       3.127   0.587 -18.426 -0.12 +0.02    +0.064 A 
DOCKED: ATOM      2  C   UNL d   1       6.683  -1.941 -20.303 +0.04 +0.01    +0.064 A 
DOCKED: ATOM      3  C   UNL d   1       9.721  -0.337 -16.943 -0.07 +0.03    +0.064 C 
DOCKED: ATOM      4  C   UNL d   1       5.958   1.893 -14.721 -0.14 +0.01    +0.064 A 
DOCKED: ATOM      5  C   UNL d   1       3.846  -0.233 -19.209 -0.15 +0.02    +0.066 A 
DOCKED: ATOM      6  C   UNL d   1       3.334  -0.893 -20.330 -0.17 -0.01    -0.021 A 
DOCKED: ATOM      7  C   UNL d   1       4.351  -1.659 -20.849 -0.11 -0.01    -0.025 A 
DOCKED: ATOM      8  C   UNL d   1       5.470  -1.409 -20.060 -0.08 +0.02    +0.066 A 
DOCKED: ATOM      9  C   UNL d   1       4.213  -2.597 -22.028 -0.15 +0.01    +0.051 C 
DOCKED: ATOM     10  C   UNL d   1       7.898  -1.698 -19.524 -0.17 +0.02    +0.066 A 
DOCKED: ATOM     11  C   UNL d   1       9.165  -2.146 -19.915 -0.15 -0.00    -0.021 A 
DOCKED: ATOM     12  C   UNL d   1      10.057  -1.678 -18.968 -0.12 +0.00    +0.000 A 
DOCKED: ATOM     13  C   UNL d   1       9.265  -0.966 -18.026 -0.12 +0.03    +0.070 A 
DOCKED: ATOM     14  C   UNL d   1       9.513  -2.962 -21.155 -0.13 +0.01    +0.052 C 
DOCKED: ATOM     15  C   UNL d   1       8.948   0.364 -15.946 -0.08 +0.03    +0.066 A 
DOCKED: ATOM     16  C   UNL d   1       9.466   0.861 -14.750 -0.10 -0.01    -0.021 A 
DOCKED: ATOM     17  C   UNL d   1       8.410   1.500 -14.099 -0.18 +0.00    +0.000 A 
DOCKED: ATOM     18  C   UNL d   1       7.314   1.345 -14.959 -0.15 +0.02    +0.070 A 
DOCKED: ATOM     19  C   UNL d   1      10.891   0.635 -14.314 -0.16 +0.02    +0.052 C 
DOCKED: ATOM     20  C   UNL d   1       4.874   1.726 -15.504 -0.11 +0.01    +0.066 A 
DOCKED: ATOM     21  C   UNL d   1       3.626   2.282 -15.237 -0.16 -0.01    -0.025 A 
DOCKED: ATOM     22  C   UNL d   1       2.814   1.943 -16.296 -0.14 -0.01    -0.021 A 
DOCKED: ATOM     23  C   UNL d   1       3.595   1.175 -17.165 -0.11 +0.02    +0.066 A 
DOCKED: ATOM     24  C   UNL d   1       3.227   3.091 -14.030 -0.21 +0.01    +0.051 C 
DOCKED: ATOM     25  N   UNL d   1       5.141  -0.581 -19.011 -0.10 -0.06    -0.248 N 
DOCKED: ATOM     26  N   UNL d   1       7.952  -0.988 -18.369 -0.10 -0.08    -0.248 N 
DOCKED: ATOM     27  N   UNL d   1       7.641   0.590 -16.039 -0.09 -0.07    -0.248 N 
DOCKED: ATOM     28  N   UNL d   1       4.834   1.008 -16.658 -0.04 -0.06    -0.248 N 
DOCKED: ATOM     29 FE   UNL d   1       6.383   0.018 -17.505 -0.03 +0.00    +0.000 Fe
DOCKED: ATOM     30  O   UNL d   1       6.015  -1.493 -17.451 -0.49 +0.00    +0.000 OA
DOCKED: ATOM     31  O   UNL d   1       6.092  -0.661 -16.116 -0.38 +0.00    +0.000 OA
DOCKED: ENDROOT
DOCKED: BRANCH   6  32
DOCKED: ATOM     32  C   UNL d   1       1.908  -0.913 -20.818 -0.18 +0.02    +0.052 C 
DOCKED: BRANCH  32  33
DOCKED: ATOM     33  C   UNL d   1       1.379   0.477 -21.160 -0.07 +0.05    +0.115 C 
DOCKED: BRANCH  33  34
DOCKED: ATOM     34  C   UNL d   1       0.296   0.929 -20.212 -0.10 +0.10    +0.139 C 
DOCKED: ATOM     35  O   UNL d   1      -0.374   0.098 -19.620 -0.56 -1.05    -0.650 OA
DOCKED: BRANCH  34  36
DOCKED: ATOM     36  O   UNL d   1       0.030   2.238 -20.023 +0.04 -0.44    -0.776 OA
DOCKED: ATOM     37  H   UNL d   1       0.355   2.918 -20.624 +0.01 +0.06    +0.167 HD
DOCKED: ENDBRANCH  34  36
DOCKED: ENDBRANCH  33  34
DOCKED: ENDBRANCH  32  33
DOCKED: ENDBRANCH   6  32
DOCKED: BRANCH  22  38
DOCKED: ATOM     38  C   UNL d   1       1.353   2.286 -16.427 -0.16 +0.03    +0.052 C 
DOCKED: BRANCH  38  39
DOCKED: ATOM     39  C   UNL d   1       0.469   1.044 -16.520 -0.12 +0.12    +0.115 C 
DOCKED: BRANCH  39  40
DOCKED: ATOM     40  C   UNL d   1      -0.041   0.597 -15.173 -0.37 +0.16    +0.139 C 
DOCKED: ATOM     41  O   UNL d   1       0.749   0.371 -14.271 -0.17 -0.49    -0.650 OA
DOCKED: BRANCH  40  42
DOCKED: ATOM     42  O   UNL d   1      -1.361   0.491 -14.929 -0.48 -1.13    -0.776 OA
DOCKED: ATOM     43  H   UNL d   1      -1.706   0.437 -14.029 -0.05 +0.16    +0.167 HD
DOCKED: ENDBRANCH  40  42
DOCKED: ENDBRANCH  39  40
DOCKED: ENDBRANCH  38  39
DOCKED: ENDBRANCH  22  38
DOCKED: BRANCH  12  44
DOCKED: ATOM     44  C   UNL d   1      11.543  -1.955 -19.058 -0.08 +0.00    +0.004 C 
DOCKED: ATOM     45  C   UNL d   1      12.272  -2.764 -18.290 -0.10 +0.01    +0.012 C 
DOCKED: ENDBRANCH  12  44
DOCKED: BRANCH  17  46
DOCKED: ATOM     46  C   UNL d   1       8.340   2.170 -12.753 -0.30 +0.00    +0.004 C 
DOCKED: ATOM     47  C   UNL d   1       7.470   1.946 -11.760 -0.35 +0.00    +0.012 C 
DOCKED: ENDBRANCH  17  46
DOCKED: TORSDOF 10
DOCKED: TER
DOCKED: ENDMDL
________________________________________________________________________________


	BEGINNING GENETIC ALGORITHM DOCKING 10 of 100
Run: 10 Seed: 1335069755 704363588 [ Run 10 of 100 GA/GALS ]
Beginning LAMARCKIAN GENETIC ALGORITHM (LGA), with a maximum of 25000000 energy evaluations.

Final-Value: -9.754


	FINAL GENETIC ALGORITHM DOCKED STATE
	_______________________________________________


Detailed state:  trans -9.213 16.036 -6.503 quatxyzw -0.582100 -0.155424 0.572792 0.555798 center 8.287 34.468 -0.670 ntor 10 139.3396 -72.7528 -61.1362 -101.6488 -99.2880 82.0215 -52.8772 72.5008 179.7558 -152.5793
State:	 -9.213  16.036  -6.503  -0.700 -0.187  0.689 112.469    139.34  -72.75  -61.14 -101.65  -99.29   82.02  -52.88   72.50  179.76 -152.58

DOCKED: MODEL       10
DOCKED: USER    Run = 10
DOCKED: USER    DPF = D:/Protein_go_brrr/autodock/final/mut_D99N/heme_O2/dock.dpf
DOCKED: USER  
DOCKED: USER    Estimated Free Energy of Binding    =   -5.52 kcal/mol  [=(1)+(2)+(3)-(4)]
DOCKED: USER    Estimated Inhibition Constant, Ki   =   89.79 uM (micromolar)  [Temperature = 298.15 K]
DOCKED: USER    
DOCKED: USER    (1) Final Intermolecular Energy     =   -8.50 kcal/mol
DOCKED: USER        vdW + Hbond + desolv Energy     =   -6.66 kcal/mol
DOCKED: USER        Electrostatic Energy            =   -1.85 kcal/mol
DOCKED: USER    (2) Final Total Internal Energy     =   -1.25 kcal/mol
DOCKED: USER    (3) Torsional Free Energy           =   +2.98 kcal/mol
DOCKED: USER    (4) Unbound System's Energy  [=(2)] =   -1.25 kcal/mol
DOCKED: USER    
DOCKED: USER    
DOCKED: USER    NEWDPF move heme_O2_opt.pdbqt
DOCKED: USER    NEWDPF about 8.287000 34.468000 -0.670000
DOCKED: USER    NEWDPF tran0 -9.212841 16.035758 -6.503318
DOCKED: USER    NEWDPF quaternion0 -0.582100 -0.155424 0.572792 0.555798
DOCKED: USER    NEWDPF axisangle0 -0.700214 -0.186962 0.689018 112.468579
DOCKED: USER    NEWDPF quat0 -0.700214 -0.186962 0.689018 112.468579
DOCKED: USER    NEWDPF dihe0 139.34 -72.75 -61.14 -101.65 -99.29 82.02 -52.88 72.50 179.76 -152.58 
DOCKED: USER  keepresnum = 1 
DOCKED: USER  
DOCKED: REMARK  10 active torsions:
DOCKED: REMARK  status: ('A' for Active; 'I' for Inactive)
DOCKED: REMARK    1  A    between atoms: C_6  and  C_10 
DOCKED: REMARK    2  A    between atoms: C_10  and  C_11 
DOCKED: REMARK    3  A    between atoms: C_11  and  C_12 
DOCKED: REMARK    4  A    between atoms: C_12  and  O_14 
DOCKED: REMARK    5  A    between atoms: C_17  and  C_20 
DOCKED: REMARK    6  A    between atoms: C_24  and  C_27 
DOCKED: REMARK    7  A    between atoms: C_31  and  C_34 
DOCKED: REMARK    8  A    between atoms: C_34  and  C_35 
DOCKED: REMARK    9  A    between atoms: C_35  and  C_36 
DOCKED: REMARK   10  A    between atoms: C_36  and  O_38 
DOCKED: USER                              x       y       z     vdW  Elec       q    Type
DOCKED: USER                           _______ _______ _______ _____ _____    ______ ____
DOCKED: ROOT
DOCKED: ATOM      1  C   UNL d   1      -8.878  17.347  -4.870 -0.04 +0.01    +0.064 A 
DOCKED: ATOM      2  C   UNL d   1     -12.592  14.663  -6.120 -0.18 -0.00    +0.064 A 
DOCKED: ATOM      3  C   UNL d   1     -10.281  13.130 -10.045 -0.15 -0.01    +0.064 C 
DOCKED: ATOM      4  C   UNL d   1      -6.275  15.515  -8.518 -0.13 +0.00    +0.064 A 
DOCKED: ATOM      5  C   UNL d   1     -10.076  16.741  -4.889 -0.04 +0.01    +0.066 A 
DOCKED: ATOM      6  C   UNL d   1     -11.069  16.939  -3.925 -0.06 -0.00    -0.021 A 
DOCKED: ATOM      7  C   UNL d   1     -12.128  16.130  -4.262 -0.12 -0.00    -0.025 A 
DOCKED: ATOM      8  C   UNL d   1     -11.772  15.496  -5.449 -0.12 -0.00    +0.066 A 
DOCKED: ATOM      9  C   UNL d   1     -13.393  15.974  -3.446 -0.16 -0.00    +0.051 C 
DOCKED: ATOM     10  C   UNL d   1     -12.283  13.987  -7.381 -0.18 -0.01    +0.066 A 
DOCKED: ATOM     11  C   UNL d   1     -13.228  13.265  -8.118 -0.23 +0.00    -0.021 A 
DOCKED: ATOM     12  C   UNL d   1     -12.585  12.829  -9.262 -0.27 -0.00    +0.000 A 
DOCKED: ATOM     13  C   UNL d   1     -11.252  13.312  -9.150 -0.21 -0.01    +0.070 A 
DOCKED: ATOM     14  C   UNL d   1     -14.690  13.023  -7.759 -0.27 -0.01    +0.052 C 
DOCKED: ATOM     15  C   UNL d   1      -8.910  13.571  -9.952 -0.23 -0.01    +0.066 A 
DOCKED: ATOM     16  C   UNL d   1      -7.901  13.209 -10.843 -0.27 +0.00    -0.021 A 
DOCKED: ATOM     17  C   UNL d   1      -6.749  13.877 -10.428 -0.18 -0.00    +0.000 A 
DOCKED: ATOM     18  C   UNL d   1      -7.148  14.607  -9.300 -0.14 -0.00    +0.070 A 
DOCKED: ATOM     19  C   UNL d   1      -8.110  12.225 -11.967 -0.20 -0.01    +0.052 C 
DOCKED: ATOM     20  C   UNL d   1      -6.613  16.197  -7.407 -0.12 +0.00    +0.066 A 
DOCKED: ATOM     21  C   UNL d   1      -5.753  17.052  -6.723 -0.02 -0.00    -0.025 A 
DOCKED: ATOM     22  C   UNL d   1      -6.486  17.604  -5.697 -0.07 -0.00    -0.021 A 
DOCKED: ATOM     23  C   UNL d   1      -7.766  17.049  -5.781 -0.08 +0.01    +0.066 A 
DOCKED: ATOM     24  C   UNL d   1      -4.303  17.325  -7.032 -0.08 +0.01    +0.051 C 
DOCKED: ATOM     25  N   UNL d   1     -10.483  15.823  -5.800 -0.03 -0.01    -0.248 N 
DOCKED: ATOM     26  N   UNL d   1     -11.076  14.011  -8.000 -0.10 +0.02    -0.248 N 
DOCKED: ATOM     27  N   UNL d   1      -8.442  14.352  -8.981 -0.10 +0.00    -0.248 N 
DOCKED: ATOM     28  N   UNL d   1      -7.827  16.161  -6.795 -0.07 -0.02    -0.248 N 
DOCKED: ATOM     29 FE   UNL d   1      -9.438  15.093  -7.395 -0.03 +0.00    +0.000 Fe
DOCKED: ATOM     30  O   UNL d   1      -9.700  14.038  -6.280 -0.35 +0.00    +0.000 OA
DOCKED: ATOM     31  O   UNL d   1      -8.307  14.068  -7.015 -0.38 +0.00    +0.000 OA
DOCKED: ENDROOT
DOCKED: BRANCH   6  32
DOCKED: ATOM     32  C   UNL d   1     -10.977  17.752  -2.659 -0.04 +0.01    +0.052 C 
DOCKED: BRANCH  32  33
DOCKED: ATOM     33  C   UNL d   1     -10.637  16.907  -1.436 -0.11 +0.03    +0.115 C 
DOCKED: BRANCH  33  34
DOCKED: ATOM     34  C   UNL d   1      -9.417  17.413  -0.708 -0.09 +0.09    +0.139 C 
DOCKED: ATOM     35  O   UNL d   1      -9.542  17.936   0.388 -0.02 -0.42    -0.650 OA
DOCKED: BRANCH  34  36
DOCKED: ATOM     36  O   UNL d   1      -8.186  17.328  -1.254 +0.02 -0.79    -0.776 OA
DOCKED: ATOM     37  H   UNL d   1      -7.542  18.041  -1.176 +0.01 +0.18    +0.167 HD
DOCKED: ENDBRANCH  34  36
DOCKED: ENDBRANCH  33  34
DOCKED: ENDBRANCH  32  33
DOCKED: ENDBRANCH   6  32
DOCKED: BRANCH  22  38
DOCKED: ATOM     38  C   UNL d   1      -5.960  18.560  -4.657 -0.05 +0.01    +0.052 C 
DOCKED: BRANCH  38  39
DOCKED: ATOM     39  C   UNL d   1      -4.679  18.054  -3.996 -0.03 +0.04    +0.115 C 
DOCKED: BRANCH  39  40
DOCKED: ATOM     40  C   UNL d   1      -4.901  17.620  -2.568 -0.05 +0.09    +0.139 C 
DOCKED: ATOM     41  O   UNL d   1      -4.128  17.985  -1.697 -0.00 -0.34    -0.650 OA
DOCKED: BRANCH  40  42
DOCKED: ATOM     42  O   UNL d   1      -5.969  16.875  -2.226 -0.76 -0.87    -0.776 OA
DOCKED: ATOM     43  H   UNL d   1      -6.862  17.240  -2.232 +0.03 +0.16    +0.167 HD
DOCKED: ENDBRANCH  40  42
DOCKED: ENDBRANCH  39  40
DOCKED: ENDBRANCH  38  39
DOCKED: ENDBRANCH  22  38
DOCKED: BRANCH  12  44
DOCKED: ATOM     44  C   UNL d   1     -13.295  12.012 -10.321 -0.32 -0.00    +0.004 C 
DOCKED: ATOM     45  C   UNL d   1     -13.568  12.360 -11.578 -0.27 -0.01    +0.012 C 
DOCKED: ENDBRANCH  12  44
DOCKED: BRANCH  17  46
DOCKED: ATOM     46  C   UNL d   1      -5.339  13.837 -10.954 -0.15 -0.00    +0.004 C 
DOCKED: ATOM     47  C   UNL d   1      -4.260  13.279 -10.391 -0.20 -0.00    +0.012 C 
DOCKED: ENDBRANCH  17  46
DOCKED: TORSDOF 10
DOCKED: TER
DOCKED: ENDMDL
________________________________________________________________________________


	BEGINNING GENETIC ALGORITHM DOCKING 11 of 100
Run: 11 Seed: 1361925849 1943498777 [ Run 11 of 100 GA/GALS ]
Beginning LAMARCKIAN GENETIC ALGORITHM (LGA), with a maximum of 25000000 energy evaluations.

Final-Value: -10.803


	FINAL GENETIC ALGORITHM DOCKED STATE
	_______________________________________________


Detailed state:  trans 13.917 -10.234 6.991 quatxyzw -0.358544 -0.137451 -0.914615 0.126623 center 8.287 34.468 -0.670 ntor 10 36.4600 4.9845 53.2455 152.2810 88.5446 91.2083 66.7014 0.7499 164.2981 -176.0995
State:	 13.917 -10.234   6.991  -0.361 -0.139 -0.922 165.451     36.46    4.98   53.25  152.28   88.54   91.21   66.70    0.75  164.30 -176.10

DOCKED: MODEL       11
DOCKED: USER    Run = 11
DOCKED: USER    DPF = D:/Protein_go_brrr/autodock/final/mut_D99N/heme_O2/dock.dpf
DOCKED: USER  
DOCKED: USER    Estimated Free Energy of Binding    =   -7.28 kcal/mol  [=(1)+(2)+(3)-(4)]
DOCKED: USER    Estimated Inhibition Constant, Ki   =    4.57 uM (micromolar)  [Temperature = 298.15 K]
DOCKED: USER    
DOCKED: USER    (1) Final Intermolecular Energy     =  -10.27 kcal/mol
DOCKED: USER        vdW + Hbond + desolv Energy     =   -9.04 kcal/mol
DOCKED: USER        Electrostatic Energy            =   -1.23 kcal/mol
DOCKED: USER    (2) Final Total Internal Energy     =   -0.54 kcal/mol
DOCKED: USER    (3) Torsional Free Energy           =   +2.98 kcal/mol
DOCKED: USER    (4) Unbound System's Energy  [=(2)] =   -0.54 kcal/mol
DOCKED: USER    
DOCKED: USER    
DOCKED: USER    NEWDPF move heme_O2_opt.pdbqt
DOCKED: USER    NEWDPF about 8.287000 34.468000 -0.670000
DOCKED: USER    NEWDPF tran0 13.916913 -10.234354 6.991248
DOCKED: USER    NEWDPF quaternion0 -0.358544 -0.137451 -0.914615 0.126623
DOCKED: USER    NEWDPF axisangle0 -0.361453 -0.138567 -0.922036 165.450988
DOCKED: USER    NEWDPF quat0 -0.361453 -0.138567 -0.922036 165.450988
DOCKED: USER    NEWDPF dihe0 36.46 4.98 53.25 152.28 88.54 91.21 66.70 0.75 164.30 -176.10 
DOCKED: USER  keepresnum = 1 
DOCKED: USER  
DOCKED: REMARK  10 active torsions:
DOCKED: REMARK  status: ('A' for Active; 'I' for Inactive)
DOCKED: REMARK    1  A    between atoms: C_6  and  C_10 
DOCKED: REMARK    2  A    between atoms: C_10  and  C_11 
DOCKED: REMARK    3  A    between atoms: C_11  and  C_12 
DOCKED: REMARK    4  A    between atoms: C_12  and  O_14 
DOCKED: REMARK    5  A    between atoms: C_17  and  C_20 
DOCKED: REMARK    6  A    between atoms: C_24  and  C_27 
DOCKED: REMARK    7  A    between atoms: C_31  and  C_34 
DOCKED: REMARK    8  A    between atoms: C_34  and  C_35 
DOCKED: REMARK    9  A    between atoms: C_35  and  C_36 
DOCKED: REMARK   10  A    between atoms: C_36  and  O_38 
DOCKED: USER                              x       y       z     vdW  Elec       q    Type
DOCKED: USER                           _______ _______ _______ _____ _____    ______ ____
DOCKED: ROOT
DOCKED: ATOM      1  C   UNL d   1      14.614 -11.540   5.472 -0.21 -0.05    +0.064 A 
DOCKED: ATOM      2  C   UNL d   1      16.701  -8.020   7.882 -0.21 -0.01    +0.064 A 
DOCKED: ATOM      3  C   UNL d   1      12.645  -7.151  10.308 -0.27 -0.02    +0.064 C 
DOCKED: ATOM      4  C   UNL d   1      10.625 -11.081   8.177 -0.20 -0.02    +0.064 A 
DOCKED: ATOM      5  C   UNL d   1      15.513 -10.655   5.931 -0.29 -0.03    +0.066 A 
DOCKED: ATOM      6  C   UNL d   1      16.826 -10.558   5.461 -0.25 +0.01    -0.021 A 
DOCKED: ATOM      7  C   UNL d   1      17.444  -9.568   6.188 -0.29 +0.00    -0.025 A 
DOCKED: ATOM      8  C   UNL d   1      16.478  -9.055   7.049 -0.25 -0.01    +0.066 A 
DOCKED: ATOM      9  C   UNL d   1      18.901  -9.180   6.058 -0.27 +0.01    +0.051 C 
DOCKED: ATOM     10  C   UNL d   1      15.722  -7.424   8.791 -0.19 -0.02    +0.066 A 
DOCKED: ATOM     11  C   UNL d   1      15.957  -6.249   9.514 -0.16 +0.01    -0.021 A 
DOCKED: ATOM     12  C   UNL d   1      14.793  -5.972  10.206 -0.21 -0.00    +0.000 A 
DOCKED: ATOM     13  C   UNL d   1      13.897  -7.024   9.868 -0.22 -0.03    +0.070 A 
DOCKED: ATOM     14  C   UNL d   1      17.231  -5.411   9.522 -0.10 -0.01    +0.052 C 
DOCKED: ATOM     15  C   UNL d   1      11.718  -8.218  10.017 -0.22 -0.03    +0.066 A 
DOCKED: ATOM     16  C   UNL d   1      10.480  -8.381  10.638 -0.17 +0.01    -0.021 A 
DOCKED: ATOM     17  C   UNL d   1       9.886  -9.496  10.047 -0.19 -0.00    +0.000 A 
DOCKED: ATOM     18  C   UNL d   1      10.818  -9.935   9.096 -0.20 -0.03    +0.070 A 
DOCKED: ATOM     19  C   UNL d   1      10.003  -7.500  11.765 -0.18 -0.05    +0.052 C 
DOCKED: ATOM     20  C   UNL d   1      11.515 -11.555   7.284 -0.22 -0.02    +0.066 A 
DOCKED: ATOM     21  C   UNL d   1      11.269 -12.628   6.431 -0.23 +0.01    -0.025 A 
DOCKED: ATOM     22  C   UNL d   1      12.385 -12.756   5.635 -0.25 +0.01    -0.021 A 
DOCKED: ATOM     23  C   UNL d   1      13.281 -11.764   6.044 -0.29 -0.03    +0.066 A 
DOCKED: ATOM     24  C   UNL d   1      10.034 -13.490   6.382 -0.28 -0.01    +0.051 C 
DOCKED: ATOM     25  N   UNL d   1      15.307  -9.769   6.936 -0.13 +0.11    -0.248 N 
DOCKED: ATOM     26  N   UNL d   1      14.471  -7.905   9.011 -0.09 +0.10    -0.248 N 
DOCKED: ATOM     27  N   UNL d   1      11.954  -9.194   9.145 -0.16 +0.10    -0.248 N 
DOCKED: ATOM     28  N   UNL d   1      12.766 -11.065   7.077 -0.12 +0.11    -0.248 N 
DOCKED: ATOM     29 FE   UNL d   1      13.610  -9.497   8.038 -0.06 -0.00    +0.000 Fe
DOCKED: ATOM     30  O   UNL d   1      14.803 -10.077   8.853 -0.14 -0.00    +0.000 OA
DOCKED: ATOM     31  O   UNL d   1      13.345 -10.619   9.108 -0.13 -0.00    +0.000 OA
DOCKED: ENDROOT
DOCKED: BRANCH   6  32
DOCKED: ATOM     32  C   UNL d   1      17.518 -11.451   4.463 -0.34 -0.02    +0.052 C 
DOCKED: BRANCH  32  33
DOCKED: ATOM     33  C   UNL d   1      18.626 -12.291   5.089 -0.18 -0.02    +0.115 C 
DOCKED: BRANCH  33  34
DOCKED: ATOM     34  C   UNL d   1      19.990 -11.940   4.547 -0.19 +0.03    +0.139 C 
DOCKED: ATOM     35  O   UNL d   1      20.228 -12.103   3.361 -0.05 -0.12    -0.650 OA
DOCKED: BRANCH  34  36
DOCKED: ATOM     36  O   UNL d   1      20.968 -11.474   5.351 +0.01 -0.37    -0.776 OA
DOCKED: ATOM     37  H   UNL d   1      21.085 -11.796   6.253 +0.03 +0.07    +0.167 HD
DOCKED: ENDBRANCH  34  36
DOCKED: ENDBRANCH  33  34
DOCKED: ENDBRANCH  32  33
DOCKED: ENDBRANCH   6  32
DOCKED: BRANCH  22  38
DOCKED: ATOM     38  C   UNL d   1      12.597 -13.816   4.584 -0.32 -0.03    +0.052 C 
DOCKED: BRANCH  38  39
DOCKED: ATOM     39  C   UNL d   1      12.901 -15.183   5.191 -0.20 -0.03    +0.115 C 
DOCKED: BRANCH  39  40
DOCKED: ATOM     40  C   UNL d   1      13.105 -16.247   4.142 -0.09 +0.03    +0.139 C 
DOCKED: ATOM     41  O   UNL d   1      12.425 -17.261   4.166 -0.04 -0.19    -0.650 OA
DOCKED: BRANCH  40  42
DOCKED: ATOM     42  O   UNL d   1      13.991 -16.078   3.142 -0.33 -0.52    -0.776 OA
DOCKED: ATOM     43  H   UNL d   1      14.598 -15.328   3.127 -0.40 -0.15    +0.167 HD
DOCKED: ENDBRANCH  40  42
DOCKED: ENDBRANCH  39  40
DOCKED: ENDBRANCH  38  39
DOCKED: ENDBRANCH  22  38
DOCKED: BRANCH  12  44
DOCKED: ATOM     44  C   UNL d   1      14.660  -4.759  11.102 -0.17 -0.00    +0.004 C 
DOCKED: ATOM     45  C   UNL d   1      14.202  -4.711  12.353 -0.12 -0.00    +0.012 C 
DOCKED: ENDBRANCH  12  44
DOCKED: BRANCH  17  46
DOCKED: ATOM     46  C   UNL d   1       8.582 -10.191  10.336 -0.23 -0.00    +0.004 C 
DOCKED: ATOM     47  C   UNL d   1       7.754 -10.792   9.472 -0.27 -0.01    +0.012 C 
DOCKED: ENDBRANCH  17  46
DOCKED: TORSDOF 10
DOCKED: TER
DOCKED: ENDMDL
________________________________________________________________________________


	BEGINNING GENETIC ALGORITHM DOCKING 12 of 100
Run: 12 Seed: 80727922 476324424 [ Run 12 of 100 GA/GALS ]
Beginning LAMARCKIAN GENETIC ALGORITHM (LGA), with a maximum of 25000000 energy evaluations.

Final-Value: -9.647


	FINAL GENETIC ALGORITHM DOCKED STATE
	_______________________________________________


Detailed state:  trans 9.673 4.510 -9.305 quatxyzw 0.404574 -0.558634 0.219370 0.690018 center 8.287 34.468 -0.670 ntor 10 -66.6198 -158.4052 -93.1414 -113.9380 129.3946 102.2849 39.7399 -128.1787 -180.0000 -3.2810
State:	  9.673   4.510  -9.305   0.559 -0.772  0.303 92.737    -66.62 -158.41  -93.14 -113.94  129.39  102.28   39.74 -128.18 -180.00   -3.28

DOCKED: MODEL       12
DOCKED: USER    Run = 12
DOCKED: USER    DPF = D:/Protein_go_brrr/autodock/final/mut_D99N/heme_O2/dock.dpf
DOCKED: USER  
DOCKED: USER    Estimated Free Energy of Binding    =   -6.17 kcal/mol  [=(1)+(2)+(3)-(4)]
DOCKED: USER    Estimated Inhibition Constant, Ki   =   30.25 uM (micromolar)  [Temperature = 298.15 K]
DOCKED: USER    
DOCKED: USER    (1) Final Intermolecular Energy     =   -9.15 kcal/mol
DOCKED: USER        vdW + Hbond + desolv Energy     =   -8.16 kcal/mol
DOCKED: USER        Electrostatic Energy            =   -0.99 kcal/mol
DOCKED: USER    (2) Final Total Internal Energy     =   -0.50 kcal/mol
DOCKED: USER    (3) Torsional Free Energy           =   +2.98 kcal/mol
DOCKED: USER    (4) Unbound System's Energy  [=(2)] =   -0.50 kcal/mol
DOCKED: USER    
DOCKED: USER    
DOCKED: USER    NEWDPF move heme_O2_opt.pdbqt
DOCKED: USER    NEWDPF about 8.287000 34.468000 -0.670000
DOCKED: USER    NEWDPF tran0 9.673113 4.510057 -9.304524
DOCKED: USER    NEWDPF quaternion0 0.404574 -0.558634 0.219370 0.690018
DOCKED: USER    NEWDPF axisangle0 0.558964 -0.771815 0.303085 92.736854
DOCKED: USER    NEWDPF quat0 0.558964 -0.771815 0.303085 92.736854
DOCKED: USER    NEWDPF dihe0 -66.62 -158.41 -93.14 -113.94 129.39 102.28 39.74 -128.18 -180.00 -3.28 
DOCKED: USER  keepresnum = 1 
DOCKED: USER  
DOCKED: REMARK  10 active torsions:
DOCKED: REMARK  status: ('A' for Active; 'I' for Inactive)
DOCKED: REMARK    1  A    between atoms: C_6  and  C_10 
DOCKED: REMARK    2  A    between atoms: C_10  and  C_11 
DOCKED: REMARK    3  A    between atoms: C_11  and  C_12 
DOCKED: REMARK    4  A    between atoms: C_12  and  O_14 
DOCKED: REMARK    5  A    between atoms: C_17  and  C_20 
DOCKED: REMARK    6  A    between atoms: C_24  and  C_27 
DOCKED: REMARK    7  A    between atoms: C_31  and  C_34 
DOCKED: REMARK    8  A    between atoms: C_34  and  C_35 
DOCKED: REMARK    9  A    between atoms: C_35  and  C_36 
DOCKED: REMARK   10  A    between atoms: C_36  and  O_38 
DOCKED: USER                              x       y       z     vdW  Elec       q    Type
DOCKED: USER                           _______ _______ _______ _____ _____    ______ ____
DOCKED: ROOT
DOCKED: ATOM      1  C   UNL d   1       8.302   6.018  -8.717 -0.16 +0.02    +0.064 A 
DOCKED: ATOM      2  C   UNL d   1      12.553   4.720  -7.044 -0.12 +0.00    +0.064 A 
DOCKED: ATOM      3  C   UNL d   1      12.874   1.216 -10.316 -0.25 +0.01    +0.064 C 
DOCKED: ATOM      4  C   UNL d   1       8.719   2.846 -12.351 -0.19 +0.01    +0.064 A 
DOCKED: ATOM      5  C   UNL d   1       9.433   5.952  -7.996 -0.15 +0.01    +0.066 A 
DOCKED: ATOM      6  C   UNL d   1       9.723   6.792  -6.917 -0.18 -0.00    -0.021 A 
DOCKED: ATOM      7  C   UNL d   1      10.973   6.446  -6.459 -0.11 -0.00    -0.025 A 
DOCKED: ATOM      8  C   UNL d   1      11.391   5.372  -7.240 -0.12 +0.00    +0.066 A 
DOCKED: ATOM      9  C   UNL d   1      11.713   7.152  -5.345 -0.05 +0.00    +0.051 C 
DOCKED: ATOM     10  C   UNL d   1      13.035   3.574  -7.815 -0.15 +0.00    +0.066 A 
DOCKED: ATOM     11  C   UNL d   1      14.169   2.833  -7.466 -0.17 -0.00    -0.021 A 
DOCKED: ATOM     12  C   UNL d   1      14.268   1.807  -8.387 -0.24 +0.00    +0.000 A 
DOCKED: ATOM     13  C   UNL d   1      13.171   1.991  -9.274 -0.21 +0.01    +0.070 A 
DOCKED: ATOM     14  C   UNL d   1      15.104   3.077  -6.287 -0.11 +0.00    +0.052 C 
DOCKED: ATOM     15  C   UNL d   1      11.794   1.388 -11.257 -0.24 +0.01    +0.066 A 
DOCKED: ATOM     16  C   UNL d   1      11.633   0.639 -12.422 -0.27 -0.00    -0.021 A 
DOCKED: ATOM     17  C   UNL d   1      10.455   1.087 -13.020 -0.23 +0.00    +0.000 A 
DOCKED: ATOM     18  C   UNL d   1       9.978   2.088 -12.162 -0.22 +0.01    +0.070 A 
DOCKED: ATOM     19  C   UNL d   1      12.636  -0.388 -12.885 -0.21 +0.01    +0.052 C 
DOCKED: ATOM     20  C   UNL d   1       8.254   3.842 -11.572 -0.17 +0.01    +0.066 A 
DOCKED: ATOM     21  C   UNL d   1       7.051   4.507 -11.790 -0.13 -0.00    -0.025 A 
DOCKED: ATOM     22  C   UNL d   1       6.903   5.396 -10.749 -0.14 -0.00    -0.021 A 
DOCKED: ATOM     23  C   UNL d   1       8.034   5.252  -9.940 -0.15 +0.02    +0.066 A 
DOCKED: ATOM     24  C   UNL d   1       6.094   4.308 -12.937 -0.11 +0.01    +0.051 C 
DOCKED: ATOM     25  N   UNL d   1      10.470   5.111  -8.229 -0.03 -0.03    -0.248 N 
DOCKED: ATOM     26  N   UNL d   1      12.428   3.071  -8.921 -0.09 -0.03    -0.248 N 
DOCKED: ATOM     27  N   UNL d   1      10.842   2.309 -11.138 -0.12 -0.04    -0.248 N 
DOCKED: ATOM     28  N   UNL d   1       8.874   4.338 -10.468 -0.06 -0.05    -0.248 N 
DOCKED: ATOM     29 FE   UNL d   1      10.639   3.707  -9.703 -0.05 +0.00    +0.000 Fe
DOCKED: ATOM     30  O   UNL d   1      11.629   4.899  -9.853 -0.10 +0.00    +0.000 OA
DOCKED: ATOM     31  O   UNL d   1      10.929   4.299 -11.131 -0.11 +0.00    +0.000 OA
DOCKED: ENDROOT
DOCKED: BRANCH   6  32
DOCKED: ATOM     32  C   UNL d   1       8.921   7.967  -6.420 -0.13 +0.02    +0.052 C 
DOCKED: BRANCH  32  33
DOCKED: ATOM     33  C   UNL d   1       9.417   9.299  -6.972 -0.08 +0.05    +0.115 C 
DOCKED: BRANCH  33  34
DOCKED: ATOM     34  C   UNL d   1       9.339  10.409  -5.953 -0.07 +0.06    +0.139 C 
DOCKED: ATOM     35  O   UNL d   1       8.579  10.304  -5.004 -0.54 -0.46    -0.650 OA
DOCKED: BRANCH  34  36
DOCKED: ATOM     36  O   UNL d   1      10.073  11.534  -6.081 +0.03 -0.19    -0.776 OA
DOCKED: ATOM     37  H   UNL d   1      11.035  11.526  -6.019 +0.01 +0.03    +0.167 HD
DOCKED: ENDBRANCH  34  36
DOCKED: ENDBRANCH  33  34
DOCKED: ENDBRANCH  32  33
DOCKED: ENDBRANCH   6  32
DOCKED: BRANCH  22  38
DOCKED: ATOM     38  C   UNL d   1       5.767   6.372 -10.583 -0.15 +0.01    +0.052 C 
DOCKED: BRANCH  38  39
DOCKED: ATOM     39  C   UNL d   1       4.698   5.862  -9.618 -0.21 +0.03    +0.115 C 
DOCKED: BRANCH  39  40
DOCKED: ATOM     40  C   UNL d   1       5.281   5.394  -8.308 -0.30 +0.05    +0.139 C 
DOCKED: ATOM     41  O   UNL d   1       5.233   4.211  -8.011 -0.31 -0.16    -0.650 OA
DOCKED: BRANCH  40  42
DOCKED: ATOM     42  O   UNL d   1       5.902   6.253  -7.476 -0.36 -0.45    -0.776 OA
DOCKED: ATOM     43  H   UNL d   1       6.559   5.951  -6.838 -0.42 +0.04    +0.167 HD
DOCKED: ENDBRANCH  40  42
DOCKED: ENDBRANCH  39  40
DOCKED: ENDBRANCH  38  39
DOCKED: ENDBRANCH  22  38
DOCKED: BRANCH  12  44
DOCKED: ATOM     44  C   UNL d   1      15.380   0.780  -8.330 -0.35 +0.00    +0.004 C 
DOCKED: ATOM     45  C   UNL d   1      15.442  -0.319  -7.578 -0.39 -0.00    +0.012 C 
DOCKED: ENDBRANCH  12  44
DOCKED: BRANCH  17  46
DOCKED: ATOM     46  C   UNL d   1       9.797   0.702 -14.318 -0.11 +0.00    +0.004 C 
DOCKED: ATOM     47  C   UNL d   1       9.503   1.486 -15.363 -0.12 +0.00    +0.012 C 
DOCKED: ENDBRANCH  17  46
DOCKED: TORSDOF 10
DOCKED: TER
DOCKED: ENDMDL
________________________________________________________________________________


	BEGINNING GENETIC ALGORITHM DOCKING 13 of 100
Run: 13 Seed: 1732718213 1245149396 [ Run 13 of 100 GA/GALS ]
Beginning LAMARCKIAN GENETIC ALGORITHM (LGA), with a maximum of 25000000 energy evaluations.

Final-Value: -9.903


	FINAL GENETIC ALGORITHM DOCKED STATE
	_______________________________________________


Detailed state:  trans 16.593 0.182 5.630 quatxyzw -0.809533 0.442342 0.135754 0.361332 center 8.287 34.468 -0.670 ntor 10 145.3160 -89.9603 -20.5693 -103.8439 -134.4090 93.8500 -86.7288 69.5112 180.0000 -156.6080
State:	 16.593   0.182   5.630  -0.868  0.474  0.146 137.636    145.32  -89.96  -20.57 -103.84 -134.41   93.85  -86.73   69.51  180.00 -156.61

DOCKED: MODEL       13
DOCKED: USER    Run = 13
DOCKED: USER    DPF = D:/Protein_go_brrr/autodock/final/mut_D99N/heme_O2/dock.dpf
DOCKED: USER  
DOCKED: USER    Estimated Free Energy of Binding    =   -4.90 kcal/mol  [=(1)+(2)+(3)-(4)]
DOCKED: USER    Estimated Inhibition Constant, Ki   =  254.92 uM (micromolar)  [Temperature = 298.15 K]
DOCKED: USER    
DOCKED: USER    (1) Final Intermolecular Energy     =   -7.89 kcal/mol
DOCKED: USER        vdW + Hbond + desolv Energy     =   -6.71 kcal/mol
DOCKED: USER        Electrostatic Energy            =   -1.17 kcal/mol
DOCKED: USER    (2) Final Total Internal Energy     =   -2.02 kcal/mol
DOCKED: USER    (3) Torsional Free Energy           =   +2.98 kcal/mol
DOCKED: USER    (4) Unbound System's Energy  [=(2)] =   -2.02 kcal/mol
DOCKED: USER    
DOCKED: USER    
DOCKED: USER    NEWDPF move heme_O2_opt.pdbqt
DOCKED: USER    NEWDPF about 8.287000 34.468000 -0.670000
DOCKED: USER    NEWDPF tran0 16.592720 0.181550 5.630122
DOCKED: USER    NEWDPF quaternion0 -0.809533 0.442342 0.135754 0.361332
DOCKED: USER    NEWDPF axisangle0 -0.868190 0.474393 0.145591 137.635949
DOCKED: USER    NEWDPF quat0 -0.868190 0.474393 0.145591 137.635949
DOCKED: USER    NEWDPF dihe0 145.32 -89.96 -20.57 -103.84 -134.41 93.85 -86.73 69.51 180.00 -156.61 
DOCKED: USER  keepresnum = 1 
DOCKED: USER  
DOCKED: REMARK  10 active torsions:
DOCKED: REMARK  status: ('A' for Active; 'I' for Inactive)
DOCKED: REMARK    1  A    between atoms: C_6  and  C_10 
DOCKED: REMARK    2  A    between atoms: C_10  and  C_11 
DOCKED: REMARK    3  A    between atoms: C_11  and  C_12 
DOCKED: REMARK    4  A    between atoms: C_12  and  O_14 
DOCKED: REMARK    5  A    between atoms: C_17  and  C_20 
DOCKED: REMARK    6  A    between atoms: C_24  and  C_27 
DOCKED: REMARK    7  A    between atoms: C_31  and  C_34 
DOCKED: REMARK    8  A    between atoms: C_34  and  C_35 
DOCKED: REMARK    9  A    between atoms: C_35  and  C_36 
DOCKED: REMARK   10  A    between atoms: C_36  and  O_38 
DOCKED: USER                              x       y       z     vdW  Elec       q    Type
DOCKED: USER                           _______ _______ _______ _____ _____    ______ ____
DOCKED: ROOT
DOCKED: ATOM      1  C   UNL d   1      15.583   1.867   6.429 -0.08 +0.00    +0.064 A 
DOCKED: ATOM      2  C   UNL d   1      15.941   0.134   2.022 +0.01 -0.00    +0.064 A 
DOCKED: ATOM      3  C   UNL d   1      18.782  -3.426   3.553 -0.21 +0.00    +0.064 C 
DOCKED: ATOM      4  C   UNL d   1      18.033  -1.931   8.164 -0.08 -0.00    +0.064 A 
DOCKED: ATOM      5  C   UNL d   1      15.447   1.685   5.106 -0.10 +0.00    +0.066 A 
DOCKED: ATOM      6  C   UNL d   1      14.709   2.530   4.272 -0.12 -0.00    -0.021 A 
DOCKED: ATOM      7  C   UNL d   1      14.776   2.005   3.002 -0.18 -0.00    -0.025 A 
DOCKED: ATOM      8  C   UNL d   1      15.593   0.881   3.088 -0.16 -0.00    +0.066 A 
DOCKED: ATOM      9  C   UNL d   1      14.054   2.564   1.795 -0.22 +0.00    +0.051 C 
DOCKED: ATOM     10  C   UNL d   1      16.812  -1.041   2.045 -0.13 -0.00    +0.066 A 
DOCKED: ATOM     11  C   UNL d   1      17.272  -1.682   0.889 -0.26 +0.00    -0.021 A 
DOCKED: ATOM     12  C   UNL d   1      18.107  -2.700   1.310 -0.30 -0.00    +0.000 A 
DOCKED: ATOM     13  C   UNL d   1      18.099  -2.630   2.730 -0.22 -0.01    +0.070 A 
DOCKED: ATOM     14  C   UNL d   1      16.950  -1.320  -0.556 -0.34 -0.01    +0.052 C 
DOCKED: ATOM     15  C   UNL d   1      18.773  -3.410   4.995 -0.16 +0.00    +0.066 A 
DOCKED: ATOM     16  C   UNL d   1      19.379  -4.374   5.801 -0.14 -0.00    -0.021 A 
DOCKED: ATOM     17  C   UNL d   1      19.178  -3.969   7.120 -0.09 +0.00    +0.000 A 
DOCKED: ATOM     18  C   UNL d   1      18.457  -2.771   7.020 -0.08 -0.00    +0.070 A 
DOCKED: ATOM     19  C   UNL d   1      20.041  -5.611   5.246 -0.18 +0.01    +0.052 C 
DOCKED: ATOM     20  C   UNL d   1      17.303  -0.800   8.106 -0.10 +0.00    +0.066 A 
DOCKED: ATOM     21  C   UNL d   1      16.950  -0.041   9.218 -0.09 -0.00    -0.025 A 
DOCKED: ATOM     22  C   UNL d   1      16.274   1.059   8.741 -0.09 -0.00    -0.021 A 
DOCKED: ATOM     23  C   UNL d   1      16.225   0.921   7.350 -0.10 +0.00    +0.066 A 
DOCKED: ATOM     24  C   UNL d   1      17.239  -0.353  10.664 -0.07 +0.00    +0.051 C 
DOCKED: ATOM     25  N   UNL d   1      15.952   0.647   4.395 -0.09 -0.00    -0.248 N 
DOCKED: ATOM     26  N   UNL d   1      17.305  -1.621   3.169 -0.14 +0.02    -0.248 N 
DOCKED: ATOM     27  N   UNL d   1      18.155  -2.487   5.727 -0.08 +0.01    -0.248 N 
DOCKED: ATOM     28  N   UNL d   1      16.812  -0.233   6.972 -0.09 -0.01    -0.248 N 
DOCKED: ATOM     29 FE   UNL d   1      17.058  -0.924   5.086 -0.04 -0.00    +0.000 Fe
DOCKED: ATOM     30  O   UNL d   1      15.641  -1.326   4.582 -0.26 -0.00    +0.000 OA
DOCKED: ATOM     31  O   UNL d   1      16.230  -2.001   5.879 -0.39 -0.00    +0.000 OA
DOCKED: ENDROOT
DOCKED: BRANCH   6  32
DOCKED: ATOM     32  C   UNL d   1      13.859   3.708   4.670 -0.12 +0.01    +0.052 C 
DOCKED: BRANCH  32  33
DOCKED: ATOM     33  C   UNL d   1      12.383   3.352   4.814 -0.11 +0.02    +0.115 C 
DOCKED: BRANCH  33  34
DOCKED: ATOM     34  C   UNL d   1      12.026   2.935   6.220 -0.25 +0.05    +0.139 C 
DOCKED: ATOM     35  O   UNL d   1      11.938   3.781   7.096 +0.06 -0.40    -0.650 OA
DOCKED: BRANCH  34  36
DOCKED: ATOM     36  O   UNL d   1      11.828   1.640   6.540 -0.00 -0.24    -0.776 OA
DOCKED: ATOM     37  H   UNL d   1      12.076   1.283   7.401 +0.06 +0.06    +0.167 HD
DOCKED: ENDBRANCH  34  36
DOCKED: ENDBRANCH  33  34
DOCKED: ENDBRANCH  32  33
DOCKED: ENDBRANCH   6  32
DOCKED: BRANCH  22  38
DOCKED: ATOM     38  C   UNL d   1      15.658   2.145   9.584 -0.07 +0.00    +0.052 C 
DOCKED: BRANCH  38  39
DOCKED: ATOM     39  C   UNL d   1      14.687   1.593  10.626 -0.10 +0.01    +0.115 C 
DOCKED: BRANCH  39  40
DOCKED: ATOM     40  C   UNL d   1      13.256   1.969  10.336 -0.14 +0.06    +0.139 C 
DOCKED: ATOM     41  O   UNL d   1      12.615   2.598  11.163 -0.59 -0.40    -0.650 OA
DOCKED: BRANCH  40  42
DOCKED: ATOM     42  O   UNL d   1      12.682   1.667   9.155 -0.13 -0.47    -0.776 OA
DOCKED: ATOM     43  H   UNL d   1      12.752   2.257   8.395 +0.04 +0.10    +0.167 HD
DOCKED: ENDBRANCH  40  42
DOCKED: ENDBRANCH  39  40
DOCKED: ENDBRANCH  38  39
DOCKED: ENDBRANCH  22  38
DOCKED: BRANCH  12  44
DOCKED: ATOM     44  C   UNL d   1      18.809  -3.619   0.332 -0.35 -0.00    +0.004 C 
DOCKED: ATOM     45  C   UNL d   1      19.937  -4.304   0.517 -0.34 -0.00    +0.012 C 
DOCKED: ENDBRANCH  12  44
DOCKED: BRANCH  17  46
DOCKED: ATOM     46  C   UNL d   1      19.548  -4.627   8.423 -0.05 +0.00    +0.004 C 
DOCKED: ATOM     47  C   UNL d   1      18.734  -5.174   9.335 -0.05 -0.00    +0.012 C 
DOCKED: ENDBRANCH  17  46
DOCKED: TORSDOF 10
DOCKED: TER
DOCKED: ENDMDL
________________________________________________________________________________


	BEGINNING GENETIC ALGORITHM DOCKING 14 of 100
Run: 14 Seed: 279032558 409451108 [ Run 14 of 100 GA/GALS ]
Beginning LAMARCKIAN GENETIC ALGORITHM (LGA), with a maximum of 25000000 energy evaluations.

Final-Value: -10.108


	FINAL GENETIC ALGORITHM DOCKED STATE
	_______________________________________________


Detailed state:  trans -13.158 1.989 9.641 quatxyzw 0.044646 0.502041 -0.767182 0.396728 center 8.287 34.468 -0.670 ntor 10 130.5172 17.3144 -16.2289 120.1996 -172.0328 -58.7271 -103.7853 176.0768 -174.3173 174.8569
State:	-13.158   1.989   9.641   0.049  0.547 -0.836 133.252    130.52   17.31  -16.23  120.20 -172.03  -58.73 -103.79  176.08 -174.32  174.86

DOCKED: MODEL       14
DOCKED: USER    Run = 14
DOCKED: USER    DPF = D:/Protein_go_brrr/autodock/final/mut_D99N/heme_O2/dock.dpf
DOCKED: USER  
DOCKED: USER    Estimated Free Energy of Binding    =   -4.84 kcal/mol  [=(1)+(2)+(3)-(4)]
DOCKED: USER    Estimated Inhibition Constant, Ki   =  284.70 uM (micromolar)  [Temperature = 298.15 K]
DOCKED: USER    
DOCKED: USER    (1) Final Intermolecular Energy     =   -7.82 kcal/mol
DOCKED: USER        vdW + Hbond + desolv Energy     =   -5.73 kcal/mol
DOCKED: USER        Electrostatic Energy            =   -2.09 kcal/mol
DOCKED: USER    (2) Final Total Internal Energy     =   -2.29 kcal/mol
DOCKED: USER    (3) Torsional Free Energy           =   +2.98 kcal/mol
DOCKED: USER    (4) Unbound System's Energy  [=(2)] =   -2.29 kcal/mol
DOCKED: USER    
DOCKED: USER    
DOCKED: USER    NEWDPF move heme_O2_opt.pdbqt
DOCKED: USER    NEWDPF about 8.287000 34.468000 -0.670000
DOCKED: USER    NEWDPF tran0 -13.158100 1.988624 9.641382
DOCKED: USER    NEWDPF quaternion0 0.044646 0.502041 -0.767182 0.396728
DOCKED: USER    NEWDPF axisangle0 0.048638 0.546924 -0.835768 133.252413
DOCKED: USER    NEWDPF quat0 0.048638 0.546924 -0.835768 133.252413
DOCKED: USER    NEWDPF dihe0 130.52 17.31 -16.23 120.20 -172.03 -58.73 -103.79 176.08 -174.32 174.86 
DOCKED: USER  keepresnum = 1 
DOCKED: USER  
DOCKED: REMARK  10 active torsions:
DOCKED: REMARK  status: ('A' for Active; 'I' for Inactive)
DOCKED: REMARK    1  A    between atoms: C_6  and  C_10 
DOCKED: REMARK    2  A    between atoms: C_10  and  C_11 
DOCKED: REMARK    3  A    between atoms: C_11  and  C_12 
DOCKED: REMARK    4  A    between atoms: C_12  and  O_14 
DOCKED: REMARK    5  A    between atoms: C_17  and  C_20 
DOCKED: REMARK    6  A    between atoms: C_24  and  C_27 
DOCKED: REMARK    7  A    between atoms: C_31  and  C_34 
DOCKED: REMARK    8  A    between atoms: C_34  and  C_35 
DOCKED: REMARK    9  A    between atoms: C_35  and  C_36 
DOCKED: REMARK   10  A    between atoms: C_36  and  O_38 
DOCKED: USER                              x       y       z     vdW  Elec       q    Type
DOCKED: USER                           _______ _______ _______ _____ _____    ______ ____
DOCKED: ROOT
DOCKED: ATOM      1  C   UNL d   1     -11.850   1.245   8.146 -0.23 +0.02    +0.064 A 
DOCKED: ATOM      2  C   UNL d   1     -12.844  -0.217  12.554 -0.15 +0.03    +0.064 A 
DOCKED: ATOM      3  C   UNL d   1     -15.902   3.438  13.177 -0.14 +0.04    +0.064 C 
DOCKED: ATOM      4  C   UNL d   1     -15.248   4.678   8.476 -0.07 +0.02    +0.064 A 
DOCKED: ATOM      5  C   UNL d   1     -11.872   0.548   9.294 -0.23 +0.02    +0.066 A 
DOCKED: ATOM      6  C   UNL d   1     -11.095  -0.588   9.534 -0.33 -0.01    -0.021 A 
DOCKED: ATOM      7  C   UNL d   1     -11.414  -1.038  10.794 -0.25 -0.01    -0.025 A 
DOCKED: ATOM      8  C   UNL d   1     -12.341  -0.135  11.307 -0.18 +0.02    +0.066 A 
DOCKED: ATOM      9  C   UNL d   1     -10.859  -2.293  11.431 -0.23 +0.01    +0.051 C 
DOCKED: ATOM     10  C   UNL d   1     -13.801   0.712  13.156 -0.13 +0.04    +0.066 A 
DOCKED: ATOM     11  C   UNL d   1     -14.164   0.676  14.507 -0.07 -0.01    -0.021 A 
DOCKED: ATOM     12  C   UNL d   1     -15.032   1.733  14.710 -0.08 +0.00    +0.000 A 
DOCKED: ATOM     13  C   UNL d   1     -15.161   2.361  13.440 -0.13 +0.05    +0.070 A 
DOCKED: ATOM     14  C   UNL d   1     -13.683  -0.310  15.565 -0.09 +0.03    +0.052 C 
DOCKED: ATOM     15  C   UNL d   1     -16.087   4.082  11.899 -0.09 +0.03    +0.066 A 
DOCKED: ATOM     16  C   UNL d   1     -17.003   5.105  11.655 -0.07 -0.01    -0.021 A 
DOCKED: ATOM     17  C   UNL d   1     -16.835   5.474  10.320 -0.07 +0.00    +0.000 A 
DOCKED: ATOM     18  C   UNL d   1     -15.814   4.639   9.845 -0.02 +0.03    +0.070 A 
DOCKED: ATOM     19  C   UNL d   1     -17.983   5.595  12.690 -0.04 +0.01    +0.052 C 
DOCKED: ATOM     20  C   UNL d   1     -14.300   3.863   7.974 -0.10 +0.02    +0.066 A 
DOCKED: ATOM     21  C   UNL d   1     -13.793   3.959   6.681 -0.11 -0.00    -0.025 A 
DOCKED: ATOM     22  C   UNL d   1     -12.805   3.006   6.578 -0.17 -0.00    -0.021 A 
DOCKED: ATOM     23  C   UNL d   1     -12.757   2.350   7.811 -0.17 +0.02    +0.066 A 
DOCKED: ATOM     24  C   UNL d   1     -14.233   4.909   5.597 -0.13 +0.01    +0.051 C 
DOCKED: ATOM     25  N   UNL d   1     -12.672   0.804  10.358 -0.10 -0.08    -0.248 N 
DOCKED: ATOM     26  N   UNL d   1     -14.413   1.731  12.500 -0.09 -0.14    -0.248 N 
DOCKED: ATOM     27  N   UNL d   1     -15.425   3.751  10.794 -0.07 -0.10    -0.248 N 
DOCKED: ATOM     28  N   UNL d   1     -13.698   2.844   8.642 -0.08 -0.07    -0.248 N 
DOCKED: ATOM     29 FE   UNL d   1     -14.055   2.293  10.557 -0.03 +0.00    +0.000 Fe
DOCKED: ATOM     30  O   UNL d   1     -14.673   0.866  10.491 -0.06 +0.00    +0.000 OA
DOCKED: ATOM     31  O   UNL d   1     -15.381   2.059   9.744 -0.05 +0.00    +0.000 OA
DOCKED: ENDROOT
DOCKED: BRANCH   6  32
DOCKED: ATOM     32  C   UNL d   1     -10.189  -1.308   8.569 -0.39 +0.02    +0.052 C 
DOCKED: BRANCH  32  33
DOCKED: ATOM     33  C   UNL d   1     -10.904  -2.412   7.796 -0.34 +0.06    +0.115 C 
DOCKED: BRANCH  33  34
DOCKED: ATOM     34  C   UNL d   1     -11.823  -1.866   6.731 +0.05 +0.15    +0.139 C 
DOCKED: ATOM     35  O   UNL d   1     -11.494  -0.874   6.101 -0.42 -0.76    -0.650 OA
DOCKED: BRANCH  34  36
DOCKED: ATOM     36  O   UNL d   1     -13.019  -2.435   6.475 -0.26 -1.16    -0.776 OA
DOCKED: ATOM     37  H   UNL d   1     -13.829  -1.916   6.417 +0.02 +0.22    +0.167 HD
DOCKED: ENDBRANCH  34  36
DOCKED: ENDBRANCH  33  34
DOCKED: ENDBRANCH  32  33
DOCKED: ENDBRANCH   6  32
DOCKED: BRANCH  22  38
DOCKED: ATOM     38  C   UNL d   1     -12.000   2.706   5.340 -0.16 +0.01    +0.052 C 
DOCKED: BRANCH  38  39
DOCKED: ATOM     39  C   UNL d   1     -12.730   1.763   4.386 -0.17 +0.06    +0.115 C 
DOCKED: BRANCH  39  40
DOCKED: ATOM     40  C   UNL d   1     -14.030   1.256   4.959 -0.09 +0.08    +0.139 C 
DOCKED: ATOM     41  O   UNL d   1     -15.048   1.916   4.828 +0.03 -0.22    -0.650 OA
DOCKED: BRANCH  40  42
DOCKED: ATOM     42  O   UNL d   1     -14.100   0.058   5.571 -0.01 -0.68    -0.776 OA
DOCKED: ATOM     43  H   UNL d   1     -13.312  -0.379   5.917 +0.03 +0.19    +0.167 HD
DOCKED: ENDBRANCH  40  42
DOCKED: ENDBRANCH  39  40
DOCKED: ENDBRANCH  38  39
DOCKED: ENDBRANCH  22  38
DOCKED: BRANCH  12  44
DOCKED: ATOM     44  C   UNL d   1     -15.638   2.026  16.066 -0.09 +0.00    +0.004 C 
DOCKED: ATOM     45  C   UNL d   1     -16.161   3.173  16.499 -0.07 +0.01    +0.012 C 
DOCKED: ENDBRANCH  12  44
DOCKED: BRANCH  17  46
DOCKED: ATOM     46  C   UNL d   1     -17.574   6.475   9.472 -0.05 +0.00    +0.004 C 
DOCKED: ATOM     47  C   UNL d   1     -17.111   7.616   8.945 -0.06 +0.00    +0.012 C 
DOCKED: ENDBRANCH  17  46
DOCKED: TORSDOF 10
DOCKED: TER
DOCKED: ENDMDL
________________________________________________________________________________


	BEGINNING GENETIC ALGORITHM DOCKING 15 of 100
Run: 15 Seed: 1592308765 1212215195 [ Run 15 of 100 GA/GALS ]
Beginning LAMARCKIAN GENETIC ALGORITHM (LGA), with a maximum of 25000000 energy evaluations.

Final-Value: -10.188


	FINAL GENETIC ALGORITHM DOCKED STATE
	_______________________________________________


Detailed state:  trans -11.733 -6.381 5.146 quatxyzw -0.833410 0.127453 0.328142 0.426036 center 8.287 34.468 -0.670 ntor 10 -34.9911 142.9024 -73.3008 20.9376 -158.9916 -76.6677 -120.2247 -103.7593 -36.8690 -16.7415
State:	-11.733  -6.381   5.146  -0.921  0.141  0.363 129.567    -34.99  142.90  -73.30   20.94 -158.99  -76.67 -120.22 -103.76  -36.87  -16.74

DOCKED: MODEL       15
DOCKED: USER    Run = 15
DOCKED: USER    DPF = D:/Protein_go_brrr/autodock/final/mut_D99N/heme_O2/dock.dpf
DOCKED: USER  
DOCKED: USER    Estimated Free Energy of Binding    =   -5.10 kcal/mol  [=(1)+(2)+(3)-(4)]
DOCKED: USER    Estimated Inhibition Constant, Ki   =  181.34 uM (micromolar)  [Temperature = 298.15 K]
DOCKED: USER    
DOCKED: USER    (1) Final Intermolecular Energy     =   -8.09 kcal/mol
DOCKED: USER        vdW + Hbond + desolv Energy     =   -6.05 kcal/mol
DOCKED: USER        Electrostatic Energy            =   -2.04 kcal/mol
DOCKED: USER    (2) Final Total Internal Energy     =   -2.10 kcal/mol
DOCKED: USER    (3) Torsional Free Energy           =   +2.98 kcal/mol
DOCKED: USER    (4) Unbound System's Energy  [=(2)] =   -2.10 kcal/mol
DOCKED: USER    
DOCKED: USER    
DOCKED: USER    NEWDPF move heme_O2_opt.pdbqt
DOCKED: USER    NEWDPF about 8.287000 34.468000 -0.670000
DOCKED: USER    NEWDPF tran0 -11.732581 -6.380713 5.146275
DOCKED: USER    NEWDPF quaternion0 -0.833410 0.127453 0.328142 0.426036
DOCKED: USER    NEWDPF axisangle0 -0.921194 0.140878 0.362706 129.567465
DOCKED: USER    NEWDPF quat0 -0.921194 0.140878 0.362706 129.567465
DOCKED: USER    NEWDPF dihe0 -34.99 142.90 -73.30 20.94 -158.99 -76.67 -120.22 -103.76 -36.87 -16.74 
DOCKED: USER  keepresnum = 1 
DOCKED: USER  
DOCKED: REMARK  10 active torsions:
DOCKED: REMARK  status: ('A' for Active; 'I' for Inactive)
DOCKED: REMARK    1  A    between atoms: C_6  and  C_10 
DOCKED: REMARK    2  A    between atoms: C_10  and  C_11 
DOCKED: REMARK    3  A    between atoms: C_11  and  C_12 
DOCKED: REMARK    4  A    between atoms: C_12  and  O_14 
DOCKED: REMARK    5  A    between atoms: C_17  and  C_20 
DOCKED: REMARK    6  A    between atoms: C_24  and  C_27 
DOCKED: REMARK    7  A    between atoms: C_31  and  C_34 
DOCKED: REMARK    8  A    between atoms: C_34  and  C_35 
DOCKED: REMARK    9  A    between atoms: C_35  and  C_36 
DOCKED: REMARK   10  A    between atoms: C_36  and  O_38 
DOCKED: USER                              x       y       z     vdW  Elec       q    Type
DOCKED: USER                           _______ _______ _______ _____ _____    ______ ____
DOCKED: ROOT
DOCKED: ATOM      1  C   UNL d   1     -12.574  -5.323   6.781 -0.11 +0.04    +0.064 A 
DOCKED: ATOM      2  C   UNL d   1     -14.304  -6.575   2.538 -0.06 +0.03    +0.064 A 
DOCKED: ATOM      3  C   UNL d   1     -10.124  -8.619   1.335 -0.14 -0.01    +0.064 C 
DOCKED: ATOM      4  C   UNL d   1      -8.487  -7.757   5.878 -0.25 +0.01    +0.064 A 
DOCKED: ATOM      5  C   UNL d   1     -13.386  -5.499   5.726 -0.08 +0.06    +0.066 A 
DOCKED: ATOM      6  C   UNL d   1     -14.700  -5.024   5.662 -0.07 -0.02    -0.021 A 
DOCKED: ATOM      7  C   UNL d   1     -15.216  -5.424   4.451 -0.07 -0.02    -0.025 A 
DOCKED: ATOM      8  C   UNL d   1     -14.188  -6.089   3.789 -0.09 +0.05    +0.066 A 
DOCKED: ATOM      9  C   UNL d   1     -16.640  -5.188   3.997 -0.03 +0.02    +0.051 C 
DOCKED: ATOM     10  C   UNL d   1     -13.254  -7.262   1.784 -0.05 +0.02    +0.066 A 
DOCKED: ATOM     11  C   UNL d   1     -13.374  -7.600   0.432 -0.03 -0.00    -0.021 A 
DOCKED: ATOM     12  C   UNL d   1     -12.172  -8.175   0.062 -0.04 -0.00    +0.000 A 
DOCKED: ATOM     13  C   UNL d   1     -11.373  -8.165   1.239 -0.06 -0.00    +0.070 A 
DOCKED: ATOM     14  C   UNL d   1     -14.575  -7.361  -0.476 -0.01 +0.00    +0.052 C 
DOCKED: ATOM     15  C   UNL d   1      -9.295  -8.660   2.515 -0.18 -0.00    +0.066 A 
DOCKED: ATOM     16  C   UNL d   1      -8.057  -9.297   2.590 -0.21 +0.00    -0.021 A 
DOCKED: ATOM     17  C   UNL d   1      -7.571  -9.065   3.877 -0.32 +0.00    +0.000 A 
DOCKED: ATOM     18  C   UNL d   1      -8.562  -8.292   4.498 -0.26 +0.01    +0.070 A 
DOCKED: ATOM     19  C   UNL d   1      -7.479 -10.108   1.458 -0.18 -0.02    +0.052 C 
DOCKED: ATOM     20  C   UNL d   1      -9.438  -7.049   6.519 -0.22 +0.02    +0.066 A 
DOCKED: ATOM     21  C   UNL d   1      -9.303  -6.556   7.814 -0.31 -0.01    -0.025 A 
DOCKED: ATOM     22  C   UNL d   1     -10.447  -5.837   8.079 -0.22 -0.01    -0.021 A 
DOCKED: ATOM     23  C   UNL d   1     -11.248  -5.933   6.937 -0.14 +0.03    +0.066 A 
DOCKED: ATOM     24  C   UNL d   1      -8.143  -6.764   8.754 -0.36 +0.01    +0.051 C 
DOCKED: ATOM     25  N   UNL d   1     -13.082  -6.192   4.602 -0.08 -0.18    -0.248 N 
DOCKED: ATOM     26  N   UNL d   1     -12.041  -7.612   2.283 -0.05 -0.05    -0.248 N 
DOCKED: ATOM     27  N   UNL d   1      -9.633  -8.119   3.683 -0.13 -0.03    -0.248 N 
DOCKED: ATOM     28  N   UNL d   1     -10.650  -6.708   6.009 -0.12 -0.09    -0.248 N 
DOCKED: ATOM     29 FE   UNL d   1     -11.338  -7.158   4.159 -0.04 +0.00    +0.000 Fe
DOCKED: ATOM     30  O   UNL d   1     -12.550  -8.113   4.366 -0.07 +0.00    +0.000 OA
DOCKED: ATOM     31  O   UNL d   1     -11.135  -8.514   4.930 -0.10 +0.00    +0.000 OA
DOCKED: ENDROOT
DOCKED: BRANCH   6  32
DOCKED: ATOM     32  C   UNL d   1     -15.489  -4.341   6.749 -0.04 +0.03    +0.052 C 
DOCKED: BRANCH  32  33
DOCKED: ATOM     33  C   UNL d   1     -14.704  -3.231   7.442 -0.05 +0.07    +0.115 C 
DOCKED: BRANCH  33  34
DOCKED: ATOM     34  C   UNL d   1     -14.229  -2.174   6.476 -0.04 +0.16    +0.139 C 
DOCKED: ATOM     35  O   UNL d   1     -15.019  -1.675   5.691 -0.08 -0.76    -0.650 OA
DOCKED: BRANCH  34  36
DOCKED: ATOM     36  O   UNL d   1     -12.938  -1.784   6.440 -0.10 -1.09    -0.776 OA
DOCKED: ATOM     37  H   UNL d   1     -12.395  -1.740   7.236 +0.04 +0.14    +0.167 HD
DOCKED: ENDBRANCH  34  36
DOCKED: ENDBRANCH  33  34
DOCKED: ENDBRANCH  32  33
DOCKED: ENDBRANCH   6  32
DOCKED: BRANCH  22  38
DOCKED: ATOM     38  C   UNL d   1     -10.773  -5.152   9.381 -0.19 +0.01    +0.052 C 
DOCKED: BRANCH  38  39
DOCKED: ATOM     39  C   UNL d   1     -10.169  -3.752   9.470 -0.18 +0.03    +0.115 C 
DOCKED: BRANCH  39  40
DOCKED: ATOM     40  C   UNL d   1     -10.914  -2.749   8.626 -0.29 +0.05    +0.139 C 
DOCKED: ATOM     41  O   UNL d   1     -12.051  -2.426   8.930 +0.04 -0.26    -0.650 OA
DOCKED: BRANCH  40  42
DOCKED: ATOM     42  O   UNL d   1     -10.328  -2.159   7.566 -0.18 -0.43    -0.776 OA
DOCKED: ATOM     43  H   UNL d   1     -10.829  -1.932   6.773 +0.05 +0.15    +0.167 HD
DOCKED: ENDBRANCH  40  42
DOCKED: ENDBRANCH  39  40
DOCKED: ENDBRANCH  38  39
DOCKED: ENDBRANCH  22  38
DOCKED: BRANCH  12  44
DOCKED: ATOM     44  C   UNL d   1     -11.917  -8.667  -1.348 -0.07 -0.00    +0.004 C 
DOCKED: ATOM     45  C   UNL d   1     -11.209  -8.072  -2.307 -0.12 -0.01    +0.012 C 
DOCKED: ENDBRANCH  12  44
DOCKED: BRANCH  17  46
DOCKED: ATOM     46  C   UNL d   1      -6.320  -9.546   4.563 -0.41 +0.00    +0.004 C 
DOCKED: ATOM     47  C   UNL d   1      -5.237 -10.109   4.012 -0.36 -0.00    +0.012 C 
DOCKED: ENDBRANCH  17  46
DOCKED: TORSDOF 10
DOCKED: TER
DOCKED: ENDMDL
________________________________________________________________________________


	BEGINNING GENETIC ALGORITHM DOCKING 16 of 100
Run: 16 Seed: 1039225166 456924899 [ Run 16 of 100 GA/GALS ]
Beginning LAMARCKIAN GENETIC ALGORITHM (LGA), with a maximum of 25000000 energy evaluations.

Final-Value: -11.030


	FINAL GENETIC ALGORITHM DOCKED STATE
	_______________________________________________


Detailed state:  trans -13.503 1.403 10.556 quatxyzw -0.362733 -0.589716 -0.574414 -0.436702 center 8.287 34.468 -0.670 ntor 10 -71.2338 166.6777 48.8168 -105.4035 12.9999 -65.2974 71.9616 -102.9758 45.8845 2.3268
State:	-13.503   1.403  10.556  -0.403 -0.656 -0.639 -128.213    -71.23  166.68   48.82 -105.40   13.00  -65.30   71.96 -102.98   45.88    2.33

DOCKED: MODEL       16
DOCKED: USER    Run = 16
DOCKED: USER    DPF = D:/Protein_go_brrr/autodock/final/mut_D99N/heme_O2/dock.dpf
DOCKED: USER  
DOCKED: USER    Estimated Free Energy of Binding    =   -6.09 kcal/mol  [=(1)+(2)+(3)-(4)]
DOCKED: USER    Estimated Inhibition Constant, Ki   =   34.40 uM (micromolar)  [Temperature = 298.15 K]
DOCKED: USER    
DOCKED: USER    (1) Final Intermolecular Energy     =   -9.07 kcal/mol
DOCKED: USER        vdW + Hbond + desolv Energy     =   -6.52 kcal/mol
DOCKED: USER        Electrostatic Energy            =   -2.56 kcal/mol
DOCKED: USER    (2) Final Total Internal Energy     =   -1.96 kcal/mol
DOCKED: USER    (3) Torsional Free Energy           =   +2.98 kcal/mol
DOCKED: USER    (4) Unbound System's Energy  [=(2)] =   -1.96 kcal/mol
DOCKED: USER    
DOCKED: USER    
DOCKED: USER    NEWDPF move heme_O2_opt.pdbqt
DOCKED: USER    NEWDPF about 8.287000 34.468000 -0.670000
DOCKED: USER    NEWDPF tran0 -13.502819 1.402851 10.556477
DOCKED: USER    NEWDPF quaternion0 -0.362733 -0.589716 -0.574414 -0.436702
DOCKED: USER    NEWDPF axisangle0 -0.403213 -0.655527 -0.638517 -128.212770
DOCKED: USER    NEWDPF quat0 -0.403213 -0.655527 -0.638517 -128.212770
DOCKED: USER    NEWDPF dihe0 -71.23 166.68 48.82 -105.40 13.00 -65.30 71.96 -102.98 45.88 2.33 
DOCKED: USER  keepresnum = 1 
DOCKED: USER  
DOCKED: REMARK  10 active torsions:
DOCKED: REMARK  status: ('A' for Active; 'I' for Inactive)
DOCKED: REMARK    1  A    between atoms: C_6  and  C_10 
DOCKED: REMARK    2  A    between atoms: C_10  and  C_11 
DOCKED: REMARK    3  A    between atoms: C_11  and  C_12 
DOCKED: REMARK    4  A    between atoms: C_12  and  O_14 
DOCKED: REMARK    5  A    between atoms: C_17  and  C_20 
DOCKED: REMARK    6  A    between atoms: C_24  and  C_27 
DOCKED: REMARK    7  A    between atoms: C_31  and  C_34 
DOCKED: REMARK    8  A    between atoms: C_34  and  C_35 
DOCKED: REMARK    9  A    between atoms: C_35  and  C_36 
DOCKED: REMARK   10  A    between atoms: C_36  and  O_38 
DOCKED: USER                              x       y       z     vdW  Elec       q    Type
DOCKED: USER                           _______ _______ _______ _____ _____    ______ ____
DOCKED: ROOT
DOCKED: ATOM      1  C   UNL d   1     -12.200   0.792   8.998 -0.20 +0.02    +0.064 A 
DOCKED: ATOM      2  C   UNL d   1     -15.517   4.181   9.263 -0.07 +0.02    +0.064 A 
DOCKED: ATOM      3  C   UNL d   1     -16.564   2.932  13.784 -0.07 +0.03    +0.064 C 
DOCKED: ATOM      4  C   UNL d   1     -12.826  -0.243  13.686 -0.14 +0.03    +0.064 A 
DOCKED: ATOM      5  C   UNL d   1     -13.015   1.817   8.702 -0.14 +0.02    +0.066 A 
DOCKED: ATOM      6  C   UNL d   1     -13.045   2.460   7.461 -0.16 -0.01    -0.021 A 
DOCKED: ATOM      7  C   UNL d   1     -13.975   3.469   7.550 -0.11 -0.01    -0.025 A 
DOCKED: ATOM      8  C   UNL d   1     -14.522   3.384   8.828 -0.09 +0.02    +0.066 A 
DOCKED: ATOM      9  C   UNL d   1     -14.277   4.468   6.454 -0.11 +0.01    +0.051 C 
DOCKED: ATOM     10  C   UNL d   1     -16.146   4.124  10.583 -0.07 +0.02    +0.066 A 
DOCKED: ATOM     11  C   UNL d   1     -17.284   4.864  10.925 -0.05 -0.00    -0.021 A 
DOCKED: ATOM     12  C   UNL d   1     -17.612   4.504  12.220 -0.04 +0.00    +0.000 A 
DOCKED: ATOM     13  C   UNL d   1     -16.627   3.553  12.606 -0.06 +0.03    +0.070 A 
DOCKED: ATOM     14  C   UNL d   1     -18.042   5.851  10.046 -0.03 +0.01    +0.052 C 
DOCKED: ATOM     15  C   UNL d   1     -15.564   1.991  14.226 -0.09 +0.04    +0.066 A 
DOCKED: ATOM     16  C   UNL d   1     -15.460   1.501  15.527 -0.08 -0.01    -0.021 A 
DOCKED: ATOM     17  C   UNL d   1     -14.400   0.594  15.524 -0.06 +0.00    +0.000 A 
DOCKED: ATOM     18  C   UNL d   1     -13.932   0.597  14.202 -0.04 +0.05    +0.070 A 
DOCKED: ATOM     19  C   UNL d   1     -16.336   1.977  16.658 -0.05 +0.03    +0.052 C 
DOCKED: ATOM     20  C   UNL d   1     -12.324  -0.233  12.436 -0.19 +0.03    +0.066 A 
DOCKED: ATOM     21  C   UNL d   1     -11.292  -1.062  12.003 -0.26 -0.01    -0.025 A 
DOCKED: ATOM     22  C   UNL d   1     -11.119  -0.800  10.662 -0.31 -0.01    -0.021 A 
DOCKED: ATOM     23  C   UNL d   1     -12.042   0.196  10.330 -0.21 +0.02    +0.066 A 
DOCKED: ATOM     24  C   UNL d   1     -10.509  -2.050  12.827 -0.23 +0.01    +0.051 C 
DOCKED: ATOM     25  N   UNL d   1     -13.884   2.408   9.558 -0.08 -0.08    -0.248 N 
DOCKED: ATOM     26  N   UNL d   1     -15.736   3.332  11.606 -0.07 -0.10    -0.248 N 
DOCKED: ATOM     27  N   UNL d   1     -14.601   1.506  13.447 -0.09 -0.17    -0.248 N 
DOCKED: ATOM     28  N   UNL d   1     -12.742   0.569  11.421 -0.11 -0.09    -0.248 N 
DOCKED: ATOM     29 FE   UNL d   1     -14.228   1.940  11.516 -0.03 +0.00    +0.000 Fe
DOCKED: ATOM     30  O   UNL d   1     -13.554   3.328  11.311 -0.33 +0.00    +0.000 OA
DOCKED: ATOM     31  O   UNL d   1     -13.095   2.404  12.502 -0.40 +0.00    +0.000 OA
DOCKED: ENDROOT
DOCKED: BRANCH   6  32
DOCKED: ATOM     32  C   UNL d   1     -12.140   2.227   6.279 -0.22 +0.02    +0.052 C 
DOCKED: BRANCH  32  33
DOCKED: ATOM     33  C   UNL d   1     -12.908   2.019   4.977 -0.16 +0.05    +0.115 C 
DOCKED: BRANCH  33  34
DOCKED: ATOM     34  C   UNL d   1     -12.816   0.600   4.475 -0.18 +0.14    +0.139 C 
DOCKED: ATOM     35  O   UNL d   1     -12.645   0.391   3.285 -0.27 -0.76    -0.650 OA
DOCKED: BRANCH  34  36
DOCKED: ATOM     36  O   UNL d   1     -12.946  -0.451   5.310 -0.21 -1.28    -0.776 OA
DOCKED: ATOM     37  H   UNL d   1     -12.267  -0.677   5.957 +0.03 +0.21    +0.167 HD
DOCKED: ENDBRANCH  34  36
DOCKED: ENDBRANCH  33  34
DOCKED: ENDBRANCH  32  33
DOCKED: ENDBRANCH   6  32
DOCKED: BRANCH  22  38
DOCKED: ATOM     38  C   UNL d   1     -10.078  -1.428   9.772 -0.43 +0.01    +0.052 C 
DOCKED: BRANCH  38  39
DOCKED: ATOM     39  C   UNL d   1     -10.668  -2.489   8.846 -0.33 +0.04    +0.115 C 
DOCKED: BRANCH  39  40
DOCKED: ATOM     40  C   UNL d   1     -11.430  -1.888   7.692 -0.26 +0.09    +0.139 C 
DOCKED: ATOM     41  O   UNL d   1     -10.823  -1.454   6.726 -0.41 -0.60    -0.650 OA
DOCKED: BRANCH  40  42
DOCKED: ATOM     42  O   UNL d   1     -12.777  -1.866   7.683 +0.03 -0.53    -0.776 OA
DOCKED: ATOM     43  H   UNL d   1     -13.269  -1.355   7.029 +0.03 +0.15    +0.167 HD
DOCKED: ENDBRANCH  40  42
DOCKED: ENDBRANCH  39  40
DOCKED: ENDBRANCH  38  39
DOCKED: ENDBRANCH  22  38
DOCKED: BRANCH  12  44
DOCKED: ATOM     44  C   UNL d   1     -18.805   5.095  12.940 -0.01 +0.00    +0.004 C 
DOCKED: ATOM     45  C   UNL d   1     -18.865   5.543  14.194 -0.01 +0.00    +0.012 C 
DOCKED: ENDBRANCH  12  44
DOCKED: BRANCH  17  46
DOCKED: ATOM     46  C   UNL d   1     -13.778  -0.204  16.639 -0.09 +0.00    +0.004 C 
DOCKED: ATOM     47  C   UNL d   1     -12.556  -0.072  17.170 -0.10 +0.01    +0.012 C 
DOCKED: ENDBRANCH  17  46
DOCKED: TORSDOF 10
DOCKED: TER
DOCKED: ENDMDL
________________________________________________________________________________


	BEGINNING GENETIC ALGORITHM DOCKING 17 of 100
Run: 17 Seed: 679155242 1632019817 [ Run 17 of 100 GA/GALS ]
Beginning LAMARCKIAN GENETIC ALGORITHM (LGA), with a maximum of 25000000 energy evaluations.

Final-Value: -9.143


	FINAL GENETIC ALGORITHM DOCKED STATE
	_______________________________________________


Detailed state:  trans 2.945 -0.279 -20.667 quatxyzw -0.692611 0.222638 -0.464399 0.505030 center 8.287 34.468 -0.670 ntor 10 -156.6242 -18.7044 102.5409 -75.3011 -106.5083 96.9949 -180.0000 -74.0847 -154.7648 -180.0000
State:	  2.945  -0.279 -20.667  -0.802  0.258 -0.538 119.333   -156.62  -18.70  102.54  -75.30 -106.51   96.99 -180.00  -74.08 -154.76 -180.00

DOCKED: MODEL       17
DOCKED: USER    Run = 17
DOCKED: USER    DPF = D:/Protein_go_brrr/autodock/final/mut_D99N/heme_O2/dock.dpf
DOCKED: USER  
DOCKED: USER    Estimated Free Energy of Binding    =   -5.44 kcal/mol  [=(1)+(2)+(3)-(4)]
DOCKED: USER    Estimated Inhibition Constant, Ki   =  102.25 uM (micromolar)  [Temperature = 298.15 K]
DOCKED: USER    
DOCKED: USER    (1) Final Intermolecular Energy     =   -8.43 kcal/mol
DOCKED: USER        vdW + Hbond + desolv Energy     =   -5.80 kcal/mol
DOCKED: USER        Electrostatic Energy            =   -2.63 kcal/mol
DOCKED: USER    (2) Final Total Internal Energy     =   -0.72 kcal/mol
DOCKED: USER    (3) Torsional Free Energy           =   +2.98 kcal/mol
DOCKED: USER    (4) Unbound System's Energy  [=(2)] =   -0.72 kcal/mol
DOCKED: USER    
DOCKED: USER    
DOCKED: USER    NEWDPF move heme_O2_opt.pdbqt
DOCKED: USER    NEWDPF about 8.287000 34.468000 -0.670000
DOCKED: USER    NEWDPF tran0 2.945080 -0.279059 -20.666661
DOCKED: USER    NEWDPF quaternion0 -0.692611 0.222638 -0.464399 0.505030
DOCKED: USER    NEWDPF axisangle0 -0.802467 0.257951 -0.538059 119.333253
DOCKED: USER    NEWDPF quat0 -0.802467 0.257951 -0.538059 119.333253
DOCKED: USER    NEWDPF dihe0 -156.62 -18.70 102.54 -75.30 -106.51 96.99 -180.00 -74.08 -154.76 -180.00 
DOCKED: USER  keepresnum = 1 
DOCKED: USER  
DOCKED: REMARK  10 active torsions:
DOCKED: REMARK  status: ('A' for Active; 'I' for Inactive)
DOCKED: REMARK    1  A    between atoms: C_6  and  C_10 
DOCKED: REMARK    2  A    between atoms: C_10  and  C_11 
DOCKED: REMARK    3  A    between atoms: C_11  and  C_12 
DOCKED: REMARK    4  A    between atoms: C_12  and  O_14 
DOCKED: REMARK    5  A    between atoms: C_17  and  C_20 
DOCKED: REMARK    6  A    between atoms: C_24  and  C_27 
DOCKED: REMARK    7  A    between atoms: C_31  and  C_34 
DOCKED: REMARK    8  A    between atoms: C_34  and  C_35 
DOCKED: REMARK    9  A    between atoms: C_35  and  C_36 
DOCKED: REMARK   10  A    between atoms: C_36  and  O_38 
DOCKED: USER                              x       y       z     vdW  Elec       q    Type
DOCKED: USER                           _______ _______ _______ _____ _____    ______ ____
DOCKED: ROOT
DOCKED: ATOM      1  C   UNL d   1       1.264  -0.090 -21.947 -0.05 +0.02    +0.064 A 
DOCKED: ATOM      2  C   UNL d   1       5.487  -2.195 -22.487 -0.11 +0.01    +0.064 A 
DOCKED: ATOM      3  C   UNL d   1       6.849  -0.800 -18.095 -0.21 +0.02    +0.064 C 
DOCKED: ATOM      4  C   UNL d   1       2.332   0.960 -17.342 -0.08 +0.03    +0.064 A 
DOCKED: ATOM      5  C   UNL d   1       2.301  -0.778 -22.451 -0.04 +0.02    +0.066 A 
DOCKED: ATOM      6  C   UNL d   1       2.319  -1.339 -23.732 -0.03 -0.00    -0.021 A 
DOCKED: ATOM      7  C   UNL d   1       3.525  -1.986 -23.873 -0.04 -0.00    -0.025 A 
DOCKED: ATOM      8  C   UNL d   1       4.229  -1.761 -22.694 -0.08 +0.01    +0.066 A 
DOCKED: ATOM      9  C   UNL d   1       3.935  -2.796 -25.083 -0.03 +0.00    +0.051 C 
DOCKED: ATOM     10  C   UNL d   1       6.285  -1.971 -21.281 -0.11 +0.01    +0.066 A 
DOCKED: ATOM     11  C   UNL d   1       7.641  -2.301 -21.183 -0.12 -0.00    -0.021 A 
DOCKED: ATOM     12  C   UNL d   1       8.056  -1.890 -19.930 -0.18 +0.00    +0.000 A 
DOCKED: ATOM     13  C   UNL d   1       6.901  -1.331 -19.316 -0.14 +0.02    +0.070 A 
DOCKED: ATOM     14  C   UNL d   1       8.511  -2.956 -22.249 -0.14 +0.00    +0.052 C 
DOCKED: ATOM     15  C   UNL d   1       5.692  -0.256 -17.425 -0.18 +0.02    +0.066 A 
DOCKED: ATOM     16  C   UNL d   1       5.665   0.134 -16.086 -0.22 -0.01    -0.021 A 
DOCKED: ATOM     17  C   UNL d   1       4.386   0.639 -15.849 -0.21 +0.00    +0.000 A 
DOCKED: ATOM     18  C   UNL d   1       3.721   0.518 -17.077 -0.15 +0.02    +0.070 A 
DOCKED: ATOM     19  C   UNL d   1       6.831  -0.057 -15.150 -0.13 +0.02    +0.052 C 
DOCKED: ATOM     20  C   UNL d   1       1.649   0.820 -18.496 -0.06 +0.04    +0.066 A 
DOCKED: ATOM     21  C   UNL d   1       0.347   1.272 -18.692 -0.13 -0.02    -0.025 A 
DOCKED: ATOM     22  C   UNL d   1       0.036   1.005 -20.006 -0.10 -0.02    -0.021 A 
DOCKED: ATOM     23  C   UNL d   1       1.158   0.382 -20.561 -0.10 +0.03    +0.066 A 
DOCKED: ATOM     24  C   UNL d   1      -0.555   1.921 -17.675 -0.16 +0.06    +0.051 C 
DOCKED: ATOM     25  N   UNL d   1       3.449  -1.073 -21.793 -0.04 -0.05    -0.248 N 
DOCKED: ATOM     26  N   UNL d   1       5.827  -1.389 -20.143 -0.10 -0.06    -0.248 N 
DOCKED: ATOM     27  N   UNL d   1       4.504  -0.096 -18.001 -0.11 -0.07    -0.248 N 
DOCKED: ATOM     28  N   UNL d   1       2.120   0.230 -19.627 -0.09 -0.11    -0.248 N 
DOCKED: ATOM     29 FE   UNL d   1       3.960  -0.573 -19.880 -0.03 +0.00    +0.000 Fe
DOCKED: ATOM     30  O   UNL d   1       3.743  -2.099 -20.094 -0.25 +0.00    +0.000 OA
DOCKED: ATOM     31  O   UNL d   1       3.227  -1.414 -18.773 -0.35 +0.00    +0.000 OA
DOCKED: ENDROOT
DOCKED: BRANCH   6  32
DOCKED: ATOM     32  C   UNL d   1       1.196  -1.385 -24.735 -0.02 +0.01    +0.052 C 
DOCKED: BRANCH  32  33
DOCKED: ATOM     33  C   UNL d   1       0.077  -2.339 -24.328 -0.05 +0.02    +0.115 C 
DOCKED: BRANCH  33  34
DOCKED: ATOM     34  C   UNL d   1       0.377  -3.060 -23.037 -0.11 +0.03    +0.139 C 
DOCKED: ATOM     35  O   UNL d   1      -0.161  -2.695 -22.004 -0.03 -0.26    -0.650 OA
DOCKED: BRANCH  34  36
DOCKED: ATOM     36  O   UNL d   1       1.253  -4.085 -22.990 +0.02 -0.09    -0.776 OA
DOCKED: ATOM     37  H   UNL d   1       1.218  -4.755 -22.298 -0.07 +0.01    +0.167 HD
DOCKED: ENDBRANCH  34  36
DOCKED: ENDBRANCH  33  34
DOCKED: ENDBRANCH  32  33
DOCKED: ENDBRANCH   6  32
DOCKED: BRANCH  22  38
DOCKED: ATOM     38  C   UNL d   1      -1.290   1.279 -20.668 -0.07 +0.04    +0.052 C 
DOCKED: BRANCH  38  39
DOCKED: ATOM     39  C   UNL d   1      -2.345   0.235 -20.310 -0.13 +0.15    +0.115 C 
DOCKED: BRANCH  39  40
DOCKED: ATOM     40  C   UNL d   1      -3.356   0.753 -19.318 -0.13 +0.24    +0.139 C 
DOCKED: ATOM     41  O   UNL d   1      -3.465   0.217 -18.227 -0.14 -1.63    -0.650 OA
DOCKED: BRANCH  40  42
DOCKED: ATOM     42  O   UNL d   1      -4.110   1.835 -19.594 -0.00 -1.31    -0.776 OA
DOCKED: ATOM     43  H   UNL d   1      -3.883   2.439 -20.311 +0.02 +0.19    +0.167 HD
DOCKED: ENDBRANCH  40  42
DOCKED: ENDBRANCH  39  40
DOCKED: ENDBRANCH  38  39
DOCKED: ENDBRANCH  22  38
DOCKED: BRANCH  12  44
DOCKED: ATOM     44  C   UNL d   1       9.483  -2.073 -19.455 -0.18 +0.00    +0.004 C 
DOCKED: ATOM     45  C   UNL d   1      10.041  -3.169 -18.941 -0.26 +0.01    +0.012 C 
DOCKED: ENDBRANCH  12  44
DOCKED: BRANCH  17  46
DOCKED: ATOM     46  C   UNL d   1       3.746   1.153 -14.587 -0.36 +0.00    +0.004 C 
DOCKED: ATOM     47  C   UNL d   1       3.180   0.448 -13.599 -0.48 +0.00    +0.012 C 
DOCKED: ENDBRANCH  17  46
DOCKED: TORSDOF 10
DOCKED: TER
DOCKED: ENDMDL
________________________________________________________________________________


	BEGINNING GENETIC ALGORITHM DOCKING 18 of 100
Run: 18 Seed: 1949175251 2123739581 [ Run 18 of 100 GA/GALS ]
Beginning LAMARCKIAN GENETIC ALGORITHM (LGA), with a maximum of 25000000 energy evaluations.

Final-Value: -10.370


	FINAL GENETIC ALGORITHM DOCKED STATE
	_______________________________________________


Detailed state:  trans -12.401 -5.874 1.372 quatxyzw -0.816747 -0.084183 0.567451 -0.061940 center 8.287 34.468 -0.670 ntor 10 39.3558 -180.0000 166.1448 21.6546 153.9054 -26.5428 -122.1759 -71.2869 -27.6295 -12.0743
State:	-12.401  -5.874   1.372  -0.818 -0.084  0.569 -172.898     39.36 -180.00  166.14   21.65  153.91  -26.54 -122.18  -71.29  -27.63  -12.07

DOCKED: MODEL       18
DOCKED: USER    Run = 18
DOCKED: USER    DPF = D:/Protein_go_brrr/autodock/final/mut_D99N/heme_O2/dock.dpf
DOCKED: USER  
DOCKED: USER    Estimated Free Energy of Binding    =   -6.07 kcal/mol  [=(1)+(2)+(3)-(4)]
DOCKED: USER    Estimated Inhibition Constant, Ki   =   35.69 uM (micromolar)  [Temperature = 298.15 K]
DOCKED: USER    
DOCKED: USER    (1) Final Intermolecular Energy     =   -9.05 kcal/mol
DOCKED: USER        vdW + Hbond + desolv Energy     =   -7.29 kcal/mol
DOCKED: USER        Electrostatic Energy            =   -1.76 kcal/mol
DOCKED: USER    (2) Final Total Internal Energy     =   -1.32 kcal/mol
DOCKED: USER    (3) Torsional Free Energy           =   +2.98 kcal/mol
DOCKED: USER    (4) Unbound System's Energy  [=(2)] =   -1.32 kcal/mol
DOCKED: USER    
DOCKED: USER    
DOCKED: USER    NEWDPF move heme_O2_opt.pdbqt
DOCKED: USER    NEWDPF about 8.287000 34.468000 -0.670000
DOCKED: USER    NEWDPF tran0 -12.401261 -5.873846 1.372459
DOCKED: USER    NEWDPF quaternion0 -0.816747 -0.084183 0.567451 -0.061940
DOCKED: USER    NEWDPF axisangle0 -0.818319 -0.084344 0.568542 -172.897615
DOCKED: USER    NEWDPF quat0 -0.818319 -0.084344 0.568542 -172.897615
DOCKED: USER    NEWDPF dihe0 39.36 -180.00 166.14 21.65 153.91 -26.54 -122.18 -71.29 -27.63 -12.07 
DOCKED: USER  keepresnum = 1 
DOCKED: USER  
DOCKED: REMARK  10 active torsions:
DOCKED: REMARK  status: ('A' for Active; 'I' for Inactive)
DOCKED: REMARK    1  A    between atoms: C_6  and  C_10 
DOCKED: REMARK    2  A    between atoms: C_10  and  C_11 
DOCKED: REMARK    3  A    between atoms: C_11  and  C_12 
DOCKED: REMARK    4  A    between atoms: C_12  and  O_14 
DOCKED: REMARK    5  A    between atoms: C_17  and  C_20 
DOCKED: REMARK    6  A    between atoms: C_24  and  C_27 
DOCKED: REMARK    7  A    between atoms: C_31  and  C_34 
DOCKED: REMARK    8  A    between atoms: C_34  and  C_35 
DOCKED: REMARK    9  A    between atoms: C_35  and  C_36 
DOCKED: REMARK   10  A    between atoms: C_36  and  O_38 
DOCKED: USER                              x       y       z     vdW  Elec       q    Type
DOCKED: USER                           _______ _______ _______ _____ _____    ______ ____
DOCKED: ROOT
DOCKED: ATOM      1  C   UNL d   1     -12.250  -6.856   3.247 -0.09 +0.03    +0.064 A 
DOCKED: ATOM      2  C   UNL d   1     -15.507  -3.923   1.415 -0.07 +0.05    +0.064 A 
DOCKED: ATOM      3  C   UNL d   1     -12.978  -3.505  -2.650 -0.26 +0.01    +0.064 C 
DOCKED: ATOM      4  C   UNL d   1      -9.860  -6.897  -0.964 -0.20 -0.02    +0.064 A 
DOCKED: ATOM      5  C   UNL d   1     -13.343  -6.094   3.079 +0.02 +0.05    +0.066 A 
DOCKED: ATOM      6  C   UNL d   1     -14.333  -5.922   4.051 -0.07 -0.02    -0.021 A 
DOCKED: ATOM      7  C   UNL d   1     -15.298  -5.107   3.506 -0.05 -0.02    -0.025 A 
DOCKED: ATOM      8  C   UNL d   1     -14.847  -4.765   2.234 -0.05 +0.06    +0.066 A 
DOCKED: ATOM      9  C   UNL d   1     -16.592  -4.721   4.189 -0.04 +0.03    +0.051 C 
DOCKED: ATOM     10  C   UNL d   1     -15.072  -3.509   0.080 -0.10 +0.03    +0.066 A 
DOCKED: ATOM     11  C   UNL d   1     -15.709  -2.508  -0.661 -0.14 -0.01    -0.021 A 
DOCKED: ATOM     12  C   UNL d   1     -14.984  -2.360  -1.829 -0.26 +0.00    +0.000 A 
DOCKED: ATOM     13  C   UNL d   1     -13.929  -3.310  -1.738 -0.19 +0.02    +0.070 A 
DOCKED: ATOM     14  C   UNL d   1     -16.942  -1.706  -0.259 -0.13 +0.01    +0.052 C 
DOCKED: ATOM     15  C   UNL d   1     -11.914  -4.480  -2.612 -0.21 +0.00    +0.066 A 
DOCKED: ATOM     16  C   UNL d   1     -11.048  -4.747  -3.672 -0.31 +0.00    -0.021 A 
DOCKED: ATOM     17  C   UNL d   1     -10.151  -5.712  -3.215 -0.31 -0.00    +0.000 A 
DOCKED: ATOM     18  C   UNL d   1     -10.540  -5.963  -1.891 -0.19 -0.01    +0.070 A 
DOCKED: ATOM     19  C   UNL d   1     -11.187  -4.105  -5.030 -0.36 +0.00    +0.052 C 
DOCKED: ATOM     20  C   UNL d   1     -10.233  -7.193   0.297 -0.20 -0.01    +0.066 A 
DOCKED: ATOM     21  C   UNL d   1      -9.542  -8.069   1.129 -0.24 +0.00    -0.025 A 
DOCKED: ATOM     22  C   UNL d   1     -10.193  -8.049   2.342 -0.16 -0.00    -0.021 A 
DOCKED: ATOM     23  C   UNL d   1     -11.273  -7.172   2.199 -0.13 +0.02    +0.066 A 
DOCKED: ATOM     24  C   UNL d   1      -8.324  -8.886   0.784 -0.19 -0.02    +0.051 C 
DOCKED: ATOM     25  N   UNL d   1     -13.675  -5.426   1.947 -0.03 -0.21    -0.248 N 
DOCKED: ATOM     26  N   UNL d   1     -13.993  -4.008  -0.576 -0.07 -0.10    -0.248 N 
DOCKED: ATOM     27  N   UNL d   1     -11.657  -5.262  -1.568 -0.08 -0.01    -0.248 N 
DOCKED: ATOM     28  N   UNL d   1     -11.319  -6.689   0.940 -0.08 -0.04    -0.248 N 
DOCKED: ATOM     29 FE   UNL d   1     -12.645  -5.358   0.185 -0.03 +0.00    +0.000 Fe
DOCKED: ATOM     30  O   UNL d   1     -14.006  -6.107   0.089 -0.06 +0.00    +0.000 OA
DOCKED: ATOM     31  O   UNL d   1     -12.750  -6.669  -0.677 -0.07 +0.00    +0.000 OA
DOCKED: ENDROOT
DOCKED: BRANCH   6  32
DOCKED: ATOM     32  C   UNL d   1     -14.442  -6.604   5.390 -0.06 +0.02    +0.052 C 
DOCKED: BRANCH  32  33
DOCKED: ATOM     33  C   UNL d   1     -13.202  -6.407   6.257 -0.09 +0.05    +0.115 C 
DOCKED: BRANCH  33  34
DOCKED: ATOM     34  C   UNL d   1     -12.869  -4.950   6.461 -0.10 +0.12    +0.139 C 
DOCKED: ATOM     35  O   UNL d   1     -13.602  -4.092   5.995 -0.47 -1.05    -0.650 OA
DOCKED: BRANCH  34  36
DOCKED: ATOM     36  O   UNL d   1     -11.758  -4.569   7.126 +0.02 -0.49    -0.776 OA
DOCKED: ATOM     37  H   UNL d   1     -10.917  -5.027   7.020 +0.05 +0.09    +0.167 HD
DOCKED: ENDBRANCH  34  36
DOCKED: ENDBRANCH  33  34
DOCKED: ENDBRANCH  32  33
DOCKED: ENDBRANCH   6  32
DOCKED: BRANCH  22  38
DOCKED: ATOM     38  C   UNL d   1      -9.831  -8.878   3.548 -0.15 +0.00    +0.052 C 
DOCKED: BRANCH  38  39
DOCKED: ATOM     39  C   UNL d   1      -8.829  -8.172   4.459 -0.27 +0.02    +0.115 C 
DOCKED: BRANCH  39  40
DOCKED: ATOM     40  C   UNL d   1      -9.459  -7.688   5.742 -0.22 +0.03    +0.139 C 
DOCKED: ATOM     41  O   UNL d   1      -9.069  -8.127   6.812 -0.02 -0.17    -0.650 OA
DOCKED: BRANCH  40  42
DOCKED: ATOM     42  O   UNL d   1     -10.414  -6.738   5.733 +0.04 -0.30    -0.776 OA
DOCKED: ATOM     43  H   UNL d   1     -10.793  -6.396   6.551 +0.04 +0.06    +0.167 HD
DOCKED: ENDBRANCH  40  42
DOCKED: ENDBRANCH  39  40
DOCKED: ENDBRANCH  38  39
DOCKED: ENDBRANCH  22  38
DOCKED: BRANCH  12  44
DOCKED: ATOM     44  C   UNL d   1     -15.368  -1.351  -2.891 -0.43 +0.00    +0.004 C 
DOCKED: ATOM     45  C   UNL d   1     -16.541  -0.740  -3.054 -0.32 +0.00    +0.012 C 
DOCKED: ENDBRANCH  12  44
DOCKED: BRANCH  17  46
DOCKED: ATOM     46  C   UNL d   1      -9.032  -6.433  -3.918 -0.41 -0.00    +0.004 C 
DOCKED: ATOM     47  C   UNL d   1      -8.452  -6.125  -5.085 -0.56 -0.00    +0.012 C 
DOCKED: ENDBRANCH  17  46
DOCKED: TORSDOF 10
DOCKED: TER
DOCKED: ENDMDL
________________________________________________________________________________


	BEGINNING GENETIC ALGORITHM DOCKING 19 of 100
Run: 19 Seed: 1890951818 679500697 [ Run 19 of 100 GA/GALS ]
Beginning LAMARCKIAN GENETIC ALGORITHM (LGA), with a maximum of 25000000 energy evaluations.

Final-Value: -9.950


	FINAL GENETIC ALGORITHM DOCKED STATE
	_______________________________________________


Detailed state:  trans 15.740 -0.348 4.090 quatxyzw 0.225486 0.734361 0.145226 -0.623521 center 8.287 34.468 -0.670 ntor 10 144.2110 -25.1046 -56.4460 43.8445 29.2635 125.1079 -119.4159 13.3556 -167.4128 -174.9437
State:	 15.740  -0.348   4.090   0.288  0.939  0.186 -102.853    144.21  -25.10  -56.45   43.84   29.26  125.11 -119.42   13.36 -167.41 -174.94

DOCKED: MODEL       19
DOCKED: USER    Run = 19
DOCKED: USER    DPF = D:/Protein_go_brrr/autodock/final/mut_D99N/heme_O2/dock.dpf
DOCKED: USER  
DOCKED: USER    Estimated Free Energy of Binding    =   -5.30 kcal/mol  [=(1)+(2)+(3)-(4)]
DOCKED: USER    Estimated Inhibition Constant, Ki   =  129.40 uM (micromolar)  [Temperature = 298.15 K]
DOCKED: USER    
DOCKED: USER    (1) Final Intermolecular Energy     =   -8.29 kcal/mol
DOCKED: USER        vdW + Hbond + desolv Energy     =   -7.65 kcal/mol
DOCKED: USER        Electrostatic Energy            =   -0.63 kcal/mol
DOCKED: USER    (2) Final Total Internal Energy     =   -1.66 kcal/mol
DOCKED: USER    (3) Torsional Free Energy           =   +2.98 kcal/mol
DOCKED: USER    (4) Unbound System's Energy  [=(2)] =   -1.66 kcal/mol
DOCKED: USER    
DOCKED: USER    
DOCKED: USER    NEWDPF move heme_O2_opt.pdbqt
DOCKED: USER    NEWDPF about 8.287000 34.468000 -0.670000
DOCKED: USER    NEWDPF tran0 15.739709 -0.348317 4.089954
DOCKED: USER    NEWDPF quaternion0 0.225486 0.734361 0.145226 -0.623521
DOCKED: USER    NEWDPF axisangle0 0.288417 0.939313 0.185758 -102.852506
DOCKED: USER    NEWDPF quat0 0.288417 0.939313 0.185758 -102.852506
DOCKED: USER    NEWDPF dihe0 144.21 -25.10 -56.45 43.84 29.26 125.11 -119.42 13.36 -167.41 -174.94 
DOCKED: USER  keepresnum = 1 
DOCKED: USER  
DOCKED: REMARK  10 active torsions:
DOCKED: REMARK  status: ('A' for Active; 'I' for Inactive)
DOCKED: REMARK    1  A    between atoms: C_6  and  C_10 
DOCKED: REMARK    2  A    between atoms: C_10  and  C_11 
DOCKED: REMARK    3  A    between atoms: C_11  and  C_12 
DOCKED: REMARK    4  A    between atoms: C_12  and  O_14 
DOCKED: REMARK    5  A    between atoms: C_17  and  C_20 
DOCKED: REMARK    6  A    between atoms: C_24  and  C_27 
DOCKED: REMARK    7  A    between atoms: C_31  and  C_34 
DOCKED: REMARK    8  A    between atoms: C_34  and  C_35 
DOCKED: REMARK    9  A    between atoms: C_35  and  C_36 
DOCKED: REMARK   10  A    between atoms: C_36  and  O_38 
DOCKED: USER                              x       y       z     vdW  Elec       q    Type
DOCKED: USER                           _______ _______ _______ _____ _____    ______ ____
DOCKED: ROOT
DOCKED: ATOM      1  C   UNL d   1      15.271  -0.737   6.122 -0.00 +0.00    +0.064 A 
DOCKED: ATOM      2  C   UNL d   1      18.357  -2.721   3.106 -0.21 -0.00    +0.064 A 
DOCKED: ATOM      3  C   UNL d   1      16.943   0.220  -0.422 -0.20 -0.01    +0.064 C 
DOCKED: ATOM      4  C   UNL d   1      14.102   2.588   2.802 -0.18 +0.00    +0.064 A 
DOCKED: ATOM      5  C   UNL d   1      16.227  -1.515   5.590 -0.18 -0.00    +0.066 A 
DOCKED: ATOM      6  C   UNL d   1      16.887  -2.531   6.287 -0.28 +0.00    -0.021 A 
DOCKED: ATOM      7  C   UNL d   1      17.811  -3.078   5.428 -0.21 +0.00    -0.025 A 
DOCKED: ATOM      8  C   UNL d   1      17.657  -2.413   4.215 -0.21 -0.01    +0.066 A 
DOCKED: ATOM      9  C   UNL d   1      18.800  -4.163   5.796 -0.14 +0.00    +0.051 C 
DOCKED: ATOM     10  C   UNL d   1      18.223  -2.075   1.800 -0.18 -0.01    +0.066 A 
DOCKED: ATOM     11  C   UNL d   1      18.856  -2.541   0.642 -0.21 +0.00    -0.021 A 
DOCKED: ATOM     12  C   UNL d   1      18.446  -1.717  -0.390 -0.20 -0.00    +0.000 A 
DOCKED: ATOM     13  C   UNL d   1      17.577  -0.766   0.213 -0.15 -0.01    +0.070 A 
DOCKED: ATOM     14  C   UNL d   1      19.790  -3.740   0.520 -0.28 -0.01    +0.052 C 
DOCKED: ATOM     15  C   UNL d   1      16.083   1.224   0.157 -0.15 -0.00    +0.066 A 
DOCKED: ATOM     16  C   UNL d   1      15.580   2.327  -0.532 -0.15 +0.00    -0.021 A 
DOCKED: ATOM     17  C   UNL d   1      14.768   3.018   0.367 -0.15 +0.00    +0.000 A 
DOCKED: ATOM     18  C   UNL d   1      14.835   2.273   1.553 -0.16 +0.00    +0.070 A 
DOCKED: ATOM     19  C   UNL d   1      15.960   2.650  -1.955 +0.30 +0.00    +0.052 C 
DOCKED: ATOM     20  C   UNL d   1      14.178   1.920   3.970 -0.21 +0.00    +0.066 A 
DOCKED: ATOM     21  C   UNL d   1      13.449   2.253   5.108 -0.23 -0.00    -0.025 A 
DOCKED: ATOM     22  C   UNL d   1      13.749   1.301   6.055 -0.28 -0.00    -0.021 A 
DOCKED: ATOM     23  C   UNL d   1      14.667   0.428   5.464 -0.24 +0.00    +0.066 A 
DOCKED: ATOM     24  C   UNL d   1      12.517   3.424   5.283 -0.22 +0.01    +0.051 C 
DOCKED: ATOM     25  N   UNL d   1      16.726  -1.406   4.334 -0.17 +0.02    -0.248 N 
DOCKED: ATOM     26  N   UNL d   1      17.451  -0.988   1.546 -0.08 +0.01    -0.248 N 
DOCKED: ATOM     27  N   UNL d   1      15.697   1.231   1.430 -0.08 +0.00    -0.248 N 
DOCKED: ATOM     28  N   UNL d   1      14.959   0.834   4.211 -0.16 +0.00    -0.248 N 
DOCKED: ATOM     29 FE   UNL d   1      16.195  -0.068   2.886 -0.05 -0.00    +0.000 Fe
DOCKED: ATOM     30  O   UNL d   1      17.639   0.135   3.431 -0.09 -0.00    +0.000 OA
DOCKED: ATOM     31  O   UNL d   1      16.738   1.389   3.120 -0.09 +0.00    +0.000 OA
DOCKED: ENDROOT
DOCKED: BRANCH   6  32
DOCKED: ATOM     32  C   UNL d   1      16.754  -2.886   7.746 -0.26 -0.00    +0.052 C 
DOCKED: BRANCH  32  33
DOCKED: ATOM     33  C   UNL d   1      17.628  -2.021   8.648 -0.11 -0.00    +0.115 C 
DOCKED: BRANCH  33  34
DOCKED: ATOM     34  C   UNL d   1      17.317  -0.551   8.512 -0.09 +0.01    +0.139 C 
DOCKED: ATOM     35  O   UNL d   1      18.199   0.224   8.176 +0.02 -0.02    -0.650 OA
DOCKED: BRANCH  34  36
DOCKED: ATOM     36  O   UNL d   1      16.088  -0.064   8.782 -0.30 -0.11    -0.776 OA
DOCKED: ATOM     37  H   UNL d   1      15.959   0.802   9.185 +0.02 +0.01    +0.167 HD
DOCKED: ENDBRANCH  34  36
DOCKED: ENDBRANCH  33  34
DOCKED: ENDBRANCH  32  33
DOCKED: ENDBRANCH   6  32
DOCKED: BRANCH  22  38
DOCKED: ATOM     38  C   UNL d   1      13.228   1.274   7.469 -0.28 +0.01    +0.052 C 
DOCKED: BRANCH  38  39
DOCKED: ATOM     39  C   UNL d   1      13.869   2.347   8.346 -0.17 +0.03    +0.115 C 
DOCKED: BRANCH  39  40
DOCKED: ATOM     40  C   UNL d   1      13.580   2.143   9.812 -0.16 +0.05    +0.139 C 
DOCKED: ATOM     41  O   UNL d   1      12.594   2.659  10.313 -0.51 -0.55    -0.650 OA
DOCKED: BRANCH  40  42
DOCKED: ATOM     42  O   UNL d   1      14.364   1.355  10.573 -0.01 -0.10    -0.776 OA
DOCKED: ATOM     43  H   UNL d   1      14.916   0.665  10.184 +0.02 +0.01    +0.167 HD
DOCKED: ENDBRANCH  40  42
DOCKED: ENDBRANCH  39  40
DOCKED: ENDBRANCH  38  39
DOCKED: ENDBRANCH  22  38
DOCKED: BRANCH  12  44
DOCKED: ATOM     44  C   UNL d   1      18.919  -1.917  -1.814 -0.32 -0.00    +0.004 C 
DOCKED: ATOM     45  C   UNL d   1      18.182  -2.176  -2.893 -0.46 -0.00    +0.012 C 
DOCKED: ENDBRANCH  12  44
DOCKED: BRANCH  17  46
DOCKED: ATOM     46  C   UNL d   1      14.007   4.309   0.222 -0.12 +0.00    +0.004 C 
DOCKED: ATOM     47  C   UNL d   1      13.360   4.772  -0.855 -0.13 +0.00    +0.012 C 
DOCKED: ENDBRANCH  17  46
DOCKED: TORSDOF 10
DOCKED: TER
DOCKED: ENDMDL
________________________________________________________________________________


	BEGINNING GENETIC ALGORITHM DOCKING 20 of 100
Run: 20 Seed: 580059352 1064737820 [ Run 20 of 100 GA/GALS ]
Beginning LAMARCKIAN GENETIC ALGORITHM (LGA), with a maximum of 25000000 energy evaluations.

Final-Value: -8.567


	FINAL GENETIC ALGORITHM DOCKED STATE
	_______________________________________________


Detailed state:  trans 6.741 13.959 8.070 quatxyzw -0.313944 -0.819652 -0.272408 0.394213 center 8.287 34.468 -0.670 ntor 10 29.4092 -30.2757 -44.6279 111.8662 -10.1129 138.4013 -73.9887 122.5236 17.9785 -2.3886
State:	  6.741  13.959   8.070  -0.342 -0.892 -0.296 133.566     29.41  -30.28  -44.63  111.87  -10.11  138.40  -73.99  122.52   17.98   -2.39

DOCKED: MODEL       20
DOCKED: USER    Run = 20
DOCKED: USER    DPF = D:/Protein_go_brrr/autodock/final/mut_D99N/heme_O2/dock.dpf
DOCKED: USER  
DOCKED: USER    Estimated Free Energy of Binding    =   -4.79 kcal/mol  [=(1)+(2)+(3)-(4)]
DOCKED: USER    Estimated Inhibition Constant, Ki   =  309.29 uM (micromolar)  [Temperature = 298.15 K]
DOCKED: USER    
DOCKED: USER    (1) Final Intermolecular Energy     =   -7.77 kcal/mol
DOCKED: USER        vdW + Hbond + desolv Energy     =   -7.70 kcal/mol
DOCKED: USER        Electrostatic Energy            =   -0.07 kcal/mol
DOCKED: USER    (2) Final Total Internal Energy     =   -0.80 kcal/mol
DOCKED: USER    (3) Torsional Free Energy           =   +2.98 kcal/mol
DOCKED: USER    (4) Unbound System's Energy  [=(2)] =   -0.80 kcal/mol
DOCKED: USER    
DOCKED: USER    
DOCKED: USER    NEWDPF move heme_O2_opt.pdbqt
DOCKED: USER    NEWDPF about 8.287000 34.468000 -0.670000
DOCKED: USER    NEWDPF tran0 6.740570 13.959348 8.069595
DOCKED: USER    NEWDPF quaternion0 -0.313944 -0.819652 -0.272408 0.394213
DOCKED: USER    NEWDPF axisangle0 -0.341608 -0.891877 -0.296411 133.566250
DOCKED: USER    NEWDPF quat0 -0.341608 -0.891877 -0.296411 133.566250
DOCKED: USER    NEWDPF dihe0 29.41 -30.28 -44.63 111.87 -10.11 138.40 -73.99 122.52 17.98 -2.39 
DOCKED: USER  keepresnum = 1 
DOCKED: USER  
DOCKED: REMARK  10 active torsions:
DOCKED: REMARK  status: ('A' for Active; 'I' for Inactive)
DOCKED: REMARK    1  A    between atoms: C_6  and  C_10 
DOCKED: REMARK    2  A    between atoms: C_10  and  C_11 
DOCKED: REMARK    3  A    between atoms: C_11  and  C_12 
DOCKED: REMARK    4  A    between atoms: C_12  and  O_14 
DOCKED: REMARK    5  A    between atoms: C_17  and  C_20 
DOCKED: REMARK    6  A    between atoms: C_24  and  C_27 
DOCKED: REMARK    7  A    between atoms: C_31  and  C_34 
DOCKED: REMARK    8  A    between atoms: C_34  and  C_35 
DOCKED: REMARK    9  A    between atoms: C_35  and  C_36 
DOCKED: REMARK   10  A    between atoms: C_36  and  O_38 
DOCKED: USER                              x       y       z     vdW  Elec       q    Type
DOCKED: USER                           _______ _______ _______ _____ _____    ______ ____
DOCKED: ROOT
DOCKED: ATOM      1  C   UNL d   1       7.187  12.830   9.809 -0.23 -0.01    +0.064 A 
DOCKED: ATOM      2  C   UNL d   1       8.821  12.640   5.353 +0.01 -0.00    +0.064 A 
DOCKED: ATOM      3  C   UNL d   1       5.910  16.229   4.035 -0.26 -0.00    +0.064 C 
DOCKED: ATOM      4  C   UNL d   1       4.567  16.754   8.724 -0.02 -0.00    +0.064 A 
DOCKED: ATOM      5  C   UNL d   1       7.871  12.487   8.705 -0.26 -0.00    +0.066 A 
DOCKED: ATOM      6  C   UNL d   1       8.813  11.455   8.656 -0.22 -0.00    -0.021 A 
DOCKED: ATOM      7  C   UNL d   1       9.318  11.428   7.378 -0.17 -0.00    -0.025 A 
DOCKED: ATOM      8  C   UNL d   1       8.636  12.412   6.667 -0.09 -0.00    +0.066 A 
DOCKED: ATOM      9  C   UNL d   1      10.423  10.510   6.903 -0.12 +0.00    +0.051 C 
DOCKED: ATOM     10  C   UNL d   1       8.119  13.642   4.549 -0.20 -0.01    +0.066 A 
DOCKED: ATOM     11  C   UNL d   1       8.230  13.727   3.157 -0.23 +0.00    -0.021 A 
DOCKED: ATOM     12  C   UNL d   1       7.384  14.745   2.756 -0.25 -0.00    +0.000 A 
DOCKED: ATOM     13  C   UNL d   1       6.801  15.242   3.954 -0.25 -0.01    +0.070 A 
DOCKED: ATOM     14  C   UNL d   1       9.087  12.857   2.245 -0.19 +0.00    +0.052 C 
DOCKED: ATOM     15  C   UNL d   1       5.323  16.785   5.230 -0.23 -0.00    +0.066 A 
DOCKED: ATOM     16  C   UNL d   1       4.522  17.926   5.261 -0.18 -0.00    -0.021 A 
DOCKED: ATOM     17  C   UNL d   1       4.128  18.096   6.588 -0.19 +0.00    +0.000 A 
DOCKED: ATOM     18  C   UNL d   1       4.724  17.030   7.276 -0.15 +0.00    +0.070 A 
DOCKED: ATOM     19  C   UNL d   1       4.252  18.775   4.044 -0.15 +0.00    +0.052 C 
DOCKED: ATOM     20  C   UNL d   1       5.159  15.766   9.423 -0.15 -0.00    +0.066 A 
DOCKED: ATOM     21  C   UNL d   1       4.959  15.545  10.783 -0.15 +0.00    -0.025 A 
DOCKED: ATOM     22  C   UNL d   1       5.676  14.415  11.104 -0.18 +0.00    -0.021 A 
DOCKED: ATOM     23  C   UNL d   1       6.305  13.997   9.927 -0.21 -0.01    +0.066 A 
DOCKED: ATOM     24  C   UNL d   1       4.128  16.373  11.729 -0.11 -0.00    +0.051 C 
DOCKED: ATOM     25  N   UNL d   1       7.791  13.107   7.502 -0.18 +0.03    -0.248 N 
DOCKED: ATOM     26  N   UNL d   1       7.257  14.568   5.041 -0.15 +0.04    -0.248 N 
DOCKED: ATOM     27  N   UNL d   1       5.506  16.288   6.450 -0.17 +0.02    -0.248 N 
DOCKED: ATOM     28  N   UNL d   1       6.024  14.847   8.918 -0.17 +0.04    -0.248 N 
DOCKED: ATOM     29 FE   UNL d   1       6.634  14.711   6.993 -0.06 -0.00    +0.000 Fe
DOCKED: ATOM     30  O   UNL d   1       8.161  15.014   6.999 -0.14 -0.00    +0.000 OA
DOCKED: ATOM     31  O   UNL d   1       7.150  16.086   7.556 -0.12 -0.00    +0.000 OA
DOCKED: ENDROOT
DOCKED: BRANCH   6  32
DOCKED: ATOM     32  C   UNL d   1       9.322  10.616   9.800 -0.17 +0.00    +0.052 C 
DOCKED: BRANCH  32  33
DOCKED: ATOM     33  C   UNL d   1       8.689   9.229   9.844 -0.21 +0.01    +0.115 C 
DOCKED: BRANCH  33  34
DOCKED: ATOM     34  C   UNL d   1       9.620   8.155   9.339 -0.14 +0.03    +0.139 C 
DOCKED: ATOM     35  O   UNL d   1       9.165   7.078   8.989 -0.03 -0.24    -0.650 OA
DOCKED: BRANCH  34  36
DOCKED: ATOM     36  O   UNL d   1      10.955   8.347   9.292 +0.05 -0.12    -0.776 OA
DOCKED: ATOM     37  H   UNL d   1      11.410   8.927   9.913 +0.02 +0.02    +0.167 HD
DOCKED: ENDBRANCH  34  36
DOCKED: ENDBRANCH  33  34
DOCKED: ENDBRANCH  32  33
DOCKED: ENDBRANCH   6  32
DOCKED: BRANCH  22  38
DOCKED: ATOM     38  C   UNL d   1       5.799  13.813  12.480 -0.19 -0.00    +0.052 C 
DOCKED: BRANCH  38  39
DOCKED: ATOM     39  C   UNL d   1       4.860  12.625  12.681 -0.30 -0.01    +0.115 C 
DOCKED: BRANCH  39  40
DOCKED: ATOM     40  C   UNL d   1       3.412  12.994  12.477 -0.37 -0.02    +0.139 C 
DOCKED: ATOM     41  O   UNL d   1       2.812  13.601  13.350 +0.01 +0.09    -0.650 OA
DOCKED: BRANCH  40  42
DOCKED: ATOM     42  O   UNL d   1       2.778  12.710  11.323 +0.04 +0.19    -0.776 OA
DOCKED: ATOM     43  H   UNL d   1       3.256  12.639  10.488 -0.47 -0.10    +0.167 HD
DOCKED: ENDBRANCH  40  42
DOCKED: ENDBRANCH  39  40
DOCKED: ENDBRANCH  38  39
DOCKED: ENDBRANCH  22  38
DOCKED: BRANCH  12  44
DOCKED: ATOM     44  C   UNL d   1       7.226  15.132   1.301 -0.21 +0.00    +0.004 C 
DOCKED: ATOM     45  C   UNL d   1       6.095  15.308   0.618 -0.24 +0.00    +0.012 C 
DOCKED: ENDBRANCH  12  44
DOCKED: BRANCH  17  46
DOCKED: ATOM     46  C   UNL d   1       3.311  19.176   7.246 -0.13 +0.00    +0.004 C 
DOCKED: ATOM     47  C   UNL d   1       2.042  19.114   7.668 -0.16 +0.00    +0.012 C 
DOCKED: ENDBRANCH  17  46
DOCKED: TORSDOF 10
DOCKED: TER
DOCKED: ENDMDL
________________________________________________________________________________


	BEGINNING GENETIC ALGORITHM DOCKING 21 of 100
Run: 21 Seed: 906155808 672750776 [ Run 21 of 100 GA/GALS ]
Beginning LAMARCKIAN GENETIC ALGORITHM (LGA), with a maximum of 25000000 energy evaluations.

Final-Value: -10.068


	FINAL GENETIC ALGORITHM DOCKED STATE
	_______________________________________________


Detailed state:  trans 5.252 0.189 -17.805 quatxyzw 0.770360 -0.099250 0.318167 -0.543567 center 8.287 34.468 -0.670 ntor 10 -83.8038 -144.8177 52.8162 -14.0313 -114.0600 21.4777 -28.1107 -36.6704 -94.4585 6.3480
State:	  5.252   0.189 -17.805   0.918 -0.118  0.379 -114.146    -83.80 -144.82   52.82  -14.03 -114.06   21.48  -28.11  -36.67  -94.46    6.35

DOCKED: MODEL       21
DOCKED: USER    Run = 21
DOCKED: USER    DPF = D:/Protein_go_brrr/autodock/final/mut_D99N/heme_O2/dock.dpf
DOCKED: USER  
DOCKED: USER    Estimated Free Energy of Binding    =   -5.46 kcal/mol  [=(1)+(2)+(3)-(4)]
DOCKED: USER    Estimated Inhibition Constant, Ki   =   99.27 uM (micromolar)  [Temperature = 298.15 K]
DOCKED: USER    
DOCKED: USER    (1) Final Intermolecular Energy     =   -8.44 kcal/mol
DOCKED: USER        vdW + Hbond + desolv Energy     =   -6.27 kcal/mol
DOCKED: USER        Electrostatic Energy            =   -2.18 kcal/mol
DOCKED: USER    (2) Final Total Internal Energy     =   -1.62 kcal/mol
DOCKED: USER    (3) Torsional Free Energy           =   +2.98 kcal/mol
DOCKED: USER    (4) Unbound System's Energy  [=(2)] =   -1.62 kcal/mol
DOCKED: USER    
DOCKED: USER    
DOCKED: USER    NEWDPF move heme_O2_opt.pdbqt
DOCKED: USER    NEWDPF about 8.287000 34.468000 -0.670000
DOCKED: USER    NEWDPF tran0 5.252234 0.188805 -17.805436
DOCKED: USER    NEWDPF quaternion0 0.770360 -0.099250 0.318167 -0.543567
DOCKED: USER    NEWDPF axisangle0 0.917788 -0.118244 0.379056 -114.146369
DOCKED: USER    NEWDPF quat0 0.917788 -0.118244 0.379056 -114.146369
DOCKED: USER    NEWDPF dihe0 -83.80 -144.82 52.82 -14.03 -114.06 21.48 -28.11 -36.67 -94.46 6.35 
DOCKED: USER  keepresnum = 1 
DOCKED: USER  
DOCKED: REMARK  10 active torsions:
DOCKED: REMARK  status: ('A' for Active; 'I' for Inactive)
DOCKED: REMARK    1  A    between atoms: C_6  and  C_10 
DOCKED: REMARK    2  A    between atoms: C_10  and  C_11 
DOCKED: REMARK    3  A    between atoms: C_11  and  C_12 
DOCKED: REMARK    4  A    between atoms: C_12  and  O_14 
DOCKED: REMARK    5  A    between atoms: C_17  and  C_20 
DOCKED: REMARK    6  A    between atoms: C_24  and  C_27 
DOCKED: REMARK    7  A    between atoms: C_31  and  C_34 
DOCKED: REMARK    8  A    between atoms: C_34  and  C_35 
DOCKED: REMARK    9  A    between atoms: C_35  and  C_36 
DOCKED: REMARK   10  A    between atoms: C_36  and  O_38 
DOCKED: USER                              x       y       z     vdW  Elec       q    Type
DOCKED: USER                           _______ _______ _______ _____ _____    ______ ____
DOCKED: ROOT
DOCKED: ATOM      1  C   UNL d   1       3.192   0.314 -18.292 -0.12 +0.02    +0.064 A 
DOCKED: ATOM      2  C   UNL d   1       6.883  -1.736 -20.467 -0.08 +0.01    +0.064 A 
DOCKED: ATOM      3  C   UNL d   1       9.877  -0.195 -17.039 -0.09 +0.03    +0.064 C 
DOCKED: ATOM      4  C   UNL d   1       6.013   1.511 -14.544 -0.19 +0.01    +0.064 A 
DOCKED: ATOM      5  C   UNL d   1       3.951  -0.371 -19.163 -0.16 +0.02    +0.066 A 
DOCKED: ATOM      6  C   UNL d   1       3.461  -0.967 -20.328 -0.17 -0.01    -0.021 A 
DOCKED: ATOM      7  C   UNL d   1       4.521  -1.598 -20.936 -0.13 -0.01    -0.025 A 
DOCKED: ATOM      8  C   UNL d   1       5.639  -1.329 -20.151 -0.10 +0.01    +0.066 A 
DOCKED: ATOM      9  C   UNL d   1       4.425  -2.436 -22.193 -0.14 +0.01    +0.051 C 
DOCKED: ATOM     10  C   UNL d   1       8.096  -1.465 -19.695 -0.13 +0.01    +0.066 A 
DOCKED: ATOM     11  C   UNL d   1       9.383  -1.770 -20.152 -0.10 -0.00    -0.021 A 
DOCKED: ATOM     12  C   UNL d   1      10.262  -1.317 -19.185 -0.08 +0.00    +0.000 A 
DOCKED: ATOM     13  C   UNL d   1       9.442  -0.759 -18.165 -0.10 +0.03    +0.070 A 
DOCKED: ATOM     14  C   UNL d   1       9.761  -2.440 -21.468 -0.09 +0.01    +0.052 C 
DOCKED: ATOM     15  C   UNL d   1       9.079   0.349 -15.966 -0.07 +0.03    +0.066 A 
DOCKED: ATOM     16  C   UNL d   1       9.589   0.777 -14.741 -0.09 -0.01    -0.021 A 
DOCKED: ATOM     17  C   UNL d   1       8.505   1.267 -14.012 -0.18 +0.00    +0.000 A 
DOCKED: ATOM     18  C   UNL d   1       7.401   1.100 -14.860 -0.15 +0.02    +0.070 A 
DOCKED: ATOM     19  C   UNL d   1      11.040   0.631 -14.357 -0.15 +0.02    +0.052 C 
DOCKED: ATOM     20  C   UNL d   1       4.924   1.327 -15.316 -0.15 +0.02    +0.066 A 
DOCKED: ATOM     21  C   UNL d   1       3.643   1.752 -14.973 -0.21 -0.01    -0.025 A 
DOCKED: ATOM     22  C   UNL d   1       2.831   1.443 -16.041 -0.19 -0.01    -0.021 A 
DOCKED: ATOM     23  C   UNL d   1       3.646   0.823 -16.993 -0.14 +0.02    +0.066 A 
DOCKED: ATOM     24  C   UNL d   1       3.216   2.415 -13.690 -0.25 +0.01    +0.051 C 
DOCKED: ATOM     25  N   UNL d   1       5.275  -0.628 -19.024 -0.10 -0.06    -0.248 N 
DOCKED: ATOM     26  N   UNL d   1       8.126  -0.858 -18.481 -0.08 -0.07    -0.248 N 
DOCKED: ATOM     27  N   UNL d   1       7.756   0.473 -16.011 -0.10 -0.08    -0.248 N 
DOCKED: ATOM     28  N   UNL d   1       4.908   0.714 -16.530 -0.06 -0.06    -0.248 N 
DOCKED: ATOM     29 FE   UNL d   1       6.507  -0.066 -17.496 -0.03 +0.00    +0.000 Fe
DOCKED: ATOM     30  O   UNL d   1       6.262  -1.601 -17.573 -0.43 +0.00    +0.000 OA
DOCKED: ATOM     31  O   UNL d   1       6.311  -0.888 -16.169 -0.42 +0.00    +0.000 OA
DOCKED: ENDROOT
DOCKED: BRANCH   6  32
DOCKED: ATOM     32  C   UNL d   1       2.029  -1.061 -20.786 -0.19 +0.02    +0.052 C 
DOCKED: BRANCH  32  33
DOCKED: ATOM     33  C   UNL d   1       1.034  -0.638 -19.709 +0.02 +0.10    +0.115 C 
DOCKED: BRANCH  33  34
DOCKED: ATOM     34  C   UNL d   1      -0.221  -0.036 -20.290 -0.14 +0.15    +0.139 C 
DOCKED: ATOM     35  O   UNL d   1      -1.201  -0.741 -20.470 -0.20 -0.88    -0.650 OA
DOCKED: BRANCH  34  36
DOCKED: ATOM     36  O   UNL d   1      -0.279   1.265 -20.643 +0.02 -0.52    -0.776 OA
DOCKED: ATOM     37  H   UNL d   1      -0.468   1.960 -20.003 +0.02 +0.12    +0.167 HD
DOCKED: ENDBRANCH  34  36
DOCKED: ENDBRANCH  33  34
DOCKED: ENDBRANCH  32  33
DOCKED: ENDBRANCH   6  32
DOCKED: BRANCH  22  38
DOCKED: ATOM     38  C   UNL d   1       1.344   1.676 -16.110 -0.21 +0.03    +0.052 C 
DOCKED: BRANCH  38  39
DOCKED: ATOM     39  C   UNL d   1       0.976   2.811 -17.063 -0.11 +0.06    +0.115 C 
DOCKED: BRANCH  39  40
DOCKED: ATOM     40  C   UNL d   1      -0.287   2.527 -17.838 -0.10 +0.11    +0.139 C 
DOCKED: ATOM     41  O   UNL d   1      -0.844   3.429 -18.441 +0.04 -0.38    -0.650 OA
DOCKED: BRANCH  40  42
DOCKED: ATOM     42  O   UNL d   1      -0.786   1.278 -17.920 -0.13 -1.26    -0.776 OA
DOCKED: ATOM     43  H   UNL d   1      -1.188   0.948 -18.732 +0.03 +0.33    +0.167 HD
DOCKED: ENDBRANCH  40  42
DOCKED: ENDBRANCH  39  40
DOCKED: ENDBRANCH  38  39
DOCKED: ENDBRANCH  22  38
DOCKED: BRANCH  12  44
DOCKED: ATOM     44  C   UNL d   1      11.762  -1.462 -19.330 -0.05 +0.00    +0.004 C 
DOCKED: ATOM     45  C   UNL d   1      12.630  -1.929 -18.433 -0.07 +0.00    +0.012 C 
DOCKED: ENDBRANCH  12  44
DOCKED: BRANCH  17  46
DOCKED: ATOM     46  C   UNL d   1       8.420   1.806 -12.609 -0.33 +0.00    +0.004 C 
DOCKED: ATOM     47  C   UNL d   1       9.270   1.609 -11.593 -0.38 +0.00    +0.012 C 
DOCKED: ENDBRANCH  17  46
DOCKED: TORSDOF 10
DOCKED: TER
DOCKED: ENDMDL
________________________________________________________________________________


	BEGINNING GENETIC ALGORITHM DOCKING 22 of 100
Run: 22 Seed: 450088219 961135383 [ Run 22 of 100 GA/GALS ]
Beginning LAMARCKIAN GENETIC ALGORITHM (LGA), with a maximum of 25000000 energy evaluations.

Final-Value: -11.109


	FINAL GENETIC ALGORITHM DOCKED STATE
	_______________________________________________


Detailed state:  trans 2.116 -0.374 -20.252 quatxyzw -0.789141 0.093126 -0.075181 0.602438 center 8.287 34.468 -0.670 ntor 10 97.8173 114.5369 27.3052 -120.5069 -175.5758 0.5712 -41.8404 43.1735 -146.4073 -171.0903
State:	  2.116  -0.374 -20.252  -0.989  0.117 -0.094 105.911     97.82  114.54   27.31 -120.51 -175.58    0.57  -41.84   43.17 -146.41 -171.09

DOCKED: MODEL       22
DOCKED: USER    Run = 22
DOCKED: USER    DPF = D:/Protein_go_brrr/autodock/final/mut_D99N/heme_O2/dock.dpf
DOCKED: USER  
DOCKED: USER    Estimated Free Energy of Binding    =   -6.39 kcal/mol  [=(1)+(2)+(3)-(4)]
DOCKED: USER    Estimated Inhibition Constant, Ki   =   20.59 uM (micromolar)  [Temperature = 298.15 K]
DOCKED: USER    
DOCKED: USER    (1) Final Intermolecular Energy     =   -9.38 kcal/mol
DOCKED: USER        vdW + Hbond + desolv Energy     =   -5.81 kcal/mol
DOCKED: USER        Electrostatic Energy            =   -3.57 kcal/mol
DOCKED: USER    (2) Final Total Internal Energy     =   -1.73 kcal/mol
DOCKED: USER    (3) Torsional Free Energy           =   +2.98 kcal/mol
DOCKED: USER    (4) Unbound System's Energy  [=(2)] =   -1.73 kcal/mol
DOCKED: USER    
DOCKED: USER    
DOCKED: USER    NEWDPF move heme_O2_opt.pdbqt
DOCKED: USER    NEWDPF about 8.287000 34.468000 -0.670000
DOCKED: USER    NEWDPF tran0 2.115927 -0.374008 -20.251769
DOCKED: USER    NEWDPF quaternion0 -0.789141 0.093126 -0.075181 0.602438
DOCKED: USER    NEWDPF axisangle0 -0.988693 0.116674 -0.094193 105.910544
DOCKED: USER    NEWDPF quat0 -0.988693 0.116674 -0.094193 105.910544
DOCKED: USER    NEWDPF dihe0 97.82 114.54 27.31 -120.51 -175.58 0.57 -41.84 43.17 -146.41 -171.09 
DOCKED: USER  keepresnum = 1 
DOCKED: USER  
DOCKED: REMARK  10 active torsions:
DOCKED: REMARK  status: ('A' for Active; 'I' for Inactive)
DOCKED: REMARK    1  A    between atoms: C_6  and  C_10 
DOCKED: REMARK    2  A    between atoms: C_10  and  C_11 
DOCKED: REMARK    3  A    between atoms: C_11  and  C_12 
DOCKED: REMARK    4  A    between atoms: C_12  and  O_14 
DOCKED: REMARK    5  A    between atoms: C_17  and  C_20 
DOCKED: REMARK    6  A    between atoms: C_24  and  C_27 
DOCKED: REMARK    7  A    between atoms: C_31  and  C_34 
DOCKED: REMARK    8  A    between atoms: C_34  and  C_35 
DOCKED: REMARK    9  A    between atoms: C_35  and  C_36 
DOCKED: REMARK   10  A    between atoms: C_36  and  O_38 
DOCKED: USER                              x       y       z     vdW  Elec       q    Type
DOCKED: USER                           _______ _______ _______ _____ _____    ______ ____
DOCKED: ROOT
DOCKED: ATOM      1  C   UNL d   1       0.151   0.349 -19.909 -0.06 +0.07    +0.064 A 
DOCKED: ATOM      2  C   UNL d   1       1.964  -2.594 -23.167 -0.08 +0.01    +0.064 A 
DOCKED: ATOM      3  C   UNL d   1       6.368  -2.083 -21.311 -0.13 +0.01    +0.064 C 
DOCKED: ATOM      4  C   UNL d   1       4.435   0.568 -17.664 -0.12 +0.02    +0.064 A 
DOCKED: ATOM      5  C   UNL d   1       0.285  -0.495 -20.946 -0.15 +0.05    +0.066 A 
DOCKED: ATOM      6  C   UNL d   1      -0.769  -0.888 -21.775 -0.13 -0.01    -0.021 A 
DOCKED: ATOM      7  C   UNL d   1      -0.253  -1.774 -22.692 -0.11 -0.01    -0.025 A 
DOCKED: ATOM      8  C   UNL d   1       1.111  -1.860 -22.428 -0.11 +0.02    +0.066 A 
DOCKED: ATOM      9  C   UNL d   1      -1.065  -2.507 -23.738 -0.09 +0.01    +0.051 C 
DOCKED: ATOM     10  C   UNL d   1       3.408  -2.705 -22.952 -0.10 +0.01    +0.066 A 
DOCKED: ATOM     11  C   UNL d   1       4.272  -3.348 -23.845 -0.09 -0.00    -0.021 A 
DOCKED: ATOM     12  C   UNL d   1       5.548  -3.196 -23.337 -0.09 +0.00    +0.000 A 
DOCKED: ATOM     13  C   UNL d   1       5.386  -2.463 -22.129 -0.08 +0.01    +0.070 A 
DOCKED: ATOM     14  C   UNL d   1       3.898  -4.054 -25.144 -0.05 +0.00    +0.052 C 
DOCKED: ATOM     15  C   UNL d   1       6.242  -1.371 -20.063 -0.11 +0.01    +0.066 A 
DOCKED: ATOM     16  C   UNL d   1       7.291  -1.147 -19.171 -0.17 -0.01    -0.021 A 
DOCKED: ATOM     17  C   UNL d   1       6.764  -0.393 -18.123 -0.16 +0.00    +0.000 A 
DOCKED: ATOM     18  C   UNL d   1       5.415  -0.210 -18.459 -0.14 +0.02    +0.070 A 
DOCKED: ATOM     19  C   UNL d   1       8.675  -1.712 -19.371 -0.18 +0.01    +0.052 C 
DOCKED: ATOM     20  C   UNL d   1       3.125   0.727 -17.935 -0.12 +0.02    +0.066 A 
DOCKED: ATOM     21  C   UNL d   1       2.255   1.487 -17.158 -0.14 -0.01    -0.025 A 
DOCKED: ATOM     22  C   UNL d   1       1.036   1.458 -17.798 -0.15 -0.02    -0.021 A 
DOCKED: ATOM     23  C   UNL d   1       1.204   0.664 -18.936 -0.12 +0.05    +0.066 A 
DOCKED: ATOM     24  C   UNL d   1       2.570   2.202 -15.870 -0.17 +0.02    +0.051 C 
DOCKED: ATOM     25  N   UNL d   1       1.430  -1.122 -21.311 -0.10 -0.10    -0.248 N 
DOCKED: ATOM     26  N   UNL d   1       4.080  -2.172 -21.900 -0.09 -0.05    -0.248 N 
DOCKED: ATOM     27  N   UNL d   1       5.099  -0.874 -19.600 -0.09 -0.06    -0.248 N 
DOCKED: ATOM     28  N   UNL d   1       2.463   0.185 -18.991 -0.09 -0.10    -0.248 N 
DOCKED: ATOM     29 FE   UNL d   1       3.268  -0.985 -20.433 -0.03 +0.00    +0.000 Fe
DOCKED: ATOM     30  O   UNL d   1       2.602  -2.384 -20.281 -0.37 +0.00    +0.000 OA
DOCKED: ATOM     31  O   UNL d   1       3.396  -1.761 -19.071 -0.36 +0.00    +0.000 OA
DOCKED: ENDROOT
DOCKED: BRANCH   6  32
DOCKED: ATOM     32  C   UNL d   1      -2.231  -0.555 -21.631 -0.12 +0.04    +0.052 C 
DOCKED: BRANCH  32  33
DOCKED: ATOM     33  C   UNL d   1      -2.839  -1.101 -20.343 -0.08 +0.16    +0.115 C 
DOCKED: BRANCH  33  34
DOCKED: ATOM     34  C   UNL d   1      -3.723  -0.092 -19.651 -0.15 +0.23    +0.139 C 
DOCKED: ATOM     35  O   UNL d   1      -4.370   0.700 -20.317 -0.04 -0.90    -0.650 OA
DOCKED: BRANCH  34  36
DOCKED: ATOM     36  O   UNL d   1      -3.794  -0.025 -18.306 -0.10 -1.93    -0.776 OA
DOCKED: ATOM     37  H   UNL d   1      -3.286   0.618 -17.798 +0.04 +0.39    +0.167 HD
DOCKED: ENDBRANCH  34  36
DOCKED: ENDBRANCH  33  34
DOCKED: ENDBRANCH  32  33
DOCKED: ENDBRANCH   6  32
DOCKED: BRANCH  22  38
DOCKED: ATOM     38  C   UNL d   1      -0.231   2.107 -17.303 -0.18 +0.05    +0.052 C 
DOCKED: BRANCH  38  39
DOCKED: ATOM     39  C   UNL d   1      -0.787   1.422 -16.056 -0.23 +0.15    +0.115 C 
DOCKED: BRANCH  39  40
DOCKED: ATOM     40  C   UNL d   1      -2.286   1.265 -16.105 -0.25 +0.22    +0.139 C 
DOCKED: ATOM     41  O   UNL d   1      -2.809   0.278 -15.612 -0.19 -1.24    -0.650 OA
DOCKED: BRANCH  40  42
DOCKED: ATOM     42  O   UNL d   1      -3.069   2.222 -16.640 +0.08 -1.01    -0.776 OA
DOCKED: ATOM     43  H   UNL d   1      -3.613   2.053 -17.418 +0.06 +0.29    +0.167 HD
DOCKED: ENDBRANCH  40  42
DOCKED: ENDBRANCH  39  40
DOCKED: ENDBRANCH  38  39
DOCKED: ENDBRANCH  22  38
DOCKED: BRANCH  12  44
DOCKED: ATOM     44  C   UNL d   1       6.766  -3.758 -24.041 -0.12 +0.00    +0.004 C 
DOCKED: ATOM     45  C   UNL d   1       7.950  -4.062 -23.511 -0.13 -0.00    +0.012 C 
DOCKED: ENDBRANCH  12  44
DOCKED: BRANCH  17  46
DOCKED: ATOM     46  C   UNL d   1       7.392   0.101 -16.847 -0.19 +0.00    +0.004 C 
DOCKED: ATOM     47  C   UNL d   1       6.954  -0.059 -15.592 -0.25 +0.00    +0.012 C 
DOCKED: ENDBRANCH  17  46
DOCKED: TORSDOF 10
DOCKED: TER
DOCKED: ENDMDL
________________________________________________________________________________


	BEGINNING GENETIC ALGORITHM DOCKING 23 of 100
Run: 23 Seed: 2101823506 246737061 [ Run 23 of 100 GA/GALS ]
Beginning LAMARCKIAN GENETIC ALGORITHM (LGA), with a maximum of 25000000 energy evaluations.

Final-Value: -8.894


	FINAL GENETIC ALGORITHM DOCKED STATE
	_______________________________________________


Detailed state:  trans 24.769 -7.091 1.784 quatxyzw -0.565384 -0.758483 -0.118648 -0.301606 center 8.287 34.468 -0.670 ntor 10 -110.6502 -157.2614 -113.3146 -104.5152 69.4840 138.7221 75.2252 -103.1099 26.7280 -6.2944
State:	 24.769  -7.091   1.784  -0.593 -0.796 -0.124 -144.892   -110.65 -157.26 -113.31 -104.52   69.48  138.72   75.23 -103.11   26.73   -6.29

DOCKED: MODEL       23
DOCKED: USER    Run = 23
DOCKED: USER    DPF = D:/Protein_go_brrr/autodock/final/mut_D99N/heme_O2/dock.dpf
DOCKED: USER  
DOCKED: USER    Estimated Free Energy of Binding    =   -3.40 kcal/mol  [=(1)+(2)+(3)-(4)]
DOCKED: USER    Estimated Inhibition Constant, Ki   =    3.22 mM (millimolar)  [Temperature = 298.15 K]
DOCKED: USER    
DOCKED: USER    (1) Final Intermolecular Energy     =   -6.38 kcal/mol
DOCKED: USER        vdW + Hbond + desolv Energy     =   -4.81 kcal/mol
DOCKED: USER        Electrostatic Energy            =   -1.57 kcal/mol
DOCKED: USER    (2) Final Total Internal Energy     =   -2.51 kcal/mol
DOCKED: USER    (3) Torsional Free Energy           =   +2.98 kcal/mol
DOCKED: USER    (4) Unbound System's Energy  [=(2)] =   -2.51 kcal/mol
DOCKED: USER    
DOCKED: USER    
DOCKED: USER    NEWDPF move heme_O2_opt.pdbqt
DOCKED: USER    NEWDPF about 8.287000 34.468000 -0.670000
DOCKED: USER    NEWDPF tran0 24.768710 -7.091232 1.784184
DOCKED: USER    NEWDPF quaternion0 -0.565384 -0.758483 -0.118648 -0.301606
DOCKED: USER    NEWDPF axisangle0 -0.592999 -0.795529 -0.124443 -144.891847
DOCKED: USER    NEWDPF quat0 -0.592999 -0.795529 -0.124443 -144.891847
DOCKED: USER    NEWDPF dihe0 -110.65 -157.26 -113.31 -104.52 69.48 138.72 75.23 -103.11 26.73 -6.29 
DOCKED: USER  keepresnum = 1 
DOCKED: USER  
DOCKED: REMARK  10 active torsions:
DOCKED: REMARK  status: ('A' for Active; 'I' for Inactive)
DOCKED: REMARK    1  A    between atoms: C_6  and  C_10 
DOCKED: REMARK    2  A    between atoms: C_10  and  C_11 
DOCKED: REMARK    3  A    between atoms: C_11  and  C_12 
DOCKED: REMARK    4  A    between atoms: C_12  and  O_14 
DOCKED: REMARK    5  A    between atoms: C_17  and  C_20 
DOCKED: REMARK    6  A    between atoms: C_24  and  C_27 
DOCKED: REMARK    7  A    between atoms: C_31  and  C_34 
DOCKED: REMARK    8  A    between atoms: C_34  and  C_35 
DOCKED: REMARK    9  A    between atoms: C_35  and  C_36 
DOCKED: REMARK   10  A    between atoms: C_36  and  O_38 
DOCKED: USER                              x       y       z     vdW  Elec       q    Type
DOCKED: USER                           _______ _______ _______ _____ _____    ______ ____
DOCKED: ROOT
DOCKED: ATOM      1  C   UNL d   1      25.921  -8.778   1.213 -0.10 +0.04    +0.064 A 
DOCKED: ATOM      2  C   UNL d   1      21.978  -6.830  -0.581 -0.24 +0.01    +0.064 A 
DOCKED: ATOM      3  C   UNL d   1      21.971  -3.462   2.848 -0.08 +0.01    +0.064 C 
DOCKED: ATOM      4  C   UNL d   1      26.293  -5.170   4.420 -0.05 +0.03    +0.064 A 
DOCKED: ATOM      5  C   UNL d   1      24.850  -8.522   0.444 -0.12 +0.03    +0.066 A 
DOCKED: ATOM      6  C   UNL d   1      24.477  -9.293  -0.660 -0.10 -0.00    -0.021 A 
DOCKED: ATOM      7  C   UNL d   1      23.360  -8.705  -1.206 -0.15 -0.00    -0.025 A 
DOCKED: ATOM      8  C   UNL d   1      23.054  -7.618  -0.392 -0.18 +0.01    +0.066 A 
DOCKED: ATOM      9  C   UNL d   1      22.664  -9.172  -2.466 -0.16 +0.00    +0.051 C 
DOCKED: ATOM     10  C   UNL d   1      21.593  -5.690   0.252 -0.22 +0.01    +0.066 A 
DOCKED: ATOM     11  C   UNL d   1      20.380  -5.007   0.109 -0.33 +0.00    -0.021 A 
DOCKED: ATOM     12  C   UNL d   1      20.352  -4.044   1.101 -0.24 -0.00    +0.000 A 
DOCKED: ATOM     13  C   UNL d   1      21.582  -4.189   1.800 -0.15 +0.01    +0.070 A 
DOCKED: ATOM     14  C   UNL d   1      19.283  -5.280  -0.913 -0.42 -0.01    +0.052 C 
DOCKED: ATOM     15  C   UNL d   1      23.222  -3.555   3.561 -0.05 +0.01    +0.066 A 
DOCKED: ATOM     16  C   UNL d   1      23.640  -2.658   4.544 -0.02 -0.00    -0.021 A 
DOCKED: ATOM     17  C   UNL d   1      24.871  -3.124   5.006 -0.02 +0.00    +0.000 A 
DOCKED: ATOM     18  C   UNL d   1      25.114  -4.287   4.262 -0.04 +0.02    +0.070 A 
DOCKED: ATOM     19  C   UNL d   1      22.862  -1.419   4.911 -0.01 +0.00    +0.052 C 
DOCKED: ATOM     20  C   UNL d   1      26.579  -6.269   3.694 -0.07 +0.04    +0.066 A 
DOCKED: ATOM     21  C   UNL d   1      27.697  -7.071   3.900 -0.06 -0.01    -0.025 A 
DOCKED: ATOM     22  C   UNL d   1      27.593  -8.119   3.013 -0.07 -0.01    -0.021 A 
DOCKED: ATOM     23  C   UNL d   1      26.420  -7.907   2.283 -0.08 +0.05    +0.066 A 
DOCKED: ATOM     24  C   UNL d   1      28.810  -6.848   4.891 -0.02 +0.02    +0.051 C 
DOCKED: ATOM     25  N   UNL d   1      24.010  -7.467   0.586 -0.11 -0.09    -0.248 N 
DOCKED: ATOM     26  N   UNL d   1      22.333  -5.189   1.275 -0.12 -0.05    -0.248 N 
DOCKED: ATOM     27  N   UNL d   1      24.140  -4.491   3.339 -0.05 -0.07    -0.248 N 
DOCKED: ATOM     28  N   UNL d   1      25.830  -6.757   2.669 -0.07 -0.16    -0.248 N 
DOCKED: ATOM     29 FE   UNL d   1      24.095  -5.976   1.979 -0.03 +0.00    +0.000 Fe
DOCKED: ATOM     30  O   UNL d   1      24.381  -5.496   0.526 -0.08 +0.00    +0.000 OA
DOCKED: ATOM     31  O   UNL d   1      25.225  -4.913   1.722 -0.06 +0.00    +0.000 OA
DOCKED: ENDROOT
DOCKED: BRANCH   6  32
DOCKED: ATOM     32  C   UNL d   1      25.216 -10.459  -1.265 -0.04 +0.01    +0.052 C 
DOCKED: BRANCH  32  33
DOCKED: ATOM     33  C   UNL d   1      24.500 -11.789  -1.052 -0.03 +0.02    +0.115 C 
DOCKED: BRANCH  33  34
DOCKED: ATOM     34  C   UNL d   1      25.190 -12.656  -0.028 -0.02 +0.03    +0.139 C 
DOCKED: ATOM     35  O   UNL d   1      26.157 -13.326  -0.357 +0.01 -0.10    -0.650 OA
DOCKED: BRANCH  34  36
DOCKED: ATOM     36  O   UNL d   1      24.746 -12.732   1.243 +0.02 -0.26    -0.776 OA
DOCKED: ATOM     37  H   UNL d   1      25.240 -12.355   1.981 +0.01 +0.09    +0.167 HD
DOCKED: ENDBRANCH  34  36
DOCKED: ENDBRANCH  33  34
DOCKED: ENDBRANCH  32  33
DOCKED: ENDBRANCH   6  32
DOCKED: BRANCH  22  38
DOCKED: ATOM     38  C   UNL d   1      28.602  -9.225   2.838 -0.04 +0.02    +0.052 C 
DOCKED: BRANCH  38  39
DOCKED: ATOM     39  C   UNL d   1      28.246 -10.471   3.646 -0.05 +0.08    +0.115 C 
DOCKED: BRANCH  39  40
DOCKED: ATOM     40  C   UNL d   1      27.124 -11.262   3.020 -0.04 +0.12    +0.139 C 
DOCKED: ATOM     41  O   UNL d   1      25.973 -10.871   3.127 -0.55 -1.17    -0.650 OA
DOCKED: BRANCH  40  42
DOCKED: ATOM     42  O   UNL d   1      27.374 -12.371   2.297 +0.01 -0.32    -0.776 OA
DOCKED: ATOM     43  H   UNL d   1      26.765 -12.676   1.613 +0.01 +0.06    +0.167 HD
DOCKED: ENDBRANCH  40  42
DOCKED: ENDBRANCH  39  40
DOCKED: ENDBRANCH  38  39
DOCKED: ENDBRANCH  22  38
DOCKED: BRANCH  12  44
DOCKED: ATOM     44  C   UNL d   1      19.179  -3.101   1.272 -0.26 -0.00    +0.004 C 
DOCKED: ATOM     45  C   UNL d   1      17.916  -3.410   1.565 -0.37 -0.00    +0.012 C 
DOCKED: ENDBRANCH  12  44
DOCKED: BRANCH  17  46
DOCKED: ATOM     46  C   UNL d   1      25.829  -2.550   6.015 -0.01 +0.00    +0.004 C 
DOCKED: ATOM     47  C   UNL d   1      27.046  -2.033   5.802 -0.00 +0.00    +0.012 C 
DOCKED: ENDBRANCH  17  46
DOCKED: TORSDOF 10
DOCKED: TER
DOCKED: ENDMDL
________________________________________________________________________________


	BEGINNING GENETIC ALGORITHM DOCKING 24 of 100
Run: 24 Seed: 609933271 147561167 [ Run 24 of 100 GA/GALS ]
Beginning LAMARCKIAN GENETIC ALGORITHM (LGA), with a maximum of 25000000 energy evaluations.

Final-Value: -10.698


	FINAL GENETIC ALGORITHM DOCKED STATE
	_______________________________________________


Detailed state:  trans -14.671 5.803 8.268 quatxyzw 0.677521 0.164900 -0.557173 0.450922 center 8.287 34.468 -0.670 ntor 10 121.6876 21.5357 34.7761 146.3875 -141.7203 -88.6499 -124.1772 -53.6418 -6.9723 -168.3752
State:	-14.671   5.803   8.268   0.759  0.185 -0.624 126.394    121.69   21.54   34.78  146.39 -141.72  -88.65 -124.18  -53.64   -6.97 -168.38

DOCKED: MODEL       24
DOCKED: USER    Run = 24
DOCKED: USER    DPF = D:/Protein_go_brrr/autodock/final/mut_D99N/heme_O2/dock.dpf
DOCKED: USER  
DOCKED: USER    Estimated Free Energy of Binding    =   -6.97 kcal/mol  [=(1)+(2)+(3)-(4)]
DOCKED: USER    Estimated Inhibition Constant, Ki   =    7.82 uM (micromolar)  [Temperature = 298.15 K]
DOCKED: USER    
DOCKED: USER    (1) Final Intermolecular Energy     =   -9.95 kcal/mol
DOCKED: USER        vdW + Hbond + desolv Energy     =   -6.84 kcal/mol
DOCKED: USER        Electrostatic Energy            =   -3.11 kcal/mol
DOCKED: USER    (2) Final Total Internal Energy     =   -0.75 kcal/mol
DOCKED: USER    (3) Torsional Free Energy           =   +2.98 kcal/mol
DOCKED: USER    (4) Unbound System's Energy  [=(2)] =   -0.75 kcal/mol
DOCKED: USER    
DOCKED: USER    
DOCKED: USER    NEWDPF move heme_O2_opt.pdbqt
DOCKED: USER    NEWDPF about 8.287000 34.468000 -0.670000
DOCKED: USER    NEWDPF tran0 -14.671232 5.803500 8.268000
DOCKED: USER    NEWDPF quaternion0 0.677521 0.164900 -0.557173 0.450922
DOCKED: USER    NEWDPF axisangle0 0.759074 0.184749 -0.624240 126.394247
DOCKED: USER    NEWDPF quat0 0.759074 0.184749 -0.624240 126.394247
DOCKED: USER    NEWDPF dihe0 121.69 21.54 34.78 146.39 -141.72 -88.65 -124.18 -53.64 -6.97 -168.38 
DOCKED: USER  keepresnum = 1 
DOCKED: USER  
DOCKED: REMARK  10 active torsions:
DOCKED: REMARK  status: ('A' for Active; 'I' for Inactive)
DOCKED: REMARK    1  A    between atoms: C_6  and  C_10 
DOCKED: REMARK    2  A    between atoms: C_10  and  C_11 
DOCKED: REMARK    3  A    between atoms: C_11  and  C_12 
DOCKED: REMARK    4  A    between atoms: C_12  and  O_14 
DOCKED: REMARK    5  A    between atoms: C_17  and  C_20 
DOCKED: REMARK    6  A    between atoms: C_24  and  C_27 
DOCKED: REMARK    7  A    between atoms: C_31  and  C_34 
DOCKED: REMARK    8  A    between atoms: C_34  and  C_35 
DOCKED: REMARK    9  A    between atoms: C_35  and  C_36 
DOCKED: REMARK   10  A    between atoms: C_36  and  O_38 
DOCKED: USER                              x       y       z     vdW  Elec       q    Type
DOCKED: USER                           _______ _______ _______ _____ _____    ______ ____
DOCKED: ROOT
DOCKED: ATOM      1  C   UNL d   1     -14.723   3.780   8.901 -0.08 +0.02    +0.064 A 
DOCKED: ATOM      2  C   UNL d   1     -16.931   7.686  10.458 -0.07 +0.01    +0.064 A 
DOCKED: ATOM      3  C   UNL d   1     -14.708  10.372   7.151 -0.16 -0.02    +0.064 C 
DOCKED: ATOM      4  C   UNL d   1     -12.796   6.282   5.233 -0.22 -0.00    +0.064 A 
DOCKED: ATOM      5  C   UNL d   1     -15.507   4.623   9.593 -0.01 +0.03    +0.066 A 
DOCKED: ATOM      6  C   UNL d   1     -16.309   4.239  10.672 -0.08 -0.01    -0.021 A 
DOCKED: ATOM      7  C   UNL d   1     -16.982   5.361  11.096 -0.07 -0.01    -0.025 A 
DOCKED: ATOM      8  C   UNL d   1     -16.535   6.409  10.296 +0.10 +0.02    +0.066 A 
DOCKED: ATOM      9  C   UNL d   1     -18.019   5.384  12.198 -0.03 +0.01    +0.051 C 
DOCKED: ATOM     10  C   UNL d   1     -16.480   8.831   9.666 -0.08 +0.00    +0.066 A 
DOCKED: ATOM     11  C   UNL d   1     -16.796  10.157   9.981 -0.07 +0.00    -0.021 A 
DOCKED: ATOM     12  C   UNL d   1     -16.150  10.948   9.049 -0.10 -0.00    +0.000 A 
DOCKED: ATOM     13  C   UNL d   1     -15.471  10.039   8.192 -0.11 -0.01    +0.070 A 
DOCKED: ATOM     14  C   UNL d   1     -17.657  10.651  11.139 -0.04 -0.01    +0.052 C 
DOCKED: ATOM     15  C   UNL d   1     -14.033   9.482   6.238 -0.18 -0.01    +0.066 A 
DOCKED: ATOM     16  C   UNL d   1     -13.386   9.887   5.071 -0.28 +0.00    -0.021 A 
DOCKED: ATOM     17  C   UNL d   1     -12.833   8.738   4.507 -0.35 -0.00    +0.000 A 
DOCKED: ATOM     18  C   UNL d   1     -13.188   7.703   5.384 -0.17 -0.01    +0.070 A 
DOCKED: ATOM     19  C   UNL d   1     -13.399  11.311   4.576 -0.29 -0.01    +0.052 C 
DOCKED: ATOM     20  C   UNL d   1     -13.155   5.259   6.031 -0.18 +0.00    +0.066 A 
DOCKED: ATOM     21  C   UNL d   1     -12.739   3.943   5.848 -0.18 -0.00    -0.025 A 
DOCKED: ATOM     22  C   UNL d   1     -13.256   3.220   6.900 -0.14 -0.00    -0.021 A 
DOCKED: ATOM     23  C   UNL d   1     -13.987   4.123   7.679 -0.12 +0.01    +0.066 A 
DOCKED: ATOM     24  C   UNL d   1     -11.894   3.402   4.724 -0.26 +0.01    +0.051 C 
DOCKED: ATOM     25  N   UNL d   1     -15.676   5.942   9.329 +0.01 -0.08    -0.248 N 
DOCKED: ATOM     26  N   UNL d   1     -15.681   8.753   8.572 -0.06 +0.01    -0.248 N 
DOCKED: ATOM     27  N   UNL d   1     -13.979   8.161   6.388 -0.10 +0.02    -0.248 N 
DOCKED: ATOM     28  N   UNL d   1     -13.959   5.351   7.123 -0.08 -0.03    -0.248 N 
DOCKED: ATOM     29 FE   UNL d   1     -14.813   7.041   7.840 -0.03 +0.00    +0.000 Fe
DOCKED: ATOM     30  O   UNL d   1     -16.350   6.856   7.674 -0.06 +0.00    +0.000 OA
DOCKED: ATOM     31  O   UNL d   1     -15.413   6.779   6.410 -0.09 +0.00    +0.000 OA
DOCKED: ENDROOT
DOCKED: BRANCH   6  32
DOCKED: ATOM     32  C   UNL d   1     -16.543   2.847  11.198 -0.05 +0.01    +0.052 C 
DOCKED: BRANCH  32  33
DOCKED: ATOM     33  C   UNL d   1     -15.376   2.324  12.030 -0.10 +0.05    +0.115 C 
DOCKED: BRANCH  33  34
DOCKED: ATOM     34  C   UNL d   1     -14.997   3.266  13.146 -0.20 +0.11    +0.139 C 
DOCKED: ATOM     35  O   UNL d   1     -15.771   3.445  14.073 -0.03 -0.49    -0.650 OA
DOCKED: BRANCH  34  36
DOCKED: ATOM     36  O   UNL d   1     -13.830   3.941  13.131 -0.51 -1.04    -0.776 OA
DOCKED: ATOM     37  H   UNL d   1     -13.796   4.904  13.165 -0.26 +0.18    +0.167 HD
DOCKED: ENDBRANCH  34  36
DOCKED: ENDBRANCH  33  34
DOCKED: ENDBRANCH  32  33
DOCKED: ENDBRANCH   6  32
DOCKED: BRANCH  22  38
DOCKED: ATOM     38  C   UNL d   1     -13.107   1.735   7.102 -0.15 +0.02    +0.052 C 
DOCKED: BRANCH  38  39
DOCKED: ATOM     39  C   UNL d   1     -13.832   0.925   6.029 -0.10 +0.06    +0.115 C 
DOCKED: BRANCH  39  40
DOCKED: ATOM     40  C   UNL d   1     -12.921  -0.055   5.333 -0.07 +0.17    +0.139 C 
DOCKED: ATOM     41  O   UNL d   1     -12.303  -0.878   5.987 -0.31 -0.89    -0.650 OA
DOCKED: BRANCH  40  42
DOCKED: ATOM     42  O   UNL d   1     -12.814  -0.072   3.990 -0.41 -1.38    -0.776 OA
DOCKED: ATOM     43  H   UNL d   1     -13.013   0.708   3.458 +0.05 +0.15    +0.167 HD
DOCKED: ENDBRANCH  40  42
DOCKED: ENDBRANCH  39  40
DOCKED: ENDBRANCH  38  39
DOCKED: ENDBRANCH  22  38
DOCKED: BRANCH  12  44
DOCKED: ATOM     44  C   UNL d   1     -16.248  12.459   9.071 -0.10 -0.00    +0.004 C 
DOCKED: ATOM     45  C   UNL d   1     -16.191  13.298   8.037 -0.08 -0.01    +0.012 C 
DOCKED: ENDBRANCH  12  44
DOCKED: BRANCH  17  46
DOCKED: ATOM     46  C   UNL d   1     -12.075   8.534   3.223 -0.48 -0.00    +0.004 C 
DOCKED: ATOM     47  C   UNL d   1     -11.003   7.759   3.007 -0.47 +0.00    +0.012 C 
DOCKED: ENDBRANCH  17  46
DOCKED: TORSDOF 10
DOCKED: TER
DOCKED: ENDMDL
________________________________________________________________________________


	BEGINNING GENETIC ALGORITHM DOCKING 25 of 100
Run: 25 Seed: 2116011339 51852081 [ Run 25 of 100 GA/GALS ]
Beginning LAMARCKIAN GENETIC ALGORITHM (LGA), with a maximum of 25000000 energy evaluations.

Final-Value: -11.369


	FINAL GENETIC ALGORITHM DOCKED STATE
	_______________________________________________


Detailed state:  trans -14.793 6.158 7.730 quatxyzw -0.485294 -0.621212 -0.500343 0.358110 center 8.287 34.468 -0.670 ntor 10 48.2944 -124.3704 68.9071 -98.7409 -154.5940 -180.0000 -58.6733 114.2632 31.1470 180.0000
State:	-14.793   6.158   7.730  -0.520 -0.665 -0.536 138.032     48.29 -124.37   68.91  -98.74 -154.59 -180.00  -58.67  114.26   31.15  180.00

DOCKED: MODEL       25
DOCKED: USER    Run = 25
DOCKED: USER    DPF = D:/Protein_go_brrr/autodock/final/mut_D99N/heme_O2/dock.dpf
DOCKED: USER  
DOCKED: USER    Estimated Free Energy of Binding    =   -7.65 kcal/mol  [=(1)+(2)+(3)-(4)]
DOCKED: USER    Estimated Inhibition Constant, Ki   =    2.45 uM (micromolar)  [Temperature = 298.15 K]
DOCKED: USER    
DOCKED: USER    (1) Final Intermolecular Energy     =  -10.64 kcal/mol
DOCKED: USER        vdW + Hbond + desolv Energy     =   -8.21 kcal/mol
DOCKED: USER        Electrostatic Energy            =   -2.43 kcal/mol
DOCKED: USER    (2) Final Total Internal Energy     =   -0.73 kcal/mol
DOCKED: USER    (3) Torsional Free Energy           =   +2.98 kcal/mol
DOCKED: USER    (4) Unbound System's Energy  [=(2)] =   -0.73 kcal/mol
DOCKED: USER    
DOCKED: USER    
DOCKED: USER    NEWDPF move heme_O2_opt.pdbqt
DOCKED: USER    NEWDPF about 8.287000 34.468000 -0.670000
DOCKED: USER    NEWDPF tran0 -14.792643 6.158144 7.730239
DOCKED: USER    NEWDPF quaternion0 -0.485294 -0.621212 -0.500343 0.358110
DOCKED: USER    NEWDPF axisangle0 -0.519765 -0.665337 -0.535883 138.031682
DOCKED: USER    NEWDPF quat0 -0.519765 -0.665337 -0.535883 138.031682
DOCKED: USER    NEWDPF dihe0 48.29 -124.37 68.91 -98.74 -154.59 -180.00 -58.67 114.26 31.15 180.00 
DOCKED: USER  keepresnum = 1 
DOCKED: USER  
DOCKED: REMARK  10 active torsions:
DOCKED: REMARK  status: ('A' for Active; 'I' for Inactive)
DOCKED: REMARK    1  A    between atoms: C_6  and  C_10 
DOCKED: REMARK    2  A    between atoms: C_10  and  C_11 
DOCKED: REMARK    3  A    between atoms: C_11  and  C_12 
DOCKED: REMARK    4  A    between atoms: C_12  and  O_14 
DOCKED: REMARK    5  A    between atoms: C_17  and  C_20 
DOCKED: REMARK    6  A    between atoms: C_24  and  C_27 
DOCKED: REMARK    7  A    between atoms: C_31  and  C_34 
DOCKED: REMARK    8  A    between atoms: C_34  and  C_35 
DOCKED: REMARK    9  A    between atoms: C_35  and  C_36 
DOCKED: REMARK   10  A    between atoms: C_36  and  O_38 
DOCKED: USER                              x       y       z     vdW  Elec       q    Type
DOCKED: USER                           _______ _______ _______ _____ _____    ______ ____
DOCKED: ROOT
DOCKED: ATOM      1  C   UNL d   1     -14.880   4.158   8.432 -0.08 +0.02    +0.064 A 
DOCKED: ATOM      2  C   UNL d   1     -12.418   6.227   4.936 -0.21 -0.00    +0.064 A 
DOCKED: ATOM      3  C   UNL d   1     -14.441  10.478   5.902 -0.16 -0.02    +0.064 C 
DOCKED: ATOM      4  C   UNL d   1     -16.621   8.462   9.807 -0.08 +0.00    +0.064 A 
DOCKED: ATOM      5  C   UNL d   1     -14.044   4.374   7.404 -0.11 +0.01    +0.066 A 
DOCKED: ATOM      6  C   UNL d   1     -13.273   3.377   6.799 -0.14 -0.00    -0.021 A 
DOCKED: ATOM      7  C   UNL d   1     -12.527   3.983   5.815 -0.20 -0.00    -0.025 A 
DOCKED: ATOM      8  C   UNL d   1     -12.899   5.325   5.814 -0.19 +0.00    +0.066 A 
DOCKED: ATOM      9  C   UNL d   1     -11.496   3.284   4.957 -0.26 +0.01    +0.051 C 
DOCKED: ATOM     10  C   UNL d   1     -12.787   7.641   4.872 -0.12 -0.01    +0.066 A 
DOCKED: ATOM     11  C   UNL d   1     -12.383   8.496   3.840 -0.36 +0.00    -0.021 A 
DOCKED: ATOM     12  C   UNL d   1     -12.971   9.722   4.091 -0.40 -0.00    +0.000 A 
DOCKED: ATOM     13  C   UNL d   1     -13.707   9.545   5.295 -0.21 -0.01    +0.070 A 
DOCKED: ATOM     14  C   UNL d   1     -11.495   8.150   2.650 -0.40 +0.00    +0.052 C 
DOCKED: ATOM     15  C   UNL d   1     -15.172  10.349   7.139 -0.09 -0.02    +0.066 A 
DOCKED: ATOM     16  C   UNL d   1     -15.786  11.407   7.808 -0.09 +0.01    -0.021 A 
DOCKED: ATOM     17  C   UNL d   1     -16.414  10.857   8.926 -0.08 -0.00    +0.000 A 
DOCKED: ATOM     18  C   UNL d   1     -16.133   9.485   8.852 -0.08 -0.01    +0.070 A 
DOCKED: ATOM     19  C   UNL d   1     -15.674  12.842   7.356 -0.09 -0.03    +0.052 C 
DOCKED: ATOM     20  C   UNL d   1     -16.335   7.145   9.791 -0.02 +0.01    +0.066 A 
DOCKED: ATOM     21  C   UNL d   1     -16.838   6.226  10.707 -0.05 -0.01    -0.025 A 
DOCKED: ATOM     22  C   UNL d   1     -16.375   4.991  10.315 -0.06 -0.01    -0.021 A 
DOCKED: ATOM     23  C   UNL d   1     -15.588   5.205   9.179 -0.02 +0.02    +0.066 A 
DOCKED: ATOM     24  C   UNL d   1     -17.714   6.513  11.899 -0.05 +0.01    +0.051 C 
DOCKED: ATOM     25  N   UNL d   1     -13.785   5.578   6.836 -0.09 -0.02    -0.248 N 
DOCKED: ATOM     26  N   UNL d   1     -13.586   8.278   5.766 -0.13 +0.03    -0.248 N 
DOCKED: ATOM     27  N   UNL d   1     -15.316   9.206   7.804 -0.05 +0.03    -0.248 N 
DOCKED: ATOM     28  N   UNL d   1     -15.529   6.521   8.891 -0.06 -0.05    -0.248 N 
DOCKED: ATOM     29 FE   UNL d   1     -14.566   7.396   7.341 -0.04 +0.00    +0.000 Fe
DOCKED: ATOM     30  O   UNL d   1     -13.045   7.260   7.642 -0.40 -0.00    +0.000 OA
DOCKED: ATOM     31  O   UNL d   1     -13.980   8.007   8.666 -0.39 +0.00    +0.000 OA
DOCKED: ENDROOT
DOCKED: BRANCH   6  32
DOCKED: ATOM     32  C   UNL d   1     -13.136   1.936   7.216 -0.15 +0.02    +0.052 C 
DOCKED: BRANCH  32  33
DOCKED: ATOM     33  C   UNL d   1     -13.691   0.964   6.179 -0.10 +0.06    +0.115 C 
DOCKED: BRANCH  33  34
DOCKED: ATOM     34  C   UNL d   1     -12.636   0.024   5.650 -0.14 +0.15    +0.139 C 
DOCKED: ATOM     35  O   UNL d   1     -11.981  -0.648   6.430 -0.37 -0.66    -0.650 OA
DOCKED: BRANCH  34  36
DOCKED: ATOM     36  O   UNL d   1     -12.378  -0.072   4.329 -0.53 -1.27    -0.776 OA
DOCKED: ATOM     37  H   UNL d   1     -12.240   0.707   3.777 +0.05 +0.16    +0.167 HD
DOCKED: ENDBRANCH  34  36
DOCKED: ENDBRANCH  33  34
DOCKED: ENDBRANCH  32  33
DOCKED: ENDBRANCH   6  32
DOCKED: BRANCH  22  38
DOCKED: ATOM     38  C   UNL d   1     -16.625   3.690  11.033 -0.06 +0.01    +0.052 C 
DOCKED: BRANCH  38  39
DOCKED: ATOM     39  C   UNL d   1     -15.735   3.523  12.263 -0.13 +0.05    +0.115 C 
DOCKED: BRANCH  39  40
DOCKED: ATOM     40  C   UNL d   1     -14.278   3.376  11.904 -0.20 +0.08    +0.139 C 
DOCKED: ATOM     41  O   UNL d   1     -13.961   2.774  10.890 -0.02 -0.27    -0.650 OA
DOCKED: BRANCH  40  42
DOCKED: ATOM     42  O   UNL d   1     -13.315   3.942  12.657 -0.42 -0.81    -0.776 OA
DOCKED: ATOM     43  H   UNL d   1     -12.691   4.576  12.285 -0.41 +0.09    +0.167 HD
DOCKED: ENDBRANCH  40  42
DOCKED: ENDBRANCH  39  40
DOCKED: ENDBRANCH  38  39
DOCKED: ENDBRANCH  22  38
DOCKED: BRANCH  12  44
DOCKED: ATOM     44  C   UNL d   1     -12.770  10.912   3.176 -0.46 -0.00    +0.004 C 
DOCKED: ATOM     45  C   UNL d   1     -12.166  12.066   3.455 -0.41 -0.00    +0.012 C 
DOCKED: ENDBRANCH  12  44
DOCKED: BRANCH  17  46
DOCKED: ATOM     46  C   UNL d   1     -17.180  11.504  10.048 -0.06 -0.00    +0.004 C 
DOCKED: ATOM     47  C   UNL d   1     -16.785  11.708  11.312 -0.09 -0.00    +0.012 C 
DOCKED: ENDBRANCH  17  46
DOCKED: TORSDOF 10
DOCKED: TER
DOCKED: ENDMDL
________________________________________________________________________________


	BEGINNING GENETIC ALGORITHM DOCKING 26 of 100
Run: 26 Seed: 325820633 791294930 [ Run 26 of 100 GA/GALS ]
Beginning LAMARCKIAN GENETIC ALGORITHM (LGA), with a maximum of 25000000 energy evaluations.

Final-Value: -16.723


	FINAL GENETIC ALGORITHM DOCKED STATE
	_______________________________________________


Detailed state:  trans -8.713 2.476 1.267 quatxyzw 0.597809 0.285789 0.218824 -0.716286 center 8.287 34.468 -0.670 ntor 10 101.9779 120.6517 -9.2827 7.8802 58.0704 -78.3321 -36.6253 -66.2219 7.5104 -179.2903
State:	 -8.713   2.476   1.267   0.857  0.410  0.314 -88.503    101.98  120.65   -9.28    7.88   58.07  -78.33  -36.63  -66.22    7.51 -179.29

DOCKED: MODEL       26
DOCKED: USER    Run = 26
DOCKED: USER    DPF = D:/Protein_go_brrr/autodock/final/mut_D99N/heme_O2/dock.dpf
DOCKED: USER  
DOCKED: USER    Estimated Free Energy of Binding    =  -13.10 kcal/mol  [=(1)+(2)+(3)-(4)]
DOCKED: USER    Estimated Inhibition Constant, Ki   =  250.76 pM (picomolar)  [Temperature = 298.15 K]
DOCKED: USER    
DOCKED: USER    (1) Final Intermolecular Energy     =  -16.08 kcal/mol
DOCKED: USER        vdW + Hbond + desolv Energy     =  -14.83 kcal/mol
DOCKED: USER        Electrostatic Energy            =   -1.25 kcal/mol
DOCKED: USER    (2) Final Total Internal Energy     =   -0.64 kcal/mol
DOCKED: USER    (3) Torsional Free Energy           =   +2.98 kcal/mol
DOCKED: USER    (4) Unbound System's Energy  [=(2)] =   -0.64 kcal/mol
DOCKED: USER    
DOCKED: USER    
DOCKED: USER    NEWDPF move heme_O2_opt.pdbqt
DOCKED: USER    NEWDPF about 8.287000 34.468000 -0.670000
DOCKED: USER    NEWDPF tran0 -8.713458 2.476322 1.267003
DOCKED: USER    NEWDPF quaternion0 0.597809 0.285789 0.218824 -0.716286
DOCKED: USER    NEWDPF axisangle0 0.856696 0.409553 0.313589 -88.502694
DOCKED: USER    NEWDPF quat0 0.856696 0.409553 0.313589 -88.502694
DOCKED: USER    NEWDPF dihe0 101.98 120.65 -9.28 7.88 58.07 -78.33 -36.63 -66.22 7.51 -179.29 
DOCKED: USER  keepresnum = 1 
DOCKED: USER  
DOCKED: REMARK  10 active torsions:
DOCKED: REMARK  status: ('A' for Active; 'I' for Inactive)
DOCKED: REMARK    1  A    between atoms: C_6  and  C_10 
DOCKED: REMARK    2  A    between atoms: C_10  and  C_11 
DOCKED: REMARK    3  A    between atoms: C_11  and  C_12 
DOCKED: REMARK    4  A    between atoms: C_12  and  O_14 
DOCKED: REMARK    5  A    between atoms: C_17  and  C_20 
DOCKED: REMARK    6  A    between atoms: C_24  and  C_27 
DOCKED: REMARK    7  A    between atoms: C_31  and  C_34 
DOCKED: REMARK    8  A    between atoms: C_34  and  C_35 
DOCKED: REMARK    9  A    between atoms: C_35  and  C_36 
DOCKED: REMARK   10  A    between atoms: C_36  and  O_38 
DOCKED: USER                              x       y       z     vdW  Elec       q    Type
DOCKED: USER                           _______ _______ _______ _____ _____    ______ ____
DOCKED: ROOT
DOCKED: ATOM      1  C   UNL d   1     -10.619   1.950   2.037 -0.20 +0.02    +0.064 A 
DOCKED: ATOM      2  C   UNL d   1      -7.338  -0.508  -0.362 -0.38 +0.01    +0.064 A 
DOCKED: ATOM      3  C   UNL d   1      -4.496   3.359  -0.618 -0.09 +0.01    +0.064 C 
DOCKED: ATOM      4  C   UNL d   1      -7.651   5.769   2.263 -0.36 +0.01    +0.064 A 
DOCKED: ATOM      5  C   UNL d   1      -9.957   0.966   1.407 -0.26 +0.02    +0.066 A 
DOCKED: ATOM      6  C   UNL d   1     -10.457  -0.329   1.237 -0.37 -0.01    -0.021 A 
DOCKED: ATOM      7  C   UNL d   1      -9.489  -1.053   0.581 -0.36 -0.01    -0.025 A 
DOCKED: ATOM      8  C   UNL d   1      -8.446  -0.168   0.325 -0.37 +0.01    +0.066 A 
DOCKED: ATOM      9  C   UNL d   1      -9.583  -2.529   0.258 -0.37 +0.02    +0.051 C 
DOCKED: ATOM     10  C   UNL d   1      -6.220   0.382  -0.681 -0.40 +0.01    +0.066 A 
DOCKED: ATOM     11  C   UNL d   1      -5.172   0.025  -1.535 -0.45 -0.00    -0.021 A 
DOCKED: ATOM     12  C   UNL d   1      -4.351   1.133  -1.636 -0.42 +0.00    +0.000 A 
DOCKED: ATOM     13  C   UNL d   1      -4.952   2.122  -0.809 -0.37 +0.01    +0.070 A 
DOCKED: ATOM     14  C   UNL d   1      -4.975  -1.309  -2.247 -0.60 +0.00    +0.052 C 
DOCKED: ATOM     15  C   UNL d   1      -5.055   4.377   0.238 -0.38 +0.01    +0.066 A 
DOCKED: ATOM     16  C   UNL d   1      -4.440   5.596   0.522 -0.52 -0.00    -0.021 A 
DOCKED: ATOM     17  C   UNL d   1      -5.322   6.300   1.343 -0.50 +0.00    +0.000 A 
DOCKED: ATOM     18  C   UNL d   1      -6.424   5.447   1.498 -0.40 +0.01    +0.070 A 
DOCKED: ATOM     19  C   UNL d   1      -3.058   5.954   0.037 -0.06 +0.00    +0.052 C 
DOCKED: ATOM     20  C   UNL d   1      -8.708   4.958   2.467 -0.43 +0.01    +0.066 A 
DOCKED: ATOM     21  C   UNL d   1      -9.845   5.323   3.182 -0.46 -0.00    -0.025 A 
DOCKED: ATOM     22  C   UNL d   1     -10.713   4.257   3.105 -0.30 -0.00    -0.021 A 
DOCKED: ATOM     23  C   UNL d   1     -10.063   3.270   2.358 -0.28 +0.01    +0.066 A 
DOCKED: ATOM     24  C   UNL d   1     -10.090   6.622   3.905 -0.31 -0.00    +0.051 C 
DOCKED: ATOM     25  N   UNL d   1      -8.707   1.058   0.892 -0.13 -0.07    -0.248 N 
DOCKED: ATOM     26  N   UNL d   1      -6.087   1.655  -0.228 -0.26 -0.03    -0.248 N 
DOCKED: ATOM     27  N   UNL d   1      -6.212   4.256   0.882 -0.25 -0.04    -0.248 N 
DOCKED: ATOM     28  N   UNL d   1      -8.827   3.683   2.010 -0.15 -0.08    -0.248 N 
DOCKED: ATOM     29 FE   UNL d   1      -7.465   2.679   0.900 -0.09 +0.00    +0.000 Fe
DOCKED: ATOM     30  O   UNL d   1      -6.965   1.500   1.785 -0.52 +0.00    +0.000 OA
DOCKED: ATOM     31  O   UNL d   1      -6.805   2.982   2.294 -0.95 +0.00    +0.000 OA
DOCKED: ENDROOT
DOCKED: BRANCH   6  32
DOCKED: ATOM     32  C   UNL d   1     -11.735  -0.905   1.790 +0.25 +0.06    +0.052 C 
DOCKED: BRANCH  32  33
DOCKED: ATOM     33  C   UNL d   1     -12.915  -0.749   0.836 -0.09 +0.09    +0.115 C 
DOCKED: BRANCH  33  34
DOCKED: ATOM     34  C   UNL d   1     -13.815  -1.961   0.832 +0.04 +0.16    +0.139 C 
DOCKED: ATOM     35  O   UNL d   1     -13.630  -2.846   0.012 -0.07 -0.44    -0.650 OA
DOCKED: BRANCH  34  36
DOCKED: ATOM     36  O   UNL d   1     -14.842  -2.077   1.699 -0.48 -1.14    -0.776 OA
DOCKED: ATOM     37  H   UNL d   1     -15.755  -1.914   1.434 +0.02 +0.13    +0.167 HD
DOCKED: ENDBRANCH  34  36
DOCKED: ENDBRANCH  33  34
DOCKED: ENDBRANCH  32  33
DOCKED: ENDBRANCH   6  32
DOCKED: BRANCH  22  38
DOCKED: ATOM     38  C   UNL d   1     -12.063   4.174   3.769 -0.23 +0.01    +0.052 C 
DOCKED: BRANCH  38  39
DOCKED: ATOM     39  C   UNL d   1     -11.959   3.872   5.263 -0.25 +0.01    +0.115 C 
DOCKED: BRANCH  39  40
DOCKED: ATOM     40  C   UNL d   1     -12.409   5.031   6.117 -0.24 +0.00    +0.139 C 
DOCKED: ATOM     41  O   UNL d   1     -13.579   5.377   6.102 +0.05 -0.04    -0.650 OA
DOCKED: BRANCH  40  42
DOCKED: ATOM     42  O   UNL d   1     -11.549   5.663   6.940 +0.02 +0.07    -0.776 OA
DOCKED: ATOM     43  H   UNL d   1     -11.396   6.613   6.877 -0.48 -0.06    +0.167 HD
DOCKED: ENDBRANCH  40  42
DOCKED: ENDBRANCH  39  40
DOCKED: ENDBRANCH  38  39
DOCKED: ENDBRANCH  22  38
DOCKED: BRANCH  12  44
DOCKED: ATOM     44  C   UNL d   1      -3.101   1.132  -2.491 -0.47 +0.00    +0.004 C 
DOCKED: ATOM     45  C   UNL d   1      -2.370   2.179  -2.874 -0.59 +0.00    +0.012 C 
DOCKED: ENDBRANCH  12  44
DOCKED: BRANCH  17  46
DOCKED: ATOM     46  C   UNL d   1      -5.188   7.640   2.017 -0.67 +0.00    +0.004 C 
DOCKED: ATOM     47  C   UNL d   1      -4.162   8.498   1.959 -0.67 +0.00    +0.012 C 
DOCKED: ENDBRANCH  17  46
DOCKED: TORSDOF 10
DOCKED: TER
DOCKED: ENDMDL
________________________________________________________________________________


	BEGINNING GENETIC ALGORITHM DOCKING 27 of 100
Run: 27 Seed: 913717497 506473264 [ Run 27 of 100 GA/GALS ]
Beginning LAMARCKIAN GENETIC ALGORITHM (LGA), with a maximum of 25000000 energy evaluations.

Final-Value: -11.739


	FINAL GENETIC ALGORITHM DOCKED STATE
	_______________________________________________


Detailed state:  trans 1.950 -0.200 -20.111 quatxyzw -0.780674 0.092273 -0.050327 0.616037 center 8.287 34.468 -0.670 ntor 10 115.9905 -159.1193 8.2784 -109.8653 -148.5636 -155.9806 -35.5546 62.2187 -177.6217 175.4236
State:	  1.950  -0.200 -20.111  -0.991  0.117 -0.064 103.945    115.99 -159.12    8.28 -109.87 -148.56 -155.98  -35.55   62.22 -177.62  175.42

DOCKED: MODEL       27
DOCKED: USER    Run = 27
DOCKED: USER    DPF = D:/Protein_go_brrr/autodock/final/mut_D99N/heme_O2/dock.dpf
DOCKED: USER  
DOCKED: USER    Estimated Free Energy of Binding    =   -6.77 kcal/mol  [=(1)+(2)+(3)-(4)]
DOCKED: USER    Estimated Inhibition Constant, Ki   =   10.96 uM (micromolar)  [Temperature = 298.15 K]
DOCKED: USER    
DOCKED: USER    (1) Final Intermolecular Energy     =   -9.75 kcal/mol
DOCKED: USER        vdW + Hbond + desolv Energy     =   -5.92 kcal/mol
DOCKED: USER        Electrostatic Energy            =   -3.83 kcal/mol
DOCKED: USER    (2) Final Total Internal Energy     =   -1.99 kcal/mol
DOCKED: USER    (3) Torsional Free Energy           =   +2.98 kcal/mol
DOCKED: USER    (4) Unbound System's Energy  [=(2)] =   -1.99 kcal/mol
DOCKED: USER    
DOCKED: USER    
DOCKED: USER    NEWDPF move heme_O2_opt.pdbqt
DOCKED: USER    NEWDPF about 8.287000 34.468000 -0.670000
DOCKED: USER    NEWDPF tran0 1.950091 -0.199829 -20.111393
DOCKED: USER    NEWDPF quaternion0 -0.780674 0.092273 -0.050327 0.616037
DOCKED: USER    NEWDPF axisangle0 -0.991058 0.117140 -0.063889 103.945400
DOCKED: USER    NEWDPF quat0 -0.991058 0.117140 -0.063889 103.945400
DOCKED: USER    NEWDPF dihe0 115.99 -159.12 8.28 -109.87 -148.56 -155.98 -35.55 62.22 -177.62 175.42 
DOCKED: USER  keepresnum = 1 
DOCKED: USER  
DOCKED: REMARK  10 active torsions:
DOCKED: REMARK  status: ('A' for Active; 'I' for Inactive)
DOCKED: REMARK    1  A    between atoms: C_6  and  C_10 
DOCKED: REMARK    2  A    between atoms: C_10  and  C_11 
DOCKED: REMARK    3  A    between atoms: C_11  and  C_12 
DOCKED: REMARK    4  A    between atoms: C_12  and  O_14 
DOCKED: REMARK    5  A    between atoms: C_17  and  C_20 
DOCKED: REMARK    6  A    between atoms: C_24  and  C_27 
DOCKED: REMARK    7  A    between atoms: C_31  and  C_34 
DOCKED: REMARK    8  A    between atoms: C_34  and  C_35 
DOCKED: REMARK    9  A    between atoms: C_35  and  C_36 
DOCKED: REMARK   10  A    between atoms: C_36  and  O_38 
DOCKED: USER                              x       y       z     vdW  Elec       q    Type
DOCKED: USER                           _______ _______ _______ _____ _____    ______ ____
DOCKED: ROOT
DOCKED: ATOM      1  C   UNL d   1       0.025   0.596 -19.709 -0.10 +0.07    +0.064 A 
DOCKED: ATOM      2  C   UNL d   1       1.606  -2.490 -22.955 -0.09 +0.01    +0.064 A 
DOCKED: ATOM      3  C   UNL d   1       6.098  -2.075 -21.297 -0.12 +0.01    +0.064 C 
DOCKED: ATOM      4  C   UNL d   1       4.404   0.734 -17.649 -0.10 +0.02    +0.064 A 
DOCKED: ATOM      5  C   UNL d   1       0.089  -0.279 -20.726 -0.14 +0.05    +0.066 A 
DOCKED: ATOM      6  C   UNL d   1      -1.011  -0.659 -21.500 -0.13 -0.01    -0.021 A 
DOCKED: ATOM      7  C   UNL d   1      -0.563  -1.586 -22.413 -0.12 -0.01    -0.025 A 
DOCKED: ATOM      8  C   UNL d   1       0.808  -1.709 -22.202 -0.12 +0.02    +0.066 A 
DOCKED: ATOM      9  C   UNL d   1      -1.440  -2.319 -23.404 -0.10 +0.01    +0.051 C 
DOCKED: ATOM     10  C   UNL d   1       3.053  -2.643 -22.797 -0.10 +0.01    +0.066 A 
DOCKED: ATOM     11  C   UNL d   1       3.858  -3.337 -23.706 -0.09 -0.00    -0.021 A 
DOCKED: ATOM     12  C   UNL d   1       5.159  -3.214 -23.255 -0.09 +0.00    +0.000 A 
DOCKED: ATOM     13  C   UNL d   1       5.071  -2.444 -22.062 -0.08 +0.01    +0.070 A 
DOCKED: ATOM     14  C   UNL d   1       3.408  -4.065 -24.968 -0.05 +0.00    +0.052 C 
DOCKED: ATOM     15  C   UNL d   1       6.047  -1.326 -20.064 -0.10 +0.01    +0.066 A 
DOCKED: ATOM     16  C   UNL d   1       7.139  -1.113 -19.223 -0.16 -0.00    -0.021 A 
DOCKED: ATOM     17  C   UNL d   1       6.680  -0.315 -18.176 -0.15 +0.00    +0.000 A 
DOCKED: ATOM     18  C   UNL d   1       5.325  -0.097 -18.461 -0.13 +0.02    +0.070 A 
DOCKED: ATOM     19  C   UNL d   1       8.495  -1.729 -19.463 -0.19 +0.01    +0.052 C 
DOCKED: ATOM     20  C   UNL d   1       3.090   0.929 -17.869 -0.11 +0.02    +0.066 A 
DOCKED: ATOM     21  C   UNL d   1       2.277   1.737 -17.079 -0.13 -0.01    -0.025 A 
DOCKED: ATOM     22  C   UNL d   1       1.032   1.731 -17.667 -0.14 -0.01    -0.021 A 
DOCKED: ATOM     23  C   UNL d   1       1.127   0.902 -18.789 -0.09 +0.05    +0.066 A 
DOCKED: ATOM     24  C   UNL d   1       2.668   2.475 -15.825 -0.15 +0.02    +0.051 C 
DOCKED: ATOM     25  N   UNL d   1       1.197  -0.953 -21.120 -0.11 -0.12    -0.248 N 
DOCKED: ATOM     26  N   UNL d   1       3.786  -2.105 -21.788 -0.09 -0.05    -0.248 N 
DOCKED: ATOM     27  N   UNL d   1       4.940  -0.779 -19.569 -0.10 -0.06    -0.248 N 
DOCKED: ATOM     28  N   UNL d   1       2.368   0.380 -18.882 -0.07 -0.10    -0.248 N 
DOCKED: ATOM     29 FE   UNL d   1       3.074  -0.853 -20.323 -0.03 +0.00    +0.000 Fe
DOCKED: ATOM     30  O   UNL d   1       2.371  -2.225 -20.105 -0.37 +0.00    +0.000 OA
DOCKED: ATOM     31  O   UNL d   1       3.234  -1.596 -18.946 -0.38 +0.00    +0.000 OA
DOCKED: ENDROOT
DOCKED: BRANCH   6  32
DOCKED: ATOM     32  C   UNL d   1      -2.455  -0.275 -21.306 -0.12 +0.04    +0.052 C 
DOCKED: BRANCH  32  33
DOCKED: ATOM     33  C   UNL d   1      -3.233  -1.294 -20.479 -0.13 +0.14    +0.115 C 
DOCKED: BRANCH  33  34
DOCKED: ATOM     34  C   UNL d   1      -4.227  -0.642 -19.550 -0.16 +0.23    +0.139 C 
DOCKED: ATOM     35  O   UNL d   1      -5.123   0.047 -20.012 -0.10 -1.07    -0.650 OA
DOCKED: BRANCH  34  36
DOCKED: ATOM     36  O   UNL d   1      -4.134  -0.779 -18.211 -0.45 -1.84    -0.776 OA
DOCKED: ATOM     37  H   UNL d   1      -3.971  -0.027 -17.631 +0.06 +0.42    +0.167 HD
DOCKED: ENDBRANCH  34  36
DOCKED: ENDBRANCH  33  34
DOCKED: ENDBRANCH  32  33
DOCKED: ENDBRANCH   6  32
DOCKED: BRANCH  22  38
DOCKED: ATOM     38  C   UNL d   1      -0.192   2.434 -17.139 -0.17 +0.04    +0.052 C 
DOCKED: BRANCH  38  39
DOCKED: ATOM     39  C   UNL d   1      -0.906   1.625 -16.059 -0.21 +0.14    +0.115 C 
DOCKED: BRANCH  39  40
DOCKED: ATOM     40  C   UNL d   1      -2.319   1.266 -16.448 -0.18 +0.23    +0.139 C 
DOCKED: ATOM     41  O   UNL d   1      -2.831   1.792 -17.422 +0.02 -1.00    -0.650 OA
DOCKED: BRANCH  40  42
DOCKED: ATOM     42  O   UNL d   1      -3.012   0.332 -15.767 +0.03 -1.48    -0.776 OA
DOCKED: ATOM     43  H   UNL d   1      -3.746  -0.145 -16.171 +0.09 +0.34    +0.167 HD
DOCKED: ENDBRANCH  40  42
DOCKED: ENDBRANCH  39  40
DOCKED: ENDBRANCH  38  39
DOCKED: ENDBRANCH  22  38
DOCKED: BRANCH  12  44
DOCKED: ATOM     44  C   UNL d   1       6.328  -3.834 -23.992 -0.11 +0.00    +0.004 C 
DOCKED: ATOM     45  C   UNL d   1       7.610  -3.849 -23.629 -0.13 +0.00    +0.012 C 
DOCKED: ENDBRANCH  12  44
DOCKED: BRANCH  17  46
DOCKED: ATOM     46  C   UNL d   1       7.377   0.192 -16.941 -0.18 +0.00    +0.004 C 
DOCKED: ATOM     47  C   UNL d   1       7.096  -0.082 -15.660 -0.25 +0.00    +0.012 C 
DOCKED: ENDBRANCH  17  46
DOCKED: TORSDOF 10
DOCKED: TER
DOCKED: ENDMDL
________________________________________________________________________________


	BEGINNING GENETIC ALGORITHM DOCKING 28 of 100
Run: 28 Seed: 588335055 206398378 [ Run 28 of 100 GA/GALS ]
Beginning LAMARCKIAN GENETIC ALGORITHM (LGA), with a maximum of 25000000 energy evaluations.

Final-Value: -10.204


	FINAL GENETIC ALGORITHM DOCKED STATE
	_______________________________________________


Detailed state:  trans -14.928 6.571 7.666 quatxyzw -0.510437 -0.600681 -0.490745 0.371222 center 8.287 34.468 -0.670 ntor 10 -163.6028 -76.0886 53.1190 -101.3854 -103.8459 52.4813 -100.4284 97.2141 -172.7121 -150.7439
State:	-14.928   6.571   7.666  -0.550 -0.647 -0.529 136.418   -163.60  -76.09   53.12 -101.39 -103.85   52.48 -100.43   97.21 -172.71 -150.74

DOCKED: MODEL       28
DOCKED: USER    Run = 28
DOCKED: USER    DPF = D:/Protein_go_brrr/autodock/final/mut_D99N/heme_O2/dock.dpf
DOCKED: USER  
DOCKED: USER    Estimated Free Energy of Binding    =   -5.40 kcal/mol  [=(1)+(2)+(3)-(4)]
DOCKED: USER    Estimated Inhibition Constant, Ki   =  109.43 uM (micromolar)  [Temperature = 298.15 K]
DOCKED: USER    
DOCKED: USER    (1) Final Intermolecular Energy     =   -8.39 kcal/mol
DOCKED: USER        vdW + Hbond + desolv Energy     =   -7.01 kcal/mol
DOCKED: USER        Electrostatic Energy            =   -1.38 kcal/mol
DOCKED: USER    (2) Final Total Internal Energy     =   -1.82 kcal/mol
DOCKED: USER    (3) Torsional Free Energy           =   +2.98 kcal/mol
DOCKED: USER    (4) Unbound System's Energy  [=(2)] =   -1.82 kcal/mol
DOCKED: USER    
DOCKED: USER    
DOCKED: USER    NEWDPF move heme_O2_opt.pdbqt
DOCKED: USER    NEWDPF about 8.287000 34.468000 -0.670000
DOCKED: USER    NEWDPF tran0 -14.928061 6.570877 7.665535
DOCKED: USER    NEWDPF quaternion0 -0.510437 -0.600681 -0.490745 0.371222
DOCKED: USER    NEWDPF axisangle0 -0.549717 -0.646906 -0.528510 136.418043
DOCKED: USER    NEWDPF quat0 -0.549717 -0.646906 -0.528510 136.418043
DOCKED: USER    NEWDPF dihe0 -163.60 -76.09 53.12 -101.39 -103.85 52.48 -100.43 97.21 -172.71 -150.74 
DOCKED: USER  keepresnum = 1 
DOCKED: USER  
DOCKED: REMARK  10 active torsions:
DOCKED: REMARK  status: ('A' for Active; 'I' for Inactive)
DOCKED: REMARK    1  A    between atoms: C_6  and  C_10 
DOCKED: REMARK    2  A    between atoms: C_10  and  C_11 
DOCKED: REMARK    3  A    between atoms: C_11  and  C_12 
DOCKED: REMARK    4  A    between atoms: C_12  and  O_14 
DOCKED: REMARK    5  A    between atoms: C_17  and  C_20 
DOCKED: REMARK    6  A    between atoms: C_24  and  C_27 
DOCKED: REMARK    7  A    between atoms: C_31  and  C_34 
DOCKED: REMARK    8  A    between atoms: C_34  and  C_35 
DOCKED: REMARK    9  A    between atoms: C_35  and  C_36 
DOCKED: REMARK   10  A    between atoms: C_36  and  O_38 
DOCKED: USER                              x       y       z     vdW  Elec       q    Type
DOCKED: USER                           _______ _______ _______ _____ _____    ______ ____
DOCKED: ROOT
DOCKED: ATOM      1  C   UNL d   1     -15.156   4.573   8.340 -0.08 +0.02    +0.064 A 
DOCKED: ATOM      2  C   UNL d   1     -12.563   6.510   4.864 -0.18 -0.01    +0.064 A 
DOCKED: ATOM      3  C   UNL d   1     -14.276  10.880   5.895 -0.18 -0.02    +0.064 C 
DOCKED: ATOM      4  C   UNL d   1     -16.581   8.969   9.781 -0.08 -0.00    +0.064 A 
DOCKED: ATOM      5  C   UNL d   1     -14.309   4.743   7.311 -0.10 +0.01    +0.066 A 
DOCKED: ATOM      6  C   UNL d   1     -13.613   3.703   6.690 -0.11 -0.00    -0.021 A 
DOCKED: ATOM      7  C   UNL d   1     -12.829   4.267   5.711 -0.18 -0.00    -0.025 A 
DOCKED: ATOM      8  C   UNL d   1     -13.104   5.632   5.730 -0.19 +0.00    +0.066 A 
DOCKED: ATOM      9  C   UNL d   1     -11.852   3.509   4.840 -0.27 +0.01    +0.051 C 
DOCKED: ATOM     10  C   UNL d   1     -12.831   7.948   4.820 -0.22 -0.01    +0.066 A 
DOCKED: ATOM     11  C   UNL d   1     -12.369   8.785   3.798 -0.42 +0.00    -0.021 A 
DOCKED: ATOM     12  C   UNL d   1     -12.868  10.047   4.068 -0.41 -0.00    +0.000 A 
DOCKED: ATOM     13  C   UNL d   1     -13.611   9.906   5.273 -0.22 -0.01    +0.070 A 
DOCKED: ATOM     14  C   UNL d   1     -11.512   8.394   2.600 -0.41 -0.00    +0.052 C 
DOCKED: ATOM     15  C   UNL d   1     -15.010  10.786   7.134 -0.11 -0.02    +0.066 A 
DOCKED: ATOM     16  C   UNL d   1     -15.546  11.876   7.820 -0.11 +0.01    -0.021 A 
DOCKED: ATOM     17  C   UNL d   1     -16.207  11.355   8.932 -0.10 -0.00    +0.000 A 
DOCKED: ATOM     18  C   UNL d   1     -16.025   9.969   8.839 -0.09 -0.01    +0.070 A 
DOCKED: ATOM     19  C   UNL d   1     -15.333  13.305   7.387 -0.00 -0.05    +0.052 C 
DOCKED: ATOM     20  C   UNL d   1     -16.390   7.636   9.746 -0.06 +0.01    +0.066 A 
DOCKED: ATOM     21  C   UNL d   1     -16.955   6.742  10.651 -0.05 -0.00    -0.025 A 
DOCKED: ATOM     22  C   UNL d   1     -16.582   5.483  10.240 -0.04 -0.01    -0.021 A 
DOCKED: ATOM     23  C   UNL d   1     -15.785   5.656   9.104 -0.03 +0.02    +0.066 A 
DOCKED: ATOM     24  C   UNL d   1     -17.805   7.074  11.851 -0.05 +0.01    +0.051 C 
DOCKED: ATOM     25  N   UNL d   1     -13.967   5.933   6.759 -0.08 -0.02    -0.248 N 
DOCKED: ATOM     26  N   UNL d   1     -13.579   8.627   5.726 -0.13 +0.04    -0.248 N 
DOCKED: ATOM     27  N   UNL d   1     -15.233   9.647   7.784 -0.05 +0.04    -0.248 N 
DOCKED: ATOM     28  N   UNL d   1     -15.634   6.969   8.834 -0.07 -0.04    -0.248 N 
DOCKED: ATOM     29 FE   UNL d   1     -14.615   7.795   7.292 -0.04 -0.00    +0.000 Fe
DOCKED: ATOM     30  O   UNL d   1     -13.106   7.547   7.585 -0.41 -0.00    +0.000 OA
DOCKED: ATOM     31  O   UNL d   1     -13.983   8.344   8.623 -0.42 +0.00    +0.000 OA
DOCKED: ENDROOT
DOCKED: BRANCH   6  32
DOCKED: ATOM     32  C   UNL d   1     -13.578   2.249   7.086 -0.11 +0.01    +0.052 C 
DOCKED: BRANCH  32  33
DOCKED: ATOM     33  C   UNL d   1     -12.473   1.936   8.091 -0.20 +0.03    +0.115 C 
DOCKED: BRANCH  33  34
DOCKED: ATOM     34  C   UNL d   1     -12.830   2.370   9.491 -0.18 +0.04    +0.139 C 
DOCKED: ATOM     35  O   UNL d   1     -13.148   1.532  10.320 +0.03 -0.21    -0.650 OA
DOCKED: BRANCH  34  36
DOCKED: ATOM     36  O   UNL d   1     -12.832   3.672   9.845 +0.18 -0.25    -0.776 OA
DOCKED: ATOM     37  H   UNL d   1     -12.824   3.951  10.768 -0.32 +0.05    +0.167 HD
DOCKED: ENDBRANCH  34  36
DOCKED: ENDBRANCH  33  34
DOCKED: ENDBRANCH  32  33
DOCKED: ENDBRANCH   6  32
DOCKED: BRANCH  22  38
DOCKED: ATOM     38  C   UNL d   1     -16.922   4.193  10.941 -0.06 +0.01    +0.052 C 
DOCKED: BRANCH  38  39
DOCKED: ATOM     39  C   UNL d   1     -16.627   4.249  12.439 -0.08 +0.04    +0.115 C 
DOCKED: BRANCH  39  40
DOCKED: ATOM     40  C   UNL d   1     -15.184   3.942  12.754 -0.19 +0.09    +0.139 C 
DOCKED: ATOM     41  O   UNL d   1     -14.863   3.643  13.893 -0.26 -0.78    -0.650 OA
DOCKED: BRANCH  40  42
DOCKED: ATOM     42  O   UNL d   1     -14.246   3.943  11.788 +0.02 -0.45    -0.776 OA
DOCKED: ATOM     43  H   UNL d   1     -14.193   3.234  11.136 +0.05 +0.08    +0.167 HD
DOCKED: ENDBRANCH  40  42
DOCKED: ENDBRANCH  39  40
DOCKED: ENDBRANCH  38  39
DOCKED: ENDBRANCH  22  38
DOCKED: BRANCH  12  44
DOCKED: ATOM     44  C   UNL d   1     -12.586  11.232   3.169 -0.41 -0.00    +0.004 C 
DOCKED: ATOM     45  C   UNL d   1     -12.162  12.445   3.522 -0.41 -0.00    +0.012 C 
DOCKED: ENDBRANCH  12  44
DOCKED: BRANCH  17  46
DOCKED: ATOM     46  C   UNL d   1     -16.922  12.040  10.066 -0.08 -0.00    +0.004 C 
DOCKED: ATOM     47  C   UNL d   1     -16.532  12.155  11.342 -0.10 -0.00    +0.012 C 
DOCKED: ENDBRANCH  17  46
DOCKED: TORSDOF 10
DOCKED: TER
DOCKED: ENDMDL
________________________________________________________________________________


	BEGINNING GENETIC ALGORITHM DOCKING 29 of 100
Run: 29 Seed: 424111489 1390283799 [ Run 29 of 100 GA/GALS ]
Beginning LAMARCKIAN GENETIC ALGORITHM (LGA), with a maximum of 25000000 energy evaluations.

Final-Value: -9.714


	FINAL GENETIC ALGORITHM DOCKED STATE
	_______________________________________________


Detailed state:  trans 2.223 0.001 -20.783 quatxyzw -0.712980 0.226298 -0.400185 0.529434 center 8.287 34.468 -0.670 ntor 10 137.5149 125.3164 42.9409 -79.9745 -123.0992 -34.4184 -79.7714 97.0948 176.9645 -167.8642
State:	  2.223   0.001 -20.783  -0.840  0.267 -0.472 116.066    137.51  125.32   42.94  -79.97 -123.10  -34.42  -79.77   97.09  176.96 -167.86

DOCKED: MODEL       29
DOCKED: USER    Run = 29
DOCKED: USER    DPF = D:/Protein_go_brrr/autodock/final/mut_D99N/heme_O2/dock.dpf
DOCKED: USER  
DOCKED: USER    Estimated Free Energy of Binding    =   -4.13 kcal/mol  [=(1)+(2)+(3)-(4)]
DOCKED: USER    Estimated Inhibition Constant, Ki   =  943.86 uM (micromolar)  [Temperature = 298.15 K]
DOCKED: USER    
DOCKED: USER    (1) Final Intermolecular Energy     =   -7.11 kcal/mol
DOCKED: USER        vdW + Hbond + desolv Energy     =   -5.21 kcal/mol
DOCKED: USER        Electrostatic Energy            =   -1.90 kcal/mol
DOCKED: USER    (2) Final Total Internal Energy     =   -2.60 kcal/mol
DOCKED: USER    (3) Torsional Free Energy           =   +2.98 kcal/mol
DOCKED: USER    (4) Unbound System's Energy  [=(2)] =   -2.60 kcal/mol
DOCKED: USER    
DOCKED: USER    
DOCKED: USER    NEWDPF move heme_O2_opt.pdbqt
DOCKED: USER    NEWDPF about 8.287000 34.468000 -0.670000
DOCKED: USER    NEWDPF tran0 2.223110 0.001334 -20.782768
DOCKED: USER    NEWDPF quaternion0 -0.712980 0.226298 -0.400185 0.529434
DOCKED: USER    NEWDPF axisangle0 -0.840430 0.266750 -0.471721 116.065517
DOCKED: USER    NEWDPF quat0 -0.840430 0.266750 -0.471721 116.065517
DOCKED: USER    NEWDPF dihe0 137.51 125.32 42.94 -79.97 -123.10 -34.42 -79.77 97.09 176.96 -167.86 
DOCKED: USER  keepresnum = 1 
DOCKED: USER  
DOCKED: REMARK  10 active torsions:
DOCKED: REMARK  status: ('A' for Active; 'I' for Inactive)
DOCKED: REMARK    1  A    between atoms: C_6  and  C_10 
DOCKED: REMARK    2  A    between atoms: C_10  and  C_11 
DOCKED: REMARK    3  A    between atoms: C_11  and  C_12 
DOCKED: REMARK    4  A    between atoms: C_12  and  O_14 
DOCKED: REMARK    5  A    between atoms: C_17  and  C_20 
DOCKED: REMARK    6  A    between atoms: C_24  and  C_27 
DOCKED: REMARK    7  A    between atoms: C_31  and  C_34 
DOCKED: REMARK    8  A    between atoms: C_34  and  C_35 
DOCKED: REMARK    9  A    between atoms: C_35  and  C_36 
DOCKED: REMARK   10  A    between atoms: C_36  and  O_38 
DOCKED: USER                              x       y       z     vdW  Elec       q    Type
DOCKED: USER                           _______ _______ _______ _____ _____    ______ ____
DOCKED: ROOT
DOCKED: ATOM      1  C   UNL d   1       0.429   0.358 -21.857 -0.05 +0.03    +0.064 A 
DOCKED: ATOM      2  C   UNL d   1       4.370  -2.074 -22.912 -0.09 +0.01    +0.064 A 
DOCKED: ATOM      3  C   UNL d   1       6.336  -0.899 -18.687 -0.18 +0.02    +0.064 C 
DOCKED: ATOM      4  C   UNL d   1       2.099   1.208 -17.393 -0.12 +0.03    +0.064 A 
DOCKED: ATOM      5  C   UNL d   1       1.340  -0.401 -22.488 -0.04 +0.02    +0.066 A 
DOCKED: ATOM      6  C   UNL d   1       1.165  -0.931 -23.769 -0.03 -0.00    -0.021 A 
DOCKED: ATOM      7  C   UNL d   1       2.287  -1.671 -24.058 -0.03 -0.00    -0.025 A 
DOCKED: ATOM      8  C   UNL d   1       3.138  -1.533 -22.965 -0.05 +0.01    +0.066 A 
DOCKED: ATOM      9  C   UNL d   1       2.488  -2.484 -25.319 -0.02 +0.00    +0.051 C 
DOCKED: ATOM     10  C   UNL d   1       5.316  -1.945 -21.802 -0.12 +0.01    +0.066 A 
DOCKED: ATOM     11  C   UNL d   1       6.642  -2.388 -21.866 -0.10 -0.00    -0.021 A 
DOCKED: ATOM     12  C   UNL d   1       7.231  -2.042 -20.664 -0.15 +0.00    +0.000 A 
DOCKED: ATOM     13  C   UNL d   1       6.204  -1.404 -19.913 -0.10 +0.02    +0.070 A 
DOCKED: ATOM     14  C   UNL d   1       7.326  -3.087 -23.035 -0.14 +0.00    +0.052 C 
DOCKED: ATOM     15  C   UNL d   1       5.314  -0.278 -17.880 -0.17 +0.02    +0.066 A 
DOCKED: ATOM     16  C   UNL d   1       5.472   0.082 -16.542 -0.20 -0.01    -0.021 A 
DOCKED: ATOM     17  C   UNL d   1       4.276   0.684 -16.151 -0.19 +0.00    +0.000 A 
DOCKED: ATOM     18  C   UNL d   1       3.468   0.647 -17.296 -0.14 +0.02    +0.070 A 
DOCKED: ATOM     19  C   UNL d   1       6.717  -0.227 -15.749 -0.26 +0.02    +0.052 C 
DOCKED: ATOM     20  C   UNL d   1       1.281   1.151 -18.461 -0.10 +0.04    +0.066 A 
DOCKED: ATOM     21  C   UNL d   1       0.008   1.713 -18.500 -0.11 -0.02    -0.025 A 
DOCKED: ATOM     22  C   UNL d   1      -0.473   1.505 -19.773 -0.09 -0.02    -0.021 A 
DOCKED: ATOM     23  C   UNL d   1       0.522   0.804 -20.462 -0.09 +0.04    +0.066 A 
DOCKED: ATOM     24  C   UNL d   1      -0.715   2.411 -17.377 -0.16 +0.05    +0.051 C 
DOCKED: ATOM     25  N   UNL d   1       2.527  -0.804 -21.971 -0.03 -0.06    -0.248 N 
DOCKED: ATOM     26  N   UNL d   1       5.042  -1.354 -20.611 -0.10 -0.05    -0.248 N 
DOCKED: ATOM     27  N   UNL d   1       4.086  -0.007 -18.312 -0.10 -0.07    -0.248 N 
DOCKED: ATOM     28  N   UNL d   1       1.568   0.552 -19.648 -0.09 -0.14    -0.248 N 
DOCKED: ATOM     29 FE   UNL d   1       3.293  -0.393 -20.123 -0.03 +0.00    +0.000 Fe
DOCKED: ATOM     30  O   UNL d   1       2.924  -1.891 -20.332 -0.30 +0.00    +0.000 OA
DOCKED: ATOM     31  O   UNL d   1       2.622  -1.198 -18.950 -0.08 +0.00    +0.000 OA
DOCKED: ENDROOT
DOCKED: BRANCH   6  32
DOCKED: ATOM     32  C   UNL d   1      -0.065  -0.861 -24.637 -0.02 +0.01    +0.052 C 
DOCKED: BRANCH  32  33
DOCKED: ATOM     33  C   UNL d   1      -0.903  -2.135 -24.580 -0.04 +0.02    +0.115 C 
DOCKED: BRANCH  33  34
DOCKED: ATOM     34  C   UNL d   1      -2.064  -2.018 -23.624 -0.06 +0.04    +0.139 C 
DOCKED: ATOM     35  O   UNL d   1      -3.116  -1.535 -24.009 +0.01 -0.17    -0.650 OA
DOCKED: BRANCH  34  36
DOCKED: ATOM     36  O   UNL d   1      -1.957  -2.410 -22.337 -0.02 -0.35    -0.776 OA
DOCKED: ATOM     37  H   UNL d   1      -2.326  -1.891 -21.613 +0.02 +0.12    +0.167 HD
DOCKED: ENDBRANCH  34  36
DOCKED: ENDBRANCH  33  34
DOCKED: ENDBRANCH  32  33
DOCKED: ENDBRANCH   6  32
DOCKED: BRANCH  22  38
DOCKED: ATOM     38  C   UNL d   1      -1.837   1.902 -20.273 -0.06 +0.04    +0.052 C 
DOCKED: BRANCH  38  39
DOCKED: ATOM     39  C   UNL d   1      -2.958   1.129 -19.581 -0.13 +0.16    +0.115 C 
DOCKED: BRANCH  39  40
DOCKED: ATOM     40  C   UNL d   1      -3.211  -0.214 -20.219 -0.13 +0.19    +0.139 C 
DOCKED: ATOM     41  O   UNL d   1      -2.913  -1.235 -19.620 -0.10 -1.40    -0.650 OA
DOCKED: BRANCH  40  42
DOCKED: ATOM     42  O   UNL d   1      -3.809  -0.312 -21.422 +0.03 -0.62    -0.776 OA
DOCKED: ATOM     43  H   UNL d   1      -3.419  -0.825 -22.139 +0.02 +0.10    +0.167 HD
DOCKED: ENDBRANCH  40  42
DOCKED: ENDBRANCH  39  40
DOCKED: ENDBRANCH  38  39
DOCKED: ENDBRANCH  22  38
DOCKED: BRANCH  12  44
DOCKED: ATOM     44  C   UNL d   1       8.682  -2.353 -20.360 -0.18 +0.00    +0.004 C 
DOCKED: ATOM     45  C   UNL d   1       9.209  -2.751 -19.203 -0.28 +0.00    +0.012 C 
DOCKED: ENDBRANCH  12  44
DOCKED: BRANCH  17  46
DOCKED: ATOM     46  C   UNL d   1       3.829   1.219 -14.817 -0.31 +0.00    +0.004 C 
DOCKED: ATOM     47  C   UNL d   1       3.244   0.555 -13.812 -0.50 +0.00    +0.012 C 
DOCKED: ENDBRANCH  17  46
DOCKED: TORSDOF 10
DOCKED: TER
DOCKED: ENDMDL
________________________________________________________________________________


	BEGINNING GENETIC ALGORITHM DOCKING 30 of 100
Run: 30 Seed: 431139725 818414722 [ Run 30 of 100 GA/GALS ]
Beginning LAMARCKIAN GENETIC ALGORITHM (LGA), with a maximum of 25000000 energy evaluations.

Final-Value: -10.552


	FINAL GENETIC ALGORITHM DOCKED STATE
	_______________________________________________


Detailed state:  trans 14.979 -8.888 7.813 quatxyzw -0.173461 0.016723 0.891363 0.418454 center 8.287 34.468 -0.670 ntor 10 165.5533 -8.0577 -38.0094 30.9157 -66.6977 142.5425 72.7127 -15.1216 -28.3334 130.3088
State:	 14.979  -8.888   7.813  -0.191  0.018  0.981 130.526    165.55   -8.06  -38.01   30.92  -66.70  142.54   72.71  -15.12  -28.33  130.31

DOCKED: MODEL       30
DOCKED: USER    Run = 30
DOCKED: USER    DPF = D:/Protein_go_brrr/autodock/final/mut_D99N/heme_O2/dock.dpf
DOCKED: USER  
DOCKED: USER    Estimated Free Energy of Binding    =   -5.43 kcal/mol  [=(1)+(2)+(3)-(4)]
DOCKED: USER    Estimated Inhibition Constant, Ki   =  104.75 uM (micromolar)  [Temperature = 298.15 K]
DOCKED: USER    
DOCKED: USER    (1) Final Intermolecular Energy     =   -8.41 kcal/mol
DOCKED: USER        vdW + Hbond + desolv Energy     =   -7.42 kcal/mol
DOCKED: USER        Electrostatic Energy            =   -0.99 kcal/mol
DOCKED: USER    (2) Final Total Internal Energy     =   -2.14 kcal/mol
DOCKED: USER    (3) Torsional Free Energy           =   +2.98 kcal/mol
DOCKED: USER    (4) Unbound System's Energy  [=(2)] =   -2.14 kcal/mol
DOCKED: USER    
DOCKED: USER    
DOCKED: USER    NEWDPF move heme_O2_opt.pdbqt
DOCKED: USER    NEWDPF about 8.287000 34.468000 -0.670000
DOCKED: USER    NEWDPF tran0 14.978781 -8.888170 7.813152
DOCKED: USER    NEWDPF quaternion0 -0.173461 0.016723 0.891363 0.418454
DOCKED: USER    NEWDPF axisangle0 -0.190986 0.018413 0.981420 130.525991
DOCKED: USER    NEWDPF quat0 -0.190986 0.018413 0.981420 130.525991
DOCKED: USER    NEWDPF dihe0 165.55 -8.06 -38.01 30.92 -66.70 142.54 72.71 -15.12 -28.33 130.31 
DOCKED: USER  keepresnum = 1 
DOCKED: USER  
DOCKED: REMARK  10 active torsions:
DOCKED: REMARK  status: ('A' for Active; 'I' for Inactive)
DOCKED: REMARK    1  A    between atoms: C_6  and  C_10 
DOCKED: REMARK    2  A    between atoms: C_10  and  C_11 
DOCKED: REMARK    3  A    between atoms: C_11  and  C_12 
DOCKED: REMARK    4  A    between atoms: C_12  and  O_14 
DOCKED: REMARK    5  A    between atoms: C_17  and  C_20 
DOCKED: REMARK    6  A    between atoms: C_24  and  C_27 
DOCKED: REMARK    7  A    between atoms: C_31  and  C_34 
DOCKED: REMARK    8  A    between atoms: C_34  and  C_35 
DOCKED: REMARK    9  A    between atoms: C_35  and  C_36 
DOCKED: REMARK   10  A    between atoms: C_36  and  O_38 
DOCKED: USER                              x       y       z     vdW  Elec       q    Type
DOCKED: USER                           _______ _______ _______ _____ _____    ______ ____
DOCKED: ROOT
DOCKED: ATOM      1  C   UNL d   1      16.786  -7.781   7.719 -0.22 -0.01    +0.064 A 
DOCKED: ATOM      2  C   UNL d   1      12.876  -7.321  10.377 -0.20 -0.02    +0.064 A 
DOCKED: ATOM      3  C   UNL d   1      10.841 -11.092   8.200 -0.22 -0.02    +0.064 C 
DOCKED: ATOM      4  C   UNL d   1      15.046 -11.868   5.794 -0.21 -0.05    +0.064 A 
DOCKED: ATOM      5  C   UNL d   1      15.889  -7.349   8.621 -0.20 -0.02    +0.066 A 
DOCKED: ATOM      6  C   UNL d   1      16.086  -6.244   9.454 -0.15 +0.00    -0.021 A 
DOCKED: ATOM      7  C   UNL d   1      14.973  -6.136  10.254 -0.18 +0.01    -0.025 A 
DOCKED: ATOM      8  C   UNL d   1      14.106  -7.149   9.854 -0.20 -0.02    +0.066 A 
DOCKED: ATOM      9  C   UNL d   1      14.796  -5.117  11.358 -0.15 -0.01    +0.051 C 
DOCKED: ATOM     10  C   UNL d   1      11.913  -8.351   9.983 -0.22 -0.03    +0.066 A 
DOCKED: ATOM     11  C   UNL d   1      10.591  -8.384  10.441 -0.18 +0.01    -0.021 A 
DOCKED: ATOM     12  C   UNL d   1       9.983  -9.454   9.810 -0.19 -0.00    +0.000 A 
DOCKED: ATOM     13  C   UNL d   1      10.994 -10.033   8.995 -0.20 -0.03    +0.070 A 
DOCKED: ATOM     14  C   UNL d   1       9.929  -7.419  11.417 -0.15 -0.05    +0.052 C 
DOCKED: ATOM     15  C   UNL d   1      11.848 -11.730   7.387 -0.19 -0.02    +0.066 A 
DOCKED: ATOM     16  C   UNL d   1      11.668 -12.932   6.704 -0.19 +0.01    -0.021 A 
DOCKED: ATOM     17  C   UNL d   1      12.854 -13.174   6.012 -0.22 -0.00    +0.000 A 
DOCKED: ATOM     18  C   UNL d   1      13.680 -12.086   6.326 -0.23 -0.04    +0.070 A 
DOCKED: ATOM     19  C   UNL d   1      10.414 -13.762   6.817 -0.21 -0.01    +0.052 C 
DOCKED: ATOM     20  C   UNL d   1      15.880 -10.858   6.109 -0.27 -0.03    +0.066 A 
DOCKED: ATOM     21  C   UNL d   1      17.150 -10.696   5.562 -0.30 +0.01    -0.025 A 
DOCKED: ATOM     22  C   UNL d   1      17.650  -9.522   6.078 -0.30 +0.00    -0.021 A 
DOCKED: ATOM     23  C   UNL d   1      16.670  -9.018   6.939 -0.25 -0.01    +0.066 A 
DOCKED: ATOM     24  C   UNL d   1      17.852 -11.617   4.598 -0.33 -0.02    +0.051 C 
DOCKED: ATOM     25  N   UNL d   1      14.698  -7.936   8.894 -0.11 +0.10    -0.248 N 
DOCKED: ATOM     26  N   UNL d   1      12.167  -9.359   9.110 -0.12 +0.10    -0.248 N 
DOCKED: ATOM     27  N   UNL d   1      13.081 -11.258   7.220 -0.11 +0.11    -0.248 N 
DOCKED: ATOM     28  N   UNL d   1      15.614  -9.857   6.989 -0.15 +0.09    -0.248 N 
DOCKED: ATOM     29 FE   UNL d   1      13.902  -9.612   8.040 -0.06 -0.00    +0.000 Fe
DOCKED: ATOM     30  O   UNL d   1      14.283  -9.791   9.539 -0.12 -0.00    +0.000 OA
DOCKED: ATOM     31  O   UNL d   1      14.561 -10.958   8.518 -0.12 -0.00    +0.000 OA
DOCKED: ENDROOT
DOCKED: BRANCH   6  32
DOCKED: ATOM     32  C   UNL d   1      17.328  -5.402   9.592 -0.09 -0.01    +0.052 C 
DOCKED: BRANCH  32  33
DOCKED: ATOM     33  C   UNL d   1      17.798  -4.817   8.263 -0.12 -0.01    +0.115 C 
DOCKED: BRANCH  33  34
DOCKED: ATOM     34  C   UNL d   1      19.075  -5.454   7.774 -0.08 +0.01    +0.139 C 
DOCKED: ATOM     35  O   UNL d   1      19.228  -5.661   6.581 +0.00 -0.10    -0.650 OA
DOCKED: BRANCH  34  36
DOCKED: ATOM     36  O   UNL d   1      20.048  -5.828   8.631 +0.05 -0.07    -0.776 OA
DOCKED: ATOM     37  H   UNL d   1      20.769  -6.409   8.363 +0.02 +0.03    +0.167 HD
DOCKED: ENDBRANCH  34  36
DOCKED: ENDBRANCH  33  34
DOCKED: ENDBRANCH  32  33
DOCKED: ENDBRANCH   6  32
DOCKED: BRANCH  22  38
DOCKED: ATOM     38  C   UNL d   1      19.019  -8.955   5.805 -0.25 +0.02    +0.052 C 
DOCKED: BRANCH  38  39
DOCKED: ATOM     39  C   UNL d   1      19.778  -8.625   7.089 -0.16 +0.03    +0.115 C 
DOCKED: BRANCH  39  40
DOCKED: ATOM     40  C   UNL d   1      21.256  -8.436   6.852 -0.09 +0.08    +0.139 C 
DOCKED: ATOM     41  O   UNL d   1      21.961  -9.404   6.617 +0.10 -0.63    -0.650 OA
DOCKED: BRANCH  40  42
DOCKED: ATOM     42  O   UNL d   1      21.807  -7.207   6.844 +0.01 -0.43    -0.776 OA
DOCKED: ATOM     43  H   UNL d   1      21.267  -6.411   6.914 +0.03 +0.06    +0.167 HD
DOCKED: ENDBRANCH  40  42
DOCKED: ENDBRANCH  39  40
DOCKED: ENDBRANCH  38  39
DOCKED: ENDBRANCH  22  38
DOCKED: BRANCH  12  44
DOCKED: ATOM     44  C   UNL d   1       8.530  -9.807  10.050 -0.12 -0.00    +0.004 C 
DOCKED: ATOM     45  C   UNL d   1       7.617 -10.170   9.150 -0.31 -0.01    +0.012 C 
DOCKED: ENDBRANCH  12  44
DOCKED: BRANCH  17  46
DOCKED: ATOM     46  C   UNL d   1      13.279 -14.337   5.155 -0.21 -0.00    +0.004 C 
DOCKED: ATOM     47  C   UNL d   1      12.503 -15.204   4.490 -0.23 -0.00    +0.012 C 
DOCKED: ENDBRANCH  17  46
DOCKED: TORSDOF 10
DOCKED: TER
DOCKED: ENDMDL
________________________________________________________________________________


	BEGINNING GENETIC ALGORITHM DOCKING 31 of 100
Run: 31 Seed: 642632791 1761314826 [ Run 31 of 100 GA/GALS ]
Beginning LAMARCKIAN GENETIC ALGORITHM (LGA), with a maximum of 25000000 energy evaluations.

Final-Value: -10.621


	FINAL GENETIC ALGORITHM DOCKED STATE
	_______________________________________________


Detailed state:  trans -13.284 1.463 9.670 quatxyzw 0.378934 0.523228 0.638477 0.418317 center 8.287 34.468 -0.670 ntor 10 131.9423 -52.2193 58.3993 -108.6018 17.3097 -175.6602 87.0747 124.1801 21.7618 27.7997
State:	-13.284   1.463   9.670   0.417  0.576  0.703 130.543    131.94  -52.22   58.40 -108.60   17.31 -175.66   87.07  124.18   21.76   27.80

DOCKED: MODEL       31
DOCKED: USER    Run = 31
DOCKED: USER    DPF = D:/Protein_go_brrr/autodock/final/mut_D99N/heme_O2/dock.dpf
DOCKED: USER  
DOCKED: USER    Estimated Free Energy of Binding    =   -5.95 kcal/mol  [=(1)+(2)+(3)-(4)]
DOCKED: USER    Estimated Inhibition Constant, Ki   =   43.88 uM (micromolar)  [Temperature = 298.15 K]
DOCKED: USER    
DOCKED: USER    (1) Final Intermolecular Energy     =   -8.93 kcal/mol
DOCKED: USER        vdW + Hbond + desolv Energy     =   -6.41 kcal/mol
DOCKED: USER        Electrostatic Energy            =   -2.51 kcal/mol
DOCKED: USER    (2) Final Total Internal Energy     =   -1.69 kcal/mol
DOCKED: USER    (3) Torsional Free Energy           =   +2.98 kcal/mol
DOCKED: USER    (4) Unbound System's Energy  [=(2)] =   -1.69 kcal/mol
DOCKED: USER    
DOCKED: USER    
DOCKED: USER    NEWDPF move heme_O2_opt.pdbqt
DOCKED: USER    NEWDPF about 8.287000 34.468000 -0.670000
DOCKED: USER    NEWDPF tran0 -13.284256 1.463073 9.670332
DOCKED: USER    NEWDPF quaternion0 0.378934 0.523228 0.638477 0.418317
DOCKED: USER    NEWDPF axisangle0 0.417190 0.576051 0.702935 130.543299
DOCKED: USER    NEWDPF quat0 0.417190 0.576051 0.702935 130.543299
DOCKED: USER    NEWDPF dihe0 131.94 -52.22 58.40 -108.60 17.31 -175.66 87.07 124.18 21.76 27.80 
DOCKED: USER  keepresnum = 1 
DOCKED: USER  
DOCKED: REMARK  10 active torsions:
DOCKED: REMARK  status: ('A' for Active; 'I' for Inactive)
DOCKED: REMARK    1  A    between atoms: C_6  and  C_10 
DOCKED: REMARK    2  A    between atoms: C_10  and  C_11 
DOCKED: REMARK    3  A    between atoms: C_11  and  C_12 
DOCKED: REMARK    4  A    between atoms: C_12  and  O_14 
DOCKED: REMARK    5  A    between atoms: C_17  and  C_20 
DOCKED: REMARK    6  A    between atoms: C_24  and  C_27 
DOCKED: REMARK    7  A    between atoms: C_31  and  C_34 
DOCKED: REMARK    8  A    between atoms: C_34  and  C_35 
DOCKED: REMARK    9  A    between atoms: C_35  and  C_36 
DOCKED: REMARK   10  A    between atoms: C_36  and  O_38 
DOCKED: USER                              x       y       z     vdW  Elec       q    Type
DOCKED: USER                           _______ _______ _______ _____ _____    ______ ____
DOCKED: ROOT
DOCKED: ATOM      1  C   UNL d   1     -12.082   0.871   8.026 -0.20 +0.02    +0.064 A 
DOCKED: ATOM      2  C   UNL d   1     -14.876   4.640   8.764 +0.11 +0.02    +0.064 A 
DOCKED: ATOM      3  C   UNL d   1     -16.095   3.001  13.114 -0.10 +0.03    +0.064 C 
DOCKED: ATOM      4  C   UNL d   1     -12.854  -0.640  12.561 -0.13 +0.02    +0.064 A 
DOCKED: ATOM      5  C   UNL d   1     -12.741   2.031   7.873 -0.17 +0.02    +0.066 A 
DOCKED: ATOM      6  C   UNL d   1     -12.678   2.821   6.721 -0.18 -0.00    -0.021 A 
DOCKED: ATOM      7  C   UNL d   1     -13.452   3.934   6.951 -0.14 -0.00    -0.025 A 
DOCKED: ATOM      8  C   UNL d   1     -14.006   3.770   8.217 -0.12 +0.02    +0.066 A 
DOCKED: ATOM      9  C   UNL d   1     -13.606   5.094   5.991 -0.17 +0.00    +0.051 C 
DOCKED: ATOM     10  C   UNL d   1     -15.507   4.510  10.078 +0.03 +0.03    +0.066 A 
DOCKED: ATOM     11  C   UNL d   1     -16.526   5.356  10.529 -0.04 -0.01    -0.021 A 
DOCKED: ATOM     12  C   UNL d   1     -16.904   4.889  11.774 -0.08 +0.00    +0.000 A 
DOCKED: ATOM     13  C   UNL d   1     -16.066   3.767  12.023 -0.10 +0.03    +0.070 A 
DOCKED: ATOM     14  C   UNL d   1     -17.134   6.544   9.791 -0.07 +0.01    +0.052 C 
DOCKED: ATOM     15  C   UNL d   1     -15.241   1.879  13.420 -0.10 +0.04    +0.066 A 
DOCKED: ATOM     16  C   UNL d   1     -15.209   1.220  14.649 -0.09 -0.01    -0.021 A 
DOCKED: ATOM     17  C   UNL d   1     -14.292   0.179  14.515 -0.10 +0.00    +0.000 A 
DOCKED: ATOM     18  C   UNL d   1     -13.827   0.280  13.196 -0.12 +0.03    +0.070 A 
DOCKED: ATOM     19  C   UNL d   1     -16.008   1.673  15.845 -0.07 +0.03    +0.052 C 
DOCKED: ATOM     20  C   UNL d   1     -12.354  -0.546  11.313 -0.15 +0.02    +0.066 A 
DOCKED: ATOM     21  C   UNL d   1     -11.453  -1.453  10.763 -0.21 -0.01    -0.025 A 
DOCKED: ATOM     22  C   UNL d   1     -11.243  -1.054   9.462 -0.29 -0.01    -0.021 A 
DOCKED: ATOM     23  C   UNL d   1     -12.013   0.097   9.271 -0.20 +0.02    +0.066 A 
DOCKED: ATOM     24  C   UNL d   1     -10.821  -2.639  11.446 -0.17 +0.01    +0.051 C 
DOCKED: ATOM     25  N   UNL d   1     -13.516   2.629   8.810 -0.09 -0.07    -0.248 N 
DOCKED: ATOM     26  N   UNL d   1     -15.216   3.546  10.988 -0.08 -0.10    -0.248 N 
DOCKED: ATOM     27  N   UNL d   1     -14.357   1.362  12.570 -0.08 -0.13    -0.248 N 
DOCKED: ATOM     28  N   UNL d   1     -12.652   0.428  10.412 -0.08 -0.08    -0.248 N 
DOCKED: ATOM     29 FE   UNL d   1     -13.925   1.975  10.701 -0.03 +0.00    +0.000 Fe
DOCKED: ATOM     30  O   UNL d   1     -13.057   3.266  10.657 -0.37 +0.00    +0.000 OA
DOCKED: ATOM     31  O   UNL d   1     -12.737   2.146  11.717 -0.38 +0.00    +0.000 OA
DOCKED: ENDROOT
DOCKED: BRANCH   6  32
DOCKED: ATOM     32  C   UNL d   1     -11.815   2.610   5.504 -0.08 +0.01    +0.052 C 
DOCKED: BRANCH  32  33
DOCKED: ATOM     33  C   UNL d   1     -12.602   2.099   4.301 -0.17 +0.05    +0.115 C 
DOCKED: BRANCH  33  34
DOCKED: ATOM     34  C   UNL d   1     -12.553   0.597   4.177 -0.15 +0.14    +0.139 C 
DOCKED: ATOM     35  O   UNL d   1     -12.323   0.088   3.092 -0.31 -0.88    -0.650 OA
DOCKED: BRANCH  34  36
DOCKED: ATOM     36  O   UNL d   1     -12.786  -0.205   5.237 -0.36 -1.12    -0.776 OA
DOCKED: ATOM     37  H   UNL d   1     -13.386  -0.958   5.186 +0.04 +0.37    +0.167 HD
DOCKED: ENDBRANCH  34  36
DOCKED: ENDBRANCH  33  34
DOCKED: ENDBRANCH  32  33
DOCKED: ENDBRANCH   6  32
DOCKED: BRANCH  22  38
DOCKED: ATOM     38  C   UNL d   1     -10.303  -1.709   8.483 -0.42 +0.02    +0.052 C 
DOCKED: BRANCH  38  39
DOCKED: ATOM     39  C   UNL d   1     -10.974  -2.010   7.145 -0.22 +0.09    +0.115 C 
DOCKED: BRANCH  39  40
DOCKED: ATOM     40  C   UNL d   1     -12.197  -2.879   7.295 -0.15 +0.12    +0.139 C 
DOCKED: ATOM     41  O   UNL d   1     -12.251  -3.698   8.198 +0.02 -0.32    -0.650 OA
DOCKED: BRANCH  40  42
DOCKED: ATOM     42  O   UNL d   1     -13.259  -2.733   6.479 -0.37 -1.19    -0.776 OA
DOCKED: ATOM     43  H   UNL d   1     -13.651  -1.868   6.311 +0.02 +0.25    +0.167 HD
DOCKED: ENDBRANCH  40  42
DOCKED: ENDBRANCH  39  40
DOCKED: ENDBRANCH  38  39
DOCKED: ENDBRANCH  22  38
DOCKED: BRANCH  12  44
DOCKED: ATOM     44  C   UNL d   1     -18.000   5.551  12.583 -0.04 +0.00    +0.004 C 
DOCKED: ATOM     45  C   UNL d   1     -17.935   6.001  13.836 -0.04 +0.00    +0.012 C 
DOCKED: ENDBRANCH  12  44
DOCKED: BRANCH  17  46
DOCKED: ATOM     46  C   UNL d   1     -13.792  -0.832  15.512 -0.10 +0.00    +0.004 C 
DOCKED: ATOM     47  C   UNL d   1     -12.550  -0.980  15.990 -0.14 +0.01    +0.012 C 
DOCKED: ENDBRANCH  17  46
DOCKED: TORSDOF 10
DOCKED: TER
DOCKED: ENDMDL
________________________________________________________________________________


	BEGINNING GENETIC ALGORITHM DOCKING 32 of 100
Run: 32 Seed: 437280020 2058333164 [ Run 32 of 100 GA/GALS ]
Beginning LAMARCKIAN GENETIC ALGORITHM (LGA), with a maximum of 25000000 energy evaluations.

Final-Value: -9.593


	FINAL GENETIC ALGORITHM DOCKED STATE
	_______________________________________________


Detailed state:  trans -2.154 18.814 4.907 quatxyzw -0.094259 -0.594348 -0.331504 -0.726616 center 8.287 34.468 -0.670 ntor 10 0.7981 137.2615 -19.4477 -114.5224 -115.8544 -116.3308 170.3202 -93.0722 13.4380 -4.6172
State:	 -2.154  18.814   4.907  -0.137 -0.865 -0.483 -86.793      0.80  137.26  -19.45 -114.52 -115.85 -116.33  170.32  -93.07   13.44   -4.62

DOCKED: MODEL       32
DOCKED: USER    Run = 32
DOCKED: USER    DPF = D:/Protein_go_brrr/autodock/final/mut_D99N/heme_O2/dock.dpf
DOCKED: USER  
DOCKED: USER    Estimated Free Energy of Binding    =   -4.22 kcal/mol  [=(1)+(2)+(3)-(4)]
DOCKED: USER    Estimated Inhibition Constant, Ki   =  800.21 uM (micromolar)  [Temperature = 298.15 K]
DOCKED: USER    
DOCKED: USER    (1) Final Intermolecular Energy     =   -7.21 kcal/mol
DOCKED: USER        vdW + Hbond + desolv Energy     =   -6.49 kcal/mol
DOCKED: USER        Electrostatic Energy            =   -0.71 kcal/mol
DOCKED: USER    (2) Final Total Internal Energy     =   -2.39 kcal/mol
DOCKED: USER    (3) Torsional Free Energy           =   +2.98 kcal/mol
DOCKED: USER    (4) Unbound System's Energy  [=(2)] =   -2.39 kcal/mol
DOCKED: USER    
DOCKED: USER    
DOCKED: USER    NEWDPF move heme_O2_opt.pdbqt
DOCKED: USER    NEWDPF about 8.287000 34.468000 -0.670000
DOCKED: USER    NEWDPF tran0 -2.153685 18.814430 4.907259
DOCKED: USER    NEWDPF quaternion0 -0.094259 -0.594348 -0.331504 -0.726616
DOCKED: USER    NEWDPF axisangle0 -0.137195 -0.865080 -0.482507 -86.793126
DOCKED: USER    NEWDPF quat0 -0.137195 -0.865080 -0.482507 -86.793126
DOCKED: USER    NEWDPF dihe0 0.80 137.26 -19.45 -114.52 -115.85 -116.33 170.32 -93.07 13.44 -4.62 
DOCKED: USER  keepresnum = 1 
DOCKED: USER  
DOCKED: REMARK  10 active torsions:
DOCKED: REMARK  status: ('A' for Active; 'I' for Inactive)
DOCKED: REMARK    1  A    between atoms: C_6  and  C_10 
DOCKED: REMARK    2  A    between atoms: C_10  and  C_11 
DOCKED: REMARK    3  A    between atoms: C_11  and  C_12 
DOCKED: REMARK    4  A    between atoms: C_12  and  O_14 
DOCKED: REMARK    5  A    between atoms: C_17  and  C_20 
DOCKED: REMARK    6  A    between atoms: C_24  and  C_27 
DOCKED: REMARK    7  A    between atoms: C_31  and  C_34 
DOCKED: REMARK    8  A    between atoms: C_34  and  C_35 
DOCKED: REMARK    9  A    between atoms: C_35  and  C_36 
DOCKED: REMARK   10  A    between atoms: C_36  and  O_38 
DOCKED: USER                              x       y       z     vdW  Elec       q    Type
DOCKED: USER                           _______ _______ _______ _____ _____    ______ ____
DOCKED: ROOT
DOCKED: ATOM      1  C   UNL d   1      -1.293  19.540   3.109 -0.16 +0.01    +0.064 A 
DOCKED: ATOM      2  C   UNL d   1      -5.796  18.995   4.519 -0.16 +0.03    +0.064 A 
DOCKED: ATOM      3  C   UNL d   1      -4.355  17.188   8.732 -0.25 -0.00    +0.064 C 
DOCKED: ATOM      4  C   UNL d   1       0.282  18.188   7.483 -0.23 +0.01    +0.064 A 
DOCKED: ATOM      5  C   UNL d   1      -2.635  19.541   3.150 -0.13 +0.02    +0.066 A 
DOCKED: ATOM      6  C   UNL d   1      -3.450  19.971   2.098 -0.09 -0.01    -0.021 A 
DOCKED: ATOM      7  C   UNL d   1      -4.753  19.854   2.521 -0.10 -0.01    -0.025 A 
DOCKED: ATOM      8  C   UNL d   1      -4.700  19.311   3.802 -0.15 +0.03    +0.066 A 
DOCKED: ATOM      9  C   UNL d   1      -5.964  20.282   1.722 -0.03 +0.03    +0.051 C 
DOCKED: ATOM     10  C   UNL d   1      -5.804  18.402   5.857 -0.18 +0.02    +0.066 A 
DOCKED: ATOM     11  C   UNL d   1      -6.965  17.943   6.488 -0.15 -0.00    -0.021 A 
DOCKED: ATOM     12  C   UNL d   1      -6.568  17.402   7.697 -0.19 +0.00    +0.000 A 
DOCKED: ATOM     13  C   UNL d   1      -5.157  17.576   7.741 -0.20 +0.00    +0.070 A 
DOCKED: ATOM     14  C   UNL d   1      -8.390  17.994   5.949 -0.16 +0.01    +0.052 C 
DOCKED: ATOM     15  C   UNL d   1      -2.928  17.377   8.830 -0.23 -0.00    +0.066 A 
DOCKED: ATOM     16  C   UNL d   1      -2.169  17.096   9.966 -0.23 +0.00    -0.021 A 
DOCKED: ATOM     17  C   UNL d   1      -0.844  17.374   9.634 -0.19 +0.00    +0.000 A 
DOCKED: ATOM     18  C   UNL d   1      -0.893  17.808   8.302 -0.23 +0.01    +0.070 A 
DOCKED: ATOM     19  C   UNL d   1      -2.777  16.644  11.270 -0.20 -0.01    +0.052 C 
DOCKED: ATOM     20  C   UNL d   1       0.266  18.650   6.218 -0.28 +0.01    +0.066 A 
DOCKED: ATOM     21  C   UNL d   1       1.408  18.974   5.491 -0.21 -0.00    -0.025 A 
DOCKED: ATOM     22  C   UNL d   1       0.980  19.336   4.233 -0.21 -0.00    -0.021 A 
DOCKED: ATOM     23  C   UNL d   1      -0.414  19.235   4.245 -0.16 +0.01    +0.066 A 
DOCKED: ATOM     24  C   UNL d   1       2.835  18.945   5.973 -0.19 +0.00    +0.051 C 
DOCKED: ATOM     25  N   UNL d   1      -3.394  19.179   4.213 -0.08 -0.07    -0.248 N 
DOCKED: ATOM     26  N   UNL d   1      -4.701  18.189   6.619 -0.13 -0.04    -0.248 N 
DOCKED: ATOM     27  N   UNL d   1      -2.174  17.875   7.855 -0.18 -0.02    -0.248 N 
DOCKED: ATOM     28  N   UNL d   1      -0.847  18.861   5.466 -0.13 -0.04    -0.248 N 
DOCKED: ATOM     29 FE   UNL d   1      -2.759  18.527   6.041 -0.06 +0.00    +0.000 Fe
DOCKED: ATOM     30  O   UNL d   1      -3.452  19.920   6.077 -0.11 +0.00    +0.000 OA
DOCKED: ATOM     31  O   UNL d   1      -2.179  19.658   6.967 -0.13 +0.00    +0.000 OA
DOCKED: ENDROOT
DOCKED: BRANCH   6  32
DOCKED: ATOM     32  C   UNL d   1      -3.022  20.597   0.796 -0.04 +0.01    +0.052 C 
DOCKED: BRANCH  32  33
DOCKED: ATOM     33  C   UNL d   1      -2.947  19.592  -0.349 -0.05 +0.03    +0.115 C 
DOCKED: BRANCH  33  34
DOCKED: ATOM     34  C   UNL d   1      -3.036  18.165   0.132 -0.17 +0.06    +0.139 C 
DOCKED: ATOM     35  O   UNL d   1      -4.121  17.608   0.171 -0.02 -0.53    -0.650 OA
DOCKED: BRANCH  34  36
DOCKED: ATOM     36  O   UNL d   1      -1.942  17.494   0.550 +0.03 -0.20    -0.776 OA
DOCKED: ATOM     37  H   UNL d   1      -1.069  17.903   0.571 +0.04 +0.03    +0.167 HD
DOCKED: ENDBRANCH  34  36
DOCKED: ENDBRANCH  33  34
DOCKED: ENDBRANCH  32  33
DOCKED: ENDBRANCH   6  32
DOCKED: BRANCH  22  38
DOCKED: ATOM     38  C   UNL d   1       1.862  19.812   3.108 -0.16 +0.00    +0.052 C 
DOCKED: BRANCH  38  39
DOCKED: ATOM     39  C   UNL d   1       2.216  18.693   2.131 -0.11 +0.01    +0.115 C 
DOCKED: BRANCH  39  40
DOCKED: ATOM     40  C   UNL d   1       1.167  18.508   1.063 -0.22 +0.01    +0.139 C 
DOCKED: ATOM     41  O   UNL d   1       0.483  19.456   0.715 -0.01 -0.05    -0.650 OA
DOCKED: BRANCH  40  42
DOCKED: ATOM     42  O   UNL d   1       1.004  17.321   0.447 -0.03 -0.05    -0.776 OA
DOCKED: ATOM     43  H   UNL d   1       0.127  16.977   0.237 +0.04 +0.01    +0.167 HD
DOCKED: ENDBRANCH  40  42
DOCKED: ENDBRANCH  39  40
DOCKED: ENDBRANCH  38  39
DOCKED: ENDBRANCH  22  38
DOCKED: BRANCH  12  44
DOCKED: ATOM     44  C   UNL d   1      -7.557  16.790   8.668 -0.20 -0.00    +0.004 C 
DOCKED: ATOM     45  C   UNL d   1      -7.321  15.881   9.612 -0.27 -0.00    +0.012 C 
DOCKED: ENDBRANCH  12  44
DOCKED: BRANCH  17  46
DOCKED: ATOM     46  C   UNL d   1       0.414  17.322  10.460 -0.08 +0.00    +0.004 C 
DOCKED: ATOM     47  C   UNL d   1       1.276  18.313  10.721 -0.11 -0.00    +0.012 C 
DOCKED: ENDBRANCH  17  46
DOCKED: TORSDOF 10
DOCKED: TER
DOCKED: ENDMDL
________________________________________________________________________________


	BEGINNING GENETIC ALGORITHM DOCKING 33 of 100
Run: 33 Seed: 1869157438 1091187195 [ Run 33 of 100 GA/GALS ]
Beginning LAMARCKIAN GENETIC ALGORITHM (LGA), with a maximum of 25000000 energy evaluations.

Final-Value: -17.950


	FINAL GENETIC ALGORITHM DOCKED STATE
	_______________________________________________


Detailed state:  trans -8.652 2.533 1.242 quatxyzw 0.598792 0.293888 0.274053 -0.692801 center 8.287 34.468 -0.670 ntor 10 -163.8725 11.3155 128.9906 -28.5112 -179.5523 90.7258 62.8251 7.4138 -38.2877 162.4797
State:	 -8.652   2.533   1.242   0.830  0.408  0.380 -92.296   -163.87   11.32  128.99  -28.51 -179.55   90.73   62.83    7.41  -38.29  162.48

DOCKED: MODEL       33
DOCKED: USER    Run = 33
DOCKED: USER    DPF = D:/Protein_go_brrr/autodock/final/mut_D99N/heme_O2/dock.dpf
DOCKED: USER  
DOCKED: USER    Estimated Free Energy of Binding    =  -13.05 kcal/mol  [=(1)+(2)+(3)-(4)]
DOCKED: USER    Estimated Inhibition Constant, Ki   =  270.05 pM (picomolar)  [Temperature = 298.15 K]
DOCKED: USER    
DOCKED: USER    (1) Final Intermolecular Energy     =  -16.04 kcal/mol
DOCKED: USER        vdW + Hbond + desolv Energy     =  -14.35 kcal/mol
DOCKED: USER        Electrostatic Energy            =   -1.68 kcal/mol
DOCKED: USER    (2) Final Total Internal Energy     =   -1.91 kcal/mol
DOCKED: USER    (3) Torsional Free Energy           =   +2.98 kcal/mol
DOCKED: USER    (4) Unbound System's Energy  [=(2)] =   -1.91 kcal/mol
DOCKED: USER    
DOCKED: USER    
DOCKED: USER    NEWDPF move heme_O2_opt.pdbqt
DOCKED: USER    NEWDPF about 8.287000 34.468000 -0.670000
DOCKED: USER    NEWDPF tran0 -8.651638 2.533404 1.241753
DOCKED: USER    NEWDPF quaternion0 0.598792 0.293888 0.274053 -0.692801
DOCKED: USER    NEWDPF axisangle0 0.830353 0.407538 0.380034 -92.295547
DOCKED: USER    NEWDPF quat0 0.830353 0.407538 0.380034 -92.295547
DOCKED: USER    NEWDPF dihe0 -163.87 11.32 128.99 -28.51 -179.55 90.73 62.83 7.41 -38.29 162.48 
DOCKED: USER  keepresnum = 1 
DOCKED: USER  
DOCKED: REMARK  10 active torsions:
DOCKED: REMARK  status: ('A' for Active; 'I' for Inactive)
DOCKED: REMARK    1  A    between atoms: C_6  and  C_10 
DOCKED: REMARK    2  A    between atoms: C_10  and  C_11 
DOCKED: REMARK    3  A    between atoms: C_11  and  C_12 
DOCKED: REMARK    4  A    between atoms: C_12  and  O_14 
DOCKED: REMARK    5  A    between atoms: C_17  and  C_20 
DOCKED: REMARK    6  A    between atoms: C_24  and  C_27 
DOCKED: REMARK    7  A    between atoms: C_31  and  C_34 
DOCKED: REMARK    8  A    between atoms: C_34  and  C_35 
DOCKED: REMARK    9  A    between atoms: C_35  and  C_36 
DOCKED: REMARK   10  A    between atoms: C_36  and  O_38 
DOCKED: USER                              x       y       z     vdW  Elec       q    Type
DOCKED: USER                           _______ _______ _______ _____ _____    ______ ____
DOCKED: ROOT
DOCKED: ATOM      1  C   UNL d   1     -10.523   1.780   1.898 -0.23 +0.02    +0.064 A 
DOCKED: ATOM      2  C   UNL d   1      -6.925  -0.201  -0.488 -0.40 +0.01    +0.064 A 
DOCKED: ATOM      3  C   UNL d   1      -4.474   3.932  -0.407 -0.20 +0.01    +0.064 C 
DOCKED: ATOM      4  C   UNL d   1      -7.961   5.849   2.463 -0.39 +0.01    +0.064 A 
DOCKED: ATOM      5  C   UNL d   1      -9.744   0.903   1.244 -0.26 +0.02    +0.066 A 
DOCKED: ATOM      6  C   UNL d   1     -10.105  -0.421   0.981 -0.33 -0.01    -0.021 A 
DOCKED: ATOM      7  C   UNL d   1      -9.046  -1.008   0.328 -0.32 -0.01    -0.025 A 
DOCKED: ATOM      8  C   UNL d   1      -8.087  -0.012   0.167 -0.37 +0.01    +0.066 A 
DOCKED: ATOM      9  C   UNL d   1      -8.980  -2.463  -0.080 -0.35 +0.01    +0.051 C 
DOCKED: ATOM     10  C   UNL d   1      -5.891   0.811  -0.709 -0.39 +0.01    +0.066 A 
DOCKED: ATOM     11  C   UNL d   1      -4.780   0.608  -1.536 -0.42 -0.00    -0.021 A 
DOCKED: ATOM     12  C   UNL d   1      -4.071   1.795  -1.540 -0.37 +0.00    +0.000 A 
DOCKED: ATOM     13  C   UNL d   1      -4.798   2.670  -0.686 -0.32 +0.01    +0.070 A 
DOCKED: ATOM     14  C   UNL d   1      -4.426  -0.655  -2.312 -0.51 +0.00    +0.052 C 
DOCKED: ATOM     15  C   UNL d   1      -5.165   4.839   0.479 -0.41 +0.01    +0.066 A 
DOCKED: ATOM     16  C   UNL d   1      -4.685   6.092   0.857 -0.51 -0.00    -0.021 A 
DOCKED: ATOM     17  C   UNL d   1      -5.662   6.657   1.677 -0.51 +0.00    +0.000 A 
DOCKED: ATOM     18  C   UNL d   1      -6.679   5.694   1.736 -0.41 +0.01    +0.070 A 
DOCKED: ATOM     19  C   UNL d   1      -3.328   6.611   0.452 -0.50 +0.01    +0.052 C 
DOCKED: ATOM     20  C   UNL d   1      -8.938   4.928   2.576 -0.43 +0.01    +0.066 A 
DOCKED: ATOM     21  C   UNL d   1     -10.132   5.138   3.261 -0.44 -0.00    -0.025 A 
DOCKED: ATOM     22  C   UNL d   1     -10.886   3.999   3.087 -0.26 -0.00    -0.021 A 
DOCKED: ATOM     23  C   UNL d   1     -10.113   3.126   2.315 -0.25 +0.02    +0.066 A 
DOCKED: ATOM     24  C   UNL d   1     -10.532   6.362   4.043 -0.28 -0.00    +0.051 C 
DOCKED: ATOM     25  N   UNL d   1      -8.490   1.147   0.789 -0.11 -0.07    -0.248 N 
DOCKED: ATOM     26  N   UNL d   1      -5.902   2.062  -0.181 -0.26 -0.03    -0.248 N 
DOCKED: ATOM     27  N   UNL d   1      -6.327   4.567   1.065 -0.24 -0.04    -0.248 N 
DOCKED: ATOM     28  N   UNL d   1      -8.912   3.677   2.045 -0.16 -0.08    -0.248 N 
DOCKED: ATOM     29 FE   UNL d   1      -7.416   2.878   0.941 -0.09 +0.00    +0.000 Fe
DOCKED: ATOM     30  O   UNL d   1      -6.836   1.703   1.780 -0.66 +0.00    +0.000 OA
DOCKED: ATOM     31  O   UNL d   1      -6.843   3.161   2.377 -0.92 +0.00    +0.000 OA
DOCKED: ENDROOT
DOCKED: BRANCH   6  32
DOCKED: ATOM     32  C   UNL d   1     -11.339  -1.150   1.445 +0.13 +0.05    +0.052 C 
DOCKED: BRANCH  32  33
DOCKED: ATOM     33  C   UNL d   1     -12.614  -0.332   1.264 -0.16 +0.10    +0.115 C 
DOCKED: BRANCH  33  34
DOCKED: ATOM     34  C   UNL d   1     -13.320  -0.070   2.571 -0.04 +0.18    +0.139 C 
DOCKED: ATOM     35  O   UNL d   1     -12.671   0.005   3.603 -0.40 -1.07    -0.650 OA
DOCKED: BRANCH  34  36
DOCKED: ATOM     36  O   UNL d   1     -14.662   0.055   2.633 +0.01 -0.68    -0.776 OA
DOCKED: ATOM     37  H   UNL d   1     -15.104   0.445   3.396 +0.03 +0.11    +0.167 HD
DOCKED: ENDBRANCH  34  36
DOCKED: ENDBRANCH  33  34
DOCKED: ENDBRANCH  32  33
DOCKED: ENDBRANCH   6  32
DOCKED: BRANCH  22  38
DOCKED: ATOM     38  C   UNL d   1     -12.245   3.746   3.687 -0.20 +0.01    +0.052 C 
DOCKED: BRANCH  38  39
DOCKED: ATOM     39  C   UNL d   1     -12.168   2.955   4.991 -0.20 +0.03    +0.115 C 
DOCKED: BRANCH  39  40
DOCKED: ATOM     40  C   UNL d   1     -13.529   2.570   5.513 -0.10 +0.04    +0.139 C 
DOCKED: ATOM     41  O   UNL d   1     -13.855   2.885   6.647 +0.05 -0.16    -0.650 OA
DOCKED: BRANCH  40  42
DOCKED: ATOM     42  O   UNL d   1     -14.418   1.927   4.732 +0.06 -0.30    -0.776 OA
DOCKED: ATOM     43  H   UNL d   1     -14.155   1.519   3.899 +0.04 +0.09    +0.167 HD
DOCKED: ENDBRANCH  40  42
DOCKED: ENDBRANCH  39  40
DOCKED: ENDBRANCH  38  39
DOCKED: ENDBRANCH  22  38
DOCKED: BRANCH  12  44
DOCKED: ATOM     44  C   UNL d   1      -2.796   1.967  -2.338 -0.54 +0.00    +0.004 C 
DOCKED: ATOM     45  C   UNL d   1      -1.691   1.223  -2.287 -0.56 +0.00    +0.012 C 
DOCKED: ENDBRANCH  12  44
DOCKED: BRANCH  17  46
DOCKED: ATOM     46  C   UNL d   1      -5.688   7.961   2.429 -0.62 +0.00    +0.004 C 
DOCKED: ATOM     47  C   UNL d   1      -4.670   8.592   3.028 -0.53 +0.00    +0.012 C 
DOCKED: ENDBRANCH  17  46
DOCKED: TORSDOF 10
DOCKED: TER
DOCKED: ENDMDL
________________________________________________________________________________


	BEGINNING GENETIC ALGORITHM DOCKING 34 of 100
Run: 34 Seed: 1437665793 1853451452 [ Run 34 of 100 GA/GALS ]
Beginning LAMARCKIAN GENETIC ALGORITHM (LGA), with a maximum of 25000000 energy evaluations.

Final-Value: -9.368


	FINAL GENETIC ALGORITHM DOCKED STATE
	_______________________________________________


Detailed state:  trans 21.708 -9.435 -3.386 quatxyzw -0.647359 -0.645949 0.233030 0.330715 center 8.287 34.468 -0.670 ntor 10 -179.1559 18.1139 -112.3235 128.9588 -9.2726 117.9671 -80.6504 7.6603 -157.0711 -179.8042
State:	 21.708  -9.435  -3.386  -0.686 -0.684  0.247 141.376   -179.16   18.11 -112.32  128.96   -9.27  117.97  -80.65    7.66 -157.07 -179.80

DOCKED: MODEL       34
DOCKED: USER    Run = 34
DOCKED: USER    DPF = D:/Protein_go_brrr/autodock/final/mut_D99N/heme_O2/dock.dpf
DOCKED: USER  
DOCKED: USER    Estimated Free Energy of Binding    =   -4.12 kcal/mol  [=(1)+(2)+(3)-(4)]
DOCKED: USER    Estimated Inhibition Constant, Ki   =  954.93 uM (micromolar)  [Temperature = 298.15 K]
DOCKED: USER    
DOCKED: USER    (1) Final Intermolecular Energy     =   -7.10 kcal/mol
DOCKED: USER        vdW + Hbond + desolv Energy     =   -5.32 kcal/mol
DOCKED: USER        Electrostatic Energy            =   -1.78 kcal/mol
DOCKED: USER    (2) Final Total Internal Energy     =   -2.27 kcal/mol
DOCKED: USER    (3) Torsional Free Energy           =   +2.98 kcal/mol
DOCKED: USER    (4) Unbound System's Energy  [=(2)] =   -2.27 kcal/mol
DOCKED: USER    
DOCKED: USER    
DOCKED: USER    NEWDPF move heme_O2_opt.pdbqt
DOCKED: USER    NEWDPF about 8.287000 34.468000 -0.670000
DOCKED: USER    NEWDPF tran0 21.707512 -9.435090 -3.386208
DOCKED: USER    NEWDPF quaternion0 -0.647359 -0.645949 0.233030 0.330715
DOCKED: USER    NEWDPF axisangle0 -0.685958 -0.684463 0.246924 141.375609
DOCKED: USER    NEWDPF quat0 -0.685958 -0.684463 0.246924 141.375609
DOCKED: USER    NEWDPF dihe0 -179.16 18.11 -112.32 128.96 -9.27 117.97 -80.65 7.66 -157.07 -179.80 
DOCKED: USER  keepresnum = 1 
DOCKED: USER  
DOCKED: REMARK  10 active torsions:
DOCKED: REMARK  status: ('A' for Active; 'I' for Inactive)
DOCKED: REMARK    1  A    between atoms: C_6  and  C_10 
DOCKED: REMARK    2  A    between atoms: C_10  and  C_11 
DOCKED: REMARK    3  A    between atoms: C_11  and  C_12 
DOCKED: REMARK    4  A    between atoms: C_12  and  O_14 
DOCKED: REMARK    5  A    between atoms: C_17  and  C_20 
DOCKED: REMARK    6  A    between atoms: C_24  and  C_27 
DOCKED: REMARK    7  A    between atoms: C_31  and  C_34 
DOCKED: REMARK    8  A    between atoms: C_34  and  C_35 
DOCKED: REMARK    9  A    between atoms: C_35  and  C_36 
DOCKED: REMARK   10  A    between atoms: C_36  and  O_38 
DOCKED: USER                              x       y       z     vdW  Elec       q    Type
DOCKED: USER                           _______ _______ _______ _____ _____    ______ ____
DOCKED: ROOT
DOCKED: ATOM      1  C   UNL d   1      22.097 -10.095  -1.408 -0.18 +0.00    +0.064 A 
DOCKED: ATOM      2  C   UNL d   1      19.928 -12.142  -5.105 -0.08 +0.00    +0.064 A 
DOCKED: ATOM      3  C   UNL d   1      20.630  -8.228  -7.803 -0.18 +0.01    +0.064 C 
DOCKED: ATOM      4  C   UNL d   1      23.284  -6.292  -4.159 -0.12 +0.01    +0.064 A 
DOCKED: ATOM      5  C   UNL d   1      21.451 -10.972  -2.194 -0.16 -0.00    +0.066 A 
DOCKED: ATOM      6  C   UNL d   1      21.036 -12.240  -1.776 -0.14 -0.00    -0.021 A 
DOCKED: ATOM      7  C   UNL d   1      20.446 -12.850  -2.859 -0.09 -0.00    -0.025 A 
DOCKED: ATOM      8  C   UNL d   1      20.475 -11.920  -3.894 -0.08 +0.00    +0.066 A 
DOCKED: ATOM      9  C   UNL d   1      19.919 -14.268  -2.872 -0.04 +0.00    +0.051 C 
DOCKED: ATOM     10  C   UNL d   1      19.907 -11.197  -6.223 -0.11 +0.01    +0.066 A 
DOCKED: ATOM     11  C   UNL d   1      19.184 -11.416  -7.401 -0.13 -0.00    -0.021 A 
DOCKED: ATOM     12  C   UNL d   1      19.360 -10.290  -8.184 -0.21 +0.00    +0.000 A 
DOCKED: ATOM     13  C   UNL d   1      20.208  -9.435  -7.428 -0.19 +0.01    +0.070 A 
DOCKED: ATOM     14  C   UNL d   1      18.340 -12.635  -7.753 -0.07 +0.00    +0.052 C 
DOCKED: ATOM     15  C   UNL d   1      21.517  -7.347  -7.082 -0.25 +0.01    +0.066 A 
DOCKED: ATOM     16  C   UNL d   1      22.054  -6.168  -7.600 -0.24 -0.00    -0.021 A 
DOCKED: ATOM     17  C   UNL d   1      22.815  -5.599  -6.579 -0.17 +0.00    +0.000 A 
DOCKED: ATOM     18  C   UNL d   1      22.682  -6.484  -5.499 -0.17 +0.01    +0.070 A 
DOCKED: ATOM     19  C   UNL d   1      21.839  -5.723  -9.024 -0.17 +0.01    +0.052 C 
DOCKED: ATOM     20  C   UNL d   1      23.213  -7.142  -3.116 -0.11 +0.01    +0.066 A 
DOCKED: ATOM     21  C   UNL d   1      23.787  -6.899  -1.871 -0.08 -0.00    -0.025 A 
DOCKED: ATOM     22  C   UNL d   1      23.435  -7.959  -1.066 -0.15 -0.00    -0.021 A 
DOCKED: ATOM     23  C   UNL d   1      22.673  -8.823  -1.858 -0.17 +0.00    +0.066 A 
DOCKED: ATOM     24  C   UNL d   1      24.630  -5.716  -1.470 -0.05 +0.01    +0.051 C 
DOCKED: ATOM     25  N   UNL d   1      21.152 -10.788  -3.504 -0.02 -0.01    -0.248 N 
DOCKED: ATOM     26  N   UNL d   1      20.540  -9.997  -6.238 -0.07 -0.04    -0.248 N 
DOCKED: ATOM     27  N   UNL d   1      21.954  -7.576  -5.847 -0.15 -0.04    -0.248 N 
DOCKED: ATOM     28  N   UNL d   1      22.578  -8.344  -3.116 -0.09 -0.02    -0.248 N 
DOCKED: ATOM     29 FE   UNL d   1      21.567  -9.162  -4.667 -0.04 +0.00    +0.000 Fe
DOCKED: ATOM     30  O   UNL d   1      22.355 -10.442  -5.073 -0.09 +0.00    +0.000 OA
DOCKED: ATOM     31  O   UNL d   1      23.075  -9.042  -5.098 -0.10 +0.00    +0.000 OA
DOCKED: ENDROOT
DOCKED: BRANCH   6  32
DOCKED: ATOM     32  C   UNL d   1      21.303 -12.909  -0.453 -0.13 +0.00    +0.052 C 
DOCKED: BRANCH  32  33
DOCKED: ATOM     33  C   UNL d   1      22.748 -13.376  -0.306 -0.05 +0.01    +0.115 C 
DOCKED: BRANCH  33  34
DOCKED: ATOM     34  C   UNL d   1      23.596 -12.389   0.458 -0.08 +0.03    +0.139 C 
DOCKED: ATOM     35  O   UNL d   1      24.811 -12.429   0.351 +0.01 -0.17    -0.650 OA
DOCKED: BRANCH  34  36
DOCKED: ATOM     36  O   UNL d   1      23.043 -11.476   1.282 -0.00 -0.33    -0.776 OA
DOCKED: ATOM     37  H   UNL d   1      23.576 -10.831   1.762 +0.02 +0.12    +0.167 HD
DOCKED: ENDBRANCH  34  36
DOCKED: ENDBRANCH  33  34
DOCKED: ENDBRANCH  32  33
DOCKED: ENDBRANCH   6  32
DOCKED: BRANCH  22  38
DOCKED: ATOM     38  C   UNL d   1      23.866  -8.157   0.364 -0.17 +0.02    +0.052 C 
DOCKED: BRANCH  38  39
DOCKED: ATOM     39  C   UNL d   1      25.300  -8.671   0.475 -0.11 +0.05    +0.115 C 
DOCKED: BRANCH  39  40
DOCKED: ATOM     40  C   UNL d   1      25.681  -9.018   1.892 +0.03 +0.12    +0.139 C 
DOCKED: ATOM     41  O   UNL d   1      26.299  -8.212   2.568 -0.04 -0.62    -0.650 OA
DOCKED: BRANCH  40  42
DOCKED: ATOM     42  O   UNL d   1      25.304 -10.186   2.447 -0.33 -1.14    -0.776 OA
DOCKED: ATOM     43  H   UNL d   1      25.054 -10.945   1.906 +0.01 +0.14    +0.167 HD
DOCKED: ENDBRANCH  40  42
DOCKED: ENDBRANCH  39  40
DOCKED: ENDBRANCH  38  39
DOCKED: ENDBRANCH  22  38
DOCKED: BRANCH  12  44
DOCKED: ATOM     44  C   UNL d   1      18.715 -10.151  -9.548 -0.19 +0.00    +0.004 C 
DOCKED: ATOM     45  C   UNL d   1      17.416 -10.109  -9.839 -0.20 +0.00    +0.012 C 
DOCKED: ENDBRANCH  12  44
DOCKED: BRANCH  17  46
DOCKED: ATOM     46  C   UNL d   1      23.673  -4.363  -6.558 -0.13 +0.00    +0.004 C 
DOCKED: ATOM     47  C   UNL d   1      23.572  -3.297  -5.753 -0.10 +0.00    +0.012 C 
DOCKED: ENDBRANCH  17  46
DOCKED: TORSDOF 10
DOCKED: TER
DOCKED: ENDMDL
________________________________________________________________________________


	BEGINNING GENETIC ALGORITHM DOCKING 35 of 100
Run: 35 Seed: 1313129661 1620429758 [ Run 35 of 100 GA/GALS ]
Beginning LAMARCKIAN GENETIC ALGORITHM (LGA), with a maximum of 25000000 energy evaluations.

Final-Value: -11.567


	FINAL GENETIC ALGORITHM DOCKED STATE
	_______________________________________________


Detailed state:  trans -14.136 0.750 2.046 quatxyzw 0.586185 0.157129 0.444934 -0.658583 center 8.287 34.468 -0.670 ntor 10 34.5867 166.9555 -8.2088 -84.4475 61.4608 -58.1181 155.8858 128.9468 -149.2640 178.0528
State:	-14.136   0.750   2.046   0.779  0.209  0.591 -97.616     34.59  166.96   -8.21  -84.45   61.46  -58.12  155.89  128.95 -149.26  178.05

DOCKED: MODEL       35
DOCKED: USER    Run = 35
DOCKED: USER    DPF = D:/Protein_go_brrr/autodock/final/mut_D99N/heme_O2/dock.dpf
DOCKED: USER  
DOCKED: USER    Estimated Free Energy of Binding    =   -6.20 kcal/mol  [=(1)+(2)+(3)-(4)]
DOCKED: USER    Estimated Inhibition Constant, Ki   =   28.56 uM (micromolar)  [Temperature = 298.15 K]
DOCKED: USER    
DOCKED: USER    (1) Final Intermolecular Energy     =   -9.18 kcal/mol
DOCKED: USER        vdW + Hbond + desolv Energy     =   -7.07 kcal/mol
DOCKED: USER        Electrostatic Energy            =   -2.12 kcal/mol
DOCKED: USER    (2) Final Total Internal Energy     =   -2.38 kcal/mol
DOCKED: USER    (3) Torsional Free Energy           =   +2.98 kcal/mol
DOCKED: USER    (4) Unbound System's Energy  [=(2)] =   -2.38 kcal/mol
DOCKED: USER    
DOCKED: USER    
DOCKED: USER    NEWDPF move heme_O2_opt.pdbqt
DOCKED: USER    NEWDPF about 8.287000 34.468000 -0.670000
DOCKED: USER    NEWDPF tran0 -14.135538 0.750462 2.046235
DOCKED: USER    NEWDPF quaternion0 0.586185 0.157129 0.444934 -0.658583
DOCKED: USER    NEWDPF axisangle0 0.778975 0.208807 0.591268 -97.616196
DOCKED: USER    NEWDPF quat0 0.778975 0.208807 0.591268 -97.616196
DOCKED: USER    NEWDPF dihe0 34.59 166.96 -8.21 -84.45 61.46 -58.12 155.89 128.95 -149.26 178.05 
DOCKED: USER  keepresnum = 1 
DOCKED: USER  
DOCKED: REMARK  10 active torsions:
DOCKED: REMARK  status: ('A' for Active; 'I' for Inactive)
DOCKED: REMARK    1  A    between atoms: C_6  and  C_10 
DOCKED: REMARK    2  A    between atoms: C_10  and  C_11 
DOCKED: REMARK    3  A    between atoms: C_11  and  C_12 
DOCKED: REMARK    4  A    between atoms: C_12  and  O_14 
DOCKED: REMARK    5  A    between atoms: C_17  and  C_20 
DOCKED: REMARK    6  A    between atoms: C_24  and  C_27 
DOCKED: REMARK    7  A    between atoms: C_31  and  C_34 
DOCKED: REMARK    8  A    between atoms: C_34  and  C_35 
DOCKED: REMARK    9  A    between atoms: C_35  and  C_36 
DOCKED: REMARK   10  A    between atoms: C_36  and  O_38 
DOCKED: USER                              x       y       z     vdW  Elec       q    Type
DOCKED: USER                           _______ _______ _______ _____ _____    ______ ____
DOCKED: ROOT
DOCKED: ATOM      1  C   UNL d   1     -15.998  -0.234   1.796 -0.09 +0.03    +0.064 A 
DOCKED: ATOM      2  C   UNL d   1     -11.549  -1.446   0.655 +0.05 +0.05    +0.064 A 
DOCKED: ATOM      3  C   UNL d   1      -9.874   2.712   2.388 -0.05 +0.02    +0.064 C 
DOCKED: ATOM      4  C   UNL d   1     -14.386   3.764   3.999 -0.12 +0.01    +0.064 A 
DOCKED: ATOM      5  C   UNL d   1     -14.924  -0.904   1.346 +0.05 +0.05    +0.066 A 
DOCKED: ATOM      6  C   UNL d   1     -14.984  -2.161   0.738 -0.14 -0.02    -0.021 A 
DOCKED: ATOM      7  C   UNL d   1     -13.692  -2.532   0.446 -0.18 -0.02    -0.025 A 
DOCKED: ATOM      8  C   UNL d   1     -12.883  -1.470   0.841 -0.07 +0.07    +0.066 A 
DOCKED: ATOM      9  C   UNL d   1     -13.288  -3.861  -0.153 -0.17 +0.03    +0.051 C 
DOCKED: ATOM     10  C   UNL d   1     -10.651  -0.352   1.027 -0.27 +0.03    +0.066 A 
DOCKED: ATOM     11  C   UNL d   1      -9.300  -0.308   0.664 -0.37 -0.01    -0.021 A 
DOCKED: ATOM     12  C   UNL d   1      -8.804   0.892   1.139 -0.35 +0.00    +0.000 A 
DOCKED: ATOM     13  C   UNL d   1      -9.902   1.521   1.790 -0.25 +0.02    +0.070 A 
DOCKED: ATOM     14  C   UNL d   1      -8.523  -1.354  -0.126 -0.34 +0.01    +0.052 C 
DOCKED: ATOM     15  C   UNL d   1     -10.953   3.366   3.087 -0.25 +0.01    +0.066 A 
DOCKED: ATOM     16  C   UNL d   1     -10.816   4.537   3.833 -0.37 -0.00    -0.021 A 
DOCKED: ATOM     17  C   UNL d   1     -12.090   4.856   4.303 -0.26 +0.00    +0.000 A 
DOCKED: ATOM     18  C   UNL d   1     -12.920   3.844   3.800 -0.17 +0.01    +0.070 A 
DOCKED: ATOM     19  C   UNL d   1      -9.488   5.208   4.074 -0.27 +0.00    +0.052 C 
DOCKED: ATOM     20  C   UNL d   1     -15.205   2.785   3.568 -0.14 +0.02    +0.066 A 
DOCKED: ATOM     21  C   UNL d   1     -16.582   2.774   3.770 -0.10 -0.01    -0.025 A 
DOCKED: ATOM     22  C   UNL d   1     -17.062   1.656   3.126 -0.10 -0.01    -0.021 A 
DOCKED: ATOM     23  C   UNL d   1     -15.952   1.014   2.567 -0.12 +0.03    +0.066 A 
DOCKED: ATOM     24  C   UNL d   1     -17.399   3.777   4.543 -0.07 +0.01    +0.051 C 
DOCKED: ATOM     25  N   UNL d   1     -13.636  -0.496   1.454 +0.02 -0.24    -0.248 N 
DOCKED: ATOM     26  N   UNL d   1     -11.020   0.755   1.721 -0.23 -0.12    -0.248 N 
DOCKED: ATOM     27  N   UNL d   1     -12.201   2.909   3.128 -0.15 -0.06    -0.248 N 
DOCKED: ATOM     28  N   UNL d   1     -14.821   1.680   2.876 -0.11 -0.10    -0.248 N 
DOCKED: ATOM     29 FE   UNL d   1     -12.933   1.223   2.304 -0.05 +0.00    +0.000 Fe
DOCKED: ATOM     30  O   UNL d   1     -12.544  -0.068   3.082 -0.56 +0.00    +0.000 OA
DOCKED: ATOM     31  O   UNL d   1     -12.962   1.227   3.877 -0.26 +0.00    +0.000 OA
DOCKED: ENDROOT
DOCKED: BRANCH   6  32
DOCKED: ATOM     32  C   UNL d   1     -16.192  -3.044   0.560 -0.09 +0.02    +0.052 C 
DOCKED: BRANCH  32  33
DOCKED: ATOM     33  C   UNL d   1     -16.762  -3.542   1.885 -0.05 +0.06    +0.115 C 
DOCKED: BRANCH  33  34
DOCKED: ATOM     34  C   UNL d   1     -15.718  -3.605   2.972 +0.10 +0.16    +0.139 C 
DOCKED: ATOM     35  O   UNL d   1     -15.065  -4.625   3.124 -0.04 -0.77    -0.650 OA
DOCKED: BRANCH  34  36
DOCKED: ATOM     36  O   UNL d   1     -15.506  -2.564   3.805 +0.00 -1.21    -0.776 OA
DOCKED: ATOM     37  H   UNL d   1     -16.224  -1.994   4.102 +0.01 +0.15    +0.167 HD
DOCKED: ENDBRANCH  34  36
DOCKED: ENDBRANCH  33  34
DOCKED: ENDBRANCH  32  33
DOCKED: ENDBRANCH   6  32
DOCKED: BRANCH  22  38
DOCKED: ATOM     38  C   UNL d   1     -18.498   1.201   3.107 -0.06 +0.01    +0.052 C 
DOCKED: BRANCH  38  39
DOCKED: ATOM     39  C   UNL d   1     -18.892   0.465   4.386 -0.01 +0.02    +0.115 C 
DOCKED: BRANCH  39  40
DOCKED: ATOM     40  C   UNL d   1     -17.943  -0.659   4.720 -0.00 +0.04    +0.139 C 
DOCKED: ATOM     41  O   UNL d   1     -16.935  -0.428   5.368 +0.02 -0.25    -0.650 OA
DOCKED: BRANCH  40  42
DOCKED: ATOM     42  O   UNL d   1     -18.213  -1.928   4.359 +0.02 -0.23    -0.776 OA
DOCKED: ATOM     43  H   UNL d   1     -17.552  -2.626   4.436 +0.01 +0.07    +0.167 HD
DOCKED: ENDBRANCH  40  42
DOCKED: ENDBRANCH  39  40
DOCKED: ENDBRANCH  38  39
DOCKED: ENDBRANCH  22  38
DOCKED: BRANCH  12  44
DOCKED: ATOM     44  C   UNL d   1      -7.362   1.305   0.931 -0.39 +0.00    +0.004 C 
DOCKED: ATOM     45  C   UNL d   1      -6.817   2.505   1.126 -0.46 +0.00    +0.012 C 
DOCKED: ENDBRANCH  12  44
DOCKED: BRANCH  17  46
DOCKED: ATOM     46  C   UNL d   1     -12.562   5.966   5.205 -0.31 -0.00    +0.004 C 
DOCKED: ATOM     47  C   UNL d   1     -12.684   5.955   6.538 -0.32 -0.00    +0.012 C 
DOCKED: ENDBRANCH  17  46
DOCKED: TORSDOF 10
DOCKED: TER
DOCKED: ENDMDL
________________________________________________________________________________


	BEGINNING GENETIC ALGORITHM DOCKING 36 of 100
Run: 36 Seed: 1467744598 1829195636 [ Run 36 of 100 GA/GALS ]
Beginning LAMARCKIAN GENETIC ALGORITHM (LGA), with a maximum of 25000000 energy evaluations.

Final-Value: -10.289


	FINAL GENETIC ALGORITHM DOCKED STATE
	_______________________________________________


Detailed state:  trans -5.164 17.872 8.183 quatxyzw 0.619128 -0.444331 0.645707 0.048085 center 8.287 34.468 -0.670 ntor 10 177.0642 -68.6277 17.9854 -0.8073 63.4999 145.8328 -93.6691 3.8563 -165.3799 178.0727
State:	 -5.164  17.872   8.183   0.620 -0.445  0.646 174.488    177.06  -68.63   17.99   -0.81   63.50  145.83  -93.67    3.86 -165.38  178.07

DOCKED: MODEL       36
DOCKED: USER    Run = 36
DOCKED: USER    DPF = D:/Protein_go_brrr/autodock/final/mut_D99N/heme_O2/dock.dpf
DOCKED: USER  
DOCKED: USER    Estimated Free Energy of Binding    =   -5.62 kcal/mol  [=(1)+(2)+(3)-(4)]
DOCKED: USER    Estimated Inhibition Constant, Ki   =   75.49 uM (micromolar)  [Temperature = 298.15 K]
DOCKED: USER    
DOCKED: USER    (1) Final Intermolecular Energy     =   -8.61 kcal/mol
DOCKED: USER        vdW + Hbond + desolv Energy     =   -7.41 kcal/mol
DOCKED: USER        Electrostatic Energy            =   -1.20 kcal/mol
DOCKED: USER    (2) Final Total Internal Energy     =   -1.68 kcal/mol
DOCKED: USER    (3) Torsional Free Energy           =   +2.98 kcal/mol
DOCKED: USER    (4) Unbound System's Energy  [=(2)] =   -1.68 kcal/mol
DOCKED: USER    
DOCKED: USER    
DOCKED: USER    NEWDPF move heme_O2_opt.pdbqt
DOCKED: USER    NEWDPF about 8.287000 34.468000 -0.670000
DOCKED: USER    NEWDPF tran0 -5.163954 17.871771 8.183127
DOCKED: USER    NEWDPF quaternion0 0.619128 -0.444331 0.645707 0.048085
DOCKED: USER    NEWDPF axisangle0 0.619845 -0.444845 0.646455 174.487732
DOCKED: USER    NEWDPF quat0 0.619845 -0.444845 0.646455 174.487732
DOCKED: USER    NEWDPF dihe0 177.06 -68.63 17.99 -0.81 63.50 145.83 -93.67 3.86 -165.38 178.07 
DOCKED: USER  keepresnum = 1 
DOCKED: USER  
DOCKED: REMARK  10 active torsions:
DOCKED: REMARK  status: ('A' for Active; 'I' for Inactive)
DOCKED: REMARK    1  A    between atoms: C_6  and  C_10 
DOCKED: REMARK    2  A    between atoms: C_10  and  C_11 
DOCKED: REMARK    3  A    between atoms: C_11  and  C_12 
DOCKED: REMARK    4  A    between atoms: C_12  and  O_14 
DOCKED: REMARK    5  A    between atoms: C_17  and  C_20 
DOCKED: REMARK    6  A    between atoms: C_24  and  C_27 
DOCKED: REMARK    7  A    between atoms: C_31  and  C_34 
DOCKED: REMARK    8  A    between atoms: C_34  and  C_35 
DOCKED: REMARK    9  A    between atoms: C_35  and  C_36 
DOCKED: REMARK   10  A    between atoms: C_36  and  O_38 
DOCKED: USER                              x       y       z     vdW  Elec       q    Type
DOCKED: USER                           _______ _______ _______ _____ _____    ______ ____
DOCKED: ROOT
DOCKED: ATOM      1  C   UNL d   1      -5.704  19.067   6.516 -0.09 +0.01    +0.064 A 
DOCKED: ATOM      2  C   UNL d   1      -1.519  18.078   8.534 -0.22 +0.00    +0.064 A 
DOCKED: ATOM      3  C   UNL d   1      -3.665  15.367  11.872 -0.11 -0.02    +0.064 C 
DOCKED: ATOM      4  C   UNL d   1      -7.926  15.989   9.521 -0.22 -0.02    +0.064 A 
DOCKED: ATOM      5  C   UNL d   1      -4.390  19.018   6.791 -0.11 +0.01    +0.066 A 
DOCKED: ATOM      6  C   UNL d   1      -3.412  19.700   6.063 -0.10 -0.00    -0.021 A 
DOCKED: ATOM      7  C   UNL d   1      -2.196  19.380   6.619 -0.14 -0.00    -0.025 A 
DOCKED: ATOM      8  C   UNL d   1      -2.469  18.549   7.703 -0.18 +0.01    +0.066 A 
DOCKED: ATOM      9  C   UNL d   1      -0.854  19.842   6.093 -0.15 +0.01    +0.051 C 
DOCKED: ATOM     10  C   UNL d   1      -1.747  17.223   9.699 -0.21 -0.00    +0.066 A 
DOCKED: ATOM     11  C   UNL d   1      -0.747  16.897  10.622 -0.11 +0.00    -0.021 A 
DOCKED: ATOM     12  C   UNL d   1      -1.350  16.130  11.602 -0.23 -0.00    +0.000 A 
DOCKED: ATOM     13  C   UNL d   1      -2.712  16.019  11.206 -0.23 -0.01    +0.070 A 
DOCKED: ATOM     14  C   UNL d   1       0.717  17.322  10.585 -0.06 +0.00    +0.052 C 
DOCKED: ATOM     15  C   UNL d   1      -5.046  15.202  11.487 -0.19 -0.01    +0.066 A 
DOCKED: ATOM     16  C   UNL d   1      -5.955  14.371  12.142 -0.24 +0.00    -0.021 A 
DOCKED: ATOM     17  C   UNL d   1      -7.176  14.531  11.488 -0.26 -0.00    +0.000 A 
DOCKED: ATOM     18  C   UNL d   1      -6.918  15.462  10.472 -0.22 -0.01    +0.070 A 
DOCKED: ATOM     19  C   UNL d   1      -5.567  13.467  13.284 -0.35 -0.01    +0.052 C 
DOCKED: ATOM     20  C   UNL d   1      -7.703  16.849   8.508 -0.15 -0.01    +0.066 A 
DOCKED: ATOM     21  C   UNL d   1      -8.696  17.324   7.656 -0.13 +0.01    -0.025 A 
DOCKED: ATOM     22  C   UNL d   1      -8.086  18.223   6.810 -0.12 -0.00    -0.021 A 
DOCKED: ATOM     23  C   UNL d   1      -6.734  18.250   7.167 -0.12 +0.01    +0.066 A 
DOCKED: ATOM     24  C   UNL d   1     -10.152  16.937   7.646 -0.04 -0.04    +0.051 C 
DOCKED: ATOM     25  N   UNL d   1      -3.815  18.274   7.768 -0.10 -0.02    -0.248 N 
DOCKED: ATOM     26  N   UNL d   1      -2.943  16.683  10.045 -0.16 +0.03    -0.248 N 
DOCKED: ATOM     27  N   UNL d   1      -5.604  15.801  10.439 -0.13 +0.03    -0.248 N 
DOCKED: ATOM     28  N   UNL d   1      -6.498  17.379   8.170 -0.10 +0.00    -0.248 N 
DOCKED: ATOM     29 FE   UNL d   1      -4.735  17.032   9.102 -0.04 -0.00    +0.000 Fe
DOCKED: ATOM     30  O   UNL d   1      -3.836  16.290   8.070 -0.42 -0.00    +0.000 OA
DOCKED: ATOM     31  O   UNL d   1      -5.221  15.668   8.489 -0.52 -0.00    +0.000 OA
DOCKED: ENDROOT
DOCKED: BRANCH   6  32
DOCKED: ATOM     32  C   UNL d   1      -3.595  20.512   4.807 -0.07 +0.01    +0.052 C 
DOCKED: BRANCH  32  33
DOCKED: ATOM     33  C   UNL d   1      -3.654  19.652   3.548 -0.13 +0.03    +0.115 C 
DOCKED: BRANCH  33  34
DOCKED: ATOM     34  C   UNL d   1      -5.036  19.107   3.288 -0.06 +0.08    +0.139 C 
DOCKED: ATOM     35  O   UNL d   1      -5.375  18.052   3.799 -0.23 -0.53    -0.650 OA
DOCKED: BRANCH  34  36
DOCKED: ATOM     36  O   UNL d   1      -5.903  19.748   2.476 +0.07 -0.52    -0.776 OA
DOCKED: ATOM     37  H   UNL d   1      -6.775  19.389   2.274 +0.02 +0.17    +0.167 HD
DOCKED: ENDBRANCH  34  36
DOCKED: ENDBRANCH  33  34
DOCKED: ENDBRANCH  32  33
DOCKED: ENDBRANCH   6  32
DOCKED: BRANCH  22  38
DOCKED: ATOM     38  C   UNL d   1      -8.758  18.963   5.682 -0.10 +0.01    +0.052 C 
DOCKED: BRANCH  38  39
DOCKED: ATOM     39  C   UNL d   1      -8.913  18.100   4.431 -0.07 +0.05    +0.115 C 
DOCKED: BRANCH  39  40
DOCKED: ATOM     40  C   UNL d   1      -9.526  18.859   3.280 -0.11 +0.05    +0.139 C 
DOCKED: ATOM     41  O   UNL d   1     -10.699  19.192   3.330 +0.02 -0.10    -0.650 OA
DOCKED: BRANCH  40  42
DOCKED: ATOM     42  O   UNL d   1      -8.786  19.222   2.215 +0.02 -0.47    -0.776 OA
DOCKED: ATOM     43  H   UNL d   1      -8.071  19.865   2.292 +0.01 +0.09    +0.167 HD
DOCKED: ENDBRANCH  40  42
DOCKED: ENDBRANCH  39  40
DOCKED: ENDBRANCH  38  39
DOCKED: ENDBRANCH  22  38
DOCKED: BRANCH  12  44
DOCKED: ATOM     44  C   UNL d   1      -0.579  15.591  12.788 -0.28 -0.00    +0.004 C 
DOCKED: ATOM     45  C   UNL d   1      -0.961  14.654  13.655 -0.37 -0.00    +0.012 C 
DOCKED: ENDBRANCH  12  44
DOCKED: BRANCH  17  46
DOCKED: ATOM     46  C   UNL d   1      -8.506  13.858  11.700 -0.30 -0.00    +0.004 C 
DOCKED: ATOM     47  C   UNL d   1      -8.793  12.826  12.504 -0.33 -0.00    +0.012 C 
DOCKED: ENDBRANCH  17  46
DOCKED: TORSDOF 10
DOCKED: TER
DOCKED: ENDMDL
________________________________________________________________________________


	BEGINNING GENETIC ALGORITHM DOCKING 37 of 100
Run: 37 Seed: 288012101 866768160 [ Run 37 of 100 GA/GALS ]
Beginning LAMARCKIAN GENETIC ALGORITHM (LGA), with a maximum of 25000000 energy evaluations.

Final-Value: -10.638


	FINAL GENETIC ALGORITHM DOCKED STATE
	_______________________________________________


Detailed state:  trans -5.177 17.816 8.337 quatxyzw -0.620565 0.441577 -0.645859 -0.052681 center 8.287 34.468 -0.670 ntor 10 -102.3426 13.9332 31.2358 -6.2173 92.6125 135.2392 -88.7345 31.6042 176.3354 154.5789
State:	 -5.177  17.816   8.337  -0.621  0.442 -0.647 -173.960   -102.34   13.93   31.24   -6.22   92.61  135.24  -88.73   31.60  176.34  154.58

DOCKED: MODEL       37
DOCKED: USER    Run = 37
DOCKED: USER    DPF = D:/Protein_go_brrr/autodock/final/mut_D99N/heme_O2/dock.dpf
DOCKED: USER  
DOCKED: USER    Estimated Free Energy of Binding    =   -5.49 kcal/mol  [=(1)+(2)+(3)-(4)]
DOCKED: USER    Estimated Inhibition Constant, Ki   =   94.49 uM (micromolar)  [Temperature = 298.15 K]
DOCKED: USER    
DOCKED: USER    (1) Final Intermolecular Energy     =   -8.47 kcal/mol
DOCKED: USER        vdW + Hbond + desolv Energy     =   -7.27 kcal/mol
DOCKED: USER        Electrostatic Energy            =   -1.21 kcal/mol
DOCKED: USER    (2) Final Total Internal Energy     =   -2.16 kcal/mol
DOCKED: USER    (3) Torsional Free Energy           =   +2.98 kcal/mol
DOCKED: USER    (4) Unbound System's Energy  [=(2)] =   -2.16 kcal/mol
DOCKED: USER    
DOCKED: USER    
DOCKED: USER    NEWDPF move heme_O2_opt.pdbqt
DOCKED: USER    NEWDPF about 8.287000 34.468000 -0.670000
DOCKED: USER    NEWDPF tran0 -5.176943 17.815918 8.337109
DOCKED: USER    NEWDPF quaternion0 -0.620565 0.441577 -0.645859 -0.052681
DOCKED: USER    NEWDPF axisangle0 -0.621427 0.442191 -0.646757 -173.960428
DOCKED: USER    NEWDPF quat0 -0.621427 0.442191 -0.646757 -173.960428
DOCKED: USER    NEWDPF dihe0 -102.34 13.93 31.24 -6.22 92.61 135.24 -88.73 31.60 176.34 154.58 
DOCKED: USER  keepresnum = 1 
DOCKED: USER  
DOCKED: REMARK  10 active torsions:
DOCKED: REMARK  status: ('A' for Active; 'I' for Inactive)
DOCKED: REMARK    1  A    between atoms: C_6  and  C_10 
DOCKED: REMARK    2  A    between atoms: C_10  and  C_11 
DOCKED: REMARK    3  A    between atoms: C_11  and  C_12 
DOCKED: REMARK    4  A    between atoms: C_12  and  O_14 
DOCKED: REMARK    5  A    between atoms: C_17  and  C_20 
DOCKED: REMARK    6  A    between atoms: C_24  and  C_27 
DOCKED: REMARK    7  A    between atoms: C_31  and  C_34 
DOCKED: REMARK    8  A    between atoms: C_34  and  C_35 
DOCKED: REMARK    9  A    between atoms: C_35  and  C_36 
DOCKED: REMARK   10  A    between atoms: C_36  and  O_38 
DOCKED: USER                              x       y       z     vdW  Elec       q    Type
DOCKED: USER                           _______ _______ _______ _____ _____    ______ ____
DOCKED: ROOT
DOCKED: ATOM      1  C   UNL d   1      -5.725  19.008   6.671 -0.09 +0.01    +0.064 A 
DOCKED: ATOM      2  C   UNL d   1      -1.536  18.061   8.698 -0.22 +0.00    +0.064 A 
DOCKED: ATOM      3  C   UNL d   1      -3.661  15.321  12.025 -0.11 -0.02    +0.064 C 
DOCKED: ATOM      4  C   UNL d   1      -7.922  15.902   9.664 -0.22 -0.02    +0.064 A 
DOCKED: ATOM      5  C   UNL d   1      -4.412  18.973   6.949 -0.11 +0.01    +0.066 A 
DOCKED: ATOM      6  C   UNL d   1      -3.439  19.667   6.225 -0.10 -0.00    -0.021 A 
DOCKED: ATOM      7  C   UNL d   1      -2.221  19.358   6.784 -0.14 -0.00    -0.025 A 
DOCKED: ATOM      8  C   UNL d   1      -2.488  18.523   7.865 -0.18 +0.00    +0.066 A 
DOCKED: ATOM      9  C   UNL d   1      -0.883  19.836   6.262 -0.15 +0.00    +0.051 C 
DOCKED: ATOM     10  C   UNL d   1      -1.757  17.200   9.861 -0.21 -0.00    +0.066 A 
DOCKED: ATOM     11  C   UNL d   1      -0.756  16.883  10.786 -0.13 +0.00    -0.021 A 
DOCKED: ATOM     12  C   UNL d   1      -1.354  16.109  11.763 -0.23 -0.00    +0.000 A 
DOCKED: ATOM     13  C   UNL d   1      -2.713  15.984  11.363 -0.22 -0.01    +0.070 A 
DOCKED: ATOM     14  C   UNL d   1       0.703  17.324  10.753 -0.08 +0.00    +0.052 C 
DOCKED: ATOM     15  C   UNL d   1      -5.039  15.141  11.636 -0.18 -0.02    +0.066 A 
DOCKED: ATOM     16  C   UNL d   1      -5.941  14.300  12.287 -0.24 +0.01    -0.021 A 
DOCKED: ATOM     17  C   UNL d   1      -7.163  14.448  11.631 -0.26 -0.00    +0.000 A 
DOCKED: ATOM     18  C   UNL d   1      -6.912  15.383  10.617 -0.22 -0.01    +0.070 A 
DOCKED: ATOM     19  C   UNL d   1      -5.547  13.397  13.429 -0.36 -0.01    +0.052 C 
DOCKED: ATOM     20  C   UNL d   1      -7.706  16.765   8.653 -0.15 -0.01    +0.066 A 
DOCKED: ATOM     21  C   UNL d   1      -8.701  17.232   7.799 -0.11 +0.01    -0.025 A 
DOCKED: ATOM     22  C   UNL d   1      -8.099  18.139   6.957 -0.13 -0.00    -0.021 A 
DOCKED: ATOM     23  C   UNL d   1      -6.749  18.179   7.318 -0.12 +0.00    +0.066 A 
DOCKED: ATOM     24  C   UNL d   1     -10.153  16.829   7.785 +0.04 -0.05    +0.051 C 
DOCKED: ATOM     25  N   UNL d   1      -3.832  18.233   7.926 -0.10 -0.01    -0.248 N 
DOCKED: ATOM     26  N   UNL d   1      -2.949  16.647  10.203 -0.15 +0.03    -0.248 N 
DOCKED: ATOM     27  N   UNL d   1      -5.601  15.736  10.588 -0.13 +0.04    -0.248 N 
DOCKED: ATOM     28  N   UNL d   1      -6.505  17.309   8.320 -0.10 +0.00    -0.248 N 
DOCKED: ATOM     29 FE   UNL d   1      -4.742  16.979   9.256 -0.04 -0.00    +0.000 Fe
DOCKED: ATOM     30  O   UNL d   1      -3.832  16.249   8.225 -0.43 -0.00    +0.000 OA
DOCKED: ATOM     31  O   UNL d   1      -5.212  15.611   8.639 -0.51 -0.00    +0.000 OA
DOCKED: ENDROOT
DOCKED: BRANCH   6  32
DOCKED: ATOM     32  C   UNL d   1      -3.627  20.479   4.970 -0.07 +0.01    +0.052 C 
DOCKED: BRANCH  32  33
DOCKED: ATOM     33  C   UNL d   1      -3.237  19.717   3.707 -0.12 +0.03    +0.115 C 
DOCKED: BRANCH  33  34
DOCKED: ATOM     34  C   UNL d   1      -4.389  18.933   3.129 -0.18 +0.07    +0.139 C 
DOCKED: ATOM     35  O   UNL d   1      -4.946  18.088   3.811 -0.15 -0.44    -0.650 OA
DOCKED: BRANCH  34  36
DOCKED: ATOM     36  O   UNL d   1      -4.804  19.125   1.860 +0.08 -0.54    -0.776 OA
DOCKED: ATOM     37  H   UNL d   1      -5.592  19.641   1.652 +0.02 +0.13    +0.167 HD
DOCKED: ENDBRANCH  34  36
DOCKED: ENDBRANCH  33  34
DOCKED: ENDBRANCH  32  33
DOCKED: ENDBRANCH   6  32
DOCKED: BRANCH  22  38
DOCKED: ATOM     38  C   UNL d   1      -8.775  18.873   5.828 -0.11 +0.01    +0.052 C 
DOCKED: BRANCH  38  39
DOCKED: ATOM     39  C   UNL d   1      -8.427  18.288   4.461 +0.04 +0.06    +0.115 C 
DOCKED: BRANCH  39  40
DOCKED: ATOM     40  C   UNL d   1      -8.439  19.328   3.369 -0.07 +0.07    +0.139 C 
DOCKED: ATOM     41  O   UNL d   1      -9.500  19.678   2.877 -0.00 -0.20    -0.650 OA
DOCKED: BRANCH  40  42
DOCKED: ATOM     42  O   UNL d   1      -7.301  19.920   2.959 -0.06 -0.44    -0.776 OA
DOCKED: ATOM     43  H   UNL d   1      -6.435  19.546   3.165 +0.02 +0.12    +0.167 HD
DOCKED: ENDBRANCH  40  42
DOCKED: ENDBRANCH  39  40
DOCKED: ENDBRANCH  38  39
DOCKED: ENDBRANCH  22  38
DOCKED: BRANCH  12  44
DOCKED: ATOM     44  C   UNL d   1      -0.580  15.575  12.950 -0.28 -0.00    +0.004 C 
DOCKED: ATOM     45  C   UNL d   1      -0.834  14.482  13.668 -0.35 -0.00    +0.012 C 
DOCKED: ENDBRANCH  12  44
DOCKED: BRANCH  17  46
DOCKED: ATOM     46  C   UNL d   1      -8.486  13.760  11.838 -0.33 -0.00    +0.004 C 
DOCKED: ATOM     47  C   UNL d   1      -8.745  12.664  12.562 -0.34 -0.00    +0.012 C 
DOCKED: ENDBRANCH  17  46
DOCKED: TORSDOF 10
DOCKED: TER
DOCKED: ENDMDL
________________________________________________________________________________


	BEGINNING GENETIC ALGORITHM DOCKING 38 of 100
Run: 38 Seed: 1084303406 821219791 [ Run 38 of 100 GA/GALS ]
Beginning LAMARCKIAN GENETIC ALGORITHM (LGA), with a maximum of 25000000 energy evaluations.

Final-Value: -8.620


	FINAL GENETIC ALGORITHM DOCKED STATE
	_______________________________________________


Detailed state:  trans 3.604 16.737 0.278 quatxyzw 0.310594 0.922478 -0.019340 0.228457 center 8.287 34.468 -0.670 ntor 10 -55.8617 -149.6456 -116.4584 120.5989 -68.2994 -69.9280 75.7691 -141.6651 166.5194 -12.6365
State:	  3.604  16.737   0.278   0.319  0.948 -0.020 153.588    -55.86 -149.65 -116.46  120.60  -68.30  -69.93   75.77 -141.67  166.52  -12.64

DOCKED: MODEL       38
DOCKED: USER    Run = 38
DOCKED: USER    DPF = D:/Protein_go_brrr/autodock/final/mut_D99N/heme_O2/dock.dpf
DOCKED: USER  
DOCKED: USER    Estimated Free Energy of Binding    =   -4.97 kcal/mol  [=(1)+(2)+(3)-(4)]
DOCKED: USER    Estimated Inhibition Constant, Ki   =  228.95 uM (micromolar)  [Temperature = 298.15 K]
DOCKED: USER    
DOCKED: USER    (1) Final Intermolecular Energy     =   -7.95 kcal/mol
DOCKED: USER        vdW + Hbond + desolv Energy     =   -7.31 kcal/mol
DOCKED: USER        Electrostatic Energy            =   -0.64 kcal/mol
DOCKED: USER    (2) Final Total Internal Energy     =   -0.67 kcal/mol
DOCKED: USER    (3) Torsional Free Energy           =   +2.98 kcal/mol
DOCKED: USER    (4) Unbound System's Energy  [=(2)] =   -0.67 kcal/mol
DOCKED: USER    
DOCKED: USER    
DOCKED: USER    NEWDPF move heme_O2_opt.pdbqt
DOCKED: USER    NEWDPF about 8.287000 34.468000 -0.670000
DOCKED: USER    NEWDPF tran0 3.603996 16.736557 0.278134
DOCKED: USER    NEWDPF quaternion0 0.310594 0.922478 -0.019340 0.228457
DOCKED: USER    NEWDPF axisangle0 0.319031 0.947536 -0.019866 153.587556
DOCKED: USER    NEWDPF quat0 0.319031 0.947536 -0.019866 153.587556
DOCKED: USER    NEWDPF dihe0 -55.86 -149.65 -116.46 120.60 -68.30 -69.93 75.77 -141.67 166.52 -12.64 
DOCKED: USER  keepresnum = 1 
DOCKED: USER  
DOCKED: REMARK  10 active torsions:
DOCKED: REMARK  status: ('A' for Active; 'I' for Inactive)
DOCKED: REMARK    1  A    between atoms: C_6  and  C_10 
DOCKED: REMARK    2  A    between atoms: C_10  and  C_11 
DOCKED: REMARK    3  A    between atoms: C_11  and  C_12 
DOCKED: REMARK    4  A    between atoms: C_12  and  O_14 
DOCKED: REMARK    5  A    between atoms: C_17  and  C_20 
DOCKED: REMARK    6  A    between atoms: C_24  and  C_27 
DOCKED: REMARK    7  A    between atoms: C_31  and  C_34 
DOCKED: REMARK    8  A    between atoms: C_34  and  C_35 
DOCKED: REMARK    9  A    between atoms: C_35  and  C_36 
DOCKED: REMARK   10  A    between atoms: C_36  and  O_38 
DOCKED: USER                              x       y       z     vdW  Elec       q    Type
DOCKED: USER                           _______ _______ _______ _____ _____    ______ ____
DOCKED: ROOT
DOCKED: ATOM      1  C   UNL d   1       5.604  16.049   0.121 -0.14 +0.00    +0.064 A 
DOCKED: ATOM      2  C   UNL d   1       1.633  14.928  -2.230 -0.29 -0.00    +0.064 A 
DOCKED: ATOM      3  C   UNL d   1      -0.924  18.000   0.437 -0.25 +0.01    +0.064 C 
DOCKED: ATOM      4  C   UNL d   1       3.241  19.512   2.542 -0.12 +0.00    +0.064 A 
DOCKED: ATOM      5  C   UNL d   1       4.733  15.495  -0.737 -0.15 +0.00    +0.066 A 
DOCKED: ATOM      6  C   UNL d   1       5.075  14.520  -1.679 -0.23 -0.00    -0.021 A 
DOCKED: ATOM      7  C   UNL d   1       3.935  14.226  -2.390 -0.28 +0.00    -0.025 A 
DOCKED: ATOM      8  C   UNL d   1       2.918  14.994  -1.830 -0.22 -0.00    +0.066 A 
DOCKED: ATOM      9  C   UNL d   1       3.868  13.272  -3.562 -0.11 -0.01    +0.051 C 
DOCKED: ATOM     10  C   UNL d   1       0.519  15.691  -1.667 -0.25 +0.00    +0.066 A 
DOCKED: ATOM     11  C   UNL d   1      -0.819  15.465  -2.008 -0.30 -0.00    -0.021 A 
DOCKED: ATOM     12  C   UNL d   1      -1.574  16.329  -1.236 -0.25 +0.00    +0.000 A 
DOCKED: ATOM     13  C   UNL d   1      -0.631  17.058  -0.459 -0.17 +0.01    +0.070 A 
DOCKED: ATOM     14  C   UNL d   1      -1.357  14.448  -3.008 -0.31 +0.00    +0.052 C 
DOCKED: ATOM     15  C   UNL d   1       0.002  18.786   1.217 -0.22 +0.01    +0.066 A 
DOCKED: ATOM     16  C   UNL d   1      -0.360  19.869   2.017 -0.14 -0.00    -0.021 A 
DOCKED: ATOM     17  C   UNL d   1       0.812  20.317   2.627 -0.12 +0.00    +0.000 A 
DOCKED: ATOM     18  C   UNL d   1       1.813  19.461   2.148 -0.16 +0.00    +0.070 A 
DOCKED: ATOM     19  C   UNL d   1      -1.766  20.409   2.084 -0.09 +0.01    +0.052 C 
DOCKED: ATOM     20  C   UNL d   1       4.235  18.734   2.070 -0.12 +0.00    +0.066 A 
DOCKED: ATOM     21  C   UNL d   1       5.559  18.817   2.493 -0.09 -0.00    -0.025 A 
DOCKED: ATOM     22  C   UNL d   1       6.241  17.820   1.833 -0.10 -0.00    -0.021 A 
DOCKED: ATOM     23  C   UNL d   1       5.308  17.174   1.016 -0.12 +0.00    +0.066 A 
DOCKED: ATOM     24  C   UNL d   1       6.143  19.801   3.473 -0.04 +0.00    +0.051 C 
DOCKED: ATOM     25  N   UNL d   1       3.423  15.823  -0.856 -0.03 -0.01    -0.248 N 
DOCKED: ATOM     26  N   UNL d   1       0.640  16.667  -0.731 -0.16 -0.01    -0.248 N 
DOCKED: ATOM     27  N   UNL d   1       1.316  18.586   1.237 -0.17 -0.02    -0.248 N 
DOCKED: ATOM     28  N   UNL d   1       4.100  17.762   1.130 -0.03 -0.01    -0.248 N 
DOCKED: ATOM     29 FE   UNL d   1       2.381  17.221   0.207 -0.06 +0.00    +0.000 Fe
DOCKED: ATOM     30  O   UNL d   1       2.562  17.581  -1.296 -0.16 +0.00    +0.000 OA
DOCKED: ATOM     31  O   UNL d   1       2.688  18.708  -0.202 -0.13 +0.00    +0.000 OA
DOCKED: ENDROOT
DOCKED: BRANCH   6  32
DOCKED: ATOM     32  C   UNL d   1       6.447  13.982  -1.995 -0.17 +0.01    +0.052 C 
DOCKED: BRANCH  32  33
DOCKED: ATOM     33  C   UNL d   1       6.959  14.431  -3.360 -0.06 +0.02    +0.115 C 
DOCKED: BRANCH  33  34
DOCKED: ATOM     34  C   UNL d   1       6.933  13.318  -4.378 -0.03 +0.05    +0.139 C 
DOCKED: ATOM     35  O   UNL d   1       6.603  13.560  -5.528 -0.08 -0.25    -0.650 OA
DOCKED: BRANCH  34  36
DOCKED: ATOM     36  O   UNL d   1       7.241  12.049  -4.040 -0.51 -0.55    -0.776 OA
DOCKED: ATOM     37  H   UNL d   1       8.079  11.820  -3.622 +0.04 +0.07    +0.167 HD
DOCKED: ENDBRANCH  34  36
DOCKED: ENDBRANCH  33  34
DOCKED: ENDBRANCH  32  33
DOCKED: ENDBRANCH   6  32
DOCKED: BRANCH  22  38
DOCKED: ATOM     38  C   UNL d   1       7.720  17.550   1.939 -0.05 +0.00    +0.052 C 
DOCKED: BRANCH  38  39
DOCKED: ATOM     39  C   UNL d   1       8.055  16.579   3.069 -0.07 +0.00    +0.115 C 
DOCKED: BRANCH  39  40
DOCKED: ATOM     40  C   UNL d   1       7.023  15.489   3.217 -0.21 -0.00    +0.139 C 
DOCKED: ATOM     41  O   UNL d   1       6.985  14.576   2.408 -0.03 -0.01    -0.650 OA
DOCKED: BRANCH  40  42
DOCKED: ATOM     42  O   UNL d   1       6.171  15.475   4.261 -0.00 +0.08    -0.776 OA
DOCKED: ATOM     43  H   UNL d   1       5.858  14.648   4.645 -0.36 -0.05    +0.167 HD
DOCKED: ENDBRANCH  40  42
DOCKED: ENDBRANCH  39  40
DOCKED: ENDBRANCH  38  39
DOCKED: ENDBRANCH  22  38
DOCKED: BRANCH  12  44
DOCKED: ATOM     44  C   UNL d   1      -3.085  16.371  -1.320 -0.32 +0.00    +0.004 C 
DOCKED: ATOM     45  C   UNL d   1      -3.946  15.380  -1.091 -0.35 +0.01    +0.012 C 
DOCKED: ENDBRANCH  12  44
DOCKED: BRANCH  17  46
DOCKED: ATOM     46  C   UNL d   1       1.065  21.483   3.546 -0.05 +0.00    +0.004 C 
DOCKED: ATOM     47  C   UNL d   1       1.436  21.458   4.832 -0.05 +0.00    +0.012 C 
DOCKED: ENDBRANCH  17  46
DOCKED: TORSDOF 10
DOCKED: TER
DOCKED: ENDMDL
________________________________________________________________________________


	BEGINNING GENETIC ALGORITHM DOCKING 39 of 100
Run: 39 Seed: 1110916399 922529441 [ Run 39 of 100 GA/GALS ]
Beginning LAMARCKIAN GENETIC ALGORITHM (LGA), with a maximum of 25000000 energy evaluations.

Final-Value: -11.291


	FINAL GENETIC ALGORITHM DOCKED STATE
	_______________________________________________


Detailed state:  trans 1.598 -0.028 -20.287 quatxyzw 0.820732 -0.135265 0.050714 -0.552748 center 8.287 34.468 -0.670 ntor 10 -121.9356 -77.9922 42.2573 -110.6798 5.9275 151.7242 -73.5030 45.1392 180.0000 -176.0052
State:	  1.598  -0.028 -20.287   0.985 -0.162  0.061 -112.889   -121.94  -77.99   42.26 -110.68    5.93  151.72  -73.50   45.14  180.00 -176.01

DOCKED: MODEL       39
DOCKED: USER    Run = 39
DOCKED: USER    DPF = D:/Protein_go_brrr/autodock/final/mut_D99N/heme_O2/dock.dpf
DOCKED: USER  
DOCKED: USER    Estimated Free Energy of Binding    =   -6.21 kcal/mol  [=(1)+(2)+(3)-(4)]
DOCKED: USER    Estimated Inhibition Constant, Ki   =   28.00 uM (micromolar)  [Temperature = 298.15 K]
DOCKED: USER    
DOCKED: USER    (1) Final Intermolecular Energy     =   -9.19 kcal/mol
DOCKED: USER        vdW + Hbond + desolv Energy     =   -5.58 kcal/mol
DOCKED: USER        Electrostatic Energy            =   -3.62 kcal/mol
DOCKED: USER    (2) Final Total Internal Energy     =   -2.10 kcal/mol
DOCKED: USER    (3) Torsional Free Energy           =   +2.98 kcal/mol
DOCKED: USER    (4) Unbound System's Energy  [=(2)] =   -2.10 kcal/mol
DOCKED: USER    
DOCKED: USER    
DOCKED: USER    NEWDPF move heme_O2_opt.pdbqt
DOCKED: USER    NEWDPF about 8.287000 34.468000 -0.670000
DOCKED: USER    NEWDPF tran0 1.598217 -0.028305 -20.287422
DOCKED: USER    NEWDPF quaternion0 0.820732 -0.135265 0.050714 -0.552748
DOCKED: USER    NEWDPF axisangle0 0.984861 -0.162315 0.060856 -112.888509
DOCKED: USER    NEWDPF quat0 0.984861 -0.162315 0.060856 -112.888509
DOCKED: USER    NEWDPF dihe0 -121.94 -77.99 42.26 -110.68 5.93 151.72 -73.50 45.14 180.00 -176.01 
DOCKED: USER  keepresnum = 1 
DOCKED: USER  
DOCKED: REMARK  10 active torsions:
DOCKED: REMARK  status: ('A' for Active; 'I' for Inactive)
DOCKED: REMARK    1  A    between atoms: C_6  and  C_10 
DOCKED: REMARK    2  A    between atoms: C_10  and  C_11 
DOCKED: REMARK    3  A    between atoms: C_11  and  C_12 
DOCKED: REMARK    4  A    between atoms: C_12  and  O_14 
DOCKED: REMARK    5  A    between atoms: C_17  and  C_20 
DOCKED: REMARK    6  A    between atoms: C_24  and  C_27 
DOCKED: REMARK    7  A    between atoms: C_31  and  C_34 
DOCKED: REMARK    8  A    between atoms: C_34  and  C_35 
DOCKED: REMARK    9  A    between atoms: C_35  and  C_36 
DOCKED: REMARK   10  A    between atoms: C_36  and  O_38 
DOCKED: USER                              x       y       z     vdW  Elec       q    Type
DOCKED: USER                           _______ _______ _______ _____ _____    ______ ____
DOCKED: ROOT
DOCKED: ATOM      1  C   UNL d   1      -0.308   0.807 -19.878 -0.08 +0.07    +0.064 A 
DOCKED: ATOM      2  C   UNL d   1       1.330  -1.842 -23.464 -0.05 +0.01    +0.064 A 
DOCKED: ATOM      3  C   UNL d   1       5.719  -1.939 -21.508 -0.14 +0.01    +0.064 C 
DOCKED: ATOM      4  C   UNL d   1       3.929   0.383 -17.575 -0.15 +0.02    +0.064 A 
DOCKED: ATOM      5  C   UNL d   1      -0.221   0.093 -21.012 -0.11 +0.05    +0.066 A 
DOCKED: ATOM      6  C   UNL d   1      -1.285  -0.103 -21.897 -0.08 -0.01    -0.021 A 
DOCKED: ATOM      7  C   UNL d   1      -0.823  -0.906 -22.914 -0.06 -0.01    -0.025 A 
DOCKED: ATOM      8  C   UNL d   1       0.523  -1.138 -22.646 -0.07 +0.02    +0.066 A 
DOCKED: ATOM      9  C   UNL d   1      -1.668  -1.431 -24.054 -0.04 +0.01    +0.051 C 
DOCKED: ATOM     10  C   UNL d   1       2.755  -2.099 -23.248 -0.06 +0.01    +0.066 A 
DOCKED: ATOM     11  C   UNL d   1       3.583  -2.694 -24.207 -0.05 -0.00    -0.021 A 
DOCKED: ATOM     12  C   UNL d   1       4.856  -2.715 -23.669 -0.09 +0.00    +0.000 A 
DOCKED: ATOM     13  C   UNL d   1       4.728  -2.129 -22.379 -0.11 +0.01    +0.070 A 
DOCKED: ATOM     14  C   UNL d   1       3.181  -3.197 -25.589 -0.02 +0.00    +0.052 C 
DOCKED: ATOM     15  C   UNL d   1       5.625  -1.382 -20.180 -0.10 +0.02    +0.066 A 
DOCKED: ATOM     16  C   UNL d   1       6.669  -1.360 -19.256 -0.15 -0.01    -0.021 A 
DOCKED: ATOM     17  C   UNL d   1       6.181  -0.704 -18.126 -0.21 +0.00    +0.000 A 
DOCKED: ATOM     18  C   UNL d   1       4.859  -0.368 -18.451 -0.17 +0.02    +0.070 A 
DOCKED: ATOM     19  C   UNL d   1       8.006  -2.010 -19.510 -0.22 +0.01    +0.052 C 
DOCKED: ATOM     20  C   UNL d   1       2.643   0.683 -17.838 -0.10 +0.02    +0.066 A 
DOCKED: ATOM     21  C   UNL d   1       1.820   1.409 -16.980 -0.17 -0.01    -0.025 A 
DOCKED: ATOM     22  C   UNL d   1       0.617   1.563 -17.632 -0.16 -0.02    -0.021 A 
DOCKED: ATOM     23  C   UNL d   1       0.745   0.907 -18.860 -0.09 +0.06    +0.066 A 
DOCKED: ATOM     24  C   UNL d   1       2.164   1.926 -15.607 -0.22 +0.02    +0.051 C 
DOCKED: ATOM     25  N   UNL d   1       0.877  -0.577 -21.441 -0.07 -0.12    -0.248 N 
DOCKED: ATOM     26  N   UNL d   1       3.445  -1.762 -22.129 -0.06 -0.05    -0.248 N 
DOCKED: ATOM     27  N   UNL d   1       4.516  -0.853 -19.671 -0.10 -0.06    -0.248 N 
DOCKED: ATOM     28  N   UNL d   1       1.962   0.336 -18.962 -0.08 -0.12    -0.248 N 
DOCKED: ATOM     29 FE   UNL d   1       2.701  -0.706 -20.533 -0.03 +0.00    +0.000 Fe
DOCKED: ATOM     30  O   UNL d   1       1.920  -2.052 -20.568 -0.31 +0.00    +0.000 OA
DOCKED: ATOM     31  O   UNL d   1       2.735  -1.655 -19.279 -0.22 +0.00    +0.000 OA
DOCKED: ENDROOT
DOCKED: BRANCH   6  32
DOCKED: ATOM     32  C   UNL d   1      -2.718   0.330 -21.728 -0.06 +0.04    +0.052 C 
DOCKED: BRANCH  32  33
DOCKED: ATOM     33  C   UNL d   1      -3.609  -0.774 -21.167 -0.12 +0.10    +0.115 C 
DOCKED: BRANCH  33  34
DOCKED: ATOM     34  C   UNL d   1      -3.941  -0.562 -19.711 -0.15 +0.22    +0.139 C 
DOCKED: ATOM     35  O   UNL d   1      -4.050  -1.525 -18.969 -0.52 -1.26    -0.650 OA
DOCKED: BRANCH  34  36
DOCKED: ATOM     36  O   UNL d   1      -4.149   0.674 -19.210 +0.09 -1.47    -0.776 OA
DOCKED: ATOM     37  H   UNL d   1      -3.620   1.027 -18.486 +0.03 +0.33    +0.167 HD
DOCKED: ENDBRANCH  34  36
DOCKED: ENDBRANCH  33  34
DOCKED: ENDBRANCH  32  33
DOCKED: ENDBRANCH   6  32
DOCKED: BRANCH  22  38
DOCKED: ATOM     38  C   UNL d   1      -0.603   2.248 -17.073 -0.19 +0.05    +0.052 C 
DOCKED: BRANCH  38  39
DOCKED: ATOM     39  C   UNL d   1      -1.309   1.404 -16.013 -0.23 +0.16    +0.115 C 
DOCKED: BRANCH  39  40
DOCKED: ATOM     40  C   UNL d   1      -2.808   1.398 -16.186 -0.27 +0.21    +0.139 C 
DOCKED: ATOM     41  O   UNL d   1      -3.435   2.438 -16.068 +0.01 -0.76    -0.650 OA
DOCKED: BRANCH  40  42
DOCKED: ATOM     42  O   UNL d   1      -3.465   0.270 -16.519 +0.19 -1.69    -0.776 OA
DOCKED: ATOM     43  H   UNL d   1      -3.442  -0.080 -17.418 +0.07 +0.48    +0.167 HD
DOCKED: ENDBRANCH  40  42
DOCKED: ENDBRANCH  39  40
DOCKED: ENDBRANCH  38  39
DOCKED: ENDBRANCH  22  38
DOCKED: BRANCH  12  44
DOCKED: ATOM     44  C   UNL d   1       6.039  -3.283 -24.424 -0.09 +0.00    +0.004 C 
DOCKED: ATOM     45  C   UNL d   1       7.058  -3.991 -23.938 -0.12 +0.00    +0.012 C 
DOCKED: ENDBRANCH  12  44
DOCKED: BRANCH  17  46
DOCKED: ATOM     46  C   UNL d   1       6.820  -0.429 -16.791 -0.27 +0.00    +0.004 C 
DOCKED: ATOM     47  C   UNL d   1       6.435  -0.863 -15.583 -0.34 +0.00    +0.012 C 
DOCKED: ENDBRANCH  17  46
DOCKED: TORSDOF 10
DOCKED: TER
DOCKED: ENDMDL
________________________________________________________________________________


	BEGINNING GENETIC ALGORITHM DOCKING 40 of 100
Run: 40 Seed: 1083880071 637012723 [ Run 40 of 100 GA/GALS ]
Beginning LAMARCKIAN GENETIC ALGORITHM (LGA), with a maximum of 25000000 energy evaluations.

Final-Value: -10.314


	FINAL GENETIC ALGORITHM DOCKED STATE
	_______________________________________________


Detailed state:  trans 7.987 0.070 -17.522 quatxyzw 0.298008 0.141949 -0.925747 -0.184481 center 8.287 34.468 -0.670 ntor 10 107.6945 155.0062 133.9613 -14.3297 -156.5130 -10.5148 -50.5414 89.3449 176.4812 -179.6045
State:	  7.987   0.070 -17.522   0.303  0.144 -0.942 -158.738    107.69  155.01  133.96  -14.33 -156.51  -10.51  -50.54   89.34  176.48 -179.60

DOCKED: MODEL       40
DOCKED: USER    Run = 40
DOCKED: USER    DPF = D:/Protein_go_brrr/autodock/final/mut_D99N/heme_O2/dock.dpf
DOCKED: USER  
DOCKED: USER    Estimated Free Energy of Binding    =   -4.89 kcal/mol  [=(1)+(2)+(3)-(4)]
DOCKED: USER    Estimated Inhibition Constant, Ki   =  258.34 uM (micromolar)  [Temperature = 298.15 K]
DOCKED: USER    
DOCKED: USER    (1) Final Intermolecular Energy     =   -7.88 kcal/mol
DOCKED: USER        vdW + Hbond + desolv Energy     =   -6.78 kcal/mol
DOCKED: USER        Electrostatic Energy            =   -1.10 kcal/mol
DOCKED: USER    (2) Final Total Internal Energy     =   -2.44 kcal/mol
DOCKED: USER    (3) Torsional Free Energy           =   +2.98 kcal/mol
DOCKED: USER    (4) Unbound System's Energy  [=(2)] =   -2.44 kcal/mol
DOCKED: USER    
DOCKED: USER    
DOCKED: USER    NEWDPF move heme_O2_opt.pdbqt
DOCKED: USER    NEWDPF about 8.287000 34.468000 -0.670000
DOCKED: USER    NEWDPF tran0 7.987482 0.069556 -17.522109
DOCKED: USER    NEWDPF quaternion0 0.298008 0.141949 -0.925747 -0.184481
DOCKED: USER    NEWDPF axisangle0 0.303213 0.144427 -0.941914 -158.738222
DOCKED: USER    NEWDPF quat0 0.303213 0.144427 -0.941914 -158.738222
DOCKED: USER    NEWDPF dihe0 107.69 155.01 133.96 -14.33 -156.51 -10.51 -50.54 89.34 176.48 -179.60 
DOCKED: USER  keepresnum = 1 
DOCKED: USER  
DOCKED: REMARK  10 active torsions:
DOCKED: REMARK  status: ('A' for Active; 'I' for Inactive)
DOCKED: REMARK    1  A    between atoms: C_6  and  C_10 
DOCKED: REMARK    2  A    between atoms: C_10  and  C_11 
DOCKED: REMARK    3  A    between atoms: C_11  and  C_12 
DOCKED: REMARK    4  A    between atoms: C_12  and  O_14 
DOCKED: REMARK    5  A    between atoms: C_17  and  C_20 
DOCKED: REMARK    6  A    between atoms: C_24  and  C_27 
DOCKED: REMARK    7  A    between atoms: C_31  and  C_34 
DOCKED: REMARK    8  A    between atoms: C_34  and  C_35 
DOCKED: REMARK    9  A    between atoms: C_35  and  C_36 
DOCKED: REMARK   10  A    between atoms: C_36  and  O_38 
DOCKED: USER                              x       y       z     vdW  Elec       q    Type
DOCKED: USER                           _______ _______ _______ _____ _____    ______ ____
DOCKED: ROOT
DOCKED: ATOM      1  C   UNL d   1      10.054   0.312 -17.110 -0.08 +0.02    +0.064 A 
DOCKED: ATOM      2  C   UNL d   1       6.154   1.059 -14.504 -0.22 +0.01    +0.064 A 
DOCKED: ATOM      3  C   UNL d   1       3.341  -0.288 -18.160 -0.09 +0.02    +0.064 C 
DOCKED: ATOM      4  C   UNL d   1       7.359  -1.517 -20.692 -0.12 +0.01    +0.064 A 
DOCKED: ATOM      5  C   UNL d   1       9.223   0.623 -16.102 -0.11 +0.02    +0.066 A 
DOCKED: ATOM      6  C   UNL d   1       9.646   1.089 -14.854 -0.12 -0.01    -0.021 A 
DOCKED: ATOM      7  C   UNL d   1       8.520   1.265 -14.084 -0.17 -0.01    -0.025 A 
DOCKED: ATOM      8  C   UNL d   1       7.437   0.947 -14.899 -0.14 +0.02    +0.066 A 
DOCKED: ATOM      9  C   UNL d   1       8.523   1.688 -12.632 -0.30 +0.01    +0.051 C 
DOCKED: ATOM     10  C   UNL d   1       4.976   0.763 -15.321 -0.20 +0.02    +0.066 A 
DOCKED: ATOM     11  C   UNL d   1       3.668   1.052 -14.917 -0.28 -0.01    -0.021 A 
DOCKED: ATOM     12  C   UNL d   1       2.843   0.687 -15.965 -0.26 +0.00    +0.000 A 
DOCKED: ATOM     13  C   UNL d   1       3.714   0.174 -16.966 -0.18 +0.02    +0.070 A 
DOCKED: ATOM     14  C   UNL d   1       3.226   1.675 -13.599 -0.34 +0.01    +0.052 C 
DOCKED: ATOM     15  C   UNL d   1       4.187  -0.848 -19.186 -0.19 +0.02    +0.066 A 
DOCKED: ATOM     16  C   UNL d   1       3.719  -1.465 -20.346 -0.20 -0.01    -0.021 A 
DOCKED: ATOM     17  C   UNL d   1       4.847  -1.825 -21.083 -0.11 +0.00    +0.000 A 
DOCKED: ATOM     18  C   UNL d   1       5.933  -1.393 -20.308 -0.12 +0.01    +0.070 A 
DOCKED: ATOM     19  C   UNL d   1       2.255  -1.703 -20.618 -0.26 +0.02    +0.052 C 
DOCKED: ATOM     20  C   UNL d   1       8.425  -1.153 -19.954 -0.09 +0.01    +0.066 A 
DOCKED: ATOM     21  C   UNL d   1       9.746  -1.278 -20.376 -0.05 -0.00    -0.025 A 
DOCKED: ATOM     22  C   UNL d   1      10.527  -0.737 -19.379 -0.04 -0.00    -0.021 A 
DOCKED: ATOM     23  C   UNL d   1       9.651  -0.316 -18.374 -0.07 +0.02    +0.066 A 
DOCKED: ATOM     24  C   UNL d   1      10.238  -1.886 -21.664 -0.04 +0.00    +0.051 C 
DOCKED: ATOM     25  N   UNL d   1       7.874   0.490 -16.121 -0.09 -0.08    -0.248 N 
DOCKED: ATOM     26  N   UNL d   1       5.009   0.219 -16.564 -0.10 -0.07    -0.248 N 
DOCKED: ATOM     27  N   UNL d   1       5.515  -0.871 -19.127 -0.10 -0.07    -0.248 N 
DOCKED: ATOM     28  N   UNL d   1       8.378  -0.612 -18.708 -0.05 -0.07    -0.248 N 
DOCKED: ATOM     29 FE   UNL d   1       6.704  -0.201 -17.646 -0.03 +0.00    +0.000 Fe
DOCKED: ATOM     30  O   UNL d   1       6.736  -1.139 -16.404 -0.41 +0.00    +0.000 OA
DOCKED: ATOM     31  O   UNL d   1       6.761  -1.759 -17.852 -0.34 +0.00    +0.000 OA
DOCKED: ENDROOT
DOCKED: BRANCH   6  32
DOCKED: ATOM     32  C   UNL d   1      11.060   1.234 -14.354 -0.13 +0.01    +0.052 C 
DOCKED: BRANCH  32  33
DOCKED: ATOM     33  C   UNL d   1      11.493   0.077 -13.458 -0.18 +0.03    +0.115 C 
DOCKED: BRANCH  33  34
DOCKED: ATOM     34  C   UNL d   1      12.786  -0.551 -13.916 -0.16 +0.04    +0.139 C 
DOCKED: ATOM     35  O   UNL d   1      13.765   0.152 -14.105 +0.02 -0.10    -0.650 OA
DOCKED: BRANCH  34  36
DOCKED: ATOM     36  O   UNL d   1      12.880  -1.877 -14.149 +0.10 -0.29    -0.776 OA
DOCKED: ATOM     37  H   UNL d   1      12.952  -2.235 -15.041 +0.03 +0.10    +0.167 HD
DOCKED: ENDBRANCH  34  36
DOCKED: ENDBRANCH  33  34
DOCKED: ENDBRANCH  32  33
DOCKED: ENDBRANCH   6  32
DOCKED: BRANCH  22  38
DOCKED: ATOM     38  C   UNL d   1      12.033  -0.689 -19.372 -0.02 +0.01    +0.052 C 
DOCKED: BRANCH  38  39
DOCKED: ATOM     39  C   UNL d   1      12.656  -2.034 -19.005 -0.03 +0.03    +0.115 C 
DOCKED: BRANCH  39  40
DOCKED: ATOM     40  C   UNL d   1      12.913  -2.165 -17.524 -0.05 +0.07    +0.139 C 
DOCKED: ATOM     41  O   UNL d   1      12.595  -3.189 -16.942 -0.45 -0.78    -0.650 OA
DOCKED: BRANCH  40  42
DOCKED: ATOM     42  O   UNL d   1      13.537  -1.188 -16.837 +0.01 -0.23    -0.776 OA
DOCKED: ATOM     43  H   UNL d   1      13.435  -1.099 -15.882 +0.02 +0.05    +0.167 HD
DOCKED: ENDBRANCH  40  42
DOCKED: ENDBRANCH  39  40
DOCKED: ENDBRANCH  38  39
DOCKED: ENDBRANCH  22  38
DOCKED: BRANCH  12  44
DOCKED: ATOM     44  C   UNL d   1       1.340   0.860 -15.903 -0.28 +0.00    +0.004 C 
DOCKED: ATOM     45  C   UNL d   1       0.510   0.467 -14.938 -0.49 +0.01    +0.012 C 
DOCKED: ENDBRANCH  12  44
DOCKED: BRANCH  17  46
DOCKED: ATOM     46  C   UNL d   1       4.981  -2.568 -22.386 -0.15 +0.00    +0.004 C 
DOCKED: ATOM     47  C   UNL d   1       4.096  -3.389 -22.965 -0.14 +0.00    +0.012 C 
DOCKED: ENDBRANCH  17  46
DOCKED: TORSDOF 10
DOCKED: TER
DOCKED: ENDMDL
________________________________________________________________________________


	BEGINNING GENETIC ALGORITHM DOCKING 41 of 100
Run: 41 Seed: 2142881623 1694265133 [ Run 41 of 100 GA/GALS ]
Beginning LAMARCKIAN GENETIC ALGORITHM (LGA), with a maximum of 25000000 energy evaluations.

Final-Value: -10.391


	FINAL GENETIC ALGORITHM DOCKED STATE
	_______________________________________________


Detailed state:  trans -13.078 1.920 9.601 quatxyzw -0.046408 -0.510942 0.758590 -0.401654 center 8.287 34.468 -0.670 ntor 10 8.4767 -109.0299 -13.5994 119.8107 75.0385 159.7418 -177.6001 93.5670 -159.6445 -171.1086
State:	-13.078   1.920   9.601  -0.051 -0.558  0.828 -132.637      8.48 -109.03  -13.60  119.81   75.04  159.74 -177.60   93.57 -159.64 -171.11

DOCKED: MODEL       41
DOCKED: USER    Run = 41
DOCKED: USER    DPF = D:/Protein_go_brrr/autodock/final/mut_D99N/heme_O2/dock.dpf
DOCKED: USER  
DOCKED: USER    Estimated Free Energy of Binding    =   -5.13 kcal/mol  [=(1)+(2)+(3)-(4)]
DOCKED: USER    Estimated Inhibition Constant, Ki   =  173.96 uM (micromolar)  [Temperature = 298.15 K]
DOCKED: USER    
DOCKED: USER    (1) Final Intermolecular Energy     =   -8.11 kcal/mol
DOCKED: USER        vdW + Hbond + desolv Energy     =   -5.92 kcal/mol
DOCKED: USER        Electrostatic Energy            =   -2.19 kcal/mol
DOCKED: USER    (2) Final Total Internal Energy     =   -2.28 kcal/mol
DOCKED: USER    (3) Torsional Free Energy           =   +2.98 kcal/mol
DOCKED: USER    (4) Unbound System's Energy  [=(2)] =   -2.28 kcal/mol
DOCKED: USER    
DOCKED: USER    
DOCKED: USER    NEWDPF move heme_O2_opt.pdbqt
DOCKED: USER    NEWDPF about 8.287000 34.468000 -0.670000
DOCKED: USER    NEWDPF tran0 -13.078212 1.919604 9.601490
DOCKED: USER    NEWDPF quaternion0 -0.046408 -0.510942 0.758590 -0.401654
DOCKED: USER    NEWDPF axisangle0 -0.050676 -0.557924 0.828343 -132.636749
DOCKED: USER    NEWDPF quat0 -0.050676 -0.557924 0.828343 -132.636749
DOCKED: USER    NEWDPF dihe0 8.48 -109.03 -13.60 119.81 75.04 159.74 -177.60 93.57 -159.64 -171.11 
DOCKED: USER  keepresnum = 1 
DOCKED: USER  
DOCKED: REMARK  10 active torsions:
DOCKED: REMARK  status: ('A' for Active; 'I' for Inactive)
DOCKED: REMARK    1  A    between atoms: C_6  and  C_10 
DOCKED: REMARK    2  A    between atoms: C_10  and  C_11 
DOCKED: REMARK    3  A    between atoms: C_11  and  C_12 
DOCKED: REMARK    4  A    between atoms: C_12  and  O_14 
DOCKED: REMARK    5  A    between atoms: C_17  and  C_20 
DOCKED: REMARK    6  A    between atoms: C_24  and  C_27 
DOCKED: REMARK    7  A    between atoms: C_31  and  C_34 
DOCKED: REMARK    8  A    between atoms: C_34  and  C_35 
DOCKED: REMARK    9  A    between atoms: C_35  and  C_36 
DOCKED: REMARK   10  A    between atoms: C_36  and  O_38 
DOCKED: USER                              x       y       z     vdW  Elec       q    Type
DOCKED: USER                           _______ _______ _______ _____ _____    ______ ____
DOCKED: ROOT
DOCKED: ATOM      1  C   UNL d   1     -11.773   1.188   8.098 -0.23 +0.02    +0.064 A 
DOCKED: ATOM      2  C   UNL d   1     -12.814  -0.352  12.468 -0.14 +0.02    +0.064 A 
DOCKED: ATOM      3  C   UNL d   1     -15.819   3.335  13.152 -0.14 +0.04    +0.064 C 
DOCKED: ATOM      4  C   UNL d   1     -15.120   4.665   8.482 -0.07 +0.02    +0.064 A 
DOCKED: ATOM      5  C   UNL d   1     -11.813   0.467   9.230 -0.24 +0.02    +0.066 A 
DOCKED: ATOM      6  C   UNL d   1     -11.054  -0.686   9.450 -0.33 -0.01    -0.021 A 
DOCKED: ATOM      7  C   UNL d   1     -11.387  -1.157  10.699 -0.24 -0.01    -0.025 A 
DOCKED: ATOM      8  C   UNL d   1     -12.304  -0.252  11.226 -0.17 +0.02    +0.066 A 
DOCKED: ATOM      9  C   UNL d   1     -10.855  -2.434  11.312 -0.21 +0.01    +0.051 C 
DOCKED: ATOM     10  C   UNL d   1     -13.761   0.579  13.084 -0.13 +0.04    +0.066 A 
DOCKED: ATOM     11  C   UNL d   1     -14.132   0.519  14.432 -0.09 -0.01    -0.021 A 
DOCKED: ATOM     12  C   UNL d   1     -14.985   1.585  14.653 -0.09 +0.00    +0.000 A 
DOCKED: ATOM     13  C   UNL d   1     -15.097   2.242  13.397 -0.13 +0.05    +0.070 A 
DOCKED: ATOM     14  C   UNL d   1     -13.672  -0.496  15.472 -0.10 +0.03    +0.052 C 
DOCKED: ATOM     15  C   UNL d   1     -15.987   4.010  11.887 -0.10 +0.03    +0.066 A 
DOCKED: ATOM     16  C   UNL d   1     -16.886   5.051  11.660 -0.07 -0.01    -0.021 A 
DOCKED: ATOM     17  C   UNL d   1     -16.705   5.446  10.335 -0.06 +0.00    +0.000 A 
DOCKED: ATOM     18  C   UNL d   1     -15.695   4.606   9.847 -0.01 +0.03    +0.070 A 
DOCKED: ATOM     19  C   UNL d   1     -17.865   5.535  12.701 -0.04 +0.01    +0.052 C 
DOCKED: ATOM     20  C   UNL d   1     -14.182   3.847   7.968 -0.11 +0.02    +0.066 A 
DOCKED: ATOM     21  C   UNL d   1     -13.666   3.962   6.680 -0.12 -0.00    -0.025 A 
DOCKED: ATOM     22  C   UNL d   1     -12.692   2.997   6.562 -0.18 -0.00    -0.021 A 
DOCKED: ATOM     23  C   UNL d   1     -12.661   2.313   7.782 -0.18 +0.02    +0.066 A 
DOCKED: ATOM     24  C   UNL d   1     -14.085   4.942   5.615 -0.14 +0.00    +0.051 C 
DOCKED: ATOM     25  N   UNL d   1     -12.614   0.713  10.295 -0.10 -0.08    -0.248 N 
DOCKED: ATOM     26  N   UNL d   1     -14.353   1.621  12.447 -0.09 -0.13    -0.248 N 
DOCKED: ATOM     27  N   UNL d   1     -15.324   3.692  10.779 -0.07 -0.10    -0.248 N 
DOCKED: ATOM     28  N   UNL d   1     -13.599   2.804   8.618 -0.08 -0.07    -0.248 N 
DOCKED: ATOM     29 FE   UNL d   1     -13.976   2.219  10.518 -0.03 +0.00    +0.000 Fe
DOCKED: ATOM     30  O   UNL d   1     -14.615   0.803  10.419 -0.06 +0.00    +0.000 OA
DOCKED: ATOM     31  O   UNL d   1     -15.300   2.022   9.693 -0.06 +0.00    +0.000 OA
DOCKED: ENDROOT
DOCKED: BRANCH   6  32
DOCKED: ATOM     32  C   UNL d   1     -10.154  -1.399   8.475 -0.40 +0.02    +0.052 C 
DOCKED: BRANCH  32  33
DOCKED: ATOM     33  C   UNL d   1     -10.926  -2.209   7.438 -0.28 +0.08    +0.115 C 
DOCKED: BRANCH  33  34
DOCKED: ATOM     34  C   UNL d   1     -12.420  -2.107   7.625 -0.17 +0.10    +0.139 C 
DOCKED: ATOM     35  O   UNL d   1     -12.959  -2.729   8.526 +0.04 -0.30    -0.650 OA
DOCKED: BRANCH  34  36
DOCKED: ATOM     36  O   UNL d   1     -13.183  -1.362   6.798 -0.02 -0.79    -0.776 OA
DOCKED: ATOM     37  H   UNL d   1     -12.829  -0.970   5.991 +0.02 +0.25    +0.167 HD
DOCKED: ENDBRANCH  34  36
DOCKED: ENDBRANCH  33  34
DOCKED: ENDBRANCH  32  33
DOCKED: ENDBRANCH   6  32
DOCKED: BRANCH  22  38
DOCKED: ATOM     38  C   UNL d   1     -11.884   2.710   5.322 -0.11 +0.01    +0.052 C 
DOCKED: BRANCH  38  39
DOCKED: ATOM     39  C   UNL d   1     -12.728   2.097   4.207 -0.18 +0.05    +0.115 C 
DOCKED: BRANCH  39  40
DOCKED: ATOM     40  C   UNL d   1     -12.806   0.594   4.303 -0.17 +0.14    +0.139 C 
DOCKED: ATOM     41  O   UNL d   1     -11.779  -0.065   4.327 -0.44 -0.92    -0.650 OA
DOCKED: BRANCH  40  42
DOCKED: ATOM     42  O   UNL d   1     -13.992  -0.036   4.414 -0.16 -0.99    -0.776 OA
DOCKED: ATOM     43  H   UNL d   1     -14.279  -0.427   5.248 +0.02 +0.20    +0.167 HD
DOCKED: ENDBRANCH  40  42
DOCKED: ENDBRANCH  39  40
DOCKED: ENDBRANCH  38  39
DOCKED: ENDBRANCH  22  38
DOCKED: BRANCH  12  44
DOCKED: ATOM     44  C   UNL d   1     -15.594   1.858  16.012 -0.09 +0.00    +0.004 C 
DOCKED: ATOM     45  C   UNL d   1     -16.145   2.990  16.450 -0.07 +0.01    +0.012 C 
DOCKED: ENDBRANCH  12  44
DOCKED: BRANCH  17  46
DOCKED: ATOM     46  C   UNL d   1     -17.424   6.476   9.504 -0.05 +0.00    +0.004 C 
DOCKED: ATOM     47  C   UNL d   1     -16.943   7.624   9.010 -0.07 +0.00    +0.012 C 
DOCKED: ENDBRANCH  17  46
DOCKED: TORSDOF 10
DOCKED: TER
DOCKED: ENDMDL
________________________________________________________________________________


	BEGINNING GENETIC ALGORITHM DOCKING 42 of 100
Run: 42 Seed: 2093175550 623497892 [ Run 42 of 100 GA/GALS ]
Beginning LAMARCKIAN GENETIC ALGORITHM (LGA), with a maximum of 25000000 energy evaluations.

Final-Value: -11.680


	FINAL GENETIC ALGORITHM DOCKED STATE
	_______________________________________________


Detailed state:  trans 1.204 -0.504 -20.794 quatxyzw 0.744061 -0.061538 0.009791 -0.665199 center 8.287 34.468 -0.670 ntor 10 -134.1933 -120.5129 13.4018 -85.5115 -4.1873 166.4406 -72.6247 53.2333 -179.6160 -178.3333
State:	  1.204  -0.504 -20.794   0.997 -0.082  0.013 -96.605   -134.19 -120.51   13.40  -85.51   -4.19  166.44  -72.62   53.23 -179.62 -178.33

DOCKED: MODEL       42
DOCKED: USER    Run = 42
DOCKED: USER    DPF = D:/Protein_go_brrr/autodock/final/mut_D99N/heme_O2/dock.dpf
DOCKED: USER  
DOCKED: USER    Estimated Free Energy of Binding    =   -6.20 kcal/mol  [=(1)+(2)+(3)-(4)]
DOCKED: USER    Estimated Inhibition Constant, Ki   =   28.52 uM (micromolar)  [Temperature = 298.15 K]
DOCKED: USER    
DOCKED: USER    (1) Final Intermolecular Energy     =   -9.18 kcal/mol
DOCKED: USER        vdW + Hbond + desolv Energy     =   -5.29 kcal/mol
DOCKED: USER        Electrostatic Energy            =   -3.89 kcal/mol
DOCKED: USER    (2) Final Total Internal Energy     =   -2.50 kcal/mol
DOCKED: USER    (3) Torsional Free Energy           =   +2.98 kcal/mol
DOCKED: USER    (4) Unbound System's Energy  [=(2)] =   -2.50 kcal/mol
DOCKED: USER    
DOCKED: USER    
DOCKED: USER    NEWDPF move heme_O2_opt.pdbqt
DOCKED: USER    NEWDPF about 8.287000 34.468000 -0.670000
DOCKED: USER    NEWDPF tran0 1.203715 -0.504109 -20.794418
DOCKED: USER    NEWDPF quaternion0 0.744061 -0.061538 0.009791 -0.665199
DOCKED: USER    NEWDPF axisangle0 0.996512 -0.082417 0.013113 -96.604811
DOCKED: USER    NEWDPF quat0 0.996512 -0.082417 0.013113 -96.604811
DOCKED: USER    NEWDPF dihe0 -134.19 -120.51 13.40 -85.51 -4.19 166.44 -72.62 53.23 -179.62 -178.33 
DOCKED: USER  keepresnum = 1 
DOCKED: USER  
DOCKED: REMARK  10 active torsions:
DOCKED: REMARK  status: ('A' for Active; 'I' for Inactive)
DOCKED: REMARK    1  A    between atoms: C_6  and  C_10 
DOCKED: REMARK    2  A    between atoms: C_10  and  C_11 
DOCKED: REMARK    3  A    between atoms: C_11  and  C_12 
DOCKED: REMARK    4  A    between atoms: C_12  and  O_14 
DOCKED: REMARK    5  A    between atoms: C_17  and  C_20 
DOCKED: REMARK    6  A    between atoms: C_24  and  C_27 
DOCKED: REMARK    7  A    between atoms: C_31  and  C_34 
DOCKED: REMARK    8  A    between atoms: C_34  and  C_35 
DOCKED: REMARK    9  A    between atoms: C_35  and  C_36 
DOCKED: REMARK   10  A    between atoms: C_36  and  O_38 
DOCKED: USER                              x       y       z     vdW  Elec       q    Type
DOCKED: USER                           _______ _______ _______ _____ _____    ______ ____
DOCKED: ROOT
DOCKED: ATOM      1  C   UNL d   1      -0.661   0.371 -20.288 -0.12 +0.07    +0.064 A 
DOCKED: ATOM      2  C   UNL d   1       0.541  -3.102 -23.296 -0.10 +0.01    +0.064 A 
DOCKED: ATOM      3  C   UNL d   1       5.187  -2.586 -22.181 -0.10 +0.01    +0.064 C 
DOCKED: ATOM      4  C   UNL d   1       3.914   0.661 -18.731 -0.09 +0.02    +0.064 A 
DOCKED: ATOM      5  C   UNL d   1      -0.713  -0.617 -21.196 -0.13 +0.05    +0.066 A 
DOCKED: ATOM      6  C   UNL d   1      -1.892  -1.063 -21.800 -0.13 -0.01    -0.021 A 
DOCKED: ATOM      7  C   UNL d   1      -1.551  -2.098 -22.639 -0.12 -0.01    -0.025 A 
DOCKED: ATOM      8  C   UNL d   1      -0.167  -2.223 -22.560 -0.12 +0.02    +0.066 A 
DOCKED: ATOM      9  C   UNL d   1      -2.534  -2.924 -23.438 -0.08 +0.01    +0.051 C 
DOCKED: ATOM     10  C   UNL d   1       1.995  -3.264 -23.274 -0.09 +0.01    +0.066 A 
DOCKED: ATOM     11  C   UNL d   1       2.693  -4.076 -24.176 -0.07 -0.00    -0.021 A 
DOCKED: ATOM     12  C   UNL d   1       4.036  -3.927 -23.882 -0.10 +0.00    +0.000 A 
DOCKED: ATOM     13  C   UNL d   1       4.081  -3.022 -22.785 -0.10 +0.01    +0.070 A 
DOCKED: ATOM     14  C   UNL d   1       2.105  -4.936 -25.288 -0.04 +0.00    +0.052 C 
DOCKED: ATOM     15  C   UNL d   1       5.274  -1.699 -21.047 -0.08 +0.01    +0.066 A 
DOCKED: ATOM     16  C   UNL d   1       6.451  -1.411 -20.357 -0.14 -0.00    -0.021 A 
DOCKED: ATOM     17  C   UNL d   1       6.113  -0.487 -19.368 -0.13 +0.00    +0.000 A 
DOCKED: ATOM     18  C   UNL d   1       4.736  -0.277 -19.532 -0.12 +0.02    +0.070 A 
DOCKED: ATOM     19  C   UNL d   1       7.769  -2.077 -20.664 -0.17 +0.01    +0.052 C 
DOCKED: ATOM     20  C   UNL d   1       2.585   0.855 -18.834 -0.10 +0.02    +0.066 A 
DOCKED: ATOM     21  C   UNL d   1       1.868   1.766 -18.063 -0.10 -0.01    -0.025 A 
DOCKED: ATOM     22  C   UNL d   1       0.567   1.716 -18.512 -0.12 -0.02    -0.021 A 
DOCKED: ATOM     23  C   UNL d   1       0.535   0.760 -19.531 -0.12 +0.06    +0.066 A 
DOCKED: ATOM     24  C   UNL d   1       2.396   2.636 -16.953 -0.10 +0.02    +0.051 C 
DOCKED: ATOM     25  N   UNL d   1       0.341  -1.355 -21.622 -0.11 -0.13    -0.248 N 
DOCKED: ATOM     26  N   UNL d   1       2.835  -2.627 -22.419 -0.08 -0.05    -0.248 N 
DOCKED: ATOM     27  N   UNL d   1       4.230  -1.076 -20.506 -0.09 -0.06    -0.248 N 
DOCKED: ATOM     28  N   UNL d   1       1.755   0.207 -19.693 -0.10 -0.13    -0.248 N 
DOCKED: ATOM     29 FE   UNL d   1       2.294  -1.200 -21.045 -0.03 +0.00    +0.000 Fe
DOCKED: ATOM     30  O   UNL d   1       1.608  -2.522 -20.594 -0.33 +0.00    +0.000 OA
DOCKED: ATOM     31  O   UNL d   1       2.594  -1.781 -19.615 -0.37 +0.00    +0.000 OA
DOCKED: ENDROOT
DOCKED: BRANCH   6  32
DOCKED: ATOM     32  C   UNL d   1      -3.304  -0.630 -21.500 -0.11 +0.04    +0.052 C 
DOCKED: BRANCH  32  33
DOCKED: ATOM     33  C   UNL d   1      -4.013  -1.558 -20.519 -0.17 +0.12    +0.115 C 
DOCKED: BRANCH  33  34
DOCKED: ATOM     34  C   UNL d   1      -4.133  -0.955 -19.141 -0.09 +0.26    +0.139 C 
DOCKED: ATOM     35  O   UNL d   1      -4.241  -1.686 -18.170 -0.48 -1.35    -0.650 OA
DOCKED: BRANCH  34  36
DOCKED: ATOM     36  O   UNL d   1      -4.152   0.382 -18.958 -0.00 -1.56    -0.776 OA
DOCKED: ATOM     37  H   UNL d   1      -3.620   0.812 -18.278 +0.04 +0.36    +0.167 HD
DOCKED: ENDBRANCH  34  36
DOCKED: ENDBRANCH  33  34
DOCKED: ENDBRANCH  32  33
DOCKED: ENDBRANCH   6  32
DOCKED: BRANCH  22  38
DOCKED: ATOM     38  C   UNL d   1      -0.588   2.500 -17.944 -0.12 +0.04    +0.052 C 
DOCKED: BRANCH  38  39
DOCKED: ATOM     39  C   UNL d   1      -1.091   1.921 -16.623 -0.22 +0.13    +0.115 C 
DOCKED: BRANCH  39  40
DOCKED: ATOM     40  C   UNL d   1      -2.580   1.677 -16.631 -0.21 +0.21    +0.139 C 
DOCKED: ATOM     41  O   UNL d   1      -3.336   2.557 -17.008 +0.02 -0.86    -0.650 OA
DOCKED: BRANCH  40  42
DOCKED: ATOM     42  O   UNL d   1      -3.091   0.482 -16.275 +0.20 -1.64    -0.776 OA
DOCKED: ATOM     43  H   UNL d   1      -3.596  -0.055 -16.897 +0.07 +0.42    +0.167 HD
DOCKED: ENDBRANCH  40  42
DOCKED: ENDBRANCH  39  40
DOCKED: ENDBRANCH  38  39
DOCKED: ENDBRANCH  22  38
DOCKED: BRANCH  12  44
DOCKED: ATOM     44  C   UNL d   1       5.114  -4.651 -24.660 -0.10 +0.00    +0.004 C 
DOCKED: ATOM     45  C   UNL d   1       6.415  -4.726 -24.380 -0.12 +0.00    +0.012 C 
DOCKED: ENDBRANCH  12  44
DOCKED: BRANCH  17  46
DOCKED: ATOM     46  C   UNL d   1       6.941   0.146 -18.282 -0.12 +0.00    +0.004 C 
DOCKED: ATOM     47  C   UNL d   1       7.116  -0.273 -17.022 -0.23 +0.00    +0.012 C 
DOCKED: ENDBRANCH  17  46
DOCKED: TORSDOF 10
DOCKED: TER
DOCKED: ENDMDL
________________________________________________________________________________


	BEGINNING GENETIC ALGORITHM DOCKING 43 of 100
Run: 43 Seed: 602476733 358807901 [ Run 43 of 100 GA/GALS ]
Beginning LAMARCKIAN GENETIC ALGORITHM (LGA), with a maximum of 25000000 energy evaluations.

Final-Value: -11.461


	FINAL GENETIC ALGORITHM DOCKED STATE
	_______________________________________________


Detailed state:  trans -14.784 6.143 7.669 quatxyzw -0.498326 -0.606533 -0.522511 0.332823 center 8.287 34.468 -0.670 ntor 10 -12.0560 -142.3491 75.5707 -101.2799 43.4304 -174.7098 -43.2570 125.0195 22.0742 -147.1939
State:	-14.784   6.143   7.669  -0.528 -0.643 -0.554 141.120    -12.06 -142.35   75.57 -101.28   43.43 -174.71  -43.26  125.02   22.07 -147.19

DOCKED: MODEL       43
DOCKED: USER    Run = 43
DOCKED: USER    DPF = D:/Protein_go_brrr/autodock/final/mut_D99N/heme_O2/dock.dpf
DOCKED: USER  
DOCKED: USER    Estimated Free Energy of Binding    =   -7.85 kcal/mol  [=(1)+(2)+(3)-(4)]
DOCKED: USER    Estimated Inhibition Constant, Ki   =    1.76 uM (micromolar)  [Temperature = 298.15 K]
DOCKED: USER    
DOCKED: USER    (1) Final Intermolecular Energy     =  -10.83 kcal/mol
DOCKED: USER        vdW + Hbond + desolv Energy     =   -7.99 kcal/mol
DOCKED: USER        Electrostatic Energy            =   -2.84 kcal/mol
DOCKED: USER    (2) Final Total Internal Energy     =   -0.63 kcal/mol
DOCKED: USER    (3) Torsional Free Energy           =   +2.98 kcal/mol
DOCKED: USER    (4) Unbound System's Energy  [=(2)] =   -0.63 kcal/mol
DOCKED: USER    
DOCKED: USER    
DOCKED: USER    NEWDPF move heme_O2_opt.pdbqt
DOCKED: USER    NEWDPF about 8.287000 34.468000 -0.670000
DOCKED: USER    NEWDPF tran0 -14.783544 6.142955 7.668979
DOCKED: USER    NEWDPF quaternion0 -0.498326 -0.606533 -0.522511 0.332823
DOCKED: USER    NEWDPF axisangle0 -0.528454 -0.643202 -0.554101 141.119600
DOCKED: USER    NEWDPF quat0 -0.528454 -0.643202 -0.554101 141.119600
DOCKED: USER    NEWDPF dihe0 -12.06 -142.35 75.57 -101.28 43.43 -174.71 -43.26 125.02 22.07 -147.19 
DOCKED: USER  keepresnum = 1 
DOCKED: USER  
DOCKED: REMARK  10 active torsions:
DOCKED: REMARK  status: ('A' for Active; 'I' for Inactive)
DOCKED: REMARK    1  A    between atoms: C_6  and  C_10 
DOCKED: REMARK    2  A    between atoms: C_10  and  C_11 
DOCKED: REMARK    3  A    between atoms: C_11  and  C_12 
DOCKED: REMARK    4  A    between atoms: C_12  and  O_14 
DOCKED: REMARK    5  A    between atoms: C_17  and  C_20 
DOCKED: REMARK    6  A    between atoms: C_24  and  C_27 
DOCKED: REMARK    7  A    between atoms: C_31  and  C_34 
DOCKED: REMARK    8  A    between atoms: C_34  and  C_35 
DOCKED: REMARK    9  A    between atoms: C_35  and  C_36 
DOCKED: REMARK   10  A    between atoms: C_36  and  O_38 
DOCKED: USER                              x       y       z     vdW  Elec       q    Type
DOCKED: USER                           _______ _______ _______ _____ _____    ______ ____
DOCKED: ROOT
DOCKED: ATOM      1  C   UNL d   1     -14.842   4.095   8.217 -0.08 +0.02    +0.064 A 
DOCKED: ATOM      2  C   UNL d   1     -12.446   6.450   4.860 -0.19 -0.01    +0.064 A 
DOCKED: ATOM      3  C   UNL d   1     -14.500  10.592   6.170 -0.16 -0.02    +0.064 C 
DOCKED: ATOM      4  C   UNL d   1     -16.608   8.261   9.937 -0.07 +0.00    +0.064 A 
DOCKED: ATOM      5  C   UNL d   1     -14.021   4.398   7.199 -0.11 +0.01    +0.066 A 
DOCKED: ATOM      6  C   UNL d   1     -13.248   3.458   6.510 -0.13 -0.00    -0.021 A 
DOCKED: ATOM      7  C   UNL d   1     -12.521   4.145   5.566 -0.21 -0.00    -0.025 A 
DOCKED: ATOM      8  C   UNL d   1     -12.906   5.479   5.672 -0.20 +0.00    +0.066 A 
DOCKED: ATOM      9  C   UNL d   1     -11.493   3.525   4.645 -0.28 +0.01    +0.051 C 
DOCKED: ATOM     10  C   UNL d   1     -12.830   7.862   4.908 -0.20 -0.01    +0.066 A 
DOCKED: ATOM     11  C   UNL d   1     -12.448   8.796   3.939 -0.37 +0.00    -0.021 A 
DOCKED: ATOM     12  C   UNL d   1     -13.045   9.993   4.290 -0.37 -0.00    +0.000 A 
DOCKED: ATOM     13  C   UNL d   1     -13.764   9.717   5.486 -0.21 -0.01    +0.070 A 
DOCKED: ATOM     14  C   UNL d   1     -11.572   8.551   2.716 -0.42 -0.00    +0.052 C 
DOCKED: ATOM     15  C   UNL d   1     -15.213  10.362   7.403 -0.10 -0.02    +0.066 A 
DOCKED: ATOM     16  C   UNL d   1     -15.830  11.360   8.158 -0.10 +0.01    -0.021 A 
DOCKED: ATOM     17  C   UNL d   1     -16.437  10.719   9.238 -0.09 -0.00    +0.000 A 
DOCKED: ATOM     18  C   UNL d   1     -16.143   9.360   9.057 -0.09 -0.01    +0.070 A 
DOCKED: ATOM     19  C   UNL d   1     -15.739  12.825   7.815 -0.08 -0.04    +0.052 C 
DOCKED: ATOM     20  C   UNL d   1     -16.309   6.953   9.817 -0.01 +0.01    +0.066 A 
DOCKED: ATOM     21  C   UNL d   1     -16.792   5.962  10.667 -0.03 -0.01    -0.025 A 
DOCKED: ATOM     22  C   UNL d   1     -16.320   4.765  10.176 -0.07 -0.01    -0.021 A 
DOCKED: ATOM     23  C   UNL d   1     -15.550   5.073   9.051 -0.04 +0.02    +0.066 A 
DOCKED: ATOM     24  C   UNL d   1     -17.655   6.147  11.888 -0.05 +0.01    +0.051 C 
DOCKED: ATOM     25  N   UNL d   1     -13.781   5.644   6.721 -0.08 -0.02    -0.248 N 
DOCKED: ATOM     26  N   UNL d   1     -13.624   8.419   5.857 -0.13 +0.03    -0.248 N 
DOCKED: ATOM     27  N   UNL d   1     -15.338   9.171   7.981 -0.06 +0.02    -0.248 N 
DOCKED: ATOM     28  N   UNL d   1     -15.509   6.408   8.863 -0.06 -0.06    -0.248 N 
DOCKED: ATOM     29 FE   UNL d   1     -14.574   7.409   7.372 -0.04 +0.00    +0.000 Fe
DOCKED: ATOM     30  O   UNL d   1     -13.048   7.268   7.644 -0.40 -0.00    +0.000 OA
DOCKED: ATOM     31  O   UNL d   1     -13.978   7.925   8.733 -0.37 +0.00    +0.000 OA
DOCKED: ENDROOT
DOCKED: BRANCH   6  32
DOCKED: ATOM     32  C   UNL d   1     -13.091   1.991   6.815 -0.15 +0.02    +0.052 C 
DOCKED: BRANCH  32  33
DOCKED: ATOM     33  C   UNL d   1     -13.838   1.098   5.829 -0.10 +0.06    +0.115 C 
DOCKED: BRANCH  33  34
DOCKED: ATOM     34  C   UNL d   1     -13.001  -0.065   5.358 -0.08 +0.17    +0.139 C 
DOCKED: ATOM     35  O   UNL d   1     -12.564  -0.071   4.218 -0.53 -1.10    -0.650 OA
DOCKED: BRANCH  34  36
DOCKED: ATOM     36  O   UNL d   1     -12.746  -1.119   6.160 -0.08 -1.10    -0.776 OA
DOCKED: ATOM     37  H   UNL d   1     -12.939  -1.100   7.105 +0.04 +0.14    +0.167 HD
DOCKED: ENDBRANCH  34  36
DOCKED: ENDBRANCH  33  34
DOCKED: ENDBRANCH  32  33
DOCKED: ENDBRANCH   6  32
DOCKED: BRANCH  22  38
DOCKED: ATOM     38  C   UNL d   1     -16.548   3.410  10.796 -0.06 +0.01    +0.052 C 
DOCKED: BRANCH  38  39
DOCKED: ATOM     39  C   UNL d   1     -16.330   3.418  12.307 -0.08 +0.04    +0.115 C 
DOCKED: BRANCH  39  40
DOCKED: ATOM     40  C   UNL d   1     -14.958   3.917  12.689 -0.19 +0.10    +0.139 C 
DOCKED: ATOM     41  O   UNL d   1     -14.017   3.740  11.932 -0.08 -0.40    -0.650 OA
DOCKED: BRANCH  40  42
DOCKED: ATOM     42  O   UNL d   1     -14.760   4.601  13.832 -0.35 -0.93    -0.776 OA
DOCKED: ATOM     43  H   UNL d   1     -14.171   5.365  13.867 -0.51 +0.19    +0.167 HD
DOCKED: ENDBRANCH  40  42
DOCKED: ENDBRANCH  39  40
DOCKED: ENDBRANCH  38  39
DOCKED: ENDBRANCH  22  38
DOCKED: BRANCH  12  44
DOCKED: ATOM     44  C   UNL d   1     -12.868  11.251   3.466 -0.43 -0.00    +0.004 C 
DOCKED: ATOM     45  C   UNL d   1     -12.170  12.342   3.777 -0.42 -0.00    +0.012 C 
DOCKED: ENDBRANCH  12  44
DOCKED: BRANCH  17  46
DOCKED: ATOM     46  C   UNL d   1     -17.195  11.270  10.416 -0.06 -0.00    +0.004 C 
DOCKED: ATOM     47  C   UNL d   1     -16.804  11.339  11.695 -0.08 -0.00    +0.012 C 
DOCKED: ENDBRANCH  17  46
DOCKED: TORSDOF 10
DOCKED: TER
DOCKED: ENDMDL
________________________________________________________________________________


	BEGINNING GENETIC ALGORITHM DOCKING 44 of 100
Run: 44 Seed: 439784283 183247188 [ Run 44 of 100 GA/GALS ]
Beginning LAMARCKIAN GENETIC ALGORITHM (LGA), with a maximum of 25000000 energy evaluations.

Final-Value: -10.593


	FINAL GENETIC ALGORITHM DOCKED STATE
	_______________________________________________


Detailed state:  trans 1.580 0.381 -19.851 quatxyzw 0.856566 -0.159464 0.014619 -0.490564 center 8.287 34.468 -0.670 ntor 10 12.3482 37.7127 51.6116 142.9932 20.8384 63.2180 -106.2695 43.9393 170.6041 176.0108
State:	  1.580   0.381 -19.851   0.983 -0.183  0.017 -121.245     12.35   37.71   51.61  142.99   20.84   63.22 -106.27   43.94  170.60  176.01

DOCKED: MODEL       44
DOCKED: USER    Run = 44
DOCKED: USER    DPF = D:/Protein_go_brrr/autodock/final/mut_D99N/heme_O2/dock.dpf
DOCKED: USER  
DOCKED: USER    Estimated Free Energy of Binding    =   -6.06 kcal/mol  [=(1)+(2)+(3)-(4)]
DOCKED: USER    Estimated Inhibition Constant, Ki   =   36.32 uM (micromolar)  [Temperature = 298.15 K]
DOCKED: USER    
DOCKED: USER    (1) Final Intermolecular Energy     =   -9.04 kcal/mol
DOCKED: USER        vdW + Hbond + desolv Energy     =   -5.54 kcal/mol
DOCKED: USER        Electrostatic Energy            =   -3.50 kcal/mol
DOCKED: USER    (2) Final Total Internal Energy     =   -1.55 kcal/mol
DOCKED: USER    (3) Torsional Free Energy           =   +2.98 kcal/mol
DOCKED: USER    (4) Unbound System's Energy  [=(2)] =   -1.55 kcal/mol
DOCKED: USER    
DOCKED: USER    
DOCKED: USER    NEWDPF move heme_O2_opt.pdbqt
DOCKED: USER    NEWDPF about 8.287000 34.468000 -0.670000
DOCKED: USER    NEWDPF tran0 1.579961 0.380873 -19.850974
DOCKED: USER    NEWDPF quaternion0 0.856566 -0.159464 0.014619 -0.490564
DOCKED: USER    NEWDPF axisangle0 0.982970 -0.182996 0.016776 -121.244713
DOCKED: USER    NEWDPF quat0 0.982970 -0.182996 0.016776 -121.244713
DOCKED: USER    NEWDPF dihe0 12.35 37.71 51.61 142.99 20.84 63.22 -106.27 43.94 170.60 176.01 
DOCKED: USER  keepresnum = 1 
DOCKED: USER  
DOCKED: REMARK  10 active torsions:
DOCKED: REMARK  status: ('A' for Active; 'I' for Inactive)
DOCKED: REMARK    1  A    between atoms: C_6  and  C_10 
DOCKED: REMARK    2  A    between atoms: C_10  and  C_11 
DOCKED: REMARK    3  A    between atoms: C_11  and  C_12 
DOCKED: REMARK    4  A    between atoms: C_12  and  O_14 
DOCKED: REMARK    5  A    between atoms: C_17  and  C_20 
DOCKED: REMARK    6  A    between atoms: C_24  and  C_27 
DOCKED: REMARK    7  A    between atoms: C_31  and  C_34 
DOCKED: REMARK    8  A    between atoms: C_34  and  C_35 
DOCKED: REMARK    9  A    between atoms: C_35  and  C_36 
DOCKED: REMARK   10  A    between atoms: C_36  and  O_38 
DOCKED: USER                              x       y       z     vdW  Elec       q    Type
DOCKED: USER                           _______ _______ _______ _____ _____    ______ ____
DOCKED: ROOT
DOCKED: ATOM      1  C   UNL d   1      -0.262   1.259 -19.273 -0.10 +0.07    +0.064 A 
DOCKED: ATOM      2  C   UNL d   1       1.150  -0.902 -23.260 -0.03 +0.01    +0.064 A 
DOCKED: ATOM      3  C   UNL d   1       5.551  -1.570 -21.449 -0.13 +0.01    +0.064 C 
DOCKED: ATOM      4  C   UNL d   1       3.971   0.224 -17.164 -0.18 +0.02    +0.064 A 
DOCKED: ATOM      5  C   UNL d   1      -0.238   0.725 -20.504 -0.10 +0.05    +0.066 A 
DOCKED: ATOM      6  C   UNL d   1      -1.325   0.733 -21.383 -0.06 -0.01    -0.021 A 
DOCKED: ATOM      7  C   UNL d   1      -0.931   0.069 -22.521 -0.04 -0.01    -0.025 A 
DOCKED: ATOM      8  C   UNL d   1       0.402  -0.284 -22.325 -0.05 +0.02    +0.066 A 
DOCKED: ATOM      9  C   UNL d   1      -1.824  -0.220 -23.707 -0.02 +0.01    +0.051 C 
DOCKED: ATOM     10  C   UNL d   1       2.557  -1.277 -23.121 -0.04 +0.01    +0.066 A 
DOCKED: ATOM     11  C   UNL d   1       3.331  -1.767 -24.178 -0.03 -0.00    -0.021 A 
DOCKED: ATOM     12  C   UNL d   1       4.608  -1.949 -23.681 -0.06 +0.00    +0.000 A 
DOCKED: ATOM     13  C   UNL d   1       4.537  -1.562 -22.314 -0.09 +0.01    +0.070 A 
DOCKED: ATOM     14  C   UNL d   1       2.878  -2.026 -25.611 -0.01 +0.00    +0.052 C 
DOCKED: ATOM     15  C   UNL d   1       5.511  -1.220 -20.049 -0.09 +0.02    +0.066 A 
DOCKED: ATOM     16  C   UNL d   1       6.568  -1.406 -19.158 -0.15 -0.01    -0.021 A 
DOCKED: ATOM     17  C   UNL d   1       6.140  -0.902 -17.929 -0.23 +0.00    +0.000 A 
DOCKED: ATOM     18  C   UNL d   1       4.838  -0.439 -18.167 -0.19 +0.02    +0.070 A 
DOCKED: ATOM     19  C   UNL d   1       7.856  -2.090 -19.540 -0.22 +0.01    +0.052 C 
DOCKED: ATOM     20  C   UNL d   1       2.703   0.641 -17.347 -0.11 +0.02    +0.066 A 
DOCKED: ATOM     21  C   UNL d   1       1.942   1.275 -16.369 -0.21 -0.01    -0.025 A 
DOCKED: ATOM     22  C   UNL d   1       0.743   1.602 -16.961 -0.19 -0.02    -0.021 A 
DOCKED: ATOM     23  C   UNL d   1       0.809   1.137 -18.277 -0.08 +0.06    +0.066 A 
DOCKED: ATOM     24  C   UNL d   1       2.338   1.553 -14.942 -0.29 +0.02    +0.051 C 
DOCKED: ATOM     25  N   UNL d   1       0.808   0.062 -21.057 -0.07 -0.13    -0.248 N 
DOCKED: ATOM     26  N   UNL d   1       3.284  -1.159 -21.980 -0.04 -0.05    -0.248 N 
DOCKED: ATOM     27  N   UNL d   1       4.446  -0.708 -19.439 -0.11 -0.07    -0.248 N 
DOCKED: ATOM     28  N   UNL d   1       1.986   0.513 -18.495 -0.01 -0.12    -0.248 N 
DOCKED: ATOM     29 FE   UNL d   1       2.633  -0.318 -20.223 -0.03 +0.00    +0.000 Fe
DOCKED: ATOM     30  O   UNL d   1       1.766  -1.591 -20.445 -0.29 +0.00    +0.000 OA
DOCKED: ATOM     31  O   UNL d   1       2.623  -1.449 -19.131 -0.11 +0.00    +0.000 OA
DOCKED: ENDROOT
DOCKED: BRANCH   6  32
DOCKED: ATOM     32  C   UNL d   1      -2.724   1.223 -21.115 -0.06 +0.04    +0.052 C 
DOCKED: BRANCH  32  33
DOCKED: ATOM     33  C   UNL d   1      -3.725   0.086 -20.933 -0.11 +0.11    +0.115 C 
DOCKED: BRANCH  33  34
DOCKED: ATOM     34  C   UNL d   1      -3.533  -0.645 -19.627 -0.07 +0.25    +0.139 C 
DOCKED: ATOM     35  O   UNL d   1      -3.462  -1.864 -19.623 -0.36 -1.09    -0.650 OA
DOCKED: BRANCH  34  36
DOCKED: ATOM     36  O   UNL d   1      -3.465   0.017 -18.453 -0.16 -1.97    -0.776 OA
DOCKED: ATOM     37  H   UNL d   1      -3.711   0.946 -18.376 +0.04 +0.35    +0.167 HD
DOCKED: ENDBRANCH  34  36
DOCKED: ENDBRANCH  33  34
DOCKED: ENDBRANCH  32  33
DOCKED: ENDBRANCH   6  32
DOCKED: BRANCH  22  38
DOCKED: ATOM     38  C   UNL d   1      -0.423   2.266 -16.274 -0.18 +0.05    +0.052 C 
DOCKED: BRANCH  38  39
DOCKED: ATOM     39  C   UNL d   1      -1.281   1.274 -15.493 -0.30 +0.15    +0.115 C 
DOCKED: BRANCH  39  40
DOCKED: ATOM     40  C   UNL d   1      -2.758   1.518 -15.679 -0.32 +0.18    +0.139 C 
DOCKED: ATOM     41  O   UNL d   1      -3.540   1.199 -14.798 -0.06 -0.69    -0.650 OA
DOCKED: BRANCH  40  42
DOCKED: ATOM     42  O   UNL d   1      -3.228   2.132 -16.782 +0.10 -1.09    -0.776 OA
DOCKED: ATOM     43  H   UNL d   1      -2.869   1.942 -17.657 +0.05 +0.25    +0.167 HD
DOCKED: ENDBRANCH  40  42
DOCKED: ENDBRANCH  39  40
DOCKED: ENDBRANCH  38  39
DOCKED: ENDBRANCH  22  38
DOCKED: BRANCH  12  44
DOCKED: ATOM     44  C   UNL d   1       5.741  -2.467 -24.542 -0.05 +0.00    +0.004 C 
DOCKED: ATOM     45  C   UNL d   1       6.616  -3.428 -24.253 -0.11 +0.00    +0.012 C 
DOCKED: ENDBRANCH  12  44
DOCKED: BRANCH  17  46
DOCKED: ATOM     46  C   UNL d   1       6.814  -0.876 -16.583 -0.34 +0.00    +0.004 C 
DOCKED: ATOM     47  C   UNL d   1       6.875   0.134 -15.707 -0.25 +0.00    +0.012 C 
DOCKED: ENDBRANCH  17  46
DOCKED: TORSDOF 10
DOCKED: TER
DOCKED: ENDMDL
________________________________________________________________________________


	BEGINNING GENETIC ALGORITHM DOCKING 45 of 100
Run: 45 Seed: 356814367 1968923668 [ Run 45 of 100 GA/GALS ]
Beginning LAMARCKIAN GENETIC ALGORITHM (LGA), with a maximum of 25000000 energy evaluations.

Final-Value: -9.177


	FINAL GENETIC ALGORITHM DOCKED STATE
	_______________________________________________


Detailed state:  trans -13.203 1.245 12.586 quatxyzw 0.444408 -0.555119 0.591280 -0.380437 center 8.287 34.468 -0.670 ntor 10 7.1380 78.3928 -44.6403 125.4617 -163.4862 -179.8965 65.1145 109.5313 -161.0856 -180.0000
State:	-13.203   1.245  12.586   0.481 -0.600  0.639 -135.279      7.14   78.39  -44.64  125.46 -163.49 -179.90   65.11  109.53 -161.09 -180.00

DOCKED: MODEL       45
DOCKED: USER    Run = 45
DOCKED: USER    DPF = D:/Protein_go_brrr/autodock/final/mut_D99N/heme_O2/dock.dpf
DOCKED: USER  
DOCKED: USER    Estimated Free Energy of Binding    =   -5.43 kcal/mol  [=(1)+(2)+(3)-(4)]
DOCKED: USER    Estimated Inhibition Constant, Ki   =  104.74 uM (micromolar)  [Temperature = 298.15 K]
DOCKED: USER    
DOCKED: USER    (1) Final Intermolecular Energy     =   -8.41 kcal/mol
DOCKED: USER        vdW + Hbond + desolv Energy     =   -6.39 kcal/mol
DOCKED: USER        Electrostatic Energy            =   -2.03 kcal/mol
DOCKED: USER    (2) Final Total Internal Energy     =   -0.76 kcal/mol
DOCKED: USER    (3) Torsional Free Energy           =   +2.98 kcal/mol
DOCKED: USER    (4) Unbound System's Energy  [=(2)] =   -0.76 kcal/mol
DOCKED: USER    
DOCKED: USER    
DOCKED: USER    NEWDPF move heme_O2_opt.pdbqt
DOCKED: USER    NEWDPF about 8.287000 34.468000 -0.670000
DOCKED: USER    NEWDPF tran0 -13.202929 1.244927 12.585835
DOCKED: USER    NEWDPF quaternion0 0.444408 -0.555119 0.591280 -0.380437
DOCKED: USER    NEWDPF axisangle0 0.480541 -0.600254 0.639355 -135.278504
DOCKED: USER    NEWDPF quat0 0.480541 -0.600254 0.639355 -135.278504
DOCKED: USER    NEWDPF dihe0 7.14 78.39 -44.64 125.46 -163.49 -179.90 65.11 109.53 -161.09 -180.00 
DOCKED: USER  keepresnum = 1 
DOCKED: USER  
DOCKED: REMARK  10 active torsions:
DOCKED: REMARK  status: ('A' for Active; 'I' for Inactive)
DOCKED: REMARK    1  A    between atoms: C_6  and  C_10 
DOCKED: REMARK    2  A    between atoms: C_10  and  C_11 
DOCKED: REMARK    3  A    between atoms: C_11  and  C_12 
DOCKED: REMARK    4  A    between atoms: C_12  and  O_14 
DOCKED: REMARK    5  A    between atoms: C_17  and  C_20 
DOCKED: REMARK    6  A    between atoms: C_24  and  C_27 
DOCKED: REMARK    7  A    between atoms: C_31  and  C_34 
DOCKED: REMARK    8  A    between atoms: C_34  and  C_35 
DOCKED: REMARK    9  A    between atoms: C_35  and  C_36 
DOCKED: REMARK   10  A    between atoms: C_36  and  O_38 
DOCKED: USER                              x       y       z     vdW  Elec       q    Type
DOCKED: USER                           _______ _______ _______ _____ _____    ______ ____
DOCKED: ROOT
DOCKED: ATOM      1  C   UNL d   1     -13.263   2.065  10.631 -0.20 +0.02    +0.064 A 
DOCKED: ATOM      2  C   UNL d   1     -10.679  -1.416  12.571 -0.28 +0.02    +0.064 A 
DOCKED: ATOM      3  C   UNL d   1     -12.782  -0.725  16.836 -0.11 +0.03    +0.064 C 
DOCKED: ATOM      4  C   UNL d   1     -15.786   2.535  14.736 -0.09 +0.05    +0.064 A 
DOCKED: ATOM      5  C   UNL d   1     -12.390   1.061  10.810 -0.23 +0.02    +0.066 A 
DOCKED: ATOM      6  C   UNL d   1     -11.551   0.565   9.808 -0.30 -0.01    -0.021 A 
DOCKED: ATOM      7  C   UNL d   1     -10.833  -0.472  10.357 -0.39 -0.01    -0.025 A 
DOCKED: ATOM      8  C   UNL d   1     -11.219  -0.549  11.692 -0.28 +0.02    +0.066 A 
DOCKED: ATOM      9  C   UNL d   1      -9.856  -1.344   9.600 -0.31 +0.01    +0.051 C 
DOCKED: ATOM     10  C   UNL d   1     -11.027  -1.528  13.988 -0.21 +0.02    +0.066 A 
DOCKED: ATOM     11  C   UNL d   1     -10.322  -2.331  14.892 -0.27 -0.01    -0.021 A 
DOCKED: ATOM     12  C   UNL d   1     -10.902  -2.132  16.131 -0.19 +0.00    +0.000 A 
DOCKED: ATOM     13  C   UNL d   1     -11.959  -1.208  15.906 -0.13 +0.03    +0.070 A 
DOCKED: ATOM     14  C   UNL d   1      -9.127  -3.229  14.591 -0.23 +0.01    +0.052 C 
DOCKED: ATOM     15  C   UNL d   1     -13.886   0.184  16.643 -0.01 +0.04    +0.066 A 
DOCKED: ATOM     16  C   UNL d   1     -14.813   0.523  17.629 -0.05 -0.01    -0.021 A 
DOCKED: ATOM     17  C   UNL d   1     -15.680   1.451  17.053 -0.06 +0.00    +0.000 A 
DOCKED: ATOM     18  C   UNL d   1     -15.210   1.612  15.742 -0.04 +0.06    +0.070 A 
DOCKED: ATOM     19  C   UNL d   1     -14.821  -0.104  19.001 -0.02 +0.01    +0.052 C 
DOCKED: ATOM     20  C   UNL d   1     -15.388   2.682  13.457 -0.13 +0.05    +0.066 A 
DOCKED: ATOM     21  C   UNL d   1     -15.958   3.582  12.561 -0.12 -0.01    -0.025 A 
DOCKED: ATOM     22  C   UNL d   1     -15.234   3.481  11.394 -0.12 -0.01    -0.021 A 
DOCKED: ATOM     23  C   UNL d   1     -14.256   2.507  11.617 -0.19 +0.03    +0.066 A 
DOCKED: ATOM     24  C   UNL d   1     -17.137   4.488  12.804 -0.06 +0.02    +0.051 C 
DOCKED: ATOM     25  N   UNL d   1     -12.225   0.352  11.954 -0.15 -0.10    -0.248 N 
DOCKED: ATOM     26  N   UNL d   1     -12.031  -0.849  14.598 -0.10 -0.12    -0.248 N 
DOCKED: ATOM     27  N   UNL d   1     -14.168   0.780  15.488 -0.01 -0.20    -0.248 N 
DOCKED: ATOM     28  N   UNL d   1     -14.382   1.992  12.858 -0.12 -0.17    -0.248 N 
DOCKED: ATOM     29 FE   UNL d   1     -13.217   0.582  13.724 -0.05 +0.00    +0.000 Fe
DOCKED: ATOM     30  O   UNL d   1     -13.536  -0.755  12.994 -0.11 +0.00    +0.000 OA
DOCKED: ATOM     31  O   UNL d   1     -14.691   0.036  13.716 -0.08 +0.00    +0.000 OA
DOCKED: ENDROOT
DOCKED: BRANCH   6  32
DOCKED: ATOM     32  C   UNL d   1     -11.520   0.956   8.353 -0.30 +0.02    +0.052 C 
DOCKED: BRANCH  32  33
DOCKED: ATOM     33  C   UNL d   1     -12.658   0.336   7.549 -0.16 +0.06    +0.115 C 
DOCKED: BRANCH  33  34
DOCKED: ATOM     34  C   UNL d   1     -12.160  -0.596   6.471 -0.20 +0.13    +0.139 C 
DOCKED: ATOM     35  O   UNL d   1     -11.290  -1.410   6.733 -0.49 -0.63    -0.650 OA
DOCKED: BRANCH  34  36
DOCKED: ATOM     36  O   UNL d   1     -12.637  -0.532   5.211 -0.25 -1.41    -0.776 OA
DOCKED: ATOM     37  H   UNL d   1     -13.231   0.172   4.924 +0.03 +0.20    +0.167 HD
DOCKED: ENDBRANCH  34  36
DOCKED: ENDBRANCH  33  34
DOCKED: ENDBRANCH  32  33
DOCKED: ENDBRANCH   6  32
DOCKED: BRANCH  22  38
DOCKED: ATOM     38  C   UNL d   1     -15.514   4.235  10.119 -0.05 +0.02    +0.052 C 
DOCKED: BRANCH  38  39
DOCKED: ATOM     39  C   UNL d   1     -16.678   3.636   9.332 -0.03 +0.02    +0.115 C 
DOCKED: BRANCH  39  40
DOCKED: ATOM     40  C   UNL d   1     -16.324   2.316   8.695 -0.01 +0.03    +0.139 C 
DOCKED: ATOM     41  O   UNL d   1     -15.196   2.132   8.267 +0.03 -0.16    -0.650 OA
DOCKED: BRANCH  40  42
DOCKED: ATOM     42  O   UNL d   1     -17.219   1.311   8.634 +0.01 -0.15    -0.776 OA
DOCKED: ATOM     43  H   UNL d   1     -17.901   1.283   7.953 +0.00 +0.03    +0.167 HD
DOCKED: ENDBRANCH  40  42
DOCKED: ENDBRANCH  39  40
DOCKED: ENDBRANCH  38  39
DOCKED: ENDBRANCH  22  38
DOCKED: BRANCH  12  44
DOCKED: ATOM     44  C   UNL d   1     -10.399  -2.833  17.376 -0.15 +0.00    +0.004 C 
DOCKED: ATOM     45  C   UNL d   1     -10.113  -2.294  18.560 -0.14 +0.00    +0.012 C 
DOCKED: ENDBRANCH  12  44
DOCKED: BRANCH  17  46
DOCKED: ATOM     46  C   UNL d   1     -16.907   2.130  17.601 -0.02 +0.00    +0.004 C 
DOCKED: ATOM     47  C   UNL d   1     -17.117   3.440  17.784 -0.02 +0.00    +0.012 C 
DOCKED: ENDBRANCH  17  46
DOCKED: TORSDOF 10
DOCKED: TER
DOCKED: ENDMDL
________________________________________________________________________________


	BEGINNING GENETIC ALGORITHM DOCKING 46 of 100
Run: 46 Seed: 1051149710 453481661 [ Run 46 of 100 GA/GALS ]
Beginning LAMARCKIAN GENETIC ALGORITHM (LGA), with a maximum of 25000000 energy evaluations.

Final-Value: -17.110


	FINAL GENETIC ALGORITHM DOCKED STATE
	_______________________________________________


Detailed state:  trans -8.708 2.452 1.251 quatxyzw -0.593044 -0.286679 -0.221326 0.719117 center 8.287 34.468 -0.670 ntor 10 47.4228 75.1437 -11.2971 -23.5244 60.5824 -166.0874 -34.2791 79.2432 10.7172 133.8263
State:	 -8.708   2.452   1.251  -0.853 -0.413 -0.319 88.037     47.42   75.14  -11.30  -23.52   60.58 -166.09  -34.28   79.24   10.72  133.83

DOCKED: MODEL       46
DOCKED: USER    Run = 46
DOCKED: USER    DPF = D:/Protein_go_brrr/autodock/final/mut_D99N/heme_O2/dock.dpf
DOCKED: USER  
DOCKED: USER    Estimated Free Energy of Binding    =  -13.58 kcal/mol  [=(1)+(2)+(3)-(4)]
DOCKED: USER    Estimated Inhibition Constant, Ki   =  111.30 pM (picomolar)  [Temperature = 298.15 K]
DOCKED: USER    
DOCKED: USER    (1) Final Intermolecular Energy     =  -16.56 kcal/mol
DOCKED: USER        vdW + Hbond + desolv Energy     =  -14.51 kcal/mol
DOCKED: USER        Electrostatic Energy            =   -2.05 kcal/mol
DOCKED: USER    (2) Final Total Internal Energy     =   -0.55 kcal/mol
DOCKED: USER    (3) Torsional Free Energy           =   +2.98 kcal/mol
DOCKED: USER    (4) Unbound System's Energy  [=(2)] =   -0.55 kcal/mol
DOCKED: USER    
DOCKED: USER    
DOCKED: USER    NEWDPF move heme_O2_opt.pdbqt
DOCKED: USER    NEWDPF about 8.287000 34.468000 -0.670000
DOCKED: USER    NEWDPF tran0 -8.707945 2.451726 1.250716
DOCKED: USER    NEWDPF quaternion0 -0.593044 -0.286679 -0.221326 0.719117
DOCKED: USER    NEWDPF axisangle0 -0.853437 -0.412553 -0.318505 88.036814
DOCKED: USER    NEWDPF quat0 -0.853437 -0.412553 -0.318505 88.036814
DOCKED: USER    NEWDPF dihe0 47.42 75.14 -11.30 -23.52 60.58 -166.09 -34.28 79.24 10.72 133.83 
DOCKED: USER  keepresnum = 1 
DOCKED: USER  
DOCKED: REMARK  10 active torsions:
DOCKED: REMARK  status: ('A' for Active; 'I' for Inactive)
DOCKED: REMARK    1  A    between atoms: C_6  and  C_10 
DOCKED: REMARK    2  A    between atoms: C_10  and  C_11 
DOCKED: REMARK    3  A    between atoms: C_11  and  C_12 
DOCKED: REMARK    4  A    between atoms: C_12  and  O_14 
DOCKED: REMARK    5  A    between atoms: C_17  and  C_20 
DOCKED: REMARK    6  A    between atoms: C_24  and  C_27 
DOCKED: REMARK    7  A    between atoms: C_31  and  C_34 
DOCKED: REMARK    8  A    between atoms: C_34  and  C_35 
DOCKED: REMARK    9  A    between atoms: C_35  and  C_36 
DOCKED: REMARK   10  A    between atoms: C_36  and  O_38 
DOCKED: USER                              x       y       z     vdW  Elec       q    Type
DOCKED: USER                           _______ _______ _______ _____ _____    ______ ____
DOCKED: ROOT
DOCKED: ATOM      1  C   UNL d   1     -10.614   1.921   2.015 -0.20 +0.02    +0.064 A 
DOCKED: ATOM      2  C   UNL d   1      -7.305  -0.538  -0.343 -0.39 +0.01    +0.064 A 
DOCKED: ATOM      3  C   UNL d   1      -4.485   3.343  -0.620 -0.09 +0.01    +0.064 C 
DOCKED: ATOM      4  C   UNL d   1      -7.671   5.760   2.222 -0.37 +0.01    +0.064 A 
DOCKED: ATOM      5  C   UNL d   1      -9.943   0.935   1.398 -0.26 +0.02    +0.066 A 
DOCKED: ATOM      6  C   UNL d   1     -10.434  -0.364   1.237 -0.37 -0.01    -0.021 A 
DOCKED: ATOM      7  C   UNL d   1      -9.459  -1.089   0.593 -0.36 -0.01    -0.025 A 
DOCKED: ATOM      8  C   UNL d   1      -8.419  -0.200   0.335 -0.37 +0.01    +0.066 A 
DOCKED: ATOM      9  C   UNL d   1      -9.541  -2.567   0.283 -0.39 +0.02    +0.051 C 
DOCKED: ATOM     10  C   UNL d   1      -6.191   0.355  -0.664 -0.39 +0.01    +0.066 A 
DOCKED: ATOM     11  C   UNL d   1      -5.136  -0.004  -1.510 -0.44 -0.00    -0.021 A 
DOCKED: ATOM     12  C   UNL d   1      -4.322   1.109  -1.617 -0.42 +0.00    +0.000 A 
DOCKED: ATOM     13  C   UNL d   1      -4.934   2.101  -0.802 -0.37 +0.01    +0.070 A 
DOCKED: ATOM     14  C   UNL d   1      -4.928  -1.342  -2.209 -0.61 +0.00    +0.052 C 
DOCKED: ATOM     15  C   UNL d   1      -5.056   4.366   0.224 -0.38 +0.01    +0.066 A 
DOCKED: ATOM     16  C   UNL d   1      -4.450   5.591   0.501 -0.52 -0.00    -0.021 A 
DOCKED: ATOM     17  C   UNL d   1      -5.340   6.297   1.310 -0.50 +0.00    +0.000 A 
DOCKED: ATOM     18  C   UNL d   1      -6.437   5.439   1.466 -0.40 +0.01    +0.070 A 
DOCKED: ATOM     19  C   UNL d   1      -3.067   5.952   0.019 -0.05 +0.00    +0.052 C 
DOCKED: ATOM     20  C   UNL d   1      -8.724   4.944   2.428 -0.43 +0.01    +0.066 A 
DOCKED: ATOM     21  C   UNL d   1      -9.867   5.309   3.133 -0.46 -0.00    -0.025 A 
DOCKED: ATOM     22  C   UNL d   1     -10.728   4.237   3.061 -0.27 -0.00    -0.021 A 
DOCKED: ATOM     23  C   UNL d   1     -10.068   3.247   2.327 -0.27 +0.02    +0.066 A 
DOCKED: ATOM     24  C   UNL d   1     -10.124   6.613   3.843 -0.42 -0.00    +0.051 C 
DOCKED: ATOM     25  N   UNL d   1      -8.691   1.030   0.888 -0.14 -0.07    -0.248 N 
DOCKED: ATOM     26  N   UNL d   1      -6.068   1.633  -0.223 -0.26 -0.03    -0.248 N 
DOCKED: ATOM     27  N   UNL d   1      -6.216   4.243   0.863 -0.25 -0.04    -0.248 N 
DOCKED: ATOM     28  N   UNL d   1      -8.833   3.665   1.982 -0.14 -0.09    -0.248 N 
DOCKED: ATOM     29 FE   UNL d   1      -7.459   2.659   0.888 -0.09 +0.00    +0.000 Fe
DOCKED: ATOM     30  O   UNL d   1      -6.957   1.491   1.787 -0.51 +0.00    +0.000 OA
DOCKED: ATOM     31  O   UNL d   1      -6.808   2.979   2.284 -0.95 +0.00    +0.000 OA
DOCKED: ENDROOT
DOCKED: BRANCH   6  32
DOCKED: ATOM     32  C   UNL d   1     -11.711  -0.943   1.788 +0.33 +0.06    +0.052 C 
DOCKED: BRANCH  32  33
DOCKED: ATOM     33  C   UNL d   1     -12.869  -0.874   0.797 -0.11 +0.10    +0.115 C 
DOCKED: BRANCH  33  34
DOCKED: ATOM     34  C   UNL d   1     -13.769  -2.082   0.878 +0.12 +0.17    +0.139 C 
DOCKED: ATOM     35  O   UNL d   1     -13.538  -3.054   0.176 -0.08 -0.49    -0.650 OA
DOCKED: BRANCH  34  36
DOCKED: ATOM     36  O   UNL d   1     -14.845  -2.104   1.690 -0.48 -1.14    -0.776 OA
DOCKED: ATOM     37  H   UNL d   1     -15.478  -1.377   1.720 +0.02 +0.14    +0.167 HD
DOCKED: ENDBRANCH  34  36
DOCKED: ENDBRANCH  33  34
DOCKED: ENDBRANCH  32  33
DOCKED: ENDBRANCH   6  32
DOCKED: BRANCH  22  38
DOCKED: ATOM     38  C   UNL d   1     -12.081   4.151   3.719 -0.17 +0.01    +0.052 C 
DOCKED: BRANCH  38  39
DOCKED: ATOM     39  C   UNL d   1     -12.209   2.933   4.630 -0.21 +0.03    +0.115 C 
DOCKED: BRANCH  39  40
DOCKED: ATOM     40  C   UNL d   1     -12.991   1.813   3.989 -0.17 +0.07    +0.139 C 
DOCKED: ATOM     41  O   UNL d   1     -13.755   2.057   3.069 -0.00 -0.25    -0.650 OA
DOCKED: BRANCH  40  42
DOCKED: ATOM     42  O   UNL d   1     -12.823   0.535   4.379 -0.31 -0.83    -0.776 OA
DOCKED: ATOM     43  H   UNL d   1     -13.224   0.198   5.190 +0.03 +0.18    +0.167 HD
DOCKED: ENDBRANCH  40  42
DOCKED: ENDBRANCH  39  40
DOCKED: ENDBRANCH  38  39
DOCKED: ENDBRANCH  22  38
DOCKED: BRANCH  12  44
DOCKED: ATOM     44  C   UNL d   1      -3.067   1.108  -2.465 -0.48 +0.00    +0.004 C 
DOCKED: ATOM     45  C   UNL d   1      -2.361   2.158  -2.884 -0.60 +0.00    +0.012 C 
DOCKED: ENDBRANCH  12  44
DOCKED: BRANCH  17  46
DOCKED: ATOM     46  C   UNL d   1      -5.218   7.643   1.972 -0.67 +0.00    +0.004 C 
DOCKED: ATOM     47  C   UNL d   1      -4.110   8.253   2.414 -0.67 +0.00    +0.012 C 
DOCKED: ENDBRANCH  17  46
DOCKED: TORSDOF 10
DOCKED: TER
DOCKED: ENDMDL
________________________________________________________________________________


	BEGINNING GENETIC ALGORITHM DOCKING 47 of 100
Run: 47 Seed: 62365123 547944173 [ Run 47 of 100 GA/GALS ]
Beginning LAMARCKIAN GENETIC ALGORITHM (LGA), with a maximum of 25000000 energy evaluations.

Final-Value: -9.734


	FINAL GENETIC ALGORITHM DOCKED STATE
	_______________________________________________


Detailed state:  trans -3.062 17.663 7.684 quatxyzw 0.018097 0.531658 0.260854 0.805586 center 8.287 34.468 -0.670 ntor 10 104.7351 -0.2439 -88.0414 75.9480 -102.7315 -2.2501 77.0770 105.4787 -15.6690 176.7866
State:	 -3.062  17.663   7.684   0.031  0.897  0.440 72.666    104.74   -0.24  -88.04   75.95 -102.73   -2.25   77.08  105.48  -15.67  176.79

DOCKED: MODEL       47
DOCKED: USER    Run = 47
DOCKED: USER    DPF = D:/Protein_go_brrr/autodock/final/mut_D99N/heme_O2/dock.dpf
DOCKED: USER  
DOCKED: USER    Estimated Free Energy of Binding    =   -4.43 kcal/mol  [=(1)+(2)+(3)-(4)]
DOCKED: USER    Estimated Inhibition Constant, Ki   =  563.89 uM (micromolar)  [Temperature = 298.15 K]
DOCKED: USER    
DOCKED: USER    (1) Final Intermolecular Energy     =   -7.42 kcal/mol
DOCKED: USER        vdW + Hbond + desolv Energy     =   -7.15 kcal/mol
DOCKED: USER        Electrostatic Energy            =   -0.26 kcal/mol
DOCKED: USER    (2) Final Total Internal Energy     =   -2.32 kcal/mol
DOCKED: USER    (3) Torsional Free Energy           =   +2.98 kcal/mol
DOCKED: USER    (4) Unbound System's Energy  [=(2)] =   -2.32 kcal/mol
DOCKED: USER    
DOCKED: USER    
DOCKED: USER    NEWDPF move heme_O2_opt.pdbqt
DOCKED: USER    NEWDPF about 8.287000 34.468000 -0.670000
DOCKED: USER    NEWDPF tran0 -3.061695 17.663232 7.683513
DOCKED: USER    NEWDPF quaternion0 0.018097 0.531658 0.260854 0.805586
DOCKED: USER    NEWDPF axisangle0 0.030544 0.897343 0.440275 72.666308
DOCKED: USER    NEWDPF quat0 0.030544 0.897343 0.440275 72.666308
DOCKED: USER    NEWDPF dihe0 104.74 -0.24 -88.04 75.95 -102.73 -2.25 77.08 105.48 -15.67 176.79 
DOCKED: USER  keepresnum = 1 
DOCKED: USER  
DOCKED: REMARK  10 active torsions:
DOCKED: REMARK  status: ('A' for Active; 'I' for Inactive)
DOCKED: REMARK    1  A    between atoms: C_6  and  C_10 
DOCKED: REMARK    2  A    between atoms: C_10  and  C_11 
DOCKED: REMARK    3  A    between atoms: C_11  and  C_12 
DOCKED: REMARK    4  A    between atoms: C_12  and  O_14 
DOCKED: REMARK    5  A    between atoms: C_17  and  C_20 
DOCKED: REMARK    6  A    between atoms: C_24  and  C_27 
DOCKED: REMARK    7  A    between atoms: C_31  and  C_34 
DOCKED: REMARK    8  A    between atoms: C_34  and  C_35 
DOCKED: REMARK    9  A    between atoms: C_35  and  C_36 
DOCKED: REMARK   10  A    between atoms: C_36  and  O_38 
DOCKED: USER                              x       y       z     vdW  Elec       q    Type
DOCKED: USER                           _______ _______ _______ _____ _____    ______ ____
DOCKED: ROOT
DOCKED: ATOM      1  C   UNL d   1      -2.678  18.688   5.866 -0.07 +0.01    +0.064 A 
DOCKED: ATOM      2  C   UNL d   1      -6.666  16.999   7.816 -0.10 +0.00    +0.064 A 
DOCKED: ATOM      3  C   UNL d   1      -4.216  15.315  11.592 -0.21 -0.02    +0.064 C 
DOCKED: ATOM      4  C   UNL d   1      -0.176  17.467   9.827 -0.03 +0.00    +0.064 A 
DOCKED: ATOM      5  C   UNL d   1      -3.963  18.367   6.089 -0.14 +0.01    +0.066 A 
DOCKED: ATOM      6  C   UNL d   1      -5.007  18.659   5.207 -0.21 -0.01    -0.021 A 
DOCKED: ATOM      7  C   UNL d   1      -6.168  18.209   5.790 -0.21 -0.01    -0.025 A 
DOCKED: ATOM      8  C   UNL d   1      -5.795  17.611   6.991 -0.22 +0.01    +0.066 A 
DOCKED: ATOM      9  C   UNL d   1      -7.554  18.388   5.210 -0.10 +0.02    +0.051 C 
DOCKED: ATOM     10  C   UNL d   1      -6.331  16.335   9.077 -0.22 -0.01    +0.066 A 
DOCKED: ATOM     11  C   UNL d   1      -7.246  15.573   9.812 -0.27 +0.00    -0.021 A 
DOCKED: ATOM     12  C   UNL d   1      -6.554  15.065  10.895 -0.26 -0.00    +0.000 A 
DOCKED: ATOM     13  C   UNL d   1      -5.229  15.566  10.763 -0.22 -0.01    +0.070 A 
DOCKED: ATOM     14  C   UNL d   1      -8.712  15.319   9.480 -0.23 -0.03    +0.052 C 
DOCKED: ATOM     15  C   UNL d   1      -2.871  15.831  11.513 -0.16 -0.02    +0.066 A 
DOCKED: ATOM     16  C   UNL d   1      -1.901  15.665  12.501 -0.19 +0.01    -0.021 A 
DOCKED: ATOM     17  C   UNL d   1      -0.740  16.271  12.020 -0.20 -0.00    +0.000 A 
DOCKED: ATOM     18  C   UNL d   1      -1.094  16.767  10.757 -0.15 -0.00    +0.070 A 
DOCKED: ATOM     19  C   UNL d   1      -2.181  14.998  13.824 -0.30 -0.02    +0.052 C 
DOCKED: ATOM     20  C   UNL d   1      -0.493  17.993   8.628 -0.22 +0.00    +0.066 A 
DOCKED: ATOM     21  C   UNL d   1       0.419  18.626   7.788 -0.21 -0.00    -0.025 A 
DOCKED: ATOM     22  C   UNL d   1      -0.270  18.956   6.643 -0.24 -0.00    -0.021 A 
DOCKED: ATOM     23  C   UNL d   1      -1.587  18.527   6.835 -0.18 +0.01    +0.066 A 
DOCKED: ATOM     24  C   UNL d   1       1.873  18.905   8.066 -0.15 +0.00    +0.051 C 
DOCKED: ATOM     25  N   UNL d   1      -4.445  17.767   7.205 -0.15 -0.03    -0.248 N 
DOCKED: ATOM     26  N   UNL d   1      -5.104  16.341   9.656 -0.14 +0.02    -0.248 N 
DOCKED: ATOM     27  N   UNL d   1      -2.410  16.557  10.498 -0.16 +0.03    -0.248 N 
DOCKED: ATOM     28  N   UNL d   1      -1.728  17.982   8.061 -0.18 -0.02    -0.248 N 
DOCKED: ATOM     29 FE   UNL d   1      -3.402  17.167   8.855 -0.05 -0.00    +0.000 Fe
DOCKED: ATOM     30  O   UNL d   1      -4.377  18.351   9.124 -0.11 -0.00    +0.000 OA
DOCKED: ATOM     31  O   UNL d   1      -2.954  18.341   9.801 -0.11 -0.00    +0.000 OA
DOCKED: ENDROOT
DOCKED: BRANCH   6  32
DOCKED: ATOM     32  C   UNL d   1      -4.939  19.452   3.928 -0.16 +0.02    +0.052 C 
DOCKED: BRANCH  32  33
DOCKED: ATOM     33  C   UNL d   1      -4.150  18.744   2.832 -0.21 +0.06    +0.115 C 
DOCKED: BRANCH  33  34
DOCKED: ATOM     34  C   UNL d   1      -2.785  19.351   2.622 -0.15 +0.04    +0.139 C 
DOCKED: ATOM     35  O   UNL d   1      -1.793  18.758   3.016 +0.04 -0.17    -0.650 OA
DOCKED: BRANCH  34  36
DOCKED: ATOM     36  O   UNL d   1      -2.634  20.554   2.030 +0.05 -0.15    -0.776 OA
DOCKED: ATOM     37  H   UNL d   1      -2.415  21.347   2.533 +0.02 +0.02    +0.167 HD
DOCKED: ENDBRANCH  34  36
DOCKED: ENDBRANCH  33  34
DOCKED: ENDBRANCH  32  33
DOCKED: ENDBRANCH   6  32
DOCKED: BRANCH  22  38
DOCKED: ATOM     38  C   UNL d   1       0.296  19.701   5.461 -0.18 +0.01    +0.052 C 
DOCKED: BRANCH  38  39
DOCKED: ATOM     39  C   UNL d   1       0.325  21.211   5.685 -0.05 +0.01    +0.115 C 
DOCKED: BRANCH  39  40
DOCKED: ATOM     40  C   UNL d   1      -1.040  21.840   5.554 -0.02 +0.01    +0.139 C 
DOCKED: ATOM     41  O   UNL d   1      -1.360  22.754   6.297 +0.01 -0.02    -0.650 OA
DOCKED: BRANCH  40  42
DOCKED: ATOM     42  O   UNL d   1      -1.899  21.445   4.595 +0.04 -0.07    -0.776 OA
DOCKED: ATOM     43  H   UNL d   1      -1.682  20.727   3.988 +0.03 +0.02    +0.167 HD
DOCKED: ENDBRANCH  40  42
DOCKED: ENDBRANCH  39  40
DOCKED: ENDBRANCH  38  39
DOCKED: ENDBRANCH  22  38
DOCKED: BRANCH  12  44
DOCKED: ATOM     44  C   UNL d   1      -7.216  14.174  11.926 -0.30 -0.00    +0.004 C 
DOCKED: ATOM     45  C   UNL d   1      -7.351  12.849  11.897 -0.50 -0.00    +0.012 C 
DOCKED: ENDBRANCH  12  44
DOCKED: BRANCH  17  46
DOCKED: ATOM     46  C   UNL d   1       0.610  16.465  12.657 -0.16 -0.00    +0.004 C 
DOCKED: ATOM     47  C   UNL d   1       1.531  15.537  12.945 -0.22 -0.00    +0.012 C 
DOCKED: ENDBRANCH  17  46
DOCKED: TORSDOF 10
DOCKED: TER
DOCKED: ENDMDL
________________________________________________________________________________


	BEGINNING GENETIC ALGORITHM DOCKING 48 of 100
Run: 48 Seed: 1909170009 123568729 [ Run 48 of 100 GA/GALS ]
Beginning LAMARCKIAN GENETIC ALGORITHM (LGA), with a maximum of 25000000 energy evaluations.

Final-Value: -9.928


	FINAL GENETIC ALGORITHM DOCKED STATE
	_______________________________________________


Detailed state:  trans 8.475 12.253 7.328 quatxyzw -0.391905 -0.720603 -0.561974 -0.106429 center 8.287 34.468 -0.670 ntor 10 -142.7299 -90.2443 -4.9786 118.7594 109.2471 88.5817 82.3880 -69.0190 -4.5227 -33.8670
State:	  8.475  12.253   7.328  -0.394 -0.725 -0.565 -167.781   -142.73  -90.24   -4.98  118.76  109.25   88.58   82.39  -69.02   -4.52  -33.87

DOCKED: MODEL       48
DOCKED: USER    Run = 48
DOCKED: USER    DPF = D:/Protein_go_brrr/autodock/final/mut_D99N/heme_O2/dock.dpf
DOCKED: USER  
DOCKED: USER    Estimated Free Energy of Binding    =   -4.41 kcal/mol  [=(1)+(2)+(3)-(4)]
DOCKED: USER    Estimated Inhibition Constant, Ki   =  583.52 uM (micromolar)  [Temperature = 298.15 K]
DOCKED: USER    
DOCKED: USER    (1) Final Intermolecular Energy     =   -7.39 kcal/mol
DOCKED: USER        vdW + Hbond + desolv Energy     =   -6.71 kcal/mol
DOCKED: USER        Electrostatic Energy            =   -0.68 kcal/mol
DOCKED: USER    (2) Final Total Internal Energy     =   -2.53 kcal/mol
DOCKED: USER    (3) Torsional Free Energy           =   +2.98 kcal/mol
DOCKED: USER    (4) Unbound System's Energy  [=(2)] =   -2.53 kcal/mol
DOCKED: USER    
DOCKED: USER    
DOCKED: USER    NEWDPF move heme_O2_opt.pdbqt
DOCKED: USER    NEWDPF about 8.287000 34.468000 -0.670000
DOCKED: USER    NEWDPF tran0 8.475370 12.253364 7.328495
DOCKED: USER    NEWDPF quaternion0 -0.391905 -0.720603 -0.561974 -0.106429
DOCKED: USER    NEWDPF axisangle0 -0.394144 -0.724719 -0.565184 -167.781005
DOCKED: USER    NEWDPF quat0 -0.394144 -0.724719 -0.565184 -167.781005
DOCKED: USER    NEWDPF dihe0 -142.73 -90.24 -4.98 118.76 109.25 88.58 82.39 -69.02 -4.52 -33.87 
DOCKED: USER  keepresnum = 1 
DOCKED: USER  
DOCKED: REMARK  10 active torsions:
DOCKED: REMARK  status: ('A' for Active; 'I' for Inactive)
DOCKED: REMARK    1  A    between atoms: C_6  and  C_10 
DOCKED: REMARK    2  A    between atoms: C_10  and  C_11 
DOCKED: REMARK    3  A    between atoms: C_11  and  C_12 
DOCKED: REMARK    4  A    between atoms: C_12  and  O_14 
DOCKED: REMARK    5  A    between atoms: C_17  and  C_20 
DOCKED: REMARK    6  A    between atoms: C_24  and  C_27 
DOCKED: REMARK    7  A    between atoms: C_31  and  C_34 
DOCKED: REMARK    8  A    between atoms: C_34  and  C_35 
DOCKED: REMARK    9  A    between atoms: C_35  and  C_36 
DOCKED: REMARK   10  A    between atoms: C_36  and  O_38 
DOCKED: USER                              x       y       z     vdW  Elec       q    Type
DOCKED: USER                           _______ _______ _______ _____ _____    ______ ____
DOCKED: ROOT
DOCKED: ATOM      1  C   UNL d   1       9.911  10.743   6.932 -0.13 +0.00    +0.064 A 
DOCKED: ATOM      2  C   UNL d   1       8.321  14.411   4.367 -0.17 -0.00    +0.064 A 
DOCKED: ATOM      3  C   UNL d   1       5.298  15.677   7.881 -0.23 -0.01    +0.064 C 
DOCKED: ATOM      4  C   UNL d   1       7.265  12.192  10.719 -0.19 -0.01    +0.064 A 
DOCKED: ATOM      5  C   UNL d   1       9.727  11.638   5.948 -0.02 +0.00    +0.066 A 
DOCKED: ATOM      6  C   UNL d   1      10.404  11.609   4.726 -0.10 -0.00    -0.021 A 
DOCKED: ATOM      7  C   UNL d   1       9.976  12.696   4.000 -0.11 -0.00    -0.025 A 
DOCKED: ATOM      8  C   UNL d   1       9.014  13.331   4.779 -0.16 -0.00    +0.066 A 
DOCKED: ATOM      9  C   UNL d   1      10.509  13.092   2.640 -0.07 +0.00    +0.051 C 
DOCKED: ATOM     10  C   UNL d   1       7.284  15.107   5.130 -0.19 -0.01    +0.066 A 
DOCKED: ATOM     11  C   UNL d   1       6.483  16.120   4.592 -0.22 +0.00    -0.021 A 
DOCKED: ATOM     12  C   UNL d   1       5.592  16.486   5.585 -0.26 -0.00    +0.000 A 
DOCKED: ATOM     13  C   UNL d   1       5.916  15.665   6.701 -0.21 -0.01    +0.070 A 
DOCKED: ATOM     14  C   UNL d   1       6.546  16.696   3.183 -0.17 -0.00    +0.052 C 
DOCKED: ATOM     15  C   UNL d   1       5.618  14.888   9.046 -0.25 -0.01    +0.066 A 
DOCKED: ATOM     16  C   UNL d   1       5.039  15.063  10.303 -0.21 +0.00    -0.021 A 
DOCKED: ATOM     17  C   UNL d   1       5.586  14.081  11.129 -0.22 -0.00    +0.000 A 
DOCKED: ATOM     18  C   UNL d   1       6.467  13.369  10.302 -0.13 -0.01    +0.070 A 
DOCKED: ATOM     19  C   UNL d   1       4.069  16.175  10.614 -0.11 -0.00    +0.052 C 
DOCKED: ATOM     20  C   UNL d   1       8.152  11.514   9.964 -0.22 -0.00    +0.066 A 
DOCKED: ATOM     21  C   UNL d   1       8.862  10.401  10.406 -0.17 -0.00    -0.025 A 
DOCKED: ATOM     22  C   UNL d   1       9.600   9.958   9.332 -0.15 -0.00    -0.021 A 
DOCKED: ATOM     23  C   UNL d   1       9.326  10.832   8.275 -0.14 +0.00    +0.066 A 
DOCKED: ATOM     24  C   UNL d   1       8.839   9.793  11.785 -0.13 +0.00    +0.051 C 
DOCKED: ATOM     25  N   UNL d   1       8.908  12.717   6.005 -0.13 +0.01    -0.248 N 
DOCKED: ATOM     26  N   UNL d   1       6.950  14.832   6.417 -0.09 +0.05    -0.248 N 
DOCKED: ATOM     27  N   UNL d   1       6.529  13.919   9.063 -0.20 +0.05    -0.248 N 
DOCKED: ATOM     28  N   UNL d   1       8.480  11.802   8.677 -0.18 +0.00    -0.248 N 
DOCKED: ATOM     29 FE   UNL d   1       7.719  13.307   7.557 -0.05 -0.00    +0.000 Fe
DOCKED: ATOM     30  O   UNL d   1       8.902  14.276   7.269 -0.12 -0.00    +0.000 OA
DOCKED: ATOM     31  O   UNL d   1       8.497  13.959   8.758 -0.12 -0.00    +0.000 OA
DOCKED: ENDROOT
DOCKED: BRANCH   6  32
DOCKED: ATOM     32  C   UNL d   1      11.512  10.678   4.307 -0.07 +0.00    +0.052 C 
DOCKED: BRANCH  32  33
DOCKED: ATOM     33  C   UNL d   1      11.002   9.308   3.872 -0.09 +0.01    +0.115 C 
DOCKED: BRANCH  33  34
DOCKED: ATOM     34  C   UNL d   1      11.142   8.270   4.958 -0.09 +0.01    +0.139 C 
DOCKED: ATOM     35  O   UNL d   1      12.160   8.236   5.632 +0.02 -0.06    -0.650 OA
DOCKED: BRANCH  34  36
DOCKED: ATOM     36  O   UNL d   1      10.178   7.355   5.186 +0.07 -0.12    -0.776 OA
DOCKED: ATOM     37  H   UNL d   1       9.949   7.064   6.076 +0.06 +0.04    +0.167 HD
DOCKED: ENDBRANCH  34  36
DOCKED: ENDBRANCH  33  34
DOCKED: ENDBRANCH  32  33
DOCKED: ENDBRANCH   6  32
DOCKED: BRANCH  22  38
DOCKED: ATOM     38  C   UNL d   1      10.563   8.799   9.346 -0.10 +0.01    +0.052 C 
DOCKED: BRANCH  38  39
DOCKED: ATOM     39  C   UNL d   1       9.856   7.457   9.522 -0.15 +0.03    +0.115 C 
DOCKED: BRANCH  39  40
DOCKED: ATOM     40  C   UNL d   1       9.891   6.618   8.270 -0.16 +0.07    +0.139 C 
DOCKED: ATOM     41  O   UNL d   1       8.852   6.173   7.809 -0.38 -0.44    -0.650 OA
DOCKED: BRANCH  40  42
DOCKED: ATOM     42  O   UNL d   1      11.047   6.390   7.617 +0.02 -0.34    -0.776 OA
DOCKED: ATOM     43  H   UNL d   1      11.374   6.997   6.943 +0.03 +0.04    +0.167 HD
DOCKED: ENDBRANCH  40  42
DOCKED: ENDBRANCH  39  40
DOCKED: ENDBRANCH  38  39
DOCKED: ENDBRANCH  22  38
DOCKED: BRANCH  12  44
DOCKED: ATOM     44  C   UNL d   1       4.548  17.562   5.372 -0.23 +0.00    +0.004 C 
DOCKED: ATOM     45  C   UNL d   1       3.533  17.887   6.171 -0.25 +0.00    +0.012 C 
DOCKED: ENDBRANCH  12  44
DOCKED: BRANCH  17  46
DOCKED: ATOM     46  C   UNL d   1       5.395  13.806  12.597 -0.23 -0.00    +0.004 C 
DOCKED: ATOM     47  C   UNL d   1       4.793  12.757  13.172 -0.33 -0.00    +0.012 C 
DOCKED: ENDBRANCH  17  46
DOCKED: TORSDOF 10
DOCKED: TER
DOCKED: ENDMDL
________________________________________________________________________________


	BEGINNING GENETIC ALGORITHM DOCKING 49 of 100
Run: 49 Seed: 604618631 706886206 [ Run 49 of 100 GA/GALS ]
Beginning LAMARCKIAN GENETIC ALGORITHM (LGA), with a maximum of 25000000 energy evaluations.

Final-Value: -10.003


	FINAL GENETIC ALGORITHM DOCKED STATE
	_______________________________________________


Detailed state:  trans 0.662 17.904 1.278 quatxyzw 0.538679 -0.332244 -0.029356 0.773678 center 8.287 34.468 -0.670 ntor 10 173.5782 28.4125 -55.5407 139.4113 178.8270 145.2487 -70.1577 -4.7686 -143.0884 179.0369
State:	  0.662  17.904   1.278   0.850 -0.524 -0.046 78.629    173.58   28.41  -55.54  139.41  178.83  145.25  -70.16   -4.77 -143.09  179.04

DOCKED: MODEL       49
DOCKED: USER    Run = 49
DOCKED: USER    DPF = D:/Protein_go_brrr/autodock/final/mut_D99N/heme_O2/dock.dpf
DOCKED: USER  
DOCKED: USER    Estimated Free Energy of Binding    =   -5.35 kcal/mol  [=(1)+(2)+(3)-(4)]
DOCKED: USER    Estimated Inhibition Constant, Ki   =  119.60 uM (micromolar)  [Temperature = 298.15 K]
DOCKED: USER    
DOCKED: USER    (1) Final Intermolecular Energy     =   -8.33 kcal/mol
DOCKED: USER        vdW + Hbond + desolv Energy     =   -6.53 kcal/mol
DOCKED: USER        Electrostatic Energy            =   -1.80 kcal/mol
DOCKED: USER    (2) Final Total Internal Energy     =   -1.67 kcal/mol
DOCKED: USER    (3) Torsional Free Energy           =   +2.98 kcal/mol
DOCKED: USER    (4) Unbound System's Energy  [=(2)] =   -1.67 kcal/mol
DOCKED: USER    
DOCKED: USER    
DOCKED: USER    NEWDPF move heme_O2_opt.pdbqt
DOCKED: USER    NEWDPF about 8.287000 34.468000 -0.670000
DOCKED: USER    NEWDPF tran0 0.662373 17.903783 1.278380
DOCKED: USER    NEWDPF quaternion0 0.538679 -0.332244 -0.029356 0.773678
DOCKED: USER    NEWDPF axisangle0 0.850215 -0.524392 -0.046333 78.629390
DOCKED: USER    NEWDPF quat0 0.850215 -0.524392 -0.046333 78.629390
DOCKED: USER    NEWDPF dihe0 173.58 28.41 -55.54 139.41 178.83 145.25 -70.16 -4.77 -143.09 179.04 
DOCKED: USER  keepresnum = 1 
DOCKED: USER  
DOCKED: REMARK  10 active torsions:
DOCKED: REMARK  status: ('A' for Active; 'I' for Inactive)
DOCKED: REMARK    1  A    between atoms: C_6  and  C_10 
DOCKED: REMARK    2  A    between atoms: C_10  and  C_11 
DOCKED: REMARK    3  A    between atoms: C_11  and  C_12 
DOCKED: REMARK    4  A    between atoms: C_12  and  O_14 
DOCKED: REMARK    5  A    between atoms: C_17  and  C_20 
DOCKED: REMARK    6  A    between atoms: C_24  and  C_27 
DOCKED: REMARK    7  A    between atoms: C_31  and  C_34 
DOCKED: REMARK    8  A    between atoms: C_34  and  C_35 
DOCKED: REMARK    9  A    between atoms: C_35  and  C_36 
DOCKED: REMARK   10  A    between atoms: C_36  and  O_38 
DOCKED: USER                              x       y       z     vdW  Elec       q    Type
DOCKED: USER                           _______ _______ _______ _____ _____    ______ ____
DOCKED: ROOT
DOCKED: ATOM      1  C   UNL d   1      -1.420  18.057   1.650 +0.03 +0.01    +0.064 A 
DOCKED: ATOM      2  C   UNL d   1       2.382  19.713   3.966 -0.13 +0.00    +0.064 A 
DOCKED: ATOM      3  C   UNL d   1       5.332  17.673   0.767 -0.13 +0.00    +0.064 C 
DOCKED: ATOM      4  C   UNL d   1       1.420  16.369  -1.889 -0.18 +0.00    +0.064 A 
DOCKED: ATOM      5  C   UNL d   1      -0.627  18.675   2.540 -0.17 +0.01    +0.066 A 
DOCKED: ATOM      6  C   UNL d   1      -1.098  19.374   3.655 -0.18 -0.00    -0.021 A 
DOCKED: ATOM      7  C   UNL d   1       0.000  19.891   4.302 -0.16 -0.00    -0.025 A 
DOCKED: ATOM      8  C   UNL d   1       1.114  19.452   3.592 -0.18 +0.01    +0.066 A 
DOCKED: ATOM      9  C   UNL d   1      -0.055  20.783   5.523 -0.08 +0.00    +0.051 C 
DOCKED: ATOM     10  C   UNL d   1       3.590  19.261   3.274 -0.12 +0.00    +0.066 A 
DOCKED: ATOM     11  C   UNL d   1       4.879  19.420   3.794 -0.09 -0.00    -0.021 A 
DOCKED: ATOM     12  C   UNL d   1       5.743  18.822   2.895 -0.09 +0.00    +0.000 A 
DOCKED: ATOM     13  C   UNL d   1       4.914  18.332   1.847 -0.11 +0.00    +0.070 A 
DOCKED: ATOM     14  C   UNL d   1       5.268  20.089   5.107 -0.04 +0.00    +0.052 C 
DOCKED: ATOM     15  C   UNL d   1       4.530  17.192  -0.331 -0.13 +0.00    +0.066 A 
DOCKED: ATOM     16  C   UNL d   1       5.045  16.655  -1.511 -0.10 -0.00    -0.021 A 
DOCKED: ATOM     17  C   UNL d   1       3.948  16.277  -2.284 -0.12 -0.00    +0.000 A 
DOCKED: ATOM     18  C   UNL d   1       2.831  16.614  -1.507 -0.15 +0.00    +0.070 A 
DOCKED: ATOM     19  C   UNL d   1       6.521  16.603  -1.815 -0.04 +0.00    +0.052 C 
DOCKED: ATOM     20  C   UNL d   1       0.324  16.718  -1.187 -0.21 +0.00    +0.066 A 
DOCKED: ATOM     21  C   UNL d   1      -0.980  16.444  -1.589 -0.23 -0.00    -0.025 A 
DOCKED: ATOM     22  C   UNL d   1      -1.802  16.894  -0.580 -0.20 -0.00    -0.021 A 
DOCKED: ATOM     23  C   UNL d   1      -0.966  17.444   0.396 -0.16 +0.01    +0.066 A 
DOCKED: ATOM     24  C   UNL d   1      -1.420  15.790  -2.873 -0.26 +0.01    +0.051 C 
DOCKED: ATOM     25  N   UNL d   1       0.724  18.759   2.469 -0.17 -0.03    -0.248 N 
DOCKED: ATOM     26  N   UNL d   1       3.606  18.608   2.084 -0.08 -0.01    -0.248 N 
DOCKED: ATOM     27  N   UNL d   1       3.201  17.237  -0.359 -0.11 -0.01    -0.248 N 
DOCKED: ATOM     28  N   UNL d   1       0.323  17.376   0.003 -0.19 -0.02    -0.248 N 
DOCKED: ATOM     29 FE   UNL d   1       1.954  17.987   1.033 -0.06 +0.00    +0.000 Fe
DOCKED: ATOM     30  O   UNL d   1       1.903  19.542   1.047 -0.14 +0.00    +0.000 OA
DOCKED: ATOM     31  O   UNL d   1       1.934  18.773  -0.328 -0.13 +0.00    +0.000 OA
DOCKED: ENDROOT
DOCKED: BRANCH   6  32
DOCKED: ATOM     32  C   UNL d   1      -2.529  19.665   4.026 -0.14 +0.01    +0.052 C 
DOCKED: BRANCH  32  33
DOCKED: ATOM     33  C   UNL d   1      -3.269  20.459   2.954 -0.07 +0.03    +0.115 C 
DOCKED: BRANCH  33  34
DOCKED: ATOM     34  C   UNL d   1      -4.277  19.619   2.209 -0.11 +0.06    +0.139 C 
DOCKED: ATOM     35  O   UNL d   1      -4.794  18.663   2.765 -0.01 -0.46    -0.650 OA
DOCKED: BRANCH  34  36
DOCKED: ATOM     36  O   UNL d   1      -4.603  19.883   0.927 +0.01 -0.37    -0.776 OA
DOCKED: ATOM     37  H   UNL d   1      -5.178  19.302   0.416 +0.02 +0.14    +0.167 HD
DOCKED: ENDBRANCH  34  36
DOCKED: ENDBRANCH  33  34
DOCKED: ENDBRANCH  32  33
DOCKED: ENDBRANCH   6  32
DOCKED: BRANCH  22  38
DOCKED: ATOM     38  C   UNL d   1      -3.308  16.852  -0.590 -0.28 +0.03    +0.052 C 
DOCKED: BRANCH  38  39
DOCKED: ATOM     39  C   UNL d   1      -3.916  17.977  -1.426 -0.13 +0.06    +0.115 C 
DOCKED: BRANCH  39  40
DOCKED: ATOM     40  C   UNL d   1      -5.414  17.854  -1.554 +0.05 +0.13    +0.139 C 
DOCKED: ATOM     41  O   UNL d   1      -5.893  16.957  -2.229 -0.80 -0.70    -0.650 OA
DOCKED: BRANCH  40  42
DOCKED: ATOM     42  O   UNL d   1      -6.239  18.690  -0.894 -0.52 -0.82    -0.776 OA
DOCKED: ATOM     43  H   UNL d   1      -5.986  19.600  -0.700 +0.01 +0.11    +0.167 HD
DOCKED: ENDBRANCH  40  42
DOCKED: ENDBRANCH  39  40
DOCKED: ENDBRANCH  38  39
DOCKED: ENDBRANCH  22  38
DOCKED: BRANCH  12  44
DOCKED: ATOM     44  C   UNL d   1       7.240  18.784   3.121 -0.04 +0.00    +0.004 C 
DOCKED: ATOM     45  C   UNL d   1       8.024  17.713   3.232 -0.04 +0.00    +0.012 C 
DOCKED: ENDBRANCH  12  44
DOCKED: BRANCH  17  46
DOCKED: ATOM     46  C   UNL d   1       3.869  15.698  -3.672 -0.13 -0.00    +0.004 C 
DOCKED: ATOM     47  C   UNL d   1       3.150  14.649  -4.092 -0.22 -0.00    +0.012 C 
DOCKED: ENDBRANCH  17  46
DOCKED: TORSDOF 10
DOCKED: TER
DOCKED: ENDMDL
________________________________________________________________________________


	BEGINNING GENETIC ALGORITHM DOCKING 50 of 100
Run: 50 Seed: 48185880 1543199759 [ Run 50 of 100 GA/GALS ]
Beginning LAMARCKIAN GENETIC ALGORITHM (LGA), with a maximum of 25000000 energy evaluations.

Final-Value: -9.000


	FINAL GENETIC ALGORITHM DOCKED STATE
	_______________________________________________


Detailed state:  trans 19.104 -2.391 5.057 quatxyzw -0.658924 -0.049596 0.750124 -0.025950 center 8.287 34.468 -0.670 ntor 10 -18.5152 -32.8777 25.0302 -122.2884 30.5618 -37.5277 55.0790 150.0108 -24.7913 171.0528
State:	 19.104  -2.391   5.057  -0.659 -0.050  0.750 -177.026    -18.52  -32.88   25.03 -122.29   30.56  -37.53   55.08  150.01  -24.79  171.05

DOCKED: MODEL       50
DOCKED: USER    Run = 50
DOCKED: USER    DPF = D:/Protein_go_brrr/autodock/final/mut_D99N/heme_O2/dock.dpf
DOCKED: USER  
DOCKED: USER    Estimated Free Energy of Binding    =   -4.08 kcal/mol  [=(1)+(2)+(3)-(4)]
DOCKED: USER    Estimated Inhibition Constant, Ki   =    1.03 mM (millimolar)  [Temperature = 298.15 K]
DOCKED: USER    
DOCKED: USER    (1) Final Intermolecular Energy     =   -7.06 kcal/mol
DOCKED: USER        vdW + Hbond + desolv Energy     =   -6.74 kcal/mol
DOCKED: USER        Electrostatic Energy            =   -0.32 kcal/mol
DOCKED: USER    (2) Final Total Internal Energy     =   -1.94 kcal/mol
DOCKED: USER    (3) Torsional Free Energy           =   +2.98 kcal/mol
DOCKED: USER    (4) Unbound System's Energy  [=(2)] =   -1.94 kcal/mol
DOCKED: USER    
DOCKED: USER    
DOCKED: USER    NEWDPF move heme_O2_opt.pdbqt
DOCKED: USER    NEWDPF about 8.287000 34.468000 -0.670000
DOCKED: USER    NEWDPF tran0 19.103694 -2.390981 5.057284
DOCKED: USER    NEWDPF quaternion0 -0.658924 -0.049596 0.750124 -0.025950
DOCKED: USER    NEWDPF axisangle0 -0.659146 -0.049613 0.750376 -177.026040
DOCKED: USER    NEWDPF quat0 -0.659146 -0.049613 0.750376 -177.026040
DOCKED: USER    NEWDPF dihe0 -18.52 -32.88 25.03 -122.29 30.56 -37.53 55.08 150.01 -24.79 171.05 
DOCKED: USER  keepresnum = 1 
DOCKED: USER  
DOCKED: REMARK  10 active torsions:
DOCKED: REMARK  status: ('A' for Active; 'I' for Inactive)
DOCKED: REMARK    1  A    between atoms: C_6  and  C_10 
DOCKED: REMARK    2  A    between atoms: C_10  and  C_11 
DOCKED: REMARK    3  A    between atoms: C_11  and  C_12 
DOCKED: REMARK    4  A    between atoms: C_12  and  O_14 
DOCKED: REMARK    5  A    between atoms: C_17  and  C_20 
DOCKED: REMARK    6  A    between atoms: C_24  and  C_27 
DOCKED: REMARK    7  A    between atoms: C_31  and  C_34 
DOCKED: REMARK    8  A    between atoms: C_34  and  C_35 
DOCKED: REMARK    9  A    between atoms: C_35  and  C_36 
DOCKED: REMARK   10  A    between atoms: C_36  and  O_38 
DOCKED: USER                              x       y       z     vdW  Elec       q    Type
DOCKED: USER                           _______ _______ _______ _____ _____    ______ ____
DOCKED: ROOT
DOCKED: ATOM      1  C   UNL d   1      20.156  -3.152   6.734 -0.04 +0.00    +0.064 A 
DOCKED: ATOM      2  C   UNL d   1      16.257  -0.469   6.342 -0.20 +0.00    +0.064 A 
DOCKED: ATOM      3  C   UNL d   1      16.606  -0.500   1.549 -0.16 -0.00    +0.064 C 
DOCKED: ATOM      4  C   UNL d   1      20.342  -3.657   1.923 -0.17 +0.00    +0.064 A 
DOCKED: ATOM      5  C   UNL d   1      19.066  -2.421   7.019 -0.04 +0.00    +0.066 A 
DOCKED: ATOM      6  C   UNL d   1      18.625  -2.146   8.316 -0.04 -0.00    -0.021 A 
DOCKED: ATOM      7  C   UNL d   1      17.471  -1.406   8.203 -0.12 -0.00    -0.025 A 
DOCKED: ATOM      8  C   UNL d   1      17.267  -1.208   6.840 -0.14 +0.00    +0.066 A 
DOCKED: ATOM      9  C   UNL d   1      16.616  -0.953   9.366 -0.08 +0.00    +0.051 C 
DOCKED: ATOM     10  C   UNL d   1      16.004  -0.207   4.924 -0.22 -0.00    +0.066 A 
DOCKED: ATOM     11  C   UNL d   1      15.041   0.700   4.469 -0.26 +0.00    -0.021 A 
DOCKED: ATOM     12  C   UNL d   1      15.138   0.718   3.090 -0.20 -0.00    +0.000 A 
DOCKED: ATOM     13  C   UNL d   1      16.171  -0.208   2.774 -0.06 -0.00    +0.070 A 
DOCKED: ATOM     14  C   UNL d   1      14.086   1.534   5.315 -0.27 +0.00    +0.052 C 
DOCKED: ATOM     15  C   UNL d   1      17.623  -1.457   1.185 -0.17 -0.01    +0.066 A 
DOCKED: ATOM     16  C   UNL d   1      17.919  -1.837  -0.123 -0.24 +0.00    -0.021 A 
DOCKED: ATOM     17  C   UNL d   1      18.981  -2.738  -0.041 -0.24 -0.00    +0.000 A 
DOCKED: ATOM     18  C   UNL d   1      19.259  -2.839   1.329 -0.17 -0.01    +0.070 A 
DOCKED: ATOM     19  C   UNL d   1      17.135  -1.355  -1.318 -0.33 -0.01    +0.052 C 
DOCKED: ATOM     20  C   UNL d   1      20.608  -3.810   3.235 -0.16 +0.01    +0.066 A 
DOCKED: ATOM     21  C   UNL d   1      21.655  -4.581   3.734 -0.17 -0.01    -0.025 A 
DOCKED: ATOM     22  C   UNL d   1      21.634  -4.427   5.102 -0.12 -0.00    -0.021 A 
DOCKED: ATOM     23  C   UNL d   1      20.559  -3.579   5.389 -0.08 +0.01    +0.066 A 
DOCKED: ATOM     24  C   UNL d   1      22.623  -5.424   2.946 -0.10 +0.02    +0.051 C 
DOCKED: ATOM     25  N   UNL d   1      18.213  -1.889   6.109 -0.05 +0.00    -0.248 N 
DOCKED: ATOM     26  N   UNL d   1      16.689  -0.769   3.896 -0.13 +0.01    -0.248 N 
DOCKED: ATOM     27  N   UNL d   1      18.377  -2.113   2.063 -0.09 +0.02    -0.248 N 
DOCKED: ATOM     28  N   UNL d   1      19.911  -3.243   4.255 -0.07 -0.02    -0.248 N 
DOCKED: ATOM     29 FE   UNL d   1      18.312  -2.016   4.074 -0.03 -0.00    +0.000 Fe
DOCKED: ATOM     30  O   UNL d   1      17.105  -2.780   4.693 -0.32 -0.00    +0.000 OA
DOCKED: ATOM     31  O   UNL d   1      17.900  -3.417   3.491 -0.36 -0.00    +0.000 OA
DOCKED: ENDROOT
DOCKED: BRANCH   6  32
DOCKED: ATOM     32  C   UNL d   1      19.184  -2.672   9.612 -0.02 +0.00    +0.052 C 
DOCKED: BRANCH  32  33
DOCKED: ATOM     33  C   UNL d   1      20.652  -2.310   9.815 -0.00 +0.00    +0.115 C 
DOCKED: BRANCH  33  34
DOCKED: ATOM     34  C   UNL d   1      21.506  -3.516  10.118 +0.00 +0.01    +0.139 C 
DOCKED: ATOM     35  O   UNL d   1      22.128  -3.566  11.167 +0.00 -0.03    -0.650 OA
DOCKED: BRANCH  34  36
DOCKED: ATOM     36  O   UNL d   1      21.621  -4.535   9.241 +0.02 -0.08    -0.776 OA
DOCKED: ATOM     37  H   UNL d   1      20.989  -4.667   8.525 +0.02 +0.02    +0.167 HD
DOCKED: ENDBRANCH  34  36
DOCKED: ENDBRANCH  33  34
DOCKED: ENDBRANCH  32  33
DOCKED: ENDBRANCH   6  32
DOCKED: BRANCH  22  38
DOCKED: ATOM     38  C   UNL d   1      22.557  -5.111   6.077 -0.10 +0.02    +0.052 C 
DOCKED: BRANCH  38  39
DOCKED: ATOM     39  C   UNL d   1      22.041  -6.484   6.501 -0.08 +0.06    +0.115 C 
DOCKED: BRANCH  39  40
DOCKED: ATOM     40  C   UNL d   1      20.535  -6.556   6.512 -0.18 +0.04    +0.139 C 
DOCKED: ATOM     41  O   UNL d   1      19.952  -7.183   5.642 -0.24 -0.29    -0.650 OA
DOCKED: BRANCH  40  42
DOCKED: ATOM     42  O   UNL d   1      19.818  -5.982   7.497 +0.06 -0.11    -0.776 OA
DOCKED: ATOM     43  H   UNL d   1      20.169  -5.894   8.392 +0.03 +0.02    +0.167 HD
DOCKED: ENDBRANCH  40  42
DOCKED: ENDBRANCH  39  40
DOCKED: ENDBRANCH  38  39
DOCKED: ENDBRANCH  22  38
DOCKED: BRANCH  12  44
DOCKED: ATOM     44  C   UNL d   1      14.251   1.598   2.233 -0.28 +0.00    +0.004 C 
DOCKED: ATOM     45  C   UNL d   1      13.964   1.458   0.939 -0.32 +0.00    +0.012 C 
DOCKED: ENDBRANCH  12  44
DOCKED: BRANCH  17  46
DOCKED: ATOM     46  C   UNL d   1      19.692  -3.527  -1.108 -0.34 -0.00    +0.004 C 
DOCKED: ATOM     47  C   UNL d   1      19.949  -4.841  -1.134 -0.47 -0.00    +0.012 C 
DOCKED: ENDBRANCH  17  46
DOCKED: TORSDOF 10
DOCKED: TER
DOCKED: ENDMDL
________________________________________________________________________________


	BEGINNING GENETIC ALGORITHM DOCKING 51 of 100
Run: 51 Seed: 518258728 1808161343 [ Run 51 of 100 GA/GALS ]
Beginning LAMARCKIAN GENETIC ALGORITHM (LGA), with a maximum of 25000000 energy evaluations.

Final-Value: -10.071


	FINAL GENETIC ALGORITHM DOCKED STATE
	_______________________________________________


Detailed state:  trans -13.935 1.046 13.616 quatxyzw 0.856323 -0.022180 -0.514464 0.039319 center 8.287 34.468 -0.670 ntor 10 56.3526 -158.4117 -44.4708 -84.7171 -135.8183 68.2492 159.8807 -93.7510 16.3235 -8.9746
State:	-13.935   1.046  13.616   0.857 -0.022 -0.515 175.493     56.35 -158.41  -44.47  -84.72 -135.82   68.25  159.88  -93.75   16.32   -8.97

DOCKED: MODEL       51
DOCKED: USER    Run = 51
DOCKED: USER    DPF = D:/Protein_go_brrr/autodock/final/mut_D99N/heme_O2/dock.dpf
DOCKED: USER  
DOCKED: USER    Estimated Free Energy of Binding    =   -4.88 kcal/mol  [=(1)+(2)+(3)-(4)]
DOCKED: USER    Estimated Inhibition Constant, Ki   =  266.17 uM (micromolar)  [Temperature = 298.15 K]
DOCKED: USER    
DOCKED: USER    (1) Final Intermolecular Energy     =   -7.86 kcal/mol
DOCKED: USER        vdW + Hbond + desolv Energy     =   -5.87 kcal/mol
DOCKED: USER        Electrostatic Energy            =   -1.99 kcal/mol
DOCKED: USER    (2) Final Total Internal Energy     =   -2.21 kcal/mol
DOCKED: USER    (3) Torsional Free Energy           =   +2.98 kcal/mol
DOCKED: USER    (4) Unbound System's Energy  [=(2)] =   -2.21 kcal/mol
DOCKED: USER    
DOCKED: USER    
DOCKED: USER    NEWDPF move heme_O2_opt.pdbqt
DOCKED: USER    NEWDPF about 8.287000 34.468000 -0.670000
DOCKED: USER    NEWDPF tran0 -13.934801 1.046103 13.616053
DOCKED: USER    NEWDPF quaternion0 0.856323 -0.022180 -0.514464 0.039319
DOCKED: USER    NEWDPF axisangle0 0.856985 -0.022197 -0.514863 175.493206
DOCKED: USER    NEWDPF quat0 0.856985 -0.022197 -0.514863 175.493206
DOCKED: USER    NEWDPF dihe0 56.35 -158.41 -44.47 -84.72 -135.82 68.25 159.88 -93.75 16.32 -8.97 
DOCKED: USER  keepresnum = 1 
DOCKED: USER  
DOCKED: REMARK  10 active torsions:
DOCKED: REMARK  status: ('A' for Active; 'I' for Inactive)
DOCKED: REMARK    1  A    between atoms: C_6  and  C_10 
DOCKED: REMARK    2  A    between atoms: C_10  and  C_11 
DOCKED: REMARK    3  A    between atoms: C_11  and  C_12 
DOCKED: REMARK    4  A    between atoms: C_12  and  O_14 
DOCKED: REMARK    5  A    between atoms: C_17  and  C_20 
DOCKED: REMARK    6  A    between atoms: C_24  and  C_27 
DOCKED: REMARK    7  A    between atoms: C_31  and  C_34 
DOCKED: REMARK    8  A    between atoms: C_34  and  C_35 
DOCKED: REMARK    9  A    between atoms: C_35  and  C_36 
DOCKED: REMARK   10  A    between atoms: C_36  and  O_38 
DOCKED: USER                              x       y       z     vdW  Elec       q    Type
DOCKED: USER                           _______ _______ _______ _____ _____    ______ ____
DOCKED: ROOT
DOCKED: ATOM      1  C   UNL d   1     -14.157   0.370  15.614 -0.04 +0.04    +0.064 A 
DOCKED: ATOM      2  C   UNL d   1     -16.651   3.423  12.965 -0.06 +0.02    +0.064 A 
DOCKED: ATOM      3  C   UNL d   1     -13.661   2.790   9.256 -0.18 +0.02    +0.064 C 
DOCKED: ATOM      4  C   UNL d   1     -11.365  -0.713  11.810 -0.26 +0.02    +0.064 A 
DOCKED: ATOM      5  C   UNL d   1     -15.080   1.250  15.196 -0.08 +0.05    +0.066 A 
DOCKED: ATOM      6  C   UNL d   1     -16.127   1.725  15.992 -0.06 -0.01    -0.021 A 
DOCKED: ATOM      7  C   UNL d   1     -16.875   2.576  15.212 -0.04 -0.01    -0.025 A 
DOCKED: ATOM      8  C   UNL d   1     -16.237   2.635  13.976 -0.07 +0.03    +0.066 A 
DOCKED: ATOM      9  C   UNL d   1     -18.151   3.258  15.654 -0.01 +0.01    +0.051 C 
DOCKED: ATOM     10  C   UNL d   1     -16.010   3.544  11.655 -0.09 +0.02    +0.066 A 
DOCKED: ATOM     11  C   UNL d   1     -16.384   4.497  10.701 -0.08 -0.01    -0.021 A 
DOCKED: ATOM     12  C   UNL d   1     -15.522   4.342   9.631 -0.05 +0.00    +0.000 A 
DOCKED: ATOM     13  C   UNL d   1     -14.659   3.272   9.996 -0.12 +0.03    +0.070 A 
DOCKED: ATOM     14  C   UNL d   1     -17.499   5.530  10.816 -0.05 +0.01    +0.052 C 
DOCKED: ATOM     15  C   UNL d   1     -12.788   1.686   9.575 -0.17 +0.02    +0.066 A 
DOCKED: ATOM     16  C   UNL d   1     -11.870   1.123   8.689 -0.25 -0.01    -0.021 A 
DOCKED: ATOM     17  C   UNL d   1     -11.204   0.121   9.395 -0.35 +0.00    +0.000 A 
DOCKED: ATOM     18  C   UNL d   1     -11.772   0.150  10.676 -0.24 +0.02    +0.070 A 
DOCKED: ATOM     19  C   UNL d   1     -11.750   1.549   7.247 -0.15 +0.02    +0.052 C 
DOCKED: ATOM     20  C   UNL d   1     -11.918  -0.742  13.038 -0.18 +0.03    +0.066 A 
DOCKED: ATOM     21  C   UNL d   1     -11.479  -1.564  14.072 -0.20 -0.01    -0.025 A 
DOCKED: ATOM     22  C   UNL d   1     -12.246  -1.250  15.172 -0.14 -0.01    -0.021 A 
DOCKED: ATOM     23  C   UNL d   1     -13.139  -0.256  14.762 -0.05 +0.04    +0.066 A 
DOCKED: ATOM     24  C   UNL d   1     -10.387  -2.601  14.013 -0.27 +0.01    +0.051 C 
DOCKED: ATOM     25  N   UNL d   1     -15.169   1.768  13.946 -0.08 -0.17    -0.248 N 
DOCKED: ATOM     26  N   UNL d   1     -14.966   2.789  11.227 -0.08 -0.10    -0.248 N 
DOCKED: ATOM     27  N   UNL d   1     -12.783   1.054  10.745 -0.11 -0.09    -0.248 N 
DOCKED: ATOM     28  N   UNL d   1     -12.966   0.018  13.452 -0.10 -0.13    -0.248 N 
DOCKED: ATOM     29 FE   UNL d   1     -13.957   1.393  12.346 -0.03 +0.00    +0.000 Fe
DOCKED: ATOM     30  O   UNL d   1     -15.407   0.852  12.177 -0.05 +0.00    +0.000 OA
DOCKED: ATOM     31  O   UNL d   1     -14.188  -0.010  11.673 -0.08 +0.00    +0.000 OA
DOCKED: ENDROOT
DOCKED: BRANCH   6  32
DOCKED: ATOM     32  C   UNL d   1     -16.494   1.293  17.388 -0.02 +0.02    +0.052 C 
DOCKED: BRANCH  32  33
DOCKED: ATOM     33  C   UNL d   1     -15.995   2.259  18.457 -0.03 +0.05    +0.115 C 
DOCKED: BRANCH  33  34
DOCKED: ATOM     34  C   UNL d   1     -14.834   3.097  17.980 -0.02 +0.13    +0.139 C 
DOCKED: ATOM     35  O   UNL d   1     -15.030   3.999  17.180 -0.45 -0.91    -0.650 OA
DOCKED: BRANCH  34  36
DOCKED: ATOM     36  O   UNL d   1     -13.574   2.855  18.395 -0.18 -0.86    -0.776 OA
DOCKED: ATOM     37  H   UNL d   1     -13.154   1.994  18.278 +0.02 +0.16    +0.167 HD
DOCKED: ENDBRANCH  34  36
DOCKED: ENDBRANCH  33  34
DOCKED: ENDBRANCH  32  33
DOCKED: ENDBRANCH   6  32
DOCKED: BRANCH  22  38
DOCKED: ATOM     38  C   UNL d   1     -12.162  -1.917  16.521 -0.11 +0.01    +0.052 C 
DOCKED: BRANCH  38  39
DOCKED: ATOM     39  C   UNL d   1     -11.218  -1.188  17.473 -0.16 +0.04    +0.115 C 
DOCKED: BRANCH  39  40
DOCKED: ATOM     40  C   UNL d   1     -11.895  -0.052  18.199 -0.11 +0.06    +0.139 C 
DOCKED: ATOM     41  O   UNL d   1     -11.257   0.946  18.492 -0.01 -0.35    -0.650 OA
DOCKED: BRANCH  40  42
DOCKED: ATOM     42  O   UNL d   1     -13.210  -0.097  18.488 +0.02 -0.29    -0.776 OA
DOCKED: ATOM     43  H   UNL d   1     -13.725   0.707  18.623 +0.01 +0.08    +0.167 HD
DOCKED: ENDBRANCH  40  42
DOCKED: ENDBRANCH  39  40
DOCKED: ENDBRANCH  38  39
DOCKED: ENDBRANCH  22  38
DOCKED: BRANCH  12  44
DOCKED: ATOM     44  C   UNL d   1     -15.611   5.212   8.394 -0.10 +0.00    +0.004 C 
DOCKED: ATOM     45  C   UNL d   1     -14.624   5.860   7.776 -0.16 +0.00    +0.012 C 
DOCKED: ENDBRANCH  12  44
DOCKED: BRANCH  17  46
DOCKED: ATOM     46  C   UNL d   1     -10.154  -0.865   8.957 -0.42 +0.00    +0.004 C 
DOCKED: ATOM     47  C   UNL d   1     -10.328  -2.103   8.477 -0.45 +0.00    +0.012 C 
DOCKED: ENDBRANCH  17  46
DOCKED: TORSDOF 10
DOCKED: TER
DOCKED: ENDMDL
________________________________________________________________________________


	BEGINNING GENETIC ALGORITHM DOCKING 52 of 100
Run: 52 Seed: 1262409206 1002883271 [ Run 52 of 100 GA/GALS ]
Beginning LAMARCKIAN GENETIC ALGORITHM (LGA), with a maximum of 25000000 energy evaluations.

Final-Value: -11.382


	FINAL GENETIC ALGORITHM DOCKED STATE
	_______________________________________________


Detailed state:  trans 1.571 0.075 -20.628 quatxyzw 0.790612 -0.165095 0.071185 -0.585328 center 8.287 34.468 -0.670 ntor 10 -113.6082 -126.4916 12.1870 -93.3987 60.9001 164.4652 -92.9535 62.4048 179.1763 179.9741
State:	  1.571   0.075 -20.628   0.975 -0.204  0.088 -108.348   -113.61 -126.49   12.19  -93.40   60.90  164.47  -92.95   62.40  179.18  179.97

DOCKED: MODEL       52
DOCKED: USER    Run = 52
DOCKED: USER    DPF = D:/Protein_go_brrr/autodock/final/mut_D99N/heme_O2/dock.dpf
DOCKED: USER  
DOCKED: USER    Estimated Free Energy of Binding    =   -5.87 kcal/mol  [=(1)+(2)+(3)-(4)]
DOCKED: USER    Estimated Inhibition Constant, Ki   =   49.64 uM (micromolar)  [Temperature = 298.15 K]
DOCKED: USER    
DOCKED: USER    (1) Final Intermolecular Energy     =   -8.85 kcal/mol
DOCKED: USER        vdW + Hbond + desolv Energy     =   -4.59 kcal/mol
DOCKED: USER        Electrostatic Energy            =   -4.26 kcal/mol
DOCKED: USER    (2) Final Total Internal Energy     =   -2.53 kcal/mol
DOCKED: USER    (3) Torsional Free Energy           =   +2.98 kcal/mol
DOCKED: USER    (4) Unbound System's Energy  [=(2)] =   -2.53 kcal/mol
DOCKED: USER    
DOCKED: USER    
DOCKED: USER    NEWDPF move heme_O2_opt.pdbqt
DOCKED: USER    NEWDPF about 8.287000 34.468000 -0.670000
DOCKED: USER    NEWDPF tran0 1.571078 0.075105 -20.627518
DOCKED: USER    NEWDPF quaternion0 0.790612 -0.165095 0.071185 -0.585328
DOCKED: USER    NEWDPF axisangle0 0.975105 -0.203621 0.087796 -108.347615
DOCKED: USER    NEWDPF quat0 0.975105 -0.203621 0.087796 -108.347615
DOCKED: USER    NEWDPF dihe0 -113.61 -126.49 12.19 -93.40 60.90 164.47 -92.95 62.40 179.18 179.97 
DOCKED: USER  keepresnum = 1 
DOCKED: USER  
DOCKED: REMARK  10 active torsions:
DOCKED: REMARK  status: ('A' for Active; 'I' for Inactive)
DOCKED: REMARK    1  A    between atoms: C_6  and  C_10 
DOCKED: REMARK    2  A    between atoms: C_10  and  C_11 
DOCKED: REMARK    3  A    between atoms: C_11  and  C_12 
DOCKED: REMARK    4  A    between atoms: C_12  and  O_14 
DOCKED: REMARK    5  A    between atoms: C_17  and  C_20 
DOCKED: REMARK    6  A    between atoms: C_24  and  C_27 
DOCKED: REMARK    7  A    between atoms: C_31  and  C_34 
DOCKED: REMARK    8  A    between atoms: C_34  and  C_35 
DOCKED: REMARK    9  A    between atoms: C_35  and  C_36 
DOCKED: REMARK   10  A    between atoms: C_36  and  O_38 
DOCKED: USER                              x       y       z     vdW  Elec       q    Type
DOCKED: USER                           _______ _______ _______ _____ _____    ______ ____
DOCKED: ROOT
DOCKED: ATOM      1  C   UNL d   1      -0.321   1.010 -20.413 -0.09 +0.05    +0.064 A 
DOCKED: ATOM      2  C   UNL d   1       1.418  -2.007 -23.642 -0.05 +0.01    +0.064 A 
DOCKED: ATOM      3  C   UNL d   1       5.676  -2.081 -21.416 -0.12 +0.01    +0.064 C 
DOCKED: ATOM      4  C   UNL d   1       3.753   0.647 -17.821 -0.12 +0.02    +0.064 A 
DOCKED: ATOM      5  C   UNL d   1      -0.196   0.194 -21.472 -0.08 +0.04    +0.066 A 
DOCKED: ATOM      6  C   UNL d   1      -1.213  -0.044 -22.401 -0.05 -0.01    -0.021 A 
DOCKED: ATOM      7  C   UNL d   1      -0.725  -0.951 -23.312 -0.05 -0.01    -0.025 A 
DOCKED: ATOM      8  C   UNL d   1       0.593  -1.205 -22.942 -0.06 +0.02    +0.066 A 
DOCKED: ATOM      9  C   UNL d   1      -1.521  -1.547 -24.452 -0.03 +0.01    +0.051 C 
DOCKED: ATOM     10  C   UNL d   1       2.816  -2.294 -23.317 -0.06 +0.01    +0.066 A 
DOCKED: ATOM     11  C   UNL d   1       3.674  -3.002 -24.166 -0.06 -0.00    -0.021 A 
DOCKED: ATOM     12  C   UNL d   1       4.912  -3.018 -23.549 -0.11 +0.00    +0.000 A 
DOCKED: ATOM     13  C   UNL d   1       4.731  -2.314 -22.326 -0.11 +0.01    +0.070 A 
DOCKED: ATOM     14  C   UNL d   1       3.335  -3.613 -25.520 -0.03 +0.00    +0.052 C 
DOCKED: ATOM     15  C   UNL d   1       5.526  -1.404 -20.151 -0.09 +0.02    +0.066 A 
DOCKED: ATOM     16  C   UNL d   1       6.514  -1.335 -19.168 -0.14 -0.01    -0.021 A 
DOCKED: ATOM     17  C   UNL d   1       5.987  -0.563 -18.133 -0.20 +0.00    +0.000 A 
DOCKED: ATOM     18  C   UNL d   1       4.702  -0.212 -18.568 -0.15 +0.02    +0.070 A 
DOCKED: ATOM     19  C   UNL d   1       7.836  -2.051 -19.280 -0.23 +0.01    +0.052 C 
DOCKED: ATOM     20  C   UNL d   1       2.497   0.968 -18.189 -0.10 +0.03    +0.066 A 
DOCKED: ATOM     21  C   UNL d   1       1.655   1.797 -17.452 -0.13 -0.01    -0.025 A 
DOCKED: ATOM     22  C   UNL d   1       0.500   1.933 -18.189 -0.12 -0.02    -0.021 A 
DOCKED: ATOM     23  C   UNL d   1       0.673   1.165 -19.344 -0.11 +0.05    +0.066 A 
DOCKED: ATOM     24  C   UNL d   1       1.938   2.423 -16.112 -0.13 +0.02    +0.051 C 
DOCKED: ATOM     25  N   UNL d   1       0.897  -0.550 -21.771 -0.05 -0.10    -0.248 N 
DOCKED: ATOM     26  N   UNL d   1       3.452  -1.881 -22.191 -0.06 -0.05    -0.248 N 
DOCKED: ATOM     27  N   UNL d   1       4.411  -0.793 -19.760 -0.10 -0.06    -0.248 N 
DOCKED: ATOM     28  N   UNL d   1       1.871   0.544 -19.319 -0.09 -0.12    -0.248 N 
DOCKED: ATOM     29 FE   UNL d   1       2.658  -0.660 -20.743 -0.03 +0.00    +0.000 Fe
DOCKED: ATOM     30  O   UNL d   1       1.827  -1.976 -20.708 -0.29 +0.00    +0.000 OA
DOCKED: ATOM     31  O   UNL d   1       2.580  -1.493 -19.411 -0.23 +0.00    +0.000 OA
DOCKED: ENDROOT
DOCKED: BRANCH   6  32
DOCKED: ATOM     32  C   UNL d   1      -2.635   0.453 -22.360 -0.03 +0.03    +0.052 C 
DOCKED: BRANCH  32  33
DOCKED: ATOM     33  C   UNL d   1      -3.604  -0.572 -21.779 -0.07 +0.08    +0.115 C 
DOCKED: BRANCH  33  34
DOCKED: ATOM     34  C   UNL d   1      -3.658  -0.523 -20.273 -0.16 +0.18    +0.139 C 
DOCKED: ATOM     35  O   UNL d   1      -2.896  -1.217 -19.619 -0.10 -1.40    -0.650 OA
DOCKED: BRANCH  34  36
DOCKED: ATOM     36  O   UNL d   1      -4.552   0.252 -19.626 -0.01 -1.38    -0.776 OA
DOCKED: ATOM     37  H   UNL d   1      -4.282   1.012 -19.097 +0.03 +0.35    +0.167 HD
DOCKED: ENDBRANCH  34  36
DOCKED: ENDBRANCH  33  34
DOCKED: ENDBRANCH  32  33
DOCKED: ENDBRANCH   6  32
DOCKED: BRANCH  22  38
DOCKED: ATOM     38  C   UNL d   1      -0.723   2.708 -17.769 -0.12 +0.04    +0.052 C 
DOCKED: BRANCH  38  39
DOCKED: ATOM     39  C   UNL d   1      -1.575   1.945 -16.758 -0.22 +0.14    +0.115 C 
DOCKED: BRANCH  39  40
DOCKED: ATOM     40  C   UNL d   1      -2.965   1.663 -17.272 -0.05 +0.23    +0.139 C 
DOCKED: ATOM     41  O   UNL d   1      -3.636   2.571 -17.734 +0.03 -1.05    -0.650 OA
DOCKED: BRANCH  40  42
DOCKED: ATOM     42  O   UNL d   1      -3.464   0.412 -17.278 +0.18 -1.85    -0.776 OA
DOCKED: ATOM     43  H   UNL d   1      -3.788   0.001 -18.088 +0.04 +0.42    +0.167 HD
DOCKED: ENDBRANCH  40  42
DOCKED: ENDBRANCH  39  40
DOCKED: ENDBRANCH  38  39
DOCKED: ENDBRANCH  22  38
DOCKED: BRANCH  12  44
DOCKED: ATOM     44  C   UNL d   1       6.113  -3.693 -24.177 -0.11 +0.00    +0.004 C 
DOCKED: ATOM     45  C   UNL d   1       7.311  -3.904 -23.632 -0.13 +0.00    +0.012 C 
DOCKED: ENDBRANCH  12  44
DOCKED: BRANCH  17  46
DOCKED: ATOM     46  C   UNL d   1       6.556  -0.191 -16.790 -0.24 +0.00    +0.004 C 
DOCKED: ATOM     47  C   UNL d   1       6.291  -0.739 -15.597 -0.37 +0.00    +0.012 C 
DOCKED: ENDBRANCH  17  46
DOCKED: TORSDOF 10
DOCKED: TER
DOCKED: ENDMDL
________________________________________________________________________________


	BEGINNING GENETIC ALGORITHM DOCKING 53 of 100
Run: 53 Seed: 836297750 762144721 [ Run 53 of 100 GA/GALS ]
Beginning LAMARCKIAN GENETIC ALGORITHM (LGA), with a maximum of 25000000 energy evaluations.

Final-Value: -10.720


	FINAL GENETIC ALGORITHM DOCKED STATE
	_______________________________________________


Detailed state:  trans 0.556 17.662 0.669 quatxyzw -0.586785 0.328037 -0.025462 -0.739883 center 8.287 34.468 -0.670 ntor 10 137.3716 -32.8393 -48.0467 -80.7859 156.1720 -168.0517 -56.2178 -11.1952 -158.4280 130.6874
State:	  0.556  17.662   0.669  -0.872  0.488 -0.038 -84.557    137.37  -32.84  -48.05  -80.79  156.17 -168.05  -56.22  -11.20 -158.43  130.69

DOCKED: MODEL       53
DOCKED: USER    Run = 53
DOCKED: USER    DPF = D:/Protein_go_brrr/autodock/final/mut_D99N/heme_O2/dock.dpf
DOCKED: USER  
DOCKED: USER    Estimated Free Energy of Binding    =   -5.58 kcal/mol  [=(1)+(2)+(3)-(4)]
DOCKED: USER    Estimated Inhibition Constant, Ki   =   81.19 uM (micromolar)  [Temperature = 298.15 K]
DOCKED: USER    
DOCKED: USER    (1) Final Intermolecular Energy     =   -8.56 kcal/mol
DOCKED: USER        vdW + Hbond + desolv Energy     =   -7.07 kcal/mol
DOCKED: USER        Electrostatic Energy            =   -1.49 kcal/mol
DOCKED: USER    (2) Final Total Internal Energy     =   -2.16 kcal/mol
DOCKED: USER    (3) Torsional Free Energy           =   +2.98 kcal/mol
DOCKED: USER    (4) Unbound System's Energy  [=(2)] =   -2.16 kcal/mol
DOCKED: USER    
DOCKED: USER    
DOCKED: USER    NEWDPF move heme_O2_opt.pdbqt
DOCKED: USER    NEWDPF about 8.287000 34.468000 -0.670000
DOCKED: USER    NEWDPF tran0 0.556309 17.661913 0.668522
DOCKED: USER    NEWDPF quaternion0 -0.586785 0.328037 -0.025462 -0.739883
DOCKED: USER    NEWDPF axisangle0 -0.872237 0.487617 -0.037849 -84.557127
DOCKED: USER    NEWDPF quat0 -0.872237 0.487617 -0.037849 -84.557127
DOCKED: USER    NEWDPF dihe0 137.37 -32.84 -48.05 -80.79 156.17 -168.05 -56.22 -11.20 -158.43 130.69 
DOCKED: USER  keepresnum = 1 
DOCKED: USER  
DOCKED: REMARK  10 active torsions:
DOCKED: REMARK  status: ('A' for Active; 'I' for Inactive)
DOCKED: REMARK    1  A    between atoms: C_6  and  C_10 
DOCKED: REMARK    2  A    between atoms: C_10  and  C_11 
DOCKED: REMARK    3  A    between atoms: C_11  and  C_12 
DOCKED: REMARK    4  A    between atoms: C_12  and  O_14 
DOCKED: REMARK    5  A    between atoms: C_17  and  C_20 
DOCKED: REMARK    6  A    between atoms: C_24  and  C_27 
DOCKED: REMARK    7  A    between atoms: C_31  and  C_34 
DOCKED: REMARK    8  A    between atoms: C_34  and  C_35 
DOCKED: REMARK    9  A    between atoms: C_35  and  C_36 
DOCKED: REMARK   10  A    between atoms: C_36  and  O_38 
DOCKED: USER                              x       y       z     vdW  Elec       q    Type
DOCKED: USER                           _______ _______ _______ _____ _____    ______ ____
DOCKED: ROOT
DOCKED: ATOM      1  C   UNL d   1      -1.530  17.958   0.911 -0.17 +0.01    +0.064 A 
DOCKED: ATOM      2  C   UNL d   1       2.248  19.772   3.145 -0.13 +0.00    +0.064 A 
DOCKED: ATOM      3  C   UNL d   1       5.227  17.159   0.427 -0.15 +0.00    +0.064 C 
DOCKED: ATOM      4  C   UNL d   1       1.370  15.645  -2.200 -0.23 -0.00    +0.064 A 
DOCKED: ATOM      5  C   UNL d   1      -0.746  18.666   1.739 -0.22 +0.01    +0.066 A 
DOCKED: ATOM      6  C   UNL d   1      -1.228  19.541   2.716 -0.17 -0.00    -0.021 A 
DOCKED: ATOM      7  C   UNL d   1      -0.134  20.100   3.335 -0.14 -0.00    -0.025 A 
DOCKED: ATOM      8  C   UNL d   1       0.986  19.514   2.751 -0.18 +0.01    +0.066 A 
DOCKED: ATOM      9  C   UNL d   1      -0.197  21.164   4.409 -0.06 +0.00    +0.051 C 
DOCKED: ATOM     10  C   UNL d   1       3.460  19.172   2.587 -0.12 +0.00    +0.066 A 
DOCKED: ATOM     11  C   UNL d   1       4.733  19.351   3.141 -0.10 -0.00    -0.021 A 
DOCKED: ATOM     12  C   UNL d   1       5.603  18.590   2.382 -0.10 +0.00    +0.000 A 
DOCKED: ATOM     13  C   UNL d   1       4.796  17.987   1.378 -0.12 +0.00    +0.070 A 
DOCKED: ATOM     14  C   UNL d   1       5.099  20.189   4.360 -0.04 +0.00    +0.052 C 
DOCKED: ATOM     15  C   UNL d   1       4.449  16.556  -0.628 -0.12 +0.00    +0.066 A 
DOCKED: ATOM     16  C   UNL d   1       4.986  15.829  -1.691 -0.13 -0.00    -0.021 A 
DOCKED: ATOM     17  C   UNL d   1       3.905  15.388  -2.454 -0.18 -0.00    +0.000 A 
DOCKED: ATOM     18  C   UNL d   1       2.774  15.884  -1.790 -0.18 -0.00    +0.070 A 
DOCKED: ATOM     19  C   UNL d   1       6.469  15.669  -1.911 -0.07 +0.00    +0.052 C 
DOCKED: ATOM     20  C   UNL d   1       0.264  16.141  -1.612 -0.23 +0.00    +0.066 A 
DOCKED: ATOM     21  C   UNL d   1      -1.034  15.867  -2.034 -0.26 -0.00    -0.025 A 
DOCKED: ATOM     22  C   UNL d   1      -1.874  16.495  -1.142 -0.24 -0.00    -0.021 A 
DOCKED: ATOM     23  C   UNL d   1      -1.054  17.147  -0.217 -0.18 +0.01    +0.066 A 
DOCKED: ATOM     24  C   UNL d   1      -1.451  15.049  -3.229 -0.31 +0.00    +0.051 C 
DOCKED: ATOM     25  N   UNL d   1       0.610  18.680   1.724 -0.19 -0.03    -0.248 N 
DOCKED: ATOM     26  N   UNL d   1       3.494  18.350   1.507 -0.07 -0.01    -0.248 N 
DOCKED: ATOM     27  N   UNL d   1       3.126  16.652  -0.728 -0.10 -0.01    -0.248 N 
DOCKED: ATOM     28  N   UNL d   1       0.245  16.967  -0.532 -0.16 -0.01    -0.248 N 
DOCKED: ATOM     29 FE   UNL d   1       1.860  17.652   0.478 -0.06 +0.00    +0.000 Fe
DOCKED: ATOM     30  O   UNL d   1       1.885  19.193   0.262 -0.13 +0.00    +0.000 OA
DOCKED: ATOM     31  O   UNL d   1       1.937  18.230  -0.983 -0.14 +0.00    +0.000 OA
DOCKED: ENDROOT
DOCKED: BRANCH   6  32
DOCKED: ATOM     32  C   UNL d   1      -2.657  19.944   2.970 -0.12 +0.01    +0.052 C 
DOCKED: BRANCH  32  33
DOCKED: ATOM     33  C   UNL d   1      -3.193  20.918   1.924 -0.04 +0.02    +0.115 C 
DOCKED: BRANCH  33  34
DOCKED: ATOM     34  C   UNL d   1      -4.413  20.385   1.215 -0.06 +0.05    +0.139 C 
DOCKED: ATOM     35  O   UNL d   1      -4.909  19.330   1.577 +0.00 -0.45    -0.650 OA
DOCKED: BRANCH  34  36
DOCKED: ATOM     36  O   UNL d   1      -4.957  21.037   0.166 +0.02 -0.22    -0.776 OA
DOCKED: ATOM     37  H   UNL d   1      -5.263  20.572  -0.621 +0.01 +0.06    +0.167 HD
DOCKED: ENDBRANCH  34  36
DOCKED: ENDBRANCH  33  34
DOCKED: ENDBRANCH  32  33
DOCKED: ENDBRANCH   6  32
DOCKED: BRANCH  22  38
DOCKED: ATOM     38  C   UNL d   1      -3.379  16.517  -1.220 -0.29 +0.03    +0.052 C 
DOCKED: BRANCH  38  39
DOCKED: ATOM     39  C   UNL d   1      -3.944  17.935  -1.157 -0.14 +0.06    +0.115 C 
DOCKED: BRANCH  39  40
DOCKED: ATOM     40  C   UNL d   1      -5.405  17.990  -1.529 -0.07 +0.12    +0.139 C 
DOCKED: ATOM     41  O   UNL d   1      -5.886  17.111  -2.225 -0.77 -0.66    -0.650 OA
DOCKED: BRANCH  40  42
DOCKED: ATOM     42  O   UNL d   1      -6.205  18.968  -1.064 -0.44 -0.66    -0.776 OA
DOCKED: ATOM     43  H   UNL d   1      -6.047  19.385  -0.208 +0.01 +0.15    +0.167 HD
DOCKED: ENDBRANCH  40  42
DOCKED: ENDBRANCH  39  40
DOCKED: ENDBRANCH  38  39
DOCKED: ENDBRANCH  22  38
DOCKED: BRANCH  12  44
DOCKED: ATOM     44  C   UNL d   1       7.085  18.522   2.685 -0.05 +0.00    +0.004 C 
DOCKED: ATOM     45  C   UNL d   1       7.837  17.436   2.854 -0.06 +0.00    +0.012 C 
DOCKED: ENDBRANCH  12  44
DOCKED: BRANCH  17  46
DOCKED: ATOM     46  C   UNL d   1       3.857  14.614  -3.744 -0.23 -0.00    +0.004 C 
DOCKED: ATOM     47  C   UNL d   1       3.892  15.088  -4.996 -0.15 -0.00    +0.012 C 
DOCKED: ENDBRANCH  17  46
DOCKED: TORSDOF 10
DOCKED: TER
DOCKED: ENDMDL
________________________________________________________________________________


	BEGINNING GENETIC ALGORITHM DOCKING 54 of 100
Run: 54 Seed: 283685589 616720578 [ Run 54 of 100 GA/GALS ]
Beginning LAMARCKIAN GENETIC ALGORITHM (LGA), with a maximum of 25000000 energy evaluations.

Final-Value: -11.718


	FINAL GENETIC ALGORITHM DOCKED STATE
	_______________________________________________


Detailed state:  trans -14.800 6.428 7.694 quatxyzw 0.501107 0.612486 0.503364 -0.346954 center 8.287 34.468 -0.670 ntor 10 40.9561 112.1086 68.1640 -100.6154 -168.8296 -95.4703 -53.4783 -90.1429 29.3876 155.5270
State:	-14.800   6.428   7.694   0.534  0.653  0.537 -139.398     40.96  112.11   68.16 -100.62 -168.83  -95.47  -53.48  -90.14   29.39  155.53

DOCKED: MODEL       54
DOCKED: USER    Run = 54
DOCKED: USER    DPF = D:/Protein_go_brrr/autodock/final/mut_D99N/heme_O2/dock.dpf
DOCKED: USER  
DOCKED: USER    Estimated Free Energy of Binding    =   -7.98 kcal/mol  [=(1)+(2)+(3)-(4)]
DOCKED: USER    Estimated Inhibition Constant, Ki   =    1.40 uM (micromolar)  [Temperature = 298.15 K]
DOCKED: USER    
DOCKED: USER    (1) Final Intermolecular Energy     =  -10.97 kcal/mol
DOCKED: USER        vdW + Hbond + desolv Energy     =   -8.11 kcal/mol
DOCKED: USER        Electrostatic Energy            =   -2.86 kcal/mol
DOCKED: USER    (2) Final Total Internal Energy     =   -0.75 kcal/mol
DOCKED: USER    (3) Torsional Free Energy           =   +2.98 kcal/mol
DOCKED: USER    (4) Unbound System's Energy  [=(2)] =   -0.75 kcal/mol
DOCKED: USER    
DOCKED: USER    
DOCKED: USER    NEWDPF move heme_O2_opt.pdbqt
DOCKED: USER    NEWDPF about 8.287000 34.468000 -0.670000
DOCKED: USER    NEWDPF tran0 -14.799767 6.427994 7.693789
DOCKED: USER    NEWDPF quaternion0 0.501107 0.612486 0.503364 -0.346954
DOCKED: USER    NEWDPF axisangle0 0.534296 0.653053 0.536702 -139.397739
DOCKED: USER    NEWDPF quat0 0.534296 0.653053 0.536702 -139.397739
DOCKED: USER    NEWDPF dihe0 40.96 112.11 68.16 -100.62 -168.83 -95.47 -53.48 -90.14 29.39 155.53 
DOCKED: USER  keepresnum = 1 
DOCKED: USER  
DOCKED: REMARK  10 active torsions:
DOCKED: REMARK  status: ('A' for Active; 'I' for Inactive)
DOCKED: REMARK    1  A    between atoms: C_6  and  C_10 
DOCKED: REMARK    2  A    between atoms: C_10  and  C_11 
DOCKED: REMARK    3  A    between atoms: C_11  and  C_12 
DOCKED: REMARK    4  A    between atoms: C_12  and  O_14 
DOCKED: REMARK    5  A    between atoms: C_17  and  C_20 
DOCKED: REMARK    6  A    between atoms: C_24  and  C_27 
DOCKED: REMARK    7  A    between atoms: C_31  and  C_34 
DOCKED: REMARK    8  A    between atoms: C_34  and  C_35 
DOCKED: REMARK    9  A    between atoms: C_35  and  C_36 
DOCKED: REMARK   10  A    between atoms: C_36  and  O_38 
DOCKED: USER                              x       y       z     vdW  Elec       q    Type
DOCKED: USER                           _______ _______ _______ _____ _____    ______ ____
DOCKED: ROOT
DOCKED: ATOM      1  C   UNL d   1     -14.903   4.406   8.328 -0.08 +0.02    +0.064 A 
DOCKED: ATOM      2  C   UNL d   1     -12.481   6.559   4.855 -0.18 -0.01    +0.064 A 
DOCKED: ATOM      3  C   UNL d   1     -14.420  10.803   6.008 -0.16 -0.02    +0.064 C 
DOCKED: ATOM      4  C   UNL d   1     -16.550   8.684   9.886 -0.08 +0.00    +0.064 A 
DOCKED: ATOM      5  C   UNL d   1     -14.085   4.646   7.290 -0.11 +0.01    +0.066 A 
DOCKED: ATOM      6  C   UNL d   1     -13.342   3.660   6.636 -0.13 -0.00    -0.021 A 
DOCKED: ATOM      7  C   UNL d   1     -12.607   4.289   5.658 -0.20 -0.00    -0.025 A 
DOCKED: ATOM      8  C   UNL d   1     -12.958   5.635   5.711 -0.20 +0.00    +0.066 A 
DOCKED: ATOM      9  C   UNL d   1     -11.603   3.605   4.755 -0.29 +0.01    +0.051 C 
DOCKED: ATOM     10  C   UNL d   1     -12.830   7.981   4.847 -0.21 -0.01    +0.066 A 
DOCKED: ATOM     11  C   UNL d   1     -12.434   8.864   3.837 -0.41 +0.00    -0.021 A 
DOCKED: ATOM     12  C   UNL d   1     -12.998  10.089   4.142 -0.39 -0.00    +0.000 A 
DOCKED: ATOM     13  C   UNL d   1     -13.712   9.882   5.355 -0.21 -0.01    +0.070 A 
DOCKED: ATOM     14  C   UNL d   1     -11.576   8.547   2.618 -0.40 -0.00    +0.052 C 
DOCKED: ATOM     15  C   UNL d   1     -15.128  10.642   7.256 -0.11 -0.02    +0.066 A 
DOCKED: ATOM     16  C   UNL d   1     -15.712  11.685   7.973 -0.10 +0.01    -0.021 A 
DOCKED: ATOM     17  C   UNL d   1     -16.325  11.105   9.084 -0.09 -0.00    +0.000 A 
DOCKED: ATOM     18  C   UNL d   1     -16.067   9.733   8.958 -0.09 -0.01    +0.070 A 
DOCKED: ATOM     19  C   UNL d   1     -15.588  13.133   7.569 -0.07 -0.04    +0.052 C 
DOCKED: ATOM     20  C   UNL d   1     -16.285   7.365   9.819 -0.03 +0.01    +0.066 A 
DOCKED: ATOM     21  C   UNL d   1     -16.784   6.422  10.713 +0.02 -0.01    -0.025 A 
DOCKED: ATOM     22  C   UNL d   1     -16.347   5.194  10.269 -0.06 -0.01    -0.021 A 
DOCKED: ATOM     23  C   UNL d   1     -15.580   5.436   9.125 -0.02 +0.02    +0.066 A 
DOCKED: ATOM     24  C   UNL d   1     -17.631   6.680  11.932 -0.06 +0.01    +0.051 C 
DOCKED: ATOM     25  N   UNL d   1     -13.819   5.865   6.759 -0.09 -0.01    -0.248 N 
DOCKED: ATOM     26  N   UNL d   1     -13.601   8.597   5.779 -0.13 +0.04    -0.248 N 
DOCKED: ATOM     27  N   UNL d   1     -15.276   9.479   7.884 -0.06 +0.03    -0.248 N 
DOCKED: ATOM     28  N   UNL d   1     -15.507   6.761   8.881 -0.07 -0.05    -0.248 N 
DOCKED: ATOM     29 FE   UNL d   1     -14.562   7.675   7.343 -0.04 -0.00    +0.000 Fe
DOCKED: ATOM     30  O   UNL d   1     -13.037   7.507   7.607 -0.42 -0.00    +0.000 OA
DOCKED: ATOM     31  O   UNL d   1     -13.940   8.231   8.676 -0.43 +0.00    +0.000 OA
DOCKED: ENDROOT
DOCKED: BRANCH   6  32
DOCKED: ATOM     32  C   UNL d   1     -13.218   2.203   7.000 -0.14 +0.02    +0.052 C 
DOCKED: BRANCH  32  33
DOCKED: ATOM     33  C   UNL d   1     -13.846   1.277   5.962 -0.09 +0.05    +0.115 C 
DOCKED: BRANCH  33  34
DOCKED: ATOM     34  C   UNL d   1     -12.871   0.250   5.443 -0.13 +0.14    +0.139 C 
DOCKED: ATOM     35  O   UNL d   1     -12.093  -0.288   6.214 -0.33 -0.64    -0.650 OA
DOCKED: BRANCH  34  36
DOCKED: ATOM     36  O   UNL d   1     -12.818  -0.071   4.133 -0.44 -1.36    -0.776 OA
DOCKED: ATOM     37  H   UNL d   1     -12.884   0.597   3.441 +0.05 +0.17    +0.167 HD
DOCKED: ENDBRANCH  34  36
DOCKED: ENDBRANCH  33  34
DOCKED: ENDBRANCH  32  33
DOCKED: ENDBRANCH   6  32
DOCKED: BRANCH  22  38
DOCKED: ATOM     38  C   UNL d   1     -16.602   3.873  10.947 -0.07 +0.01    +0.052 C 
DOCKED: BRANCH  38  39
DOCKED: ATOM     39  C   UNL d   1     -15.385   3.370  11.720 -0.13 +0.05    +0.115 C 
DOCKED: BRANCH  39  40
DOCKED: ATOM     40  C   UNL d   1     -15.355   3.876  13.140 -0.19 +0.10    +0.139 C 
DOCKED: ATOM     41  O   UNL d   1     -16.351   3.781  13.839 +0.00 -0.34    -0.650 OA
DOCKED: BRANCH  40  42
DOCKED: ATOM     42  O   UNL d   1     -14.229   4.388  13.673 -0.20 -1.22    -0.776 OA
DOCKED: ATOM     43  H   UNL d   1     -14.169   5.315  13.933 -0.52 +0.20    +0.167 HD
DOCKED: ENDBRANCH  40  42
DOCKED: ENDBRANCH  39  40
DOCKED: ENDBRANCH  38  39
DOCKED: ENDBRANCH  22  38
DOCKED: BRANCH  12  44
DOCKED: ATOM     44  C   UNL d   1     -12.798  11.307   3.265 -0.43 -0.00    +0.004 C 
DOCKED: ATOM     45  C   UNL d   1     -12.183  12.448   3.575 -0.41 -0.00    +0.012 C 
DOCKED: ENDBRANCH  12  44
DOCKED: BRANCH  17  46
DOCKED: ATOM     46  C   UNL d   1     -17.058  11.724  10.244 -0.07 -0.00    +0.004 C 
DOCKED: ATOM     47  C   UNL d   1     -16.648  11.847  11.513 -0.09 -0.00    +0.012 C 
DOCKED: ENDBRANCH  17  46
DOCKED: TORSDOF 10
DOCKED: TER
DOCKED: ENDMDL
________________________________________________________________________________


	BEGINNING GENETIC ALGORITHM DOCKING 55 of 100
Run: 55 Seed: 1306183573 793874344 [ Run 55 of 100 GA/GALS ]
Beginning LAMARCKIAN GENETIC ALGORITHM (LGA), with a maximum of 25000000 energy evaluations.

Final-Value: -9.685


	FINAL GENETIC ALGORITHM DOCKED STATE
	_______________________________________________


Detailed state:  trans 18.909 -3.298 3.700 quatxyzw -0.084935 -0.805913 -0.083263 0.579963 center 8.287 34.468 -0.670 ntor 10 10.1733 -138.1532 76.7851 -124.4189 62.0944 134.5088 -180.0000 115.5648 -169.0580 -180.0000
State:	 18.909  -3.298   3.700  -0.104 -0.989 -0.102 109.104     10.17 -138.15   76.79 -124.42   62.09  134.51 -180.00  115.56 -169.06 -180.00

DOCKED: MODEL       55
DOCKED: USER    Run = 55
DOCKED: USER    DPF = D:/Protein_go_brrr/autodock/final/mut_D99N/heme_O2/dock.dpf
DOCKED: USER  
DOCKED: USER    Estimated Free Energy of Binding    =   -4.28 kcal/mol  [=(1)+(2)+(3)-(4)]
DOCKED: USER    Estimated Inhibition Constant, Ki   =  734.21 uM (micromolar)  [Temperature = 298.15 K]
DOCKED: USER    
DOCKED: USER    (1) Final Intermolecular Energy     =   -7.26 kcal/mol
DOCKED: USER        vdW + Hbond + desolv Energy     =   -7.21 kcal/mol
DOCKED: USER        Electrostatic Energy            =   -0.05 kcal/mol
DOCKED: USER    (2) Final Total Internal Energy     =   -2.43 kcal/mol
DOCKED: USER    (3) Torsional Free Energy           =   +2.98 kcal/mol
DOCKED: USER    (4) Unbound System's Energy  [=(2)] =   -2.43 kcal/mol
DOCKED: USER    
DOCKED: USER    
DOCKED: USER    NEWDPF move heme_O2_opt.pdbqt
DOCKED: USER    NEWDPF about 8.287000 34.468000 -0.670000
DOCKED: USER    NEWDPF tran0 18.909107 -3.298326 3.699754
DOCKED: USER    NEWDPF quaternion0 -0.084935 -0.805913 -0.083263 0.579963
DOCKED: USER    NEWDPF axisangle0 -0.104260 -0.989284 -0.102208 109.104095
DOCKED: USER    NEWDPF quat0 -0.104260 -0.989284 -0.102208 109.104095
DOCKED: USER    NEWDPF dihe0 10.17 -138.15 76.79 -124.42 62.09 134.51 -180.00 115.56 -169.06 -180.00 
DOCKED: USER  keepresnum = 1 
DOCKED: USER  
DOCKED: REMARK  10 active torsions:
DOCKED: REMARK  status: ('A' for Active; 'I' for Inactive)
DOCKED: REMARK    1  A    between atoms: C_6  and  C_10 
DOCKED: REMARK    2  A    between atoms: C_10  and  C_11 
DOCKED: REMARK    3  A    between atoms: C_11  and  C_12 
DOCKED: REMARK    4  A    between atoms: C_12  and  O_14 
DOCKED: REMARK    5  A    between atoms: C_17  and  C_20 
DOCKED: REMARK    6  A    between atoms: C_24  and  C_27 
DOCKED: REMARK    7  A    between atoms: C_31  and  C_34 
DOCKED: REMARK    8  A    between atoms: C_34  and  C_35 
DOCKED: REMARK    9  A    between atoms: C_35  and  C_36 
DOCKED: REMARK   10  A    between atoms: C_36  and  O_38 
DOCKED: USER                              x       y       z     vdW  Elec       q    Type
DOCKED: USER                           _______ _______ _______ _____ _____    ______ ____
DOCKED: ROOT
DOCKED: ATOM      1  C   UNL d   1      18.759  -3.179   5.812 -0.12 +0.00    +0.064 A 
DOCKED: ATOM      2  C   UNL d   1      21.799  -5.422   2.934 -0.03 +0.02    +0.064 A 
DOCKED: ATOM      3  C   UNL d   1      19.455  -3.819  -0.943 -0.34 -0.01    +0.064 C 
DOCKED: ATOM      4  C   UNL d   1      16.606  -1.117   1.998 -0.11 -0.00    +0.064 A 
DOCKED: ATOM      5  C   UNL d   1      19.778  -3.918   5.346 -0.12 +0.01    +0.066 A 
DOCKED: ATOM      6  C   UNL d   1      20.695  -4.589   6.160 -0.10 -0.00    -0.021 A 
DOCKED: ATOM      7  C   UNL d   1      21.602  -5.204   5.328 -0.16 -0.01    -0.025 A 
DOCKED: ATOM      8  C   UNL d   1      21.185  -4.931   4.028 -0.17 +0.02    +0.066 A 
DOCKED: ATOM      9  C   UNL d   1      22.814  -5.982   5.792 +0.05 +0.03    +0.051 C 
DOCKED: ATOM     10  C   UNL d   1      21.396  -5.189   1.547 -0.20 +0.01    +0.066 A 
DOCKED: ATOM     11  C   UNL d   1      21.968  -5.854   0.457 -0.23 -0.00    -0.021 A 
DOCKED: ATOM     12  C   UNL d   1      21.293  -5.419  -0.669 -0.30 +0.00    +0.000 A 
DOCKED: ATOM     13  C   UNL d   1      20.334  -4.482  -0.192 -0.28 -0.00    +0.070 A 
DOCKED: ATOM     14  C   UNL d   1      23.093  -6.883   0.490 -0.17 +0.01    +0.052 C 
DOCKED: ATOM     15  C   UNL d   1      18.493  -2.837  -0.504 -0.22 -0.01    +0.066 A 
DOCKED: ATOM     16  C   UNL d   1      17.714  -2.057  -1.358 -0.35 +0.01    -0.021 A 
DOCKED: ATOM     17  C   UNL d   1      16.894  -1.278  -0.542 -0.32 -0.00    +0.000 A 
DOCKED: ATOM     18  C   UNL d   1      17.237  -1.648   0.766 -0.23 -0.01    +0.070 A 
DOCKED: ATOM     19  C   UNL d   1      17.859  -2.084  -2.859 -0.46 -0.02    +0.052 C 
DOCKED: ATOM     20  C   UNL d   1      16.941  -1.417   3.267 -0.20 -0.00    +0.066 A 
DOCKED: ATOM     21  C   UNL d   1      16.298  -0.898   4.388 -0.22 +0.00    -0.025 A 
DOCKED: ATOM     22  C   UNL d   1      16.880  -1.495   5.483 -0.24 +0.00    -0.021 A 
DOCKED: ATOM     23  C   UNL d   1      17.873  -2.347   4.989 -0.18 -0.00    +0.066 A 
DOCKED: ATOM     24  C   UNL d   1      15.186   0.119   4.412 -0.31 -0.00    +0.051 C 
DOCKED: ATOM     25  N   UNL d   1      20.100  -4.085   4.039 -0.13 -0.03    -0.248 N 
DOCKED: ATOM     26  N   UNL d   1      20.407  -4.345   1.156 -0.17 +0.00    -0.248 N 
DOCKED: ATOM     27  N   UNL d   1      18.261  -2.539   0.771 -0.15 +0.04    -0.248 N 
DOCKED: ATOM     28  N   UNL d   1      17.937  -2.262   3.644 -0.13 +0.02    -0.248 N 
DOCKED: ATOM     29 FE   UNL d   1      19.162  -3.295   2.407 -0.05 -0.00    +0.000 Fe
DOCKED: ATOM     30  O   UNL d   1      20.593  -2.731   2.642 -0.10 +0.00    +0.000 OA
DOCKED: ATOM     31  O   UNL d   1      19.440  -1.764   2.177 -0.10 -0.00    +0.000 OA
DOCKED: ENDROOT
DOCKED: BRANCH   6  32
DOCKED: ATOM     32  C   UNL d   1      20.801  -4.545   7.662 -0.04 +0.01    +0.052 C 
DOCKED: BRANCH  32  33
DOCKED: ATOM     33  C   UNL d   1      21.626  -3.364   8.163 -0.01 +0.01    +0.115 C 
DOCKED: BRANCH  33  34
DOCKED: ATOM     34  C   UNL d   1      22.193  -2.538   7.035 -0.01 +0.01    +0.139 C 
DOCKED: ATOM     35  O   UNL d   1      23.282  -2.827   6.564 +0.01 -0.08    -0.650 OA
DOCKED: BRANCH  34  36
DOCKED: ATOM     36  O   UNL d   1      21.536  -1.465   6.549 +0.01 -0.04    -0.776 OA
DOCKED: ATOM     37  H   UNL d   1      20.762  -1.097   6.991 +0.01 +0.01    +0.167 HD
DOCKED: ENDBRANCH  34  36
DOCKED: ENDBRANCH  33  34
DOCKED: ENDBRANCH  32  33
DOCKED: ENDBRANCH   6  32
DOCKED: BRANCH  22  38
DOCKED: ATOM     38  C   UNL d   1      16.540  -1.211   6.923 -0.22 +0.00    +0.052 C 
DOCKED: BRANCH  38  39
DOCKED: ATOM     39  C   UNL d   1      17.166   0.089   7.423 -0.09 +0.01    +0.115 C 
DOCKED: BRANCH  39  40
DOCKED: ATOM     40  C   UNL d   1      18.672   0.025   7.464 -0.02 +0.00    +0.139 C 
DOCKED: ATOM     41  O   UNL d   1      19.231  -0.515   8.405 +0.02 -0.01    -0.650 OA
DOCKED: BRANCH  40  42
DOCKED: ATOM     42  O   UNL d   1      19.417   0.510   6.452 +0.03 -0.01    -0.776 OA
DOCKED: ATOM     43  H   UNL d   1      20.169   0.019   6.098 +0.01 +0.00    +0.167 HD
DOCKED: ENDBRANCH  40  42
DOCKED: ENDBRANCH  39  40
DOCKED: ENDBRANCH  38  39
DOCKED: ENDBRANCH  22  38
DOCKED: BRANCH  12  44
DOCKED: ATOM     44  C   UNL d   1      21.629  -5.928  -2.055 -0.32 +0.00    +0.004 C 
DOCKED: ATOM     45  C   UNL d   1      22.248  -5.277  -3.039 -0.20 +0.00    +0.012 C 
DOCKED: ENDBRANCH  12  44
DOCKED: BRANCH  17  46
DOCKED: ATOM     46  C   UNL d   1      15.890  -0.209  -0.882 -0.32 -0.00    +0.004 C 
DOCKED: ATOM     47  C   UNL d   1      15.770   1.014  -0.350 -0.24 -0.00    +0.012 C 
DOCKED: ENDBRANCH  17  46
DOCKED: TORSDOF 10
DOCKED: TER
DOCKED: ENDMDL
________________________________________________________________________________


	BEGINNING GENETIC ALGORITHM DOCKING 56 of 100
Run: 56 Seed: 1840216930 2125412334 [ Run 56 of 100 GA/GALS ]
Beginning LAMARCKIAN GENETIC ALGORITHM (LGA), with a maximum of 25000000 energy evaluations.

Final-Value: -8.498


	FINAL GENETIC ALGORITHM DOCKED STATE
	_______________________________________________


Detailed state:  trans -9.844 -5.776 -17.836 quatxyzw -0.517166 0.815562 -0.253454 -0.056208 center 8.287 34.468 -0.670 ntor 10 77.3191 -32.5848 -91.4138 124.7610 58.9294 162.7396 7.2226 32.6507 175.3881 -49.8616
State:	 -9.844  -5.776 -17.836  -0.518  0.817 -0.254 -173.556     77.32  -32.58  -91.41  124.76   58.93  162.74    7.22   32.65  175.39  -49.86

DOCKED: MODEL       56
DOCKED: USER    Run = 56
DOCKED: USER    DPF = D:/Protein_go_brrr/autodock/final/mut_D99N/heme_O2/dock.dpf
DOCKED: USER  
DOCKED: USER    Estimated Free Energy of Binding    =   -5.04 kcal/mol  [=(1)+(2)+(3)-(4)]
DOCKED: USER    Estimated Inhibition Constant, Ki   =  202.35 uM (micromolar)  [Temperature = 298.15 K]
DOCKED: USER    
DOCKED: USER    (1) Final Intermolecular Energy     =   -8.02 kcal/mol
DOCKED: USER        vdW + Hbond + desolv Energy     =   -5.58 kcal/mol
DOCKED: USER        Electrostatic Energy            =   -2.44 kcal/mol
DOCKED: USER    (2) Final Total Internal Energy     =   -0.48 kcal/mol
DOCKED: USER    (3) Torsional Free Energy           =   +2.98 kcal/mol
DOCKED: USER    (4) Unbound System's Energy  [=(2)] =   -0.48 kcal/mol
DOCKED: USER    
DOCKED: USER    
DOCKED: USER    NEWDPF move heme_O2_opt.pdbqt
DOCKED: USER    NEWDPF about 8.287000 34.468000 -0.670000
DOCKED: USER    NEWDPF tran0 -9.844377 -5.775636 -17.835765
DOCKED: USER    NEWDPF quaternion0 -0.517166 0.815562 -0.253454 -0.056208
DOCKED: USER    NEWDPF axisangle0 -0.517985 0.816853 -0.253855 -173.555622
DOCKED: USER    NEWDPF quat0 -0.517985 0.816853 -0.253855 -173.555622
DOCKED: USER    NEWDPF dihe0 77.32 -32.58 -91.41 124.76 58.93 162.74 7.22 32.65 175.39 -49.86 
DOCKED: USER  keepresnum = 1 
DOCKED: USER  
DOCKED: REMARK  10 active torsions:
DOCKED: REMARK  status: ('A' for Active; 'I' for Inactive)
DOCKED: REMARK    1  A    between atoms: C_6  and  C_10 
DOCKED: REMARK    2  A    between atoms: C_10  and  C_11 
DOCKED: REMARK    3  A    between atoms: C_11  and  C_12 
DOCKED: REMARK    4  A    between atoms: C_12  and  O_14 
DOCKED: REMARK    5  A    between atoms: C_17  and  C_20 
DOCKED: REMARK    6  A    between atoms: C_24  and  C_27 
DOCKED: REMARK    7  A    between atoms: C_31  and  C_34 
DOCKED: REMARK    8  A    between atoms: C_34  and  C_35 
DOCKED: REMARK    9  A    between atoms: C_35  and  C_36 
DOCKED: REMARK   10  A    between atoms: C_36  and  O_38 
DOCKED: USER                              x       y       z     vdW  Elec       q    Type
DOCKED: USER                           _______ _______ _______ _____ _____    ______ ____
DOCKED: ROOT
DOCKED: ATOM      1  C   UNL d   1      -9.760  -3.658 -17.746 -0.23 +0.02    +0.064 A 
DOCKED: ATOM      2  C   UNL d   1      -6.765  -6.918 -19.467 -0.20 +0.00    +0.064 A 
DOCKED: ATOM      3  C   UNL d   1      -9.705 -10.469 -18.111 -0.09 +0.00    +0.064 C 
DOCKED: ATOM      4  C   UNL d   1     -13.014  -7.107 -16.766 -0.09 +0.01    +0.064 A 
DOCKED: ATOM      5  C   UNL d   1      -8.707  -4.255 -18.327 -0.21 +0.01    +0.066 A 
DOCKED: ATOM      6  C   UNL d   1      -7.603  -3.568 -18.840 -0.20 -0.01    -0.021 A 
DOCKED: ATOM      7  C   UNL d   1      -6.755  -4.508 -19.378 -0.18 -0.01    -0.025 A 
DOCKED: ATOM      8  C   UNL d   1      -7.341  -5.747 -19.134 -0.19 +0.01    +0.066 A 
DOCKED: ATOM      9  C   UNL d   1      -5.468  -4.195 -20.109 -0.13 +0.02    +0.051 C 
DOCKED: ATOM     10  C   UNL d   1      -7.320  -8.248 -19.217 -0.18 +0.00    +0.066 A 
DOCKED: ATOM     11  C   UNL d   1      -6.608  -9.433 -19.435 -0.17 -0.00    -0.021 A 
DOCKED: ATOM     12  C   UNL d   1      -7.432 -10.468 -19.033 -0.12 +0.00    +0.000 A 
DOCKED: ATOM     13  C   UNL d   1      -8.632  -9.842 -18.594 -0.11 +0.00    +0.070 A 
DOCKED: ATOM     14  C   UNL d   1      -5.190  -9.570 -19.977 -0.18 -0.00    +0.052 C 
DOCKED: ATOM     15  C   UNL d   1     -10.951  -9.876 -17.690 -0.05 +0.00    +0.066 A 
DOCKED: ATOM     16  C   UNL d   1     -12.094 -10.597 -17.348 -0.05 -0.00    -0.021 A 
DOCKED: ATOM     17  C   UNL d   1     -13.052  -9.659 -16.962 -0.05 +0.00    +0.000 A 
DOCKED: ATOM     18  C   UNL d   1     -12.411  -8.419 -17.097 -0.07 +0.01    +0.070 A 
DOCKED: ATOM     19  C   UNL d   1     -12.188 -12.097 -17.472 -0.01 +0.00    +0.052 C 
DOCKED: ATOM     20  C   UNL d   1     -12.443  -5.896 -16.925 -0.13 +0.01    +0.066 A 
DOCKED: ATOM     21  C   UNL d   1     -13.054  -4.694 -16.578 -0.12 -0.00    -0.025 A 
DOCKED: ATOM     22  C   UNL d   1     -12.131  -3.703 -16.825 -0.17 -0.00    -0.021 A 
DOCKED: ATOM     23  C   UNL d   1     -10.993  -4.338 -17.332 -0.20 +0.01    +0.066 A 
DOCKED: ATOM     24  C   UNL d   1     -14.449  -4.501 -16.042 -0.07 +0.01    +0.051 C 
DOCKED: ATOM     25  N   UNL d   1      -8.574  -5.586 -18.545 -0.04 -0.00    -0.248 N 
DOCKED: ATOM     26  N   UNL d   1      -8.557  -8.492 -18.715 -0.07 -0.01    -0.248 N 
DOCKED: ATOM     27  N   UNL d   1     -11.163  -8.565 -17.611 -0.05 -0.02    -0.248 N 
DOCKED: ATOM     28  N   UNL d   1     -11.204  -5.666 -17.433 -0.12 -0.01    -0.248 N 
DOCKED: ATOM     29 FE   UNL d   1      -9.892  -7.071 -18.069 -0.05 -0.00    +0.000 Fe
DOCKED: ATOM     30  O   UNL d   1      -9.724  -6.848 -19.600 -0.11 +0.00    +0.000 OA
DOCKED: ATOM     31  O   UNL d   1     -11.153  -7.144 -19.006 -0.10 +0.00    +0.000 OA
DOCKED: ENDROOT
DOCKED: BRANCH   6  32
DOCKED: ATOM     32  C   UNL d   1      -7.412  -2.077 -18.948 -0.05 +0.04    +0.052 C 
DOCKED: BRANCH  32  33
DOCKED: ATOM     33  C   UNL d   1      -7.680  -1.545 -20.353 -0.11 +0.08    +0.115 C 
DOCKED: BRANCH  33  34
DOCKED: ATOM     34  C   UNL d   1      -7.370  -0.074 -20.480 +0.05 +0.19    +0.139 C 
DOCKED: ATOM     35  O   UNL d   1      -8.253   0.747 -20.288 -0.35 -0.92    -0.650 OA
DOCKED: BRANCH  34  36
DOCKED: ATOM     36  O   UNL d   1      -6.141   0.358 -20.830 -0.37 -1.11    -0.776 OA
DOCKED: ATOM     37  H   UNL d   1      -5.832   0.333 -21.743 +0.02 +0.14    +0.167 HD
DOCKED: ENDBRANCH  34  36
DOCKED: ENDBRANCH  33  34
DOCKED: ENDBRANCH  32  33
DOCKED: ENDBRANCH   6  32
DOCKED: BRANCH  22  38
DOCKED: ATOM     38  C   UNL d   1     -12.360  -2.225 -16.643 -0.21 +0.01    +0.052 C 
DOCKED: BRANCH  38  39
DOCKED: ATOM     39  C   UNL d   1     -12.894  -1.886 -15.253 -0.26 +0.03    +0.115 C 
DOCKED: BRANCH  39  40
DOCKED: ATOM     40  C   UNL d   1     -13.802  -0.681 -15.262 -0.20 +0.08    +0.139 C 
DOCKED: ATOM     41  O   UNL d   1     -13.419   0.362 -15.767 -0.01 -0.40    -0.650 OA
DOCKED: BRANCH  40  42
DOCKED: ATOM     42  O   UNL d   1     -15.052  -0.749 -14.766 -0.21 -0.69    -0.776 OA
DOCKED: ATOM     43  H   UNL d   1     -15.559  -1.569 -14.786 +0.04 +0.08    +0.167 HD
DOCKED: ENDBRANCH  40  42
DOCKED: ENDBRANCH  39  40
DOCKED: ENDBRANCH  38  39
DOCKED: ENDBRANCH  22  38
DOCKED: BRANCH  12  44
DOCKED: ATOM     44  C   UNL d   1      -6.999 -11.917 -19.110 -0.07 +0.00    +0.004 C 
DOCKED: ATOM     45  C   UNL d   1      -6.281 -12.605 -18.224 -0.09 -0.00    +0.012 C 
DOCKED: ENDBRANCH  12  44
DOCKED: BRANCH  17  46
DOCKED: ATOM     46  C   UNL d   1     -14.489  -9.828 -16.547 -0.01 +0.00    +0.004 C 
DOCKED: ATOM     47  C   UNL d   1     -15.053  -9.522 -15.371 -0.01 +0.00    +0.012 C 
DOCKED: ENDBRANCH  17  46
DOCKED: TORSDOF 10
DOCKED: TER
DOCKED: ENDMDL
________________________________________________________________________________


	BEGINNING GENETIC ALGORITHM DOCKING 57 of 100
Run: 57 Seed: 280811869 720369662 [ Run 57 of 100 GA/GALS ]
Beginning LAMARCKIAN GENETIC ALGORITHM (LGA), with a maximum of 25000000 energy evaluations.

Final-Value: -10.525


	FINAL GENETIC ALGORITHM DOCKED STATE
	_______________________________________________


Detailed state:  trans 5.967 -0.925 -18.299 quatxyzw -0.484816 0.304569 0.109952 -0.812467 center 8.287 34.468 -0.670 ntor 10 -14.2420 -126.7404 -63.7286 126.8253 -81.3163 128.3710 -46.2386 58.8057 178.7572 -167.8805
State:	  5.967  -0.925 -18.299  -0.832  0.522  0.189 -71.325    -14.24 -126.74  -63.73  126.83  -81.32  128.37  -46.24   58.81  178.76 -167.88

DOCKED: MODEL       57
DOCKED: USER    Run = 57
DOCKED: USER    DPF = D:/Protein_go_brrr/autodock/final/mut_D99N/heme_O2/dock.dpf
DOCKED: USER  
DOCKED: USER    Estimated Free Energy of Binding    =   -6.19 kcal/mol  [=(1)+(2)+(3)-(4)]
DOCKED: USER    Estimated Inhibition Constant, Ki   =   28.99 uM (micromolar)  [Temperature = 298.15 K]
DOCKED: USER    
DOCKED: USER    (1) Final Intermolecular Energy     =   -9.17 kcal/mol
DOCKED: USER        vdW + Hbond + desolv Energy     =   -6.65 kcal/mol
DOCKED: USER        Electrostatic Energy            =   -2.52 kcal/mol
DOCKED: USER    (2) Final Total Internal Energy     =   -1.35 kcal/mol
DOCKED: USER    (3) Torsional Free Energy           =   +2.98 kcal/mol
DOCKED: USER    (4) Unbound System's Energy  [=(2)] =   -1.35 kcal/mol
DOCKED: USER    
DOCKED: USER    
DOCKED: USER    NEWDPF move heme_O2_opt.pdbqt
DOCKED: USER    NEWDPF about 8.287000 34.468000 -0.670000
DOCKED: USER    NEWDPF tran0 5.967266 -0.925238 -18.298734
DOCKED: USER    NEWDPF quaternion0 -0.484816 0.304569 0.109952 -0.812467
DOCKED: USER    NEWDPF axisangle0 -0.831577 0.522410 0.188595 -71.324751
DOCKED: USER    NEWDPF quat0 -0.831577 0.522410 0.188595 -71.324751
DOCKED: USER    NEWDPF dihe0 -14.24 -126.74 -63.73 126.83 -81.32 128.37 -46.24 58.81 178.76 -167.88 
DOCKED: USER  keepresnum = 1 
DOCKED: USER  
DOCKED: REMARK  10 active torsions:
DOCKED: REMARK  status: ('A' for Active; 'I' for Inactive)
DOCKED: REMARK    1  A    between atoms: C_6  and  C_10 
DOCKED: REMARK    2  A    between atoms: C_10  and  C_11 
DOCKED: REMARK    3  A    between atoms: C_11  and  C_12 
DOCKED: REMARK    4  A    between atoms: C_12  and  O_14 
DOCKED: REMARK    5  A    between atoms: C_17  and  C_20 
DOCKED: REMARK    6  A    between atoms: C_24  and  C_27 
DOCKED: REMARK    7  A    between atoms: C_31  and  C_34 
DOCKED: REMARK    8  A    between atoms: C_34  and  C_35 
DOCKED: REMARK    9  A    between atoms: C_35  and  C_36 
DOCKED: REMARK   10  A    between atoms: C_36  and  O_38 
DOCKED: USER                              x       y       z     vdW  Elec       q    Type
DOCKED: USER                           _______ _______ _______ _____ _____    ______ ____
DOCKED: ROOT
DOCKED: ATOM      1  C   UNL d   1       3.893  -1.086 -17.883 -0.14 +0.02    +0.064 A 
DOCKED: ATOM      2  C   UNL d   1       7.554   0.566 -15.348 -0.13 +0.02    +0.064 A 
DOCKED: ATOM      3  C   UNL d   1      10.615  -0.510 -18.893 -0.05 +0.02    +0.064 C 
DOCKED: ATOM      4  C   UNL d   1       6.793  -1.772 -21.699 -0.12 +0.01    +0.064 A 
DOCKED: ATOM      5  C   UNL d   1       4.639  -0.548 -16.905 -0.27 +0.02    +0.066 A 
DOCKED: ATOM      6  C   UNL d   1       4.128  -0.119 -15.677 -0.33 -0.01    -0.021 A 
DOCKED: ATOM      7  C   UNL d   1       5.180   0.400 -14.959 -0.29 -0.01    -0.025 A 
DOCKED: ATOM      8  C   UNL d   1       6.313   0.229 -15.749 -0.20 +0.02    +0.066 A 
DOCKED: ATOM      9  C   UNL d   1       5.062   1.047 -13.596 -0.37 +0.01    +0.051 C 
DOCKED: ATOM     10  C   UNL d   1       8.783   0.390 -16.123 -0.10 +0.02    +0.066 A 
DOCKED: ATOM     11  C   UNL d   1      10.062   0.604 -15.596 -0.12 -0.01    -0.021 A 
DOCKED: ATOM     12  C   UNL d   1      10.959   0.282 -16.598 -0.07 +0.00    +0.000 A 
DOCKED: ATOM     13  C   UNL d   1      10.158  -0.107 -17.707 -0.07 +0.02    +0.070 A 
DOCKED: ATOM     14  C   UNL d   1      10.414   1.071 -14.189 -0.16 +0.01    +0.052 C 
DOCKED: ATOM     15  C   UNL d   1       9.838  -0.878 -20.052 -0.03 +0.01    +0.066 A 
DOCKED: ATOM     16  C   UNL d   1      10.373  -1.132 -21.315 -0.02 -0.00    -0.021 A 
DOCKED: ATOM     17  C   UNL d   1       9.302  -1.493 -22.132 -0.04 +0.00    +0.000 A 
DOCKED: ATOM     18  C   UNL d   1       8.179  -1.434 -21.295 -0.08 +0.01    +0.070 A 
DOCKED: ATOM     19  C   UNL d   1      11.835  -0.956 -21.639 -0.00 +0.00    +0.052 C 
DOCKED: ATOM     20  C   UNL d   1       5.688  -1.684 -20.934 -0.07 +0.01    +0.066 A 
DOCKED: ATOM     21  C   UNL d   1       4.411  -2.034 -21.365 -0.13 -0.01    -0.025 A 
DOCKED: ATOM     22  C   UNL d   1       3.576  -1.871 -20.283 -0.17 -0.01    -0.021 A 
DOCKED: ATOM     23  C   UNL d   1       4.375  -1.409 -19.232 -0.12 +0.02    +0.066 A 
DOCKED: ATOM     24  C   UNL d   1       4.008  -2.497 -22.741 -0.13 +0.01    +0.051 C 
DOCKED: ATOM     25  N   UNL d   1       5.969  -0.295 -16.974 -0.12 -0.07    -0.248 N 
DOCKED: ATOM     26  N   UNL d   1       8.836  -0.034 -17.411 -0.07 -0.08    -0.248 N 
DOCKED: ATOM     27  N   UNL d   1       8.512  -0.987 -20.057 -0.04 -0.05    -0.248 N 
DOCKED: ATOM     28  N   UNL d   1       5.649  -1.254 -19.645 -0.09 -0.06    -0.248 N 
DOCKED: ATOM     29 FE   UNL d   1       7.233  -0.649 -18.539 -0.03 +0.00    +0.000 Fe
DOCKED: ATOM     30  O   UNL d   1       7.005   0.863 -18.244 -0.07 +0.00    +0.000 OA
DOCKED: ATOM     31  O   UNL d   1       7.080   0.360 -19.735 -0.06 +0.00    +0.000 OA
DOCKED: ENDROOT
DOCKED: BRANCH   6  32
DOCKED: ATOM     32  C   UNL d   1       2.685  -0.069 -15.244 -0.40 +0.02    +0.052 C 
DOCKED: BRANCH  32  33
DOCKED: ATOM     33  C   UNL d   1       2.062   1.313 -15.416 -0.27 +0.05    +0.115 C 
DOCKED: BRANCH  33  34
DOCKED: ATOM     34  C   UNL d   1       0.727   1.259 -16.116 -0.25 +0.12    +0.139 C 
DOCKED: ATOM     35  O   UNL d   1      -0.242   1.802 -15.609 -0.45 -0.68    -0.650 OA
DOCKED: BRANCH  34  36
DOCKED: ATOM     36  O   UNL d   1       0.570   0.598 -17.281 -0.01 -0.95    -0.776 OA
DOCKED: ATOM     37  H   UNL d   1       1.323   0.308 -17.809 -0.33 +0.12    +0.167 HD
DOCKED: ENDBRANCH  34  36
DOCKED: ENDBRANCH  33  34
DOCKED: ENDBRANCH  32  33
DOCKED: ENDBRANCH   6  32
DOCKED: BRANCH  22  38
DOCKED: ATOM     38  C   UNL d   1       2.085  -2.087 -20.283 -0.31 +0.02    +0.052 C 
DOCKED: BRANCH  38  39
DOCKED: ATOM     39  C   UNL d   1       1.352  -1.081 -21.168 -0.16 +0.05    +0.115 C 
DOCKED: BRANCH  39  40
DOCKED: ATOM     40  C   UNL d   1       0.318  -0.290 -20.406 -0.15 +0.12    +0.139 C 
DOCKED: ATOM     41  O   UNL d   1      -0.813  -0.731 -20.283 -0.33 -0.93    -0.650 OA
DOCKED: BRANCH  40  42
DOCKED: ATOM     42  O   UNL d   1       0.634   0.877 -19.812 -0.09 -0.58    -0.776 OA
DOCKED: ATOM     43  H   UNL d   1       0.484   1.021 -18.870 +0.01 +0.17    +0.167 HD
DOCKED: ENDBRANCH  40  42
DOCKED: ENDBRANCH  39  40
DOCKED: ENDBRANCH  38  39
DOCKED: ENDBRANCH  22  38
DOCKED: BRANCH  12  44
DOCKED: ATOM     44  C   UNL d   1      12.457   0.381 -16.398 -0.06 +0.00    +0.004 C 
DOCKED: ATOM     45  C   UNL d   1      13.343  -0.612 -16.344 -0.07 +0.00    +0.012 C 
DOCKED: ENDBRANCH  12  44
DOCKED: BRANCH  17  46
DOCKED: ATOM     46  C   UNL d   1       9.245  -1.822 -23.600 -0.03 +0.00    +0.004 C 
DOCKED: ATOM     47  C   UNL d   1       8.843  -2.960 -24.180 -0.05 +0.00    +0.012 C 
DOCKED: ENDBRANCH  17  46
DOCKED: TORSDOF 10
DOCKED: TER
DOCKED: ENDMDL
________________________________________________________________________________


	BEGINNING GENETIC ALGORITHM DOCKING 58 of 100
Run: 58 Seed: 794282976 1520475893 [ Run 58 of 100 GA/GALS ]
Beginning LAMARCKIAN GENETIC ALGORITHM (LGA), with a maximum of 25000000 energy evaluations.

Final-Value: -10.487


	FINAL GENETIC ALGORITHM DOCKED STATE
	_______________________________________________


Detailed state:  trans -8.529 -0.074 -20.724 quatxyzw -0.157923 -0.583959 -0.772298 -0.193929 center 8.287 34.468 -0.670 ntor 10 -97.0052 139.3470 59.7211 -104.1612 69.2738 -36.4690 -150.7092 113.7135 -180.0000 -177.2097
State:	 -8.529  -0.074 -20.724  -0.161 -0.595 -0.787 -157.636    -97.01  139.35   59.72 -104.16   69.27  -36.47 -150.71  113.71 -180.00 -177.21

DOCKED: MODEL       58
DOCKED: USER    Run = 58
DOCKED: USER    DPF = D:/Protein_go_brrr/autodock/final/mut_D99N/heme_O2/dock.dpf
DOCKED: USER  
DOCKED: USER    Estimated Free Energy of Binding    =   -5.35 kcal/mol  [=(1)+(2)+(3)-(4)]
DOCKED: USER    Estimated Inhibition Constant, Ki   =  120.42 uM (micromolar)  [Temperature = 298.15 K]
DOCKED: USER    
DOCKED: USER    (1) Final Intermolecular Energy     =   -8.33 kcal/mol
DOCKED: USER        vdW + Hbond + desolv Energy     =   -4.37 kcal/mol
DOCKED: USER        Electrostatic Energy            =   -3.96 kcal/mol
DOCKED: USER    (2) Final Total Internal Energy     =   -2.16 kcal/mol
DOCKED: USER    (3) Torsional Free Energy           =   +2.98 kcal/mol
DOCKED: USER    (4) Unbound System's Energy  [=(2)] =   -2.16 kcal/mol
DOCKED: USER    
DOCKED: USER    
DOCKED: USER    NEWDPF move heme_O2_opt.pdbqt
DOCKED: USER    NEWDPF about 8.287000 34.468000 -0.670000
DOCKED: USER    NEWDPF tran0 -8.528787 -0.073555 -20.723509
DOCKED: USER    NEWDPF quaternion0 -0.157923 -0.583959 -0.772298 -0.193929
DOCKED: USER    NEWDPF axisangle0 -0.160979 -0.595259 -0.787243 -157.635679
DOCKED: USER    NEWDPF quat0 -0.160979 -0.595259 -0.787243 -157.635679
DOCKED: USER    NEWDPF dihe0 -97.01 139.35 59.72 -104.16 69.27 -36.47 -150.71 113.71 -180.00 -177.21 
DOCKED: USER  keepresnum = 1 
DOCKED: USER  
DOCKED: REMARK  10 active torsions:
DOCKED: REMARK  status: ('A' for Active; 'I' for Inactive)
DOCKED: REMARK    1  A    between atoms: C_6  and  C_10 
DOCKED: REMARK    2  A    between atoms: C_10  and  C_11 
DOCKED: REMARK    3  A    between atoms: C_11  and  C_12 
DOCKED: REMARK    4  A    between atoms: C_12  and  O_14 
DOCKED: REMARK    5  A    between atoms: C_17  and  C_20 
DOCKED: REMARK    6  A    between atoms: C_24  and  C_27 
DOCKED: REMARK    7  A    between atoms: C_31  and  C_34 
DOCKED: REMARK    8  A    between atoms: C_34  and  C_35 
DOCKED: REMARK    9  A    between atoms: C_35  and  C_36 
DOCKED: REMARK   10  A    between atoms: C_36  and  O_38 
DOCKED: USER                              x       y       z     vdW  Elec       q    Type
DOCKED: USER                           _______ _______ _______ _____ _____    ______ ____
DOCKED: ROOT
DOCKED: ATOM      1  C   UNL d   1      -6.615  -0.775 -21.312 -0.07 +0.05    +0.064 A 
DOCKED: ATOM      2  C   UNL d   1      -8.899   3.322 -22.058 -0.03 +0.03    +0.064 A 
DOCKED: ATOM      3  C   UNL d   1     -12.736   1.731 -19.641 -0.08 +0.02    +0.064 C 
DOCKED: ATOM      4  C   UNL d   1     -10.214  -2.308 -18.459 -0.16 +0.02    +0.064 A 
DOCKED: ATOM      5  C   UNL d   1      -6.923   0.470 -21.710 -0.06 +0.05    +0.066 A 
DOCKED: ATOM      6  C   UNL d   1      -6.075   1.280 -22.471 -0.03 -0.01    -0.021 A 
DOCKED: ATOM      7  C   UNL d   1      -6.717   2.483 -22.651 -0.02 -0.01    -0.025 A 
DOCKED: ATOM      8  C   UNL d   1      -7.960   2.357 -22.036 -0.04 +0.04    +0.066 A 
DOCKED: ATOM      9  C   UNL d   1      -6.125   3.683 -23.357 +0.00 +0.02    +0.051 C 
DOCKED: ATOM     10  C   UNL d   1     -10.228   3.240 -21.451 -0.04 +0.02    +0.066 A 
DOCKED: ATOM     11  C   UNL d   1     -11.223   4.205 -21.642 -0.02 -0.00    -0.021 A 
DOCKED: ATOM     12  C   UNL d   1     -12.343   3.755 -20.968 -0.03 +0.00    +0.000 A 
DOCKED: ATOM     13  C   UNL d   1     -11.955   2.519 -20.380 -0.06 +0.02    +0.070 A 
DOCKED: ATOM     14  C   UNL d   1     -11.118   5.489 -22.457 -0.00 +0.00    +0.052 C 
DOCKED: ATOM     15  C   UNL d   1     -12.371   0.491 -18.999 -0.05 +0.03    +0.066 A 
DOCKED: ATOM     16  C   UNL d   1     -13.184  -0.204 -18.104 -0.10 -0.01    -0.021 A 
DOCKED: ATOM     17  C   UNL d   1     -12.485  -1.359 -17.753 -0.13 +0.00    +0.000 A 
DOCKED: ATOM     18  C   UNL d   1     -11.284  -1.282 -18.471 -0.13 +0.03    +0.070 A 
DOCKED: ATOM     19  C   UNL d   1     -14.516   0.317 -17.627 -0.10 +0.02    +0.052 C 
DOCKED: ATOM     20  C   UNL d   1      -9.031  -2.245 -19.101 -0.14 +0.03    +0.066 A 
DOCKED: ATOM     21  C   UNL d   1      -8.070  -3.251 -19.066 -0.16 -0.01    -0.025 A 
DOCKED: ATOM     22  C   UNL d   1      -7.049  -2.843 -19.895 -0.12 -0.01    -0.021 A 
DOCKED: ATOM     23  C   UNL d   1      -7.419  -1.590 -20.393 -0.10 +0.05    +0.066 A 
DOCKED: ATOM     24  C   UNL d   1      -8.121  -4.534 -18.278 -0.27 +0.01    +0.051 C 
DOCKED: ATOM     25  N   UNL d   1      -8.059   1.140 -21.401 -0.06 -0.22    -0.248 N 
DOCKED: ATOM     26  N   UNL d   1     -10.666   2.216 -20.675 -0.06 -0.10    -0.248 N 
DOCKED: ATOM     27  N   UNL d   1     -11.200  -0.117 -19.163 -0.09 -0.12    -0.248 N 
DOCKED: ATOM     28  N   UNL d   1      -8.604  -1.210 -19.872 -0.09 -0.18    -0.248 N 
DOCKED: ATOM     29 FE   UNL d   1      -9.629   0.489 -20.269 -0.02 +0.00    +0.000 Fe
DOCKED: ATOM     30  O   UNL d   1      -8.821   1.648 -19.615 -0.32 +0.00    +0.000 OA
DOCKED: ATOM     31  O   UNL d   1      -9.345   0.460 -18.722 -0.10 +0.00    +0.000 OA
DOCKED: ENDROOT
DOCKED: BRANCH   6  32
DOCKED: ATOM     32  C   UNL d   1      -4.659   0.990 -22.898 -0.01 +0.02    +0.052 C 
DOCKED: BRANCH  32  33
DOCKED: ATOM     33  C   UNL d   1      -3.621   1.605 -21.964 -0.02 +0.07    +0.115 C 
DOCKED: BRANCH  33  34
DOCKED: ATOM     34  C   UNL d   1      -4.142   1.778 -20.559 -0.06 +0.16    +0.139 C 
DOCKED: ATOM     35  O   UNL d   1      -4.832   2.748 -20.286 -0.11 -0.97    -0.650 OA
DOCKED: BRANCH  34  36
DOCKED: ATOM     36  O   UNL d   1      -3.840   0.897 -19.583 +0.01 -1.27    -0.776 OA
DOCKED: ATOM     37  H   UNL d   1      -4.435   0.178 -19.341 +0.03 +0.31    +0.167 HD
DOCKED: ENDBRANCH  34  36
DOCKED: ENDBRANCH  33  34
DOCKED: ENDBRANCH  32  33
DOCKED: ENDBRANCH   6  32
DOCKED: BRANCH  22  38
DOCKED: ATOM     38  C   UNL d   1      -5.764  -3.592 -20.140 -0.15 +0.03    +0.052 C 
DOCKED: BRANCH  38  39
DOCKED: ATOM     39  C   UNL d   1      -4.794  -3.482 -18.965 -0.28 +0.09    +0.115 C 
DOCKED: BRANCH  39  40
DOCKED: ATOM     40  C   UNL d   1      -4.266  -2.081 -18.783 -0.09 +0.23    +0.139 C 
DOCKED: ATOM     41  O   UNL d   1      -4.644  -1.409 -17.837 -0.28 -1.25    -0.650 OA
DOCKED: BRANCH  40  42
DOCKED: ATOM     42  O   UNL d   1      -3.341  -1.572 -19.620 -0.24 -1.43    -0.776 OA
DOCKED: ATOM     43  H   UNL d   1      -3.365  -0.648 -19.897 +0.02 +0.27    +0.167 HD
DOCKED: ENDBRANCH  40  42
DOCKED: ENDBRANCH  39  40
DOCKED: ENDBRANCH  38  39
DOCKED: ENDBRANCH  22  38
DOCKED: BRANCH  12  44
DOCKED: ATOM     44  C   UNL d   1     -13.639   4.537 -20.952 -0.01 -0.00    +0.004 C 
DOCKED: ATOM     45  C   UNL d   1     -14.331   4.955 -19.892 -0.03 -0.00    +0.012 C 
DOCKED: ENDBRANCH  12  44
DOCKED: BRANCH  17  46
DOCKED: ATOM     46  C   UNL d   1     -12.822  -2.462 -16.784 -0.16 +0.00    +0.004 C 
DOCKED: ATOM     47  C   UNL d   1     -12.232  -2.747 -15.616 -0.31 +0.00    +0.012 C 
DOCKED: ENDBRANCH  17  46
DOCKED: TORSDOF 10
DOCKED: TER
DOCKED: ENDMDL
________________________________________________________________________________


	BEGINNING GENETIC ALGORITHM DOCKING 59 of 100
Run: 59 Seed: 359592030 277956654 [ Run 59 of 100 GA/GALS ]
Beginning LAMARCKIAN GENETIC ALGORITHM (LGA), with a maximum of 25000000 energy evaluations.

Final-Value: -11.281


	FINAL GENETIC ALGORITHM DOCKED STATE
	_______________________________________________


Detailed state:  trans -14.207 5.750 7.646 quatxyzw 0.698753 0.255149 -0.580790 0.330646 center 8.287 34.468 -0.670 ntor 10 61.3443 12.0533 -50.9205 172.4685 -158.0479 -62.7966 -112.1191 -56.0252 -26.0511 140.7828
State:	-14.207   5.750   7.646   0.740  0.270 -0.615 141.384     61.34   12.05  -50.92  172.47 -158.05  -62.80 -112.12  -56.03  -26.05  140.78

DOCKED: MODEL       59
DOCKED: USER    Run = 59
DOCKED: USER    DPF = D:/Protein_go_brrr/autodock/final/mut_D99N/heme_O2/dock.dpf
DOCKED: USER  
DOCKED: USER    Estimated Free Energy of Binding    =   -7.66 kcal/mol  [=(1)+(2)+(3)-(4)]
DOCKED: USER    Estimated Inhibition Constant, Ki   =    2.44 uM (micromolar)  [Temperature = 298.15 K]
DOCKED: USER    
DOCKED: USER    (1) Final Intermolecular Energy     =  -10.64 kcal/mol
DOCKED: USER        vdW + Hbond + desolv Energy     =   -7.98 kcal/mol
DOCKED: USER        Electrostatic Energy            =   -2.66 kcal/mol
DOCKED: USER    (2) Final Total Internal Energy     =   -0.64 kcal/mol
DOCKED: USER    (3) Torsional Free Energy           =   +2.98 kcal/mol
DOCKED: USER    (4) Unbound System's Energy  [=(2)] =   -0.64 kcal/mol
DOCKED: USER    
DOCKED: USER    
DOCKED: USER    NEWDPF move heme_O2_opt.pdbqt
DOCKED: USER    NEWDPF about 8.287000 34.468000 -0.670000
DOCKED: USER    NEWDPF tran0 -14.206515 5.749554 7.645587
DOCKED: USER    NEWDPF quaternion0 0.698753 0.255149 -0.580790 0.330646
DOCKED: USER    NEWDPF axisangle0 0.740397 0.270355 -0.615403 141.384014
DOCKED: USER    NEWDPF quat0 0.740397 0.270355 -0.615403 141.384014
DOCKED: USER    NEWDPF dihe0 61.34 12.05 -50.92 172.47 -158.05 -62.80 -112.12 -56.03 -26.05 140.78 
DOCKED: USER  keepresnum = 1 
DOCKED: USER  
DOCKED: REMARK  10 active torsions:
DOCKED: REMARK  status: ('A' for Active; 'I' for Inactive)
DOCKED: REMARK    1  A    between atoms: C_6  and  C_10 
DOCKED: REMARK    2  A    between atoms: C_10  and  C_11 
DOCKED: REMARK    3  A    between atoms: C_11  and  C_12 
DOCKED: REMARK    4  A    between atoms: C_12  and  O_14 
DOCKED: REMARK    5  A    between atoms: C_17  and  C_20 
DOCKED: REMARK    6  A    between atoms: C_24  and  C_27 
DOCKED: REMARK    7  A    between atoms: C_31  and  C_34 
DOCKED: REMARK    8  A    between atoms: C_34  and  C_35 
DOCKED: REMARK    9  A    between atoms: C_35  and  C_36 
DOCKED: REMARK   10  A    between atoms: C_36  and  O_38 
DOCKED: USER                              x       y       z     vdW  Elec       q    Type
DOCKED: USER                           _______ _______ _______ _____ _____    ______ ____
DOCKED: ROOT
DOCKED: ATOM      1  C   UNL d   1     -13.804   3.840   8.477 -0.14 +0.02    +0.064 A 
DOCKED: ATOM      2  C   UNL d   1     -17.134   7.100   9.394 -0.05 +0.01    +0.064 A 
DOCKED: ATOM      3  C   UNL d   1     -15.303  10.041   6.063 -0.09 -0.01    +0.064 C 
DOCKED: ATOM      4  C   UNL d   1     -12.162   6.498   4.778 -0.21 -0.01    +0.064 A 
DOCKED: ATOM      5  C   UNL d   1     -14.860   4.486   8.997 +0.16 +0.03    +0.066 A 
DOCKED: ATOM      6  C   UNL d   1     -15.660   3.978  10.024 -0.08 -0.01    -0.021 A 
DOCKED: ATOM      7  C   UNL d   1     -16.651   4.902  10.260 -0.06 -0.01    -0.025 A 
DOCKED: ATOM      8  C   UNL d   1     -16.400   5.971   9.405 -0.06 +0.01    +0.066 A 
DOCKED: ATOM      9  C   UNL d   1     -17.785   4.722  11.246 -0.04 +0.01    +0.051 C 
DOCKED: ATOM     10  C   UNL d   1     -16.905   8.264   8.536 -0.04 +0.00    +0.066 A 
DOCKED: ATOM     11  C   UNL d   1     -17.594   9.473   8.679 -0.02 +0.00    -0.021 A 
DOCKED: ATOM     12  C   UNL d   1     -17.068  10.340   7.739 -0.02 -0.00    +0.000 A 
DOCKED: ATOM     13  C   UNL d   1     -16.074   9.589   7.052 -0.04 -0.01    +0.070 A 
DOCKED: ATOM     14  C   UNL d   1     -18.690   9.796   9.688 -0.01 -0.00    +0.052 C 
DOCKED: ATOM     15  C   UNL d   1     -14.310   9.304   5.319 -0.15 -0.01    +0.066 A 
DOCKED: ATOM     16  C   UNL d   1     -13.653   9.784   4.187 -0.30 +0.00    -0.021 A 
DOCKED: ATOM     17  C   UNL d   1     -12.753   8.791   3.802 -0.39 -0.00    +0.000 A 
DOCKED: ATOM     18  C   UNL d   1     -12.930   7.766   4.742 -0.20 -0.01    +0.070 A 
DOCKED: ATOM     19  C   UNL d   1     -13.978  11.111   3.548 -0.28 -0.01    +0.052 C 
DOCKED: ATOM     20  C   UNL d   1     -12.336   5.477   5.639 -0.24 -0.00    +0.066 A 
DOCKED: ATOM     21  C   UNL d   1     -11.570   4.314   5.635 -0.32 -0.00    -0.025 A 
DOCKED: ATOM     22  C   UNL d   1     -12.006   3.557   6.699 -0.27 -0.00    -0.021 A 
DOCKED: ATOM     23  C   UNL d   1     -13.038   4.280   7.305 -0.19 +0.01    +0.066 A 
DOCKED: ATOM     24  C   UNL d   1     -10.480   3.943   4.663 -0.32 +0.00    +0.051 C 
DOCKED: ATOM     25  N   UNL d   1     -15.335   5.686   8.581 -0.03 -0.06    -0.248 N 
DOCKED: ATOM     26  N   UNL d   1     -15.984   8.326   7.540 -0.02 +0.00    -0.248 N 
DOCKED: ATOM     27  N   UNL d   1     -13.931   8.063   5.610 -0.11 +0.02    -0.248 N 
DOCKED: ATOM     28  N   UNL d   1     -13.265   5.426   6.630 -0.10 -0.01    -0.248 N 
DOCKED: ATOM     29 FE   UNL d   1     -14.614   6.867   7.079 -0.03 +0.00    +0.000 Fe
DOCKED: ATOM     30  O   UNL d   1     -16.016   6.259   6.782 -0.06 +0.00    +0.000 OA
DOCKED: ATOM     31  O   UNL d   1     -14.943   6.348   5.632 -0.13 +0.00    +0.000 OA
DOCKED: ENDROOT
DOCKED: BRANCH   6  32
DOCKED: ATOM     32  C   UNL d   1     -15.584   2.617  10.666 -0.08 +0.02    +0.052 C 
DOCKED: BRANCH  32  33
DOCKED: ATOM     33  C   UNL d   1     -14.218   2.328  11.281 -0.17 +0.05    +0.115 C 
DOCKED: BRANCH  33  34
DOCKED: ATOM     34  C   UNL d   1     -13.908   3.234  12.446 -0.29 +0.11    +0.139 C 
DOCKED: ATOM     35  O   UNL d   1     -14.721   3.356  13.348 -0.22 -0.65    -0.650 OA
DOCKED: BRANCH  34  36
DOCKED: ATOM     36  O   UNL d   1     -12.759   3.940  12.502 -0.40 -0.68    -0.776 OA
DOCKED: ATOM     37  H   UNL d   1     -12.535   4.605  11.841 -0.50 +0.04    +0.167 HD
DOCKED: ENDBRANCH  34  36
DOCKED: ENDBRANCH  33  34
DOCKED: ENDBRANCH  32  33
DOCKED: ENDBRANCH   6  32
DOCKED: BRANCH  22  38
DOCKED: ATOM     38  C   UNL d   1     -11.498   2.187   7.068 -0.26 +0.01    +0.052 C 
DOCKED: BRANCH  38  39
DOCKED: ATOM     39  C   UNL d   1     -12.586   1.119   6.978 -0.17 +0.05    +0.115 C 
DOCKED: BRANCH  39  40
DOCKED: ATOM     40  C   UNL d   1     -12.215  -0.005   6.044 -0.16 +0.13    +0.139 C 
DOCKED: ATOM     41  O   UNL d   1     -11.492  -0.906   6.437 -0.48 -0.69    -0.650 OA
DOCKED: BRANCH  40  42
DOCKED: ATOM     42  O   UNL d   1     -12.710  -0.061   4.792 -0.48 -1.16    -0.776 OA
DOCKED: ATOM     43  H   UNL d   1     -13.136   0.702   4.383 +0.04 +0.15    +0.167 HD
DOCKED: ENDBRANCH  40  42
DOCKED: ENDBRANCH  39  40
DOCKED: ENDBRANCH  38  39
DOCKED: ENDBRANCH  22  38
DOCKED: BRANCH  12  44
DOCKED: ATOM     44  C   UNL d   1     -17.561  11.764   7.594 -0.02 -0.00    +0.004 C 
DOCKED: ATOM     45  C   UNL d   1     -16.846  12.887   7.645 -0.05 -0.00    +0.012 C 
DOCKED: ENDBRANCH  12  44
DOCKED: BRANCH  17  46
DOCKED: ATOM     46  C   UNL d   1     -11.815   8.708   2.628 -0.35 -0.00    +0.004 C 
DOCKED: ATOM     47  C   UNL d   1     -10.795   7.861   2.440 -0.52 +0.00    +0.012 C 
DOCKED: ENDBRANCH  17  46
DOCKED: TORSDOF 10
DOCKED: TER
DOCKED: ENDMDL
________________________________________________________________________________


	BEGINNING GENETIC ALGORITHM DOCKING 60 of 100
Run: 60 Seed: 1768050251 916259317 [ Run 60 of 100 GA/GALS ]
Beginning LAMARCKIAN GENETIC ALGORITHM (LGA), with a maximum of 25000000 energy evaluations.

Final-Value: -10.222


	FINAL GENETIC ALGORITHM DOCKED STATE
	_______________________________________________


Detailed state:  trans -13.420 2.265 2.992 quatxyzw 0.570459 0.070304 -0.330809 -0.748465 center 8.287 34.468 -0.670 ntor 10 -154.4935 -18.3132 -50.8257 89.6977 57.9664 -49.9325 -117.0498 -165.4446 -179.0117 161.2207
State:	-13.420   2.265   2.992   0.860  0.106 -0.499 -83.085   -154.49  -18.31  -50.83   89.70   57.97  -49.93 -117.05 -165.44 -179.01  161.22

DOCKED: MODEL       60
DOCKED: USER    Run = 60
DOCKED: USER    DPF = D:/Protein_go_brrr/autodock/final/mut_D99N/heme_O2/dock.dpf
DOCKED: USER  
DOCKED: USER    Estimated Free Energy of Binding    =   -4.88 kcal/mol  [=(1)+(2)+(3)-(4)]
DOCKED: USER    Estimated Inhibition Constant, Ki   =  266.96 uM (micromolar)  [Temperature = 298.15 K]
DOCKED: USER    
DOCKED: USER    (1) Final Intermolecular Energy     =   -7.86 kcal/mol
DOCKED: USER        vdW + Hbond + desolv Energy     =   -7.32 kcal/mol
DOCKED: USER        Electrostatic Energy            =   -0.53 kcal/mol
DOCKED: USER    (2) Final Total Internal Energy     =   -2.36 kcal/mol
DOCKED: USER    (3) Torsional Free Energy           =   +2.98 kcal/mol
DOCKED: USER    (4) Unbound System's Energy  [=(2)] =   -2.36 kcal/mol
DOCKED: USER    
DOCKED: USER    
DOCKED: USER    NEWDPF move heme_O2_opt.pdbqt
DOCKED: USER    NEWDPF about 8.287000 34.468000 -0.670000
DOCKED: USER    NEWDPF tran0 -13.420429 2.264676 2.991677
DOCKED: USER    NEWDPF quaternion0 0.570459 0.070304 -0.330809 -0.748465
DOCKED: USER    NEWDPF axisangle0 0.860194 0.106012 -0.498826 -83.084878
DOCKED: USER    NEWDPF quat0 0.860194 0.106012 -0.498826 -83.084878
DOCKED: USER    NEWDPF dihe0 -154.49 -18.31 -50.83 89.70 57.97 -49.93 -117.05 -165.44 -179.01 161.22 
DOCKED: USER  keepresnum = 1 
DOCKED: USER  
DOCKED: REMARK  10 active torsions:
DOCKED: REMARK  status: ('A' for Active; 'I' for Inactive)
DOCKED: REMARK    1  A    between atoms: C_6  and  C_10 
DOCKED: REMARK    2  A    between atoms: C_10  and  C_11 
DOCKED: REMARK    3  A    between atoms: C_11  and  C_12 
DOCKED: REMARK    4  A    between atoms: C_12  and  O_14 
DOCKED: REMARK    5  A    between atoms: C_17  and  C_20 
DOCKED: REMARK    6  A    between atoms: C_24  and  C_27 
DOCKED: REMARK    7  A    between atoms: C_31  and  C_34 
DOCKED: REMARK    8  A    between atoms: C_34  and  C_35 
DOCKED: REMARK    9  A    between atoms: C_35  and  C_36 
DOCKED: REMARK   10  A    between atoms: C_36  and  O_38 
DOCKED: USER                              x       y       z     vdW  Elec       q    Type
DOCKED: USER                           _______ _______ _______ _____ _____    ______ ____
DOCKED: ROOT
DOCKED: ATOM      1  C   UNL d   1     -14.299   3.839   4.109 -0.12 +0.01    +0.064 A 
DOCKED: ATOM      2  C   UNL d   1     -15.970  -0.341   2.598 -0.11 +0.04    +0.064 A 
DOCKED: ATOM      3  C   UNL d   1     -11.781  -1.352   0.470 +0.01 +0.04    +0.064 C 
DOCKED: ATOM      4  C   UNL d   1      -9.896   2.734   2.425 -0.01 +0.02    +0.064 A 
DOCKED: ATOM      5  C   UNL d   1     -15.094   2.784   3.873 -0.12 +0.02    +0.066 A 
DOCKED: ATOM      6  C   UNL d   1     -16.421   2.691   4.305 -0.07 -0.00    -0.021 A 
DOCKED: ATOM      7  C   UNL d   1     -16.892   1.463   3.906 -0.06 -0.01    -0.025 A 
DOCKED: ATOM      8  C   UNL d   1     -15.856   0.859   3.198 -0.10 +0.03    +0.066 A 
DOCKED: ATOM      9  C   UNL d   1     -18.265   0.915   4.230 -0.02 +0.01    +0.051 C 
DOCKED: ATOM     10  C   UNL d   1     -14.927  -1.015   1.823 -0.07 +0.07    +0.066 A 
DOCKED: ATOM     11  C   UNL d   1     -15.150  -2.182   1.084 -0.12 -0.02    -0.021 A 
DOCKED: ATOM     12  C   UNL d   1     -13.959  -2.480   0.449 -0.19 +0.00    +0.000 A 
DOCKED: ATOM     13  C   UNL d   1     -13.053  -1.461   0.855 -0.08 +0.07    +0.070 A 
DOCKED: ATOM     14  C   UNL d   1     -16.453  -2.966   0.967 -0.08 +0.02    +0.052 C 
DOCKED: ATOM     15  C   UNL d   1     -10.822  -0.357   0.886 -0.14 +0.03    +0.066 A 
DOCKED: ATOM     16  C   UNL d   1      -9.463  -0.391   0.576 -0.35 -0.01    -0.021 A 
DOCKED: ATOM     17  C   UNL d   1      -8.905   0.764   1.124 -0.37 +0.00    +0.000 A 
DOCKED: ATOM     18  C   UNL d   1      -9.980   1.426   1.733 -0.24 +0.02    +0.070 A 
DOCKED: ATOM     19  C   UNL d   1      -8.815  -1.538  -0.158 -0.27 +0.01    +0.052 C 
DOCKED: ATOM     20  C   UNL d   1     -10.898   3.376   3.056 -0.25 +0.01    +0.066 A 
DOCKED: ATOM     21  C   UNL d   1     -10.763   4.615   3.675 -0.36 -0.00    -0.025 A 
DOCKED: ATOM     22  C   UNL d   1     -12.014   4.959   4.137 -0.24 -0.00    -0.021 A 
DOCKED: ATOM     23  C   UNL d   1     -12.866   3.903   3.797 -0.17 +0.01    +0.066 A 
DOCKED: ATOM     24  C   UNL d   1      -9.504   5.429   3.821 -0.47 +0.00    +0.051 C 
DOCKED: ATOM     25  N   UNL d   1     -14.728   1.645   3.235 -0.09 -0.10    -0.248 N 
DOCKED: ATOM     26  N   UNL d   1     -13.649  -0.577   1.695 -0.08 -0.28    -0.248 N 
DOCKED: ATOM     27  N   UNL d   1     -11.121   0.695   1.643 -0.23 -0.12    -0.248 N 
DOCKED: ATOM     28  N   UNL d   1     -12.174   2.923   3.180 -0.14 -0.06    -0.248 N 
DOCKED: ATOM     29 FE   UNL d   1     -12.904   1.185   2.442 -0.05 +0.00    +0.000 Fe
DOCKED: ATOM     30  O   UNL d   1     -13.290   0.317   3.675 -0.44 +0.00    +0.000 OA
DOCKED: ATOM     31  O   UNL d   1     -11.807   0.821   3.509 -0.33 +0.00    +0.000 OA
DOCKED: ENDROOT
DOCKED: BRANCH   6  32
DOCKED: ATOM     32  C   UNL d   1     -17.176   3.659   5.179 -0.04 +0.01    +0.052 C 
DOCKED: BRANCH  32  33
DOCKED: ATOM     33  C   UNL d   1     -17.151   3.269   6.654 -0.01 +0.02    +0.115 C 
DOCKED: BRANCH  33  34
DOCKED: ATOM     34  C   UNL d   1     -15.751   3.225   7.214 -0.02 +0.03    +0.139 C 
DOCKED: ATOM     35  O   UNL d   1     -15.134   2.172   7.216 +0.04 -0.17    -0.650 OA
DOCKED: BRANCH  34  36
DOCKED: ATOM     36  O   UNL d   1     -15.171   4.323   7.742 +0.02 -0.16    -0.776 OA
DOCKED: ATOM     37  H   UNL d   1     -14.213   4.433   7.766 +0.05 +0.04    +0.167 HD
DOCKED: ENDBRANCH  34  36
DOCKED: ENDBRANCH  33  34
DOCKED: ENDBRANCH  32  33
DOCKED: ENDBRANCH   6  32
DOCKED: BRANCH  22  38
DOCKED: ATOM     38  C   UNL d   1     -12.351   6.203   4.917 -0.27 -0.00    +0.052 C 
DOCKED: BRANCH  38  39
DOCKED: ATOM     39  C   UNL d   1     -12.383   5.955   6.424 -0.28 -0.01    +0.115 C 
DOCKED: BRANCH  39  40
DOCKED: ATOM     40  C   UNL d   1     -11.765   4.632   6.803 -0.33 +0.01    +0.139 C 
DOCKED: ATOM     41  O   UNL d   1     -10.591   4.585   7.135 -0.03 -0.02    -0.650 OA
DOCKED: BRANCH  40  42
DOCKED: ATOM     42  O   UNL d   1     -12.499   3.503   6.832 +0.08 -0.13    -0.776 OA
DOCKED: ATOM     43  H   UNL d   1     -13.463   3.529   6.831 +0.06 +0.03    +0.167 HD
DOCKED: ENDBRANCH  40  42
DOCKED: ENDBRANCH  39  40
DOCKED: ENDBRANCH  38  39
DOCKED: ENDBRANCH  22  38
DOCKED: BRANCH  12  44
DOCKED: ATOM     44  C   UNL d   1     -13.810  -3.683  -0.459 -0.18 +0.00    +0.004 C 
DOCKED: ATOM     45  C   UNL d   1     -13.397  -3.707  -1.725 -0.22 +0.00    +0.012 C 
DOCKED: ENDBRANCH  12  44
DOCKED: BRANCH  17  46
DOCKED: ATOM     46  C   UNL d   1      -7.480   1.247   1.169 -0.38 +0.00    +0.004 C 
DOCKED: ATOM     47  C   UNL d   1      -6.799   1.907   0.223 -0.45 +0.00    +0.012 C 
DOCKED: ENDBRANCH  17  46
DOCKED: TORSDOF 10
DOCKED: TER
DOCKED: ENDMDL
________________________________________________________________________________


	BEGINNING GENETIC ALGORITHM DOCKING 61 of 100
Run: 61 Seed: 107922569 346243131 [ Run 61 of 100 GA/GALS ]
Beginning LAMARCKIAN GENETIC ALGORITHM (LGA), with a maximum of 25000000 energy evaluations.

Final-Value: -10.177


	FINAL GENETIC ALGORITHM DOCKED STATE
	_______________________________________________


Detailed state:  trans -5.627 19.362 4.579 quatxyzw 0.778561 -0.321304 0.536963 -0.047717 center 8.287 34.468 -0.670 ntor 10 -144.0005 47.3341 -18.6159 -31.3515 30.2732 -141.7050 -78.9018 -97.8743 168.9942 117.4536
State:	 -5.627  19.362   4.579   0.779 -0.322  0.538 -174.530   -144.00   47.33  -18.62  -31.35   30.27 -141.70  -78.90  -97.87  168.99  117.45

DOCKED: MODEL       61
DOCKED: USER    Run = 61
DOCKED: USER    DPF = D:/Protein_go_brrr/autodock/final/mut_D99N/heme_O2/dock.dpf
DOCKED: USER  
DOCKED: USER    Estimated Free Energy of Binding    =   -5.05 kcal/mol  [=(1)+(2)+(3)-(4)]
DOCKED: USER    Estimated Inhibition Constant, Ki   =  197.11 uM (micromolar)  [Temperature = 298.15 K]
DOCKED: USER    
DOCKED: USER    (1) Final Intermolecular Energy     =   -8.04 kcal/mol
DOCKED: USER        vdW + Hbond + desolv Energy     =   -6.39 kcal/mol
DOCKED: USER        Electrostatic Energy            =   -1.65 kcal/mol
DOCKED: USER    (2) Final Total Internal Energy     =   -2.14 kcal/mol
DOCKED: USER    (3) Torsional Free Energy           =   +2.98 kcal/mol
DOCKED: USER    (4) Unbound System's Energy  [=(2)] =   -2.14 kcal/mol
DOCKED: USER    
DOCKED: USER    
DOCKED: USER    NEWDPF move heme_O2_opt.pdbqt
DOCKED: USER    NEWDPF about 8.287000 34.468000 -0.670000
DOCKED: USER    NEWDPF tran0 -5.627454 19.361614 4.579093
DOCKED: USER    NEWDPF quaternion0 0.778561 -0.321304 0.536963 -0.047717
DOCKED: USER    NEWDPF axisangle0 0.779449 -0.321670 0.537575 -174.529991
DOCKED: USER    NEWDPF quat0 0.779449 -0.321670 0.537575 -174.529991
DOCKED: USER    NEWDPF dihe0 -144.00 47.33 -18.62 -31.35 30.27 -141.70 -78.90 -97.87 168.99 117.45 
DOCKED: USER  keepresnum = 1 
DOCKED: USER  
DOCKED: REMARK  10 active torsions:
DOCKED: REMARK  status: ('A' for Active; 'I' for Inactive)
DOCKED: REMARK    1  A    between atoms: C_6  and  C_10 
DOCKED: REMARK    2  A    between atoms: C_10  and  C_11 
DOCKED: REMARK    3  A    between atoms: C_11  and  C_12 
DOCKED: REMARK    4  A    between atoms: C_12  and  O_14 
DOCKED: REMARK    5  A    between atoms: C_17  and  C_20 
DOCKED: REMARK    6  A    between atoms: C_24  and  C_27 
DOCKED: REMARK    7  A    between atoms: C_31  and  C_34 
DOCKED: REMARK    8  A    between atoms: C_34  and  C_35 
DOCKED: REMARK    9  A    between atoms: C_35  and  C_36 
DOCKED: REMARK   10  A    between atoms: C_36  and  O_38 
DOCKED: USER                              x       y       z     vdW  Elec       q    Type
DOCKED: USER                           _______ _______ _______ _____ _____    ______ ____
DOCKED: ROOT
DOCKED: ATOM      1  C   UNL d   1      -7.009  20.062   3.130 -0.07 +0.03    +0.064 A 
DOCKED: ATOM      2  C   UNL d   1      -2.265  20.131   3.335 -0.10 +0.01    +0.064 A 
DOCKED: ATOM      3  C   UNL d   1      -2.327  17.988   7.635 -0.26 +0.01    +0.064 C 
DOCKED: ATOM      4  C   UNL d   1      -7.188  17.479   7.221 -0.06 +0.00    +0.064 A 
DOCKED: ATOM      5  C   UNL d   1      -5.714  20.254   2.834 -0.07 +0.03    +0.066 A 
DOCKED: ATOM      6  C   UNL d   1      -5.262  20.878   1.668 -0.05 -0.01    -0.021 A 
DOCKED: ATOM      7  C   UNL d   1      -3.887  20.860   1.706 -0.04 -0.01    -0.025 A 
DOCKED: ATOM      8  C   UNL d   1      -3.538  20.269   2.917 -0.07 +0.02    +0.066 A 
DOCKED: ATOM      9  C   UNL d   1      -2.984  21.366   0.602 -0.02 +0.01    +0.051 C 
DOCKED: ATOM     10  C   UNL d   1      -1.838  19.540   4.604 -0.12 +0.01    +0.066 A 
DOCKED: ATOM     11  C   UNL d   1      -0.516  19.571   5.061 -0.19 -0.00    -0.021 A 
DOCKED: ATOM     12  C   UNL d   1      -0.516  18.973   6.308 -0.24 +0.00    +0.000 A 
DOCKED: ATOM     13  C   UNL d   1      -1.867  18.593   6.541 -0.16 +0.01    +0.070 A 
DOCKED: ATOM     14  C   UNL d   1       0.693  20.169   4.350 -0.14 +0.00    +0.052 C 
DOCKED: ATOM     15  C   UNL d   1      -3.679  17.555   7.895 -0.23 +0.00    +0.066 A 
DOCKED: ATOM     16  C   UNL d   1      -4.065  16.780   8.988 -0.27 +0.00    -0.021 A 
DOCKED: ATOM     17  C   UNL d   1      -5.447  16.621   8.891 -0.26 -0.00    +0.000 A 
DOCKED: ATOM     18  C   UNL d   1      -5.806  17.322   7.731 -0.21 +0.00    +0.070 A 
DOCKED: ATOM     19  C   UNL d   1      -3.083  16.220   9.987 -0.31 -0.01    +0.052 C 
DOCKED: ATOM     20  C   UNL d   1      -7.562  18.107   6.090 -0.13 +0.01    +0.066 A 
DOCKED: ATOM     21  C   UNL d   1      -8.883  18.238   5.670 -0.13 -0.00    -0.025 A 
DOCKED: ATOM     22  C   UNL d   1      -8.854  18.995   4.520 -0.12 -0.01    -0.021 A 
DOCKED: ATOM     23  C   UNL d   1      -7.509  19.283   4.270 -0.08 +0.03    +0.066 A 
DOCKED: ATOM     24  C   UNL d   1     -10.111  17.667   6.331 -0.16 -0.01    +0.051 C 
DOCKED: ATOM     25  N   UNL d   1      -4.662  19.837   3.581 -0.07 -0.09    -0.248 N 
DOCKED: ATOM     26  N   UNL d   1      -2.663  18.938   5.497 -0.05 -0.05    -0.248 N 
DOCKED: ATOM     27  N   UNL d   1      -4.711  17.818   7.099 -0.15 -0.03    -0.248 N 
DOCKED: ATOM     28  N   UNL d   1      -6.724  18.704   5.201 -0.11 -0.09    -0.248 N 
DOCKED: ATOM     29 FE   UNL d   1      -4.708  18.818   5.351 -0.04 +0.00    +0.000 Fe
DOCKED: ATOM     30  O   UNL d   1      -4.137  17.990   4.163 -0.34 +0.00    +0.000 OA
DOCKED: ATOM     31  O   UNL d   1      -5.086  17.298   5.213 -0.45 +0.00    +0.000 OA
DOCKED: ENDROOT
DOCKED: BRANCH   6  32
DOCKED: ATOM     32  C   UNL d   1      -6.083  21.351   0.496 -0.03 +0.02    +0.052 C 
DOCKED: BRANCH  32  33
DOCKED: ATOM     33  C   UNL d   1      -5.920  20.467  -0.736 -0.03 +0.05    +0.115 C 
DOCKED: BRANCH  33  34
DOCKED: ATOM     34  C   UNL d   1      -7.048  19.477  -0.887 -0.02 +0.09    +0.139 C 
DOCKED: ATOM     35  O   UNL d   1      -6.804  18.281  -0.902 -0.31 -0.88    -0.650 OA
DOCKED: BRANCH  34  36
DOCKED: ATOM     36  O   UNL d   1      -8.326  19.885  -1.036 -0.00 -0.31    -0.776 OA
DOCKED: ATOM     37  H   UNL d   1      -9.064  19.403  -0.645 +0.01 +0.07    +0.167 HD
DOCKED: ENDBRANCH  34  36
DOCKED: ENDBRANCH  33  34
DOCKED: ENDBRANCH  32  33
DOCKED: ENDBRANCH   6  32
DOCKED: BRANCH  22  38
DOCKED: ATOM     38  C   UNL d   1     -10.049  19.361   3.679 -0.07 +0.01    +0.052 C 
DOCKED: BRANCH  38  39
DOCKED: ATOM     39  C   UNL d   1      -9.748  19.302   2.183 -0.08 +0.04    +0.115 C 
DOCKED: BRANCH  39  40
DOCKED: ATOM     40  C   UNL d   1      -9.815  17.898   1.636 -0.03 +0.08    +0.139 C 
DOCKED: ATOM     41  O   UNL d   1     -10.139  16.978   2.368 -0.04 -0.32    -0.650 OA
DOCKED: BRANCH  40  42
DOCKED: ATOM     42  O   UNL d   1      -9.572  17.646   0.335 +0.02 -0.52    -0.776 OA
DOCKED: ATOM     43  H   UNL d   1      -8.785  17.986  -0.107 +0.01 +0.15    +0.167 HD
DOCKED: ENDBRANCH  40  42
DOCKED: ENDBRANCH  39  40
DOCKED: ENDBRANCH  38  39
DOCKED: ENDBRANCH  22  38
DOCKED: BRANCH  12  44
DOCKED: ATOM     44  C   UNL d   1       0.748  18.827   7.129 -0.26 +0.00    +0.004 C 
DOCKED: ATOM     45  C   UNL d   1       0.853  18.678   8.449 -0.19 +0.00    +0.012 C 
DOCKED: ENDBRANCH  12  44
DOCKED: BRANCH  17  46
DOCKED: ATOM     46  C   UNL d   1      -6.414  15.841   9.740 -0.30 -0.00    +0.004 C 
DOCKED: ATOM     47  C   UNL d   1      -6.235  14.645  10.314 -0.38 -0.00    +0.012 C 
DOCKED: ENDBRANCH  17  46
DOCKED: TORSDOF 10
DOCKED: TER
DOCKED: ENDMDL
________________________________________________________________________________


	BEGINNING GENETIC ALGORITHM DOCKING 62 of 100
Run: 62 Seed: 880051821 1390224182 [ Run 62 of 100 GA/GALS ]
Beginning LAMARCKIAN GENETIC ALGORITHM (LGA), with a maximum of 25000000 energy evaluations.

Final-Value: -10.121


	FINAL GENETIC ALGORITHM DOCKED STATE
	_______________________________________________


Detailed state:  trans 5.684 0.842 -17.285 quatxyzw 0.727610 -0.162494 0.357455 -0.562499 center 8.287 34.468 -0.670 ntor 10 33.8184 -58.3422 27.8215 135.7309 67.3762 163.1033 -20.0524 -55.7852 -160.5714 133.8449
State:	  5.684   0.842 -17.285   0.880 -0.197  0.432 -111.542     33.82  -58.34   27.82  135.73   67.38  163.10  -20.05  -55.79 -160.57  133.84

DOCKED: MODEL       62
DOCKED: USER    Run = 62
DOCKED: USER    DPF = D:/Protein_go_brrr/autodock/final/mut_D99N/heme_O2/dock.dpf
DOCKED: USER  
DOCKED: USER    Estimated Free Energy of Binding    =   -6.62 kcal/mol  [=(1)+(2)+(3)-(4)]
DOCKED: USER    Estimated Inhibition Constant, Ki   =   14.08 uM (micromolar)  [Temperature = 298.15 K]
DOCKED: USER    
DOCKED: USER    (1) Final Intermolecular Energy     =   -9.60 kcal/mol
DOCKED: USER        vdW + Hbond + desolv Energy     =   -6.78 kcal/mol
DOCKED: USER        Electrostatic Energy            =   -2.82 kcal/mol
DOCKED: USER    (2) Final Total Internal Energy     =   -0.52 kcal/mol
DOCKED: USER    (3) Torsional Free Energy           =   +2.98 kcal/mol
DOCKED: USER    (4) Unbound System's Energy  [=(2)] =   -0.52 kcal/mol
DOCKED: USER    
DOCKED: USER    
DOCKED: USER    NEWDPF move heme_O2_opt.pdbqt
DOCKED: USER    NEWDPF about 8.287000 34.468000 -0.670000
DOCKED: USER    NEWDPF tran0 5.684229 0.841524 -17.285068
DOCKED: USER    NEWDPF quaternion0 0.727610 -0.162494 0.357455 -0.562499
DOCKED: USER    NEWDPF axisangle0 0.880034 -0.196534 0.432337 -111.542417
DOCKED: USER    NEWDPF quat0 0.880034 -0.196534 0.432337 -111.542417
DOCKED: USER    NEWDPF dihe0 33.82 -58.34 27.82 135.73 67.38 163.10 -20.05 -55.79 -160.57 133.84 
DOCKED: USER  keepresnum = 1 
DOCKED: USER  
DOCKED: REMARK  10 active torsions:
DOCKED: REMARK  status: ('A' for Active; 'I' for Inactive)
DOCKED: REMARK    1  A    between atoms: C_6  and  C_10 
DOCKED: REMARK    2  A    between atoms: C_10  and  C_11 
DOCKED: REMARK    3  A    between atoms: C_11  and  C_12 
DOCKED: REMARK    4  A    between atoms: C_12  and  O_14 
DOCKED: REMARK    5  A    between atoms: C_17  and  C_20 
DOCKED: REMARK    6  A    between atoms: C_24  and  C_27 
DOCKED: REMARK    7  A    between atoms: C_31  and  C_34 
DOCKED: REMARK    8  A    between atoms: C_34  and  C_35 
DOCKED: REMARK    9  A    between atoms: C_35  and  C_36 
DOCKED: REMARK   10  A    between atoms: C_36  and  O_38 
DOCKED: USER                              x       y       z     vdW  Elec       q    Type
DOCKED: USER                           _______ _______ _______ _____ _____    ______ ____
DOCKED: ROOT
DOCKED: ATOM      1  C   UNL d   1       3.737   1.090 -18.087 -0.08 +0.02    +0.064 A 
DOCKED: ATOM      2  C   UNL d   1       7.541  -1.323 -19.591 -0.14 +0.01    +0.064 A 
DOCKED: ATOM      3  C   UNL d   1      10.097   0.166 -15.803 +0.09 +0.03    +0.064 C 
DOCKED: ATOM      4  C   UNL d   1       6.046   2.263 -13.998 -0.17 +0.01    +0.064 A 
DOCKED: ATOM      5  C   UNL d   1       4.562   0.311 -18.805 -0.10 +0.02    +0.066 A 
DOCKED: ATOM      6  C   UNL d   1       4.209  -0.305 -20.008 -0.12 -0.01    -0.021 A 
DOCKED: ATOM      7  C   UNL d   1       5.295  -1.039 -20.422 -0.12 -0.01    -0.025 A 
DOCKED: ATOM      8  C   UNL d   1       6.299  -0.812 -19.485 -0.12 +0.01    +0.066 A 
DOCKED: ATOM      9  C   UNL d   1       5.324  -1.928 -21.647 -0.15 +0.01    +0.051 C 
DOCKED: ATOM     10  C   UNL d   1       8.642  -1.102 -18.652 -0.14 +0.02    +0.066 A 
DOCKED: ATOM     11  C   UNL d   1       9.955  -1.520 -18.894 -0.11 -0.01    -0.021 A 
DOCKED: ATOM     12  C   UNL d   1      10.711  -1.084 -17.821 -0.09 +0.00    +0.000 A 
DOCKED: ATOM     13  C   UNL d   1       9.793  -0.421 -16.960 -0.03 +0.04    +0.070 A 
DOCKED: ATOM     14  C   UNL d   1      10.473  -2.279 -20.110 -0.09 +0.01    +0.052 C 
DOCKED: ATOM     15  C   UNL d   1       9.192   0.816 -14.886 -0.09 +0.02    +0.066 A 
DOCKED: ATOM     16  C   UNL d   1       9.543   1.266 -13.614 -0.19 -0.00    -0.021 A 
DOCKED: ATOM     17  C   UNL d   1       8.403   1.867 -13.080 -0.25 +0.00    +0.000 A 
DOCKED: ATOM     18  C   UNL d   1       7.430   1.739 -14.080 -0.17 +0.01    +0.070 A 
DOCKED: ATOM     19  C   UNL d   1      10.904   1.035 -13.007 -0.24 +0.01    +0.052 C 
DOCKED: ATOM     20  C   UNL d   1       5.075   2.120 -14.920 -0.12 +0.01    +0.066 A 
DOCKED: ATOM     21  C   UNL d   1       3.795   2.652 -14.794 -0.17 -0.01    -0.025 A 
DOCKED: ATOM     22  C   UNL d   1       3.131   2.351 -15.962 -0.12 -0.01    -0.021 A 
DOCKED: ATOM     23  C   UNL d   1       4.029   1.628 -16.754 -0.08 +0.02    +0.066 A 
DOCKED: ATOM     24  C   UNL d   1       3.232   3.406 -13.617 -0.17 +0.01    +0.051 C 
DOCKED: ATOM     25  N   UNL d   1       5.826  -0.033 -18.455 -0.06 -0.06    -0.248 N 
DOCKED: ATOM     26  N   UNL d   1       8.536  -0.440 -17.471 -0.09 -0.09    -0.248 N 
DOCKED: ATOM     27  N   UNL d   1       7.904   1.033 -15.138 -0.10 -0.07    -0.248 N 
DOCKED: ATOM     28  N   UNL d   1       5.194   1.452 -16.098 -0.03 -0.06    -0.248 N 
DOCKED: ATOM     29 FE   UNL d   1       6.854   0.513 -16.777 -0.03 +0.00    +0.000 Fe
DOCKED: ATOM     30  O   UNL d   1       6.504  -1.003 -16.834 -0.38 +0.00    +0.000 OA
DOCKED: ATOM     31  O   UNL d   1       6.397  -0.227 -15.467 -0.33 +0.00    +0.000 OA
DOCKED: ENDROOT
DOCKED: BRANCH   6  32
DOCKED: ATOM     32  C   UNL d   1       2.858  -0.318 -20.677 -0.12 +0.02    +0.052 C 
DOCKED: BRANCH  32  33
DOCKED: ATOM     33  C   UNL d   1       1.879  -1.283 -20.015 -0.09 +0.05    +0.115 C 
DOCKED: BRANCH  33  34
DOCKED: ATOM     34  C   UNL d   1       0.441  -0.928 -20.301 -0.05 +0.13    +0.139 C 
DOCKED: ATOM     35  O   UNL d   1      -0.119  -0.084 -19.620 -0.61 -1.01    -0.650 OA
DOCKED: BRANCH  34  36
DOCKED: ATOM     36  O   UNL d   1      -0.255  -1.546 -21.278 +0.01 -0.54    -0.776 OA
DOCKED: ATOM     37  H   UNL d   1      -0.113  -2.474 -21.498 -0.02 +0.09    +0.167 HD
DOCKED: ENDBRANCH  34  36
DOCKED: ENDBRANCH  33  34
DOCKED: ENDBRANCH  32  33
DOCKED: ENDBRANCH   6  32
DOCKED: BRANCH  22  38
DOCKED: ATOM     38  C   UNL d   1       1.694   2.686 -16.268 -0.12 +0.02    +0.052 C 
DOCKED: BRANCH  38  39
DOCKED: ATOM     39  C   UNL d   1       0.875   1.452 -16.641 -0.21 +0.09    +0.115 C 
DOCKED: BRANCH  39  40
DOCKED: ATOM     40  C   UNL d   1      -0.325   1.265 -15.748 -0.28 +0.17    +0.139 C 
DOCKED: ATOM     41  O   UNL d   1      -0.184   1.258 -14.536 -0.57 -0.66    -0.650 OA
DOCKED: BRANCH  40  42
DOCKED: ATOM     42  O   UNL d   1      -1.565   1.156 -16.263 +0.01 -1.37    -0.776 OA
DOCKED: ATOM     43  H   UNL d   1      -1.932   1.832 -16.845 +0.06 +0.23    +0.167 HD
DOCKED: ENDBRANCH  40  42
DOCKED: ENDBRANCH  39  40
DOCKED: ENDBRANCH  38  39
DOCKED: ENDBRANCH  22  38
DOCKED: BRANCH  12  44
DOCKED: ATOM     44  C   UNL d   1      12.200  -1.344 -17.728 -0.09 +0.00    +0.004 C 
DOCKED: ATOM     45  C   UNL d   1      12.958  -1.383 -16.633 -0.09 +0.01    +0.012 C 
DOCKED: ENDBRANCH  12  44
DOCKED: BRANCH  17  46
DOCKED: ATOM     46  C   UNL d   1       8.150   2.479 -11.727 -0.36 +0.00    +0.004 C 
DOCKED: ATOM     47  C   UNL d   1       7.640   3.685 -11.446 -0.26 +0.00    +0.012 C 
DOCKED: ENDBRANCH  17  46
DOCKED: TORSDOF 10
DOCKED: TER
DOCKED: ENDMDL
________________________________________________________________________________


	BEGINNING GENETIC ALGORITHM DOCKING 63 of 100
Run: 63 Seed: 384656107 954768025 [ Run 63 of 100 GA/GALS ]
Beginning LAMARCKIAN GENETIC ALGORITHM (LGA), with a maximum of 25000000 energy evaluations.

Final-Value: -9.530


	FINAL GENETIC ALGORITHM DOCKED STATE
	_______________________________________________


Detailed state:  trans -3.360 18.530 5.132 quatxyzw 0.215283 0.103906 0.016100 0.970875 center 8.287 34.468 -0.670 ntor 10 155.3423 -119.5687 -108.2915 139.0387 -128.1636 -136.8236 -59.2617 -24.5661 -144.9099 -27.7185
State:	 -3.360  18.530   5.132   0.899  0.434  0.067 27.724    155.34 -119.57 -108.29  139.04 -128.16 -136.82  -59.26  -24.57 -144.91  -27.72

DOCKED: MODEL       63
DOCKED: USER    Run = 63
DOCKED: USER    DPF = D:/Protein_go_brrr/autodock/final/mut_D99N/heme_O2/dock.dpf
DOCKED: USER  
DOCKED: USER    Estimated Free Energy of Binding    =   -5.58 kcal/mol  [=(1)+(2)+(3)-(4)]
DOCKED: USER    Estimated Inhibition Constant, Ki   =   80.74 uM (micromolar)  [Temperature = 298.15 K]
DOCKED: USER    
DOCKED: USER    (1) Final Intermolecular Energy     =   -8.57 kcal/mol
DOCKED: USER        vdW + Hbond + desolv Energy     =   -7.06 kcal/mol
DOCKED: USER        Electrostatic Energy            =   -1.51 kcal/mol
DOCKED: USER    (2) Final Total Internal Energy     =   -0.96 kcal/mol
DOCKED: USER    (3) Torsional Free Energy           =   +2.98 kcal/mol
DOCKED: USER    (4) Unbound System's Energy  [=(2)] =   -0.96 kcal/mol
DOCKED: USER    
DOCKED: USER    
DOCKED: USER    NEWDPF move heme_O2_opt.pdbqt
DOCKED: USER    NEWDPF about 8.287000 34.468000 -0.670000
DOCKED: USER    NEWDPF tran0 -3.360079 18.530000 5.131506
DOCKED: USER    NEWDPF quaternion0 0.215283 0.103906 0.016100 0.970875
DOCKED: USER    NEWDPF axisangle0 0.898555 0.433685 0.067199 27.724477
DOCKED: USER    NEWDPF quat0 0.898555 0.433685 0.067199 27.724477
DOCKED: USER    NEWDPF dihe0 155.34 -119.57 -108.29 139.04 -128.16 -136.82 -59.26 -24.57 -144.91 -27.72 
DOCKED: USER  keepresnum = 1 
DOCKED: USER  
DOCKED: REMARK  10 active torsions:
DOCKED: REMARK  status: ('A' for Active; 'I' for Inactive)
DOCKED: REMARK    1  A    between atoms: C_6  and  C_10 
DOCKED: REMARK    2  A    between atoms: C_10  and  C_11 
DOCKED: REMARK    3  A    between atoms: C_11  and  C_12 
DOCKED: REMARK    4  A    between atoms: C_12  and  O_14 
DOCKED: REMARK    5  A    between atoms: C_17  and  C_20 
DOCKED: REMARK    6  A    between atoms: C_24  and  C_27 
DOCKED: REMARK    7  A    between atoms: C_31  and  C_34 
DOCKED: REMARK    8  A    between atoms: C_34  and  C_35 
DOCKED: REMARK    9  A    between atoms: C_35  and  C_36 
DOCKED: REMARK   10  A    between atoms: C_36  and  O_38 
DOCKED: USER                              x       y       z     vdW  Elec       q    Type
DOCKED: USER                           _______ _______ _______ _____ _____    ______ ____
DOCKED: ROOT
DOCKED: ATOM      1  C   UNL d   1      -4.987  18.714   3.783 -0.18 +0.04    +0.064 A 
DOCKED: ATOM      2  C   UNL d   1      -4.768  17.819   8.442 -0.14 +0.00    +0.064 A 
DOCKED: ATOM      3  C   UNL d   1       0.034  17.989   8.343 -0.22 +0.01    +0.064 C 
DOCKED: ATOM      4  C   UNL d   1      -0.194  19.383   3.645 -0.20 +0.01    +0.064 A 
DOCKED: ATOM      5  C   UNL d   1      -5.319  18.458   5.059 -0.22 +0.03    +0.066 A 
DOCKED: ATOM      6  C   UNL d   1      -6.633  18.305   5.510 -0.15 -0.01    -0.021 A 
DOCKED: ATOM      7  C   UNL d   1      -6.573  18.089   6.867 -0.16 -0.00    -0.025 A 
DOCKED: ATOM      8  C   UNL d   1      -5.221  18.068   7.199 -0.18 +0.01    +0.066 A 
DOCKED: ATOM      9  C   UNL d   1      -7.775  17.944   7.774 -0.14 -0.00    +0.051 C 
DOCKED: ATOM     10  C   UNL d   1      -3.362  17.761   8.847 -0.18 -0.00    +0.066 A 
DOCKED: ATOM     11  C   UNL d   1      -2.942  17.338  10.113 -0.17 +0.00    -0.021 A 
DOCKED: ATOM     12  C   UNL d   1      -1.560  17.363  10.098 -0.21 -0.00    +0.000 A 
DOCKED: ATOM     13  C   UNL d   1      -1.207  17.822   8.798 -0.22 +0.00    +0.070 A 
DOCKED: ATOM     14  C   UNL d   1      -3.822  16.901  11.278 -0.13 -0.01    +0.052 C 
DOCKED: ATOM     15  C   UNL d   1       0.433  18.485   7.047 -0.26 +0.01    +0.066 A 
DOCKED: ATOM     16  C   UNL d   1       1.744  18.793   6.688 -0.22 -0.00    -0.021 A 
DOCKED: ATOM     17  C   UNL d   1       1.704  19.194   5.353 -0.20 +0.00    +0.000 A 
DOCKED: ATOM     18  C   UNL d   1       0.352  19.097   4.992 -0.20 +0.01    +0.070 A 
DOCKED: ATOM     19  C   UNL d   1       2.899  18.731   7.657 -0.15 +0.00    +0.052 C 
DOCKED: ATOM     20  C   UNL d   1      -1.490  19.342   3.277 -0.16 +0.01    +0.066 A 
DOCKED: ATOM     21  C   UNL d   1      -1.943  19.606   1.987 -0.13 -0.01    -0.025 A 
DOCKED: ATOM     22  C   UNL d   1      -3.303  19.393   2.001 -0.14 -0.01    -0.021 A 
DOCKED: ATOM     23  C   UNL d   1      -3.633  19.024   3.309 -0.14 +0.03    +0.066 A 
DOCKED: ATOM     24  C   UNL d   1      -1.120  20.041   0.802 -0.08 +0.01    +0.051 C 
DOCKED: ATOM     25  N   UNL d   1      -4.452  18.360   6.096 -0.13 -0.05    -0.248 N 
DOCKED: ATOM     26  N   UNL d   1      -2.310  18.066   8.046 -0.16 -0.02    -0.248 N 
DOCKED: ATOM     27  N   UNL d   1      -0.414  18.738   6.053 -0.19 -0.04    -0.248 N 
DOCKED: ATOM     28  N   UNL d   1      -2.535  19.038   4.091 +0.09 -0.07    -0.248 N 
DOCKED: ATOM     29 FE   UNL d   1      -2.420  18.557   6.054 -0.06 +0.00    +0.000 Fe
DOCKED: ATOM     30  O   UNL d   1      -3.145  19.698   6.825 -0.11 +0.00    +0.000 OA
DOCKED: ATOM     31  O   UNL d   1      -1.915  20.038   5.902 -0.13 +0.00    +0.000 OA
DOCKED: ENDROOT
DOCKED: BRANCH   6  32
DOCKED: ATOM     32  C   UNL d   1      -7.906  18.490   4.725 -0.04 +0.02    +0.052 C 
DOCKED: BRANCH  32  33
DOCKED: ATOM     33  C   UNL d   1      -8.067  19.908   4.184 -0.08 +0.04    +0.115 C 
DOCKED: BRANCH  33  34
DOCKED: ATOM     34  C   UNL d   1      -8.123  19.945   2.677 -0.05 +0.07    +0.139 C 
DOCKED: ATOM     35  O   UNL d   1      -9.171  19.688   2.106 -0.01 -0.27    -0.650 OA
DOCKED: BRANCH  34  36
DOCKED: ATOM     36  O   UNL d   1      -7.030  20.230   1.939 +0.01 -0.44    -0.776 OA
DOCKED: ATOM     37  H   UNL d   1      -6.939  19.935   1.026 +0.01 +0.13    +0.167 HD
DOCKED: ENDBRANCH  34  36
DOCKED: ENDBRANCH  33  34
DOCKED: ENDBRANCH  32  33
DOCKED: ENDBRANCH   6  32
DOCKED: BRANCH  22  38
DOCKED: ATOM     38  C   UNL d   1      -4.236  19.598   0.836 -0.10 +0.02    +0.052 C 
DOCKED: BRANCH  38  39
DOCKED: ATOM     39  C   UNL d   1      -4.106  18.497  -0.214 -0.13 +0.07    +0.115 C 
DOCKED: BRANCH  39  40
DOCKED: ATOM     40  C   UNL d   1      -5.368  18.317  -1.021 +0.09 +0.13    +0.139 C 
DOCKED: ATOM     41  O   UNL d   1      -6.288  19.108  -0.890 -0.55 -0.55    -0.650 OA
DOCKED: BRANCH  40  42
DOCKED: ATOM     42  O   UNL d   1      -5.481  17.325  -1.924 -0.59 -0.78    -0.776 OA
DOCKED: ATOM     43  H   UNL d   1      -5.598  17.509  -2.864 +0.03 +0.11    +0.167 HD
DOCKED: ENDBRANCH  40  42
DOCKED: ENDBRANCH  39  40
DOCKED: ENDBRANCH  38  39
DOCKED: ENDBRANCH  22  38
DOCKED: BRANCH  12  44
DOCKED: ATOM     44  C   UNL d   1      -0.735  16.958  11.302 -0.19 -0.00    +0.004 C 
DOCKED: ATOM     45  C   UNL d   1      -0.616  15.745  11.842 -0.27 -0.00    +0.012 C 
DOCKED: ENDBRANCH  12  44
DOCKED: BRANCH  17  46
DOCKED: ATOM     46  C   UNL d   1       2.789  19.698   4.439 -0.15 +0.00    +0.004 C 
DOCKED: ATOM     47  C   UNL d   1       3.064  19.311   3.187 -0.17 +0.00    +0.012 C 
DOCKED: ENDBRANCH  17  46
DOCKED: TORSDOF 10
DOCKED: TER
DOCKED: ENDMDL
________________________________________________________________________________


	BEGINNING GENETIC ALGORITHM DOCKING 64 of 100
Run: 64 Seed: 235105336 3720912 [ Run 64 of 100 GA/GALS ]
Beginning LAMARCKIAN GENETIC ALGORITHM (LGA), with a maximum of 25000000 energy evaluations.

Final-Value: -9.532


	FINAL GENETIC ALGORITHM DOCKED STATE
	_______________________________________________


Detailed state:  trans -15.424 2.660 4.608 quatxyzw 0.748450 0.627114 0.103184 0.189481 center 8.287 34.468 -0.670 ntor 10 -85.2918 -111.8204 63.3048 -167.6717 -161.3593 -79.8685 -49.7829 -6.5810 164.4999 26.5031
State:	-15.424   2.660   4.608   0.762  0.639  0.105 158.155    -85.29 -111.82   63.30 -167.67 -161.36  -79.87  -49.78   -6.58  164.50   26.50

DOCKED: MODEL       64
DOCKED: USER    Run = 64
DOCKED: USER    DPF = D:/Protein_go_brrr/autodock/final/mut_D99N/heme_O2/dock.dpf
DOCKED: USER  
DOCKED: USER    Estimated Free Energy of Binding    =   -6.36 kcal/mol  [=(1)+(2)+(3)-(4)]
DOCKED: USER    Estimated Inhibition Constant, Ki   =   21.93 uM (micromolar)  [Temperature = 298.15 K]
DOCKED: USER    
DOCKED: USER    (1) Final Intermolecular Energy     =   -9.34 kcal/mol
DOCKED: USER        vdW + Hbond + desolv Energy     =   -6.68 kcal/mol
DOCKED: USER        Electrostatic Energy            =   -2.66 kcal/mol
DOCKED: USER    (2) Final Total Internal Energy     =   -0.19 kcal/mol
DOCKED: USER    (3) Torsional Free Energy           =   +2.98 kcal/mol
DOCKED: USER    (4) Unbound System's Energy  [=(2)] =   -0.19 kcal/mol
DOCKED: USER    
DOCKED: USER    
DOCKED: USER    NEWDPF move heme_O2_opt.pdbqt
DOCKED: USER    NEWDPF about 8.287000 34.468000 -0.670000
DOCKED: USER    NEWDPF tran0 -15.424458 2.659918 4.608132
DOCKED: USER    NEWDPF quaternion0 0.748450 0.627114 0.103184 0.189481
DOCKED: USER    NEWDPF axisangle0 0.762259 0.638684 0.105087 158.154997
DOCKED: USER    NEWDPF quat0 0.762259 0.638684 0.105087 158.154997
DOCKED: USER    NEWDPF dihe0 -85.29 -111.82 63.30 -167.67 -161.36 -79.87 -49.78 -6.58 164.50 26.50 
DOCKED: USER  keepresnum = 1 
DOCKED: USER  
DOCKED: REMARK  10 active torsions:
DOCKED: REMARK  status: ('A' for Active; 'I' for Inactive)
DOCKED: REMARK    1  A    between atoms: C_6  and  C_10 
DOCKED: REMARK    2  A    between atoms: C_10  and  C_11 
DOCKED: REMARK    3  A    between atoms: C_11  and  C_12 
DOCKED: REMARK    4  A    between atoms: C_12  and  O_14 
DOCKED: REMARK    5  A    between atoms: C_17  and  C_20 
DOCKED: REMARK    6  A    between atoms: C_24  and  C_27 
DOCKED: REMARK    7  A    between atoms: C_31  and  C_34 
DOCKED: REMARK    8  A    between atoms: C_34  and  C_35 
DOCKED: REMARK    9  A    between atoms: C_35  and  C_36 
DOCKED: REMARK   10  A    between atoms: C_36  and  O_38 
DOCKED: USER                              x       y       z     vdW  Elec       q    Type
DOCKED: USER                           _______ _______ _______ _____ _____    ______ ____
DOCKED: ROOT
DOCKED: ATOM      1  C   UNL d   1     -15.129   0.562   4.508 -0.07 +0.04    +0.064 A 
DOCKED: ATOM      2  C   UNL d   1     -17.878   3.536   2.027 -0.15 +0.01    +0.064 A 
DOCKED: ATOM      3  C   UNL d   1     -16.351   7.271   4.638 -0.09 +0.00    +0.064 C 
DOCKED: ATOM      4  C   UNL d   1     -13.161   4.295   6.881 -0.16 +0.01    +0.064 A 
DOCKED: ATOM      5  C   UNL d   1     -16.000   1.066   3.619 -0.08 +0.03    +0.066 A 
DOCKED: ATOM      6  C   UNL d   1     -16.694   0.298   2.681 -0.10 -0.01    -0.021 A 
DOCKED: ATOM      7  C   UNL d   1     -17.458   1.163   1.933 -0.12 -0.01    -0.025 A 
DOCKED: ATOM      8  C   UNL d   1     -17.245   2.431   2.467 -0.14 +0.01    +0.066 A 
DOCKED: ATOM      9  C   UNL d   1     -18.315   0.763   0.752 -0.09 +0.01    +0.051 C 
DOCKED: ATOM     10  C   UNL d   1     -17.713   4.889   2.562 -0.20 +0.01    +0.066 A 
DOCKED: ATOM     11  C   UNL d   1     -18.514   5.971   2.178 -0.23 -0.00    -0.021 A 
DOCKED: ATOM     12  C   UNL d   1     -18.101   7.053   2.933 -0.20 +0.00    +0.000 A 
DOCKED: ATOM     13  C   UNL d   1     -17.040   6.562   3.744 -0.07 +0.00    +0.070 A 
DOCKED: ATOM     14  C   UNL d   1     -19.643   5.965   1.155 -0.19 +0.02    +0.052 C 
DOCKED: ATOM     15  C   UNL d   1     -15.248   6.821   5.452 -0.08 +0.00    +0.066 A 
DOCKED: ATOM     16  C   UNL d   1     -14.462   7.653   6.248 -0.15 +0.00    -0.021 A 
DOCKED: ATOM     17  C   UNL d   1     -13.545   6.826   6.897 -0.25 -0.00    +0.000 A 
DOCKED: ATOM     18  C   UNL d   1     -13.845   5.535   6.443 -0.13 +0.00    +0.070 A 
DOCKED: ATOM     19  C   UNL d   1     -14.619   9.153   6.276 -0.15 -0.01    +0.052 C 
DOCKED: ATOM     20  C   UNL d   1     -13.395   3.046   6.434 -0.10 +0.01    +0.066 A 
DOCKED: ATOM     21  C   UNL d   1     -12.730   1.914   6.897 -0.17 -0.01    -0.025 A 
DOCKED: ATOM     22  C   UNL d   1     -13.297   0.838   6.252 -0.13 -0.01    -0.021 A 
DOCKED: ATOM     23  C   UNL d   1     -14.278   1.357   5.401 -0.07 +0.03    +0.066 A 
DOCKED: ATOM     24  C   UNL d   1     -11.609   1.862   7.902 -0.27 +0.01    +0.051 C 
DOCKED: ATOM     25  N   UNL d   1     -16.297   2.380   3.462 -0.07 -0.06    -0.248 N 
DOCKED: ATOM     26  N   UNL d   1     -16.808   5.246   3.508 -0.07 -0.03    -0.248 N 
DOCKED: ATOM     27  N   UNL d   1     -14.831   5.559   5.510 -0.05 -0.02    -0.248 N 
DOCKED: ATOM     28  N   UNL d   1     -14.304   2.703   5.482 -0.03 -0.07    -0.248 N 
DOCKED: ATOM     29 FE   UNL d   1     -15.545   3.967   4.503 -0.02 +0.00    +0.000 Fe
DOCKED: ATOM     30  O   UNL d   1     -15.111   3.933   3.009 -0.22 +0.00    +0.000 OA
DOCKED: ATOM     31  O   UNL d   1     -14.072   4.358   4.115 -0.17 +0.00    +0.000 OA
DOCKED: ENDROOT
DOCKED: BRANCH   6  32
DOCKED: ATOM     32  C   UNL d   1     -16.546  -1.176   2.403 -0.09 +0.03    +0.052 C 
DOCKED: BRANCH  32  33
DOCKED: ATOM     33  C   UNL d   1     -15.931  -1.462   1.036 -0.13 +0.06    +0.115 C 
DOCKED: BRANCH  33  34
DOCKED: ATOM     34  C   UNL d   1     -14.750  -2.396   1.121 -0.05 +0.15    +0.139 C 
DOCKED: ATOM     35  O   UNL d   1     -14.838  -3.422   1.776 -0.52 -0.96    -0.650 OA
DOCKED: BRANCH  34  36
DOCKED: ATOM     36  O   UNL d   1     -13.581  -2.110   0.509 -0.08 -0.72    -0.776 OA
DOCKED: ATOM     37  H   UNL d   1     -13.423  -2.327  -0.417 +0.05 +0.09    +0.167 HD
DOCKED: ENDBRANCH  34  36
DOCKED: ENDBRANCH  33  34
DOCKED: ENDBRANCH  32  33
DOCKED: ENDBRANCH   6  32
DOCKED: BRANCH  22  38
DOCKED: ATOM     38  C   UNL d   1     -12.870  -0.600   6.400 -0.18 +0.05    +0.052 C 
DOCKED: BRANCH  38  39
DOCKED: ATOM     39  C   UNL d   1     -14.042  -1.525   6.720 -0.08 +0.11    +0.115 C 
DOCKED: BRANCH  39  40
DOCKED: ATOM     40  C   UNL d   1     -13.653  -2.981   6.686 +0.13 +0.18    +0.139 C 
DOCKED: ATOM     41  O   UNL d   1     -12.849  -3.413   7.495 -0.07 -0.49    -0.650 OA
DOCKED: BRANCH  40  42
DOCKED: ATOM     42  O   UNL d   1     -14.218  -3.832   5.806 -0.47 -1.29    -0.776 OA
DOCKED: ATOM     43  H   UNL d   1     -14.840  -4.512   6.090 +0.01 +0.14    +0.167 HD
DOCKED: ENDBRANCH  40  42
DOCKED: ENDBRANCH  39  40
DOCKED: ENDBRANCH  38  39
DOCKED: ENDBRANCH  22  38
DOCKED: BRANCH  12  44
DOCKED: ATOM     44  C   UNL d   1     -18.746   8.417   2.803 -0.18 +0.00    +0.004 C 
DOCKED: ATOM     45  C   UNL d   1     -18.165   9.569   2.472 -0.19 -0.00    +0.012 C 
DOCKED: ENDBRANCH  12  44
DOCKED: BRANCH  17  46
DOCKED: ATOM     46  C   UNL d   1     -12.410   7.152   7.832 -0.38 -0.00    +0.004 C 
DOCKED: ATOM     47  C   UNL d   1     -11.495   6.319   8.344 -0.44 -0.00    +0.012 C 
DOCKED: ENDBRANCH  17  46
DOCKED: TORSDOF 10
DOCKED: TER
DOCKED: ENDMDL
________________________________________________________________________________


	BEGINNING GENETIC ALGORITHM DOCKING 65 of 100
Run: 65 Seed: 1862757921 204015989 [ Run 65 of 100 GA/GALS ]
Beginning LAMARCKIAN GENETIC ALGORITHM (LGA), with a maximum of 25000000 energy evaluations.

Final-Value: -10.958


	FINAL GENETIC ALGORITHM DOCKED STATE
	_______________________________________________


Detailed state:  trans 5.993 -0.452 -18.201 quatxyzw 0.833748 0.001965 0.273267 -0.479776 center 8.287 34.468 -0.670 ntor 10 45.9895 -178.5633 42.2322 -45.0592 -0.3799 133.2089 40.1790 -79.9365 15.8742 -5.8768
State:	  5.993  -0.452 -18.201   0.950  0.002  0.311 -122.659     45.99 -178.56   42.23  -45.06   -0.38  133.21   40.18  -79.94   15.87   -5.88

DOCKED: MODEL       65
DOCKED: USER    Run = 65
DOCKED: USER    DPF = D:/Protein_go_brrr/autodock/final/mut_D99N/heme_O2/dock.dpf
DOCKED: USER  
DOCKED: USER    Estimated Free Energy of Binding    =   -5.95 kcal/mol  [=(1)+(2)+(3)-(4)]
DOCKED: USER    Estimated Inhibition Constant, Ki   =   43.58 uM (micromolar)  [Temperature = 298.15 K]
DOCKED: USER    
DOCKED: USER    (1) Final Intermolecular Energy     =   -8.93 kcal/mol
DOCKED: USER        vdW + Hbond + desolv Energy     =   -6.47 kcal/mol
DOCKED: USER        Electrostatic Energy            =   -2.46 kcal/mol
DOCKED: USER    (2) Final Total Internal Energy     =   -2.03 kcal/mol
DOCKED: USER    (3) Torsional Free Energy           =   +2.98 kcal/mol
DOCKED: USER    (4) Unbound System's Energy  [=(2)] =   -2.03 kcal/mol
DOCKED: USER    
DOCKED: USER    
DOCKED: USER    NEWDPF move heme_O2_opt.pdbqt
DOCKED: USER    NEWDPF about 8.287000 34.468000 -0.670000
DOCKED: USER    NEWDPF tran0 5.992661 -0.452475 -18.201407
DOCKED: USER    NEWDPF quaternion0 0.833748 0.001965 0.273267 -0.479776
DOCKED: USER    NEWDPF axisangle0 0.950258 0.002239 0.311454 -122.658506
DOCKED: USER    NEWDPF quat0 0.950258 0.002239 0.311454 -122.658506
DOCKED: USER    NEWDPF dihe0 45.99 -178.56 42.23 -45.06 -0.38 133.21 40.18 -79.94 15.87 -5.88 
DOCKED: USER  keepresnum = 1 
DOCKED: USER  
DOCKED: REMARK  10 active torsions:
DOCKED: REMARK  status: ('A' for Active; 'I' for Inactive)
DOCKED: REMARK    1  A    between atoms: C_6  and  C_10 
DOCKED: REMARK    2  A    between atoms: C_10  and  C_11 
DOCKED: REMARK    3  A    between atoms: C_11  and  C_12 
DOCKED: REMARK    4  A    between atoms: C_12  and  O_14 
DOCKED: REMARK    5  A    between atoms: C_17  and  C_20 
DOCKED: REMARK    6  A    between atoms: C_24  and  C_27 
DOCKED: REMARK    7  A    between atoms: C_31  and  C_34 
DOCKED: REMARK    8  A    between atoms: C_34  and  C_35 
DOCKED: REMARK    9  A    between atoms: C_35  and  C_36 
DOCKED: REMARK   10  A    between atoms: C_36  and  O_38 
DOCKED: USER                              x       y       z     vdW  Elec       q    Type
DOCKED: USER                           _______ _______ _______ _____ _____    ______ ____
DOCKED: ROOT
DOCKED: ATOM      1  C   UNL d   1       3.880  -0.635 -18.256 -0.22 +0.02    +0.064 A 
DOCKED: ATOM      2  C   UNL d   1       7.282  -1.813 -21.354 -0.12 +0.01    +0.064 A 
DOCKED: ATOM      3  C   UNL d   1      10.679  -0.113 -18.410 -0.05 +0.02    +0.064 C 
DOCKED: ATOM      4  C   UNL d   1       7.229   0.668 -15.011 -0.16 +0.02    +0.064 A 
DOCKED: ATOM      5  C   UNL d   1       4.528  -1.095 -19.338 -0.13 +0.02    +0.066 A 
DOCKED: ATOM      6  C   UNL d   1       3.894  -1.654 -20.451 -0.15 -0.01    -0.021 A 
DOCKED: ATOM      7  C   UNL d   1       4.881  -2.036 -21.330 -0.11 -0.00    -0.025 A 
DOCKED: ATOM      8  C   UNL d   1       6.088  -1.655 -20.751 -0.03 +0.01    +0.066 A 
DOCKED: ATOM      9  C   UNL d   1       4.642  -2.755 -22.639 -0.14 +0.01    +0.051 C 
DOCKED: ATOM     10  C   UNL d   1       8.579  -1.413 -20.806 -0.08 +0.01    +0.066 A 
DOCKED: ATOM     11  C   UNL d   1       9.769  -1.450 -21.541 -0.03 -0.00    -0.021 A 
DOCKED: ATOM     12  C   UNL d   1      10.757  -0.947 -20.715 -0.02 +0.00    +0.000 A 
DOCKED: ATOM     13  C   UNL d   1      10.102  -0.636 -19.492 -0.03 +0.02    +0.070 A 
DOCKED: ATOM     14  C   UNL d   1       9.951  -1.920 -22.980 -0.02 +0.00    +0.052 C 
DOCKED: ATOM     15  C   UNL d   1      10.058   0.183 -17.142 -0.08 +0.02    +0.066 A 
DOCKED: ATOM     16  C   UNL d   1      10.749   0.575 -15.996 -0.09 -0.01    -0.021 A 
DOCKED: ATOM     17  C   UNL d   1       9.786   0.802 -15.013 -0.12 +0.00    +0.000 A 
DOCKED: ATOM     18  C   UNL d   1       8.563   0.531 -15.642 -0.12 +0.02    +0.070 A 
DOCKED: ATOM     19  C   UNL d   1      12.254   0.643 -15.925 -0.07 +0.01    +0.052 C 
DOCKED: ATOM     20  C   UNL d   1       6.040   0.374 -15.572 -0.20 +0.02    +0.066 A 
DOCKED: ATOM     21  C   UNL d   1       4.814   0.541 -14.934 -0.28 -0.01    -0.025 A 
DOCKED: ATOM     22  C   UNL d   1       3.847   0.200 -15.853 -0.28 -0.01    -0.021 A 
DOCKED: ATOM     23  C   UNL d   1       4.522  -0.180 -17.017 -0.22 +0.02    +0.066 A 
DOCKED: ATOM     24  C   UNL d   1       4.578   0.998 -13.518 -0.31 +0.01    +0.051 C 
DOCKED: ATOM     25  N   UNL d   1       5.874  -1.135 -19.495 -0.09 -0.06    -0.248 N 
DOCKED: ATOM     26  N   UNL d   1       8.777  -0.927 -19.554 -0.04 -0.05    -0.248 N 
DOCKED: ATOM     27  N   UNL d   1       8.752   0.084 -16.910 -0.08 -0.09    -0.248 N 
DOCKED: ATOM     28  N   UNL d   1       5.856  -0.116 -16.827 -0.11 -0.07    -0.248 N 
DOCKED: ATOM     29 FE   UNL d   1       7.308  -0.518 -18.178 -0.03 +0.00    +0.000 Fe
DOCKED: ATOM     30  O   UNL d   1       7.281  -2.058 -18.401 -0.35 +0.00    +0.000 OA
DOCKED: ATOM     31  O   UNL d   1       7.523  -1.482 -16.955 -0.38 +0.00    +0.000 OA
DOCKED: ENDROOT
DOCKED: BRANCH   6  32
DOCKED: ATOM     32  C   UNL d   1       2.426  -1.947 -20.627 -0.28 +0.02    +0.052 C 
DOCKED: BRANCH  32  33
DOCKED: ATOM     33  C   UNL d   1       1.704  -0.882 -21.447 -0.12 +0.04    +0.115 C 
DOCKED: BRANCH  33  34
DOCKED: ATOM     34  C   UNL d   1       0.316  -0.600 -20.928 -0.16 +0.10    +0.139 C 
DOCKED: ATOM     35  O   UNL d   1      -0.550  -0.218 -21.699 -0.00 -0.38    -0.650 OA
DOCKED: BRANCH  34  36
DOCKED: ATOM     36  O   UNL d   1       0.014  -0.733 -19.620 -0.33 -1.30    -0.776 OA
DOCKED: ATOM     37  H   UNL d   1       0.580  -0.378 -18.926 -0.38 +0.24    +0.167 HD
DOCKED: ENDBRANCH  34  36
DOCKED: ENDBRANCH  33  34
DOCKED: ENDBRANCH  32  33
DOCKED: ENDBRANCH   6  32
DOCKED: BRANCH  22  38
DOCKED: ATOM     38  C   UNL d   1       2.362   0.182 -15.599 -0.25 +0.02    +0.052 C 
DOCKED: BRANCH  38  39
DOCKED: ATOM     39  C   UNL d   1       1.678   1.470 -16.051 -0.22 +0.06    +0.115 C 
DOCKED: BRANCH  39  40
DOCKED: ATOM     40  C   UNL d   1       1.023   1.331 -17.403 -0.16 +0.11    +0.139 C 
DOCKED: ATOM     41  O   UNL d   1       1.694   1.448 -18.416 +0.00 -0.34    -0.650 OA
DOCKED: BRANCH  40  42
DOCKED: ATOM     42  O   UNL d   1      -0.285   1.028 -17.514 +0.13 -1.31    -0.776 OA
DOCKED: ATOM     43  H   UNL d   1      -0.697   0.879 -18.374 +0.03 +0.35    +0.167 HD
DOCKED: ENDBRANCH  40  42
DOCKED: ENDBRANCH  39  40
DOCKED: ENDBRANCH  38  39
DOCKED: ENDBRANCH  22  38
DOCKED: BRANCH  12  44
DOCKED: ATOM     44  C   UNL d   1      12.197  -0.821 -21.169 -0.00 +0.00    +0.004 C 
DOCKED: ATOM     45  C   UNL d   1      13.302  -1.034 -20.455 +0.00 +0.00    +0.012 C 
DOCKED: ENDBRANCH  12  44
DOCKED: BRANCH  17  46
DOCKED: ATOM     46  C   UNL d   1       9.925   1.185 -13.563 -0.22 +0.00    +0.004 C 
DOCKED: ATOM     47  C   UNL d   1      10.674   0.600 -12.620 -0.35 +0.00    +0.012 C 
DOCKED: ENDBRANCH  17  46
DOCKED: TORSDOF 10
DOCKED: TER
DOCKED: ENDMDL
________________________________________________________________________________


	BEGINNING GENETIC ALGORITHM DOCKING 66 of 100
Run: 66 Seed: 1380084699 231180361 [ Run 66 of 100 GA/GALS ]
Beginning LAMARCKIAN GENETIC ALGORITHM (LGA), with a maximum of 25000000 energy evaluations.

Final-Value: -9.949


	FINAL GENETIC ALGORITHM DOCKED STATE
	_______________________________________________


Detailed state:  trans -14.580 5.346 8.859 quatxyzw 0.630663 0.253346 -0.578942 0.450451 center 8.287 34.468 -0.670 ntor 10 -19.5609 -64.6652 -48.5769 -33.0927 63.4840 180.0000 -155.3641 -6.3232 4.6756 -177.0346
State:	-14.580   5.346   8.859   0.706  0.284 -0.648 126.455    -19.56  -64.67  -48.58  -33.09   63.48  180.00 -155.36   -6.32    4.68 -177.03

DOCKED: MODEL       66
DOCKED: USER    Run = 66
DOCKED: USER    DPF = D:/Protein_go_brrr/autodock/final/mut_D99N/heme_O2/dock.dpf
DOCKED: USER  
DOCKED: USER    Estimated Free Energy of Binding    =   -6.28 kcal/mol  [=(1)+(2)+(3)-(4)]
DOCKED: USER    Estimated Inhibition Constant, Ki   =   24.94 uM (micromolar)  [Temperature = 298.15 K]
DOCKED: USER    
DOCKED: USER    (1) Final Intermolecular Energy     =   -9.26 kcal/mol
DOCKED: USER        vdW + Hbond + desolv Energy     =   -6.05 kcal/mol
DOCKED: USER        Electrostatic Energy            =   -3.22 kcal/mol
DOCKED: USER    (2) Final Total Internal Energy     =   -0.69 kcal/mol
DOCKED: USER    (3) Torsional Free Energy           =   +2.98 kcal/mol
DOCKED: USER    (4) Unbound System's Energy  [=(2)] =   -0.69 kcal/mol
DOCKED: USER    
DOCKED: USER    
DOCKED: USER    NEWDPF move heme_O2_opt.pdbqt
DOCKED: USER    NEWDPF about 8.287000 34.468000 -0.670000
DOCKED: USER    NEWDPF tran0 -14.579805 5.346251 8.858765
DOCKED: USER    NEWDPF quaternion0 0.630663 0.253346 -0.578942 0.450451
DOCKED: USER    NEWDPF axisangle0 0.706387 0.283766 -0.648456 126.454692
DOCKED: USER    NEWDPF quat0 0.706387 0.283766 -0.648456 126.454692
DOCKED: USER    NEWDPF dihe0 -19.56 -64.67 -48.58 -33.09 63.48 180.00 -155.36 -6.32 4.68 -177.03 
DOCKED: USER  keepresnum = 1 
DOCKED: USER  
DOCKED: REMARK  10 active torsions:
DOCKED: REMARK  status: ('A' for Active; 'I' for Inactive)
DOCKED: REMARK    1  A    between atoms: C_6  and  C_10 
DOCKED: REMARK    2  A    between atoms: C_10  and  C_11 
DOCKED: REMARK    3  A    between atoms: C_11  and  C_12 
DOCKED: REMARK    4  A    between atoms: C_12  and  O_14 
DOCKED: REMARK    5  A    between atoms: C_17  and  C_20 
DOCKED: REMARK    6  A    between atoms: C_24  and  C_27 
DOCKED: REMARK    7  A    between atoms: C_31  and  C_34 
DOCKED: REMARK    8  A    between atoms: C_34  and  C_35 
DOCKED: REMARK    9  A    between atoms: C_35  and  C_36 
DOCKED: REMARK   10  A    between atoms: C_36  and  O_38 
DOCKED: USER                              x       y       z     vdW  Elec       q    Type
DOCKED: USER                           _______ _______ _______ _____ _____    ______ ____
DOCKED: ROOT
DOCKED: ATOM      1  C   UNL d   1     -14.311   3.273   9.218 -0.12 +0.02    +0.064 A 
DOCKED: ATOM      2  C   UNL d   1     -17.077   6.550  11.260 -0.03 +0.01    +0.064 A 
DOCKED: ATOM      3  C   UNL d   1     -15.336   9.961   8.356 -0.15 -0.01    +0.064 C 
DOCKED: ATOM      4  C   UNL d   1     -12.838   6.507   5.930 -0.22 -0.01    +0.064 A 
DOCKED: ATOM      5  C   UNL d   1     -15.207   3.886  10.009 -0.03 +0.03    +0.066 A 
DOCKED: ATOM      6  C   UNL d   1     -15.927   3.243  11.020 -0.08 -0.01    -0.021 A 
DOCKED: ATOM      7  C   UNL d   1     -16.760   4.182  11.583 -0.07 -0.01    -0.025 A 
DOCKED: ATOM      8  C   UNL d   1     -16.490   5.383  10.933 +0.04 +0.02    +0.066 A 
DOCKED: ATOM      9  C   UNL d   1     -17.774   3.898  12.669 -0.02 +0.01    +0.051 C 
DOCKED: ATOM     10  C   UNL d   1     -16.818   7.846  10.630 -0.06 +0.01    +0.066 A 
DOCKED: ATOM     11  C   UNL d   1     -17.331   9.054  11.115 -0.06 -0.00    -0.021 A 
DOCKED: ATOM     12  C   UNL d   1     -16.826  10.051  10.302 -0.08 -0.00    +0.000 A 
DOCKED: ATOM     13  C   UNL d   1     -16.025   9.379   9.337 -0.11 -0.00    +0.070 A 
DOCKED: ATOM     14  C   UNL d   1     -18.243   9.251  12.320 -0.03 +0.00    +0.052 C 
DOCKED: ATOM     15  C   UNL d   1     -14.542   9.314   7.339 -0.16 -0.01    +0.066 A 
DOCKED: ATOM     16  C   UNL d   1     -13.980   9.966   6.242 -0.21 +0.00    -0.021 A 
DOCKED: ATOM     17  C   UNL d   1     -13.263   9.000   5.535 -0.24 -0.00    +0.000 A 
DOCKED: ATOM     18  C   UNL d   1     -13.443   7.817   6.265 -0.19 -0.01    +0.070 A 
DOCKED: ATOM     19  C   UNL d   1     -14.219  11.424   5.940 -0.19 -0.02    +0.052 C 
DOCKED: ATOM     20  C   UNL d   1     -13.024   5.343   6.583 -0.20 +0.00    +0.066 A 
DOCKED: ATOM     21  C   UNL d   1     -12.413   4.143   6.230 -0.23 -0.00    -0.025 A 
DOCKED: ATOM     22  C   UNL d   1     -12.799   3.217   7.172 -0.19 -0.00    -0.021 A 
DOCKED: ATOM     23  C   UNL d   1     -13.651   3.884   8.058 -0.14 +0.02    +0.066 A 
DOCKED: ATOM     24  C   UNL d   1     -11.508   3.893   5.052 -0.33 +0.01    +0.051 C 
DOCKED: ATOM     25  N   UNL d   1     -15.581   5.186   9.920 +0.07 -0.11    -0.248 N 
DOCKED: ATOM     26  N   UNL d   1     -16.029   8.037   9.542 -0.06 -0.02    -0.248 N 
DOCKED: ATOM     27  N   UNL d   1     -14.283   8.010   7.314 -0.11 +0.01    -0.248 N 
DOCKED: ATOM     28  N   UNL d   1     -13.821   5.165   7.670 -0.10 -0.04    -0.248 N 
DOCKED: ATOM     29 FE   UNL d   1     -14.916   6.593   8.597 -0.04 +0.00    +0.000 Fe
DOCKED: ATOM     30  O   UNL d   1     -16.408   6.195   8.395 -0.08 +0.00    +0.000 OA
DOCKED: ATOM     31  O   UNL d   1     -15.486   6.432   7.140 -0.09 +0.00    +0.000 OA
DOCKED: ENDROOT
DOCKED: BRANCH   6  32
DOCKED: ATOM     32  C   UNL d   1     -15.937   1.774  11.356 -0.04 +0.02    +0.052 C 
DOCKED: BRANCH  32  33
DOCKED: ATOM     33  C   UNL d   1     -14.849   1.387  12.353 -0.09 +0.05    +0.115 C 
DOCKED: BRANCH  33  34
DOCKED: ATOM     34  C   UNL d   1     -14.378   2.562  13.175 -0.18 +0.12    +0.139 C 
DOCKED: ATOM     35  O   UNL d   1     -13.478   3.271  12.754 -0.34 -0.71    -0.650 OA
DOCKED: BRANCH  34  36
DOCKED: ATOM     36  O   UNL d   1     -14.912   2.833  14.384 +0.00 -0.94    -0.776 OA
DOCKED: ATOM     37  H   UNL d   1     -15.769   2.484  14.654 +0.02 +0.12    +0.167 HD
DOCKED: ENDBRANCH  34  36
DOCKED: ENDBRANCH  33  34
DOCKED: ENDBRANCH  32  33
DOCKED: ENDBRANCH   6  32
DOCKED: BRANCH  22  38
DOCKED: ATOM     38  C   UNL d   1     -12.420   1.759   7.178 -0.22 +0.02    +0.052 C 
DOCKED: BRANCH  38  39
DOCKED: ATOM     39  C   UNL d   1     -13.187   0.954   6.131 -0.14 +0.06    +0.115 C 
DOCKED: BRANCH  39  40
DOCKED: ATOM     40  C   UNL d   1     -12.684  -0.463   6.010 -0.11 +0.16    +0.139 C 
DOCKED: ATOM     41  O   UNL d   1     -11.493  -0.696   6.143 -0.42 -0.73    -0.650 OA
DOCKED: BRANCH  40  42
DOCKED: ATOM     42  O   UNL d   1     -13.534  -1.488   5.808 +0.06 -1.45    -0.776 OA
DOCKED: ATOM     43  H   UNL d   1     -14.218  -1.711   6.451 +0.02 +0.18    +0.167 HD
DOCKED: ENDBRANCH  40  42
DOCKED: ENDBRANCH  39  40
DOCKED: ENDBRANCH  38  39
DOCKED: ENDBRANCH  22  38
DOCKED: BRANCH  12  44
DOCKED: ATOM     44  C   UNL d   1     -17.156  11.513  10.522 -0.07 -0.00    +0.004 C 
DOCKED: ATOM     45  C   UNL d   1     -16.309  12.533  10.649 -0.11 -0.01    +0.012 C 
DOCKED: ENDBRANCH  12  44
DOCKED: BRANCH  17  46
DOCKED: ATOM     46  C   UNL d   1     -12.498   9.088   4.242 -0.39 -0.00    +0.004 C 
DOCKED: ATOM     47  C   UNL d   1     -12.826   9.756   3.128 -0.51 -0.00    +0.012 C 
DOCKED: ENDBRANCH  17  46
DOCKED: TORSDOF 10
DOCKED: TER
DOCKED: ENDMDL
________________________________________________________________________________


	BEGINNING GENETIC ALGORITHM DOCKING 67 of 100
Run: 67 Seed: 787511155 33362650 [ Run 67 of 100 GA/GALS ]
Beginning LAMARCKIAN GENETIC ALGORITHM (LGA), with a maximum of 25000000 energy evaluations.

Final-Value: -9.955


	FINAL GENETIC ALGORITHM DOCKED STATE
	_______________________________________________


Detailed state:  trans 20.348 -3.496 2.667 quatxyzw 0.427829 0.292940 -0.833079 0.192686 center 8.287 34.468 -0.670 ntor 10 25.2732 102.0573 28.4459 -109.7565 61.8584 -127.9681 -15.3132 -50.1891 7.0956 35.2437
State:	 20.348  -3.496   2.667   0.436  0.299 -0.849 157.781     25.27  102.06   28.45 -109.76   61.86 -127.97  -15.31  -50.19    7.10   35.24

DOCKED: MODEL       67
DOCKED: USER    Run = 67
DOCKED: USER    DPF = D:/Protein_go_brrr/autodock/final/mut_D99N/heme_O2/dock.dpf
DOCKED: USER  
DOCKED: USER    Estimated Free Energy of Binding    =   -5.29 kcal/mol  [=(1)+(2)+(3)-(4)]
DOCKED: USER    Estimated Inhibition Constant, Ki   =  133.19 uM (micromolar)  [Temperature = 298.15 K]
DOCKED: USER    
DOCKED: USER    (1) Final Intermolecular Energy     =   -8.27 kcal/mol
DOCKED: USER        vdW + Hbond + desolv Energy     =   -6.66 kcal/mol
DOCKED: USER        Electrostatic Energy            =   -1.61 kcal/mol
DOCKED: USER    (2) Final Total Internal Energy     =   -1.68 kcal/mol
DOCKED: USER    (3) Torsional Free Energy           =   +2.98 kcal/mol
DOCKED: USER    (4) Unbound System's Energy  [=(2)] =   -1.68 kcal/mol
DOCKED: USER    
DOCKED: USER    
DOCKED: USER    NEWDPF move heme_O2_opt.pdbqt
DOCKED: USER    NEWDPF about 8.287000 34.468000 -0.670000
DOCKED: USER    NEWDPF tran0 20.348472 -3.496391 2.666926
DOCKED: USER    NEWDPF quaternion0 0.427829 0.292940 -0.833079 0.192686
DOCKED: USER    NEWDPF axisangle0 0.435999 0.298534 -0.848989 157.780861
DOCKED: USER    NEWDPF quat0 0.435999 0.298534 -0.848989 157.780861
DOCKED: USER    NEWDPF dihe0 25.27 102.06 28.45 -109.76 61.86 -127.97 -15.31 -50.19 7.10 35.24 
DOCKED: USER  keepresnum = 1 
DOCKED: USER  
DOCKED: REMARK  10 active torsions:
DOCKED: REMARK  status: ('A' for Active; 'I' for Inactive)
DOCKED: REMARK    1  A    between atoms: C_6  and  C_10 
DOCKED: REMARK    2  A    between atoms: C_10  and  C_11 
DOCKED: REMARK    3  A    between atoms: C_11  and  C_12 
DOCKED: REMARK    4  A    between atoms: C_12  and  O_14 
DOCKED: REMARK    5  A    between atoms: C_17  and  C_20 
DOCKED: REMARK    6  A    between atoms: C_24  and  C_27 
DOCKED: REMARK    7  A    between atoms: C_31  and  C_34 
DOCKED: REMARK    8  A    between atoms: C_34  and  C_35 
DOCKED: REMARK    9  A    between atoms: C_35  and  C_36 
DOCKED: REMARK   10  A    between atoms: C_36  and  O_38 
DOCKED: USER                              x       y       z     vdW  Elec       q    Type
DOCKED: USER                           _______ _______ _______ _____ _____    ______ ____
DOCKED: ROOT
DOCKED: ATOM      1  C   UNL d   1      22.013  -4.761   3.026 -0.17 +0.01    +0.064 A 
DOCKED: ATOM      2  C   UNL d   1      18.487  -3.231   5.815 -0.14 +0.00    +0.064 A 
DOCKED: ATOM      3  C   UNL d   1      16.616  -0.672   2.203 -0.17 -0.00    +0.064 C 
DOCKED: ATOM      4  C   UNL d   1      19.968  -2.619  -0.804 -0.16 -0.00    +0.064 A 
DOCKED: ATOM      5  C   UNL d   1      21.206  -4.555   4.079 -0.17 +0.01    +0.066 A 
DOCKED: ATOM      6  C   UNL d   1      21.415  -5.107   5.346 -0.16 -0.01    -0.021 A 
DOCKED: ATOM      7  C   UNL d   1      20.371  -4.700   6.143 -0.12 -0.00    -0.025 A 
DOCKED: ATOM      8  C   UNL d   1      19.578  -3.871   5.354 -0.12 +0.01    +0.066 A 
DOCKED: ATOM      9  C   UNL d   1      20.160  -5.128   7.578 -0.07 +0.01    +0.051 C 
DOCKED: ATOM     10  C   UNL d   1      17.629  -2.331   5.042 -0.20 -0.00    +0.066 A 
DOCKED: ATOM     11  C   UNL d   1      16.605  -1.566   5.611 -0.27 +0.00    -0.021 A 
DOCKED: ATOM     12  C   UNL d   1      16.066  -0.808   4.589 -0.26 -0.00    +0.000 A 
DOCKED: ATOM     13  C   UNL d   1      16.799  -1.171   3.425 -0.19 -0.00    +0.070 A 
DOCKED: ATOM     14  C   UNL d   1      16.178  -1.538   7.074 -0.07 +0.00    +0.052 C 
DOCKED: ATOM     15  C   UNL d   1      17.313  -1.039   0.994 -0.17 -0.00    +0.066 A 
DOCKED: ATOM     16  C   UNL d   1      16.964  -0.601  -0.284 -0.23 +0.00    -0.021 A 
DOCKED: ATOM     17  C   UNL d   1      17.905  -1.144  -1.158 -0.24 -0.00    +0.000 A 
DOCKED: ATOM     18  C   UNL d   1      18.771  -1.881  -0.337 -0.16 -0.01    +0.070 A 
DOCKED: ATOM     19  C   UNL d   1      15.744   0.243  -0.559 -0.26 -0.01    +0.052 C 
DOCKED: ATOM     20  C   UNL d   1      20.794  -3.370  -0.051 -0.13 -0.00    +0.066 A 
DOCKED: ATOM     21  C   UNL d   1      21.918  -4.028  -0.544 -0.11 -0.00    -0.025 A 
DOCKED: ATOM     22  C   UNL d   1      22.528  -4.622   0.538 -0.12 -0.00    -0.021 A 
DOCKED: ATOM     23  C   UNL d   1      21.741  -4.318   1.654 -0.15 +0.01    +0.066 A 
DOCKED: ATOM     24  C   UNL d   1      22.383  -4.090  -1.975 -0.14 +0.00    +0.051 C 
DOCKED: ATOM     25  N   UNL d   1      20.057  -3.835   4.065 -0.11 -0.03    -0.248 N 
DOCKED: ATOM     26  N   UNL d   1      17.745  -2.102   3.709 -0.13 +0.02    -0.248 N 
DOCKED: ATOM     27  N   UNL d   1      18.352  -1.867   0.954 -0.08 +0.02    -0.248 N 
DOCKED: ATOM     28  N   UNL d   1      20.664  -3.595   1.284 -0.09 -0.00    -0.248 N 
DOCKED: ATOM     29 FE   UNL d   1      19.214  -2.853   2.485 -0.04 -0.00    +0.000 Fe
DOCKED: ATOM     30  O   UNL d   1      18.388  -4.077   2.977 -0.08 -0.00    +0.000 OA
DOCKED: ATOM     31  O   UNL d   1      18.519  -3.793   1.433 -0.30 -0.00    +0.000 OA
DOCKED: ENDROOT
DOCKED: BRANCH   6  32
DOCKED: ATOM     32  C   UNL d   1      22.479  -6.091   5.760 -0.01 +0.03    +0.052 C 
DOCKED: BRANCH  32  33
DOCKED: ATOM     33  C   UNL d   1      23.747  -5.413   6.270 -0.08 +0.05    +0.115 C 
DOCKED: BRANCH  33  34
DOCKED: ATOM     34  C   UNL d   1      24.622  -6.352   7.062 -0.03 +0.10    +0.139 C 
DOCKED: ATOM     35  O   UNL d   1      24.455  -6.463   8.266 -0.01 -0.30    -0.650 OA
DOCKED: BRANCH  34  36
DOCKED: ATOM     36  O   UNL d   1      25.611  -7.056   6.473 -0.14 -1.00    -0.776 OA
DOCKED: ATOM     37  H   UNL d   1      26.039  -6.756   5.663 -0.00 +0.18    +0.167 HD
DOCKED: ENDBRANCH  34  36
DOCKED: ENDBRANCH  33  34
DOCKED: ENDBRANCH  32  33
DOCKED: ENDBRANCH   6  32
DOCKED: BRANCH  22  38
DOCKED: ATOM     38  C   UNL d   1      23.762  -5.485   0.486 -0.11 +0.01    +0.052 C 
DOCKED: BRANCH  38  39
DOCKED: ATOM     39  C   UNL d   1      24.743  -5.167   1.613 -0.07 +0.03    +0.115 C 
DOCKED: BRANCH  39  40
DOCKED: ATOM     40  C   UNL d   1      25.164  -6.398   2.375 -0.08 +0.08    +0.139 C 
DOCKED: ATOM     41  O   UNL d   1      24.978  -7.503   1.892 -0.01 -0.44    -0.650 OA
DOCKED: BRANCH  40  42
DOCKED: ATOM     42  O   UNL d   1      25.793  -6.300   3.562 +0.01 -0.54    -0.776 OA
DOCKED: ATOM     43  H   UNL d   1      25.336  -6.483   4.392 +0.01 +0.17    +0.167 HD
DOCKED: ENDBRANCH  40  42
DOCKED: ENDBRANCH  39  40
DOCKED: ENDBRANCH  38  39
DOCKED: ENDBRANCH  22  38
DOCKED: BRANCH  12  44
DOCKED: ATOM     44  C   UNL d   1      14.927   0.162   4.823 -0.33 -0.00    +0.004 C 
DOCKED: ATOM     45  C   UNL d   1      14.038   0.611   3.936 -0.36 -0.00    +0.012 C 
DOCKED: ENDBRANCH  12  44
DOCKED: BRANCH  17  46
DOCKED: ATOM     46  C   UNL d   1      18.017  -1.074  -2.657 -0.23 -0.00    +0.004 C 
DOCKED: ATOM     47  C   UNL d   1      17.946  -2.078  -3.541 -0.41 -0.00    +0.012 C 
DOCKED: ENDBRANCH  17  46
DOCKED: TORSDOF 10
DOCKED: TER
DOCKED: ENDMDL
________________________________________________________________________________


	BEGINNING GENETIC ALGORITHM DOCKING 68 of 100
Run: 68 Seed: 133971206 1399583989 [ Run 68 of 100 GA/GALS ]
Beginning LAMARCKIAN GENETIC ALGORITHM (LGA), with a maximum of 25000000 energy evaluations.

Final-Value: -10.476


	FINAL GENETIC ALGORITHM DOCKED STATE
	_______________________________________________


Detailed state:  trans -12.399 15.151 -4.679 quatxyzw -0.077873 0.968363 0.136569 -0.193797 center 8.287 34.468 -0.670 ntor 10 31.6281 -103.7203 -42.6379 123.9753 -121.9321 -95.2087 -4.1575 58.0340 -171.1714 135.5782
State:	-12.399  15.151  -4.679  -0.079  0.987  0.139 -157.651     31.63 -103.72  -42.64  123.98 -121.93  -95.21   -4.16   58.03 -171.17  135.58

DOCKED: MODEL       68
DOCKED: USER    Run = 68
DOCKED: USER    DPF = D:/Protein_go_brrr/autodock/final/mut_D99N/heme_O2/dock.dpf
DOCKED: USER  
DOCKED: USER    Estimated Free Energy of Binding    =   -5.28 kcal/mol  [=(1)+(2)+(3)-(4)]
DOCKED: USER    Estimated Inhibition Constant, Ki   =  134.06 uM (micromolar)  [Temperature = 298.15 K]
DOCKED: USER    
DOCKED: USER    (1) Final Intermolecular Energy     =   -8.27 kcal/mol
DOCKED: USER        vdW + Hbond + desolv Energy     =   -6.50 kcal/mol
DOCKED: USER        Electrostatic Energy            =   -1.77 kcal/mol
DOCKED: USER    (2) Final Total Internal Energy     =   -2.21 kcal/mol
DOCKED: USER    (3) Torsional Free Energy           =   +2.98 kcal/mol
DOCKED: USER    (4) Unbound System's Energy  [=(2)] =   -2.21 kcal/mol
DOCKED: USER    
DOCKED: USER    
DOCKED: USER    NEWDPF move heme_O2_opt.pdbqt
DOCKED: USER    NEWDPF about 8.287000 34.468000 -0.670000
DOCKED: USER    NEWDPF tran0 -12.399132 15.151143 -4.678737
DOCKED: USER    NEWDPF quaternion0 -0.077873 0.968363 0.136569 -0.193797
DOCKED: USER    NEWDPF axisangle0 -0.079378 0.987077 0.139208 -157.651084
DOCKED: USER    NEWDPF quat0 -0.079378 0.987077 0.139208 -157.651084
DOCKED: USER    NEWDPF dihe0 31.63 -103.72 -42.64 123.98 -121.93 -95.21 -4.16 58.03 -171.17 135.58 
DOCKED: USER  keepresnum = 1 
DOCKED: USER  
DOCKED: REMARK  10 active torsions:
DOCKED: REMARK  status: ('A' for Active; 'I' for Inactive)
DOCKED: REMARK    1  A    between atoms: C_6  and  C_10 
DOCKED: REMARK    2  A    between atoms: C_10  and  C_11 
DOCKED: REMARK    3  A    between atoms: C_11  and  C_12 
DOCKED: REMARK    4  A    between atoms: C_12  and  O_14 
DOCKED: REMARK    5  A    between atoms: C_17  and  C_20 
DOCKED: REMARK    6  A    between atoms: C_24  and  C_27 
DOCKED: REMARK    7  A    between atoms: C_31  and  C_34 
DOCKED: REMARK    8  A    between atoms: C_34  and  C_35 
DOCKED: REMARK    9  A    between atoms: C_35  and  C_36 
DOCKED: REMARK   10  A    between atoms: C_36  and  O_38 
DOCKED: USER                              x       y       z     vdW  Elec       q    Type
DOCKED: USER                           _______ _______ _______ _____ _____    ______ ____
DOCKED: ROOT
DOCKED: ATOM      1  C   UNL d   1     -11.098  15.671  -3.086 -0.15 +0.00    +0.064 A 
DOCKED: ATOM      2  C   UNL d   1     -10.303  14.056  -7.481 -0.19 -0.00    +0.064 A 
DOCKED: ATOM      3  C   UNL d   1     -15.023  13.851  -8.360 -0.14 -0.01    +0.064 C 
DOCKED: ATOM      4  C   UNL d   1     -15.842  15.964  -4.009 -0.13 -0.01    +0.064 A 
DOCKED: ATOM      5  C   UNL d   1     -10.497  15.250  -4.210 -0.19 +0.00    +0.066 A 
DOCKED: ATOM      6  C   UNL d   1      -9.112  15.136  -4.362 -0.26 -0.00    -0.021 A 
DOCKED: ATOM      7  C   UNL d   1      -8.878  14.710  -5.648 -0.28 -0.00    -0.025 A 
DOCKED: ATOM      8  C   UNL d   1     -10.129  14.529  -6.232 -0.21 +0.00    +0.066 A 
DOCKED: ATOM      9  C   UNL d   1      -7.509  14.525  -6.264 -0.27 +0.01    +0.051 C 
DOCKED: ATOM     10  C   UNL d   1     -11.589  13.823  -8.139 -0.17 -0.01    +0.066 A 
DOCKED: ATOM     11  C   UNL d   1     -11.716  13.178  -9.374 -0.23 +0.00    -0.021 A 
DOCKED: ATOM     12  C   UNL d   1     -13.071  13.093  -9.636 -0.21 -0.00    +0.000 A 
DOCKED: ATOM     13  C   UNL d   1     -13.707  13.716  -8.527 -0.13 -0.01    +0.070 A 
DOCKED: ATOM     14  C   UNL d   1     -10.594  12.640 -10.254 -0.14 -0.01    +0.052 C 
DOCKED: ATOM     15  C   UNL d   1     -15.705  14.506  -7.270 -0.12 -0.01    +0.066 A 
DOCKED: ATOM     16  C   UNL d   1     -17.076  14.758  -7.232 -0.09 +0.00    -0.021 A 
DOCKED: ATOM     17  C   UNL d   1     -17.333  15.361  -6.001 -0.11 -0.00    +0.000 A 
DOCKED: ATOM     18  C   UNL d   1     -16.083  15.430  -5.370 -0.10 -0.01    +0.070 A 
DOCKED: ATOM     19  C   UNL d   1     -18.000  14.455  -8.385 -0.04 -0.01    +0.052 C 
DOCKED: ATOM     20  C   UNL d   1     -14.651  16.085  -3.391 -0.14 -0.00    +0.066 A 
DOCKED: ATOM     21  C   UNL d   1     -14.488  16.579  -2.100 -0.12 +0.00    -0.025 A 
DOCKED: ATOM     22  C   UNL d   1     -13.146  16.477  -1.810 -0.12 -0.00    -0.021 A 
DOCKED: ATOM     23  C   UNL d   1     -12.534  15.940  -2.946 -0.12 +0.00    +0.066 A 
DOCKED: ATOM     24  C   UNL d   1     -15.558  17.123  -1.190 -0.08 -0.00    +0.051 C 
DOCKED: ATOM     25  N   UNL d   1     -11.124  14.924  -5.367 -0.11 +0.00    -0.248 N 
DOCKED: ATOM     26  N   UNL d   1     -12.798  14.162  -7.624 -0.07 +0.03    -0.248 N 
DOCKED: ATOM     27  N   UNL d   1     -15.096  14.976  -6.185 -0.11 +0.03    -0.248 N 
DOCKED: ATOM     28  N   UNL d   1     -13.446  15.745  -3.921 -0.10 +0.00    -0.248 N 
DOCKED: ATOM     29 FE   UNL d   1     -13.127  14.960  -5.759 -0.04 -0.00    +0.000 Fe
DOCKED: ATOM     30  O   UNL d   1     -12.313  16.024  -6.552 -0.08 -0.00    +0.000 OA
DOCKED: ATOM     31  O   UNL d   1     -13.723  16.401  -5.959 -0.08 -0.00    +0.000 OA
DOCKED: ENDROOT
DOCKED: BRANCH   6  32
DOCKED: ATOM     32  C   UNL d   1      -8.040  15.542  -3.383 -0.27 +0.02    +0.052 C 
DOCKED: BRANCH  32  33
DOCKED: ATOM     33  C   UNL d   1      -7.626  17.003  -3.531 -0.14 +0.05    +0.115 C 
DOCKED: BRANCH  33  34
DOCKED: ATOM     34  C   UNL d   1      -6.668  17.441  -2.451 +0.01 +0.12    +0.139 C 
DOCKED: ATOM     35  O   UNL d   1      -5.468  17.275  -2.606 -0.70 -0.52    -0.650 OA
DOCKED: BRANCH  34  36
DOCKED: ATOM     36  O   UNL d   1      -7.108  17.991  -1.301 -0.26 -0.91    -0.776 OA
DOCKED: ATOM     37  H   UNL d   1      -7.952  17.742  -0.906 +0.02 +0.20    +0.167 HD
DOCKED: ENDBRANCH  34  36
DOCKED: ENDBRANCH  33  34
DOCKED: ENDBRANCH  32  33
DOCKED: ENDBRANCH   6  32
DOCKED: BRANCH  22  38
DOCKED: ATOM     38  C   UNL d   1     -12.486  16.933  -0.534 -0.08 +0.00    +0.052 C 
DOCKED: BRANCH  38  39
DOCKED: ATOM     39  C   UNL d   1     -11.377  17.954  -0.785 -0.04 +0.02    +0.115 C 
DOCKED: BRANCH  39  40
DOCKED: ATOM     40  C   UNL d   1     -10.049  17.512  -0.223 -0.12 +0.07    +0.139 C 
DOCKED: ATOM     41  O   UNL d   1      -9.632  16.391  -0.465 -0.01 -0.43    -0.650 OA
DOCKED: BRANCH  40  42
DOCKED: ATOM     42  O   UNL d   1      -9.287  18.352   0.503 +0.06 -0.52    -0.776 OA
DOCKED: ATOM     43  H   UNL d   1      -8.526  18.803   0.118 +0.01 +0.14    +0.167 HD
DOCKED: ENDBRANCH  40  42
DOCKED: ENDBRANCH  39  40
DOCKED: ENDBRANCH  38  39
DOCKED: ENDBRANCH  22  38
DOCKED: BRANCH  12  44
DOCKED: ATOM     44  C   UNL d   1     -13.607  12.443 -10.894 -0.27 -0.00    +0.004 C 
DOCKED: ATOM     45  C   UNL d   1     -14.595  11.554 -11.000 -0.22 -0.01    +0.012 C 
DOCKED: ENDBRANCH  12  44
DOCKED: BRANCH  17  46
DOCKED: ATOM     46  C   UNL d   1     -18.606  15.911  -5.417 -0.08 -0.00    +0.004 C 
DOCKED: ATOM     47  C   UNL d   1     -19.261  15.500  -4.323 -0.10 -0.00    +0.012 C 
DOCKED: ENDBRANCH  17  46
DOCKED: TORSDOF 10
DOCKED: TER
DOCKED: ENDMDL
________________________________________________________________________________


	BEGINNING GENETIC ALGORITHM DOCKING 69 of 100
Run: 69 Seed: 345458684 1799078815 [ Run 69 of 100 GA/GALS ]
Beginning LAMARCKIAN GENETIC ALGORITHM (LGA), with a maximum of 25000000 energy evaluations.

Final-Value: -10.533


	FINAL GENETIC ALGORITHM DOCKED STATE
	_______________________________________________


Detailed state:  trans -18.276 9.431 2.106 quatxyzw 0.140848 -0.043357 0.245482 -0.958134 center 8.287 34.468 -0.670 ntor 10 -23.3842 37.7278 104.4928 94.9382 65.9394 -136.6813 5.5807 -78.8564 -0.5970 -11.1932
State:	-18.276   9.431   2.106   0.492 -0.151  0.857 -33.276    -23.38   37.73  104.49   94.94   65.94 -136.68    5.58  -78.86   -0.60  -11.19

DOCKED: MODEL       69
DOCKED: USER    Run = 69
DOCKED: USER    DPF = D:/Protein_go_brrr/autodock/final/mut_D99N/heme_O2/dock.dpf
DOCKED: USER  
DOCKED: USER    Estimated Free Energy of Binding    =   -6.58 kcal/mol  [=(1)+(2)+(3)-(4)]
DOCKED: USER    Estimated Inhibition Constant, Ki   =   14.99 uM (micromolar)  [Temperature = 298.15 K]
DOCKED: USER    
DOCKED: USER    (1) Final Intermolecular Energy     =   -9.56 kcal/mol
DOCKED: USER        vdW + Hbond + desolv Energy     =   -6.93 kcal/mol
DOCKED: USER        Electrostatic Energy            =   -2.63 kcal/mol
DOCKED: USER    (2) Final Total Internal Energy     =   -0.97 kcal/mol
DOCKED: USER    (3) Torsional Free Energy           =   +2.98 kcal/mol
DOCKED: USER    (4) Unbound System's Energy  [=(2)] =   -0.97 kcal/mol
DOCKED: USER    
DOCKED: USER    
DOCKED: USER    NEWDPF move heme_O2_opt.pdbqt
DOCKED: USER    NEWDPF about 8.287000 34.468000 -0.670000
DOCKED: USER    NEWDPF tran0 -18.276183 9.430966 2.105985
DOCKED: USER    NEWDPF quaternion0 0.140848 -0.043357 0.245482 -0.958134
DOCKED: USER    NEWDPF axisangle0 0.491924 -0.151427 0.857368 -33.275594
DOCKED: USER    NEWDPF quat0 0.491924 -0.151427 0.857368 -33.275594
DOCKED: USER    NEWDPF dihe0 -23.38 37.73 104.49 94.94 65.94 -136.68 5.58 -78.86 -0.60 -11.19 
DOCKED: USER  keepresnum = 1 
DOCKED: USER  
DOCKED: REMARK  10 active torsions:
DOCKED: REMARK  status: ('A' for Active; 'I' for Inactive)
DOCKED: REMARK    1  A    between atoms: C_6  and  C_10 
DOCKED: REMARK    2  A    between atoms: C_10  and  C_11 
DOCKED: REMARK    3  A    between atoms: C_11  and  C_12 
DOCKED: REMARK    4  A    between atoms: C_12  and  O_14 
DOCKED: REMARK    5  A    between atoms: C_17  and  C_20 
DOCKED: REMARK    6  A    between atoms: C_24  and  C_27 
DOCKED: REMARK    7  A    between atoms: C_31  and  C_34 
DOCKED: REMARK    8  A    between atoms: C_34  and  C_35 
DOCKED: REMARK    9  A    between atoms: C_35  and  C_36 
DOCKED: REMARK   10  A    between atoms: C_36  and  O_38 
DOCKED: USER                              x       y       z     vdW  Elec       q    Type
DOCKED: USER                           _______ _______ _______ _____ _____    ______ ____
DOCKED: ROOT
DOCKED: ATOM      1  C   UNL d   1     -20.193   9.313   1.206 -0.17 +0.01    +0.064 A 
DOCKED: ATOM      2  C   UNL d   1     -17.900   6.481   4.253 -0.08 +0.00    +0.064 A 
DOCKED: ATOM      3  C   UNL d   1     -14.061   9.373   4.193 -0.27 -0.01    +0.064 C 
DOCKED: ATOM      4  C   UNL d   1     -16.592  12.541   1.432 -0.19 -0.01    +0.064 A 
DOCKED: ATOM      5  C   UNL d   1     -19.883   8.308   2.041 -0.15 +0.01    +0.066 A 
DOCKED: ATOM      6  C   UNL d   1     -20.731   7.231   2.318 -0.10 -0.00    -0.021 A 
DOCKED: ATOM      7  C   UNL d   1     -20.085   6.433   3.234 -0.07 -0.00    -0.025 A 
DOCKED: ATOM      8  C   UNL d   1     -18.841   7.019   3.453 -0.10 +0.01    +0.066 A 
DOCKED: ATOM      9  C   UNL d   1     -20.675   5.193   3.869 -0.03 +0.01    +0.051 C 
DOCKED: ATOM     10  C   UNL d   1     -16.569   7.037   4.504 -0.08 +0.00    +0.066 A 
DOCKED: ATOM     11  C   UNL d   1     -15.572   6.356   5.211 -0.09 -0.00    -0.021 A 
DOCKED: ATOM     12  C   UNL d   1     -14.452   7.166   5.190 -0.14 -0.00    +0.000 A 
DOCKED: ATOM     13  C   UNL d   1     -14.841   8.326   4.465 -0.06 -0.00    +0.070 A 
DOCKED: ATOM     14  C   UNL d   1     -15.675   4.980   5.857 -0.07 +0.01    +0.052 C 
DOCKED: ATOM     15  C   UNL d   1     -14.428  10.580   3.494 -0.24 -0.01    +0.066 A 
DOCKED: ATOM     16  C   UNL d   1     -13.615  11.708   3.385 -0.27 +0.00    -0.021 A 
DOCKED: ATOM     17  C   UNL d   1     -14.316  12.626   2.602 -0.22 -0.00    +0.000 A 
DOCKED: ATOM     18  C   UNL d   1     -15.519  11.979   2.286 -0.22 -0.01    +0.070 A 
DOCKED: ATOM     19  C   UNL d   1     -12.280  11.830   4.076 -0.40 -0.01    +0.052 C 
DOCKED: ATOM     20  C   UNL d   1     -17.776  11.966   1.144 -0.17 -0.01    +0.066 A 
DOCKED: ATOM     21  C   UNL d   1     -18.740  12.536   0.318 -0.16 +0.00    -0.025 A 
DOCKED: ATOM     22  C   UNL d   1     -19.762  11.618   0.220 -0.17 -0.00    -0.021 A 
DOCKED: ATOM     23  C   UNL d   1     -19.390  10.525   1.008 -0.14 -0.00    +0.066 A 
DOCKED: ATOM     24  C   UNL d   1     -18.691  13.890  -0.342 -0.03 +0.00    +0.051 C 
DOCKED: ATOM     25  N   UNL d   1     -18.744   8.208   2.768 -0.10 -0.01    -0.248 N 
DOCKED: ATOM     26  N   UNL d   1     -16.132   8.241   4.055 -0.07 +0.01    -0.248 N 
DOCKED: ATOM     27  N   UNL d   1     -15.602  10.769   2.897 -0.15 +0.04    -0.248 N 
DOCKED: ATOM     28  N   UNL d   1     -18.202  10.759   1.604 -0.02 +0.05    -0.248 N 
DOCKED: ATOM     29 FE   UNL d   1     -17.173   9.512   2.821 -0.04 -0.00    +0.000 Fe
DOCKED: ATOM     30  O   UNL d   1     -17.976   9.442   4.152 -0.08 -0.00    +0.000 OA
DOCKED: ATOM     31  O   UNL d   1     -17.454  10.832   3.628 -0.10 -0.00    +0.000 OA
DOCKED: ENDROOT
DOCKED: BRANCH   6  32
DOCKED: ATOM     32  C   UNL d   1     -22.148   7.028   1.850 -0.09 +0.02    +0.052 C 
DOCKED: BRANCH  32  33
DOCKED: ATOM     33  C   UNL d   1     -22.229   6.423   0.452 -0.11 +0.09    +0.115 C 
DOCKED: BRANCH  33  34
DOCKED: ATOM     34  C   UNL d   1     -23.650   6.299  -0.040 -0.05 +0.13    +0.139 C 
DOCKED: ATOM     35  O   UNL d   1     -24.310   5.318   0.264 -0.01 -0.33    -0.650 OA
DOCKED: BRANCH  34  36
DOCKED: ATOM     36  O   UNL d   1     -24.204   7.237  -0.835 -0.36 -1.10    -0.776 OA
DOCKED: ATOM     37  H   UNL d   1     -23.875   8.144  -0.861 +0.01 +0.24    +0.167 HD
DOCKED: ENDBRANCH  34  36
DOCKED: ENDBRANCH  33  34
DOCKED: ENDBRANCH  32  33
DOCKED: ENDBRANCH   6  32
DOCKED: BRANCH  22  38
DOCKED: ATOM     38  C   UNL d   1     -21.050  11.814  -0.537 -0.11 +0.01    +0.052 C 
DOCKED: BRANCH  38  39
DOCKED: ATOM     39  C   UNL d   1     -20.955  11.327  -1.982 -0.19 +0.03    +0.115 C 
DOCKED: BRANCH  39  40
DOCKED: ATOM     40  C   UNL d   1     -21.571   9.963  -2.171 -0.17 +0.12    +0.139 C 
DOCKED: ATOM     41  O   UNL d   1     -22.194   9.447  -1.257 -0.13 -0.73    -0.650 OA
DOCKED: BRANCH  40  42
DOCKED: ATOM     42  O   UNL d   1     -21.489   9.321  -3.352 -0.23 -1.28    -0.776 OA
DOCKED: ATOM     43  H   UNL d   1     -20.681   9.333  -3.879 -0.23 +0.11    +0.167 HD
DOCKED: ENDBRANCH  40  42
DOCKED: ENDBRANCH  39  40
DOCKED: ENDBRANCH  38  39
DOCKED: ENDBRANCH  22  38
DOCKED: BRANCH  12  44
DOCKED: ATOM     44  C   UNL d   1     -13.153   6.759   5.853 -0.26 -0.00    +0.004 C 
DOCKED: ATOM     45  C   UNL d   1     -12.836   6.830   7.145 -0.36 -0.00    +0.012 C 
DOCKED: ENDBRANCH  12  44
DOCKED: BRANCH  17  46
DOCKED: ATOM     46  C   UNL d   1     -13.981  14.034   2.191 -0.19 -0.00    +0.004 C 
DOCKED: ATOM     47  C   UNL d   1     -13.287  14.442   1.120 -0.26 -0.00    +0.012 C 
DOCKED: ENDBRANCH  17  46
DOCKED: TORSDOF 10
DOCKED: TER
DOCKED: ENDMDL
________________________________________________________________________________


	BEGINNING GENETIC ALGORITHM DOCKING 70 of 100
Run: 70 Seed: 921330588 1074333071 [ Run 70 of 100 GA/GALS ]
Beginning LAMARCKIAN GENETIC ALGORITHM (LGA), with a maximum of 25000000 energy evaluations.

Final-Value: -9.069


	FINAL GENETIC ALGORITHM DOCKED STATE
	_______________________________________________


Detailed state:  trans 6.482 15.067 5.700 quatxyzw 0.297195 0.092176 0.490813 0.813807 center 8.287 34.468 -0.670 ntor 10 -117.2821 -150.7627 -101.6650 118.6744 81.5305 141.8335 -112.9105 97.1342 169.1162 175.6974
State:	  6.482  15.067   5.700   0.511  0.159  0.845 71.061   -117.28 -150.76 -101.66  118.67   81.53  141.83 -112.91   97.13  169.12  175.70

DOCKED: MODEL       70
DOCKED: USER    Run = 70
DOCKED: USER    DPF = D:/Protein_go_brrr/autodock/final/mut_D99N/heme_O2/dock.dpf
DOCKED: USER  
DOCKED: USER    Estimated Free Energy of Binding    =   -3.40 kcal/mol  [=(1)+(2)+(3)-(4)]
DOCKED: USER    Estimated Inhibition Constant, Ki   =    3.24 mM (millimolar)  [Temperature = 298.15 K]
DOCKED: USER    
DOCKED: USER    (1) Final Intermolecular Energy     =   -6.38 kcal/mol
DOCKED: USER        vdW + Hbond + desolv Energy     =   -6.44 kcal/mol
DOCKED: USER        Electrostatic Energy            =   +0.06 kcal/mol
DOCKED: USER    (2) Final Total Internal Energy     =   -2.69 kcal/mol
DOCKED: USER    (3) Torsional Free Energy           =   +2.98 kcal/mol
DOCKED: USER    (4) Unbound System's Energy  [=(2)] =   -2.69 kcal/mol
DOCKED: USER    
DOCKED: USER    
DOCKED: USER    NEWDPF move heme_O2_opt.pdbqt
DOCKED: USER    NEWDPF about 8.287000 34.468000 -0.670000
DOCKED: USER    NEWDPF tran0 6.482053 15.067387 5.700098
DOCKED: USER    NEWDPF quaternion0 0.297195 0.092176 0.490813 0.813807
DOCKED: USER    NEWDPF axisangle0 0.511404 0.158613 0.844576 71.060928
DOCKED: USER    NEWDPF quat0 0.511404 0.158613 0.844576 71.060928
DOCKED: USER    NEWDPF dihe0 -117.28 -150.76 -101.66 118.67 81.53 141.83 -112.91 97.13 169.12 175.70 
DOCKED: USER  keepresnum = 1 
DOCKED: USER  
DOCKED: REMARK  10 active torsions:
DOCKED: REMARK  status: ('A' for Active; 'I' for Inactive)
DOCKED: REMARK    1  A    between atoms: C_6  and  C_10 
DOCKED: REMARK    2  A    between atoms: C_10  and  C_11 
DOCKED: REMARK    3  A    between atoms: C_11  and  C_12 
DOCKED: REMARK    4  A    between atoms: C_12  and  O_14 
DOCKED: REMARK    5  A    between atoms: C_17  and  C_20 
DOCKED: REMARK    6  A    between atoms: C_24  and  C_27 
DOCKED: REMARK    7  A    between atoms: C_31  and  C_34 
DOCKED: REMARK    8  A    between atoms: C_34  and  C_35 
DOCKED: REMARK    9  A    between atoms: C_35  and  C_36 
DOCKED: REMARK   10  A    between atoms: C_36  and  O_38 
DOCKED: USER                              x       y       z     vdW  Elec       q    Type
DOCKED: USER                           _______ _______ _______ _____ _____    ______ ____
DOCKED: ROOT
DOCKED: ATOM      1  C   UNL d   1       5.945  16.205   3.992 -0.23 -0.00    +0.064 A 
DOCKED: ATOM      2  C   UNL d   1       4.732  16.528   8.573 +0.03 -0.00    +0.064 A 
DOCKED: ATOM      3  C   UNL d   1       7.420  12.693   9.651 -0.28 -0.01    +0.064 C 
DOCKED: ATOM      4  C   UNL d   1       9.053  12.640   5.025 -0.06 -0.00    +0.064 A 
DOCKED: ATOM      5  C   UNL d   1       5.397  16.607   5.150 -0.23 -0.00    +0.066 A 
DOCKED: ATOM      6  C   UNL d   1       4.519  17.688   5.267 -0.18 -0.00    -0.021 A 
DOCKED: ATOM      7  C   UNL d   1       4.201  17.810   6.600 -0.19 -0.00    -0.025 A 
DOCKED: ATOM      8  C   UNL d   1       4.856  16.769   7.253 -0.15 -0.00    +0.066 A 
DOCKED: ATOM      9  C   UNL d   1       3.333  18.901   7.187 -0.15 +0.00    +0.051 C 
DOCKED: ATOM     10  C   UNL d   1       5.374  15.439   9.310 -0.20 -0.01    +0.066 A 
DOCKED: ATOM     11  C   UNL d   1       5.083  15.136  10.644 -0.19 +0.00    -0.021 A 
DOCKED: ATOM     12  C   UNL d   1       5.835  14.022  10.968 -0.21 -0.00    +0.000 A 
DOCKED: ATOM     13  C   UNL d   1       6.568  13.709   9.790 -0.21 -0.01    +0.070 A 
DOCKED: ATOM     14  C   UNL d   1       4.108  15.862  11.564 -0.14 -0.00    +0.052 C 
DOCKED: ATOM     15  C   UNL d   1       8.207  12.363   8.487 -0.25 -0.00    +0.066 A 
DOCKED: ATOM     16  C   UNL d   1       9.202  11.387   8.457 -0.19 -0.00    -0.021 A 
DOCKED: ATOM     17  C   UNL d   1       9.683  11.354   7.148 -0.16 +0.00    +0.000 A 
DOCKED: ATOM     18  C   UNL d   1       8.934  12.325   6.468 -0.07 -0.00    +0.070 A 
DOCKED: ATOM     19  C   UNL d   1       9.639  10.619   9.679 -0.14 +0.00    +0.052 C 
DOCKED: ATOM     20  C   UNL d   1       8.381  13.593   4.351 -0.20 -0.00    +0.066 A 
DOCKED: ATOM     21  C   UNL d   1       8.523  13.832   2.987 -0.19 -0.00    -0.025 A 
DOCKED: ATOM     22  C   UNL d   1       7.625  14.826   2.670 -0.21 -0.00    -0.021 A 
DOCKED: ATOM     23  C   UNL d   1       6.979  15.171   3.861 -0.24 -0.00    +0.066 A 
DOCKED: ATOM     24  C   UNL d   1       9.470  13.148   2.035 -0.14 +0.00    +0.051 C 
DOCKED: ATOM     25  N   UNL d   1       5.644  16.068   6.370 -0.18 +0.02    -0.248 N 
DOCKED: ATOM     26  N   UNL d   1       6.285  14.579   8.788 -0.18 +0.04    -0.248 N 
DOCKED: ATOM     27  N   UNL d   1       8.096  12.978   7.313 -0.18 +0.02    -0.248 N 
DOCKED: ATOM     28  N   UNL d   1       7.474  14.451   4.888 -0.15 +0.04    -0.248 N 
DOCKED: ATOM     29 FE   UNL d   1       6.886  14.512   6.824 -0.06 -0.00    +0.000 Fe
DOCKED: ATOM     30  O   UNL d   1       7.367  15.884   7.382 -0.13 -0.00    +0.000 OA
DOCKED: ATOM     31  O   UNL d   1       8.416  14.872   6.784 -0.13 -0.00    +0.000 OA
DOCKED: ENDROOT
DOCKED: BRANCH   6  32
DOCKED: ATOM     32  C   UNL d   1       4.101  18.658   4.193 -0.15 +0.00    +0.052 C 
DOCKED: BRANCH  32  33
DOCKED: ATOM     33  C   UNL d   1       4.733  20.037   4.361 -0.05 +0.00    +0.115 C 
DOCKED: BRANCH  33  34
DOCKED: ATOM     34  C   UNL d   1       6.233  20.006   4.201 -0.02 +0.00    +0.139 C 
DOCKED: ATOM     35  O   UNL d   1       6.919  19.461   5.051 +0.01 -0.00    -0.650 OA
DOCKED: BRANCH  34  36
DOCKED: ATOM     36  O   UNL d   1       6.840  20.593   3.150 +0.01 -0.01    -0.776 OA
DOCKED: ATOM     37  H   UNL d   1       7.348  20.087   2.505 +0.01 +0.00    +0.167 HD
DOCKED: ENDBRANCH  34  36
DOCKED: ENDBRANCH  33  34
DOCKED: ENDBRANCH  32  33
DOCKED: ENDBRANCH   6  32
DOCKED: BRANCH  22  38
DOCKED: ATOM     38  C   UNL d   1       7.450  15.449   1.309 -0.16 +0.00    +0.052 C 
DOCKED: BRANCH  38  39
DOCKED: ATOM     39  C   UNL d   1       8.478  16.544   1.034 -0.03 +0.00    +0.115 C 
DOCKED: BRANCH  39  40
DOCKED: ATOM     40  C   UNL d   1       8.067  17.878   1.604 -0.02 +0.00    +0.139 C 
DOCKED: ATOM     41  O   UNL d   1       7.176  18.518   1.068 +0.01 -0.01    -0.650 OA
DOCKED: BRANCH  40  42
DOCKED: ATOM     42  O   UNL d   1       8.631  18.358   2.729 +0.01 -0.01    -0.776 OA
DOCKED: ATOM     43  H   UNL d   1       8.137  18.912   3.345 +0.01 +0.00    +0.167 HD
DOCKED: ENDBRANCH  40  42
DOCKED: ENDBRANCH  39  40
DOCKED: ENDBRANCH  38  39
DOCKED: ENDBRANCH  22  38
DOCKED: BRANCH  12  44
DOCKED: ATOM     44  C   UNL d   1       5.780  13.386  12.342 -0.25 -0.00    +0.004 C 
DOCKED: ATOM     45  C   UNL d   1       4.803  12.645  12.862 -0.36 -0.00    +0.012 C 
DOCKED: ENDBRANCH  12  44
DOCKED: BRANCH  17  46
DOCKED: ATOM     46  C   UNL d   1      10.793  10.552   6.523 -0.12 +0.00    +0.004 C 
DOCKED: ATOM     47  C   UNL d   1      10.696   9.572   5.614 -0.13 +0.00    +0.012 C 
DOCKED: ENDBRANCH  17  46
DOCKED: TORSDOF 10
DOCKED: TER
DOCKED: ENDMDL
________________________________________________________________________________


	BEGINNING GENETIC ALGORITHM DOCKING 71 of 100
Run: 71 Seed: 634310603 2076191821 [ Run 71 of 100 GA/GALS ]
Beginning LAMARCKIAN GENETIC ALGORITHM (LGA), with a maximum of 25000000 energy evaluations.

Final-Value: -9.688


	FINAL GENETIC ALGORITHM DOCKED STATE
	_______________________________________________


Detailed state:  trans 19.421 -3.302 2.869 quatxyzw -0.490788 -0.211012 0.806408 -0.253588 center 8.287 34.468 -0.670 ntor 10 37.2036 175.2355 51.3461 -124.1434 -120.1077 -30.4943 -180.0000 -83.2569 14.6487 -13.5421
State:	 19.421  -3.302   2.869  -0.507 -0.218  0.834 -150.620     37.20  175.24   51.35 -124.14 -120.11  -30.49 -180.00  -83.26   14.65  -13.54

DOCKED: MODEL       71
DOCKED: USER    Run = 71
DOCKED: USER    DPF = D:/Protein_go_brrr/autodock/final/mut_D99N/heme_O2/dock.dpf
DOCKED: USER  
DOCKED: USER    Estimated Free Energy of Binding    =   -4.94 kcal/mol  [=(1)+(2)+(3)-(4)]
DOCKED: USER    Estimated Inhibition Constant, Ki   =  238.70 uM (micromolar)  [Temperature = 298.15 K]
DOCKED: USER    
DOCKED: USER    (1) Final Intermolecular Energy     =   -7.92 kcal/mol
DOCKED: USER        vdW + Hbond + desolv Energy     =   -7.35 kcal/mol
DOCKED: USER        Electrostatic Energy            =   -0.57 kcal/mol
DOCKED: USER    (2) Final Total Internal Energy     =   -1.76 kcal/mol
DOCKED: USER    (3) Torsional Free Energy           =   +2.98 kcal/mol
DOCKED: USER    (4) Unbound System's Energy  [=(2)] =   -1.76 kcal/mol
DOCKED: USER    
DOCKED: USER    
DOCKED: USER    NEWDPF move heme_O2_opt.pdbqt
DOCKED: USER    NEWDPF about 8.287000 34.468000 -0.670000
DOCKED: USER    NEWDPF tran0 19.421170 -3.302151 2.868883
DOCKED: USER    NEWDPF quaternion0 -0.490788 -0.211012 0.806408 -0.253588
DOCKED: USER    NEWDPF axisangle0 -0.507373 -0.218143 0.833659 -150.620133
DOCKED: USER    NEWDPF quat0 -0.507373 -0.218143 0.833659 -150.620133
DOCKED: USER    NEWDPF dihe0 37.20 175.24 51.35 -124.14 -120.11 -30.49 -180.00 -83.26 14.65 -13.54 
DOCKED: USER  keepresnum = 1 
DOCKED: USER  
DOCKED: REMARK  10 active torsions:
DOCKED: REMARK  status: ('A' for Active; 'I' for Inactive)
DOCKED: REMARK    1  A    between atoms: C_6  and  C_10 
DOCKED: REMARK    2  A    between atoms: C_10  and  C_11 
DOCKED: REMARK    3  A    between atoms: C_11  and  C_12 
DOCKED: REMARK    4  A    between atoms: C_12  and  O_14 
DOCKED: REMARK    5  A    between atoms: C_17  and  C_20 
DOCKED: REMARK    6  A    between atoms: C_24  and  C_27 
DOCKED: REMARK    7  A    between atoms: C_31  and  C_34 
DOCKED: REMARK    8  A    between atoms: C_34  and  C_35 
DOCKED: REMARK    9  A    between atoms: C_35  and  C_36 
DOCKED: REMARK   10  A    between atoms: C_36  and  O_38 
DOCKED: USER                              x       y       z     vdW  Elec       q    Type
DOCKED: USER                           _______ _______ _______ _____ _____    ______ ____
DOCKED: ROOT
DOCKED: ATOM      1  C   UNL d   1      20.747  -4.852   3.451 -0.19 +0.01    +0.064 A 
DOCKED: ATOM      2  C   UNL d   1      17.509  -2.334   5.844 -0.20 -0.00    +0.064 A 
DOCKED: ATOM      3  C   UNL d   1      16.429   0.196   1.904 -0.11 -0.00    +0.064 C 
DOCKED: ATOM      4  C   UNL d   1      19.416  -2.711  -0.682 -0.20 -0.01    +0.064 A 
DOCKED: ATOM      5  C   UNL d   1      19.953  -4.375   4.423 -0.16 +0.01    +0.066 A 
DOCKED: ATOM      6  C   UNL d   1      19.973  -4.831   5.744 -0.16 -0.00    -0.021 A 
DOCKED: ATOM      7  C   UNL d   1      19.006  -4.132   6.428 -0.13 -0.00    -0.025 A 
DOCKED: ATOM      8  C   UNL d   1      18.455  -3.235   5.517 -0.15 +0.00    +0.066 A 
DOCKED: ATOM      9  C   UNL d   1      18.634  -4.362   7.877 -0.10 +0.00    +0.051 C 
DOCKED: ATOM     10  C   UNL d   1      16.910  -1.352   4.939 -0.21 -0.00    +0.066 A 
DOCKED: ATOM     11  C   UNL d   1      16.052  -0.333   5.367 -0.24 +0.00    -0.021 A 
DOCKED: ATOM     12  C   UNL d   1      15.744   0.418   4.248 -0.22 -0.00    +0.000 A 
DOCKED: ATOM     13  C   UNL d   1      16.437  -0.207   3.174 -0.15 -0.00    +0.070 A 
DOCKED: ATOM     14  C   UNL d   1      15.569  -0.070   6.789 -0.14 +0.01    +0.052 C 
DOCKED: ATOM     15  C   UNL d   1      17.087  -0.429   0.782 -0.14 -0.00    +0.066 A 
DOCKED: ATOM     16  C   UNL d   1      16.907  -0.055  -0.549 -0.20 +0.00    -0.021 A 
DOCKED: ATOM     17  C   UNL d   1      17.749  -0.871  -1.305 -0.23 -0.00    +0.000 A 
DOCKED: ATOM     18  C   UNL d   1      18.389  -1.691  -0.366 -0.18 -0.01    +0.070 A 
DOCKED: ATOM     19  C   UNL d   1      15.918   0.999  -0.981 -0.15 -0.01    +0.052 C 
DOCKED: ATOM     20  C   UNL d   1      20.018  -3.544   0.189 -0.21 -0.00    +0.066 A 
DOCKED: ATOM     21  C   UNL d   1      20.993  -4.473  -0.166 -0.23 -0.00    -0.025 A 
DOCKED: ATOM     22  C   UNL d   1      21.403  -5.073   1.003 -0.23 -0.00    -0.021 A 
DOCKED: ATOM     23  C   UNL d   1      20.648  -4.499   2.030 -0.22 +0.00    +0.066 A 
DOCKED: ATOM     24  C   UNL d   1      21.504  -4.775  -1.551 -0.24 +0.00    +0.051 C 
DOCKED: ATOM     25  N   UNL d   1      18.993  -3.430   4.267 -0.11 -0.01    -0.248 N 
DOCKED: ATOM     26  N   UNL d   1      17.139  -1.286   3.603 -0.13 +0.02    -0.248 N 
DOCKED: ATOM     27  N   UNL d   1      17.920  -1.461   0.887 -0.08 +0.02    -0.248 N 
DOCKED: ATOM     28  N   UNL d   1      19.776  -3.602   1.525 -0.13 +0.01    -0.248 N 
DOCKED: ATOM     29 FE   UNL d   1      18.466  -2.451   2.554 -0.04 -0.00    +0.000 Fe
DOCKED: ATOM     30  O   UNL d   1      17.368  -3.415   3.090 -0.43 -0.00    +0.000 OA
DOCKED: ATOM     31  O   UNL d   1      17.635  -3.321   1.540 -0.47 -0.00    +0.000 OA
DOCKED: ENDROOT
DOCKED: BRANCH   6  32
DOCKED: ATOM     32  C   UNL d   1      20.772  -5.974   6.314 -0.18 +0.02    +0.052 C 
DOCKED: BRANCH  32  33
DOCKED: ATOM     33  C   UNL d   1      22.046  -5.514   7.016 -0.08 +0.03    +0.115 C 
DOCKED: BRANCH  33  34
DOCKED: ATOM     34  C   UNL d   1      22.242  -4.020   6.932 -0.03 +0.02    +0.139 C 
DOCKED: ATOM     35  O   UNL d   1      21.762  -3.299   7.792 +0.02 -0.06    -0.650 OA
DOCKED: BRANCH  34  36
DOCKED: ATOM     36  O   UNL d   1      22.915  -3.455   5.909 +0.03 -0.13    -0.776 OA
DOCKED: ATOM     37  H   UNL d   1      22.845  -3.787   5.006 +0.02 +0.03    +0.167 HD
DOCKED: ENDBRANCH  34  36
DOCKED: ENDBRANCH  33  34
DOCKED: ENDBRANCH  32  33
DOCKED: ENDBRANCH   6  32
DOCKED: BRANCH  22  38
DOCKED: ATOM     38  C   UNL d   1      22.418  -6.182   1.112 -0.08 +0.01    +0.052 C 
DOCKED: BRANCH  38  39
DOCKED: ATOM     39  C   UNL d   1      23.844  -5.653   1.248 -0.12 +0.03    +0.115 C 
DOCKED: BRANCH  39  40
DOCKED: ATOM     40  C   UNL d   1      24.293  -5.570   2.686 -0.09 +0.06    +0.139 C 
DOCKED: ATOM     41  O   UNL d   1      25.197  -6.288   3.081 -0.00 -0.43    -0.650 OA
DOCKED: BRANCH  40  42
DOCKED: ATOM     42  O   UNL d   1      23.747  -4.678   3.535 +0.01 -0.25    -0.776 OA
DOCKED: ATOM     43  H   UNL d   1      24.009  -4.638   4.462 +0.02 +0.06    +0.167 HD
DOCKED: ENDBRANCH  40  42
DOCKED: ENDBRANCH  39  40
DOCKED: ENDBRANCH  38  39
DOCKED: ENDBRANCH  22  38
DOCKED: BRANCH  12  44
DOCKED: ATOM     44  C   UNL d   1      14.836   1.628   4.317 -0.22 +0.00    +0.004 C 
DOCKED: ATOM     45  C   UNL d   1      13.817   1.934   3.515 -0.29 +0.00    +0.012 C 
DOCKED: ENDBRANCH  12  44
DOCKED: BRANCH  17  46
DOCKED: ATOM     46  C   UNL d   1      17.948  -0.976  -2.794 -0.15 -0.00    +0.004 C 
DOCKED: ATOM     47  C   UNL d   1      17.956  -2.079  -3.553 -0.41 -0.00    +0.012 C 
DOCKED: ENDBRANCH  17  46
DOCKED: TORSDOF 10
DOCKED: TER
DOCKED: ENDMDL
________________________________________________________________________________


	BEGINNING GENETIC ALGORITHM DOCKING 72 of 100
Run: 72 Seed: 79580788 956733247 [ Run 72 of 100 GA/GALS ]
Beginning LAMARCKIAN GENETIC ALGORITHM (LGA), with a maximum of 25000000 energy evaluations.

Final-Value: -9.907


	FINAL GENETIC ALGORITHM DOCKED STATE
	_______________________________________________


Detailed state:  trans -10.084 -4.324 10.815 quatxyzw -0.437114 0.406474 -0.514481 0.615646 center 8.287 34.468 -0.670 ntor 10 -86.2726 138.7390 -48.5724 47.4290 -75.8907 -81.5778 -59.3050 39.2782 -159.8509 36.1143
State:	-10.084  -4.324  10.815  -0.555  0.516 -0.653 104.002    -86.27  138.74  -48.57   47.43  -75.89  -81.58  -59.30   39.28 -159.85   36.11

DOCKED: MODEL       72
DOCKED: USER    Run = 72
DOCKED: USER    DPF = D:/Protein_go_brrr/autodock/final/mut_D99N/heme_O2/dock.dpf
DOCKED: USER  
DOCKED: USER    Estimated Free Energy of Binding    =   -6.51 kcal/mol  [=(1)+(2)+(3)-(4)]
DOCKED: USER    Estimated Inhibition Constant, Ki   =   16.84 uM (micromolar)  [Temperature = 298.15 K]
DOCKED: USER    
DOCKED: USER    (1) Final Intermolecular Energy     =   -9.50 kcal/mol
DOCKED: USER        vdW + Hbond + desolv Energy     =   -7.03 kcal/mol
DOCKED: USER        Electrostatic Energy            =   -2.47 kcal/mol
DOCKED: USER    (2) Final Total Internal Energy     =   -0.41 kcal/mol
DOCKED: USER    (3) Torsional Free Energy           =   +2.98 kcal/mol
DOCKED: USER    (4) Unbound System's Energy  [=(2)] =   -0.41 kcal/mol
DOCKED: USER    
DOCKED: USER    
DOCKED: USER    NEWDPF move heme_O2_opt.pdbqt
DOCKED: USER    NEWDPF about 8.287000 34.468000 -0.670000
DOCKED: USER    NEWDPF tran0 -10.083812 -4.324247 10.815056
DOCKED: USER    NEWDPF quaternion0 -0.437114 0.406474 -0.514481 0.615646
DOCKED: USER    NEWDPF axisangle0 -0.554697 0.515815 -0.652876 104.002267
DOCKED: USER    NEWDPF quat0 -0.554697 0.515815 -0.652876 104.002267
DOCKED: USER    NEWDPF dihe0 -86.27 138.74 -48.57 47.43 -75.89 -81.58 -59.30 39.28 -159.85 36.11 
DOCKED: USER  keepresnum = 1 
DOCKED: USER  
DOCKED: REMARK  10 active torsions:
DOCKED: REMARK  status: ('A' for Active; 'I' for Inactive)
DOCKED: REMARK    1  A    between atoms: C_6  and  C_10 
DOCKED: REMARK    2  A    between atoms: C_10  and  C_11 
DOCKED: REMARK    3  A    between atoms: C_11  and  C_12 
DOCKED: REMARK    4  A    between atoms: C_12  and  O_14 
DOCKED: REMARK    5  A    between atoms: C_17  and  C_20 
DOCKED: REMARK    6  A    between atoms: C_24  and  C_27 
DOCKED: REMARK    7  A    between atoms: C_31  and  C_34 
DOCKED: REMARK    8  A    between atoms: C_34  and  C_35 
DOCKED: REMARK    9  A    between atoms: C_35  and  C_36 
DOCKED: REMARK   10  A    between atoms: C_36  and  O_38 
DOCKED: USER                              x       y       z     vdW  Elec       q    Type
DOCKED: USER                           _______ _______ _______ _____ _____    ______ ____
DOCKED: ROOT
DOCKED: ATOM      1  C   UNL d   1     -10.901  -4.026   8.880 -0.22 +0.02    +0.064 A 
DOCKED: ATOM      2  C   UNL d   1      -8.227  -7.486  10.735 -0.20 +0.02    +0.064 A 
DOCKED: ATOM      3  C   UNL d   1      -8.078  -5.225  14.973 -0.19 +0.01    +0.064 C 
DOCKED: ATOM      4  C   UNL d   1     -11.225  -1.897  13.216 -0.21 +0.02    +0.064 A 
DOCKED: ATOM      5  C   UNL d   1     -10.187  -5.152   9.040 -0.22 +0.02    +0.066 A 
DOCKED: ATOM      6  C   UNL d   1      -9.963  -6.087   8.025 -0.26 -0.01    -0.021 A 
DOCKED: ATOM      7  C   UNL d   1      -9.226  -7.111   8.572 -0.25 -0.01    -0.025 A 
DOCKED: ATOM      8  C   UNL d   1      -8.979  -6.750   9.894 -0.22 +0.02    +0.066 A 
DOCKED: ATOM      9  C   UNL d   1      -8.822  -8.373   7.842 -0.23 +0.02    +0.051 C 
DOCKED: ATOM     10  C   UNL d   1      -7.914  -7.148  12.124 -0.15 +0.02    +0.066 A 
DOCKED: ATOM     11  C   UNL d   1      -6.997  -7.863  12.902 -0.14 -0.00    -0.021 A 
DOCKED: ATOM     12  C   UNL d   1      -6.927  -7.216  14.122 -0.10 +0.00    +0.000 A 
DOCKED: ATOM     13  C   UNL d   1      -7.834  -6.125  14.021 -0.12 +0.01    +0.070 A 
DOCKED: ATOM     14  C   UNL d   1      -6.201  -9.095  12.490 -0.17 +0.02    +0.052 C 
DOCKED: ATOM     15  C   UNL d   1      -9.015  -4.128  14.923 -0.18 +0.01    +0.066 A 
DOCKED: ATOM     16  C   UNL d   1      -9.344  -3.320  16.010 -0.23 -0.00    -0.021 A 
DOCKED: ATOM     17  C   UNL d   1     -10.241  -2.364  15.534 -0.27 +0.00    +0.000 A 
DOCKED: ATOM     18  C   UNL d   1     -10.392  -2.663  14.172 -0.22 +0.02    +0.070 A 
DOCKED: ATOM     19  C   UNL d   1      -8.823  -3.563  17.404 -0.11 +0.01    +0.052 C 
DOCKED: ATOM     20  C   UNL d   1     -11.425  -2.182  11.915 -0.16 +0.02    +0.066 A 
DOCKED: ATOM     21  C   UNL d   1     -12.208  -1.412  11.059 -0.12 -0.01    -0.025 A 
DOCKED: ATOM     22  C   UNL d   1     -12.105  -1.988   9.813 -0.12 -0.01    -0.021 A 
DOCKED: ATOM     23  C   UNL d   1     -11.275  -3.104   9.959 -0.16 +0.02    +0.066 A 
DOCKED: ATOM     24  C   UNL d   1     -13.015  -0.190  11.413 -0.14 +0.02    +0.051 C 
DOCKED: ATOM     25  N   UNL d   1      -9.626  -5.575  10.199 -0.07 -0.05    -0.248 N 
DOCKED: ATOM     26  N   UNL d   1      -8.434  -6.094  12.804 +0.01 -0.05    -0.248 N 
DOCKED: ATOM     27  N   UNL d   1      -9.699  -3.782  13.837 -0.01 -0.05    -0.248 N 
DOCKED: ATOM     28  N   UNL d   1     -10.900  -3.243  11.247 -0.07 -0.06    -0.248 N 
DOCKED: ATOM     29 FE   UNL d   1      -9.677  -4.657  12.023 -0.04 +0.00    +0.000 Fe
DOCKED: ATOM     30  O   UNL d   1     -10.470  -5.995  11.970 -0.11 +0.00    +0.000 OA
DOCKED: ATOM     31  O   UNL d   1     -11.058  -4.769  12.766 -0.11 +0.00    +0.000 OA
DOCKED: ENDROOT
DOCKED: BRANCH   6  32
DOCKED: ATOM     32  C   UNL d   1     -10.534  -6.090   6.630 -0.17 +0.02    +0.052 C 
DOCKED: BRANCH  32  33
DOCKED: ATOM     33  C   UNL d   1     -11.995  -6.530   6.589 -0.13 +0.05    +0.115 C 
DOCKED: BRANCH  33  34
DOCKED: ATOM     34  C   UNL d   1     -12.905  -5.451   6.056 -0.09 +0.11    +0.139 C 
DOCKED: ATOM     35  O   UNL d   1     -13.738  -5.729   5.209 -0.08 -0.54    -0.650 OA
DOCKED: BRANCH  34  36
DOCKED: ATOM     36  O   UNL d   1     -12.801  -4.173   6.474 -0.31 -0.90    -0.776 OA
DOCKED: ATOM     37  H   UNL d   1     -13.251  -3.856   7.266 +0.02 +0.13    +0.167 HD
DOCKED: ENDBRANCH  34  36
DOCKED: ENDBRANCH  33  34
DOCKED: ENDBRANCH  32  33
DOCKED: ENDBRANCH   6  32
DOCKED: BRANCH  22  38
DOCKED: ATOM     38  C   UNL d   1     -12.819  -1.525   8.569 -0.12 +0.02    +0.052 C 
DOCKED: BRANCH  38  39
DOCKED: ATOM     39  C   UNL d   1     -11.918  -1.553   7.336 -0.23 +0.09    +0.115 C 
DOCKED: BRANCH  39  40
DOCKED: ATOM     40  C   UNL d   1     -12.162  -0.382   6.418 -0.18 +0.13    +0.139 C 
DOCKED: ATOM     41  O   UNL d   1     -11.947   0.753   6.812 -0.12 -0.36    -0.650 OA
DOCKED: BRANCH  40  42
DOCKED: ATOM     42  O   UNL d   1     -12.566  -0.568   5.146 -0.25 -1.47    -0.776 OA
DOCKED: ATOM     43  H   UNL d   1     -13.211   0.018   4.731 +0.03 +0.23    +0.167 HD
DOCKED: ENDBRANCH  40  42
DOCKED: ENDBRANCH  39  40
DOCKED: ENDBRANCH  38  39
DOCKED: ENDBRANCH  22  38
DOCKED: BRANCH  12  44
DOCKED: ATOM     44  C   UNL d   1      -6.021  -7.697  15.237 -0.07 +0.00    +0.004 C 
DOCKED: ATOM     45  C   UNL d   1      -5.112  -6.997  15.914 -0.08 +0.00    +0.012 C 
DOCKED: ENDBRANCH  12  44
DOCKED: BRANCH  17  46
DOCKED: ATOM     46  C   UNL d   1     -10.986  -1.266  16.245 -0.22 +0.00    +0.004 C 
DOCKED: ATOM     47  C   UNL d   1     -10.537  -0.449  17.207 -0.25 +0.01    +0.012 C 
DOCKED: ENDBRANCH  17  46
DOCKED: TORSDOF 10
DOCKED: TER
DOCKED: ENDMDL
________________________________________________________________________________


	BEGINNING GENETIC ALGORITHM DOCKING 73 of 100
Run: 73 Seed: 687834529 222594333 [ Run 73 of 100 GA/GALS ]
Beginning LAMARCKIAN GENETIC ALGORITHM (LGA), with a maximum of 25000000 energy evaluations.

Final-Value: -10.852


	FINAL GENETIC ALGORITHM DOCKED STATE
	_______________________________________________


Detailed state:  trans 0.701 0.044 -20.725 quatxyzw 0.730636 -0.070044 -0.051526 -0.677207 center 8.287 34.468 -0.670 ntor 10 -46.5728 161.6780 41.0776 -80.2980 50.6744 -179.6418 -121.8738 96.4909 159.0852 170.4814
State:	  0.701   0.044 -20.725   0.993 -0.095 -0.070 -94.748    -46.57  161.68   41.08  -80.30   50.67 -179.64 -121.87   96.49  159.09  170.48

DOCKED: MODEL       73
DOCKED: USER    Run = 73
DOCKED: USER    DPF = D:/Protein_go_brrr/autodock/final/mut_D99N/heme_O2/dock.dpf
DOCKED: USER  
DOCKED: USER    Estimated Free Energy of Binding    =   -5.66 kcal/mol  [=(1)+(2)+(3)-(4)]
DOCKED: USER    Estimated Inhibition Constant, Ki   =   70.96 uM (micromolar)  [Temperature = 298.15 K]
DOCKED: USER    
DOCKED: USER    (1) Final Intermolecular Energy     =   -8.64 kcal/mol
DOCKED: USER        vdW + Hbond + desolv Energy     =   -4.51 kcal/mol
DOCKED: USER        Electrostatic Energy            =   -4.13 kcal/mol
DOCKED: USER    (2) Final Total Internal Energy     =   -2.21 kcal/mol
DOCKED: USER    (3) Torsional Free Energy           =   +2.98 kcal/mol
DOCKED: USER    (4) Unbound System's Energy  [=(2)] =   -2.21 kcal/mol
DOCKED: USER    
DOCKED: USER    
DOCKED: USER    NEWDPF move heme_O2_opt.pdbqt
DOCKED: USER    NEWDPF about 8.287000 34.468000 -0.670000
DOCKED: USER    NEWDPF tran0 0.700781 0.043545 -20.724837
DOCKED: USER    NEWDPF quaternion0 0.730636 -0.070044 -0.051526 -0.677207
DOCKED: USER    NEWDPF axisangle0 0.992992 -0.095195 -0.070028 -94.748424
DOCKED: USER    NEWDPF quat0 0.992992 -0.095195 -0.070028 -94.748424
DOCKED: USER    NEWDPF dihe0 -46.57 161.68 41.08 -80.30 50.67 -179.64 -121.87 96.49 159.09 170.48 
DOCKED: USER  keepresnum = 1 
DOCKED: USER  
DOCKED: REMARK  10 active torsions:
DOCKED: REMARK  status: ('A' for Active; 'I' for Inactive)
DOCKED: REMARK    1  A    between atoms: C_6  and  C_10 
DOCKED: REMARK    2  A    between atoms: C_10  and  C_11 
DOCKED: REMARK    3  A    between atoms: C_11  and  C_12 
DOCKED: REMARK    4  A    between atoms: C_12  and  O_14 
DOCKED: REMARK    5  A    between atoms: C_17  and  C_20 
DOCKED: REMARK    6  A    between atoms: C_24  and  C_27 
DOCKED: REMARK    7  A    between atoms: C_31  and  C_34 
DOCKED: REMARK    8  A    between atoms: C_34  and  C_35 
DOCKED: REMARK    9  A    between atoms: C_35  and  C_36 
DOCKED: REMARK   10  A    between atoms: C_36  and  O_38 
DOCKED: USER                              x       y       z     vdW  Elec       q    Type
DOCKED: USER                           _______ _______ _______ _____ _____    ______ ____
DOCKED: ROOT
DOCKED: ATOM      1  C   UNL d   1      -1.024   1.107 -20.099 -0.08 +0.06    +0.064 A 
DOCKED: ATOM      2  C   UNL d   1      -0.409  -2.537 -23.082 -0.11 +0.02    +0.064 A 
DOCKED: ATOM      3  C   UNL d   1       4.341  -2.448 -22.357 -0.14 +0.01    +0.064 C 
DOCKED: ATOM      4  C   UNL d   1       3.670   0.989 -18.922 -0.07 +0.02    +0.064 A 
DOCKED: ATOM      5  C   UNL d   1      -1.245   0.108 -20.968 -0.11 +0.06    +0.066 A 
DOCKED: ATOM      6  C   UNL d   1      -2.506  -0.237 -21.462 -0.10 -0.02    -0.021 A 
DOCKED: ATOM      7  C   UNL d   1      -2.335  -1.319 -22.292 -0.10 -0.01    -0.025 A 
DOCKED: ATOM      8  C   UNL d   1      -0.967  -1.577 -22.320 -0.12 +0.03    +0.066 A 
DOCKED: ATOM      9  C   UNL d   1      -3.455  -2.065 -22.984 -0.08 +0.02    +0.051 C 
DOCKED: ATOM     10  C   UNL d   1       1.020  -2.839 -23.171 -0.10 +0.01    +0.066 A 
DOCKED: ATOM     11  C   UNL d   1       1.561  -3.736 -24.098 -0.07 -0.00    -0.021 A 
DOCKED: ATOM     12  C   UNL d   1       2.932  -3.711 -23.917 -0.08 +0.00    +0.000 A 
DOCKED: ATOM     13  C   UNL d   1       3.153  -2.788 -22.857 -0.10 +0.01    +0.070 A 
DOCKED: ATOM     14  C   UNL d   1       0.805  -4.562 -25.133 -0.05 +0.00    +0.052 C 
DOCKED: ATOM     15  C   UNL d   1       4.605  -1.546 -21.262 -0.12 +0.01    +0.066 A 
DOCKED: ATOM     16  C   UNL d   1       5.857  -1.357 -20.678 -0.13 -0.00    -0.021 A 
DOCKED: ATOM     17  C   UNL d   1       5.690  -0.382 -19.695 -0.12 +0.00    +0.000 A 
DOCKED: ATOM     18  C   UNL d   1       4.331  -0.043 -19.756 -0.09 +0.02    +0.070 A 
DOCKED: ATOM     19  C   UNL d   1       7.075  -2.155 -21.068 -0.12 +0.01    +0.052 C 
DOCKED: ATOM     20  C   UNL d   1       2.361   1.309 -18.925 -0.08 +0.03    +0.066 A 
DOCKED: ATOM     21  C   UNL d   1       1.800   2.303 -18.129 -0.07 -0.01    -0.025 A 
DOCKED: ATOM     22  C   UNL d   1       0.468   2.370 -18.470 -0.08 -0.01    -0.021 A 
DOCKED: ATOM     23  C   UNL d   1       0.261   1.397 -19.453 -0.10 +0.05    +0.066 A 
DOCKED: ATOM     24  C   UNL d   1       2.498   3.145 -17.092 -0.07 +0.02    +0.051 C 
DOCKED: ATOM     25  N   UNL d   1      -0.304  -0.739 -21.454 -0.10 -0.16    -0.248 N 
DOCKED: ATOM     26  N   UNL d   1       1.984  -2.266 -22.406 -0.06 -0.06    -0.248 N 
DOCKED: ATOM     27  N   UNL d   1       3.673  -0.812 -20.660 -0.07 -0.06    -0.248 N 
DOCKED: ATOM     28  N   UNL d   1       1.405   0.724 -19.694 -0.08 -0.14    -0.248 N 
DOCKED: ATOM     29 FE   UNL d   1       1.696  -0.761 -21.039 -0.03 +0.00    +0.000 Fe
DOCKED: ATOM     30  O   UNL d   1       0.927  -1.999 -20.493 -0.17 +0.00    +0.000 OA
DOCKED: ATOM     31  O   UNL d   1       2.057  -1.333 -19.620 -0.29 +0.00    +0.000 OA
DOCKED: ENDROOT
DOCKED: BRANCH   6  32
DOCKED: ATOM     32  C   UNL d   1      -3.841   0.339 -21.065 -0.10 +0.05    +0.052 C 
DOCKED: BRANCH  32  33
DOCKED: ATOM     33  C   UNL d   1      -4.766  -0.694 -20.429 -0.15 +0.13    +0.115 C 
DOCKED: BRANCH  33  34
DOCKED: ATOM     34  C   UNL d   1      -4.140  -1.368 -19.233 -0.10 +0.24    +0.139 C 
DOCKED: ATOM     35  O   UNL d   1      -3.651  -2.479 -19.355 -0.08 -1.01    -0.650 OA
DOCKED: BRANCH  34  36
DOCKED: ATOM     36  O   UNL d   1      -4.133  -0.780 -18.019 -0.37 -1.86    -0.776 OA
DOCKED: ATOM     37  H   UNL d   1      -3.886   0.144 -17.900 +0.06 +0.41    +0.167 HD
DOCKED: ENDBRANCH  34  36
DOCKED: ENDBRANCH  33  34
DOCKED: ENDBRANCH  32  33
DOCKED: ENDBRANCH   6  32
DOCKED: BRANCH  22  38
DOCKED: ATOM     38  C   UNL d   1      -0.558   3.275 -17.838 -0.08 +0.03    +0.052 C 
DOCKED: BRANCH  38  39
DOCKED: ATOM     39  C   UNL d   1      -1.202   2.650 -16.602 -0.17 +0.10    +0.115 C 
DOCKED: BRANCH  39  40
DOCKED: ATOM     40  C   UNL d   1      -2.360   1.748 -16.950 -0.17 +0.21    +0.139 C 
DOCKED: ATOM     41  O   UNL d   1      -3.085   2.029 -17.891 +0.01 -0.99    -0.650 OA
DOCKED: BRANCH  40  42
DOCKED: ATOM     42  O   UNL d   1      -2.581   0.606 -16.271 +0.12 -1.70    -0.776 OA
DOCKED: ATOM     43  H   UNL d   1      -3.424   0.140 -16.328 +0.08 +0.36    +0.167 HD
DOCKED: ENDBRANCH  40  42
DOCKED: ENDBRANCH  39  40
DOCKED: ENDBRANCH  38  39
DOCKED: ENDBRANCH  22  38
DOCKED: BRANCH  12  44
DOCKED: ATOM     44  C   UNL d   1       3.869  -4.555 -24.755 -0.08 +0.00    +0.004 C 
DOCKED: ATOM     45  C   UNL d   1       4.988  -5.166 -24.368 -0.10 +0.00    +0.012 C 
DOCKED: ENDBRANCH  12  44
DOCKED: BRANCH  17  46
DOCKED: ATOM     46  C   UNL d   1       6.661   0.194 -18.699 -0.10 +0.00    +0.004 C 
DOCKED: ATOM     47  C   UNL d   1       6.967  -0.266 -17.479 -0.20 +0.00    +0.012 C 
DOCKED: ENDBRANCH  17  46
DOCKED: TORSDOF 10
DOCKED: TER
DOCKED: ENDMDL
________________________________________________________________________________


	BEGINNING GENETIC ALGORITHM DOCKING 74 of 100
Run: 74 Seed: 1001865140 279099214 [ Run 74 of 100 GA/GALS ]
Beginning LAMARCKIAN GENETIC ALGORITHM (LGA), with a maximum of 25000000 energy evaluations.

Final-Value: -10.747


	FINAL GENETIC ALGORITHM DOCKED STATE
	_______________________________________________


Detailed state:  trans 2.193 0.251 -19.673 quatxyzw 0.798895 -0.152723 0.015382 -0.581554 center 8.287 34.468 -0.670 ntor 10 89.3527 158.1160 -15.1377 133.0005 -85.4820 39.9915 57.4143 -89.7111 -132.7339 120.7299
State:	  2.193   0.251 -19.673   0.982 -0.188  0.019 -108.880     89.35  158.12  -15.14  133.00  -85.48   39.99   57.41  -89.71 -132.73  120.73

DOCKED: MODEL       74
DOCKED: USER    Run = 74
DOCKED: USER    DPF = D:/Protein_go_brrr/autodock/final/mut_D99N/heme_O2/dock.dpf
DOCKED: USER  
DOCKED: USER    Estimated Free Energy of Binding    =   -7.29 kcal/mol  [=(1)+(2)+(3)-(4)]
DOCKED: USER    Estimated Inhibition Constant, Ki   =    4.55 uM (micromolar)  [Temperature = 298.15 K]
DOCKED: USER    
DOCKED: USER    (1) Final Intermolecular Energy     =  -10.27 kcal/mol
DOCKED: USER        vdW + Hbond + desolv Energy     =   -6.86 kcal/mol
DOCKED: USER        Electrostatic Energy            =   -3.41 kcal/mol
DOCKED: USER    (2) Final Total Internal Energy     =   -0.48 kcal/mol
DOCKED: USER    (3) Torsional Free Energy           =   +2.98 kcal/mol
DOCKED: USER    (4) Unbound System's Energy  [=(2)] =   -0.48 kcal/mol
DOCKED: USER    
DOCKED: USER    
DOCKED: USER    NEWDPF move heme_O2_opt.pdbqt
DOCKED: USER    NEWDPF about 8.287000 34.468000 -0.670000
DOCKED: USER    NEWDPF tran0 2.192714 0.251276 -19.672786
DOCKED: USER    NEWDPF quaternion0 0.798895 -0.152723 0.015382 -0.581554
DOCKED: USER    NEWDPF axisangle0 0.982038 -0.187734 0.018909 -108.880164
DOCKED: USER    NEWDPF quat0 0.982038 -0.187734 0.018909 -108.880164
DOCKED: USER    NEWDPF dihe0 89.35 158.12 -15.14 133.00 -85.48 39.99 57.41 -89.71 -132.73 120.73 
DOCKED: USER  keepresnum = 1 
DOCKED: USER  
DOCKED: REMARK  10 active torsions:
DOCKED: REMARK  status: ('A' for Active; 'I' for Inactive)
DOCKED: REMARK    1  A    between atoms: C_6  and  C_10 
DOCKED: REMARK    2  A    between atoms: C_10  and  C_11 
DOCKED: REMARK    3  A    between atoms: C_11  and  C_12 
DOCKED: REMARK    4  A    between atoms: C_12  and  O_14 
DOCKED: REMARK    5  A    between atoms: C_17  and  C_20 
DOCKED: REMARK    6  A    between atoms: C_24  and  C_27 
DOCKED: REMARK    7  A    between atoms: C_31  and  C_34 
DOCKED: REMARK    8  A    between atoms: C_34  and  C_35 
DOCKED: REMARK    9  A    between atoms: C_35  and  C_36 
DOCKED: REMARK   10  A    between atoms: C_36  and  O_38 
DOCKED: USER                              x       y       z     vdW  Elec       q    Type
DOCKED: USER                           _______ _______ _______ _____ _____    ______ ____
DOCKED: ROOT
DOCKED: ATOM      1  C   UNL d   1       0.376   1.255 -19.236 -0.11 +0.06    +0.064 A 
DOCKED: ATOM      2  C   UNL d   1       1.642  -1.718 -22.717 -0.07 +0.02    +0.064 A 
DOCKED: ATOM      3  C   UNL d   1       6.097  -2.042 -20.945 -0.08 +0.01    +0.064 C 
DOCKED: ATOM      4  C   UNL d   1       4.672   0.637 -17.091 -0.12 +0.02    +0.064 A 
DOCKED: ATOM      5  C   UNL d   1       0.356   0.471 -20.326 -0.12 +0.05    +0.066 A 
DOCKED: ATOM      6  C   UNL d   1      -0.760   0.307 -21.152 -0.10 -0.02    -0.021 A 
DOCKED: ATOM      7  C   UNL d   1      -0.407  -0.587 -22.136 -0.09 -0.01    -0.025 A 
DOCKED: ATOM      8  C   UNL d   1       0.929  -0.907 -21.912 -0.10 +0.03    +0.066 A 
DOCKED: ATOM      9  C   UNL d   1      -1.341  -1.110 -23.205 -0.06 +0.02    +0.051 C 
DOCKED: ATOM     10  C   UNL d   1       3.052  -2.072 -22.546 -0.09 +0.01    +0.066 A 
DOCKED: ATOM     11  C   UNL d   1       3.787  -2.785 -23.500 -0.09 -0.00    -0.021 A 
DOCKED: ATOM     12  C   UNL d   1       5.079  -2.873 -23.015 -0.11 +0.00    +0.000 A 
DOCKED: ATOM     13  C   UNL d   1       5.055  -2.205 -21.760 -0.10 +0.01    +0.070 A 
DOCKED: ATOM     14  C   UNL d   1       3.285  -3.335 -24.830 -0.04 +0.00    +0.052 C 
DOCKED: ATOM     15  C   UNL d   1       6.107  -1.403 -19.651 -0.07 +0.02    +0.066 A 
DOCKED: ATOM     16  C   UNL d   1       7.191  -1.409 -18.775 -0.21 -0.01    -0.021 A 
DOCKED: ATOM     17  C   UNL d   1       6.808  -0.652 -17.668 -0.22 +0.00    +0.000 A 
DOCKED: ATOM     18  C   UNL d   1       5.501  -0.234 -17.957 -0.16 +0.02    +0.070 A 
DOCKED: ATOM     19  C   UNL d   1       8.463  -2.174 -19.044 -0.25 +0.02    +0.052 C 
DOCKED: ATOM     20  C   UNL d   1       3.400   1.021 -17.317 -0.12 +0.02    +0.066 A 
DOCKED: ATOM     21  C   UNL d   1       2.676   1.858 -16.473 -0.14 -0.01    -0.025 A 
DOCKED: ATOM     22  C   UNL d   1       1.459   2.066 -17.082 -0.14 -0.01    -0.021 A 
DOCKED: ATOM     23  C   UNL d   1       1.479   1.332 -18.272 -0.12 +0.04    +0.066 A 
DOCKED: ATOM     24  C   UNL d   1       3.121   2.426 -15.150 -0.19 +0.02    +0.051 C 
DOCKED: ATOM     25  N   UNL d   1       1.379  -0.306 -20.759 -0.09 -0.12    -0.248 N 
DOCKED: ATOM     26  N   UNL d   1       3.817  -1.725 -21.480 -0.09 -0.05    -0.248 N 
DOCKED: ATOM     27  N   UNL d   1       5.065  -0.761 -19.130 -0.11 -0.07    -0.248 N 
DOCKED: ATOM     28  N   UNL d   1       2.644   0.662 -18.389 -0.08 -0.09    -0.248 N 
DOCKED: ATOM     29 FE   UNL d   1       3.229  -0.523 -19.922 -0.03 +0.00    +0.000 Fe
DOCKED: ATOM     30  O   UNL d   1       2.348  -1.804 -19.841 -0.34 +0.00    +0.000 OA
DOCKED: ATOM     31  O   UNL d   1       3.250  -1.397 -18.615 -0.33 +0.00    +0.000 OA
DOCKED: ENDROOT
DOCKED: BRANCH   6  32
DOCKED: ATOM     32  C   UNL d   1      -2.147   0.859 -20.950 -0.09 +0.04    +0.052 C 
DOCKED: BRANCH  32  33
DOCKED: ATOM     33  C   UNL d   1      -2.685   0.609 -19.545 -0.10 +0.19    +0.115 C 
DOCKED: BRANCH  33  34
DOCKED: ATOM     34  C   UNL d   1      -4.012  -0.108 -19.557 -0.14 +0.23    +0.139 C 
DOCKED: ATOM     35  O   UNL d   1      -4.134  -1.162 -18.952 -0.62 -1.25    -0.650 OA
DOCKED: BRANCH  34  36
DOCKED: ATOM     36  O   UNL d   1      -5.067   0.374 -20.246 -0.10 -1.24    -0.776 OA
DOCKED: ATOM     37  H   UNL d   1      -5.228   0.136 -21.167 +0.02 +0.17    +0.167 HD
DOCKED: ENDBRANCH  34  36
DOCKED: ENDBRANCH  33  34
DOCKED: ENDBRANCH  32  33
DOCKED: ENDBRANCH   6  32
DOCKED: BRANCH  22  38
DOCKED: ATOM     38  C   UNL d   1       0.320   2.875 -16.515 -0.01 +0.03    +0.052 C 
DOCKED: BRANCH  38  39
DOCKED: ATOM     39  C   UNL d   1      -1.032   2.195 -16.714 -0.20 +0.12    +0.115 C 
DOCKED: BRANCH  39  40
DOCKED: ATOM     40  C   UNL d   1      -1.386   1.271 -15.575 -0.30 +0.19    +0.139 C 
DOCKED: ATOM     41  O   UNL d   1      -2.400   0.595 -15.636 -0.26 -1.19    -0.650 OA
DOCKED: BRANCH  40  42
DOCKED: ATOM     42  O   UNL d   1      -0.574   1.140 -14.508 -0.38 -0.81    -0.776 OA
DOCKED: ATOM     43  H   UNL d   1      -0.894   0.783 -13.671 -0.05 +0.14    +0.167 HD
DOCKED: ENDBRANCH  40  42
DOCKED: ENDBRANCH  39  40
DOCKED: ENDBRANCH  38  39
DOCKED: ENDBRANCH  22  38
DOCKED: BRANCH  12  44
DOCKED: ATOM     44  C   UNL d   1       6.180  -3.575 -23.783 -0.12 +0.00    +0.004 C 
DOCKED: ATOM     45  C   UNL d   1       7.497  -3.439 -23.634 -0.13 +0.00    +0.012 C 
DOCKED: ENDBRANCH  12  44
DOCKED: BRANCH  17  46
DOCKED: ATOM     46  C   UNL d   1       7.526  -0.350 -16.380 -0.25 +0.00    +0.004 C 
DOCKED: ATOM     47  C   UNL d   1       7.778   0.846 -15.832 -0.17 +0.00    +0.012 C 
DOCKED: ENDBRANCH  17  46
DOCKED: TORSDOF 10
DOCKED: TER
DOCKED: ENDMDL
________________________________________________________________________________


	BEGINNING GENETIC ALGORITHM DOCKING 75 of 100
Run: 75 Seed: 1815146264 1360278539 [ Run 75 of 100 GA/GALS ]
Beginning LAMARCKIAN GENETIC ALGORITHM (LGA), with a maximum of 25000000 energy evaluations.

Final-Value: -10.814


	FINAL GENETIC ALGORITHM DOCKED STATE
	_______________________________________________


Detailed state:  trans -12.782 -0.038 1.589 quatxyzw 0.543646 0.212943 0.582217 -0.565798 center 8.287 34.468 -0.670 ntor 10 15.3591 42.8088 67.0576 -26.9219 50.0020 169.0520 -140.9932 126.5276 -14.9681 -180.0000
State:	-12.782  -0.038   1.589   0.659  0.258  0.706 -111.085     15.36   42.81   67.06  -26.92   50.00  169.05 -140.99  126.53  -14.97 -180.00

DOCKED: MODEL       75
DOCKED: USER    Run = 75
DOCKED: USER    DPF = D:/Protein_go_brrr/autodock/final/mut_D99N/heme_O2/dock.dpf
DOCKED: USER  
DOCKED: USER    Estimated Free Energy of Binding    =   -6.97 kcal/mol  [=(1)+(2)+(3)-(4)]
DOCKED: USER    Estimated Inhibition Constant, Ki   =    7.75 uM (micromolar)  [Temperature = 298.15 K]
DOCKED: USER    
DOCKED: USER    (1) Final Intermolecular Energy     =   -9.96 kcal/mol
DOCKED: USER        vdW + Hbond + desolv Energy     =   -8.20 kcal/mol
DOCKED: USER        Electrostatic Energy            =   -1.76 kcal/mol
DOCKED: USER    (2) Final Total Internal Energy     =   -0.86 kcal/mol
DOCKED: USER    (3) Torsional Free Energy           =   +2.98 kcal/mol
DOCKED: USER    (4) Unbound System's Energy  [=(2)] =   -0.86 kcal/mol
DOCKED: USER    
DOCKED: USER    
DOCKED: USER    NEWDPF move heme_O2_opt.pdbqt
DOCKED: USER    NEWDPF about 8.287000 34.468000 -0.670000
DOCKED: USER    NEWDPF tran0 -12.781567 -0.038425 1.589010
DOCKED: USER    NEWDPF quaternion0 0.543646 0.212943 0.582217 -0.565798
DOCKED: USER    NEWDPF axisangle0 0.659330 0.258256 0.706108 -111.084552
DOCKED: USER    NEWDPF quat0 0.659330 0.258256 0.706108 -111.084552
DOCKED: USER    NEWDPF dihe0 15.36 42.81 67.06 -26.92 50.00 169.05 -140.99 126.53 -14.97 -180.00 
DOCKED: USER  keepresnum = 1 
DOCKED: USER  
DOCKED: REMARK  10 active torsions:
DOCKED: REMARK  status: ('A' for Active; 'I' for Inactive)
DOCKED: REMARK    1  A    between atoms: C_6  and  C_10 
DOCKED: REMARK    2  A    between atoms: C_10  and  C_11 
DOCKED: REMARK    3  A    between atoms: C_11  and  C_12 
DOCKED: REMARK    4  A    between atoms: C_12  and  O_14 
DOCKED: REMARK    5  A    between atoms: C_17  and  C_20 
DOCKED: REMARK    6  A    between atoms: C_24  and  C_27 
DOCKED: REMARK    7  A    between atoms: C_31  and  C_34 
DOCKED: REMARK    8  A    between atoms: C_34  and  C_35 
DOCKED: REMARK    9  A    between atoms: C_35  and  C_36 
DOCKED: REMARK   10  A    between atoms: C_36  and  O_38 
DOCKED: USER                              x       y       z     vdW  Elec       q    Type
DOCKED: USER                           _______ _______ _______ _____ _____    ______ ____
DOCKED: ROOT
DOCKED: ATOM      1  C   UNL d   1     -14.171  -1.572   1.121 -0.07 +0.07    +0.064 A 
DOCKED: ATOM      2  C   UNL d   1      -9.494  -1.153   0.407 -0.27 +0.02    +0.064 A 
DOCKED: ATOM      3  C   UNL d   1      -9.483   3.210   2.422 -0.24 +0.02    +0.064 C 
DOCKED: ATOM      4  C   UNL d   1     -14.207   2.591   3.593 -0.16 +0.02    +0.064 A 
DOCKED: ATOM      5  C   UNL d   1     -12.899  -1.814   0.764 +0.07 +0.07    +0.066 A 
DOCKED: ATOM      6  C   UNL d   1     -12.477  -2.979   0.117 -0.13 -0.01    -0.021 A 
DOCKED: ATOM      7  C   UNL d   1     -11.115  -2.878  -0.052 -0.10 -0.01    -0.025 A 
DOCKED: ATOM      8  C   UNL d   1     -10.751  -1.633   0.454 -0.02 +0.04    +0.066 A 
DOCKED: ATOM      9  C   UNL d   1     -10.234  -3.955  -0.645 -0.31 +0.01    +0.051 C 
DOCKED: ATOM     10  C   UNL d   1      -9.056   0.153   0.901 -0.34 +0.02    +0.066 A 
DOCKED: ATOM     11  C   UNL d   1      -7.774   0.669   0.680 -0.36 -0.00    -0.021 A 
DOCKED: ATOM     12  C   UNL d   1      -7.756   1.934   1.238 -0.04 +0.00    +0.000 A 
DOCKED: ATOM     13  C   UNL d   1      -9.054   2.118   1.790 -0.01 +0.03    +0.070 A 
DOCKED: ATOM     14  C   UNL d   1      -6.622  -0.006  -0.056 -0.27 +0.01    +0.052 C 
DOCKED: ATOM     15  C   UNL d   1     -10.777   3.422   3.026 -0.26 +0.01    +0.066 A 
DOCKED: ATOM     16  C   UNL d   1     -11.110   4.522   3.816 -0.33 -0.00    -0.021 A 
DOCKED: ATOM     17  C   UNL d   1     -12.452   4.366   4.162 -0.21 +0.00    +0.000 A 
DOCKED: ATOM     18  C   UNL d   1     -12.843   3.168   3.548 -0.16 +0.02    +0.070 A 
DOCKED: ATOM     19  C   UNL d   1     -10.114   5.582   4.211 -0.47 -0.00    +0.052 C 
DOCKED: ATOM     20  C   UNL d   1     -14.605   1.423   3.051 -0.15 +0.03    +0.066 A 
DOCKED: ATOM     21  C   UNL d   1     -15.909   0.940   3.111 -0.12 -0.01    -0.025 A 
DOCKED: ATOM     22  C   UNL d   1     -15.923  -0.232   2.389 -0.12 -0.01    -0.021 A 
DOCKED: ATOM     23  C   UNL d   1     -14.618  -0.431   1.928 -0.03 +0.06    +0.066 A 
DOCKED: ATOM     24  C   UNL d   1     -17.081   1.562   3.825 -0.06 +0.01    +0.051 C 
DOCKED: ATOM     25  N   UNL d   1     -11.840  -1.007   1.015 -0.16 -0.21    -0.248 N 
DOCKED: ATOM     26  N   UNL d   1      -9.837   1.028   1.585 -0.22 -0.08    -0.248 N 
DOCKED: ATOM     27  N   UNL d   1     -11.794   2.571   2.926 -0.17 -0.07    -0.248 N 
DOCKED: ATOM     28  N   UNL d   1     -13.810   0.555   2.371 -0.11 -0.19    -0.248 N 
DOCKED: ATOM     29 FE   UNL d   1     -11.838   0.792   1.983 -0.06 +0.00    +0.000 Fe
DOCKED: ATOM     30  O   UNL d   1     -11.103  -0.339   2.758 -0.41 +0.00    +0.000 OA
DOCKED: ATOM     31  O   UNL d   1     -12.002   0.689   3.543 -0.46 +0.00    +0.000 OA
DOCKED: ENDROOT
DOCKED: BRANCH   6  32
DOCKED: ATOM     32  C   UNL d   1     -13.294  -4.202  -0.209 -0.16 +0.02    +0.052 C 
DOCKED: BRANCH  32  33
DOCKED: ATOM     33  C   UNL d   1     -14.343  -3.944  -1.287 -0.13 +0.03    +0.115 C 
DOCKED: BRANCH  33  34
DOCKED: ATOM     34  C   UNL d   1     -13.852  -2.995  -2.352 -0.24 +0.03    +0.139 C 
DOCKED: ATOM     35  O   UNL d   1     -14.198  -1.825  -2.324 -0.08 -0.13    -0.650 OA
DOCKED: BRANCH  34  36
DOCKED: ATOM     36  O   UNL d   1     -13.057  -3.417  -3.357 +0.01 -0.11    -0.776 OA
DOCKED: ATOM     37  H   UNL d   1     -12.951  -4.352  -3.567 +0.07 +0.01    +0.167 HD
DOCKED: ENDBRANCH  34  36
DOCKED: ENDBRANCH  33  34
DOCKED: ENDBRANCH  32  33
DOCKED: ENDBRANCH   6  32
DOCKED: BRANCH  22  38
DOCKED: ATOM     38  C   UNL d   1     -17.113  -1.139   2.210 -0.08 +0.02    +0.052 C 
DOCKED: BRANCH  38  39
DOCKED: ATOM     39  C   UNL d   1     -17.372  -2.009   3.438 -0.03 +0.05    +0.115 C 
DOCKED: BRANCH  39  40
DOCKED: ATOM     40  C   UNL d   1     -16.159  -2.807   3.846 -0.04 +0.13    +0.139 C 
DOCKED: ATOM     41  O   UNL d   1     -15.519  -3.412   3.000 -0.24 -0.91    -0.650 OA
DOCKED: BRANCH  40  42
DOCKED: ATOM     42  O   UNL d   1     -15.735  -2.824   5.124 -0.09 -0.84    -0.776 OA
DOCKED: ATOM     43  H   UNL d   1     -16.349  -2.944   5.858 +0.01 +0.10    +0.167 HD
DOCKED: ENDBRANCH  40  42
DOCKED: ENDBRANCH  39  40
DOCKED: ENDBRANCH  38  39
DOCKED: ENDBRANCH  22  38
DOCKED: BRANCH  12  44
DOCKED: ATOM     44  C   UNL d   1      -6.527   2.817   1.190 -0.47 +0.00    +0.004 C 
DOCKED: ATOM     45  C   UNL d   1      -5.810   3.277   2.214 -0.49 +0.00    +0.012 C 
DOCKED: ENDBRANCH  12  44
DOCKED: BRANCH  17  46
DOCKED: ATOM     46  C   UNL d   1     -13.348   5.197   5.042 -0.21 +0.00    +0.004 C 
DOCKED: ATOM     47  C   UNL d   1     -13.021   5.884   6.144 -0.27 -0.00    +0.012 C 
DOCKED: ENDBRANCH  17  46
DOCKED: TORSDOF 10
DOCKED: TER
DOCKED: ENDMDL
________________________________________________________________________________


	BEGINNING GENETIC ALGORITHM DOCKING 76 of 100
Run: 76 Seed: 399612024 2021166972 [ Run 76 of 100 GA/GALS ]
Beginning LAMARCKIAN GENETIC ALGORITHM (LGA), with a maximum of 25000000 energy evaluations.

Final-Value: -10.518


	FINAL GENETIC ALGORITHM DOCKED STATE
	_______________________________________________


Detailed state:  trans 10.189 0.029 -15.917 quatxyzw -0.330812 -0.792358 -0.046979 -0.510417 center 8.287 34.468 -0.670 ntor 10 56.1501 40.0713 125.0363 141.9947 -106.0670 145.6536 142.3241 -174.9037 29.3925 1.8019
State:	 10.189   0.029 -15.917  -0.385 -0.921 -0.055 -118.617     56.15   40.07  125.04  141.99 -106.07  145.65  142.32 -174.90   29.39    1.80

DOCKED: MODEL       76
DOCKED: USER    Run = 76
DOCKED: USER    DPF = D:/Protein_go_brrr/autodock/final/mut_D99N/heme_O2/dock.dpf
DOCKED: USER  
DOCKED: USER    Estimated Free Energy of Binding    =   -6.05 kcal/mol  [=(1)+(2)+(3)-(4)]
DOCKED: USER    Estimated Inhibition Constant, Ki   =   36.98 uM (micromolar)  [Temperature = 298.15 K]
DOCKED: USER    
DOCKED: USER    (1) Final Intermolecular Energy     =   -9.03 kcal/mol
DOCKED: USER        vdW + Hbond + desolv Energy     =   -7.64 kcal/mol
DOCKED: USER        Electrostatic Energy            =   -1.39 kcal/mol
DOCKED: USER    (2) Final Total Internal Energy     =   -1.49 kcal/mol
DOCKED: USER    (3) Torsional Free Energy           =   +2.98 kcal/mol
DOCKED: USER    (4) Unbound System's Energy  [=(2)] =   -1.49 kcal/mol
DOCKED: USER    
DOCKED: USER    
DOCKED: USER    NEWDPF move heme_O2_opt.pdbqt
DOCKED: USER    NEWDPF about 8.287000 34.468000 -0.670000
DOCKED: USER    NEWDPF tran0 10.188930 0.029242 -15.916863
DOCKED: USER    NEWDPF quaternion0 -0.330812 -0.792358 -0.046979 -0.510417
DOCKED: USER    NEWDPF axisangle0 -0.384698 -0.921425 -0.054631 -118.616785
DOCKED: USER    NEWDPF quat0 -0.384698 -0.921425 -0.054631 -118.616785
DOCKED: USER    NEWDPF dihe0 56.15 40.07 125.04 141.99 -106.07 145.65 142.32 -174.90 29.39 1.80 
DOCKED: USER  keepresnum = 1 
DOCKED: USER  
DOCKED: REMARK  10 active torsions:
DOCKED: REMARK  status: ('A' for Active; 'I' for Inactive)
DOCKED: REMARK    1  A    between atoms: C_6  and  C_10 
DOCKED: REMARK    2  A    between atoms: C_10  and  C_11 
DOCKED: REMARK    3  A    between atoms: C_11  and  C_12 
DOCKED: REMARK    4  A    between atoms: C_12  and  O_14 
DOCKED: REMARK    5  A    between atoms: C_17  and  C_20 
DOCKED: REMARK    6  A    between atoms: C_24  and  C_27 
DOCKED: REMARK    7  A    between atoms: C_31  and  C_34 
DOCKED: REMARK    8  A    between atoms: C_34  and  C_35 
DOCKED: REMARK    9  A    between atoms: C_35  and  C_36 
DOCKED: REMARK   10  A    between atoms: C_36  and  O_38 
DOCKED: USER                              x       y       z     vdW  Elec       q    Type
DOCKED: USER                           _______ _______ _______ _____ _____    ______ ____
DOCKED: ROOT
DOCKED: ATOM      1  C   UNL d   1      11.642  -0.724 -17.266 -0.06 +0.03    +0.064 A 
DOCKED: ATOM      2  C   UNL d   1       6.893  -0.754 -17.321 -0.23 +0.02    +0.064 A 
DOCKED: ATOM      3  C   UNL d   1       6.738   1.517 -13.088 -0.27 +0.01    +0.064 C 
DOCKED: ATOM      4  C   UNL d   1      11.619   1.980 -13.250 -0.09 +0.01    +0.064 A 
DOCKED: ATOM      5  C   UNL d   1      10.363  -0.916 -17.627 -0.09 +0.04    +0.066 A 
DOCKED: ATOM      6  C   UNL d   1       9.970  -1.571 -18.798 -0.12 -0.01    -0.021 A 
DOCKED: ATOM      7  C   UNL d   1       8.595  -1.542 -18.836 -0.19 -0.01    -0.025 A 
DOCKED: ATOM      8  C   UNL d   1       8.186  -0.913 -17.664 -0.19 +0.03    +0.066 A 
DOCKED: ATOM      9  C   UNL d   1       7.750  -2.075 -19.972 -0.19 +0.01    +0.051 C 
DOCKED: ATOM     10  C   UNL d   1       6.402  -0.123 -16.095 -0.21 +0.02    +0.066 A 
DOCKED: ATOM     11  C   UNL d   1       5.057  -0.130 -15.711 -0.30 -0.01    -0.021 A 
DOCKED: ATOM     12  C   UNL d   1       4.994   0.504 -14.484 -0.34 +0.00    +0.000 A 
DOCKED: ATOM     13  C   UNL d   1       6.333   0.882 -14.188 -0.21 +0.02    +0.070 A 
DOCKED: ATOM     14  C   UNL d   1       3.884  -0.742 -16.469 -0.36 +0.02    +0.052 C 
DOCKED: ATOM     15  C   UNL d   1       8.077   1.948 -12.768 -0.26 +0.01    +0.066 A 
DOCKED: ATOM     16  C   UNL d   1       8.409   2.752 -11.678 -0.28 -0.00    -0.021 A 
DOCKED: ATOM     17  C   UNL d   1       9.796   2.899 -11.704 -0.20 +0.00    +0.000 A 
DOCKED: ATOM     18  C   UNL d   1      10.212   2.161 -12.822 -0.15 +0.01    +0.070 A 
DOCKED: ATOM     19  C   UNL d   1       7.380   3.349 -10.752 -0.27 +0.01    +0.052 C 
DOCKED: ATOM     20  C   UNL d   1      12.049   1.315 -14.340 -0.07 +0.01    +0.066 A 
DOCKED: ATOM     21  C   UNL d   1      13.390   1.163 -14.683 -0.04 -0.00    -0.025 A 
DOCKED: ATOM     22  C   UNL d   1      13.417   0.372 -15.810 -0.04 -0.00    -0.021 A 
DOCKED: ATOM     23  C   UNL d   1      12.085   0.085 -16.125 -0.07 +0.02    +0.066 A 
DOCKED: ATOM     24  C   UNL d   1      14.584   1.745 -13.973 -0.03 +0.00    +0.051 C 
DOCKED: ATOM     25  N   UNL d   1       9.276  -0.469 -16.952 -0.08 -0.12    -0.248 N 
DOCKED: ATOM     26  N   UNL d   1       7.183   0.501 -15.176 -0.11 -0.07    -0.248 N 
DOCKED: ATOM     27  N   UNL d   1       9.149   1.654 -13.498 -0.12 -0.05    -0.248 N 
DOCKED: ATOM     28  N   UNL d   1      11.255   0.698 -15.255 -0.07 -0.08    -0.248 N 
DOCKED: ATOM     29 FE   UNL d   1       9.234   0.602 -15.213 -0.04 +0.00    +0.000 Fe
DOCKED: ATOM     30  O   UNL d   1       8.735   1.398 -16.454 -0.09 +0.00    +0.000 OA
DOCKED: ATOM     31  O   UNL d   1       9.631   2.115 -15.374 -0.08 +0.00    +0.000 OA
DOCKED: ENDROOT
DOCKED: BRANCH   6  32
DOCKED: ATOM     32  C   UNL d   1      10.850  -2.084 -19.908 -0.07 +0.01    +0.052 C 
DOCKED: BRANCH  32  33
DOCKED: ATOM     33  C   UNL d   1      10.841  -3.606 -20.015 -0.12 +0.03    +0.115 C 
DOCKED: BRANCH  33  34
DOCKED: ATOM     34  C   UNL d   1      10.848  -4.278 -18.664 -0.17 +0.08    +0.139 C 
DOCKED: ATOM     35  O   UNL d   1       9.815  -4.755 -18.222 -0.69 -0.54    -0.650 OA
DOCKED: BRANCH  34  36
DOCKED: ATOM     36  O   UNL d   1      11.968  -4.340 -17.915 -0.12 -0.60    -0.776 OA
DOCKED: ATOM     37  H   UNL d   1      12.456  -3.549 -17.658 +0.03 +0.14    +0.167 HD
DOCKED: ENDBRANCH  34  36
DOCKED: ENDBRANCH  33  34
DOCKED: ENDBRANCH  32  33
DOCKED: ENDBRANCH   6  32
DOCKED: BRANCH  22  38
DOCKED: ATOM     38  C   UNL d   1      14.653  -0.027 -16.573 -0.02 +0.01    +0.052 C 
DOCKED: BRANCH  38  39
DOCKED: ATOM     39  C   UNL d   1      15.063  -1.473 -16.301 -0.02 +0.01    +0.115 C 
DOCKED: BRANCH  39  40
DOCKED: ATOM     40  C   UNL d   1      14.084  -2.191 -15.407 -0.10 +0.03    +0.139 C 
DOCKED: ATOM     41  O   UNL d   1      13.997  -1.881 -14.230 -0.00 -0.10    -0.650 OA
DOCKED: BRANCH  40  42
DOCKED: ATOM     42  O   UNL d   1      13.261  -3.140 -15.896 -0.37 -0.45    -0.776 OA
DOCKED: ATOM     43  H   UNL d   1      13.574  -3.806 -16.520 +0.02 +0.06    +0.167 HD
DOCKED: ENDBRANCH  40  42
DOCKED: ENDBRANCH  39  40
DOCKED: ENDBRANCH  38  39
DOCKED: ENDBRANCH  22  38
DOCKED: BRANCH  12  44
DOCKED: ATOM     44  C   UNL d   1       3.689   0.684 -13.737 -0.48 +0.00    +0.004 C 
DOCKED: ATOM     45  C   UNL d   1       2.593   1.322 -14.146 -0.41 +0.00    +0.012 C 
DOCKED: ENDBRANCH  12  44
DOCKED: BRANCH  17  46
DOCKED: ATOM     46  C   UNL d   1      10.723   3.697 -10.826 -0.11 +0.00    +0.004 C 
DOCKED: ATOM     47  C   UNL d   1      11.888   3.315 -10.288 -0.15 +0.00    +0.012 C 
DOCKED: ENDBRANCH  17  46
DOCKED: TORSDOF 10
DOCKED: TER
DOCKED: ENDMDL
________________________________________________________________________________


	BEGINNING GENETIC ALGORITHM DOCKING 77 of 100
Run: 77 Seed: 1633015741 1878744030 [ Run 77 of 100 GA/GALS ]
Beginning LAMARCKIAN GENETIC ALGORITHM (LGA), with a maximum of 25000000 energy evaluations.

Final-Value: -11.262


	FINAL GENETIC ALGORITHM DOCKED STATE
	_______________________________________________


Detailed state:  trans -10.314 -4.289 10.985 quatxyzw -0.454611 0.399716 -0.502862 0.616998 center 8.287 34.468 -0.670 ntor 10 154.7162 -59.1225 -55.8618 25.9226 -128.9953 22.3882 -67.4969 -36.8690 -158.6377 4.5788
State:	-10.314  -4.289  10.985  -0.578  0.508 -0.639 103.805    154.72  -59.12  -55.86   25.92 -129.00   22.39  -67.50  -36.87 -158.64    4.58

DOCKED: MODEL       77
DOCKED: USER    Run = 77
DOCKED: USER    DPF = D:/Protein_go_brrr/autodock/final/mut_D99N/heme_O2/dock.dpf
DOCKED: USER  
DOCKED: USER    Estimated Free Energy of Binding    =   -6.21 kcal/mol  [=(1)+(2)+(3)-(4)]
DOCKED: USER    Estimated Inhibition Constant, Ki   =   28.11 uM (micromolar)  [Temperature = 298.15 K]
DOCKED: USER    
DOCKED: USER    (1) Final Intermolecular Energy     =   -9.19 kcal/mol
DOCKED: USER        vdW + Hbond + desolv Energy     =   -6.33 kcal/mol
DOCKED: USER        Electrostatic Energy            =   -2.87 kcal/mol
DOCKED: USER    (2) Final Total Internal Energy     =   -2.07 kcal/mol
DOCKED: USER    (3) Torsional Free Energy           =   +2.98 kcal/mol
DOCKED: USER    (4) Unbound System's Energy  [=(2)] =   -2.07 kcal/mol
DOCKED: USER    
DOCKED: USER    
DOCKED: USER    NEWDPF move heme_O2_opt.pdbqt
DOCKED: USER    NEWDPF about 8.287000 34.468000 -0.670000
DOCKED: USER    NEWDPF tran0 -10.313914 -4.289123 10.985219
DOCKED: USER    NEWDPF quaternion0 -0.454611 0.399716 -0.502862 0.616998
DOCKED: USER    NEWDPF axisangle0 -0.577676 0.507921 -0.638989 103.805492
DOCKED: USER    NEWDPF quat0 -0.577676 0.507921 -0.638989 103.805492
DOCKED: USER    NEWDPF dihe0 154.72 -59.12 -55.86 25.92 -129.00 22.39 -67.50 -36.87 -158.64 4.58 
DOCKED: USER  keepresnum = 1 
DOCKED: USER  
DOCKED: REMARK  10 active torsions:
DOCKED: REMARK  status: ('A' for Active; 'I' for Inactive)
DOCKED: REMARK    1  A    between atoms: C_6  and  C_10 
DOCKED: REMARK    2  A    between atoms: C_10  and  C_11 
DOCKED: REMARK    3  A    between atoms: C_11  and  C_12 
DOCKED: REMARK    4  A    between atoms: C_12  and  O_14 
DOCKED: REMARK    5  A    between atoms: C_17  and  C_20 
DOCKED: REMARK    6  A    between atoms: C_24  and  C_27 
DOCKED: REMARK    7  A    between atoms: C_31  and  C_34 
DOCKED: REMARK    8  A    between atoms: C_34  and  C_35 
DOCKED: REMARK    9  A    between atoms: C_35  and  C_36 
DOCKED: REMARK   10  A    between atoms: C_36  and  O_38 
DOCKED: USER                              x       y       z     vdW  Elec       q    Type
DOCKED: USER                           _______ _______ _______ _____ _____    ______ ____
DOCKED: ROOT
DOCKED: ATOM      1  C   UNL d   1     -11.204  -3.951   9.090 -0.18 +0.02    +0.064 A 
DOCKED: ATOM      2  C   UNL d   1      -8.449  -7.439  10.763 -0.19 +0.02    +0.064 A 
DOCKED: ATOM      3  C   UNL d   1      -8.150  -5.275  15.044 -0.18 +0.01    +0.064 C 
DOCKED: ATOM      4  C   UNL d   1     -11.373  -1.922  13.483 -0.19 +0.02    +0.064 A 
DOCKED: ATOM      5  C   UNL d   1     -10.481  -5.077   9.196 -0.19 +0.02    +0.066 A 
DOCKED: ATOM      6  C   UNL d   1     -10.291  -5.987   8.153 -0.23 -0.01    -0.021 A 
DOCKED: ATOM      7  C   UNL d   1      -9.530  -7.020   8.648 -0.23 -0.01    -0.025 A 
DOCKED: ATOM      8  C   UNL d   1      -9.234  -6.688   9.968 -0.19 +0.02    +0.066 A 
DOCKED: ATOM      9  C   UNL d   1      -9.148  -8.263   7.875 -0.21 +0.02    +0.051 C 
DOCKED: ATOM     10  C   UNL d   1      -8.085  -7.131  12.147 -0.13 +0.02    +0.066 A 
DOCKED: ATOM     11  C   UNL d   1      -7.137  -7.859  12.874 -0.14 -0.01    -0.021 A 
DOCKED: ATOM     12  C   UNL d   1      -7.023  -7.240  14.104 -0.10 +0.00    +0.000 A 
DOCKED: ATOM     13  C   UNL d   1      -7.938  -6.152  14.062 -0.12 +0.01    +0.070 A 
DOCKED: ATOM     14  C   UNL d   1      -6.351  -9.078  12.403 -0.13 +0.02    +0.052 C 
DOCKED: ATOM     15  C   UNL d   1      -9.092  -4.181  15.054 -0.19 +0.01    +0.066 A 
DOCKED: ATOM     16  C   UNL d   1      -9.384  -3.400  16.171 -0.21 -0.00    -0.021 A 
DOCKED: ATOM     17  C   UNL d   1     -10.301  -2.437  15.750 -0.25 +0.00    +0.000 A 
DOCKED: ATOM     18  C   UNL d   1     -10.502  -2.707  14.389 -0.21 +0.02    +0.070 A 
DOCKED: ATOM     19  C   UNL d   1      -8.809  -3.672  17.538 -0.10 +0.01    +0.052 C 
DOCKED: ATOM     20  C   UNL d   1     -11.622  -2.179  12.184 -0.14 +0.02    +0.066 A 
DOCKED: ATOM     21  C   UNL d   1     -12.439  -1.393  11.375 -0.11 -0.01    -0.025 A 
DOCKED: ATOM     22  C   UNL d   1     -12.381  -1.941  10.113 -0.10 -0.01    -0.021 A 
DOCKED: ATOM     23  C   UNL d   1     -11.541  -3.055  10.203 -0.13 +0.02    +0.066 A 
DOCKED: ATOM     24  C   UNL d   1     -13.237  -0.184  11.787 -0.14 +0.02    +0.051 C 
DOCKED: ATOM     25  N   UNL d   1      -9.875  -5.523  10.324 -0.07 -0.05    -0.248 N 
DOCKED: ATOM     26  N   UNL d   1      -8.584  -6.096  12.870 -0.01 -0.05    -0.248 N 
DOCKED: ATOM     27  N   UNL d   1      -9.818  -3.814  14.002 -0.06 -0.05    -0.248 N 
DOCKED: ATOM     28  N   UNL d   1     -11.118  -3.222  11.473 -0.06 -0.06    -0.248 N 
DOCKED: ATOM     29 FE   UNL d   1      -9.860  -4.648  12.169 -0.04 +0.00    +0.000 Fe
DOCKED: ATOM     30  O   UNL d   1     -10.650  -5.988  12.116 -0.10 +0.00    +0.000 OA
DOCKED: ATOM     31  O   UNL d   1     -11.212  -4.783  12.961 -0.10 +0.00    +0.000 OA
DOCKED: ENDROOT
DOCKED: BRANCH   6  32
DOCKED: ATOM     32  C   UNL d   1     -10.914  -5.961   6.781 -0.17 +0.02    +0.052 C 
DOCKED: BRANCH  32  33
DOCKED: ATOM     33  C   UNL d   1     -12.382  -6.379   6.789 -0.11 +0.05    +0.115 C 
DOCKED: BRANCH  33  34
DOCKED: ATOM     34  C   UNL d   1     -13.309  -5.225   6.497 -0.10 +0.10    +0.139 C 
DOCKED: ATOM     35  O   UNL d   1     -13.481  -4.866   5.343 -0.16 -0.94    -0.650 OA
DOCKED: BRANCH  34  36
DOCKED: ATOM     36  O   UNL d   1     -13.936  -4.559   7.488 -0.00 -0.43    -0.776 OA
DOCKED: ATOM     37  H   UNL d   1     -14.231  -3.647   7.384 +0.02 +0.11    +0.167 HD
DOCKED: ENDBRANCH  34  36
DOCKED: ENDBRANCH  33  34
DOCKED: ENDBRANCH  32  33
DOCKED: ENDBRANCH   6  32
DOCKED: BRANCH  22  38
DOCKED: ATOM     38  C   UNL d   1     -13.143  -1.453   8.908 -0.09 +0.02    +0.052 C 
DOCKED: BRANCH  38  39
DOCKED: ATOM     39  C   UNL d   1     -12.246  -0.729   7.906 -0.19 +0.06    +0.115 C 
DOCKED: BRANCH  39  40
DOCKED: ATOM     40  C   UNL d   1     -12.620  -1.031   6.476 -0.17 +0.15    +0.139 C 
DOCKED: ATOM     41  O   UNL d   1     -12.158  -0.351   5.573 -0.41 -0.86    -0.650 OA
DOCKED: BRANCH  40  42
DOCKED: ATOM     42  O   UNL d   1     -13.417  -2.073   6.170 +0.07 -1.45    -0.776 OA
DOCKED: ATOM     43  H   UNL d   1     -13.197  -2.973   6.439 +0.02 +0.26    +0.167 HD
DOCKED: ENDBRANCH  40  42
DOCKED: ENDBRANCH  39  40
DOCKED: ENDBRANCH  38  39
DOCKED: ENDBRANCH  22  38
DOCKED: BRANCH  12  44
DOCKED: ATOM     44  C   UNL d   1      -6.075  -7.742  15.173 -0.07 +0.00    +0.004 C 
DOCKED: ATOM     45  C   UNL d   1      -5.057  -7.091  15.736 -0.09 +0.00    +0.012 C 
DOCKED: ENDBRANCH  12  44
DOCKED: BRANCH  17  46
DOCKED: ATOM     46  C   UNL d   1     -11.023  -1.359  16.514 -0.24 +0.00    +0.004 C 
DOCKED: ATOM     47  C   UNL d   1     -10.708  -0.835  17.705 -0.22 +0.00    +0.012 C 
DOCKED: ENDBRANCH  17  46
DOCKED: TORSDOF 10
DOCKED: TER
DOCKED: ENDMDL
________________________________________________________________________________


	BEGINNING GENETIC ALGORITHM DOCKING 78 of 100
Run: 78 Seed: 1834133456 1843629557 [ Run 78 of 100 GA/GALS ]
Beginning LAMARCKIAN GENETIC ALGORITHM (LGA), with a maximum of 25000000 energy evaluations.

Final-Value: -16.661


	FINAL GENETIC ALGORITHM DOCKED STATE
	_______________________________________________


Detailed state:  trans -8.721 2.494 1.279 quatxyzw -0.608456 -0.271626 -0.215007 0.713983 center 8.287 34.468 -0.670 ntor 10 100.3008 -128.2860 -15.0859 37.5267 32.1992 43.9402 -6.6394 -73.8745 36.3148 -176.5446
State:	 -8.721   2.494   1.279  -0.869 -0.388 -0.307 88.880    100.30 -128.29  -15.09   37.53   32.20   43.94   -6.64  -73.87   36.31 -176.54

DOCKED: MODEL       78
DOCKED: USER    Run = 78
DOCKED: USER    DPF = D:/Protein_go_brrr/autodock/final/mut_D99N/heme_O2/dock.dpf
DOCKED: USER  
DOCKED: USER    Estimated Free Energy of Binding    =  -13.11 kcal/mol  [=(1)+(2)+(3)-(4)]
DOCKED: USER    Estimated Inhibition Constant, Ki   =  245.56 pM (picomolar)  [Temperature = 298.15 K]
DOCKED: USER    
DOCKED: USER    (1) Final Intermolecular Energy     =  -16.09 kcal/mol
DOCKED: USER        vdW + Hbond + desolv Energy     =  -14.78 kcal/mol
DOCKED: USER        Electrostatic Energy            =   -1.31 kcal/mol
DOCKED: USER    (2) Final Total Internal Energy     =   -0.57 kcal/mol
DOCKED: USER    (3) Torsional Free Energy           =   +2.98 kcal/mol
DOCKED: USER    (4) Unbound System's Energy  [=(2)] =   -0.57 kcal/mol
DOCKED: USER    
DOCKED: USER    
DOCKED: USER    NEWDPF move heme_O2_opt.pdbqt
DOCKED: USER    NEWDPF about 8.287000 34.468000 -0.670000
DOCKED: USER    NEWDPF tran0 -8.720612 2.494104 1.278765
DOCKED: USER    NEWDPF quaternion0 -0.608456 -0.271626 -0.215007 0.713983
DOCKED: USER    NEWDPF axisangle0 -0.869021 -0.387947 -0.307081 88.880118
DOCKED: USER    NEWDPF quat0 -0.869021 -0.387947 -0.307081 88.880118
DOCKED: USER    NEWDPF dihe0 100.30 -128.29 -15.09 37.53 32.20 43.94 -6.64 -73.87 36.31 -176.54 
DOCKED: USER  keepresnum = 1 
DOCKED: USER  
DOCKED: REMARK  10 active torsions:
DOCKED: REMARK  status: ('A' for Active; 'I' for Inactive)
DOCKED: REMARK    1  A    between atoms: C_6  and  C_10 
DOCKED: REMARK    2  A    between atoms: C_10  and  C_11 
DOCKED: REMARK    3  A    between atoms: C_11  and  C_12 
DOCKED: REMARK    4  A    between atoms: C_12  and  O_14 
DOCKED: REMARK    5  A    between atoms: C_17  and  C_20 
DOCKED: REMARK    6  A    between atoms: C_24  and  C_27 
DOCKED: REMARK    7  A    between atoms: C_31  and  C_34 
DOCKED: REMARK    8  A    between atoms: C_34  and  C_35 
DOCKED: REMARK    9  A    between atoms: C_35  and  C_36 
DOCKED: REMARK   10  A    between atoms: C_36  and  O_38 
DOCKED: USER                              x       y       z     vdW  Elec       q    Type
DOCKED: USER                           _______ _______ _______ _____ _____    ______ ____
DOCKED: ROOT
DOCKED: ATOM      1  C   UNL d   1     -10.647   2.004   2.019 -0.22 +0.02    +0.064 A 
DOCKED: ATOM      2  C   UNL d   1      -7.411  -0.490  -0.402 -0.37 +0.01    +0.064 A 
DOCKED: ATOM      3  C   UNL d   1      -4.461   3.301  -0.546 -0.04 +0.01    +0.064 C 
DOCKED: ATOM      4  C   UNL d   1      -7.579   5.734   2.357 -0.33 +0.01    +0.064 A 
DOCKED: ATOM      5  C   UNL d   1     -10.007   1.016   1.373 -0.25 +0.02    +0.066 A 
DOCKED: ATOM      6  C   UNL d   1     -10.540  -0.261   1.170 -0.37 -0.01    -0.021 A 
DOCKED: ATOM      7  C   UNL d   1      -9.586  -0.997   0.507 -0.32 -0.01    -0.025 A 
DOCKED: ATOM      8  C   UNL d   1      -8.516  -0.136   0.281 -0.35 +0.01    +0.066 A 
DOCKED: ATOM      9  C   UNL d   1      -9.716  -2.462   0.151 -0.29 +0.02    +0.051 C 
DOCKED: ATOM     10  C   UNL d   1      -6.266   0.375  -0.691 -0.40 +0.01    +0.066 A 
DOCKED: ATOM     11  C   UNL d   1      -5.219   0.008  -1.544 -0.45 -0.00    -0.021 A 
DOCKED: ATOM     12  C   UNL d   1      -4.368   1.095  -1.612 -0.42 +0.00    +0.000 A 
DOCKED: ATOM     13  C   UNL d   1      -4.950   2.081  -0.769 -0.36 +0.01    +0.070 A 
DOCKED: ATOM     14  C   UNL d   1      -5.052  -1.315  -2.283 -0.60 +0.00    +0.052 C 
DOCKED: ATOM     15  C   UNL d   1      -5.002   4.316   0.326 -0.38 +0.01    +0.066 A 
DOCKED: ATOM     16  C   UNL d   1      -4.356   5.511   0.644 -0.51 -0.00    -0.021 A 
DOCKED: ATOM     17  C   UNL d   1      -5.226   6.220   1.472 -0.49 +0.00    +0.000 A 
DOCKED: ATOM     18  C   UNL d   1      -6.353   5.395   1.597 -0.39 +0.01    +0.070 A 
DOCKED: ATOM     19  C   UNL d   1      -2.960   5.840   0.179 -0.19 +0.00    +0.052 C 
DOCKED: ATOM     20  C   UNL d   1      -8.659   4.948   2.533 -0.42 +0.01    +0.066 A 
DOCKED: ATOM     21  C   UNL d   1      -9.793   5.329   3.246 -0.46 -0.00    -0.025 A 
DOCKED: ATOM     22  C   UNL d   1     -10.689   4.289   3.137 -0.32 -0.00    -0.021 A 
DOCKED: ATOM     23  C   UNL d   1     -10.059   3.301   2.374 -0.29 +0.01    +0.066 A 
DOCKED: ATOM     24  C   UNL d   1     -10.009   6.618   3.995 -0.20 -0.00    +0.051 C 
DOCKED: ATOM     25  N   UNL d   1      -8.749   1.085   0.872 -0.10 -0.07    -0.248 N 
DOCKED: ATOM     26  N   UNL d   1      -6.102   1.634  -0.209 -0.26 -0.03    -0.248 N 
DOCKED: ATOM     27  N   UNL d   1      -6.168   4.212   0.957 -0.25 -0.04    -0.248 N 
DOCKED: ATOM     28  N   UNL d   1      -8.808   3.687   2.047 -0.16 -0.08    -0.248 N 
DOCKED: ATOM     29 FE   UNL d   1      -7.463   2.670   0.928 -0.09 +0.00    +0.000 Fe
DOCKED: ATOM     30  O   UNL d   1      -7.005   1.459   1.792 -0.50 +0.00    +0.000 OA
DOCKED: ATOM     31  O   UNL d   1      -6.809   2.925   2.335 -0.94 +0.00    +0.000 OA
DOCKED: ENDROOT
DOCKED: BRANCH   6  32
DOCKED: ATOM     32  C   UNL d   1     -11.838  -0.813   1.698 -0.00 +0.06    +0.052 C 
DOCKED: BRANCH  32  33
DOCKED: ATOM     33  C   UNL d   1     -12.789  -1.253   0.589 -0.15 +0.09    +0.115 C 
DOCKED: BRANCH  33  34
DOCKED: ATOM     34  C   UNL d   1     -13.989  -1.997   1.121 +0.14 +0.18    +0.139 C 
DOCKED: ATOM     35  O   UNL d   1     -14.183  -3.152   0.779 -0.29 -0.68    -0.650 OA
DOCKED: BRANCH  34  36
DOCKED: ATOM     36  O   UNL d   1     -14.874  -1.403   1.947 -0.29 -1.01    -0.776 OA
DOCKED: ATOM     37  H   UNL d   1     -15.720  -1.064   1.632 +0.03 +0.11    +0.167 HD
DOCKED: ENDBRANCH  34  36
DOCKED: ENDBRANCH  33  34
DOCKED: ENDBRANCH  32  33
DOCKED: ENDBRANCH   6  32
DOCKED: BRANCH  22  38
DOCKED: ATOM     38  C   UNL d   1     -12.047   4.228   3.786 -0.24 +0.01    +0.052 C 
DOCKED: BRANCH  38  39
DOCKED: ATOM     39  C   UNL d   1     -11.963   3.958   5.287 -0.26 +0.01    +0.115 C 
DOCKED: BRANCH  39  40
DOCKED: ATOM     40  C   UNL d   1     -12.237   5.191   6.111 -0.27 +0.00    +0.139 C 
DOCKED: ATOM     41  O   UNL d   1     -12.053   5.166   7.317 -0.03 -0.02    -0.650 OA
DOCKED: BRANCH  40  42
DOCKED: ATOM     42  O   UNL d   1     -12.634   6.340   5.532 +0.09 +0.07    -0.776 OA
DOCKED: ATOM     43  H   UNL d   1     -12.161   7.168   5.677 -0.35 -0.06    +0.167 HD
DOCKED: ENDBRANCH  40  42
DOCKED: ENDBRANCH  39  40
DOCKED: ENDBRANCH  38  39
DOCKED: ENDBRANCH  22  38
DOCKED: BRANCH  12  44
DOCKED: ATOM     44  C   UNL d   1      -3.110   1.078  -2.455 -0.47 +0.00    +0.004 C 
DOCKED: ATOM     45  C   UNL d   1      -2.406   2.120  -2.896 -0.60 +0.00    +0.012 C 
DOCKED: ENDBRANCH  12  44
DOCKED: BRANCH  17  46
DOCKED: ATOM     46  C   UNL d   1      -5.063   7.541   2.176 -0.66 +0.00    +0.004 C 
DOCKED: ATOM     47  C   UNL d   1      -4.344   8.602   1.790 -0.68 +0.00    +0.012 C 
DOCKED: ENDBRANCH  17  46
DOCKED: TORSDOF 10
DOCKED: TER
DOCKED: ENDMDL
________________________________________________________________________________


	BEGINNING GENETIC ALGORITHM DOCKING 79 of 100
Run: 79 Seed: 1909140313 1907692073 [ Run 79 of 100 GA/GALS ]
Beginning LAMARCKIAN GENETIC ALGORITHM (LGA), with a maximum of 25000000 energy evaluations.

Final-Value: -8.871


	FINAL GENETIC ALGORITHM DOCKED STATE
	_______________________________________________


Detailed state:  trans 18.902 -1.498 0.695 quatxyzw -0.142942 -0.476263 0.798693 -0.338867 center 8.287 34.468 -0.670 ntor 10 -37.2392 -60.7894 -12.7838 -29.9461 34.0983 88.0182 -121.3213 -78.0770 -171.4047 7.2865
State:	 18.902  -1.498   0.695  -0.152 -0.506  0.849 -140.384    -37.24  -60.79  -12.78  -29.95   34.10   88.02 -121.32  -78.08 -171.40    7.29

DOCKED: MODEL       79
DOCKED: USER    Run = 79
DOCKED: USER    DPF = D:/Protein_go_brrr/autodock/final/mut_D99N/heme_O2/dock.dpf
DOCKED: USER  
DOCKED: USER    Estimated Free Energy of Binding    =   -3.91 kcal/mol  [=(1)+(2)+(3)-(4)]
DOCKED: USER    Estimated Inhibition Constant, Ki   =    1.36 mM (millimolar)  [Temperature = 298.15 K]
DOCKED: USER    
DOCKED: USER    (1) Final Intermolecular Energy     =   -6.89 kcal/mol
DOCKED: USER        vdW + Hbond + desolv Energy     =   -6.99 kcal/mol
DOCKED: USER        Electrostatic Energy            =   +0.10 kcal/mol
DOCKED: USER    (2) Final Total Internal Energy     =   -1.98 kcal/mol
DOCKED: USER    (3) Torsional Free Energy           =   +2.98 kcal/mol
DOCKED: USER    (4) Unbound System's Energy  [=(2)] =   -1.98 kcal/mol
DOCKED: USER    
DOCKED: USER    
DOCKED: USER    NEWDPF move heme_O2_opt.pdbqt
DOCKED: USER    NEWDPF about 8.287000 34.468000 -0.670000
DOCKED: USER    NEWDPF tran0 18.902249 -1.498422 0.695482
DOCKED: USER    NEWDPF quaternion0 -0.142942 -0.476263 0.798693 -0.338867
DOCKED: USER    NEWDPF axisangle0 -0.151931 -0.506214 0.848920 -140.384313
DOCKED: USER    NEWDPF quat0 -0.151931 -0.506214 0.848920 -140.384313
DOCKED: USER    NEWDPF dihe0 -37.24 -60.79 -12.78 -29.95 34.10 88.02 -121.32 -78.08 -171.40 7.29 
DOCKED: USER  keepresnum = 1 
DOCKED: USER  
DOCKED: REMARK  10 active torsions:
DOCKED: REMARK  status: ('A' for Active; 'I' for Inactive)
DOCKED: REMARK    1  A    between atoms: C_6  and  C_10 
DOCKED: REMARK    2  A    between atoms: C_10  and  C_11 
DOCKED: REMARK    3  A    between atoms: C_11  and  C_12 
DOCKED: REMARK    4  A    between atoms: C_12  and  O_14 
DOCKED: REMARK    5  A    between atoms: C_17  and  C_20 
DOCKED: REMARK    6  A    between atoms: C_24  and  C_27 
DOCKED: REMARK    7  A    between atoms: C_31  and  C_34 
DOCKED: REMARK    8  A    between atoms: C_34  and  C_35 
DOCKED: REMARK    9  A    between atoms: C_35  and  C_36 
DOCKED: REMARK   10  A    between atoms: C_36  and  O_38 
DOCKED: USER                              x       y       z     vdW  Elec       q    Type
DOCKED: USER                           _______ _______ _______ _____ _____    ______ ____
DOCKED: ROOT
DOCKED: ATOM      1  C   UNL d   1      20.463  -2.425  -0.402 -0.10 -0.00    +0.064 A 
DOCKED: ATOM      2  C   UNL d   1      18.668  -3.226   3.922 -0.18 +0.00    +0.064 A 
DOCKED: ATOM      3  C   UNL d   1      15.554   0.397   3.401 -0.19 -0.00    +0.064 C 
DOCKED: ATOM      4  C   UNL d   1      17.069   0.925  -1.235 -0.11 -0.01    +0.064 A 
DOCKED: ATOM      5  C   UNL d   1      20.228  -2.940   0.816 -0.12 -0.00    +0.066 A 
DOCKED: ATOM      6  C   UNL d   1      20.945  -4.005   1.367 -0.19 -0.00    -0.021 A 
DOCKED: ATOM      7  C   UNL d   1      20.398  -4.266   2.602 -0.19 -0.00    -0.025 A 
DOCKED: ATOM      8  C   UNL d   1      19.393  -3.322   2.790 -0.18 -0.00    +0.066 A 
DOCKED: ATOM      9  C   UNL d   1      20.823  -5.395   3.516 -0.09 +0.01    +0.051 C 
DOCKED: ATOM     10  C   UNL d   1      17.617  -2.243   4.187 -0.21 -0.01    +0.066 A 
DOCKED: ATOM     11  C   UNL d   1      17.010  -2.083   5.437 -0.25 +0.00    -0.021 A 
DOCKED: ATOM     12  C   UNL d   1      16.122  -1.031   5.312 -0.26 -0.00    +0.000 A 
DOCKED: ATOM     13  C   UNL d   1      16.231  -0.607   3.959 -0.20 -0.00    +0.070 A 
DOCKED: ATOM     14  C   UNL d   1      17.286  -2.883   6.705 -0.26 -0.00    +0.052 C 
DOCKED: ATOM     15  C   UNL d   1      15.610   0.834   2.027 -0.08 -0.00    +0.066 A 
DOCKED: ATOM     16  C   UNL d   1      14.756   1.783   1.464 -0.20 -0.00    -0.021 A 
DOCKED: ATOM     17  C   UNL d   1      15.169   1.949   0.142 -0.19 -0.00    +0.000 A 
DOCKED: ATOM     18  C   UNL d   1      16.259   1.080  -0.003 -0.15 -0.00    +0.070 A 
DOCKED: ATOM     19  C   UNL d   1      13.602   2.398   2.214 -0.13 +0.00    +0.052 C 
DOCKED: ATOM     20  C   UNL d   1      18.092   0.069  -1.422 -0.13 -0.01    +0.066 A 
DOCKED: ATOM     21  C   UNL d   1      18.830  -0.019  -2.600 -0.17 +0.00    -0.025 A 
DOCKED: ATOM     22  C   UNL d   1      19.819  -0.949  -2.371 -0.16 +0.00    -0.021 A 
DOCKED: ATOM     23  C   UNL d   1      19.636  -1.409  -1.064 -0.11 -0.00    +0.066 A 
DOCKED: ATOM     24  C   UNL d   1      18.600   0.743  -3.879 -0.18 -0.01    +0.051 C 
DOCKED: ATOM     25  N   UNL d   1      19.245  -2.547   1.663 -0.08 +0.01    -0.248 N 
DOCKED: ATOM     26  N   UNL d   1      17.140  -1.352   3.280 -0.13 +0.02    -0.248 N 
DOCKED: ATOM     27  N   UNL d   1      16.464   0.357   1.127 -0.07 +0.01    -0.248 N 
DOCKED: ATOM     28  N   UNL d   1      18.558  -0.820  -0.506 -0.06 +0.02    -0.248 N 
DOCKED: ATOM     29 FE   UNL d   1      17.852  -1.082   1.373 -0.04 -0.00    +0.000 Fe
DOCKED: ATOM     30  O   UNL d   1      17.254  -2.519   1.416 -0.41 -0.00    +0.000 OA
DOCKED: ATOM     31  O   UNL d   1      16.699  -1.473   0.377 -0.35 -0.00    +0.000 OA
DOCKED: ENDROOT
DOCKED: BRANCH   6  32
DOCKED: ATOM     32  C   UNL d   1      22.013  -4.838   0.708 -0.19 +0.01    +0.052 C 
DOCKED: BRANCH  32  33
DOCKED: ATOM     33  C   UNL d   1      21.446  -6.027  -0.063 -0.25 +0.01    +0.115 C 
DOCKED: BRANCH  33  34
DOCKED: ATOM     34  C   UNL d   1      20.441  -5.608  -1.107 -0.40 -0.01    +0.139 C 
DOCKED: ATOM     35  O   UNL d   1      19.282  -5.981  -1.013 -0.19 +0.15    -0.650 OA
DOCKED: BRANCH  34  36
DOCKED: ATOM     36  O   UNL d   1      20.799  -4.851  -2.165 -0.00 -0.05    -0.776 OA
DOCKED: ATOM     37  H   UNL d   1      21.452  -4.146  -2.090 +0.05 +0.01    +0.167 HD
DOCKED: ENDBRANCH  34  36
DOCKED: ENDBRANCH  33  34
DOCKED: ENDBRANCH  32  33
DOCKED: ENDBRANCH   6  32
DOCKED: BRANCH  22  38
DOCKED: ATOM     38  C   UNL d   1      20.839  -1.412  -3.379 +0.02 +0.00    +0.052 C 
DOCKED: BRANCH  38  39
DOCKED: ATOM     39  C   UNL d   1      22.244  -0.906  -3.060 -0.07 +0.01    +0.115 C 
DOCKED: BRANCH  39  40
DOCKED: ATOM     40  C   UNL d   1      23.099  -1.958  -2.400 -0.05 +0.01    +0.139 C 
DOCKED: ATOM     41  O   UNL d   1      23.667  -1.705  -1.350 +0.01 -0.03    -0.650 OA
DOCKED: BRANCH  40  42
DOCKED: ATOM     42  O   UNL d   1      23.208  -3.195  -2.922 +0.02 -0.06    -0.776 OA
DOCKED: ATOM     43  H   UNL d   1      22.434  -3.753  -3.064 +0.03 +0.02    +0.167 HD
DOCKED: ENDBRANCH  40  42
DOCKED: ENDBRANCH  39  40
DOCKED: ENDBRANCH  38  39
DOCKED: ENDBRANCH  22  38
DOCKED: BRANCH  12  44
DOCKED: ATOM     44  C   UNL d   1      15.275  -0.552   6.473 -0.09 +0.00    +0.004 C 
DOCKED: ATOM     45  C   UNL d   1      14.631   0.609   6.592 -0.26 +0.00    +0.012 C 
DOCKED: ENDBRANCH  12  44
DOCKED: BRANCH  17  46
DOCKED: ATOM     46  C   UNL d   1      14.602   2.789  -0.971 -0.18 +0.00    +0.004 C 
DOCKED: ATOM     47  C   UNL d   1      13.316   3.049  -1.241 -0.26 +0.00    +0.012 C 
DOCKED: ENDBRANCH  17  46
DOCKED: TORSDOF 10
DOCKED: TER
DOCKED: ENDMDL
________________________________________________________________________________


	BEGINNING GENETIC ALGORITHM DOCKING 80 of 100
Run: 80 Seed: 988803956 1753469383 [ Run 80 of 100 GA/GALS ]
Beginning LAMARCKIAN GENETIC ALGORITHM (LGA), with a maximum of 25000000 energy evaluations.

Final-Value: -15.997


	FINAL GENETIC ALGORITHM DOCKED STATE
	_______________________________________________


Detailed state:  trans -8.710 2.484 1.253 quatxyzw -0.599889 -0.280937 -0.221111 0.715764 center 8.287 34.468 -0.670 ntor 10 -180.0000 -127.9142 -17.7639 5.9646 53.2752 179.3423 -58.3899 -34.7129 9.6856 179.9500
State:	 -8.710   2.484   1.253  -0.859 -0.402 -0.317 88.588   -180.00 -127.91  -17.76    5.96   53.28  179.34  -58.39  -34.71    9.69  179.95

DOCKED: MODEL       80
DOCKED: USER    Run = 80
DOCKED: USER    DPF = D:/Protein_go_brrr/autodock/final/mut_D99N/heme_O2/dock.dpf
DOCKED: USER  
DOCKED: USER    Estimated Free Energy of Binding    =  -12.36 kcal/mol  [=(1)+(2)+(3)-(4)]
DOCKED: USER    Estimated Inhibition Constant, Ki   =  863.86 pM (picomolar)  [Temperature = 298.15 K]
DOCKED: USER    
DOCKED: USER    (1) Final Intermolecular Energy     =  -15.35 kcal/mol
DOCKED: USER        vdW + Hbond + desolv Energy     =  -14.29 kcal/mol
DOCKED: USER        Electrostatic Energy            =   -1.06 kcal/mol
DOCKED: USER    (2) Final Total Internal Energy     =   -0.65 kcal/mol
DOCKED: USER    (3) Torsional Free Energy           =   +2.98 kcal/mol
DOCKED: USER    (4) Unbound System's Energy  [=(2)] =   -0.65 kcal/mol
DOCKED: USER    
DOCKED: USER    
DOCKED: USER    NEWDPF move heme_O2_opt.pdbqt
DOCKED: USER    NEWDPF about 8.287000 34.468000 -0.670000
DOCKED: USER    NEWDPF tran0 -8.710055 2.484226 1.252716
DOCKED: USER    NEWDPF quaternion0 -0.599889 -0.280937 -0.221111 0.715764
DOCKED: USER    NEWDPF axisangle0 -0.859018 -0.402291 -0.316622 88.588272
DOCKED: USER    NEWDPF quat0 -0.859018 -0.402291 -0.316622 88.588272
DOCKED: USER    NEWDPF dihe0 -180.00 -127.91 -17.76 5.96 53.28 179.34 -58.39 -34.71 9.69 179.95 
DOCKED: USER  keepresnum = 1 
DOCKED: USER  
DOCKED: REMARK  10 active torsions:
DOCKED: REMARK  status: ('A' for Active; 'I' for Inactive)
DOCKED: REMARK    1  A    between atoms: C_6  and  C_10 
DOCKED: REMARK    2  A    between atoms: C_10  and  C_11 
DOCKED: REMARK    3  A    between atoms: C_11  and  C_12 
DOCKED: REMARK    4  A    between atoms: C_12  and  O_14 
DOCKED: REMARK    5  A    between atoms: C_17  and  C_20 
DOCKED: REMARK    6  A    between atoms: C_24  and  C_27 
DOCKED: REMARK    7  A    between atoms: C_31  and  C_34 
DOCKED: REMARK    8  A    between atoms: C_34  and  C_35 
DOCKED: REMARK    9  A    between atoms: C_35  and  C_36 
DOCKED: REMARK   10  A    between atoms: C_36  and  O_38 
DOCKED: USER                              x       y       z     vdW  Elec       q    Type
DOCKED: USER                           _______ _______ _______ _____ _____    ______ ____
DOCKED: ROOT
DOCKED: ATOM      1  C   UNL d   1     -10.624   1.959   2.003 -0.21 +0.02    +0.064 A 
DOCKED: ATOM      2  C   UNL d   1      -7.331  -0.493  -0.385 -0.38 +0.01    +0.064 A 
DOCKED: ATOM      3  C   UNL d   1      -4.473   3.365  -0.590 -0.07 +0.01    +0.064 C 
DOCKED: ATOM      4  C   UNL d   1      -7.645   5.766   2.280 -0.36 +0.01    +0.064 A 
DOCKED: ATOM      5  C   UNL d   1      -9.960   0.977   1.371 -0.25 +0.02    +0.066 A 
DOCKED: ATOM      6  C   UNL d   1     -10.463  -0.314   1.188 -0.37 -0.01    -0.021 A 
DOCKED: ATOM      7  C   UNL d   1      -9.492  -1.038   0.535 -0.35 -0.01    -0.025 A 
DOCKED: ATOM      8  C   UNL d   1      -8.443  -0.155   0.294 -0.36 +0.01    +0.066 A 
DOCKED: ATOM      9  C   UNL d   1      -9.588  -2.510   0.201 -0.35 +0.02    +0.051 C 
DOCKED: ATOM     10  C   UNL d   1      -6.208   0.395  -0.688 -0.40 +0.01    +0.066 A 
DOCKED: ATOM     11  C   UNL d   1      -5.153   0.040  -1.537 -0.45 -0.00    -0.021 A 
DOCKED: ATOM     12  C   UNL d   1      -4.328   1.146  -1.623 -0.42 +0.00    +0.000 A 
DOCKED: ATOM     13  C   UNL d   1      -4.933   2.131  -0.794 -0.36 +0.01    +0.070 A 
DOCKED: ATOM     14  C   UNL d   1      -4.955  -1.289  -2.256 -0.60 +0.00    +0.052 C 
DOCKED: ATOM     15  C   UNL d   1      -5.037   4.380   0.268 -0.38 +0.01    +0.066 A 
DOCKED: ATOM     16  C   UNL d   1      -4.420   5.594   0.566 -0.52 -0.00    -0.021 A 
DOCKED: ATOM     17  C   UNL d   1      -5.306   6.295   1.385 -0.50 +0.00    +0.000 A 
DOCKED: ATOM     18  C   UNL d   1      -6.412   5.445   1.524 -0.40 +0.01    +0.070 A 
DOCKED: ATOM     19  C   UNL d   1      -3.032   5.950   0.095 -0.11 +0.00    +0.052 C 
DOCKED: ATOM     20  C   UNL d   1      -8.706   4.958   2.470 -0.43 +0.01    +0.066 A 
DOCKED: ATOM     21  C   UNL d   1      -9.848   5.322   3.178 -0.46 -0.00    -0.025 A 
DOCKED: ATOM     22  C   UNL d   1     -10.719   4.259   3.086 -0.29 -0.00    -0.021 A 
DOCKED: ATOM     23  C   UNL d   1     -10.066   3.275   2.338 -0.28 +0.01    +0.066 A 
DOCKED: ATOM     24  C   UNL d   1     -10.094   6.616   3.908 -0.32 -0.00    +0.051 C 
DOCKED: ATOM     25  N   UNL d   1      -8.705   1.068   0.867 -0.11 -0.07    -0.248 N 
DOCKED: ATOM     26  N   UNL d   1      -6.074   1.664  -0.226 -0.26 -0.03    -0.248 N 
DOCKED: ATOM     27  N   UNL d   1      -6.199   4.258   0.902 -0.25 -0.04    -0.248 N 
DOCKED: ATOM     28  N   UNL d   1      -8.825   3.686   2.003 -0.15 -0.08    -0.248 N 
DOCKED: ATOM     29 FE   UNL d   1      -7.458   2.685   0.897 -0.09 +0.00    +0.000 Fe
DOCKED: ATOM     30  O   UNL d   1      -6.970   1.498   1.779 -0.53 +0.00    +0.000 OA
DOCKED: ATOM     31  O   UNL d   1      -6.808   2.976   2.300 -0.95 +0.00    +0.000 OA
DOCKED: ENDROOT
DOCKED: BRANCH   6  32
DOCKED: ATOM     32  C   UNL d   1     -11.747  -0.890   1.726 +0.17 +0.06    +0.052 C 
DOCKED: BRANCH  32  33
DOCKED: ATOM     33  C   UNL d   1     -12.907  -0.771   0.742 -0.06 +0.09    +0.115 C 
DOCKED: BRANCH  33  34
DOCKED: ATOM     34  C   UNL d   1     -13.470  -2.115   0.351 -0.19 +0.12    +0.139 C 
DOCKED: ATOM     35  O   UNL d   1     -13.114  -2.638  -0.692 +0.02 -0.29    -0.650 OA
DOCKED: BRANCH  34  36
DOCKED: ATOM     36  O   UNL d   1     -14.385  -2.744   1.118 -0.48 -0.99    -0.776 OA
DOCKED: ATOM     37  H   UNL d   1     -14.748  -3.604   0.878 +0.02 +0.14    +0.167 HD
DOCKED: ENDBRANCH  34  36
DOCKED: ENDBRANCH  33  34
DOCKED: ENDBRANCH  32  33
DOCKED: ENDBRANCH   6  32
DOCKED: BRANCH  22  38
DOCKED: ATOM     38  C   UNL d   1     -12.075   4.176   3.738 -0.19 +0.01    +0.052 C 
DOCKED: BRANCH  38  39
DOCKED: ATOM     39  C   UNL d   1     -11.985   3.845   5.227 -0.25 +0.02    +0.115 C 
DOCKED: BRANCH  39  40
DOCKED: ATOM     40  C   UNL d   1     -13.043   4.551   6.038 -0.16 +0.01    +0.139 C 
DOCKED: ATOM     41  O   UNL d   1     -13.384   5.683   5.736 +0.04 -0.02    -0.650 OA
DOCKED: BRANCH  40  42
DOCKED: ATOM     42  O   UNL d   1     -13.659   3.933   7.065 +0.09 -0.14    -0.776 OA
DOCKED: ATOM     43  H   UNL d   1     -14.620   3.865   7.110 +0.04 +0.03    +0.167 HD
DOCKED: ENDBRANCH  40  42
DOCKED: ENDBRANCH  39  40
DOCKED: ENDBRANCH  38  39
DOCKED: ENDBRANCH  22  38
DOCKED: BRANCH  12  44
DOCKED: ATOM     44  C   UNL d   1      -3.071   1.147  -2.467 -0.48 +0.00    +0.004 C 
DOCKED: ATOM     45  C   UNL d   1      -2.420   2.197  -2.966 -0.56 +0.00    +0.012 C 
DOCKED: ENDBRANCH  12  44
DOCKED: BRANCH  17  46
DOCKED: ATOM     46  C   UNL d   1      -5.173   7.630   2.069 -0.67 +0.00    +0.004 C 
DOCKED: ATOM     47  C   UNL d   1      -4.130   8.469   2.053 -0.67 +0.00    +0.012 C 
DOCKED: ENDBRANCH  17  46
DOCKED: TORSDOF 10
DOCKED: TER
DOCKED: ENDMDL
________________________________________________________________________________


	BEGINNING GENETIC ALGORITHM DOCKING 81 of 100
Run: 81 Seed: 1613454280 521441646 [ Run 81 of 100 GA/GALS ]
Beginning LAMARCKIAN GENETIC ALGORITHM (LGA), with a maximum of 25000000 energy evaluations.

Final-Value: -11.531


	FINAL GENETIC ALGORITHM DOCKED STATE
	_______________________________________________


Detailed state:  trans -15.201 5.013 3.701 quatxyzw 0.096549 -0.237171 -0.890604 0.375835 center 8.287 34.468 -0.670 ntor 10 -67.6331 145.8485 -97.4687 -115.4150 -94.3800 -36.7216 -39.5298 79.7115 -131.7999 179.7130
State:	-15.201   5.013   3.701   0.104 -0.256 -0.961 135.848    -67.63  145.85  -97.47 -115.42  -94.38  -36.72  -39.53   79.71 -131.80  179.71

DOCKED: MODEL       81
DOCKED: USER    Run = 81
DOCKED: USER    DPF = D:/Protein_go_brrr/autodock/final/mut_D99N/heme_O2/dock.dpf
DOCKED: USER  
DOCKED: USER    Estimated Free Energy of Binding    =   -6.61 kcal/mol  [=(1)+(2)+(3)-(4)]
DOCKED: USER    Estimated Inhibition Constant, Ki   =   14.21 uM (micromolar)  [Temperature = 298.15 K]
DOCKED: USER    
DOCKED: USER    (1) Final Intermolecular Energy     =   -9.60 kcal/mol
DOCKED: USER        vdW + Hbond + desolv Energy     =   -6.93 kcal/mol
DOCKED: USER        Electrostatic Energy            =   -2.67 kcal/mol
DOCKED: USER    (2) Final Total Internal Energy     =   -1.94 kcal/mol
DOCKED: USER    (3) Torsional Free Energy           =   +2.98 kcal/mol
DOCKED: USER    (4) Unbound System's Energy  [=(2)] =   -1.94 kcal/mol
DOCKED: USER    
DOCKED: USER    
DOCKED: USER    NEWDPF move heme_O2_opt.pdbqt
DOCKED: USER    NEWDPF about 8.287000 34.468000 -0.670000
DOCKED: USER    NEWDPF tran0 -15.200717 5.013330 3.700799
DOCKED: USER    NEWDPF quaternion0 0.096549 -0.237171 -0.890604 0.375835
DOCKED: USER    NEWDPF axisangle0 0.104187 -0.255935 -0.961063 135.848096
DOCKED: USER    NEWDPF quat0 0.104187 -0.255935 -0.961063 135.848096
DOCKED: USER    NEWDPF dihe0 -67.63 145.85 -97.47 -115.42 -94.38 -36.72 -39.53 79.71 -131.80 179.71 
DOCKED: USER  keepresnum = 1 
DOCKED: USER  
DOCKED: REMARK  10 active torsions:
DOCKED: REMARK  status: ('A' for Active; 'I' for Inactive)
DOCKED: REMARK    1  A    between atoms: C_6  and  C_10 
DOCKED: REMARK    2  A    between atoms: C_10  and  C_11 
DOCKED: REMARK    3  A    between atoms: C_11  and  C_12 
DOCKED: REMARK    4  A    between atoms: C_12  and  O_14 
DOCKED: REMARK    5  A    between atoms: C_17  and  C_20 
DOCKED: REMARK    6  A    between atoms: C_24  and  C_27 
DOCKED: REMARK    7  A    between atoms: C_31  and  C_34 
DOCKED: REMARK    8  A    between atoms: C_34  and  C_35 
DOCKED: REMARK    9  A    between atoms: C_35  and  C_36 
DOCKED: REMARK   10  A    between atoms: C_36  and  O_38 
DOCKED: USER                              x       y       z     vdW  Elec       q    Type
DOCKED: USER                           _______ _______ _______ _____ _____    ______ ____
DOCKED: ROOT
DOCKED: ATOM      1  C   UNL d   1     -14.329   3.087   3.871 -0.14 +0.02    +0.064 A 
DOCKED: ATOM      2  C   UNL d   1     -13.177   7.305   5.726 -0.16 -0.01    +0.064 A 
DOCKED: ATOM      3  C   UNL d   1     -16.853   9.411   3.458 -0.18 -0.01    +0.064 C 
DOCKED: ATOM      4  C   UNL d   1     -18.332   4.992   1.924 -0.22 +0.01    +0.064 A 
DOCKED: ATOM      5  C   UNL d   1     -13.717   4.062   4.562 -0.13 +0.01    +0.066 A 
DOCKED: ATOM      6  C   UNL d   1     -12.575   3.868   5.345 -0.20 -0.00    -0.021 A 
DOCKED: ATOM      7  C   UNL d   1     -12.266   5.080   5.917 -0.27 -0.00    -0.025 A 
DOCKED: ATOM      8  C   UNL d   1     -13.199   5.991   5.430 -0.19 -0.00    +0.066 A 
DOCKED: ATOM      9  C   UNL d   1     -11.141   5.310   6.902 -0.43 -0.00    +0.051 C 
DOCKED: ATOM     10  C   UNL d   1     -14.115   8.312   5.228 -0.17 -0.01    +0.066 A 
DOCKED: ATOM     11  C   UNL d   1     -13.949   9.686   5.435 -0.21 +0.00    -0.021 A 
DOCKED: ATOM     12  C   UNL d   1     -14.990  10.311   4.773 -0.13 -0.00    +0.000 A 
DOCKED: ATOM     13  C   UNL d   1     -15.754   9.259   4.198 -0.13 -0.01    +0.070 A 
DOCKED: ATOM     14  C   UNL d   1     -12.831  10.375   6.209 -0.40 -0.02    +0.052 C 
DOCKED: ATOM     15  C   UNL d   1     -17.674   8.371   2.886 -0.18 -0.00    +0.066 A 
DOCKED: ATOM     16  C   UNL d   1     -18.902   8.588   2.261 -0.19 -0.00    -0.021 A 
DOCKED: ATOM     17  C   UNL d   1     -19.343   7.341   1.816 -0.23 +0.00    +0.000 A 
DOCKED: ATOM     18  C   UNL d   1     -18.338   6.446   2.207 -0.22 +0.01    +0.070 A 
DOCKED: ATOM     19  C   UNL d   1     -19.563   9.941   2.193 -0.13 +0.00    +0.052 C 
DOCKED: ATOM     20  C   UNL d   1     -17.405   4.098   2.322 -0.19 +0.01    +0.066 A 
DOCKED: ATOM     21  C   UNL d   1     -17.444   2.742   2.009 -0.08 -0.00    -0.025 A 
DOCKED: ATOM     22  C   UNL d   1     -16.298   2.189   2.533 -0.17 -0.01    -0.021 A 
DOCKED: ATOM     23  C   UNL d   1     -15.607   3.228   3.164 -0.18 +0.01    +0.066 A 
DOCKED: ATOM     24  C   UNL d   1     -18.523   2.011   1.253 -0.06 +0.01    +0.051 C 
DOCKED: ATOM     25  N   UNL d   1     -14.132   5.350   4.648 -0.00 -0.02    -0.248 N 
DOCKED: ATOM     26  N   UNL d   1     -15.218   8.046   4.483 -0.06 +0.01    -0.248 N 
DOCKED: ATOM     27  N   UNL d   1     -17.370   7.077   2.921 -0.11 -0.01    -0.248 N 
DOCKED: ATOM     28  N   UNL d   1     -16.306   4.378   3.072 -0.09 -0.03    -0.248 N 
DOCKED: ATOM     29 FE   UNL d   1     -15.769   6.200   3.771 -0.04 +0.00    +0.000 Fe
DOCKED: ATOM     30  O   UNL d   1     -15.860   6.114   5.323 -0.10 +0.00    +0.000 OA
DOCKED: ATOM     31  O   UNL d   1     -17.136   5.820   4.448 -0.11 +0.00    +0.000 OA
DOCKED: ENDROOT
DOCKED: BRANCH   6  32
DOCKED: ATOM     32  C   UNL d   1     -11.879   2.568   5.655 -0.11 +0.01    +0.052 C 
DOCKED: BRANCH  32  33
DOCKED: ATOM     33  C   UNL d   1     -12.841   1.473   6.102 -0.15 +0.05    +0.115 C 
DOCKED: BRANCH  33  34
DOCKED: ATOM     34  C   UNL d   1     -12.511   0.133   5.492 -0.11 +0.15    +0.139 C 
DOCKED: ATOM     35  O   UNL d   1     -12.147  -0.784   6.211 -0.36 -0.76    -0.650 OA
DOCKED: BRANCH  34  36
DOCKED: ATOM     36  O   UNL d   1     -12.582  -0.070   4.160 -0.47 -1.32    -0.776 OA
DOCKED: ATOM     37  H   UNL d   1     -13.421  -0.058   3.685 +0.03 +0.27    +0.167 HD
DOCKED: ENDBRANCH  34  36
DOCKED: ENDBRANCH  33  34
DOCKED: ENDBRANCH  32  33
DOCKED: ENDBRANCH   6  32
DOCKED: BRANCH  22  38
DOCKED: ATOM     38  C   UNL d   1     -15.924   0.729   2.482 -0.14 +0.02    +0.052 C 
DOCKED: BRANCH  38  39
DOCKED: ATOM     39  C   UNL d   1     -16.675  -0.100   3.522 -0.06 +0.05    +0.115 C 
DOCKED: BRANCH  39  40
DOCKED: ATOM     40  C   UNL d   1     -15.826  -0.415   4.729 -0.06 +0.10    +0.139 C 
DOCKED: ATOM     41  O   UNL d   1     -16.052   0.142   5.791 +0.02 -0.29    -0.650 OA
DOCKED: BRANCH  40  42
DOCKED: ATOM     42  O   UNL d   1     -14.851  -1.343   4.670 +0.13 -1.26    -0.776 OA
DOCKED: ATOM     43  H   UNL d   1     -14.051  -1.269   5.204 +0.02 +0.34    +0.167 HD
DOCKED: ENDBRANCH  40  42
DOCKED: ENDBRANCH  39  40
DOCKED: ENDBRANCH  38  39
DOCKED: ENDBRANCH  22  38
DOCKED: BRANCH  12  44
DOCKED: ATOM     44  C   UNL d   1     -15.145  11.818   4.762 -0.11 -0.00    +0.004 C 
DOCKED: ATOM     45  C   UNL d   1     -14.477  12.704   4.025 -0.14 -0.00    +0.012 C 
DOCKED: ENDBRANCH  12  44
DOCKED: BRANCH  17  46
DOCKED: ATOM     46  C   UNL d   1     -20.619   6.932   1.129 -0.19 +0.00    +0.004 C 
DOCKED: ATOM     47  C   UNL d   1     -21.523   6.030   1.529 -0.13 +0.00    +0.012 C 
DOCKED: ENDBRANCH  17  46
DOCKED: TORSDOF 10
DOCKED: TER
DOCKED: ENDMDL
________________________________________________________________________________


	BEGINNING GENETIC ALGORITHM DOCKING 82 of 100
Run: 82 Seed: 1677845097 218263036 [ Run 82 of 100 GA/GALS ]
Beginning LAMARCKIAN GENETIC ALGORITHM (LGA), with a maximum of 25000000 energy evaluations.

Final-Value: -9.491


	FINAL GENETIC ALGORITHM DOCKED STATE
	_______________________________________________


Detailed state:  trans -13.087 -0.140 10.953 quatxyzw -0.443003 -0.371680 -0.654069 -0.487643 center 8.287 34.468 -0.670 ntor 10 49.4234 -165.8177 42.3143 -101.5514 -149.3885 -127.3824 49.4376 90.2696 -18.0219 37.0035
State:	-13.087  -0.140  10.953  -0.507 -0.426 -0.749 -121.628     49.42 -165.82   42.31 -101.55 -149.39 -127.38   49.44   90.27  -18.02   37.00

DOCKED: MODEL       82
DOCKED: USER    Run = 82
DOCKED: USER    DPF = D:/Protein_go_brrr/autodock/final/mut_D99N/heme_O2/dock.dpf
DOCKED: USER  
DOCKED: USER    Estimated Free Energy of Binding    =   -6.08 kcal/mol  [=(1)+(2)+(3)-(4)]
DOCKED: USER    Estimated Inhibition Constant, Ki   =   35.16 uM (micromolar)  [Temperature = 298.15 K]
DOCKED: USER    
DOCKED: USER    (1) Final Intermolecular Energy     =   -9.06 kcal/mol
DOCKED: USER        vdW + Hbond + desolv Energy     =   -6.04 kcal/mol
DOCKED: USER        Electrostatic Energy            =   -3.02 kcal/mol
DOCKED: USER    (2) Final Total Internal Energy     =   -0.43 kcal/mol
DOCKED: USER    (3) Torsional Free Energy           =   +2.98 kcal/mol
DOCKED: USER    (4) Unbound System's Energy  [=(2)] =   -0.43 kcal/mol
DOCKED: USER    
DOCKED: USER    
DOCKED: USER    NEWDPF move heme_O2_opt.pdbqt
DOCKED: USER    NEWDPF about 8.287000 34.468000 -0.670000
DOCKED: USER    NEWDPF tran0 -13.087369 -0.140426 10.953368
DOCKED: USER    NEWDPF quaternion0 -0.443003 -0.371680 -0.654069 -0.487643
DOCKED: USER    NEWDPF axisangle0 -0.507424 -0.425730 -0.749183 -121.628421
DOCKED: USER    NEWDPF quat0 -0.507424 -0.425730 -0.749183 -121.628421
DOCKED: USER    NEWDPF dihe0 49.42 -165.82 42.31 -101.55 -149.39 -127.38 49.44 90.27 -18.02 37.00 
DOCKED: USER  keepresnum = 1 
DOCKED: USER  
DOCKED: REMARK  10 active torsions:
DOCKED: REMARK  status: ('A' for Active; 'I' for Inactive)
DOCKED: REMARK    1  A    between atoms: C_6  and  C_10 
DOCKED: REMARK    2  A    between atoms: C_10  and  C_11 
DOCKED: REMARK    3  A    between atoms: C_11  and  C_12 
DOCKED: REMARK    4  A    between atoms: C_12  and  O_14 
DOCKED: REMARK    5  A    between atoms: C_17  and  C_20 
DOCKED: REMARK    6  A    between atoms: C_24  and  C_27 
DOCKED: REMARK    7  A    between atoms: C_31  and  C_34 
DOCKED: REMARK    8  A    between atoms: C_34  and  C_35 
DOCKED: REMARK    9  A    between atoms: C_35  and  C_36 
DOCKED: REMARK   10  A    between atoms: C_36  and  O_38 
DOCKED: USER                              x       y       z     vdW  Elec       q    Type
DOCKED: USER                           _______ _______ _______ _____ _____    ______ ____
DOCKED: ROOT
DOCKED: ATOM      1  C   UNL d   1     -12.432  -0.447   8.959 -0.14 +0.02    +0.064 A 
DOCKED: ATOM      2  C   UNL d   1     -14.420   3.271  11.146 -0.18 +0.03    +0.064 A 
DOCKED: ATOM      3  C   UNL d   1     -14.701   0.814  15.267 -0.05 +0.04    +0.064 C 
DOCKED: ATOM      4  C   UNL d   1     -12.220  -2.854  13.155 -0.08 +0.01    +0.064 A 
DOCKED: ATOM      5  C   UNL d   1     -12.948   0.765   9.219 -0.12 +0.02    +0.066 A 
DOCKED: ATOM      6  C   UNL d   1     -13.075   1.782   8.267 -0.15 -0.01    -0.021 A 
DOCKED: ATOM      7  C   UNL d   1     -13.610   2.873   8.910 -0.16 -0.01    -0.025 A 
DOCKED: ATOM      8  C   UNL d   1     -13.841   2.477  10.225 -0.16 +0.02    +0.066 A 
DOCKED: ATOM      9  C   UNL d   1     -13.847   4.224   8.270 -0.12 +0.01    +0.051 C 
DOCKED: ATOM     10  C   UNL d   1     -14.709   2.904  12.534 -0.20 +0.04    +0.066 A 
DOCKED: ATOM     11  C   UNL d   1     -15.458   3.706  13.401 -0.18 -0.02    -0.021 A 
DOCKED: ATOM     12  C   UNL d   1     -15.566   3.006  14.589 -0.12 +0.00    +0.000 A 
DOCKED: ATOM     13  C   UNL d   1     -14.849   1.796  14.378 -0.09 +0.06    +0.070 A 
DOCKED: ATOM     14  C   UNL d   1     -16.070   5.069  13.101 -0.08 +0.03    +0.052 C 
DOCKED: ATOM     15  C   UNL d   1     -13.955  -0.410  15.104 -0.08 +0.03    +0.066 A 
DOCKED: ATOM     16  C   UNL d   1     -13.700  -1.323  16.128 -0.06 -0.01    -0.021 A 
DOCKED: ATOM     17  C   UNL d   1     -12.993  -2.377  15.549 -0.06 +0.00    +0.000 A 
DOCKED: ATOM     18  C   UNL d   1     -12.869  -2.024  14.198 -0.07 +0.02    +0.070 A 
DOCKED: ATOM     19  C   UNL d   1     -14.102  -1.084  17.562 -0.04 +0.02    +0.052 C 
DOCKED: ATOM     20  C   UNL d   1     -12.046  -2.527  11.860 -0.09 +0.02    +0.066 A 
DOCKED: ATOM     21  C   UNL d   1     -11.443  -3.357  10.920 -0.12 -0.01    -0.025 A 
DOCKED: ATOM     22  C   UNL d   1     -11.519  -2.699   9.713 -0.17 -0.01    -0.021 A 
DOCKED: ATOM     23  C   UNL d   1     -12.152  -1.479   9.965 -0.11 +0.02    +0.066 A 
DOCKED: ATOM     24  C   UNL d   1     -10.822  -4.708  11.162 -0.10 +0.01    +0.051 C 
DOCKED: ATOM     25  N   UNL d   1     -13.373   1.200  10.430 -0.07 -0.08    -0.248 N 
DOCKED: ATOM     26  N   UNL d   1     -14.327   1.744  13.126 -0.11 -0.17    -0.248 N 
DOCKED: ATOM     27  N   UNL d   1     -13.392  -0.794  13.962 -0.07 -0.10    -0.248 N 
DOCKED: ATOM     28  N   UNL d   1     -12.431  -1.359  11.280 -0.05 -0.07    -0.248 N 
DOCKED: ATOM     29 FE   UNL d   1     -13.372   0.180  12.199 -0.03 +0.00    +0.000 Fe
DOCKED: ATOM     30  O   UNL d   1     -12.380   1.379  12.165 -0.34 +0.00    +0.000 OA
DOCKED: ATOM     31  O   UNL d   1     -11.953   0.032  12.861 -0.26 +0.00    +0.000 OA
DOCKED: ENDROOT
DOCKED: BRANCH   6  32
DOCKED: ATOM     32  C   UNL d   1     -12.585   1.778   6.842 -0.20 +0.02    +0.052 C 
DOCKED: BRANCH  32  33
DOCKED: ATOM     33  C   UNL d   1     -13.305   0.753   5.971 -0.14 +0.07    +0.115 C 
DOCKED: BRANCH  33  34
DOCKED: ATOM     34  C   UNL d   1     -12.349  -0.069   5.142 -0.04 +0.18    +0.139 C 
DOCKED: ATOM     35  O   UNL d   1     -11.496  -0.744   5.697 -0.40 -0.84    -0.650 OA
DOCKED: BRANCH  34  36
DOCKED: ATOM     36  O   UNL d   1     -12.397  -0.056   3.794 -0.45 -1.33    -0.776 OA
DOCKED: ATOM     37  H   UNL d   1     -12.417   0.767   3.292 +0.05 +0.14    +0.167 HD
DOCKED: ENDBRANCH  34  36
DOCKED: ENDBRANCH  33  34
DOCKED: ENDBRANCH  32  33
DOCKED: ENDBRANCH   6  32
DOCKED: BRANCH  22  38
DOCKED: ATOM     38  C   UNL d   1     -10.954  -3.193   8.406 -0.32 +0.02    +0.052 C 
DOCKED: BRANCH  38  39
DOCKED: ATOM     39  C   UNL d   1     -11.894  -2.933   7.231 -0.12 +0.09    +0.115 C 
DOCKED: BRANCH  39  40
DOCKED: ATOM     40  C   UNL d   1     -12.837  -4.083   6.981 -0.08 +0.12    +0.139 C 
DOCKED: ATOM     41  O   UNL d   1     -13.013  -4.922   7.850 +0.01 -0.30    -0.650 OA
DOCKED: BRANCH  40  42
DOCKED: ATOM     42  O   UNL d   1     -13.533  -4.176   5.832 -0.40 -1.34    -0.776 OA
DOCKED: ATOM     43  H   UNL d   1     -14.302  -4.752   5.752 +0.00 +0.18    +0.167 HD
DOCKED: ENDBRANCH  40  42
DOCKED: ENDBRANCH  39  40
DOCKED: ENDBRANCH  38  39
DOCKED: ENDBRANCH  22  38
DOCKED: BRANCH  12  44
DOCKED: ATOM     44  C   UNL d   1     -16.323   3.556  15.780 -0.08 +0.00    +0.004 C 
DOCKED: ATOM     45  C   UNL d   1     -16.007   3.451  17.071 -0.06 +0.01    +0.012 C 
DOCKED: ENDBRANCH  12  44
DOCKED: BRANCH  17  46
DOCKED: ATOM     46  C   UNL d   1     -12.395  -3.617  16.157 -0.05 +0.00    +0.004 C 
DOCKED: ATOM     47  C   UNL d   1     -11.102  -3.904  16.352 -0.08 +0.00    +0.012 C 
DOCKED: ENDBRANCH  17  46
DOCKED: TORSDOF 10
DOCKED: TER
DOCKED: ENDMDL
________________________________________________________________________________


	BEGINNING GENETIC ALGORITHM DOCKING 83 of 100
Run: 83 Seed: 529969425 1644472783 [ Run 83 of 100 GA/GALS ]
Beginning LAMARCKIAN GENETIC ALGORITHM (LGA), with a maximum of 25000000 energy evaluations.

Final-Value: -18.540


	FINAL GENETIC ALGORITHM DOCKED STATE
	_______________________________________________


Detailed state:  trans -8.633 2.273 1.194 quatxyzw 0.602906 0.281056 0.262166 -0.699129 center 8.287 34.468 -0.670 ntor 10 12.1683 134.9145 -25.7952 21.2332 50.0737 -158.5009 0.9130 81.5891 -11.8749 133.9754
State:	 -8.633   2.273   1.194   0.843  0.393  0.367 -91.286     12.17  134.91  -25.80   21.23   50.07 -158.50    0.91   81.59  -11.87  133.98

DOCKED: MODEL       83
DOCKED: USER    Run = 83
DOCKED: USER    DPF = D:/Protein_go_brrr/autodock/final/mut_D99N/heme_O2/dock.dpf
DOCKED: USER  
DOCKED: USER    Estimated Free Energy of Binding    =  -13.50 kcal/mol  [=(1)+(2)+(3)-(4)]
DOCKED: USER    Estimated Inhibition Constant, Ki   =  126.58 pM (picomolar)  [Temperature = 298.15 K]
DOCKED: USER    
DOCKED: USER    (1) Final Intermolecular Energy     =  -16.49 kcal/mol
DOCKED: USER        vdW + Hbond + desolv Energy     =  -14.09 kcal/mol
DOCKED: USER        Electrostatic Energy            =   -2.40 kcal/mol
DOCKED: USER    (2) Final Total Internal Energy     =   -2.05 kcal/mol
DOCKED: USER    (3) Torsional Free Energy           =   +2.98 kcal/mol
DOCKED: USER    (4) Unbound System's Energy  [=(2)] =   -2.05 kcal/mol
DOCKED: USER    
DOCKED: USER    
DOCKED: USER    NEWDPF move heme_O2_opt.pdbqt
DOCKED: USER    NEWDPF about 8.287000 34.468000 -0.670000
DOCKED: USER    NEWDPF tran0 -8.633226 2.273184 1.194373
DOCKED: USER    NEWDPF quaternion0 0.602906 0.281056 0.262166 -0.699129
DOCKED: USER    NEWDPF axisangle0 0.843230 0.393088 0.366668 -91.285682
DOCKED: USER    NEWDPF quat0 0.843230 0.393088 0.366668 -91.285682
DOCKED: USER    NEWDPF dihe0 12.17 134.91 -25.80 21.23 50.07 -158.50 0.91 81.59 -11.87 133.98 
DOCKED: USER  keepresnum = 1 
DOCKED: USER  
DOCKED: REMARK  10 active torsions:
DOCKED: REMARK  status: ('A' for Active; 'I' for Inactive)
DOCKED: REMARK    1  A    between atoms: C_6  and  C_10 
DOCKED: REMARK    2  A    between atoms: C_10  and  C_11 
DOCKED: REMARK    3  A    between atoms: C_11  and  C_12 
DOCKED: REMARK    4  A    between atoms: C_12  and  O_14 
DOCKED: REMARK    5  A    between atoms: C_17  and  C_20 
DOCKED: REMARK    6  A    between atoms: C_24  and  C_27 
DOCKED: REMARK    7  A    between atoms: C_31  and  C_34 
DOCKED: REMARK    8  A    between atoms: C_34  and  C_35 
DOCKED: REMARK    9  A    between atoms: C_35  and  C_36 
DOCKED: REMARK   10  A    between atoms: C_36  and  O_38 
DOCKED: USER                              x       y       z     vdW  Elec       q    Type
DOCKED: USER                           _______ _______ _______ _____ _____    ______ ____
DOCKED: ROOT
DOCKED: ATOM      1  C   UNL d   1     -10.535   1.592   1.842 -0.27 +0.02    +0.064 A 
DOCKED: ATOM      2  C   UNL d   1      -7.003  -0.527  -0.522 -0.39 +0.01    +0.064 A 
DOCKED: ATOM      3  C   UNL d   1      -4.398   3.510  -0.436 -0.01 +0.01    +0.064 C 
DOCKED: ATOM      4  C   UNL d   1      -7.824   5.562   2.414 -0.36 +0.01    +0.064 A 
DOCKED: ATOM      5  C   UNL d   1      -9.786   0.686   1.194 -0.31 +0.02    +0.066 A 
DOCKED: ATOM      6  C   UNL d   1     -10.195  -0.625   0.931 -0.30 -0.01    -0.021 A 
DOCKED: ATOM      7  C   UNL d   1      -9.156  -1.252   0.285 -0.27 -0.01    -0.025 A 
DOCKED: ATOM      8  C   UNL d   1      -8.159  -0.294   0.127 -0.38 +0.01    +0.066 A 
DOCKED: ATOM      9  C   UNL d   1      -9.143  -2.710  -0.120 -0.36 +0.01    +0.051 C 
DOCKED: ATOM     10  C   UNL d   1      -5.930   0.444  -0.739 -0.38 +0.01    +0.066 A 
DOCKED: ATOM     11  C   UNL d   1      -4.824   0.198  -1.560 -0.44 -0.00    -0.021 A 
DOCKED: ATOM     12  C   UNL d   1      -4.070   1.357  -1.563 -0.41 +0.00    +0.000 A 
DOCKED: ATOM     13  C   UNL d   1      -4.768   2.261  -0.714 -0.30 +0.01    +0.070 A 
DOCKED: ATOM     14  C   UNL d   1      -4.513  -1.079  -2.332 -0.58 +0.00    +0.052 C 
DOCKED: ATOM     15  C   UNL d   1      -5.058   4.444   0.445 -0.39 +0.01    +0.066 A 
DOCKED: ATOM     16  C   UNL d   1      -4.533   5.679   0.824 -0.50 -0.00    -0.021 A 
DOCKED: ATOM     17  C   UNL d   1      -5.493   6.282   1.637 -0.49 +0.00    +0.000 A 
DOCKED: ATOM     18  C   UNL d   1      -6.545   5.358   1.693 -0.40 +0.01    +0.070 A 
DOCKED: ATOM     19  C   UNL d   1      -3.156   6.145   0.425 -0.49 +0.01    +0.052 C 
DOCKED: ATOM     20  C   UNL d   1      -8.836   4.680   2.523 -0.42 +0.01    +0.066 A 
DOCKED: ATOM     21  C   UNL d   1     -10.024   4.936   3.201 -0.44 -0.00    -0.025 A 
DOCKED: ATOM     22  C   UNL d   1     -10.820   3.826   3.026 -0.28 -0.00    -0.021 A 
DOCKED: ATOM     23  C   UNL d   1     -10.077   2.923   2.260 -0.18 +0.02    +0.066 A 
DOCKED: ATOM     24  C   UNL d   1     -10.382   6.175   3.980 -0.40 -0.00    +0.051 C 
DOCKED: ATOM     25  N   UNL d   1      -8.522   0.881   0.745 -0.16 -0.06    -0.248 N 
DOCKED: ATOM     26  N   UNL d   1      -5.896   1.695  -0.214 -0.26 -0.03    -0.248 N 
DOCKED: ATOM     27  N   UNL d   1      -6.233   4.218   1.026 -0.24 -0.04    -0.248 N 
DOCKED: ATOM     28  N   UNL d   1      -8.855   3.428   1.994 -0.09 -0.09    -0.248 N 
DOCKED: ATOM     29 FE   UNL d   1      -7.384   2.570   0.899 -0.09 +0.00    +0.000 Fe
DOCKED: ATOM     30  O   UNL d   1      -6.853   1.376   1.744 -0.35 +0.00    +0.000 OA
DOCKED: ATOM     31  O   UNL d   1      -6.808   2.834   2.338 -0.93 +0.00    +0.000 OA
DOCKED: ENDROOT
DOCKED: BRANCH   6  32
DOCKED: ATOM     32  C   UNL d   1     -11.459  -1.306   1.390 +0.27 +0.05    +0.052 C 
DOCKED: BRANCH  32  33
DOCKED: ATOM     33  C   UNL d   1     -12.702  -0.798   0.667 -0.09 +0.09    +0.115 C 
DOCKED: BRANCH  33  34
DOCKED: ATOM     34  C   UNL d   1     -13.957  -1.508   1.112 -0.06 +0.16    +0.139 C 
DOCKED: ATOM     35  O   UNL d   1     -14.426  -2.396   0.417 -0.12 -0.49    -0.650 OA
DOCKED: BRANCH  34  36
DOCKED: ATOM     36  O   UNL d   1     -14.593  -1.166   2.251 +0.04 -1.21    -0.776 OA
DOCKED: ATOM     37  H   UNL d   1     -14.384  -0.355   2.729 +0.03 +0.21    +0.167 HD
DOCKED: ENDBRANCH  34  36
DOCKED: ENDBRANCH  33  34
DOCKED: ENDBRANCH  32  33
DOCKED: ENDBRANCH   6  32
DOCKED: BRANCH  22  38
DOCKED: ATOM     38  C   UNL d   1     -12.191   3.625   3.619 -0.19 +0.01    +0.052 C 
DOCKED: BRANCH  38  39
DOCKED: ATOM     39  C   UNL d   1     -12.284   2.346   4.449 -0.17 +0.04    +0.115 C 
DOCKED: BRANCH  39  40
DOCKED: ATOM     40  C   UNL d   1     -12.923   1.211   3.688 -0.19 +0.09    +0.139 C 
DOCKED: ATOM     41  O   UNL d   1     -13.522   1.439   2.649 -0.01 -0.34    -0.650 OA
DOCKED: BRANCH  40  42
DOCKED: ATOM     42  O   UNL d   1     -12.803  -0.063   4.109 -0.43 -1.35    -0.776 OA
DOCKED: ATOM     43  H   UNL d   1     -13.552  -0.671   4.097 +0.06 +0.44    +0.167 HD
DOCKED: ENDBRANCH  40  42
DOCKED: ENDBRANCH  39  40
DOCKED: ENDBRANCH  38  39
DOCKED: ENDBRANCH  22  38
DOCKED: BRANCH  12  44
DOCKED: ATOM     44  C   UNL d   1      -2.785   1.479  -2.355 -0.54 +0.00    +0.004 C 
DOCKED: ATOM     45  C   UNL d   1      -2.262   2.575  -2.904 -0.50 +0.00    +0.012 C 
DOCKED: ENDBRANCH  12  44
DOCKED: BRANCH  17  46
DOCKED: ATOM     46  C   UNL d   1      -5.473   7.588   2.387 -0.62 +0.00    +0.004 C 
DOCKED: ATOM     47  C   UNL d   1      -4.625   8.614   2.242 -0.69 +0.00    +0.012 C 
DOCKED: ENDBRANCH  17  46
DOCKED: TORSDOF 10
DOCKED: TER
DOCKED: ENDMDL
________________________________________________________________________________


	BEGINNING GENETIC ALGORITHM DOCKING 84 of 100
Run: 84 Seed: 665555447 54226066 [ Run 84 of 100 GA/GALS ]
Beginning LAMARCKIAN GENETIC ALGORITHM (LGA), with a maximum of 25000000 energy evaluations.

Final-Value: -9.014


	FINAL GENETIC ALGORITHM DOCKED STATE
	_______________________________________________


Detailed state:  trans 19.620 -3.291 2.390 quatxyzw -0.518029 -0.237483 0.781214 -0.254858 center 8.287 34.468 -0.670 ntor 10 80.0607 117.3626 54.4857 40.7000 115.3498 -113.2448 -3.5166 1.1405 4.8187 -154.7237
State:	 19.620  -3.291   2.390  -0.536 -0.246  0.808 -150.470     80.06  117.36   54.49   40.70  115.35 -113.24   -3.52    1.14    4.82 -154.72

DOCKED: MODEL       84
DOCKED: USER    Run = 84
DOCKED: USER    DPF = D:/Protein_go_brrr/autodock/final/mut_D99N/heme_O2/dock.dpf
DOCKED: USER  
DOCKED: USER    Estimated Free Energy of Binding    =   -5.61 kcal/mol  [=(1)+(2)+(3)-(4)]
DOCKED: USER    Estimated Inhibition Constant, Ki   =   76.66 uM (micromolar)  [Temperature = 298.15 K]
DOCKED: USER    
DOCKED: USER    (1) Final Intermolecular Energy     =   -8.60 kcal/mol
DOCKED: USER        vdW + Hbond + desolv Energy     =   -7.48 kcal/mol
DOCKED: USER        Electrostatic Energy            =   -1.12 kcal/mol
DOCKED: USER    (2) Final Total Internal Energy     =   -0.42 kcal/mol
DOCKED: USER    (3) Torsional Free Energy           =   +2.98 kcal/mol
DOCKED: USER    (4) Unbound System's Energy  [=(2)] =   -0.42 kcal/mol
DOCKED: USER    
DOCKED: USER    
DOCKED: USER    NEWDPF move heme_O2_opt.pdbqt
DOCKED: USER    NEWDPF about 8.287000 34.468000 -0.670000
DOCKED: USER    NEWDPF tran0 19.619565 -3.291262 2.389522
DOCKED: USER    NEWDPF quaternion0 -0.518029 -0.237483 0.781214 -0.254858
DOCKED: USER    NEWDPF axisangle0 -0.535719 -0.245592 0.807892 -150.469678
DOCKED: USER    NEWDPF quat0 -0.535719 -0.245592 0.807892 -150.469678
DOCKED: USER    NEWDPF dihe0 80.06 117.36 54.49 40.70 115.35 -113.24 -3.52 1.14 4.82 -154.72 
DOCKED: USER  keepresnum = 1 
DOCKED: USER  
DOCKED: REMARK  10 active torsions:
DOCKED: REMARK  status: ('A' for Active; 'I' for Inactive)
DOCKED: REMARK    1  A    between atoms: C_6  and  C_10 
DOCKED: REMARK    2  A    between atoms: C_10  and  C_11 
DOCKED: REMARK    3  A    between atoms: C_11  and  C_12 
DOCKED: REMARK    4  A    between atoms: C_12  and  O_14 
DOCKED: REMARK    5  A    between atoms: C_17  and  C_20 
DOCKED: REMARK    6  A    between atoms: C_24  and  C_27 
DOCKED: REMARK    7  A    between atoms: C_31  and  C_34 
DOCKED: REMARK    8  A    between atoms: C_34  and  C_35 
DOCKED: REMARK    9  A    between atoms: C_35  and  C_36 
DOCKED: REMARK   10  A    between atoms: C_36  and  O_38 
DOCKED: USER                              x       y       z     vdW  Elec       q    Type
DOCKED: USER                           _______ _______ _______ _____ _____    ______ ____
DOCKED: ROOT
DOCKED: ATOM      1  C   UNL d   1      20.896  -4.866   3.014 -0.17 +0.01    +0.064 A 
DOCKED: ATOM      2  C   UNL d   1      17.470  -2.441   5.236 -0.22 -0.00    +0.064 A 
DOCKED: ATOM      3  C   UNL d   1      16.711   0.249   1.327 -0.14 -0.00    +0.064 C 
DOCKED: ATOM      4  C   UNL d   1      19.903  -2.556  -1.123 -0.18 -0.00    +0.064 A 
DOCKED: ATOM      5  C   UNL d   1      20.025  -4.427   3.937 -0.15 +0.01    +0.066 A 
DOCKED: ATOM      6  C   UNL d   1      19.937  -4.937   5.236 -0.17 -0.00    -0.021 A 
DOCKED: ATOM      7  C   UNL d   1      18.916  -4.265   5.866 -0.11 -0.00    -0.025 A 
DOCKED: ATOM      8  C   UNL d   1      18.440  -3.330   4.951 -0.16 +0.00    +0.066 A 
DOCKED: ATOM      9  C   UNL d   1      18.428  -4.552   7.269 -0.15 +0.00    +0.051 C 
DOCKED: ATOM     10  C   UNL d   1      16.945  -1.422   4.326 -0.21 -0.01    +0.066 A 
DOCKED: ATOM     11  C   UNL d   1      16.054  -0.419   4.724 -0.24 +0.00    -0.021 A 
DOCKED: ATOM     12  C   UNL d   1      15.837   0.377   3.615 -0.20 -0.00    +0.000 A 
DOCKED: ATOM     13  C   UNL d   1      16.616  -0.205   2.577 -0.14 -0.00    +0.070 A 
DOCKED: ATOM     14  C   UNL d   1      15.457  -0.213   6.111 -0.23 +0.00    +0.052 C 
DOCKED: ATOM     15  C   UNL d   1      17.460  -0.331   0.238 -0.13 -0.01    +0.066 A 
DOCKED: ATOM     16  C   UNL d   1      17.388   0.098  -1.087 -0.16 +0.00    -0.021 A 
DOCKED: ATOM     17  C   UNL d   1      18.290  -0.689  -1.804 -0.20 -0.00    +0.000 A 
DOCKED: ATOM     18  C   UNL d   1      18.852  -1.548  -0.850 -0.16 -0.01    +0.070 A 
DOCKED: ATOM     19  C   UNL d   1      16.436   1.170  -1.555 -0.05 -0.01    +0.052 C 
DOCKED: ATOM     20  C   UNL d   1      20.434  -3.425  -0.241 -0.17 -0.00    +0.066 A 
DOCKED: ATOM     21  C   UNL d   1      21.435  -4.341  -0.553 -0.18 -0.00    -0.025 A 
DOCKED: ATOM     22  C   UNL d   1      21.749  -4.989   0.621 -0.20 -0.00    -0.021 A 
DOCKED: ATOM     23  C   UNL d   1      20.912  -4.455   1.605 -0.21 +0.00    +0.066 A 
DOCKED: ATOM     24  C   UNL d   1      22.057  -4.587  -1.903 -0.18 +0.00    +0.051 C 
DOCKED: ATOM     25  N   UNL d   1      19.079  -3.475   3.741 -0.12 -0.01    -0.248 N 
DOCKED: ATOM     26  N   UNL d   1      17.283  -1.302   3.016 -0.12 +0.02    -0.248 N 
DOCKED: ATOM     27  N   UNL d   1      18.282  -1.368   0.369 -0.07 +0.02    -0.248 N 
DOCKED: ATOM     28  N   UNL d   1      20.083  -3.537   1.068 -0.11 +0.01    -0.248 N 
DOCKED: ATOM     29 FE   UNL d   1      18.692  -2.427   2.032 -0.04 -0.00    +0.000 Fe
DOCKED: ATOM     30  O   UNL d   1      17.555  -3.409   2.438 -0.45 -0.00    +0.000 OA
DOCKED: ATOM     31  O   UNL d   1      17.948  -3.252   0.920 -0.43 -0.00    +0.000 OA
DOCKED: ENDROOT
DOCKED: BRANCH   6  32
DOCKED: ATOM     32  C   UNL d   1      20.689  -6.103   5.822 -0.22 +0.02    +0.052 C 
DOCKED: BRANCH  32  33
DOCKED: ATOM     33  C   UNL d   1      22.025  -5.699   6.438 -0.11 +0.04    +0.115 C 
DOCKED: BRANCH  33  34
DOCKED: ATOM     34  C   UNL d   1      22.705  -6.846   7.143 -0.06 +0.08    +0.139 C 
DOCKED: ATOM     35  O   UNL d   1      22.032  -7.672   7.739 -0.02 -0.32    -0.650 OA
DOCKED: BRANCH  34  36
DOCKED: ATOM     36  O   UNL d   1      24.048  -6.968   7.154 +0.01 -0.67    -0.776 OA
DOCKED: ATOM     37  H   UNL d   1      24.602  -6.463   7.761 +0.01 +0.09    +0.167 HD
DOCKED: ENDBRANCH  34  36
DOCKED: ENDBRANCH  33  34
DOCKED: ENDBRANCH  32  33
DOCKED: ENDBRANCH   6  32
DOCKED: BRANCH  22  38
DOCKED: ATOM     38  C   UNL d   1      22.754  -6.103   0.767 -0.19 +0.01    +0.052 C 
DOCKED: BRANCH  38  39
DOCKED: ATOM     39  C   UNL d   1      22.504  -7.244  -0.217 -0.21 +0.02    +0.115 C 
DOCKED: BRANCH  39  40
DOCKED: ATOM     40  C   UNL d   1      23.508  -8.360  -0.072 -0.16 +0.04    +0.139 C 
DOCKED: ATOM     41  O   UNL d   1      23.995  -8.599   1.021 -0.03 -0.35    -0.650 OA
DOCKED: BRANCH  40  42
DOCKED: ATOM     42  O   UNL d   1      23.843  -9.135  -1.122 +0.03 -0.13    -0.776 OA
DOCKED: ATOM     43  H   UNL d   1      24.752  -9.188  -1.440 +0.02 +0.03    +0.167 HD
DOCKED: ENDBRANCH  40  42
DOCKED: ENDBRANCH  39  40
DOCKED: ENDBRANCH  38  39
DOCKED: ENDBRANCH  22  38
DOCKED: BRANCH  12  44
DOCKED: ATOM     44  C   UNL d   1      14.925   1.585   3.659 -0.23 +0.00    +0.004 C 
DOCKED: ATOM     45  C   UNL d   1      13.936   1.896   2.821 -0.30 +0.00    +0.012 C 
DOCKED: ENDBRANCH  12  44
DOCKED: BRANCH  17  46
DOCKED: ATOM     46  C   UNL d   1      18.609  -0.733  -3.275 -0.31 -0.00    +0.004 C 
DOCKED: ATOM     47  C   UNL d   1      18.618   0.279  -4.152 -0.25 -0.00    +0.012 C 
DOCKED: ENDBRANCH  17  46
DOCKED: TORSDOF 10
DOCKED: TER
DOCKED: ENDMDL
________________________________________________________________________________


	BEGINNING GENETIC ALGORITHM DOCKING 85 of 100
Run: 85 Seed: 749042100 27124589 [ Run 85 of 100 GA/GALS ]
Beginning LAMARCKIAN GENETIC ALGORITHM (LGA), with a maximum of 25000000 energy evaluations.

Final-Value: -9.073


	FINAL GENETIC ALGORITHM DOCKED STATE
	_______________________________________________


Detailed state:  trans -17.891 11.422 1.284 quatxyzw 0.243156 -0.285253 0.017983 -0.926921 center 8.287 34.468 -0.670 ntor 10 21.0557 179.9676 -1.7444 102.8890 -171.2723 -116.1914 -103.7305 73.4181 -0.6006 113.2684
State:	-17.891  11.422   1.284   0.648 -0.760  0.048 -44.080     21.06  179.97   -1.74  102.89 -171.27 -116.19 -103.73   73.42   -0.60  113.27

DOCKED: MODEL       85
DOCKED: USER    Run = 85
DOCKED: USER    DPF = D:/Protein_go_brrr/autodock/final/mut_D99N/heme_O2/dock.dpf
DOCKED: USER  
DOCKED: USER    Estimated Free Energy of Binding    =   -5.49 kcal/mol  [=(1)+(2)+(3)-(4)]
DOCKED: USER    Estimated Inhibition Constant, Ki   =   95.11 uM (micromolar)  [Temperature = 298.15 K]
DOCKED: USER    
DOCKED: USER    (1) Final Intermolecular Energy     =   -8.47 kcal/mol
DOCKED: USER        vdW + Hbond + desolv Energy     =   -6.64 kcal/mol
DOCKED: USER        Electrostatic Energy            =   -1.83 kcal/mol
DOCKED: USER    (2) Final Total Internal Energy     =   -0.60 kcal/mol
DOCKED: USER    (3) Torsional Free Energy           =   +2.98 kcal/mol
DOCKED: USER    (4) Unbound System's Energy  [=(2)] =   -0.60 kcal/mol
DOCKED: USER    
DOCKED: USER    
DOCKED: USER    NEWDPF move heme_O2_opt.pdbqt
DOCKED: USER    NEWDPF about 8.287000 34.468000 -0.670000
DOCKED: USER    NEWDPF tran0 -17.891246 11.422101 1.284083
DOCKED: USER    NEWDPF quaternion0 0.243156 -0.285253 0.017983 -0.926921
DOCKED: USER    NEWDPF axisangle0 0.647973 -0.760154 0.047923 -44.080336
DOCKED: USER    NEWDPF quat0 0.647973 -0.760154 0.047923 -44.080336
DOCKED: USER    NEWDPF dihe0 21.06 179.97 -1.74 102.89 -171.27 -116.19 -103.73 73.42 -0.60 113.27 
DOCKED: USER  keepresnum = 1 
DOCKED: USER  
DOCKED: REMARK  10 active torsions:
DOCKED: REMARK  status: ('A' for Active; 'I' for Inactive)
DOCKED: REMARK    1  A    between atoms: C_6  and  C_10 
DOCKED: REMARK    2  A    between atoms: C_10  and  C_11 
DOCKED: REMARK    3  A    between atoms: C_11  and  C_12 
DOCKED: REMARK    4  A    between atoms: C_12  and  O_14 
DOCKED: REMARK    5  A    between atoms: C_17  and  C_20 
DOCKED: REMARK    6  A    between atoms: C_24  and  C_27 
DOCKED: REMARK    7  A    between atoms: C_31  and  C_34 
DOCKED: REMARK    8  A    between atoms: C_34  and  C_35 
DOCKED: REMARK    9  A    between atoms: C_35  and  C_36 
DOCKED: REMARK   10  A    between atoms: C_36  and  O_38 
DOCKED: USER                              x       y       z     vdW  Elec       q    Type
DOCKED: USER                           _______ _______ _______ _____ _____    ______ ____
DOCKED: ROOT
DOCKED: ATOM      1  C   UNL d   1     -19.143  12.518  -0.031 -0.15 +0.00    +0.064 A 
DOCKED: ATOM      2  C   UNL d   1     -19.619   8.283   2.065 -0.16 +0.01    +0.064 A 
DOCKED: ATOM      3  C   UNL d   1     -15.307   8.723   4.141 -0.12 -0.00    +0.064 C 
DOCKED: ATOM      4  C   UNL d   1     -15.013  13.290   2.374 -0.14 -0.01    +0.064 A 
DOCKED: ATOM      5  C   UNL d   1     -19.625  11.331   0.371 -0.17 +0.00    +0.066 A 
DOCKED: ATOM      6  C   UNL d   1     -20.857  10.809  -0.033 -0.14 -0.00    -0.021 A 
DOCKED: ATOM      7  C   UNL d   1     -21.016   9.602   0.607 -0.15 -0.01    -0.025 A 
DOCKED: ATOM      8  C   UNL d   1     -19.854   9.398   1.347 -0.17 +0.01    +0.066 A 
DOCKED: ATOM      9  C   UNL d   1     -22.247   8.728   0.515 -0.12 +0.03    +0.051 C 
DOCKED: ATOM     10  C   UNL d   1     -18.411   8.002   2.842 -0.17 +0.00    +0.066 A 
DOCKED: ATOM     11  C   UNL d   1     -18.148   6.762   3.434 -0.14 -0.00    -0.021 A 
DOCKED: ATOM     12  C   UNL d   1     -16.901   6.863   4.023 -0.10 +0.00    +0.000 A 
DOCKED: ATOM     13  C   UNL d   1     -16.470   8.193   3.761 -0.08 -0.00    +0.070 A 
DOCKED: ATOM     14  C   UNL d   1     -19.037   5.524   3.416 -0.10 +0.01    +0.052 C 
DOCKED: ATOM     15  C   UNL d   1     -14.849  10.074   3.927 -0.18 -0.01    +0.066 A 
DOCKED: ATOM     16  C   UNL d   1     -13.695  10.617   4.491 -0.25 +0.00    -0.021 A 
DOCKED: ATOM     17  C   UNL d   1     -13.591  11.919   4.002 -0.24 -0.00    +0.000 A 
DOCKED: ATOM     18  C   UNL d   1     -14.703  12.075   3.163 -0.16 -0.01    +0.070 A 
DOCKED: ATOM     19  C   UNL d   1     -12.834   9.870   5.480 -0.36 -0.01    +0.052 C 
DOCKED: ATOM     20  C   UNL d   1     -16.093  13.489   1.594 -0.14 -0.01    +0.066 A 
DOCKED: ATOM     21  C   UNL d   1     -16.323  14.649   0.860 -0.10 +0.00    -0.025 A 
DOCKED: ATOM     22  C   UNL d   1     -17.482  14.437   0.148 +0.02 +0.00    -0.021 A 
DOCKED: ATOM     23  C   UNL d   1     -17.927  13.156   0.488 -0.11 -0.00    +0.066 A 
DOCKED: ATOM     24  C   UNL d   1     -15.482  15.899   0.843 -0.09 -0.00    +0.051 C 
DOCKED: ATOM     25  N   UNL d   1     -19.027  10.493   1.252 -0.11 +0.02    -0.248 N 
DOCKED: ATOM     26  N   UNL d   1     -17.396   8.880   3.046 -0.12 +0.02    -0.248 N 
DOCKED: ATOM     27  N   UNL d   1     -15.495  10.972   3.188 -0.12 +0.04    -0.248 N 
DOCKED: ATOM     28  N   UNL d   1     -17.105  12.601   1.402 -0.12 +0.03    -0.248 N 
DOCKED: ATOM     29 FE   UNL d   1     -17.247  10.755   2.219 -0.04 -0.00    +0.000 Fe
DOCKED: ATOM     30  O   UNL d   1     -18.485  10.791   3.162 -0.09 -0.00    +0.000 OA
DOCKED: ATOM     31  O   UNL d   1     -17.296  11.797   3.396 -0.09 -0.00    +0.000 OA
DOCKED: ENDROOT
DOCKED: BRANCH   6  32
DOCKED: ATOM     32  C   UNL d   1     -21.910  11.477  -0.879 -0.08 +0.01    +0.052 C 
DOCKED: BRANCH  32  33
DOCKED: ATOM     33  C   UNL d   1     -21.635  11.352  -2.375 -0.14 +0.04    +0.115 C 
DOCKED: BRANCH  33  34
DOCKED: ATOM     34  C   UNL d   1     -21.911   9.964  -2.896 -0.07 +0.14    +0.139 C 
DOCKED: ATOM     35  O   UNL d   1     -22.863   9.334  -2.462 +0.13 -1.20    -0.650 OA
DOCKED: BRANCH  34  36
DOCKED: ATOM     36  O   UNL d   1     -21.111   9.386  -3.816 -0.35 -0.83    -0.776 OA
DOCKED: ATOM     37  H   UNL d   1     -20.202   9.675  -3.955 -0.41 -0.00    +0.167 HD
DOCKED: ENDBRANCH  34  36
DOCKED: ENDBRANCH  33  34
DOCKED: ENDBRANCH  32  33
DOCKED: ENDBRANCH   6  32
DOCKED: BRANCH  22  38
DOCKED: ATOM     38  C   UNL d   1     -18.152  15.437  -0.758 -0.11 -0.00    +0.052 C 
DOCKED: BRANCH  38  39
DOCKED: ATOM     39  C   UNL d   1     -19.675  15.334  -0.714 -0.06 +0.00    +0.115 C 
DOCKED: BRANCH  39  40
DOCKED: ATOM     40  C   UNL d   1     -20.249  14.732  -1.972 -0.07 +0.00    +0.139 C 
DOCKED: ATOM     41  O   UNL d   1     -19.583  13.946  -2.626 -0.33 -0.07    -0.650 OA
DOCKED: BRANCH  40  42
DOCKED: ATOM     42  O   UNL d   1     -21.507  15.008  -2.364 +0.02 -0.02    -0.776 OA
DOCKED: ATOM     43  H   UNL d   1     -21.894  14.597  -3.147 +0.01 +0.01    +0.167 HD
DOCKED: ENDBRANCH  40  42
DOCKED: ENDBRANCH  39  40
DOCKED: ENDBRANCH  38  39
DOCKED: ENDBRANCH  22  38
DOCKED: BRANCH  12  44
DOCKED: ATOM     44  C   UNL d   1     -16.265   5.705   4.762 -0.10 +0.00    +0.004 C 
DOCKED: ATOM     45  C   UNL d   1     -15.036   5.635   5.272 -0.12 +0.00    +0.012 C 
DOCKED: ENDBRANCH  12  44
DOCKED: BRANCH  17  46
DOCKED: ATOM     46  C   UNL d   1     -12.595  13.008   4.298 -0.33 -0.00    +0.004 C 
DOCKED: ATOM     47  C   UNL d   1     -11.496  13.336   3.606 -0.44 -0.00    +0.012 C 
DOCKED: ENDBRANCH  17  46
DOCKED: TORSDOF 10
DOCKED: TER
DOCKED: ENDMDL
________________________________________________________________________________


	BEGINNING GENETIC ALGORITHM DOCKING 86 of 100
Run: 86 Seed: 909683130 147267671 [ Run 86 of 100 GA/GALS ]
Beginning LAMARCKIAN GENETIC ALGORITHM (LGA), with a maximum of 25000000 energy evaluations.

Final-Value: -11.027


	FINAL GENETIC ALGORITHM DOCKED STATE
	_______________________________________________


Detailed state:  trans 2.271 0.010 -20.576 quatxyzw -0.779369 0.208829 -0.268486 0.526203 center 8.287 34.468 -0.670 ntor 10 -141.7824 -119.3028 30.4482 -115.4069 58.1758 154.6933 -94.8137 64.4354 -177.4835 -170.6461
State:	  2.271   0.010 -20.576  -0.917  0.246 -0.316 116.501   -141.78 -119.30   30.45 -115.41   58.18  154.69  -94.81   64.44 -177.48 -170.65

DOCKED: MODEL       86
DOCKED: USER    Run = 86
DOCKED: USER    DPF = D:/Protein_go_brrr/autodock/final/mut_D99N/heme_O2/dock.dpf
DOCKED: USER  
DOCKED: USER    Estimated Free Energy of Binding    =   -5.39 kcal/mol  [=(1)+(2)+(3)-(4)]
DOCKED: USER    Estimated Inhibition Constant, Ki   =  111.25 uM (micromolar)  [Temperature = 298.15 K]
DOCKED: USER    
DOCKED: USER    (1) Final Intermolecular Energy     =   -8.38 kcal/mol
DOCKED: USER        vdW + Hbond + desolv Energy     =   -5.27 kcal/mol
DOCKED: USER        Electrostatic Energy            =   -3.11 kcal/mol
DOCKED: USER    (2) Final Total Internal Energy     =   -2.65 kcal/mol
DOCKED: USER    (3) Torsional Free Energy           =   +2.98 kcal/mol
DOCKED: USER    (4) Unbound System's Energy  [=(2)] =   -2.65 kcal/mol
DOCKED: USER    
DOCKED: USER    
DOCKED: USER    NEWDPF move heme_O2_opt.pdbqt
DOCKED: USER    NEWDPF about 8.287000 34.468000 -0.670000
DOCKED: USER    NEWDPF tran0 2.271223 0.009804 -20.575668
DOCKED: USER    NEWDPF quaternion0 -0.779369 0.208829 -0.268486 0.526203
DOCKED: USER    NEWDPF axisangle0 -0.916518 0.245577 -0.315732 116.501412
DOCKED: USER    NEWDPF quat0 -0.916518 0.245577 -0.315732 116.501412
DOCKED: USER    NEWDPF dihe0 -141.78 -119.30 30.45 -115.41 58.18 154.69 -94.81 64.44 -177.48 -170.65 
DOCKED: USER  keepresnum = 1 
DOCKED: USER  
DOCKED: REMARK  10 active torsions:
DOCKED: REMARK  status: ('A' for Active; 'I' for Inactive)
DOCKED: REMARK    1  A    between atoms: C_6  and  C_10 
DOCKED: REMARK    2  A    between atoms: C_10  and  C_11 
DOCKED: REMARK    3  A    between atoms: C_11  and  C_12 
DOCKED: REMARK    4  A    between atoms: C_12  and  O_14 
DOCKED: REMARK    5  A    between atoms: C_17  and  C_20 
DOCKED: REMARK    6  A    between atoms: C_24  and  C_27 
DOCKED: REMARK    7  A    between atoms: C_31  and  C_34 
DOCKED: REMARK    8  A    between atoms: C_34  and  C_35 
DOCKED: REMARK    9  A    between atoms: C_35  and  C_36 
DOCKED: REMARK   10  A    between atoms: C_36  and  O_38 
DOCKED: USER                              x       y       z     vdW  Elec       q    Type
DOCKED: USER                           _______ _______ _______ _____ _____    ______ ____
DOCKED: ROOT
DOCKED: ATOM      1  C   UNL d   1       0.309   0.620 -21.101 -0.07 +0.04    +0.064 A 
DOCKED: ATOM      2  C   UNL d   1       3.607  -1.908 -23.402 -0.05 +0.01    +0.064 A 
DOCKED: ATOM      3  C   UNL d   1       6.671  -1.422 -19.732 -0.15 +0.01    +0.064 C 
DOCKED: ATOM      4  C   UNL d   1       3.116   0.772 -17.160 -0.14 +0.02    +0.064 A 
DOCKED: ATOM      5  C   UNL d   1       0.955  -0.109 -22.026 -0.05 +0.02    +0.066 A 
DOCKED: ATOM      6  C   UNL d   1       0.415  -0.456 -23.267 -0.03 -0.01    -0.021 A 
DOCKED: ATOM      7  C   UNL d   1       1.352  -1.224 -23.917 -0.03 -0.00    -0.025 A 
DOCKED: ATOM      8  C   UNL d   1       2.458  -1.285 -23.074 -0.04 +0.01    +0.066 A 
DOCKED: ATOM      9  C   UNL d   1       1.151  -1.878 -25.267 -0.02 +0.01    +0.051 C 
DOCKED: ATOM     10  C   UNL d   1       4.808  -1.986 -22.570 -0.10 +0.01    +0.066 A 
DOCKED: ATOM     11  C   UNL d   1       6.027  -2.502 -23.024 -0.12 -0.00    -0.021 A 
DOCKED: ATOM     12  C   UNL d   1       6.928  -2.355 -21.986 -0.12 +0.00    +0.000 A 
DOCKED: ATOM     13  C   UNL d   1       6.189  -1.754 -20.929 -0.08 +0.01    +0.070 A 
DOCKED: ATOM     14  C   UNL d   1       6.326  -3.087 -24.399 -0.08 +0.00    +0.052 C 
DOCKED: ATOM     15  C   UNL d   1       5.948  -0.846 -18.625 -0.15 +0.02    +0.066 A 
DOCKED: ATOM     16  C   UNL d   1       6.470  -0.673 -17.343 -0.24 -0.01    -0.021 A 
DOCKED: ATOM     17  C   UNL d   1       5.474  -0.050 -16.592 -0.23 +0.00    +0.000 A 
DOCKED: ATOM     18  C   UNL d   1       4.405   0.115 -17.484 -0.17 +0.02    +0.070 A 
DOCKED: ATOM     19  C   UNL d   1       7.838  -1.164 -16.939 -0.28 +0.02    +0.052 C 
DOCKED: ATOM     20  C   UNL d   1       2.055   0.908 -17.978 -0.04 +0.03    +0.066 A 
DOCKED: ATOM     21  C   UNL d   1       0.873   1.552 -17.623 -0.15 -0.02    -0.025 A 
DOCKED: ATOM     22  C   UNL d   1       0.072   1.543 -18.742 -0.11 -0.02    -0.021 A 
DOCKED: ATOM     23  C   UNL d   1       0.790   0.874 -19.738 -0.11 +0.05    +0.066 A 
DOCKED: ATOM     24  C   UNL d   1       0.525   2.144 -16.282 -0.17 +0.04    +0.051 C 
DOCKED: ATOM     25  N   UNL d   1       2.189  -0.653 -21.882 -0.03 -0.07    -0.248 N 
DOCKED: ATOM     26  N   UNL d   1       4.899  -1.538 -21.292 -0.08 -0.05    -0.248 N 
DOCKED: ATOM     27  N   UNL d   1       4.683  -0.441 -18.691 -0.11 -0.07    -0.248 N 
DOCKED: ATOM     28  N   UNL d   1       1.977   0.451 -19.256 -0.08 -0.12    -0.248 N 
DOCKED: ATOM     29 FE   UNL d   1       3.429  -0.536 -20.264 -0.03 +0.00    +0.000 Fe
DOCKED: ATOM     30  O   UNL d   1       2.877  -1.967 -20.531 -0.29 +0.00    +0.000 OA
DOCKED: ATOM     31  O   UNL d   1       2.998  -1.440 -19.051 -0.25 +0.00    +0.000 OA
DOCKED: ENDROOT
DOCKED: BRANCH   6  32
DOCKED: ATOM     32  C   UNL d   1      -0.981  -0.194 -23.772 -0.02 +0.01    +0.052 C 
DOCKED: BRANCH  32  33
DOCKED: ATOM     33  C   UNL d   1      -1.932  -1.359 -23.516 -0.05 +0.04    +0.115 C 
DOCKED: BRANCH  33  34
DOCKED: ATOM     34  C   UNL d   1      -2.504  -1.337 -22.120 -0.11 +0.08    +0.139 C 
DOCKED: ATOM     35  O   UNL d   1      -1.947  -1.960 -21.230 +0.05 -0.56    -0.650 OA
DOCKED: BRANCH  34  36
DOCKED: ATOM     36  O   UNL d   1      -3.639  -0.666 -21.835 +0.04 -0.52    -0.776 OA
DOCKED: ATOM     37  H   UNL d   1      -3.752  -0.179 -21.011 +0.03 +0.16    +0.167 HD
DOCKED: ENDBRANCH  34  36
DOCKED: ENDBRANCH  33  34
DOCKED: ENDBRANCH  32  33
DOCKED: ENDBRANCH   6  32
DOCKED: BRANCH  22  38
DOCKED: ATOM     38  C   UNL d   1      -1.330   2.090 -18.824 -0.10 +0.05    +0.052 C 
DOCKED: BRANCH  38  39
DOCKED: ATOM     39  C   UNL d   1      -2.324   1.268 -18.006 -0.03 +0.21    +0.115 C 
DOCKED: BRANCH  39  40
DOCKED: ATOM     40  C   UNL d   1      -3.384   0.625 -18.865 -0.07 +0.27    +0.139 C 
DOCKED: ATOM     41  O   UNL d   1      -4.130   1.324 -19.532 +0.02 -1.13    -0.650 OA
DOCKED: BRANCH  40  42
DOCKED: ATOM     42  O   UNL d   1      -3.491  -0.715 -18.951 -0.32 -1.98    -0.776 OA
DOCKED: ATOM     43  H   UNL d   1      -3.352  -1.180 -19.784 +0.02 +0.29    +0.167 HD
DOCKED: ENDBRANCH  40  42
DOCKED: ENDBRANCH  39  40
DOCKED: ENDBRANCH  38  39
DOCKED: ENDBRANCH  22  38
DOCKED: BRANCH  12  44
DOCKED: ATOM     44  C   UNL d   1       8.372  -2.797 -22.105 -0.15 +0.00    +0.004 C 
DOCKED: ATOM     45  C   UNL d   1       9.200  -3.162 -21.128 -0.16 +0.00    +0.012 C 
DOCKED: ENDBRANCH  12  44
DOCKED: BRANCH  17  46
DOCKED: ATOM     46  C   UNL d   1       5.429   0.336 -15.137 -0.32 +0.00    +0.004 C 
DOCKED: ATOM     47  C   UNL d   1       4.543  -0.043 -14.207 -0.48 +0.00    +0.012 C 
DOCKED: ENDBRANCH  17  46
DOCKED: TORSDOF 10
DOCKED: TER
DOCKED: ENDMDL
________________________________________________________________________________


	BEGINNING GENETIC ALGORITHM DOCKING 87 of 100
Run: 87 Seed: 467059394 457793502 [ Run 87 of 100 GA/GALS ]
Beginning LAMARCKIAN GENETIC ALGORITHM (LGA), with a maximum of 25000000 energy evaluations.

Final-Value: -9.626


	FINAL GENETIC ALGORITHM DOCKED STATE
	_______________________________________________


Detailed state:  trans -3.031 17.776 7.607 quatxyzw 0.002742 -0.499419 -0.215431 -0.839144 center 8.287 34.468 -0.670 ntor 10 148.4259 -39.4850 -109.9919 117.4217 -86.0105 134.8485 69.9224 -0.8555 -25.6440 151.9626
State:	 -3.031  17.776   7.607   0.005 -0.918 -0.396 -65.900    148.43  -39.48 -109.99  117.42  -86.01  134.85   69.92   -0.86  -25.64  151.96

DOCKED: MODEL       87
DOCKED: USER    Run = 87
DOCKED: USER    DPF = D:/Protein_go_brrr/autodock/final/mut_D99N/heme_O2/dock.dpf
DOCKED: USER  
DOCKED: USER    Estimated Free Energy of Binding    =   -4.42 kcal/mol  [=(1)+(2)+(3)-(4)]
DOCKED: USER    Estimated Inhibition Constant, Ki   =  574.31 uM (micromolar)  [Temperature = 298.15 K]
DOCKED: USER    
DOCKED: USER    (1) Final Intermolecular Energy     =   -7.40 kcal/mol
DOCKED: USER        vdW + Hbond + desolv Energy     =   -7.18 kcal/mol
DOCKED: USER        Electrostatic Energy            =   -0.22 kcal/mol
DOCKED: USER    (2) Final Total Internal Energy     =   -2.22 kcal/mol
DOCKED: USER    (3) Torsional Free Energy           =   +2.98 kcal/mol
DOCKED: USER    (4) Unbound System's Energy  [=(2)] =   -2.22 kcal/mol
DOCKED: USER    
DOCKED: USER    
DOCKED: USER    NEWDPF move heme_O2_opt.pdbqt
DOCKED: USER    NEWDPF about 8.287000 34.468000 -0.670000
DOCKED: USER    NEWDPF tran0 -3.031216 17.775795 7.607470
DOCKED: USER    NEWDPF quaternion0 0.002742 -0.499419 -0.215431 -0.839144
DOCKED: USER    NEWDPF axisangle0 0.005042 -0.918202 -0.396079 -65.900299
DOCKED: USER    NEWDPF quat0 0.005042 -0.918202 -0.396079 -65.900299
DOCKED: USER    NEWDPF dihe0 148.43 -39.48 -109.99 117.42 -86.01 134.85 69.92 -0.86 -25.64 151.96 
DOCKED: USER  keepresnum = 1 
DOCKED: USER  
DOCKED: REMARK  10 active torsions:
DOCKED: REMARK  status: ('A' for Active; 'I' for Inactive)
DOCKED: REMARK    1  A    between atoms: C_6  and  C_10 
DOCKED: REMARK    2  A    between atoms: C_10  and  C_11 
DOCKED: REMARK    3  A    between atoms: C_11  and  C_12 
DOCKED: REMARK    4  A    between atoms: C_12  and  O_14 
DOCKED: REMARK    5  A    between atoms: C_17  and  C_20 
DOCKED: REMARK    6  A    between atoms: C_24  and  C_27 
DOCKED: REMARK    7  A    between atoms: C_31  and  C_34 
DOCKED: REMARK    8  A    between atoms: C_34  and  C_35 
DOCKED: REMARK    9  A    between atoms: C_35  and  C_36 
DOCKED: REMARK   10  A    between atoms: C_36  and  O_38 
DOCKED: USER                              x       y       z     vdW  Elec       q    Type
DOCKED: USER                           _______ _______ _______ _____ _____    ______ ____
DOCKED: ROOT
DOCKED: ATOM      1  C   UNL d   1      -2.907  18.835   5.774 -0.09 +0.01    +0.064 A 
DOCKED: ATOM      2  C   UNL d   1      -6.517  16.713   8.016 -0.12 +0.00    +0.064 A 
DOCKED: ATOM      3  C   UNL d   1      -3.607  15.318  11.576 -0.13 -0.02    +0.064 C 
DOCKED: ATOM      4  C   UNL d   1       0.017  17.905   9.518 -0.09 +0.00    +0.064 A 
DOCKED: ATOM      5  C   UNL d   1      -4.127  18.373   6.094 -0.18 +0.01    +0.066 A 
DOCKED: ATOM      6  C   UNL d   1      -5.263  18.546   5.298 -0.22 -0.01    -0.021 A 
DOCKED: ATOM      7  C   UNL d   1      -6.318  17.970   5.967 -0.21 -0.01    -0.025 A 
DOCKED: ATOM      8  C   UNL d   1      -5.788  17.419   7.130 -0.24 +0.01    +0.066 A 
DOCKED: ATOM      9  C   UNL d   1      -7.756  17.992   5.498 -0.09 +0.02    +0.051 C 
DOCKED: ATOM     10  C   UNL d   1      -6.013  16.092   9.241 -0.25 -0.01    +0.066 A 
DOCKED: ATOM     11  C   UNL d   1      -6.777  15.234  10.040 -0.29 +0.00    -0.021 A 
DOCKED: ATOM     12  C   UNL d   1      -5.950  14.807  11.062 -0.29 -0.00    +0.000 A 
DOCKED: ATOM     13  C   UNL d   1      -4.704  15.453  10.831 -0.24 -0.01    +0.070 A 
DOCKED: ATOM     14  C   UNL d   1      -8.227  14.818   9.822 -0.31 -0.02    +0.052 C 
DOCKED: ATOM     15  C   UNL d   1      -2.338  15.981  11.396 -0.23 -0.01    +0.066 A 
DOCKED: ATOM     16  C   UNL d   1      -1.281  15.925  12.304 -0.21 +0.00    -0.021 A 
DOCKED: ATOM     17  C   UNL d   1      -0.237  16.656  11.739 -0.16 -0.00    +0.000 A 
DOCKED: ATOM     18  C   UNL d   1      -0.741  17.108  10.511 -0.11 -0.00    +0.070 A 
DOCKED: ATOM     19  C   UNL d   1      -1.380  15.232  13.640 -0.30 -0.01    +0.052 C 
DOCKED: ATOM     20  C   UNL d   1      -0.449  18.391   8.351 -0.20 +0.00    +0.066 A 
DOCKED: ATOM     21  C   UNL d   1       0.318  19.121   7.448 -0.18 -0.00    -0.025 A 
DOCKED: ATOM     22  C   UNL d   1      -0.491  19.371   6.362 -0.19 -0.00    -0.021 A 
DOCKED: ATOM     23  C   UNL d   1      -1.733  18.798   6.653 -0.19 +0.01    +0.066 A 
DOCKED: ATOM     24  C   UNL d   1       1.750  19.561   7.613 -0.12 +0.00    +0.051 C 
DOCKED: ATOM     25  N   UNL d   1      -4.451  17.724   7.239 -0.15 -0.03    -0.248 N 
DOCKED: ATOM     26  N   UNL d   1      -4.752  16.236   9.723 -0.16 +0.02    -0.248 N 
DOCKED: ATOM     27  N   UNL d   1      -2.041  16.752  10.354 -0.16 +0.02    -0.248 N 
DOCKED: ATOM     28  N   UNL d   1      -1.716  18.242   7.882 -0.17 -0.02    -0.248 N 
DOCKED: ATOM     29 FE   UNL d   1      -3.222  17.246   8.798 -0.05 -0.00    +0.000 Fe
DOCKED: ATOM     30  O   UNL d   1      -4.298  18.314   9.151 -0.11 -0.00    +0.000 OA
DOCKED: ATOM     31  O   UNL d   1      -2.834  18.464   9.715 -0.11 -0.00    +0.000 OA
DOCKED: ENDROOT
DOCKED: BRANCH   6  32
DOCKED: ATOM     32  C   UNL d   1      -5.385  19.340   4.023 -0.16 +0.02    +0.052 C 
DOCKED: BRANCH  32  33
DOCKED: ATOM     33  C   UNL d   1      -4.426  18.867   2.936 -0.15 +0.06    +0.115 C 
DOCKED: BRANCH  33  34
DOCKED: ATOM     34  C   UNL d   1      -3.357  19.886   2.628 -0.10 +0.04    +0.139 C 
DOCKED: ATOM     35  O   UNL d   1      -2.180  19.575   2.728 +0.00 -0.15    -0.650 OA
DOCKED: BRANCH  34  36
DOCKED: ATOM     36  O   UNL d   1      -3.670  21.148   2.270 +0.05 -0.15    -0.776 OA
DOCKED: ATOM     37  H   UNL d   1      -3.104  21.897   2.489 +0.01 +0.02    +0.167 HD
DOCKED: ENDBRANCH  34  36
DOCKED: ENDBRANCH  33  34
DOCKED: ENDBRANCH  32  33
DOCKED: ENDBRANCH   6  32
DOCKED: BRANCH  22  38
DOCKED: ATOM     38  C   UNL d   1      -0.106  20.173   5.146 -0.14 +0.00    +0.052 C 
DOCKED: BRANCH  38  39
DOCKED: ATOM     39  C   UNL d   1      -0.764  21.551   5.125 -0.04 +0.01    +0.115 C 
DOCKED: BRANCH  39  40
DOCKED: ATOM     40  C   UNL d   1      -0.342  22.373   3.933 -0.02 +0.01    +0.139 C 
DOCKED: ATOM     41  O   UNL d   1       0.726  22.962   3.951 +0.01 -0.02    -0.650 OA
DOCKED: BRANCH  40  42
DOCKED: ATOM     42  O   UNL d   1      -1.102  22.428   2.822 +0.02 -0.05    -0.776 OA
DOCKED: ATOM     43  H   UNL d   1      -1.587  21.658   2.503 +0.02 +0.02    +0.167 HD
DOCKED: ENDBRANCH  40  42
DOCKED: ENDBRANCH  39  40
DOCKED: ENDBRANCH  38  39
DOCKED: ENDBRANCH  22  38
DOCKED: BRANCH  12  44
DOCKED: ATOM     44  C   UNL d   1      -6.426  13.849  12.134 -0.34 -0.00    +0.004 C 
DOCKED: ATOM     45  C   UNL d   1      -6.793  12.577  11.991 -0.53 -0.00    +0.012 C 
DOCKED: ENDBRANCH  12  44
DOCKED: BRANCH  17  46
DOCKED: ATOM     46  C   UNL d   1       1.129  17.000  12.270 -0.12 -0.00    +0.004 C 
DOCKED: ATOM     47  C   UNL d   1       2.319  16.551  11.850 -0.14 -0.00    +0.012 C 
DOCKED: ENDBRANCH  17  46
DOCKED: TORSDOF 10
DOCKED: TER
DOCKED: ENDMDL
________________________________________________________________________________


	BEGINNING GENETIC ALGORITHM DOCKING 88 of 100
Run: 88 Seed: 971757107 751778623 [ Run 88 of 100 GA/GALS ]
Beginning LAMARCKIAN GENETIC ALGORITHM (LGA), with a maximum of 25000000 energy evaluations.

Final-Value: -9.107


	FINAL GENETIC ALGORITHM DOCKED STATE
	_______________________________________________


Detailed state:  trans 19.591 -3.334 2.391 quatxyzw -0.519117 -0.230514 0.780139 -0.262231 center 8.287 34.468 -0.670 ntor 10 49.3850 99.7720 61.8013 39.9469 105.4937 36.8600 26.7560 2.4937 31.5967 14.9023
State:	 19.591  -3.334   2.391  -0.538 -0.239  0.808 -149.595     49.38   99.77   61.80   39.95  105.49   36.86   26.76    2.49   31.60   14.90

DOCKED: MODEL       88
DOCKED: USER    Run = 88
DOCKED: USER    DPF = D:/Protein_go_brrr/autodock/final/mut_D99N/heme_O2/dock.dpf
DOCKED: USER  
DOCKED: USER    Estimated Free Energy of Binding    =   -5.81 kcal/mol  [=(1)+(2)+(3)-(4)]
DOCKED: USER    Estimated Inhibition Constant, Ki   =   55.52 uM (micromolar)  [Temperature = 298.15 K]
DOCKED: USER    
DOCKED: USER    (1) Final Intermolecular Energy     =   -8.79 kcal/mol
DOCKED: USER        vdW + Hbond + desolv Energy     =   -7.38 kcal/mol
DOCKED: USER        Electrostatic Energy            =   -1.41 kcal/mol
DOCKED: USER    (2) Final Total Internal Energy     =   -0.32 kcal/mol
DOCKED: USER    (3) Torsional Free Energy           =   +2.98 kcal/mol
DOCKED: USER    (4) Unbound System's Energy  [=(2)] =   -0.32 kcal/mol
DOCKED: USER    
DOCKED: USER    
DOCKED: USER    NEWDPF move heme_O2_opt.pdbqt
DOCKED: USER    NEWDPF about 8.287000 34.468000 -0.670000
DOCKED: USER    NEWDPF tran0 19.591403 -3.333937 2.390572
DOCKED: USER    NEWDPF quaternion0 -0.519117 -0.230514 0.780139 -0.262231
DOCKED: USER    NEWDPF axisangle0 -0.537942 -0.238873 0.808430 -149.595055
DOCKED: USER    NEWDPF quat0 -0.537942 -0.238873 0.808430 -149.595055
DOCKED: USER    NEWDPF dihe0 49.38 99.77 61.80 39.95 105.49 36.86 26.76 2.49 31.60 14.90 
DOCKED: USER  keepresnum = 1 
DOCKED: USER  
DOCKED: REMARK  10 active torsions:
DOCKED: REMARK  status: ('A' for Active; 'I' for Inactive)
DOCKED: REMARK    1  A    between atoms: C_6  and  C_10 
DOCKED: REMARK    2  A    between atoms: C_10  and  C_11 
DOCKED: REMARK    3  A    between atoms: C_11  and  C_12 
DOCKED: REMARK    4  A    between atoms: C_12  and  O_14 
DOCKED: REMARK    5  A    between atoms: C_17  and  C_20 
DOCKED: REMARK    6  A    between atoms: C_24  and  C_27 
DOCKED: REMARK    7  A    between atoms: C_31  and  C_34 
DOCKED: REMARK    8  A    between atoms: C_34  and  C_35 
DOCKED: REMARK    9  A    between atoms: C_35  and  C_36 
DOCKED: REMARK   10  A    between atoms: C_36  and  O_38 
DOCKED: USER                              x       y       z     vdW  Elec       q    Type
DOCKED: USER                           _______ _______ _______ _____ _____    ______ ____
DOCKED: ROOT
DOCKED: ATOM      1  C   UNL d   1      20.839  -4.932   3.015 -0.15 +0.01    +0.064 A 
DOCKED: ATOM      2  C   UNL d   1      17.471  -2.432   5.244 -0.22 -0.00    +0.064 A 
DOCKED: ATOM      3  C   UNL d   1      16.749   0.260   1.329 -0.14 -0.00    +0.064 C 
DOCKED: ATOM      4  C   UNL d   1      19.875  -2.616  -1.126 -0.19 -0.00    +0.064 A 
DOCKED: ATOM      5  C   UNL d   1      19.981  -4.473   3.940 -0.14 +0.01    +0.066 A 
DOCKED: ATOM      6  C   UNL d   1      19.889  -4.976   5.241 -0.14 -0.00    -0.021 A 
DOCKED: ATOM      7  C   UNL d   1      18.884  -4.282   5.874 -0.10 -0.00    -0.025 A 
DOCKED: ATOM      8  C   UNL d   1      18.423  -3.341   4.957 -0.16 +0.00    +0.066 A 
DOCKED: ATOM      9  C   UNL d   1      18.396  -4.555   7.280 -0.15 +0.00    +0.051 C 
DOCKED: ATOM     10  C   UNL d   1      16.963  -1.406   4.332 -0.21 -0.00    +0.066 A 
DOCKED: ATOM     11  C   UNL d   1      16.094  -0.384   4.730 -0.24 +0.00    -0.021 A 
DOCKED: ATOM     12  C   UNL d   1      15.888   0.413   3.620 -0.20 -0.00    +0.000 A 
DOCKED: ATOM     13  C   UNL d   1      16.650  -0.188   2.580 -0.14 -0.00    +0.070 A 
DOCKED: ATOM     14  C   UNL d   1      15.507  -0.162   6.119 -0.24 +0.00    +0.052 C 
DOCKED: ATOM     15  C   UNL d   1      17.481  -0.338   0.239 -0.13 -0.01    +0.066 A 
DOCKED: ATOM     16  C   UNL d   1      17.413   0.087  -1.088 -0.16 +0.00    -0.021 A 
DOCKED: ATOM     17  C   UNL d   1      18.295  -0.719  -1.806 -0.20 -0.00    +0.000 A 
DOCKED: ATOM     18  C   UNL d   1      18.845  -1.586  -0.852 -0.16 -0.01    +0.070 A 
DOCKED: ATOM     19  C   UNL d   1      16.480   1.176  -1.555 -0.07 -0.01    +0.052 C 
DOCKED: ATOM     20  C   UNL d   1      20.391  -3.492  -0.243 -0.18 -0.00    +0.066 A 
DOCKED: ATOM     21  C   UNL d   1      21.373  -4.429  -0.556 -0.19 -0.00    -0.025 A 
DOCKED: ATOM     22  C   UNL d   1      21.680  -5.079   0.618 -0.22 -0.00    -0.021 A 
DOCKED: ATOM     23  C   UNL d   1      20.857  -4.526   1.605 -0.22 +0.00    +0.066 A 
DOCKED: ATOM     24  C   UNL d   1      21.985  -4.691  -1.907 -0.19 +0.00    +0.051 C 
DOCKED: ATOM     25  N   UNL d   1      19.054  -3.503   3.745 -0.11 -0.01    -0.248 N 
DOCKED: ATOM     26  N   UNL d   1      17.297  -1.297   3.021 -0.12 +0.01    -0.248 N 
DOCKED: ATOM     27  N   UNL d   1      18.284  -1.391   0.369 -0.07 +0.02    -0.248 N 
DOCKED: ATOM     28  N   UNL d   1      20.044  -3.593   1.068 -0.12 +0.01    -0.248 N 
DOCKED: ATOM     29 FE   UNL d   1      18.680  -2.452   2.035 -0.04 -0.00    +0.000 Fe
DOCKED: ATOM     30  O   UNL d   1      17.526  -3.411   2.448 -0.46 -0.00    +0.000 OA
DOCKED: ATOM     31  O   UNL d   1      17.915  -3.266   0.928 -0.43 -0.00    +0.000 OA
DOCKED: ENDROOT
DOCKED: BRANCH   6  32
DOCKED: ATOM     32  C   UNL d   1      20.620  -6.156   5.828 -0.22 +0.02    +0.052 C 
DOCKED: BRANCH  32  33
DOCKED: ATOM     33  C   UNL d   1      21.570  -5.763   6.954 -0.10 +0.03    +0.115 C 
DOCKED: BRANCH  33  34
DOCKED: ATOM     34  C   UNL d   1      22.690  -6.757   7.135 -0.08 +0.08    +0.139 C 
DOCKED: ATOM     35  O   UNL d   1      22.440  -7.952   7.143 +0.01 -0.51    -0.650 OA
DOCKED: BRANCH  34  36
DOCKED: ATOM     36  O   UNL d   1      23.965  -6.356   7.318 -0.00 -0.47    -0.776 OA
DOCKED: ATOM     37  H   UNL d   1      24.202  -5.689   7.974 +0.01 +0.06    +0.167 HD
DOCKED: ENDBRANCH  34  36
DOCKED: ENDBRANCH  33  34
DOCKED: ENDBRANCH  32  33
DOCKED: ENDBRANCH   6  32
DOCKED: BRANCH  22  38
DOCKED: ATOM     38  C   UNL d   1      22.662  -6.212   0.764 -0.17 +0.01    +0.052 C 
DOCKED: BRANCH  38  39
DOCKED: ATOM     39  C   UNL d   1      23.839  -5.849   1.666 -0.12 +0.04    +0.115 C 
DOCKED: BRANCH  39  40
DOCKED: ATOM     40  C   UNL d   1      24.840  -6.971   1.787 -0.10 +0.08    +0.139 C 
DOCKED: ATOM     41  O   UNL d   1      25.822  -6.834   2.499 -0.03 -0.40    -0.650 OA
DOCKED: BRANCH  40  42
DOCKED: ATOM     42  O   UNL d   1      24.645  -8.148   1.162 -0.03 -0.43    -0.776 OA
DOCKED: ATOM     43  H   UNL d   1      25.115  -8.372   0.350 +0.02 +0.06    +0.167 HD
DOCKED: ENDBRANCH  40  42
DOCKED: ENDBRANCH  39  40
DOCKED: ENDBRANCH  38  39
DOCKED: ENDBRANCH  22  38
DOCKED: BRANCH  12  44
DOCKED: ATOM     44  C   UNL d   1      15.000   1.639   3.663 -0.21 +0.00    +0.004 C 
DOCKED: ATOM     45  C   UNL d   1      13.931   1.903   2.913 -0.30 +0.00    +0.012 C 
DOCKED: ENDBRANCH  12  44
DOCKED: BRANCH  17  46
DOCKED: ATOM     46  C   UNL d   1      18.608  -0.775  -3.278 -0.31 -0.00    +0.004 C 
DOCKED: ATOM     47  C   UNL d   1      18.619   0.232  -4.161 -0.25 -0.00    +0.012 C 
DOCKED: ENDBRANCH  17  46
DOCKED: TORSDOF 10
DOCKED: TER
DOCKED: ENDMDL
________________________________________________________________________________


	BEGINNING GENETIC ALGORITHM DOCKING 89 of 100
Run: 89 Seed: 1846562186 2032322539 [ Run 89 of 100 GA/GALS ]
Beginning LAMARCKIAN GENETIC ALGORITHM (LGA), with a maximum of 25000000 energy evaluations.

Final-Value: -8.897


	FINAL GENETIC ALGORITHM DOCKED STATE
	_______________________________________________


Detailed state:  trans 17.754 -1.419 2.224 quatxyzw 0.750144 -0.496354 0.234907 -0.368422 center 8.287 34.468 -0.670 ntor 10 47.5068 -16.6194 -54.7082 -114.5658 -91.1512 54.4566 -45.2373 68.1749 3.8064 -59.0471
State:	 17.754  -1.419   2.224   0.807 -0.534  0.253 -136.763     47.51  -16.62  -54.71 -114.57  -91.15   54.46  -45.24   68.17    3.81  -59.05

DOCKED: MODEL       89
DOCKED: USER    Run = 89
DOCKED: USER    DPF = D:/Protein_go_brrr/autodock/final/mut_D99N/heme_O2/dock.dpf
DOCKED: USER  
DOCKED: USER    Estimated Free Energy of Binding    =   -5.44 kcal/mol  [=(1)+(2)+(3)-(4)]
DOCKED: USER    Estimated Inhibition Constant, Ki   =  103.42 uM (micromolar)  [Temperature = 298.15 K]
DOCKED: USER    
DOCKED: USER    (1) Final Intermolecular Energy     =   -8.42 kcal/mol
DOCKED: USER        vdW + Hbond + desolv Energy     =   -8.16 kcal/mol
DOCKED: USER        Electrostatic Energy            =   -0.26 kcal/mol
DOCKED: USER    (2) Final Total Internal Energy     =   -0.48 kcal/mol
DOCKED: USER    (3) Torsional Free Energy           =   +2.98 kcal/mol
DOCKED: USER    (4) Unbound System's Energy  [=(2)] =   -0.48 kcal/mol
DOCKED: USER    
DOCKED: USER    
DOCKED: USER    NEWDPF move heme_O2_opt.pdbqt
DOCKED: USER    NEWDPF about 8.287000 34.468000 -0.670000
DOCKED: USER    NEWDPF tran0 17.753960 -1.418587 2.223936
DOCKED: USER    NEWDPF quaternion0 0.750144 -0.496354 0.234907 -0.368422
DOCKED: USER    NEWDPF axisangle0 0.806903 -0.533910 0.252681 -136.763366
DOCKED: USER    NEWDPF quat0 0.806903 -0.533910 0.252681 -136.763366
DOCKED: USER    NEWDPF dihe0 47.51 -16.62 -54.71 -114.57 -91.15 54.46 -45.24 68.17 3.81 -59.05 
DOCKED: USER  keepresnum = 1 
DOCKED: USER  
DOCKED: REMARK  10 active torsions:
DOCKED: REMARK  status: ('A' for Active; 'I' for Inactive)
DOCKED: REMARK    1  A    between atoms: C_6  and  C_10 
DOCKED: REMARK    2  A    between atoms: C_10  and  C_11 
DOCKED: REMARK    3  A    between atoms: C_11  and  C_12 
DOCKED: REMARK    4  A    between atoms: C_12  and  O_14 
DOCKED: REMARK    5  A    between atoms: C_17  and  C_20 
DOCKED: REMARK    6  A    between atoms: C_24  and  C_27 
DOCKED: REMARK    7  A    between atoms: C_31  and  C_34 
DOCKED: REMARK    8  A    between atoms: C_34  and  C_35 
DOCKED: REMARK    9  A    between atoms: C_35  and  C_36 
DOCKED: REMARK   10  A    between atoms: C_36  and  O_38 
DOCKED: USER                              x       y       z     vdW  Elec       q    Type
DOCKED: USER                           _______ _______ _______ _____ _____    ______ ____
DOCKED: ROOT
DOCKED: ATOM      1  C   UNL d   1      16.470   0.137   1.568 -0.09 -0.00    +0.064 A 
DOCKED: ATOM      2  C   UNL d   1      19.390  -2.805  -0.751 -0.22 -0.01    +0.064 A 
DOCKED: ATOM      3  C   UNL d   1      20.744  -4.862   3.375 -0.21 +0.01    +0.064 C 
DOCKED: ATOM      4  C   UNL d   1      17.388  -2.165   5.727 -0.20 -0.00    +0.064 A 
DOCKED: ATOM      5  C   UNL d   1      17.152  -0.496   0.600 -0.15 -0.00    +0.066 A 
DOCKED: ATOM      6  C   UNL d   1      17.062  -0.179  -0.758 -0.21 +0.00    -0.021 A 
DOCKED: ATOM      7  C   UNL d   1      17.874  -1.058  -1.435 -0.24 +0.00    -0.025 A 
DOCKED: ATOM      8  C   UNL d   1      18.475  -1.858  -0.467 -0.19 -0.01    +0.066 A 
DOCKED: ATOM      9  C   UNL d   1      18.018  -1.120  -2.940 -0.17 -0.01    +0.051 C 
DOCKED: ATOM     10  C   UNL d   1      20.071  -3.659   0.223 -0.21 -0.00    +0.066 A 
DOCKED: ATOM     11  C   UNL d   1      21.130  -4.511  -0.109 -0.22 -0.00    -0.021 A 
DOCKED: ATOM     12  C   UNL d   1      21.546  -5.100   1.070 -0.23 +0.00    +0.000 A 
DOCKED: ATOM     13  C   UNL d   1      20.690  -4.571   2.076 -0.22 +0.01    +0.070 A 
DOCKED: ATOM     14  C   UNL d   1      21.738  -4.734  -1.490 -0.21 +0.00    +0.052 C 
DOCKED: ATOM     15  C   UNL d   1      19.874  -4.376   4.419 -0.13 +0.01    +0.066 A 
DOCKED: ATOM     16  C   UNL d   1      19.876  -4.844   5.733 -0.15 -0.00    -0.021 A 
DOCKED: ATOM     17  C   UNL d   1      18.927  -4.090   6.422 -0.14 +0.00    +0.000 A 
DOCKED: ATOM     18  C   UNL d   1      18.411  -3.205   5.465 -0.16 +0.00    +0.070 A 
DOCKED: ATOM     19  C   UNL d   1      20.736  -5.994   6.194 -0.19 +0.02    +0.052 C 
DOCKED: ATOM     20  C   UNL d   1      16.840  -1.329   4.823 -0.21 -0.00    +0.066 A 
DOCKED: ATOM     21  C   UNL d   1      15.893  -0.357   5.133 -0.25 +0.00    -0.025 A 
DOCKED: ATOM     22  C   UNL d   1      15.640   0.327   3.965 -0.22 +0.00    -0.021 A 
DOCKED: ATOM     23  C   UNL d   1      16.432  -0.268   2.978 -0.13 -0.00    +0.066 A 
DOCKED: ATOM     24  C   UNL d   1      15.259  -0.096   6.475 -0.24 +0.01    +0.051 C 
DOCKED: ATOM     25  N   UNL d   1      17.980  -1.554   0.781 -0.09 +0.02    -0.248 N 
DOCKED: ATOM     26  N   UNL d   1      19.793  -3.699   1.551 -0.14 +0.01    -0.248 N 
DOCKED: ATOM     27  N   UNL d   1      18.943  -3.443   4.239 -0.11 -0.01    -0.248 N 
DOCKED: ATOM     28  N   UNL d   1      17.126  -1.303   3.494 -0.13 +0.02    -0.248 N 
DOCKED: ATOM     29 FE   UNL d   1      18.450  -2.493   2.532 -0.04 -0.00    +0.000 Fe
DOCKED: ATOM     30  O   UNL d   1      17.615  -3.370   1.554 -0.48 -0.00    +0.000 OA
DOCKED: ATOM     31  O   UNL d   1      17.310  -3.417   3.098 -0.43 -0.00    +0.000 OA
DOCKED: ENDROOT
DOCKED: BRANCH   6  32
DOCKED: ATOM     32  C   UNL d   1      16.144   0.821  -1.413 +0.17 -0.01    +0.052 C 
DOCKED: BRANCH  32  33
DOCKED: ATOM     33  C   UNL d   1      16.734   2.228  -1.454 -0.12 -0.00    +0.115 C 
DOCKED: BRANCH  33  34
DOCKED: ATOM     34  C   UNL d   1      16.606   2.865  -2.815 +0.04 +0.01    +0.139 C 
DOCKED: ATOM     35  O   UNL d   1      15.948   3.885  -2.945 -0.39 -0.07    -0.650 OA
DOCKED: BRANCH  34  36
DOCKED: ATOM     36  O   UNL d   1      17.182   2.318  -3.905 -0.11 +0.04    -0.776 OA
DOCKED: ATOM     37  H   UNL d   1      17.096   1.380  -4.112 -0.33 -0.05    +0.167 HD
DOCKED: ENDBRANCH  34  36
DOCKED: ENDBRANCH  33  34
DOCKED: ENDBRANCH  32  33
DOCKED: ENDBRANCH   6  32
DOCKED: BRANCH  22  38
DOCKED: ATOM     38  C   UNL d   1      14.644   1.445   3.801 -0.26 +0.00    +0.052 C 
DOCKED: BRANCH  38  39
DOCKED: ATOM     39  C   UNL d   1      14.686   2.438   4.961 -0.11 +0.01    +0.115 C 
DOCKED: BRANCH  39  40
DOCKED: ATOM     40  C   UNL d   1      13.425   2.410   5.788 -0.19 +0.02    +0.139 C 
DOCKED: ATOM     41  O   UNL d   1      13.156   3.354   6.514 +0.04 -0.17    -0.650 OA
DOCKED: BRANCH  40  42
DOCKED: ATOM     42  O   UNL d   1      12.560   1.382   5.704 +0.03 -0.07    -0.776 OA
DOCKED: ATOM     43  H   UNL d   1      12.608   0.739   4.987 -0.25 -0.02    +0.167 HD
DOCKED: ENDBRANCH  40  42
DOCKED: ENDBRANCH  39  40
DOCKED: ENDBRANCH  38  39
DOCKED: ENDBRANCH  22  38
DOCKED: BRANCH  12  44
DOCKED: ATOM     44  C   UNL d   1      22.692  -6.089   1.115 -0.20 +0.00    +0.004 C 
DOCKED: ATOM     45  C   UNL d   1      23.827  -5.997   1.806 -0.14 +0.00    +0.012 C 
DOCKED: ENDBRANCH  12  44
DOCKED: BRANCH  17  46
DOCKED: ATOM     46  C   UNL d   1      18.442  -4.173   7.845 -0.12 -0.00    +0.004 C 
DOCKED: ATOM     47  C   UNL d   1      17.194  -4.380   8.284 -0.21 -0.00    +0.012 C 
DOCKED: ENDBRANCH  17  46
DOCKED: TORSDOF 10
DOCKED: TER
DOCKED: ENDMDL
________________________________________________________________________________


	BEGINNING GENETIC ALGORITHM DOCKING 90 of 100
Run: 90 Seed: 1175870061 1007400263 [ Run 90 of 100 GA/GALS ]
Beginning LAMARCKIAN GENETIC ALGORITHM (LGA), with a maximum of 25000000 energy evaluations.

Final-Value: -8.873


	FINAL GENETIC ALGORITHM DOCKED STATE
	_______________________________________________


Detailed state:  trans 18.838 -3.271 3.665 quatxyzw 0.099301 0.797896 0.090057 -0.587700 center 8.287 34.468 -0.670 ntor 10 50.7541 -34.1401 82.0280 112.4790 60.5783 -142.2315 -135.5562 -41.0487 11.2600 168.9007
State:	 18.838  -3.271   3.665   0.123  0.986  0.111 -108.012     50.75  -34.14   82.03  112.48   60.58 -142.23 -135.56  -41.05   11.26  168.90

DOCKED: MODEL       90
DOCKED: USER    Run = 90
DOCKED: USER    DPF = D:/Protein_go_brrr/autodock/final/mut_D99N/heme_O2/dock.dpf
DOCKED: USER  
DOCKED: USER    Estimated Free Energy of Binding    =   -5.16 kcal/mol  [=(1)+(2)+(3)-(4)]
DOCKED: USER    Estimated Inhibition Constant, Ki   =  165.83 uM (micromolar)  [Temperature = 298.15 K]
DOCKED: USER    
DOCKED: USER    (1) Final Intermolecular Energy     =   -8.14 kcal/mol
DOCKED: USER        vdW + Hbond + desolv Energy     =   -7.75 kcal/mol
DOCKED: USER        Electrostatic Energy            =   -0.39 kcal/mol
DOCKED: USER    (2) Final Total Internal Energy     =   -0.73 kcal/mol
DOCKED: USER    (3) Torsional Free Energy           =   +2.98 kcal/mol
DOCKED: USER    (4) Unbound System's Energy  [=(2)] =   -0.73 kcal/mol
DOCKED: USER    
DOCKED: USER    
DOCKED: USER    NEWDPF move heme_O2_opt.pdbqt
DOCKED: USER    NEWDPF about 8.287000 34.468000 -0.670000
DOCKED: USER    NEWDPF tran0 18.838429 -3.270676 3.664982
DOCKED: USER    NEWDPF quaternion0 0.099301 0.797896 0.090057 -0.587700
DOCKED: USER    NEWDPF axisangle0 0.122733 0.986178 0.111308 -108.012052
DOCKED: USER    NEWDPF quat0 0.122733 0.986178 0.111308 -108.012052
DOCKED: USER    NEWDPF dihe0 50.75 -34.14 82.03 112.48 60.58 -142.23 -135.56 -41.05 11.26 168.90 
DOCKED: USER  keepresnum = 1 
DOCKED: USER  
DOCKED: REMARK  10 active torsions:
DOCKED: REMARK  status: ('A' for Active; 'I' for Inactive)
DOCKED: REMARK    1  A    between atoms: C_6  and  C_10 
DOCKED: REMARK    2  A    between atoms: C_10  and  C_11 
DOCKED: REMARK    3  A    between atoms: C_11  and  C_12 
DOCKED: REMARK    4  A    between atoms: C_12  and  O_14 
DOCKED: REMARK    5  A    between atoms: C_17  and  C_20 
DOCKED: REMARK    6  A    between atoms: C_24  and  C_27 
DOCKED: REMARK    7  A    between atoms: C_31  and  C_34 
DOCKED: REMARK    8  A    between atoms: C_34  and  C_35 
DOCKED: REMARK    9  A    between atoms: C_35  and  C_36 
DOCKED: REMARK   10  A    between atoms: C_36  and  O_38 
DOCKED: USER                              x       y       z     vdW  Elec       q    Type
DOCKED: USER                           _______ _______ _______ _____ _____    ______ ____
DOCKED: ROOT
DOCKED: ATOM      1  C   UNL d   1      18.647  -3.206   5.776 -0.13 +0.00    +0.064 A 
DOCKED: ATOM      2  C   UNL d   1      21.706  -5.425   2.899 -0.04 +0.02    +0.064 A 
DOCKED: ATOM      3  C   UNL d   1      19.472  -3.673  -0.978 -0.33 -0.01    +0.064 C 
DOCKED: ATOM      4  C   UNL d   1      16.610  -1.001   1.978 -0.11 -0.00    +0.064 A 
DOCKED: ATOM      5  C   UNL d   1      19.662  -3.951   5.310 -0.13 +0.01    +0.066 A 
DOCKED: ATOM      6  C   UNL d   1      20.550  -4.661   6.124 -0.11 -0.00    -0.021 A 
DOCKED: ATOM      7  C   UNL d   1      21.463  -5.269   5.294 -0.17 -0.01    -0.025 A 
DOCKED: ATOM      8  C   UNL d   1      21.078  -4.952   3.993 -0.17 +0.02    +0.066 A 
DOCKED: ATOM      9  C   UNL d   1      22.651  -6.081   5.760 +0.04 +0.03    +0.051 C 
DOCKED: ATOM     10  C   UNL d   1      21.335  -5.146   1.511 -0.20 +0.01    +0.066 A 
DOCKED: ATOM     11  C   UNL d   1      21.919  -5.792   0.415 -0.23 -0.00    -0.021 A 
DOCKED: ATOM     12  C   UNL d   1      21.275  -5.313  -0.712 -0.29 +0.00    +0.000 A 
DOCKED: ATOM     13  C   UNL d   1      20.323  -4.373  -0.229 -0.27 -0.00    +0.070 A 
DOCKED: ATOM     14  C   UNL d   1      23.024  -6.841   0.443 -0.20 +0.01    +0.052 C 
DOCKED: ATOM     15  C   UNL d   1      18.518  -2.687  -0.532 -0.25 -0.01    +0.066 A 
DOCKED: ATOM     16  C   UNL d   1      17.770  -1.869  -1.379 -0.33 +0.01    -0.021 A 
DOCKED: ATOM     17  C   UNL d   1      16.948  -1.098  -0.558 -0.30 -0.00    +0.000 A 
DOCKED: ATOM     18  C   UNL d   1      17.257  -1.510   0.745 -0.22 -0.01    +0.070 A 
DOCKED: ATOM     19  C   UNL d   1      17.946  -1.858  -2.877 -0.43 -0.01    +0.052 C 
DOCKED: ATOM     20  C   UNL d   1      16.913  -1.343   3.245 -0.20 -0.00    +0.066 A 
DOCKED: ATOM     21  C   UNL d   1      16.256  -0.843   4.366 -0.23 +0.00    -0.025 A 
DOCKED: ATOM     22  C   UNL d   1      16.805  -1.481   5.456 -0.24 +0.00    -0.021 A 
DOCKED: ATOM     23  C   UNL d   1      17.793  -2.336   4.959 -0.18 -0.00    +0.066 A 
DOCKED: ATOM     24  C   UNL d   1      15.162   0.193   4.396 -0.30 -0.00    +0.051 C 
DOCKED: ATOM     25  N   UNL d   1      20.008  -4.088   4.007 -0.13 -0.03    -0.248 N 
DOCKED: ATOM     26  N   UNL d   1      20.370  -4.275   1.124 -0.16 +0.01    -0.248 N 
DOCKED: ATOM     27  N   UNL d   1      18.265  -2.420   0.746 -0.14 +0.03    -0.248 N 
DOCKED: ATOM     28  N   UNL d   1      17.886  -2.216   3.619 -0.13 +0.02    -0.248 N 
DOCKED: ATOM     29 FE   UNL d   1      19.118  -3.236   2.378 -0.05 -0.00    +0.000 Fe
DOCKED: ATOM     30  O   UNL d   1      20.554  -2.705   2.658 -0.10 +0.00    +0.000 OA
DOCKED: ATOM     31  O   UNL d   1      19.428  -1.705   2.197 -0.10 -0.00    +0.000 OA
DOCKED: ENDROOT
DOCKED: BRANCH   6  32
DOCKED: ATOM     32  C   UNL d   1      20.625  -4.660   7.629 -0.05 +0.01    +0.052 C 
DOCKED: BRANCH  32  33
DOCKED: ATOM     33  C   UNL d   1      19.856  -5.815   8.261 -0.05 +0.01    +0.115 C 
DOCKED: BRANCH  33  34
DOCKED: ATOM     34  C   UNL d   1      20.060  -7.115   7.523 -0.11 +0.03    +0.139 C 
DOCKED: ATOM     35  O   UNL d   1      19.302  -7.419   6.616 -0.10 -0.16    -0.650 OA
DOCKED: BRANCH  34  36
DOCKED: ATOM     36  O   UNL d   1      21.049  -7.968   7.861 +0.02 -0.26    -0.776 OA
DOCKED: ATOM     37  H   UNL d   1      21.181  -8.263   8.769 +0.02 +0.04    +0.167 HD
DOCKED: ENDBRANCH  34  36
DOCKED: ENDBRANCH  33  34
DOCKED: ENDBRANCH  32  33
DOCKED: ENDBRANCH   6  32
DOCKED: BRANCH  22  38
DOCKED: ATOM     38  C   UNL d   1      16.440  -1.230   6.896 -0.20 +0.00    +0.052 C 
DOCKED: BRANCH  38  39
DOCKED: ATOM     39  C   UNL d   1      17.281  -0.121   7.525 -0.09 +0.00    +0.115 C 
DOCKED: BRANCH  39  40
DOCKED: ATOM     40  C   UNL d   1      16.460   0.809   8.383 -0.09 +0.01    +0.139 C 
DOCKED: ATOM     41  O   UNL d   1      15.268   0.595   8.541 -0.22 -0.10    -0.650 OA
DOCKED: BRANCH  40  42
DOCKED: ATOM     42  O   UNL d   1      17.029   1.848   9.025 +0.04 -0.04    -0.776 OA
DOCKED: ATOM     43  H   UNL d   1      17.939   1.809   9.341 +0.01 +0.00    +0.167 HD
DOCKED: ENDBRANCH  40  42
DOCKED: ENDBRANCH  39  40
DOCKED: ENDBRANCH  38  39
DOCKED: ENDBRANCH  22  38
DOCKED: BRANCH  12  44
DOCKED: ATOM     44  C   UNL d   1      21.631  -5.791  -2.104 -0.31 +0.00    +0.004 C 
DOCKED: ATOM     45  C   UNL d   1      22.363  -5.162  -3.023 -0.19 +0.00    +0.012 C 
DOCKED: ENDBRANCH  12  44
DOCKED: BRANCH  17  46
DOCKED: ATOM     46  C   UNL d   1      15.970  -0.002  -0.889 -0.30 -0.00    +0.004 C 
DOCKED: ATOM     47  C   UNL d   1      14.632  -0.057  -0.886 -0.33 -0.00    +0.012 C 
DOCKED: ENDBRANCH  17  46
DOCKED: TORSDOF 10
DOCKED: TER
DOCKED: ENDMDL
________________________________________________________________________________


	BEGINNING GENETIC ALGORITHM DOCKING 91 of 100
Run: 91 Seed: 266772941 1336976472 [ Run 91 of 100 GA/GALS ]
Beginning LAMARCKIAN GENETIC ALGORITHM (LGA), with a maximum of 25000000 energy evaluations.

Final-Value: -12.979


	FINAL GENETIC ALGORITHM DOCKED STATE
	_______________________________________________


Detailed state:  trans -11.997 -0.748 1.010 quatxyzw 0.549301 0.225651 0.486964 -0.640481 center 8.287 34.468 -0.670 ntor 10 -177.7184 59.4868 -62.8699 35.8740 168.0902 -64.0288 -98.5057 140.3358 -171.9578 -166.7376
State:	-11.997  -0.748   1.010   0.715  0.294  0.634 -100.345   -177.72   59.49  -62.87   35.87  168.09  -64.03  -98.51  140.34 -171.96 -166.74

DOCKED: MODEL       91
DOCKED: USER    Run = 91
DOCKED: USER    DPF = D:/Protein_go_brrr/autodock/final/mut_D99N/heme_O2/dock.dpf
DOCKED: USER  
DOCKED: USER    Estimated Free Energy of Binding    =   -7.93 kcal/mol  [=(1)+(2)+(3)-(4)]
DOCKED: USER    Estimated Inhibition Constant, Ki   =    1.53 uM (micromolar)  [Temperature = 298.15 K]
DOCKED: USER    
DOCKED: USER    (1) Final Intermolecular Energy     =  -10.92 kcal/mol
DOCKED: USER        vdW + Hbond + desolv Energy     =   -8.23 kcal/mol
DOCKED: USER        Electrostatic Energy            =   -2.69 kcal/mol
DOCKED: USER    (2) Final Total Internal Energy     =   -2.06 kcal/mol
DOCKED: USER    (3) Torsional Free Energy           =   +2.98 kcal/mol
DOCKED: USER    (4) Unbound System's Energy  [=(2)] =   -2.06 kcal/mol
DOCKED: USER    
DOCKED: USER    
DOCKED: USER    NEWDPF move heme_O2_opt.pdbqt
DOCKED: USER    NEWDPF about 8.287000 34.468000 -0.670000
DOCKED: USER    NEWDPF tran0 -11.997144 -0.747862 1.010086
DOCKED: USER    NEWDPF quaternion0 0.549301 0.225651 0.486964 -0.640481
DOCKED: USER    NEWDPF axisangle0 0.715260 0.293826 0.634089 -100.344658
DOCKED: USER    NEWDPF quat0 0.715260 0.293826 0.634089 -100.344658
DOCKED: USER    NEWDPF dihe0 -177.72 59.49 -62.87 35.87 168.09 -64.03 -98.51 140.34 -171.96 -166.74 
DOCKED: USER  keepresnum = 1 
DOCKED: USER  
DOCKED: REMARK  10 active torsions:
DOCKED: REMARK  status: ('A' for Active; 'I' for Inactive)
DOCKED: REMARK    1  A    between atoms: C_6  and  C_10 
DOCKED: REMARK    2  A    between atoms: C_10  and  C_11 
DOCKED: REMARK    3  A    between atoms: C_11  and  C_12 
DOCKED: REMARK    4  A    between atoms: C_12  and  O_14 
DOCKED: REMARK    5  A    between atoms: C_17  and  C_20 
DOCKED: REMARK    6  A    between atoms: C_24  and  C_27 
DOCKED: REMARK    7  A    between atoms: C_31  and  C_34 
DOCKED: REMARK    8  A    between atoms: C_34  and  C_35 
DOCKED: REMARK    9  A    between atoms: C_35  and  C_36 
DOCKED: REMARK   10  A    between atoms: C_36  and  O_38 
DOCKED: USER                              x       y       z     vdW  Elec       q    Type
DOCKED: USER                           _______ _______ _______ _____ _____    ______ ____
DOCKED: ROOT
DOCKED: ATOM      1  C   UNL d   1     -13.675  -2.038   0.870 +0.13 +0.08    +0.064 A 
DOCKED: ATOM      2  C   UNL d   1      -9.098  -2.595  -0.266 -0.14 +0.01    +0.064 A 
DOCKED: ATOM      3  C   UNL d   1      -8.110   1.899   1.121 +0.10 +0.02    +0.064 C 
DOCKED: ATOM      4  C   UNL d   1     -12.722   2.325   2.740 -0.22 +0.02    +0.064 A 
DOCKED: ATOM      5  C   UNL d   1     -12.510  -2.557   0.450 -0.11 +0.06    +0.066 A 
DOCKED: ATOM      6  C   UNL d   1     -12.369  -3.849  -0.063 -0.15 -0.01    -0.021 A 
DOCKED: ATOM      7  C   UNL d   1     -11.036  -4.027  -0.352 -0.26 -0.01    -0.025 A 
DOCKED: ATOM      8  C   UNL d   1     -10.408  -2.821  -0.053 -0.17 +0.03    +0.066 A 
DOCKED: ATOM      9  C   UNL d   1     -10.425  -5.314  -0.860 -0.25 +0.00    +0.051 C 
DOCKED: ATOM     10  C   UNL d   1      -8.388  -1.344   0.006 -0.33 +0.01    +0.066 A 
DOCKED: ATOM     11  C   UNL d   1      -7.065  -1.110  -0.386 -0.42 -0.00    -0.021 A 
DOCKED: ATOM     12  C   UNL d   1      -6.768   0.187  -0.011 -0.33 +0.00    +0.000 A 
DOCKED: ATOM     13  C   UNL d   1      -7.948   0.677   0.613 -0.33 +0.02    +0.070 A 
DOCKED: ATOM     14  C   UNL d   1      -6.133  -2.073  -1.112 -0.34 +0.00    +0.052 C 
DOCKED: ATOM     15  C   UNL d   1      -9.276   2.421   1.792 -0.00 +0.02    +0.066 A 
DOCKED: ATOM     16  C   UNL d   1      -9.327   3.651   2.447 -0.31 -0.01    -0.021 A 
DOCKED: ATOM     17  C   UNL d   1     -10.632   3.794   2.917 -0.28 +0.00    +0.000 A 
DOCKED: ATOM     18  C   UNL d   1     -11.289   2.626   2.507 -0.26 +0.02    +0.070 A 
DOCKED: ATOM     19  C   UNL d   1      -8.124   4.546   2.611 -0.39 +0.01    +0.052 C 
DOCKED: ATOM     20  C   UNL d   1     -13.373   1.196   2.399 -0.18 +0.04    +0.066 A 
DOCKED: ATOM     21  C   UNL d   1     -14.728   0.977   2.629 -0.15 -0.01    -0.025 A 
DOCKED: ATOM     22  C   UNL d   1     -15.023  -0.250   2.078 -0.07 -0.02    -0.021 A 
DOCKED: ATOM     23  C   UNL d   1     -13.828  -0.744   1.546 +0.00 +0.07    +0.066 A 
DOCKED: ATOM     24  C   UNL d   1     -15.692   1.890   3.341 -0.14 +0.02    +0.051 C 
DOCKED: ATOM     25  N   UNL d   1     -11.305  -1.938   0.502 -0.12 -0.17    -0.248 N 
DOCKED: ATOM     26  N   UNL d   1      -8.927  -0.263   0.623 -0.26 -0.07    -0.248 N 
DOCKED: ATOM     27  N   UNL d   1     -10.433   1.771   1.892 -0.20 -0.08    -0.248 N 
DOCKED: ATOM     28  N   UNL d   1     -12.818   0.118   1.783 -0.17 -0.21    -0.248 N 
DOCKED: ATOM     29 FE   UNL d   1     -10.886  -0.068   1.209 -0.07 +0.00    +0.000 Fe
DOCKED: ATOM     30  O   UNL d   1     -10.285  -1.216   2.072 -0.31 +0.00    +0.000 OA
DOCKED: ATOM     31  O   UNL d   1     -10.903   0.050   2.777 -0.31 +0.00    +0.000 OA
DOCKED: ENDROOT
DOCKED: BRANCH   6  32
DOCKED: ATOM     32  C   UNL d   1     -13.418  -4.927  -0.151 -0.12 +0.02    +0.052 C 
DOCKED: BRANCH  32  33
DOCKED: ATOM     33  C   UNL d   1     -13.495  -5.783   1.110 -0.08 +0.06    +0.115 C 
DOCKED: BRANCH  33  34
DOCKED: ATOM     34  C   UNL d   1     -14.261  -5.106   2.219 +0.10 +0.14    +0.139 C 
DOCKED: ATOM     35  O   UNL d   1     -14.989  -4.161   1.960 -0.28 -0.73    -0.650 OA
DOCKED: BRANCH  34  36
DOCKED: ATOM     36  O   UNL d   1     -14.139  -5.503   3.502 -0.00 -0.78    -0.776 OA
DOCKED: ATOM     37  H   UNL d   1     -14.651  -5.101   4.213 +0.00 +0.18    +0.167 HD
DOCKED: ENDBRANCH  34  36
DOCKED: ENDBRANCH  33  34
DOCKED: ENDBRANCH  32  33
DOCKED: ENDBRANCH   6  32
DOCKED: BRANCH  22  38
DOCKED: ATOM     38  C   UNL d   1     -16.367  -0.932   2.122 -0.11 +0.03    +0.052 C 
DOCKED: BRANCH  38  39
DOCKED: ATOM     39  C   UNL d   1     -16.788  -1.297   3.543 -0.05 +0.07    +0.115 C 
DOCKED: BRANCH  39  40
DOCKED: ATOM     40  C   UNL d   1     -15.642  -1.833   4.364 +0.05 +0.17    +0.139 C 
DOCKED: ATOM     41  O   UNL d   1     -14.848  -1.059   4.875 +0.03 -0.89    -0.650 OA
DOCKED: BRANCH  40  42
DOCKED: ATOM     42  O   UNL d   1     -15.505  -3.154   4.589 -0.06 -1.05    -0.776 OA
DOCKED: ATOM     43  H   UNL d   1     -15.366  -3.777   3.866 +0.00 +0.25    +0.167 HD
DOCKED: ENDBRANCH  40  42
DOCKED: ENDBRANCH  39  40
DOCKED: ENDBRANCH  38  39
DOCKED: ENDBRANCH  22  38
DOCKED: BRANCH  12  44
DOCKED: ATOM     44  C   UNL d   1      -5.414   0.811  -0.278 -0.34 +0.00    +0.004 C 
DOCKED: ATOM     45  C   UNL d   1      -5.123   1.815  -1.105 -0.50 +0.00    +0.012 C 
DOCKED: ENDBRANCH  12  44
DOCKED: BRANCH  17  46
DOCKED: ATOM     46  C   UNL d   1     -11.272   4.878   3.743 -0.35 +0.00    +0.004 C 
DOCKED: ATOM     47  C   UNL d   1     -10.951   6.178   3.796 -0.49 -0.00    +0.012 C 
DOCKED: ENDBRANCH  17  46
DOCKED: TORSDOF 10
DOCKED: TER
DOCKED: ENDMDL
________________________________________________________________________________


	BEGINNING GENETIC ALGORITHM DOCKING 92 of 100
Run: 92 Seed: 1672709886 1082591788 [ Run 92 of 100 GA/GALS ]
Beginning LAMARCKIAN GENETIC ALGORITHM (LGA), with a maximum of 25000000 energy evaluations.

Final-Value: -8.927


	FINAL GENETIC ALGORITHM DOCKED STATE
	_______________________________________________


Detailed state:  trans -3.122 -6.243 17.465 quatxyzw -0.208158 -0.951389 -0.211418 -0.082648 center 8.287 34.468 -0.670 ntor 10 -136.8090 -50.7410 -18.8283 -104.5019 77.0735 -10.9536 -117.6345 153.6401 178.6136 -177.0716
State:	 -3.122  -6.243  17.465  -0.209 -0.955 -0.212 -170.518   -136.81  -50.74  -18.83 -104.50   77.07  -10.95 -117.63  153.64  178.61 -177.07

DOCKED: MODEL       92
DOCKED: USER    Run = 92
DOCKED: USER    DPF = D:/Protein_go_brrr/autodock/final/mut_D99N/heme_O2/dock.dpf
DOCKED: USER  
DOCKED: USER    Estimated Free Energy of Binding    =   -4.07 kcal/mol  [=(1)+(2)+(3)-(4)]
DOCKED: USER    Estimated Inhibition Constant, Ki   =    1.04 mM (millimolar)  [Temperature = 298.15 K]
DOCKED: USER    
DOCKED: USER    (1) Final Intermolecular Energy     =   -7.05 kcal/mol
DOCKED: USER        vdW + Hbond + desolv Energy     =   -3.98 kcal/mol
DOCKED: USER        Electrostatic Energy            =   -3.08 kcal/mol
DOCKED: USER    (2) Final Total Internal Energy     =   -1.87 kcal/mol
DOCKED: USER    (3) Torsional Free Energy           =   +2.98 kcal/mol
DOCKED: USER    (4) Unbound System's Energy  [=(2)] =   -1.87 kcal/mol
DOCKED: USER    
DOCKED: USER    
DOCKED: USER    NEWDPF move heme_O2_opt.pdbqt
DOCKED: USER    NEWDPF about 8.287000 34.468000 -0.670000
DOCKED: USER    NEWDPF tran0 -3.121987 -6.243159 17.465055
DOCKED: USER    NEWDPF quaternion0 -0.208158 -0.951389 -0.211418 -0.082648
DOCKED: USER    NEWDPF axisangle0 -0.208873 -0.954656 -0.212144 -170.518370
DOCKED: USER    NEWDPF quat0 -0.208873 -0.954656 -0.212144 -170.518370
DOCKED: USER    NEWDPF dihe0 -136.81 -50.74 -18.83 -104.50 77.07 -10.95 -117.63 153.64 178.61 -177.07 
DOCKED: USER  keepresnum = 1 
DOCKED: USER  
DOCKED: REMARK  10 active torsions:
DOCKED: REMARK  status: ('A' for Active; 'I' for Inactive)
DOCKED: REMARK    1  A    between atoms: C_6  and  C_10 
DOCKED: REMARK    2  A    between atoms: C_10  and  C_11 
DOCKED: REMARK    3  A    between atoms: C_11  and  C_12 
DOCKED: REMARK    4  A    between atoms: C_12  and  O_14 
DOCKED: REMARK    5  A    between atoms: C_17  and  C_20 
DOCKED: REMARK    6  A    between atoms: C_24  and  C_27 
DOCKED: REMARK    7  A    between atoms: C_31  and  C_34 
DOCKED: REMARK    8  A    between atoms: C_34  and  C_35 
DOCKED: REMARK    9  A    between atoms: C_35  and  C_36 
DOCKED: REMARK   10  A    between atoms: C_36  and  O_38 
DOCKED: USER                              x       y       z     vdW  Elec       q    Type
DOCKED: USER                           _______ _______ _______ _____ _____    ______ ____
DOCKED: ROOT
DOCKED: ATOM      1  C   UNL d   1      -1.125  -6.772  17.945 -0.04 +0.02    +0.064 A 
DOCKED: ATOM      2  C   UNL d   1      -3.614  -6.976  13.905 -0.17 +0.00    +0.064 A 
DOCKED: ATOM      3  C   UNL d   1      -7.514  -5.240  16.113 -0.17 +0.01    +0.064 C 
DOCKED: ATOM      4  C   UNL d   1      -4.826  -4.577  20.163 -0.07 +0.01    +0.064 A 
DOCKED: ATOM      5  C   UNL d   1      -1.483  -6.967  16.666 -0.06 +0.02    +0.066 A 
DOCKED: ATOM      6  C   UNL d   1      -0.634  -7.491  15.687 -0.07 -0.00    -0.021 A 
DOCKED: ATOM      7  C   UNL d   1      -1.340  -7.510  14.507 -0.13 -0.00    -0.025 A 
DOCKED: ATOM      8  C   UNL d   1      -2.617  -7.042  14.808 -0.11 +0.01    +0.066 A 
DOCKED: ATOM      9  C   UNL d   1      -0.777  -7.933  13.168 -0.25 -0.00    +0.051 C 
DOCKED: ATOM     10  C   UNL d   1      -4.979  -6.516  14.168 -0.18 +0.01    +0.066 A 
DOCKED: ATOM     11  C   UNL d   1      -6.018  -6.621  13.237 -0.22 -0.00    -0.021 A 
DOCKED: ATOM     12  C   UNL d   1      -7.155  -6.142  13.861 -0.18 +0.00    +0.000 A 
DOCKED: ATOM     13  C   UNL d   1      -6.733  -5.752  15.162 -0.17 +0.01    +0.070 A 
DOCKED: ATOM     14  C   UNL d   1      -5.936  -7.180  11.821 -0.33 +0.01    +0.052 C 
DOCKED: ATOM     15  C   UNL d   1      -7.119  -4.800  17.429 -0.11 +0.01    +0.066 A 
DOCKED: ATOM     16  C   UNL d   1      -7.951  -4.121  18.319 -0.04 -0.00    -0.021 A 
DOCKED: ATOM     17  C   UNL d   1      -7.206  -3.921  19.481 -0.03 +0.00    +0.000 A 
DOCKED: ATOM     18  C   UNL d   1      -5.959  -4.502  19.210 -0.08 +0.01    +0.070 A 
DOCKED: ATOM     19  C   UNL d   1      -9.349  -3.681  17.965 -0.12 +0.01    +0.052 C 
DOCKED: ATOM     20  C   UNL d   1      -3.604  -5.088  19.921 -0.05 +0.02    +0.066 A 
DOCKED: ATOM     21  C   UNL d   1      -2.582  -5.147  20.865 -0.02 -0.01    -0.025 A 
DOCKED: ATOM     22  C   UNL d   1      -1.529  -5.794  20.259 -0.02 -0.01    -0.021 A 
DOCKED: ATOM     23  C   UNL d   1      -1.942  -6.091  18.957 -0.04 +0.02    +0.066 A 
DOCKED: ATOM     24  C   UNL d   1      -2.608  -4.609  22.272 -0.01 +0.01    +0.051 C 
DOCKED: ATOM     25  N   UNL d   1      -2.684  -6.647  16.124 -0.05 -0.06    -0.248 N 
DOCKED: ATOM     26  N   UNL d   1      -5.406  -5.979  15.339 -0.09 -0.04    -0.248 N 
DOCKED: ATOM     27  N   UNL d   1      -5.899  -4.963  17.935 -0.08 -0.05    -0.248 N 
DOCKED: ATOM     28  N   UNL d   1      -3.187  -5.620  18.741 -0.03 -0.08    -0.248 N 
DOCKED: ATOM     29 FE   UNL d   1      -4.291  -5.796  17.054 -0.03 +0.00    +0.000 Fe
DOCKED: ATOM     30  O   UNL d   1      -3.617  -4.875  15.995 -0.30 +0.00    +0.000 OA
DOCKED: ATOM     31  O   UNL d   1      -4.129  -4.261  17.353 -0.30 +0.00    +0.000 OA
DOCKED: ENDROOT
DOCKED: BRANCH   6  32
DOCKED: ATOM     32  C   UNL d   1       0.827  -7.833  15.819 -0.06 +0.00    +0.052 C 
DOCKED: BRANCH  32  33
DOCKED: ATOM     33  C   UNL d   1       1.743  -6.727  15.302 -0.10 +0.02    +0.115 C 
DOCKED: BRANCH  33  34
DOCKED: ATOM     34  C   UNL d   1       1.551  -5.428  16.043 -0.10 +0.10    +0.139 C 
DOCKED: ATOM     35  O   UNL d   1       0.553  -4.756  15.835 -0.11 -0.98    -0.650 OA
DOCKED: BRANCH  34  36
DOCKED: ATOM     36  O   UNL d   1       2.474  -4.972  16.915 -0.08 -0.56    -0.776 OA
DOCKED: ATOM     37  H   UNL d   1       2.229  -4.598  17.769 +0.01 +0.18    +0.167 HD
DOCKED: ENDBRANCH  34  36
DOCKED: ENDBRANCH  33  34
DOCKED: ENDBRANCH  32  33
DOCKED: ENDBRANCH   6  32
DOCKED: BRANCH  22  38
DOCKED: ATOM     38  C   UNL d   1      -0.181  -6.051  20.881 -0.01 +0.01    +0.052 C 
DOCKED: BRANCH  38  39
DOCKED: ATOM     39  C   UNL d   1       0.682  -4.792  20.943 -0.02 +0.04    +0.115 C 
DOCKED: BRANCH  39  40
DOCKED: ATOM     40  C   UNL d   1       0.341  -3.806  19.853 -0.06 +0.13    +0.139 C 
DOCKED: ATOM     41  O   UNL d   1       0.204  -2.625  20.126 -0.04 -0.64    -0.650 OA
DOCKED: BRANCH  40  42
DOCKED: ATOM     42  O   UNL d   1       0.235  -4.198  18.569 +0.53 -1.57    -0.776 OA
DOCKED: ATOM     43  H   UNL d   1       0.909  -4.749  18.151 +0.01 +0.27    +0.167 HD
DOCKED: ENDBRANCH  40  42
DOCKED: ENDBRANCH  39  40
DOCKED: ENDBRANCH  38  39
DOCKED: ENDBRANCH  22  38
DOCKED: BRANCH  12  44
DOCKED: ATOM     44  C   UNL d   1      -8.499  -6.104  13.164 -0.07 +0.00    +0.004 C 
DOCKED: ATOM     45  C   UNL d   1      -9.710  -6.084  13.720 -0.10 +0.00    +0.012 C 
DOCKED: ENDBRANCH  12  44
DOCKED: BRANCH  17  46
DOCKED: ATOM     46  C   UNL d   1      -7.542  -3.200  20.759 -0.10 +0.00    +0.004 C 
DOCKED: ATOM     47  C   UNL d   1      -7.025  -2.056  21.226 -0.12 +0.00    +0.012 C 
DOCKED: ENDBRANCH  17  46
DOCKED: TORSDOF 10
DOCKED: TER
DOCKED: ENDMDL
________________________________________________________________________________


	BEGINNING GENETIC ALGORITHM DOCKING 93 of 100
Run: 93 Seed: 237113038 1911113515 [ Run 93 of 100 GA/GALS ]
Beginning LAMARCKIAN GENETIC ALGORITHM (LGA), with a maximum of 25000000 energy evaluations.

Final-Value: -9.979


	FINAL GENETIC ALGORITHM DOCKED STATE
	_______________________________________________


Detailed state:  trans 2.478 0.307 -20.887 quatxyzw 0.756491 -0.285009 0.329677 -0.487652 center 8.287 34.468 -0.670 ntor 10 170.1794 -63.7068 22.6195 -119.5635 -151.4219 44.3268 -103.8759 111.9366 -166.8486 -146.9269
State:	  2.478   0.307 -20.887   0.867 -0.326  0.378 -121.627    170.18  -63.71   22.62 -119.56 -151.42   44.33 -103.88  111.94 -166.85 -146.93

DOCKED: MODEL       93
DOCKED: USER    Run = 93
DOCKED: USER    DPF = D:/Protein_go_brrr/autodock/final/mut_D99N/heme_O2/dock.dpf
DOCKED: USER  
DOCKED: USER    Estimated Free Energy of Binding    =   -4.84 kcal/mol  [=(1)+(2)+(3)-(4)]
DOCKED: USER    Estimated Inhibition Constant, Ki   =  281.09 uM (micromolar)  [Temperature = 298.15 K]
DOCKED: USER    
DOCKED: USER    (1) Final Intermolecular Energy     =   -7.83 kcal/mol
DOCKED: USER        vdW + Hbond + desolv Energy     =   -4.88 kcal/mol
DOCKED: USER        Electrostatic Energy            =   -2.95 kcal/mol
DOCKED: USER    (2) Final Total Internal Energy     =   -2.15 kcal/mol
DOCKED: USER    (3) Torsional Free Energy           =   +2.98 kcal/mol
DOCKED: USER    (4) Unbound System's Energy  [=(2)] =   -2.15 kcal/mol
DOCKED: USER    
DOCKED: USER    
DOCKED: USER    NEWDPF move heme_O2_opt.pdbqt
DOCKED: USER    NEWDPF about 8.287000 34.468000 -0.670000
DOCKED: USER    NEWDPF tran0 2.477604 0.307435 -20.887194
DOCKED: USER    NEWDPF quaternion0 0.756491 -0.285009 0.329677 -0.487652
DOCKED: USER    NEWDPF axisangle0 0.866504 -0.326456 0.377620 -121.627235
DOCKED: USER    NEWDPF quat0 0.866504 -0.326456 0.377620 -121.627235
DOCKED: USER    NEWDPF dihe0 170.18 -63.71 22.62 -119.56 -151.42 44.33 -103.88 111.94 -166.85 -146.93 
DOCKED: USER  keepresnum = 1 
DOCKED: USER  
DOCKED: REMARK  10 active torsions:
DOCKED: REMARK  status: ('A' for Active; 'I' for Inactive)
DOCKED: REMARK    1  A    between atoms: C_6  and  C_10 
DOCKED: REMARK    2  A    between atoms: C_10  and  C_11 
DOCKED: REMARK    3  A    between atoms: C_11  and  C_12 
DOCKED: REMARK    4  A    between atoms: C_12  and  O_14 
DOCKED: REMARK    5  A    between atoms: C_17  and  C_20 
DOCKED: REMARK    6  A    between atoms: C_24  and  C_27 
DOCKED: REMARK    7  A    between atoms: C_31  and  C_34 
DOCKED: REMARK    8  A    between atoms: C_34  and  C_35 
DOCKED: REMARK    9  A    between atoms: C_35  and  C_36 
DOCKED: REMARK   10  A    between atoms: C_36  and  O_38 
DOCKED: USER                              x       y       z     vdW  Elec       q    Type
DOCKED: USER                           _______ _______ _______ _____ _____    ______ ____
DOCKED: ROOT
DOCKED: ATOM      1  C   UNL d   1       0.688   1.035 -21.763 -0.02 +0.02    +0.064 A 
DOCKED: ATOM      2  C   UNL d   1       4.288  -1.538 -23.488 -0.04 +0.01    +0.064 A 
DOCKED: ATOM      3  C   UNL d   1       6.556  -1.373 -19.254 -0.16 +0.02    +0.064 C 
DOCKED: ATOM      4  C   UNL d   1       2.637   0.867 -17.334 -0.11 +0.02    +0.064 A 
DOCKED: ATOM      5  C   UNL d   1       1.481   0.320 -22.577 -0.02 +0.02    +0.066 A 
DOCKED: ATOM      6  C   UNL d   1       1.193   0.058 -23.920 -0.01 -0.00    -0.021 A 
DOCKED: ATOM      7  C   UNL d   1       2.213  -0.723 -24.408 -0.02 -0.00    -0.025 A 
DOCKED: ATOM      8  C   UNL d   1       3.121  -0.877 -23.364 -0.02 +0.01    +0.066 A 
DOCKED: ATOM      9  C   UNL d   1       2.267  -1.303 -25.805 -0.01 +0.00    +0.051 C 
DOCKED: ATOM     10  C   UNL d   1       5.291  -1.713 -22.436 -0.10 +0.01    +0.066 A 
DOCKED: ATOM     11  C   UNL d   1       6.556  -2.266 -22.663 -0.12 -0.00    -0.021 A 
DOCKED: ATOM     12  C   UNL d   1       7.231  -2.211 -21.458 -0.13 +0.00    +0.000 A 
DOCKED: ATOM     13  C   UNL d   1       6.315  -1.625 -20.541 -0.03 +0.01    +0.070 A 
DOCKED: ATOM     14  C   UNL d   1       7.107  -2.799 -23.980 -0.09 +0.00    +0.052 C 
DOCKED: ATOM     15  C   UNL d   1       5.644  -0.814 -18.285 -0.18 +0.02    +0.066 A 
DOCKED: ATOM     16  C   UNL d   1       5.901  -0.727 -16.917 -0.29 -0.01    -0.021 A 
DOCKED: ATOM     17  C   UNL d   1       4.796  -0.093 -16.349 -0.27 +0.00    +0.000 A 
DOCKED: ATOM     18  C   UNL d   1       3.939   0.165 -17.428 -0.18 +0.02    +0.070 A 
DOCKED: ATOM     19  C   UNL d   1       7.138  -1.301 -16.274 -0.32 +0.02    +0.052 C 
DOCKED: ATOM     20  C   UNL d   1       1.771   1.093 -18.341 -0.09 +0.03    +0.066 A 
DOCKED: ATOM     21  C   UNL d   1       0.566   1.776 -18.196 -0.13 -0.02    -0.025 A 
DOCKED: ATOM     22  C   UNL d   1       0.010   1.857 -19.453 -0.07 -0.02    -0.021 A 
DOCKED: ATOM     23  C   UNL d   1       0.891   1.202 -20.319 -0.06 +0.04    +0.066 A 
DOCKED: ATOM     24  C   UNL d   1      -0.025   2.321 -16.922 -0.19 +0.04    +0.051 C 
DOCKED: ATOM     25  N   UNL d   1       2.638  -0.289 -22.218 -0.01 -0.05    -0.248 N 
DOCKED: ATOM     26  N   UNL d   1       5.135  -1.330 -21.143 -0.08 -0.05    -0.248 N 
DOCKED: ATOM     27  N   UNL d   1       4.436  -0.346 -18.583 -0.12 -0.07    -0.248 N 
DOCKED: ATOM     28  N   UNL d   1       1.937   0.700 -19.632 -0.07 -0.11    -0.248 N 
DOCKED: ATOM     29 FE   UNL d   1       3.526  -0.308 -20.379 -0.02 +0.00    +0.000 Fe
DOCKED: ATOM     30  O   UNL d   1       2.987  -1.696 -20.831 -0.22 +0.00    +0.000 OA
DOCKED: ATOM     31  O   UNL d   1       2.823  -1.246 -19.330 -0.24 +0.00    +0.000 OA
DOCKED: ENDROOT
DOCKED: BRANCH   6  32
DOCKED: ATOM     32  C   UNL d   1      -0.060   0.410 -24.680 -0.01 +0.01    +0.052 C 
DOCKED: BRANCH  32  33
DOCKED: ATOM     33  C   UNL d   1      -1.183  -0.602 -24.473 -0.02 +0.02    +0.115 C 
DOCKED: BRANCH  33  34
DOCKED: ATOM     34  C   UNL d   1      -1.818  -0.485 -23.110 -0.03 +0.05    +0.139 C 
DOCKED: ATOM     35  O   UNL d   1      -2.309   0.577 -22.762 +0.03 -0.28    -0.650 OA
DOCKED: BRANCH  34  36
DOCKED: ATOM     36  O   UNL d   1      -1.831  -1.524 -22.249 -0.01 -0.40    -0.776 OA
DOCKED: ATOM     37  H   UNL d   1      -2.111  -1.424 -21.332 +0.02 +0.14    +0.167 HD
DOCKED: ENDBRANCH  34  36
DOCKED: ENDBRANCH  33  34
DOCKED: ENDBRANCH  32  33
DOCKED: ENDBRANCH   6  32
DOCKED: BRANCH  22  38
DOCKED: ATOM     38  C   UNL d   1      -1.324   2.475 -19.785 -0.05 +0.04    +0.052 C 
DOCKED: BRANCH  38  39
DOCKED: ATOM     39  C   UNL d   1      -2.419   2.054 -18.808 -0.12 +0.14    +0.115 C 
DOCKED: BRANCH  39  40
DOCKED: ATOM     40  C   UNL d   1      -2.789   0.599 -18.948 +0.05 +0.28    +0.139 C 
DOCKED: ATOM     41  O   UNL d   1      -3.758   0.159 -18.351 -0.06 -1.56    -0.650 OA
DOCKED: BRANCH  40  42
DOCKED: ATOM     42  O   UNL d   1      -2.098  -0.219 -19.765 +0.02 -1.56    -0.776 OA
DOCKED: ATOM     43  H   UNL d   1      -2.044  -0.057 -20.715 +0.02 +0.19    +0.167 HD
DOCKED: ENDBRANCH  40  42
DOCKED: ENDBRANCH  39  40
DOCKED: ENDBRANCH  38  39
DOCKED: ENDBRANCH  22  38
DOCKED: BRANCH  12  44
DOCKED: ATOM     44  C   UNL d   1       8.651  -2.715 -21.309 -0.17 +0.00    +0.004 C 
DOCKED: ATOM     45  C   UNL d   1       9.294  -3.031 -20.185 -0.19 +0.00    +0.012 C 
DOCKED: ENDBRANCH  12  44
DOCKED: BRANCH  17  46
DOCKED: ATOM     46  C   UNL d   1       4.470   0.227 -14.914 -0.40 +0.00    +0.004 C 
DOCKED: ATOM     47  C   UNL d   1       3.365  -0.087 -14.226 -0.54 +0.00    +0.012 C 
DOCKED: ENDBRANCH  17  46
DOCKED: TORSDOF 10
DOCKED: TER
DOCKED: ENDMDL
________________________________________________________________________________


	BEGINNING GENETIC ALGORITHM DOCKING 94 of 100
Run: 94 Seed: 555112801 160094116 [ Run 94 of 100 GA/GALS ]
Beginning LAMARCKIAN GENETIC ALGORITHM (LGA), with a maximum of 25000000 energy evaluations.

Final-Value: -9.364


	FINAL GENETIC ALGORITHM DOCKED STATE
	_______________________________________________


Detailed state:  trans 8.485 1.972 -14.694 quatxyzw -0.475831 0.103797 -0.736388 0.469621 center 8.287 34.468 -0.670 ntor 10 34.8647 28.7934 62.5814 -31.7345 109.2564 103.0325 54.7335 -118.7456 -158.5442 113.7424
State:	  8.485   1.972 -14.694  -0.539  0.118 -0.834 123.981     34.86   28.79   62.58  -31.73  109.26  103.03   54.73 -118.75 -158.54  113.74

DOCKED: MODEL       94
DOCKED: USER    Run = 94
DOCKED: USER    DPF = D:/Protein_go_brrr/autodock/final/mut_D99N/heme_O2/dock.dpf
DOCKED: USER  
DOCKED: USER    Estimated Free Energy of Binding    =   -5.78 kcal/mol  [=(1)+(2)+(3)-(4)]
DOCKED: USER    Estimated Inhibition Constant, Ki   =   57.56 uM (micromolar)  [Temperature = 298.15 K]
DOCKED: USER    
DOCKED: USER    (1) Final Intermolecular Energy     =   -8.77 kcal/mol
DOCKED: USER        vdW + Hbond + desolv Energy     =   -7.38 kcal/mol
DOCKED: USER        Electrostatic Energy            =   -1.39 kcal/mol
DOCKED: USER    (2) Final Total Internal Energy     =   -0.60 kcal/mol
DOCKED: USER    (3) Torsional Free Energy           =   +2.98 kcal/mol
DOCKED: USER    (4) Unbound System's Energy  [=(2)] =   -0.60 kcal/mol
DOCKED: USER    
DOCKED: USER    
DOCKED: USER    NEWDPF move heme_O2_opt.pdbqt
DOCKED: USER    NEWDPF about 8.287000 34.468000 -0.670000
DOCKED: USER    NEWDPF tran0 8.485375 1.972080 -14.693881
DOCKED: USER    NEWDPF quaternion0 -0.475831 0.103797 -0.736388 0.469621
DOCKED: USER    NEWDPF axisangle0 -0.538960 0.117568 -0.834086 123.980621
DOCKED: USER    NEWDPF quat0 -0.538960 0.117568 -0.834086 123.980621
DOCKED: USER    NEWDPF dihe0 34.86 28.79 62.58 -31.73 109.26 103.03 54.73 -118.75 -158.54 113.74 
DOCKED: USER  keepresnum = 1 
DOCKED: USER  
DOCKED: REMARK  10 active torsions:
DOCKED: REMARK  status: ('A' for Active; 'I' for Inactive)
DOCKED: REMARK    1  A    between atoms: C_6  and  C_10 
DOCKED: REMARK    2  A    between atoms: C_10  and  C_11 
DOCKED: REMARK    3  A    between atoms: C_11  and  C_12 
DOCKED: REMARK    4  A    between atoms: C_12  and  O_14 
DOCKED: REMARK    5  A    between atoms: C_17  and  C_20 
DOCKED: REMARK    6  A    between atoms: C_24  and  C_27 
DOCKED: REMARK    7  A    between atoms: C_31  and  C_34 
DOCKED: REMARK    8  A    between atoms: C_34  and  C_35 
DOCKED: REMARK    9  A    between atoms: C_35  and  C_36 
DOCKED: REMARK   10  A    between atoms: C_36  and  O_38 
DOCKED: USER                              x       y       z     vdW  Elec       q    Type
DOCKED: USER                           _______ _______ _______ _____ _____    ______ ____
DOCKED: ROOT
DOCKED: ATOM      1  C   UNL d   1       7.725   1.020 -16.430 -0.09 +0.02    +0.064 A 
DOCKED: ATOM      2  C   UNL d   1      11.993   0.958 -14.346 -0.09 +0.01    +0.064 A 
DOCKED: ATOM      3  C   UNL d   1      10.479   4.001 -10.947 -0.13 +0.01    +0.064 C 
DOCKED: ATOM      4  C   UNL d   1       5.950   3.698 -12.809 -0.01 +0.01    +0.064 A 
DOCKED: ATOM      5  C   UNL d   1       9.009   0.753 -16.139 -0.11 +0.02    +0.066 A 
DOCKED: ATOM      6  C   UNL d   1       9.829  -0.079 -16.906 -0.10 -0.01    -0.021 A 
DOCKED: ATOM      7  C   UNL d   1      11.052  -0.132 -16.280 +0.01 -0.01    -0.025 A 
DOCKED: ATOM      8  C   UNL d   1      10.960   0.708 -15.174 -0.10 +0.02    +0.066 A 
DOCKED: ATOM      9  C   UNL d   1      12.219  -0.982 -16.731 -0.03 +0.03    +0.051 C 
DOCKED: ATOM     10  C   UNL d   1      11.963   1.847 -13.183 -0.09 +0.01    +0.066 A 
DOCKED: ATOM     11  C   UNL d   1      13.105   2.199 -12.455 -0.07 -0.00    -0.021 A 
DOCKED: ATOM     12  C   UNL d   1      12.692   3.090 -11.481 -0.08 +0.00    +0.000 A 
DOCKED: ATOM     13  C   UNL d   1      11.288   3.225 -11.668 -0.10 +0.01    +0.070 A 
DOCKED: ATOM     14  C   UNL d   1      14.534   1.726 -12.694 -0.06 +0.00    +0.052 C 
DOCKED: ATOM     15  C   UNL d   1       9.048   4.138 -11.082 -0.13 +0.01    +0.066 A 
DOCKED: ATOM     16  C   UNL d   1       8.235   4.839 -10.192 -0.16 -0.00    -0.021 A 
DOCKED: ATOM     17  C   UNL d   1       6.938   4.766 -10.702 -0.20 +0.00    +0.000 A 
DOCKED: ATOM     18  C   UNL d   1       7.061   4.017 -11.881 -0.14 +0.01    +0.070 A 
DOCKED: ATOM     19  C   UNL d   1       8.752   5.463  -8.920 -0.11 +0.01    +0.052 C 
DOCKED: ATOM     20  C   UNL d   1       6.024   2.947 -13.925 -0.12 +0.01    +0.066 A 
DOCKED: ATOM     21  C   UNL d   1       4.946   2.695 -14.769 -0.12 -0.00    -0.025 A 
DOCKED: ATOM     22  C   UNL d   1       5.440   1.956 -15.821 -0.08 -0.00    -0.021 A 
DOCKED: ATOM     23  C   UNL d   1       6.802   1.768 -15.569 -0.09 +0.01    +0.066 A 
DOCKED: ATOM     24  C   UNL d   1       3.517   3.134 -14.580 -0.19 +0.01    +0.051 C 
DOCKED: ATOM     25  N   UNL d   1       9.682   1.202 -15.051 -0.08 -0.07    -0.248 N 
DOCKED: ATOM     26  N   UNL d   1      10.853   2.462 -12.703 -0.06 -0.04    -0.248 N 
DOCKED: ATOM     27  N   UNL d   1       8.334   3.582 -12.056 -0.10 -0.04    -0.248 N 
DOCKED: ATOM     28  N   UNL d   1       7.144   2.333 -14.393 -0.07 -0.04    -0.248 N 
DOCKED: ATOM     29 FE   UNL d   1       8.983   2.399 -13.552 -0.03 +0.00    +0.000 Fe
DOCKED: ATOM     30  O   UNL d   1       9.306   0.945 -13.097 -0.23 +0.00    +0.000 OA
DOCKED: ATOM     31  O   UNL d   1       8.026   1.673 -12.536 -0.39 +0.00    +0.000 OA
DOCKED: ENDROOT
DOCKED: BRANCH   6  32
DOCKED: ATOM     32  C   UNL d   1       9.441  -0.905 -18.106 -0.14 +0.02    +0.052 C 
DOCKED: BRANCH  32  33
DOCKED: ATOM     33  C   UNL d   1       8.637  -2.147 -17.735 -0.25 +0.07    +0.115 C 
DOCKED: BRANCH  33  34
DOCKED: ATOM     34  C   UNL d   1       9.224  -3.408 -18.320 -0.24 +0.11    +0.139 C 
DOCKED: ATOM     35  O   UNL d   1       9.642  -3.404 -19.467 -0.06 -0.23    -0.650 OA
DOCKED: BRANCH  34  36
DOCKED: ATOM     36  O   UNL d   1       9.274  -4.555 -17.612 -0.65 -1.01    -0.776 OA
DOCKED: ATOM     37  H   UNL d   1       8.579  -4.803 -16.991 -0.35 +0.13    +0.167 HD
DOCKED: ENDBRANCH  34  36
DOCKED: ENDBRANCH  33  34
DOCKED: ENDBRANCH  32  33
DOCKED: ENDBRANCH   6  32
DOCKED: BRANCH  22  38
DOCKED: ATOM     38  C   UNL d   1       4.628   1.409 -16.967 -0.09 +0.01    +0.052 C 
DOCKED: BRANCH  38  39
DOCKED: ATOM     39  C   UNL d   1       5.128   0.044 -17.434 -0.17 +0.03    +0.115 C 
DOCKED: BRANCH  39  40
DOCKED: ATOM     40  C   UNL d   1       5.071  -0.995 -16.343 -0.27 +0.06    +0.139 C 
DOCKED: ATOM     41  O   UNL d   1       6.107  -1.450 -15.884 -0.20 -0.25    -0.650 OA
DOCKED: BRANCH  40  42
DOCKED: ATOM     42  O   UNL d   1       3.895  -1.398 -15.826 -0.43 -0.39    -0.776 OA
DOCKED: ATOM     43  H   UNL d   1       3.091  -1.421 -16.358 -0.41 +0.06    +0.167 HD
DOCKED: ENDBRANCH  40  42
DOCKED: ENDBRANCH  39  40
DOCKED: ENDBRANCH  38  39
DOCKED: ENDBRANCH  22  38
DOCKED: BRANCH  12  44
DOCKED: ATOM     44  C   UNL d   1      13.659   3.705 -10.492 -0.06 +0.00    +0.004 C 
DOCKED: ATOM     45  C   UNL d   1      13.623   3.638  -9.161 -0.10 +0.00    +0.012 C 
DOCKED: ENDBRANCH  12  44
DOCKED: BRANCH  17  46
DOCKED: ATOM     46  C   UNL d   1       5.632   5.277 -10.157 -0.22 +0.00    +0.004 C 
DOCKED: ATOM     47  C   UNL d   1       5.215   5.293  -8.884 -0.39 +0.00    +0.012 C 
DOCKED: ENDBRANCH  17  46
DOCKED: TORSDOF 10
DOCKED: TER
DOCKED: ENDMDL
________________________________________________________________________________


	BEGINNING GENETIC ALGORITHM DOCKING 95 of 100
Run: 95 Seed: 1413484601 1141531509 [ Run 95 of 100 GA/GALS ]
Beginning LAMARCKIAN GENETIC ALGORITHM (LGA), with a maximum of 25000000 energy evaluations.

Final-Value: -10.576


	FINAL GENETIC ALGORITHM DOCKED STATE
	_______________________________________________


Detailed state:  trans 2.593 -0.116 -19.346 quatxyzw -0.797553 0.073939 -0.124194 0.585677 center 8.287 34.468 -0.670 ntor 10 -21.0100 -121.6810 42.9404 -140.2143 154.3370 137.9510 50.0310 -65.8580 -44.2271 -16.4986
State:	  2.593  -0.116 -19.346  -0.984  0.091 -0.153 108.298    -21.01 -121.68   42.94 -140.21  154.34  137.95   50.03  -65.86  -44.23  -16.50

DOCKED: MODEL       95
DOCKED: USER    Run = 95
DOCKED: USER    DPF = D:/Protein_go_brrr/autodock/final/mut_D99N/heme_O2/dock.dpf
DOCKED: USER  
DOCKED: USER    Estimated Free Energy of Binding    =   -5.57 kcal/mol  [=(1)+(2)+(3)-(4)]
DOCKED: USER    Estimated Inhibition Constant, Ki   =   82.91 uM (micromolar)  [Temperature = 298.15 K]
DOCKED: USER    
DOCKED: USER    (1) Final Intermolecular Energy     =   -8.55 kcal/mol
DOCKED: USER        vdW + Hbond + desolv Energy     =   -5.76 kcal/mol
DOCKED: USER        Electrostatic Energy            =   -2.79 kcal/mol
DOCKED: USER    (2) Final Total Internal Energy     =   -2.03 kcal/mol
DOCKED: USER    (3) Torsional Free Energy           =   +2.98 kcal/mol
DOCKED: USER    (4) Unbound System's Energy  [=(2)] =   -2.03 kcal/mol
DOCKED: USER    
DOCKED: USER    
DOCKED: USER    NEWDPF move heme_O2_opt.pdbqt
DOCKED: USER    NEWDPF about 8.287000 34.468000 -0.670000
DOCKED: USER    NEWDPF tran0 2.593401 -0.116261 -19.346216
DOCKED: USER    NEWDPF quaternion0 -0.797553 0.073939 -0.124194 0.585677
DOCKED: USER    NEWDPF axisangle0 -0.983972 0.091222 -0.153223 108.298308
DOCKED: USER    NEWDPF quat0 -0.983972 0.091222 -0.153223 108.298308
DOCKED: USER    NEWDPF dihe0 -21.01 -121.68 42.94 -140.21 154.34 137.95 50.03 -65.86 -44.23 -16.50 
DOCKED: USER  keepresnum = 1 
DOCKED: USER  
DOCKED: REMARK  10 active torsions:
DOCKED: REMARK  status: ('A' for Active; 'I' for Inactive)
DOCKED: REMARK    1  A    between atoms: C_6  and  C_10 
DOCKED: REMARK    2  A    between atoms: C_10  and  C_11 
DOCKED: REMARK    3  A    between atoms: C_11  and  C_12 
DOCKED: REMARK    4  A    between atoms: C_12  and  O_14 
DOCKED: REMARK    5  A    between atoms: C_17  and  C_20 
DOCKED: REMARK    6  A    between atoms: C_24  and  C_27 
DOCKED: REMARK    7  A    between atoms: C_31  and  C_34 
DOCKED: REMARK    8  A    between atoms: C_34  and  C_35 
DOCKED: REMARK    9  A    between atoms: C_35  and  C_36 
DOCKED: REMARK   10  A    between atoms: C_36  and  O_38 
DOCKED: USER                              x       y       z     vdW  Elec       q    Type
DOCKED: USER                           _______ _______ _______ _____ _____    ______ ____
DOCKED: ROOT
DOCKED: ATOM      1  C   UNL d   1       0.554   0.412 -19.101 +0.08 +0.07    +0.064 A 
DOCKED: ATOM      2  C   UNL d   1       2.811  -2.261 -22.313 -0.11 +0.01    +0.064 A 
DOCKED: ATOM      3  C   UNL d   1       7.039  -1.395 -20.198 -0.16 +0.01    +0.064 C 
DOCKED: ATOM      4  C   UNL d   1       4.668   0.966 -16.610 -0.11 +0.02    +0.064 A 
DOCKED: ATOM      5  C   UNL d   1       0.823  -0.387 -20.146 -0.13 +0.05    +0.066 A 
DOCKED: ATOM      6  C   UNL d   1      -0.142  -0.854 -21.043 -0.15 -0.02    -0.021 A 
DOCKED: ATOM      7  C   UNL d   1       0.504  -1.663 -21.948 -0.14 -0.01    -0.025 A 
DOCKED: ATOM      8  C   UNL d   1       1.853  -1.629 -21.608 -0.14 +0.02    +0.066 A 
DOCKED: ATOM      9  C   UNL d   1      -0.176  -2.439 -23.055 -0.12 +0.01    +0.051 C 
DOCKED: ATOM     10  C   UNL d   1       4.245  -2.243 -22.019 -0.12 +0.01    +0.066 A 
DOCKED: ATOM     11  C   UNL d   1       5.213  -2.779 -22.875 -0.12 -0.00    -0.021 A 
DOCKED: ATOM     12  C   UNL d   1       6.440  -2.524 -22.291 -0.13 +0.00    +0.000 A 
DOCKED: ATOM     13  C   UNL d   1       6.144  -1.842 -21.079 -0.09 +0.01    +0.070 A 
DOCKED: ATOM     14  C   UNL d   1       4.979  -3.482 -24.208 -0.09 +0.00    +0.052 C 
DOCKED: ATOM     15  C   UNL d   1       6.779  -0.732 -18.943 -0.13 +0.02    +0.066 A 
DOCKED: ATOM     16  C   UNL d   1       7.751  -0.436 -17.989 -0.15 -0.01    -0.021 A 
DOCKED: ATOM     17  C   UNL d   1       7.098   0.237 -16.956 -0.15 +0.00    +0.000 A 
DOCKED: ATOM     18  C   UNL d   1       5.759   0.303 -17.364 -0.12 +0.02    +0.070 A 
DOCKED: ATOM     19  C   UNL d   1       9.191  -0.865 -18.121 -0.14 +0.02    +0.052 C 
DOCKED: ATOM     20  C   UNL d   1       3.366   1.010 -16.952 -0.13 +0.02    +0.066 A 
DOCKED: ATOM     21  C   UNL d   1       2.387   1.665 -16.210 -0.18 -0.01    -0.025 A 
DOCKED: ATOM     22  C   UNL d   1       1.213   1.541 -16.918 -0.19 -0.01    -0.021 A 
DOCKED: ATOM     23  C   UNL d   1       1.517   0.796 -18.062 +0.05 +0.04    +0.066 A 
DOCKED: ATOM     24  C   UNL d   1       2.562   2.371 -14.890 -0.18 +0.02    +0.051 C 
DOCKED: ATOM     25  N   UNL d   1       2.040  -0.896 -20.459 -0.12 -0.10    -0.248 N 
DOCKED: ATOM     26  N   UNL d   1       4.806  -1.680 -20.919 -0.09 -0.05    -0.248 N 
DOCKED: ATOM     27  N   UNL d   1       5.570  -0.355 -18.536 -0.09 -0.06    -0.248 N 
DOCKED: ATOM     28  N   UNL d   1       2.817   0.438 -18.056 -0.05 -0.08    -0.248 N 
DOCKED: ATOM     29 FE   UNL d   1       3.806  -0.613 -19.475 -0.04 +0.00    +0.000 Fe
DOCKED: ATOM     30  O   UNL d   1       3.267  -2.071 -19.392 -0.39 +0.00    +0.000 OA
DOCKED: ATOM     31  O   UNL d   1       3.931  -1.410 -18.125 -0.62 +0.00    +0.000 OA
DOCKED: ENDROOT
DOCKED: BRANCH   6  32
DOCKED: ATOM     32  C   UNL d   1      -1.635  -0.661 -20.975 -0.16 +0.05    +0.052 C 
DOCKED: BRANCH  32  33
DOCKED: ATOM     33  C   UNL d   1      -2.032   0.737 -20.512 -0.10 +0.12    +0.115 C 
DOCKED: BRANCH  33  34
DOCKED: ATOM     34  C   UNL d   1      -3.083   0.708 -19.431 -0.12 +0.23    +0.139 C 
DOCKED: ATOM     35  O   UNL d   1      -3.465  -0.363 -18.989 -0.35 -1.53    -0.650 OA
DOCKED: BRANCH  34  36
DOCKED: ATOM     36  O   UNL d   1      -3.635   1.844 -18.956 +0.04 -1.31    -0.776 OA
DOCKED: ATOM     37  H   UNL d   1      -3.204   2.701 -19.053 +0.03 +0.20    +0.167 HD
DOCKED: ENDBRANCH  34  36
DOCKED: ENDBRANCH  33  34
DOCKED: ENDBRANCH  32  33
DOCKED: ENDBRANCH   6  32
DOCKED: BRANCH  22  38
DOCKED: ATOM     38  C   UNL d   1      -0.135   2.056 -16.483 -0.21 +0.05    +0.052 C 
DOCKED: BRANCH  38  39
DOCKED: ATOM     39  C   UNL d   1      -0.352   3.518 -16.868 -0.08 +0.06    +0.115 C 
DOCKED: BRANCH  39  40
DOCKED: ATOM     40  C   UNL d   1      -1.432   3.685 -17.907 -0.06 +0.09    +0.139 C 
DOCKED: ATOM     41  O   UNL d   1      -1.192   3.433 -19.077 +0.04 -0.38    -0.650 OA
DOCKED: BRANCH  40  42
DOCKED: ATOM     42  O   UNL d   1      -2.678   4.062 -17.561 +0.07 -0.55    -0.776 OA
DOCKED: ATOM     43  H   UNL d   1      -3.442   3.498 -17.731 +0.04 +0.19    +0.167 HD
DOCKED: ENDBRANCH  40  42
DOCKED: ENDBRANCH  39  40
DOCKED: ENDBRANCH  38  39
DOCKED: ENDBRANCH  22  38
DOCKED: BRANCH  12  44
DOCKED: ATOM     44  C   UNL d   1       7.742  -2.951 -22.936 -0.14 +0.00    +0.004 C 
DOCKED: ATOM     45  C   UNL d   1       8.832  -3.431 -22.339 -0.14 +0.00    +0.012 C 
DOCKED: ENDBRANCH  12  44
DOCKED: BRANCH  17  46
DOCKED: ATOM     46  C   UNL d   1       7.607   0.753 -15.636 -0.19 +0.00    +0.004 C 
DOCKED: ATOM     47  C   UNL d   1       6.952   0.833 -14.471 -0.21 +0.00    +0.012 C 
DOCKED: ENDBRANCH  17  46
DOCKED: TORSDOF 10
DOCKED: TER
DOCKED: ENDMDL
________________________________________________________________________________


	BEGINNING GENETIC ALGORITHM DOCKING 96 of 100
Run: 96 Seed: 2091196996 47649425 [ Run 96 of 100 GA/GALS ]
Beginning LAMARCKIAN GENETIC ALGORITHM (LGA), with a maximum of 25000000 energy evaluations.

Final-Value: -10.409


	FINAL GENETIC ALGORITHM DOCKED STATE
	_______________________________________________


Detailed state:  trans 0.257 2.426 -18.935 quatxyzw -0.625351 0.166804 -0.268013 0.713640 center 8.287 34.468 -0.670 ntor 10 9.5849 95.4187 33.2740 -90.1820 71.8248 -18.0397 162.5269 136.0681 -163.0606 -179.9840
State:	  0.257   2.426 -18.935  -0.893  0.238 -0.383 88.936      9.58   95.42   33.27  -90.18   71.82  -18.04  162.53  136.07 -163.06 -179.98

DOCKED: MODEL       96
DOCKED: USER    Run = 96
DOCKED: USER    DPF = D:/Protein_go_brrr/autodock/final/mut_D99N/heme_O2/dock.dpf
DOCKED: USER  
DOCKED: USER    Estimated Free Energy of Binding    =   -5.58 kcal/mol  [=(1)+(2)+(3)-(4)]
DOCKED: USER    Estimated Inhibition Constant, Ki   =   81.27 uM (micromolar)  [Temperature = 298.15 K]
DOCKED: USER    
DOCKED: USER    (1) Final Intermolecular Energy     =   -8.56 kcal/mol
DOCKED: USER        vdW + Hbond + desolv Energy     =   -4.50 kcal/mol
DOCKED: USER        Electrostatic Energy            =   -4.06 kcal/mol
DOCKED: USER    (2) Final Total Internal Energy     =   -1.85 kcal/mol
DOCKED: USER    (3) Torsional Free Energy           =   +2.98 kcal/mol
DOCKED: USER    (4) Unbound System's Energy  [=(2)] =   -1.85 kcal/mol
DOCKED: USER    
DOCKED: USER    
DOCKED: USER    NEWDPF move heme_O2_opt.pdbqt
DOCKED: USER    NEWDPF about 8.287000 34.468000 -0.670000
DOCKED: USER    NEWDPF tran0 0.257345 2.426406 -18.935298
DOCKED: USER    NEWDPF quaternion0 -0.625351 0.166804 -0.268013 0.713640
DOCKED: USER    NEWDPF axisangle0 -0.892704 0.238118 -0.382595 88.936321
DOCKED: USER    NEWDPF quat0 -0.892704 0.238118 -0.382595 88.936321
DOCKED: USER    NEWDPF dihe0 9.58 95.42 33.27 -90.18 71.82 -18.04 162.53 136.07 -163.06 -179.98 
DOCKED: USER  keepresnum = 1 
DOCKED: USER  
DOCKED: REMARK  10 active torsions:
DOCKED: REMARK  status: ('A' for Active; 'I' for Inactive)
DOCKED: REMARK    1  A    between atoms: C_6  and  C_10 
DOCKED: REMARK    2  A    between atoms: C_10  and  C_11 
DOCKED: REMARK    3  A    between atoms: C_11  and  C_12 
DOCKED: REMARK    4  A    between atoms: C_12  and  O_14 
DOCKED: REMARK    5  A    between atoms: C_17  and  C_20 
DOCKED: REMARK    6  A    between atoms: C_24  and  C_27 
DOCKED: REMARK    7  A    between atoms: C_31  and  C_34 
DOCKED: REMARK    8  A    between atoms: C_34  and  C_35 
DOCKED: REMARK    9  A    between atoms: C_35  and  C_36 
DOCKED: REMARK   10  A    between atoms: C_36  and  O_38 
DOCKED: USER                              x       y       z     vdW  Elec       q    Type
DOCKED: USER                           _______ _______ _______ _____ _____    ______ ____
DOCKED: ROOT
DOCKED: ATOM      1  C   UNL d   1      -1.674   2.931 -19.654 -0.02 +0.04    +0.064 A 
DOCKED: ATOM      2  C   UNL d   1       1.239  -0.707 -20.569 -0.17 +0.04    +0.064 A 
DOCKED: ATOM      3  C   UNL d   1       4.560   1.083 -17.591 -0.10 +0.02    +0.064 C 
DOCKED: ATOM      4  C   UNL d   1       1.380   4.579 -16.277 +0.03 +0.02    +0.064 A 
DOCKED: ATOM      5  C   UNL d   1      -1.153   1.795 -20.144 -0.05 +0.05    +0.066 A 
DOCKED: ATOM      6  C   UNL d   1      -1.799   0.976 -21.074 -0.07 -0.02    -0.021 A 
DOCKED: ATOM      7  C   UNL d   1      -0.975  -0.101 -21.307 -0.11 -0.02    -0.025 A 
DOCKED: ATOM      8  C   UNL d   1       0.173   0.116 -20.550 -0.13 +0.05    +0.066 A 
DOCKED: ATOM      9  C   UNL d   1      -1.317  -1.276 -22.196 -0.13 +0.03    +0.051 C 
DOCKED: ATOM     10  C   UNL d   1       2.479  -0.520 -19.814 -0.16 +0.02    +0.066 A 
DOCKED: ATOM     11  C   UNL d   1       3.617  -1.315 -19.995 -0.22 -0.01    -0.021 A 
DOCKED: ATOM     12  C   UNL d   1       4.592  -0.803 -19.158 -0.20 +0.00    +0.000 A 
DOCKED: ATOM     13  C   UNL d   1       3.976   0.291 -18.490 -0.13 +0.02    +0.070 A 
DOCKED: ATOM     14  C   UNL d   1       3.777  -2.495 -20.947 -0.09 +0.01    +0.052 C 
DOCKED: ATOM     15  C   UNL d   1       3.961   2.178 -16.867 -0.05 +0.02    +0.066 A 
DOCKED: ATOM     16  C   UNL d   1       4.576   2.864 -15.820 -0.07 -0.00    -0.021 A 
DOCKED: ATOM     17  C   UNL d   1       3.688   3.865 -15.429 -0.09 +0.00    +0.000 A 
DOCKED: ATOM     18  C   UNL d   1       2.583   3.714 -16.279 -0.07 +0.02    +0.070 A 
DOCKED: ATOM     19  C   UNL d   1       5.919   2.472 -15.257 -0.10 +0.01    +0.052 C 
DOCKED: ATOM     20  C   UNL d   1       0.285   4.436 -17.049 -0.07 +0.02    +0.066 A 
DOCKED: ATOM     21  C   UNL d   1      -0.811   5.294 -17.015 -0.08 -0.01    -0.025 A 
DOCKED: ATOM     22  C   UNL d   1      -1.679   4.856 -17.989 -0.04 -0.01    -0.021 A 
DOCKED: ATOM     23  C   UNL d   1      -1.087   3.731 -18.572 -0.02 +0.04    +0.066 A 
DOCKED: ATOM     24  C   UNL d   1      -1.021   6.470 -16.096 -0.11 +0.01    +0.051 C 
DOCKED: ATOM     25  N   UNL d   1       0.035   1.250 -19.784 -0.07 -0.21    -0.248 N 
DOCKED: ATOM     26  N   UNL d   1       2.689   0.453 -18.892 -0.08 -0.09    -0.248 N 
DOCKED: ATOM     27  N   UNL d   1       2.735   2.640 -17.094 -0.03 -0.08    -0.248 N 
DOCKED: ATOM     28  N   UNL d   1       0.087   3.453 -17.967 -0.02 -0.12    -0.248 N 
DOCKED: ATOM     29 FE   UNL d   1       1.380   1.965 -18.424 -0.02 +0.00    +0.000 Fe
DOCKED: ATOM     30  O   UNL d   1       0.690   0.640 -17.987 -0.45 +0.00    +0.000 OA
DOCKED: ATOM     31  O   UNL d   1       0.950   1.772 -16.923 -0.23 +0.00    +0.000 OA
DOCKED: ENDROOT
DOCKED: BRANCH   6  32
DOCKED: ATOM     32  C   UNL d   1      -3.195   1.123 -21.621 -0.04 +0.04    +0.052 C 
DOCKED: BRANCH  32  33
DOCKED: ATOM     33  C   UNL d   1      -4.265   0.617 -20.659 -0.10 +0.14    +0.115 C 
DOCKED: BRANCH  33  34
DOCKED: ATOM     34  C   UNL d   1      -3.706  -0.325 -19.621 -0.13 +0.24    +0.139 C 
DOCKED: ATOM     35  O   UNL d   1      -3.487  -1.488 -19.918 -0.30 -1.01    -0.650 OA
DOCKED: BRANCH  34  36
DOCKED: ATOM     36  O   UNL d   1      -3.467   0.083 -18.357 -0.13 -1.98    -0.776 OA
DOCKED: ATOM     37  H   UNL d   1      -3.769   0.938 -18.031 +0.06 +0.36    +0.167 HD
DOCKED: ENDBRANCH  34  36
DOCKED: ENDBRANCH  33  34
DOCKED: ENDBRANCH  32  33
DOCKED: ENDBRANCH   6  32
DOCKED: BRANCH  22  38
DOCKED: ATOM     38  C   UNL d   1      -3.030   5.450 -18.294 -0.04 +0.02    +0.052 C 
DOCKED: BRANCH  38  39
DOCKED: ATOM     39  C   UNL d   1      -4.096   5.018 -17.289 -0.13 +0.08    +0.115 C 
DOCKED: BRANCH  39  40
DOCKED: ATOM     40  C   UNL d   1      -4.043   3.540 -16.992 -0.05 +0.17    +0.139 C 
DOCKED: ATOM     41  O   UNL d   1      -3.965   3.156 -15.836 -0.01 -0.65    -0.650 OA
DOCKED: BRANCH  40  42
DOCKED: ATOM     42  O   UNL d   1      -4.132   2.628 -17.980 +0.13 -1.59    -0.776 OA
DOCKED: ATOM     43  H   UNL d   1      -3.347   2.213 -18.356 +0.03 +0.26    +0.167 HD
DOCKED: ENDBRANCH  40  42
DOCKED: ENDBRANCH  39  40
DOCKED: ENDBRANCH  38  39
DOCKED: ENDBRANCH  22  38
DOCKED: BRANCH  12  44
DOCKED: ATOM     44  C   UNL d   1       5.981  -1.401 -19.082 -0.08 +0.00    +0.004 C 
DOCKED: ATOM     45  C   UNL d   1       6.814  -1.407 -18.042 -0.29 +0.00    +0.012 C 
DOCKED: ENDBRANCH  12  44
DOCKED: BRANCH  17  46
DOCKED: ATOM     46  C   UNL d   1       3.768   4.879 -14.319 -0.13 +0.00    +0.004 C 
DOCKED: ATOM     47  C   UNL d   1       3.230   4.812 -13.095 -0.17 +0.00    +0.012 C 
DOCKED: ENDBRANCH  17  46
DOCKED: TORSDOF 10
DOCKED: TER
DOCKED: ENDMDL
________________________________________________________________________________


	BEGINNING GENETIC ALGORITHM DOCKING 97 of 100
Run: 97 Seed: 1861202090 148342032 [ Run 97 of 100 GA/GALS ]
Beginning LAMARCKIAN GENETIC ALGORITHM (LGA), with a maximum of 25000000 energy evaluations.

Final-Value: -8.985


	FINAL GENETIC ALGORITHM DOCKED STATE
	_______________________________________________


Detailed state:  trans 0.623 18.070 8.554 quatxyzw -0.048003 0.697704 0.364252 0.615000 center 8.287 34.468 -0.670 ntor 10 127.8965 -34.2703 12.1578 132.0715 -117.5863 -59.8591 -112.2855 -161.8003 176.2057 157.4212
State:	  0.623  18.070   8.554  -0.061  0.885  0.462 104.096    127.90  -34.27   12.16  132.07 -117.59  -59.86 -112.29 -161.80  176.21  157.42

DOCKED: MODEL       97
DOCKED: USER    Run = 97
DOCKED: USER    DPF = D:/Protein_go_brrr/autodock/final/mut_D99N/heme_O2/dock.dpf
DOCKED: USER  
DOCKED: USER    Estimated Free Energy of Binding    =   -3.57 kcal/mol  [=(1)+(2)+(3)-(4)]
DOCKED: USER    Estimated Inhibition Constant, Ki   =    2.43 mM (millimolar)  [Temperature = 298.15 K]
DOCKED: USER    
DOCKED: USER    (1) Final Intermolecular Energy     =   -6.55 kcal/mol
DOCKED: USER        vdW + Hbond + desolv Energy     =   -6.51 kcal/mol
DOCKED: USER        Electrostatic Energy            =   -0.04 kcal/mol
DOCKED: USER    (2) Final Total Internal Energy     =   -2.43 kcal/mol
DOCKED: USER    (3) Torsional Free Energy           =   +2.98 kcal/mol
DOCKED: USER    (4) Unbound System's Energy  [=(2)] =   -2.43 kcal/mol
DOCKED: USER    
DOCKED: USER    
DOCKED: USER    NEWDPF move heme_O2_opt.pdbqt
DOCKED: USER    NEWDPF about 8.287000 34.468000 -0.670000
DOCKED: USER    NEWDPF tran0 0.622580 18.070352 8.553659
DOCKED: USER    NEWDPF quaternion0 -0.048003 0.697704 0.364252 0.615000
DOCKED: USER    NEWDPF axisangle0 -0.060877 0.884820 0.461940 104.096088
DOCKED: USER    NEWDPF quat0 -0.060877 0.884820 0.461940 104.096088
DOCKED: USER    NEWDPF dihe0 127.90 -34.27 12.16 132.07 -117.59 -59.86 -112.29 -161.80 176.21 157.42 
DOCKED: USER  keepresnum = 1 
DOCKED: USER  
DOCKED: REMARK  10 active torsions:
DOCKED: REMARK  status: ('A' for Active; 'I' for Inactive)
DOCKED: REMARK    1  A    between atoms: C_6  and  C_10 
DOCKED: REMARK    2  A    between atoms: C_10  and  C_11 
DOCKED: REMARK    3  A    between atoms: C_11  and  C_12 
DOCKED: REMARK    4  A    between atoms: C_12  and  O_14 
DOCKED: REMARK    5  A    between atoms: C_17  and  C_20 
DOCKED: REMARK    6  A    between atoms: C_24  and  C_27 
DOCKED: REMARK    7  A    between atoms: C_31  and  C_34 
DOCKED: REMARK    8  A    between atoms: C_34  and  C_35 
DOCKED: REMARK    9  A    between atoms: C_35  and  C_36 
DOCKED: REMARK   10  A    between atoms: C_36  and  O_38 
DOCKED: USER                              x       y       z     vdW  Elec       q    Type
DOCKED: USER                           _______ _______ _______ _____ _____    ______ ____
DOCKED: ROOT
DOCKED: ATOM      1  C   UNL d   1       2.013  19.114   7.338 -0.14 +0.00    +0.064 A 
DOCKED: ATOM      2  C   UNL d   1      -2.617  18.183   6.839 -0.07 +0.01    +0.064 A 
DOCKED: ATOM      3  C   UNL d   1      -2.671  15.756  10.987 -0.24 -0.01    +0.064 C 
DOCKED: ATOM      4  C   UNL d   1       1.982  17.113  11.747 -0.09 -0.00    +0.064 A 
DOCKED: ATOM      5  C   UNL d   1       0.758  19.060   6.865 -0.20 +0.01    +0.066 A 
DOCKED: ATOM      6  C   UNL d   1       0.353  19.629   5.654 -0.18 -0.00    -0.021 A 
DOCKED: ATOM      7  C   UNL d   1      -0.997  19.398   5.529 -0.19 -0.00    -0.025 A 
DOCKED: ATOM      8  C   UNL d   1      -1.370  18.652   6.644 -0.22 +0.01    +0.066 A 
DOCKED: ATOM      9  C   UNL d   1      -1.862  19.908   4.398 -0.14 +0.01    +0.051 C 
DOCKED: ATOM     10  C   UNL d   1      -3.062  17.376   7.977 -0.23 +0.00    +0.066 A 
DOCKED: ATOM     11  C   UNL d   1      -4.326  16.778   8.049 -0.33 -0.00    -0.021 A 
DOCKED: ATOM     12  C   UNL d   1      -4.354  16.059   9.229 -0.36 -0.00    +0.000 A 
DOCKED: ATOM     13  C   UNL d   1      -3.082  16.274   9.830 -0.27 -0.01    +0.070 A 
DOCKED: ATOM     14  C   UNL d   1      -5.448  16.867   7.021 -0.36 +0.01    +0.052 C 
DOCKED: ATOM     15  C   UNL d   1      -1.406  15.977  11.646 -0.22 -0.01    +0.066 A 
DOCKED: ATOM     16  C   UNL d   1      -1.098  15.539  12.933 -0.24 +0.00    -0.021 A 
DOCKED: ATOM     17  C   UNL d   1       0.224  15.915  13.172 -0.19 -0.00    +0.000 A 
DOCKED: ATOM     18  C   UNL d   1       0.629  16.562  11.996 -0.12 -0.00    +0.070 A 
DOCKED: ATOM     19  C   UNL d   1      -2.099  14.857  13.831 -0.31 -0.02    +0.052 C 
DOCKED: ATOM     20  C   UNL d   1       2.390  17.777  10.648 -0.06 +0.00    +0.066 A 
DOCKED: ATOM     21  C   UNL d   1       3.684  18.258  10.463 -0.07 +0.00    -0.025 A 
DOCKED: ATOM     22  C   UNL d   1       3.718  18.807   9.201 -0.08 -0.00    -0.021 A 
DOCKED: ATOM     23  C   UNL d   1       2.435  18.656   8.668 -0.10 +0.00    +0.066 A 
DOCKED: ATOM     24  C   UNL d   1       4.827  18.200  11.443 -0.03 -0.00    +0.051 C 
DOCKED: ATOM     25  N   UNL d   1      -0.302  18.500   7.499 -0.18 -0.02    -0.248 N 
DOCKED: ATOM     26  N   UNL d   1      -2.305  17.080   9.063 -0.19 +0.01    -0.248 N 
DOCKED: ATOM     27  N   UNL d   1      -0.396  16.656  11.110 -0.10 +0.01    -0.248 N 
DOCKED: ATOM     28  N   UNL d   1       1.619  18.070   9.568 -0.04 -0.01    -0.248 N 
DOCKED: ATOM     29 FE   UNL d   1      -0.329  17.578   9.320 -0.05 +0.00    +0.000 Fe
DOCKED: ATOM     30  O   UNL d   1      -1.115  18.920   9.284 -0.12 +0.00    +0.000 OA
DOCKED: ATOM     31  O   UNL d   1      -0.242  18.560  10.545 -0.10 -0.00    +0.000 OA
DOCKED: ENDROOT
DOCKED: BRANCH   6  32
DOCKED: ATOM     32  C   UNL d   1       1.169  20.477   4.714 -0.11 +0.00    +0.052 C 
DOCKED: BRANCH  32  33
DOCKED: ATOM     33  C   UNL d   1       0.894  21.969   4.872 -0.02 +0.00    +0.115 C 
DOCKED: BRANCH  33  34
DOCKED: ATOM     34  C   UNL d   1       1.327  22.495   6.218 -0.01 +0.00    +0.139 C 
DOCKED: ATOM     35  O   UNL d   1       2.452  22.948   6.356 +0.00 -0.01    -0.650 OA
DOCKED: BRANCH  34  36
DOCKED: ATOM     36  O   UNL d   1       0.506  22.450   7.288 +0.01 -0.02    -0.776 OA
DOCKED: ATOM     37  H   UNL d   1       0.783  22.069   8.129 +0.01 +0.00    +0.167 HD
DOCKED: ENDBRANCH  34  36
DOCKED: ENDBRANCH  33  34
DOCKED: ENDBRANCH  32  33
DOCKED: ENDBRANCH   6  32
DOCKED: BRANCH  22  38
DOCKED: ATOM     38  C   UNL d   1       4.904  19.494   8.575 -0.04 -0.00    +0.052 C 
DOCKED: BRANCH  38  39
DOCKED: ATOM     39  C   UNL d   1       4.794  21.016   8.636 -0.01 -0.00    +0.115 C 
DOCKED: BRANCH  39  40
DOCKED: ATOM     40  C   UNL d   1       3.770  21.480   9.642 -0.01 -0.00    +0.139 C 
DOCKED: ATOM     41  O   UNL d   1       4.084  21.597  10.816 +0.00 +0.01    -0.650 OA
DOCKED: BRANCH  40  42
DOCKED: ATOM     42  O   UNL d   1       2.524  21.818   9.260 +0.01 -0.00    -0.776 OA
DOCKED: ATOM     43  H   UNL d   1       2.349  22.206   8.394 +0.00 +0.00    +0.167 HD
DOCKED: ENDBRANCH  40  42
DOCKED: ENDBRANCH  39  40
DOCKED: ENDBRANCH  38  39
DOCKED: ENDBRANCH  22  38
DOCKED: BRANCH  12  44
DOCKED: ATOM     44  C   UNL d   1      -5.568  15.261   9.655 -0.40 -0.00    +0.004 C 
DOCKED: ATOM     45  C   UNL d   1      -5.778  14.648  10.820 -0.35 -0.00    +0.012 C 
DOCKED: ENDBRANCH  12  44
DOCKED: BRANCH  17  46
DOCKED: ATOM     46  C   UNL d   1       1.086  15.772  14.398 -0.18 -0.00    +0.004 C 
DOCKED: ATOM     47  C   UNL d   1       2.291  15.197  14.500 -0.20 -0.00    +0.012 C 
DOCKED: ENDBRANCH  17  46
DOCKED: TORSDOF 10
DOCKED: TER
DOCKED: ENDMDL
________________________________________________________________________________


	BEGINNING GENETIC ALGORITHM DOCKING 98 of 100
Run: 98 Seed: 1836610110 768208228 [ Run 98 of 100 GA/GALS ]
Beginning LAMARCKIAN GENETIC ALGORITHM (LGA), with a maximum of 25000000 energy evaluations.

Final-Value: -9.280


	FINAL GENETIC ALGORITHM DOCKED STATE
	_______________________________________________


Detailed state:  trans 7.173 15.048 4.153 quatxyzw -0.406541 -0.550134 -0.571071 -0.453823 center 8.287 34.468 -0.670 ntor 10 97.0070 179.0899 -91.3213 131.3962 -39.0433 -101.2432 39.9233 -66.9298 21.1476 14.5925
State:	  7.173  15.048   4.153  -0.456 -0.617 -0.641 -126.021     97.01  179.09  -91.32  131.40  -39.04 -101.24   39.92  -66.93   21.15   14.59

DOCKED: MODEL       98
DOCKED: USER    Run = 98
DOCKED: USER    DPF = D:/Protein_go_brrr/autodock/final/mut_D99N/heme_O2/dock.dpf
DOCKED: USER  
DOCKED: USER    Estimated Free Energy of Binding    =   -3.91 kcal/mol  [=(1)+(2)+(3)-(4)]
DOCKED: USER    Estimated Inhibition Constant, Ki   =    1.37 mM (millimolar)  [Temperature = 298.15 K]
DOCKED: USER    
DOCKED: USER    (1) Final Intermolecular Energy     =   -6.89 kcal/mol
DOCKED: USER        vdW + Hbond + desolv Energy     =   -6.51 kcal/mol
DOCKED: USER        Electrostatic Energy            =   -0.38 kcal/mol
DOCKED: USER    (2) Final Total Internal Energy     =   -2.39 kcal/mol
DOCKED: USER    (3) Torsional Free Energy           =   +2.98 kcal/mol
DOCKED: USER    (4) Unbound System's Energy  [=(2)] =   -2.39 kcal/mol
DOCKED: USER    
DOCKED: USER    
DOCKED: USER    NEWDPF move heme_O2_opt.pdbqt
DOCKED: USER    NEWDPF about 8.287000 34.468000 -0.670000
DOCKED: USER    NEWDPF tran0 7.173205 15.047506 4.152523
DOCKED: USER    NEWDPF quaternion0 -0.406541 -0.550134 -0.571071 -0.453823
DOCKED: USER    NEWDPF axisangle0 -0.456228 -0.617370 -0.640867 -126.021496
DOCKED: USER    NEWDPF quat0 -0.456228 -0.617370 -0.640867 -126.021496
DOCKED: USER    NEWDPF dihe0 97.01 179.09 -91.32 131.40 -39.04 -101.24 39.92 -66.93 21.15 14.59 
DOCKED: USER  keepresnum = 1 
DOCKED: USER  
DOCKED: REMARK  10 active torsions:
DOCKED: REMARK  status: ('A' for Active; 'I' for Inactive)
DOCKED: REMARK    1  A    between atoms: C_6  and  C_10 
DOCKED: REMARK    2  A    between atoms: C_10  and  C_11 
DOCKED: REMARK    3  A    between atoms: C_11  and  C_12 
DOCKED: REMARK    4  A    between atoms: C_12  and  O_14 
DOCKED: REMARK    5  A    between atoms: C_17  and  C_20 
DOCKED: REMARK    6  A    between atoms: C_24  and  C_27 
DOCKED: REMARK    7  A    between atoms: C_31  and  C_34 
DOCKED: REMARK    8  A    between atoms: C_34  and  C_35 
DOCKED: REMARK    9  A    between atoms: C_35  and  C_36 
DOCKED: REMARK   10  A    between atoms: C_36  and  O_38 
DOCKED: USER                              x       y       z     vdW  Elec       q    Type
DOCKED: USER                           _______ _______ _______ _____ _____    ______ ____
DOCKED: ROOT
DOCKED: ATOM      1  C   UNL d   1       8.264  14.393   2.455 -0.16 +0.00    +0.064 A 
DOCKED: ATOM      2  C   UNL d   1       5.198  17.960   3.118 -0.11 +0.00    +0.064 A 
DOCKED: ATOM      3  C   UNL d   1       4.569  16.688   7.710 -0.06 +0.00    +0.064 C 
DOCKED: ATOM      4  C   UNL d   1       8.083  13.307   7.170 -0.23 -0.01    +0.064 A 
DOCKED: ATOM      5  C   UNL d   1       7.483  15.468   2.261 -0.15 +0.00    +0.066 A 
DOCKED: ATOM      6  C   UNL d   1       7.358  16.135   1.039 -0.11 -0.00    -0.021 A 
DOCKED: ATOM      7  C   UNL d   1       6.504  17.194   1.241 -0.10 -0.00    -0.025 A 
DOCKED: ATOM      8  C   UNL d   1       6.093  17.116   2.569 -0.14 +0.00    +0.066 A 
DOCKED: ATOM      9  C   UNL d   1       6.146  18.228   0.196 -0.06 +0.00    +0.051 C 
DOCKED: ATOM     10  C   UNL d   1       4.712  17.914   4.498 -0.09 +0.00    +0.066 A 
DOCKED: ATOM     11  C   UNL d   1       3.662  18.710   4.970 -0.16 -0.00    -0.021 A 
DOCKED: ATOM     12  C   UNL d   1       3.454  18.345   6.288 -0.20 +0.00    +0.000 A 
DOCKED: ATOM     13  C   UNL d   1       4.418  17.333   6.553 -0.20 +0.00    +0.070 A 
DOCKED: ATOM     14  C   UNL d   1       2.874  19.755   4.190 -0.14 +0.00    +0.052 C 
DOCKED: ATOM     15  C   UNL d   1       5.554  15.683   8.030 -0.20 -0.01    +0.066 A 
DOCKED: ATOM     16  C   UNL d   1       5.767  15.163   9.306 -0.22 +0.00    -0.021 A 
DOCKED: ATOM     17  C   UNL d   1       6.766  14.198   9.177 -0.25 -0.00    +0.000 A 
DOCKED: ATOM     18  C   UNL d   1       7.090  14.199   7.813 -0.23 -0.01    +0.070 A 
DOCKED: ATOM     19  C   UNL d   1       5.046  15.668  10.531 -0.17 -0.00    +0.052 C 
DOCKED: ATOM     20  C   UNL d   1       8.449  13.312   5.873 -0.19 -0.01    +0.066 A 
DOCKED: ATOM     21  C   UNL d   1       9.378  12.435   5.321 -0.08 +0.00    -0.025 A 
DOCKED: ATOM     22  C   UNL d   1       9.422  12.711   3.973 -0.15 -0.00    -0.021 A 
DOCKED: ATOM     23  C   UNL d   1       8.528  13.764   3.755 -0.19 -0.00    +0.066 A 
DOCKED: ATOM     24  C   UNL d   1      10.185  11.388   6.044 -0.13 +0.00    +0.051 C 
DOCKED: ATOM     25  N   UNL d   1       6.747  16.092   3.214 -0.12 +0.00    -0.248 N 
DOCKED: ATOM     26  N   UNL d   1       5.182  17.080   5.461 -0.14 +0.00    -0.248 N 
DOCKED: ATOM     27  N   UNL d   1       6.398  15.159   7.146 -0.15 +0.04    -0.248 N 
DOCKED: ATOM     28  N   UNL d   1       7.972  14.156   4.920 -0.15 +0.03    -0.248 N 
DOCKED: ATOM     29 FE   UNL d   1       6.587  15.607   5.191 -0.05 -0.00    +0.000 Fe
DOCKED: ATOM     30  O   UNL d   1       7.316  16.958   4.932 -0.10 -0.00    +0.000 OA
DOCKED: ATOM     31  O   UNL d   1       7.845  15.987   6.055 -0.11 -0.00    +0.000 OA
DOCKED: ENDROOT
DOCKED: BRANCH   6  32
DOCKED: ATOM     32  C   UNL d   1       8.117  15.873  -0.236 -0.05 +0.00    +0.052 C 
DOCKED: BRANCH  32  33
DOCKED: ATOM     33  C   UNL d   1       7.276  15.158  -1.289 -0.07 +0.01    +0.115 C 
DOCKED: BRANCH  33  34
DOCKED: ATOM     34  C   UNL d   1       8.074  14.145  -2.072 -0.04 +0.02    +0.139 C 
DOCKED: ATOM     35  O   UNL d   1       7.499  13.370  -2.819 +0.03 -0.14    -0.650 OA
DOCKED: BRANCH  34  36
DOCKED: ATOM     36  O   UNL d   1       9.414  14.056  -1.946 +0.04 -0.08    -0.776 OA
DOCKED: ATOM     37  H   UNL d   1       9.831  13.408  -1.366 +0.02 +0.02    +0.167 HD
DOCKED: ENDBRANCH  34  36
DOCKED: ENDBRANCH  33  34
DOCKED: ENDBRANCH  32  33
DOCKED: ENDBRANCH   6  32
DOCKED: BRANCH  22  38
DOCKED: ATOM     38  C   UNL d   1      10.323  12.042   2.968 -0.12 +0.00    +0.052 C 
DOCKED: BRANCH  38  39
DOCKED: ATOM     39  C   UNL d   1       9.541  11.267   1.910 -0.16 +0.01    +0.115 C 
DOCKED: BRANCH  39  40
DOCKED: ATOM     40  C   UNL d   1       9.649  11.891   0.541 -0.10 +0.02    +0.139 C 
DOCKED: ATOM     41  O   UNL d   1      10.730  12.291   0.142 +0.01 -0.05    -0.650 OA
DOCKED: BRANCH  40  42
DOCKED: ATOM     42  O   UNL d   1       8.580  11.969  -0.274 -0.56 -0.29    -0.776 OA
DOCKED: ATOM     43  H   UNL d   1       8.647  12.342  -1.161 +0.04 +0.04    +0.167 HD
DOCKED: ENDBRANCH  40  42
DOCKED: ENDBRANCH  39  40
DOCKED: ENDBRANCH  38  39
DOCKED: ENDBRANCH  22  38
DOCKED: BRANCH  12  44
DOCKED: ATOM     44  C   UNL d   1       2.381  18.990   7.140 -0.18 +0.00    +0.004 C 
DOCKED: ATOM     45  C   UNL d   1       1.089  18.670   7.210 -0.26 +0.00    +0.012 C 
DOCKED: ENDBRANCH  12  44
DOCKED: BRANCH  17  46
DOCKED: ATOM     46  C   UNL d   1       7.456  13.345  10.208 -0.22 -0.00    +0.004 C 
DOCKED: ATOM     47  C   UNL d   1       7.562  12.011  10.244 -0.28 -0.00    +0.012 C 
DOCKED: ENDBRANCH  17  46
DOCKED: TORSDOF 10
DOCKED: TER
DOCKED: ENDMDL
________________________________________________________________________________


	BEGINNING GENETIC ALGORITHM DOCKING 99 of 100
Run: 99 Seed: 2040063619 1668120753 [ Run 99 of 100 GA/GALS ]
Beginning LAMARCKIAN GENETIC ALGORITHM (LGA), with a maximum of 25000000 energy evaluations.

Final-Value: -9.507


	FINAL GENETIC ALGORITHM DOCKED STATE
	_______________________________________________


Detailed state:  trans 15.721 0.205 1.772 quatxyzw 0.402970 0.260387 0.568515 0.668285 center 8.287 34.468 -0.670 ntor 10 114.1007 -16.7886 81.9132 -114.6993 179.9642 -60.7823 -78.6475 -179.9905 179.9279 162.0021
State:	 15.721   0.205   1.772   0.542  0.350  0.764 96.130    114.10  -16.79   81.91 -114.70  179.96  -60.78  -78.65 -179.99  179.93  162.00

DOCKED: MODEL       99
DOCKED: USER    Run = 99
DOCKED: USER    DPF = D:/Protein_go_brrr/autodock/final/mut_D99N/heme_O2/dock.dpf
DOCKED: USER  
DOCKED: USER    Estimated Free Energy of Binding    =   -4.18 kcal/mol  [=(1)+(2)+(3)-(4)]
DOCKED: USER    Estimated Inhibition Constant, Ki   =  857.86 uM (micromolar)  [Temperature = 298.15 K]
DOCKED: USER    
DOCKED: USER    (1) Final Intermolecular Energy     =   -7.17 kcal/mol
DOCKED: USER        vdW + Hbond + desolv Energy     =   -7.17 kcal/mol
DOCKED: USER        Electrostatic Energy            =   +0.01 kcal/mol
DOCKED: USER    (2) Final Total Internal Energy     =   -2.34 kcal/mol
DOCKED: USER    (3) Torsional Free Energy           =   +2.98 kcal/mol
DOCKED: USER    (4) Unbound System's Energy  [=(2)] =   -2.34 kcal/mol
DOCKED: USER    
DOCKED: USER    
DOCKED: USER    NEWDPF move heme_O2_opt.pdbqt
DOCKED: USER    NEWDPF about 8.287000 34.468000 -0.670000
DOCKED: USER    NEWDPF tran0 15.720743 0.205258 1.772384
DOCKED: USER    NEWDPF quaternion0 0.402970 0.260387 0.568515 0.668285
DOCKED: USER    NEWDPF axisangle0 0.541695 0.350027 0.764230 96.130351
DOCKED: USER    NEWDPF quat0 0.541695 0.350027 0.764230 96.130351
DOCKED: USER    NEWDPF dihe0 114.10 -16.79 81.91 -114.70 179.96 -60.78 -78.65 -179.99 179.93 162.00 
DOCKED: USER  keepresnum = 1 
DOCKED: USER  
DOCKED: REMARK  10 active torsions:
DOCKED: REMARK  status: ('A' for Active; 'I' for Inactive)
DOCKED: REMARK    1  A    between atoms: C_6  and  C_10 
DOCKED: REMARK    2  A    between atoms: C_10  and  C_11 
DOCKED: REMARK    3  A    between atoms: C_11  and  C_12 
DOCKED: REMARK    4  A    between atoms: C_12  and  O_14 
DOCKED: REMARK    5  A    between atoms: C_17  and  C_20 
DOCKED: REMARK    6  A    between atoms: C_24  and  C_27 
DOCKED: REMARK    7  A    between atoms: C_31  and  C_34 
DOCKED: REMARK    8  A    between atoms: C_34  and  C_35 
DOCKED: REMARK    9  A    between atoms: C_35  and  C_36 
DOCKED: REMARK   10  A    between atoms: C_36  and  O_38 
DOCKED: USER                              x       y       z     vdW  Elec       q    Type
DOCKED: USER                           _______ _______ _______ _____ _____    ______ ____
DOCKED: ROOT
DOCKED: ATOM      1  C   UNL d   1      15.809   0.583  -0.313 -0.21 -0.01    +0.064 A 
DOCKED: ATOM      2  C   UNL d   1      13.829   2.953   3.296 -0.15 +0.00    +0.064 A 
DOCKED: ATOM      3  C   UNL d   1      15.287  -0.398   6.417 -0.13 +0.01    +0.064 C 
DOCKED: ATOM      4  C   UNL d   1      17.739  -2.600   2.782 -0.25 -0.01    +0.064 A 
DOCKED: ATOM      5  C   UNL d   1      15.153   1.502   0.414 -0.19 -0.00    +0.066 A 
DOCKED: ATOM      6  C   UNL d   1      14.545   2.639  -0.125 -0.20 -0.00    -0.021 A 
DOCKED: ATOM      7  C   UNL d   1      14.009   3.348   0.924 -0.13 -0.00    -0.025 A 
DOCKED: ATOM      8  C   UNL d   1      14.262   2.600   2.070 -0.17 +0.00    +0.066 A 
DOCKED: ATOM      9  C   UNL d   1      13.320   4.690   0.800 +0.34 -0.00    +0.051 C 
DOCKED: ATOM     10  C   UNL d   1      14.044   2.198   4.531 -0.19 +0.00    +0.066 A 
DOCKED: ATOM     11  C   UNL d   1      13.434   2.523   5.748 -0.19 -0.00    -0.021 A 
DOCKED: ATOM     12  C   UNL d   1      13.828   1.558   6.656 -0.24 +0.00    +0.000 A 
DOCKED: ATOM     13  C   UNL d   1      14.685   0.686   5.929 -0.23 +0.00    +0.070 A 
DOCKED: ATOM     14  C   UNL d   1      12.493   3.690   6.026 -0.19 +0.02    +0.052 C 
DOCKED: ATOM     15  C   UNL d   1      16.189  -1.286   5.724 -0.21 -0.00    +0.066 A 
DOCKED: ATOM     16  C   UNL d   1      16.916  -2.308   6.333 -0.27 +0.00    -0.021 A 
DOCKED: ATOM     17  C   UNL d   1      17.624  -2.949   5.316 -0.24 -0.00    +0.000 A 
DOCKED: ATOM     18  C   UNL d   1      17.269  -2.263   4.147 -0.22 -0.01    +0.070 A 
DOCKED: ATOM     19  C   UNL d   1      16.914  -2.544   7.823 -0.23 -0.00    +0.052 C 
DOCKED: ATOM     20  C   UNL d   1      17.452  -1.936   1.646 -0.23 -0.01    +0.066 A 
DOCKED: ATOM     21  C   UNL d   1      17.910  -2.312   0.386 -0.28 +0.00    -0.025 A 
DOCKED: ATOM     22  C   UNL d   1      17.348  -1.432  -0.512 -0.28 +0.00    -0.021 A 
DOCKED: ATOM     23  C   UNL d   1      16.579  -0.537   0.239 -0.19 -0.01    +0.066 A 
DOCKED: ATOM     24  C   UNL d   1      18.840  -3.451   0.056 -0.33 -0.01    +0.051 C 
DOCKED: ATOM     25  N   UNL d   1      15.023   1.496   1.764 -0.11 -0.00    -0.248 N 
DOCKED: ATOM     26  N   UNL d   1      14.814   1.085   4.638 -0.15 -0.00    -0.248 N 
DOCKED: ATOM     27  N   UNL d   1      16.457  -1.210   4.423 -0.17 +0.02    -0.248 N 
DOCKED: ATOM     28  N   UNL d   1      16.681  -0.820   1.554 -0.10 +0.01    -0.248 N 
DOCKED: ATOM     29 FE   UNL d   1      15.756   0.124   3.087 -0.05 -0.00    +0.000 Fe
DOCKED: ATOM     30  O   UNL d   1      16.423   1.525   3.201 -0.10 +0.00    +0.000 OA
DOCKED: ATOM     31  O   UNL d   1      17.305   0.227   3.336 -0.11 -0.00    +0.000 OA
DOCKED: ENDROOT
DOCKED: BRANCH   6  32
DOCKED: ATOM     32  C   UNL d   1      14.583   3.116  -1.554 -0.07 +0.00    +0.052 C 
DOCKED: BRANCH  32  33
DOCKED: ATOM     33  C   UNL d   1      15.662   4.165  -1.800 -0.07 +0.01    +0.115 C 
DOCKED: BRANCH  33  34
DOCKED: ATOM     34  C   UNL d   1      16.908   3.576  -2.415 -0.07 +0.00    +0.139 C 
DOCKED: ATOM     35  O   UNL d   1      16.821   2.587  -3.124 -0.39 -0.02    -0.650 OA
DOCKED: BRANCH  34  36
DOCKED: ATOM     36  O   UNL d   1      18.127   4.102  -2.175 +0.01 -0.01    -0.776 OA
DOCKED: ATOM     37  H   UNL d   1      18.807   3.617  -1.693 +0.01 +0.00    +0.167 HD
DOCKED: ENDBRANCH  34  36
DOCKED: ENDBRANCH  33  34
DOCKED: ENDBRANCH  32  33
DOCKED: ENDBRANCH   6  32
DOCKED: BRANCH  22  38
DOCKED: ATOM     38  C   UNL d   1      17.593  -1.419  -1.999 -0.25 -0.02    +0.052 C 
DOCKED: BRANCH  38  39
DOCKED: ATOM     39  C   UNL d   1      18.677  -0.421  -2.401 -0.19 -0.02    +0.115 C 
DOCKED: BRANCH  39  40
DOCKED: ATOM     40  C   UNL d   1      19.230   0.336  -1.220 -0.07 -0.01    +0.139 C 
DOCKED: ATOM     41  O   UNL d   1      20.116  -0.160  -0.542 +0.03 +0.01    -0.650 OA
DOCKED: BRANCH  40  42
DOCKED: ATOM     42  O   UNL d   1      18.800   1.579  -0.927 +0.03 +0.03    -0.776 OA
DOCKED: ATOM     43  H   UNL d   1      18.286   2.097  -1.558 +0.02 -0.01    +0.167 HD
DOCKED: ENDBRANCH  40  42
DOCKED: ENDBRANCH  39  40
DOCKED: ENDBRANCH  38  39
DOCKED: ENDBRANCH  22  38
DOCKED: BRANCH  12  44
DOCKED: ATOM     44  C   UNL d   1      13.359   1.570   8.096 -0.26 +0.00    +0.004 C 
DOCKED: ATOM     45  C   UNL d   1      14.035   1.963   9.175 -0.20 +0.00    +0.012 C 
DOCKED: ENDBRANCH  12  44
DOCKED: BRANCH  17  46
DOCKED: ATOM     46  C   UNL d   1      18.617  -4.080   5.364 -0.09 +0.00    +0.004 C 
DOCKED: ATOM     47  C   UNL d   1      19.887  -4.085   4.939 -0.18 +0.00    +0.012 C 
DOCKED: ENDBRANCH  17  46
DOCKED: TORSDOF 10
DOCKED: TER
DOCKED: ENDMDL
________________________________________________________________________________


	BEGINNING GENETIC ALGORITHM DOCKING 100 of 100
Run: 100 Seed: 1804614243 144132868 [ Run 100 of 100 GA/GALS ]
Beginning LAMARCKIAN GENETIC ALGORITHM (LGA), with a maximum of 25000000 energy evaluations.

Final-Value: -9.466


	FINAL GENETIC ALGORITHM DOCKED STATE
	_______________________________________________


Detailed state:  trans 24.729 -4.838 3.897 quatxyzw -0.242309 -0.052239 0.965192 -0.083438 center 8.287 34.468 -0.670 ntor 10 -86.9820 44.5783 50.7366 90.0587 70.2592 -40.3626 -140.3687 116.9559 -173.5920 -153.1931
State:	 24.729  -4.838   3.897  -0.243 -0.052  0.969 -170.428    -86.98   44.58   50.74   90.06   70.26  -40.36 -140.37  116.96 -173.59 -153.19

DOCKED: MODEL      100
DOCKED: USER    Run = 100
DOCKED: USER    DPF = D:/Protein_go_brrr/autodock/final/mut_D99N/heme_O2/dock.dpf
DOCKED: USER  
DOCKED: USER    Estimated Free Energy of Binding    =   -4.97 kcal/mol  [=(1)+(2)+(3)-(4)]
DOCKED: USER    Estimated Inhibition Constant, Ki   =  228.97 uM (micromolar)  [Temperature = 298.15 K]
DOCKED: USER    
DOCKED: USER    (1) Final Intermolecular Energy     =   -7.95 kcal/mol
DOCKED: USER        vdW + Hbond + desolv Energy     =   -4.82 kcal/mol
DOCKED: USER        Electrostatic Energy            =   -3.13 kcal/mol
DOCKED: USER    (2) Final Total Internal Energy     =   -1.52 kcal/mol
DOCKED: USER    (3) Torsional Free Energy           =   +2.98 kcal/mol
DOCKED: USER    (4) Unbound System's Energy  [=(2)] =   -1.52 kcal/mol
DOCKED: USER    
DOCKED: USER    
DOCKED: USER    NEWDPF move heme_O2_opt.pdbqt
DOCKED: USER    NEWDPF about 8.287000 34.468000 -0.670000
DOCKED: USER    NEWDPF tran0 24.728953 -4.837603 3.896829
DOCKED: USER    NEWDPF quaternion0 -0.242309 -0.052239 0.965192 -0.083438
DOCKED: USER    NEWDPF axisangle0 -0.243157 -0.052422 0.968569 -170.427622
DOCKED: USER    NEWDPF quat0 -0.243157 -0.052422 0.968569 -170.427622
DOCKED: USER    NEWDPF dihe0 -86.98 44.58 50.74 90.06 70.26 -40.36 -140.37 116.96 -173.59 -153.19 
DOCKED: USER  keepresnum = 1 
DOCKED: USER  
DOCKED: REMARK  10 active torsions:
DOCKED: REMARK  status: ('A' for Active; 'I' for Inactive)
DOCKED: REMARK    1  A    between atoms: C_6  and  C_10 
DOCKED: REMARK    2  A    between atoms: C_10  and  C_11 
DOCKED: REMARK    3  A    between atoms: C_11  and  C_12 
DOCKED: REMARK    4  A    between atoms: C_12  and  O_14 
DOCKED: REMARK    5  A    between atoms: C_17  and  C_20 
DOCKED: REMARK    6  A    between atoms: C_24  and  C_27 
DOCKED: REMARK    7  A    between atoms: C_31  and  C_34 
DOCKED: REMARK    8  A    between atoms: C_34  and  C_35 
DOCKED: REMARK    9  A    between atoms: C_35  and  C_36 
DOCKED: REMARK   10  A    between atoms: C_36  and  O_38 
DOCKED: USER                              x       y       z     vdW  Elec       q    Type
DOCKED: USER                           _______ _______ _______ _____ _____    ______ ____
DOCKED: ROOT
DOCKED: ATOM      1  C   UNL d   1      26.653  -5.728   3.968 -0.06 +0.03    +0.064 A 
DOCKED: ATOM      2  C   UNL d   1      24.236  -3.059   7.066 -0.00 +0.01    +0.064 A 
DOCKED: ATOM      3  C   UNL d   1      20.551  -2.680   4.005 -0.08 +0.00    +0.064 C 
DOCKED: ATOM      4  C   UNL d   1      22.828  -5.821   1.002 -0.16 +0.02    +0.064 A 
DOCKED: ATOM      5  C   UNL d   1      26.295  -5.035   5.061 -0.04 +0.03    +0.066 A 
DOCKED: ATOM      6  C   UNL d   1      27.108  -4.875   6.188 -0.02 -0.01    -0.021 A 
DOCKED: ATOM      7  C   UNL d   1      26.392  -4.139   7.102 -0.01 -0.01    -0.025 A 
DOCKED: ATOM      8  C   UNL d   1      25.181  -3.828   6.491 -0.01 +0.01    +0.066 A 
DOCKED: ATOM      9  C   UNL d   1      26.866  -3.794   8.498 +0.00 +0.01    +0.051 C 
DOCKED: ATOM     10  C   UNL d   1      22.956  -2.680   6.465 -0.01 +0.01    +0.066 A 
DOCKED: ATOM     11  C   UNL d   1      22.084  -1.747   7.037 -0.00 -0.00    -0.021 A 
DOCKED: ATOM     12  C   UNL d   1      21.024  -1.611   6.160 -0.01 +0.00    +0.000 A 
DOCKED: ATOM     13  C   UNL d   1      21.310  -2.497   5.085 -0.03 +0.01    +0.070 A 
DOCKED: ATOM     14  C   UNL d   1      22.268  -0.997   8.351 +0.00 +0.00    +0.052 C 
DOCKED: ATOM     15  C   UNL d   1      20.787  -3.592   2.912 -0.14 +0.01    +0.066 A 
DOCKED: ATOM     16  C   UNL d   1      19.874  -3.857   1.892 -0.21 +0.00    -0.021 A 
DOCKED: ATOM     17  C   UNL d   1      20.502  -4.751   1.024 -0.29 -0.00    +0.000 A 
DOCKED: ATOM     18  C   UNL d   1      21.768  -4.966   1.586 -0.18 +0.01    +0.070 A 
DOCKED: ATOM     19  C   UNL d   1      18.480  -3.283   1.866 -0.29 -0.01    +0.052 C 
DOCKED: ATOM     20  C   UNL d   1      24.036  -6.082   1.537 -0.12 +0.02    +0.066 A 
DOCKED: ATOM     21  C   UNL d   1      25.001  -6.882   0.931 -0.11 -0.01    -0.025 A 
DOCKED: ATOM     22  C   UNL d   1      26.108  -6.845   1.749 -0.08 -0.01    -0.021 A 
DOCKED: ATOM     23  C   UNL d   1      25.770  -6.035   2.837 -0.08 +0.03    +0.066 A 
DOCKED: ATOM     24  C   UNL d   1      24.872  -7.646  -0.362 -0.09 +0.01    +0.051 C 
DOCKED: ATOM     25  N   UNL d   1      25.096  -4.435   5.259 -0.03 -0.08    -0.248 N 
DOCKED: ATOM     26  N   UNL d   1      22.485  -3.147   5.281 -0.01 -0.04    -0.248 N 
DOCKED: ATOM     27  N   UNL d   1      21.896  -4.314   2.770 -0.09 -0.04    -0.248 N 
DOCKED: ATOM     28  N   UNL d   1      24.494  -5.610   2.727 -0.08 -0.11    -0.248 N 
DOCKED: ATOM     29 FE   UNL d   1      23.495  -4.388   3.993 -0.02 +0.00    +0.000 Fe
DOCKED: ATOM     30  O   UNL d   1      23.246  -5.213   5.289 -0.13 +0.00    +0.000 OA
DOCKED: ATOM     31  O   UNL d   1      22.694  -5.739   3.910 +0.01 +0.00    +0.000 OA
DOCKED: ENDROOT
DOCKED: BRANCH   6  32
DOCKED: ATOM     32  C   UNL d   1      28.451  -5.504   6.453 -0.01 +0.01    +0.052 C 
DOCKED: BRANCH  32  33
DOCKED: ATOM     33  C   UNL d   1      28.345  -6.852   7.160 -0.02 +0.04    +0.115 C 
DOCKED: BRANCH  33  34
DOCKED: ATOM     34  C   UNL d   1      27.166  -7.662   6.680 +0.10 +0.14    +0.139 C 
DOCKED: ATOM     35  O   UNL d   1      26.052  -7.424   7.119 -0.45 -0.72    -0.650 OA
DOCKED: BRANCH  34  36
DOCKED: ATOM     36  O   UNL d   1      27.318  -8.666   5.792 -0.29 -1.21    -0.776 OA
DOCKED: ATOM     37  H   UNL d   1      27.310  -8.513   4.840 -0.00 +0.24    +0.167 HD
DOCKED: ENDBRANCH  34  36
DOCKED: ENDBRANCH  33  34
DOCKED: ENDBRANCH  32  33
DOCKED: ENDBRANCH   6  32
DOCKED: BRANCH  22  38
DOCKED: ATOM     38  C   UNL d   1      27.392  -7.600   1.523 -0.05 +0.02    +0.052 C 
DOCKED: BRANCH  38  39
DOCKED: ATOM     39  C   UNL d   1      27.156  -9.087   1.268 -0.05 +0.05    +0.115 C 
DOCKED: BRANCH  39  40
DOCKED: ATOM     40  C   UNL d   1      26.553  -9.788   2.460 -0.04 +0.15    +0.139 C 
DOCKED: ATOM     41  O   UNL d   1      25.369 -10.084   2.454 -0.34 -0.96    -0.650 OA
DOCKED: BRANCH  40  42
DOCKED: ATOM     42  O   UNL d   1      27.311 -10.142   3.516 -0.29 -0.94    -0.776 OA
DOCKED: ATOM     43  H   UNL d   1      27.933  -9.525   3.919 +0.00 +0.15    +0.167 HD
DOCKED: ENDBRANCH  40  42
DOCKED: ENDBRANCH  39  40
DOCKED: ENDBRANCH  38  39
DOCKED: ENDBRANCH  22  38
DOCKED: BRANCH  12  44
DOCKED: ATOM     44  C   UNL d   1      19.869  -0.671   6.436 -0.02 +0.00    +0.004 C 
DOCKED: ATOM     45  C   UNL d   1      18.565  -0.919   6.319 -0.06 +0.00    +0.012 C 
DOCKED: ENDBRANCH  12  44
DOCKED: BRANCH  17  46
DOCKED: ATOM     46  C   UNL d   1      20.000  -5.440  -0.217 -0.48 -0.00    +0.004 C 
DOCKED: ATOM     47  C   UNL d   1      19.955  -4.964  -1.468 -0.48 -0.00    +0.012 C 
DOCKED: ENDBRANCH  17  46
DOCKED: TORSDOF 10
DOCKED: TER
DOCKED: ENDMDL
________________________________________________________________________________

DPF> analysis                             # perform a ranked cluster analysis


		CLUSTER ANALYSIS OF CONFORMATIONS
		_________________________________

Number of conformations = 100

RMSD cluster analysis will be performed using the ligand atoms only (47 / 47 total atoms).

Outputting structurally similar clusters, ranked in order of increasing energy.


________________________________________________________________________________

Number of distinct conformational clusters found = 56,  out of 100 runs,
Using an rmsd-tolerance of 2.0 A


	CLUSTERING HISTOGRAM
	____________________

________________________________________________________________________________
     |           |     |           |     |                                    
Clus | Lowest    | Run | Mean      | Num | Histogram                          
-ter | Binding   |     | Binding   | in  |                                    
Rank | Energy    |     | Energy    | Clus|    5    10   15   20   25   30   35
_____|___________|_____|___________|_____|____:____|____:____|____:____|____:___
   1 |    -13.58 |  46 |    -13.12 |   6 |######
   2 |     -7.98 |  54 |     -7.07 |   8 |########
   3 |     -7.93 |  91 |     -7.93 |   1 |#
   4 |     -7.29 |  74 |     -5.87 |  12 |############
   5 |     -7.28 |  11 |     -7.28 |   1 |#
   6 |     -6.97 |  75 |     -6.59 |   2 |##
   7 |     -6.76 |   9 |     -6.23 |   6 |######
   8 |     -6.61 |  81 |     -6.35 |   3 |###
   9 |     -6.58 |  69 |     -5.68 |   3 |###
  10 |     -6.51 |  72 |     -6.36 |   2 |##
  11 |     -6.36 |  64 |     -6.36 |   1 |#
  12 |     -6.17 |  12 |     -6.17 |   1 |#
  13 |     -6.09 |  16 |     -5.50 |   4 |####
  14 |     -6.08 |  82 |     -6.08 |   1 |#
  15 |     -6.07 |  18 |     -6.07 |   1 |#
  16 |     -6.05 |  76 |     -6.05 |   1 |#
  17 |     -5.81 |  88 |     -5.41 |   4 |####
  18 |     -5.78 |  94 |     -5.78 |   1 |#
  19 |     -5.62 |  36 |     -5.56 |   2 |##
  20 |     -5.58 |  63 |     -5.58 |   1 |#
  21 |     -5.58 |  53 |     -5.47 |   2 |##
  22 |     -5.58 |  96 |     -5.58 |   1 |#
  23 |     -5.52 |  10 |     -5.52 |   1 |#
  24 |     -5.44 |  17 |     -5.44 |   1 |#
  25 |     -5.44 |  89 |     -5.44 |   1 |#
  26 |     -5.43 |  45 |     -5.43 |   1 |#
  27 |     -5.43 |  30 |     -5.43 |   1 |#
  28 |     -5.35 |  58 |     -5.35 |   1 |#
  29 |     -5.30 |  19 |     -5.30 |   1 |#
  30 |     -5.28 |  68 |     -5.28 |   1 |#
  31 |     -5.21 |   3 |     -5.21 |   1 |#
  32 |     -5.16 |  90 |     -4.72 |   2 |##
  33 |     -5.10 |  15 |     -5.10 |   1 |#
  34 |     -5.05 |  61 |     -5.05 |   1 |#
  35 |     -5.04 |  56 |     -5.04 |   1 |#
  36 |     -4.97 |  38 |     -4.97 |   1 |#
  37 |     -4.97 | 100 |     -4.97 |   1 |#
  38 |     -4.90 |  13 |     -4.90 |   1 |#
  39 |     -4.89 |  40 |     -4.89 |   1 |#
  40 |     -4.88 |  51 |     -4.88 |   1 |#
  41 |     -4.88 |  60 |     -4.88 |   1 |#
  42 |     -4.79 |  20 |     -4.79 |   1 |#
  43 |     -4.68 |   8 |     -4.68 |   1 |#
  44 |     -4.43 |  47 |     -4.43 |   2 |##
  45 |     -4.41 |  48 |     -4.41 |   1 |#
  46 |     -4.22 |  32 |     -4.22 |   1 |#
  47 |     -4.18 |  99 |     -4.18 |   1 |#
  48 |     -4.12 |  34 |     -4.12 |   1 |#
  49 |     -4.08 |  50 |     -4.08 |   1 |#
  50 |     -4.07 |  92 |     -4.07 |   1 |#
  51 |     -4.03 |   4 |     -4.03 |   1 |#
  52 |     -3.91 |  79 |     -3.91 |   1 |#
  53 |     -3.91 |  98 |     -3.91 |   1 |#
  54 |     -3.57 |  97 |     -3.57 |   1 |#
  55 |     -3.40 |  23 |     -3.40 |   1 |#
  56 |     -3.40 |  70 |     -3.40 |   1 |#
_____|___________|_____|___________|_____|______________________________________


Number of multi-member conformational clusters found = 14, out of 100 runs.

	RMSD TABLE
	__________

_____________________________________________________________________
     |      |      |           |         |                 |
Rank | Sub- | Run  | Binding   | Cluster | Reference       | Grep
     | Rank |      | Energy    | RMSD    | RMSD            | Pattern
_____|______|______|___________|_________|_________________|___________
   1      1     46      -13.58      0.00     34.07           RANKING
   1      2     83      -13.50      0.58     34.08           RANKING
   1      3     78      -13.11      1.58     33.66           RANKING
   1      4     26      -13.10      1.53     33.69           RANKING
   1      5     33      -13.05      1.03     33.66           RANKING
   1      6     80      -12.36      1.26     33.86           RANKING
   2      1     54       -7.98      0.00     33.76           RANKING
   2      2     43       -7.85      0.76     33.98           RANKING
   2      3     59       -7.66      1.43     34.21           RANKING
   2      4     25       -7.65      0.72     33.86           RANKING
   2      5     24       -6.97      1.04     34.39           RANKING
   2      6      2       -6.72      1.57     34.79           RANKING
   2      7     66       -6.28      1.71     35.04           RANKING
   2      8     28       -5.40      1.32     33.57           RANKING
   3      1     91       -7.93      0.00     37.87           RANKING
   4      1     74       -7.29      0.00     39.17           RANKING
   4      2     27       -6.77      1.13     39.66           RANKING
   4      3     22       -6.39      1.24     39.69           RANKING
   4      4     39       -6.21      1.22     39.67           RANKING
   4      5     42       -6.20      1.65     40.24           RANKING
   4      6     44       -6.06      1.29     39.21           RANKING
   4      7     52       -5.87      1.29     39.77           RANKING
   4      8     73       -5.66      1.76     40.03           RANKING
   4      9     95       -5.57      1.68     38.76           RANKING
   4     10     86       -5.39      1.48     39.73           RANKING
   4     11     93       -4.84      1.82     39.60           RANKING
   4     12     29       -4.13      1.63     39.83           RANKING
   5      1     11       -7.28      0.00     43.16           RANKING
   6      1     75       -6.97      0.00     37.48           RANKING
   6      2     35       -6.20      1.42     37.67           RANKING
   7      1      9       -6.76      0.00     37.50           RANKING
   7      2     62       -6.62      1.44     37.04           RANKING
   7      3      1       -6.43      1.69     38.17           RANKING
   7      4     57       -6.19      1.94     38.49           RANKING
   7      5     65       -5.95      1.70     38.33           RANKING
   7      6     21       -5.46      0.94     37.60           RANKING
   8      1     81       -6.61      0.00     35.14           RANKING
   8      2      7       -6.37      0.67     35.67           RANKING
   8      3      5       -6.06      1.23     35.75           RANKING
   9      1     69       -6.58      0.00     33.15           RANKING
   9      2     85       -5.49      1.90     31.71           RANKING
   9      3      6       -4.98      1.20     32.60           RANKING
  10      1     72       -6.51      0.00     41.48           RANKING
  10      2     77       -6.21      0.58     41.70           RANKING
  11      1     64       -6.36      0.00     36.89           RANKING
  12      1     12       -6.17      0.00     30.07           RANKING
  13      1     16       -6.09      0.00     38.25           RANKING
  13      2     31       -5.95      1.01     38.05           RANKING
  13      3     41       -5.13      1.21     37.81           RANKING
  13      4     14       -4.84      1.25     37.78           RANKING
  14      1     82       -6.08      0.00     39.49           RANKING
  15      1     18       -6.07      0.00     42.49           RANKING
  16      1     76       -6.05      0.00     36.99           RANKING
  17      1     88       -5.81      0.00     36.94           RANKING
  17      2     84       -5.61      0.68     37.06           RANKING
  17      3     67       -5.29      1.35     37.34           RANKING
  17      4     71       -4.94      1.35     36.37           RANKING
  18      1     94       -5.78      0.00     34.86           RANKING
  19      1     36       -5.62      0.00     20.38           RANKING
  19      2     37       -5.49      0.50     20.35           RANKING
  20      1     63       -5.58      0.00     17.46           RANKING
  21      1     53       -5.58      0.00     16.03           RANKING
  21      2     49       -5.35      0.80     15.85           RANKING
  22      1     96       -5.58      0.00     36.84           RANKING
  23      1     10       -5.52      0.00     23.64           RANKING
  24      1     17       -5.44      0.00     39.74           RANKING
  25      1     89       -5.44      0.00     34.70           RANKING
  26      1     45       -5.43      0.00     39.25           RANKING
  27      1     30       -5.43      0.00     42.08           RANKING
  28      1     58       -5.35      0.00     40.86           RANKING
  29      1     19       -5.30      0.00     32.80           RANKING
  30      1     68       -5.28      0.00     25.30           RANKING
  31      1      3       -5.21      0.00     16.05           RANKING
  32      1     90       -5.16      0.00     36.62           RANKING
  32      2     55       -4.28      1.60     36.23           RANKING
  33      1     15       -5.10      0.00     42.92           RANKING
  34      1     61       -5.05      0.00     18.41           RANKING
  35      1     56       -5.04      0.00     45.69           RANKING
  36      1     38       -4.97      0.00     17.09           RANKING
  37      1    100       -4.97      0.00     40.01           RANKING
  38      1     13       -4.90      0.00     33.37           RANKING
  39      1     40       -4.89      0.00     38.22           RANKING
  40      1     51       -4.88      0.00     39.10           RANKING
  41      1     60       -4.88      0.00     36.53           RANKING
  42      1     20       -4.79      0.00     19.61           RANKING
  43      1      8       -4.68      0.00     21.48           RANKING
  44      1     47       -4.43      0.00     19.06           RANKING
  44      2     87       -4.42      0.88     18.79           RANKING
  45      1     48       -4.41      0.00     21.09           RANKING
  46      1     32       -4.22      0.00     17.43           RANKING
  47      1     99       -4.18      0.00     32.35           RANKING
  48      1     34       -4.12      0.00     43.80           RANKING
  49      1     50       -4.08      0.00     36.13           RANKING
  50      1     92       -4.07      0.00     42.06           RANKING
  51      1      4       -4.03      0.00     43.87           RANKING
  52      1     79       -3.91      0.00     34.97           RANKING
  53      1     98       -3.91      0.00     17.77           RANKING
  54      1     97       -3.57      0.00     17.69           RANKING
  55      1     23       -3.40      0.00     41.83           RANKING
  56      1     70       -3.40      0.00     17.60           RANKING
_______________________________________________________________________



	INFORMATION ENTROPY ANALYSIS FOR THIS CLUSTERING
	________________________________________________


Information entropy for this clustering = 0.80  (rmstol = 2.00 Angstrom)

_______________________________________________________________________


	STATISTICAL MECHANICAL ANALYSIS
	_______________________________


Partition function, Q =   101.02            at Temperature, T = 298.15 K
Free energy,        A ~ -2734.50 kcal/mol   at Temperature, T = 298.15 K
Internal energy,    U =    -6.02 kcal/mol   at Temperature, T = 298.15 K
Entropy,            S =     9.15 kcal/mol/K at Temperature, T = 298.15 K

_______________________________________________________________________


	LOWEST ENERGY DOCKED CONFORMATION from EACH CLUSTER
	___________________________________________________



Keeping original residue number (specified in the input PDBQ file) for outputting.

MODEL       46
USER    Run = 46
USER    Cluster Rank = 1
USER    Number of conformations in this cluster = 6
USER  
USER    RMSD from reference structure       = 34.066 A
USER  
USER    Estimated Free Energy of Binding    =  -13.58 kcal/mol  [=(1)+(2)+(3)-(4)]
USER    Estimated Inhibition Constant, Ki   =  111.30 pM (picomolar)  [Temperature = 298.15 K]
USER    
USER    (1) Final Intermolecular Energy     =  -16.56 kcal/mol
USER        vdW + Hbond + desolv Energy     =  -14.51 kcal/mol
USER        Electrostatic Energy            =   -2.05 kcal/mol
USER    (2) Final Total Internal Energy     =   -0.55 kcal/mol
USER    (3) Torsional Free Energy           =   +2.98 kcal/mol
USER    (4) Unbound System's Energy  [=(2)] =   -0.55 kcal/mol
USER    
USER    
USER  
USER    DPF = D:/Protein_go_brrr/autodock/final/mut_D99N/heme_O2/dock.dpf
USER    NEWDPF move	heme_O2_opt.pdbqt
USER    NEWDPF about	8.287000 34.468000 -0.670000
USER    NEWDPF tran0	-8.707945 2.451726 1.250716
USER    NEWDPF axisangle0	-0.853437 -0.412553 -0.318505 88.036814
USER    NEWDPF quaternion0	-0.593044 -0.286679 -0.221326 0.719117
USER    NEWDPF dihe0	47.42 75.14 -11.30 -23.52 60.58 -166.09 -34.28 79.24 10.72 133.83 
USER  
USER                              x       y       z    vdW   Elec        q     RMS 
ATOM      1  C   UNL d   1     -10.614   1.921   2.015 -0.20 +0.02    +0.064    34.066
ATOM      2  C   UNL d   1      -7.305  -0.538  -0.343 -0.39 +0.01    +0.064    34.066
ATOM      3  C   UNL d   1      -4.485   3.343  -0.620 -0.09 +0.01    +0.064    34.066
ATOM      4  C   UNL d   1      -7.671   5.760   2.222 -0.37 +0.01    +0.064    34.066
ATOM      5  C   UNL d   1      -9.943   0.935   1.398 -0.26 +0.02    +0.066    34.066
ATOM      6  C   UNL d   1     -10.434  -0.364   1.237 -0.37 -0.01    -0.021    34.066
ATOM      7  C   UNL d   1      -9.459  -1.089   0.593 -0.36 -0.01    -0.025    34.066
ATOM      8  C   UNL d   1      -8.419  -0.200   0.335 -0.37 +0.01    +0.066    34.066
ATOM      9  C   UNL d   1      -9.541  -2.567   0.283 -0.39 +0.02    +0.051    34.066
ATOM     10  C   UNL d   1      -6.191   0.355  -0.664 -0.39 +0.01    +0.066    34.066
ATOM     11  C   UNL d   1      -5.136  -0.004  -1.510 -0.44 -0.00    -0.021    34.066
ATOM     12  C   UNL d   1      -4.322   1.109  -1.617 -0.42 +0.00    +0.000    34.066
ATOM     13  C   UNL d   1      -4.934   2.101  -0.802 -0.37 +0.01    +0.070    34.066
ATOM     14  C   UNL d   1      -4.928  -1.342  -2.209 -0.61 +0.00    +0.052    34.066
ATOM     15  C   UNL d   1      -5.056   4.366   0.224 -0.38 +0.01    +0.066    34.066
ATOM     16  C   UNL d   1      -4.450   5.591   0.501 -0.52 -0.00    -0.021    34.066
ATOM     17  C   UNL d   1      -5.340   6.297   1.310 -0.50 +0.00    +0.000    34.066
ATOM     18  C   UNL d   1      -6.437   5.439   1.466 -0.40 +0.01    +0.070    34.066
ATOM     19  C   UNL d   1      -3.067   5.952   0.019 -0.05 +0.00    +0.052    34.066
ATOM     20  C   UNL d   1      -8.724   4.944   2.428 -0.43 +0.01    +0.066    34.066
ATOM     21  C   UNL d   1      -9.867   5.309   3.133 -0.46 -0.00    -0.025    34.066
ATOM     22  C   UNL d   1     -10.728   4.237   3.061 -0.27 -0.00    -0.021    34.066
ATOM     23  C   UNL d   1     -10.068   3.247   2.327 -0.27 +0.02    +0.066    34.066
ATOM     24  C   UNL d   1     -10.124   6.613   3.843 -0.42 -0.00    +0.051    34.066
ATOM     25  N   UNL d   1      -8.691   1.030   0.888 -0.14 -0.07    -0.248    34.066
ATOM     26  N   UNL d   1      -6.068   1.633  -0.223 -0.26 -0.03    -0.248    34.066
ATOM     27  N   UNL d   1      -6.216   4.243   0.863 -0.25 -0.04    -0.248    34.066
ATOM     28  N   UNL d   1      -8.833   3.665   1.982 -0.14 -0.09    -0.248    34.066
ATOM     29 FE   UNL d   1      -7.459   2.659   0.888 -0.09 +0.00    +0.000    34.066
ATOM     30  O   UNL d   1      -6.957   1.491   1.787 -0.51 +0.00    +0.000    34.066
ATOM     31  O   UNL d   1      -6.808   2.979   2.284 -0.95 +0.00    +0.000    34.066
ATOM     32  C   UNL d   1     -11.711  -0.943   1.788 +0.33 +0.06    +0.052    34.066
ATOM     33  C   UNL d   1     -12.869  -0.874   0.797 -0.11 +0.10    +0.115    34.066
ATOM     34  C   UNL d   1     -13.769  -2.082   0.878 +0.12 +0.17    +0.139    34.066
ATOM     35  O   UNL d   1     -13.538  -3.054   0.176 -0.08 -0.49    -0.650    34.066
ATOM     36  O   UNL d   1     -14.845  -2.104   1.690 -0.48 -1.14    -0.776    34.066
ATOM     37  H   UNL d   1     -15.478  -1.377   1.720 +0.02 +0.14    +0.167    34.066
ATOM     38  C   UNL d   1     -12.081   4.151   3.719 -0.17 +0.01    +0.052    34.066
ATOM     39  C   UNL d   1     -12.209   2.933   4.630 -0.21 +0.03    +0.115    34.066
ATOM     40  C   UNL d   1     -12.991   1.813   3.989 -0.17 +0.07    +0.139    34.066
ATOM     41  O   UNL d   1     -13.755   2.057   3.069 -0.00 -0.25    -0.650    34.066
ATOM     42  O   UNL d   1     -12.823   0.535   4.379 -0.31 -0.83    -0.776    34.066
ATOM     43  H   UNL d   1     -13.224   0.198   5.190 +0.03 +0.18    +0.167    34.066
ATOM     44  C   UNL d   1      -3.067   1.108  -2.465 -0.48 +0.00    +0.004    34.066
ATOM     45  C   UNL d   1      -2.361   2.158  -2.884 -0.60 +0.00    +0.012    34.066
ATOM     46  C   UNL d   1      -5.218   7.643   1.972 -0.67 +0.00    +0.004    34.066
ATOM     47  C   UNL d   1      -4.110   8.253   2.414 -0.67 +0.00    +0.012    34.066
TER
ENDMDL
MODEL       54
USER    Run = 54
USER    Cluster Rank = 2
USER    Number of conformations in this cluster = 8
USER  
USER    RMSD from reference structure       = 33.755 A
USER  
USER    Estimated Free Energy of Binding    =   -7.98 kcal/mol  [=(1)+(2)+(3)-(4)]
USER    Estimated Inhibition Constant, Ki   =    1.40 uM (micromolar)  [Temperature = 298.15 K]
USER    
USER    (1) Final Intermolecular Energy     =  -10.97 kcal/mol
USER        vdW + Hbond + desolv Energy     =   -8.11 kcal/mol
USER        Electrostatic Energy            =   -2.86 kcal/mol
USER    (2) Final Total Internal Energy     =   -0.75 kcal/mol
USER    (3) Torsional Free Energy           =   +2.98 kcal/mol
USER    (4) Unbound System's Energy  [=(2)] =   -0.75 kcal/mol
USER    
USER    
USER  
USER    DPF = D:/Protein_go_brrr/autodock/final/mut_D99N/heme_O2/dock.dpf
USER    NEWDPF move	heme_O2_opt.pdbqt
USER    NEWDPF about	8.287000 34.468000 -0.670000
USER    NEWDPF tran0	-14.799767 6.427994 7.693789
USER    NEWDPF axisangle0	0.534296 0.653053 0.536702 -139.397739
USER    NEWDPF quaternion0	0.501107 0.612486 0.503364 -0.346954
USER    NEWDPF dihe0	40.96 112.11 68.16 -100.62 -168.83 -95.47 -53.48 -90.14 29.39 155.53 
USER  
USER                              x       y       z    vdW   Elec        q     RMS 
ATOM      1  C   UNL d   1     -14.903   4.406   8.328 -0.08 +0.02    +0.064    33.755
ATOM      2  C   UNL d   1     -12.481   6.559   4.855 -0.18 -0.01    +0.064    33.755
ATOM      3  C   UNL d   1     -14.420  10.803   6.008 -0.16 -0.02    +0.064    33.755
ATOM      4  C   UNL d   1     -16.550   8.684   9.886 -0.08 +0.00    +0.064    33.755
ATOM      5  C   UNL d   1     -14.085   4.646   7.290 -0.11 +0.01    +0.066    33.755
ATOM      6  C   UNL d   1     -13.342   3.660   6.636 -0.13 -0.00    -0.021    33.755
ATOM      7  C   UNL d   1     -12.607   4.289   5.658 -0.20 -0.00    -0.025    33.755
ATOM      8  C   UNL d   1     -12.958   5.635   5.711 -0.20 +0.00    +0.066    33.755
ATOM      9  C   UNL d   1     -11.603   3.605   4.755 -0.29 +0.01    +0.051    33.755
ATOM     10  C   UNL d   1     -12.830   7.981   4.847 -0.21 -0.01    +0.066    33.755
ATOM     11  C   UNL d   1     -12.434   8.864   3.837 -0.41 +0.00    -0.021    33.755
ATOM     12  C   UNL d   1     -12.998  10.089   4.142 -0.39 -0.00    +0.000    33.755
ATOM     13  C   UNL d   1     -13.712   9.882   5.355 -0.21 -0.01    +0.070    33.755
ATOM     14  C   UNL d   1     -11.576   8.547   2.618 -0.40 -0.00    +0.052    33.755
ATOM     15  C   UNL d   1     -15.128  10.642   7.256 -0.11 -0.02    +0.066    33.755
ATOM     16  C   UNL d   1     -15.712  11.685   7.973 -0.10 +0.01    -0.021    33.755
ATOM     17  C   UNL d   1     -16.325  11.105   9.084 -0.09 -0.00    +0.000    33.755
ATOM     18  C   UNL d   1     -16.067   9.733   8.958 -0.09 -0.01    +0.070    33.755
ATOM     19  C   UNL d   1     -15.588  13.133   7.569 -0.07 -0.04    +0.052    33.755
ATOM     20  C   UNL d   1     -16.285   7.365   9.819 -0.03 +0.01    +0.066    33.755
ATOM     21  C   UNL d   1     -16.784   6.422  10.713 +0.02 -0.01    -0.025    33.755
ATOM     22  C   UNL d   1     -16.347   5.194  10.269 -0.06 -0.01    -0.021    33.755
ATOM     23  C   UNL d   1     -15.580   5.436   9.125 -0.02 +0.02    +0.066    33.755
ATOM     24  C   UNL d   1     -17.631   6.680  11.932 -0.06 +0.01    +0.051    33.755
ATOM     25  N   UNL d   1     -13.819   5.865   6.759 -0.09 -0.01    -0.248    33.755
ATOM     26  N   UNL d   1     -13.601   8.597   5.779 -0.13 +0.04    -0.248    33.755
ATOM     27  N   UNL d   1     -15.276   9.479   7.884 -0.06 +0.03    -0.248    33.755
ATOM     28  N   UNL d   1     -15.507   6.761   8.881 -0.07 -0.05    -0.248    33.755
ATOM     29 FE   UNL d   1     -14.562   7.675   7.343 -0.04 -0.00    +0.000    33.755
ATOM     30  O   UNL d   1     -13.037   7.507   7.607 -0.42 -0.00    +0.000    33.755
ATOM     31  O   UNL d   1     -13.940   8.231   8.676 -0.43 +0.00    +0.000    33.755
ATOM     32  C   UNL d   1     -13.218   2.203   7.000 -0.14 +0.02    +0.052    33.755
ATOM     33  C   UNL d   1     -13.846   1.277   5.962 -0.09 +0.05    +0.115    33.755
ATOM     34  C   UNL d   1     -12.871   0.250   5.443 -0.13 +0.14    +0.139    33.755
ATOM     35  O   UNL d   1     -12.093  -0.288   6.214 -0.33 -0.64    -0.650    33.755
ATOM     36  O   UNL d   1     -12.818  -0.071   4.133 -0.44 -1.36    -0.776    33.755
ATOM     37  H   UNL d   1     -12.884   0.597   3.441 +0.05 +0.17    +0.167    33.755
ATOM     38  C   UNL d   1     -16.602   3.873  10.947 -0.07 +0.01    +0.052    33.755
ATOM     39  C   UNL d   1     -15.385   3.370  11.720 -0.13 +0.05    +0.115    33.755
ATOM     40  C   UNL d   1     -15.355   3.876  13.140 -0.19 +0.10    +0.139    33.755
ATOM     41  O   UNL d   1     -16.351   3.781  13.839 +0.00 -0.34    -0.650    33.755
ATOM     42  O   UNL d   1     -14.229   4.388  13.673 -0.20 -1.22    -0.776    33.755
ATOM     43  H   UNL d   1     -14.169   5.315  13.933 -0.52 +0.20    +0.167    33.755
ATOM     44  C   UNL d   1     -12.798  11.307   3.265 -0.43 -0.00    +0.004    33.755
ATOM     45  C   UNL d   1     -12.183  12.448   3.575 -0.41 -0.00    +0.012    33.755
ATOM     46  C   UNL d   1     -17.058  11.724  10.244 -0.07 -0.00    +0.004    33.755
ATOM     47  C   UNL d   1     -16.648  11.847  11.513 -0.09 -0.00    +0.012    33.755
TER
ENDMDL
MODEL       91
USER    Run = 91
USER    Cluster Rank = 3
USER    Number of conformations in this cluster = 1
USER  
USER    RMSD from reference structure       = 37.872 A
USER  
USER    Estimated Free Energy of Binding    =   -7.93 kcal/mol  [=(1)+(2)+(3)-(4)]
USER    Estimated Inhibition Constant, Ki   =    1.53 uM (micromolar)  [Temperature = 298.15 K]
USER    
USER    (1) Final Intermolecular Energy     =  -10.92 kcal/mol
USER        vdW + Hbond + desolv Energy     =   -8.23 kcal/mol
USER        Electrostatic Energy            =   -2.69 kcal/mol
USER    (2) Final Total Internal Energy     =   -2.06 kcal/mol
USER    (3) Torsional Free Energy           =   +2.98 kcal/mol
USER    (4) Unbound System's Energy  [=(2)] =   -2.06 kcal/mol
USER    
USER    
USER  
USER    DPF = D:/Protein_go_brrr/autodock/final/mut_D99N/heme_O2/dock.dpf
USER    NEWDPF move	heme_O2_opt.pdbqt
USER    NEWDPF about	8.287000 34.468000 -0.670000
USER    NEWDPF tran0	-11.997144 -0.747862 1.010086
USER    NEWDPF axisangle0	0.715260 0.293826 0.634089 -100.344658
USER    NEWDPF quaternion0	0.549301 0.225651 0.486964 -0.640481
USER    NEWDPF dihe0	-177.72 59.49 -62.87 35.87 168.09 -64.03 -98.51 140.34 -171.96 -166.74 
USER  
USER                              x       y       z    vdW   Elec        q     RMS 
ATOM      1  C   UNL d   1     -13.675  -2.038   0.870 +0.13 +0.08    +0.064    37.872
ATOM      2  C   UNL d   1      -9.098  -2.595  -0.266 -0.14 +0.01    +0.064    37.872
ATOM      3  C   UNL d   1      -8.110   1.899   1.121 +0.10 +0.02    +0.064    37.872
ATOM      4  C   UNL d   1     -12.722   2.325   2.740 -0.22 +0.02    +0.064    37.872
ATOM      5  C   UNL d   1     -12.510  -2.557   0.450 -0.11 +0.06    +0.066    37.872
ATOM      6  C   UNL d   1     -12.369  -3.849  -0.063 -0.15 -0.01    -0.021    37.872
ATOM      7  C   UNL d   1     -11.036  -4.027  -0.352 -0.26 -0.01    -0.025    37.872
ATOM      8  C   UNL d   1     -10.408  -2.821  -0.053 -0.17 +0.03    +0.066    37.872
ATOM      9  C   UNL d   1     -10.425  -5.314  -0.860 -0.25 +0.00    +0.051    37.872
ATOM     10  C   UNL d   1      -8.388  -1.344   0.006 -0.33 +0.01    +0.066    37.872
ATOM     11  C   UNL d   1      -7.065  -1.110  -0.386 -0.42 -0.00    -0.021    37.872
ATOM     12  C   UNL d   1      -6.768   0.187  -0.011 -0.33 +0.00    +0.000    37.872
ATOM     13  C   UNL d   1      -7.948   0.677   0.613 -0.33 +0.02    +0.070    37.872
ATOM     14  C   UNL d   1      -6.133  -2.073  -1.112 -0.34 +0.00    +0.052    37.872
ATOM     15  C   UNL d   1      -9.276   2.421   1.792 -0.00 +0.02    +0.066    37.872
ATOM     16  C   UNL d   1      -9.327   3.651   2.447 -0.31 -0.01    -0.021    37.872
ATOM     17  C   UNL d   1     -10.632   3.794   2.917 -0.28 +0.00    +0.000    37.872
ATOM     18  C   UNL d   1     -11.289   2.626   2.507 -0.26 +0.02    +0.070    37.872
ATOM     19  C   UNL d   1      -8.124   4.546   2.611 -0.39 +0.01    +0.052    37.872
ATOM     20  C   UNL d   1     -13.373   1.196   2.399 -0.18 +0.04    +0.066    37.872
ATOM     21  C   UNL d   1     -14.728   0.977   2.629 -0.15 -0.01    -0.025    37.872
ATOM     22  C   UNL d   1     -15.023  -0.250   2.078 -0.07 -0.02    -0.021    37.872
ATOM     23  C   UNL d   1     -13.828  -0.744   1.546 +0.00 +0.07    +0.066    37.872
ATOM     24  C   UNL d   1     -15.692   1.890   3.341 -0.14 +0.02    +0.051    37.872
ATOM     25  N   UNL d   1     -11.305  -1.938   0.502 -0.12 -0.17    -0.248    37.872
ATOM     26  N   UNL d   1      -8.927  -0.263   0.623 -0.26 -0.07    -0.248    37.872
ATOM     27  N   UNL d   1     -10.433   1.771   1.892 -0.20 -0.08    -0.248    37.872
ATOM     28  N   UNL d   1     -12.818   0.118   1.783 -0.17 -0.21    -0.248    37.872
ATOM     29 FE   UNL d   1     -10.886  -0.068   1.209 -0.07 +0.00    +0.000    37.872
ATOM     30  O   UNL d   1     -10.285  -1.216   2.072 -0.31 +0.00    +0.000    37.872
ATOM     31  O   UNL d   1     -10.903   0.050   2.777 -0.31 +0.00    +0.000    37.872
ATOM     32  C   UNL d   1     -13.418  -4.927  -0.151 -0.12 +0.02    +0.052    37.872
ATOM     33  C   UNL d   1     -13.495  -5.783   1.110 -0.08 +0.06    +0.115    37.872
ATOM     34  C   UNL d   1     -14.261  -5.106   2.219 +0.10 +0.14    +0.139    37.872
ATOM     35  O   UNL d   1     -14.989  -4.161   1.960 -0.28 -0.73    -0.650    37.872
ATOM     36  O   UNL d   1     -14.139  -5.503   3.502 -0.00 -0.78    -0.776    37.872
ATOM     37  H   UNL d   1     -14.651  -5.101   4.213 +0.00 +0.18    +0.167    37.872
ATOM     38  C   UNL d   1     -16.367  -0.932   2.122 -0.11 +0.03    +0.052    37.872
ATOM     39  C   UNL d   1     -16.788  -1.297   3.543 -0.05 +0.07    +0.115    37.872
ATOM     40  C   UNL d   1     -15.642  -1.833   4.364 +0.05 +0.17    +0.139    37.872
ATOM     41  O   UNL d   1     -14.848  -1.059   4.875 +0.03 -0.89    -0.650    37.872
ATOM     42  O   UNL d   1     -15.505  -3.154   4.589 -0.06 -1.05    -0.776    37.872
ATOM     43  H   UNL d   1     -15.366  -3.777   3.866 +0.00 +0.25    +0.167    37.872
ATOM     44  C   UNL d   1      -5.414   0.811  -0.278 -0.34 +0.00    +0.004    37.872
ATOM     45  C   UNL d   1      -5.123   1.815  -1.105 -0.50 +0.00    +0.012    37.872
ATOM     46  C   UNL d   1     -11.272   4.878   3.743 -0.35 +0.00    +0.004    37.872
ATOM     47  C   UNL d   1     -10.951   6.178   3.796 -0.49 -0.00    +0.012    37.872
TER
ENDMDL
MODEL       74
USER    Run = 74
USER    Cluster Rank = 4
USER    Number of conformations in this cluster = 12
USER  
USER    RMSD from reference structure       = 39.169 A
USER  
USER    Estimated Free Energy of Binding    =   -7.29 kcal/mol  [=(1)+(2)+(3)-(4)]
USER    Estimated Inhibition Constant, Ki   =    4.55 uM (micromolar)  [Temperature = 298.15 K]
USER    
USER    (1) Final Intermolecular Energy     =  -10.27 kcal/mol
USER        vdW + Hbond + desolv Energy     =   -6.86 kcal/mol
USER        Electrostatic Energy            =   -3.41 kcal/mol
USER    (2) Final Total Internal Energy     =   -0.48 kcal/mol
USER    (3) Torsional Free Energy           =   +2.98 kcal/mol
USER    (4) Unbound System's Energy  [=(2)] =   -0.48 kcal/mol
USER    
USER    
USER  
USER    DPF = D:/Protein_go_brrr/autodock/final/mut_D99N/heme_O2/dock.dpf
USER    NEWDPF move	heme_O2_opt.pdbqt
USER    NEWDPF about	8.287000 34.468000 -0.670000
USER    NEWDPF tran0	2.192714 0.251276 -19.672786
USER    NEWDPF axisangle0	0.982038 -0.187734 0.018909 -108.880164
USER    NEWDPF quaternion0	0.798895 -0.152723 0.015382 -0.581554
USER    NEWDPF dihe0	89.35 158.12 -15.14 133.00 -85.48 39.99 57.41 -89.71 -132.73 120.73 
USER  
USER                              x       y       z    vdW   Elec        q     RMS 
ATOM      1  C   UNL d   1       0.376   1.255 -19.236 -0.11 +0.06    +0.064    39.169
ATOM      2  C   UNL d   1       1.642  -1.718 -22.717 -0.07 +0.02    +0.064    39.169
ATOM      3  C   UNL d   1       6.097  -2.042 -20.945 -0.08 +0.01    +0.064    39.169
ATOM      4  C   UNL d   1       4.672   0.637 -17.091 -0.12 +0.02    +0.064    39.169
ATOM      5  C   UNL d   1       0.356   0.471 -20.326 -0.12 +0.05    +0.066    39.169
ATOM      6  C   UNL d   1      -0.760   0.307 -21.152 -0.10 -0.02    -0.021    39.169
ATOM      7  C   UNL d   1      -0.407  -0.587 -22.136 -0.09 -0.01    -0.025    39.169
ATOM      8  C   UNL d   1       0.929  -0.907 -21.912 -0.10 +0.03    +0.066    39.169
ATOM      9  C   UNL d   1      -1.341  -1.110 -23.205 -0.06 +0.02    +0.051    39.169
ATOM     10  C   UNL d   1       3.052  -2.072 -22.546 -0.09 +0.01    +0.066    39.169
ATOM     11  C   UNL d   1       3.787  -2.785 -23.500 -0.09 -0.00    -0.021    39.169
ATOM     12  C   UNL d   1       5.079  -2.873 -23.015 -0.11 +0.00    +0.000    39.169
ATOM     13  C   UNL d   1       5.055  -2.205 -21.760 -0.10 +0.01    +0.070    39.169
ATOM     14  C   UNL d   1       3.285  -3.335 -24.830 -0.04 +0.00    +0.052    39.169
ATOM     15  C   UNL d   1       6.107  -1.403 -19.651 -0.07 +0.02    +0.066    39.169
ATOM     16  C   UNL d   1       7.191  -1.409 -18.775 -0.21 -0.01    -0.021    39.169
ATOM     17  C   UNL d   1       6.808  -0.652 -17.668 -0.22 +0.00    +0.000    39.169
ATOM     18  C   UNL d   1       5.501  -0.234 -17.957 -0.16 +0.02    +0.070    39.169
ATOM     19  C   UNL d   1       8.463  -2.174 -19.044 -0.25 +0.02    +0.052    39.169
ATOM     20  C   UNL d   1       3.400   1.021 -17.317 -0.12 +0.02    +0.066    39.169
ATOM     21  C   UNL d   1       2.676   1.858 -16.473 -0.14 -0.01    -0.025    39.169
ATOM     22  C   UNL d   1       1.459   2.066 -17.082 -0.14 -0.01    -0.021    39.169
ATOM     23  C   UNL d   1       1.479   1.332 -18.272 -0.12 +0.04    +0.066    39.169
ATOM     24  C   UNL d   1       3.121   2.426 -15.150 -0.19 +0.02    +0.051    39.169
ATOM     25  N   UNL d   1       1.379  -0.306 -20.759 -0.09 -0.12    -0.248    39.169
ATOM     26  N   UNL d   1       3.817  -1.725 -21.480 -0.09 -0.05    -0.248    39.169
ATOM     27  N   UNL d   1       5.065  -0.761 -19.130 -0.11 -0.07    -0.248    39.169
ATOM     28  N   UNL d   1       2.644   0.662 -18.389 -0.08 -0.09    -0.248    39.169
ATOM     29 FE   UNL d   1       3.229  -0.523 -19.922 -0.03 +0.00    +0.000    39.169
ATOM     30  O   UNL d   1       2.348  -1.804 -19.841 -0.34 +0.00    +0.000    39.169
ATOM     31  O   UNL d   1       3.250  -1.397 -18.615 -0.33 +0.00    +0.000    39.169
ATOM     32  C   UNL d   1      -2.147   0.859 -20.950 -0.09 +0.04    +0.052    39.169
ATOM     33  C   UNL d   1      -2.685   0.609 -19.545 -0.10 +0.19    +0.115    39.169
ATOM     34  C   UNL d   1      -4.012  -0.108 -19.557 -0.14 +0.23    +0.139    39.169
ATOM     35  O   UNL d   1      -4.134  -1.162 -18.952 -0.62 -1.25    -0.650    39.169
ATOM     36  O   UNL d   1      -5.067   0.374 -20.246 -0.10 -1.24    -0.776    39.169
ATOM     37  H   UNL d   1      -5.228   0.136 -21.167 +0.02 +0.17    +0.167    39.169
ATOM     38  C   UNL d   1       0.320   2.875 -16.515 -0.01 +0.03    +0.052    39.169
ATOM     39  C   UNL d   1      -1.032   2.195 -16.714 -0.20 +0.12    +0.115    39.169
ATOM     40  C   UNL d   1      -1.386   1.271 -15.575 -0.30 +0.19    +0.139    39.169
ATOM     41  O   UNL d   1      -2.400   0.595 -15.636 -0.26 -1.19    -0.650    39.169
ATOM     42  O   UNL d   1      -0.574   1.140 -14.508 -0.38 -0.81    -0.776    39.169
ATOM     43  H   UNL d   1      -0.894   0.783 -13.671 -0.05 +0.14    +0.167    39.169
ATOM     44  C   UNL d   1       6.180  -3.575 -23.783 -0.12 +0.00    +0.004    39.169
ATOM     45  C   UNL d   1       7.497  -3.439 -23.634 -0.13 +0.00    +0.012    39.169
ATOM     46  C   UNL d   1       7.526  -0.350 -16.380 -0.25 +0.00    +0.004    39.169
ATOM     47  C   UNL d   1       7.778   0.846 -15.832 -0.17 +0.00    +0.012    39.169
TER
ENDMDL
MODEL       11
USER    Run = 11
USER    Cluster Rank = 5
USER    Number of conformations in this cluster = 1
USER  
USER    RMSD from reference structure       = 43.165 A
USER  
USER    Estimated Free Energy of Binding    =   -7.28 kcal/mol  [=(1)+(2)+(3)-(4)]
USER    Estimated Inhibition Constant, Ki   =    4.57 uM (micromolar)  [Temperature = 298.15 K]
USER    
USER    (1) Final Intermolecular Energy     =  -10.27 kcal/mol
USER        vdW + Hbond + desolv Energy     =   -9.04 kcal/mol
USER        Electrostatic Energy            =   -1.23 kcal/mol
USER    (2) Final Total Internal Energy     =   -0.54 kcal/mol
USER    (3) Torsional Free Energy           =   +2.98 kcal/mol
USER    (4) Unbound System's Energy  [=(2)] =   -0.54 kcal/mol
USER    
USER    
USER  
USER    DPF = D:/Protein_go_brrr/autodock/final/mut_D99N/heme_O2/dock.dpf
USER    NEWDPF move	heme_O2_opt.pdbqt
USER    NEWDPF about	8.287000 34.468000 -0.670000
USER    NEWDPF tran0	13.916913 -10.234354 6.991248
USER    NEWDPF axisangle0	-0.361453 -0.138567 -0.922036 165.450988
USER    NEWDPF quaternion0	-0.358544 -0.137451 -0.914615 0.126623
USER    NEWDPF dihe0	36.46 4.98 53.25 152.28 88.54 91.21 66.70 0.75 164.30 -176.10 
USER  
USER                              x       y       z    vdW   Elec        q     RMS 
ATOM      1  C   UNL d   1      14.614 -11.540   5.472 -0.21 -0.05    +0.064    43.165
ATOM      2  C   UNL d   1      16.701  -8.020   7.882 -0.21 -0.01    +0.064    43.165
ATOM      3  C   UNL d   1      12.645  -7.151  10.308 -0.27 -0.02    +0.064    43.165
ATOM      4  C   UNL d   1      10.625 -11.081   8.177 -0.20 -0.02    +0.064    43.165
ATOM      5  C   UNL d   1      15.513 -10.655   5.931 -0.29 -0.03    +0.066    43.165
ATOM      6  C   UNL d   1      16.826 -10.558   5.461 -0.25 +0.01    -0.021    43.165
ATOM      7  C   UNL d   1      17.444  -9.568   6.188 -0.29 +0.00    -0.025    43.165
ATOM      8  C   UNL d   1      16.478  -9.055   7.049 -0.25 -0.01    +0.066    43.165
ATOM      9  C   UNL d   1      18.901  -9.180   6.058 -0.27 +0.01    +0.051    43.165
ATOM     10  C   UNL d   1      15.722  -7.424   8.791 -0.19 -0.02    +0.066    43.165
ATOM     11  C   UNL d   1      15.957  -6.249   9.514 -0.16 +0.01    -0.021    43.165
ATOM     12  C   UNL d   1      14.793  -5.972  10.206 -0.21 -0.00    +0.000    43.165
ATOM     13  C   UNL d   1      13.897  -7.024   9.868 -0.22 -0.03    +0.070    43.165
ATOM     14  C   UNL d   1      17.231  -5.411   9.522 -0.10 -0.01    +0.052    43.165
ATOM     15  C   UNL d   1      11.718  -8.218  10.017 -0.22 -0.03    +0.066    43.165
ATOM     16  C   UNL d   1      10.480  -8.381  10.638 -0.17 +0.01    -0.021    43.165
ATOM     17  C   UNL d   1       9.886  -9.496  10.047 -0.19 -0.00    +0.000    43.165
ATOM     18  C   UNL d   1      10.818  -9.935   9.096 -0.20 -0.03    +0.070    43.165
ATOM     19  C   UNL d   1      10.003  -7.500  11.765 -0.18 -0.05    +0.052    43.165
ATOM     20  C   UNL d   1      11.515 -11.555   7.284 -0.22 -0.02    +0.066    43.165
ATOM     21  C   UNL d   1      11.269 -12.628   6.431 -0.23 +0.01    -0.025    43.165
ATOM     22  C   UNL d   1      12.385 -12.756   5.635 -0.25 +0.01    -0.021    43.165
ATOM     23  C   UNL d   1      13.281 -11.764   6.044 -0.29 -0.03    +0.066    43.165
ATOM     24  C   UNL d   1      10.034 -13.490   6.382 -0.28 -0.01    +0.051    43.165
ATOM     25  N   UNL d   1      15.307  -9.769   6.936 -0.13 +0.11    -0.248    43.165
ATOM     26  N   UNL d   1      14.471  -7.905   9.011 -0.09 +0.10    -0.248    43.165
ATOM     27  N   UNL d   1      11.954  -9.194   9.145 -0.16 +0.10    -0.248    43.165
ATOM     28  N   UNL d   1      12.766 -11.065   7.077 -0.12 +0.11    -0.248    43.165
ATOM     29 FE   UNL d   1      13.610  -9.497   8.038 -0.06 -0.00    +0.000    43.165
ATOM     30  O   UNL d   1      14.803 -10.077   8.853 -0.14 -0.00    +0.000    43.165
ATOM     31  O   UNL d   1      13.345 -10.619   9.108 -0.13 -0.00    +0.000    43.165
ATOM     32  C   UNL d   1      17.518 -11.451   4.463 -0.34 -0.02    +0.052    43.165
ATOM     33  C   UNL d   1      18.626 -12.291   5.089 -0.18 -0.02    +0.115    43.165
ATOM     34  C   UNL d   1      19.990 -11.940   4.547 -0.19 +0.03    +0.139    43.165
ATOM     35  O   UNL d   1      20.228 -12.103   3.361 -0.05 -0.12    -0.650    43.165
ATOM     36  O   UNL d   1      20.968 -11.474   5.351 +0.01 -0.37    -0.776    43.165
ATOM     37  H   UNL d   1      21.085 -11.796   6.253 +0.03 +0.07    +0.167    43.165
ATOM     38  C   UNL d   1      12.597 -13.816   4.584 -0.32 -0.03    +0.052    43.165
ATOM     39  C   UNL d   1      12.901 -15.183   5.191 -0.20 -0.03    +0.115    43.165
ATOM     40  C   UNL d   1      13.105 -16.247   4.142 -0.09 +0.03    +0.139    43.165
ATOM     41  O   UNL d   1      12.425 -17.261   4.166 -0.04 -0.19    -0.650    43.165
ATOM     42  O   UNL d   1      13.991 -16.078   3.142 -0.33 -0.52    -0.776    43.165
ATOM     43  H   UNL d   1      14.598 -15.328   3.127 -0.40 -0.15    +0.167    43.165
ATOM     44  C   UNL d   1      14.660  -4.759  11.102 -0.17 -0.00    +0.004    43.165
ATOM     45  C   UNL d   1      14.202  -4.711  12.353 -0.12 -0.00    +0.012    43.165
ATOM     46  C   UNL d   1       8.582 -10.191  10.336 -0.23 -0.00    +0.004    43.165
ATOM     47  C   UNL d   1       7.754 -10.792   9.472 -0.27 -0.01    +0.012    43.165
TER
ENDMDL
MODEL       75
USER    Run = 75
USER    Cluster Rank = 6
USER    Number of conformations in this cluster = 2
USER  
USER    RMSD from reference structure       = 37.485 A
USER  
USER    Estimated Free Energy of Binding    =   -6.97 kcal/mol  [=(1)+(2)+(3)-(4)]
USER    Estimated Inhibition Constant, Ki   =    7.75 uM (micromolar)  [Temperature = 298.15 K]
USER    
USER    (1) Final Intermolecular Energy     =   -9.96 kcal/mol
USER        vdW + Hbond + desolv Energy     =   -8.20 kcal/mol
USER        Electrostatic Energy            =   -1.76 kcal/mol
USER    (2) Final Total Internal Energy     =   -0.86 kcal/mol
USER    (3) Torsional Free Energy           =   +2.98 kcal/mol
USER    (4) Unbound System's Energy  [=(2)] =   -0.86 kcal/mol
USER    
USER    
USER  
USER    DPF = D:/Protein_go_brrr/autodock/final/mut_D99N/heme_O2/dock.dpf
USER    NEWDPF move	heme_O2_opt.pdbqt
USER    NEWDPF about	8.287000 34.468000 -0.670000
USER    NEWDPF tran0	-12.781567 -0.038425 1.589010
USER    NEWDPF axisangle0	0.659330 0.258256 0.706108 -111.084552
USER    NEWDPF quaternion0	0.543646 0.212943 0.582217 -0.565798
USER    NEWDPF dihe0	15.36 42.81 67.06 -26.92 50.00 169.05 -140.99 126.53 -14.97 -180.00 
USER  
USER                              x       y       z    vdW   Elec        q     RMS 
ATOM      1  C   UNL d   1     -14.171  -1.572   1.121 -0.07 +0.07    +0.064    37.485
ATOM      2  C   UNL d   1      -9.494  -1.153   0.407 -0.27 +0.02    +0.064    37.485
ATOM      3  C   UNL d   1      -9.483   3.210   2.422 -0.24 +0.02    +0.064    37.485
ATOM      4  C   UNL d   1     -14.207   2.591   3.593 -0.16 +0.02    +0.064    37.485
ATOM      5  C   UNL d   1     -12.899  -1.814   0.764 +0.07 +0.07    +0.066    37.485
ATOM      6  C   UNL d   1     -12.477  -2.979   0.117 -0.13 -0.01    -0.021    37.485
ATOM      7  C   UNL d   1     -11.115  -2.878  -0.052 -0.10 -0.01    -0.025    37.485
ATOM      8  C   UNL d   1     -10.751  -1.633   0.454 -0.02 +0.04    +0.066    37.485
ATOM      9  C   UNL d   1     -10.234  -3.955  -0.645 -0.31 +0.01    +0.051    37.485
ATOM     10  C   UNL d   1      -9.056   0.153   0.901 -0.34 +0.02    +0.066    37.485
ATOM     11  C   UNL d   1      -7.774   0.669   0.680 -0.36 -0.00    -0.021    37.485
ATOM     12  C   UNL d   1      -7.756   1.934   1.238 -0.04 +0.00    +0.000    37.485
ATOM     13  C   UNL d   1      -9.054   2.118   1.790 -0.01 +0.03    +0.070    37.485
ATOM     14  C   UNL d   1      -6.622  -0.006  -0.056 -0.27 +0.01    +0.052    37.485
ATOM     15  C   UNL d   1     -10.777   3.422   3.026 -0.26 +0.01    +0.066    37.485
ATOM     16  C   UNL d   1     -11.110   4.522   3.816 -0.33 -0.00    -0.021    37.485
ATOM     17  C   UNL d   1     -12.452   4.366   4.162 -0.21 +0.00    +0.000    37.485
ATOM     18  C   UNL d   1     -12.843   3.168   3.548 -0.16 +0.02    +0.070    37.485
ATOM     19  C   UNL d   1     -10.114   5.582   4.211 -0.47 -0.00    +0.052    37.485
ATOM     20  C   UNL d   1     -14.605   1.423   3.051 -0.15 +0.03    +0.066    37.485
ATOM     21  C   UNL d   1     -15.909   0.940   3.111 -0.12 -0.01    -0.025    37.485
ATOM     22  C   UNL d   1     -15.923  -0.232   2.389 -0.12 -0.01    -0.021    37.485
ATOM     23  C   UNL d   1     -14.618  -0.431   1.928 -0.03 +0.06    +0.066    37.485
ATOM     24  C   UNL d   1     -17.081   1.562   3.825 -0.06 +0.01    +0.051    37.485
ATOM     25  N   UNL d   1     -11.840  -1.007   1.015 -0.16 -0.21    -0.248    37.485
ATOM     26  N   UNL d   1      -9.837   1.028   1.585 -0.22 -0.08    -0.248    37.485
ATOM     27  N   UNL d   1     -11.794   2.571   2.926 -0.17 -0.07    -0.248    37.485
ATOM     28  N   UNL d   1     -13.810   0.555   2.371 -0.11 -0.19    -0.248    37.485
ATOM     29 FE   UNL d   1     -11.838   0.792   1.983 -0.06 +0.00    +0.000    37.485
ATOM     30  O   UNL d   1     -11.103  -0.339   2.758 -0.41 +0.00    +0.000    37.485
ATOM     31  O   UNL d   1     -12.002   0.689   3.543 -0.46 +0.00    +0.000    37.485
ATOM     32  C   UNL d   1     -13.294  -4.202  -0.209 -0.16 +0.02    +0.052    37.485
ATOM     33  C   UNL d   1     -14.343  -3.944  -1.287 -0.13 +0.03    +0.115    37.485
ATOM     34  C   UNL d   1     -13.852  -2.995  -2.352 -0.24 +0.03    +0.139    37.485
ATOM     35  O   UNL d   1     -14.198  -1.825  -2.324 -0.08 -0.13    -0.650    37.485
ATOM     36  O   UNL d   1     -13.057  -3.417  -3.357 +0.01 -0.11    -0.776    37.485
ATOM     37  H   UNL d   1     -12.951  -4.352  -3.567 +0.07 +0.01    +0.167    37.485
ATOM     38  C   UNL d   1     -17.113  -1.139   2.210 -0.08 +0.02    +0.052    37.485
ATOM     39  C   UNL d   1     -17.372  -2.009   3.438 -0.03 +0.05    +0.115    37.485
ATOM     40  C   UNL d   1     -16.159  -2.807   3.846 -0.04 +0.13    +0.139    37.485
ATOM     41  O   UNL d   1     -15.519  -3.412   3.000 -0.24 -0.91    -0.650    37.485
ATOM     42  O   UNL d   1     -15.735  -2.824   5.124 -0.09 -0.84    -0.776    37.485
ATOM     43  H   UNL d   1     -16.349  -2.944   5.858 +0.01 +0.10    +0.167    37.485
ATOM     44  C   UNL d   1      -6.527   2.817   1.190 -0.47 +0.00    +0.004    37.485
ATOM     45  C   UNL d   1      -5.810   3.277   2.214 -0.49 +0.00    +0.012    37.485
ATOM     46  C   UNL d   1     -13.348   5.197   5.042 -0.21 +0.00    +0.004    37.485
ATOM     47  C   UNL d   1     -13.021   5.884   6.144 -0.27 -0.00    +0.012    37.485
TER
ENDMDL
MODEL        9
USER    Run = 9
USER    Cluster Rank = 7
USER    Number of conformations in this cluster = 6
USER  
USER    RMSD from reference structure       = 37.497 A
USER  
USER    Estimated Free Energy of Binding    =   -6.76 kcal/mol  [=(1)+(2)+(3)-(4)]
USER    Estimated Inhibition Constant, Ki   =   11.16 uM (micromolar)  [Temperature = 298.15 K]
USER    
USER    (1) Final Intermolecular Energy     =   -9.74 kcal/mol
USER        vdW + Hbond + desolv Energy     =   -7.31 kcal/mol
USER        Electrostatic Energy            =   -2.43 kcal/mol
USER    (2) Final Total Internal Energy     =   -0.73 kcal/mol
USER    (3) Torsional Free Energy           =   +2.98 kcal/mol
USER    (4) Unbound System's Energy  [=(2)] =   -0.73 kcal/mol
USER    
USER    
USER  
USER    DPF = D:/Protein_go_brrr/autodock/final/mut_D99N/heme_O2/dock.dpf
USER    NEWDPF move	heme_O2_opt.pdbqt
USER    NEWDPF about	8.287000 34.468000 -0.670000
USER    NEWDPF tran0	5.160241 0.342758 -17.871202
USER    NEWDPF axisangle0	-0.911197 0.151714 -0.383018 107.814480
USER    NEWDPF quaternion0	-0.736306 0.122595 -0.309503 0.589094
USER    NEWDPF dihe0	14.86 -166.33 75.52 -120.18 125.75 160.28 69.87 -86.38 -23.76 138.70 
USER  
USER                              x       y       z    vdW   Elec        q     RMS 
ATOM      1  C   UNL d   1       3.127   0.587 -18.426 -0.12 +0.02    +0.064    37.497
ATOM      2  C   UNL d   1       6.683  -1.941 -20.303 +0.04 +0.01    +0.064    37.497
ATOM      3  C   UNL d   1       9.721  -0.337 -16.943 -0.07 +0.03    +0.064    37.497
ATOM      4  C   UNL d   1       5.958   1.893 -14.721 -0.14 +0.01    +0.064    37.497
ATOM      5  C   UNL d   1       3.846  -0.233 -19.209 -0.15 +0.02    +0.066    37.497
ATOM      6  C   UNL d   1       3.334  -0.893 -20.330 -0.17 -0.01    -0.021    37.497
ATOM      7  C   UNL d   1       4.351  -1.659 -20.849 -0.11 -0.01    -0.025    37.497
ATOM      8  C   UNL d   1       5.470  -1.409 -20.060 -0.08 +0.02    +0.066    37.497
ATOM      9  C   UNL d   1       4.213  -2.597 -22.028 -0.15 +0.01    +0.051    37.497
ATOM     10  C   UNL d   1       7.898  -1.698 -19.524 -0.17 +0.02    +0.066    37.497
ATOM     11  C   UNL d   1       9.165  -2.146 -19.915 -0.15 -0.00    -0.021    37.497
ATOM     12  C   UNL d   1      10.057  -1.678 -18.968 -0.12 +0.00    +0.000    37.497
ATOM     13  C   UNL d   1       9.265  -0.966 -18.026 -0.12 +0.03    +0.070    37.497
ATOM     14  C   UNL d   1       9.513  -2.962 -21.155 -0.13 +0.01    +0.052    37.497
ATOM     15  C   UNL d   1       8.948   0.364 -15.946 -0.08 +0.03    +0.066    37.497
ATOM     16  C   UNL d   1       9.466   0.861 -14.750 -0.10 -0.01    -0.021    37.497
ATOM     17  C   UNL d   1       8.410   1.500 -14.099 -0.18 +0.00    +0.000    37.497
ATOM     18  C   UNL d   1       7.314   1.345 -14.959 -0.15 +0.02    +0.070    37.497
ATOM     19  C   UNL d   1      10.891   0.635 -14.314 -0.16 +0.02    +0.052    37.497
ATOM     20  C   UNL d   1       4.874   1.726 -15.504 -0.11 +0.01    +0.066    37.497
ATOM     21  C   UNL d   1       3.626   2.282 -15.237 -0.16 -0.01    -0.025    37.497
ATOM     22  C   UNL d   1       2.814   1.943 -16.296 -0.14 -0.01    -0.021    37.497
ATOM     23  C   UNL d   1       3.595   1.175 -17.165 -0.11 +0.02    +0.066    37.497
ATOM     24  C   UNL d   1       3.227   3.091 -14.030 -0.21 +0.01    +0.051    37.497
ATOM     25  N   UNL d   1       5.141  -0.581 -19.011 -0.10 -0.06    -0.248    37.497
ATOM     26  N   UNL d   1       7.952  -0.988 -18.369 -0.10 -0.08    -0.248    37.497
ATOM     27  N   UNL d   1       7.641   0.590 -16.039 -0.09 -0.07    -0.248    37.497
ATOM     28  N   UNL d   1       4.834   1.008 -16.658 -0.04 -0.06    -0.248    37.497
ATOM     29 FE   UNL d   1       6.383   0.018 -17.505 -0.03 +0.00    +0.000    37.497
ATOM     30  O   UNL d   1       6.015  -1.493 -17.451 -0.49 +0.00    +0.000    37.497
ATOM     31  O   UNL d   1       6.092  -0.661 -16.116 -0.38 +0.00    +0.000    37.497
ATOM     32  C   UNL d   1       1.908  -0.913 -20.818 -0.18 +0.02    +0.052    37.497
ATOM     33  C   UNL d   1       1.379   0.477 -21.160 -0.07 +0.05    +0.115    37.497
ATOM     34  C   UNL d   1       0.296   0.929 -20.212 -0.10 +0.10    +0.139    37.497
ATOM     35  O   UNL d   1      -0.374   0.098 -19.620 -0.56 -1.05    -0.650    37.497
ATOM     36  O   UNL d   1       0.030   2.238 -20.023 +0.04 -0.44    -0.776    37.497
ATOM     37  H   UNL d   1       0.355   2.918 -20.624 +0.01 +0.06    +0.167    37.497
ATOM     38  C   UNL d   1       1.353   2.286 -16.427 -0.16 +0.03    +0.052    37.497
ATOM     39  C   UNL d   1       0.469   1.044 -16.520 -0.12 +0.12    +0.115    37.497
ATOM     40  C   UNL d   1      -0.041   0.597 -15.173 -0.37 +0.16    +0.139    37.497
ATOM     41  O   UNL d   1       0.749   0.371 -14.271 -0.17 -0.49    -0.650    37.497
ATOM     42  O   UNL d   1      -1.361   0.491 -14.929 -0.48 -1.13    -0.776    37.497
ATOM     43  H   UNL d   1      -1.706   0.437 -14.029 -0.05 +0.16    +0.167    37.497
ATOM     44  C   UNL d   1      11.543  -1.955 -19.058 -0.08 +0.00    +0.004    37.497
ATOM     45  C   UNL d   1      12.272  -2.764 -18.290 -0.10 +0.01    +0.012    37.497
ATOM     46  C   UNL d   1       8.340   2.170 -12.753 -0.30 +0.00    +0.004    37.497
ATOM     47  C   UNL d   1       7.470   1.946 -11.760 -0.35 +0.00    +0.012    37.497
TER
ENDMDL
MODEL       81
USER    Run = 81
USER    Cluster Rank = 8
USER    Number of conformations in this cluster = 3
USER  
USER    RMSD from reference structure       = 35.141 A
USER  
USER    Estimated Free Energy of Binding    =   -6.61 kcal/mol  [=(1)+(2)+(3)-(4)]
USER    Estimated Inhibition Constant, Ki   =   14.21 uM (micromolar)  [Temperature = 298.15 K]
USER    
USER    (1) Final Intermolecular Energy     =   -9.60 kcal/mol
USER        vdW + Hbond + desolv Energy     =   -6.93 kcal/mol
USER        Electrostatic Energy            =   -2.67 kcal/mol
USER    (2) Final Total Internal Energy     =   -1.94 kcal/mol
USER    (3) Torsional Free Energy           =   +2.98 kcal/mol
USER    (4) Unbound System's Energy  [=(2)] =   -1.94 kcal/mol
USER    
USER    
USER  
USER    DPF = D:/Protein_go_brrr/autodock/final/mut_D99N/heme_O2/dock.dpf
USER    NEWDPF move	heme_O2_opt.pdbqt
USER    NEWDPF about	8.287000 34.468000 -0.670000
USER    NEWDPF tran0	-15.200717 5.013330 3.700799
USER    NEWDPF axisangle0	0.104187 -0.255935 -0.961063 135.848096
USER    NEWDPF quaternion0	0.096549 -0.237171 -0.890604 0.375835
USER    NEWDPF dihe0	-67.63 145.85 -97.47 -115.42 -94.38 -36.72 -39.53 79.71 -131.80 179.71 
USER  
USER                              x       y       z    vdW   Elec        q     RMS 
ATOM      1  C   UNL d   1     -14.329   3.087   3.871 -0.14 +0.02    +0.064    35.141
ATOM      2  C   UNL d   1     -13.177   7.305   5.726 -0.16 -0.01    +0.064    35.141
ATOM      3  C   UNL d   1     -16.853   9.411   3.458 -0.18 -0.01    +0.064    35.141
ATOM      4  C   UNL d   1     -18.332   4.992   1.924 -0.22 +0.01    +0.064    35.141
ATOM      5  C   UNL d   1     -13.717   4.062   4.562 -0.13 +0.01    +0.066    35.141
ATOM      6  C   UNL d   1     -12.575   3.868   5.345 -0.20 -0.00    -0.021    35.141
ATOM      7  C   UNL d   1     -12.266   5.080   5.917 -0.27 -0.00    -0.025    35.141
ATOM      8  C   UNL d   1     -13.199   5.991   5.430 -0.19 -0.00    +0.066    35.141
ATOM      9  C   UNL d   1     -11.141   5.310   6.902 -0.43 -0.00    +0.051    35.141
ATOM     10  C   UNL d   1     -14.115   8.312   5.228 -0.17 -0.01    +0.066    35.141
ATOM     11  C   UNL d   1     -13.949   9.686   5.435 -0.21 +0.00    -0.021    35.141
ATOM     12  C   UNL d   1     -14.990  10.311   4.773 -0.13 -0.00    +0.000    35.141
ATOM     13  C   UNL d   1     -15.754   9.259   4.198 -0.13 -0.01    +0.070    35.141
ATOM     14  C   UNL d   1     -12.831  10.375   6.209 -0.40 -0.02    +0.052    35.141
ATOM     15  C   UNL d   1     -17.674   8.371   2.886 -0.18 -0.00    +0.066    35.141
ATOM     16  C   UNL d   1     -18.902   8.588   2.261 -0.19 -0.00    -0.021    35.141
ATOM     17  C   UNL d   1     -19.343   7.341   1.816 -0.23 +0.00    +0.000    35.141
ATOM     18  C   UNL d   1     -18.338   6.446   2.207 -0.22 +0.01    +0.070    35.141
ATOM     19  C   UNL d   1     -19.563   9.941   2.193 -0.13 +0.00    +0.052    35.141
ATOM     20  C   UNL d   1     -17.405   4.098   2.322 -0.19 +0.01    +0.066    35.141
ATOM     21  C   UNL d   1     -17.444   2.742   2.009 -0.08 -0.00    -0.025    35.141
ATOM     22  C   UNL d   1     -16.298   2.189   2.533 -0.17 -0.01    -0.021    35.141
ATOM     23  C   UNL d   1     -15.607   3.228   3.164 -0.18 +0.01    +0.066    35.141
ATOM     24  C   UNL d   1     -18.523   2.011   1.253 -0.06 +0.01    +0.051    35.141
ATOM     25  N   UNL d   1     -14.132   5.350   4.648 -0.00 -0.02    -0.248    35.141
ATOM     26  N   UNL d   1     -15.218   8.046   4.483 -0.06 +0.01    -0.248    35.141
ATOM     27  N   UNL d   1     -17.370   7.077   2.921 -0.11 -0.01    -0.248    35.141
ATOM     28  N   UNL d   1     -16.306   4.378   3.072 -0.09 -0.03    -0.248    35.141
ATOM     29 FE   UNL d   1     -15.769   6.200   3.771 -0.04 +0.00    +0.000    35.141
ATOM     30  O   UNL d   1     -15.860   6.114   5.323 -0.10 +0.00    +0.000    35.141
ATOM     31  O   UNL d   1     -17.136   5.820   4.448 -0.11 +0.00    +0.000    35.141
ATOM     32  C   UNL d   1     -11.879   2.568   5.655 -0.11 +0.01    +0.052    35.141
ATOM     33  C   UNL d   1     -12.841   1.473   6.102 -0.15 +0.05    +0.115    35.141
ATOM     34  C   UNL d   1     -12.511   0.133   5.492 -0.11 +0.15    +0.139    35.141
ATOM     35  O   UNL d   1     -12.147  -0.784   6.211 -0.36 -0.76    -0.650    35.141
ATOM     36  O   UNL d   1     -12.582  -0.070   4.160 -0.47 -1.32    -0.776    35.141
ATOM     37  H   UNL d   1     -13.421  -0.058   3.685 +0.03 +0.27    +0.167    35.141
ATOM     38  C   UNL d   1     -15.924   0.729   2.482 -0.14 +0.02    +0.052    35.141
ATOM     39  C   UNL d   1     -16.675  -0.100   3.522 -0.06 +0.05    +0.115    35.141
ATOM     40  C   UNL d   1     -15.826  -0.415   4.729 -0.06 +0.10    +0.139    35.141
ATOM     41  O   UNL d   1     -16.052   0.142   5.791 +0.02 -0.29    -0.650    35.141
ATOM     42  O   UNL d   1     -14.851  -1.343   4.670 +0.13 -1.26    -0.776    35.141
ATOM     43  H   UNL d   1     -14.051  -1.269   5.204 +0.02 +0.34    +0.167    35.141
ATOM     44  C   UNL d   1     -15.145  11.818   4.762 -0.11 -0.00    +0.004    35.141
ATOM     45  C   UNL d   1     -14.477  12.704   4.025 -0.14 -0.00    +0.012    35.141
ATOM     46  C   UNL d   1     -20.619   6.932   1.129 -0.19 +0.00    +0.004    35.141
ATOM     47  C   UNL d   1     -21.523   6.030   1.529 -0.13 +0.00    +0.012    35.141
TER
ENDMDL
MODEL       69
USER    Run = 69
USER    Cluster Rank = 9
USER    Number of conformations in this cluster = 3
USER  
USER    RMSD from reference structure       = 33.146 A
USER  
USER    Estimated Free Energy of Binding    =   -6.58 kcal/mol  [=(1)+(2)+(3)-(4)]
USER    Estimated Inhibition Constant, Ki   =   14.99 uM (micromolar)  [Temperature = 298.15 K]
USER    
USER    (1) Final Intermolecular Energy     =   -9.56 kcal/mol
USER        vdW + Hbond + desolv Energy     =   -6.93 kcal/mol
USER        Electrostatic Energy            =   -2.63 kcal/mol
USER    (2) Final Total Internal Energy     =   -0.97 kcal/mol
USER    (3) Torsional Free Energy           =   +2.98 kcal/mol
USER    (4) Unbound System's Energy  [=(2)] =   -0.97 kcal/mol
USER    
USER    
USER  
USER    DPF = D:/Protein_go_brrr/autodock/final/mut_D99N/heme_O2/dock.dpf
USER    NEWDPF move	heme_O2_opt.pdbqt
USER    NEWDPF about	8.287000 34.468000 -0.670000
USER    NEWDPF tran0	-18.276183 9.430966 2.105985
USER    NEWDPF axisangle0	0.491924 -0.151427 0.857368 -33.275594
USER    NEWDPF quaternion0	0.140848 -0.043357 0.245482 -0.958134
USER    NEWDPF dihe0	-23.38 37.73 104.49 94.94 65.94 -136.68 5.58 -78.86 -0.60 -11.19 
USER  
USER                              x       y       z    vdW   Elec        q     RMS 
ATOM      1  C   UNL d   1     -20.193   9.313   1.206 -0.17 +0.01    +0.064    33.146
ATOM      2  C   UNL d   1     -17.900   6.481   4.253 -0.08 +0.00    +0.064    33.146
ATOM      3  C   UNL d   1     -14.061   9.373   4.193 -0.27 -0.01    +0.064    33.146
ATOM      4  C   UNL d   1     -16.592  12.541   1.432 -0.19 -0.01    +0.064    33.146
ATOM      5  C   UNL d   1     -19.883   8.308   2.041 -0.15 +0.01    +0.066    33.146
ATOM      6  C   UNL d   1     -20.731   7.231   2.318 -0.10 -0.00    -0.021    33.146
ATOM      7  C   UNL d   1     -20.085   6.433   3.234 -0.07 -0.00    -0.025    33.146
ATOM      8  C   UNL d   1     -18.841   7.019   3.453 -0.10 +0.01    +0.066    33.146
ATOM      9  C   UNL d   1     -20.675   5.193   3.869 -0.03 +0.01    +0.051    33.146
ATOM     10  C   UNL d   1     -16.569   7.037   4.504 -0.08 +0.00    +0.066    33.146
ATOM     11  C   UNL d   1     -15.572   6.356   5.211 -0.09 -0.00    -0.021    33.146
ATOM     12  C   UNL d   1     -14.452   7.166   5.190 -0.14 -0.00    +0.000    33.146
ATOM     13  C   UNL d   1     -14.841   8.326   4.465 -0.06 -0.00    +0.070    33.146
ATOM     14  C   UNL d   1     -15.675   4.980   5.857 -0.07 +0.01    +0.052    33.146
ATOM     15  C   UNL d   1     -14.428  10.580   3.494 -0.24 -0.01    +0.066    33.146
ATOM     16  C   UNL d   1     -13.615  11.708   3.385 -0.27 +0.00    -0.021    33.146
ATOM     17  C   UNL d   1     -14.316  12.626   2.602 -0.22 -0.00    +0.000    33.146
ATOM     18  C   UNL d   1     -15.519  11.979   2.286 -0.22 -0.01    +0.070    33.146
ATOM     19  C   UNL d   1     -12.280  11.830   4.076 -0.40 -0.01    +0.052    33.146
ATOM     20  C   UNL d   1     -17.776  11.966   1.144 -0.17 -0.01    +0.066    33.146
ATOM     21  C   UNL d   1     -18.740  12.536   0.318 -0.16 +0.00    -0.025    33.146
ATOM     22  C   UNL d   1     -19.762  11.618   0.220 -0.17 -0.00    -0.021    33.146
ATOM     23  C   UNL d   1     -19.390  10.525   1.008 -0.14 -0.00    +0.066    33.146
ATOM     24  C   UNL d   1     -18.691  13.890  -0.342 -0.03 +0.00    +0.051    33.146
ATOM     25  N   UNL d   1     -18.744   8.208   2.768 -0.10 -0.01    -0.248    33.146
ATOM     26  N   UNL d   1     -16.132   8.241   4.055 -0.07 +0.01    -0.248    33.146
ATOM     27  N   UNL d   1     -15.602  10.769   2.897 -0.15 +0.04    -0.248    33.146
ATOM     28  N   UNL d   1     -18.202  10.759   1.604 -0.02 +0.05    -0.248    33.146
ATOM     29 FE   UNL d   1     -17.173   9.512   2.821 -0.04 -0.00    +0.000    33.146
ATOM     30  O   UNL d   1     -17.976   9.442   4.152 -0.08 -0.00    +0.000    33.146
ATOM     31  O   UNL d   1     -17.454  10.832   3.628 -0.10 -0.00    +0.000    33.146
ATOM     32  C   UNL d   1     -22.148   7.028   1.850 -0.09 +0.02    +0.052    33.146
ATOM     33  C   UNL d   1     -22.229   6.423   0.452 -0.11 +0.09    +0.115    33.146
ATOM     34  C   UNL d   1     -23.650   6.299  -0.040 -0.05 +0.13    +0.139    33.146
ATOM     35  O   UNL d   1     -24.310   5.318   0.264 -0.01 -0.33    -0.650    33.146
ATOM     36  O   UNL d   1     -24.204   7.237  -0.835 -0.36 -1.10    -0.776    33.146
ATOM     37  H   UNL d   1     -23.875   8.144  -0.861 +0.01 +0.24    +0.167    33.146
ATOM     38  C   UNL d   1     -21.050  11.814  -0.537 -0.11 +0.01    +0.052    33.146
ATOM     39  C   UNL d   1     -20.955  11.327  -1.982 -0.19 +0.03    +0.115    33.146
ATOM     40  C   UNL d   1     -21.571   9.963  -2.171 -0.17 +0.12    +0.139    33.146
ATOM     41  O   UNL d   1     -22.194   9.447  -1.257 -0.13 -0.73    -0.650    33.146
ATOM     42  O   UNL d   1     -21.489   9.321  -3.352 -0.23 -1.28    -0.776    33.146
ATOM     43  H   UNL d   1     -20.681   9.333  -3.879 -0.23 +0.11    +0.167    33.146
ATOM     44  C   UNL d   1     -13.153   6.759   5.853 -0.26 -0.00    +0.004    33.146
ATOM     45  C   UNL d   1     -12.836   6.830   7.145 -0.36 -0.00    +0.012    33.146
ATOM     46  C   UNL d   1     -13.981  14.034   2.191 -0.19 -0.00    +0.004    33.146
ATOM     47  C   UNL d   1     -13.287  14.442   1.120 -0.26 -0.00    +0.012    33.146
TER
ENDMDL
MODEL       72
USER    Run = 72
USER    Cluster Rank = 10
USER    Number of conformations in this cluster = 2
USER  
USER    RMSD from reference structure       = 41.484 A
USER  
USER    Estimated Free Energy of Binding    =   -6.51 kcal/mol  [=(1)+(2)+(3)-(4)]
USER    Estimated Inhibition Constant, Ki   =   16.84 uM (micromolar)  [Temperature = 298.15 K]
USER    
USER    (1) Final Intermolecular Energy     =   -9.50 kcal/mol
USER        vdW + Hbond + desolv Energy     =   -7.03 kcal/mol
USER        Electrostatic Energy            =   -2.47 kcal/mol
USER    (2) Final Total Internal Energy     =   -0.41 kcal/mol
USER    (3) Torsional Free Energy           =   +2.98 kcal/mol
USER    (4) Unbound System's Energy  [=(2)] =   -0.41 kcal/mol
USER    
USER    
USER  
USER    DPF = D:/Protein_go_brrr/autodock/final/mut_D99N/heme_O2/dock.dpf
USER    NEWDPF move	heme_O2_opt.pdbqt
USER    NEWDPF about	8.287000 34.468000 -0.670000
USER    NEWDPF tran0	-10.083812 -4.324247 10.815056
USER    NEWDPF axisangle0	-0.554697 0.515815 -0.652876 104.002267
USER    NEWDPF quaternion0	-0.437114 0.406474 -0.514481 0.615646
USER    NEWDPF dihe0	-86.27 138.74 -48.57 47.43 -75.89 -81.58 -59.30 39.28 -159.85 36.11 
USER  
USER                              x       y       z    vdW   Elec        q     RMS 
ATOM      1  C   UNL d   1     -10.901  -4.026   8.880 -0.22 +0.02    +0.064    41.484
ATOM      2  C   UNL d   1      -8.227  -7.486  10.735 -0.20 +0.02    +0.064    41.484
ATOM      3  C   UNL d   1      -8.078  -5.225  14.973 -0.19 +0.01    +0.064    41.484
ATOM      4  C   UNL d   1     -11.225  -1.897  13.216 -0.21 +0.02    +0.064    41.484
ATOM      5  C   UNL d   1     -10.187  -5.152   9.040 -0.22 +0.02    +0.066    41.484
ATOM      6  C   UNL d   1      -9.963  -6.087   8.025 -0.26 -0.01    -0.021    41.484
ATOM      7  C   UNL d   1      -9.226  -7.111   8.572 -0.25 -0.01    -0.025    41.484
ATOM      8  C   UNL d   1      -8.979  -6.750   9.894 -0.22 +0.02    +0.066    41.484
ATOM      9  C   UNL d   1      -8.822  -8.373   7.842 -0.23 +0.02    +0.051    41.484
ATOM     10  C   UNL d   1      -7.914  -7.148  12.124 -0.15 +0.02    +0.066    41.484
ATOM     11  C   UNL d   1      -6.997  -7.863  12.902 -0.14 -0.00    -0.021    41.484
ATOM     12  C   UNL d   1      -6.927  -7.216  14.122 -0.10 +0.00    +0.000    41.484
ATOM     13  C   UNL d   1      -7.834  -6.125  14.021 -0.12 +0.01    +0.070    41.484
ATOM     14  C   UNL d   1      -6.201  -9.095  12.490 -0.17 +0.02    +0.052    41.484
ATOM     15  C   UNL d   1      -9.015  -4.128  14.923 -0.18 +0.01    +0.066    41.484
ATOM     16  C   UNL d   1      -9.344  -3.320  16.010 -0.23 -0.00    -0.021    41.484
ATOM     17  C   UNL d   1     -10.241  -2.364  15.534 -0.27 +0.00    +0.000    41.484
ATOM     18  C   UNL d   1     -10.392  -2.663  14.172 -0.22 +0.02    +0.070    41.484
ATOM     19  C   UNL d   1      -8.823  -3.563  17.404 -0.11 +0.01    +0.052    41.484
ATOM     20  C   UNL d   1     -11.425  -2.182  11.915 -0.16 +0.02    +0.066    41.484
ATOM     21  C   UNL d   1     -12.208  -1.412  11.059 -0.12 -0.01    -0.025    41.484
ATOM     22  C   UNL d   1     -12.105  -1.988   9.813 -0.12 -0.01    -0.021    41.484
ATOM     23  C   UNL d   1     -11.275  -3.104   9.959 -0.16 +0.02    +0.066    41.484
ATOM     24  C   UNL d   1     -13.015  -0.190  11.413 -0.14 +0.02    +0.051    41.484
ATOM     25  N   UNL d   1      -9.626  -5.575  10.199 -0.07 -0.05    -0.248    41.484
ATOM     26  N   UNL d   1      -8.434  -6.094  12.804 +0.01 -0.05    -0.248    41.484
ATOM     27  N   UNL d   1      -9.699  -3.782  13.837 -0.01 -0.05    -0.248    41.484
ATOM     28  N   UNL d   1     -10.900  -3.243  11.247 -0.07 -0.06    -0.248    41.484
ATOM     29 FE   UNL d   1      -9.677  -4.657  12.023 -0.04 +0.00    +0.000    41.484
ATOM     30  O   UNL d   1     -10.470  -5.995  11.970 -0.11 +0.00    +0.000    41.484
ATOM     31  O   UNL d   1     -11.058  -4.769  12.766 -0.11 +0.00    +0.000    41.484
ATOM     32  C   UNL d   1     -10.534  -6.090   6.630 -0.17 +0.02    +0.052    41.484
ATOM     33  C   UNL d   1     -11.995  -6.530   6.589 -0.13 +0.05    +0.115    41.484
ATOM     34  C   UNL d   1     -12.905  -5.451   6.056 -0.09 +0.11    +0.139    41.484
ATOM     35  O   UNL d   1     -13.738  -5.729   5.209 -0.08 -0.54    -0.650    41.484
ATOM     36  O   UNL d   1     -12.801  -4.173   6.474 -0.31 -0.90    -0.776    41.484
ATOM     37  H   UNL d   1     -13.251  -3.856   7.266 +0.02 +0.13    +0.167    41.484
ATOM     38  C   UNL d   1     -12.819  -1.525   8.569 -0.12 +0.02    +0.052    41.484
ATOM     39  C   UNL d   1     -11.918  -1.553   7.336 -0.23 +0.09    +0.115    41.484
ATOM     40  C   UNL d   1     -12.162  -0.382   6.418 -0.18 +0.13    +0.139    41.484
ATOM     41  O   UNL d   1     -11.947   0.753   6.812 -0.12 -0.36    -0.650    41.484
ATOM     42  O   UNL d   1     -12.566  -0.568   5.146 -0.25 -1.47    -0.776    41.484
ATOM     43  H   UNL d   1     -13.211   0.018   4.731 +0.03 +0.23    +0.167    41.484
ATOM     44  C   UNL d   1      -6.021  -7.697  15.237 -0.07 +0.00    +0.004    41.484
ATOM     45  C   UNL d   1      -5.112  -6.997  15.914 -0.08 +0.00    +0.012    41.484
ATOM     46  C   UNL d   1     -10.986  -1.266  16.245 -0.22 +0.00    +0.004    41.484
ATOM     47  C   UNL d   1     -10.537  -0.449  17.207 -0.25 +0.01    +0.012    41.484
TER
ENDMDL
MODEL       64
USER    Run = 64
USER    Cluster Rank = 11
USER    Number of conformations in this cluster = 1
USER  
USER    RMSD from reference structure       = 36.887 A
USER  
USER    Estimated Free Energy of Binding    =   -6.36 kcal/mol  [=(1)+(2)+(3)-(4)]
USER    Estimated Inhibition Constant, Ki   =   21.93 uM (micromolar)  [Temperature = 298.15 K]
USER    
USER    (1) Final Intermolecular Energy     =   -9.34 kcal/mol
USER        vdW + Hbond + desolv Energy     =   -6.68 kcal/mol
USER        Electrostatic Energy            =   -2.66 kcal/mol
USER    (2) Final Total Internal Energy     =   -0.19 kcal/mol
USER    (3) Torsional Free Energy           =   +2.98 kcal/mol
USER    (4) Unbound System's Energy  [=(2)] =   -0.19 kcal/mol
USER    
USER    
USER  
USER    DPF = D:/Protein_go_brrr/autodock/final/mut_D99N/heme_O2/dock.dpf
USER    NEWDPF move	heme_O2_opt.pdbqt
USER    NEWDPF about	8.287000 34.468000 -0.670000
USER    NEWDPF tran0	-15.424458 2.659918 4.608132
USER    NEWDPF axisangle0	0.762259 0.638684 0.105087 158.154997
USER    NEWDPF quaternion0	0.748450 0.627114 0.103184 0.189481
USER    NEWDPF dihe0	-85.29 -111.82 63.30 -167.67 -161.36 -79.87 -49.78 -6.58 164.50 26.50 
USER  
USER                              x       y       z    vdW   Elec        q     RMS 
ATOM      1  C   UNL d   1     -15.129   0.562   4.508 -0.07 +0.04    +0.064    36.887
ATOM      2  C   UNL d   1     -17.878   3.536   2.027 -0.15 +0.01    +0.064    36.887
ATOM      3  C   UNL d   1     -16.351   7.271   4.638 -0.09 +0.00    +0.064    36.887
ATOM      4  C   UNL d   1     -13.161   4.295   6.881 -0.16 +0.01    +0.064    36.887
ATOM      5  C   UNL d   1     -16.000   1.066   3.619 -0.08 +0.03    +0.066    36.887
ATOM      6  C   UNL d   1     -16.694   0.298   2.681 -0.10 -0.01    -0.021    36.887
ATOM      7  C   UNL d   1     -17.458   1.163   1.933 -0.12 -0.01    -0.025    36.887
ATOM      8  C   UNL d   1     -17.245   2.431   2.467 -0.14 +0.01    +0.066    36.887
ATOM      9  C   UNL d   1     -18.315   0.763   0.752 -0.09 +0.01    +0.051    36.887
ATOM     10  C   UNL d   1     -17.713   4.889   2.562 -0.20 +0.01    +0.066    36.887
ATOM     11  C   UNL d   1     -18.514   5.971   2.178 -0.23 -0.00    -0.021    36.887
ATOM     12  C   UNL d   1     -18.101   7.053   2.933 -0.20 +0.00    +0.000    36.887
ATOM     13  C   UNL d   1     -17.040   6.562   3.744 -0.07 +0.00    +0.070    36.887
ATOM     14  C   UNL d   1     -19.643   5.965   1.155 -0.19 +0.02    +0.052    36.887
ATOM     15  C   UNL d   1     -15.248   6.821   5.452 -0.08 +0.00    +0.066    36.887
ATOM     16  C   UNL d   1     -14.462   7.653   6.248 -0.15 +0.00    -0.021    36.887
ATOM     17  C   UNL d   1     -13.545   6.826   6.897 -0.25 -0.00    +0.000    36.887
ATOM     18  C   UNL d   1     -13.845   5.535   6.443 -0.13 +0.00    +0.070    36.887
ATOM     19  C   UNL d   1     -14.619   9.153   6.276 -0.15 -0.01    +0.052    36.887
ATOM     20  C   UNL d   1     -13.395   3.046   6.434 -0.10 +0.01    +0.066    36.887
ATOM     21  C   UNL d   1     -12.730   1.914   6.897 -0.17 -0.01    -0.025    36.887
ATOM     22  C   UNL d   1     -13.297   0.838   6.252 -0.13 -0.01    -0.021    36.887
ATOM     23  C   UNL d   1     -14.278   1.357   5.401 -0.07 +0.03    +0.066    36.887
ATOM     24  C   UNL d   1     -11.609   1.862   7.902 -0.27 +0.01    +0.051    36.887
ATOM     25  N   UNL d   1     -16.297   2.380   3.462 -0.07 -0.06    -0.248    36.887
ATOM     26  N   UNL d   1     -16.808   5.246   3.508 -0.07 -0.03    -0.248    36.887
ATOM     27  N   UNL d   1     -14.831   5.559   5.510 -0.05 -0.02    -0.248    36.887
ATOM     28  N   UNL d   1     -14.304   2.703   5.482 -0.03 -0.07    -0.248    36.887
ATOM     29 FE   UNL d   1     -15.545   3.967   4.503 -0.02 +0.00    +0.000    36.887
ATOM     30  O   UNL d   1     -15.111   3.933   3.009 -0.22 +0.00    +0.000    36.887
ATOM     31  O   UNL d   1     -14.072   4.358   4.115 -0.17 +0.00    +0.000    36.887
ATOM     32  C   UNL d   1     -16.546  -1.176   2.403 -0.09 +0.03    +0.052    36.887
ATOM     33  C   UNL d   1     -15.931  -1.462   1.036 -0.13 +0.06    +0.115    36.887
ATOM     34  C   UNL d   1     -14.750  -2.396   1.121 -0.05 +0.15    +0.139    36.887
ATOM     35  O   UNL d   1     -14.838  -3.422   1.776 -0.52 -0.96    -0.650    36.887
ATOM     36  O   UNL d   1     -13.581  -2.110   0.509 -0.08 -0.72    -0.776    36.887
ATOM     37  H   UNL d   1     -13.423  -2.327  -0.417 +0.05 +0.09    +0.167    36.887
ATOM     38  C   UNL d   1     -12.870  -0.600   6.400 -0.18 +0.05    +0.052    36.887
ATOM     39  C   UNL d   1     -14.042  -1.525   6.720 -0.08 +0.11    +0.115    36.887
ATOM     40  C   UNL d   1     -13.653  -2.981   6.686 +0.13 +0.18    +0.139    36.887
ATOM     41  O   UNL d   1     -12.849  -3.413   7.495 -0.07 -0.49    -0.650    36.887
ATOM     42  O   UNL d   1     -14.218  -3.832   5.806 -0.47 -1.29    -0.776    36.887
ATOM     43  H   UNL d   1     -14.840  -4.512   6.090 +0.01 +0.14    +0.167    36.887
ATOM     44  C   UNL d   1     -18.746   8.417   2.803 -0.18 +0.00    +0.004    36.887
ATOM     45  C   UNL d   1     -18.165   9.569   2.472 -0.19 -0.00    +0.012    36.887
ATOM     46  C   UNL d   1     -12.410   7.152   7.832 -0.38 -0.00    +0.004    36.887
ATOM     47  C   UNL d   1     -11.495   6.319   8.344 -0.44 -0.00    +0.012    36.887
TER
ENDMDL
MODEL       12
USER    Run = 12
USER    Cluster Rank = 12
USER    Number of conformations in this cluster = 1
USER  
USER    RMSD from reference structure       = 30.066 A
USER  
USER    Estimated Free Energy of Binding    =   -6.17 kcal/mol  [=(1)+(2)+(3)-(4)]
USER    Estimated Inhibition Constant, Ki   =   30.25 uM (micromolar)  [Temperature = 298.15 K]
USER    
USER    (1) Final Intermolecular Energy     =   -9.15 kcal/mol
USER        vdW + Hbond + desolv Energy     =   -8.16 kcal/mol
USER        Electrostatic Energy            =   -0.99 kcal/mol
USER    (2) Final Total Internal Energy     =   -0.50 kcal/mol
USER    (3) Torsional Free Energy           =   +2.98 kcal/mol
USER    (4) Unbound System's Energy  [=(2)] =   -0.50 kcal/mol
USER    
USER    
USER  
USER    DPF = D:/Protein_go_brrr/autodock/final/mut_D99N/heme_O2/dock.dpf
USER    NEWDPF move	heme_O2_opt.pdbqt
USER    NEWDPF about	8.287000 34.468000 -0.670000
USER    NEWDPF tran0	9.673113 4.510057 -9.304524
USER    NEWDPF axisangle0	0.558964 -0.771815 0.303085 92.736854
USER    NEWDPF quaternion0	0.404574 -0.558634 0.219370 0.690018
USER    NEWDPF dihe0	-66.62 -158.41 -93.14 -113.94 129.39 102.28 39.74 -128.18 -180.00 -3.28 
USER  
USER                              x       y       z    vdW   Elec        q     RMS 
ATOM      1  C   UNL d   1       8.302   6.018  -8.717 -0.16 +0.02    +0.064    30.066
ATOM      2  C   UNL d   1      12.553   4.720  -7.044 -0.12 +0.00    +0.064    30.066
ATOM      3  C   UNL d   1      12.874   1.216 -10.316 -0.25 +0.01    +0.064    30.066
ATOM      4  C   UNL d   1       8.719   2.846 -12.351 -0.19 +0.01    +0.064    30.066
ATOM      5  C   UNL d   1       9.433   5.952  -7.996 -0.15 +0.01    +0.066    30.066
ATOM      6  C   UNL d   1       9.723   6.792  -6.917 -0.18 -0.00    -0.021    30.066
ATOM      7  C   UNL d   1      10.973   6.446  -6.459 -0.11 -0.00    -0.025    30.066
ATOM      8  C   UNL d   1      11.391   5.372  -7.240 -0.12 +0.00    +0.066    30.066
ATOM      9  C   UNL d   1      11.713   7.152  -5.345 -0.05 +0.00    +0.051    30.066
ATOM     10  C   UNL d   1      13.035   3.574  -7.815 -0.15 +0.00    +0.066    30.066
ATOM     11  C   UNL d   1      14.169   2.833  -7.466 -0.17 -0.00    -0.021    30.066
ATOM     12  C   UNL d   1      14.268   1.807  -8.387 -0.24 +0.00    +0.000    30.066
ATOM     13  C   UNL d   1      13.171   1.991  -9.274 -0.21 +0.01    +0.070    30.066
ATOM     14  C   UNL d   1      15.104   3.077  -6.287 -0.11 +0.00    +0.052    30.066
ATOM     15  C   UNL d   1      11.794   1.388 -11.257 -0.24 +0.01    +0.066    30.066
ATOM     16  C   UNL d   1      11.633   0.639 -12.422 -0.27 -0.00    -0.021    30.066
ATOM     17  C   UNL d   1      10.455   1.087 -13.020 -0.23 +0.00    +0.000    30.066
ATOM     18  C   UNL d   1       9.978   2.088 -12.162 -0.22 +0.01    +0.070    30.066
ATOM     19  C   UNL d   1      12.636  -0.388 -12.885 -0.21 +0.01    +0.052    30.066
ATOM     20  C   UNL d   1       8.254   3.842 -11.572 -0.17 +0.01    +0.066    30.066
ATOM     21  C   UNL d   1       7.051   4.507 -11.790 -0.13 -0.00    -0.025    30.066
ATOM     22  C   UNL d   1       6.903   5.396 -10.749 -0.14 -0.00    -0.021    30.066
ATOM     23  C   UNL d   1       8.034   5.252  -9.940 -0.15 +0.02    +0.066    30.066
ATOM     24  C   UNL d   1       6.094   4.308 -12.937 -0.11 +0.01    +0.051    30.066
ATOM     25  N   UNL d   1      10.470   5.111  -8.229 -0.03 -0.03    -0.248    30.066
ATOM     26  N   UNL d   1      12.428   3.071  -8.921 -0.09 -0.03    -0.248    30.066
ATOM     27  N   UNL d   1      10.842   2.309 -11.138 -0.12 -0.04    -0.248    30.066
ATOM     28  N   UNL d   1       8.874   4.338 -10.468 -0.06 -0.05    -0.248    30.066
ATOM     29 FE   UNL d   1      10.639   3.707  -9.703 -0.05 +0.00    +0.000    30.066
ATOM     30  O   UNL d   1      11.629   4.899  -9.853 -0.10 +0.00    +0.000    30.066
ATOM     31  O   UNL d   1      10.929   4.299 -11.131 -0.11 +0.00    +0.000    30.066
ATOM     32  C   UNL d   1       8.921   7.967  -6.420 -0.13 +0.02    +0.052    30.066
ATOM     33  C   UNL d   1       9.417   9.299  -6.972 -0.08 +0.05    +0.115    30.066
ATOM     34  C   UNL d   1       9.339  10.409  -5.953 -0.07 +0.06    +0.139    30.066
ATOM     35  O   UNL d   1       8.579  10.304  -5.004 -0.54 -0.46    -0.650    30.066
ATOM     36  O   UNL d   1      10.073  11.534  -6.081 +0.03 -0.19    -0.776    30.066
ATOM     37  H   UNL d   1      11.035  11.526  -6.019 +0.01 +0.03    +0.167    30.066
ATOM     38  C   UNL d   1       5.767   6.372 -10.583 -0.15 +0.01    +0.052    30.066
ATOM     39  C   UNL d   1       4.698   5.862  -9.618 -0.21 +0.03    +0.115    30.066
ATOM     40  C   UNL d   1       5.281   5.394  -8.308 -0.30 +0.05    +0.139    30.066
ATOM     41  O   UNL d   1       5.233   4.211  -8.011 -0.31 -0.16    -0.650    30.066
ATOM     42  O   UNL d   1       5.902   6.253  -7.476 -0.36 -0.45    -0.776    30.066
ATOM     43  H   UNL d   1       6.559   5.951  -6.838 -0.42 +0.04    +0.167    30.066
ATOM     44  C   UNL d   1      15.380   0.780  -8.330 -0.35 +0.00    +0.004    30.066
ATOM     45  C   UNL d   1      15.442  -0.319  -7.578 -0.39 -0.00    +0.012    30.066
ATOM     46  C   UNL d   1       9.797   0.702 -14.318 -0.11 +0.00    +0.004    30.066
ATOM     47  C   UNL d   1       9.503   1.486 -15.363 -0.12 +0.00    +0.012    30.066
TER
ENDMDL
MODEL       16
USER    Run = 16
USER    Cluster Rank = 13
USER    Number of conformations in this cluster = 4
USER  
USER    RMSD from reference structure       = 38.247 A
USER  
USER    Estimated Free Energy of Binding    =   -6.09 kcal/mol  [=(1)+(2)+(3)-(4)]
USER    Estimated Inhibition Constant, Ki   =   34.40 uM (micromolar)  [Temperature = 298.15 K]
USER    
USER    (1) Final Intermolecular Energy     =   -9.07 kcal/mol
USER        vdW + Hbond + desolv Energy     =   -6.52 kcal/mol
USER        Electrostatic Energy            =   -2.56 kcal/mol
USER    (2) Final Total Internal Energy     =   -1.96 kcal/mol
USER    (3) Torsional Free Energy           =   +2.98 kcal/mol
USER    (4) Unbound System's Energy  [=(2)] =   -1.96 kcal/mol
USER    
USER    
USER  
USER    DPF = D:/Protein_go_brrr/autodock/final/mut_D99N/heme_O2/dock.dpf
USER    NEWDPF move	heme_O2_opt.pdbqt
USER    NEWDPF about	8.287000 34.468000 -0.670000
USER    NEWDPF tran0	-13.502819 1.402851 10.556477
USER    NEWDPF axisangle0	-0.403213 -0.655527 -0.638517 -128.212770
USER    NEWDPF quaternion0	-0.362733 -0.589716 -0.574414 -0.436702
USER    NEWDPF dihe0	-71.23 166.68 48.82 -105.40 13.00 -65.30 71.96 -102.98 45.88 2.33 
USER  
USER                              x       y       z    vdW   Elec        q     RMS 
ATOM      1  C   UNL d   1     -12.200   0.792   8.998 -0.20 +0.02    +0.064    38.247
ATOM      2  C   UNL d   1     -15.517   4.181   9.263 -0.07 +0.02    +0.064    38.247
ATOM      3  C   UNL d   1     -16.564   2.932  13.784 -0.07 +0.03    +0.064    38.247
ATOM      4  C   UNL d   1     -12.826  -0.243  13.686 -0.14 +0.03    +0.064    38.247
ATOM      5  C   UNL d   1     -13.015   1.817   8.702 -0.14 +0.02    +0.066    38.247
ATOM      6  C   UNL d   1     -13.045   2.460   7.461 -0.16 -0.01    -0.021    38.247
ATOM      7  C   UNL d   1     -13.975   3.469   7.550 -0.11 -0.01    -0.025    38.247
ATOM      8  C   UNL d   1     -14.522   3.384   8.828 -0.09 +0.02    +0.066    38.247
ATOM      9  C   UNL d   1     -14.277   4.468   6.454 -0.11 +0.01    +0.051    38.247
ATOM     10  C   UNL d   1     -16.146   4.124  10.583 -0.07 +0.02    +0.066    38.247
ATOM     11  C   UNL d   1     -17.284   4.864  10.925 -0.05 -0.00    -0.021    38.247
ATOM     12  C   UNL d   1     -17.612   4.504  12.220 -0.04 +0.00    +0.000    38.247
ATOM     13  C   UNL d   1     -16.627   3.553  12.606 -0.06 +0.03    +0.070    38.247
ATOM     14  C   UNL d   1     -18.042   5.851  10.046 -0.03 +0.01    +0.052    38.247
ATOM     15  C   UNL d   1     -15.564   1.991  14.226 -0.09 +0.04    +0.066    38.247
ATOM     16  C   UNL d   1     -15.460   1.501  15.527 -0.08 -0.01    -0.021    38.247
ATOM     17  C   UNL d   1     -14.400   0.594  15.524 -0.06 +0.00    +0.000    38.247
ATOM     18  C   UNL d   1     -13.932   0.597  14.202 -0.04 +0.05    +0.070    38.247
ATOM     19  C   UNL d   1     -16.336   1.977  16.658 -0.05 +0.03    +0.052    38.247
ATOM     20  C   UNL d   1     -12.324  -0.233  12.436 -0.19 +0.03    +0.066    38.247
ATOM     21  C   UNL d   1     -11.292  -1.062  12.003 -0.26 -0.01    -0.025    38.247
ATOM     22  C   UNL d   1     -11.119  -0.800  10.662 -0.31 -0.01    -0.021    38.247
ATOM     23  C   UNL d   1     -12.042   0.196  10.330 -0.21 +0.02    +0.066    38.247
ATOM     24  C   UNL d   1     -10.509  -2.050  12.827 -0.23 +0.01    +0.051    38.247
ATOM     25  N   UNL d   1     -13.884   2.408   9.558 -0.08 -0.08    -0.248    38.247
ATOM     26  N   UNL d   1     -15.736   3.332  11.606 -0.07 -0.10    -0.248    38.247
ATOM     27  N   UNL d   1     -14.601   1.506  13.447 -0.09 -0.17    -0.248    38.247
ATOM     28  N   UNL d   1     -12.742   0.569  11.421 -0.11 -0.09    -0.248    38.247
ATOM     29 FE   UNL d   1     -14.228   1.940  11.516 -0.03 +0.00    +0.000    38.247
ATOM     30  O   UNL d   1     -13.554   3.328  11.311 -0.33 +0.00    +0.000    38.247
ATOM     31  O   UNL d   1     -13.095   2.404  12.502 -0.40 +0.00    +0.000    38.247
ATOM     32  C   UNL d   1     -12.140   2.227   6.279 -0.22 +0.02    +0.052    38.247
ATOM     33  C   UNL d   1     -12.908   2.019   4.977 -0.16 +0.05    +0.115    38.247
ATOM     34  C   UNL d   1     -12.816   0.600   4.475 -0.18 +0.14    +0.139    38.247
ATOM     35  O   UNL d   1     -12.645   0.391   3.285 -0.27 -0.76    -0.650    38.247
ATOM     36  O   UNL d   1     -12.946  -0.451   5.310 -0.21 -1.28    -0.776    38.247
ATOM     37  H   UNL d   1     -12.267  -0.677   5.957 +0.03 +0.21    +0.167    38.247
ATOM     38  C   UNL d   1     -10.078  -1.428   9.772 -0.43 +0.01    +0.052    38.247
ATOM     39  C   UNL d   1     -10.668  -2.489   8.846 -0.33 +0.04    +0.115    38.247
ATOM     40  C   UNL d   1     -11.430  -1.888   7.692 -0.26 +0.09    +0.139    38.247
ATOM     41  O   UNL d   1     -10.823  -1.454   6.726 -0.41 -0.60    -0.650    38.247
ATOM     42  O   UNL d   1     -12.777  -1.866   7.683 +0.03 -0.53    -0.776    38.247
ATOM     43  H   UNL d   1     -13.269  -1.355   7.029 +0.03 +0.15    +0.167    38.247
ATOM     44  C   UNL d   1     -18.805   5.095  12.940 -0.01 +0.00    +0.004    38.247
ATOM     45  C   UNL d   1     -18.865   5.543  14.194 -0.01 +0.00    +0.012    38.247
ATOM     46  C   UNL d   1     -13.778  -0.204  16.639 -0.09 +0.00    +0.004    38.247
ATOM     47  C   UNL d   1     -12.556  -0.072  17.170 -0.10 +0.01    +0.012    38.247
TER
ENDMDL
MODEL       82
USER    Run = 82
USER    Cluster Rank = 14
USER    Number of conformations in this cluster = 1
USER  
USER    RMSD from reference structure       = 39.491 A
USER  
USER    Estimated Free Energy of Binding    =   -6.08 kcal/mol  [=(1)+(2)+(3)-(4)]
USER    Estimated Inhibition Constant, Ki   =   35.16 uM (micromolar)  [Temperature = 298.15 K]
USER    
USER    (1) Final Intermolecular Energy     =   -9.06 kcal/mol
USER        vdW + Hbond + desolv Energy     =   -6.04 kcal/mol
USER        Electrostatic Energy            =   -3.02 kcal/mol
USER    (2) Final Total Internal Energy     =   -0.43 kcal/mol
USER    (3) Torsional Free Energy           =   +2.98 kcal/mol
USER    (4) Unbound System's Energy  [=(2)] =   -0.43 kcal/mol
USER    
USER    
USER  
USER    DPF = D:/Protein_go_brrr/autodock/final/mut_D99N/heme_O2/dock.dpf
USER    NEWDPF move	heme_O2_opt.pdbqt
USER    NEWDPF about	8.287000 34.468000 -0.670000
USER    NEWDPF tran0	-13.087369 -0.140426 10.953368
USER    NEWDPF axisangle0	-0.507424 -0.425730 -0.749183 -121.628421
USER    NEWDPF quaternion0	-0.443003 -0.371680 -0.654069 -0.487643
USER    NEWDPF dihe0	49.42 -165.82 42.31 -101.55 -149.39 -127.38 49.44 90.27 -18.02 37.00 
USER  
USER                              x       y       z    vdW   Elec        q     RMS 
ATOM      1  C   UNL d   1     -12.432  -0.447   8.959 -0.14 +0.02    +0.064    39.491
ATOM      2  C   UNL d   1     -14.420   3.271  11.146 -0.18 +0.03    +0.064    39.491
ATOM      3  C   UNL d   1     -14.701   0.814  15.267 -0.05 +0.04    +0.064    39.491
ATOM      4  C   UNL d   1     -12.220  -2.854  13.155 -0.08 +0.01    +0.064    39.491
ATOM      5  C   UNL d   1     -12.948   0.765   9.219 -0.12 +0.02    +0.066    39.491
ATOM      6  C   UNL d   1     -13.075   1.782   8.267 -0.15 -0.01    -0.021    39.491
ATOM      7  C   UNL d   1     -13.610   2.873   8.910 -0.16 -0.01    -0.025    39.491
ATOM      8  C   UNL d   1     -13.841   2.477  10.225 -0.16 +0.02    +0.066    39.491
ATOM      9  C   UNL d   1     -13.847   4.224   8.270 -0.12 +0.01    +0.051    39.491
ATOM     10  C   UNL d   1     -14.709   2.904  12.534 -0.20 +0.04    +0.066    39.491
ATOM     11  C   UNL d   1     -15.458   3.706  13.401 -0.18 -0.02    -0.021    39.491
ATOM     12  C   UNL d   1     -15.566   3.006  14.589 -0.12 +0.00    +0.000    39.491
ATOM     13  C   UNL d   1     -14.849   1.796  14.378 -0.09 +0.06    +0.070    39.491
ATOM     14  C   UNL d   1     -16.070   5.069  13.101 -0.08 +0.03    +0.052    39.491
ATOM     15  C   UNL d   1     -13.955  -0.410  15.104 -0.08 +0.03    +0.066    39.491
ATOM     16  C   UNL d   1     -13.700  -1.323  16.128 -0.06 -0.01    -0.021    39.491
ATOM     17  C   UNL d   1     -12.993  -2.377  15.549 -0.06 +0.00    +0.000    39.491
ATOM     18  C   UNL d   1     -12.869  -2.024  14.198 -0.07 +0.02    +0.070    39.491
ATOM     19  C   UNL d   1     -14.102  -1.084  17.562 -0.04 +0.02    +0.052    39.491
ATOM     20  C   UNL d   1     -12.046  -2.527  11.860 -0.09 +0.02    +0.066    39.491
ATOM     21  C   UNL d   1     -11.443  -3.357  10.920 -0.12 -0.01    -0.025    39.491
ATOM     22  C   UNL d   1     -11.519  -2.699   9.713 -0.17 -0.01    -0.021    39.491
ATOM     23  C   UNL d   1     -12.152  -1.479   9.965 -0.11 +0.02    +0.066    39.491
ATOM     24  C   UNL d   1     -10.822  -4.708  11.162 -0.10 +0.01    +0.051    39.491
ATOM     25  N   UNL d   1     -13.373   1.200  10.430 -0.07 -0.08    -0.248    39.491
ATOM     26  N   UNL d   1     -14.327   1.744  13.126 -0.11 -0.17    -0.248    39.491
ATOM     27  N   UNL d   1     -13.392  -0.794  13.962 -0.07 -0.10    -0.248    39.491
ATOM     28  N   UNL d   1     -12.431  -1.359  11.280 -0.05 -0.07    -0.248    39.491
ATOM     29 FE   UNL d   1     -13.372   0.180  12.199 -0.03 +0.00    +0.000    39.491
ATOM     30  O   UNL d   1     -12.380   1.379  12.165 -0.34 +0.00    +0.000    39.491
ATOM     31  O   UNL d   1     -11.953   0.032  12.861 -0.26 +0.00    +0.000    39.491
ATOM     32  C   UNL d   1     -12.585   1.778   6.842 -0.20 +0.02    +0.052    39.491
ATOM     33  C   UNL d   1     -13.305   0.753   5.971 -0.14 +0.07    +0.115    39.491
ATOM     34  C   UNL d   1     -12.349  -0.069   5.142 -0.04 +0.18    +0.139    39.491
ATOM     35  O   UNL d   1     -11.496  -0.744   5.697 -0.40 -0.84    -0.650    39.491
ATOM     36  O   UNL d   1     -12.397  -0.056   3.794 -0.45 -1.33    -0.776    39.491
ATOM     37  H   UNL d   1     -12.417   0.767   3.292 +0.05 +0.14    +0.167    39.491
ATOM     38  C   UNL d   1     -10.954  -3.193   8.406 -0.32 +0.02    +0.052    39.491
ATOM     39  C   UNL d   1     -11.894  -2.933   7.231 -0.12 +0.09    +0.115    39.491
ATOM     40  C   UNL d   1     -12.837  -4.083   6.981 -0.08 +0.12    +0.139    39.491
ATOM     41  O   UNL d   1     -13.013  -4.922   7.850 +0.01 -0.30    -0.650    39.491
ATOM     42  O   UNL d   1     -13.533  -4.176   5.832 -0.40 -1.34    -0.776    39.491
ATOM     43  H   UNL d   1     -14.302  -4.752   5.752 +0.00 +0.18    +0.167    39.491
ATOM     44  C   UNL d   1     -16.323   3.556  15.780 -0.08 +0.00    +0.004    39.491
ATOM     45  C   UNL d   1     -16.007   3.451  17.071 -0.06 +0.01    +0.012    39.491
ATOM     46  C   UNL d   1     -12.395  -3.617  16.157 -0.05 +0.00    +0.004    39.491
ATOM     47  C   UNL d   1     -11.102  -3.904  16.352 -0.08 +0.00    +0.012    39.491
TER
ENDMDL
MODEL       18
USER    Run = 18
USER    Cluster Rank = 15
USER    Number of conformations in this cluster = 1
USER  
USER    RMSD from reference structure       = 42.495 A
USER  
USER    Estimated Free Energy of Binding    =   -6.07 kcal/mol  [=(1)+(2)+(3)-(4)]
USER    Estimated Inhibition Constant, Ki   =   35.69 uM (micromolar)  [Temperature = 298.15 K]
USER    
USER    (1) Final Intermolecular Energy     =   -9.05 kcal/mol
USER        vdW + Hbond + desolv Energy     =   -7.29 kcal/mol
USER        Electrostatic Energy            =   -1.76 kcal/mol
USER    (2) Final Total Internal Energy     =   -1.32 kcal/mol
USER    (3) Torsional Free Energy           =   +2.98 kcal/mol
USER    (4) Unbound System's Energy  [=(2)] =   -1.32 kcal/mol
USER    
USER    
USER  
USER    DPF = D:/Protein_go_brrr/autodock/final/mut_D99N/heme_O2/dock.dpf
USER    NEWDPF move	heme_O2_opt.pdbqt
USER    NEWDPF about	8.287000 34.468000 -0.670000
USER    NEWDPF tran0	-12.401261 -5.873846 1.372459
USER    NEWDPF axisangle0	-0.818319 -0.084344 0.568542 -172.897615
USER    NEWDPF quaternion0	-0.816747 -0.084183 0.567451 -0.061940
USER    NEWDPF dihe0	39.36 -180.00 166.14 21.65 153.91 -26.54 -122.18 -71.29 -27.63 -12.07 
USER  
USER                              x       y       z    vdW   Elec        q     RMS 
ATOM      1  C   UNL d   1     -12.250  -6.856   3.247 -0.09 +0.03    +0.064    42.495
ATOM      2  C   UNL d   1     -15.507  -3.923   1.415 -0.07 +0.05    +0.064    42.495
ATOM      3  C   UNL d   1     -12.978  -3.505  -2.650 -0.26 +0.01    +0.064    42.495
ATOM      4  C   UNL d   1      -9.860  -6.897  -0.964 -0.20 -0.02    +0.064    42.495
ATOM      5  C   UNL d   1     -13.343  -6.094   3.079 +0.02 +0.05    +0.066    42.495
ATOM      6  C   UNL d   1     -14.333  -5.922   4.051 -0.07 -0.02    -0.021    42.495
ATOM      7  C   UNL d   1     -15.298  -5.107   3.506 -0.05 -0.02    -0.025    42.495
ATOM      8  C   UNL d   1     -14.847  -4.765   2.234 -0.05 +0.06    +0.066    42.495
ATOM      9  C   UNL d   1     -16.592  -4.721   4.189 -0.04 +0.03    +0.051    42.495
ATOM     10  C   UNL d   1     -15.072  -3.509   0.080 -0.10 +0.03    +0.066    42.495
ATOM     11  C   UNL d   1     -15.709  -2.508  -0.661 -0.14 -0.01    -0.021    42.495
ATOM     12  C   UNL d   1     -14.984  -2.360  -1.829 -0.26 +0.00    +0.000    42.495
ATOM     13  C   UNL d   1     -13.929  -3.310  -1.738 -0.19 +0.02    +0.070    42.495
ATOM     14  C   UNL d   1     -16.942  -1.706  -0.259 -0.13 +0.01    +0.052    42.495
ATOM     15  C   UNL d   1     -11.914  -4.480  -2.612 -0.21 +0.00    +0.066    42.495
ATOM     16  C   UNL d   1     -11.048  -4.747  -3.672 -0.31 +0.00    -0.021    42.495
ATOM     17  C   UNL d   1     -10.151  -5.712  -3.215 -0.31 -0.00    +0.000    42.495
ATOM     18  C   UNL d   1     -10.540  -5.963  -1.891 -0.19 -0.01    +0.070    42.495
ATOM     19  C   UNL d   1     -11.187  -4.105  -5.030 -0.36 +0.00    +0.052    42.495
ATOM     20  C   UNL d   1     -10.233  -7.193   0.297 -0.20 -0.01    +0.066    42.495
ATOM     21  C   UNL d   1      -9.542  -8.069   1.129 -0.24 +0.00    -0.025    42.495
ATOM     22  C   UNL d   1     -10.193  -8.049   2.342 -0.16 -0.00    -0.021    42.495
ATOM     23  C   UNL d   1     -11.273  -7.172   2.199 -0.13 +0.02    +0.066    42.495
ATOM     24  C   UNL d   1      -8.324  -8.886   0.784 -0.19 -0.02    +0.051    42.495
ATOM     25  N   UNL d   1     -13.675  -5.426   1.947 -0.03 -0.21    -0.248    42.495
ATOM     26  N   UNL d   1     -13.993  -4.008  -0.576 -0.07 -0.10    -0.248    42.495
ATOM     27  N   UNL d   1     -11.657  -5.262  -1.568 -0.08 -0.01    -0.248    42.495
ATOM     28  N   UNL d   1     -11.319  -6.689   0.940 -0.08 -0.04    -0.248    42.495
ATOM     29 FE   UNL d   1     -12.645  -5.358   0.185 -0.03 +0.00    +0.000    42.495
ATOM     30  O   UNL d   1     -14.006  -6.107   0.089 -0.06 +0.00    +0.000    42.495
ATOM     31  O   UNL d   1     -12.750  -6.669  -0.677 -0.07 +0.00    +0.000    42.495
ATOM     32  C   UNL d   1     -14.442  -6.604   5.390 -0.06 +0.02    +0.052    42.495
ATOM     33  C   UNL d   1     -13.202  -6.407   6.257 -0.09 +0.05    +0.115    42.495
ATOM     34  C   UNL d   1     -12.869  -4.950   6.461 -0.10 +0.12    +0.139    42.495
ATOM     35  O   UNL d   1     -13.602  -4.092   5.995 -0.47 -1.05    -0.650    42.495
ATOM     36  O   UNL d   1     -11.758  -4.569   7.126 +0.02 -0.49    -0.776    42.495
ATOM     37  H   UNL d   1     -10.917  -5.027   7.020 +0.05 +0.09    +0.167    42.495
ATOM     38  C   UNL d   1      -9.831  -8.878   3.548 -0.15 +0.00    +0.052    42.495
ATOM     39  C   UNL d   1      -8.829  -8.172   4.459 -0.27 +0.02    +0.115    42.495
ATOM     40  C   UNL d   1      -9.459  -7.688   5.742 -0.22 +0.03    +0.139    42.495
ATOM     41  O   UNL d   1      -9.069  -8.127   6.812 -0.02 -0.17    -0.650    42.495
ATOM     42  O   UNL d   1     -10.414  -6.738   5.733 +0.04 -0.30    -0.776    42.495
ATOM     43  H   UNL d   1     -10.793  -6.396   6.551 +0.04 +0.06    +0.167    42.495
ATOM     44  C   UNL d   1     -15.368  -1.351  -2.891 -0.43 +0.00    +0.004    42.495
ATOM     45  C   UNL d   1     -16.541  -0.740  -3.054 -0.32 +0.00    +0.012    42.495
ATOM     46  C   UNL d   1      -9.032  -6.433  -3.918 -0.41 -0.00    +0.004    42.495
ATOM     47  C   UNL d   1      -8.452  -6.125  -5.085 -0.56 -0.00    +0.012    42.495
TER
ENDMDL
MODEL       76
USER    Run = 76
USER    Cluster Rank = 16
USER    Number of conformations in this cluster = 1
USER  
USER    RMSD from reference structure       = 36.993 A
USER  
USER    Estimated Free Energy of Binding    =   -6.05 kcal/mol  [=(1)+(2)+(3)-(4)]
USER    Estimated Inhibition Constant, Ki   =   36.98 uM (micromolar)  [Temperature = 298.15 K]
USER    
USER    (1) Final Intermolecular Energy     =   -9.03 kcal/mol
USER        vdW + Hbond + desolv Energy     =   -7.64 kcal/mol
USER        Electrostatic Energy            =   -1.39 kcal/mol
USER    (2) Final Total Internal Energy     =   -1.49 kcal/mol
USER    (3) Torsional Free Energy           =   +2.98 kcal/mol
USER    (4) Unbound System's Energy  [=(2)] =   -1.49 kcal/mol
USER    
USER    
USER  
USER    DPF = D:/Protein_go_brrr/autodock/final/mut_D99N/heme_O2/dock.dpf
USER    NEWDPF move	heme_O2_opt.pdbqt
USER    NEWDPF about	8.287000 34.468000 -0.670000
USER    NEWDPF tran0	10.188930 0.029242 -15.916863
USER    NEWDPF axisangle0	-0.384698 -0.921425 -0.054631 -118.616785
USER    NEWDPF quaternion0	-0.330812 -0.792358 -0.046979 -0.510417
USER    NEWDPF dihe0	56.15 40.07 125.04 141.99 -106.07 145.65 142.32 -174.90 29.39 1.80 
USER  
USER                              x       y       z    vdW   Elec        q     RMS 
ATOM      1  C   UNL d   1      11.642  -0.724 -17.266 -0.06 +0.03    +0.064    36.993
ATOM      2  C   UNL d   1       6.893  -0.754 -17.321 -0.23 +0.02    +0.064    36.993
ATOM      3  C   UNL d   1       6.738   1.517 -13.088 -0.27 +0.01    +0.064    36.993
ATOM      4  C   UNL d   1      11.619   1.980 -13.250 -0.09 +0.01    +0.064    36.993
ATOM      5  C   UNL d   1      10.363  -0.916 -17.627 -0.09 +0.04    +0.066    36.993
ATOM      6  C   UNL d   1       9.970  -1.571 -18.798 -0.12 -0.01    -0.021    36.993
ATOM      7  C   UNL d   1       8.595  -1.542 -18.836 -0.19 -0.01    -0.025    36.993
ATOM      8  C   UNL d   1       8.186  -0.913 -17.664 -0.19 +0.03    +0.066    36.993
ATOM      9  C   UNL d   1       7.750  -2.075 -19.972 -0.19 +0.01    +0.051    36.993
ATOM     10  C   UNL d   1       6.402  -0.123 -16.095 -0.21 +0.02    +0.066    36.993
ATOM     11  C   UNL d   1       5.057  -0.130 -15.711 -0.30 -0.01    -0.021    36.993
ATOM     12  C   UNL d   1       4.994   0.504 -14.484 -0.34 +0.00    +0.000    36.993
ATOM     13  C   UNL d   1       6.333   0.882 -14.188 -0.21 +0.02    +0.070    36.993
ATOM     14  C   UNL d   1       3.884  -0.742 -16.469 -0.36 +0.02    +0.052    36.993
ATOM     15  C   UNL d   1       8.077   1.948 -12.768 -0.26 +0.01    +0.066    36.993
ATOM     16  C   UNL d   1       8.409   2.752 -11.678 -0.28 -0.00    -0.021    36.993
ATOM     17  C   UNL d   1       9.796   2.899 -11.704 -0.20 +0.00    +0.000    36.993
ATOM     18  C   UNL d   1      10.212   2.161 -12.822 -0.15 +0.01    +0.070    36.993
ATOM     19  C   UNL d   1       7.380   3.349 -10.752 -0.27 +0.01    +0.052    36.993
ATOM     20  C   UNL d   1      12.049   1.315 -14.340 -0.07 +0.01    +0.066    36.993
ATOM     21  C   UNL d   1      13.390   1.163 -14.683 -0.04 -0.00    -0.025    36.993
ATOM     22  C   UNL d   1      13.417   0.372 -15.810 -0.04 -0.00    -0.021    36.993
ATOM     23  C   UNL d   1      12.085   0.085 -16.125 -0.07 +0.02    +0.066    36.993
ATOM     24  C   UNL d   1      14.584   1.745 -13.973 -0.03 +0.00    +0.051    36.993
ATOM     25  N   UNL d   1       9.276  -0.469 -16.952 -0.08 -0.12    -0.248    36.993
ATOM     26  N   UNL d   1       7.183   0.501 -15.176 -0.11 -0.07    -0.248    36.993
ATOM     27  N   UNL d   1       9.149   1.654 -13.498 -0.12 -0.05    -0.248    36.993
ATOM     28  N   UNL d   1      11.255   0.698 -15.255 -0.07 -0.08    -0.248    36.993
ATOM     29 FE   UNL d   1       9.234   0.602 -15.213 -0.04 +0.00    +0.000    36.993
ATOM     30  O   UNL d   1       8.735   1.398 -16.454 -0.09 +0.00    +0.000    36.993
ATOM     31  O   UNL d   1       9.631   2.115 -15.374 -0.08 +0.00    +0.000    36.993
ATOM     32  C   UNL d   1      10.850  -2.084 -19.908 -0.07 +0.01    +0.052    36.993
ATOM     33  C   UNL d   1      10.841  -3.606 -20.015 -0.12 +0.03    +0.115    36.993
ATOM     34  C   UNL d   1      10.848  -4.278 -18.664 -0.17 +0.08    +0.139    36.993
ATOM     35  O   UNL d   1       9.815  -4.755 -18.222 -0.69 -0.54    -0.650    36.993
ATOM     36  O   UNL d   1      11.968  -4.340 -17.915 -0.12 -0.60    -0.776    36.993
ATOM     37  H   UNL d   1      12.456  -3.549 -17.658 +0.03 +0.14    +0.167    36.993
ATOM     38  C   UNL d   1      14.653  -0.027 -16.573 -0.02 +0.01    +0.052    36.993
ATOM     39  C   UNL d   1      15.063  -1.473 -16.301 -0.02 +0.01    +0.115    36.993
ATOM     40  C   UNL d   1      14.084  -2.191 -15.407 -0.10 +0.03    +0.139    36.993
ATOM     41  O   UNL d   1      13.997  -1.881 -14.230 -0.00 -0.10    -0.650    36.993
ATOM     42  O   UNL d   1      13.261  -3.140 -15.896 -0.37 -0.45    -0.776    36.993
ATOM     43  H   UNL d   1      13.574  -3.806 -16.520 +0.02 +0.06    +0.167    36.993
ATOM     44  C   UNL d   1       3.689   0.684 -13.737 -0.48 +0.00    +0.004    36.993
ATOM     45  C   UNL d   1       2.593   1.322 -14.146 -0.41 +0.00    +0.012    36.993
ATOM     46  C   UNL d   1      10.723   3.697 -10.826 -0.11 +0.00    +0.004    36.993
ATOM     47  C   UNL d   1      11.888   3.315 -10.288 -0.15 +0.00    +0.012    36.993
TER
ENDMDL
MODEL       88
USER    Run = 88
USER    Cluster Rank = 17
USER    Number of conformations in this cluster = 4
USER  
USER    RMSD from reference structure       = 36.937 A
USER  
USER    Estimated Free Energy of Binding    =   -5.81 kcal/mol  [=(1)+(2)+(3)-(4)]
USER    Estimated Inhibition Constant, Ki   =   55.52 uM (micromolar)  [Temperature = 298.15 K]
USER    
USER    (1) Final Intermolecular Energy     =   -8.79 kcal/mol
USER        vdW + Hbond + desolv Energy     =   -7.38 kcal/mol
USER        Electrostatic Energy            =   -1.41 kcal/mol
USER    (2) Final Total Internal Energy     =   -0.32 kcal/mol
USER    (3) Torsional Free Energy           =   +2.98 kcal/mol
USER    (4) Unbound System's Energy  [=(2)] =   -0.32 kcal/mol
USER    
USER    
USER  
USER    DPF = D:/Protein_go_brrr/autodock/final/mut_D99N/heme_O2/dock.dpf
USER    NEWDPF move	heme_O2_opt.pdbqt
USER    NEWDPF about	8.287000 34.468000 -0.670000
USER    NEWDPF tran0	19.591403 -3.333937 2.390572
USER    NEWDPF axisangle0	-0.537942 -0.238873 0.808430 -149.595055
USER    NEWDPF quaternion0	-0.519117 -0.230514 0.780139 -0.262231
USER    NEWDPF dihe0	49.38 99.77 61.80 39.95 105.49 36.86 26.76 2.49 31.60 14.90 
USER  
USER                              x       y       z    vdW   Elec        q     RMS 
ATOM      1  C   UNL d   1      20.839  -4.932   3.015 -0.15 +0.01    +0.064    36.937
ATOM      2  C   UNL d   1      17.471  -2.432   5.244 -0.22 -0.00    +0.064    36.937
ATOM      3  C   UNL d   1      16.749   0.260   1.329 -0.14 -0.00    +0.064    36.937
ATOM      4  C   UNL d   1      19.875  -2.616  -1.126 -0.19 -0.00    +0.064    36.937
ATOM      5  C   UNL d   1      19.981  -4.473   3.940 -0.14 +0.01    +0.066    36.937
ATOM      6  C   UNL d   1      19.889  -4.976   5.241 -0.14 -0.00    -0.021    36.937
ATOM      7  C   UNL d   1      18.884  -4.282   5.874 -0.10 -0.00    -0.025    36.937
ATOM      8  C   UNL d   1      18.423  -3.341   4.957 -0.16 +0.00    +0.066    36.937
ATOM      9  C   UNL d   1      18.396  -4.555   7.280 -0.15 +0.00    +0.051    36.937
ATOM     10  C   UNL d   1      16.963  -1.406   4.332 -0.21 -0.00    +0.066    36.937
ATOM     11  C   UNL d   1      16.094  -0.384   4.730 -0.24 +0.00    -0.021    36.937
ATOM     12  C   UNL d   1      15.888   0.413   3.620 -0.20 -0.00    +0.000    36.937
ATOM     13  C   UNL d   1      16.650  -0.188   2.580 -0.14 -0.00    +0.070    36.937
ATOM     14  C   UNL d   1      15.507  -0.162   6.119 -0.24 +0.00    +0.052    36.937
ATOM     15  C   UNL d   1      17.481  -0.338   0.239 -0.13 -0.01    +0.066    36.937
ATOM     16  C   UNL d   1      17.413   0.087  -1.088 -0.16 +0.00    -0.021    36.937
ATOM     17  C   UNL d   1      18.295  -0.719  -1.806 -0.20 -0.00    +0.000    36.937
ATOM     18  C   UNL d   1      18.845  -1.586  -0.852 -0.16 -0.01    +0.070    36.937
ATOM     19  C   UNL d   1      16.480   1.176  -1.555 -0.07 -0.01    +0.052    36.937
ATOM     20  C   UNL d   1      20.391  -3.492  -0.243 -0.18 -0.00    +0.066    36.937
ATOM     21  C   UNL d   1      21.373  -4.429  -0.556 -0.19 -0.00    -0.025    36.937
ATOM     22  C   UNL d   1      21.680  -5.079   0.618 -0.22 -0.00    -0.021    36.937
ATOM     23  C   UNL d   1      20.857  -4.526   1.605 -0.22 +0.00    +0.066    36.937
ATOM     24  C   UNL d   1      21.985  -4.691  -1.907 -0.19 +0.00    +0.051    36.937
ATOM     25  N   UNL d   1      19.054  -3.503   3.745 -0.11 -0.01    -0.248    36.937
ATOM     26  N   UNL d   1      17.297  -1.297   3.021 -0.12 +0.01    -0.248    36.937
ATOM     27  N   UNL d   1      18.284  -1.391   0.369 -0.07 +0.02    -0.248    36.937
ATOM     28  N   UNL d   1      20.044  -3.593   1.068 -0.12 +0.01    -0.248    36.937
ATOM     29 FE   UNL d   1      18.680  -2.452   2.035 -0.04 -0.00    +0.000    36.937
ATOM     30  O   UNL d   1      17.526  -3.411   2.448 -0.46 -0.00    +0.000    36.937
ATOM     31  O   UNL d   1      17.915  -3.266   0.928 -0.43 -0.00    +0.000    36.937
ATOM     32  C   UNL d   1      20.620  -6.156   5.828 -0.22 +0.02    +0.052    36.937
ATOM     33  C   UNL d   1      21.570  -5.763   6.954 -0.10 +0.03    +0.115    36.937
ATOM     34  C   UNL d   1      22.690  -6.757   7.135 -0.08 +0.08    +0.139    36.937
ATOM     35  O   UNL d   1      22.440  -7.952   7.143 +0.01 -0.51    -0.650    36.937
ATOM     36  O   UNL d   1      23.965  -6.356   7.318 -0.00 -0.47    -0.776    36.937
ATOM     37  H   UNL d   1      24.202  -5.689   7.974 +0.01 +0.06    +0.167    36.937
ATOM     38  C   UNL d   1      22.662  -6.212   0.764 -0.17 +0.01    +0.052    36.937
ATOM     39  C   UNL d   1      23.839  -5.849   1.666 -0.12 +0.04    +0.115    36.937
ATOM     40  C   UNL d   1      24.840  -6.971   1.787 -0.10 +0.08    +0.139    36.937
ATOM     41  O   UNL d   1      25.822  -6.834   2.499 -0.03 -0.40    -0.650    36.937
ATOM     42  O   UNL d   1      24.645  -8.148   1.162 -0.03 -0.43    -0.776    36.937
ATOM     43  H   UNL d   1      25.115  -8.372   0.350 +0.02 +0.06    +0.167    36.937
ATOM     44  C   UNL d   1      15.000   1.639   3.663 -0.21 +0.00    +0.004    36.937
ATOM     45  C   UNL d   1      13.931   1.903   2.913 -0.30 +0.00    +0.012    36.937
ATOM     46  C   UNL d   1      18.608  -0.775  -3.278 -0.31 -0.00    +0.004    36.937
ATOM     47  C   UNL d   1      18.619   0.232  -4.161 -0.25 -0.00    +0.012    36.937
TER
ENDMDL
MODEL       94
USER    Run = 94
USER    Cluster Rank = 18
USER    Number of conformations in this cluster = 1
USER  
USER    RMSD from reference structure       = 34.858 A
USER  
USER    Estimated Free Energy of Binding    =   -5.78 kcal/mol  [=(1)+(2)+(3)-(4)]
USER    Estimated Inhibition Constant, Ki   =   57.56 uM (micromolar)  [Temperature = 298.15 K]
USER    
USER    (1) Final Intermolecular Energy     =   -8.77 kcal/mol
USER        vdW + Hbond + desolv Energy     =   -7.38 kcal/mol
USER        Electrostatic Energy            =   -1.39 kcal/mol
USER    (2) Final Total Internal Energy     =   -0.60 kcal/mol
USER    (3) Torsional Free Energy           =   +2.98 kcal/mol
USER    (4) Unbound System's Energy  [=(2)] =   -0.60 kcal/mol
USER    
USER    
USER  
USER    DPF = D:/Protein_go_brrr/autodock/final/mut_D99N/heme_O2/dock.dpf
USER    NEWDPF move	heme_O2_opt.pdbqt
USER    NEWDPF about	8.287000 34.468000 -0.670000
USER    NEWDPF tran0	8.485375 1.972080 -14.693881
USER    NEWDPF axisangle0	-0.538960 0.117568 -0.834086 123.980621
USER    NEWDPF quaternion0	-0.475831 0.103797 -0.736388 0.469621
USER    NEWDPF dihe0	34.86 28.79 62.58 -31.73 109.26 103.03 54.73 -118.75 -158.54 113.74 
USER  
USER                              x       y       z    vdW   Elec        q     RMS 
ATOM      1  C   UNL d   1       7.725   1.020 -16.430 -0.09 +0.02    +0.064    34.858
ATOM      2  C   UNL d   1      11.993   0.958 -14.346 -0.09 +0.01    +0.064    34.858
ATOM      3  C   UNL d   1      10.479   4.001 -10.947 -0.13 +0.01    +0.064    34.858
ATOM      4  C   UNL d   1       5.950   3.698 -12.809 -0.01 +0.01    +0.064    34.858
ATOM      5  C   UNL d   1       9.009   0.753 -16.139 -0.11 +0.02    +0.066    34.858
ATOM      6  C   UNL d   1       9.829  -0.079 -16.906 -0.10 -0.01    -0.021    34.858
ATOM      7  C   UNL d   1      11.052  -0.132 -16.280 +0.01 -0.01    -0.025    34.858
ATOM      8  C   UNL d   1      10.960   0.708 -15.174 -0.10 +0.02    +0.066    34.858
ATOM      9  C   UNL d   1      12.219  -0.982 -16.731 -0.03 +0.03    +0.051    34.858
ATOM     10  C   UNL d   1      11.963   1.847 -13.183 -0.09 +0.01    +0.066    34.858
ATOM     11  C   UNL d   1      13.105   2.199 -12.455 -0.07 -0.00    -0.021    34.858
ATOM     12  C   UNL d   1      12.692   3.090 -11.481 -0.08 +0.00    +0.000    34.858
ATOM     13  C   UNL d   1      11.288   3.225 -11.668 -0.10 +0.01    +0.070    34.858
ATOM     14  C   UNL d   1      14.534   1.726 -12.694 -0.06 +0.00    +0.052    34.858
ATOM     15  C   UNL d   1       9.048   4.138 -11.082 -0.13 +0.01    +0.066    34.858
ATOM     16  C   UNL d   1       8.235   4.839 -10.192 -0.16 -0.00    -0.021    34.858
ATOM     17  C   UNL d   1       6.938   4.766 -10.702 -0.20 +0.00    +0.000    34.858
ATOM     18  C   UNL d   1       7.061   4.017 -11.881 -0.14 +0.01    +0.070    34.858
ATOM     19  C   UNL d   1       8.752   5.463  -8.920 -0.11 +0.01    +0.052    34.858
ATOM     20  C   UNL d   1       6.024   2.947 -13.925 -0.12 +0.01    +0.066    34.858
ATOM     21  C   UNL d   1       4.946   2.695 -14.769 -0.12 -0.00    -0.025    34.858
ATOM     22  C   UNL d   1       5.440   1.956 -15.821 -0.08 -0.00    -0.021    34.858
ATOM     23  C   UNL d   1       6.802   1.768 -15.569 -0.09 +0.01    +0.066    34.858
ATOM     24  C   UNL d   1       3.517   3.134 -14.580 -0.19 +0.01    +0.051    34.858
ATOM     25  N   UNL d   1       9.682   1.202 -15.051 -0.08 -0.07    -0.248    34.858
ATOM     26  N   UNL d   1      10.853   2.462 -12.703 -0.06 -0.04    -0.248    34.858
ATOM     27  N   UNL d   1       8.334   3.582 -12.056 -0.10 -0.04    -0.248    34.858
ATOM     28  N   UNL d   1       7.144   2.333 -14.393 -0.07 -0.04    -0.248    34.858
ATOM     29 FE   UNL d   1       8.983   2.399 -13.552 -0.03 +0.00    +0.000    34.858
ATOM     30  O   UNL d   1       9.306   0.945 -13.097 -0.23 +0.00    +0.000    34.858
ATOM     31  O   UNL d   1       8.026   1.673 -12.536 -0.39 +0.00    +0.000    34.858
ATOM     32  C   UNL d   1       9.441  -0.905 -18.106 -0.14 +0.02    +0.052    34.858
ATOM     33  C   UNL d   1       8.637  -2.147 -17.735 -0.25 +0.07    +0.115    34.858
ATOM     34  C   UNL d   1       9.224  -3.408 -18.320 -0.24 +0.11    +0.139    34.858
ATOM     35  O   UNL d   1       9.642  -3.404 -19.467 -0.06 -0.23    -0.650    34.858
ATOM     36  O   UNL d   1       9.274  -4.555 -17.612 -0.65 -1.01    -0.776    34.858
ATOM     37  H   UNL d   1       8.579  -4.803 -16.991 -0.35 +0.13    +0.167    34.858
ATOM     38  C   UNL d   1       4.628   1.409 -16.967 -0.09 +0.01    +0.052    34.858
ATOM     39  C   UNL d   1       5.128   0.044 -17.434 -0.17 +0.03    +0.115    34.858
ATOM     40  C   UNL d   1       5.071  -0.995 -16.343 -0.27 +0.06    +0.139    34.858
ATOM     41  O   UNL d   1       6.107  -1.450 -15.884 -0.20 -0.25    -0.650    34.858
ATOM     42  O   UNL d   1       3.895  -1.398 -15.826 -0.43 -0.39    -0.776    34.858
ATOM     43  H   UNL d   1       3.091  -1.421 -16.358 -0.41 +0.06    +0.167    34.858
ATOM     44  C   UNL d   1      13.659   3.705 -10.492 -0.06 +0.00    +0.004    34.858
ATOM     45  C   UNL d   1      13.623   3.638  -9.161 -0.10 +0.00    +0.012    34.858
ATOM     46  C   UNL d   1       5.632   5.277 -10.157 -0.22 +0.00    +0.004    34.858
ATOM     47  C   UNL d   1       5.215   5.293  -8.884 -0.39 +0.00    +0.012    34.858
TER
ENDMDL
MODEL       36
USER    Run = 36
USER    Cluster Rank = 19
USER    Number of conformations in this cluster = 2
USER  
USER    RMSD from reference structure       = 20.376 A
USER  
USER    Estimated Free Energy of Binding    =   -5.62 kcal/mol  [=(1)+(2)+(3)-(4)]
USER    Estimated Inhibition Constant, Ki   =   75.49 uM (micromolar)  [Temperature = 298.15 K]
USER    
USER    (1) Final Intermolecular Energy     =   -8.61 kcal/mol
USER        vdW + Hbond + desolv Energy     =   -7.41 kcal/mol
USER        Electrostatic Energy            =   -1.20 kcal/mol
USER    (2) Final Total Internal Energy     =   -1.68 kcal/mol
USER    (3) Torsional Free Energy           =   +2.98 kcal/mol
USER    (4) Unbound System's Energy  [=(2)] =   -1.68 kcal/mol
USER    
USER    
USER  
USER    DPF = D:/Protein_go_brrr/autodock/final/mut_D99N/heme_O2/dock.dpf
USER    NEWDPF move	heme_O2_opt.pdbqt
USER    NEWDPF about	8.287000 34.468000 -0.670000
USER    NEWDPF tran0	-5.163954 17.871771 8.183127
USER    NEWDPF axisangle0	0.619845 -0.444845 0.646455 174.487732
USER    NEWDPF quaternion0	0.619128 -0.444331 0.645707 0.048085
USER    NEWDPF dihe0	177.06 -68.63 17.99 -0.81 63.50 145.83 -93.67 3.86 -165.38 178.07 
USER  
USER                              x       y       z    vdW   Elec        q     RMS 
ATOM      1  C   UNL d   1      -5.704  19.067   6.516 -0.09 +0.01    +0.064    20.376
ATOM      2  C   UNL d   1      -1.519  18.078   8.534 -0.22 +0.00    +0.064    20.376
ATOM      3  C   UNL d   1      -3.665  15.367  11.872 -0.11 -0.02    +0.064    20.376
ATOM      4  C   UNL d   1      -7.926  15.989   9.521 -0.22 -0.02    +0.064    20.376
ATOM      5  C   UNL d   1      -4.390  19.018   6.791 -0.11 +0.01    +0.066    20.376
ATOM      6  C   UNL d   1      -3.412  19.700   6.063 -0.10 -0.00    -0.021    20.376
ATOM      7  C   UNL d   1      -2.196  19.380   6.619 -0.14 -0.00    -0.025    20.376
ATOM      8  C   UNL d   1      -2.469  18.549   7.703 -0.18 +0.01    +0.066    20.376
ATOM      9  C   UNL d   1      -0.854  19.842   6.093 -0.15 +0.01    +0.051    20.376
ATOM     10  C   UNL d   1      -1.747  17.223   9.699 -0.21 -0.00    +0.066    20.376
ATOM     11  C   UNL d   1      -0.747  16.897  10.622 -0.11 +0.00    -0.021    20.376
ATOM     12  C   UNL d   1      -1.350  16.130  11.602 -0.23 -0.00    +0.000    20.376
ATOM     13  C   UNL d   1      -2.712  16.019  11.206 -0.23 -0.01    +0.070    20.376
ATOM     14  C   UNL d   1       0.717  17.322  10.585 -0.06 +0.00    +0.052    20.376
ATOM     15  C   UNL d   1      -5.046  15.202  11.487 -0.19 -0.01    +0.066    20.376
ATOM     16  C   UNL d   1      -5.955  14.371  12.142 -0.24 +0.00    -0.021    20.376
ATOM     17  C   UNL d   1      -7.176  14.531  11.488 -0.26 -0.00    +0.000    20.376
ATOM     18  C   UNL d   1      -6.918  15.462  10.472 -0.22 -0.01    +0.070    20.376
ATOM     19  C   UNL d   1      -5.567  13.467  13.284 -0.35 -0.01    +0.052    20.376
ATOM     20  C   UNL d   1      -7.703  16.849   8.508 -0.15 -0.01    +0.066    20.376
ATOM     21  C   UNL d   1      -8.696  17.324   7.656 -0.13 +0.01    -0.025    20.376
ATOM     22  C   UNL d   1      -8.086  18.223   6.810 -0.12 -0.00    -0.021    20.376
ATOM     23  C   UNL d   1      -6.734  18.250   7.167 -0.12 +0.01    +0.066    20.376
ATOM     24  C   UNL d   1     -10.152  16.937   7.646 -0.04 -0.04    +0.051    20.376
ATOM     25  N   UNL d   1      -3.815  18.274   7.768 -0.10 -0.02    -0.248    20.376
ATOM     26  N   UNL d   1      -2.943  16.683  10.045 -0.16 +0.03    -0.248    20.376
ATOM     27  N   UNL d   1      -5.604  15.801  10.439 -0.13 +0.03    -0.248    20.376
ATOM     28  N   UNL d   1      -6.498  17.379   8.170 -0.10 +0.00    -0.248    20.376
ATOM     29 FE   UNL d   1      -4.735  17.032   9.102 -0.04 -0.00    +0.000    20.376
ATOM     30  O   UNL d   1      -3.836  16.290   8.070 -0.42 -0.00    +0.000    20.376
ATOM     31  O   UNL d   1      -5.221  15.668   8.489 -0.52 -0.00    +0.000    20.376
ATOM     32  C   UNL d   1      -3.595  20.512   4.807 -0.07 +0.01    +0.052    20.376
ATOM     33  C   UNL d   1      -3.654  19.652   3.548 -0.13 +0.03    +0.115    20.376
ATOM     34  C   UNL d   1      -5.036  19.107   3.288 -0.06 +0.08    +0.139    20.376
ATOM     35  O   UNL d   1      -5.375  18.052   3.799 -0.23 -0.53    -0.650    20.376
ATOM     36  O   UNL d   1      -5.903  19.748   2.476 +0.07 -0.52    -0.776    20.376
ATOM     37  H   UNL d   1      -6.775  19.389   2.274 +0.02 +0.17    +0.167    20.376
ATOM     38  C   UNL d   1      -8.758  18.963   5.682 -0.10 +0.01    +0.052    20.376
ATOM     39  C   UNL d   1      -8.913  18.100   4.431 -0.07 +0.05    +0.115    20.376
ATOM     40  C   UNL d   1      -9.526  18.859   3.280 -0.11 +0.05    +0.139    20.376
ATOM     41  O   UNL d   1     -10.699  19.192   3.330 +0.02 -0.10    -0.650    20.376
ATOM     42  O   UNL d   1      -8.786  19.222   2.215 +0.02 -0.47    -0.776    20.376
ATOM     43  H   UNL d   1      -8.071  19.865   2.292 +0.01 +0.09    +0.167    20.376
ATOM     44  C   UNL d   1      -0.579  15.591  12.788 -0.28 -0.00    +0.004    20.376
ATOM     45  C   UNL d   1      -0.961  14.654  13.655 -0.37 -0.00    +0.012    20.376
ATOM     46  C   UNL d   1      -8.506  13.858  11.700 -0.30 -0.00    +0.004    20.376
ATOM     47  C   UNL d   1      -8.793  12.826  12.504 -0.33 -0.00    +0.012    20.376
TER
ENDMDL
MODEL       63
USER    Run = 63
USER    Cluster Rank = 20
USER    Number of conformations in this cluster = 1
USER  
USER    RMSD from reference structure       = 17.456 A
USER  
USER    Estimated Free Energy of Binding    =   -5.58 kcal/mol  [=(1)+(2)+(3)-(4)]
USER    Estimated Inhibition Constant, Ki   =   80.74 uM (micromolar)  [Temperature = 298.15 K]
USER    
USER    (1) Final Intermolecular Energy     =   -8.57 kcal/mol
USER        vdW + Hbond + desolv Energy     =   -7.06 kcal/mol
USER        Electrostatic Energy            =   -1.51 kcal/mol
USER    (2) Final Total Internal Energy     =   -0.96 kcal/mol
USER    (3) Torsional Free Energy           =   +2.98 kcal/mol
USER    (4) Unbound System's Energy  [=(2)] =   -0.96 kcal/mol
USER    
USER    
USER  
USER    DPF = D:/Protein_go_brrr/autodock/final/mut_D99N/heme_O2/dock.dpf
USER    NEWDPF move	heme_O2_opt.pdbqt
USER    NEWDPF about	8.287000 34.468000 -0.670000
USER    NEWDPF tran0	-3.360079 18.530000 5.131506
USER    NEWDPF axisangle0	0.898555 0.433685 0.067199 27.724477
USER    NEWDPF quaternion0	0.215283 0.103906 0.016100 0.970875
USER    NEWDPF dihe0	155.34 -119.57 -108.29 139.04 -128.16 -136.82 -59.26 -24.57 -144.91 -27.72 
USER  
USER                              x       y       z    vdW   Elec        q     RMS 
ATOM      1  C   UNL d   1      -4.987  18.714   3.783 -0.18 +0.04    +0.064    17.456
ATOM      2  C   UNL d   1      -4.768  17.819   8.442 -0.14 +0.00    +0.064    17.456
ATOM      3  C   UNL d   1       0.034  17.989   8.343 -0.22 +0.01    +0.064    17.456
ATOM      4  C   UNL d   1      -0.194  19.383   3.645 -0.20 +0.01    +0.064    17.456
ATOM      5  C   UNL d   1      -5.319  18.458   5.059 -0.22 +0.03    +0.066    17.456
ATOM      6  C   UNL d   1      -6.633  18.305   5.510 -0.15 -0.01    -0.021    17.456
ATOM      7  C   UNL d   1      -6.573  18.089   6.867 -0.16 -0.00    -0.025    17.456
ATOM      8  C   UNL d   1      -5.221  18.068   7.199 -0.18 +0.01    +0.066    17.456
ATOM      9  C   UNL d   1      -7.775  17.944   7.774 -0.14 -0.00    +0.051    17.456
ATOM     10  C   UNL d   1      -3.362  17.761   8.847 -0.18 -0.00    +0.066    17.456
ATOM     11  C   UNL d   1      -2.942  17.338  10.113 -0.17 +0.00    -0.021    17.456
ATOM     12  C   UNL d   1      -1.560  17.363  10.098 -0.21 -0.00    +0.000    17.456
ATOM     13  C   UNL d   1      -1.207  17.822   8.798 -0.22 +0.00    +0.070    17.456
ATOM     14  C   UNL d   1      -3.822  16.901  11.278 -0.13 -0.01    +0.052    17.456
ATOM     15  C   UNL d   1       0.433  18.485   7.047 -0.26 +0.01    +0.066    17.456
ATOM     16  C   UNL d   1       1.744  18.793   6.688 -0.22 -0.00    -0.021    17.456
ATOM     17  C   UNL d   1       1.704  19.194   5.353 -0.20 +0.00    +0.000    17.456
ATOM     18  C   UNL d   1       0.352  19.097   4.992 -0.20 +0.01    +0.070    17.456
ATOM     19  C   UNL d   1       2.899  18.731   7.657 -0.15 +0.00    +0.052    17.456
ATOM     20  C   UNL d   1      -1.490  19.342   3.277 -0.16 +0.01    +0.066    17.456
ATOM     21  C   UNL d   1      -1.943  19.606   1.987 -0.13 -0.01    -0.025    17.456
ATOM     22  C   UNL d   1      -3.303  19.393   2.001 -0.14 -0.01    -0.021    17.456
ATOM     23  C   UNL d   1      -3.633  19.024   3.309 -0.14 +0.03    +0.066    17.456
ATOM     24  C   UNL d   1      -1.120  20.041   0.802 -0.08 +0.01    +0.051    17.456
ATOM     25  N   UNL d   1      -4.452  18.360   6.096 -0.13 -0.05    -0.248    17.456
ATOM     26  N   UNL d   1      -2.310  18.066   8.046 -0.16 -0.02    -0.248    17.456
ATOM     27  N   UNL d   1      -0.414  18.738   6.053 -0.19 -0.04    -0.248    17.456
ATOM     28  N   UNL d   1      -2.535  19.038   4.091 +0.09 -0.07    -0.248    17.456
ATOM     29 FE   UNL d   1      -2.420  18.557   6.054 -0.06 +0.00    +0.000    17.456
ATOM     30  O   UNL d   1      -3.145  19.698   6.825 -0.11 +0.00    +0.000    17.456
ATOM     31  O   UNL d   1      -1.915  20.038   5.902 -0.13 +0.00    +0.000    17.456
ATOM     32  C   UNL d   1      -7.906  18.490   4.725 -0.04 +0.02    +0.052    17.456
ATOM     33  C   UNL d   1      -8.067  19.908   4.184 -0.08 +0.04    +0.115    17.456
ATOM     34  C   UNL d   1      -8.123  19.945   2.677 -0.05 +0.07    +0.139    17.456
ATOM     35  O   UNL d   1      -9.171  19.688   2.106 -0.01 -0.27    -0.650    17.456
ATOM     36  O   UNL d   1      -7.030  20.230   1.939 +0.01 -0.44    -0.776    17.456
ATOM     37  H   UNL d   1      -6.939  19.935   1.026 +0.01 +0.13    +0.167    17.456
ATOM     38  C   UNL d   1      -4.236  19.598   0.836 -0.10 +0.02    +0.052    17.456
ATOM     39  C   UNL d   1      -4.106  18.497  -0.214 -0.13 +0.07    +0.115    17.456
ATOM     40  C   UNL d   1      -5.368  18.317  -1.021 +0.09 +0.13    +0.139    17.456
ATOM     41  O   UNL d   1      -6.288  19.108  -0.890 -0.55 -0.55    -0.650    17.456
ATOM     42  O   UNL d   1      -5.481  17.325  -1.924 -0.59 -0.78    -0.776    17.456
ATOM     43  H   UNL d   1      -5.598  17.509  -2.864 +0.03 +0.11    +0.167    17.456
ATOM     44  C   UNL d   1      -0.735  16.958  11.302 -0.19 -0.00    +0.004    17.456
ATOM     45  C   UNL d   1      -0.616  15.745  11.842 -0.27 -0.00    +0.012    17.456
ATOM     46  C   UNL d   1       2.789  19.698   4.439 -0.15 +0.00    +0.004    17.456
ATOM     47  C   UNL d   1       3.064  19.311   3.187 -0.17 +0.00    +0.012    17.456
TER
ENDMDL
MODEL       53
USER    Run = 53
USER    Cluster Rank = 21
USER    Number of conformations in this cluster = 2
USER  
USER    RMSD from reference structure       = 16.031 A
USER  
USER    Estimated Free Energy of Binding    =   -5.58 kcal/mol  [=(1)+(2)+(3)-(4)]
USER    Estimated Inhibition Constant, Ki   =   81.19 uM (micromolar)  [Temperature = 298.15 K]
USER    
USER    (1) Final Intermolecular Energy     =   -8.56 kcal/mol
USER        vdW + Hbond + desolv Energy     =   -7.07 kcal/mol
USER        Electrostatic Energy            =   -1.49 kcal/mol
USER    (2) Final Total Internal Energy     =   -2.16 kcal/mol
USER    (3) Torsional Free Energy           =   +2.98 kcal/mol
USER    (4) Unbound System's Energy  [=(2)] =   -2.16 kcal/mol
USER    
USER    
USER  
USER    DPF = D:/Protein_go_brrr/autodock/final/mut_D99N/heme_O2/dock.dpf
USER    NEWDPF move	heme_O2_opt.pdbqt
USER    NEWDPF about	8.287000 34.468000 -0.670000
USER    NEWDPF tran0	0.556309 17.661913 0.668522
USER    NEWDPF axisangle0	-0.872237 0.487617 -0.037849 -84.557127
USER    NEWDPF quaternion0	-0.586785 0.328037 -0.025462 -0.739883
USER    NEWDPF dihe0	137.37 -32.84 -48.05 -80.79 156.17 -168.05 -56.22 -11.20 -158.43 130.69 
USER  
USER                              x       y       z    vdW   Elec        q     RMS 
ATOM      1  C   UNL d   1      -1.530  17.958   0.911 -0.17 +0.01    +0.064    16.031
ATOM      2  C   UNL d   1       2.248  19.772   3.145 -0.13 +0.00    +0.064    16.031
ATOM      3  C   UNL d   1       5.227  17.159   0.427 -0.15 +0.00    +0.064    16.031
ATOM      4  C   UNL d   1       1.370  15.645  -2.200 -0.23 -0.00    +0.064    16.031
ATOM      5  C   UNL d   1      -0.746  18.666   1.739 -0.22 +0.01    +0.066    16.031
ATOM      6  C   UNL d   1      -1.228  19.541   2.716 -0.17 -0.00    -0.021    16.031
ATOM      7  C   UNL d   1      -0.134  20.100   3.335 -0.14 -0.00    -0.025    16.031
ATOM      8  C   UNL d   1       0.986  19.514   2.751 -0.18 +0.01    +0.066    16.031
ATOM      9  C   UNL d   1      -0.197  21.164   4.409 -0.06 +0.00    +0.051    16.031
ATOM     10  C   UNL d   1       3.460  19.172   2.587 -0.12 +0.00    +0.066    16.031
ATOM     11  C   UNL d   1       4.733  19.351   3.141 -0.10 -0.00    -0.021    16.031
ATOM     12  C   UNL d   1       5.603  18.590   2.382 -0.10 +0.00    +0.000    16.031
ATOM     13  C   UNL d   1       4.796  17.987   1.378 -0.12 +0.00    +0.070    16.031
ATOM     14  C   UNL d   1       5.099  20.189   4.360 -0.04 +0.00    +0.052    16.031
ATOM     15  C   UNL d   1       4.449  16.556  -0.628 -0.12 +0.00    +0.066    16.031
ATOM     16  C   UNL d   1       4.986  15.829  -1.691 -0.13 -0.00    -0.021    16.031
ATOM     17  C   UNL d   1       3.905  15.388  -2.454 -0.18 -0.00    +0.000    16.031
ATOM     18  C   UNL d   1       2.774  15.884  -1.790 -0.18 -0.00    +0.070    16.031
ATOM     19  C   UNL d   1       6.469  15.669  -1.911 -0.07 +0.00    +0.052    16.031
ATOM     20  C   UNL d   1       0.264  16.141  -1.612 -0.23 +0.00    +0.066    16.031
ATOM     21  C   UNL d   1      -1.034  15.867  -2.034 -0.26 -0.00    -0.025    16.031
ATOM     22  C   UNL d   1      -1.874  16.495  -1.142 -0.24 -0.00    -0.021    16.031
ATOM     23  C   UNL d   1      -1.054  17.147  -0.217 -0.18 +0.01    +0.066    16.031
ATOM     24  C   UNL d   1      -1.451  15.049  -3.229 -0.31 +0.00    +0.051    16.031
ATOM     25  N   UNL d   1       0.610  18.680   1.724 -0.19 -0.03    -0.248    16.031
ATOM     26  N   UNL d   1       3.494  18.350   1.507 -0.07 -0.01    -0.248    16.031
ATOM     27  N   UNL d   1       3.126  16.652  -0.728 -0.10 -0.01    -0.248    16.031
ATOM     28  N   UNL d   1       0.245  16.967  -0.532 -0.16 -0.01    -0.248    16.031
ATOM     29 FE   UNL d   1       1.860  17.652   0.478 -0.06 +0.00    +0.000    16.031
ATOM     30  O   UNL d   1       1.885  19.193   0.262 -0.13 +0.00    +0.000    16.031
ATOM     31  O   UNL d   1       1.937  18.230  -0.983 -0.14 +0.00    +0.000    16.031
ATOM     32  C   UNL d   1      -2.657  19.944   2.970 -0.12 +0.01    +0.052    16.031
ATOM     33  C   UNL d   1      -3.193  20.918   1.924 -0.04 +0.02    +0.115    16.031
ATOM     34  C   UNL d   1      -4.413  20.385   1.215 -0.06 +0.05    +0.139    16.031
ATOM     35  O   UNL d   1      -4.909  19.330   1.577 +0.00 -0.45    -0.650    16.031
ATOM     36  O   UNL d   1      -4.957  21.037   0.166 +0.02 -0.22    -0.776    16.031
ATOM     37  H   UNL d   1      -5.263  20.572  -0.621 +0.01 +0.06    +0.167    16.031
ATOM     38  C   UNL d   1      -3.379  16.517  -1.220 -0.29 +0.03    +0.052    16.031
ATOM     39  C   UNL d   1      -3.944  17.935  -1.157 -0.14 +0.06    +0.115    16.031
ATOM     40  C   UNL d   1      -5.405  17.990  -1.529 -0.07 +0.12    +0.139    16.031
ATOM     41  O   UNL d   1      -5.886  17.111  -2.225 -0.77 -0.66    -0.650    16.031
ATOM     42  O   UNL d   1      -6.205  18.968  -1.064 -0.44 -0.66    -0.776    16.031
ATOM     43  H   UNL d   1      -6.047  19.385  -0.208 +0.01 +0.15    +0.167    16.031
ATOM     44  C   UNL d   1       7.085  18.522   2.685 -0.05 +0.00    +0.004    16.031
ATOM     45  C   UNL d   1       7.837  17.436   2.854 -0.06 +0.00    +0.012    16.031
ATOM     46  C   UNL d   1       3.857  14.614  -3.744 -0.23 -0.00    +0.004    16.031
ATOM     47  C   UNL d   1       3.892  15.088  -4.996 -0.15 -0.00    +0.012    16.031
TER
ENDMDL
MODEL       96
USER    Run = 96
USER    Cluster Rank = 22
USER    Number of conformations in this cluster = 1
USER  
USER    RMSD from reference structure       = 36.842 A
USER  
USER    Estimated Free Energy of Binding    =   -5.58 kcal/mol  [=(1)+(2)+(3)-(4)]
USER    Estimated Inhibition Constant, Ki   =   81.27 uM (micromolar)  [Temperature = 298.15 K]
USER    
USER    (1) Final Intermolecular Energy     =   -8.56 kcal/mol
USER        vdW + Hbond + desolv Energy     =   -4.50 kcal/mol
USER        Electrostatic Energy            =   -4.06 kcal/mol
USER    (2) Final Total Internal Energy     =   -1.85 kcal/mol
USER    (3) Torsional Free Energy           =   +2.98 kcal/mol
USER    (4) Unbound System's Energy  [=(2)] =   -1.85 kcal/mol
USER    
USER    
USER  
USER    DPF = D:/Protein_go_brrr/autodock/final/mut_D99N/heme_O2/dock.dpf
USER    NEWDPF move	heme_O2_opt.pdbqt
USER    NEWDPF about	8.287000 34.468000 -0.670000
USER    NEWDPF tran0	0.257345 2.426406 -18.935298
USER    NEWDPF axisangle0	-0.892704 0.238118 -0.382595 88.936321
USER    NEWDPF quaternion0	-0.625351 0.166804 -0.268013 0.713640
USER    NEWDPF dihe0	9.58 95.42 33.27 -90.18 71.82 -18.04 162.53 136.07 -163.06 -179.98 
USER  
USER                              x       y       z    vdW   Elec        q     RMS 
ATOM      1  C   UNL d   1      -1.674   2.931 -19.654 -0.02 +0.04    +0.064    36.842
ATOM      2  C   UNL d   1       1.239  -0.707 -20.569 -0.17 +0.04    +0.064    36.842
ATOM      3  C   UNL d   1       4.560   1.083 -17.591 -0.10 +0.02    +0.064    36.842
ATOM      4  C   UNL d   1       1.380   4.579 -16.277 +0.03 +0.02    +0.064    36.842
ATOM      5  C   UNL d   1      -1.153   1.795 -20.144 -0.05 +0.05    +0.066    36.842
ATOM      6  C   UNL d   1      -1.799   0.976 -21.074 -0.07 -0.02    -0.021    36.842
ATOM      7  C   UNL d   1      -0.975  -0.101 -21.307 -0.11 -0.02    -0.025    36.842
ATOM      8  C   UNL d   1       0.173   0.116 -20.550 -0.13 +0.05    +0.066    36.842
ATOM      9  C   UNL d   1      -1.317  -1.276 -22.196 -0.13 +0.03    +0.051    36.842
ATOM     10  C   UNL d   1       2.479  -0.520 -19.814 -0.16 +0.02    +0.066    36.842
ATOM     11  C   UNL d   1       3.617  -1.315 -19.995 -0.22 -0.01    -0.021    36.842
ATOM     12  C   UNL d   1       4.592  -0.803 -19.158 -0.20 +0.00    +0.000    36.842
ATOM     13  C   UNL d   1       3.976   0.291 -18.490 -0.13 +0.02    +0.070    36.842
ATOM     14  C   UNL d   1       3.777  -2.495 -20.947 -0.09 +0.01    +0.052    36.842
ATOM     15  C   UNL d   1       3.961   2.178 -16.867 -0.05 +0.02    +0.066    36.842
ATOM     16  C   UNL d   1       4.576   2.864 -15.820 -0.07 -0.00    -0.021    36.842
ATOM     17  C   UNL d   1       3.688   3.865 -15.429 -0.09 +0.00    +0.000    36.842
ATOM     18  C   UNL d   1       2.583   3.714 -16.279 -0.07 +0.02    +0.070    36.842
ATOM     19  C   UNL d   1       5.919   2.472 -15.257 -0.10 +0.01    +0.052    36.842
ATOM     20  C   UNL d   1       0.285   4.436 -17.049 -0.07 +0.02    +0.066    36.842
ATOM     21  C   UNL d   1      -0.811   5.294 -17.015 -0.08 -0.01    -0.025    36.842
ATOM     22  C   UNL d   1      -1.679   4.856 -17.989 -0.04 -0.01    -0.021    36.842
ATOM     23  C   UNL d   1      -1.087   3.731 -18.572 -0.02 +0.04    +0.066    36.842
ATOM     24  C   UNL d   1      -1.021   6.470 -16.096 -0.11 +0.01    +0.051    36.842
ATOM     25  N   UNL d   1       0.035   1.250 -19.784 -0.07 -0.21    -0.248    36.842
ATOM     26  N   UNL d   1       2.689   0.453 -18.892 -0.08 -0.09    -0.248    36.842
ATOM     27  N   UNL d   1       2.735   2.640 -17.094 -0.03 -0.08    -0.248    36.842
ATOM     28  N   UNL d   1       0.087   3.453 -17.967 -0.02 -0.12    -0.248    36.842
ATOM     29 FE   UNL d   1       1.380   1.965 -18.424 -0.02 +0.00    +0.000    36.842
ATOM     30  O   UNL d   1       0.690   0.640 -17.987 -0.45 +0.00    +0.000    36.842
ATOM     31  O   UNL d   1       0.950   1.772 -16.923 -0.23 +0.00    +0.000    36.842
ATOM     32  C   UNL d   1      -3.195   1.123 -21.621 -0.04 +0.04    +0.052    36.842
ATOM     33  C   UNL d   1      -4.265   0.617 -20.659 -0.10 +0.14    +0.115    36.842
ATOM     34  C   UNL d   1      -3.706  -0.325 -19.621 -0.13 +0.24    +0.139    36.842
ATOM     35  O   UNL d   1      -3.487  -1.488 -19.918 -0.30 -1.01    -0.650    36.842
ATOM     36  O   UNL d   1      -3.467   0.083 -18.357 -0.13 -1.98    -0.776    36.842
ATOM     37  H   UNL d   1      -3.769   0.938 -18.031 +0.06 +0.36    +0.167    36.842
ATOM     38  C   UNL d   1      -3.030   5.450 -18.294 -0.04 +0.02    +0.052    36.842
ATOM     39  C   UNL d   1      -4.096   5.018 -17.289 -0.13 +0.08    +0.115    36.842
ATOM     40  C   UNL d   1      -4.043   3.540 -16.992 -0.05 +0.17    +0.139    36.842
ATOM     41  O   UNL d   1      -3.965   3.156 -15.836 -0.01 -0.65    -0.650    36.842
ATOM     42  O   UNL d   1      -4.132   2.628 -17.980 +0.13 -1.59    -0.776    36.842
ATOM     43  H   UNL d   1      -3.347   2.213 -18.356 +0.03 +0.26    +0.167    36.842
ATOM     44  C   UNL d   1       5.981  -1.401 -19.082 -0.08 +0.00    +0.004    36.842
ATOM     45  C   UNL d   1       6.814  -1.407 -18.042 -0.29 +0.00    +0.012    36.842
ATOM     46  C   UNL d   1       3.768   4.879 -14.319 -0.13 +0.00    +0.004    36.842
ATOM     47  C   UNL d   1       3.230   4.812 -13.095 -0.17 +0.00    +0.012    36.842
TER
ENDMDL
MODEL       10
USER    Run = 10
USER    Cluster Rank = 23
USER    Number of conformations in this cluster = 1
USER  
USER    RMSD from reference structure       = 23.639 A
USER  
USER    Estimated Free Energy of Binding    =   -5.52 kcal/mol  [=(1)+(2)+(3)-(4)]
USER    Estimated Inhibition Constant, Ki   =   89.79 uM (micromolar)  [Temperature = 298.15 K]
USER    
USER    (1) Final Intermolecular Energy     =   -8.50 kcal/mol
USER        vdW + Hbond + desolv Energy     =   -6.66 kcal/mol
USER        Electrostatic Energy            =   -1.85 kcal/mol
USER    (2) Final Total Internal Energy     =   -1.25 kcal/mol
USER    (3) Torsional Free Energy           =   +2.98 kcal/mol
USER    (4) Unbound System's Energy  [=(2)] =   -1.25 kcal/mol
USER    
USER    
USER  
USER    DPF = D:/Protein_go_brrr/autodock/final/mut_D99N/heme_O2/dock.dpf
USER    NEWDPF move	heme_O2_opt.pdbqt
USER    NEWDPF about	8.287000 34.468000 -0.670000
USER    NEWDPF tran0	-9.212841 16.035758 -6.503318
USER    NEWDPF axisangle0	-0.700214 -0.186962 0.689018 112.468579
USER    NEWDPF quaternion0	-0.582100 -0.155424 0.572792 0.555798
USER    NEWDPF dihe0	139.34 -72.75 -61.14 -101.65 -99.29 82.02 -52.88 72.50 179.76 -152.58 
USER  
USER                              x       y       z    vdW   Elec        q     RMS 
ATOM      1  C   UNL d   1      -8.878  17.347  -4.870 -0.04 +0.01    +0.064    23.639
ATOM      2  C   UNL d   1     -12.592  14.663  -6.120 -0.18 -0.00    +0.064    23.639
ATOM      3  C   UNL d   1     -10.281  13.130 -10.045 -0.15 -0.01    +0.064    23.639
ATOM      4  C   UNL d   1      -6.275  15.515  -8.518 -0.13 +0.00    +0.064    23.639
ATOM      5  C   UNL d   1     -10.076  16.741  -4.889 -0.04 +0.01    +0.066    23.639
ATOM      6  C   UNL d   1     -11.069  16.939  -3.925 -0.06 -0.00    -0.021    23.639
ATOM      7  C   UNL d   1     -12.128  16.130  -4.262 -0.12 -0.00    -0.025    23.639
ATOM      8  C   UNL d   1     -11.772  15.496  -5.449 -0.12 -0.00    +0.066    23.639
ATOM      9  C   UNL d   1     -13.393  15.974  -3.446 -0.16 -0.00    +0.051    23.639
ATOM     10  C   UNL d   1     -12.283  13.987  -7.381 -0.18 -0.01    +0.066    23.639
ATOM     11  C   UNL d   1     -13.228  13.265  -8.118 -0.23 +0.00    -0.021    23.639
ATOM     12  C   UNL d   1     -12.585  12.829  -9.262 -0.27 -0.00    +0.000    23.639
ATOM     13  C   UNL d   1     -11.252  13.312  -9.150 -0.21 -0.01    +0.070    23.639
ATOM     14  C   UNL d   1     -14.690  13.023  -7.759 -0.27 -0.01    +0.052    23.639
ATOM     15  C   UNL d   1      -8.910  13.571  -9.952 -0.23 -0.01    +0.066    23.639
ATOM     16  C   UNL d   1      -7.901  13.209 -10.843 -0.27 +0.00    -0.021    23.639
ATOM     17  C   UNL d   1      -6.749  13.877 -10.428 -0.18 -0.00    +0.000    23.639
ATOM     18  C   UNL d   1      -7.148  14.607  -9.300 -0.14 -0.00    +0.070    23.639
ATOM     19  C   UNL d   1      -8.110  12.225 -11.967 -0.20 -0.01    +0.052    23.639
ATOM     20  C   UNL d   1      -6.613  16.197  -7.407 -0.12 +0.00    +0.066    23.639
ATOM     21  C   UNL d   1      -5.753  17.052  -6.723 -0.02 -0.00    -0.025    23.639
ATOM     22  C   UNL d   1      -6.486  17.604  -5.697 -0.07 -0.00    -0.021    23.639
ATOM     23  C   UNL d   1      -7.766  17.049  -5.781 -0.08 +0.01    +0.066    23.639
ATOM     24  C   UNL d   1      -4.303  17.325  -7.032 -0.08 +0.01    +0.051    23.639
ATOM     25  N   UNL d   1     -10.483  15.823  -5.800 -0.03 -0.01    -0.248    23.639
ATOM     26  N   UNL d   1     -11.076  14.011  -8.000 -0.10 +0.02    -0.248    23.639
ATOM     27  N   UNL d   1      -8.442  14.352  -8.981 -0.10 +0.00    -0.248    23.639
ATOM     28  N   UNL d   1      -7.827  16.161  -6.795 -0.07 -0.02    -0.248    23.639
ATOM     29 FE   UNL d   1      -9.438  15.093  -7.395 -0.03 +0.00    +0.000    23.639
ATOM     30  O   UNL d   1      -9.700  14.038  -6.280 -0.35 +0.00    +0.000    23.639
ATOM     31  O   UNL d   1      -8.307  14.068  -7.015 -0.38 +0.00    +0.000    23.639
ATOM     32  C   UNL d   1     -10.977  17.752  -2.659 -0.04 +0.01    +0.052    23.639
ATOM     33  C   UNL d   1     -10.637  16.907  -1.436 -0.11 +0.03    +0.115    23.639
ATOM     34  C   UNL d   1      -9.417  17.413  -0.708 -0.09 +0.09    +0.139    23.639
ATOM     35  O   UNL d   1      -9.542  17.936   0.388 -0.02 -0.42    -0.650    23.639
ATOM     36  O   UNL d   1      -8.186  17.328  -1.254 +0.02 -0.79    -0.776    23.639
ATOM     37  H   UNL d   1      -7.542  18.041  -1.176 +0.01 +0.18    +0.167    23.639
ATOM     38  C   UNL d   1      -5.960  18.560  -4.657 -0.05 +0.01    +0.052    23.639
ATOM     39  C   UNL d   1      -4.679  18.054  -3.996 -0.03 +0.04    +0.115    23.639
ATOM     40  C   UNL d   1      -4.901  17.620  -2.568 -0.05 +0.09    +0.139    23.639
ATOM     41  O   UNL d   1      -4.128  17.985  -1.697 -0.00 -0.34    -0.650    23.639
ATOM     42  O   UNL d   1      -5.969  16.875  -2.226 -0.76 -0.87    -0.776    23.639
ATOM     43  H   UNL d   1      -6.862  17.240  -2.232 +0.03 +0.16    +0.167    23.639
ATOM     44  C   UNL d   1     -13.295  12.012 -10.321 -0.32 -0.00    +0.004    23.639
ATOM     45  C   UNL d   1     -13.568  12.360 -11.578 -0.27 -0.01    +0.012    23.639
ATOM     46  C   UNL d   1      -5.339  13.837 -10.954 -0.15 -0.00    +0.004    23.639
ATOM     47  C   UNL d   1      -4.260  13.279 -10.391 -0.20 -0.00    +0.012    23.639
TER
ENDMDL
MODEL       17
USER    Run = 17
USER    Cluster Rank = 24
USER    Number of conformations in this cluster = 1
USER  
USER    RMSD from reference structure       = 39.741 A
USER  
USER    Estimated Free Energy of Binding    =   -5.44 kcal/mol  [=(1)+(2)+(3)-(4)]
USER    Estimated Inhibition Constant, Ki   =  102.25 uM (micromolar)  [Temperature = 298.15 K]
USER    
USER    (1) Final Intermolecular Energy     =   -8.43 kcal/mol
USER        vdW + Hbond + desolv Energy     =   -5.80 kcal/mol
USER        Electrostatic Energy            =   -2.63 kcal/mol
USER    (2) Final Total Internal Energy     =   -0.72 kcal/mol
USER    (3) Torsional Free Energy           =   +2.98 kcal/mol
USER    (4) Unbound System's Energy  [=(2)] =   -0.72 kcal/mol
USER    
USER    
USER  
USER    DPF = D:/Protein_go_brrr/autodock/final/mut_D99N/heme_O2/dock.dpf
USER    NEWDPF move	heme_O2_opt.pdbqt
USER    NEWDPF about	8.287000 34.468000 -0.670000
USER    NEWDPF tran0	2.945080 -0.279059 -20.666661
USER    NEWDPF axisangle0	-0.802467 0.257951 -0.538059 119.333253
USER    NEWDPF quaternion0	-0.692611 0.222638 -0.464399 0.505030
USER    NEWDPF dihe0	-156.62 -18.70 102.54 -75.30 -106.51 96.99 -180.00 -74.08 -154.76 -180.00 
USER  
USER                              x       y       z    vdW   Elec        q     RMS 
ATOM      1  C   UNL d   1       1.264  -0.090 -21.947 -0.05 +0.02    +0.064    39.741
ATOM      2  C   UNL d   1       5.487  -2.195 -22.487 -0.11 +0.01    +0.064    39.741
ATOM      3  C   UNL d   1       6.849  -0.800 -18.095 -0.21 +0.02    +0.064    39.741
ATOM      4  C   UNL d   1       2.332   0.960 -17.342 -0.08 +0.03    +0.064    39.741
ATOM      5  C   UNL d   1       2.301  -0.778 -22.451 -0.04 +0.02    +0.066    39.741
ATOM      6  C   UNL d   1       2.319  -1.339 -23.732 -0.03 -0.00    -0.021    39.741
ATOM      7  C   UNL d   1       3.525  -1.986 -23.873 -0.04 -0.00    -0.025    39.741
ATOM      8  C   UNL d   1       4.229  -1.761 -22.694 -0.08 +0.01    +0.066    39.741
ATOM      9  C   UNL d   1       3.935  -2.796 -25.083 -0.03 +0.00    +0.051    39.741
ATOM     10  C   UNL d   1       6.285  -1.971 -21.281 -0.11 +0.01    +0.066    39.741
ATOM     11  C   UNL d   1       7.641  -2.301 -21.183 -0.12 -0.00    -0.021    39.741
ATOM     12  C   UNL d   1       8.056  -1.890 -19.930 -0.18 +0.00    +0.000    39.741
ATOM     13  C   UNL d   1       6.901  -1.331 -19.316 -0.14 +0.02    +0.070    39.741
ATOM     14  C   UNL d   1       8.511  -2.956 -22.249 -0.14 +0.00    +0.052    39.741
ATOM     15  C   UNL d   1       5.692  -0.256 -17.425 -0.18 +0.02    +0.066    39.741
ATOM     16  C   UNL d   1       5.665   0.134 -16.086 -0.22 -0.01    -0.021    39.741
ATOM     17  C   UNL d   1       4.386   0.639 -15.849 -0.21 +0.00    +0.000    39.741
ATOM     18  C   UNL d   1       3.721   0.518 -17.077 -0.15 +0.02    +0.070    39.741
ATOM     19  C   UNL d   1       6.831  -0.057 -15.150 -0.13 +0.02    +0.052    39.741
ATOM     20  C   UNL d   1       1.649   0.820 -18.496 -0.06 +0.04    +0.066    39.741
ATOM     21  C   UNL d   1       0.347   1.272 -18.692 -0.13 -0.02    -0.025    39.741
ATOM     22  C   UNL d   1       0.036   1.005 -20.006 -0.10 -0.02    -0.021    39.741
ATOM     23  C   UNL d   1       1.158   0.382 -20.561 -0.10 +0.03    +0.066    39.741
ATOM     24  C   UNL d   1      -0.555   1.921 -17.675 -0.16 +0.06    +0.051    39.741
ATOM     25  N   UNL d   1       3.449  -1.073 -21.793 -0.04 -0.05    -0.248    39.741
ATOM     26  N   UNL d   1       5.827  -1.389 -20.143 -0.10 -0.06    -0.248    39.741
ATOM     27  N   UNL d   1       4.504  -0.096 -18.001 -0.11 -0.07    -0.248    39.741
ATOM     28  N   UNL d   1       2.120   0.230 -19.627 -0.09 -0.11    -0.248    39.741
ATOM     29 FE   UNL d   1       3.960  -0.573 -19.880 -0.03 +0.00    +0.000    39.741
ATOM     30  O   UNL d   1       3.743  -2.099 -20.094 -0.25 +0.00    +0.000    39.741
ATOM     31  O   UNL d   1       3.227  -1.414 -18.773 -0.35 +0.00    +0.000    39.741
ATOM     32  C   UNL d   1       1.196  -1.385 -24.735 -0.02 +0.01    +0.052    39.741
ATOM     33  C   UNL d   1       0.077  -2.339 -24.328 -0.05 +0.02    +0.115    39.741
ATOM     34  C   UNL d   1       0.377  -3.060 -23.037 -0.11 +0.03    +0.139    39.741
ATOM     35  O   UNL d   1      -0.161  -2.695 -22.004 -0.03 -0.26    -0.650    39.741
ATOM     36  O   UNL d   1       1.253  -4.085 -22.990 +0.02 -0.09    -0.776    39.741
ATOM     37  H   UNL d   1       1.218  -4.755 -22.298 -0.07 +0.01    +0.167    39.741
ATOM     38  C   UNL d   1      -1.290   1.279 -20.668 -0.07 +0.04    +0.052    39.741
ATOM     39  C   UNL d   1      -2.345   0.235 -20.310 -0.13 +0.15    +0.115    39.741
ATOM     40  C   UNL d   1      -3.356   0.753 -19.318 -0.13 +0.24    +0.139    39.741
ATOM     41  O   UNL d   1      -3.465   0.217 -18.227 -0.14 -1.63    -0.650    39.741
ATOM     42  O   UNL d   1      -4.110   1.835 -19.594 -0.00 -1.31    -0.776    39.741
ATOM     43  H   UNL d   1      -3.883   2.439 -20.311 +0.02 +0.19    +0.167    39.741
ATOM     44  C   UNL d   1       9.483  -2.073 -19.455 -0.18 +0.00    +0.004    39.741
ATOM     45  C   UNL d   1      10.041  -3.169 -18.941 -0.26 +0.01    +0.012    39.741
ATOM     46  C   UNL d   1       3.746   1.153 -14.587 -0.36 +0.00    +0.004    39.741
ATOM     47  C   UNL d   1       3.180   0.448 -13.599 -0.48 +0.00    +0.012    39.741
TER
ENDMDL
MODEL       89
USER    Run = 89
USER    Cluster Rank = 25
USER    Number of conformations in this cluster = 1
USER  
USER    RMSD from reference structure       = 34.696 A
USER  
USER    Estimated Free Energy of Binding    =   -5.44 kcal/mol  [=(1)+(2)+(3)-(4)]
USER    Estimated Inhibition Constant, Ki   =  103.42 uM (micromolar)  [Temperature = 298.15 K]
USER    
USER    (1) Final Intermolecular Energy     =   -8.42 kcal/mol
USER        vdW + Hbond + desolv Energy     =   -8.16 kcal/mol
USER        Electrostatic Energy            =   -0.26 kcal/mol
USER    (2) Final Total Internal Energy     =   -0.48 kcal/mol
USER    (3) Torsional Free Energy           =   +2.98 kcal/mol
USER    (4) Unbound System's Energy  [=(2)] =   -0.48 kcal/mol
USER    
USER    
USER  
USER    DPF = D:/Protein_go_brrr/autodock/final/mut_D99N/heme_O2/dock.dpf
USER    NEWDPF move	heme_O2_opt.pdbqt
USER    NEWDPF about	8.287000 34.468000 -0.670000
USER    NEWDPF tran0	17.753960 -1.418587 2.223936
USER    NEWDPF axisangle0	0.806903 -0.533910 0.252681 -136.763366
USER    NEWDPF quaternion0	0.750144 -0.496354 0.234907 -0.368422
USER    NEWDPF dihe0	47.51 -16.62 -54.71 -114.57 -91.15 54.46 -45.24 68.17 3.81 -59.05 
USER  
USER                              x       y       z    vdW   Elec        q     RMS 
ATOM      1  C   UNL d   1      16.470   0.137   1.568 -0.09 -0.00    +0.064    34.696
ATOM      2  C   UNL d   1      19.390  -2.805  -0.751 -0.22 -0.01    +0.064    34.696
ATOM      3  C   UNL d   1      20.744  -4.862   3.375 -0.21 +0.01    +0.064    34.696
ATOM      4  C   UNL d   1      17.388  -2.165   5.727 -0.20 -0.00    +0.064    34.696
ATOM      5  C   UNL d   1      17.152  -0.496   0.600 -0.15 -0.00    +0.066    34.696
ATOM      6  C   UNL d   1      17.062  -0.179  -0.758 -0.21 +0.00    -0.021    34.696
ATOM      7  C   UNL d   1      17.874  -1.058  -1.435 -0.24 +0.00    -0.025    34.696
ATOM      8  C   UNL d   1      18.475  -1.858  -0.467 -0.19 -0.01    +0.066    34.696
ATOM      9  C   UNL d   1      18.018  -1.120  -2.940 -0.17 -0.01    +0.051    34.696
ATOM     10  C   UNL d   1      20.071  -3.659   0.223 -0.21 -0.00    +0.066    34.696
ATOM     11  C   UNL d   1      21.130  -4.511  -0.109 -0.22 -0.00    -0.021    34.696
ATOM     12  C   UNL d   1      21.546  -5.100   1.070 -0.23 +0.00    +0.000    34.696
ATOM     13  C   UNL d   1      20.690  -4.571   2.076 -0.22 +0.01    +0.070    34.696
ATOM     14  C   UNL d   1      21.738  -4.734  -1.490 -0.21 +0.00    +0.052    34.696
ATOM     15  C   UNL d   1      19.874  -4.376   4.419 -0.13 +0.01    +0.066    34.696
ATOM     16  C   UNL d   1      19.876  -4.844   5.733 -0.15 -0.00    -0.021    34.696
ATOM     17  C   UNL d   1      18.927  -4.090   6.422 -0.14 +0.00    +0.000    34.696
ATOM     18  C   UNL d   1      18.411  -3.205   5.465 -0.16 +0.00    +0.070    34.696
ATOM     19  C   UNL d   1      20.736  -5.994   6.194 -0.19 +0.02    +0.052    34.696
ATOM     20  C   UNL d   1      16.840  -1.329   4.823 -0.21 -0.00    +0.066    34.696
ATOM     21  C   UNL d   1      15.893  -0.357   5.133 -0.25 +0.00    -0.025    34.696
ATOM     22  C   UNL d   1      15.640   0.327   3.965 -0.22 +0.00    -0.021    34.696
ATOM     23  C   UNL d   1      16.432  -0.268   2.978 -0.13 -0.00    +0.066    34.696
ATOM     24  C   UNL d   1      15.259  -0.096   6.475 -0.24 +0.01    +0.051    34.696
ATOM     25  N   UNL d   1      17.980  -1.554   0.781 -0.09 +0.02    -0.248    34.696
ATOM     26  N   UNL d   1      19.793  -3.699   1.551 -0.14 +0.01    -0.248    34.696
ATOM     27  N   UNL d   1      18.943  -3.443   4.239 -0.11 -0.01    -0.248    34.696
ATOM     28  N   UNL d   1      17.126  -1.303   3.494 -0.13 +0.02    -0.248    34.696
ATOM     29 FE   UNL d   1      18.450  -2.493   2.532 -0.04 -0.00    +0.000    34.696
ATOM     30  O   UNL d   1      17.615  -3.370   1.554 -0.48 -0.00    +0.000    34.696
ATOM     31  O   UNL d   1      17.310  -3.417   3.098 -0.43 -0.00    +0.000    34.696
ATOM     32  C   UNL d   1      16.144   0.821  -1.413 +0.17 -0.01    +0.052    34.696
ATOM     33  C   UNL d   1      16.734   2.228  -1.454 -0.12 -0.00    +0.115    34.696
ATOM     34  C   UNL d   1      16.606   2.865  -2.815 +0.04 +0.01    +0.139    34.696
ATOM     35  O   UNL d   1      15.948   3.885  -2.945 -0.39 -0.07    -0.650    34.696
ATOM     36  O   UNL d   1      17.182   2.318  -3.905 -0.11 +0.04    -0.776    34.696
ATOM     37  H   UNL d   1      17.096   1.380  -4.112 -0.33 -0.05    +0.167    34.696
ATOM     38  C   UNL d   1      14.644   1.445   3.801 -0.26 +0.00    +0.052    34.696
ATOM     39  C   UNL d   1      14.686   2.438   4.961 -0.11 +0.01    +0.115    34.696
ATOM     40  C   UNL d   1      13.425   2.410   5.788 -0.19 +0.02    +0.139    34.696
ATOM     41  O   UNL d   1      13.156   3.354   6.514 +0.04 -0.17    -0.650    34.696
ATOM     42  O   UNL d   1      12.560   1.382   5.704 +0.03 -0.07    -0.776    34.696
ATOM     43  H   UNL d   1      12.608   0.739   4.987 -0.25 -0.02    +0.167    34.696
ATOM     44  C   UNL d   1      22.692  -6.089   1.115 -0.20 +0.00    +0.004    34.696
ATOM     45  C   UNL d   1      23.827  -5.997   1.806 -0.14 +0.00    +0.012    34.696
ATOM     46  C   UNL d   1      18.442  -4.173   7.845 -0.12 -0.00    +0.004    34.696
ATOM     47  C   UNL d   1      17.194  -4.380   8.284 -0.21 -0.00    +0.012    34.696
TER
ENDMDL
MODEL       45
USER    Run = 45
USER    Cluster Rank = 26
USER    Number of conformations in this cluster = 1
USER  
USER    RMSD from reference structure       = 39.253 A
USER  
USER    Estimated Free Energy of Binding    =   -5.43 kcal/mol  [=(1)+(2)+(3)-(4)]
USER    Estimated Inhibition Constant, Ki   =  104.74 uM (micromolar)  [Temperature = 298.15 K]
USER    
USER    (1) Final Intermolecular Energy     =   -8.41 kcal/mol
USER        vdW + Hbond + desolv Energy     =   -6.39 kcal/mol
USER        Electrostatic Energy            =   -2.03 kcal/mol
USER    (2) Final Total Internal Energy     =   -0.76 kcal/mol
USER    (3) Torsional Free Energy           =   +2.98 kcal/mol
USER    (4) Unbound System's Energy  [=(2)] =   -0.76 kcal/mol
USER    
USER    
USER  
USER    DPF = D:/Protein_go_brrr/autodock/final/mut_D99N/heme_O2/dock.dpf
USER    NEWDPF move	heme_O2_opt.pdbqt
USER    NEWDPF about	8.287000 34.468000 -0.670000
USER    NEWDPF tran0	-13.202929 1.244927 12.585835
USER    NEWDPF axisangle0	0.480541 -0.600254 0.639355 -135.278504
USER    NEWDPF quaternion0	0.444408 -0.555119 0.591280 -0.380437
USER    NEWDPF dihe0	7.14 78.39 -44.64 125.46 -163.49 -179.90 65.11 109.53 -161.09 -180.00 
USER  
USER                              x       y       z    vdW   Elec        q     RMS 
ATOM      1  C   UNL d   1     -13.263   2.065  10.631 -0.20 +0.02    +0.064    39.253
ATOM      2  C   UNL d   1     -10.679  -1.416  12.571 -0.28 +0.02    +0.064    39.253
ATOM      3  C   UNL d   1     -12.782  -0.725  16.836 -0.11 +0.03    +0.064    39.253
ATOM      4  C   UNL d   1     -15.786   2.535  14.736 -0.09 +0.05    +0.064    39.253
ATOM      5  C   UNL d   1     -12.390   1.061  10.810 -0.23 +0.02    +0.066    39.253
ATOM      6  C   UNL d   1     -11.551   0.565   9.808 -0.30 -0.01    -0.021    39.253
ATOM      7  C   UNL d   1     -10.833  -0.472  10.357 -0.39 -0.01    -0.025    39.253
ATOM      8  C   UNL d   1     -11.219  -0.549  11.692 -0.28 +0.02    +0.066    39.253
ATOM      9  C   UNL d   1      -9.856  -1.344   9.600 -0.31 +0.01    +0.051    39.253
ATOM     10  C   UNL d   1     -11.027  -1.528  13.988 -0.21 +0.02    +0.066    39.253
ATOM     11  C   UNL d   1     -10.322  -2.331  14.892 -0.27 -0.01    -0.021    39.253
ATOM     12  C   UNL d   1     -10.902  -2.132  16.131 -0.19 +0.00    +0.000    39.253
ATOM     13  C   UNL d   1     -11.959  -1.208  15.906 -0.13 +0.03    +0.070    39.253
ATOM     14  C   UNL d   1      -9.127  -3.229  14.591 -0.23 +0.01    +0.052    39.253
ATOM     15  C   UNL d   1     -13.886   0.184  16.643 -0.01 +0.04    +0.066    39.253
ATOM     16  C   UNL d   1     -14.813   0.523  17.629 -0.05 -0.01    -0.021    39.253
ATOM     17  C   UNL d   1     -15.680   1.451  17.053 -0.06 +0.00    +0.000    39.253
ATOM     18  C   UNL d   1     -15.210   1.612  15.742 -0.04 +0.06    +0.070    39.253
ATOM     19  C   UNL d   1     -14.821  -0.104  19.001 -0.02 +0.01    +0.052    39.253
ATOM     20  C   UNL d   1     -15.388   2.682  13.457 -0.13 +0.05    +0.066    39.253
ATOM     21  C   UNL d   1     -15.958   3.582  12.561 -0.12 -0.01    -0.025    39.253
ATOM     22  C   UNL d   1     -15.234   3.481  11.394 -0.12 -0.01    -0.021    39.253
ATOM     23  C   UNL d   1     -14.256   2.507  11.617 -0.19 +0.03    +0.066    39.253
ATOM     24  C   UNL d   1     -17.137   4.488  12.804 -0.06 +0.02    +0.051    39.253
ATOM     25  N   UNL d   1     -12.225   0.352  11.954 -0.15 -0.10    -0.248    39.253
ATOM     26  N   UNL d   1     -12.031  -0.849  14.598 -0.10 -0.12    -0.248    39.253
ATOM     27  N   UNL d   1     -14.168   0.780  15.488 -0.01 -0.20    -0.248    39.253
ATOM     28  N   UNL d   1     -14.382   1.992  12.858 -0.12 -0.17    -0.248    39.253
ATOM     29 FE   UNL d   1     -13.217   0.582  13.724 -0.05 +0.00    +0.000    39.253
ATOM     30  O   UNL d   1     -13.536  -0.755  12.994 -0.11 +0.00    +0.000    39.253
ATOM     31  O   UNL d   1     -14.691   0.036  13.716 -0.08 +0.00    +0.000    39.253
ATOM     32  C   UNL d   1     -11.520   0.956   8.353 -0.30 +0.02    +0.052    39.253
ATOM     33  C   UNL d   1     -12.658   0.336   7.549 -0.16 +0.06    +0.115    39.253
ATOM     34  C   UNL d   1     -12.160  -0.596   6.471 -0.20 +0.13    +0.139    39.253
ATOM     35  O   UNL d   1     -11.290  -1.410   6.733 -0.49 -0.63    -0.650    39.253
ATOM     36  O   UNL d   1     -12.637  -0.532   5.211 -0.25 -1.41    -0.776    39.253
ATOM     37  H   UNL d   1     -13.231   0.172   4.924 +0.03 +0.20    +0.167    39.253
ATOM     38  C   UNL d   1     -15.514   4.235  10.119 -0.05 +0.02    +0.052    39.253
ATOM     39  C   UNL d   1     -16.678   3.636   9.332 -0.03 +0.02    +0.115    39.253
ATOM     40  C   UNL d   1     -16.324   2.316   8.695 -0.01 +0.03    +0.139    39.253
ATOM     41  O   UNL d   1     -15.196   2.132   8.267 +0.03 -0.16    -0.650    39.253
ATOM     42  O   UNL d   1     -17.219   1.311   8.634 +0.01 -0.15    -0.776    39.253
ATOM     43  H   UNL d   1     -17.901   1.283   7.953 +0.00 +0.03    +0.167    39.253
ATOM     44  C   UNL d   1     -10.399  -2.833  17.376 -0.15 +0.00    +0.004    39.253
ATOM     45  C   UNL d   1     -10.113  -2.294  18.560 -0.14 +0.00    +0.012    39.253
ATOM     46  C   UNL d   1     -16.907   2.130  17.601 -0.02 +0.00    +0.004    39.253
ATOM     47  C   UNL d   1     -17.117   3.440  17.784 -0.02 +0.00    +0.012    39.253
TER
ENDMDL
MODEL       30
USER    Run = 30
USER    Cluster Rank = 27
USER    Number of conformations in this cluster = 1
USER  
USER    RMSD from reference structure       = 42.082 A
USER  
USER    Estimated Free Energy of Binding    =   -5.43 kcal/mol  [=(1)+(2)+(3)-(4)]
USER    Estimated Inhibition Constant, Ki   =  104.75 uM (micromolar)  [Temperature = 298.15 K]
USER    
USER    (1) Final Intermolecular Energy     =   -8.41 kcal/mol
USER        vdW + Hbond + desolv Energy     =   -7.42 kcal/mol
USER        Electrostatic Energy            =   -0.99 kcal/mol
USER    (2) Final Total Internal Energy     =   -2.14 kcal/mol
USER    (3) Torsional Free Energy           =   +2.98 kcal/mol
USER    (4) Unbound System's Energy  [=(2)] =   -2.14 kcal/mol
USER    
USER    
USER  
USER    DPF = D:/Protein_go_brrr/autodock/final/mut_D99N/heme_O2/dock.dpf
USER    NEWDPF move	heme_O2_opt.pdbqt
USER    NEWDPF about	8.287000 34.468000 -0.670000
USER    NEWDPF tran0	14.978781 -8.888170 7.813152
USER    NEWDPF axisangle0	-0.190986 0.018413 0.981420 130.525991
USER    NEWDPF quaternion0	-0.173461 0.016723 0.891363 0.418454
USER    NEWDPF dihe0	165.55 -8.06 -38.01 30.92 -66.70 142.54 72.71 -15.12 -28.33 130.31 
USER  
USER                              x       y       z    vdW   Elec        q     RMS 
ATOM      1  C   UNL d   1      16.786  -7.781   7.719 -0.22 -0.01    +0.064    42.082
ATOM      2  C   UNL d   1      12.876  -7.321  10.377 -0.20 -0.02    +0.064    42.082
ATOM      3  C   UNL d   1      10.841 -11.092   8.200 -0.22 -0.02    +0.064    42.082
ATOM      4  C   UNL d   1      15.046 -11.868   5.794 -0.21 -0.05    +0.064    42.082
ATOM      5  C   UNL d   1      15.889  -7.349   8.621 -0.20 -0.02    +0.066    42.082
ATOM      6  C   UNL d   1      16.086  -6.244   9.454 -0.15 +0.00    -0.021    42.082
ATOM      7  C   UNL d   1      14.973  -6.136  10.254 -0.18 +0.01    -0.025    42.082
ATOM      8  C   UNL d   1      14.106  -7.149   9.854 -0.20 -0.02    +0.066    42.082
ATOM      9  C   UNL d   1      14.796  -5.117  11.358 -0.15 -0.01    +0.051    42.082
ATOM     10  C   UNL d   1      11.913  -8.351   9.983 -0.22 -0.03    +0.066    42.082
ATOM     11  C   UNL d   1      10.591  -8.384  10.441 -0.18 +0.01    -0.021    42.082
ATOM     12  C   UNL d   1       9.983  -9.454   9.810 -0.19 -0.00    +0.000    42.082
ATOM     13  C   UNL d   1      10.994 -10.033   8.995 -0.20 -0.03    +0.070    42.082
ATOM     14  C   UNL d   1       9.929  -7.419  11.417 -0.15 -0.05    +0.052    42.082
ATOM     15  C   UNL d   1      11.848 -11.730   7.387 -0.19 -0.02    +0.066    42.082
ATOM     16  C   UNL d   1      11.668 -12.932   6.704 -0.19 +0.01    -0.021    42.082
ATOM     17  C   UNL d   1      12.854 -13.174   6.012 -0.22 -0.00    +0.000    42.082
ATOM     18  C   UNL d   1      13.680 -12.086   6.326 -0.23 -0.04    +0.070    42.082
ATOM     19  C   UNL d   1      10.414 -13.762   6.817 -0.21 -0.01    +0.052    42.082
ATOM     20  C   UNL d   1      15.880 -10.858   6.109 -0.27 -0.03    +0.066    42.082
ATOM     21  C   UNL d   1      17.150 -10.696   5.562 -0.30 +0.01    -0.025    42.082
ATOM     22  C   UNL d   1      17.650  -9.522   6.078 -0.30 +0.00    -0.021    42.082
ATOM     23  C   UNL d   1      16.670  -9.018   6.939 -0.25 -0.01    +0.066    42.082
ATOM     24  C   UNL d   1      17.852 -11.617   4.598 -0.33 -0.02    +0.051    42.082
ATOM     25  N   UNL d   1      14.698  -7.936   8.894 -0.11 +0.10    -0.248    42.082
ATOM     26  N   UNL d   1      12.167  -9.359   9.110 -0.12 +0.10    -0.248    42.082
ATOM     27  N   UNL d   1      13.081 -11.258   7.220 -0.11 +0.11    -0.248    42.082
ATOM     28  N   UNL d   1      15.614  -9.857   6.989 -0.15 +0.09    -0.248    42.082
ATOM     29 FE   UNL d   1      13.902  -9.612   8.040 -0.06 -0.00    +0.000    42.082
ATOM     30  O   UNL d   1      14.283  -9.791   9.539 -0.12 -0.00    +0.000    42.082
ATOM     31  O   UNL d   1      14.561 -10.958   8.518 -0.12 -0.00    +0.000    42.082
ATOM     32  C   UNL d   1      17.328  -5.402   9.592 -0.09 -0.01    +0.052    42.082
ATOM     33  C   UNL d   1      17.798  -4.817   8.263 -0.12 -0.01    +0.115    42.082
ATOM     34  C   UNL d   1      19.075  -5.454   7.774 -0.08 +0.01    +0.139    42.082
ATOM     35  O   UNL d   1      19.228  -5.661   6.581 +0.00 -0.10    -0.650    42.082
ATOM     36  O   UNL d   1      20.048  -5.828   8.631 +0.05 -0.07    -0.776    42.082
ATOM     37  H   UNL d   1      20.769  -6.409   8.363 +0.02 +0.03    +0.167    42.082
ATOM     38  C   UNL d   1      19.019  -8.955   5.805 -0.25 +0.02    +0.052    42.082
ATOM     39  C   UNL d   1      19.778  -8.625   7.089 -0.16 +0.03    +0.115    42.082
ATOM     40  C   UNL d   1      21.256  -8.436   6.852 -0.09 +0.08    +0.139    42.082
ATOM     41  O   UNL d   1      21.961  -9.404   6.617 +0.10 -0.63    -0.650    42.082
ATOM     42  O   UNL d   1      21.807  -7.207   6.844 +0.01 -0.43    -0.776    42.082
ATOM     43  H   UNL d   1      21.267  -6.411   6.914 +0.03 +0.06    +0.167    42.082
ATOM     44  C   UNL d   1       8.530  -9.807  10.050 -0.12 -0.00    +0.004    42.082
ATOM     45  C   UNL d   1       7.617 -10.170   9.150 -0.31 -0.01    +0.012    42.082
ATOM     46  C   UNL d   1      13.279 -14.337   5.155 -0.21 -0.00    +0.004    42.082
ATOM     47  C   UNL d   1      12.503 -15.204   4.490 -0.23 -0.00    +0.012    42.082
TER
ENDMDL
MODEL       58
USER    Run = 58
USER    Cluster Rank = 28
USER    Number of conformations in this cluster = 1
USER  
USER    RMSD from reference structure       = 40.860 A
USER  
USER    Estimated Free Energy of Binding    =   -5.35 kcal/mol  [=(1)+(2)+(3)-(4)]
USER    Estimated Inhibition Constant, Ki   =  120.42 uM (micromolar)  [Temperature = 298.15 K]
USER    
USER    (1) Final Intermolecular Energy     =   -8.33 kcal/mol
USER        vdW + Hbond + desolv Energy     =   -4.37 kcal/mol
USER        Electrostatic Energy            =   -3.96 kcal/mol
USER    (2) Final Total Internal Energy     =   -2.16 kcal/mol
USER    (3) Torsional Free Energy           =   +2.98 kcal/mol
USER    (4) Unbound System's Energy  [=(2)] =   -2.16 kcal/mol
USER    
USER    
USER  
USER    DPF = D:/Protein_go_brrr/autodock/final/mut_D99N/heme_O2/dock.dpf
USER    NEWDPF move	heme_O2_opt.pdbqt
USER    NEWDPF about	8.287000 34.468000 -0.670000
USER    NEWDPF tran0	-8.528787 -0.073555 -20.723509
USER    NEWDPF axisangle0	-0.160979 -0.595259 -0.787243 -157.635679
USER    NEWDPF quaternion0	-0.157923 -0.583959 -0.772298 -0.193929
USER    NEWDPF dihe0	-97.01 139.35 59.72 -104.16 69.27 -36.47 -150.71 113.71 -180.00 -177.21 
USER  
USER                              x       y       z    vdW   Elec        q     RMS 
ATOM      1  C   UNL d   1      -6.615  -0.775 -21.312 -0.07 +0.05    +0.064    40.860
ATOM      2  C   UNL d   1      -8.899   3.322 -22.058 -0.03 +0.03    +0.064    40.860
ATOM      3  C   UNL d   1     -12.736   1.731 -19.641 -0.08 +0.02    +0.064    40.860
ATOM      4  C   UNL d   1     -10.214  -2.308 -18.459 -0.16 +0.02    +0.064    40.860
ATOM      5  C   UNL d   1      -6.923   0.470 -21.710 -0.06 +0.05    +0.066    40.860
ATOM      6  C   UNL d   1      -6.075   1.280 -22.471 -0.03 -0.01    -0.021    40.860
ATOM      7  C   UNL d   1      -6.717   2.483 -22.651 -0.02 -0.01    -0.025    40.860
ATOM      8  C   UNL d   1      -7.960   2.357 -22.036 -0.04 +0.04    +0.066    40.860
ATOM      9  C   UNL d   1      -6.125   3.683 -23.357 +0.00 +0.02    +0.051    40.860
ATOM     10  C   UNL d   1     -10.228   3.240 -21.451 -0.04 +0.02    +0.066    40.860
ATOM     11  C   UNL d   1     -11.223   4.205 -21.642 -0.02 -0.00    -0.021    40.860
ATOM     12  C   UNL d   1     -12.343   3.755 -20.968 -0.03 +0.00    +0.000    40.860
ATOM     13  C   UNL d   1     -11.955   2.519 -20.380 -0.06 +0.02    +0.070    40.860
ATOM     14  C   UNL d   1     -11.118   5.489 -22.457 -0.00 +0.00    +0.052    40.860
ATOM     15  C   UNL d   1     -12.371   0.491 -18.999 -0.05 +0.03    +0.066    40.860
ATOM     16  C   UNL d   1     -13.184  -0.204 -18.104 -0.10 -0.01    -0.021    40.860
ATOM     17  C   UNL d   1     -12.485  -1.359 -17.753 -0.13 +0.00    +0.000    40.860
ATOM     18  C   UNL d   1     -11.284  -1.282 -18.471 -0.13 +0.03    +0.070    40.860
ATOM     19  C   UNL d   1     -14.516   0.317 -17.627 -0.10 +0.02    +0.052    40.860
ATOM     20  C   UNL d   1      -9.031  -2.245 -19.101 -0.14 +0.03    +0.066    40.860
ATOM     21  C   UNL d   1      -8.070  -3.251 -19.066 -0.16 -0.01    -0.025    40.860
ATOM     22  C   UNL d   1      -7.049  -2.843 -19.895 -0.12 -0.01    -0.021    40.860
ATOM     23  C   UNL d   1      -7.419  -1.590 -20.393 -0.10 +0.05    +0.066    40.860
ATOM     24  C   UNL d   1      -8.121  -4.534 -18.278 -0.27 +0.01    +0.051    40.860
ATOM     25  N   UNL d   1      -8.059   1.140 -21.401 -0.06 -0.22    -0.248    40.860
ATOM     26  N   UNL d   1     -10.666   2.216 -20.675 -0.06 -0.10    -0.248    40.860
ATOM     27  N   UNL d   1     -11.200  -0.117 -19.163 -0.09 -0.12    -0.248    40.860
ATOM     28  N   UNL d   1      -8.604  -1.210 -19.872 -0.09 -0.18    -0.248    40.860
ATOM     29 FE   UNL d   1      -9.629   0.489 -20.269 -0.02 +0.00    +0.000    40.860
ATOM     30  O   UNL d   1      -8.821   1.648 -19.615 -0.32 +0.00    +0.000    40.860
ATOM     31  O   UNL d   1      -9.345   0.460 -18.722 -0.10 +0.00    +0.000    40.860
ATOM     32  C   UNL d   1      -4.659   0.990 -22.898 -0.01 +0.02    +0.052    40.860
ATOM     33  C   UNL d   1      -3.621   1.605 -21.964 -0.02 +0.07    +0.115    40.860
ATOM     34  C   UNL d   1      -4.142   1.778 -20.559 -0.06 +0.16    +0.139    40.860
ATOM     35  O   UNL d   1      -4.832   2.748 -20.286 -0.11 -0.97    -0.650    40.860
ATOM     36  O   UNL d   1      -3.840   0.897 -19.583 +0.01 -1.27    -0.776    40.860
ATOM     37  H   UNL d   1      -4.435   0.178 -19.341 +0.03 +0.31    +0.167    40.860
ATOM     38  C   UNL d   1      -5.764  -3.592 -20.140 -0.15 +0.03    +0.052    40.860
ATOM     39  C   UNL d   1      -4.794  -3.482 -18.965 -0.28 +0.09    +0.115    40.860
ATOM     40  C   UNL d   1      -4.266  -2.081 -18.783 -0.09 +0.23    +0.139    40.860
ATOM     41  O   UNL d   1      -4.644  -1.409 -17.837 -0.28 -1.25    -0.650    40.860
ATOM     42  O   UNL d   1      -3.341  -1.572 -19.620 -0.24 -1.43    -0.776    40.860
ATOM     43  H   UNL d   1      -3.365  -0.648 -19.897 +0.02 +0.27    +0.167    40.860
ATOM     44  C   UNL d   1     -13.639   4.537 -20.952 -0.01 -0.00    +0.004    40.860
ATOM     45  C   UNL d   1     -14.331   4.955 -19.892 -0.03 -0.00    +0.012    40.860
ATOM     46  C   UNL d   1     -12.822  -2.462 -16.784 -0.16 +0.00    +0.004    40.860
ATOM     47  C   UNL d   1     -12.232  -2.747 -15.616 -0.31 +0.00    +0.012    40.860
TER
ENDMDL
MODEL       19
USER    Run = 19
USER    Cluster Rank = 29
USER    Number of conformations in this cluster = 1
USER  
USER    RMSD from reference structure       = 32.797 A
USER  
USER    Estimated Free Energy of Binding    =   -5.30 kcal/mol  [=(1)+(2)+(3)-(4)]
USER    Estimated Inhibition Constant, Ki   =  129.40 uM (micromolar)  [Temperature = 298.15 K]
USER    
USER    (1) Final Intermolecular Energy     =   -8.29 kcal/mol
USER        vdW + Hbond + desolv Energy     =   -7.65 kcal/mol
USER        Electrostatic Energy            =   -0.63 kcal/mol
USER    (2) Final Total Internal Energy     =   -1.66 kcal/mol
USER    (3) Torsional Free Energy           =   +2.98 kcal/mol
USER    (4) Unbound System's Energy  [=(2)] =   -1.66 kcal/mol
USER    
USER    
USER  
USER    DPF = D:/Protein_go_brrr/autodock/final/mut_D99N/heme_O2/dock.dpf
USER    NEWDPF move	heme_O2_opt.pdbqt
USER    NEWDPF about	8.287000 34.468000 -0.670000
USER    NEWDPF tran0	15.739709 -0.348317 4.089954
USER    NEWDPF axisangle0	0.288417 0.939313 0.185758 -102.852506
USER    NEWDPF quaternion0	0.225486 0.734361 0.145226 -0.623521
USER    NEWDPF dihe0	144.21 -25.10 -56.45 43.84 29.26 125.11 -119.42 13.36 -167.41 -174.94 
USER  
USER                              x       y       z    vdW   Elec        q     RMS 
ATOM      1  C   UNL d   1      15.271  -0.737   6.122 -0.00 +0.00    +0.064    32.797
ATOM      2  C   UNL d   1      18.357  -2.721   3.106 -0.21 -0.00    +0.064    32.797
ATOM      3  C   UNL d   1      16.943   0.220  -0.422 -0.20 -0.01    +0.064    32.797
ATOM      4  C   UNL d   1      14.102   2.588   2.802 -0.18 +0.00    +0.064    32.797
ATOM      5  C   UNL d   1      16.227  -1.515   5.590 -0.18 -0.00    +0.066    32.797
ATOM      6  C   UNL d   1      16.887  -2.531   6.287 -0.28 +0.00    -0.021    32.797
ATOM      7  C   UNL d   1      17.811  -3.078   5.428 -0.21 +0.00    -0.025    32.797
ATOM      8  C   UNL d   1      17.657  -2.413   4.215 -0.21 -0.01    +0.066    32.797
ATOM      9  C   UNL d   1      18.800  -4.163   5.796 -0.14 +0.00    +0.051    32.797
ATOM     10  C   UNL d   1      18.223  -2.075   1.800 -0.18 -0.01    +0.066    32.797
ATOM     11  C   UNL d   1      18.856  -2.541   0.642 -0.21 +0.00    -0.021    32.797
ATOM     12  C   UNL d   1      18.446  -1.717  -0.390 -0.20 -0.00    +0.000    32.797
ATOM     13  C   UNL d   1      17.577  -0.766   0.213 -0.15 -0.01    +0.070    32.797
ATOM     14  C   UNL d   1      19.790  -3.740   0.520 -0.28 -0.01    +0.052    32.797
ATOM     15  C   UNL d   1      16.083   1.224   0.157 -0.15 -0.00    +0.066    32.797
ATOM     16  C   UNL d   1      15.580   2.327  -0.532 -0.15 +0.00    -0.021    32.797
ATOM     17  C   UNL d   1      14.768   3.018   0.367 -0.15 +0.00    +0.000    32.797
ATOM     18  C   UNL d   1      14.835   2.273   1.553 -0.16 +0.00    +0.070    32.797
ATOM     19  C   UNL d   1      15.960   2.650  -1.955 +0.30 +0.00    +0.052    32.797
ATOM     20  C   UNL d   1      14.178   1.920   3.970 -0.21 +0.00    +0.066    32.797
ATOM     21  C   UNL d   1      13.449   2.253   5.108 -0.23 -0.00    -0.025    32.797
ATOM     22  C   UNL d   1      13.749   1.301   6.055 -0.28 -0.00    -0.021    32.797
ATOM     23  C   UNL d   1      14.667   0.428   5.464 -0.24 +0.00    +0.066    32.797
ATOM     24  C   UNL d   1      12.517   3.424   5.283 -0.22 +0.01    +0.051    32.797
ATOM     25  N   UNL d   1      16.726  -1.406   4.334 -0.17 +0.02    -0.248    32.797
ATOM     26  N   UNL d   1      17.451  -0.988   1.546 -0.08 +0.01    -0.248    32.797
ATOM     27  N   UNL d   1      15.697   1.231   1.430 -0.08 +0.00    -0.248    32.797
ATOM     28  N   UNL d   1      14.959   0.834   4.211 -0.16 +0.00    -0.248    32.797
ATOM     29 FE   UNL d   1      16.195  -0.068   2.886 -0.05 -0.00    +0.000    32.797
ATOM     30  O   UNL d   1      17.639   0.135   3.431 -0.09 -0.00    +0.000    32.797
ATOM     31  O   UNL d   1      16.738   1.389   3.120 -0.09 +0.00    +0.000    32.797
ATOM     32  C   UNL d   1      16.754  -2.886   7.746 -0.26 -0.00    +0.052    32.797
ATOM     33  C   UNL d   1      17.628  -2.021   8.648 -0.11 -0.00    +0.115    32.797
ATOM     34  C   UNL d   1      17.317  -0.551   8.512 -0.09 +0.01    +0.139    32.797
ATOM     35  O   UNL d   1      18.199   0.224   8.176 +0.02 -0.02    -0.650    32.797
ATOM     36  O   UNL d   1      16.088  -0.064   8.782 -0.30 -0.11    -0.776    32.797
ATOM     37  H   UNL d   1      15.959   0.802   9.185 +0.02 +0.01    +0.167    32.797
ATOM     38  C   UNL d   1      13.228   1.274   7.469 -0.28 +0.01    +0.052    32.797
ATOM     39  C   UNL d   1      13.869   2.347   8.346 -0.17 +0.03    +0.115    32.797
ATOM     40  C   UNL d   1      13.580   2.143   9.812 -0.16 +0.05    +0.139    32.797
ATOM     41  O   UNL d   1      12.594   2.659  10.313 -0.51 -0.55    -0.650    32.797
ATOM     42  O   UNL d   1      14.364   1.355  10.573 -0.01 -0.10    -0.776    32.797
ATOM     43  H   UNL d   1      14.916   0.665  10.184 +0.02 +0.01    +0.167    32.797
ATOM     44  C   UNL d   1      18.919  -1.917  -1.814 -0.32 -0.00    +0.004    32.797
ATOM     45  C   UNL d   1      18.182  -2.176  -2.893 -0.46 -0.00    +0.012    32.797
ATOM     46  C   UNL d   1      14.007   4.309   0.222 -0.12 +0.00    +0.004    32.797
ATOM     47  C   UNL d   1      13.360   4.772  -0.855 -0.13 +0.00    +0.012    32.797
TER
ENDMDL
MODEL       68
USER    Run = 68
USER    Cluster Rank = 30
USER    Number of conformations in this cluster = 1
USER  
USER    RMSD from reference structure       = 25.299 A
USER  
USER    Estimated Free Energy of Binding    =   -5.28 kcal/mol  [=(1)+(2)+(3)-(4)]
USER    Estimated Inhibition Constant, Ki   =  134.06 uM (micromolar)  [Temperature = 298.15 K]
USER    
USER    (1) Final Intermolecular Energy     =   -8.27 kcal/mol
USER        vdW + Hbond + desolv Energy     =   -6.50 kcal/mol
USER        Electrostatic Energy            =   -1.77 kcal/mol
USER    (2) Final Total Internal Energy     =   -2.21 kcal/mol
USER    (3) Torsional Free Energy           =   +2.98 kcal/mol
USER    (4) Unbound System's Energy  [=(2)] =   -2.21 kcal/mol
USER    
USER    
USER  
USER    DPF = D:/Protein_go_brrr/autodock/final/mut_D99N/heme_O2/dock.dpf
USER    NEWDPF move	heme_O2_opt.pdbqt
USER    NEWDPF about	8.287000 34.468000 -0.670000
USER    NEWDPF tran0	-12.399132 15.151143 -4.678737
USER    NEWDPF axisangle0	-0.079378 0.987077 0.139208 -157.651084
USER    NEWDPF quaternion0	-0.077873 0.968363 0.136569 -0.193797
USER    NEWDPF dihe0	31.63 -103.72 -42.64 123.98 -121.93 -95.21 -4.16 58.03 -171.17 135.58 
USER  
USER                              x       y       z    vdW   Elec        q     RMS 
ATOM      1  C   UNL d   1     -11.098  15.671  -3.086 -0.15 +0.00    +0.064    25.299
ATOM      2  C   UNL d   1     -10.303  14.056  -7.481 -0.19 -0.00    +0.064    25.299
ATOM      3  C   UNL d   1     -15.023  13.851  -8.360 -0.14 -0.01    +0.064    25.299
ATOM      4  C   UNL d   1     -15.842  15.964  -4.009 -0.13 -0.01    +0.064    25.299
ATOM      5  C   UNL d   1     -10.497  15.250  -4.210 -0.19 +0.00    +0.066    25.299
ATOM      6  C   UNL d   1      -9.112  15.136  -4.362 -0.26 -0.00    -0.021    25.299
ATOM      7  C   UNL d   1      -8.878  14.710  -5.648 -0.28 -0.00    -0.025    25.299
ATOM      8  C   UNL d   1     -10.129  14.529  -6.232 -0.21 +0.00    +0.066    25.299
ATOM      9  C   UNL d   1      -7.509  14.525  -6.264 -0.27 +0.01    +0.051    25.299
ATOM     10  C   UNL d   1     -11.589  13.823  -8.139 -0.17 -0.01    +0.066    25.299
ATOM     11  C   UNL d   1     -11.716  13.178  -9.374 -0.23 +0.00    -0.021    25.299
ATOM     12  C   UNL d   1     -13.071  13.093  -9.636 -0.21 -0.00    +0.000    25.299
ATOM     13  C   UNL d   1     -13.707  13.716  -8.527 -0.13 -0.01    +0.070    25.299
ATOM     14  C   UNL d   1     -10.594  12.640 -10.254 -0.14 -0.01    +0.052    25.299
ATOM     15  C   UNL d   1     -15.705  14.506  -7.270 -0.12 -0.01    +0.066    25.299
ATOM     16  C   UNL d   1     -17.076  14.758  -7.232 -0.09 +0.00    -0.021    25.299
ATOM     17  C   UNL d   1     -17.333  15.361  -6.001 -0.11 -0.00    +0.000    25.299
ATOM     18  C   UNL d   1     -16.083  15.430  -5.370 -0.10 -0.01    +0.070    25.299
ATOM     19  C   UNL d   1     -18.000  14.455  -8.385 -0.04 -0.01    +0.052    25.299
ATOM     20  C   UNL d   1     -14.651  16.085  -3.391 -0.14 -0.00    +0.066    25.299
ATOM     21  C   UNL d   1     -14.488  16.579  -2.100 -0.12 +0.00    -0.025    25.299
ATOM     22  C   UNL d   1     -13.146  16.477  -1.810 -0.12 -0.00    -0.021    25.299
ATOM     23  C   UNL d   1     -12.534  15.940  -2.946 -0.12 +0.00    +0.066    25.299
ATOM     24  C   UNL d   1     -15.558  17.123  -1.190 -0.08 -0.00    +0.051    25.299
ATOM     25  N   UNL d   1     -11.124  14.924  -5.367 -0.11 +0.00    -0.248    25.299
ATOM     26  N   UNL d   1     -12.798  14.162  -7.624 -0.07 +0.03    -0.248    25.299
ATOM     27  N   UNL d   1     -15.096  14.976  -6.185 -0.11 +0.03    -0.248    25.299
ATOM     28  N   UNL d   1     -13.446  15.745  -3.921 -0.10 +0.00    -0.248    25.299
ATOM     29 FE   UNL d   1     -13.127  14.960  -5.759 -0.04 -0.00    +0.000    25.299
ATOM     30  O   UNL d   1     -12.313  16.024  -6.552 -0.08 -0.00    +0.000    25.299
ATOM     31  O   UNL d   1     -13.723  16.401  -5.959 -0.08 -0.00    +0.000    25.299
ATOM     32  C   UNL d   1      -8.040  15.542  -3.383 -0.27 +0.02    +0.052    25.299
ATOM     33  C   UNL d   1      -7.626  17.003  -3.531 -0.14 +0.05    +0.115    25.299
ATOM     34  C   UNL d   1      -6.668  17.441  -2.451 +0.01 +0.12    +0.139    25.299
ATOM     35  O   UNL d   1      -5.468  17.275  -2.606 -0.70 -0.52    -0.650    25.299
ATOM     36  O   UNL d   1      -7.108  17.991  -1.301 -0.26 -0.91    -0.776    25.299
ATOM     37  H   UNL d   1      -7.952  17.742  -0.906 +0.02 +0.20    +0.167    25.299
ATOM     38  C   UNL d   1     -12.486  16.933  -0.534 -0.08 +0.00    +0.052    25.299
ATOM     39  C   UNL d   1     -11.377  17.954  -0.785 -0.04 +0.02    +0.115    25.299
ATOM     40  C   UNL d   1     -10.049  17.512  -0.223 -0.12 +0.07    +0.139    25.299
ATOM     41  O   UNL d   1      -9.632  16.391  -0.465 -0.01 -0.43    -0.650    25.299
ATOM     42  O   UNL d   1      -9.287  18.352   0.503 +0.06 -0.52    -0.776    25.299
ATOM     43  H   UNL d   1      -8.526  18.803   0.118 +0.01 +0.14    +0.167    25.299
ATOM     44  C   UNL d   1     -13.607  12.443 -10.894 -0.27 -0.00    +0.004    25.299
ATOM     45  C   UNL d   1     -14.595  11.554 -11.000 -0.22 -0.01    +0.012    25.299
ATOM     46  C   UNL d   1     -18.606  15.911  -5.417 -0.08 -0.00    +0.004    25.299
ATOM     47  C   UNL d   1     -19.261  15.500  -4.323 -0.10 -0.00    +0.012    25.299
TER
ENDMDL
MODEL        3
USER    Run = 3
USER    Cluster Rank = 31
USER    Number of conformations in this cluster = 1
USER  
USER    RMSD from reference structure       = 16.052 A
USER  
USER    Estimated Free Energy of Binding    =   -5.21 kcal/mol  [=(1)+(2)+(3)-(4)]
USER    Estimated Inhibition Constant, Ki   =  151.09 uM (micromolar)  [Temperature = 298.15 K]
USER    
USER    (1) Final Intermolecular Energy     =   -8.20 kcal/mol
USER        vdW + Hbond + desolv Energy     =   -7.10 kcal/mol
USER        Electrostatic Energy            =   -1.09 kcal/mol
USER    (2) Final Total Internal Energy     =   -0.52 kcal/mol
USER    (3) Torsional Free Energy           =   +2.98 kcal/mol
USER    (4) Unbound System's Energy  [=(2)] =   -0.52 kcal/mol
USER    
USER    
USER  
USER    DPF = D:/Protein_go_brrr/autodock/final/mut_D99N/heme_O2/dock.dpf
USER    NEWDPF move	heme_O2_opt.pdbqt
USER    NEWDPF about	8.287000 34.468000 -0.670000
USER    NEWDPF tran0	0.466495 17.562899 0.334016
USER    NEWDPF axisangle0	0.972355 0.231908 -0.027272 71.016393
USER    NEWDPF quaternion0	0.564763 0.134697 -0.015840 0.814032
USER    NEWDPF dihe0	93.73 37.92 -53.01 124.94 63.45 -62.76 35.91 63.53 -165.91 -162.11 
USER  
USER                              x       y       z    vdW   Elec        q     RMS 
ATOM      1  C   UNL d   1      -1.069  16.716  -0.859 -0.22 +0.01    +0.064    16.052
ATOM      2  C   UNL d   1      -1.161  19.331   3.104 -0.18 +0.01    +0.064    16.052
ATOM      3  C   UNL d   1       3.641  19.495   3.218 -0.13 +0.00    +0.064    16.052
ATOM      4  C   UNL d   1       3.740  17.210  -1.122 -0.13 +0.00    +0.064    16.052
ATOM      5  C   UNL d   1      -1.486  17.415   0.208 -0.17 +0.01    +0.066    16.052
ATOM      6  C   UNL d   1      -2.829  17.590   0.554 -0.23 -0.01    -0.021    16.052
ATOM      7  C   UNL d   1      -2.858  18.383   1.677 -0.20 -0.01    -0.025    16.052
ATOM      8  C   UNL d   1      -1.530  18.631   2.014 -0.14 +0.02    +0.066    16.052
ATOM      9  C   UNL d   1      -4.117  18.885   2.350 -0.21 +0.03    +0.051    16.052
ATOM     10  C   UNL d   1       0.215  19.605   3.522 -0.18 +0.01    +0.066    16.052
ATOM     11  C   UNL d   1       0.544  20.195   4.747 -0.13 -0.00    -0.021    16.052
ATOM     12  C   UNL d   1       1.925  20.234   4.806 -0.11 +0.00    +0.000    16.052
ATOM     13  C   UNL d   1       2.370  19.665   3.581 -0.13 +0.00    +0.070    16.052
ATOM     14  C   UNL d   1      -0.417  20.675   5.828 -0.08 +0.00    +0.052    16.052
ATOM     15  C   UNL d   1       4.132  18.955   1.973 -0.12 +0.00    +0.066    16.052
ATOM     16  C   UNL d   1       5.471  18.956   1.584 -0.08 -0.00    -0.021    16.052
ATOM     17  C   UNL d   1       5.524  18.310   0.349 -0.08 +0.00    +0.000    16.052
ATOM     18  C   UNL d   1       4.195  17.957   0.074 -0.12 +0.00    +0.070    16.052
ATOM     19  C   UNL d   1       6.561  19.614   2.392 -0.03 +0.00    +0.052    16.052
ATOM     20  C   UNL d   1       2.469  16.894  -1.438 -0.15 +0.00    +0.066    16.052
ATOM     21  C   UNL d   1       2.103  16.172  -2.571 -0.16 +0.00    -0.025    16.052
ATOM     22  C   UNL d   1       0.739  15.998  -2.498 -0.21 +0.00    -0.021    16.052
ATOM     23  C   UNL d   1       0.319  16.638  -1.329 -0.21 +0.00    +0.066    16.052
ATOM     24  C   UNL d   1       3.009  15.676  -3.668 -0.15 -0.01    +0.051    16.052
ATOM     25  N   UNL d   1      -0.687  18.089   1.072 -0.19 -0.04    -0.248    16.052
ATOM     26  N   UNL d   1       1.323  19.289   2.804 -0.14 -0.02    -0.248    16.052
ATOM     27  N   UNL d   1       3.355  18.423   1.033 -0.11 -0.01    -0.248    16.052
ATOM     28  N   UNL d   1       1.368  17.220  -0.711 -0.15 -0.01    -0.248    16.052
ATOM     29 FE   UNL d   1       1.348  18.247   1.033 -0.05 +0.00    +0.000    16.052
ATOM     30  O   UNL d   1       0.609  19.585   0.741 -0.13 +0.00    +0.000    16.052
ATOM     31  O   UNL d   1       1.902  19.213  -0.077 -0.11 +0.00    +0.000    16.052
ATOM     32  C   UNL d   1      -4.045  17.146  -0.216 -0.20 +0.04    +0.052    16.052
ATOM     33  C   UNL d   1      -4.422  18.110  -1.337 -0.12 +0.07    +0.115    16.052
ATOM     34  C   UNL d   1      -5.913  18.185  -1.554 -0.02 +0.13    +0.139    16.052
ATOM     35  O   UNL d   1      -6.453  17.393  -2.309 -0.59 -0.59    -0.650    16.052
ATOM     36  O   UNL d   1      -6.664  19.130  -0.952 -0.49 -0.64    -0.776    16.052
ATOM     37  H   UNL d   1      -6.878  19.965  -1.385 +0.01 +0.07    +0.167    16.052
ATOM     38  C   UNL d   1      -0.114  15.310  -3.532 -0.22 -0.00    +0.052    16.052
ATOM     39  C   UNL d   1      -0.037  15.990  -4.897 -0.14 -0.01    +0.115    16.052
ATOM     40  C   UNL d   1      -1.370  16.531  -5.348 -0.12 +0.01    +0.139    16.052
ATOM     41  O   UNL d   1      -1.756  17.613  -4.934 -0.01 -0.07    -0.650    16.052
ATOM     42  O   UNL d   1      -2.126  15.865  -6.242 -0.48 -0.11    -0.776    16.052
ATOM     43  H   UNL d   1      -2.217  14.905  -6.210 -0.10 +0.01    +0.167    16.052
ATOM     44  C   UNL d   1       2.662  20.803   6.000 -0.06 +0.00    +0.004    16.052
ATOM     45  C   UNL d   1       3.563  20.196   6.772 -0.06 +0.00    +0.012    16.052
ATOM     46  C   UNL d   1       6.676  18.059  -0.586 -0.04 +0.00    +0.004    16.052
ATOM     47  C   UNL d   1       7.175  16.883  -0.990 -0.04 +0.00    +0.012    16.052
TER
ENDMDL
MODEL       90
USER    Run = 90
USER    Cluster Rank = 32
USER    Number of conformations in this cluster = 2
USER  
USER    RMSD from reference structure       = 36.617 A
USER  
USER    Estimated Free Energy of Binding    =   -5.16 kcal/mol  [=(1)+(2)+(3)-(4)]
USER    Estimated Inhibition Constant, Ki   =  165.83 uM (micromolar)  [Temperature = 298.15 K]
USER    
USER    (1) Final Intermolecular Energy     =   -8.14 kcal/mol
USER        vdW + Hbond + desolv Energy     =   -7.75 kcal/mol
USER        Electrostatic Energy            =   -0.39 kcal/mol
USER    (2) Final Total Internal Energy     =   -0.73 kcal/mol
USER    (3) Torsional Free Energy           =   +2.98 kcal/mol
USER    (4) Unbound System's Energy  [=(2)] =   -0.73 kcal/mol
USER    
USER    
USER  
USER    DPF = D:/Protein_go_brrr/autodock/final/mut_D99N/heme_O2/dock.dpf
USER    NEWDPF move	heme_O2_opt.pdbqt
USER    NEWDPF about	8.287000 34.468000 -0.670000
USER    NEWDPF tran0	18.838429 -3.270676 3.664982
USER    NEWDPF axisangle0	0.122733 0.986178 0.111308 -108.012052
USER    NEWDPF quaternion0	0.099301 0.797896 0.090057 -0.587700
USER    NEWDPF dihe0	50.75 -34.14 82.03 112.48 60.58 -142.23 -135.56 -41.05 11.26 168.90 
USER  
USER                              x       y       z    vdW   Elec        q     RMS 
ATOM      1  C   UNL d   1      18.647  -3.206   5.776 -0.13 +0.00    +0.064    36.617
ATOM      2  C   UNL d   1      21.706  -5.425   2.899 -0.04 +0.02    +0.064    36.617
ATOM      3  C   UNL d   1      19.472  -3.673  -0.978 -0.33 -0.01    +0.064    36.617
ATOM      4  C   UNL d   1      16.610  -1.001   1.978 -0.11 -0.00    +0.064    36.617
ATOM      5  C   UNL d   1      19.662  -3.951   5.310 -0.13 +0.01    +0.066    36.617
ATOM      6  C   UNL d   1      20.550  -4.661   6.124 -0.11 -0.00    -0.021    36.617
ATOM      7  C   UNL d   1      21.463  -5.269   5.294 -0.17 -0.01    -0.025    36.617
ATOM      8  C   UNL d   1      21.078  -4.952   3.993 -0.17 +0.02    +0.066    36.617
ATOM      9  C   UNL d   1      22.651  -6.081   5.760 +0.04 +0.03    +0.051    36.617
ATOM     10  C   UNL d   1      21.335  -5.146   1.511 -0.20 +0.01    +0.066    36.617
ATOM     11  C   UNL d   1      21.919  -5.792   0.415 -0.23 -0.00    -0.021    36.617
ATOM     12  C   UNL d   1      21.275  -5.313  -0.712 -0.29 +0.00    +0.000    36.617
ATOM     13  C   UNL d   1      20.323  -4.373  -0.229 -0.27 -0.00    +0.070    36.617
ATOM     14  C   UNL d   1      23.024  -6.841   0.443 -0.20 +0.01    +0.052    36.617
ATOM     15  C   UNL d   1      18.518  -2.687  -0.532 -0.25 -0.01    +0.066    36.617
ATOM     16  C   UNL d   1      17.770  -1.869  -1.379 -0.33 +0.01    -0.021    36.617
ATOM     17  C   UNL d   1      16.948  -1.098  -0.558 -0.30 -0.00    +0.000    36.617
ATOM     18  C   UNL d   1      17.257  -1.510   0.745 -0.22 -0.01    +0.070    36.617
ATOM     19  C   UNL d   1      17.946  -1.858  -2.877 -0.43 -0.01    +0.052    36.617
ATOM     20  C   UNL d   1      16.913  -1.343   3.245 -0.20 -0.00    +0.066    36.617
ATOM     21  C   UNL d   1      16.256  -0.843   4.366 -0.23 +0.00    -0.025    36.617
ATOM     22  C   UNL d   1      16.805  -1.481   5.456 -0.24 +0.00    -0.021    36.617
ATOM     23  C   UNL d   1      17.793  -2.336   4.959 -0.18 -0.00    +0.066    36.617
ATOM     24  C   UNL d   1      15.162   0.193   4.396 -0.30 -0.00    +0.051    36.617
ATOM     25  N   UNL d   1      20.008  -4.088   4.007 -0.13 -0.03    -0.248    36.617
ATOM     26  N   UNL d   1      20.370  -4.275   1.124 -0.16 +0.01    -0.248    36.617
ATOM     27  N   UNL d   1      18.265  -2.420   0.746 -0.14 +0.03    -0.248    36.617
ATOM     28  N   UNL d   1      17.886  -2.216   3.619 -0.13 +0.02    -0.248    36.617
ATOM     29 FE   UNL d   1      19.118  -3.236   2.378 -0.05 -0.00    +0.000    36.617
ATOM     30  O   UNL d   1      20.554  -2.705   2.658 -0.10 +0.00    +0.000    36.617
ATOM     31  O   UNL d   1      19.428  -1.705   2.197 -0.10 -0.00    +0.000    36.617
ATOM     32  C   UNL d   1      20.625  -4.660   7.629 -0.05 +0.01    +0.052    36.617
ATOM     33  C   UNL d   1      19.856  -5.815   8.261 -0.05 +0.01    +0.115    36.617
ATOM     34  C   UNL d   1      20.060  -7.115   7.523 -0.11 +0.03    +0.139    36.617
ATOM     35  O   UNL d   1      19.302  -7.419   6.616 -0.10 -0.16    -0.650    36.617
ATOM     36  O   UNL d   1      21.049  -7.968   7.861 +0.02 -0.26    -0.776    36.617
ATOM     37  H   UNL d   1      21.181  -8.263   8.769 +0.02 +0.04    +0.167    36.617
ATOM     38  C   UNL d   1      16.440  -1.230   6.896 -0.20 +0.00    +0.052    36.617
ATOM     39  C   UNL d   1      17.281  -0.121   7.525 -0.09 +0.00    +0.115    36.617
ATOM     40  C   UNL d   1      16.460   0.809   8.383 -0.09 +0.01    +0.139    36.617
ATOM     41  O   UNL d   1      15.268   0.595   8.541 -0.22 -0.10    -0.650    36.617
ATOM     42  O   UNL d   1      17.029   1.848   9.025 +0.04 -0.04    -0.776    36.617
ATOM     43  H   UNL d   1      17.939   1.809   9.341 +0.01 +0.00    +0.167    36.617
ATOM     44  C   UNL d   1      21.631  -5.791  -2.104 -0.31 +0.00    +0.004    36.617
ATOM     45  C   UNL d   1      22.363  -5.162  -3.023 -0.19 +0.00    +0.012    36.617
ATOM     46  C   UNL d   1      15.970  -0.002  -0.889 -0.30 -0.00    +0.004    36.617
ATOM     47  C   UNL d   1      14.632  -0.057  -0.886 -0.33 -0.00    +0.012    36.617
TER
ENDMDL
MODEL       15
USER    Run = 15
USER    Cluster Rank = 33
USER    Number of conformations in this cluster = 1
USER  
USER    RMSD from reference structure       = 42.924 A
USER  
USER    Estimated Free Energy of Binding    =   -5.10 kcal/mol  [=(1)+(2)+(3)-(4)]
USER    Estimated Inhibition Constant, Ki   =  181.34 uM (micromolar)  [Temperature = 298.15 K]
USER    
USER    (1) Final Intermolecular Energy     =   -8.09 kcal/mol
USER        vdW + Hbond + desolv Energy     =   -6.05 kcal/mol
USER        Electrostatic Energy            =   -2.04 kcal/mol
USER    (2) Final Total Internal Energy     =   -2.10 kcal/mol
USER    (3) Torsional Free Energy           =   +2.98 kcal/mol
USER    (4) Unbound System's Energy  [=(2)] =   -2.10 kcal/mol
USER    
USER    
USER  
USER    DPF = D:/Protein_go_brrr/autodock/final/mut_D99N/heme_O2/dock.dpf
USER    NEWDPF move	heme_O2_opt.pdbqt
USER    NEWDPF about	8.287000 34.468000 -0.670000
USER    NEWDPF tran0	-11.732581 -6.380713 5.146275
USER    NEWDPF axisangle0	-0.921194 0.140878 0.362706 129.567465
USER    NEWDPF quaternion0	-0.833410 0.127453 0.328142 0.426036
USER    NEWDPF dihe0	-34.99 142.90 -73.30 20.94 -158.99 -76.67 -120.22 -103.76 -36.87 -16.74 
USER  
USER                              x       y       z    vdW   Elec        q     RMS 
ATOM      1  C   UNL d   1     -12.574  -5.323   6.781 -0.11 +0.04    +0.064    42.924
ATOM      2  C   UNL d   1     -14.304  -6.575   2.538 -0.06 +0.03    +0.064    42.924
ATOM      3  C   UNL d   1     -10.124  -8.619   1.335 -0.14 -0.01    +0.064    42.924
ATOM      4  C   UNL d   1      -8.487  -7.757   5.878 -0.25 +0.01    +0.064    42.924
ATOM      5  C   UNL d   1     -13.386  -5.499   5.726 -0.08 +0.06    +0.066    42.924
ATOM      6  C   UNL d   1     -14.700  -5.024   5.662 -0.07 -0.02    -0.021    42.924
ATOM      7  C   UNL d   1     -15.216  -5.424   4.451 -0.07 -0.02    -0.025    42.924
ATOM      8  C   UNL d   1     -14.188  -6.089   3.789 -0.09 +0.05    +0.066    42.924
ATOM      9  C   UNL d   1     -16.640  -5.188   3.997 -0.03 +0.02    +0.051    42.924
ATOM     10  C   UNL d   1     -13.254  -7.262   1.784 -0.05 +0.02    +0.066    42.924
ATOM     11  C   UNL d   1     -13.374  -7.600   0.432 -0.03 -0.00    -0.021    42.924
ATOM     12  C   UNL d   1     -12.172  -8.175   0.062 -0.04 -0.00    +0.000    42.924
ATOM     13  C   UNL d   1     -11.373  -8.165   1.239 -0.06 -0.00    +0.070    42.924
ATOM     14  C   UNL d   1     -14.575  -7.361  -0.476 -0.01 +0.00    +0.052    42.924
ATOM     15  C   UNL d   1      -9.295  -8.660   2.515 -0.18 -0.00    +0.066    42.924
ATOM     16  C   UNL d   1      -8.057  -9.297   2.590 -0.21 +0.00    -0.021    42.924
ATOM     17  C   UNL d   1      -7.571  -9.065   3.877 -0.32 +0.00    +0.000    42.924
ATOM     18  C   UNL d   1      -8.562  -8.292   4.498 -0.26 +0.01    +0.070    42.924
ATOM     19  C   UNL d   1      -7.479 -10.108   1.458 -0.18 -0.02    +0.052    42.924
ATOM     20  C   UNL d   1      -9.438  -7.049   6.519 -0.22 +0.02    +0.066    42.924
ATOM     21  C   UNL d   1      -9.303  -6.556   7.814 -0.31 -0.01    -0.025    42.924
ATOM     22  C   UNL d   1     -10.447  -5.837   8.079 -0.22 -0.01    -0.021    42.924
ATOM     23  C   UNL d   1     -11.248  -5.933   6.937 -0.14 +0.03    +0.066    42.924
ATOM     24  C   UNL d   1      -8.143  -6.764   8.754 -0.36 +0.01    +0.051    42.924
ATOM     25  N   UNL d   1     -13.082  -6.192   4.602 -0.08 -0.18    -0.248    42.924
ATOM     26  N   UNL d   1     -12.041  -7.612   2.283 -0.05 -0.05    -0.248    42.924
ATOM     27  N   UNL d   1      -9.633  -8.119   3.683 -0.13 -0.03    -0.248    42.924
ATOM     28  N   UNL d   1     -10.650  -6.708   6.009 -0.12 -0.09    -0.248    42.924
ATOM     29 FE   UNL d   1     -11.338  -7.158   4.159 -0.04 +0.00    +0.000    42.924
ATOM     30  O   UNL d   1     -12.550  -8.113   4.366 -0.07 +0.00    +0.000    42.924
ATOM     31  O   UNL d   1     -11.135  -8.514   4.930 -0.10 +0.00    +0.000    42.924
ATOM     32  C   UNL d   1     -15.489  -4.341   6.749 -0.04 +0.03    +0.052    42.924
ATOM     33  C   UNL d   1     -14.704  -3.231   7.442 -0.05 +0.07    +0.115    42.924
ATOM     34  C   UNL d   1     -14.229  -2.174   6.476 -0.04 +0.16    +0.139    42.924
ATOM     35  O   UNL d   1     -15.019  -1.675   5.691 -0.08 -0.76    -0.650    42.924
ATOM     36  O   UNL d   1     -12.938  -1.784   6.440 -0.10 -1.09    -0.776    42.924
ATOM     37  H   UNL d   1     -12.395  -1.740   7.236 +0.04 +0.14    +0.167    42.924
ATOM     38  C   UNL d   1     -10.773  -5.152   9.381 -0.19 +0.01    +0.052    42.924
ATOM     39  C   UNL d   1     -10.169  -3.752   9.470 -0.18 +0.03    +0.115    42.924
ATOM     40  C   UNL d   1     -10.914  -2.749   8.626 -0.29 +0.05    +0.139    42.924
ATOM     41  O   UNL d   1     -12.051  -2.426   8.930 +0.04 -0.26    -0.650    42.924
ATOM     42  O   UNL d   1     -10.328  -2.159   7.566 -0.18 -0.43    -0.776    42.924
ATOM     43  H   UNL d   1     -10.829  -1.932   6.773 +0.05 +0.15    +0.167    42.924
ATOM     44  C   UNL d   1     -11.917  -8.667  -1.348 -0.07 -0.00    +0.004    42.924
ATOM     45  C   UNL d   1     -11.209  -8.072  -2.307 -0.12 -0.01    +0.012    42.924
ATOM     46  C   UNL d   1      -6.320  -9.546   4.563 -0.41 +0.00    +0.004    42.924
ATOM     47  C   UNL d   1      -5.237 -10.109   4.012 -0.36 -0.00    +0.012    42.924
TER
ENDMDL
MODEL       61
USER    Run = 61
USER    Cluster Rank = 34
USER    Number of conformations in this cluster = 1
USER  
USER    RMSD from reference structure       = 18.405 A
USER  
USER    Estimated Free Energy of Binding    =   -5.05 kcal/mol  [=(1)+(2)+(3)-(4)]
USER    Estimated Inhibition Constant, Ki   =  197.11 uM (micromolar)  [Temperature = 298.15 K]
USER    
USER    (1) Final Intermolecular Energy     =   -8.04 kcal/mol
USER        vdW + Hbond + desolv Energy     =   -6.39 kcal/mol
USER        Electrostatic Energy            =   -1.65 kcal/mol
USER    (2) Final Total Internal Energy     =   -2.14 kcal/mol
USER    (3) Torsional Free Energy           =   +2.98 kcal/mol
USER    (4) Unbound System's Energy  [=(2)] =   -2.14 kcal/mol
USER    
USER    
USER  
USER    DPF = D:/Protein_go_brrr/autodock/final/mut_D99N/heme_O2/dock.dpf
USER    NEWDPF move	heme_O2_opt.pdbqt
USER    NEWDPF about	8.287000 34.468000 -0.670000
USER    NEWDPF tran0	-5.627454 19.361614 4.579093
USER    NEWDPF axisangle0	0.779449 -0.321670 0.537575 -174.529991
USER    NEWDPF quaternion0	0.778561 -0.321304 0.536963 -0.047717
USER    NEWDPF dihe0	-144.00 47.33 -18.62 -31.35 30.27 -141.70 -78.90 -97.87 168.99 117.45 
USER  
USER                              x       y       z    vdW   Elec        q     RMS 
ATOM      1  C   UNL d   1      -7.009  20.062   3.130 -0.07 +0.03    +0.064    18.405
ATOM      2  C   UNL d   1      -2.265  20.131   3.335 -0.10 +0.01    +0.064    18.405
ATOM      3  C   UNL d   1      -2.327  17.988   7.635 -0.26 +0.01    +0.064    18.405
ATOM      4  C   UNL d   1      -7.188  17.479   7.221 -0.06 +0.00    +0.064    18.405
ATOM      5  C   UNL d   1      -5.714  20.254   2.834 -0.07 +0.03    +0.066    18.405
ATOM      6  C   UNL d   1      -5.262  20.878   1.668 -0.05 -0.01    -0.021    18.405
ATOM      7  C   UNL d   1      -3.887  20.860   1.706 -0.04 -0.01    -0.025    18.405
ATOM      8  C   UNL d   1      -3.538  20.269   2.917 -0.07 +0.02    +0.066    18.405
ATOM      9  C   UNL d   1      -2.984  21.366   0.602 -0.02 +0.01    +0.051    18.405
ATOM     10  C   UNL d   1      -1.838  19.540   4.604 -0.12 +0.01    +0.066    18.405
ATOM     11  C   UNL d   1      -0.516  19.571   5.061 -0.19 -0.00    -0.021    18.405
ATOM     12  C   UNL d   1      -0.516  18.973   6.308 -0.24 +0.00    +0.000    18.405
ATOM     13  C   UNL d   1      -1.867  18.593   6.541 -0.16 +0.01    +0.070    18.405
ATOM     14  C   UNL d   1       0.693  20.169   4.350 -0.14 +0.00    +0.052    18.405
ATOM     15  C   UNL d   1      -3.679  17.555   7.895 -0.23 +0.00    +0.066    18.405
ATOM     16  C   UNL d   1      -4.065  16.780   8.988 -0.27 +0.00    -0.021    18.405
ATOM     17  C   UNL d   1      -5.447  16.621   8.891 -0.26 -0.00    +0.000    18.405
ATOM     18  C   UNL d   1      -5.806  17.322   7.731 -0.21 +0.00    +0.070    18.405
ATOM     19  C   UNL d   1      -3.083  16.220   9.987 -0.31 -0.01    +0.052    18.405
ATOM     20  C   UNL d   1      -7.562  18.107   6.090 -0.13 +0.01    +0.066    18.405
ATOM     21  C   UNL d   1      -8.883  18.238   5.670 -0.13 -0.00    -0.025    18.405
ATOM     22  C   UNL d   1      -8.854  18.995   4.520 -0.12 -0.01    -0.021    18.405
ATOM     23  C   UNL d   1      -7.509  19.283   4.270 -0.08 +0.03    +0.066    18.405
ATOM     24  C   UNL d   1     -10.111  17.667   6.331 -0.16 -0.01    +0.051    18.405
ATOM     25  N   UNL d   1      -4.662  19.837   3.581 -0.07 -0.09    -0.248    18.405
ATOM     26  N   UNL d   1      -2.663  18.938   5.497 -0.05 -0.05    -0.248    18.405
ATOM     27  N   UNL d   1      -4.711  17.818   7.099 -0.15 -0.03    -0.248    18.405
ATOM     28  N   UNL d   1      -6.724  18.704   5.201 -0.11 -0.09    -0.248    18.405
ATOM     29 FE   UNL d   1      -4.708  18.818   5.351 -0.04 +0.00    +0.000    18.405
ATOM     30  O   UNL d   1      -4.137  17.990   4.163 -0.34 +0.00    +0.000    18.405
ATOM     31  O   UNL d   1      -5.086  17.298   5.213 -0.45 +0.00    +0.000    18.405
ATOM     32  C   UNL d   1      -6.083  21.351   0.496 -0.03 +0.02    +0.052    18.405
ATOM     33  C   UNL d   1      -5.920  20.467  -0.736 -0.03 +0.05    +0.115    18.405
ATOM     34  C   UNL d   1      -7.048  19.477  -0.887 -0.02 +0.09    +0.139    18.405
ATOM     35  O   UNL d   1      -6.804  18.281  -0.902 -0.31 -0.88    -0.650    18.405
ATOM     36  O   UNL d   1      -8.326  19.885  -1.036 -0.00 -0.31    -0.776    18.405
ATOM     37  H   UNL d   1      -9.064  19.403  -0.645 +0.01 +0.07    +0.167    18.405
ATOM     38  C   UNL d   1     -10.049  19.361   3.679 -0.07 +0.01    +0.052    18.405
ATOM     39  C   UNL d   1      -9.748  19.302   2.183 -0.08 +0.04    +0.115    18.405
ATOM     40  C   UNL d   1      -9.815  17.898   1.636 -0.03 +0.08    +0.139    18.405
ATOM     41  O   UNL d   1     -10.139  16.978   2.368 -0.04 -0.32    -0.650    18.405
ATOM     42  O   UNL d   1      -9.572  17.646   0.335 +0.02 -0.52    -0.776    18.405
ATOM     43  H   UNL d   1      -8.785  17.986  -0.107 +0.01 +0.15    +0.167    18.405
ATOM     44  C   UNL d   1       0.748  18.827   7.129 -0.26 +0.00    +0.004    18.405
ATOM     45  C   UNL d   1       0.853  18.678   8.449 -0.19 +0.00    +0.012    18.405
ATOM     46  C   UNL d   1      -6.414  15.841   9.740 -0.30 -0.00    +0.004    18.405
ATOM     47  C   UNL d   1      -6.235  14.645  10.314 -0.38 -0.00    +0.012    18.405
TER
ENDMDL
MODEL       56
USER    Run = 56
USER    Cluster Rank = 35
USER    Number of conformations in this cluster = 1
USER  
USER    RMSD from reference structure       = 45.688 A
USER  
USER    Estimated Free Energy of Binding    =   -5.04 kcal/mol  [=(1)+(2)+(3)-(4)]
USER    Estimated Inhibition Constant, Ki   =  202.35 uM (micromolar)  [Temperature = 298.15 K]
USER    
USER    (1) Final Intermolecular Energy     =   -8.02 kcal/mol
USER        vdW + Hbond + desolv Energy     =   -5.58 kcal/mol
USER        Electrostatic Energy            =   -2.44 kcal/mol
USER    (2) Final Total Internal Energy     =   -0.48 kcal/mol
USER    (3) Torsional Free Energy           =   +2.98 kcal/mol
USER    (4) Unbound System's Energy  [=(2)] =   -0.48 kcal/mol
USER    
USER    
USER  
USER    DPF = D:/Protein_go_brrr/autodock/final/mut_D99N/heme_O2/dock.dpf
USER    NEWDPF move	heme_O2_opt.pdbqt
USER    NEWDPF about	8.287000 34.468000 -0.670000
USER    NEWDPF tran0	-9.844377 -5.775636 -17.835765
USER    NEWDPF axisangle0	-0.517985 0.816853 -0.253855 -173.555622
USER    NEWDPF quaternion0	-0.517166 0.815562 -0.253454 -0.056208
USER    NEWDPF dihe0	77.32 -32.58 -91.41 124.76 58.93 162.74 7.22 32.65 175.39 -49.86 
USER  
USER                              x       y       z    vdW   Elec        q     RMS 
ATOM      1  C   UNL d   1      -9.760  -3.658 -17.746 -0.23 +0.02    +0.064    45.688
ATOM      2  C   UNL d   1      -6.765  -6.918 -19.467 -0.20 +0.00    +0.064    45.688
ATOM      3  C   UNL d   1      -9.705 -10.469 -18.111 -0.09 +0.00    +0.064    45.688
ATOM      4  C   UNL d   1     -13.014  -7.107 -16.766 -0.09 +0.01    +0.064    45.688
ATOM      5  C   UNL d   1      -8.707  -4.255 -18.327 -0.21 +0.01    +0.066    45.688
ATOM      6  C   UNL d   1      -7.603  -3.568 -18.840 -0.20 -0.01    -0.021    45.688
ATOM      7  C   UNL d   1      -6.755  -4.508 -19.378 -0.18 -0.01    -0.025    45.688
ATOM      8  C   UNL d   1      -7.341  -5.747 -19.134 -0.19 +0.01    +0.066    45.688
ATOM      9  C   UNL d   1      -5.468  -4.195 -20.109 -0.13 +0.02    +0.051    45.688
ATOM     10  C   UNL d   1      -7.320  -8.248 -19.217 -0.18 +0.00    +0.066    45.688
ATOM     11  C   UNL d   1      -6.608  -9.433 -19.435 -0.17 -0.00    -0.021    45.688
ATOM     12  C   UNL d   1      -7.432 -10.468 -19.033 -0.12 +0.00    +0.000    45.688
ATOM     13  C   UNL d   1      -8.632  -9.842 -18.594 -0.11 +0.00    +0.070    45.688
ATOM     14  C   UNL d   1      -5.190  -9.570 -19.977 -0.18 -0.00    +0.052    45.688
ATOM     15  C   UNL d   1     -10.951  -9.876 -17.690 -0.05 +0.00    +0.066    45.688
ATOM     16  C   UNL d   1     -12.094 -10.597 -17.348 -0.05 -0.00    -0.021    45.688
ATOM     17  C   UNL d   1     -13.052  -9.659 -16.962 -0.05 +0.00    +0.000    45.688
ATOM     18  C   UNL d   1     -12.411  -8.419 -17.097 -0.07 +0.01    +0.070    45.688
ATOM     19  C   UNL d   1     -12.188 -12.097 -17.472 -0.01 +0.00    +0.052    45.688
ATOM     20  C   UNL d   1     -12.443  -5.896 -16.925 -0.13 +0.01    +0.066    45.688
ATOM     21  C   UNL d   1     -13.054  -4.694 -16.578 -0.12 -0.00    -0.025    45.688
ATOM     22  C   UNL d   1     -12.131  -3.703 -16.825 -0.17 -0.00    -0.021    45.688
ATOM     23  C   UNL d   1     -10.993  -4.338 -17.332 -0.20 +0.01    +0.066    45.688
ATOM     24  C   UNL d   1     -14.449  -4.501 -16.042 -0.07 +0.01    +0.051    45.688
ATOM     25  N   UNL d   1      -8.574  -5.586 -18.545 -0.04 -0.00    -0.248    45.688
ATOM     26  N   UNL d   1      -8.557  -8.492 -18.715 -0.07 -0.01    -0.248    45.688
ATOM     27  N   UNL d   1     -11.163  -8.565 -17.611 -0.05 -0.02    -0.248    45.688
ATOM     28  N   UNL d   1     -11.204  -5.666 -17.433 -0.12 -0.01    -0.248    45.688
ATOM     29 FE   UNL d   1      -9.892  -7.071 -18.069 -0.05 -0.00    +0.000    45.688
ATOM     30  O   UNL d   1      -9.724  -6.848 -19.600 -0.11 +0.00    +0.000    45.688
ATOM     31  O   UNL d   1     -11.153  -7.144 -19.006 -0.10 +0.00    +0.000    45.688
ATOM     32  C   UNL d   1      -7.412  -2.077 -18.948 -0.05 +0.04    +0.052    45.688
ATOM     33  C   UNL d   1      -7.680  -1.545 -20.353 -0.11 +0.08    +0.115    45.688
ATOM     34  C   UNL d   1      -7.370  -0.074 -20.480 +0.05 +0.19    +0.139    45.688
ATOM     35  O   UNL d   1      -8.253   0.747 -20.288 -0.35 -0.92    -0.650    45.688
ATOM     36  O   UNL d   1      -6.141   0.358 -20.830 -0.37 -1.11    -0.776    45.688
ATOM     37  H   UNL d   1      -5.832   0.333 -21.743 +0.02 +0.14    +0.167    45.688
ATOM     38  C   UNL d   1     -12.360  -2.225 -16.643 -0.21 +0.01    +0.052    45.688
ATOM     39  C   UNL d   1     -12.894  -1.886 -15.253 -0.26 +0.03    +0.115    45.688
ATOM     40  C   UNL d   1     -13.802  -0.681 -15.262 -0.20 +0.08    +0.139    45.688
ATOM     41  O   UNL d   1     -13.419   0.362 -15.767 -0.01 -0.40    -0.650    45.688
ATOM     42  O   UNL d   1     -15.052  -0.749 -14.766 -0.21 -0.69    -0.776    45.688
ATOM     43  H   UNL d   1     -15.559  -1.569 -14.786 +0.04 +0.08    +0.167    45.688
ATOM     44  C   UNL d   1      -6.999 -11.917 -19.110 -0.07 +0.00    +0.004    45.688
ATOM     45  C   UNL d   1      -6.281 -12.605 -18.224 -0.09 -0.00    +0.012    45.688
ATOM     46  C   UNL d   1     -14.489  -9.828 -16.547 -0.01 +0.00    +0.004    45.688
ATOM     47  C   UNL d   1     -15.053  -9.522 -15.371 -0.01 +0.00    +0.012    45.688
TER
ENDMDL
MODEL       38
USER    Run = 38
USER    Cluster Rank = 36
USER    Number of conformations in this cluster = 1
USER  
USER    RMSD from reference structure       = 17.094 A
USER  
USER    Estimated Free Energy of Binding    =   -4.97 kcal/mol  [=(1)+(2)+(3)-(4)]
USER    Estimated Inhibition Constant, Ki   =  228.95 uM (micromolar)  [Temperature = 298.15 K]
USER    
USER    (1) Final Intermolecular Energy     =   -7.95 kcal/mol
USER        vdW + Hbond + desolv Energy     =   -7.31 kcal/mol
USER        Electrostatic Energy            =   -0.64 kcal/mol
USER    (2) Final Total Internal Energy     =   -0.67 kcal/mol
USER    (3) Torsional Free Energy           =   +2.98 kcal/mol
USER    (4) Unbound System's Energy  [=(2)] =   -0.67 kcal/mol
USER    
USER    
USER  
USER    DPF = D:/Protein_go_brrr/autodock/final/mut_D99N/heme_O2/dock.dpf
USER    NEWDPF move	heme_O2_opt.pdbqt
USER    NEWDPF about	8.287000 34.468000 -0.670000
USER    NEWDPF tran0	3.603996 16.736557 0.278134
USER    NEWDPF axisangle0	0.319031 0.947536 -0.019866 153.587556
USER    NEWDPF quaternion0	0.310594 0.922478 -0.019340 0.228457
USER    NEWDPF dihe0	-55.86 -149.65 -116.46 120.60 -68.30 -69.93 75.77 -141.67 166.52 -12.64 
USER  
USER                              x       y       z    vdW   Elec        q     RMS 
ATOM      1  C   UNL d   1       5.604  16.049   0.121 -0.14 +0.00    +0.064    17.094
ATOM      2  C   UNL d   1       1.633  14.928  -2.230 -0.29 -0.00    +0.064    17.094
ATOM      3  C   UNL d   1      -0.924  18.000   0.437 -0.25 +0.01    +0.064    17.094
ATOM      4  C   UNL d   1       3.241  19.512   2.542 -0.12 +0.00    +0.064    17.094
ATOM      5  C   UNL d   1       4.733  15.495  -0.737 -0.15 +0.00    +0.066    17.094
ATOM      6  C   UNL d   1       5.075  14.520  -1.679 -0.23 -0.00    -0.021    17.094
ATOM      7  C   UNL d   1       3.935  14.226  -2.390 -0.28 +0.00    -0.025    17.094
ATOM      8  C   UNL d   1       2.918  14.994  -1.830 -0.22 -0.00    +0.066    17.094
ATOM      9  C   UNL d   1       3.868  13.272  -3.562 -0.11 -0.01    +0.051    17.094
ATOM     10  C   UNL d   1       0.519  15.691  -1.667 -0.25 +0.00    +0.066    17.094
ATOM     11  C   UNL d   1      -0.819  15.465  -2.008 -0.30 -0.00    -0.021    17.094
ATOM     12  C   UNL d   1      -1.574  16.329  -1.236 -0.25 +0.00    +0.000    17.094
ATOM     13  C   UNL d   1      -0.631  17.058  -0.459 -0.17 +0.01    +0.070    17.094
ATOM     14  C   UNL d   1      -1.357  14.448  -3.008 -0.31 +0.00    +0.052    17.094
ATOM     15  C   UNL d   1       0.002  18.786   1.217 -0.22 +0.01    +0.066    17.094
ATOM     16  C   UNL d   1      -0.360  19.869   2.017 -0.14 -0.00    -0.021    17.094
ATOM     17  C   UNL d   1       0.812  20.317   2.627 -0.12 +0.00    +0.000    17.094
ATOM     18  C   UNL d   1       1.813  19.461   2.148 -0.16 +0.00    +0.070    17.094
ATOM     19  C   UNL d   1      -1.766  20.409   2.084 -0.09 +0.01    +0.052    17.094
ATOM     20  C   UNL d   1       4.235  18.734   2.070 -0.12 +0.00    +0.066    17.094
ATOM     21  C   UNL d   1       5.559  18.817   2.493 -0.09 -0.00    -0.025    17.094
ATOM     22  C   UNL d   1       6.241  17.820   1.833 -0.10 -0.00    -0.021    17.094
ATOM     23  C   UNL d   1       5.308  17.174   1.016 -0.12 +0.00    +0.066    17.094
ATOM     24  C   UNL d   1       6.143  19.801   3.473 -0.04 +0.00    +0.051    17.094
ATOM     25  N   UNL d   1       3.423  15.823  -0.856 -0.03 -0.01    -0.248    17.094
ATOM     26  N   UNL d   1       0.640  16.667  -0.731 -0.16 -0.01    -0.248    17.094
ATOM     27  N   UNL d   1       1.316  18.586   1.237 -0.17 -0.02    -0.248    17.094
ATOM     28  N   UNL d   1       4.100  17.762   1.130 -0.03 -0.01    -0.248    17.094
ATOM     29 FE   UNL d   1       2.381  17.221   0.207 -0.06 +0.00    +0.000    17.094
ATOM     30  O   UNL d   1       2.562  17.581  -1.296 -0.16 +0.00    +0.000    17.094
ATOM     31  O   UNL d   1       2.688  18.708  -0.202 -0.13 +0.00    +0.000    17.094
ATOM     32  C   UNL d   1       6.447  13.982  -1.995 -0.17 +0.01    +0.052    17.094
ATOM     33  C   UNL d   1       6.959  14.431  -3.360 -0.06 +0.02    +0.115    17.094
ATOM     34  C   UNL d   1       6.933  13.318  -4.378 -0.03 +0.05    +0.139    17.094
ATOM     35  O   UNL d   1       6.603  13.560  -5.528 -0.08 -0.25    -0.650    17.094
ATOM     36  O   UNL d   1       7.241  12.049  -4.040 -0.51 -0.55    -0.776    17.094
ATOM     37  H   UNL d   1       8.079  11.820  -3.622 +0.04 +0.07    +0.167    17.094
ATOM     38  C   UNL d   1       7.720  17.550   1.939 -0.05 +0.00    +0.052    17.094
ATOM     39  C   UNL d   1       8.055  16.579   3.069 -0.07 +0.00    +0.115    17.094
ATOM     40  C   UNL d   1       7.023  15.489   3.217 -0.21 -0.00    +0.139    17.094
ATOM     41  O   UNL d   1       6.985  14.576   2.408 -0.03 -0.01    -0.650    17.094
ATOM     42  O   UNL d   1       6.171  15.475   4.261 -0.00 +0.08    -0.776    17.094
ATOM     43  H   UNL d   1       5.858  14.648   4.645 -0.36 -0.05    +0.167    17.094
ATOM     44  C   UNL d   1      -3.085  16.371  -1.320 -0.32 +0.00    +0.004    17.094
ATOM     45  C   UNL d   1      -3.946  15.380  -1.091 -0.35 +0.01    +0.012    17.094
ATOM     46  C   UNL d   1       1.065  21.483   3.546 -0.05 +0.00    +0.004    17.094
ATOM     47  C   UNL d   1       1.436  21.458   4.832 -0.05 +0.00    +0.012    17.094
TER
ENDMDL
MODEL      100
USER    Run = 100
USER    Cluster Rank = 37
USER    Number of conformations in this cluster = 1
USER  
USER    RMSD from reference structure       = 40.014 A
USER  
USER    Estimated Free Energy of Binding    =   -4.97 kcal/mol  [=(1)+(2)+(3)-(4)]
USER    Estimated Inhibition Constant, Ki   =  228.97 uM (micromolar)  [Temperature = 298.15 K]
USER    
USER    (1) Final Intermolecular Energy     =   -7.95 kcal/mol
USER        vdW + Hbond + desolv Energy     =   -4.82 kcal/mol
USER        Electrostatic Energy            =   -3.13 kcal/mol
USER    (2) Final Total Internal Energy     =   -1.52 kcal/mol
USER    (3) Torsional Free Energy           =   +2.98 kcal/mol
USER    (4) Unbound System's Energy  [=(2)] =   -1.52 kcal/mol
USER    
USER    
USER  
USER    DPF = D:/Protein_go_brrr/autodock/final/mut_D99N/heme_O2/dock.dpf
USER    NEWDPF move	heme_O2_opt.pdbqt
USER    NEWDPF about	8.287000 34.468000 -0.670000
USER    NEWDPF tran0	24.728953 -4.837603 3.896829
USER    NEWDPF axisangle0	-0.243157 -0.052422 0.968569 -170.427622
USER    NEWDPF quaternion0	-0.242309 -0.052239 0.965192 -0.083438
USER    NEWDPF dihe0	-86.98 44.58 50.74 90.06 70.26 -40.36 -140.37 116.96 -173.59 -153.19 
USER  
USER                              x       y       z    vdW   Elec        q     RMS 
ATOM      1  C   UNL d   1      26.653  -5.728   3.968 -0.06 +0.03    +0.064    40.014
ATOM      2  C   UNL d   1      24.236  -3.059   7.066 -0.00 +0.01    +0.064    40.014
ATOM      3  C   UNL d   1      20.551  -2.680   4.005 -0.08 +0.00    +0.064    40.014
ATOM      4  C   UNL d   1      22.828  -5.821   1.002 -0.16 +0.02    +0.064    40.014
ATOM      5  C   UNL d   1      26.295  -5.035   5.061 -0.04 +0.03    +0.066    40.014
ATOM      6  C   UNL d   1      27.108  -4.875   6.188 -0.02 -0.01    -0.021    40.014
ATOM      7  C   UNL d   1      26.392  -4.139   7.102 -0.01 -0.01    -0.025    40.014
ATOM      8  C   UNL d   1      25.181  -3.828   6.491 -0.01 +0.01    +0.066    40.014
ATOM      9  C   UNL d   1      26.866  -3.794   8.498 +0.00 +0.01    +0.051    40.014
ATOM     10  C   UNL d   1      22.956  -2.680   6.465 -0.01 +0.01    +0.066    40.014
ATOM     11  C   UNL d   1      22.084  -1.747   7.037 -0.00 -0.00    -0.021    40.014
ATOM     12  C   UNL d   1      21.024  -1.611   6.160 -0.01 +0.00    +0.000    40.014
ATOM     13  C   UNL d   1      21.310  -2.497   5.085 -0.03 +0.01    +0.070    40.014
ATOM     14  C   UNL d   1      22.268  -0.997   8.351 +0.00 +0.00    +0.052    40.014
ATOM     15  C   UNL d   1      20.787  -3.592   2.912 -0.14 +0.01    +0.066    40.014
ATOM     16  C   UNL d   1      19.874  -3.857   1.892 -0.21 +0.00    -0.021    40.014
ATOM     17  C   UNL d   1      20.502  -4.751   1.024 -0.29 -0.00    +0.000    40.014
ATOM     18  C   UNL d   1      21.768  -4.966   1.586 -0.18 +0.01    +0.070    40.014
ATOM     19  C   UNL d   1      18.480  -3.283   1.866 -0.29 -0.01    +0.052    40.014
ATOM     20  C   UNL d   1      24.036  -6.082   1.537 -0.12 +0.02    +0.066    40.014
ATOM     21  C   UNL d   1      25.001  -6.882   0.931 -0.11 -0.01    -0.025    40.014
ATOM     22  C   UNL d   1      26.108  -6.845   1.749 -0.08 -0.01    -0.021    40.014
ATOM     23  C   UNL d   1      25.770  -6.035   2.837 -0.08 +0.03    +0.066    40.014
ATOM     24  C   UNL d   1      24.872  -7.646  -0.362 -0.09 +0.01    +0.051    40.014
ATOM     25  N   UNL d   1      25.096  -4.435   5.259 -0.03 -0.08    -0.248    40.014
ATOM     26  N   UNL d   1      22.485  -3.147   5.281 -0.01 -0.04    -0.248    40.014
ATOM     27  N   UNL d   1      21.896  -4.314   2.770 -0.09 -0.04    -0.248    40.014
ATOM     28  N   UNL d   1      24.494  -5.610   2.727 -0.08 -0.11    -0.248    40.014
ATOM     29 FE   UNL d   1      23.495  -4.388   3.993 -0.02 +0.00    +0.000    40.014
ATOM     30  O   UNL d   1      23.246  -5.213   5.289 -0.13 +0.00    +0.000    40.014
ATOM     31  O   UNL d   1      22.694  -5.739   3.910 +0.01 +0.00    +0.000    40.014
ATOM     32  C   UNL d   1      28.451  -5.504   6.453 -0.01 +0.01    +0.052    40.014
ATOM     33  C   UNL d   1      28.345  -6.852   7.160 -0.02 +0.04    +0.115    40.014
ATOM     34  C   UNL d   1      27.166  -7.662   6.680 +0.10 +0.14    +0.139    40.014
ATOM     35  O   UNL d   1      26.052  -7.424   7.119 -0.45 -0.72    -0.650    40.014
ATOM     36  O   UNL d   1      27.318  -8.666   5.792 -0.29 -1.21    -0.776    40.014
ATOM     37  H   UNL d   1      27.310  -8.513   4.840 -0.00 +0.24    +0.167    40.014
ATOM     38  C   UNL d   1      27.392  -7.600   1.523 -0.05 +0.02    +0.052    40.014
ATOM     39  C   UNL d   1      27.156  -9.087   1.268 -0.05 +0.05    +0.115    40.014
ATOM     40  C   UNL d   1      26.553  -9.788   2.460 -0.04 +0.15    +0.139    40.014
ATOM     41  O   UNL d   1      25.369 -10.084   2.454 -0.34 -0.96    -0.650    40.014
ATOM     42  O   UNL d   1      27.311 -10.142   3.516 -0.29 -0.94    -0.776    40.014
ATOM     43  H   UNL d   1      27.933  -9.525   3.919 +0.00 +0.15    +0.167    40.014
ATOM     44  C   UNL d   1      19.869  -0.671   6.436 -0.02 +0.00    +0.004    40.014
ATOM     45  C   UNL d   1      18.565  -0.919   6.319 -0.06 +0.00    +0.012    40.014
ATOM     46  C   UNL d   1      20.000  -5.440  -0.217 -0.48 -0.00    +0.004    40.014
ATOM     47  C   UNL d   1      19.955  -4.964  -1.468 -0.48 -0.00    +0.012    40.014
TER
ENDMDL
MODEL       13
USER    Run = 13
USER    Cluster Rank = 38
USER    Number of conformations in this cluster = 1
USER  
USER    RMSD from reference structure       = 33.366 A
USER  
USER    Estimated Free Energy of Binding    =   -4.90 kcal/mol  [=(1)+(2)+(3)-(4)]
USER    Estimated Inhibition Constant, Ki   =  254.92 uM (micromolar)  [Temperature = 298.15 K]
USER    
USER    (1) Final Intermolecular Energy     =   -7.89 kcal/mol
USER        vdW + Hbond + desolv Energy     =   -6.71 kcal/mol
USER        Electrostatic Energy            =   -1.17 kcal/mol
USER    (2) Final Total Internal Energy     =   -2.02 kcal/mol
USER    (3) Torsional Free Energy           =   +2.98 kcal/mol
USER    (4) Unbound System's Energy  [=(2)] =   -2.02 kcal/mol
USER    
USER    
USER  
USER    DPF = D:/Protein_go_brrr/autodock/final/mut_D99N/heme_O2/dock.dpf
USER    NEWDPF move	heme_O2_opt.pdbqt
USER    NEWDPF about	8.287000 34.468000 -0.670000
USER    NEWDPF tran0	16.592720 0.181550 5.630122
USER    NEWDPF axisangle0	-0.868190 0.474393 0.145591 137.635949
USER    NEWDPF quaternion0	-0.809533 0.442342 0.135754 0.361332
USER    NEWDPF dihe0	145.32 -89.96 -20.57 -103.84 -134.41 93.85 -86.73 69.51 180.00 -156.61 
USER  
USER                              x       y       z    vdW   Elec        q     RMS 
ATOM      1  C   UNL d   1      15.583   1.867   6.429 -0.08 +0.00    +0.064    33.366
ATOM      2  C   UNL d   1      15.941   0.134   2.022 +0.01 -0.00    +0.064    33.366
ATOM      3  C   UNL d   1      18.782  -3.426   3.553 -0.21 +0.00    +0.064    33.366
ATOM      4  C   UNL d   1      18.033  -1.931   8.164 -0.08 -0.00    +0.064    33.366
ATOM      5  C   UNL d   1      15.447   1.685   5.106 -0.10 +0.00    +0.066    33.366
ATOM      6  C   UNL d   1      14.709   2.530   4.272 -0.12 -0.00    -0.021    33.366
ATOM      7  C   UNL d   1      14.776   2.005   3.002 -0.18 -0.00    -0.025    33.366
ATOM      8  C   UNL d   1      15.593   0.881   3.088 -0.16 -0.00    +0.066    33.366
ATOM      9  C   UNL d   1      14.054   2.564   1.795 -0.22 +0.00    +0.051    33.366
ATOM     10  C   UNL d   1      16.812  -1.041   2.045 -0.13 -0.00    +0.066    33.366
ATOM     11  C   UNL d   1      17.272  -1.682   0.889 -0.26 +0.00    -0.021    33.366
ATOM     12  C   UNL d   1      18.107  -2.700   1.310 -0.30 -0.00    +0.000    33.366
ATOM     13  C   UNL d   1      18.099  -2.630   2.730 -0.22 -0.01    +0.070    33.366
ATOM     14  C   UNL d   1      16.950  -1.320  -0.556 -0.34 -0.01    +0.052    33.366
ATOM     15  C   UNL d   1      18.773  -3.410   4.995 -0.16 +0.00    +0.066    33.366
ATOM     16  C   UNL d   1      19.379  -4.374   5.801 -0.14 -0.00    -0.021    33.366
ATOM     17  C   UNL d   1      19.178  -3.969   7.120 -0.09 +0.00    +0.000    33.366
ATOM     18  C   UNL d   1      18.457  -2.771   7.020 -0.08 -0.00    +0.070    33.366
ATOM     19  C   UNL d   1      20.041  -5.611   5.246 -0.18 +0.01    +0.052    33.366
ATOM     20  C   UNL d   1      17.303  -0.800   8.106 -0.10 +0.00    +0.066    33.366
ATOM     21  C   UNL d   1      16.950  -0.041   9.218 -0.09 -0.00    -0.025    33.366
ATOM     22  C   UNL d   1      16.274   1.059   8.741 -0.09 -0.00    -0.021    33.366
ATOM     23  C   UNL d   1      16.225   0.921   7.350 -0.10 +0.00    +0.066    33.366
ATOM     24  C   UNL d   1      17.239  -0.353  10.664 -0.07 +0.00    +0.051    33.366
ATOM     25  N   UNL d   1      15.952   0.647   4.395 -0.09 -0.00    -0.248    33.366
ATOM     26  N   UNL d   1      17.305  -1.621   3.169 -0.14 +0.02    -0.248    33.366
ATOM     27  N   UNL d   1      18.155  -2.487   5.727 -0.08 +0.01    -0.248    33.366
ATOM     28  N   UNL d   1      16.812  -0.233   6.972 -0.09 -0.01    -0.248    33.366
ATOM     29 FE   UNL d   1      17.058  -0.924   5.086 -0.04 -0.00    +0.000    33.366
ATOM     30  O   UNL d   1      15.641  -1.326   4.582 -0.26 -0.00    +0.000    33.366
ATOM     31  O   UNL d   1      16.230  -2.001   5.879 -0.39 -0.00    +0.000    33.366
ATOM     32  C   UNL d   1      13.859   3.708   4.670 -0.12 +0.01    +0.052    33.366
ATOM     33  C   UNL d   1      12.383   3.352   4.814 -0.11 +0.02    +0.115    33.366
ATOM     34  C   UNL d   1      12.026   2.935   6.220 -0.25 +0.05    +0.139    33.366
ATOM     35  O   UNL d   1      11.938   3.781   7.096 +0.06 -0.40    -0.650    33.366
ATOM     36  O   UNL d   1      11.828   1.640   6.540 -0.00 -0.24    -0.776    33.366
ATOM     37  H   UNL d   1      12.076   1.283   7.401 +0.06 +0.06    +0.167    33.366
ATOM     38  C   UNL d   1      15.658   2.145   9.584 -0.07 +0.00    +0.052    33.366
ATOM     39  C   UNL d   1      14.687   1.593  10.626 -0.10 +0.01    +0.115    33.366
ATOM     40  C   UNL d   1      13.256   1.969  10.336 -0.14 +0.06    +0.139    33.366
ATOM     41  O   UNL d   1      12.615   2.598  11.163 -0.59 -0.40    -0.650    33.366
ATOM     42  O   UNL d   1      12.682   1.667   9.155 -0.13 -0.47    -0.776    33.366
ATOM     43  H   UNL d   1      12.752   2.257   8.395 +0.04 +0.10    +0.167    33.366
ATOM     44  C   UNL d   1      18.809  -3.619   0.332 -0.35 -0.00    +0.004    33.366
ATOM     45  C   UNL d   1      19.937  -4.304   0.517 -0.34 -0.00    +0.012    33.366
ATOM     46  C   UNL d   1      19.548  -4.627   8.423 -0.05 +0.00    +0.004    33.366
ATOM     47  C   UNL d   1      18.734  -5.174   9.335 -0.05 -0.00    +0.012    33.366
TER
ENDMDL
MODEL       40
USER    Run = 40
USER    Cluster Rank = 39
USER    Number of conformations in this cluster = 1
USER  
USER    RMSD from reference structure       = 38.222 A
USER  
USER    Estimated Free Energy of Binding    =   -4.89 kcal/mol  [=(1)+(2)+(3)-(4)]
USER    Estimated Inhibition Constant, Ki   =  258.34 uM (micromolar)  [Temperature = 298.15 K]
USER    
USER    (1) Final Intermolecular Energy     =   -7.88 kcal/mol
USER        vdW + Hbond + desolv Energy     =   -6.78 kcal/mol
USER        Electrostatic Energy            =   -1.10 kcal/mol
USER    (2) Final Total Internal Energy     =   -2.44 kcal/mol
USER    (3) Torsional Free Energy           =   +2.98 kcal/mol
USER    (4) Unbound System's Energy  [=(2)] =   -2.44 kcal/mol
USER    
USER    
USER  
USER    DPF = D:/Protein_go_brrr/autodock/final/mut_D99N/heme_O2/dock.dpf
USER    NEWDPF move	heme_O2_opt.pdbqt
USER    NEWDPF about	8.287000 34.468000 -0.670000
USER    NEWDPF tran0	7.987482 0.069556 -17.522109
USER    NEWDPF axisangle0	0.303213 0.144427 -0.941914 -158.738222
USER    NEWDPF quaternion0	0.298008 0.141949 -0.925747 -0.184481
USER    NEWDPF dihe0	107.69 155.01 133.96 -14.33 -156.51 -10.51 -50.54 89.34 176.48 -179.60 
USER  
USER                              x       y       z    vdW   Elec        q     RMS 
ATOM      1  C   UNL d   1      10.054   0.312 -17.110 -0.08 +0.02    +0.064    38.222
ATOM      2  C   UNL d   1       6.154   1.059 -14.504 -0.22 +0.01    +0.064    38.222
ATOM      3  C   UNL d   1       3.341  -0.288 -18.160 -0.09 +0.02    +0.064    38.222
ATOM      4  C   UNL d   1       7.359  -1.517 -20.692 -0.12 +0.01    +0.064    38.222
ATOM      5  C   UNL d   1       9.223   0.623 -16.102 -0.11 +0.02    +0.066    38.222
ATOM      6  C   UNL d   1       9.646   1.089 -14.854 -0.12 -0.01    -0.021    38.222
ATOM      7  C   UNL d   1       8.520   1.265 -14.084 -0.17 -0.01    -0.025    38.222
ATOM      8  C   UNL d   1       7.437   0.947 -14.899 -0.14 +0.02    +0.066    38.222
ATOM      9  C   UNL d   1       8.523   1.688 -12.632 -0.30 +0.01    +0.051    38.222
ATOM     10  C   UNL d   1       4.976   0.763 -15.321 -0.20 +0.02    +0.066    38.222
ATOM     11  C   UNL d   1       3.668   1.052 -14.917 -0.28 -0.01    -0.021    38.222
ATOM     12  C   UNL d   1       2.843   0.687 -15.965 -0.26 +0.00    +0.000    38.222
ATOM     13  C   UNL d   1       3.714   0.174 -16.966 -0.18 +0.02    +0.070    38.222
ATOM     14  C   UNL d   1       3.226   1.675 -13.599 -0.34 +0.01    +0.052    38.222
ATOM     15  C   UNL d   1       4.187  -0.848 -19.186 -0.19 +0.02    +0.066    38.222
ATOM     16  C   UNL d   1       3.719  -1.465 -20.346 -0.20 -0.01    -0.021    38.222
ATOM     17  C   UNL d   1       4.847  -1.825 -21.083 -0.11 +0.00    +0.000    38.222
ATOM     18  C   UNL d   1       5.933  -1.393 -20.308 -0.12 +0.01    +0.070    38.222
ATOM     19  C   UNL d   1       2.255  -1.703 -20.618 -0.26 +0.02    +0.052    38.222
ATOM     20  C   UNL d   1       8.425  -1.153 -19.954 -0.09 +0.01    +0.066    38.222
ATOM     21  C   UNL d   1       9.746  -1.278 -20.376 -0.05 -0.00    -0.025    38.222
ATOM     22  C   UNL d   1      10.527  -0.737 -19.379 -0.04 -0.00    -0.021    38.222
ATOM     23  C   UNL d   1       9.651  -0.316 -18.374 -0.07 +0.02    +0.066    38.222
ATOM     24  C   UNL d   1      10.238  -1.886 -21.664 -0.04 +0.00    +0.051    38.222
ATOM     25  N   UNL d   1       7.874   0.490 -16.121 -0.09 -0.08    -0.248    38.222
ATOM     26  N   UNL d   1       5.009   0.219 -16.564 -0.10 -0.07    -0.248    38.222
ATOM     27  N   UNL d   1       5.515  -0.871 -19.127 -0.10 -0.07    -0.248    38.222
ATOM     28  N   UNL d   1       8.378  -0.612 -18.708 -0.05 -0.07    -0.248    38.222
ATOM     29 FE   UNL d   1       6.704  -0.201 -17.646 -0.03 +0.00    +0.000    38.222
ATOM     30  O   UNL d   1       6.736  -1.139 -16.404 -0.41 +0.00    +0.000    38.222
ATOM     31  O   UNL d   1       6.761  -1.759 -17.852 -0.34 +0.00    +0.000    38.222
ATOM     32  C   UNL d   1      11.060   1.234 -14.354 -0.13 +0.01    +0.052    38.222
ATOM     33  C   UNL d   1      11.493   0.077 -13.458 -0.18 +0.03    +0.115    38.222
ATOM     34  C   UNL d   1      12.786  -0.551 -13.916 -0.16 +0.04    +0.139    38.222
ATOM     35  O   UNL d   1      13.765   0.152 -14.105 +0.02 -0.10    -0.650    38.222
ATOM     36  O   UNL d   1      12.880  -1.877 -14.149 +0.10 -0.29    -0.776    38.222
ATOM     37  H   UNL d   1      12.952  -2.235 -15.041 +0.03 +0.10    +0.167    38.222
ATOM     38  C   UNL d   1      12.033  -0.689 -19.372 -0.02 +0.01    +0.052    38.222
ATOM     39  C   UNL d   1      12.656  -2.034 -19.005 -0.03 +0.03    +0.115    38.222
ATOM     40  C   UNL d   1      12.913  -2.165 -17.524 -0.05 +0.07    +0.139    38.222
ATOM     41  O   UNL d   1      12.595  -3.189 -16.942 -0.45 -0.78    -0.650    38.222
ATOM     42  O   UNL d   1      13.537  -1.188 -16.837 +0.01 -0.23    -0.776    38.222
ATOM     43  H   UNL d   1      13.435  -1.099 -15.882 +0.02 +0.05    +0.167    38.222
ATOM     44  C   UNL d   1       1.340   0.860 -15.903 -0.28 +0.00    +0.004    38.222
ATOM     45  C   UNL d   1       0.510   0.467 -14.938 -0.49 +0.01    +0.012    38.222
ATOM     46  C   UNL d   1       4.981  -2.568 -22.386 -0.15 +0.00    +0.004    38.222
ATOM     47  C   UNL d   1       4.096  -3.389 -22.965 -0.14 +0.00    +0.012    38.222
TER
ENDMDL
MODEL       51
USER    Run = 51
USER    Cluster Rank = 40
USER    Number of conformations in this cluster = 1
USER  
USER    RMSD from reference structure       = 39.105 A
USER  
USER    Estimated Free Energy of Binding    =   -4.88 kcal/mol  [=(1)+(2)+(3)-(4)]
USER    Estimated Inhibition Constant, Ki   =  266.17 uM (micromolar)  [Temperature = 298.15 K]
USER    
USER    (1) Final Intermolecular Energy     =   -7.86 kcal/mol
USER        vdW + Hbond + desolv Energy     =   -5.87 kcal/mol
USER        Electrostatic Energy            =   -1.99 kcal/mol
USER    (2) Final Total Internal Energy     =   -2.21 kcal/mol
USER    (3) Torsional Free Energy           =   +2.98 kcal/mol
USER    (4) Unbound System's Energy  [=(2)] =   -2.21 kcal/mol
USER    
USER    
USER  
USER    DPF = D:/Protein_go_brrr/autodock/final/mut_D99N/heme_O2/dock.dpf
USER    NEWDPF move	heme_O2_opt.pdbqt
USER    NEWDPF about	8.287000 34.468000 -0.670000
USER    NEWDPF tran0	-13.934801 1.046103 13.616053
USER    NEWDPF axisangle0	0.856985 -0.022197 -0.514863 175.493206
USER    NEWDPF quaternion0	0.856323 -0.022180 -0.514464 0.039319
USER    NEWDPF dihe0	56.35 -158.41 -44.47 -84.72 -135.82 68.25 159.88 -93.75 16.32 -8.97 
USER  
USER                              x       y       z    vdW   Elec        q     RMS 
ATOM      1  C   UNL d   1     -14.157   0.370  15.614 -0.04 +0.04    +0.064    39.105
ATOM      2  C   UNL d   1     -16.651   3.423  12.965 -0.06 +0.02    +0.064    39.105
ATOM      3  C   UNL d   1     -13.661   2.790   9.256 -0.18 +0.02    +0.064    39.105
ATOM      4  C   UNL d   1     -11.365  -0.713  11.810 -0.26 +0.02    +0.064    39.105
ATOM      5  C   UNL d   1     -15.080   1.250  15.196 -0.08 +0.05    +0.066    39.105
ATOM      6  C   UNL d   1     -16.127   1.725  15.992 -0.06 -0.01    -0.021    39.105
ATOM      7  C   UNL d   1     -16.875   2.576  15.212 -0.04 -0.01    -0.025    39.105
ATOM      8  C   UNL d   1     -16.237   2.635  13.976 -0.07 +0.03    +0.066    39.105
ATOM      9  C   UNL d   1     -18.151   3.258  15.654 -0.01 +0.01    +0.051    39.105
ATOM     10  C   UNL d   1     -16.010   3.544  11.655 -0.09 +0.02    +0.066    39.105
ATOM     11  C   UNL d   1     -16.384   4.497  10.701 -0.08 -0.01    -0.021    39.105
ATOM     12  C   UNL d   1     -15.522   4.342   9.631 -0.05 +0.00    +0.000    39.105
ATOM     13  C   UNL d   1     -14.659   3.272   9.996 -0.12 +0.03    +0.070    39.105
ATOM     14  C   UNL d   1     -17.499   5.530  10.816 -0.05 +0.01    +0.052    39.105
ATOM     15  C   UNL d   1     -12.788   1.686   9.575 -0.17 +0.02    +0.066    39.105
ATOM     16  C   UNL d   1     -11.870   1.123   8.689 -0.25 -0.01    -0.021    39.105
ATOM     17  C   UNL d   1     -11.204   0.121   9.395 -0.35 +0.00    +0.000    39.105
ATOM     18  C   UNL d   1     -11.772   0.150  10.676 -0.24 +0.02    +0.070    39.105
ATOM     19  C   UNL d   1     -11.750   1.549   7.247 -0.15 +0.02    +0.052    39.105
ATOM     20  C   UNL d   1     -11.918  -0.742  13.038 -0.18 +0.03    +0.066    39.105
ATOM     21  C   UNL d   1     -11.479  -1.564  14.072 -0.20 -0.01    -0.025    39.105
ATOM     22  C   UNL d   1     -12.246  -1.250  15.172 -0.14 -0.01    -0.021    39.105
ATOM     23  C   UNL d   1     -13.139  -0.256  14.762 -0.05 +0.04    +0.066    39.105
ATOM     24  C   UNL d   1     -10.387  -2.601  14.013 -0.27 +0.01    +0.051    39.105
ATOM     25  N   UNL d   1     -15.169   1.768  13.946 -0.08 -0.17    -0.248    39.105
ATOM     26  N   UNL d   1     -14.966   2.789  11.227 -0.08 -0.10    -0.248    39.105
ATOM     27  N   UNL d   1     -12.783   1.054  10.745 -0.11 -0.09    -0.248    39.105
ATOM     28  N   UNL d   1     -12.966   0.018  13.452 -0.10 -0.13    -0.248    39.105
ATOM     29 FE   UNL d   1     -13.957   1.393  12.346 -0.03 +0.00    +0.000    39.105
ATOM     30  O   UNL d   1     -15.407   0.852  12.177 -0.05 +0.00    +0.000    39.105
ATOM     31  O   UNL d   1     -14.188  -0.010  11.673 -0.08 +0.00    +0.000    39.105
ATOM     32  C   UNL d   1     -16.494   1.293  17.388 -0.02 +0.02    +0.052    39.105
ATOM     33  C   UNL d   1     -15.995   2.259  18.457 -0.03 +0.05    +0.115    39.105
ATOM     34  C   UNL d   1     -14.834   3.097  17.980 -0.02 +0.13    +0.139    39.105
ATOM     35  O   UNL d   1     -15.030   3.999  17.180 -0.45 -0.91    -0.650    39.105
ATOM     36  O   UNL d   1     -13.574   2.855  18.395 -0.18 -0.86    -0.776    39.105
ATOM     37  H   UNL d   1     -13.154   1.994  18.278 +0.02 +0.16    +0.167    39.105
ATOM     38  C   UNL d   1     -12.162  -1.917  16.521 -0.11 +0.01    +0.052    39.105
ATOM     39  C   UNL d   1     -11.218  -1.188  17.473 -0.16 +0.04    +0.115    39.105
ATOM     40  C   UNL d   1     -11.895  -0.052  18.199 -0.11 +0.06    +0.139    39.105
ATOM     41  O   UNL d   1     -11.257   0.946  18.492 -0.01 -0.35    -0.650    39.105
ATOM     42  O   UNL d   1     -13.210  -0.097  18.488 +0.02 -0.29    -0.776    39.105
ATOM     43  H   UNL d   1     -13.725   0.707  18.623 +0.01 +0.08    +0.167    39.105
ATOM     44  C   UNL d   1     -15.611   5.212   8.394 -0.10 +0.00    +0.004    39.105
ATOM     45  C   UNL d   1     -14.624   5.860   7.776 -0.16 +0.00    +0.012    39.105
ATOM     46  C   UNL d   1     -10.154  -0.865   8.957 -0.42 +0.00    +0.004    39.105
ATOM     47  C   UNL d   1     -10.328  -2.103   8.477 -0.45 +0.00    +0.012    39.105
TER
ENDMDL
MODEL       60
USER    Run = 60
USER    Cluster Rank = 41
USER    Number of conformations in this cluster = 1
USER  
USER    RMSD from reference structure       = 36.529 A
USER  
USER    Estimated Free Energy of Binding    =   -4.88 kcal/mol  [=(1)+(2)+(3)-(4)]
USER    Estimated Inhibition Constant, Ki   =  266.96 uM (micromolar)  [Temperature = 298.15 K]
USER    
USER    (1) Final Intermolecular Energy     =   -7.86 kcal/mol
USER        vdW + Hbond + desolv Energy     =   -7.32 kcal/mol
USER        Electrostatic Energy            =   -0.53 kcal/mol
USER    (2) Final Total Internal Energy     =   -2.36 kcal/mol
USER    (3) Torsional Free Energy           =   +2.98 kcal/mol
USER    (4) Unbound System's Energy  [=(2)] =   -2.36 kcal/mol
USER    
USER    
USER  
USER    DPF = D:/Protein_go_brrr/autodock/final/mut_D99N/heme_O2/dock.dpf
USER    NEWDPF move	heme_O2_opt.pdbqt
USER    NEWDPF about	8.287000 34.468000 -0.670000
USER    NEWDPF tran0	-13.420429 2.264676 2.991677
USER    NEWDPF axisangle0	0.860194 0.106012 -0.498826 -83.084878
USER    NEWDPF quaternion0	0.570459 0.070304 -0.330809 -0.748465
USER    NEWDPF dihe0	-154.49 -18.31 -50.83 89.70 57.97 -49.93 -117.05 -165.44 -179.01 161.22 
USER  
USER                              x       y       z    vdW   Elec        q     RMS 
ATOM      1  C   UNL d   1     -14.299   3.839   4.109 -0.12 +0.01    +0.064    36.529
ATOM      2  C   UNL d   1     -15.970  -0.341   2.598 -0.11 +0.04    +0.064    36.529
ATOM      3  C   UNL d   1     -11.781  -1.352   0.470 +0.01 +0.04    +0.064    36.529
ATOM      4  C   UNL d   1      -9.896   2.734   2.425 -0.01 +0.02    +0.064    36.529
ATOM      5  C   UNL d   1     -15.094   2.784   3.873 -0.12 +0.02    +0.066    36.529
ATOM      6  C   UNL d   1     -16.421   2.691   4.305 -0.07 -0.00    -0.021    36.529
ATOM      7  C   UNL d   1     -16.892   1.463   3.906 -0.06 -0.01    -0.025    36.529
ATOM      8  C   UNL d   1     -15.856   0.859   3.198 -0.10 +0.03    +0.066    36.529
ATOM      9  C   UNL d   1     -18.265   0.915   4.230 -0.02 +0.01    +0.051    36.529
ATOM     10  C   UNL d   1     -14.927  -1.015   1.823 -0.07 +0.07    +0.066    36.529
ATOM     11  C   UNL d   1     -15.150  -2.182   1.084 -0.12 -0.02    -0.021    36.529
ATOM     12  C   UNL d   1     -13.959  -2.480   0.449 -0.19 +0.00    +0.000    36.529
ATOM     13  C   UNL d   1     -13.053  -1.461   0.855 -0.08 +0.07    +0.070    36.529
ATOM     14  C   UNL d   1     -16.453  -2.966   0.967 -0.08 +0.02    +0.052    36.529
ATOM     15  C   UNL d   1     -10.822  -0.357   0.886 -0.14 +0.03    +0.066    36.529
ATOM     16  C   UNL d   1      -9.463  -0.391   0.576 -0.35 -0.01    -0.021    36.529
ATOM     17  C   UNL d   1      -8.905   0.764   1.124 -0.37 +0.00    +0.000    36.529
ATOM     18  C   UNL d   1      -9.980   1.426   1.733 -0.24 +0.02    +0.070    36.529
ATOM     19  C   UNL d   1      -8.815  -1.538  -0.158 -0.27 +0.01    +0.052    36.529
ATOM     20  C   UNL d   1     -10.898   3.376   3.056 -0.25 +0.01    +0.066    36.529
ATOM     21  C   UNL d   1     -10.763   4.615   3.675 -0.36 -0.00    -0.025    36.529
ATOM     22  C   UNL d   1     -12.014   4.959   4.137 -0.24 -0.00    -0.021    36.529
ATOM     23  C   UNL d   1     -12.866   3.903   3.797 -0.17 +0.01    +0.066    36.529
ATOM     24  C   UNL d   1      -9.504   5.429   3.821 -0.47 +0.00    +0.051    36.529
ATOM     25  N   UNL d   1     -14.728   1.645   3.235 -0.09 -0.10    -0.248    36.529
ATOM     26  N   UNL d   1     -13.649  -0.577   1.695 -0.08 -0.28    -0.248    36.529
ATOM     27  N   UNL d   1     -11.121   0.695   1.643 -0.23 -0.12    -0.248    36.529
ATOM     28  N   UNL d   1     -12.174   2.923   3.180 -0.14 -0.06    -0.248    36.529
ATOM     29 FE   UNL d   1     -12.904   1.185   2.442 -0.05 +0.00    +0.000    36.529
ATOM     30  O   UNL d   1     -13.290   0.317   3.675 -0.44 +0.00    +0.000    36.529
ATOM     31  O   UNL d   1     -11.807   0.821   3.509 -0.33 +0.00    +0.000    36.529
ATOM     32  C   UNL d   1     -17.176   3.659   5.179 -0.04 +0.01    +0.052    36.529
ATOM     33  C   UNL d   1     -17.151   3.269   6.654 -0.01 +0.02    +0.115    36.529
ATOM     34  C   UNL d   1     -15.751   3.225   7.214 -0.02 +0.03    +0.139    36.529
ATOM     35  O   UNL d   1     -15.134   2.172   7.216 +0.04 -0.17    -0.650    36.529
ATOM     36  O   UNL d   1     -15.171   4.323   7.742 +0.02 -0.16    -0.776    36.529
ATOM     37  H   UNL d   1     -14.213   4.433   7.766 +0.05 +0.04    +0.167    36.529
ATOM     38  C   UNL d   1     -12.351   6.203   4.917 -0.27 -0.00    +0.052    36.529
ATOM     39  C   UNL d   1     -12.383   5.955   6.424 -0.28 -0.01    +0.115    36.529
ATOM     40  C   UNL d   1     -11.765   4.632   6.803 -0.33 +0.01    +0.139    36.529
ATOM     41  O   UNL d   1     -10.591   4.585   7.135 -0.03 -0.02    -0.650    36.529
ATOM     42  O   UNL d   1     -12.499   3.503   6.832 +0.08 -0.13    -0.776    36.529
ATOM     43  H   UNL d   1     -13.463   3.529   6.831 +0.06 +0.03    +0.167    36.529
ATOM     44  C   UNL d   1     -13.810  -3.683  -0.459 -0.18 +0.00    +0.004    36.529
ATOM     45  C   UNL d   1     -13.397  -3.707  -1.725 -0.22 +0.00    +0.012    36.529
ATOM     46  C   UNL d   1      -7.480   1.247   1.169 -0.38 +0.00    +0.004    36.529
ATOM     47  C   UNL d   1      -6.799   1.907   0.223 -0.45 +0.00    +0.012    36.529
TER
ENDMDL
MODEL       20
USER    Run = 20
USER    Cluster Rank = 42
USER    Number of conformations in this cluster = 1
USER  
USER    RMSD from reference structure       = 19.605 A
USER  
USER    Estimated Free Energy of Binding    =   -4.79 kcal/mol  [=(1)+(2)+(3)-(4)]
USER    Estimated Inhibition Constant, Ki   =  309.29 uM (micromolar)  [Temperature = 298.15 K]
USER    
USER    (1) Final Intermolecular Energy     =   -7.77 kcal/mol
USER        vdW + Hbond + desolv Energy     =   -7.70 kcal/mol
USER        Electrostatic Energy            =   -0.07 kcal/mol
USER    (2) Final Total Internal Energy     =   -0.80 kcal/mol
USER    (3) Torsional Free Energy           =   +2.98 kcal/mol
USER    (4) Unbound System's Energy  [=(2)] =   -0.80 kcal/mol
USER    
USER    
USER  
USER    DPF = D:/Protein_go_brrr/autodock/final/mut_D99N/heme_O2/dock.dpf
USER    NEWDPF move	heme_O2_opt.pdbqt
USER    NEWDPF about	8.287000 34.468000 -0.670000
USER    NEWDPF tran0	6.740570 13.959348 8.069595
USER    NEWDPF axisangle0	-0.341608 -0.891877 -0.296411 133.566250
USER    NEWDPF quaternion0	-0.313944 -0.819652 -0.272408 0.394213
USER    NEWDPF dihe0	29.41 -30.28 -44.63 111.87 -10.11 138.40 -73.99 122.52 17.98 -2.39 
USER  
USER                              x       y       z    vdW   Elec        q     RMS 
ATOM      1  C   UNL d   1       7.187  12.830   9.809 -0.23 -0.01    +0.064    19.605
ATOM      2  C   UNL d   1       8.821  12.640   5.353 +0.01 -0.00    +0.064    19.605
ATOM      3  C   UNL d   1       5.910  16.229   4.035 -0.26 -0.00    +0.064    19.605
ATOM      4  C   UNL d   1       4.567  16.754   8.724 -0.02 -0.00    +0.064    19.605
ATOM      5  C   UNL d   1       7.871  12.487   8.705 -0.26 -0.00    +0.066    19.605
ATOM      6  C   UNL d   1       8.813  11.455   8.656 -0.22 -0.00    -0.021    19.605
ATOM      7  C   UNL d   1       9.318  11.428   7.378 -0.17 -0.00    -0.025    19.605
ATOM      8  C   UNL d   1       8.636  12.412   6.667 -0.09 -0.00    +0.066    19.605
ATOM      9  C   UNL d   1      10.423  10.510   6.903 -0.12 +0.00    +0.051    19.605
ATOM     10  C   UNL d   1       8.119  13.642   4.549 -0.20 -0.01    +0.066    19.605
ATOM     11  C   UNL d   1       8.230  13.727   3.157 -0.23 +0.00    -0.021    19.605
ATOM     12  C   UNL d   1       7.384  14.745   2.756 -0.25 -0.00    +0.000    19.605
ATOM     13  C   UNL d   1       6.801  15.242   3.954 -0.25 -0.01    +0.070    19.605
ATOM     14  C   UNL d   1       9.087  12.857   2.245 -0.19 +0.00    +0.052    19.605
ATOM     15  C   UNL d   1       5.323  16.785   5.230 -0.23 -0.00    +0.066    19.605
ATOM     16  C   UNL d   1       4.522  17.926   5.261 -0.18 -0.00    -0.021    19.605
ATOM     17  C   UNL d   1       4.128  18.096   6.588 -0.19 +0.00    +0.000    19.605
ATOM     18  C   UNL d   1       4.724  17.030   7.276 -0.15 +0.00    +0.070    19.605
ATOM     19  C   UNL d   1       4.252  18.775   4.044 -0.15 +0.00    +0.052    19.605
ATOM     20  C   UNL d   1       5.159  15.766   9.423 -0.15 -0.00    +0.066    19.605
ATOM     21  C   UNL d   1       4.959  15.545  10.783 -0.15 +0.00    -0.025    19.605
ATOM     22  C   UNL d   1       5.676  14.415  11.104 -0.18 +0.00    -0.021    19.605
ATOM     23  C   UNL d   1       6.305  13.997   9.927 -0.21 -0.01    +0.066    19.605
ATOM     24  C   UNL d   1       4.128  16.373  11.729 -0.11 -0.00    +0.051    19.605
ATOM     25  N   UNL d   1       7.791  13.107   7.502 -0.18 +0.03    -0.248    19.605
ATOM     26  N   UNL d   1       7.257  14.568   5.041 -0.15 +0.04    -0.248    19.605
ATOM     27  N   UNL d   1       5.506  16.288   6.450 -0.17 +0.02    -0.248    19.605
ATOM     28  N   UNL d   1       6.024  14.847   8.918 -0.17 +0.04    -0.248    19.605
ATOM     29 FE   UNL d   1       6.634  14.711   6.993 -0.06 -0.00    +0.000    19.605
ATOM     30  O   UNL d   1       8.161  15.014   6.999 -0.14 -0.00    +0.000    19.605
ATOM     31  O   UNL d   1       7.150  16.086   7.556 -0.12 -0.00    +0.000    19.605
ATOM     32  C   UNL d   1       9.322  10.616   9.800 -0.17 +0.00    +0.052    19.605
ATOM     33  C   UNL d   1       8.689   9.229   9.844 -0.21 +0.01    +0.115    19.605
ATOM     34  C   UNL d   1       9.620   8.155   9.339 -0.14 +0.03    +0.139    19.605
ATOM     35  O   UNL d   1       9.165   7.078   8.989 -0.03 -0.24    -0.650    19.605
ATOM     36  O   UNL d   1      10.955   8.347   9.292 +0.05 -0.12    -0.776    19.605
ATOM     37  H   UNL d   1      11.410   8.927   9.913 +0.02 +0.02    +0.167    19.605
ATOM     38  C   UNL d   1       5.799  13.813  12.480 -0.19 -0.00    +0.052    19.605
ATOM     39  C   UNL d   1       4.860  12.625  12.681 -0.30 -0.01    +0.115    19.605
ATOM     40  C   UNL d   1       3.412  12.994  12.477 -0.37 -0.02    +0.139    19.605
ATOM     41  O   UNL d   1       2.812  13.601  13.350 +0.01 +0.09    -0.650    19.605
ATOM     42  O   UNL d   1       2.778  12.710  11.323 +0.04 +0.19    -0.776    19.605
ATOM     43  H   UNL d   1       3.256  12.639  10.488 -0.47 -0.10    +0.167    19.605
ATOM     44  C   UNL d   1       7.226  15.132   1.301 -0.21 +0.00    +0.004    19.605
ATOM     45  C   UNL d   1       6.095  15.308   0.618 -0.24 +0.00    +0.012    19.605
ATOM     46  C   UNL d   1       3.311  19.176   7.246 -0.13 +0.00    +0.004    19.605
ATOM     47  C   UNL d   1       2.042  19.114   7.668 -0.16 +0.00    +0.012    19.605
TER
ENDMDL
MODEL        8
USER    Run = 8
USER    Cluster Rank = 43
USER    Number of conformations in this cluster = 1
USER  
USER    RMSD from reference structure       = 21.480 A
USER  
USER    Estimated Free Energy of Binding    =   -4.68 kcal/mol  [=(1)+(2)+(3)-(4)]
USER    Estimated Inhibition Constant, Ki   =  370.69 uM (micromolar)  [Temperature = 298.15 K]
USER    
USER    (1) Final Intermolecular Energy     =   -7.66 kcal/mol
USER        vdW + Hbond + desolv Energy     =   -7.99 kcal/mol
USER        Electrostatic Energy            =   +0.33 kcal/mol
USER    (2) Final Total Internal Energy     =   -0.85 kcal/mol
USER    (3) Torsional Free Energy           =   +2.98 kcal/mol
USER    (4) Unbound System's Energy  [=(2)] =   -0.85 kcal/mol
USER    
USER    
USER  
USER    DPF = D:/Protein_go_brrr/autodock/final/mut_D99N/heme_O2/dock.dpf
USER    NEWDPF move	heme_O2_opt.pdbqt
USER    NEWDPF about	8.287000 34.468000 -0.670000
USER    NEWDPF tran0	-5.288371 16.626338 10.133342
USER    NEWDPF axisangle0	0.985912 -0.022841 0.165695 -168.598795
USER    NEWDPF quaternion0	0.981037 -0.022728 0.164876 -0.099330
USER    NEWDPF dihe0	37.08 149.88 74.00 -54.70 52.62 171.16 -131.58 137.50 1.09 -176.96 
USER  
USER                              x       y       z    vdW   Elec        q     RMS 
ATOM      1  C   UNL d   1      -7.357  16.221  10.373 -0.15 -0.01    +0.064    21.480
ATOM      2  C   UNL d   1      -4.853  18.127   6.816 -0.20 +0.01    +0.064    21.480
ATOM      3  C   UNL d   1      -0.782  17.715   9.336 -0.20 +0.00    +0.064    21.480
ATOM      4  C   UNL d   1      -3.275  15.315  12.814 -0.12 -0.02    +0.064    21.480
ATOM      5  C   UNL d   1      -7.008  16.771   9.199 -0.16 -0.01    +0.066    21.480
ATOM      6  C   UNL d   1      -7.913  17.083   8.181 -0.06 +0.00    -0.021    21.480
ATOM      7  C   UNL d   1      -7.184  17.595   7.133 -0.08 -0.00    -0.025    21.480
ATOM      8  C   UNL d   1      -5.859  17.627   7.559 -0.19 +0.00    +0.066    21.480
ATOM      9  C   UNL d   1      -7.759  17.995   5.792 -0.16 +0.01    +0.051    21.480
ATOM     10  C   UNL d   1      -3.448  18.208   7.217 -0.19 +0.01    +0.066    21.480
ATOM     11  C   UNL d   1      -2.474  18.885   6.475 -0.18 -0.00    -0.021    21.480
ATOM     12  C   UNL d   1      -1.297  18.793   7.194 -0.23 +0.00    +0.000    21.480
ATOM     13  C   UNL d   1      -1.624  18.038   8.355 -0.23 +0.00    +0.070    21.480
ATOM     14  C   UNL d   1      -2.664  19.612   5.149 -0.14 +0.01    +0.052    21.480
ATOM     15  C   UNL d   1      -1.066  16.923  10.509 -0.14 -0.00    +0.066    21.480
ATOM     16  C   UNL d   1      -0.104  16.482  11.416 -0.07 +0.00    -0.021    21.480
ATOM     17  C   UNL d   1      -0.791  15.794  12.417 -0.23 -0.00    +0.000    21.480
ATOM     18  C   UNL d   1      -2.139  15.870  12.040 -0.18 -0.02    +0.070    21.480
ATOM     19  C   UNL d   1       1.375  16.705  11.221 -0.04 -0.00    +0.052    21.480
ATOM     20  C   UNL d   1      -4.574  15.332  12.460 -0.15 -0.02    +0.066    21.480
ATOM     21  C   UNL d   1      -5.602  14.808  13.239 -0.16 +0.01    -0.025    21.480
ATOM     22  C   UNL d   1      -6.775  15.081  12.573 -0.12 +0.00    -0.021    21.480
ATOM     23  C   UNL d   1      -6.417  15.749  11.398 -0.13 -0.01    +0.066    21.480
ATOM     24  C   UNL d   1      -5.471  14.080  14.552 -0.28 -0.01    +0.051    21.480
ATOM     25  N   UNL d   1      -5.742  17.059   8.807 -0.11 +0.01    -0.248    21.480
ATOM     26  N   UNL d   1      -2.934  17.682   8.358 -0.16 -0.01    -0.248    21.480
ATOM     27  N   UNL d   1      -2.280  16.494  10.842 -0.15 +0.03    -0.248    21.480
ATOM     28  N   UNL d   1      -5.075  15.860  11.312 -0.09 +0.04    -0.248    21.480
ATOM     29 FE   UNL d   1      -4.010  16.764   9.847 -0.04 -0.00    +0.000    21.480
ATOM     30  O   UNL d   1      -4.148  15.860   8.588 -0.49 -0.00    +0.000    21.480
ATOM     31  O   UNL d   1      -3.542  15.264   9.914 -0.46 -0.00    +0.000    21.480
ATOM     32  C   UNL d   1      -9.390  16.786   8.136 -0.16 -0.03    +0.052    21.480
ATOM     33  C   UNL d   1     -10.229  17.848   8.838 -0.09 -0.07    +0.115    21.480
ATOM     34  C   UNL d   1      -9.820  19.249   8.458 -0.03 -0.03    +0.139    21.480
ATOM     35  O   UNL d   1      -9.080  19.882   9.193 +0.02 +0.09    -0.650    21.480
ATOM     36  O   UNL d   1     -10.277  19.834   7.331 +0.03 +0.10    -0.776    21.480
ATOM     37  H   UNL d   1     -11.179  19.701   7.016 +0.02 -0.03    +0.167    21.480
ATOM     38  C   UNL d   1      -8.154  14.664  13.014 -0.14 -0.01    +0.052    21.480
ATOM     39  C   UNL d   1      -8.415  13.177  12.781 -0.28 -0.03    +0.115    21.480
ATOM     40  C   UNL d   1      -7.926  12.711  11.433 -0.42 -0.04    +0.139    21.480
ATOM     41  O   UNL d   1      -8.147  13.387  10.441 -0.12 +0.21    -0.650    21.480
ATOM     42  O   UNL d   1      -7.203  11.581  11.307 +0.04 +0.21    -0.776    21.480
ATOM     43  H   UNL d   1      -7.210  11.065  10.493 -0.29 -0.07    +0.167    21.480
ATOM     44  C   UNL d   1      -0.006  19.419   6.708 -0.20 +0.00    +0.004    21.480
ATOM     45  C   UNL d   1       1.089  18.800   6.268 -0.29 +0.00    +0.012    21.480
ATOM     46  C   UNL d   1      -0.291  15.047  13.625 -0.34 -0.00    +0.004    21.480
ATOM     47  C   UNL d   1       0.508  13.973  13.663 -0.42 -0.00    +0.012    21.480
TER
ENDMDL
MODEL       47
USER    Run = 47
USER    Cluster Rank = 44
USER    Number of conformations in this cluster = 2
USER  
USER    RMSD from reference structure       = 19.060 A
USER  
USER    Estimated Free Energy of Binding    =   -4.43 kcal/mol  [=(1)+(2)+(3)-(4)]
USER    Estimated Inhibition Constant, Ki   =  563.89 uM (micromolar)  [Temperature = 298.15 K]
USER    
USER    (1) Final Intermolecular Energy     =   -7.42 kcal/mol
USER        vdW + Hbond + desolv Energy     =   -7.15 kcal/mol
USER        Electrostatic Energy            =   -0.26 kcal/mol
USER    (2) Final Total Internal Energy     =   -2.32 kcal/mol
USER    (3) Torsional Free Energy           =   +2.98 kcal/mol
USER    (4) Unbound System's Energy  [=(2)] =   -2.32 kcal/mol
USER    
USER    
USER  
USER    DPF = D:/Protein_go_brrr/autodock/final/mut_D99N/heme_O2/dock.dpf
USER    NEWDPF move	heme_O2_opt.pdbqt
USER    NEWDPF about	8.287000 34.468000 -0.670000
USER    NEWDPF tran0	-3.061695 17.663232 7.683513
USER    NEWDPF axisangle0	0.030544 0.897343 0.440275 72.666308
USER    NEWDPF quaternion0	0.018097 0.531658 0.260854 0.805586
USER    NEWDPF dihe0	104.74 -0.24 -88.04 75.95 -102.73 -2.25 77.08 105.48 -15.67 176.79 
USER  
USER                              x       y       z    vdW   Elec        q     RMS 
ATOM      1  C   UNL d   1      -2.678  18.688   5.866 -0.07 +0.01    +0.064    19.060
ATOM      2  C   UNL d   1      -6.666  16.999   7.816 -0.10 +0.00    +0.064    19.060
ATOM      3  C   UNL d   1      -4.216  15.315  11.592 -0.21 -0.02    +0.064    19.060
ATOM      4  C   UNL d   1      -0.176  17.467   9.827 -0.03 +0.00    +0.064    19.060
ATOM      5  C   UNL d   1      -3.963  18.367   6.089 -0.14 +0.01    +0.066    19.060
ATOM      6  C   UNL d   1      -5.007  18.659   5.207 -0.21 -0.01    -0.021    19.060
ATOM      7  C   UNL d   1      -6.168  18.209   5.790 -0.21 -0.01    -0.025    19.060
ATOM      8  C   UNL d   1      -5.795  17.611   6.991 -0.22 +0.01    +0.066    19.060
ATOM      9  C   UNL d   1      -7.554  18.388   5.210 -0.10 +0.02    +0.051    19.060
ATOM     10  C   UNL d   1      -6.331  16.335   9.077 -0.22 -0.01    +0.066    19.060
ATOM     11  C   UNL d   1      -7.246  15.573   9.812 -0.27 +0.00    -0.021    19.060
ATOM     12  C   UNL d   1      -6.554  15.065  10.895 -0.26 -0.00    +0.000    19.060
ATOM     13  C   UNL d   1      -5.229  15.566  10.763 -0.22 -0.01    +0.070    19.060
ATOM     14  C   UNL d   1      -8.712  15.319   9.480 -0.23 -0.03    +0.052    19.060
ATOM     15  C   UNL d   1      -2.871  15.831  11.513 -0.16 -0.02    +0.066    19.060
ATOM     16  C   UNL d   1      -1.901  15.665  12.501 -0.19 +0.01    -0.021    19.060
ATOM     17  C   UNL d   1      -0.740  16.271  12.020 -0.20 -0.00    +0.000    19.060
ATOM     18  C   UNL d   1      -1.094  16.767  10.757 -0.15 -0.00    +0.070    19.060
ATOM     19  C   UNL d   1      -2.181  14.998  13.824 -0.30 -0.02    +0.052    19.060
ATOM     20  C   UNL d   1      -0.493  17.993   8.628 -0.22 +0.00    +0.066    19.060
ATOM     21  C   UNL d   1       0.419  18.626   7.788 -0.21 -0.00    -0.025    19.060
ATOM     22  C   UNL d   1      -0.270  18.956   6.643 -0.24 -0.00    -0.021    19.060
ATOM     23  C   UNL d   1      -1.587  18.527   6.835 -0.18 +0.01    +0.066    19.060
ATOM     24  C   UNL d   1       1.873  18.905   8.066 -0.15 +0.00    +0.051    19.060
ATOM     25  N   UNL d   1      -4.445  17.767   7.205 -0.15 -0.03    -0.248    19.060
ATOM     26  N   UNL d   1      -5.104  16.341   9.656 -0.14 +0.02    -0.248    19.060
ATOM     27  N   UNL d   1      -2.410  16.557  10.498 -0.16 +0.03    -0.248    19.060
ATOM     28  N   UNL d   1      -1.728  17.982   8.061 -0.18 -0.02    -0.248    19.060
ATOM     29 FE   UNL d   1      -3.402  17.167   8.855 -0.05 -0.00    +0.000    19.060
ATOM     30  O   UNL d   1      -4.377  18.351   9.124 -0.11 -0.00    +0.000    19.060
ATOM     31  O   UNL d   1      -2.954  18.341   9.801 -0.11 -0.00    +0.000    19.060
ATOM     32  C   UNL d   1      -4.939  19.452   3.928 -0.16 +0.02    +0.052    19.060
ATOM     33  C   UNL d   1      -4.150  18.744   2.832 -0.21 +0.06    +0.115    19.060
ATOM     34  C   UNL d   1      -2.785  19.351   2.622 -0.15 +0.04    +0.139    19.060
ATOM     35  O   UNL d   1      -1.793  18.758   3.016 +0.04 -0.17    -0.650    19.060
ATOM     36  O   UNL d   1      -2.634  20.554   2.030 +0.05 -0.15    -0.776    19.060
ATOM     37  H   UNL d   1      -2.415  21.347   2.533 +0.02 +0.02    +0.167    19.060
ATOM     38  C   UNL d   1       0.296  19.701   5.461 -0.18 +0.01    +0.052    19.060
ATOM     39  C   UNL d   1       0.325  21.211   5.685 -0.05 +0.01    +0.115    19.060
ATOM     40  C   UNL d   1      -1.040  21.840   5.554 -0.02 +0.01    +0.139    19.060
ATOM     41  O   UNL d   1      -1.360  22.754   6.297 +0.01 -0.02    -0.650    19.060
ATOM     42  O   UNL d   1      -1.899  21.445   4.595 +0.04 -0.07    -0.776    19.060
ATOM     43  H   UNL d   1      -1.682  20.727   3.988 +0.03 +0.02    +0.167    19.060
ATOM     44  C   UNL d   1      -7.216  14.174  11.926 -0.30 -0.00    +0.004    19.060
ATOM     45  C   UNL d   1      -7.351  12.849  11.897 -0.50 -0.00    +0.012    19.060
ATOM     46  C   UNL d   1       0.610  16.465  12.657 -0.16 -0.00    +0.004    19.060
ATOM     47  C   UNL d   1       1.531  15.537  12.945 -0.22 -0.00    +0.012    19.060
TER
ENDMDL
MODEL       48
USER    Run = 48
USER    Cluster Rank = 45
USER    Number of conformations in this cluster = 1
USER  
USER    RMSD from reference structure       = 21.088 A
USER  
USER    Estimated Free Energy of Binding    =   -4.41 kcal/mol  [=(1)+(2)+(3)-(4)]
USER    Estimated Inhibition Constant, Ki   =  583.52 uM (micromolar)  [Temperature = 298.15 K]
USER    
USER    (1) Final Intermolecular Energy     =   -7.39 kcal/mol
USER        vdW + Hbond + desolv Energy     =   -6.71 kcal/mol
USER        Electrostatic Energy            =   -0.68 kcal/mol
USER    (2) Final Total Internal Energy     =   -2.53 kcal/mol
USER    (3) Torsional Free Energy           =   +2.98 kcal/mol
USER    (4) Unbound System's Energy  [=(2)] =   -2.53 kcal/mol
USER    
USER    
USER  
USER    DPF = D:/Protein_go_brrr/autodock/final/mut_D99N/heme_O2/dock.dpf
USER    NEWDPF move	heme_O2_opt.pdbqt
USER    NEWDPF about	8.287000 34.468000 -0.670000
USER    NEWDPF tran0	8.475370 12.253364 7.328495
USER    NEWDPF axisangle0	-0.394144 -0.724719 -0.565184 -167.781005
USER    NEWDPF quaternion0	-0.391905 -0.720603 -0.561974 -0.106429
USER    NEWDPF dihe0	-142.73 -90.24 -4.98 118.76 109.25 88.58 82.39 -69.02 -4.52 -33.87 
USER  
USER                              x       y       z    vdW   Elec        q     RMS 
ATOM      1  C   UNL d   1       9.911  10.743   6.932 -0.13 +0.00    +0.064    21.088
ATOM      2  C   UNL d   1       8.321  14.411   4.367 -0.17 -0.00    +0.064    21.088
ATOM      3  C   UNL d   1       5.298  15.677   7.881 -0.23 -0.01    +0.064    21.088
ATOM      4  C   UNL d   1       7.265  12.192  10.719 -0.19 -0.01    +0.064    21.088
ATOM      5  C   UNL d   1       9.727  11.638   5.948 -0.02 +0.00    +0.066    21.088
ATOM      6  C   UNL d   1      10.404  11.609   4.726 -0.10 -0.00    -0.021    21.088
ATOM      7  C   UNL d   1       9.976  12.696   4.000 -0.11 -0.00    -0.025    21.088
ATOM      8  C   UNL d   1       9.014  13.331   4.779 -0.16 -0.00    +0.066    21.088
ATOM      9  C   UNL d   1      10.509  13.092   2.640 -0.07 +0.00    +0.051    21.088
ATOM     10  C   UNL d   1       7.284  15.107   5.130 -0.19 -0.01    +0.066    21.088
ATOM     11  C   UNL d   1       6.483  16.120   4.592 -0.22 +0.00    -0.021    21.088
ATOM     12  C   UNL d   1       5.592  16.486   5.585 -0.26 -0.00    +0.000    21.088
ATOM     13  C   UNL d   1       5.916  15.665   6.701 -0.21 -0.01    +0.070    21.088
ATOM     14  C   UNL d   1       6.546  16.696   3.183 -0.17 -0.00    +0.052    21.088
ATOM     15  C   UNL d   1       5.618  14.888   9.046 -0.25 -0.01    +0.066    21.088
ATOM     16  C   UNL d   1       5.039  15.063  10.303 -0.21 +0.00    -0.021    21.088
ATOM     17  C   UNL d   1       5.586  14.081  11.129 -0.22 -0.00    +0.000    21.088
ATOM     18  C   UNL d   1       6.467  13.369  10.302 -0.13 -0.01    +0.070    21.088
ATOM     19  C   UNL d   1       4.069  16.175  10.614 -0.11 -0.00    +0.052    21.088
ATOM     20  C   UNL d   1       8.152  11.514   9.964 -0.22 -0.00    +0.066    21.088
ATOM     21  C   UNL d   1       8.862  10.401  10.406 -0.17 -0.00    -0.025    21.088
ATOM     22  C   UNL d   1       9.600   9.958   9.332 -0.15 -0.00    -0.021    21.088
ATOM     23  C   UNL d   1       9.326  10.832   8.275 -0.14 +0.00    +0.066    21.088
ATOM     24  C   UNL d   1       8.839   9.793  11.785 -0.13 +0.00    +0.051    21.088
ATOM     25  N   UNL d   1       8.908  12.717   6.005 -0.13 +0.01    -0.248    21.088
ATOM     26  N   UNL d   1       6.950  14.832   6.417 -0.09 +0.05    -0.248    21.088
ATOM     27  N   UNL d   1       6.529  13.919   9.063 -0.20 +0.05    -0.248    21.088
ATOM     28  N   UNL d   1       8.480  11.802   8.677 -0.18 +0.00    -0.248    21.088
ATOM     29 FE   UNL d   1       7.719  13.307   7.557 -0.05 -0.00    +0.000    21.088
ATOM     30  O   UNL d   1       8.902  14.276   7.269 -0.12 -0.00    +0.000    21.088
ATOM     31  O   UNL d   1       8.497  13.959   8.758 -0.12 -0.00    +0.000    21.088
ATOM     32  C   UNL d   1      11.512  10.678   4.307 -0.07 +0.00    +0.052    21.088
ATOM     33  C   UNL d   1      11.002   9.308   3.872 -0.09 +0.01    +0.115    21.088
ATOM     34  C   UNL d   1      11.142   8.270   4.958 -0.09 +0.01    +0.139    21.088
ATOM     35  O   UNL d   1      12.160   8.236   5.632 +0.02 -0.06    -0.650    21.088
ATOM     36  O   UNL d   1      10.178   7.355   5.186 +0.07 -0.12    -0.776    21.088
ATOM     37  H   UNL d   1       9.949   7.064   6.076 +0.06 +0.04    +0.167    21.088
ATOM     38  C   UNL d   1      10.563   8.799   9.346 -0.10 +0.01    +0.052    21.088
ATOM     39  C   UNL d   1       9.856   7.457   9.522 -0.15 +0.03    +0.115    21.088
ATOM     40  C   UNL d   1       9.891   6.618   8.270 -0.16 +0.07    +0.139    21.088
ATOM     41  O   UNL d   1       8.852   6.173   7.809 -0.38 -0.44    -0.650    21.088
ATOM     42  O   UNL d   1      11.047   6.390   7.617 +0.02 -0.34    -0.776    21.088
ATOM     43  H   UNL d   1      11.374   6.997   6.943 +0.03 +0.04    +0.167    21.088
ATOM     44  C   UNL d   1       4.548  17.562   5.372 -0.23 +0.00    +0.004    21.088
ATOM     45  C   UNL d   1       3.533  17.887   6.171 -0.25 +0.00    +0.012    21.088
ATOM     46  C   UNL d   1       5.395  13.806  12.597 -0.23 -0.00    +0.004    21.088
ATOM     47  C   UNL d   1       4.793  12.757  13.172 -0.33 -0.00    +0.012    21.088
TER
ENDMDL
MODEL       32
USER    Run = 32
USER    Cluster Rank = 46
USER    Number of conformations in this cluster = 1
USER  
USER    RMSD from reference structure       = 17.426 A
USER  
USER    Estimated Free Energy of Binding    =   -4.22 kcal/mol  [=(1)+(2)+(3)-(4)]
USER    Estimated Inhibition Constant, Ki   =  800.21 uM (micromolar)  [Temperature = 298.15 K]
USER    
USER    (1) Final Intermolecular Energy     =   -7.21 kcal/mol
USER        vdW + Hbond + desolv Energy     =   -6.49 kcal/mol
USER        Electrostatic Energy            =   -0.71 kcal/mol
USER    (2) Final Total Internal Energy     =   -2.39 kcal/mol
USER    (3) Torsional Free Energy           =   +2.98 kcal/mol
USER    (4) Unbound System's Energy  [=(2)] =   -2.39 kcal/mol
USER    
USER    
USER  
USER    DPF = D:/Protein_go_brrr/autodock/final/mut_D99N/heme_O2/dock.dpf
USER    NEWDPF move	heme_O2_opt.pdbqt
USER    NEWDPF about	8.287000 34.468000 -0.670000
USER    NEWDPF tran0	-2.153685 18.814430 4.907259
USER    NEWDPF axisangle0	-0.137195 -0.865080 -0.482507 -86.793126
USER    NEWDPF quaternion0	-0.094259 -0.594348 -0.331504 -0.726616
USER    NEWDPF dihe0	0.80 137.26 -19.45 -114.52 -115.85 -116.33 170.32 -93.07 13.44 -4.62 
USER  
USER                              x       y       z    vdW   Elec        q     RMS 
ATOM      1  C   UNL d   1      -1.293  19.540   3.109 -0.16 +0.01    +0.064    17.426
ATOM      2  C   UNL d   1      -5.796  18.995   4.519 -0.16 +0.03    +0.064    17.426
ATOM      3  C   UNL d   1      -4.355  17.188   8.732 -0.25 -0.00    +0.064    17.426
ATOM      4  C   UNL d   1       0.282  18.188   7.483 -0.23 +0.01    +0.064    17.426
ATOM      5  C   UNL d   1      -2.635  19.541   3.150 -0.13 +0.02    +0.066    17.426
ATOM      6  C   UNL d   1      -3.450  19.971   2.098 -0.09 -0.01    -0.021    17.426
ATOM      7  C   UNL d   1      -4.753  19.854   2.521 -0.10 -0.01    -0.025    17.426
ATOM      8  C   UNL d   1      -4.700  19.311   3.802 -0.15 +0.03    +0.066    17.426
ATOM      9  C   UNL d   1      -5.964  20.282   1.722 -0.03 +0.03    +0.051    17.426
ATOM     10  C   UNL d   1      -5.804  18.402   5.857 -0.18 +0.02    +0.066    17.426
ATOM     11  C   UNL d   1      -6.965  17.943   6.488 -0.15 -0.00    -0.021    17.426
ATOM     12  C   UNL d   1      -6.568  17.402   7.697 -0.19 +0.00    +0.000    17.426
ATOM     13  C   UNL d   1      -5.157  17.576   7.741 -0.20 +0.00    +0.070    17.426
ATOM     14  C   UNL d   1      -8.390  17.994   5.949 -0.16 +0.01    +0.052    17.426
ATOM     15  C   UNL d   1      -2.928  17.377   8.830 -0.23 -0.00    +0.066    17.426
ATOM     16  C   UNL d   1      -2.169  17.096   9.966 -0.23 +0.00    -0.021    17.426
ATOM     17  C   UNL d   1      -0.844  17.374   9.634 -0.19 +0.00    +0.000    17.426
ATOM     18  C   UNL d   1      -0.893  17.808   8.302 -0.23 +0.01    +0.070    17.426
ATOM     19  C   UNL d   1      -2.777  16.644  11.270 -0.20 -0.01    +0.052    17.426
ATOM     20  C   UNL d   1       0.266  18.650   6.218 -0.28 +0.01    +0.066    17.426
ATOM     21  C   UNL d   1       1.408  18.974   5.491 -0.21 -0.00    -0.025    17.426
ATOM     22  C   UNL d   1       0.980  19.336   4.233 -0.21 -0.00    -0.021    17.426
ATOM     23  C   UNL d   1      -0.414  19.235   4.245 -0.16 +0.01    +0.066    17.426
ATOM     24  C   UNL d   1       2.835  18.945   5.973 -0.19 +0.00    +0.051    17.426
ATOM     25  N   UNL d   1      -3.394  19.179   4.213 -0.08 -0.07    -0.248    17.426
ATOM     26  N   UNL d   1      -4.701  18.189   6.619 -0.13 -0.04    -0.248    17.426
ATOM     27  N   UNL d   1      -2.174  17.875   7.855 -0.18 -0.02    -0.248    17.426
ATOM     28  N   UNL d   1      -0.847  18.861   5.466 -0.13 -0.04    -0.248    17.426
ATOM     29 FE   UNL d   1      -2.759  18.527   6.041 -0.06 +0.00    +0.000    17.426
ATOM     30  O   UNL d   1      -3.452  19.920   6.077 -0.11 +0.00    +0.000    17.426
ATOM     31  O   UNL d   1      -2.179  19.658   6.967 -0.13 +0.00    +0.000    17.426
ATOM     32  C   UNL d   1      -3.022  20.597   0.796 -0.04 +0.01    +0.052    17.426
ATOM     33  C   UNL d   1      -2.947  19.592  -0.349 -0.05 +0.03    +0.115    17.426
ATOM     34  C   UNL d   1      -3.036  18.165   0.132 -0.17 +0.06    +0.139    17.426
ATOM     35  O   UNL d   1      -4.121  17.608   0.171 -0.02 -0.53    -0.650    17.426
ATOM     36  O   UNL d   1      -1.942  17.494   0.550 +0.03 -0.20    -0.776    17.426
ATOM     37  H   UNL d   1      -1.069  17.903   0.571 +0.04 +0.03    +0.167    17.426
ATOM     38  C   UNL d   1       1.862  19.812   3.108 -0.16 +0.00    +0.052    17.426
ATOM     39  C   UNL d   1       2.216  18.693   2.131 -0.11 +0.01    +0.115    17.426
ATOM     40  C   UNL d   1       1.167  18.508   1.063 -0.22 +0.01    +0.139    17.426
ATOM     41  O   UNL d   1       0.483  19.456   0.715 -0.01 -0.05    -0.650    17.426
ATOM     42  O   UNL d   1       1.004  17.321   0.447 -0.03 -0.05    -0.776    17.426
ATOM     43  H   UNL d   1       0.127  16.977   0.237 +0.04 +0.01    +0.167    17.426
ATOM     44  C   UNL d   1      -7.557  16.790   8.668 -0.20 -0.00    +0.004    17.426
ATOM     45  C   UNL d   1      -7.321  15.881   9.612 -0.27 -0.00    +0.012    17.426
ATOM     46  C   UNL d   1       0.414  17.322  10.460 -0.08 +0.00    +0.004    17.426
ATOM     47  C   UNL d   1       1.276  18.313  10.721 -0.11 -0.00    +0.012    17.426
TER
ENDMDL
MODEL       99
USER    Run = 99
USER    Cluster Rank = 47
USER    Number of conformations in this cluster = 1
USER  
USER    RMSD from reference structure       = 32.352 A
USER  
USER    Estimated Free Energy of Binding    =   -4.18 kcal/mol  [=(1)+(2)+(3)-(4)]
USER    Estimated Inhibition Constant, Ki   =  857.86 uM (micromolar)  [Temperature = 298.15 K]
USER    
USER    (1) Final Intermolecular Energy     =   -7.17 kcal/mol
USER        vdW + Hbond + desolv Energy     =   -7.17 kcal/mol
USER        Electrostatic Energy            =   +0.01 kcal/mol
USER    (2) Final Total Internal Energy     =   -2.34 kcal/mol
USER    (3) Torsional Free Energy           =   +2.98 kcal/mol
USER    (4) Unbound System's Energy  [=(2)] =   -2.34 kcal/mol
USER    
USER    
USER  
USER    DPF = D:/Protein_go_brrr/autodock/final/mut_D99N/heme_O2/dock.dpf
USER    NEWDPF move	heme_O2_opt.pdbqt
USER    NEWDPF about	8.287000 34.468000 -0.670000
USER    NEWDPF tran0	15.720743 0.205258 1.772384
USER    NEWDPF axisangle0	0.541695 0.350027 0.764230 96.130351
USER    NEWDPF quaternion0	0.402970 0.260387 0.568515 0.668285
USER    NEWDPF dihe0	114.10 -16.79 81.91 -114.70 179.96 -60.78 -78.65 -179.99 179.93 162.00 
USER  
USER                              x       y       z    vdW   Elec        q     RMS 
ATOM      1  C   UNL d   1      15.809   0.583  -0.313 -0.21 -0.01    +0.064    32.352
ATOM      2  C   UNL d   1      13.829   2.953   3.296 -0.15 +0.00    +0.064    32.352
ATOM      3  C   UNL d   1      15.287  -0.398   6.417 -0.13 +0.01    +0.064    32.352
ATOM      4  C   UNL d   1      17.739  -2.600   2.782 -0.25 -0.01    +0.064    32.352
ATOM      5  C   UNL d   1      15.153   1.502   0.414 -0.19 -0.00    +0.066    32.352
ATOM      6  C   UNL d   1      14.545   2.639  -0.125 -0.20 -0.00    -0.021    32.352
ATOM      7  C   UNL d   1      14.009   3.348   0.924 -0.13 -0.00    -0.025    32.352
ATOM      8  C   UNL d   1      14.262   2.600   2.070 -0.17 +0.00    +0.066    32.352
ATOM      9  C   UNL d   1      13.320   4.690   0.800 +0.34 -0.00    +0.051    32.352
ATOM     10  C   UNL d   1      14.044   2.198   4.531 -0.19 +0.00    +0.066    32.352
ATOM     11  C   UNL d   1      13.434   2.523   5.748 -0.19 -0.00    -0.021    32.352
ATOM     12  C   UNL d   1      13.828   1.558   6.656 -0.24 +0.00    +0.000    32.352
ATOM     13  C   UNL d   1      14.685   0.686   5.929 -0.23 +0.00    +0.070    32.352
ATOM     14  C   UNL d   1      12.493   3.690   6.026 -0.19 +0.02    +0.052    32.352
ATOM     15  C   UNL d   1      16.189  -1.286   5.724 -0.21 -0.00    +0.066    32.352
ATOM     16  C   UNL d   1      16.916  -2.308   6.333 -0.27 +0.00    -0.021    32.352
ATOM     17  C   UNL d   1      17.624  -2.949   5.316 -0.24 -0.00    +0.000    32.352
ATOM     18  C   UNL d   1      17.269  -2.263   4.147 -0.22 -0.01    +0.070    32.352
ATOM     19  C   UNL d   1      16.914  -2.544   7.823 -0.23 -0.00    +0.052    32.352
ATOM     20  C   UNL d   1      17.452  -1.936   1.646 -0.23 -0.01    +0.066    32.352
ATOM     21  C   UNL d   1      17.910  -2.312   0.386 -0.28 +0.00    -0.025    32.352
ATOM     22  C   UNL d   1      17.348  -1.432  -0.512 -0.28 +0.00    -0.021    32.352
ATOM     23  C   UNL d   1      16.579  -0.537   0.239 -0.19 -0.01    +0.066    32.352
ATOM     24  C   UNL d   1      18.840  -3.451   0.056 -0.33 -0.01    +0.051    32.352
ATOM     25  N   UNL d   1      15.023   1.496   1.764 -0.11 -0.00    -0.248    32.352
ATOM     26  N   UNL d   1      14.814   1.085   4.638 -0.15 -0.00    -0.248    32.352
ATOM     27  N   UNL d   1      16.457  -1.210   4.423 -0.17 +0.02    -0.248    32.352
ATOM     28  N   UNL d   1      16.681  -0.820   1.554 -0.10 +0.01    -0.248    32.352
ATOM     29 FE   UNL d   1      15.756   0.124   3.087 -0.05 -0.00    +0.000    32.352
ATOM     30  O   UNL d   1      16.423   1.525   3.201 -0.10 +0.00    +0.000    32.352
ATOM     31  O   UNL d   1      17.305   0.227   3.336 -0.11 -0.00    +0.000    32.352
ATOM     32  C   UNL d   1      14.583   3.116  -1.554 -0.07 +0.00    +0.052    32.352
ATOM     33  C   UNL d   1      15.662   4.165  -1.800 -0.07 +0.01    +0.115    32.352
ATOM     34  C   UNL d   1      16.908   3.576  -2.415 -0.07 +0.00    +0.139    32.352
ATOM     35  O   UNL d   1      16.821   2.587  -3.124 -0.39 -0.02    -0.650    32.352
ATOM     36  O   UNL d   1      18.127   4.102  -2.175 +0.01 -0.01    -0.776    32.352
ATOM     37  H   UNL d   1      18.807   3.617  -1.693 +0.01 +0.00    +0.167    32.352
ATOM     38  C   UNL d   1      17.593  -1.419  -1.999 -0.25 -0.02    +0.052    32.352
ATOM     39  C   UNL d   1      18.677  -0.421  -2.401 -0.19 -0.02    +0.115    32.352
ATOM     40  C   UNL d   1      19.230   0.336  -1.220 -0.07 -0.01    +0.139    32.352
ATOM     41  O   UNL d   1      20.116  -0.160  -0.542 +0.03 +0.01    -0.650    32.352
ATOM     42  O   UNL d   1      18.800   1.579  -0.927 +0.03 +0.03    -0.776    32.352
ATOM     43  H   UNL d   1      18.286   2.097  -1.558 +0.02 -0.01    +0.167    32.352
ATOM     44  C   UNL d   1      13.359   1.570   8.096 -0.26 +0.00    +0.004    32.352
ATOM     45  C   UNL d   1      14.035   1.963   9.175 -0.20 +0.00    +0.012    32.352
ATOM     46  C   UNL d   1      18.617  -4.080   5.364 -0.09 +0.00    +0.004    32.352
ATOM     47  C   UNL d   1      19.887  -4.085   4.939 -0.18 +0.00    +0.012    32.352
TER
ENDMDL
MODEL       34
USER    Run = 34
USER    Cluster Rank = 48
USER    Number of conformations in this cluster = 1
USER  
USER    RMSD from reference structure       = 43.802 A
USER  
USER    Estimated Free Energy of Binding    =   -4.12 kcal/mol  [=(1)+(2)+(3)-(4)]
USER    Estimated Inhibition Constant, Ki   =  954.93 uM (micromolar)  [Temperature = 298.15 K]
USER    
USER    (1) Final Intermolecular Energy     =   -7.10 kcal/mol
USER        vdW + Hbond + desolv Energy     =   -5.32 kcal/mol
USER        Electrostatic Energy            =   -1.78 kcal/mol
USER    (2) Final Total Internal Energy     =   -2.27 kcal/mol
USER    (3) Torsional Free Energy           =   +2.98 kcal/mol
USER    (4) Unbound System's Energy  [=(2)] =   -2.27 kcal/mol
USER    
USER    
USER  
USER    DPF = D:/Protein_go_brrr/autodock/final/mut_D99N/heme_O2/dock.dpf
USER    NEWDPF move	heme_O2_opt.pdbqt
USER    NEWDPF about	8.287000 34.468000 -0.670000
USER    NEWDPF tran0	21.707512 -9.435090 -3.386208
USER    NEWDPF axisangle0	-0.685958 -0.684463 0.246924 141.375609
USER    NEWDPF quaternion0	-0.647359 -0.645949 0.233030 0.330715
USER    NEWDPF dihe0	-179.16 18.11 -112.32 128.96 -9.27 117.97 -80.65 7.66 -157.07 -179.80 
USER  
USER                              x       y       z    vdW   Elec        q     RMS 
ATOM      1  C   UNL d   1      22.097 -10.095  -1.408 -0.18 +0.00    +0.064    43.802
ATOM      2  C   UNL d   1      19.928 -12.142  -5.105 -0.08 +0.00    +0.064    43.802
ATOM      3  C   UNL d   1      20.630  -8.228  -7.803 -0.18 +0.01    +0.064    43.802
ATOM      4  C   UNL d   1      23.284  -6.292  -4.159 -0.12 +0.01    +0.064    43.802
ATOM      5  C   UNL d   1      21.451 -10.972  -2.194 -0.16 -0.00    +0.066    43.802
ATOM      6  C   UNL d   1      21.036 -12.240  -1.776 -0.14 -0.00    -0.021    43.802
ATOM      7  C   UNL d   1      20.446 -12.850  -2.859 -0.09 -0.00    -0.025    43.802
ATOM      8  C   UNL d   1      20.475 -11.920  -3.894 -0.08 +0.00    +0.066    43.802
ATOM      9  C   UNL d   1      19.919 -14.268  -2.872 -0.04 +0.00    +0.051    43.802
ATOM     10  C   UNL d   1      19.907 -11.197  -6.223 -0.11 +0.01    +0.066    43.802
ATOM     11  C   UNL d   1      19.184 -11.416  -7.401 -0.13 -0.00    -0.021    43.802
ATOM     12  C   UNL d   1      19.360 -10.290  -8.184 -0.21 +0.00    +0.000    43.802
ATOM     13  C   UNL d   1      20.208  -9.435  -7.428 -0.19 +0.01    +0.070    43.802
ATOM     14  C   UNL d   1      18.340 -12.635  -7.753 -0.07 +0.00    +0.052    43.802
ATOM     15  C   UNL d   1      21.517  -7.347  -7.082 -0.25 +0.01    +0.066    43.802
ATOM     16  C   UNL d   1      22.054  -6.168  -7.600 -0.24 -0.00    -0.021    43.802
ATOM     17  C   UNL d   1      22.815  -5.599  -6.579 -0.17 +0.00    +0.000    43.802
ATOM     18  C   UNL d   1      22.682  -6.484  -5.499 -0.17 +0.01    +0.070    43.802
ATOM     19  C   UNL d   1      21.839  -5.723  -9.024 -0.17 +0.01    +0.052    43.802
ATOM     20  C   UNL d   1      23.213  -7.142  -3.116 -0.11 +0.01    +0.066    43.802
ATOM     21  C   UNL d   1      23.787  -6.899  -1.871 -0.08 -0.00    -0.025    43.802
ATOM     22  C   UNL d   1      23.435  -7.959  -1.066 -0.15 -0.00    -0.021    43.802
ATOM     23  C   UNL d   1      22.673  -8.823  -1.858 -0.17 +0.00    +0.066    43.802
ATOM     24  C   UNL d   1      24.630  -5.716  -1.470 -0.05 +0.01    +0.051    43.802
ATOM     25  N   UNL d   1      21.152 -10.788  -3.504 -0.02 -0.01    -0.248    43.802
ATOM     26  N   UNL d   1      20.540  -9.997  -6.238 -0.07 -0.04    -0.248    43.802
ATOM     27  N   UNL d   1      21.954  -7.576  -5.847 -0.15 -0.04    -0.248    43.802
ATOM     28  N   UNL d   1      22.578  -8.344  -3.116 -0.09 -0.02    -0.248    43.802
ATOM     29 FE   UNL d   1      21.567  -9.162  -4.667 -0.04 +0.00    +0.000    43.802
ATOM     30  O   UNL d   1      22.355 -10.442  -5.073 -0.09 +0.00    +0.000    43.802
ATOM     31  O   UNL d   1      23.075  -9.042  -5.098 -0.10 +0.00    +0.000    43.802
ATOM     32  C   UNL d   1      21.303 -12.909  -0.453 -0.13 +0.00    +0.052    43.802
ATOM     33  C   UNL d   1      22.748 -13.376  -0.306 -0.05 +0.01    +0.115    43.802
ATOM     34  C   UNL d   1      23.596 -12.389   0.458 -0.08 +0.03    +0.139    43.802
ATOM     35  O   UNL d   1      24.811 -12.429   0.351 +0.01 -0.17    -0.650    43.802
ATOM     36  O   UNL d   1      23.043 -11.476   1.282 -0.00 -0.33    -0.776    43.802
ATOM     37  H   UNL d   1      23.576 -10.831   1.762 +0.02 +0.12    +0.167    43.802
ATOM     38  C   UNL d   1      23.866  -8.157   0.364 -0.17 +0.02    +0.052    43.802
ATOM     39  C   UNL d   1      25.300  -8.671   0.475 -0.11 +0.05    +0.115    43.802
ATOM     40  C   UNL d   1      25.681  -9.018   1.892 +0.03 +0.12    +0.139    43.802
ATOM     41  O   UNL d   1      26.299  -8.212   2.568 -0.04 -0.62    -0.650    43.802
ATOM     42  O   UNL d   1      25.304 -10.186   2.447 -0.33 -1.14    -0.776    43.802
ATOM     43  H   UNL d   1      25.054 -10.945   1.906 +0.01 +0.14    +0.167    43.802
ATOM     44  C   UNL d   1      18.715 -10.151  -9.548 -0.19 +0.00    +0.004    43.802
ATOM     45  C   UNL d   1      17.416 -10.109  -9.839 -0.20 +0.00    +0.012    43.802
ATOM     46  C   UNL d   1      23.673  -4.363  -6.558 -0.13 +0.00    +0.004    43.802
ATOM     47  C   UNL d   1      23.572  -3.297  -5.753 -0.10 +0.00    +0.012    43.802
TER
ENDMDL
MODEL       50
USER    Run = 50
USER    Cluster Rank = 49
USER    Number of conformations in this cluster = 1
USER  
USER    RMSD from reference structure       = 36.125 A
USER  
USER    Estimated Free Energy of Binding    =   -4.08 kcal/mol  [=(1)+(2)+(3)-(4)]
USER    Estimated Inhibition Constant, Ki   =    1.03 mM (millimolar)  [Temperature = 298.15 K]
USER    
USER    (1) Final Intermolecular Energy     =   -7.06 kcal/mol
USER        vdW + Hbond + desolv Energy     =   -6.74 kcal/mol
USER        Electrostatic Energy            =   -0.32 kcal/mol
USER    (2) Final Total Internal Energy     =   -1.94 kcal/mol
USER    (3) Torsional Free Energy           =   +2.98 kcal/mol
USER    (4) Unbound System's Energy  [=(2)] =   -1.94 kcal/mol
USER    
USER    
USER  
USER    DPF = D:/Protein_go_brrr/autodock/final/mut_D99N/heme_O2/dock.dpf
USER    NEWDPF move	heme_O2_opt.pdbqt
USER    NEWDPF about	8.287000 34.468000 -0.670000
USER    NEWDPF tran0	19.103694 -2.390981 5.057284
USER    NEWDPF axisangle0	-0.659146 -0.049613 0.750376 -177.026040
USER    NEWDPF quaternion0	-0.658924 -0.049596 0.750124 -0.025950
USER    NEWDPF dihe0	-18.52 -32.88 25.03 -122.29 30.56 -37.53 55.08 150.01 -24.79 171.05 
USER  
USER                              x       y       z    vdW   Elec        q     RMS 
ATOM      1  C   UNL d   1      20.156  -3.152   6.734 -0.04 +0.00    +0.064    36.125
ATOM      2  C   UNL d   1      16.257  -0.469   6.342 -0.20 +0.00    +0.064    36.125
ATOM      3  C   UNL d   1      16.606  -0.500   1.549 -0.16 -0.00    +0.064    36.125
ATOM      4  C   UNL d   1      20.342  -3.657   1.923 -0.17 +0.00    +0.064    36.125
ATOM      5  C   UNL d   1      19.066  -2.421   7.019 -0.04 +0.00    +0.066    36.125
ATOM      6  C   UNL d   1      18.625  -2.146   8.316 -0.04 -0.00    -0.021    36.125
ATOM      7  C   UNL d   1      17.471  -1.406   8.203 -0.12 -0.00    -0.025    36.125
ATOM      8  C   UNL d   1      17.267  -1.208   6.840 -0.14 +0.00    +0.066    36.125
ATOM      9  C   UNL d   1      16.616  -0.953   9.366 -0.08 +0.00    +0.051    36.125
ATOM     10  C   UNL d   1      16.004  -0.207   4.924 -0.22 -0.00    +0.066    36.125
ATOM     11  C   UNL d   1      15.041   0.700   4.469 -0.26 +0.00    -0.021    36.125
ATOM     12  C   UNL d   1      15.138   0.718   3.090 -0.20 -0.00    +0.000    36.125
ATOM     13  C   UNL d   1      16.171  -0.208   2.774 -0.06 -0.00    +0.070    36.125
ATOM     14  C   UNL d   1      14.086   1.534   5.315 -0.27 +0.00    +0.052    36.125
ATOM     15  C   UNL d   1      17.623  -1.457   1.185 -0.17 -0.01    +0.066    36.125
ATOM     16  C   UNL d   1      17.919  -1.837  -0.123 -0.24 +0.00    -0.021    36.125
ATOM     17  C   UNL d   1      18.981  -2.738  -0.041 -0.24 -0.00    +0.000    36.125
ATOM     18  C   UNL d   1      19.259  -2.839   1.329 -0.17 -0.01    +0.070    36.125
ATOM     19  C   UNL d   1      17.135  -1.355  -1.318 -0.33 -0.01    +0.052    36.125
ATOM     20  C   UNL d   1      20.608  -3.810   3.235 -0.16 +0.01    +0.066    36.125
ATOM     21  C   UNL d   1      21.655  -4.581   3.734 -0.17 -0.01    -0.025    36.125
ATOM     22  C   UNL d   1      21.634  -4.427   5.102 -0.12 -0.00    -0.021    36.125
ATOM     23  C   UNL d   1      20.559  -3.579   5.389 -0.08 +0.01    +0.066    36.125
ATOM     24  C   UNL d   1      22.623  -5.424   2.946 -0.10 +0.02    +0.051    36.125
ATOM     25  N   UNL d   1      18.213  -1.889   6.109 -0.05 +0.00    -0.248    36.125
ATOM     26  N   UNL d   1      16.689  -0.769   3.896 -0.13 +0.01    -0.248    36.125
ATOM     27  N   UNL d   1      18.377  -2.113   2.063 -0.09 +0.02    -0.248    36.125
ATOM     28  N   UNL d   1      19.911  -3.243   4.255 -0.07 -0.02    -0.248    36.125
ATOM     29 FE   UNL d   1      18.312  -2.016   4.074 -0.03 -0.00    +0.000    36.125
ATOM     30  O   UNL d   1      17.105  -2.780   4.693 -0.32 -0.00    +0.000    36.125
ATOM     31  O   UNL d   1      17.900  -3.417   3.491 -0.36 -0.00    +0.000    36.125
ATOM     32  C   UNL d   1      19.184  -2.672   9.612 -0.02 +0.00    +0.052    36.125
ATOM     33  C   UNL d   1      20.652  -2.310   9.815 -0.00 +0.00    +0.115    36.125
ATOM     34  C   UNL d   1      21.506  -3.516  10.118 +0.00 +0.01    +0.139    36.125
ATOM     35  O   UNL d   1      22.128  -3.566  11.167 +0.00 -0.03    -0.650    36.125
ATOM     36  O   UNL d   1      21.621  -4.535   9.241 +0.02 -0.08    -0.776    36.125
ATOM     37  H   UNL d   1      20.989  -4.667   8.525 +0.02 +0.02    +0.167    36.125
ATOM     38  C   UNL d   1      22.557  -5.111   6.077 -0.10 +0.02    +0.052    36.125
ATOM     39  C   UNL d   1      22.041  -6.484   6.501 -0.08 +0.06    +0.115    36.125
ATOM     40  C   UNL d   1      20.535  -6.556   6.512 -0.18 +0.04    +0.139    36.125
ATOM     41  O   UNL d   1      19.952  -7.183   5.642 -0.24 -0.29    -0.650    36.125
ATOM     42  O   UNL d   1      19.818  -5.982   7.497 +0.06 -0.11    -0.776    36.125
ATOM     43  H   UNL d   1      20.169  -5.894   8.392 +0.03 +0.02    +0.167    36.125
ATOM     44  C   UNL d   1      14.251   1.598   2.233 -0.28 +0.00    +0.004    36.125
ATOM     45  C   UNL d   1      13.964   1.458   0.939 -0.32 +0.00    +0.012    36.125
ATOM     46  C   UNL d   1      19.692  -3.527  -1.108 -0.34 -0.00    +0.004    36.125
ATOM     47  C   UNL d   1      19.949  -4.841  -1.134 -0.47 -0.00    +0.012    36.125
TER
ENDMDL
MODEL       92
USER    Run = 92
USER    Cluster Rank = 50
USER    Number of conformations in this cluster = 1
USER  
USER    RMSD from reference structure       = 42.063 A
USER  
USER    Estimated Free Energy of Binding    =   -4.07 kcal/mol  [=(1)+(2)+(3)-(4)]
USER    Estimated Inhibition Constant, Ki   =    1.04 mM (millimolar)  [Temperature = 298.15 K]
USER    
USER    (1) Final Intermolecular Energy     =   -7.05 kcal/mol
USER        vdW + Hbond + desolv Energy     =   -3.98 kcal/mol
USER        Electrostatic Energy            =   -3.08 kcal/mol
USER    (2) Final Total Internal Energy     =   -1.87 kcal/mol
USER    (3) Torsional Free Energy           =   +2.98 kcal/mol
USER    (4) Unbound System's Energy  [=(2)] =   -1.87 kcal/mol
USER    
USER    
USER  
USER    DPF = D:/Protein_go_brrr/autodock/final/mut_D99N/heme_O2/dock.dpf
USER    NEWDPF move	heme_O2_opt.pdbqt
USER    NEWDPF about	8.287000 34.468000 -0.670000
USER    NEWDPF tran0	-3.121987 -6.243159 17.465055
USER    NEWDPF axisangle0	-0.208873 -0.954656 -0.212144 -170.518370
USER    NEWDPF quaternion0	-0.208158 -0.951389 -0.211418 -0.082648
USER    NEWDPF dihe0	-136.81 -50.74 -18.83 -104.50 77.07 -10.95 -117.63 153.64 178.61 -177.07 
USER  
USER                              x       y       z    vdW   Elec        q     RMS 
ATOM      1  C   UNL d   1      -1.125  -6.772  17.945 -0.04 +0.02    +0.064    42.063
ATOM      2  C   UNL d   1      -3.614  -6.976  13.905 -0.17 +0.00    +0.064    42.063
ATOM      3  C   UNL d   1      -7.514  -5.240  16.113 -0.17 +0.01    +0.064    42.063
ATOM      4  C   UNL d   1      -4.826  -4.577  20.163 -0.07 +0.01    +0.064    42.063
ATOM      5  C   UNL d   1      -1.483  -6.967  16.666 -0.06 +0.02    +0.066    42.063
ATOM      6  C   UNL d   1      -0.634  -7.491  15.687 -0.07 -0.00    -0.021    42.063
ATOM      7  C   UNL d   1      -1.340  -7.510  14.507 -0.13 -0.00    -0.025    42.063
ATOM      8  C   UNL d   1      -2.617  -7.042  14.808 -0.11 +0.01    +0.066    42.063
ATOM      9  C   UNL d   1      -0.777  -7.933  13.168 -0.25 -0.00    +0.051    42.063
ATOM     10  C   UNL d   1      -4.979  -6.516  14.168 -0.18 +0.01    +0.066    42.063
ATOM     11  C   UNL d   1      -6.018  -6.621  13.237 -0.22 -0.00    -0.021    42.063
ATOM     12  C   UNL d   1      -7.155  -6.142  13.861 -0.18 +0.00    +0.000    42.063
ATOM     13  C   UNL d   1      -6.733  -5.752  15.162 -0.17 +0.01    +0.070    42.063
ATOM     14  C   UNL d   1      -5.936  -7.180  11.821 -0.33 +0.01    +0.052    42.063
ATOM     15  C   UNL d   1      -7.119  -4.800  17.429 -0.11 +0.01    +0.066    42.063
ATOM     16  C   UNL d   1      -7.951  -4.121  18.319 -0.04 -0.00    -0.021    42.063
ATOM     17  C   UNL d   1      -7.206  -3.921  19.481 -0.03 +0.00    +0.000    42.063
ATOM     18  C   UNL d   1      -5.959  -4.502  19.210 -0.08 +0.01    +0.070    42.063
ATOM     19  C   UNL d   1      -9.349  -3.681  17.965 -0.12 +0.01    +0.052    42.063
ATOM     20  C   UNL d   1      -3.604  -5.088  19.921 -0.05 +0.02    +0.066    42.063
ATOM     21  C   UNL d   1      -2.582  -5.147  20.865 -0.02 -0.01    -0.025    42.063
ATOM     22  C   UNL d   1      -1.529  -5.794  20.259 -0.02 -0.01    -0.021    42.063
ATOM     23  C   UNL d   1      -1.942  -6.091  18.957 -0.04 +0.02    +0.066    42.063
ATOM     24  C   UNL d   1      -2.608  -4.609  22.272 -0.01 +0.01    +0.051    42.063
ATOM     25  N   UNL d   1      -2.684  -6.647  16.124 -0.05 -0.06    -0.248    42.063
ATOM     26  N   UNL d   1      -5.406  -5.979  15.339 -0.09 -0.04    -0.248    42.063
ATOM     27  N   UNL d   1      -5.899  -4.963  17.935 -0.08 -0.05    -0.248    42.063
ATOM     28  N   UNL d   1      -3.187  -5.620  18.741 -0.03 -0.08    -0.248    42.063
ATOM     29 FE   UNL d   1      -4.291  -5.796  17.054 -0.03 +0.00    +0.000    42.063
ATOM     30  O   UNL d   1      -3.617  -4.875  15.995 -0.30 +0.00    +0.000    42.063
ATOM     31  O   UNL d   1      -4.129  -4.261  17.353 -0.30 +0.00    +0.000    42.063
ATOM     32  C   UNL d   1       0.827  -7.833  15.819 -0.06 +0.00    +0.052    42.063
ATOM     33  C   UNL d   1       1.743  -6.727  15.302 -0.10 +0.02    +0.115    42.063
ATOM     34  C   UNL d   1       1.551  -5.428  16.043 -0.10 +0.10    +0.139    42.063
ATOM     35  O   UNL d   1       0.553  -4.756  15.835 -0.11 -0.98    -0.650    42.063
ATOM     36  O   UNL d   1       2.474  -4.972  16.915 -0.08 -0.56    -0.776    42.063
ATOM     37  H   UNL d   1       2.229  -4.598  17.769 +0.01 +0.18    +0.167    42.063
ATOM     38  C   UNL d   1      -0.181  -6.051  20.881 -0.01 +0.01    +0.052    42.063
ATOM     39  C   UNL d   1       0.682  -4.792  20.943 -0.02 +0.04    +0.115    42.063
ATOM     40  C   UNL d   1       0.341  -3.806  19.853 -0.06 +0.13    +0.139    42.063
ATOM     41  O   UNL d   1       0.204  -2.625  20.126 -0.04 -0.64    -0.650    42.063
ATOM     42  O   UNL d   1       0.235  -4.198  18.569 +0.53 -1.57    -0.776    42.063
ATOM     43  H   UNL d   1       0.909  -4.749  18.151 +0.01 +0.27    +0.167    42.063
ATOM     44  C   UNL d   1      -8.499  -6.104  13.164 -0.07 +0.00    +0.004    42.063
ATOM     45  C   UNL d   1      -9.710  -6.084  13.720 -0.10 +0.00    +0.012    42.063
ATOM     46  C   UNL d   1      -7.542  -3.200  20.759 -0.10 +0.00    +0.004    42.063
ATOM     47  C   UNL d   1      -7.025  -2.056  21.226 -0.12 +0.00    +0.012    42.063
TER
ENDMDL
MODEL        4
USER    Run = 4
USER    Cluster Rank = 51
USER    Number of conformations in this cluster = 1
USER  
USER    RMSD from reference structure       = 43.869 A
USER  
USER    Estimated Free Energy of Binding    =   -4.03 kcal/mol  [=(1)+(2)+(3)-(4)]
USER    Estimated Inhibition Constant, Ki   =    1.11 mM (millimolar)  [Temperature = 298.15 K]
USER    
USER    (1) Final Intermolecular Energy     =   -7.01 kcal/mol
USER        vdW + Hbond + desolv Energy     =   -5.12 kcal/mol
USER        Electrostatic Energy            =   -1.90 kcal/mol
USER    (2) Final Total Internal Energy     =   -1.82 kcal/mol
USER    (3) Torsional Free Energy           =   +2.98 kcal/mol
USER    (4) Unbound System's Energy  [=(2)] =   -1.82 kcal/mol
USER    
USER    
USER  
USER    DPF = D:/Protein_go_brrr/autodock/final/mut_D99N/heme_O2/dock.dpf
USER    NEWDPF move	heme_O2_opt.pdbqt
USER    NEWDPF about	8.287000 34.468000 -0.670000
USER    NEWDPF tran0	16.903337 -11.239954 7.824547
USER    NEWDPF axisangle0	0.175685 0.972744 -0.151338 156.178944
USER    NEWDPF quaternion0	0.171903 0.951802 -0.148080 0.206384
USER    NEWDPF dihe0	151.04 3.18 52.41 -64.97 37.31 96.50 71.47 5.11 -55.26 -180.00 
USER  
USER                              x       y       z    vdW   Elec        q     RMS 
ATOM      1  C   UNL d   1      19.019 -11.257   7.669 -0.04 +0.00    +0.064    43.869
ATOM      2  C   UNL d   1      15.642 -14.029   5.805 +0.00 -0.05    +0.064    43.869
ATOM      3  C   UNL d   1      12.212 -11.509   8.035 -0.17 -0.02    +0.064    43.869
ATOM      4  C   UNL d   1      15.642  -8.359   9.576 -0.09 -0.01    +0.064    43.869
ATOM      5  C   UNL d   1      18.380 -12.216   6.979 -0.04 -0.00    +0.066    43.869
ATOM      6  C   UNL d   1      19.025 -13.186   6.206 -0.05 +0.00    -0.021    43.869
ATOM      7  C   UNL d   1      18.047 -13.962   5.631 -0.07 +0.01    -0.025    43.869
ATOM      8  C   UNL d   1      16.833 -13.475   6.107 -0.07 -0.03    +0.066    43.869
ATOM      9  C   UNL d   1      18.299 -15.090   4.654 -0.08 -0.01    +0.051    43.869
ATOM     10  C   UNL d   1      14.338 -13.577   6.291 -0.08 -0.04    +0.066    43.869
ATOM     11  C   UNL d   1      13.150 -14.286   6.079 -0.15 +0.01    -0.021    43.869
ATOM     12  C   UNL d   1      12.152 -13.584   6.730 -0.15 -0.00    +0.000    43.869
ATOM     13  C   UNL d   1      12.800 -12.456   7.305 -0.13 -0.02    +0.070    43.869
ATOM     14  C   UNL d   1      12.979 -15.591   5.312 -0.18 -0.01    +0.052    43.869
ATOM     15  C   UNL d   1      12.826 -10.333   8.605 -0.06 -0.03    +0.066    43.869
ATOM     16  C   UNL d   1      12.126  -9.295   9.219 -0.19 +0.01    -0.021    43.869
ATOM     17  C   UNL d   1      13.084  -8.385   9.666 -0.17 -0.00    +0.000    43.869
ATOM     18  C   UNL d   1      14.312  -8.944   9.287 -0.11 -0.02    +0.070    43.869
ATOM     19  C   UNL d   1      10.620  -9.239   9.276 -0.16 -0.02    +0.052    43.869
ATOM     20  C   UNL d   1      16.837  -8.846   9.190 -0.05 -0.01    +0.066    43.869
ATOM     21  C   UNL d   1      18.059  -8.260   9.508 -0.03 +0.00    -0.025    43.869
ATOM     22  C   UNL d   1      19.034  -9.087   8.996 -0.03 -0.00    -0.021    43.869
ATOM     23  C   UNL d   1      18.367 -10.142   8.366 -0.03 +0.00    +0.066    43.869
ATOM     24  C   UNL d   1      18.285  -6.973  10.259 -0.02 -0.00    +0.051    43.869
ATOM     25  N   UNL d   1      17.035 -12.359   6.885 -0.03 +0.06    -0.248    43.869
ATOM     26  N   UNL d   1      14.129 -12.457   7.029 -0.07 +0.10    -0.248    43.869
ATOM     27  N   UNL d   1      14.133 -10.088   8.578 -0.07 +0.09    -0.248    43.869
ATOM     28  N   UNL d   1      17.032  -9.968   8.448 -0.02 +0.03    -0.248    43.869
ATOM     29 FE   UNL d   1      15.589 -11.202   7.744 -0.03 -0.00    +0.000    43.869
ATOM     30  O   UNL d   1      15.642 -11.092   6.193 -0.31 -0.00    +0.000    43.869
ATOM     31  O   UNL d   1      15.388  -9.801   7.059 -0.31 -0.00    +0.000    43.869
ATOM     32  C   UNL d   1      20.498 -13.298   5.907 -0.06 +0.01    +0.052    43.869
ATOM     33  C   UNL d   1      21.373 -12.716   7.013 -0.04 +0.03    +0.115    43.869
ATOM     34  C   UNL d   1      22.077 -11.452   6.584 -0.10 +0.10    +0.139    43.869
ATOM     35  O   UNL d   1      23.293 -11.445   6.478 -0.57 -0.99    -0.650    43.869
ATOM     36  O   UNL d   1      21.393 -10.315   6.341 +0.03 -0.55    -0.776    43.869
ATOM     37  H   UNL d   1      21.789  -9.444   6.465 +0.01 +0.16    +0.167    43.869
ATOM     38  C   UNL d   1      20.518  -8.837   9.056 -0.03 +0.01    +0.052    43.869
ATOM     39  C   UNL d   1      20.979  -7.816   8.019 -0.08 +0.03    +0.115    43.869
ATOM     40  C   UNL d   1      22.477  -7.635   8.013 -0.08 +0.07    +0.139    43.869
ATOM     41  O   UNL d   1      22.956  -6.541   8.265 +0.00 -0.24    -0.650    43.869
ATOM     42  O   UNL d   1      23.302  -8.675   7.784 +0.00 -0.72    -0.776    43.869
ATOM     43  H   UNL d   1      22.963  -9.543   7.535 +0.00 +0.18    +0.167    43.869
ATOM     44  C   UNL d   1      10.712 -14.052   6.734 -0.20 -0.00    +0.004    43.869
ATOM     45  C   UNL d   1       9.618 -13.336   6.474 -0.28 -0.00    +0.012    43.869
ATOM     46  C   UNL d   1      12.936  -7.049  10.345 -0.28 -0.00    +0.004    43.869
ATOM     47  C   UNL d   1      12.511  -5.894   9.818 -0.44 -0.01    +0.012    43.869
TER
ENDMDL
MODEL       79
USER    Run = 79
USER    Cluster Rank = 52
USER    Number of conformations in this cluster = 1
USER  
USER    RMSD from reference structure       = 34.974 A
USER  
USER    Estimated Free Energy of Binding    =   -3.91 kcal/mol  [=(1)+(2)+(3)-(4)]
USER    Estimated Inhibition Constant, Ki   =    1.36 mM (millimolar)  [Temperature = 298.15 K]
USER    
USER    (1) Final Intermolecular Energy     =   -6.89 kcal/mol
USER        vdW + Hbond + desolv Energy     =   -6.99 kcal/mol
USER        Electrostatic Energy            =   +0.10 kcal/mol
USER    (2) Final Total Internal Energy     =   -1.98 kcal/mol
USER    (3) Torsional Free Energy           =   +2.98 kcal/mol
USER    (4) Unbound System's Energy  [=(2)] =   -1.98 kcal/mol
USER    
USER    
USER  
USER    DPF = D:/Protein_go_brrr/autodock/final/mut_D99N/heme_O2/dock.dpf
USER    NEWDPF move	heme_O2_opt.pdbqt
USER    NEWDPF about	8.287000 34.468000 -0.670000
USER    NEWDPF tran0	18.902249 -1.498422 0.695482
USER    NEWDPF axisangle0	-0.151931 -0.506214 0.848920 -140.384313
USER    NEWDPF quaternion0	-0.142942 -0.476263 0.798693 -0.338867
USER    NEWDPF dihe0	-37.24 -60.79 -12.78 -29.95 34.10 88.02 -121.32 -78.08 -171.40 7.29 
USER  
USER                              x       y       z    vdW   Elec        q     RMS 
ATOM      1  C   UNL d   1      20.463  -2.425  -0.402 -0.10 -0.00    +0.064    34.974
ATOM      2  C   UNL d   1      18.668  -3.226   3.922 -0.18 +0.00    +0.064    34.974
ATOM      3  C   UNL d   1      15.554   0.397   3.401 -0.19 -0.00    +0.064    34.974
ATOM      4  C   UNL d   1      17.069   0.925  -1.235 -0.11 -0.01    +0.064    34.974
ATOM      5  C   UNL d   1      20.228  -2.940   0.816 -0.12 -0.00    +0.066    34.974
ATOM      6  C   UNL d   1      20.945  -4.005   1.367 -0.19 -0.00    -0.021    34.974
ATOM      7  C   UNL d   1      20.398  -4.266   2.602 -0.19 -0.00    -0.025    34.974
ATOM      8  C   UNL d   1      19.393  -3.322   2.790 -0.18 -0.00    +0.066    34.974
ATOM      9  C   UNL d   1      20.823  -5.395   3.516 -0.09 +0.01    +0.051    34.974
ATOM     10  C   UNL d   1      17.617  -2.243   4.187 -0.21 -0.01    +0.066    34.974
ATOM     11  C   UNL d   1      17.010  -2.083   5.437 -0.25 +0.00    -0.021    34.974
ATOM     12  C   UNL d   1      16.122  -1.031   5.312 -0.26 -0.00    +0.000    34.974
ATOM     13  C   UNL d   1      16.231  -0.607   3.959 -0.20 -0.00    +0.070    34.974
ATOM     14  C   UNL d   1      17.286  -2.883   6.705 -0.26 -0.00    +0.052    34.974
ATOM     15  C   UNL d   1      15.610   0.834   2.027 -0.08 -0.00    +0.066    34.974
ATOM     16  C   UNL d   1      14.756   1.783   1.464 -0.20 -0.00    -0.021    34.974
ATOM     17  C   UNL d   1      15.169   1.949   0.142 -0.19 -0.00    +0.000    34.974
ATOM     18  C   UNL d   1      16.259   1.080  -0.003 -0.15 -0.00    +0.070    34.974
ATOM     19  C   UNL d   1      13.602   2.398   2.214 -0.13 +0.00    +0.052    34.974
ATOM     20  C   UNL d   1      18.092   0.069  -1.422 -0.13 -0.01    +0.066    34.974
ATOM     21  C   UNL d   1      18.830  -0.019  -2.600 -0.17 +0.00    -0.025    34.974
ATOM     22  C   UNL d   1      19.819  -0.949  -2.371 -0.16 +0.00    -0.021    34.974
ATOM     23  C   UNL d   1      19.636  -1.409  -1.064 -0.11 -0.00    +0.066    34.974
ATOM     24  C   UNL d   1      18.600   0.743  -3.879 -0.18 -0.01    +0.051    34.974
ATOM     25  N   UNL d   1      19.245  -2.547   1.663 -0.08 +0.01    -0.248    34.974
ATOM     26  N   UNL d   1      17.140  -1.352   3.280 -0.13 +0.02    -0.248    34.974
ATOM     27  N   UNL d   1      16.464   0.357   1.127 -0.07 +0.01    -0.248    34.974
ATOM     28  N   UNL d   1      18.558  -0.820  -0.506 -0.06 +0.02    -0.248    34.974
ATOM     29 FE   UNL d   1      17.852  -1.082   1.373 -0.04 -0.00    +0.000    34.974
ATOM     30  O   UNL d   1      17.254  -2.519   1.416 -0.41 -0.00    +0.000    34.974
ATOM     31  O   UNL d   1      16.699  -1.473   0.377 -0.35 -0.00    +0.000    34.974
ATOM     32  C   UNL d   1      22.013  -4.838   0.708 -0.19 +0.01    +0.052    34.974
ATOM     33  C   UNL d   1      21.446  -6.027  -0.063 -0.25 +0.01    +0.115    34.974
ATOM     34  C   UNL d   1      20.441  -5.608  -1.107 -0.40 -0.01    +0.139    34.974
ATOM     35  O   UNL d   1      19.282  -5.981  -1.013 -0.19 +0.15    -0.650    34.974
ATOM     36  O   UNL d   1      20.799  -4.851  -2.165 -0.00 -0.05    -0.776    34.974
ATOM     37  H   UNL d   1      21.452  -4.146  -2.090 +0.05 +0.01    +0.167    34.974
ATOM     38  C   UNL d   1      20.839  -1.412  -3.379 +0.02 +0.00    +0.052    34.974
ATOM     39  C   UNL d   1      22.244  -0.906  -3.060 -0.07 +0.01    +0.115    34.974
ATOM     40  C   UNL d   1      23.099  -1.958  -2.400 -0.05 +0.01    +0.139    34.974
ATOM     41  O   UNL d   1      23.667  -1.705  -1.350 +0.01 -0.03    -0.650    34.974
ATOM     42  O   UNL d   1      23.208  -3.195  -2.922 +0.02 -0.06    -0.776    34.974
ATOM     43  H   UNL d   1      22.434  -3.753  -3.064 +0.03 +0.02    +0.167    34.974
ATOM     44  C   UNL d   1      15.275  -0.552   6.473 -0.09 +0.00    +0.004    34.974
ATOM     45  C   UNL d   1      14.631   0.609   6.592 -0.26 +0.00    +0.012    34.974
ATOM     46  C   UNL d   1      14.602   2.789  -0.971 -0.18 +0.00    +0.004    34.974
ATOM     47  C   UNL d   1      13.316   3.049  -1.241 -0.26 +0.00    +0.012    34.974
TER
ENDMDL
MODEL       98
USER    Run = 98
USER    Cluster Rank = 53
USER    Number of conformations in this cluster = 1
USER  
USER    RMSD from reference structure       = 17.769 A
USER  
USER    Estimated Free Energy of Binding    =   -3.91 kcal/mol  [=(1)+(2)+(3)-(4)]
USER    Estimated Inhibition Constant, Ki   =    1.37 mM (millimolar)  [Temperature = 298.15 K]
USER    
USER    (1) Final Intermolecular Energy     =   -6.89 kcal/mol
USER        vdW + Hbond + desolv Energy     =   -6.51 kcal/mol
USER        Electrostatic Energy            =   -0.38 kcal/mol
USER    (2) Final Total Internal Energy     =   -2.39 kcal/mol
USER    (3) Torsional Free Energy           =   +2.98 kcal/mol
USER    (4) Unbound System's Energy  [=(2)] =   -2.39 kcal/mol
USER    
USER    
USER  
USER    DPF = D:/Protein_go_brrr/autodock/final/mut_D99N/heme_O2/dock.dpf
USER    NEWDPF move	heme_O2_opt.pdbqt
USER    NEWDPF about	8.287000 34.468000 -0.670000
USER    NEWDPF tran0	7.173205 15.047506 4.152523
USER    NEWDPF axisangle0	-0.456228 -0.617370 -0.640867 -126.021496
USER    NEWDPF quaternion0	-0.406541 -0.550134 -0.571071 -0.453823
USER    NEWDPF dihe0	97.01 179.09 -91.32 131.40 -39.04 -101.24 39.92 -66.93 21.15 14.59 
USER  
USER                              x       y       z    vdW   Elec        q     RMS 
ATOM      1  C   UNL d   1       8.264  14.393   2.455 -0.16 +0.00    +0.064    17.769
ATOM      2  C   UNL d   1       5.198  17.960   3.118 -0.11 +0.00    +0.064    17.769
ATOM      3  C   UNL d   1       4.569  16.688   7.710 -0.06 +0.00    +0.064    17.769
ATOM      4  C   UNL d   1       8.083  13.307   7.170 -0.23 -0.01    +0.064    17.769
ATOM      5  C   UNL d   1       7.483  15.468   2.261 -0.15 +0.00    +0.066    17.769
ATOM      6  C   UNL d   1       7.358  16.135   1.039 -0.11 -0.00    -0.021    17.769
ATOM      7  C   UNL d   1       6.504  17.194   1.241 -0.10 -0.00    -0.025    17.769
ATOM      8  C   UNL d   1       6.093  17.116   2.569 -0.14 +0.00    +0.066    17.769
ATOM      9  C   UNL d   1       6.146  18.228   0.196 -0.06 +0.00    +0.051    17.769
ATOM     10  C   UNL d   1       4.712  17.914   4.498 -0.09 +0.00    +0.066    17.769
ATOM     11  C   UNL d   1       3.662  18.710   4.970 -0.16 -0.00    -0.021    17.769
ATOM     12  C   UNL d   1       3.454  18.345   6.288 -0.20 +0.00    +0.000    17.769
ATOM     13  C   UNL d   1       4.418  17.333   6.553 -0.20 +0.00    +0.070    17.769
ATOM     14  C   UNL d   1       2.874  19.755   4.190 -0.14 +0.00    +0.052    17.769
ATOM     15  C   UNL d   1       5.554  15.683   8.030 -0.20 -0.01    +0.066    17.769
ATOM     16  C   UNL d   1       5.767  15.163   9.306 -0.22 +0.00    -0.021    17.769
ATOM     17  C   UNL d   1       6.766  14.198   9.177 -0.25 -0.00    +0.000    17.769
ATOM     18  C   UNL d   1       7.090  14.199   7.813 -0.23 -0.01    +0.070    17.769
ATOM     19  C   UNL d   1       5.046  15.668  10.531 -0.17 -0.00    +0.052    17.769
ATOM     20  C   UNL d   1       8.449  13.312   5.873 -0.19 -0.01    +0.066    17.769
ATOM     21  C   UNL d   1       9.378  12.435   5.321 -0.08 +0.00    -0.025    17.769
ATOM     22  C   UNL d   1       9.422  12.711   3.973 -0.15 -0.00    -0.021    17.769
ATOM     23  C   UNL d   1       8.528  13.764   3.755 -0.19 -0.00    +0.066    17.769
ATOM     24  C   UNL d   1      10.185  11.388   6.044 -0.13 +0.00    +0.051    17.769
ATOM     25  N   UNL d   1       6.747  16.092   3.214 -0.12 +0.00    -0.248    17.769
ATOM     26  N   UNL d   1       5.182  17.080   5.461 -0.14 +0.00    -0.248    17.769
ATOM     27  N   UNL d   1       6.398  15.159   7.146 -0.15 +0.04    -0.248    17.769
ATOM     28  N   UNL d   1       7.972  14.156   4.920 -0.15 +0.03    -0.248    17.769
ATOM     29 FE   UNL d   1       6.587  15.607   5.191 -0.05 -0.00    +0.000    17.769
ATOM     30  O   UNL d   1       7.316  16.958   4.932 -0.10 -0.00    +0.000    17.769
ATOM     31  O   UNL d   1       7.845  15.987   6.055 -0.11 -0.00    +0.000    17.769
ATOM     32  C   UNL d   1       8.117  15.873  -0.236 -0.05 +0.00    +0.052    17.769
ATOM     33  C   UNL d   1       7.276  15.158  -1.289 -0.07 +0.01    +0.115    17.769
ATOM     34  C   UNL d   1       8.074  14.145  -2.072 -0.04 +0.02    +0.139    17.769
ATOM     35  O   UNL d   1       7.499  13.370  -2.819 +0.03 -0.14    -0.650    17.769
ATOM     36  O   UNL d   1       9.414  14.056  -1.946 +0.04 -0.08    -0.776    17.769
ATOM     37  H   UNL d   1       9.831  13.408  -1.366 +0.02 +0.02    +0.167    17.769
ATOM     38  C   UNL d   1      10.323  12.042   2.968 -0.12 +0.00    +0.052    17.769
ATOM     39  C   UNL d   1       9.541  11.267   1.910 -0.16 +0.01    +0.115    17.769
ATOM     40  C   UNL d   1       9.649  11.891   0.541 -0.10 +0.02    +0.139    17.769
ATOM     41  O   UNL d   1      10.730  12.291   0.142 +0.01 -0.05    -0.650    17.769
ATOM     42  O   UNL d   1       8.580  11.969  -0.274 -0.56 -0.29    -0.776    17.769
ATOM     43  H   UNL d   1       8.647  12.342  -1.161 +0.04 +0.04    +0.167    17.769
ATOM     44  C   UNL d   1       2.381  18.990   7.140 -0.18 +0.00    +0.004    17.769
ATOM     45  C   UNL d   1       1.089  18.670   7.210 -0.26 +0.00    +0.012    17.769
ATOM     46  C   UNL d   1       7.456  13.345  10.208 -0.22 -0.00    +0.004    17.769
ATOM     47  C   UNL d   1       7.562  12.011  10.244 -0.28 -0.00    +0.012    17.769
TER
ENDMDL
MODEL       97
USER    Run = 97
USER    Cluster Rank = 54
USER    Number of conformations in this cluster = 1
USER  
USER    RMSD from reference structure       = 17.695 A
USER  
USER    Estimated Free Energy of Binding    =   -3.57 kcal/mol  [=(1)+(2)+(3)-(4)]
USER    Estimated Inhibition Constant, Ki   =    2.43 mM (millimolar)  [Temperature = 298.15 K]
USER    
USER    (1) Final Intermolecular Energy     =   -6.55 kcal/mol
USER        vdW + Hbond + desolv Energy     =   -6.51 kcal/mol
USER        Electrostatic Energy            =   -0.04 kcal/mol
USER    (2) Final Total Internal Energy     =   -2.43 kcal/mol
USER    (3) Torsional Free Energy           =   +2.98 kcal/mol
USER    (4) Unbound System's Energy  [=(2)] =   -2.43 kcal/mol
USER    
USER    
USER  
USER    DPF = D:/Protein_go_brrr/autodock/final/mut_D99N/heme_O2/dock.dpf
USER    NEWDPF move	heme_O2_opt.pdbqt
USER    NEWDPF about	8.287000 34.468000 -0.670000
USER    NEWDPF tran0	0.622580 18.070352 8.553659
USER    NEWDPF axisangle0	-0.060877 0.884820 0.461940 104.096088
USER    NEWDPF quaternion0	-0.048003 0.697704 0.364252 0.615000
USER    NEWDPF dihe0	127.90 -34.27 12.16 132.07 -117.59 -59.86 -112.29 -161.80 176.21 157.42 
USER  
USER                              x       y       z    vdW   Elec        q     RMS 
ATOM      1  C   UNL d   1       2.013  19.114   7.338 -0.14 +0.00    +0.064    17.695
ATOM      2  C   UNL d   1      -2.617  18.183   6.839 -0.07 +0.01    +0.064    17.695
ATOM      3  C   UNL d   1      -2.671  15.756  10.987 -0.24 -0.01    +0.064    17.695
ATOM      4  C   UNL d   1       1.982  17.113  11.747 -0.09 -0.00    +0.064    17.695
ATOM      5  C   UNL d   1       0.758  19.060   6.865 -0.20 +0.01    +0.066    17.695
ATOM      6  C   UNL d   1       0.353  19.629   5.654 -0.18 -0.00    -0.021    17.695
ATOM      7  C   UNL d   1      -0.997  19.398   5.529 -0.19 -0.00    -0.025    17.695
ATOM      8  C   UNL d   1      -1.370  18.652   6.644 -0.22 +0.01    +0.066    17.695
ATOM      9  C   UNL d   1      -1.862  19.908   4.398 -0.14 +0.01    +0.051    17.695
ATOM     10  C   UNL d   1      -3.062  17.376   7.977 -0.23 +0.00    +0.066    17.695
ATOM     11  C   UNL d   1      -4.326  16.778   8.049 -0.33 -0.00    -0.021    17.695
ATOM     12  C   UNL d   1      -4.354  16.059   9.229 -0.36 -0.00    +0.000    17.695
ATOM     13  C   UNL d   1      -3.082  16.274   9.830 -0.27 -0.01    +0.070    17.695
ATOM     14  C   UNL d   1      -5.448  16.867   7.021 -0.36 +0.01    +0.052    17.695
ATOM     15  C   UNL d   1      -1.406  15.977  11.646 -0.22 -0.01    +0.066    17.695
ATOM     16  C   UNL d   1      -1.098  15.539  12.933 -0.24 +0.00    -0.021    17.695
ATOM     17  C   UNL d   1       0.224  15.915  13.172 -0.19 -0.00    +0.000    17.695
ATOM     18  C   UNL d   1       0.629  16.562  11.996 -0.12 -0.00    +0.070    17.695
ATOM     19  C   UNL d   1      -2.099  14.857  13.831 -0.31 -0.02    +0.052    17.695
ATOM     20  C   UNL d   1       2.390  17.777  10.648 -0.06 +0.00    +0.066    17.695
ATOM     21  C   UNL d   1       3.684  18.258  10.463 -0.07 +0.00    -0.025    17.695
ATOM     22  C   UNL d   1       3.718  18.807   9.201 -0.08 -0.00    -0.021    17.695
ATOM     23  C   UNL d   1       2.435  18.656   8.668 -0.10 +0.00    +0.066    17.695
ATOM     24  C   UNL d   1       4.827  18.200  11.443 -0.03 -0.00    +0.051    17.695
ATOM     25  N   UNL d   1      -0.302  18.500   7.499 -0.18 -0.02    -0.248    17.695
ATOM     26  N   UNL d   1      -2.305  17.080   9.063 -0.19 +0.01    -0.248    17.695
ATOM     27  N   UNL d   1      -0.396  16.656  11.110 -0.10 +0.01    -0.248    17.695
ATOM     28  N   UNL d   1       1.619  18.070   9.568 -0.04 -0.01    -0.248    17.695
ATOM     29 FE   UNL d   1      -0.329  17.578   9.320 -0.05 +0.00    +0.000    17.695
ATOM     30  O   UNL d   1      -1.115  18.920   9.284 -0.12 +0.00    +0.000    17.695
ATOM     31  O   UNL d   1      -0.242  18.560  10.545 -0.10 -0.00    +0.000    17.695
ATOM     32  C   UNL d   1       1.169  20.477   4.714 -0.11 +0.00    +0.052    17.695
ATOM     33  C   UNL d   1       0.894  21.969   4.872 -0.02 +0.00    +0.115    17.695
ATOM     34  C   UNL d   1       1.327  22.495   6.218 -0.01 +0.00    +0.139    17.695
ATOM     35  O   UNL d   1       2.452  22.948   6.356 +0.00 -0.01    -0.650    17.695
ATOM     36  O   UNL d   1       0.506  22.450   7.288 +0.01 -0.02    -0.776    17.695
ATOM     37  H   UNL d   1       0.783  22.069   8.129 +0.01 +0.00    +0.167    17.695
ATOM     38  C   UNL d   1       4.904  19.494   8.575 -0.04 -0.00    +0.052    17.695
ATOM     39  C   UNL d   1       4.794  21.016   8.636 -0.01 -0.00    +0.115    17.695
ATOM     40  C   UNL d   1       3.770  21.480   9.642 -0.01 -0.00    +0.139    17.695
ATOM     41  O   UNL d   1       4.084  21.597  10.816 +0.00 +0.01    -0.650    17.695
ATOM     42  O   UNL d   1       2.524  21.818   9.260 +0.01 -0.00    -0.776    17.695
ATOM     43  H   UNL d   1       2.349  22.206   8.394 +0.00 +0.00    +0.167    17.695
ATOM     44  C   UNL d   1      -5.568  15.261   9.655 -0.40 -0.00    +0.004    17.695
ATOM     45  C   UNL d   1      -5.778  14.648  10.820 -0.35 -0.00    +0.012    17.695
ATOM     46  C   UNL d   1       1.086  15.772  14.398 -0.18 -0.00    +0.004    17.695
ATOM     47  C   UNL d   1       2.291  15.197  14.500 -0.20 -0.00    +0.012    17.695
TER
ENDMDL
MODEL       23
USER    Run = 23
USER    Cluster Rank = 55
USER    Number of conformations in this cluster = 1
USER  
USER    RMSD from reference structure       = 41.829 A
USER  
USER    Estimated Free Energy of Binding    =   -3.40 kcal/mol  [=(1)+(2)+(3)-(4)]
USER    Estimated Inhibition Constant, Ki   =    3.22 mM (millimolar)  [Temperature = 298.15 K]
USER    
USER    (1) Final Intermolecular Energy     =   -6.38 kcal/mol
USER        vdW + Hbond + desolv Energy     =   -4.81 kcal/mol
USER        Electrostatic Energy            =   -1.57 kcal/mol
USER    (2) Final Total Internal Energy     =   -2.51 kcal/mol
USER    (3) Torsional Free Energy           =   +2.98 kcal/mol
USER    (4) Unbound System's Energy  [=(2)] =   -2.51 kcal/mol
USER    
USER    
USER  
USER    DPF = D:/Protein_go_brrr/autodock/final/mut_D99N/heme_O2/dock.dpf
USER    NEWDPF move	heme_O2_opt.pdbqt
USER    NEWDPF about	8.287000 34.468000 -0.670000
USER    NEWDPF tran0	24.768710 -7.091232 1.784184
USER    NEWDPF axisangle0	-0.592999 -0.795529 -0.124443 -144.891847
USER    NEWDPF quaternion0	-0.565384 -0.758483 -0.118648 -0.301606
USER    NEWDPF dihe0	-110.65 -157.26 -113.31 -104.52 69.48 138.72 75.23 -103.11 26.73 -6.29 
USER  
USER                              x       y       z    vdW   Elec        q     RMS 
ATOM      1  C   UNL d   1      25.921  -8.778   1.213 -0.10 +0.04    +0.064    41.829
ATOM      2  C   UNL d   1      21.978  -6.830  -0.581 -0.24 +0.01    +0.064    41.829
ATOM      3  C   UNL d   1      21.971  -3.462   2.848 -0.08 +0.01    +0.064    41.829
ATOM      4  C   UNL d   1      26.293  -5.170   4.420 -0.05 +0.03    +0.064    41.829
ATOM      5  C   UNL d   1      24.850  -8.522   0.444 -0.12 +0.03    +0.066    41.829
ATOM      6  C   UNL d   1      24.477  -9.293  -0.660 -0.10 -0.00    -0.021    41.829
ATOM      7  C   UNL d   1      23.360  -8.705  -1.206 -0.15 -0.00    -0.025    41.829
ATOM      8  C   UNL d   1      23.054  -7.618  -0.392 -0.18 +0.01    +0.066    41.829
ATOM      9  C   UNL d   1      22.664  -9.172  -2.466 -0.16 +0.00    +0.051    41.829
ATOM     10  C   UNL d   1      21.593  -5.690   0.252 -0.22 +0.01    +0.066    41.829
ATOM     11  C   UNL d   1      20.380  -5.007   0.109 -0.33 +0.00    -0.021    41.829
ATOM     12  C   UNL d   1      20.352  -4.044   1.101 -0.24 -0.00    +0.000    41.829
ATOM     13  C   UNL d   1      21.582  -4.189   1.800 -0.15 +0.01    +0.070    41.829
ATOM     14  C   UNL d   1      19.283  -5.280  -0.913 -0.42 -0.01    +0.052    41.829
ATOM     15  C   UNL d   1      23.222  -3.555   3.561 -0.05 +0.01    +0.066    41.829
ATOM     16  C   UNL d   1      23.640  -2.658   4.544 -0.02 -0.00    -0.021    41.829
ATOM     17  C   UNL d   1      24.871  -3.124   5.006 -0.02 +0.00    +0.000    41.829
ATOM     18  C   UNL d   1      25.114  -4.287   4.262 -0.04 +0.02    +0.070    41.829
ATOM     19  C   UNL d   1      22.862  -1.419   4.911 -0.01 +0.00    +0.052    41.829
ATOM     20  C   UNL d   1      26.579  -6.269   3.694 -0.07 +0.04    +0.066    41.829
ATOM     21  C   UNL d   1      27.697  -7.071   3.900 -0.06 -0.01    -0.025    41.829
ATOM     22  C   UNL d   1      27.593  -8.119   3.013 -0.07 -0.01    -0.021    41.829
ATOM     23  C   UNL d   1      26.420  -7.907   2.283 -0.08 +0.05    +0.066    41.829
ATOM     24  C   UNL d   1      28.810  -6.848   4.891 -0.02 +0.02    +0.051    41.829
ATOM     25  N   UNL d   1      24.010  -7.467   0.586 -0.11 -0.09    -0.248    41.829
ATOM     26  N   UNL d   1      22.333  -5.189   1.275 -0.12 -0.05    -0.248    41.829
ATOM     27  N   UNL d   1      24.140  -4.491   3.339 -0.05 -0.07    -0.248    41.829
ATOM     28  N   UNL d   1      25.830  -6.757   2.669 -0.07 -0.16    -0.248    41.829
ATOM     29 FE   UNL d   1      24.095  -5.976   1.979 -0.03 +0.00    +0.000    41.829
ATOM     30  O   UNL d   1      24.381  -5.496   0.526 -0.08 +0.00    +0.000    41.829
ATOM     31  O   UNL d   1      25.225  -4.913   1.722 -0.06 +0.00    +0.000    41.829
ATOM     32  C   UNL d   1      25.216 -10.459  -1.265 -0.04 +0.01    +0.052    41.829
ATOM     33  C   UNL d   1      24.500 -11.789  -1.052 -0.03 +0.02    +0.115    41.829
ATOM     34  C   UNL d   1      25.190 -12.656  -0.028 -0.02 +0.03    +0.139    41.829
ATOM     35  O   UNL d   1      26.157 -13.326  -0.357 +0.01 -0.10    -0.650    41.829
ATOM     36  O   UNL d   1      24.746 -12.732   1.243 +0.02 -0.26    -0.776    41.829
ATOM     37  H   UNL d   1      25.240 -12.355   1.981 +0.01 +0.09    +0.167    41.829
ATOM     38  C   UNL d   1      28.602  -9.225   2.838 -0.04 +0.02    +0.052    41.829
ATOM     39  C   UNL d   1      28.246 -10.471   3.646 -0.05 +0.08    +0.115    41.829
ATOM     40  C   UNL d   1      27.124 -11.262   3.020 -0.04 +0.12    +0.139    41.829
ATOM     41  O   UNL d   1      25.973 -10.871   3.127 -0.55 -1.17    -0.650    41.829
ATOM     42  O   UNL d   1      27.374 -12.371   2.297 +0.01 -0.32    -0.776    41.829
ATOM     43  H   UNL d   1      26.765 -12.676   1.613 +0.01 +0.06    +0.167    41.829
ATOM     44  C   UNL d   1      19.179  -3.101   1.272 -0.26 -0.00    +0.004    41.829
ATOM     45  C   UNL d   1      17.916  -3.410   1.565 -0.37 -0.00    +0.012    41.829
ATOM     46  C   UNL d   1      25.829  -2.550   6.015 -0.01 +0.00    +0.004    41.829
ATOM     47  C   UNL d   1      27.046  -2.033   5.802 -0.00 +0.00    +0.012    41.829
TER
ENDMDL
MODEL       70
USER    Run = 70
USER    Cluster Rank = 56
USER    Number of conformations in this cluster = 1
USER  
USER    RMSD from reference structure       = 17.603 A
USER  
USER    Estimated Free Energy of Binding    =   -3.40 kcal/mol  [=(1)+(2)+(3)-(4)]
USER    Estimated Inhibition Constant, Ki   =    3.24 mM (millimolar)  [Temperature = 298.15 K]
USER    
USER    (1) Final Intermolecular Energy     =   -6.38 kcal/mol
USER        vdW + Hbond + desolv Energy     =   -6.44 kcal/mol
USER        Electrostatic Energy            =   +0.06 kcal/mol
USER    (2) Final Total Internal Energy     =   -2.69 kcal/mol
USER    (3) Torsional Free Energy           =   +2.98 kcal/mol
USER    (4) Unbound System's Energy  [=(2)] =   -2.69 kcal/mol
USER    
USER    
USER  
USER    DPF = D:/Protein_go_brrr/autodock/final/mut_D99N/heme_O2/dock.dpf
USER    NEWDPF move	heme_O2_opt.pdbqt
USER    NEWDPF about	8.287000 34.468000 -0.670000
USER    NEWDPF tran0	6.482053 15.067387 5.700098
USER    NEWDPF axisangle0	0.511404 0.158613 0.844576 71.060928
USER    NEWDPF quaternion0	0.297195 0.092176 0.490813 0.813807
USER    NEWDPF dihe0	-117.28 -150.76 -101.66 118.67 81.53 141.83 -112.91 97.13 169.12 175.70 
USER  
USER                              x       y       z    vdW   Elec        q     RMS 
ATOM      1  C   UNL d   1       5.945  16.205   3.992 -0.23 -0.00    +0.064    17.603
ATOM      2  C   UNL d   1       4.732  16.528   8.573 +0.03 -0.00    +0.064    17.603
ATOM      3  C   UNL d   1       7.420  12.693   9.651 -0.28 -0.01    +0.064    17.603
ATOM      4  C   UNL d   1       9.053  12.640   5.025 -0.06 -0.00    +0.064    17.603
ATOM      5  C   UNL d   1       5.397  16.607   5.150 -0.23 -0.00    +0.066    17.603
ATOM      6  C   UNL d   1       4.519  17.688   5.267 -0.18 -0.00    -0.021    17.603
ATOM      7  C   UNL d   1       4.201  17.810   6.600 -0.19 -0.00    -0.025    17.603
ATOM      8  C   UNL d   1       4.856  16.769   7.253 -0.15 -0.00    +0.066    17.603
ATOM      9  C   UNL d   1       3.333  18.901   7.187 -0.15 +0.00    +0.051    17.603
ATOM     10  C   UNL d   1       5.374  15.439   9.310 -0.20 -0.01    +0.066    17.603
ATOM     11  C   UNL d   1       5.083  15.136  10.644 -0.19 +0.00    -0.021    17.603
ATOM     12  C   UNL d   1       5.835  14.022  10.968 -0.21 -0.00    +0.000    17.603
ATOM     13  C   UNL d   1       6.568  13.709   9.790 -0.21 -0.01    +0.070    17.603
ATOM     14  C   UNL d   1       4.108  15.862  11.564 -0.14 -0.00    +0.052    17.603
ATOM     15  C   UNL d   1       8.207  12.363   8.487 -0.25 -0.00    +0.066    17.603
ATOM     16  C   UNL d   1       9.202  11.387   8.457 -0.19 -0.00    -0.021    17.603
ATOM     17  C   UNL d   1       9.683  11.354   7.148 -0.16 +0.00    +0.000    17.603
ATOM     18  C   UNL d   1       8.934  12.325   6.468 -0.07 -0.00    +0.070    17.603
ATOM     19  C   UNL d   1       9.639  10.619   9.679 -0.14 +0.00    +0.052    17.603
ATOM     20  C   UNL d   1       8.381  13.593   4.351 -0.20 -0.00    +0.066    17.603
ATOM     21  C   UNL d   1       8.523  13.832   2.987 -0.19 -0.00    -0.025    17.603
ATOM     22  C   UNL d   1       7.625  14.826   2.670 -0.21 -0.00    -0.021    17.603
ATOM     23  C   UNL d   1       6.979  15.171   3.861 -0.24 -0.00    +0.066    17.603
ATOM     24  C   UNL d   1       9.470  13.148   2.035 -0.14 +0.00    +0.051    17.603
ATOM     25  N   UNL d   1       5.644  16.068   6.370 -0.18 +0.02    -0.248    17.603
ATOM     26  N   UNL d   1       6.285  14.579   8.788 -0.18 +0.04    -0.248    17.603
ATOM     27  N   UNL d   1       8.096  12.978   7.313 -0.18 +0.02    -0.248    17.603
ATOM     28  N   UNL d   1       7.474  14.451   4.888 -0.15 +0.04    -0.248    17.603
ATOM     29 FE   UNL d   1       6.886  14.512   6.824 -0.06 -0.00    +0.000    17.603
ATOM     30  O   UNL d   1       7.367  15.884   7.382 -0.13 -0.00    +0.000    17.603
ATOM     31  O   UNL d   1       8.416  14.872   6.784 -0.13 -0.00    +0.000    17.603
ATOM     32  C   UNL d   1       4.101  18.658   4.193 -0.15 +0.00    +0.052    17.603
ATOM     33  C   UNL d   1       4.733  20.037   4.361 -0.05 +0.00    +0.115    17.603
ATOM     34  C   UNL d   1       6.233  20.006   4.201 -0.02 +0.00    +0.139    17.603
ATOM     35  O   UNL d   1       6.919  19.461   5.051 +0.01 -0.00    -0.650    17.603
ATOM     36  O   UNL d   1       6.840  20.593   3.150 +0.01 -0.01    -0.776    17.603
ATOM     37  H   UNL d   1       7.348  20.087   2.505 +0.01 +0.00    +0.167    17.603
ATOM     38  C   UNL d   1       7.450  15.449   1.309 -0.16 +0.00    +0.052    17.603
ATOM     39  C   UNL d   1       8.478  16.544   1.034 -0.03 +0.00    +0.115    17.603
ATOM     40  C   UNL d   1       8.067  17.878   1.604 -0.02 +0.00    +0.139    17.603
ATOM     41  O   UNL d   1       7.176  18.518   1.068 +0.01 -0.01    -0.650    17.603
ATOM     42  O   UNL d   1       8.631  18.358   2.729 +0.01 -0.01    -0.776    17.603
ATOM     43  H   UNL d   1       8.137  18.912   3.345 +0.01 +0.00    +0.167    17.603
ATOM     44  C   UNL d   1       5.780  13.386  12.342 -0.25 -0.00    +0.004    17.603
ATOM     45  C   UNL d   1       4.803  12.645  12.862 -0.36 -0.00    +0.012    17.603
ATOM     46  C   UNL d   1      10.793  10.552   6.523 -0.12 +0.00    +0.004    17.603
ATOM     47  C   UNL d   1      10.696   9.572   5.614 -0.13 +0.00    +0.012    17.603
TER
ENDMDL


AVSFLD: # AVS field file
AVSFLD: #
AVSFLD: # Created by AutoDock
AVSFLD: #
AVSFLD: ndim=2           # number of dimensions in the field
AVSFLD: nspace=1         # number of physical coordinates
AVSFLD: veclen=7         # vector size
AVSFLD: dim1=47          # atoms
AVSFLD: dim2=56          # conformations
AVSFLD: data=Real       # data type (byte,integer,Real,double)
AVSFLD: field=uniform    # field coordinate layout
AVSFLD: label= x y z vdW Elec q RMS
AVSFLD: variable 1 file = D:/Protein_go_brrr/autodock/final/mut_D99N/heme_O2/dock.dlg.pdb filetype = ascii offset = 5 stride = 12
AVSFLD: variable 2 file = D:/Protein_go_brrr/autodock/final/mut_D99N/heme_O2/dock.dlg.pdb filetype = ascii offset = 6 stride = 12
AVSFLD: variable 3 file = D:/Protein_go_brrr/autodock/final/mut_D99N/heme_O2/dock.dlg.pdb filetype = ascii offset = 7 stride = 12
AVSFLD: variable 4 file = D:/Protein_go_brrr/autodock/final/mut_D99N/heme_O2/dock.dlg.pdb filetype = ascii offset = 8 stride = 12
AVSFLD: variable 5 file = D:/Protein_go_brrr/autodock/final/mut_D99N/heme_O2/dock.dlg.pdb filetype = ascii offset = 9 stride = 12
AVSFLD: variable 6 file = D:/Protein_go_brrr/autodock/final/mut_D99N/heme_O2/dock.dlg.pdb filetype = ascii offset = 10 stride = 12
AVSFLD: variable 7 file = D:/Protein_go_brrr/autodock/final/mut_D99N/heme_O2/dock.dlg.pdb filetype = ascii offset = 11 stride = 12
AVSFLD: # end of file

>>> Closing the docking parameter file (DPF)...
This docking finished at:			10:23 14" p.m., 10/17/2025


________________________________________________________________________________

D:/autodockScripts/autodock4.exe: Successful Completion on "ACER"

Real= 8h 59m 53.82s,  CPU= 4m 34.64s,  System= 35.42s
________________________________________________________________________________

