          AutoDock 4.2 Release 4.2.6   
         (C) 1989-2012 The Scripps Research Institute
        AutoDock comes with ABSOLUTELY NO WARRANTY.
        AutoDock is free software, and you are welcome
        to redistribute it under certain conditions;
        for details type 'autodock4 -C'

                     main.cc  $Revision: 1.213 $

                   Compiled on Jul 18 2014 at 15:34:58


This file was created at:			5:52 37" p.m., 09/26/2025
                   on host:		"ACER"
Current Working Directory = "D:\Protein_go_brrr\autodock\final\2DN3\heme_Fe"

      ________________________________________________________________

                   SETTING UP DEFAULT PARAMETER LIBRARY
      ________________________________________________________________


Random number generator was seeded with values 64208, 1758901957.
Docking parameter file (DPF) used for this docking:		D:/Protein_go_brrr/autodock/final/2DN3/heme_Fe/dock.dpf
DPF> autodock_parameter_version 4.2       # used by autodock to validate parameter set

	Autodock parameter version 4.2.
DPF> outlev 1                             # diagnostic output level

Output Level = 1  ADT-COMPATIBLE OUTPUT DURING DOCKING.
DPF> intelec                              # calculate internal electrostatics

Electrostatic energies will be calculated for all non-bonds between moving atoms.
DPF> seed pid time                        # seeds for random generator

Random number generator was seeded with values 64208, 1758901957.
DPF> ligand_types A C OA N Fe HD          # atoms types in ligand

DPF> fld opt_2DN3.maps.fld                # grid_data_file

Opening Grid Map Dimensions file:		opt_2DN3.maps.fld
Grid Point Spacing =				0.708 Angstroms

Even Number of User-specified Grid Points =	126 x-points
						126 y-points
						126 z-points

Coordinates of Central Grid Point of Maps =	(23.741, 34.005, 11.372)
Macromolecule file used to create Grid Maps =	opt_2DN3.pdbqt
Grid Parameter file used to create Grid Maps =	D:/Protein_go_brrr/autodock/final/2DN3/heme_Fe/grid.gpf
Minimum coordinates in grid = (-20.863, -10.599, -33.232)
Maximum coordinates in grid = (68.345, 78.609, 55.976)

DPF> map opt_2DN3.A.map                   # atom-specific affinity map

DPF> map opt_2DN3.C.map                   # atom-specific affinity map

DPF> map opt_2DN3.OA.map                  # atom-specific affinity map

DPF> map opt_2DN3.N.map                   # atom-specific affinity map

DPF> map opt_2DN3.Fe.map                  # atom-specific affinity map

DPF> map opt_2DN3.HD.map                  # atom-specific affinity map

DPF> elecmap opt_2DN3.e.map               # electrostatics map

DPF> desolvmap opt_2DN3.d.map             # desolvation map

DPF> move heme_Fe_opt.pdbqt               # small molecule

1,4-interactions will be _ignored_ in the non-bonded internal energy calculation.

Ligand PDBQT file = "heme_Fe_opt.pdbqt"

INPUT LIGAND PDBQT FILE:
________________________

INPUT-LIGAND-PDBQT: REMARK  10 active torsions:
INPUT-LIGAND-PDBQT: REMARK  status: ('A' for Active; 'I' for Inactive)
INPUT-LIGAND-PDBQT: REMARK    1  A    between atoms: C_6  and  C_10 
INPUT-LIGAND-PDBQT: REMARK    2  A    between atoms: C_10  and  C_11 
INPUT-LIGAND-PDBQT: REMARK    3  A    between atoms: C_11  and  C_12 
INPUT-LIGAND-PDBQT: REMARK    4  A    between atoms: C_12  and  O_14 
INPUT-LIGAND-PDBQT: REMARK    5  A    between atoms: C_17  and  C_20 
INPUT-LIGAND-PDBQT: REMARK    6  A    between atoms: C_24  and  C_27 
INPUT-LIGAND-PDBQT: REMARK    7  A    between atoms: C_31  and  C_34 
INPUT-LIGAND-PDBQT: REMARK    8  A    between atoms: C_34  and  C_35 
INPUT-LIGAND-PDBQT: REMARK    9  A    between atoms: C_35  and  C_36 
INPUT-LIGAND-PDBQT: REMARK   10  A    between atoms: C_36  and  O_38 
INPUT-LIGAND-PDBQT: ROOT
INPUT-LIGAND-PDBQT: ATOM      1  C   UNL d   1      -2.155  -0.060   0.485  0.00  0.00     0.064 C 
INPUT-LIGAND-PDBQT: ATOM      2  C   UNL d   1       1.497  -3.385   0.291  0.00  0.00     0.064 A 
INPUT-LIGAND-PDBQT: ATOM      3  C   UNL d   1       4.660   0.212  -0.062  0.00  0.00     0.064 C 
INPUT-LIGAND-PDBQT: ATOM      4  C   UNL d   1       1.133   3.443   0.018  0.00  0.00     0.064 C 
INPUT-LIGAND-PDBQT: ATOM      5  C   UNL d   1      -1.427  -1.332   0.379  0.00  0.00     0.066 A 
INPUT-LIGAND-PDBQT: ATOM      6  C   UNL d   1      -2.022  -2.582   0.331  0.00  0.00    -0.021 A 
INPUT-LIGAND-PDBQT: ATOM      7  C   UNL d   1      -1.007  -3.505   0.281  0.00  0.00    -0.025 A 
INPUT-LIGAND-PDBQT: ATOM      8  C   UNL d   1       0.170  -2.782   0.300  0.00  0.00     0.066 A 
INPUT-LIGAND-PDBQT: ATOM      9  C   UNL d   1      -1.169  -4.992   0.200  0.00  0.00     0.051 C 
INPUT-LIGAND-PDBQT: ATOM     10  C   UNL d   1       2.647  -2.710   0.251  0.00  0.00     0.066 A 
INPUT-LIGAND-PDBQT: ATOM     11  C   UNL d   1       3.903  -3.312   0.359  0.00  0.00    -0.021 A 
INPUT-LIGAND-PDBQT: ATOM     12  C   UNL d   1       4.832  -2.294   0.277  0.00  0.00     0.000 A 
INPUT-LIGAND-PDBQT: ATOM     13  C   UNL d   1       4.087  -1.111   0.130  0.00  0.00     0.070 A 
INPUT-LIGAND-PDBQT: ATOM     14  C   UNL d   1       4.202  -4.778   0.598  0.00  0.00     0.052 C 
INPUT-LIGAND-PDBQT: ATOM     15  C   UNL d   1       3.948   1.360  -0.152  0.00  0.00     0.066 A 
INPUT-LIGAND-PDBQT: ATOM     16  C   UNL d   1       4.526   2.591  -0.435  0.00  0.00    -0.021 A 
INPUT-LIGAND-PDBQT: ATOM     17  C   UNL d   1       3.511   3.525  -0.409  0.00  0.00     0.000 A 
INPUT-LIGAND-PDBQT: ATOM     18  C   UNL d   1       2.336   2.841  -0.106  0.00  0.00     0.070 A 
INPUT-LIGAND-PDBQT: ATOM     19  C   UNL d   1       5.979   2.885  -0.695  0.00  0.00     0.052 C 
INPUT-LIGAND-PDBQT: ATOM     20  C   UNL d   1      -0.134   2.748   0.275  0.00  0.00     0.066 A 
INPUT-LIGAND-PDBQT: ATOM     21  C   UNL d   1      -1.347   3.370   0.603  0.00  0.00    -0.025 A 
INPUT-LIGAND-PDBQT: ATOM     22  C   UNL d   1      -2.273   2.354   0.719  0.00  0.00    -0.021 A 
INPUT-LIGAND-PDBQT: ATOM     23  C   UNL d   1      -1.591   1.158   0.465  0.00  0.00     0.066 A 
INPUT-LIGAND-PDBQT: ATOM     24  C   UNL d   1      -1.629   4.841   0.803  0.00  0.00     0.051 C 
INPUT-LIGAND-PDBQT: ATOM     25  N   UNL d   1      -0.089  -1.460   0.350  0.00  0.00    -0.248 N 
INPUT-LIGAND-PDBQT: ATOM     26  N   UNL d   1       2.755  -1.363   0.123  0.00  0.00    -0.248 N 
INPUT-LIGAND-PDBQT: ATOM     27  N   UNL d   1       2.596   1.504   0.009  0.00  0.00    -0.248 N 
INPUT-LIGAND-PDBQT: ATOM     28  N   UNL d   1      -0.277   1.401   0.239  0.00  0.00    -0.248 N 
INPUT-LIGAND-PDBQT: ATOM     29 FE   UNL d   1       1.239   0.021   0.181  0.00  0.00     0.000 Fe
INPUT-LIGAND-PDBQT: ENDROOT
INPUT-LIGAND-PDBQT: BRANCH   6  30
INPUT-LIGAND-PDBQT: ATOM     30  C   UNL d   1      -3.481  -2.886   0.312  0.00  0.00     0.052 C 
INPUT-LIGAND-PDBQT: BRANCH  30  31
INPUT-LIGAND-PDBQT: ATOM     31  C   UNL d   1      -4.006  -2.926  -1.119  0.00  0.00     0.115 C 
INPUT-LIGAND-PDBQT: BRANCH  31  32
INPUT-LIGAND-PDBQT: ATOM     32  C   UNL d   1      -5.478  -3.232  -1.131  0.00  0.00     0.139 C 
INPUT-LIGAND-PDBQT: ATOM     33  O   UNL d   1      -6.086  -3.411  -0.085  0.00  0.00    -0.650 OA
INPUT-LIGAND-PDBQT: BRANCH  32  34
INPUT-LIGAND-PDBQT: ATOM     34  O   UNL d   1      -6.141  -3.312  -2.297  0.00  0.00    -0.776 OA
INPUT-LIGAND-PDBQT: ATOM     35  H   UNL d   1      -7.088  -3.510  -2.286  0.00  0.00     0.167 HD
INPUT-LIGAND-PDBQT: ENDBRANCH  32  34
INPUT-LIGAND-PDBQT: ENDBRANCH  31  32
INPUT-LIGAND-PDBQT: ENDBRANCH  30  31
INPUT-LIGAND-PDBQT: ENDBRANCH   6  30
INPUT-LIGAND-PDBQT: BRANCH  22  36
INPUT-LIGAND-PDBQT: ATOM     36  C   UNL d   1      -3.720   2.522   1.101  0.00  0.00     0.052 C 
INPUT-LIGAND-PDBQT: BRANCH  36  37
INPUT-LIGAND-PDBQT: ATOM     37  C   UNL d   1      -4.581   2.559  -0.153  0.00  0.00     0.115 C 
INPUT-LIGAND-PDBQT: BRANCH  37  38
INPUT-LIGAND-PDBQT: ATOM     38  C   UNL d   1      -6.035   2.706   0.196  0.00  0.00     0.139 C 
INPUT-LIGAND-PDBQT: ATOM     39  O   UNL d   1      -6.394   2.778   1.362  0.00  0.00    -0.650 OA
INPUT-LIGAND-PDBQT: BRANCH  38  40
INPUT-LIGAND-PDBQT: ATOM     40  O   UNL d   1      -6.958   2.756  -0.781  0.00  0.00    -0.776 OA
INPUT-LIGAND-PDBQT: ATOM     41  H   UNL d   1      -7.891   2.847  -0.542  0.00  0.00     0.167 HD
INPUT-LIGAND-PDBQT: ENDBRANCH  38  40
INPUT-LIGAND-PDBQT: ENDBRANCH  37  38
INPUT-LIGAND-PDBQT: ENDBRANCH  36  37
INPUT-LIGAND-PDBQT: ENDBRANCH  22  36
INPUT-LIGAND-PDBQT: BRANCH  12  42
INPUT-LIGAND-PDBQT: ATOM     42  C   UNL d   1       6.314  -2.479   0.357  0.00  0.00     0.004 C 
INPUT-LIGAND-PDBQT: ATOM     43  C   UNL d   1       6.931  -3.422  -0.367  0.00  0.00     0.012 C 
INPUT-LIGAND-PDBQT: ENDBRANCH  12  42
INPUT-LIGAND-PDBQT: BRANCH  17  44
INPUT-LIGAND-PDBQT: ATOM     44  C   UNL d   1       3.653   4.974  -0.677  0.00  0.00     0.004 C 
INPUT-LIGAND-PDBQT: ATOM     45  C   UNL d   1       4.222   5.409  -1.806  0.00  0.00     0.012 C 
INPUT-LIGAND-PDBQT: ENDBRANCH  17  44
INPUT-LIGAND-PDBQT: TORSDOF 10
________________________________________________________________________________

Total charge on ligand                               =	-2.002 e
REMARK  10 active torsions:
REMARK  status: ('A' for Active; 'I' for Inactive)
REMARK    1  A    between atoms: C_6  and  C_10 
REMARK    2  A    between atoms: C_10  and  C_11 
REMARK    3  A    between atoms: C_11  and  C_12 
REMARK    4  A    between atoms: C_12  and  O_14 
REMARK    5  A    between atoms: C_17  and  C_20 
REMARK    6  A    between atoms: C_24  and  C_27 
REMARK    7  A    between atoms: C_31  and  C_34 
REMARK    8  A    between atoms: C_34  and  C_35 
REMARK    9  A    between atoms: C_35  and  C_36 
REMARK   10  A    between atoms: C_36  and  O_38 


Number of Rotatable Bonds in Small Molecule =	10 torsions
Number of atoms in ligand:  45

Number of non-hydrogen atoms in ligand:  43

Number of vibrational degrees of freedom of ligand:  129


Number of torsional degrees of freedom = 10
Estimated loss of torsional free energy upon binding = +2.9830 kcal/mol


DPF> about -0.174 -0.001 -0.047            # small molecule center

Small molecule center of rotation =	(-0.174, -0.001, -0.047)

DPF> tran0 random                         # initial coordinates/A or random

Initial translation =			(6.450, 54.982, 9.985) Angstroms
DPF> quaternion0 random                   # initial orientation

Each run will begin with a new, random initial orientation.
Initial quaternion,  (x,y,z,w) =	( -0.458, -0.200, -0.405, 0.766 ),
DPF> dihe0 random                         # initial dihedrals (relative) or random

DPF> torsdof 10                            # torsional degrees of freedom

Number of torsional degrees of freedom = 10
Free energy coefficient for torsional degrees of freedom = 0.2983, the factory default value.

Estimated loss of torsional free energy upon binding = +2.9830 kcal/mol

DPF> rmstol 2.0                           # cluster_tolerance/A

Maximum RMS tolerance for conformational cluster analysis = 2.00 Angstroms
DPF> extnrg 1000.0                        # external grid energy

External grid energy (beyond grid map walls) = 1000.00

DPF> e0max 0.0 10000                      # max initial energy; max number of retries

Using user-specified maximum number of retries for simanneal initialization, 10000 retries.
If the simanneal initial energy is greater than e0max, 0.000,
then a new, random initial state will be created.

DPF> ga_pop_size 150                      # number of individuals in population

A population of 150 individuals will be used
DPF> ga_num_evals 25000000                # maximum number of energy evaluations

There will be at most 25000000 function evaluations used.
DPF> ga_num_generations 27000             # maximum number of generations

The GA will run for at most 27000 generations.
DPF> ga_elitism 1                         # number of top individuals to survive to next generation

The 1 best will be preserved each GA generation.
DPF> ga_mutation_rate 0.02                # rate of gene mutation

The mutation rate is 0.020000.
DPF> ga_crossover_rate 0.8                # rate of crossover

The crossover rate is 0.800000.
DPF> ga_window_size 10                    # 

The GA's selection window is 10 generations.
DPF> ga_cauchy_alpha 0.0                  # Alpha parameter of Cauchy distribution

The alpha parameter (for the Cauchy distribution) is being set to 0.000000.
DPF> ga_cauchy_beta 1.0                   # Beta parameter Cauchy distribution

The beta parameter (for the Cauchy distribution) is being set to 1.000000.
DPF> set_ga                               # set the above parameters for GA or LGA

DPF> sw_max_its 300                       # iterations of Solis & Wets local search

Solis & Wets algorithms will perform at most 300 iterations.
DPF> sw_max_succ 4                        # consecutive successes before changing rho

Solis & Wets algorithms expand rho every 4 in a row successes.
DPF> sw_max_fail 4                        # consecutive failures before changing rho

Solis & Wets algorithms contract rho every 4 in a row failures.
DPF> sw_rho 1.0                           # size of local search space to sample

rho is set to 1.000000.
DPF> sw_lb_rho 0.01                       # lower bound on rho

rho will never get smaller than 0.010000.
DPF> ls_search_freq 0.06                  # probability of performing local search on individual

Local search will be performed with frequency 0.060000.
DPF> set_psw1                             # set the above pseudo-Solis & Wets parameters

Creating a new Local Search object using the pseudo-Solis-Wets algorithm (pSW1) with the current settings.

DPF> unbound_model bound                  # state of unbound ligand

DPF> ga_run 100                           # do this many hybrid GA-LS runs

centering ligand on specified point: -0.174 -0.001 -0.047
Furthest true ligand atom from "about" center is 8.241 Angstroms (maxrad).
Number of requested GA dockings = 100 runs
Unbound model to be used is 'same as bound' [AutoDock 4.2 default].

	BEGINNING GENETIC ALGORITHM DOCKING 1 of 100
Run: 1 Seed: 880381366 630943166 [ Run 1 of 100 GA/GALS ]
Beginning LAMARCKIAN GENETIC ALGORITHM (LGA), with a maximum of 25000000 energy evaluations.

Final-Value: -16.643


	FINAL GENETIC ALGORITHM DOCKED STATE
	_______________________________________________


Detailed state:  trans 41.544 28.728 16.935 quatxyzw 0.139806 0.934267 0.071630 -0.320108 center -0.174 -0.001 -0.047 ntor 10 44.7614 -103.5289 40.8211 -107.9843 -36.4732 153.6407 10.8796 -41.9789 176.8619 -57.0160
State:	 41.544  28.728  16.935   0.148  0.986  0.076 -142.661     44.76 -103.53   40.82 -107.98  -36.47  153.64   10.88  -41.98  176.86  -57.02

DOCKED: MODEL        1
DOCKED: USER    Run = 1
DOCKED: USER    DPF = D:/Protein_go_brrr/autodock/final/2DN3/heme_Fe/dock.dpf
DOCKED: USER  
DOCKED: USER    Estimated Free Energy of Binding    =  -13.49 kcal/mol  [=(1)+(2)+(3)-(4)]
DOCKED: USER    Estimated Inhibition Constant, Ki   =  129.18 pM (picomolar)  [Temperature = 298.15 K]
DOCKED: USER    
DOCKED: USER    (1) Final Intermolecular Energy     =  -16.47 kcal/mol
DOCKED: USER        vdW + Hbond + desolv Energy     =  -13.29 kcal/mol
DOCKED: USER        Electrostatic Energy            =   -3.18 kcal/mol
DOCKED: USER    (2) Final Total Internal Energy     =   -0.17 kcal/mol
DOCKED: USER    (3) Torsional Free Energy           =   +2.98 kcal/mol
DOCKED: USER    (4) Unbound System's Energy  [=(2)] =   -0.17 kcal/mol
DOCKED: USER    
DOCKED: USER    
DOCKED: USER    NEWDPF move heme_Fe_opt.pdbqt
DOCKED: USER    NEWDPF about -0.174000 -0.001000 -0.047000
DOCKED: USER    NEWDPF tran0 41.544430 28.728009 16.935337
DOCKED: USER    NEWDPF quaternion0 0.139806 0.934267 0.071630 -0.320108
DOCKED: USER    NEWDPF axisangle0 0.147571 0.986157 0.075609 -142.661064
DOCKED: USER    NEWDPF quat0 0.147571 0.986157 0.075609 -142.661064
DOCKED: USER    NEWDPF dihe0 44.76 -103.53 40.82 -107.98 -36.47 153.64 10.88 -41.98 176.86 -57.02 
DOCKED: USER  keepresnum = 1 
DOCKED: USER  
DOCKED: REMARK  10 active torsions:
DOCKED: REMARK  status: ('A' for Active; 'I' for Inactive)
DOCKED: REMARK    1  A    between atoms: C_6  and  C_10 
DOCKED: REMARK    2  A    between atoms: C_10  and  C_11 
DOCKED: REMARK    3  A    between atoms: C_11  and  C_12 
DOCKED: REMARK    4  A    between atoms: C_12  and  O_14 
DOCKED: REMARK    5  A    between atoms: C_17  and  C_20 
DOCKED: REMARK    6  A    between atoms: C_24  and  C_27 
DOCKED: REMARK    7  A    between atoms: C_31  and  C_34 
DOCKED: REMARK    8  A    between atoms: C_34  and  C_35 
DOCKED: REMARK    9  A    between atoms: C_35  and  C_36 
DOCKED: REMARK   10  A    between atoms: C_36  and  O_38 
DOCKED: USER                              x       y       z     vdW  Elec       q    Type
DOCKED: USER                           _______ _______ _______ _____ _____    ______ ____
DOCKED: ROOT
DOCKED: ATOM      1  C   UNL d   1      43.358  28.087  17.650 -0.22 +0.02    +0.064 C 
DOCKED: ATOM      2  C   UNL d   1      39.761  26.039  14.948 -0.38 +0.01    +0.064 A 
DOCKED: ATOM      3  C   UNL d   1      37.927  30.414  14.200 -0.40 +0.01    +0.064 C 
DOCKED: ATOM      4  C   UNL d   1      41.338  32.406  16.898 -0.48 +0.01    +0.064 C 
DOCKED: ATOM      5  C   UNL d   1      42.468  27.097  17.028 -0.32 +0.02    +0.066 A 
DOCKED: ATOM      6  C   UNL d   1      42.619  25.724  17.131 -0.34 -0.01    -0.021 A 
DOCKED: ATOM      7  C   UNL d   1      41.622  25.156  16.377 -0.39 -0.01    -0.025 A 
DOCKED: ATOM      8  C   UNL d   1      40.900  26.205  15.843 -0.36 +0.02    +0.066 A 
DOCKED: ATOM      9  C   UNL d   1      41.374  23.689  16.202 -0.52 +0.01    +0.051 C 
DOCKED: ATOM     10  C   UNL d   1      39.013  27.032  14.466 -0.36 +0.01    +0.066 A 
DOCKED: ATOM     11  C   UNL d   1      38.000  26.850  13.520 -0.44 -0.00    -0.021 A 
DOCKED: ATOM     12  C   UNL d   1      37.466  28.100  13.275 -0.46 +0.00    +0.000 A 
DOCKED: ATOM     13  C   UNL d   1      38.194  28.989  14.085 -0.30 +0.01    +0.070 A 
DOCKED: ATOM     14  C   UNL d   1      37.606  25.559  12.832 -0.48 +0.01    +0.052 C 
DOCKED: ATOM     15  C   UNL d   1      38.657  31.283  14.939 -0.35 +0.01    +0.066 A 
DOCKED: ATOM     16  C   UNL d   1      38.310  32.618  15.102 -0.38 -0.00    -0.021 A 
DOCKED: ATOM     17  C   UNL d   1      39.294  33.196  15.877 -0.43 +0.00    +0.000 A 
DOCKED: ATOM     18  C   UNL d   1      40.223  32.198  16.165 -0.38 +0.01    +0.070 A 
DOCKED: ATOM     19  C   UNL d   1      37.114  33.332  14.531 -0.38 +0.00    +0.052 C 
DOCKED: ATOM     20  C   UNL d   1      42.305  31.368  17.273 -0.36 +0.02    +0.066 A 
DOCKED: ATOM     21  C   UNL d   1      43.559  31.601  17.856 -0.29 -0.01    -0.025 A 
DOCKED: ATOM     22  C   UNL d   1      44.112  30.356  18.074 -0.30 -0.01    -0.021 A 
DOCKED: ATOM     23  C   UNL d   1      43.182  29.417  17.612 -0.25 +0.02    +0.066 A 
DOCKED: ATOM     24  C   UNL d   1      44.213  32.922  18.191 -0.13 +0.01    +0.051 C 
DOCKED: ATOM     25  N   UNL d   1      41.411  27.385  16.249 -0.26 -0.08    -0.248 N 
DOCKED: ATOM     26  N   UNL d   1      39.142  28.340  14.804 -0.09 -0.08    -0.248 N 
DOCKED: ATOM     27  N   UNL d   1      39.809  31.012  15.626 -0.07 -0.07    -0.248 N 
DOCKED: ATOM     28  N   UNL d   1      42.101  30.042  17.084 -0.24 -0.08    -0.248 N 
DOCKED: ATOM     29 FE   UNL d   1      40.622  29.193  15.944 -0.08 +0.00    +0.000 Fe
DOCKED: ENDROOT
DOCKED: BRANCH   6  30
DOCKED: ATOM     30  C   UNL d   1      43.645  24.986  17.921 -0.32 +0.02    +0.052 C 
DOCKED: BRANCH  30  31
DOCKED: ATOM     31  C   UNL d   1      44.853  24.646  17.055 -0.16 +0.07    +0.115 C 
DOCKED: BRANCH  31  32
DOCKED: ATOM     32  C   UNL d   1      45.758  23.682  17.770 -0.22 +0.12    +0.139 C 
DOCKED: ATOM     33  O   UNL d   1      45.924  23.762  18.979 +0.00 -0.43    -0.650 OA
DOCKED: BRANCH  32  34
DOCKED: ATOM     34  O   UNL d   1      46.397  22.719  17.083 -0.05 -1.50    -0.776 OA
DOCKED: ATOM     35  H   UNL d   1      46.412  21.820  17.439 +0.04 +0.27    +0.167 HD
DOCKED: ENDBRANCH  32  34
DOCKED: ENDBRANCH  31  32
DOCKED: ENDBRANCH  30  31
DOCKED: ENDBRANCH   6  30
DOCKED: BRANCH  22  36
DOCKED: ATOM     36  C   UNL d   1      45.478  30.088  18.648 -0.23 +0.02    +0.052 C 
DOCKED: BRANCH  36  37
DOCKED: ATOM     37  C   UNL d   1      45.758  31.063  19.782 -0.20 +0.06    +0.115 C 
DOCKED: BRANCH  37  38
DOCKED: ATOM     38  C   UNL d   1      46.400  30.364  20.947 +0.12 +0.16    +0.139 C 
DOCKED: ATOM     39  O   UNL d   1      47.120  30.974  21.723 -0.16 -0.69    -0.650 OA
DOCKED: BRANCH  38  40
DOCKED: ATOM     40  O   UNL d   1      46.186  29.050  21.142 -0.27 -1.36    -0.776 OA
DOCKED: ATOM     41  H   UNL d   1      46.647  28.411  20.582 +0.03 +0.18    +0.167 HD
DOCKED: ENDBRANCH  38  40
DOCKED: ENDBRANCH  37  38
DOCKED: ENDBRANCH  36  37
DOCKED: ENDBRANCH  22  36
DOCKED: BRANCH  12  42
DOCKED: ATOM     42  C   UNL d   1      36.356  28.383  12.314 -0.67 +0.00    +0.004 C 
DOCKED: ATOM     43  C   UNL d   1      35.076  28.325  12.704 -0.66 +0.00    +0.012 C 
DOCKED: ENDBRANCH  12  42
DOCKED: BRANCH  17  44
DOCKED: ATOM     44  C   UNL d   1      39.333  34.605  16.329 -0.55 +0.00    +0.004 C 
DOCKED: ATOM     45  C   UNL d   1      39.240  35.608  15.450 -0.56 +0.00    +0.012 C 
DOCKED: ENDBRANCH  17  44
DOCKED: TORSDOF 10
DOCKED: TER
DOCKED: ENDMDL
________________________________________________________________________________


	BEGINNING GENETIC ALGORITHM DOCKING 2 of 100
Run: 2 Seed: 657506539 1578704346 [ Run 2 of 100 GA/GALS ]
Beginning LAMARCKIAN GENETIC ALGORITHM (LGA), with a maximum of 25000000 energy evaluations.

Final-Value: -17.345


	FINAL GENETIC ALGORITHM DOCKED STATE
	_______________________________________________


Detailed state:  trans 41.612 28.746 16.134 quatxyzw 0.224260 0.090836 -0.950544 0.194736 center -0.174 -0.001 -0.047 ntor 10 -83.4209 106.7158 65.2760 -147.2021 60.6819 -26.0368 -33.3748 24.0491 175.2651 160.4223
State:	 41.612  28.746  16.134   0.229  0.093 -0.969 157.541    -83.42  106.72   65.28 -147.20   60.68  -26.04  -33.37   24.05  175.27  160.42

DOCKED: MODEL        2
DOCKED: USER    Run = 2
DOCKED: USER    DPF = D:/Protein_go_brrr/autodock/final/2DN3/heme_Fe/dock.dpf
DOCKED: USER  
DOCKED: USER    Estimated Free Energy of Binding    =  -12.80 kcal/mol  [=(1)+(2)+(3)-(4)]
DOCKED: USER    Estimated Inhibition Constant, Ki   =  416.01 pM (picomolar)  [Temperature = 298.15 K]
DOCKED: USER    
DOCKED: USER    (1) Final Intermolecular Energy     =  -15.78 kcal/mol
DOCKED: USER        vdW + Hbond + desolv Energy     =  -13.65 kcal/mol
DOCKED: USER        Electrostatic Energy            =   -2.13 kcal/mol
DOCKED: USER    (2) Final Total Internal Energy     =   -1.56 kcal/mol
DOCKED: USER    (3) Torsional Free Energy           =   +2.98 kcal/mol
DOCKED: USER    (4) Unbound System's Energy  [=(2)] =   -1.56 kcal/mol
DOCKED: USER    
DOCKED: USER    
DOCKED: USER    NEWDPF move heme_Fe_opt.pdbqt
DOCKED: USER    NEWDPF about -0.174000 -0.001000 -0.047000
DOCKED: USER    NEWDPF tran0 41.612031 28.746302 16.133697
DOCKED: USER    NEWDPF quaternion0 0.224260 0.090836 -0.950544 0.194736
DOCKED: USER    NEWDPF axisangle0 0.228637 0.092609 -0.969097 157.541454
DOCKED: USER    NEWDPF quat0 0.228637 0.092609 -0.969097 157.541454
DOCKED: USER    NEWDPF dihe0 -83.42 106.72 65.28 -147.20 60.68 -26.04 -33.37 24.05 175.27 160.42 
DOCKED: USER  keepresnum = 1 
DOCKED: USER  
DOCKED: REMARK  10 active torsions:
DOCKED: REMARK  status: ('A' for Active; 'I' for Inactive)
DOCKED: REMARK    1  A    between atoms: C_6  and  C_10 
DOCKED: REMARK    2  A    between atoms: C_10  and  C_11 
DOCKED: REMARK    3  A    between atoms: C_11  and  C_12 
DOCKED: REMARK    4  A    between atoms: C_12  and  O_14 
DOCKED: REMARK    5  A    between atoms: C_17  and  C_20 
DOCKED: REMARK    6  A    between atoms: C_24  and  C_27 
DOCKED: REMARK    7  A    between atoms: C_31  and  C_34 
DOCKED: REMARK    8  A    between atoms: C_34  and  C_35 
DOCKED: REMARK    9  A    between atoms: C_35  and  C_36 
DOCKED: REMARK   10  A    between atoms: C_36  and  O_38 
DOCKED: USER                              x       y       z     vdW  Elec       q    Type
DOCKED: USER                           _______ _______ _______ _____ _____    ______ ____
DOCKED: ROOT
DOCKED: ATOM      1  C   UNL d   1      43.017  27.940  17.393 -0.23 +0.02    +0.064 C 
DOCKED: ATOM      2  C   UNL d   1      41.195  32.476  16.659 -0.41 +0.01    +0.064 A 
DOCKED: ATOM      3  C   UNL d   1      37.568  30.541  14.175 -0.16 +0.01    +0.064 C 
DOCKED: ATOM      4  C   UNL d   1      39.371  26.152  14.785 -0.46 +0.01    +0.064 C 
DOCKED: ATOM      5  C   UNL d   1      42.886  29.403  17.346 -0.27 +0.02    +0.066 A 
DOCKED: ATOM      6  C   UNL d   1      43.810  30.297  17.861 -0.31 -0.01    -0.021 A 
DOCKED: ATOM      7  C   UNL d   1      43.301  31.556  17.660 -0.25 -0.01    -0.025 A 
DOCKED: ATOM      8  C   UNL d   1      42.085  31.382  17.029 -0.37 +0.02    +0.066 A 
DOCKED: ATOM      9  C   UNL d   1      43.962  32.846  18.039 -0.11 +0.01    +0.051 C 
DOCKED: ATOM     10  C   UNL d   1      40.044  32.339  15.998 -0.39 +0.01    +0.066 A 
DOCKED: ATOM     11  C   UNL d   1      39.158  33.392  15.759 -0.41 -0.00    -0.021 A 
DOCKED: ATOM     12  C   UNL d   1      38.095  32.857  15.059 -0.39 +0.00    +0.000 A 
DOCKED: ATOM     13  C   UNL d   1      38.387  31.490  14.913 -0.33 +0.01    +0.070 A 
DOCKED: ATOM     14  C   UNL d   1      39.284  34.825  16.235 -0.50 +0.01    +0.052 C 
DOCKED: ATOM     15  C   UNL d   1      37.817  29.214  14.076 -0.35 +0.01    +0.066 A 
DOCKED: ATOM     16  C   UNL d   1      37.066  28.358  13.280 -0.45 -0.00    -0.021 A 
DOCKED: ATOM     17  C   UNL d   1      37.583  27.091  13.457 -0.45 +0.00    +0.000 A 
DOCKED: ATOM     18  C   UNL d   1      38.636  27.203  14.361 -0.36 +0.01    +0.070 A 
DOCKED: ATOM     19  C   UNL d   1      35.893  28.711  12.406 -0.64 +0.01    +0.052 C 
DOCKED: ATOM     20  C   UNL d   1      40.525  26.240  15.688 -0.34 +0.02    +0.066 A 
DOCKED: ATOM     21  C   UNL d   1      41.167  25.149  16.290 -0.33 -0.01    -0.025 A 
DOCKED: ATOM     22  C   UNL d   1      42.211  25.681  17.018 -0.37 -0.01    -0.021 A 
DOCKED: ATOM     23  C   UNL d   1      42.161  27.068  16.838 -0.33 +0.02    +0.066 A 
DOCKED: ATOM     24  C   UNL d   1      40.823  23.681  16.194 -0.42 +0.01    +0.051 C 
DOCKED: ATOM     25  N   UNL d   1      41.839  30.072  16.830 -0.14 -0.08    -0.248 N 
DOCKED: ATOM     26  N   UNL d   1      39.570  31.172  15.493 -0.18 -0.06    -0.248 N 
DOCKED: ATOM     27  N   UNL d   1      38.809  28.514  14.709 -0.09 -0.07    -0.248 N 
DOCKED: ATOM     28  N   UNL d   1      41.103  27.407  16.062 -0.25 -0.08    -0.248 N 
DOCKED: ATOM     29 FE   UNL d   1      40.336  29.288  15.777 -0.08 +0.00    +0.000 Fe
DOCKED: ENDROOT
DOCKED: BRANCH   6  30
DOCKED: ATOM     30  C   UNL d   1      45.120  29.975  18.494 -0.25 +0.02    +0.052 C 
DOCKED: BRANCH  30  31
DOCKED: ATOM     31  C   UNL d   1      44.987  29.914  20.011 -0.13 +0.09    +0.115 C 
DOCKED: BRANCH  31  32
DOCKED: ATOM     32  C   UNL d   1      45.923  28.884  20.581 -0.15 +0.16    +0.139 C 
DOCKED: ATOM     33  O   UNL d   1      47.131  28.985  20.424 -0.14 -0.60    -0.650 OA
DOCKED: BRANCH  32  34
DOCKED: ATOM     34  O   UNL d   1      45.436  27.838  21.270 -0.09 -1.27    -0.776 OA
DOCKED: ATOM     35  H   UNL d   1      45.301  26.996  20.812 +0.05 +0.17    +0.167 HD
DOCKED: ENDBRANCH  32  34
DOCKED: ENDBRANCH  31  32
DOCKED: ENDBRANCH  30  31
DOCKED: ENDBRANCH   6  30
DOCKED: BRANCH  22  36
DOCKED: ATOM     36  C   UNL d   1      43.171  24.901  17.878 -0.36 +0.02    +0.052 C 
DOCKED: BRANCH  36  37
DOCKED: ATOM     37  C   UNL d   1      42.793  25.060  19.343 -0.35 +0.04    +0.115 C 
DOCKED: BRANCH  37  38
DOCKED: ATOM     38  C   UNL d   1      43.975  24.803  20.235 -0.28 +0.08    +0.139 C 
DOCKED: ATOM     39  O   UNL d   1      44.890  24.081  19.867 -0.40 -0.39    -0.650 OA
DOCKED: BRANCH  38  40
DOCKED: ATOM     40  O   UNL d   1      44.031  25.368  21.454 -0.05 -0.52    -0.776 OA
DOCKED: ATOM     41  H   UNL d   1      44.218  26.314  21.525 +0.05 +0.16    +0.167 HD
DOCKED: ENDBRANCH  38  40
DOCKED: ENDBRANCH  37  38
DOCKED: ENDBRANCH  36  37
DOCKED: ENDBRANCH  22  36
DOCKED: BRANCH  12  42
DOCKED: ATOM     42  C   UNL d   1      36.899  33.627  14.598 -0.40 +0.00    +0.004 C 
DOCKED: ATOM     43  C   UNL d   1      36.666  33.824  13.294 -0.53 +0.00    +0.012 C 
DOCKED: ENDBRANCH  12  42
DOCKED: BRANCH  17  44
DOCKED: ATOM     44  C   UNL d   1      37.112  25.857  12.788 -0.58 +0.00    +0.004 C 
DOCKED: ATOM     45  C   UNL d   1      36.202  25.068  13.368 -0.68 +0.00    +0.012 C 
DOCKED: ENDBRANCH  17  44
DOCKED: TORSDOF 10
DOCKED: TER
DOCKED: ENDMDL
________________________________________________________________________________


	BEGINNING GENETIC ALGORITHM DOCKING 3 of 100
Run: 3 Seed: 1040347326 1469466181 [ Run 3 of 100 GA/GALS ]
Beginning LAMARCKIAN GENETIC ALGORITHM (LGA), with a maximum of 25000000 energy evaluations.

Final-Value: -8.764


	FINAL GENETIC ALGORITHM DOCKED STATE
	_______________________________________________


Detailed state:  trans 22.514 42.582 29.261 quatxyzw -0.791745 -0.562082 0.128025 0.202025 center -0.174 -0.001 -0.047 ntor 10 -88.0358 -149.6390 78.3266 15.2382 -157.3147 -85.6695 61.5202 -168.0596 -14.2084 -2.0321
State:	 22.514  42.582  29.261  -0.808 -0.574  0.131 156.689    -88.04 -149.64   78.33   15.24 -157.31  -85.67   61.52 -168.06  -14.21   -2.03

DOCKED: MODEL        3
DOCKED: USER    Run = 3
DOCKED: USER    DPF = D:/Protein_go_brrr/autodock/final/2DN3/heme_Fe/dock.dpf
DOCKED: USER  
DOCKED: USER    Estimated Free Energy of Binding    =   -3.74 kcal/mol  [=(1)+(2)+(3)-(4)]
DOCKED: USER    Estimated Inhibition Constant, Ki   =    1.80 mM (millimolar)  [Temperature = 298.15 K]
DOCKED: USER    
DOCKED: USER    (1) Final Intermolecular Energy     =   -6.73 kcal/mol
DOCKED: USER        vdW + Hbond + desolv Energy     =   -6.72 kcal/mol
DOCKED: USER        Electrostatic Energy            =   -0.00 kcal/mol
DOCKED: USER    (2) Final Total Internal Energy     =   -2.04 kcal/mol
DOCKED: USER    (3) Torsional Free Energy           =   +2.98 kcal/mol
DOCKED: USER    (4) Unbound System's Energy  [=(2)] =   -2.04 kcal/mol
DOCKED: USER    
DOCKED: USER    
DOCKED: USER    NEWDPF move heme_Fe_opt.pdbqt
DOCKED: USER    NEWDPF about -0.174000 -0.001000 -0.047000
DOCKED: USER    NEWDPF tran0 22.513705 42.582131 29.260907
DOCKED: USER    NEWDPF quaternion0 -0.791745 -0.562082 0.128025 0.202025
DOCKED: USER    NEWDPF axisangle0 -0.808414 -0.573916 0.130720 156.689244
DOCKED: USER    NEWDPF quat0 -0.808414 -0.573916 0.130720 156.689244
DOCKED: USER    NEWDPF dihe0 -88.04 -149.64 78.33 15.24 -157.31 -85.67 61.52 -168.06 -14.21 -2.03 
DOCKED: USER  keepresnum = 1 
DOCKED: USER  
DOCKED: REMARK  10 active torsions:
DOCKED: REMARK  status: ('A' for Active; 'I' for Inactive)
DOCKED: REMARK    1  A    between atoms: C_6  and  C_10 
DOCKED: REMARK    2  A    between atoms: C_10  and  C_11 
DOCKED: REMARK    3  A    between atoms: C_11  and  C_12 
DOCKED: REMARK    4  A    between atoms: C_12  and  O_14 
DOCKED: REMARK    5  A    between atoms: C_17  and  C_20 
DOCKED: REMARK    6  A    between atoms: C_24  and  C_27 
DOCKED: REMARK    7  A    between atoms: C_31  and  C_34 
DOCKED: REMARK    8  A    between atoms: C_34  and  C_35 
DOCKED: REMARK    9  A    between atoms: C_35  and  C_36 
DOCKED: REMARK   10  A    between atoms: C_36  and  O_38 
DOCKED: USER                              x       y       z     vdW  Elec       q    Type
DOCKED: USER                           _______ _______ _______ _____ _____    ______ ____
DOCKED: ROOT
DOCKED: ATOM      1  C   UNL d   1      21.807  40.692  29.631 -0.16 -0.01    +0.064 C 
DOCKED: ATOM      2  C   UNL d   1      19.895  44.796  27.648 -0.11 -0.01    +0.064 A 
DOCKED: ATOM      3  C   UNL d   1      24.335  46.581  27.234 -0.26 -0.03    +0.064 C 
DOCKED: ATOM      4  C   UNL d   1      26.197  42.661  29.248 -0.26 -0.02    +0.064 C 
DOCKED: ATOM      5  C   UNL d   1      20.850  41.715  29.188 -0.11 -0.01    +0.066 A 
DOCKED: ATOM      6  C   UNL d   1      19.472  41.597  29.266 -0.08 +0.00    -0.021 A 
DOCKED: ATOM      7  C   UNL d   1      18.942  42.736  28.712 -0.08 +0.00    -0.025 A 
DOCKED: ATOM      8  C   UNL d   1      20.018  43.506  28.316 -0.12 -0.01    +0.066 A 
DOCKED: ATOM      9  C   UNL d   1      17.486  43.063  28.592 -0.06 -0.00    +0.051 C 
DOCKED: ATOM     10  C   UNL d   1      20.916  45.585  27.308 -0.14 -0.01    +0.066 A 
DOCKED: ATOM     11  C   UNL d   1      20.773  46.760  26.566 -0.25 +0.00    -0.021 A 
DOCKED: ATOM     12  C   UNL d   1      22.041  47.285  26.419 -0.32 -0.00    +0.000 A 
DOCKED: ATOM     13  C   UNL d   1      22.902  46.390  27.077 -0.26 -0.03    +0.070 A 
DOCKED: ATOM     14  C   UNL d   1      19.498  47.320  25.968 -0.21 -0.00    +0.052 C 
DOCKED: ATOM     15  C   UNL d   1      25.175  45.696  27.822 -0.13 -0.02    +0.066 A 
DOCKED: ATOM     16  C   UNL d   1      26.521  45.960  28.040 -0.18 +0.00    -0.021 A 
DOCKED: ATOM     17  C   UNL d   1      27.061  44.829  28.618 -0.31 -0.00    +0.000 A 
DOCKED: ATOM     18  C   UNL d   1      26.031  43.899  28.734 -0.26 -0.02    +0.070 A 
DOCKED: ATOM     19  C   UNL d   1      27.279  47.214  27.698 -0.29 -0.01    +0.052 C 
DOCKED: ATOM     20  C   UNL d   1      25.124  41.679  29.442 -0.28 -0.02    +0.066 A 
DOCKED: ATOM     21  C   UNL d   1      25.311  40.332  29.783 -0.26 +0.01    -0.025 A 
DOCKED: ATOM     22  C   UNL d   1      24.046  39.792  29.899 -0.16 +0.00    -0.021 A 
DOCKED: ATOM     23  C   UNL d   1      23.143  40.825  29.621 -0.18 -0.01    +0.066 A 
DOCKED: ATOM     24  C   UNL d   1      26.607  39.581  29.986 -0.38 -0.04    +0.051 C 
DOCKED: ATOM     25  N   UNL d   1      21.178  42.887  28.616 -0.09 +0.04    -0.248 N 
DOCKED: ATOM     26  N   UNL d   1      22.217  45.349  27.612 -0.14 +0.06    -0.248 N 
DOCKED: ATOM     27  N   UNL d   1      24.861  44.447  28.286 -0.13 +0.08    -0.248 N 
DOCKED: ATOM     28  N   UNL d   1      23.807  41.961  29.299 -0.13 +0.06    -0.248 N 
DOCKED: ATOM     29 FE   UNL d   1      23.014  43.655  28.456 -0.05 -0.00    +0.000 Fe
DOCKED: ENDROOT
DOCKED: BRANCH   6  30
DOCKED: ATOM     30  C   UNL d   1      18.696  40.470  29.857 -0.09 -0.00    +0.052 C 
DOCKED: BRANCH  30  31
DOCKED: ATOM     31  C   UNL d   1      18.745  40.519  31.380 -0.03 -0.00    +0.115 C 
DOCKED: BRANCH  31  32
DOCKED: ATOM     32  C   UNL d   1      19.398  39.280  31.926 -0.06 +0.01    +0.139 C 
DOCKED: ATOM     33  O   UNL d   1      19.184  38.917  33.074 +0.01 -0.04    -0.650 OA
DOCKED: BRANCH  32  34
DOCKED: ATOM     34  O   UNL d   1      20.227  38.558  31.153 +0.02 -0.08    -0.776 OA
DOCKED: ATOM     35  H   UNL d   1      21.175  38.750  31.174 +0.04 +0.01    +0.167 HD
DOCKED: ENDBRANCH  32  34
DOCKED: ENDBRANCH  31  32
DOCKED: ENDBRANCH  30  31
DOCKED: ENDBRANCH   6  30
DOCKED: BRANCH  22  36
DOCKED: ATOM     36  C   UNL d   1      23.729  38.354  30.212 -0.20 -0.01    +0.052 C 
DOCKED: BRANCH  36  37
DOCKED: ATOM     37  C   UNL d   1      23.494  38.194  31.707 -0.11 -0.00    +0.115 C 
DOCKED: BRANCH  37  38
DOCKED: ATOM     38  C   UNL d   1      23.379  39.532  32.381 -0.04 -0.01    +0.139 C 
DOCKED: ATOM     39  O   UNL d   1      24.377  40.131  32.756 +0.05 +0.08    -0.650 OA
DOCKED: BRANCH  38  40
DOCKED: ATOM     40  O   UNL d   1      22.168  40.082  32.580 +0.04 +0.02    -0.776 OA
DOCKED: ATOM     41  H   UNL d   1      21.405  39.503  32.711 +0.02 +0.00    +0.167 HD
DOCKED: ENDBRANCH  38  40
DOCKED: ENDBRANCH  37  38
DOCKED: ENDBRANCH  36  37
DOCKED: ENDBRANCH  22  36
DOCKED: BRANCH  12  42
DOCKED: ATOM     42  C   UNL d   1      22.366  48.544  25.678 -0.13 -0.00    +0.004 C 
DOCKED: ATOM     43  C   UNL d   1      23.061  49.528  26.263 -0.23 -0.01    +0.012 C 
DOCKED: ENDBRANCH  12  42
DOCKED: BRANCH  17  44
DOCKED: ATOM     44  C   UNL d   1      28.467  44.657  29.049 -0.36 -0.00    +0.004 C 
DOCKED: ATOM     45  C   UNL d   1      28.950  45.336  30.095 -0.28 -0.00    +0.012 C 
DOCKED: ENDBRANCH  17  44
DOCKED: TORSDOF 10
DOCKED: TER
DOCKED: ENDMDL
________________________________________________________________________________


	BEGINNING GENETIC ALGORITHM DOCKING 4 of 100
Run: 4 Seed: 1611612772 1981108827 [ Run 4 of 100 GA/GALS ]
Beginning LAMARCKIAN GENETIC ALGORITHM (LGA), with a maximum of 25000000 energy evaluations.

Final-Value: -14.263


	FINAL GENETIC ALGORITHM DOCKED STATE
	_______________________________________________


Detailed state:  trans 8.438 35.418 -0.479 quatxyzw 0.876497 -0.257951 0.105476 -0.392541 center -0.174 -0.001 -0.047 ntor 10 164.9006 -79.8709 46.2474 -106.6849 71.1124 -178.7798 46.6242 -19.1349 -164.0259 -15.6092
State:	  8.438  35.418  -0.479   0.953 -0.280  0.115 -133.775    164.90  -79.87   46.25 -106.68   71.11 -178.78   46.62  -19.13 -164.03  -15.61

DOCKED: MODEL        4
DOCKED: USER    Run = 4
DOCKED: USER    DPF = D:/Protein_go_brrr/autodock/final/2DN3/heme_Fe/dock.dpf
DOCKED: USER  
DOCKED: USER    Estimated Free Energy of Binding    =  -10.79 kcal/mol  [=(1)+(2)+(3)-(4)]
DOCKED: USER    Estimated Inhibition Constant, Ki   =   12.41 nM (nanomolar)  [Temperature = 298.15 K]
DOCKED: USER    
DOCKED: USER    (1) Final Intermolecular Energy     =  -13.77 kcal/mol
DOCKED: USER        vdW + Hbond + desolv Energy     =  -12.43 kcal/mol
DOCKED: USER        Electrostatic Energy            =   -1.33 kcal/mol
DOCKED: USER    (2) Final Total Internal Energy     =   -0.49 kcal/mol
DOCKED: USER    (3) Torsional Free Energy           =   +2.98 kcal/mol
DOCKED: USER    (4) Unbound System's Energy  [=(2)] =   -0.49 kcal/mol
DOCKED: USER    
DOCKED: USER    
DOCKED: USER    NEWDPF move heme_Fe_opt.pdbqt
DOCKED: USER    NEWDPF about -0.174000 -0.001000 -0.047000
DOCKED: USER    NEWDPF tran0 8.437837 35.418323 -0.478951
DOCKED: USER    NEWDPF quaternion0 0.876497 -0.257951 0.105476 -0.392541
DOCKED: USER    NEWDPF axisangle0 0.952989 -0.280463 0.114681 -133.774553
DOCKED: USER    NEWDPF quat0 0.952989 -0.280463 0.114681 -133.774553
DOCKED: USER    NEWDPF dihe0 164.90 -79.87 46.25 -106.68 71.11 -178.78 46.62 -19.13 -164.03 -15.61 
DOCKED: USER  keepresnum = 1 
DOCKED: USER  
DOCKED: REMARK  10 active torsions:
DOCKED: REMARK  status: ('A' for Active; 'I' for Inactive)
DOCKED: REMARK    1  A    between atoms: C_6  and  C_10 
DOCKED: REMARK    2  A    between atoms: C_10  and  C_11 
DOCKED: REMARK    3  A    between atoms: C_11  and  C_12 
DOCKED: REMARK    4  A    between atoms: C_12  and  O_14 
DOCKED: REMARK    5  A    between atoms: C_17  and  C_20 
DOCKED: REMARK    6  A    between atoms: C_24  and  C_27 
DOCKED: REMARK    7  A    between atoms: C_31  and  C_34 
DOCKED: REMARK    8  A    between atoms: C_34  and  C_35 
DOCKED: REMARK    9  A    between atoms: C_35  and  C_36 
DOCKED: REMARK   10  A    between atoms: C_36  and  O_38 
DOCKED: USER                              x       y       z     vdW  Elec       q    Type
DOCKED: USER                           _______ _______ _______ _____ _____    ______ ____
DOCKED: ROOT
DOCKED: ATOM      1  C   UNL d   1       6.787  35.788  -1.640 +0.06 +0.01    +0.064 C 
DOCKED: ATOM      2  C   UNL d   1      11.654  36.441  -2.202 -0.37 +0.00    +0.064 A 
DOCKED: ATOM      3  C   UNL d   1      12.407  33.525   1.539 -0.38 +0.00    +0.064 C 
DOCKED: ATOM      4  C   UNL d   1       7.698  32.963   2.166 -0.47 +0.01    +0.064 C 
DOCKED: ATOM      5  C   UNL d   1       8.084  36.309  -2.093 -0.12 +0.01    +0.066 A 
DOCKED: ATOM      6  C   UNL d   1       8.251  37.262  -3.084 -0.32 -0.00    -0.021 A 
DOCKED: ATOM      7  C   UNL d   1       9.603  37.440  -3.242 -0.39 -0.00    -0.025 A 
DOCKED: ATOM      8  C   UNL d   1      10.210  36.587  -2.340 -0.37 +0.01    +0.066 A 
DOCKED: ATOM      9  C   UNL d   1      10.263  38.391  -4.193 -0.48 -0.00    +0.051 C 
DOCKED: ATOM     10  C   UNL d   1      12.265  35.669  -1.302 -0.35 +0.01    +0.066 A 
DOCKED: ATOM     11  C   UNL d   1      13.646  35.461  -1.270 -0.42 -0.00    -0.021 A 
DOCKED: ATOM     12  C   UNL d   1      13.887  34.610  -0.210 -0.45 +0.00    +0.000 A 
DOCKED: ATOM     13  C   UNL d   1      12.628  34.333   0.350 -0.33 +0.01    +0.070 A 
DOCKED: ATOM     14  C   UNL d   1      14.678  35.992  -2.243 -0.36 +0.01    +0.052 C 
DOCKED: ATOM     15  C   UNL d   1      11.193  33.213   2.051 -0.36 +0.00    +0.066 A 
DOCKED: ATOM     16  C   UNL d   1      11.028  32.522   3.244 -0.41 -0.00    -0.021 A 
DOCKED: ATOM     17  C   UNL d   1       9.670  32.356   3.425 -0.44 +0.00    +0.000 A 
DOCKED: ATOM     18  C   UNL d   1       9.039  32.947   2.334 -0.37 +0.01    +0.070 A 
DOCKED: ATOM     19  C   UNL d   1      12.103  32.014   4.168 -0.38 +0.00    +0.052 C 
DOCKED: ATOM     20  C   UNL d   1       6.995  33.628   1.063 -0.34 +0.01    +0.066 A 
DOCKED: ATOM     21  C   UNL d   1       5.632  33.485   0.768 -0.26 -0.00    -0.025 A 
DOCKED: ATOM     22  C   UNL d   1       5.391  34.309  -0.313 -0.29 -0.00    -0.021 A 
DOCKED: ATOM     23  C   UNL d   1       6.612  34.914  -0.636 -0.27 +0.01    +0.066 A 
DOCKED: ATOM     24  C   UNL d   1       4.603  32.619   1.457 -0.13 +0.00    +0.051 C 
DOCKED: ATOM     25  N   UNL d   1       9.283  35.907  -1.636 -0.18 -0.06    -0.248 N 
DOCKED: ATOM     26  N   UNL d   1      11.638  34.971  -0.321 +0.00 -0.04    -0.248 N 
DOCKED: ATOM     27  N   UNL d   1       9.971  33.513   1.510 -0.22 -0.03    -0.248 N 
DOCKED: ATOM     28  N   UNL d   1       7.596  34.461   0.178 -0.19 -0.04    -0.248 N 
DOCKED: ATOM     29 FE   UNL d   1       9.616  34.715  -0.070 -0.08 +0.00    +0.000 Fe
DOCKED: ENDROOT
DOCKED: BRANCH   6  30
DOCKED: ATOM     30  C   UNL d   1       7.182  37.985  -3.829 -0.26 +0.00    +0.052 C 
DOCKED: BRANCH  30  31
DOCKED: ATOM     31  C   UNL d   1       6.529  37.071  -4.860 -0.20 +0.01    +0.115 C 
DOCKED: BRANCH  31  32
DOCKED: ATOM     32  C   UNL d   1       6.407  37.774  -6.184 -0.13 +0.01    +0.139 C 
DOCKED: ATOM     33  O   UNL d   1       7.399  38.003  -6.862 +0.02 -0.01    -0.650 OA
DOCKED: BRANCH  32  34
DOCKED: ATOM     34  O   UNL d   1       5.201  38.159  -6.634 +0.04 -0.09    -0.776 OA
DOCKED: ATOM     35  H   UNL d   1       4.407  37.794  -6.221 +0.02 +0.02    +0.167 HD
DOCKED: ENDBRANCH  32  34
DOCKED: ENDBRANCH  31  32
DOCKED: ENDBRANCH  30  31
DOCKED: ENDBRANCH   6  30
DOCKED: BRANCH  22  36
DOCKED: ATOM     36  C   UNL d   1       4.073  34.466  -1.023 -0.22 +0.01    +0.052 C 
DOCKED: BRANCH  36  37
DOCKED: ATOM     37  C   UNL d   1       3.187  35.434  -0.252 -0.19 +0.06    +0.115 C 
DOCKED: BRANCH  37  38
DOCKED: ATOM     38  C   UNL d   1       2.102  35.988  -1.132 -0.13 +0.10    +0.139 C 
DOCKED: ATOM     39  O   UNL d   1       1.299  36.801  -0.698 -0.32 -1.09    -0.650 OA
DOCKED: BRANCH  38  40
DOCKED: ATOM     40  O   UNL d   1       2.004  35.584  -2.411 +0.04 -0.35    -0.776 OA
DOCKED: ATOM     41  H   UNL d   1       1.349  34.911  -2.643 +0.02 +0.06    +0.167 HD
DOCKED: ENDBRANCH  38  40
DOCKED: ENDBRANCH  37  38
DOCKED: ENDBRANCH  36  37
DOCKED: ENDBRANCH  22  36
DOCKED: BRANCH  12  42
DOCKED: ATOM     42  C   UNL d   1      15.237  34.106   0.194 -0.64 +0.00    +0.004 C 
DOCKED: ATOM     43  C   UNL d   1      15.953  34.733   1.136 -0.56 +0.00    +0.012 C 
DOCKED: ENDBRANCH  12  42
DOCKED: BRANCH  17  44
DOCKED: ATOM     44  C   UNL d   1       9.020  31.693   4.578 -0.59 +0.00    +0.004 C 
DOCKED: ATOM     45  C   UNL d   1       9.380  30.461   4.952 -0.68 +0.00    +0.012 C 
DOCKED: ENDBRANCH  17  44
DOCKED: TORSDOF 10
DOCKED: TER
DOCKED: ENDMDL
________________________________________________________________________________


	BEGINNING GENETIC ALGORITHM DOCKING 5 of 100
Run: 5 Seed: 1230745319 1386605499 [ Run 5 of 100 GA/GALS ]
Beginning LAMARCKIAN GENETIC ALGORITHM (LGA), with a maximum of 25000000 energy evaluations.

Final-Value: -17.598


	FINAL GENETIC ALGORITHM DOCKED STATE
	_______________________________________________


Detailed state:  trans 41.798 28.704 16.190 quatxyzw 0.222569 0.096750 -0.952556 0.183686 center -0.174 -0.001 -0.047 ntor 10 84.0364 -67.7814 66.0188 -146.3547 117.2871 140.5365 -44.2060 44.3121 -177.7651 -180.0000
State:	 41.798  28.704  16.190   0.226  0.098 -0.969 158.831     84.04  -67.78   66.02 -146.35  117.29  140.54  -44.21   44.31 -177.77 -180.00

DOCKED: MODEL        5
DOCKED: USER    Run = 5
DOCKED: USER    DPF = D:/Protein_go_brrr/autodock/final/2DN3/heme_Fe/dock.dpf
DOCKED: USER  
DOCKED: USER    Estimated Free Energy of Binding    =  -12.69 kcal/mol  [=(1)+(2)+(3)-(4)]
DOCKED: USER    Estimated Inhibition Constant, Ki   =  500.36 pM (picomolar)  [Temperature = 298.15 K]
DOCKED: USER    
DOCKED: USER    (1) Final Intermolecular Energy     =  -15.67 kcal/mol
DOCKED: USER        vdW + Hbond + desolv Energy     =  -13.72 kcal/mol
DOCKED: USER        Electrostatic Energy            =   -1.95 kcal/mol
DOCKED: USER    (2) Final Total Internal Energy     =   -1.93 kcal/mol
DOCKED: USER    (3) Torsional Free Energy           =   +2.98 kcal/mol
DOCKED: USER    (4) Unbound System's Energy  [=(2)] =   -1.93 kcal/mol
DOCKED: USER    
DOCKED: USER    
DOCKED: USER    NEWDPF move heme_Fe_opt.pdbqt
DOCKED: USER    NEWDPF about -0.174000 -0.001000 -0.047000
DOCKED: USER    NEWDPF tran0 41.798104 28.704046 16.190225
DOCKED: USER    NEWDPF quaternion0 0.222569 0.096750 -0.952556 0.183686
DOCKED: USER    NEWDPF axisangle0 0.226421 0.098425 -0.969044 158.830938
DOCKED: USER    NEWDPF quat0 0.226421 0.098425 -0.969044 158.830938
DOCKED: USER    NEWDPF dihe0 84.04 -67.78 66.02 -146.35 117.29 140.54 -44.21 44.31 -177.77 -180.00 
DOCKED: USER  keepresnum = 1 
DOCKED: USER  
DOCKED: REMARK  10 active torsions:
DOCKED: REMARK  status: ('A' for Active; 'I' for Inactive)
DOCKED: REMARK    1  A    between atoms: C_6  and  C_10 
DOCKED: REMARK    2  A    between atoms: C_10  and  C_11 
DOCKED: REMARK    3  A    between atoms: C_11  and  C_12 
DOCKED: REMARK    4  A    between atoms: C_12  and  O_14 
DOCKED: REMARK    5  A    between atoms: C_17  and  C_20 
DOCKED: REMARK    6  A    between atoms: C_24  and  C_27 
DOCKED: REMARK    7  A    between atoms: C_31  and  C_34 
DOCKED: REMARK    8  A    between atoms: C_34  and  C_35 
DOCKED: REMARK    9  A    between atoms: C_35  and  C_36 
DOCKED: REMARK   10  A    between atoms: C_36  and  O_38 
DOCKED: USER                              x       y       z     vdW  Elec       q    Type
DOCKED: USER                           _______ _______ _______ _____ _____    ______ ____
DOCKED: ROOT
DOCKED: ATOM      1  C   UNL d   1      43.223  27.925  17.445 -0.25 +0.02    +0.064 C 
DOCKED: ATOM      2  C   UNL d   1      41.289  32.418  16.740 -0.41 +0.01    +0.064 A 
DOCKED: ATOM      3  C   UNL d   1      37.711  30.411  14.242 -0.25 +0.01    +0.064 C 
DOCKED: ATOM      4  C   UNL d   1      39.622  26.064  14.823 -0.46 +0.01    +0.064 C 
DOCKED: ATOM      5  C   UNL d   1      43.055  29.384  17.407 -0.27 +0.02    +0.066 A 
DOCKED: ATOM      6  C   UNL d   1      43.957  30.298  17.928 -0.30 -0.01    -0.021 A 
DOCKED: ATOM      7  C   UNL d   1      43.417  31.545  17.736 -0.30 -0.01    -0.025 A 
DOCKED: ATOM      8  C   UNL d   1      42.205  31.345  17.103 -0.36 +0.02    +0.066 A 
DOCKED: ATOM      9  C   UNL d   1      44.045  32.848  18.123 -0.13 +0.01    +0.051 C 
DOCKED: ATOM     10  C   UNL d   1      40.141  32.258  16.078 -0.38 +0.01    +0.066 A 
DOCKED: ATOM     11  C   UNL d   1      39.230  33.290  15.846 -0.40 -0.00    -0.021 A 
DOCKED: ATOM     12  C   UNL d   1      38.181  32.734  15.141 -0.39 +0.00    +0.000 A 
DOCKED: ATOM     13  C   UNL d   1      38.506  31.375  14.986 -0.34 +0.01    +0.070 A 
DOCKED: ATOM     14  C   UNL d   1      39.320  34.723  16.330 -0.52 +0.01    +0.052 C 
DOCKED: ATOM     15  C   UNL d   1      37.993  29.091  14.134 -0.34 +0.01    +0.066 A 
DOCKED: ATOM     16  C   UNL d   1      37.264  28.222  13.332 -0.44 -0.00    -0.021 A 
DOCKED: ATOM     17  C   UNL d   1      37.811  26.967  13.501 -0.45 +0.00    +0.000 A 
DOCKED: ATOM     18  C   UNL d   1      38.861  27.100  14.407 -0.36 +0.01    +0.070 A 
DOCKED: ATOM     19  C   UNL d   1      36.082  28.551  12.460 -0.62 +0.01    +0.052 C 
DOCKED: ATOM     20  C   UNL d   1      40.773  26.175  15.727 -0.38 +0.02    +0.066 A 
DOCKED: ATOM     21  C   UNL d   1      41.443  25.096  16.322 -0.42 -0.01    -0.025 A 
DOCKED: ATOM     22  C   UNL d   1      42.473  25.649  17.055 -0.35 -0.01    -0.021 A 
DOCKED: ATOM     23  C   UNL d   1      42.388  27.036  16.884 -0.31 +0.02    +0.066 A 
DOCKED: ATOM     24  C   UNL d   1      41.134  23.620  16.217 -0.48 +0.01    +0.051 C 
DOCKED: ATOM     25  N   UNL d   1      41.993  30.030  16.896 -0.17 -0.08    -0.248 N 
DOCKED: ATOM     26  N   UNL d   1      39.697  31.082  15.565 -0.08 -0.06    -0.248 N 
DOCKED: ATOM     27  N   UNL d   1      39.002  28.412  14.763 -0.06 -0.07    -0.248 N 
DOCKED: ATOM     28  N   UNL d   1      41.322  27.353  16.109 -0.25 -0.08    -0.248 N 
DOCKED: ATOM     29 FE   UNL d   1      40.509  29.216  15.837 -0.08 +0.00    +0.000 Fe
DOCKED: ENDROOT
DOCKED: BRANCH   6  30
DOCKED: ATOM     30  C   UNL d   1      45.275  30.004  18.559 -0.24 +0.02    +0.052 C 
DOCKED: BRANCH  30  31
DOCKED: ATOM     31  C   UNL d   1      45.115  29.760  20.056 -0.14 +0.09    +0.115 C 
DOCKED: BRANCH  31  32
DOCKED: ATOM     32  C   UNL d   1      45.924  28.566  20.484 -0.16 +0.15    +0.139 C 
DOCKED: ATOM     33  O   UNL d   1      46.841  28.689  21.283 -0.49 -1.04    -0.650 OA
DOCKED: BRANCH  32  34
DOCKED: ATOM     34  O   UNL d   1      45.644  27.349  19.988 +0.06 -0.61    -0.776 OA
DOCKED: ATOM     35  H   UNL d   1      45.076  26.754  20.498 +0.06 +0.14    +0.167 HD
DOCKED: ENDBRANCH  32  34
DOCKED: ENDBRANCH  31  32
DOCKED: ENDBRANCH  30  31
DOCKED: ENDBRANCH   6  30
DOCKED: BRANCH  22  36
DOCKED: ATOM     36  C   UNL d   1      43.452  24.887  17.909 -0.34 +0.02    +0.052 C 
DOCKED: BRANCH  36  37
DOCKED: ATOM     37  C   UNL d   1      42.836  24.612  19.273 -0.38 +0.04    +0.115 C 
DOCKED: BRANCH  37  38
DOCKED: ATOM     38  C   UNL d   1      43.828  24.866  20.373 -0.29 +0.08    +0.139 C 
DOCKED: ATOM     39  O   UNL d   1      43.481  25.398  21.417 -0.04 -0.39    -0.650 OA
DOCKED: BRANCH  38  40
DOCKED: ATOM     40  O   UNL d   1      45.115  24.511  20.212 -0.15 -0.47    -0.776 OA
DOCKED: ATOM     41  H   UNL d   1      45.788  25.202  20.139 +0.06 +0.10    +0.167 HD
DOCKED: ENDBRANCH  38  40
DOCKED: ENDBRANCH  37  38
DOCKED: ENDBRANCH  36  37
DOCKED: ENDBRANCH  22  36
DOCKED: BRANCH  12  42
DOCKED: ATOM     42  C   UNL d   1      36.965  33.477  14.686 -0.36 +0.00    +0.004 C 
DOCKED: ATOM     43  C   UNL d   1      36.720  33.663  13.382 -0.52 +0.00    +0.012 C 
DOCKED: ENDBRANCH  12  42
DOCKED: BRANCH  17  44
DOCKED: ATOM     44  C   UNL d   1      37.371  25.727  12.824 -0.55 +0.00    +0.004 C 
DOCKED: ATOM     45  C   UNL d   1      36.468  24.920  13.391 -0.66 +0.00    +0.012 C 
DOCKED: ENDBRANCH  17  44
DOCKED: TORSDOF 10
DOCKED: TER
DOCKED: ENDMDL
________________________________________________________________________________


	BEGINNING GENETIC ALGORITHM DOCKING 6 of 100
Run: 6 Seed: 1552450565 376184571 [ Run 6 of 100 GA/GALS ]
Beginning LAMARCKIAN GENETIC ALGORITHM (LGA), with a maximum of 25000000 energy evaluations.

Final-Value: -17.449


	FINAL GENETIC ALGORITHM DOCKED STATE
	_______________________________________________


Detailed state:  trans 41.554 28.937 16.051 quatxyzw -0.234528 -0.077235 0.957804 -0.147115 center -0.174 -0.001 -0.047 ntor 10 14.5559 120.6423 69.7871 -131.6979 155.5342 -180.0000 -62.8078 -43.7460 -168.7902 -42.6799
State:	 41.554  28.937  16.051  -0.237 -0.078  0.968 -163.080     14.56  120.64   69.79 -131.70  155.53 -180.00  -62.81  -43.75 -168.79  -42.68

DOCKED: MODEL        6
DOCKED: USER    Run = 6
DOCKED: USER    DPF = D:/Protein_go_brrr/autodock/final/2DN3/heme_Fe/dock.dpf
DOCKED: USER  
DOCKED: USER    Estimated Free Energy of Binding    =  -12.92 kcal/mol  [=(1)+(2)+(3)-(4)]
DOCKED: USER    Estimated Inhibition Constant, Ki   =  336.51 pM (picomolar)  [Temperature = 298.15 K]
DOCKED: USER    
DOCKED: USER    (1) Final Intermolecular Energy     =  -15.91 kcal/mol
DOCKED: USER        vdW + Hbond + desolv Energy     =  -13.25 kcal/mol
DOCKED: USER        Electrostatic Energy            =   -2.65 kcal/mol
DOCKED: USER    (2) Final Total Internal Energy     =   -1.54 kcal/mol
DOCKED: USER    (3) Torsional Free Energy           =   +2.98 kcal/mol
DOCKED: USER    (4) Unbound System's Energy  [=(2)] =   -1.54 kcal/mol
DOCKED: USER    
DOCKED: USER    
DOCKED: USER    NEWDPF move heme_Fe_opt.pdbqt
DOCKED: USER    NEWDPF about -0.174000 -0.001000 -0.047000
DOCKED: USER    NEWDPF tran0 41.554417 28.936679 16.051468
DOCKED: USER    NEWDPF quaternion0 -0.234528 -0.077235 0.957804 -0.147115
DOCKED: USER    NEWDPF axisangle0 -0.237108 -0.078085 0.968340 -163.080496
DOCKED: USER    NEWDPF quat0 -0.237108 -0.078085 0.968340 -163.080496
DOCKED: USER    NEWDPF dihe0 14.56 120.64 69.79 -131.70 155.53 -180.00 -62.81 -43.75 -168.79 -42.68 
DOCKED: USER  keepresnum = 1 
DOCKED: USER  
DOCKED: REMARK  10 active torsions:
DOCKED: REMARK  status: ('A' for Active; 'I' for Inactive)
DOCKED: REMARK    1  A    between atoms: C_6  and  C_10 
DOCKED: REMARK    2  A    between atoms: C_10  and  C_11 
DOCKED: REMARK    3  A    between atoms: C_11  and  C_12 
DOCKED: REMARK    4  A    between atoms: C_12  and  O_14 
DOCKED: REMARK    5  A    between atoms: C_17  and  C_20 
DOCKED: REMARK    6  A    between atoms: C_24  and  C_27 
DOCKED: REMARK    7  A    between atoms: C_31  and  C_34 
DOCKED: REMARK    8  A    between atoms: C_34  and  C_35 
DOCKED: REMARK    9  A    between atoms: C_35  and  C_36 
DOCKED: REMARK   10  A    between atoms: C_36  and  O_38 
DOCKED: USER                              x       y       z     vdW  Elec       q    Type
DOCKED: USER                           _______ _______ _______ _____ _____    ______ ____
DOCKED: ROOT
DOCKED: ATOM      1  C   UNL d   1      42.995  28.320  17.376 -0.21 +0.02    +0.064 C 
DOCKED: ATOM      2  C   UNL d   1      40.811  32.639  16.370 -0.42 +0.01    +0.064 A 
DOCKED: ATOM      3  C   UNL d   1      37.416  30.274  13.930 -0.24 +0.01    +0.064 C 
DOCKED: ATOM      4  C   UNL d   1      39.571  26.093  14.804 -0.46 +0.01    +0.064 C 
DOCKED: ATOM      5  C   UNL d   1      42.741  29.762  17.249 -0.30 +0.02    +0.066 A 
DOCKED: ATOM      6  C   UNL d   1      43.575  30.758  17.732 -0.33 -0.01    -0.021 A 
DOCKED: ATOM      7  C   UNL d   1      42.965  31.956  17.455 -0.18 -0.01    -0.025 A 
DOCKED: ATOM      8  C   UNL d   1      41.782  31.646  16.813 -0.31 +0.01    +0.066 A 
DOCKED: ATOM      9  C   UNL d   1      43.506  33.316  17.776 -0.24 +0.01    +0.051 C 
DOCKED: ATOM     10  C   UNL d   1      39.690  32.370  15.698 -0.38 +0.01    +0.066 A 
DOCKED: ATOM     11  C   UNL d   1      38.724  33.329  15.387 -0.41 -0.00    -0.021 A 
DOCKED: ATOM     12  C   UNL d   1      37.726  32.670  14.698 -0.31 +0.00    +0.000 A 
DOCKED: ATOM     13  C   UNL d   1      38.136  31.327  14.630 -0.32 +0.01    +0.070 A 
DOCKED: ATOM     14  C   UNL d   1      38.718  34.791  15.788 -0.50 +0.00    +0.052 C 
DOCKED: ATOM     15  C   UNL d   1      37.780  28.970  13.906 -0.37 +0.01    +0.066 A 
DOCKED: ATOM     16  C   UNL d   1      37.121  28.013  13.144 -0.46 -0.00    -0.021 A 
DOCKED: ATOM     17  C   UNL d   1      37.739  26.806  13.397 -0.45 +0.00    +0.000 A 
DOCKED: ATOM     18  C   UNL d   1      38.759  27.055  14.312 -0.37 +0.01    +0.070 A 
DOCKED: ATOM     19  C   UNL d   1      35.942  28.218  12.232 -0.65 +0.01    +0.052 C 
DOCKED: ATOM     20  C   UNL d   1      40.693  26.327  15.721 -0.38 +0.02    +0.066 A 
DOCKED: ATOM     21  C   UNL d   1      41.413  25.327  16.391 -0.39 -0.01    -0.025 A 
DOCKED: ATOM     22  C   UNL d   1      42.392  25.984  17.108 -0.35 -0.01    -0.021 A 
DOCKED: ATOM     23  C   UNL d   1      42.228  27.351  16.854 -0.31 +0.02    +0.066 A 
DOCKED: ATOM     24  C   UNL d   1      41.196  23.832  16.368 -0.46 +0.01    +0.051 C 
DOCKED: ATOM     25  N   UNL d   1      41.653  30.311  16.680 -0.09 -0.08    -0.248 N 
DOCKED: ATOM     26  N   UNL d   1      39.329  31.142  15.247 -0.21 -0.05    -0.248 N 
DOCKED: ATOM     27  N   UNL d   1      38.813  28.391  14.593 -0.12 -0.06    -0.248 N 
DOCKED: ATOM     28  N   UNL d   1      41.162  27.557  16.042 -0.24 -0.08    -0.248 N 
DOCKED: ATOM     29 FE   UNL d   1      40.245  29.347  15.644 -0.08 +0.00    +0.000 Fe
DOCKED: ENDROOT
DOCKED: BRANCH   6  30
DOCKED: ATOM     30  C   UNL d   1      44.894  30.582  18.403 -0.27 +0.02    +0.052 C 
DOCKED: BRANCH  30  31
DOCKED: ATOM     31  C   UNL d   1      44.708  30.197  19.867 -0.21 +0.08    +0.115 C 
DOCKED: BRANCH  31  32
DOCKED: ATOM     32  C   UNL d   1      45.285  28.834  20.129 -0.18 +0.13    +0.139 C 
DOCKED: ATOM     33  O   UNL d   1      45.648  28.517  21.253 -0.11 -1.22    -0.650 OA
DOCKED: BRANCH  32  34
DOCKED: ATOM     34  O   UNL d   1      45.407  27.948  19.126 +0.07 -0.46    -0.776 OA
DOCKED: ATOM     35  H   UNL d   1      45.575  27.019  19.338 +0.06 +0.10    +0.167 HD
DOCKED: ENDBRANCH  32  34
DOCKED: ENDBRANCH  31  32
DOCKED: ENDBRANCH  30  31
DOCKED: ENDBRANCH   6  30
DOCKED: BRANCH  22  36
DOCKED: ATOM     36  C   UNL d   1      43.395  25.335  18.025 -0.34 +0.02    +0.052 C 
DOCKED: BRANCH  36  37
DOCKED: ATOM     37  C   UNL d   1      44.147  24.246  17.273 -0.21 +0.06    +0.115 C 
DOCKED: BRANCH  37  38
DOCKED: ATOM     38  C   UNL d   1      45.621  24.317  17.554 -0.20 +0.11    +0.139 C 
DOCKED: ATOM     39  O   UNL d   1      46.395  23.522  17.041 -0.35 -1.01    -0.650 OA
DOCKED: BRANCH  38  40
DOCKED: ATOM     40  O   UNL d   1      46.102  25.263  18.381 +0.08 -0.48    -0.776 OA
DOCKED: ATOM     41  H   UNL d   1      45.960  26.194  18.163 +0.06 +0.09    +0.167 HD
DOCKED: ENDBRANCH  38  40
DOCKED: ENDBRANCH  37  38
DOCKED: ENDBRANCH  36  37
DOCKED: ENDBRANCH  22  36
DOCKED: BRANCH  12  42
DOCKED: ATOM     42  C   UNL d   1      36.479  33.309  14.176 -0.33 +0.00    +0.004 C 
DOCKED: ATOM     43  C   UNL d   1      36.216  33.338  12.863 -0.57 +0.00    +0.012 C 
DOCKED: ENDBRANCH  12  42
DOCKED: BRANCH  17  44
DOCKED: ATOM     44  C   UNL d   1      37.390  25.503  12.787 -0.56 +0.00    +0.004 C 
DOCKED: ATOM     45  C   UNL d   1      36.328  24.811  13.212 -0.67 +0.00    +0.012 C 
DOCKED: ENDBRANCH  17  44
DOCKED: TORSDOF 10
DOCKED: TER
DOCKED: ENDMDL
________________________________________________________________________________


	BEGINNING GENETIC ALGORITHM DOCKING 7 of 100
Run: 7 Seed: 1557668541 489118595 [ Run 7 of 100 GA/GALS ]
Beginning LAMARCKIAN GENETIC ALGORITHM (LGA), with a maximum of 25000000 energy evaluations.

Final-Value: -16.957


	FINAL GENETIC ALGORITHM DOCKED STATE
	_______________________________________________


Detailed state:  trans 41.334 29.078 16.875 quatxyzw -0.101987 -0.934895 -0.066527 0.333382 center -0.174 -0.001 -0.047 ntor 10 86.3844 51.6219 61.5831 -143.6175 166.5195 -43.9623 34.5654 -52.2719 176.0585 15.6777
State:	 41.334  29.078  16.875  -0.108 -0.992 -0.071 141.052     86.38   51.62   61.58 -143.62  166.52  -43.96   34.57  -52.27  176.06   15.68

DOCKED: MODEL        7
DOCKED: USER    Run = 7
DOCKED: USER    DPF = D:/Protein_go_brrr/autodock/final/2DN3/heme_Fe/dock.dpf
DOCKED: USER  
DOCKED: USER    Estimated Free Energy of Binding    =  -13.37 kcal/mol  [=(1)+(2)+(3)-(4)]
DOCKED: USER    Estimated Inhibition Constant, Ki   =  158.05 pM (picomolar)  [Temperature = 298.15 K]
DOCKED: USER    
DOCKED: USER    (1) Final Intermolecular Energy     =  -16.35 kcal/mol
DOCKED: USER        vdW + Hbond + desolv Energy     =  -13.70 kcal/mol
DOCKED: USER        Electrostatic Energy            =   -2.66 kcal/mol
DOCKED: USER    (2) Final Total Internal Energy     =   -0.60 kcal/mol
DOCKED: USER    (3) Torsional Free Energy           =   +2.98 kcal/mol
DOCKED: USER    (4) Unbound System's Energy  [=(2)] =   -0.60 kcal/mol
DOCKED: USER    
DOCKED: USER    
DOCKED: USER    NEWDPF move heme_Fe_opt.pdbqt
DOCKED: USER    NEWDPF about -0.174000 -0.001000 -0.047000
DOCKED: USER    NEWDPF tran0 41.334464 29.078407 16.874521
DOCKED: USER    NEWDPF quaternion0 -0.101987 -0.934895 -0.066527 0.333382
DOCKED: USER    NEWDPF axisangle0 -0.108175 -0.991624 -0.070563 141.051597
DOCKED: USER    NEWDPF quat0 -0.108175 -0.991624 -0.070563 141.051597
DOCKED: USER    NEWDPF dihe0 86.38 51.62 61.58 -143.62 166.52 -43.96 34.57 -52.27 176.06 15.68 
DOCKED: USER  keepresnum = 1 
DOCKED: USER  
DOCKED: REMARK  10 active torsions:
DOCKED: REMARK  status: ('A' for Active; 'I' for Inactive)
DOCKED: REMARK    1  A    between atoms: C_6  and  C_10 
DOCKED: REMARK    2  A    between atoms: C_10  and  C_11 
DOCKED: REMARK    3  A    between atoms: C_11  and  C_12 
DOCKED: REMARK    4  A    between atoms: C_12  and  O_14 
DOCKED: REMARK    5  A    between atoms: C_17  and  C_20 
DOCKED: REMARK    6  A    between atoms: C_24  and  C_27 
DOCKED: REMARK    7  A    between atoms: C_31  and  C_34 
DOCKED: REMARK    8  A    between atoms: C_34  and  C_35 
DOCKED: REMARK    9  A    between atoms: C_35  and  C_36 
DOCKED: REMARK   10  A    between atoms: C_36  and  O_38 
DOCKED: USER                              x       y       z     vdW  Elec       q    Type
DOCKED: USER                           _______ _______ _______ _____ _____    ______ ____
DOCKED: ROOT
DOCKED: ATOM      1  C   UNL d   1      43.164  28.586  17.662 -0.17 +0.02    +0.064 C 
DOCKED: ATOM      2  C   UNL d   1      39.790  26.207  14.945 -0.39 +0.01    +0.064 A 
DOCKED: ATOM      3  C   UNL d   1      37.697  30.420  13.979 -0.32 +0.01    +0.064 C 
DOCKED: ATOM      4  C   UNL d   1      40.891  32.731  16.690 -0.48 +0.01    +0.064 C 
DOCKED: ATOM      5  C   UNL d   1      42.359  27.516  17.055 -0.28 +0.02    +0.066 A 
DOCKED: ATOM      6  C   UNL d   1      42.596  26.161  17.214 -0.34 -0.01    -0.021 A 
DOCKED: ATOM      7  C   UNL d   1      41.661  25.501  16.456 -0.36 -0.01    -0.025 A 
DOCKED: ATOM      8  C   UNL d   1      40.888  26.480  15.863 -0.36 +0.02    +0.066 A 
DOCKED: ATOM      9  C   UNL d   1      41.515  24.015  16.331 -0.52 +0.01    +0.051 C 
DOCKED: ATOM     10  C   UNL d   1      38.993  27.130  14.404 -0.35 +0.01    +0.066 A 
DOCKED: ATOM     11  C   UNL d   1      38.023  26.847  13.439 -0.43 -0.00    -0.021 A 
DOCKED: ATOM     12  C   UNL d   1      37.416  28.048  13.132 -0.47 +0.00    +0.000 A 
DOCKED: ATOM     13  C   UNL d   1      38.060  29.013  13.927 -0.33 +0.01    +0.070 A 
DOCKED: ATOM     14  C   UNL d   1      37.734  25.508  12.791 -0.45 +0.01    +0.052 C 
DOCKED: ATOM     15  C   UNL d   1      38.347  31.362  14.704 -0.33 +0.01    +0.066 A 
DOCKED: ATOM     16  C   UNL d   1      37.909  32.676  14.806 -0.37 -0.00    -0.021 A 
DOCKED: ATOM     17  C   UNL d   1      38.831  33.346  15.584 -0.43 +0.00    +0.000 A 
DOCKED: ATOM     18  C   UNL d   1      39.813  32.423  15.936 -0.37 +0.01    +0.070 A 
DOCKED: ATOM     19  C   UNL d   1      36.687  33.289  14.176 -0.32 +0.00    +0.052 C 
DOCKED: ATOM     20  C   UNL d   1      41.912  31.773  17.131 -0.39 +0.01    +0.066 A 
DOCKED: ATOM     21  C   UNL d   1      43.130  32.110  17.739 -0.32 -0.01    -0.025 A 
DOCKED: ATOM     22  C   UNL d   1      43.756  30.913  18.019 -0.32 -0.01    -0.021 A 
DOCKED: ATOM     23  C   UNL d   1      42.903  29.899  17.568 -0.30 +0.02    +0.066 A 
DOCKED: ATOM     24  C   UNL d   1      43.686  33.483  18.040 -0.28 +0.01    +0.051 C 
DOCKED: ATOM     25  N   UNL d   1      41.309  27.705  16.237 -0.23 -0.09    -0.248 N 
DOCKED: ATOM     26  N   UNL d   1      39.026  28.455  14.696 -0.00 -0.07    -0.248 N 
DOCKED: ATOM     27  N   UNL d   1      39.494  31.193  15.432 -0.18 -0.05    -0.248 N 
DOCKED: ATOM     28  N   UNL d   1      41.800  30.431  16.987 -0.23 -0.07    -0.248 N 
DOCKED: ATOM     29 FE   UNL d   1      40.413  29.445  15.842 -0.08 +0.00    +0.000 Fe
DOCKED: ENDROOT
DOCKED: BRANCH   6  30
DOCKED: ATOM     30  C   UNL d   1      43.644  25.522  18.060 -0.31 +0.02    +0.052 C 
DOCKED: BRANCH  30  31
DOCKED: ATOM     31  C   UNL d   1      44.889  25.213  17.236 -0.22 +0.07    +0.115 C 
DOCKED: BRANCH  31  32
DOCKED: ATOM     32  C   UNL d   1      45.535  23.942  17.715 -0.22 +0.11    +0.139 C 
DOCKED: ATOM     33  O   UNL d   1      46.393  23.388  17.043 -0.36 -1.06    -0.650 OA
DOCKED: BRANCH  32  34
DOCKED: ATOM     34  O   UNL d   1      45.173  23.403  18.891 -0.03 -0.49    -0.776 OA
DOCKED: ATOM     35  H   UNL d   1      45.679  23.626  19.685 +0.05 +0.10    +0.167 HD
DOCKED: ENDBRANCH  32  34
DOCKED: ENDBRANCH  31  32
DOCKED: ENDBRANCH  30  31
DOCKED: ENDBRANCH   6  30
DOCKED: BRANCH  22  36
DOCKED: ATOM     36  C   UNL d   1      45.119  30.758  18.640 -0.26 +0.02    +0.052 C 
DOCKED: BRANCH  36  37
DOCKED: ATOM     37  C   UNL d   1      44.984  30.146  20.026 -0.05 +0.09    +0.115 C 
DOCKED: BRANCH  37  38
DOCKED: ATOM     38  C   UNL d   1      45.859  28.932  20.166 -0.17 +0.13    +0.139 C 
DOCKED: ATOM     39  O   UNL d   1      45.917  28.097  19.276 +0.02 -0.41    -0.650 OA
DOCKED: BRANCH  38  40
DOCKED: ATOM     40  O   UNL d   1      46.586  28.754  21.283 -0.40 -1.34    -0.776 OA
DOCKED: ATOM     41  H   UNL d   1      47.533  28.570  21.204 +0.02 +0.20    +0.167 HD
DOCKED: ENDBRANCH  38  40
DOCKED: ENDBRANCH  37  38
DOCKED: ENDBRANCH  36  37
DOCKED: ENDBRANCH  22  36
DOCKED: BRANCH  12  42
DOCKED: ATOM     42  C   UNL d   1      36.318  28.222  12.131 -0.68 +0.00    +0.004 C 
DOCKED: ATOM     43  C   UNL d   1      35.068  28.504  12.521 -0.61 +0.00    +0.012 C 
DOCKED: ENDBRANCH  12  42
DOCKED: BRANCH  17  44
DOCKED: ATOM     44  C   UNL d   1      38.765  34.770  15.982 -0.47 +0.00    +0.004 C 
DOCKED: ATOM     45  C   UNL d   1      39.317  35.720  15.221 -0.58 +0.00    +0.012 C 
DOCKED: ENDBRANCH  17  44
DOCKED: TORSDOF 10
DOCKED: TER
DOCKED: ENDMDL
________________________________________________________________________________


	BEGINNING GENETIC ALGORITHM DOCKING 8 of 100
Run: 8 Seed: 1529905571 680895082 [ Run 8 of 100 GA/GALS ]
Beginning LAMARCKIAN GENETIC ALGORITHM (LGA), with a maximum of 25000000 energy evaluations.

Final-Value: -16.955


	FINAL GENETIC ALGORITHM DOCKED STATE
	_______________________________________________


Detailed state:  trans 41.428 29.000 16.871 quatxyzw -0.115040 -0.935615 -0.068845 0.326575 center -0.174 -0.001 -0.047 ntor 10 48.2379 27.2551 57.1201 -131.8307 -178.0592 148.9006 -33.5986 -61.4340 161.4167 9.1835
State:	 41.428  29.000  16.871  -0.122 -0.990 -0.073 141.878     48.24   27.26   57.12 -131.83 -178.06  148.90  -33.60  -61.43  161.42    9.18

DOCKED: MODEL        8
DOCKED: USER    Run = 8
DOCKED: USER    DPF = D:/Protein_go_brrr/autodock/final/2DN3/heme_Fe/dock.dpf
DOCKED: USER  
DOCKED: USER    Estimated Free Energy of Binding    =  -12.52 kcal/mol  [=(1)+(2)+(3)-(4)]
DOCKED: USER    Estimated Inhibition Constant, Ki   =  662.43 pM (picomolar)  [Temperature = 298.15 K]
DOCKED: USER    
DOCKED: USER    (1) Final Intermolecular Energy     =  -15.51 kcal/mol
DOCKED: USER        vdW + Hbond + desolv Energy     =  -13.16 kcal/mol
DOCKED: USER        Electrostatic Energy            =   -2.35 kcal/mol
DOCKED: USER    (2) Final Total Internal Energy     =   -1.45 kcal/mol
DOCKED: USER    (3) Torsional Free Energy           =   +2.98 kcal/mol
DOCKED: USER    (4) Unbound System's Energy  [=(2)] =   -1.45 kcal/mol
DOCKED: USER    
DOCKED: USER    
DOCKED: USER    NEWDPF move heme_Fe_opt.pdbqt
DOCKED: USER    NEWDPF about -0.174000 -0.001000 -0.047000
DOCKED: USER    NEWDPF tran0 41.428225 29.000051 16.870602
DOCKED: USER    NEWDPF quaternion0 -0.115040 -0.935615 -0.068845 0.326575
DOCKED: USER    NEWDPF axisangle0 -0.121713 -0.989889 -0.072838 141.877998
DOCKED: USER    NEWDPF quat0 -0.121713 -0.989889 -0.072838 141.877998
DOCKED: USER    NEWDPF dihe0 48.24 27.26 57.12 -131.83 -178.06 148.90 -33.60 -61.43 161.42 9.18 
DOCKED: USER  keepresnum = 1 
DOCKED: USER  
DOCKED: REMARK  10 active torsions:
DOCKED: REMARK  status: ('A' for Active; 'I' for Inactive)
DOCKED: REMARK    1  A    between atoms: C_6  and  C_10 
DOCKED: REMARK    2  A    between atoms: C_10  and  C_11 
DOCKED: REMARK    3  A    between atoms: C_11  and  C_12 
DOCKED: REMARK    4  A    between atoms: C_12  and  O_14 
DOCKED: REMARK    5  A    between atoms: C_17  and  C_20 
DOCKED: REMARK    6  A    between atoms: C_24  and  C_27 
DOCKED: REMARK    7  A    between atoms: C_31  and  C_34 
DOCKED: REMARK    8  A    between atoms: C_34  and  C_35 
DOCKED: REMARK    9  A    between atoms: C_35  and  C_36 
DOCKED: REMARK   10  A    between atoms: C_36  and  O_38 
DOCKED: USER                              x       y       z     vdW  Elec       q    Type
DOCKED: USER                           _______ _______ _______ _____ _____    ______ ____
DOCKED: ROOT
DOCKED: ATOM      1  C   UNL d   1      43.258  28.456  17.624 -0.20 +0.02    +0.064 C 
DOCKED: ATOM      2  C   UNL d   1      39.793  26.191  14.923 -0.40 +0.01    +0.064 A 
DOCKED: ATOM      3  C   UNL d   1      37.780  30.463  14.048 -0.34 +0.01    +0.064 C 
DOCKED: ATOM      4  C   UNL d   1      41.062  32.664  16.745 -0.48 +0.01    +0.064 C 
DOCKED: ATOM      5  C   UNL d   1      42.421  27.414  17.014 -0.31 +0.02    +0.066 A 
DOCKED: ATOM      6  C   UNL d   1      42.631  26.051  17.150 -0.34 -0.01    -0.021 A 
DOCKED: ATOM      7  C   UNL d   1      41.670  25.423  16.397 -0.36 -0.01    -0.025 A 
DOCKED: ATOM      8  C   UNL d   1      40.911  26.427  15.829 -0.36 +0.02    +0.066 A 
DOCKED: ATOM      9  C   UNL d   1      41.490  23.943  16.253 -0.53 +0.01    +0.051 C 
DOCKED: ATOM     10  C   UNL d   1      39.009  27.139  14.407 -0.35 +0.01    +0.066 A 
DOCKED: ATOM     11  C   UNL d   1      38.019  26.891  13.453 -0.43 -0.00    -0.021 A 
DOCKED: ATOM     12  C   UNL d   1      37.435  28.110  13.171 -0.47 +0.00    +0.000 A 
DOCKED: ATOM     13  C   UNL d   1      38.111  29.048  13.970 -0.32 +0.01    +0.070 A 
DOCKED: ATOM     14  C   UNL d   1      37.692  25.568  12.790 -0.46 +0.01    +0.052 C 
DOCKED: ATOM     15  C   UNL d   1      38.461  31.379  14.776 -0.34 +0.01    +0.066 A 
DOCKED: ATOM     16  C   UNL d   1      38.053  32.701  14.903 -0.38 -0.00    -0.021 A 
DOCKED: ATOM     17  C   UNL d   1      39.000  33.339  15.678 -0.42 +0.00    +0.000 A 
DOCKED: ATOM     18  C   UNL d   1      39.967  32.390  16.002 -0.38 +0.01    +0.070 A 
DOCKED: ATOM     19  C   UNL d   1      36.836  33.349  14.300 -0.34 +0.00    +0.052 C 
DOCKED: ATOM     20  C   UNL d   1      42.068  31.678  17.157 -0.38 +0.01    +0.066 A 
DOCKED: ATOM     21  C   UNL d   1      43.302  31.980  17.751 -0.30 -0.01    -0.025 A 
DOCKED: ATOM     22  C   UNL d   1      43.905  30.765  18.005 -0.31 -0.01    -0.021 A 
DOCKED: ATOM     23  C   UNL d   1      43.024  29.776  17.553 -0.30 +0.02    +0.066 A 
DOCKED: ATOM     24  C   UNL d   1      43.892  33.335  18.064 -0.19 +0.01    +0.051 C 
DOCKED: ATOM     25  N   UNL d   1      41.364  27.637  16.214 -0.25 -0.08    -0.248 N 
DOCKED: ATOM     26  N   UNL d   1      39.076  28.458  14.717 +0.02 -0.07    -0.248 N 
DOCKED: ATOM     27  N   UNL d   1      39.614  31.175  15.485 -0.17 -0.06    -0.248 N 
DOCKED: ATOM     28  N   UNL d   1      41.925  30.340  16.996 -0.23 -0.07    -0.248 N 
DOCKED: ATOM     29 FE   UNL d   1      40.501  29.401  15.857 -0.08 +0.00    +0.000 Fe
DOCKED: ENDROOT
DOCKED: BRANCH   6  30
DOCKED: ATOM     30  C   UNL d   1      43.676  25.377  17.972 -0.31 +0.02    +0.052 C 
DOCKED: BRANCH  30  31
DOCKED: ATOM     31  C   UNL d   1      44.733  24.735  17.080 -0.18 +0.07    +0.115 C 
DOCKED: BRANCH  31  32
DOCKED: ATOM     32  C   UNL d   1      46.083  24.793  17.739 -0.22 +0.10    +0.139 C 
DOCKED: ATOM     33  O   UNL d   1      47.074  24.359  17.168 -0.17 -0.79    -0.650 OA
DOCKED: BRANCH  32  34
DOCKED: ATOM     34  O   UNL d   1      46.213  25.325  18.966 +0.09 -0.47    -0.776 OA
DOCKED: ATOM     35  H   UNL d   1      46.912  25.974  19.125 +0.04 +0.10    +0.167 HD
DOCKED: ENDBRANCH  32  34
DOCKED: ENDBRANCH  31  32
DOCKED: ENDBRANCH  30  31
DOCKED: ENDBRANCH   6  30
DOCKED: BRANCH  22  36
DOCKED: ATOM     36  C   UNL d   1      45.273  30.571  18.604 -0.25 +0.02    +0.052 C 
DOCKED: BRANCH  36  37
DOCKED: ATOM     37  C   UNL d   1      45.141  30.093  20.042 -0.08 +0.09    +0.115 C 
DOCKED: BRANCH  37  38
DOCKED: ATOM     38  C   UNL d   1      45.749  28.730  20.215 -0.17 +0.14    +0.139 C 
DOCKED: ATOM     39  O   UNL d   1      46.257  28.402  21.277 -0.30 -1.16    -0.650 OA
DOCKED: BRANCH  38  40
DOCKED: ATOM     40  O   UNL d   1      45.740  27.857  19.192 +0.07 -0.48    -0.776 OA
DOCKED: ATOM     41  H   UNL d   1      45.753  26.909  19.383 +0.06 +0.10    +0.167 HD
DOCKED: ENDBRANCH  38  40
DOCKED: ENDBRANCH  37  38
DOCKED: ENDBRANCH  36  37
DOCKED: ENDBRANCH  22  36
DOCKED: BRANCH  12  42
DOCKED: ATOM     42  C   UNL d   1      36.327  28.321  12.189 -0.68 +0.00    +0.004 C 
DOCKED: ATOM     43  C   UNL d   1      35.072  28.538  12.603 -0.62 +0.00    +0.012 C 
DOCKED: ENDBRANCH  12  42
DOCKED: BRANCH  17  44
DOCKED: ATOM     44  C   UNL d   1      38.971  34.758  16.097 -0.48 +0.00    +0.004 C 
DOCKED: ATOM     45  C   UNL d   1      39.318  35.731  15.247 -0.57 +0.00    +0.012 C 
DOCKED: ENDBRANCH  17  44
DOCKED: TORSDOF 10
DOCKED: TER
DOCKED: ENDMDL
________________________________________________________________________________


	BEGINNING GENETIC ALGORITHM DOCKING 9 of 100
Run: 9 Seed: 1438122659 249438200 [ Run 9 of 100 GA/GALS ]
Beginning LAMARCKIAN GENETIC ALGORITHM (LGA), with a maximum of 25000000 energy evaluations.

Final-Value: -9.268


	FINAL GENETIC ALGORITHM DOCKED STATE
	_______________________________________________


Detailed state:  trans 20.306 19.495 2.426 quatxyzw 0.649980 0.409316 -0.522803 0.369681 center -0.174 -0.001 -0.047 ntor 10 -122.0820 88.4306 85.6784 -111.3494 -172.4072 -114.9675 90.9011 -83.4792 -144.9702 4.9616
State:	 20.306  19.495   2.426   0.700  0.441 -0.563 136.608   -122.08   88.43   85.68 -111.35 -172.41 -114.97   90.90  -83.48 -144.97    4.96

DOCKED: MODEL        9
DOCKED: USER    Run = 9
DOCKED: USER    DPF = D:/Protein_go_brrr/autodock/final/2DN3/heme_Fe/dock.dpf
DOCKED: USER  
DOCKED: USER    Estimated Free Energy of Binding    =   -5.55 kcal/mol  [=(1)+(2)+(3)-(4)]
DOCKED: USER    Estimated Inhibition Constant, Ki   =   84.84 uM (micromolar)  [Temperature = 298.15 K]
DOCKED: USER    
DOCKED: USER    (1) Final Intermolecular Energy     =   -8.54 kcal/mol
DOCKED: USER        vdW + Hbond + desolv Energy     =   -6.49 kcal/mol
DOCKED: USER        Electrostatic Energy            =   -2.04 kcal/mol
DOCKED: USER    (2) Final Total Internal Energy     =   -0.73 kcal/mol
DOCKED: USER    (3) Torsional Free Energy           =   +2.98 kcal/mol
DOCKED: USER    (4) Unbound System's Energy  [=(2)] =   -0.73 kcal/mol
DOCKED: USER    
DOCKED: USER    
DOCKED: USER    NEWDPF move heme_Fe_opt.pdbqt
DOCKED: USER    NEWDPF about -0.174000 -0.001000 -0.047000
DOCKED: USER    NEWDPF tran0 20.305543 19.495243 2.425655
DOCKED: USER    NEWDPF quaternion0 0.649980 0.409316 -0.522803 0.369681
DOCKED: USER    NEWDPF axisangle0 0.699536 0.440523 -0.562663 136.608110
DOCKED: USER    NEWDPF quat0 0.699536 0.440523 -0.562663 136.608110
DOCKED: USER    NEWDPF dihe0 -122.08 88.43 85.68 -111.35 -172.41 -114.97 90.90 -83.48 -144.97 4.96 
DOCKED: USER  keepresnum = 1 
DOCKED: USER  
DOCKED: REMARK  10 active torsions:
DOCKED: REMARK  status: ('A' for Active; 'I' for Inactive)
DOCKED: REMARK    1  A    between atoms: C_6  and  C_10 
DOCKED: REMARK    2  A    between atoms: C_10  and  C_11 
DOCKED: REMARK    3  A    between atoms: C_11  and  C_12 
DOCKED: REMARK    4  A    between atoms: C_12  and  O_14 
DOCKED: REMARK    5  A    between atoms: C_17  and  C_20 
DOCKED: REMARK    6  A    between atoms: C_24  and  C_27 
DOCKED: REMARK    7  A    between atoms: C_31  and  C_34 
DOCKED: REMARK    8  A    between atoms: C_34  and  C_35 
DOCKED: REMARK    9  A    between atoms: C_35  and  C_36 
DOCKED: REMARK   10  A    between atoms: C_36  and  O_38 
DOCKED: USER                              x       y       z     vdW  Elec       q    Type
DOCKED: USER                           _______ _______ _______ _____ _____    ______ ____
DOCKED: ROOT
DOCKED: ATOM      1  C   UNL d   1      19.540  17.727   3.130 -0.10 +0.01    +0.064 C 
DOCKED: ATOM      2  C   UNL d   1      19.679  22.373   4.809 -0.25 +0.01    +0.064 A 
DOCKED: ATOM      3  C   UNL d   1      20.923  23.852   0.412 -0.19 -0.00    +0.064 C 
DOCKED: ATOM      4  C   UNL d   1      20.898  19.351  -1.208 -0.17 -0.01    +0.064 C 
DOCKED: ATOM      5  C   UNL d   1      19.545  18.888   4.031 -0.08 +0.01    +0.066 A 
DOCKED: ATOM      6  C   UNL d   1      19.340  18.828   5.399 -0.14 -0.01    -0.021 A 
DOCKED: ATOM      7  C   UNL d   1      19.375  20.119   5.864 -0.22 -0.01    -0.025 A 
DOCKED: ATOM      8  C   UNL d   1      19.601  20.919   4.760 -0.19 +0.01    +0.066 A 
DOCKED: ATOM      9  C   UNL d   1      19.219  20.549   7.291 -0.24 +0.02    +0.051 C 
DOCKED: ATOM     10  C   UNL d   1      19.952  23.163   3.770 -0.26 +0.01    +0.066 A 
DOCKED: ATOM     11  C   UNL d   1      19.907  24.558   3.824 -0.33 -0.00    -0.021 A 
DOCKED: ATOM     12  C   UNL d   1      20.246  25.009   2.563 -0.32 +0.00    +0.000 A 
DOCKED: ATOM     13  C   UNL d   1      20.474  23.854   1.796 -0.19 +0.00    +0.070 A 
DOCKED: ATOM     14  C   UNL d   1      19.494  25.420   5.000 -0.31 +0.01    +0.052 C 
DOCKED: ATOM     15  C   UNL d   1      21.094  22.743  -0.346 -0.14 +0.00    +0.066 A 
DOCKED: ATOM     16  C   UNL d   1      21.620  22.777  -1.631 -0.14 +0.00    -0.021 A 
DOCKED: ATOM     17  C   UNL d   1      21.610  21.481  -2.102 -0.14 -0.00    +0.000 A 
DOCKED: ATOM     18  C   UNL d   1      21.074  20.685  -1.092 -0.11 -0.00    +0.070 A 
DOCKED: ATOM     19  C   UNL d   1      22.090  23.983  -2.399 -0.16 -0.01    +0.052 C 
DOCKED: ATOM     20  C   UNL d   1      20.394  18.472  -0.145 -0.14 -0.00    +0.066 A 
DOCKED: ATOM     21  C   UNL d   1      20.019  17.132  -0.312 -0.11 +0.00    -0.025 A 
DOCKED: ATOM     22  C   UNL d   1      19.648  16.685   0.939 -0.08 -0.00    -0.021 A 
DOCKED: ATOM     23  C   UNL d   1      19.804  17.767   1.815 -0.04 +0.01    +0.066 A 
DOCKED: ATOM     24  C   UNL d   1      20.003  16.307  -1.578 -0.09 -0.00    +0.051 C 
DOCKED: ATOM     25  N   UNL d   1      19.713  20.166   3.648 -0.06 -0.05    -0.248 N 
DOCKED: ATOM     26  N   UNL d   1      20.287  22.728   2.528 -0.13 -0.04    -0.248 N 
DOCKED: ATOM     27  N   UNL d   1      20.797  21.453   0.004 -0.12 -0.01    -0.248 N 
DOCKED: ATOM     28  N   UNL d   1      20.217  18.867   1.139 -0.07 -0.02    -0.248 N 
DOCKED: ATOM     29 FE   UNL d   1      20.252  20.797   1.832 -0.04 +0.00    +0.000 Fe
DOCKED: ENDROOT
DOCKED: BRANCH   6  30
DOCKED: ATOM     30  C   UNL d   1      19.142  17.606   6.229 -0.13 +0.02    +0.052 C 
DOCKED: BRANCH  30  31
DOCKED: ATOM     31  C   UNL d   1      17.974  16.779   5.702 -0.13 +0.06    +0.115 C 
DOCKED: BRANCH  31  32
DOCKED: ATOM     32  C   UNL d   1      16.687  17.220   6.341 +0.04 +0.18    +0.139 C 
DOCKED: ATOM     33  O   UNL d   1      15.653  16.593   6.156 -0.03 -1.10    -0.650 OA
DOCKED: BRANCH  32  34
DOCKED: ATOM     34  O   UNL d   1      16.661  18.312   7.123 -0.41 -1.10    -0.776 OA
DOCKED: ATOM     35  H   UNL d   1      16.948  19.160   6.755 +0.08 +0.13    +0.167 HD
DOCKED: ENDBRANCH  32  34
DOCKED: ENDBRANCH  31  32
DOCKED: ENDBRANCH  30  31
DOCKED: ENDBRANCH   6  30
DOCKED: BRANCH  22  36
DOCKED: ATOM     36  C   UNL d   1      19.126  15.310   1.264 -0.03 +0.00    +0.052 C 
DOCKED: BRANCH  36  37
DOCKED: ATOM     37  C   UNL d   1      20.232  14.477   1.894 -0.00 +0.01    +0.115 C 
DOCKED: BRANCH  37  38
DOCKED: ATOM     38  C   UNL d   1      20.149  14.519   3.394 +0.00 +0.02    +0.139 C 
DOCKED: ATOM     39  O   UNL d   1      21.039  15.034   4.055 +0.02 -0.08    -0.650 OA
DOCKED: BRANCH  38  40
DOCKED: ATOM     40  O   UNL d   1      19.088  13.983   4.023 +0.03 -0.14    -0.776 OA
DOCKED: ATOM     41  H   UNL d   1      18.327  14.546   4.224 +0.02 +0.04    +0.167 HD
DOCKED: ENDBRANCH  38  40
DOCKED: ENDBRANCH  37  38
DOCKED: ENDBRANCH  36  37
DOCKED: ENDBRANCH  22  36
DOCKED: BRANCH  12  42
DOCKED: ATOM     42  C   UNL d   1      20.315  26.447   2.158 -0.50 -0.00    +0.004 C 
DOCKED: ATOM     43  C   UNL d   1      21.360  26.918   1.464 -0.54 -0.00    +0.012 C 
DOCKED: ENDBRANCH  12  42
DOCKED: BRANCH  17  44
DOCKED: ATOM     44  C   UNL d   1      22.101  21.030  -3.424 -0.13 -0.00    +0.004 C 
DOCKED: ATOM     45  C   UNL d   1      21.601  21.544  -4.552 -0.18 -0.00    +0.012 C 
DOCKED: ENDBRANCH  17  44
DOCKED: TORSDOF 10
DOCKED: TER
DOCKED: ENDMDL
________________________________________________________________________________


	BEGINNING GENETIC ALGORITHM DOCKING 10 of 100
Run: 10 Seed: 1231819407 854792786 [ Run 10 of 100 GA/GALS ]
Beginning LAMARCKIAN GENETIC ALGORITHM (LGA), with a maximum of 25000000 energy evaluations.

Final-Value: -12.823


	FINAL GENETIC ALGORITHM DOCKED STATE
	_______________________________________________


Detailed state:  trans 44.629 22.301 18.156 quatxyzw -0.071788 0.893432 0.121620 -0.426421 center -0.174 -0.001 -0.047 ntor 10 149.9093 76.3881 -0.0875 177.5194 92.3505 -99.7010 -170.3513 47.0823 -179.9819 -35.9390
State:	 44.629  22.301  18.156  -0.079  0.988  0.134 -129.519    149.91   76.39   -0.09  177.52   92.35  -99.70 -170.35   47.08 -179.98  -35.94

DOCKED: MODEL       10
DOCKED: USER    Run = 10
DOCKED: USER    DPF = D:/Protein_go_brrr/autodock/final/2DN3/heme_Fe/dock.dpf
DOCKED: USER  
DOCKED: USER    Estimated Free Energy of Binding    =   -9.32 kcal/mol  [=(1)+(2)+(3)-(4)]
DOCKED: USER    Estimated Inhibition Constant, Ki   =  147.30 nM (nanomolar)  [Temperature = 298.15 K]
DOCKED: USER    
DOCKED: USER    (1) Final Intermolecular Energy     =  -12.30 kcal/mol
DOCKED: USER        vdW + Hbond + desolv Energy     =   -9.07 kcal/mol
DOCKED: USER        Electrostatic Energy            =   -3.23 kcal/mol
DOCKED: USER    (2) Final Total Internal Energy     =   -0.52 kcal/mol
DOCKED: USER    (3) Torsional Free Energy           =   +2.98 kcal/mol
DOCKED: USER    (4) Unbound System's Energy  [=(2)] =   -0.52 kcal/mol
DOCKED: USER    
DOCKED: USER    
DOCKED: USER    NEWDPF move heme_Fe_opt.pdbqt
DOCKED: USER    NEWDPF about -0.174000 -0.001000 -0.047000
DOCKED: USER    NEWDPF tran0 44.628548 22.301086 18.156263
DOCKED: USER    NEWDPF quaternion0 -0.071788 0.893432 0.121620 -0.426421
DOCKED: USER    NEWDPF axisangle0 -0.079366 0.987736 0.134458 -129.518706
DOCKED: USER    NEWDPF quat0 -0.079366 0.987736 0.134458 -129.518706
DOCKED: USER    NEWDPF dihe0 149.91 76.39 -0.09 177.52 92.35 -99.70 -170.35 47.08 -179.98 -35.94 
DOCKED: USER  keepresnum = 1 
DOCKED: USER  
DOCKED: REMARK  10 active torsions:
DOCKED: REMARK  status: ('A' for Active; 'I' for Inactive)
DOCKED: REMARK    1  A    between atoms: C_6  and  C_10 
DOCKED: REMARK    2  A    between atoms: C_10  and  C_11 
DOCKED: REMARK    3  A    between atoms: C_11  and  C_12 
DOCKED: REMARK    4  A    between atoms: C_12  and  O_14 
DOCKED: REMARK    5  A    between atoms: C_17  and  C_20 
DOCKED: REMARK    6  A    between atoms: C_24  and  C_27 
DOCKED: REMARK    7  A    between atoms: C_31  and  C_34 
DOCKED: REMARK    8  A    between atoms: C_34  and  C_35 
DOCKED: REMARK    9  A    between atoms: C_35  and  C_36 
DOCKED: REMARK   10  A    between atoms: C_36  and  O_38 
DOCKED: USER                              x       y       z     vdW  Elec       q    Type
DOCKED: USER                           _______ _______ _______ _____ _____    ______ ____
DOCKED: ROOT
DOCKED: ATOM      1  C   UNL d   1      46.278  22.441  19.368 -0.16 +0.04    +0.064 C 
DOCKED: ATOM      2  C   UNL d   1      44.619  19.105  16.121 -0.17 +0.03    +0.064 A 
DOCKED: ATOM      3  C   UNL d   1      41.542  22.383  14.431 -0.31 +0.01    +0.064 C 
DOCKED: ATOM      4  C   UNL d   1      43.060  25.594  17.636 -0.34 +0.02    +0.064 C 
DOCKED: ATOM      5  C   UNL d   1      46.039  21.173  18.667 -0.17 +0.05    +0.066 A 
DOCKED: ATOM      6  C   UNL d   1      46.666  19.974  18.964 -0.16 -0.01    -0.021 A 
DOCKED: ATOM      7  C   UNL d   1      46.207  19.049  18.060 -0.14 -0.01    -0.025 A 
DOCKED: ATOM      8  C   UNL d   1      45.317  19.719  17.244 -0.19 +0.04    +0.066 A 
DOCKED: ATOM      9  C   UNL d   1      46.593  17.602  18.003 -0.07 +0.02    +0.051 C 
DOCKED: ATOM     10  C   UNL d   1      43.713  19.714  15.354 -0.24 +0.03    +0.066 A 
DOCKED: ATOM     11  C   UNL d   1      43.147  19.135  14.215 -0.25 -0.01    -0.021 A 
DOCKED: ATOM     12  C   UNL d   1      42.268  20.067  13.700 -0.42 +0.00    +0.000 A 
DOCKED: ATOM     13  C   UNL d   1      42.350  21.180  14.555 -0.29 +0.02    +0.070 A 
DOCKED: ATOM     14  C   UNL d   1      43.478  17.787  13.609 -0.13 +0.01    +0.052 C 
DOCKED: ATOM     15  C   UNL d   1      41.654  23.477  15.220 -0.41 +0.02    +0.066 A 
DOCKED: ATOM     16  C   UNL d   1      40.796  24.566  15.133 -0.50 -0.00    -0.021 A 
DOCKED: ATOM     17  C   UNL d   1      41.234  25.495  16.054 -0.36 +0.00    +0.000 A 
DOCKED: ATOM     18  C   UNL d   1      42.354  24.952  16.679 -0.27 +0.02    +0.070 A 
DOCKED: ATOM     19  C   UNL d   1      39.625  24.740  14.204 -0.49 +0.01    +0.052 C 
DOCKED: ATOM     20  C   UNL d   1      44.205  25.029  18.359 -0.23 +0.03    +0.066 A 
DOCKED: ATOM     21  C   UNL d   1      45.065  25.747  19.202 -0.17 -0.01    -0.025 A 
DOCKED: ATOM     22  C   UNL d   1      45.966  24.827  19.695 -0.13 -0.01    -0.021 A 
DOCKED: ATOM     23  C   UNL d   1      45.628  23.591  19.131 -0.16 +0.04    +0.066 A 
DOCKED: ATOM     24  C   UNL d   1      45.049  27.222  19.530 -0.20 +0.03    +0.051 C 
DOCKED: ATOM     25  N   UNL d   1      45.209  21.009  17.621 -0.16 -0.19    -0.248 N 
DOCKED: ATOM     26  N   UNL d   1      43.237  20.969  15.558 -0.19 -0.09    -0.248 N 
DOCKED: ATOM     27  N   UNL d   1      42.587  23.694  16.198 -0.18 -0.08    -0.248 N 
DOCKED: ATOM     28  N   UNL d   1      44.581  23.729  18.282 -0.15 -0.14    -0.248 N 
DOCKED: ATOM     29 FE   UNL d   1      43.909  22.351  16.920 -0.07 +0.00    +0.000 Fe
DOCKED: ENDROOT
DOCKED: BRANCH   6  30
DOCKED: ATOM     30  C   UNL d   1      47.635  19.712  20.066 -0.10 +0.02    +0.052 C 
DOCKED: BRANCH  30  31
DOCKED: ATOM     31  C   UNL d   1      49.066  19.947  19.593 -0.03 +0.06    +0.115 C 
DOCKED: BRANCH  31  32
DOCKED: ATOM     32  C   UNL d   1      49.072  20.597  18.237 -0.01 +0.14    +0.139 C 
DOCKED: ATOM     33  O   UNL d   1      49.110  21.815  18.129 -0.06 -0.80    -0.650 OA
DOCKED: BRANCH  32  34
DOCKED: ATOM     34  O   UNL d   1      49.035  19.841  17.127 -0.49 -1.08    -0.776 OA
DOCKED: ATOM     35  H   UNL d   1      49.431  18.958  17.146 +0.01 +0.14    +0.167 HD
DOCKED: ENDBRANCH  32  34
DOCKED: ENDBRANCH  31  32
DOCKED: ENDBRANCH  30  31
DOCKED: ENDBRANCH   6  30
DOCKED: BRANCH  22  36
DOCKED: ATOM     36  C   UNL d   1      47.118  25.130  20.617 -0.06 +0.03    +0.052 C 
DOCKED: BRANCH  36  37
DOCKED: ATOM     37  C   UNL d   1      46.591  25.703  21.925 -0.09 +0.10    +0.115 C 
DOCKED: BRANCH  37  38
DOCKED: ATOM     38  C   UNL d   1      47.374  26.918  22.335 -0.01 +0.17    +0.139 C 
DOCKED: ATOM     39  O   UNL d   1      48.255  26.838  23.179 -0.00 -0.63    -0.650 OA
DOCKED: BRANCH  38  40
DOCKED: ATOM     40  O   UNL d   1      47.106  28.110  21.774 -0.21 -1.43    -0.776 OA
DOCKED: ATOM     41  H   UNL d   1      47.707  28.458  21.100 +0.02 +0.18    +0.167 HD
DOCKED: ENDBRANCH  38  40
DOCKED: ENDBRANCH  37  38
DOCKED: ENDBRANCH  36  37
DOCKED: ENDBRANCH  22  36
DOCKED: BRANCH  12  42
DOCKED: ATOM     42  C   UNL d   1      41.443  19.875  12.467 -0.19 +0.00    +0.004 C 
DOCKED: ATOM     43  C   UNL d   1      40.737  18.752  12.278 -0.34 +0.00    +0.012 C 
DOCKED: ENDBRANCH  12  42
DOCKED: BRANCH  17  44
DOCKED: ATOM     44  C   UNL d   1      40.610  26.808  16.332 -0.41 +0.00    +0.004 C 
DOCKED: ATOM     45  C   UNL d   1      41.340  27.928  16.328 -0.36 +0.00    +0.012 C 
DOCKED: ENDBRANCH  17  44
DOCKED: TORSDOF 10
DOCKED: TER
DOCKED: ENDMDL
________________________________________________________________________________


	BEGINNING GENETIC ALGORITHM DOCKING 11 of 100
Run: 11 Seed: 1705747321 704976228 [ Run 11 of 100 GA/GALS ]
Beginning LAMARCKIAN GENETIC ALGORITHM (LGA), with a maximum of 25000000 energy evaluations.

Final-Value: -18.161


	FINAL GENETIC ALGORITHM DOCKED STATE
	_______________________________________________


Detailed state:  trans 41.766 28.818 16.200 quatxyzw -0.228022 -0.094391 0.952373 -0.179117 center -0.174 -0.001 -0.047 ntor 10 44.1924 65.5859 65.4639 -142.4376 135.7269 -57.7430 -52.9337 31.6012 -168.1122 167.9502
State:	 41.766  28.818  16.200  -0.232 -0.096  0.968 -159.363     44.19   65.59   65.46 -142.44  135.73  -57.74  -52.93   31.60 -168.11  167.95

DOCKED: MODEL       11
DOCKED: USER    Run = 11
DOCKED: USER    DPF = D:/Protein_go_brrr/autodock/final/2DN3/heme_Fe/dock.dpf
DOCKED: USER  
DOCKED: USER    Estimated Free Energy of Binding    =  -12.96 kcal/mol  [=(1)+(2)+(3)-(4)]
DOCKED: USER    Estimated Inhibition Constant, Ki   =  316.41 pM (picomolar)  [Temperature = 298.15 K]
DOCKED: USER    
DOCKED: USER    (1) Final Intermolecular Energy     =  -15.94 kcal/mol
DOCKED: USER        vdW + Hbond + desolv Energy     =  -13.89 kcal/mol
DOCKED: USER        Electrostatic Energy            =   -2.05 kcal/mol
DOCKED: USER    (2) Final Total Internal Energy     =   -2.22 kcal/mol
DOCKED: USER    (3) Torsional Free Energy           =   +2.98 kcal/mol
DOCKED: USER    (4) Unbound System's Energy  [=(2)] =   -2.22 kcal/mol
DOCKED: USER    
DOCKED: USER    
DOCKED: USER    NEWDPF move heme_Fe_opt.pdbqt
DOCKED: USER    NEWDPF about -0.174000 -0.001000 -0.047000
DOCKED: USER    NEWDPF tran0 41.766301 28.818050 16.199836
DOCKED: USER    NEWDPF quaternion0 -0.228022 -0.094391 0.952373 -0.179117
DOCKED: USER    NEWDPF axisangle0 -0.231770 -0.095943 0.968028 -159.363348
DOCKED: USER    NEWDPF quat0 -0.231770 -0.095943 0.968028 -159.363348
DOCKED: USER    NEWDPF dihe0 44.19 65.59 65.46 -142.44 135.73 -57.74 -52.93 31.60 -168.11 167.95 
DOCKED: USER  keepresnum = 1 
DOCKED: USER  
DOCKED: REMARK  10 active torsions:
DOCKED: REMARK  status: ('A' for Active; 'I' for Inactive)
DOCKED: REMARK    1  A    between atoms: C_6  and  C_10 
DOCKED: REMARK    2  A    between atoms: C_10  and  C_11 
DOCKED: REMARK    3  A    between atoms: C_11  and  C_12 
DOCKED: REMARK    4  A    between atoms: C_12  and  O_14 
DOCKED: REMARK    5  A    between atoms: C_17  and  C_20 
DOCKED: REMARK    6  A    between atoms: C_24  and  C_27 
DOCKED: REMARK    7  A    between atoms: C_31  and  C_34 
DOCKED: REMARK    8  A    between atoms: C_34  and  C_35 
DOCKED: REMARK    9  A    between atoms: C_35  and  C_36 
DOCKED: REMARK   10  A    between atoms: C_36  and  O_38 
DOCKED: USER                              x       y       z     vdW  Elec       q    Type
DOCKED: USER                           _______ _______ _______ _____ _____    ______ ____
DOCKED: ROOT
DOCKED: ATOM      1  C   UNL d   1      43.183  28.059  17.476 -0.23 +0.02    +0.064 C 
DOCKED: ATOM      2  C   UNL d   1      41.227  32.533  16.712 -0.41 +0.01    +0.064 A 
DOCKED: ATOM      3  C   UNL d   1      37.689  30.481  14.195 -0.25 +0.01    +0.064 C 
DOCKED: ATOM      4  C   UNL d   1      39.622  26.152  14.833 -0.46 +0.01    +0.064 C 
DOCKED: ATOM      5  C   UNL d   1      43.006  29.517  17.424 -0.28 +0.02    +0.066 A 
DOCKED: ATOM      6  C   UNL d   1      43.896  30.440  17.947 -0.31 -0.01    -0.021 A 
DOCKED: ATOM      7  C   UNL d   1      43.350  31.683  17.738 -0.30 -0.01    -0.025 A 
DOCKED: ATOM      8  C   UNL d   1      42.147  31.469  17.094 -0.37 +0.02    +0.066 A 
DOCKED: ATOM      9  C   UNL d   1      43.966  32.993  18.120 -0.17 +0.01    +0.051 C 
DOCKED: ATOM     10  C   UNL d   1      40.088  32.360  16.040 -0.39 +0.01    +0.066 A 
DOCKED: ATOM     11  C   UNL d   1      39.172  33.384  15.789 -0.41 -0.00    -0.021 A 
DOCKED: ATOM     12  C   UNL d   1      38.134  32.815  15.079 -0.39 +0.00    +0.000 A 
DOCKED: ATOM     13  C   UNL d   1      38.470  31.457  14.939 -0.34 +0.01    +0.070 A 
DOCKED: ATOM     14  C   UNL d   1      39.248  34.821  16.263 -0.49 +0.01    +0.052 C 
DOCKED: ATOM     15  C   UNL d   1      37.981  29.163  14.101 -0.34 +0.01    +0.066 A 
DOCKED: ATOM     16  C   UNL d   1      37.266  28.282  13.299 -0.44 -0.00    -0.021 A 
DOCKED: ATOM     17  C   UNL d   1      37.819  27.032  13.484 -0.45 +0.00    +0.000 A 
DOCKED: ATOM     18  C   UNL d   1      38.859  27.179  14.400 -0.35 +0.01    +0.070 A 
DOCKED: ATOM     19  C   UNL d   1      36.091  28.596  12.412 -0.62 +0.01    +0.052 C 
DOCKED: ATOM     20  C   UNL d   1      40.763  26.278  15.748 -0.38 +0.02    +0.066 A 
DOCKED: ATOM     21  C   UNL d   1      41.433  25.209  16.359 -0.41 -0.01    -0.025 A 
DOCKED: ATOM     22  C   UNL d   1      42.452  25.775  17.097 -0.35 -0.01    -0.021 A 
DOCKED: ATOM     23  C   UNL d   1      42.360  27.159  16.914 -0.31 +0.02    +0.066 A 
DOCKED: ATOM     24  C   UNL d   1      41.135  23.731  16.263 -0.47 +0.01    +0.051 C 
DOCKED: ATOM     25  N   UNL d   1      41.945  30.151  16.896 -0.17 -0.08    -0.248 N 
DOCKED: ATOM     26  N   UNL d   1      39.656  31.177  15.532 -0.18 -0.06    -0.248 N 
DOCKED: ATOM     27  N   UNL d   1      38.987  28.495  14.746 -0.01 -0.07    -0.248 N 
DOCKED: ATOM     28  N   UNL d   1      41.300  27.463  16.126 -0.25 -0.08    -0.248 N 
DOCKED: ATOM     29 FE   UNL d   1      40.478  29.318  15.828 -0.08 +0.00    +0.000 Fe
DOCKED: ENDROOT
DOCKED: BRANCH   6  30
DOCKED: ATOM     30  C   UNL d   1      45.209  30.161  18.594 -0.25 +0.02    +0.052 C 
DOCKED: BRANCH  30  31
DOCKED: ATOM     31  C   UNL d   1      45.014  29.696  20.033 -0.15 +0.09    +0.115 C 
DOCKED: BRANCH  31  32
DOCKED: ATOM     32  C   UNL d   1      45.735  28.398  20.269 -0.17 +0.14    +0.139 C 
DOCKED: ATOM     33  O   UNL d   1      46.399  28.229  21.282 -0.32 -1.11    -0.650 OA
DOCKED: BRANCH  32  34
DOCKED: ATOM     34  O   UNL d   1      45.656  27.408  19.364 +0.07 -0.50    -0.776 OA
DOCKED: ATOM     35  H   UNL d   1      45.510  26.502  19.671 +0.06 +0.11    +0.167 HD
DOCKED: ENDBRANCH  32  34
DOCKED: ENDBRANCH  31  32
DOCKED: ENDBRANCH  30  31
DOCKED: ENDBRANCH   6  30
DOCKED: BRANCH  22  36
DOCKED: ATOM     36  C   UNL d   1      43.426  25.027  17.969 -0.34 +0.02    +0.052 C 
DOCKED: BRANCH  36  37
DOCKED: ATOM     37  C   UNL d   1      42.928  25.019  19.406 -0.36 +0.05    +0.115 C 
DOCKED: BRANCH  37  38
DOCKED: ATOM     38  C   UNL d   1      44.077  24.993  20.374 -0.27 +0.08    +0.139 C 
DOCKED: ATOM     39  O   UNL d   1      44.904  24.094  20.340 -0.48 -0.41    -0.650 OA
DOCKED: BRANCH  38  40
DOCKED: ATOM     40  O   UNL d   1      44.202  25.967  21.294 -0.01 -0.61    -0.776 OA
DOCKED: ATOM     41  H   UNL d   1      44.962  26.564  21.247 +0.05 +0.18    +0.167 HD
DOCKED: ENDBRANCH  38  40
DOCKED: ENDBRANCH  37  38
DOCKED: ENDBRANCH  36  37
DOCKED: ENDBRANCH  22  36
DOCKED: BRANCH  12  42
DOCKED: ATOM     42  C   UNL d   1      36.919  33.546  14.604 -0.38 +0.00    +0.004 C 
DOCKED: ATOM     43  C   UNL d   1      36.692  33.729  13.297 -0.52 +0.00    +0.012 C 
DOCKED: ENDBRANCH  12  42
DOCKED: BRANCH  17  44
DOCKED: ATOM     44  C   UNL d   1      37.395  25.783  12.813 -0.54 +0.00    +0.004 C 
DOCKED: ATOM     45  C   UNL d   1      36.435  25.015  13.339 -0.66 +0.00    +0.012 C 
DOCKED: ENDBRANCH  17  44
DOCKED: TORSDOF 10
DOCKED: TER
DOCKED: ENDMDL
________________________________________________________________________________


	BEGINNING GENETIC ALGORITHM DOCKING 12 of 100
Run: 12 Seed: 775973597 1055256777 [ Run 12 of 100 GA/GALS ]
Beginning LAMARCKIAN GENETIC ALGORITHM (LGA), with a maximum of 25000000 energy evaluations.

Final-Value: -16.096


	FINAL GENETIC ALGORITHM DOCKED STATE
	_______________________________________________


Detailed state:  trans 41.155 29.131 16.828 quatxyzw -0.082369 -0.928039 -0.043137 0.360692 center -0.174 -0.001 -0.047 ntor 10 31.5231 152.6334 79.9484 -157.4576 -27.5683 115.8100 51.1074 58.5599 174.7488 85.4384
State:	 41.155  29.131  16.828  -0.088 -0.995 -0.046 137.715     31.52  152.63   79.95 -157.46  -27.57  115.81   51.11   58.56  174.75   85.44

DOCKED: MODEL       12
DOCKED: USER    Run = 12
DOCKED: USER    DPF = D:/Protein_go_brrr/autodock/final/2DN3/heme_Fe/dock.dpf
DOCKED: USER  
DOCKED: USER    Estimated Free Energy of Binding    =  -13.28 kcal/mol  [=(1)+(2)+(3)-(4)]
DOCKED: USER    Estimated Inhibition Constant, Ki   =  184.94 pM (picomolar)  [Temperature = 298.15 K]
DOCKED: USER    
DOCKED: USER    (1) Final Intermolecular Energy     =  -16.26 kcal/mol
DOCKED: USER        vdW + Hbond + desolv Energy     =  -13.54 kcal/mol
DOCKED: USER        Electrostatic Energy            =   -2.72 kcal/mol
DOCKED: USER    (2) Final Total Internal Energy     =   +0.16 kcal/mol
DOCKED: USER    (3) Torsional Free Energy           =   +2.98 kcal/mol
DOCKED: USER    (4) Unbound System's Energy  [=(2)] =   +0.16 kcal/mol
DOCKED: USER    
DOCKED: USER    
DOCKED: USER    NEWDPF move heme_Fe_opt.pdbqt
DOCKED: USER    NEWDPF about -0.174000 -0.001000 -0.047000
DOCKED: USER    NEWDPF tran0 41.154724 29.130777 16.827908
DOCKED: USER    NEWDPF quaternion0 -0.082369 -0.928039 -0.043137 0.360692
DOCKED: USER    NEWDPF axisangle0 -0.088314 -0.995018 -0.046250 137.714608
DOCKED: USER    NEWDPF quat0 -0.088314 -0.995018 -0.046250 137.714608
DOCKED: USER    NEWDPF dihe0 31.52 152.63 79.95 -157.46 -27.57 115.81 51.11 58.56 174.75 85.44 
DOCKED: USER  keepresnum = 1 
DOCKED: USER  
DOCKED: REMARK  10 active torsions:
DOCKED: REMARK  status: ('A' for Active; 'I' for Inactive)
DOCKED: REMARK    1  A    between atoms: C_6  and  C_10 
DOCKED: REMARK    2  A    between atoms: C_10  and  C_11 
DOCKED: REMARK    3  A    between atoms: C_11  and  C_12 
DOCKED: REMARK    4  A    between atoms: C_12  and  O_14 
DOCKED: REMARK    5  A    between atoms: C_17  and  C_20 
DOCKED: REMARK    6  A    between atoms: C_24  and  C_27 
DOCKED: REMARK    7  A    between atoms: C_31  and  C_34 
DOCKED: REMARK    8  A    between atoms: C_34  and  C_35 
DOCKED: REMARK    9  A    between atoms: C_35  and  C_36 
DOCKED: REMARK   10  A    between atoms: C_36  and  O_38 
DOCKED: USER                              x       y       z     vdW  Elec       q    Type
DOCKED: USER                           _______ _______ _______ _____ _____    ______ ____
DOCKED: ROOT
DOCKED: ATOM      1  C   UNL d   1      42.946  28.719  17.740 -0.10 +0.02    +0.064 C 
DOCKED: ATOM      2  C   UNL d   1      39.758  26.120  15.000 -0.36 +0.01    +0.064 A 
DOCKED: ATOM      3  C   UNL d   1      37.660  30.229  13.667 -0.39 +0.01    +0.064 C 
DOCKED: ATOM      4  C   UNL d   1      40.669  32.757  16.395 -0.48 +0.01    +0.064 C 
DOCKED: ATOM      5  C   UNL d   1      42.191  27.601  17.159 -0.05 +0.02    +0.066 A 
DOCKED: ATOM      6  C   UNL d   1      42.438  26.262  17.414 -0.33 -0.01    -0.021 A 
DOCKED: ATOM      7  C   UNL d   1      41.555  25.541  16.649 -0.36 -0.01    -0.025 A 
DOCKED: ATOM      8  C   UNL d   1      40.801  26.468  15.957 -0.36 +0.02    +0.066 A 
DOCKED: ATOM      9  C   UNL d   1      41.437  24.048  16.609 -0.49 +0.01    +0.051 C 
DOCKED: ATOM     10  C   UNL d   1      38.978  26.994  14.362 -0.37 +0.01    +0.066 A 
DOCKED: ATOM     11  C   UNL d   1      38.065  26.636  13.367 -0.43 -0.00    -0.021 A 
DOCKED: ATOM     12  C   UNL d   1      37.459  27.805  12.954 -0.48 +0.00    +0.000 A 
DOCKED: ATOM     13  C   UNL d   1      38.045  28.828  13.720 -0.34 +0.01    +0.070 A 
DOCKED: ATOM     14  C   UNL d   1      37.831  25.255  12.788 -0.43 +0.01    +0.052 C 
DOCKED: ATOM     15  C   UNL d   1      38.256  31.225  14.365 -0.34 +0.01    +0.066 A 
DOCKED: ATOM     16  C   UNL d   1      37.795  32.535  14.362 -0.34 -0.00    -0.021 A 
DOCKED: ATOM     17  C   UNL d   1      38.663  33.266  15.145 -0.43 +0.00    +0.000 A 
DOCKED: ATOM     18  C   UNL d   1      39.638  32.384  15.605 -0.38 +0.01    +0.070 A 
DOCKED: ATOM     19  C   UNL d   1      36.599  33.086  13.632 -0.32 +0.00    +0.052 C 
DOCKED: ATOM     20  C   UNL d   1      41.678  31.846  16.948 -0.38 +0.01    +0.066 A 
DOCKED: ATOM     21  C   UNL d   1      42.857  32.241  17.597 -0.32 -0.01    -0.025 A 
DOCKED: ATOM     22  C   UNL d   1      43.484  31.075  17.983 -0.34 -0.01    -0.021 A 
DOCKED: ATOM     23  C   UNL d   1      42.671  30.020  17.551 -0.28 +0.02    +0.066 A 
DOCKED: ATOM     24  C   UNL d   1      43.376  33.639  17.841 -0.31 +0.01    +0.051 C 
DOCKED: ATOM     25  N   UNL d   1      41.184  27.721  16.276 -0.24 -0.09    -0.248 N 
DOCKED: ATOM     26  N   UNL d   1      38.977  28.335  14.573 -0.08 -0.07    -0.248 N 
DOCKED: ATOM     27  N   UNL d   1      39.364  31.121  15.162 -0.15 -0.05    -0.248 N 
DOCKED: ATOM     28  N   UNL d   1      41.594  30.495  16.881 -0.19 -0.07    -0.248 N 
DOCKED: ATOM     29 FE   UNL d   1      40.285  29.417  15.727 -0.08 +0.00    +0.000 Fe
DOCKED: ENDROOT
DOCKED: BRANCH   6  30
DOCKED: ATOM     30  C   UNL d   1      43.448  25.695  18.352 -0.31 +0.02    +0.052 C 
DOCKED: BRANCH  30  31
DOCKED: ATOM     31  C   UNL d   1      44.729  25.328  17.610 -0.23 +0.06    +0.115 C 
DOCKED: BRANCH  31  32
DOCKED: ATOM     32  C   UNL d   1      45.135  23.916  17.927 -0.23 +0.10    +0.139 C 
DOCKED: ATOM     33  O   UNL d   1      44.826  23.403  18.994 -0.13 -0.39    -0.650 OA
DOCKED: BRANCH  32  34
DOCKED: ATOM     34  O   UNL d   1      45.844  23.201  17.037 -0.30 -1.06    -0.776 OA
DOCKED: ATOM     35  H   UNL d   1      45.720  22.242  16.999 +0.05 +0.24    +0.167 HD
DOCKED: ENDBRANCH  32  34
DOCKED: ENDBRANCH  31  32
DOCKED: ENDBRANCH  30  31
DOCKED: ENDBRANCH   6  30
DOCKED: BRANCH  22  36
DOCKED: ATOM     36  C   UNL d   1      44.814  30.981  18.684 -0.28 +0.02    +0.052 C 
DOCKED: BRANCH  36  37
DOCKED: ATOM     37  C   UNL d   1      45.190  29.520  18.879 -0.22 +0.06    +0.115 C 
DOCKED: BRANCH  37  38
DOCKED: ATOM     38  C   UNL d   1      45.406  29.209  20.333 -0.14 +0.14    +0.139 C 
DOCKED: ATOM     39  O   UNL d   1      44.677  28.423  20.919 +0.09 -0.89    -0.650 OA
DOCKED: BRANCH  38  40
DOCKED: ATOM     40  O   UNL d   1      46.410  29.802  21.004 -0.27 -1.08    -0.776 OA
DOCKED: ATOM     41  H   UNL d   1      47.198  30.083  20.519 +0.03 +0.14    +0.167 HD
DOCKED: ENDBRANCH  38  40
DOCKED: ENDBRANCH  37  38
DOCKED: ENDBRANCH  36  37
DOCKED: ENDBRANCH  22  36
DOCKED: BRANCH  12  42
DOCKED: ATOM     42  C   UNL d   1      36.415  27.898  11.887 -0.64 +0.00    +0.004 C 
DOCKED: ATOM     43  C   UNL d   1      35.252  28.522  12.114 -0.61 +0.00    +0.012 C 
DOCKED: ENDBRANCH  12  42
DOCKED: BRANCH  17  44
DOCKED: ATOM     44  C   UNL d   1      38.555  34.711  15.451 -0.57 +0.00    +0.004 C 
DOCKED: ATOM     45  C   UNL d   1      39.345  35.601  14.841 -0.60 +0.00    +0.012 C 
DOCKED: ENDBRANCH  17  44
DOCKED: TORSDOF 10
DOCKED: TER
DOCKED: ENDMDL
________________________________________________________________________________


	BEGINNING GENETIC ALGORITHM DOCKING 13 of 100
Run: 13 Seed: 449235871 1232269126 [ Run 13 of 100 GA/GALS ]
Beginning LAMARCKIAN GENETIC ALGORITHM (LGA), with a maximum of 25000000 energy evaluations.

Final-Value: -17.280


	FINAL GENETIC ALGORITHM DOCKED STATE
	_______________________________________________


Detailed state:  trans 42.045 28.768 16.285 quatxyzw 0.221454 0.092765 -0.956935 0.163179 center -0.174 -0.001 -0.047 ntor 10 92.8574 -165.9000 66.6556 -136.1109 -70.4072 -15.8374 -63.6432 67.5517 178.7154 28.1707
State:	 42.045  28.768  16.285   0.224  0.094 -0.970 161.217     92.86 -165.90   66.66 -136.11  -70.41  -15.84  -63.64   67.55  178.72   28.17

DOCKED: MODEL       13
DOCKED: USER    Run = 13
DOCKED: USER    DPF = D:/Protein_go_brrr/autodock/final/2DN3/heme_Fe/dock.dpf
DOCKED: USER  
DOCKED: USER    Estimated Free Energy of Binding    =  -13.62 kcal/mol  [=(1)+(2)+(3)-(4)]
DOCKED: USER    Estimated Inhibition Constant, Ki   =  104.56 pM (picomolar)  [Temperature = 298.15 K]
DOCKED: USER    
DOCKED: USER    (1) Final Intermolecular Energy     =  -16.60 kcal/mol
DOCKED: USER        vdW + Hbond + desolv Energy     =  -13.55 kcal/mol
DOCKED: USER        Electrostatic Energy            =   -3.05 kcal/mol
DOCKED: USER    (2) Final Total Internal Energy     =   -0.68 kcal/mol
DOCKED: USER    (3) Torsional Free Energy           =   +2.98 kcal/mol
DOCKED: USER    (4) Unbound System's Energy  [=(2)] =   -0.68 kcal/mol
DOCKED: USER    
DOCKED: USER    
DOCKED: USER    NEWDPF move heme_Fe_opt.pdbqt
DOCKED: USER    NEWDPF about -0.174000 -0.001000 -0.047000
DOCKED: USER    NEWDPF tran0 42.045293 28.768123 16.284808
DOCKED: USER    NEWDPF quaternion0 0.221454 0.092765 -0.956935 0.163179
DOCKED: USER    NEWDPF axisangle0 0.224463 0.094025 -0.969936 161.217034
DOCKED: USER    NEWDPF quat0 0.224463 0.094025 -0.969936 161.217034
DOCKED: USER    NEWDPF dihe0 92.86 -165.90 66.66 -136.11 -70.41 -15.84 -63.64 67.55 178.72 28.17 
DOCKED: USER  keepresnum = 1 
DOCKED: USER  
DOCKED: REMARK  10 active torsions:
DOCKED: REMARK  status: ('A' for Active; 'I' for Inactive)
DOCKED: REMARK    1  A    between atoms: C_6  and  C_10 
DOCKED: REMARK    2  A    between atoms: C_10  and  C_11 
DOCKED: REMARK    3  A    between atoms: C_11  and  C_12 
DOCKED: REMARK    4  A    between atoms: C_12  and  O_14 
DOCKED: REMARK    5  A    between atoms: C_17  and  C_20 
DOCKED: REMARK    6  A    between atoms: C_24  and  C_27 
DOCKED: REMARK    7  A    between atoms: C_31  and  C_34 
DOCKED: REMARK    8  A    between atoms: C_34  and  C_35 
DOCKED: REMARK    9  A    between atoms: C_35  and  C_36 
DOCKED: REMARK   10  A    between atoms: C_36  and  O_38 
DOCKED: USER                              x       y       z     vdW  Elec       q    Type
DOCKED: USER                           _______ _______ _______ _____ _____    ______ ____
DOCKED: ROOT
DOCKED: ATOM      1  C   UNL d   1      43.501  28.067  17.550 -0.28 +0.02    +0.064 C 
DOCKED: ATOM      2  C   UNL d   1      41.391  32.469  16.772 -0.41 +0.01    +0.064 A 
DOCKED: ATOM      3  C   UNL d   1      37.892  30.280  14.316 -0.38 +0.01    +0.064 C 
DOCKED: ATOM      4  C   UNL d   1      39.973  26.022  14.968 -0.46 +0.01    +0.064 C 
DOCKED: ATOM      5  C   UNL d   1      43.276  29.518  17.487 -0.28 +0.02    +0.066 A 
DOCKED: ATOM      6  C   UNL d   1      44.142  30.474  17.991 -0.30 -0.01    -0.021 A 
DOCKED: ATOM      7  C   UNL d   1      43.554  31.696  17.778 -0.28 -0.01    -0.025 A 
DOCKED: ATOM      8  C   UNL d   1      42.350  31.438  17.151 -0.34 +0.02    +0.066 A 
DOCKED: ATOM      9  C   UNL d   1      44.131  33.030  18.142 -0.13 +0.01    +0.051 C 
DOCKED: ATOM     10  C   UNL d   1      40.251  32.252  16.115 -0.38 +0.01    +0.066 A 
DOCKED: ATOM     11  C   UNL d   1      39.299  33.244  15.867 -0.42 -0.00    -0.021 A 
DOCKED: ATOM     12  C   UNL d   1      38.272  32.635  15.174 -0.39 +0.00    +0.000 A 
DOCKED: ATOM     13  C   UNL d   1      38.650  31.287  15.042 -0.35 +0.01    +0.070 A 
DOCKED: ATOM     14  C   UNL d   1      39.334  34.687  16.327 -0.52 +0.01    +0.052 C 
DOCKED: ATOM     15  C   UNL d   1      38.226  28.971  14.230 -0.30 +0.01    +0.066 A 
DOCKED: ATOM     16  C   UNL d   1      37.530  28.061  13.444 -0.43 -0.00    -0.021 A 
DOCKED: ATOM     17  C   UNL d   1      38.126  26.831  13.633 -0.45 +0.00    +0.000 A 
DOCKED: ATOM     18  C   UNL d   1      39.171  27.020  14.535 -0.36 +0.02    +0.070 A 
DOCKED: ATOM     19  C   UNL d   1      36.335  28.328  12.569 -0.60 +0.01    +0.052 C 
DOCKED: ATOM     20  C   UNL d   1      41.120  26.193  15.867 -0.34 +0.02    +0.066 A 
DOCKED: ATOM     21  C   UNL d   1      41.831  25.152  16.479 -0.36 -0.01    -0.025 A 
DOCKED: ATOM     22  C   UNL d   1      42.840  25.757  17.200 -0.32 -0.01    -0.021 A 
DOCKED: ATOM     23  C   UNL d   1      42.701  27.136  17.006 -0.31 +0.02    +0.066 A 
DOCKED: ATOM     24  C   UNL d   1      41.581  23.664  16.400 -0.52 +0.01    +0.051 C 
DOCKED: ATOM     25  N   UNL d   1      42.189  30.113  16.967 -0.20 -0.07    -0.248 N 
DOCKED: ATOM     26  N   UNL d   1      39.852  31.051  15.623 -0.09 -0.07    -0.248 N 
DOCKED: ATOM     27  N   UNL d   1      39.261  28.342  14.868 -0.08 -0.08    -0.248 N 
DOCKED: ATOM     28  N   UNL d   1      41.623  27.398  16.228 -0.25 -0.08    -0.248 N 
DOCKED: ATOM     29 FE   UNL d   1      40.737  29.223  15.925 -0.08 +0.00    +0.000 Fe
DOCKED: ENDROOT
DOCKED: BRANCH   6  30
DOCKED: ATOM     30  C   UNL d   1      45.471  30.243  18.625 -0.23 +0.02    +0.052 C 
DOCKED: BRANCH  30  31
DOCKED: ATOM     31  C   UNL d   1      45.333  30.105  20.137 -0.04 +0.09    +0.115 C 
DOCKED: BRANCH  31  32
DOCKED: ATOM     32  C   UNL d   1      45.748  28.730  20.580 -0.16 +0.16    +0.139 C 
DOCKED: ATOM     33  O   UNL d   1      45.059  27.755  20.315 -0.02 -0.61    -0.650 OA
DOCKED: BRANCH  32  34
DOCKED: ATOM     34  O   UNL d   1      46.886  28.559  21.273 -0.45 -1.20    -0.776 OA
DOCKED: ATOM     35  H   UNL d   1      47.716  28.437  20.791 +0.02 +0.15    +0.167 HD
DOCKED: ENDBRANCH  32  34
DOCKED: ENDBRANCH  31  32
DOCKED: ENDBRANCH  30  31
DOCKED: ENDBRANCH   6  30
DOCKED: BRANCH  22  36
DOCKED: ATOM     36  C   UNL d   1      43.849  25.049  18.066 -0.31 +0.02    +0.052 C 
DOCKED: BRANCH  36  37
DOCKED: ATOM     37  C   UNL d   1      45.256  25.435  17.634 -0.23 +0.07    +0.115 C 
DOCKED: BRANCH  37  38
DOCKED: ATOM     38  C   UNL d   1      45.982  24.257  17.049 -0.16 +0.14    +0.139 C 
DOCKED: ATOM     39  O   UNL d   1      45.570  23.119  17.222 -0.25 -0.74    -0.650 OA
DOCKED: BRANCH  38  40
DOCKED: ATOM     40  O   UNL d   1      47.101  24.449  16.327 -0.11 -1.22    -0.776 OA
DOCKED: ATOM     41  H   UNL d   1      47.539  25.311  16.359 +0.03 +0.17    +0.167 HD
DOCKED: ENDBRANCH  38  40
DOCKED: ENDBRANCH  37  38
DOCKED: ENDBRANCH  36  37
DOCKED: ENDBRANCH  22  36
DOCKED: BRANCH  12  42
DOCKED: ATOM     42  C   UNL d   1      37.028  33.322  14.708 -0.35 +0.00    +0.004 C 
DOCKED: ATOM     43  C   UNL d   1      36.768  33.465  13.402 -0.51 +0.00    +0.012 C 
DOCKED: ENDBRANCH  12  42
DOCKED: BRANCH  17  44
DOCKED: ATOM     44  C   UNL d   1      37.734  25.562  12.978 -0.53 +0.00    +0.004 C 
DOCKED: ATOM     45  C   UNL d   1      36.721  24.831  13.454 -0.64 +0.00    +0.012 C 
DOCKED: ENDBRANCH  17  44
DOCKED: TORSDOF 10
DOCKED: TER
DOCKED: ENDMDL
________________________________________________________________________________


	BEGINNING GENETIC ALGORITHM DOCKING 14 of 100
Run: 14 Seed: 1595205932 311350002 [ Run 14 of 100 GA/GALS ]
Beginning LAMARCKIAN GENETIC ALGORITHM (LGA), with a maximum of 25000000 energy evaluations.

Final-Value: -17.755


	FINAL GENETIC ALGORITHM DOCKED STATE
	_______________________________________________


Detailed state:  trans 41.805 28.707 16.312 quatxyzw 0.241097 0.098095 -0.948236 0.181928 center -0.174 -0.001 -0.047 ntor 10 -57.5293 148.6816 67.5749 -139.3186 102.4654 -178.5823 -36.9583 -47.2286 -165.7083 -34.7773
State:	 41.805  28.707  16.312   0.245  0.100 -0.964 159.036    -57.53  148.68   67.57 -139.32  102.47 -178.58  -36.96  -47.23 -165.71  -34.78

DOCKED: MODEL       14
DOCKED: USER    Run = 14
DOCKED: USER    DPF = D:/Protein_go_brrr/autodock/final/2DN3/heme_Fe/dock.dpf
DOCKED: USER  
DOCKED: USER    Estimated Free Energy of Binding    =  -13.29 kcal/mol  [=(1)+(2)+(3)-(4)]
DOCKED: USER    Estimated Inhibition Constant, Ki   =  180.22 pM (picomolar)  [Temperature = 298.15 K]
DOCKED: USER    
DOCKED: USER    (1) Final Intermolecular Energy     =  -16.28 kcal/mol
DOCKED: USER        vdW + Hbond + desolv Energy     =  -13.64 kcal/mol
DOCKED: USER        Electrostatic Energy            =   -2.64 kcal/mol
DOCKED: USER    (2) Final Total Internal Energy     =   -1.48 kcal/mol
DOCKED: USER    (3) Torsional Free Energy           =   +2.98 kcal/mol
DOCKED: USER    (4) Unbound System's Energy  [=(2)] =   -1.48 kcal/mol
DOCKED: USER    
DOCKED: USER    
DOCKED: USER    NEWDPF move heme_Fe_opt.pdbqt
DOCKED: USER    NEWDPF about -0.174000 -0.001000 -0.047000
DOCKED: USER    NEWDPF tran0 41.805058 28.707068 16.312123
DOCKED: USER    NEWDPF quaternion0 0.241097 0.098095 -0.948236 0.181928
DOCKED: USER    NEWDPF axisangle0 0.245188 0.099760 -0.964329 159.035811
DOCKED: USER    NEWDPF quat0 0.245188 0.099760 -0.964329 159.035811
DOCKED: USER    NEWDPF dihe0 -57.53 148.68 67.57 -139.32 102.47 -178.58 -36.96 -47.23 -165.71 -34.78 
DOCKED: USER  keepresnum = 1 
DOCKED: USER  
DOCKED: REMARK  10 active torsions:
DOCKED: REMARK  status: ('A' for Active; 'I' for Inactive)
DOCKED: REMARK    1  A    between atoms: C_6  and  C_10 
DOCKED: REMARK    2  A    between atoms: C_10  and  C_11 
DOCKED: REMARK    3  A    between atoms: C_11  and  C_12 
DOCKED: REMARK    4  A    between atoms: C_12  and  O_14 
DOCKED: REMARK    5  A    between atoms: C_17  and  C_20 
DOCKED: REMARK    6  A    between atoms: C_24  and  C_27 
DOCKED: REMARK    7  A    between atoms: C_31  and  C_34 
DOCKED: REMARK    8  A    between atoms: C_34  and  C_35 
DOCKED: REMARK    9  A    between atoms: C_35  and  C_36 
DOCKED: REMARK   10  A    between atoms: C_36  and  O_38 
DOCKED: USER                              x       y       z     vdW  Elec       q    Type
DOCKED: USER                           _______ _______ _______ _____ _____    ______ ____
DOCKED: ROOT
DOCKED: ATOM      1  C   UNL d   1      43.180  27.932  17.623 -0.19 +0.02    +0.064 C 
DOCKED: ATOM      2  C   UNL d   1      41.280  32.424  16.826 -0.41 +0.01    +0.064 A 
DOCKED: ATOM      3  C   UNL d   1      37.797  30.410  14.203 -0.33 +0.01    +0.064 C 
DOCKED: ATOM      4  C   UNL d   1      39.679  26.064  14.875 -0.46 +0.01    +0.064 C 
DOCKED: ATOM      5  C   UNL d   1      43.016  29.391  17.573 -0.24 +0.02    +0.066 A 
DOCKED: ATOM      6  C   UNL d   1      43.898  30.305  18.124 -0.30 -0.01    -0.021 A 
DOCKED: ATOM      7  C   UNL d   1      43.368  31.553  17.906 -0.33 -0.01    -0.025 A 
DOCKED: ATOM      8  C   UNL d   1      42.181  31.351  17.228 -0.37 +0.02    +0.066 A 
DOCKED: ATOM      9  C   UNL d   1      43.983  32.857  18.311 -0.28 +0.01    +0.051 C 
DOCKED: ATOM     10  C   UNL d   1      40.158  32.262  16.122 -0.38 +0.01    +0.066 A 
DOCKED: ATOM     11  C   UNL d   1      39.258  33.295  15.851 -0.41 -0.00    -0.021 A 
DOCKED: ATOM     12  C   UNL d   1      38.235  32.736  15.110 -0.39 +0.00    +0.000 A 
DOCKED: ATOM     13  C   UNL d   1      38.565  31.377  14.973 -0.35 +0.01    +0.070 A 
DOCKED: ATOM     14  C   UNL d   1      39.332  34.729  16.333 -0.51 +0.01    +0.052 C 
DOCKED: ATOM     15  C   UNL d   1      38.082  29.090  14.111 -0.32 +0.01    +0.066 A 
DOCKED: ATOM     16  C   UNL d   1      37.382  28.219  13.286 -0.44 -0.00    -0.021 A 
DOCKED: ATOM     17  C   UNL d   1      37.921  26.964  13.481 -0.45 +0.00    +0.000 A 
DOCKED: ATOM     18  C   UNL d   1      38.936  27.098  14.425 -0.35 +0.02    +0.070 A 
DOCKED: ATOM     19  C   UNL d   1      36.235  28.545  12.368 -0.62 +0.01    +0.052 C 
DOCKED: ATOM     20  C   UNL d   1      40.795  26.177  15.821 -0.37 +0.02    +0.066 A 
DOCKED: ATOM     21  C   UNL d   1      41.440  25.100  16.446 -0.40 -0.01    -0.025 A 
DOCKED: ATOM     22  C   UNL d   1      42.442  25.654  17.214 -0.35 -0.01    -0.021 A 
DOCKED: ATOM     23  C   UNL d   1      42.366  27.041  17.035 -0.32 +0.02    +0.066 A 
DOCKED: ATOM     24  C   UNL d   1      41.134  23.624  16.335 -0.46 +0.01    +0.051 C 
DOCKED: ATOM     25  N   UNL d   1      41.974  30.036  17.019 -0.23 -0.08    -0.248 N 
DOCKED: ATOM     26  N   UNL d   1      39.732  31.085  15.597 -0.11 -0.06    -0.248 N 
DOCKED: ATOM     27  N   UNL d   1      39.065  28.412  14.781 -0.05 -0.07    -0.248 N 
DOCKED: ATOM     28  N   UNL d   1      41.331  27.356  16.219 -0.26 -0.08    -0.248 N 
DOCKED: ATOM     29 FE   UNL d   1      40.531  29.219  15.908 -0.08 +0.00    +0.000 Fe
DOCKED: ENDROOT
DOCKED: BRANCH   6  30
DOCKED: ATOM     30  C   UNL d   1      45.191  30.013  18.806 -0.25 +0.02    +0.052 C 
DOCKED: BRANCH  30  31
DOCKED: ATOM     31  C   UNL d   1      44.950  29.487  20.217 -0.07 +0.10    +0.115 C 
DOCKED: BRANCH  31  32
DOCKED: ATOM     32  C   UNL d   1      45.958  28.425  20.562 -0.16 +0.16    +0.139 C 
DOCKED: ATOM     33  O   UNL d   1      46.911  28.681  21.283 -0.50 -1.01    -0.650 OA
DOCKED: BRANCH  32  34
DOCKED: ATOM     34  O   UNL d   1      45.818  27.180  20.077 +0.06 -0.61    -0.776 OA
DOCKED: ATOM     35  H   UNL d   1      46.534  26.798  19.550 +0.05 +0.11    +0.167 HD
DOCKED: ENDBRANCH  32  34
DOCKED: ENDBRANCH  31  32
DOCKED: ENDBRANCH  30  31
DOCKED: ENDBRANCH   6  30
DOCKED: BRANCH  22  36
DOCKED: ATOM     36  C   UNL d   1      43.387  24.896  18.109 -0.35 +0.02    +0.052 C 
DOCKED: BRANCH  36  37
DOCKED: ATOM     37  C   UNL d   1      44.227  23.940  17.274 -0.19 +0.07    +0.115 C 
DOCKED: BRANCH  37  38
DOCKED: ATOM     38  C   UNL d   1      45.683  24.055  17.626 -0.20 +0.12    +0.139 C 
DOCKED: ATOM     39  O   UNL d   1      46.522  23.383  17.045 -0.28 -1.10    -0.650 OA
DOCKED: BRANCH  38  40
DOCKED: ATOM     40  O   UNL d   1      46.075  24.903  18.594 +0.08 -0.49    -0.776 OA
DOCKED: ATOM     41  H   UNL d   1      45.574  25.718  18.736 +0.06 +0.09    +0.167 HD
DOCKED: ENDBRANCH  38  40
DOCKED: ENDBRANCH  37  38
DOCKED: ENDBRANCH  36  37
DOCKED: ENDBRANCH  22  36
DOCKED: BRANCH  12  42
DOCKED: ATOM     42  C   UNL d   1      37.039  33.479  14.605 -0.40 +0.00    +0.004 C 
DOCKED: ATOM     43  C   UNL d   1      36.828  33.634  13.291 -0.51 +0.00    +0.012 C 
DOCKED: ENDBRANCH  12  42
DOCKED: BRANCH  17  44
DOCKED: ATOM     44  C   UNL d   1      37.506  25.720  12.792 -0.53 +0.00    +0.004 C 
DOCKED: ATOM     45  C   UNL d   1      36.485  24.990  13.254 -0.66 +0.00    +0.012 C 
DOCKED: ENDBRANCH  17  44
DOCKED: TORSDOF 10
DOCKED: TER
DOCKED: ENDMDL
________________________________________________________________________________


	BEGINNING GENETIC ALGORITHM DOCKING 15 of 100
Run: 15 Seed: 230887728 1343737241 [ Run 15 of 100 GA/GALS ]
Beginning LAMARCKIAN GENETIC ALGORITHM (LGA), with a maximum of 25000000 energy evaluations.

Final-Value: -16.829


	FINAL GENETIC ALGORITHM DOCKED STATE
	_______________________________________________


Detailed state:  trans 41.170 29.116 16.809 quatxyzw 0.096549 0.931626 0.047517 -0.347121 center -0.174 -0.001 -0.047 ntor 10 -131.2261 -50.3722 100.6238 -148.0878 3.5851 134.8336 54.3829 -31.8797 -178.2627 25.8170
State:	 41.170  29.116  16.809   0.103  0.993  0.051 -139.377   -131.23  -50.37  100.62 -148.09    3.59  134.83   54.38  -31.88 -178.26   25.82

DOCKED: MODEL       15
DOCKED: USER    Run = 15
DOCKED: USER    DPF = D:/Protein_go_brrr/autodock/final/2DN3/heme_Fe/dock.dpf
DOCKED: USER  
DOCKED: USER    Estimated Free Energy of Binding    =  -13.29 kcal/mol  [=(1)+(2)+(3)-(4)]
DOCKED: USER    Estimated Inhibition Constant, Ki   =  182.28 pM (picomolar)  [Temperature = 298.15 K]
DOCKED: USER    
DOCKED: USER    (1) Final Intermolecular Energy     =  -16.27 kcal/mol
DOCKED: USER        vdW + Hbond + desolv Energy     =  -13.75 kcal/mol
DOCKED: USER        Electrostatic Energy            =   -2.52 kcal/mol
DOCKED: USER    (2) Final Total Internal Energy     =   -0.56 kcal/mol
DOCKED: USER    (3) Torsional Free Energy           =   +2.98 kcal/mol
DOCKED: USER    (4) Unbound System's Energy  [=(2)] =   -0.56 kcal/mol
DOCKED: USER    
DOCKED: USER    
DOCKED: USER    NEWDPF move heme_Fe_opt.pdbqt
DOCKED: USER    NEWDPF about -0.174000 -0.001000 -0.047000
DOCKED: USER    NEWDPF tran0 41.169835 29.115650 16.808693
DOCKED: USER    NEWDPF quaternion0 0.096549 0.931626 0.047517 -0.347121
DOCKED: USER    NEWDPF axisangle0 0.102950 0.993395 0.050668 -139.377382
DOCKED: USER    NEWDPF quat0 0.102950 0.993395 0.050668 -139.377382
DOCKED: USER    NEWDPF dihe0 -131.23 -50.37 100.62 -148.09 3.59 134.83 54.38 -31.88 -178.26 25.82 
DOCKED: USER  keepresnum = 1 
DOCKED: USER  
DOCKED: REMARK  10 active torsions:
DOCKED: REMARK  status: ('A' for Active; 'I' for Inactive)
DOCKED: REMARK    1  A    between atoms: C_6  and  C_10 
DOCKED: REMARK    2  A    between atoms: C_10  and  C_11 
DOCKED: REMARK    3  A    between atoms: C_11  and  C_12 
DOCKED: REMARK    4  A    between atoms: C_12  and  O_14 
DOCKED: REMARK    5  A    between atoms: C_17  and  C_20 
DOCKED: REMARK    6  A    between atoms: C_24  and  C_27 
DOCKED: REMARK    7  A    between atoms: C_31  and  C_34 
DOCKED: REMARK    8  A    between atoms: C_34  and  C_35 
DOCKED: REMARK    9  A    between atoms: C_35  and  C_36 
DOCKED: REMARK   10  A    between atoms: C_36  and  O_38 
DOCKED: USER                              x       y       z     vdW  Elec       q    Type
DOCKED: USER                           _______ _______ _______ _____ _____    ______ ____
DOCKED: ROOT
DOCKED: ATOM      1  C   UNL d   1      42.977  28.648  17.661 -0.12 +0.02    +0.064 C 
DOCKED: ATOM      2  C   UNL d   1      39.657  26.173  14.962 -0.37 +0.01    +0.064 A 
DOCKED: ATOM      3  C   UNL d   1      37.612  30.352  13.771 -0.34 +0.01    +0.064 C 
DOCKED: ATOM      4  C   UNL d   1      40.751  32.760  16.462 -0.48 +0.01    +0.064 C 
DOCKED: ATOM      5  C   UNL d   1      42.181  27.558  17.079 -0.21 +0.02    +0.066 A 
DOCKED: ATOM      6  C   UNL d   1      42.407  26.209  17.300 -0.34 -0.01    -0.021 A 
DOCKED: ATOM      7  C   UNL d   1      41.487  25.523  16.547 -0.38 -0.01    -0.025 A 
DOCKED: ATOM      8  C   UNL d   1      40.734  26.480  15.895 -0.37 +0.02    +0.066 A 
DOCKED: ATOM      9  C   UNL d   1      41.335  24.034  16.480 -0.45 +0.01    +0.051 C 
DOCKED: ATOM     10  C   UNL d   1      38.879  27.076  14.364 -0.36 +0.01    +0.066 A 
DOCKED: ATOM     11  C   UNL d   1      37.931  26.758  13.388 -0.43 -0.00    -0.021 A 
DOCKED: ATOM     12  C   UNL d   1      37.339  27.948  13.016 -0.48 +0.00    +0.000 A 
DOCKED: ATOM     13  C   UNL d   1      37.968  28.942  13.786 -0.36 +0.01    +0.070 A 
DOCKED: ATOM     14  C   UNL d   1      37.651  25.395  12.789 -0.47 +0.01    +0.052 C 
DOCKED: ATOM     15  C   UNL d   1      38.249  31.320  14.471 -0.34 +0.01    +0.066 A 
DOCKED: ATOM     16  C   UNL d   1      37.816  32.640  14.508 -0.35 -0.00    -0.021 A 
DOCKED: ATOM     17  C   UNL d   1      38.722  33.337  15.281 -0.43 +0.00    +0.000 A 
DOCKED: ATOM     18  C   UNL d   1      39.690  32.425  15.695 -0.38 +0.01    +0.070 A 
DOCKED: ATOM     19  C   UNL d   1      36.613  33.231  13.823 -0.33 +0.00    +0.052 C 
DOCKED: ATOM     20  C   UNL d   1      41.755  31.816  16.968 -0.38 +0.01    +0.066 A 
DOCKED: ATOM     21  C   UNL d   1      42.960  32.173  17.591 -0.23 -0.01    -0.025 A 
DOCKED: ATOM     22  C   UNL d   1      43.572  30.986  17.935 -0.33 -0.01    -0.021 A 
DOCKED: ATOM     23  C   UNL d   1      42.725  29.957  17.506 -0.28 +0.02    +0.066 A 
DOCKED: ATOM     24  C   UNL d   1      43.516  33.554  17.848 -0.28 +0.01    +0.051 C 
DOCKED: ATOM     25  N   UNL d   1      41.153  27.717  16.228 -0.22 -0.09    -0.248 N 
DOCKED: ATOM     26  N   UNL d   1      38.913  28.412  14.601 -0.06 -0.07    -0.248 N 
DOCKED: ATOM     27  N   UNL d   1      39.377  31.177  15.234 -0.20 -0.05    -0.248 N 
DOCKED: ATOM     28  N   UNL d   1      41.640  30.469  16.877 -0.19 -0.07    -0.248 N 
DOCKED: ATOM     29 FE   UNL d   1      40.276  29.443  15.739 -0.08 +0.00    +0.000 Fe
DOCKED: ENDROOT
DOCKED: BRANCH   6  30
DOCKED: ATOM     30  C   UNL d   1      43.430  25.601  18.198 -0.32 +0.02    +0.052 C 
DOCKED: BRANCH  30  31
DOCKED: ATOM     31  C   UNL d   1      44.741  25.381  17.451 -0.23 +0.06    +0.115 C 
DOCKED: BRANCH  31  32
DOCKED: ATOM     32  C   UNL d   1      45.177  23.947  17.564 -0.19 +0.11    +0.139 C 
DOCKED: ATOM     33  O   UNL d   1      44.475  23.125  18.137 -0.00 -0.38    -0.650 OA
DOCKED: BRANCH  32  34
DOCKED: ATOM     34  O   UNL d   1      46.348  23.554  17.036 -0.30 -1.17    -0.776 OA
DOCKED: ATOM     35  H   UNL d   1      47.145  24.069  17.224 +0.03 +0.22    +0.167 HD
DOCKED: ENDBRANCH  32  34
DOCKED: ENDBRANCH  31  32
DOCKED: ENDBRANCH  30  31
DOCKED: ENDBRANCH   6  30
DOCKED: BRANCH  22  36
DOCKED: ATOM     36  C   UNL d   1      44.919  30.850  18.596 -0.27 +0.02    +0.052 C 
DOCKED: BRANCH  36  37
DOCKED: ATOM     37  C   UNL d   1      44.777  30.070  19.895 -0.18 +0.08    +0.115 C 
DOCKED: BRANCH  37  38
DOCKED: ATOM     38  C   UNL d   1      46.007  29.250  20.167 -0.16 +0.13    +0.139 C 
DOCKED: ATOM     39  O   UNL d   1      46.510  29.229  21.281 -0.44 -1.14    -0.650 OA
DOCKED: BRANCH  38  40
DOCKED: ATOM     40  O   UNL d   1      46.568  28.532  19.178 +0.05 -0.46    -0.776 OA
DOCKED: ATOM     41  H   UNL d   1      47.517  28.619  19.014 +0.04 +0.09    +0.167 HD
DOCKED: ENDBRANCH  38  40
DOCKED: ENDBRANCH  37  38
DOCKED: ENDBRANCH  36  37
DOCKED: ENDBRANCH  22  36
DOCKED: BRANCH  12  42
DOCKED: ATOM     42  C   UNL d   1      36.267  28.085  11.982 -0.67 +0.00    +0.004 C 
DOCKED: ATOM     43  C   UNL d   1      35.333  29.040  12.079 -0.64 +0.00    +0.012 C 
DOCKED: ENDBRANCH  12  42
DOCKED: BRANCH  17  44
DOCKED: ATOM     44  C   UNL d   1      38.654  34.777  15.618 -0.59 +0.00    +0.004 C 
DOCKED: ATOM     45  C   UNL d   1      39.304  35.684  14.882 -0.61 +0.00    +0.012 C 
DOCKED: ENDBRANCH  17  44
DOCKED: TORSDOF 10
DOCKED: TER
DOCKED: ENDMDL
________________________________________________________________________________


	BEGINNING GENETIC ALGORITHM DOCKING 16 of 100
Run: 16 Seed: 1771361787 1330299471 [ Run 16 of 100 GA/GALS ]
Beginning LAMARCKIAN GENETIC ALGORITHM (LGA), with a maximum of 25000000 energy evaluations.

Final-Value: -15.463


	FINAL GENETIC ALGORITHM DOCKED STATE
	_______________________________________________


Detailed state:  trans 41.147 29.155 16.755 quatxyzw -0.098430 -0.935838 -0.051458 0.334471 center -0.174 -0.001 -0.047 ntor 10 28.0462 -12.0392 95.5314 -153.6436 -179.7341 82.6135 28.8632 46.5877 168.0037 -33.0643
State:	 41.147  29.155  16.755  -0.104 -0.993 -0.055 140.919     28.05  -12.04   95.53 -153.64 -179.73   82.61   28.86   46.59  168.00  -33.06

DOCKED: MODEL       16
DOCKED: USER    Run = 16
DOCKED: USER    DPF = D:/Protein_go_brrr/autodock/final/2DN3/heme_Fe/dock.dpf
DOCKED: USER  
DOCKED: USER    Estimated Free Energy of Binding    =  -11.90 kcal/mol  [=(1)+(2)+(3)-(4)]
DOCKED: USER    Estimated Inhibition Constant, Ki   =    1.90 nM (nanomolar)  [Temperature = 298.15 K]
DOCKED: USER    
DOCKED: USER    (1) Final Intermolecular Energy     =  -14.88 kcal/mol
DOCKED: USER        vdW + Hbond + desolv Energy     =  -13.38 kcal/mol
DOCKED: USER        Electrostatic Energy            =   -1.50 kcal/mol
DOCKED: USER    (2) Final Total Internal Energy     =   -0.58 kcal/mol
DOCKED: USER    (3) Torsional Free Energy           =   +2.98 kcal/mol
DOCKED: USER    (4) Unbound System's Energy  [=(2)] =   -0.58 kcal/mol
DOCKED: USER    
DOCKED: USER    
DOCKED: USER    NEWDPF move heme_Fe_opt.pdbqt
DOCKED: USER    NEWDPF about -0.174000 -0.001000 -0.047000
DOCKED: USER    NEWDPF tran0 41.147188 29.154657 16.755355
DOCKED: USER    NEWDPF quaternion0 -0.098430 -0.935838 -0.051458 0.334471
DOCKED: USER    NEWDPF axisangle0 -0.104445 -0.993031 -0.054603 140.919198
DOCKED: USER    NEWDPF quat0 -0.104445 -0.993031 -0.054603 140.919198
DOCKED: USER    NEWDPF dihe0 28.05 -12.04 95.53 -153.64 -179.73 82.61 28.86 46.59 168.00 -33.06 
DOCKED: USER  keepresnum = 1 
DOCKED: USER  
DOCKED: REMARK  10 active torsions:
DOCKED: REMARK  status: ('A' for Active; 'I' for Inactive)
DOCKED: REMARK    1  A    between atoms: C_6  and  C_10 
DOCKED: REMARK    2  A    between atoms: C_10  and  C_11 
DOCKED: REMARK    3  A    between atoms: C_11  and  C_12 
DOCKED: REMARK    4  A    between atoms: C_12  and  O_14 
DOCKED: REMARK    5  A    between atoms: C_17  and  C_20 
DOCKED: REMARK    6  A    between atoms: C_24  and  C_27 
DOCKED: REMARK    7  A    between atoms: C_31  and  C_34 
DOCKED: REMARK    8  A    between atoms: C_34  and  C_35 
DOCKED: REMARK    9  A    between atoms: C_35  and  C_36 
DOCKED: REMARK   10  A    between atoms: C_36  and  O_38 
DOCKED: USER                              x       y       z     vdW  Elec       q    Type
DOCKED: USER                           _______ _______ _______ _____ _____    ______ ____
DOCKED: ROOT
DOCKED: ATOM      1  C   UNL d   1      42.976  28.680  17.556 -0.17 +0.02    +0.064 C 
DOCKED: ATOM      2  C   UNL d   1      39.591  26.230  14.917 -0.39 +0.01    +0.064 A 
DOCKED: ATOM      3  C   UNL d   1      37.511  30.419  13.824 -0.29 +0.01    +0.064 C 
DOCKED: ATOM      4  C   UNL d   1      40.715  32.801  16.459 -0.48 +0.01    +0.064 C 
DOCKED: ATOM      5  C   UNL d   1      42.167  27.596  16.983 -0.29 +0.02    +0.066 A 
DOCKED: ATOM      6  C   UNL d   1      42.400  26.245  17.184 -0.34 -0.01    -0.021 A 
DOCKED: ATOM      7  C   UNL d   1      41.461  25.565  16.447 -0.39 -0.01    -0.025 A 
DOCKED: ATOM      8  C   UNL d   1      40.691  26.528  15.825 -0.37 +0.02    +0.066 A 
DOCKED: ATOM      9  C   UNL d   1      41.310  24.077  16.368 -0.49 +0.01    +0.051 C 
DOCKED: ATOM     10  C   UNL d   1      38.796  27.138  14.349 -0.36 +0.01    +0.066 A 
DOCKED: ATOM     11  C   UNL d   1      37.824  26.829  13.394 -0.43 -0.00    -0.021 A 
DOCKED: ATOM     12  C   UNL d   1      37.221  28.023  13.051 -0.48 +0.00    +0.000 A 
DOCKED: ATOM     13  C   UNL d   1      37.868  29.009  13.815 -0.37 +0.01    +0.070 A 
DOCKED: ATOM     14  C   UNL d   1      37.530  25.472  12.788 -0.49 +0.01    +0.052 C 
DOCKED: ATOM     15  C   UNL d   1      38.164  31.380  14.518 -0.33 +0.01    +0.066 A 
DOCKED: ATOM     16  C   UNL d   1      37.731  32.699  14.580 -0.32 -0.00    -0.021 A 
DOCKED: ATOM     17  C   UNL d   1      38.656  33.388  15.337 -0.43 +0.00    +0.000 A 
DOCKED: ATOM     18  C   UNL d   1      39.636  32.474  15.716 -0.38 +0.01    +0.070 A 
DOCKED: ATOM     19  C   UNL d   1      36.510  33.295  13.933 -0.36 +0.00    +0.052 C 
DOCKED: ATOM     20  C   UNL d   1      41.734  31.854  16.928 -0.37 +0.01    +0.066 A 
DOCKED: ATOM     21  C   UNL d   1      42.954  32.206  17.523 -0.17 -0.01    -0.025 A 
DOCKED: ATOM     22  C   UNL d   1      43.576  31.016  17.839 -0.33 -0.01    -0.021 A 
DOCKED: ATOM     23  C   UNL d   1      42.719  29.991  17.421 -0.29 +0.02    +0.066 A 
DOCKED: ATOM     24  C   UNL d   1      43.515  33.585  17.781 -0.27 +0.01    +0.051 C 
DOCKED: ATOM     25  N   UNL d   1      41.117  27.762  16.160 -0.17 -0.09    -0.248 N 
DOCKED: ATOM     26  N   UNL d   1      38.834  28.472  14.599 -0.07 -0.07    -0.248 N 
DOCKED: ATOM     27  N   UNL d   1      39.312  31.230  15.250 -0.22 -0.05    -0.248 N 
DOCKED: ATOM     28  N   UNL d   1      41.617  30.508  16.826 -0.17 -0.07    -0.248 N 
DOCKED: ATOM     29 FE   UNL d   1      40.226  29.492  15.713 -0.08 +0.00    +0.000 Fe
DOCKED: ENDROOT
DOCKED: BRANCH   6  30
DOCKED: ATOM     30  C   UNL d   1      43.446  25.629  18.048 -0.32 +0.02    +0.052 C 
DOCKED: BRANCH  30  31
DOCKED: ATOM     31  C   UNL d   1      44.606  25.110  17.205 -0.21 +0.06    +0.115 C 
DOCKED: BRANCH  31  32
DOCKED: ATOM     32  C   UNL d   1      45.267  23.941  17.881 -0.23 +0.10    +0.139 C 
DOCKED: ATOM     33  O   UNL d   1      46.225  23.382  17.365 -0.24 -0.86    -0.650 OA
DOCKED: BRANCH  32  34
DOCKED: ATOM     34  O   UNL d   1      44.809  23.499  19.064 -0.08 -0.46    -0.776 OA
DOCKED: ATOM     35  H   UNL d   1      45.422  23.064  19.673 +0.05 +0.10    +0.167 HD
DOCKED: ENDBRANCH  32  34
DOCKED: ENDBRANCH  31  32
DOCKED: ENDBRANCH  30  31
DOCKED: ENDBRANCH   6  30
DOCKED: BRANCH  22  36
DOCKED: ATOM     36  C   UNL d   1      44.939  30.875  18.463 -0.27 +0.02    +0.052 C 
DOCKED: BRANCH  36  37
DOCKED: ATOM     37  C   UNL d   1      44.931  31.482  19.859 -0.22 +0.06    +0.115 C 
DOCKED: BRANCH  37  38
DOCKED: ATOM     38  C   UNL d   1      46.138  32.348  20.077 -0.16 +0.06    +0.139 C 
DOCKED: ATOM     39  O   UNL d   1      46.159  33.504  19.680 +0.03 -0.17    -0.650 OA
DOCKED: BRANCH  38  40
DOCKED: ATOM     40  O   UNL d   1      47.215  31.852  20.712 +0.02 -0.41    -0.776 OA
DOCKED: ATOM     41  H   UNL d   1      48.044  32.349  20.691 +0.02 +0.06    +0.167 HD
DOCKED: ENDBRANCH  38  40
DOCKED: ENDBRANCH  37  38
DOCKED: ENDBRANCH  36  37
DOCKED: ENDBRANCH  22  36
DOCKED: BRANCH  12  42
DOCKED: ATOM     42  C   UNL d   1      36.122  28.169  12.046 -0.69 +0.00    +0.004 C 
DOCKED: ATOM     43  C   UNL d   1      35.133  29.053  12.230 -0.59 +0.00    +0.012 C 
DOCKED: ENDBRANCH  12  42
DOCKED: BRANCH  17  44
DOCKED: ATOM     44  C   UNL d   1      38.595  34.824  15.691 -0.56 +0.00    +0.004 C 
DOCKED: ATOM     45  C   UNL d   1      39.313  35.727  15.015 -0.60 +0.00    +0.012 C 
DOCKED: ENDBRANCH  17  44
DOCKED: TORSDOF 10
DOCKED: TER
DOCKED: ENDMDL
________________________________________________________________________________


	BEGINNING GENETIC ALGORITHM DOCKING 17 of 100
Run: 17 Seed: 2068424829 1049915148 [ Run 17 of 100 GA/GALS ]
Beginning LAMARCKIAN GENETIC ALGORITHM (LGA), with a maximum of 25000000 energy evaluations.

Final-Value: -16.563


	FINAL GENETIC ALGORITHM DOCKED STATE
	_______________________________________________


Detailed state:  trans 41.272 29.091 16.887 quatxyzw -0.098058 -0.930234 -0.055310 0.349271 center -0.174 -0.001 -0.047 ntor 10 70.4803 153.9291 57.6470 -142.4866 -180.0000 129.5995 55.7003 57.6366 179.8376 76.6590
State:	 41.272  29.091  16.887  -0.105 -0.993 -0.059 139.115     70.48  153.93   57.65 -142.49 -180.00  129.60   55.70   57.64  179.84   76.66

DOCKED: MODEL       17
DOCKED: USER    Run = 17
DOCKED: USER    DPF = D:/Protein_go_brrr/autodock/final/2DN3/heme_Fe/dock.dpf
DOCKED: USER  
DOCKED: USER    Estimated Free Energy of Binding    =  -13.69 kcal/mol  [=(1)+(2)+(3)-(4)]
DOCKED: USER    Estimated Inhibition Constant, Ki   =   92.61 pM (picomolar)  [Temperature = 298.15 K]
DOCKED: USER    
DOCKED: USER    (1) Final Intermolecular Energy     =  -16.67 kcal/mol
DOCKED: USER        vdW + Hbond + desolv Energy     =  -13.64 kcal/mol
DOCKED: USER        Electrostatic Energy            =   -3.04 kcal/mol
DOCKED: USER    (2) Final Total Internal Energy     =   +0.11 kcal/mol
DOCKED: USER    (3) Torsional Free Energy           =   +2.98 kcal/mol
DOCKED: USER    (4) Unbound System's Energy  [=(2)] =   +0.11 kcal/mol
DOCKED: USER    
DOCKED: USER    
DOCKED: USER    NEWDPF move heme_Fe_opt.pdbqt
DOCKED: USER    NEWDPF about -0.174000 -0.001000 -0.047000
DOCKED: USER    NEWDPF tran0 41.272449 29.091159 16.886965
DOCKED: USER    NEWDPF quaternion0 -0.098058 -0.930234 -0.055310 0.349271
DOCKED: USER    NEWDPF axisangle0 -0.104648 -0.992756 -0.059027 139.114569
DOCKED: USER    NEWDPF quat0 -0.104648 -0.992756 -0.059027 139.114569
DOCKED: USER    NEWDPF dihe0 70.48 153.93 57.65 -142.49 -180.00 129.60 55.70 57.64 179.84 76.66 
DOCKED: USER  keepresnum = 1 
DOCKED: USER  
DOCKED: REMARK  10 active torsions:
DOCKED: REMARK  status: ('A' for Active; 'I' for Inactive)
DOCKED: REMARK    1  A    between atoms: C_6  and  C_10 
DOCKED: REMARK    2  A    between atoms: C_10  and  C_11 
DOCKED: REMARK    3  A    between atoms: C_11  and  C_12 
DOCKED: REMARK    4  A    between atoms: C_12  and  O_14 
DOCKED: REMARK    5  A    between atoms: C_17  and  C_20 
DOCKED: REMARK    6  A    between atoms: C_24  and  C_27 
DOCKED: REMARK    7  A    between atoms: C_31  and  C_34 
DOCKED: REMARK    8  A    between atoms: C_34  and  C_35 
DOCKED: REMARK    9  A    between atoms: C_35  and  C_36 
DOCKED: REMARK   10  A    between atoms: C_36  and  O_38 
DOCKED: USER                              x       y       z     vdW  Elec       q    Type
DOCKED: USER                           _______ _______ _______ _____ _____    ______ ____
DOCKED: ROOT
DOCKED: ATOM      1  C   UNL d   1      43.075  28.614  17.744 -0.12 +0.02    +0.064 C 
DOCKED: ATOM      2  C   UNL d   1      39.778  26.174  14.986 -0.37 +0.01    +0.064 A 
DOCKED: ATOM      3  C   UNL d   1      37.732  30.367  13.846 -0.36 +0.01    +0.064 C 
DOCKED: ATOM      4  C   UNL d   1      40.848  32.739  16.593 -0.48 +0.01    +0.064 C 
DOCKED: ATOM      5  C   UNL d   1      42.286  27.532  17.140 -0.13 +0.02    +0.066 A 
DOCKED: ATOM      6  C   UNL d   1      42.513  26.180  17.342 -0.34 -0.01    -0.021 A 
DOCKED: ATOM      7  C   UNL d   1      41.599  25.503  16.573 -0.36 -0.01    -0.025 A 
DOCKED: ATOM      8  C   UNL d   1      40.848  26.469  15.930 -0.36 +0.02    +0.066 A 
DOCKED: ATOM      9  C   UNL d   1      41.451  24.015  16.482 -0.51 +0.01    +0.051 C 
DOCKED: ATOM     10  C   UNL d   1      39.001  27.085  14.397 -0.35 +0.01    +0.066 A 
DOCKED: ATOM     11  C   UNL d   1      38.061  26.779  13.410 -0.43 -0.00    -0.021 A 
DOCKED: ATOM     12  C   UNL d   1      37.468  27.974  13.052 -0.47 +0.00    +0.000 A 
DOCKED: ATOM     13  C   UNL d   1      38.090  28.957  13.841 -0.32 +0.01    +0.070 A 
DOCKED: ATOM     14  C   UNL d   1      37.787  25.425  12.788 -0.44 +0.01    +0.052 C 
DOCKED: ATOM     15  C   UNL d   1      38.362  31.325  14.565 -0.34 +0.01    +0.066 A 
DOCKED: ATOM     16  C   UNL d   1      37.926  32.643  14.619 -0.38 -0.00    -0.021 A 
DOCKED: ATOM     17  C   UNL d   1      38.825  33.330  15.408 -0.43 +0.00    +0.000 A 
DOCKED: ATOM     18  C   UNL d   1      39.793  32.414  15.815 -0.38 +0.01    +0.070 A 
DOCKED: ATOM     19  C   UNL d   1      36.726  33.242  13.936 -0.33 +0.00    +0.052 C 
DOCKED: ATOM     20  C   UNL d   1      41.851  31.790  17.091 -0.39 +0.01    +0.066 A 
DOCKED: ATOM     21  C   UNL d   1      43.051  32.140  17.727 -0.32 -0.01    -0.025 A 
DOCKED: ATOM     22  C   UNL d   1      43.664  30.949  18.057 -0.32 -0.01    -0.021 A 
DOCKED: ATOM     23  C   UNL d   1      42.821  29.925  17.607 -0.29 +0.02    +0.066 A 
DOCKED: ATOM     24  C   UNL d   1      43.602  33.518  18.009 -0.30 +0.01    +0.051 C 
DOCKED: ATOM     25  N   UNL d   1      41.262  27.702  16.285 -0.25 -0.09    -0.248 N 
DOCKED: ATOM     26  N   UNL d   1      39.031  28.417  14.655 -0.02 -0.07    -0.248 N 
DOCKED: ATOM     27  N   UNL d   1      39.485  31.172  15.333 -0.16 -0.05    -0.248 N 
DOCKED: ATOM     28  N   UNL d   1      41.739  30.445  16.979 -0.23 -0.07    -0.248 N 
DOCKED: ATOM     29 FE   UNL d   1      40.385  29.433  15.817 -0.08 +0.00    +0.000 Fe
DOCKED: ENDROOT
DOCKED: BRANCH   6  30
DOCKED: ATOM     30  C   UNL d   1      43.531  25.561  18.236 -0.32 +0.02    +0.052 C 
DOCKED: BRANCH  30  31
DOCKED: ATOM     31  C   UNL d   1      44.833  25.312  17.482 -0.23 +0.06    +0.115 C 
DOCKED: BRANCH  31  32
DOCKED: ATOM     32  C   UNL d   1      45.227  23.864  17.576 -0.19 +0.11    +0.139 C 
DOCKED: ATOM     33  O   UNL d   1      46.246  23.459  17.034 -0.35 -0.98    -0.650 OA
DOCKED: BRANCH  32  34
DOCKED: ATOM     34  O   UNL d   1      44.460  22.999  18.261 +0.07 -0.44    -0.776 OA
DOCKED: ATOM     35  H   UNL d   1      44.787  22.644  19.099 +0.06 +0.09    +0.167 HD
DOCKED: ENDBRANCH  32  34
DOCKED: ENDBRANCH  31  32
DOCKED: ENDBRANCH  30  31
DOCKED: ENDBRANCH   6  30
DOCKED: BRANCH  22  36
DOCKED: ATOM     36  C   UNL d   1      45.006  30.806  18.724 -0.27 +0.02    +0.052 C 
DOCKED: BRANCH  36  37
DOCKED: ATOM     37  C   UNL d   1      45.262  29.343  19.056 -0.21 +0.06    +0.115 C 
DOCKED: BRANCH  37  38
DOCKED: ATOM     38  C   UNL d   1      45.528  29.162  20.523 -0.14 +0.16    +0.139 C 
DOCKED: ATOM     39  O   UNL d   1      44.921  28.320  21.170 -0.07 -1.07    -0.650 OA
DOCKED: BRANCH  38  40
DOCKED: ATOM     40  O   UNL d   1      46.440  29.933  21.140 -0.29 -1.11    -0.776 OA
DOCKED: ATOM     41  H   UNL d   1      47.167  30.307  20.622 +0.03 +0.14    +0.167 HD
DOCKED: ENDBRANCH  38  40
DOCKED: ENDBRANCH  37  38
DOCKED: ENDBRANCH  36  37
DOCKED: ENDBRANCH  22  36
DOCKED: BRANCH  12  42
DOCKED: ATOM     42  C   UNL d   1      36.403  28.124  12.014 -0.68 +0.00    +0.004 C 
DOCKED: ATOM     43  C   UNL d   1      35.128  28.343  12.361 -0.61 +0.00    +0.012 C 
DOCKED: ENDBRANCH  12  42
DOCKED: BRANCH  17  44
DOCKED: ATOM     44  C   UNL d   1      38.752  34.764  15.767 -0.54 +0.00    +0.004 C 
DOCKED: ATOM     45  C   UNL d   1      39.312  35.695  14.987 -0.61 +0.00    +0.012 C 
DOCKED: ENDBRANCH  17  44
DOCKED: TORSDOF 10
DOCKED: TER
DOCKED: ENDMDL
________________________________________________________________________________


	BEGINNING GENETIC ALGORITHM DOCKING 18 of 100
Run: 18 Seed: 2093165300 1480015075 [ Run 18 of 100 GA/GALS ]
Beginning LAMARCKIAN GENETIC ALGORITHM (LGA), with a maximum of 25000000 energy evaluations.

Final-Value: -17.584


	FINAL GENETIC ALGORITHM DOCKED STATE
	_______________________________________________


Detailed state:  trans 41.574 28.703 16.104 quatxyzw 0.218762 0.096227 -0.949820 0.201804 center -0.174 -0.001 -0.047 ntor 10 59.1333 -74.3494 66.1961 -148.4219 127.9637 141.0045 -47.7974 43.7903 -178.9648 174.5299
State:	 41.574  28.703  16.104   0.223  0.098 -0.970 156.715     59.13  -74.35   66.20 -148.42  127.96  141.00  -47.80   43.79 -178.96  174.53

DOCKED: MODEL       18
DOCKED: USER    Run = 18
DOCKED: USER    DPF = D:/Protein_go_brrr/autodock/final/2DN3/heme_Fe/dock.dpf
DOCKED: USER  
DOCKED: USER    Estimated Free Energy of Binding    =  -12.65 kcal/mol  [=(1)+(2)+(3)-(4)]
DOCKED: USER    Estimated Inhibition Constant, Ki   =  536.43 pM (picomolar)  [Temperature = 298.15 K]
DOCKED: USER    
DOCKED: USER    (1) Final Intermolecular Energy     =  -15.63 kcal/mol
DOCKED: USER        vdW + Hbond + desolv Energy     =  -13.64 kcal/mol
DOCKED: USER        Electrostatic Energy            =   -1.99 kcal/mol
DOCKED: USER    (2) Final Total Internal Energy     =   -1.95 kcal/mol
DOCKED: USER    (3) Torsional Free Energy           =   +2.98 kcal/mol
DOCKED: USER    (4) Unbound System's Energy  [=(2)] =   -1.95 kcal/mol
DOCKED: USER    
DOCKED: USER    
DOCKED: USER    NEWDPF move heme_Fe_opt.pdbqt
DOCKED: USER    NEWDPF about -0.174000 -0.001000 -0.047000
DOCKED: USER    NEWDPF tran0 41.574483 28.703156 16.104331
DOCKED: USER    NEWDPF quaternion0 0.218762 0.096227 -0.949820 0.201804
DOCKED: USER    NEWDPF axisangle0 0.223358 0.098248 -0.969772 156.715049
DOCKED: USER    NEWDPF quat0 0.223358 0.098248 -0.969772 156.715049
DOCKED: USER    NEWDPF dihe0 59.13 -74.35 66.20 -148.42 127.96 141.00 -47.80 43.79 -178.96 174.53 
DOCKED: USER  keepresnum = 1 
DOCKED: USER  
DOCKED: REMARK  10 active torsions:
DOCKED: REMARK  status: ('A' for Active; 'I' for Inactive)
DOCKED: REMARK    1  A    between atoms: C_6  and  C_10 
DOCKED: REMARK    2  A    between atoms: C_10  and  C_11 
DOCKED: REMARK    3  A    between atoms: C_11  and  C_12 
DOCKED: REMARK    4  A    between atoms: C_12  and  O_14 
DOCKED: REMARK    5  A    between atoms: C_17  and  C_20 
DOCKED: REMARK    6  A    between atoms: C_24  and  C_27 
DOCKED: REMARK    7  A    between atoms: C_31  and  C_34 
DOCKED: REMARK    8  A    between atoms: C_34  and  C_35 
DOCKED: REMARK    9  A    between atoms: C_35  and  C_36 
DOCKED: REMARK   10  A    between atoms: C_36  and  O_38 
DOCKED: USER                              x       y       z     vdW  Elec       q    Type
DOCKED: USER                           _______ _______ _______ _____ _____    ______ ____
DOCKED: ROOT
DOCKED: ATOM      1  C   UNL d   1      42.983  27.863  17.338 -0.25 +0.02    +0.064 C 
DOCKED: ATOM      2  C   UNL d   1      41.201  32.428  16.692 -0.41 +0.01    +0.064 A 
DOCKED: ATOM      3  C   UNL d   1      37.531  30.570  14.212 -0.11 +0.01    +0.064 C 
DOCKED: ATOM      4  C   UNL d   1      39.294  26.153  14.736 -0.46 +0.01    +0.064 C 
DOCKED: ATOM      5  C   UNL d   1      42.866  29.328  17.315 -0.27 +0.02    +0.066 A 
DOCKED: ATOM      6  C   UNL d   1      43.804  30.204  17.835 -0.31 -0.01    -0.021 A 
DOCKED: ATOM      7  C   UNL d   1      43.307  31.471  17.659 -0.26 -0.01    -0.025 A 
DOCKED: ATOM      8  C   UNL d   1      42.083  31.320  17.036 -0.37 +0.02    +0.066 A 
DOCKED: ATOM      9  C   UNL d   1      43.984  32.749  18.051 -0.11 +0.01    +0.051 C 
DOCKED: ATOM     10  C   UNL d   1      40.042  32.313  16.040 -0.39 +0.01    +0.066 A 
DOCKED: ATOM     11  C   UNL d   1      39.165  33.379  15.826 -0.40 -0.00    -0.021 A 
DOCKED: ATOM     12  C   UNL d   1      38.091  32.866  15.127 -0.39 +0.00    +0.000 A 
DOCKED: ATOM     13  C   UNL d   1      38.367  31.498  14.957 -0.32 +0.01    +0.070 A 
DOCKED: ATOM     14  C   UNL d   1      39.311  34.803  16.322 -0.50 +0.01    +0.052 C 
DOCKED: ATOM     15  C   UNL d   1      37.766  29.242  14.089 -0.35 +0.01    +0.066 A 
DOCKED: ATOM     16  C   UNL d   1      36.999  28.407  13.287 -0.45 -0.00    -0.021 A 
DOCKED: ATOM     17  C   UNL d   1      37.504  27.132  13.440 -0.45 +0.00    +0.000 A 
DOCKED: ATOM     18  C   UNL d   1      38.566  27.219  14.336 -0.37 +0.01    +0.070 A 
DOCKED: ATOM     19  C   UNL d   1      35.821  28.785  12.430 -0.64 +0.01    +0.052 C 
DOCKED: ATOM     20  C   UNL d   1      40.457  26.216  15.629 -0.36 +0.02    +0.066 A 
DOCKED: ATOM     21  C   UNL d   1      41.094  25.109  16.208 -0.32 -0.01    -0.025 A 
DOCKED: ATOM     22  C   UNL d   1      42.150  25.618  16.935 -0.36 -0.01    -0.021 A 
DOCKED: ATOM     23  C   UNL d   1      42.112  27.009  16.777 -0.33 +0.02    +0.066 A 
DOCKED: ATOM     24  C   UNL d   1      40.733  23.646  16.093 -0.42 +0.01    +0.051 C 
DOCKED: ATOM     25  N   UNL d   1      41.822  30.015  16.819 -0.13 -0.08    -0.248 N 
DOCKED: ATOM     26  N   UNL d   1      39.552  31.159  15.521 -0.17 -0.06    -0.248 N 
DOCKED: ATOM     27  N   UNL d   1      38.756  28.522  14.702 -0.12 -0.06    -0.248 N 
DOCKED: ATOM     28  N   UNL d   1      41.051  27.370  16.016 -0.25 -0.08    -0.248 N 
DOCKED: ATOM     29 FE   UNL d   1      40.301  29.263  15.768 -0.08 +0.00    +0.000 Fe
DOCKED: ENDROOT
DOCKED: BRANCH   6  30
DOCKED: ATOM     30  C   UNL d   1      45.117  29.859  18.450 -0.25 +0.02    +0.052 C 
DOCKED: BRANCH  30  31
DOCKED: ATOM     31  C   UNL d   1      44.968  29.636  19.951 -0.20 +0.09    +0.115 C 
DOCKED: BRANCH  31  32
DOCKED: ATOM     32  C   UNL d   1      45.657  28.365  20.365 -0.18 +0.15    +0.139 C 
DOCKED: ATOM     33  O   UNL d   1      46.467  28.364  21.281 -0.36 -1.13    -0.650 OA
DOCKED: BRANCH  32  34
DOCKED: ATOM     34  O   UNL d   1      45.387  27.213  19.728 +0.07 -0.54    -0.776 OA
DOCKED: ATOM     35  H   UNL d   1      45.039  26.466  20.235 +0.06 +0.12    +0.167 HD
DOCKED: ENDBRANCH  32  34
DOCKED: ENDBRANCH  31  32
DOCKED: ENDBRANCH  30  31
DOCKED: ENDBRANCH   6  30
DOCKED: BRANCH  22  36
DOCKED: ATOM     36  C   UNL d   1      43.110  24.815  17.773 -0.37 +0.02    +0.052 C 
DOCKED: BRANCH  36  37
DOCKED: ATOM     37  C   UNL d   1      42.558  24.664  19.183 -0.38 +0.04    +0.115 C 
DOCKED: BRANCH  37  38
DOCKED: ATOM     38  C   UNL d   1      43.636  24.871  20.209 -0.31 +0.07    +0.139 C 
DOCKED: ATOM     39  O   UNL d   1      43.406  25.474  21.246 -0.06 -0.38    -0.650 OA
DOCKED: BRANCH  38  40
DOCKED: ATOM     40  O   UNL d   1      44.874  24.392  19.987 -0.24 -0.46    -0.776 OA
DOCKED: ATOM     41  H   UNL d   1      45.580  25.008  19.748 +0.06 +0.10    +0.167 HD
DOCKED: ENDBRANCH  38  40
DOCKED: ENDBRANCH  37  38
DOCKED: ENDBRANCH  36  37
DOCKED: ENDBRANCH  22  36
DOCKED: BRANCH  12  42
DOCKED: ATOM     42  C   UNL d   1      36.898  33.656  14.690 -0.39 +0.00    +0.004 C 
DOCKED: ATOM     43  C   UNL d   1      36.645  33.859  13.390 -0.53 +0.00    +0.012 C 
DOCKED: ENDBRANCH  12  42
DOCKED: BRANCH  17  44
DOCKED: ATOM     44  C   UNL d   1      37.014  25.913  12.756 -0.54 +0.00    +0.004 C 
DOCKED: ATOM     45  C   UNL d   1      36.119  25.112  13.343 -0.68 +0.00    +0.012 C 
DOCKED: ENDBRANCH  17  44
DOCKED: TORSDOF 10
DOCKED: TER
DOCKED: ENDMDL
________________________________________________________________________________


	BEGINNING GENETIC ALGORITHM DOCKING 19 of 100
Run: 19 Seed: 912399948 681422427 [ Run 19 of 100 GA/GALS ]
Beginning LAMARCKIAN GENETIC ALGORITHM (LGA), with a maximum of 25000000 energy evaluations.

Final-Value: -17.277


	FINAL GENETIC ALGORITHM DOCKED STATE
	_______________________________________________


Detailed state:  trans 41.738 28.768 16.185 quatxyzw -0.225052 -0.097521 0.950991 -0.188303 center -0.174 -0.001 -0.047 ntor 10 -64.8874 178.9221 65.6661 -144.4118 110.2886 131.3538 -36.6844 -14.8454 179.4413 -1.7382
State:	 41.738  28.768  16.185  -0.229 -0.099  0.968 -158.292    -64.89  178.92   65.67 -144.41  110.29  131.35  -36.68  -14.85  179.44   -1.74

DOCKED: MODEL       19
DOCKED: USER    Run = 19
DOCKED: USER    DPF = D:/Protein_go_brrr/autodock/final/2DN3/heme_Fe/dock.dpf
DOCKED: USER  
DOCKED: USER    Estimated Free Energy of Binding    =  -12.75 kcal/mol  [=(1)+(2)+(3)-(4)]
DOCKED: USER    Estimated Inhibition Constant, Ki   =  448.85 pM (picomolar)  [Temperature = 298.15 K]
DOCKED: USER    
DOCKED: USER    (1) Final Intermolecular Energy     =  -15.74 kcal/mol
DOCKED: USER        vdW + Hbond + desolv Energy     =  -13.37 kcal/mol
DOCKED: USER        Electrostatic Energy            =   -2.37 kcal/mol
DOCKED: USER    (2) Final Total Internal Energy     =   -1.54 kcal/mol
DOCKED: USER    (3) Torsional Free Energy           =   +2.98 kcal/mol
DOCKED: USER    (4) Unbound System's Energy  [=(2)] =   -1.54 kcal/mol
DOCKED: USER    
DOCKED: USER    
DOCKED: USER    NEWDPF move heme_Fe_opt.pdbqt
DOCKED: USER    NEWDPF about -0.174000 -0.001000 -0.047000
DOCKED: USER    NEWDPF tran0 41.737545 28.767581 16.184963
DOCKED: USER    NEWDPF quaternion0 -0.225052 -0.097521 0.950991 -0.188303
DOCKED: USER    NEWDPF axisangle0 -0.229151 -0.099297 0.968313 -158.292475
DOCKED: USER    NEWDPF quat0 -0.229151 -0.099297 0.968313 -158.292475
DOCKED: USER    NEWDPF dihe0 -64.89 178.92 65.67 -144.41 110.29 131.35 -36.68 -14.85 179.44 -1.74 
DOCKED: USER  keepresnum = 1 
DOCKED: USER  
DOCKED: REMARK  10 active torsions:
DOCKED: REMARK  status: ('A' for Active; 'I' for Inactive)
DOCKED: REMARK    1  A    between atoms: C_6  and  C_10 
DOCKED: REMARK    2  A    between atoms: C_10  and  C_11 
DOCKED: REMARK    3  A    between atoms: C_11  and  C_12 
DOCKED: REMARK    4  A    between atoms: C_12  and  O_14 
DOCKED: REMARK    5  A    between atoms: C_17  and  C_20 
DOCKED: REMARK    6  A    between atoms: C_24  and  C_27 
DOCKED: REMARK    7  A    between atoms: C_31  and  C_34 
DOCKED: REMARK    8  A    between atoms: C_34  and  C_35 
DOCKED: REMARK    9  A    between atoms: C_35  and  C_36 
DOCKED: REMARK   10  A    between atoms: C_36  and  O_38 
DOCKED: USER                              x       y       z     vdW  Elec       q    Type
DOCKED: USER                           _______ _______ _______ _____ _____    ______ ____
DOCKED: ROOT
DOCKED: ATOM      1  C   UNL d   1      43.149  27.971  17.444 -0.23 +0.02    +0.064 C 
DOCKED: ATOM      2  C   UNL d   1      41.261  32.485  16.743 -0.41 +0.01    +0.064 A 
DOCKED: ATOM      3  C   UNL d   1      37.676  30.519  14.223 -0.22 +0.01    +0.064 C 
DOCKED: ATOM      4  C   UNL d   1      39.543  26.152  14.800 -0.46 +0.01    +0.064 C 
DOCKED: ATOM      5  C   UNL d   1      42.995  29.432  17.410 -0.27 +0.02    +0.066 A 
DOCKED: ATOM      6  C   UNL d   1      43.903  30.335  17.938 -0.31 -0.01    -0.021 A 
DOCKED: ATOM      7  C   UNL d   1      43.376  31.589  17.746 -0.31 -0.01    -0.025 A 
DOCKED: ATOM      8  C   UNL d   1      42.165  31.402  17.107 -0.37 +0.02    +0.066 A 
DOCKED: ATOM      9  C   UNL d   1      44.015  32.885  18.140 -0.16 +0.01    +0.051 C 
DOCKED: ATOM     10  C   UNL d   1      40.115  32.337  16.075 -0.39 +0.01    +0.066 A 
DOCKED: ATOM     11  C   UNL d   1      39.214  33.379  15.841 -0.41 -0.00    -0.021 A 
DOCKED: ATOM     12  C   UNL d   1      38.164  32.834  15.131 -0.39 +0.00    +0.000 A 
DOCKED: ATOM     13  C   UNL d   1      38.477  31.473  14.973 -0.34 +0.01    +0.070 A 
DOCKED: ATOM     14  C   UNL d   1      39.317  34.809  16.331 -0.50 +0.01    +0.052 C 
DOCKED: ATOM     15  C   UNL d   1      37.947  29.197  14.112 -0.34 +0.01    +0.066 A 
DOCKED: ATOM     16  C   UNL d   1      37.213  28.337  13.304 -0.45 -0.00    -0.021 A 
DOCKED: ATOM     17  C   UNL d   1      37.747  27.077  13.472 -0.45 +0.00    +0.000 A 
DOCKED: ATOM     18  C   UNL d   1      38.794  27.196  14.383 -0.35 +0.01    +0.070 A 
DOCKED: ATOM     19  C   UNL d   1      36.038  28.680  12.427 -0.63 +0.01    +0.052 C 
DOCKED: ATOM     20  C   UNL d   1      40.691  26.249  15.710 -0.38 +0.02    +0.066 A 
DOCKED: ATOM     21  C   UNL d   1      41.347  25.163  16.305 -0.39 -0.01    -0.025 A 
DOCKED: ATOM     22  C   UNL d   1      42.379  25.703  17.044 -0.36 -0.01    -0.021 A 
DOCKED: ATOM     23  C   UNL d   1      42.308  27.092  16.877 -0.31 +0.02    +0.066 A 
DOCKED: ATOM     24  C   UNL d   1      41.025  23.690  16.194 -0.46 +0.01    +0.051 C 
DOCKED: ATOM     25  N   UNL d   1      41.941  30.090  16.895 -0.17 -0.08    -0.248 N 
DOCKED: ATOM     26  N   UNL d   1      39.662  31.168  15.556 -0.18 -0.06    -0.248 N 
DOCKED: ATOM     27  N   UNL d   1      38.946  28.506  14.744 -0.03 -0.07    -0.248 N 
DOCKED: ATOM     28  N   UNL d   1      41.249  27.421  16.098 -0.25 -0.08    -0.248 N 
DOCKED: ATOM     29 FE   UNL d   1      40.455  29.293  15.827 -0.08 +0.00    +0.000 Fe
DOCKED: ENDROOT
DOCKED: BRANCH   6  30
DOCKED: ATOM     30  C   UNL d   1      45.215  30.027  18.574 -0.25 +0.02    +0.052 C 
DOCKED: BRANCH  30  31
DOCKED: ATOM     31  C   UNL d   1      45.056  29.848  20.080 -0.10 +0.09    +0.115 C 
DOCKED: BRANCH  31  32
DOCKED: ATOM     32  C   UNL d   1      45.972  28.765  20.581 -0.15 +0.16    +0.139 C 
DOCKED: ATOM     33  O   UNL d   1      46.937  29.039  21.280 -0.56 -1.03    -0.650 OA
DOCKED: BRANCH  32  34
DOCKED: ATOM     34  O   UNL d   1      45.736  27.482  20.261 +0.04 -0.70    -0.776 OA
DOCKED: ATOM     35  H   UNL d   1      46.376  27.010  19.710 +0.05 +0.11    +0.167 HD
DOCKED: ENDBRANCH  32  34
DOCKED: ENDBRANCH  31  32
DOCKED: ENDBRANCH  30  31
DOCKED: ENDBRANCH   6  30
DOCKED: BRANCH  22  36
DOCKED: ATOM     36  C   UNL d   1      43.346  24.930  17.901 -0.35 +0.02    +0.052 C 
DOCKED: BRANCH  36  37
DOCKED: ATOM     37  C   UNL d   1      44.613  24.639  17.110 -0.18 +0.07    +0.115 C 
DOCKED: BRANCH  37  38
DOCKED: ATOM     38  C   UNL d   1      45.732  24.218  18.020 -0.20 +0.10    +0.139 C 
DOCKED: ATOM     39  O   UNL d   1      46.396  23.221  17.775 -0.12 -0.75    -0.650 OA
DOCKED: BRANCH  38  40
DOCKED: ATOM     40  O   UNL d   1      46.008  24.938  19.122 +0.09 -0.47    -0.776 OA
DOCKED: ATOM     41  H   UNL d   1      45.492  25.735  19.304 +0.06 +0.10    +0.167 HD
DOCKED: ENDBRANCH  38  40
DOCKED: ENDBRANCH  37  38
DOCKED: ENDBRANCH  36  37
DOCKED: ENDBRANCH  22  36
DOCKED: BRANCH  12  42
DOCKED: ATOM     42  C   UNL d   1      36.958  33.590  14.671 -0.39 +0.00    +0.004 C 
DOCKED: ATOM     43  C   UNL d   1      36.724  33.789  13.367 -0.52 +0.00    +0.012 C 
DOCKED: ENDBRANCH  12  42
DOCKED: BRANCH  17  44
DOCKED: ATOM     44  C   UNL d   1      37.299  25.842  12.789 -0.55 +0.00    +0.004 C 
DOCKED: ATOM     45  C   UNL d   1      36.358  25.063  13.331 -0.67 +0.00    +0.012 C 
DOCKED: ENDBRANCH  17  44
DOCKED: TORSDOF 10
DOCKED: TER
DOCKED: ENDMDL
________________________________________________________________________________


	BEGINNING GENETIC ALGORITHM DOCKING 20 of 100
Run: 20 Seed: 1179896195 1751440332 [ Run 20 of 100 GA/GALS ]
Beginning LAMARCKIAN GENETIC ALGORITHM (LGA), with a maximum of 25000000 energy evaluations.

Final-Value: -16.897


	FINAL GENETIC ALGORITHM DOCKED STATE
	_______________________________________________


Detailed state:  trans 41.250 29.051 16.885 quatxyzw -0.106216 -0.932732 -0.061931 0.338960 center -0.174 -0.001 -0.047 ntor 10 -69.6754 67.8174 70.2871 -142.7929 -18.1813 176.4574 32.8111 10.0830 179.9868 46.8368
State:	 41.250  29.051  16.885  -0.113 -0.991 -0.066 140.373    -69.68   67.82   70.29 -142.79  -18.18  176.46   32.81   10.08  179.99   46.84

DOCKED: MODEL       20
DOCKED: USER    Run = 20
DOCKED: USER    DPF = D:/Protein_go_brrr/autodock/final/2DN3/heme_Fe/dock.dpf
DOCKED: USER  
DOCKED: USER    Estimated Free Energy of Binding    =  -13.58 kcal/mol  [=(1)+(2)+(3)-(4)]
DOCKED: USER    Estimated Inhibition Constant, Ki   =  111.07 pM (picomolar)  [Temperature = 298.15 K]
DOCKED: USER    
DOCKED: USER    (1) Final Intermolecular Energy     =  -16.56 kcal/mol
DOCKED: USER        vdW + Hbond + desolv Energy     =  -13.91 kcal/mol
DOCKED: USER        Electrostatic Energy            =   -2.65 kcal/mol
DOCKED: USER    (2) Final Total Internal Energy     =   -0.33 kcal/mol
DOCKED: USER    (3) Torsional Free Energy           =   +2.98 kcal/mol
DOCKED: USER    (4) Unbound System's Energy  [=(2)] =   -0.33 kcal/mol
DOCKED: USER    
DOCKED: USER    
DOCKED: USER    NEWDPF move heme_Fe_opt.pdbqt
DOCKED: USER    NEWDPF about -0.174000 -0.001000 -0.047000
DOCKED: USER    NEWDPF tran0 41.249704 29.050517 16.884648
DOCKED: USER    NEWDPF quaternion0 -0.106216 -0.932732 -0.061931 0.338960
DOCKED: USER    NEWDPF axisangle0 -0.112900 -0.991423 -0.065828 140.372996
DOCKED: USER    NEWDPF quat0 -0.112900 -0.991423 -0.065828 140.372996
DOCKED: USER    NEWDPF dihe0 -69.68 67.82 70.29 -142.79 -18.18 176.46 32.81 10.08 179.99 46.84 
DOCKED: USER  keepresnum = 1 
DOCKED: USER  
DOCKED: REMARK  10 active torsions:
DOCKED: REMARK  status: ('A' for Active; 'I' for Inactive)
DOCKED: REMARK    1  A    between atoms: C_6  and  C_10 
DOCKED: REMARK    2  A    between atoms: C_10  and  C_11 
DOCKED: REMARK    3  A    between atoms: C_11  and  C_12 
DOCKED: REMARK    4  A    between atoms: C_12  and  O_14 
DOCKED: REMARK    5  A    between atoms: C_17  and  C_20 
DOCKED: REMARK    6  A    between atoms: C_24  and  C_27 
DOCKED: REMARK    7  A    between atoms: C_31  and  C_34 
DOCKED: REMARK    8  A    between atoms: C_34  and  C_35 
DOCKED: REMARK    9  A    between atoms: C_35  and  C_36 
DOCKED: REMARK   10  A    between atoms: C_36  and  O_38 
DOCKED: USER                              x       y       z     vdW  Elec       q    Type
DOCKED: USER                           _______ _______ _______ _____ _____    ______ ____
DOCKED: ROOT
DOCKED: ATOM      1  C   UNL d   1      43.065  28.541  17.694 -0.12 +0.02    +0.064 C 
DOCKED: ATOM      2  C   UNL d   1      39.690  26.185  14.958 -0.38 +0.01    +0.064 A 
DOCKED: ATOM      3  C   UNL d   1      37.659  30.417  13.943 -0.31 +0.01    +0.064 C 
DOCKED: ATOM      4  C   UNL d   1      40.852  32.707  16.672 -0.48 +0.01    +0.064 C 
DOCKED: ATOM      5  C   UNL d   1      42.254  27.477  17.086 -0.22 +0.02    +0.066 A 
DOCKED: ATOM      6  C   UNL d   1      42.472  26.120  17.257 -0.34 -0.01    -0.021 A 
DOCKED: ATOM      7  C   UNL d   1      41.537  25.467  16.493 -0.38 -0.01    -0.025 A 
DOCKED: ATOM      8  C   UNL d   1      40.782  26.451  15.886 -0.37 +0.02    +0.066 A 
DOCKED: ATOM      9  C   UNL d   1      41.374  23.982  16.376 -0.50 +0.01    +0.051 C 
DOCKED: ATOM     10  C   UNL d   1      38.910  27.114  14.403 -0.36 +0.01    +0.066 A 
DOCKED: ATOM     11  C   UNL d   1      37.947  26.836  13.430 -0.43 -0.00    -0.021 A 
DOCKED: ATOM     12  C   UNL d   1      37.358  28.043  13.108 -0.47 +0.00    +0.000 A 
DOCKED: ATOM     13  C   UNL d   1      38.005  29.005  13.903 -0.34 +0.01    +0.070 A 
DOCKED: ATOM     14  C   UNL d   1      37.648  25.497  12.788 -0.47 +0.01    +0.052 C 
DOCKED: ATOM     15  C   UNL d   1      38.313  31.356  14.668 -0.33 +0.01    +0.066 A 
DOCKED: ATOM     16  C   UNL d   1      37.890  32.676  14.757 -0.37 -0.00    -0.021 A 
DOCKED: ATOM     17  C   UNL d   1      38.812  33.339  15.540 -0.43 +0.00    +0.000 A 
DOCKED: ATOM     18  C   UNL d   1      39.779  32.407  15.909 -0.37 +0.01    +0.070 A 
DOCKED: ATOM     19  C   UNL d   1      36.682  33.299  14.110 -0.35 +0.00    +0.052 C 
DOCKED: ATOM     20  C   UNL d   1      41.857  31.740  17.130 -0.39 +0.01    +0.066 A 
DOCKED: ATOM     21  C   UNL d   1      43.073  32.066  17.747 -0.34 -0.01    -0.025 A 
DOCKED: ATOM     22  C   UNL d   1      43.681  30.864  18.042 -0.32 -0.01    -0.021 A 
DOCKED: ATOM     23  C   UNL d   1      42.821  29.856  17.589 -0.29 +0.02    +0.066 A 
DOCKED: ATOM     24  C   UNL d   1      43.642  33.434  18.045 -0.29 +0.01    +0.051 C 
DOCKED: ATOM     25  N   UNL d   1      41.215  27.673  16.256 -0.25 -0.09    -0.248 N 
DOCKED: ATOM     26  N   UNL d   1      38.957  28.440  14.686 -0.04 -0.07    -0.248 N 
DOCKED: ATOM     27  N   UNL d   1      39.450  31.178  15.409 -0.19 -0.05    -0.248 N 
DOCKED: ATOM     28  N   UNL d   1      41.730  30.398  16.993 -0.23 -0.07    -0.248 N 
DOCKED: ATOM     29 FE   UNL d   1      40.344  29.421  15.840 -0.08 +0.00    +0.000 Fe
DOCKED: ENDROOT
DOCKED: BRANCH   6  30
DOCKED: ATOM     30  C   UNL d   1      43.503  25.474  18.117 -0.32 +0.02    +0.052 C 
DOCKED: BRANCH  30  31
DOCKED: ATOM     31  C   UNL d   1      44.788  25.233  17.333 -0.22 +0.06    +0.115 C 
DOCKED: BRANCH  31  32
DOCKED: ATOM     32  C   UNL d   1      45.472  23.983  17.815 -0.22 +0.11    +0.139 C 
DOCKED: ATOM     33  O   UNL d   1      45.195  23.502  18.904 -0.07 -0.40    -0.650 OA
DOCKED: BRANCH  32  34
DOCKED: ATOM     34  O   UNL d   1      46.398  23.383  17.048 -0.31 -1.26    -0.776 OA
DOCKED: ATOM     35  H   UNL d   1      47.325  23.408  17.326 +0.03 +0.29    +0.167 HD
DOCKED: ENDBRANCH  32  34
DOCKED: ENDBRANCH  31  32
DOCKED: ENDBRANCH  30  31
DOCKED: ENDBRANCH   6  30
DOCKED: BRANCH  22  36
DOCKED: ATOM     36  C   UNL d   1      45.036  30.696  18.678 -0.26 +0.02    +0.052 C 
DOCKED: BRANCH  36  37
DOCKED: ATOM     37  C   UNL d   1      45.020  29.492  19.609 -0.24 +0.08    +0.115 C 
DOCKED: BRANCH  37  38
DOCKED: ATOM     38  C   UNL d   1      46.279  29.428  20.427 -0.15 +0.14    +0.139 C 
DOCKED: ATOM     39  O   UNL d   1      46.425  28.567  21.282 -0.38 -1.16    -0.650 OA
DOCKED: BRANCH  38  40
DOCKED: ATOM     40  O   UNL d   1      47.258  30.327  20.224 -0.00 -0.53    -0.776 OA
DOCKED: ATOM     41  H   UNL d   1      48.100  30.028  19.850 +0.03 +0.09    +0.167 HD
DOCKED: ENDBRANCH  38  40
DOCKED: ENDBRANCH  37  38
DOCKED: ENDBRANCH  36  37
DOCKED: ENDBRANCH  22  36
DOCKED: BRANCH  12  42
DOCKED: ATOM     42  C   UNL d   1      36.273  28.223  12.095 -0.69 +0.00    +0.004 C 
DOCKED: ATOM     43  C   UNL d   1      35.069  28.690  12.450 -0.59 +0.00    +0.012 C 
DOCKED: ENDBRANCH  12  42
DOCKED: BRANCH  17  44
DOCKED: ATOM     44  C   UNL d   1      38.759  34.767  15.929 -0.49 +0.00    +0.004 C 
DOCKED: ATOM     45  C   UNL d   1      39.316  35.707  15.159 -0.59 +0.00    +0.012 C 
DOCKED: ENDBRANCH  17  44
DOCKED: TORSDOF 10
DOCKED: TER
DOCKED: ENDMDL
________________________________________________________________________________


	BEGINNING GENETIC ALGORITHM DOCKING 21 of 100
Run: 21 Seed: 462476490 1905171323 [ Run 21 of 100 GA/GALS ]
Beginning LAMARCKIAN GENETIC ALGORITHM (LGA), with a maximum of 25000000 energy evaluations.

Final-Value: -17.675


	FINAL GENETIC ALGORITHM DOCKED STATE
	_______________________________________________


Detailed state:  trans 41.450 28.789 16.017 quatxyzw 0.232665 0.075633 -0.954893 0.168302 center -0.174 -0.001 -0.047 ntor 10 -96.7485 -141.6309 67.6103 -142.5041 122.3541 175.4195 -48.6001 -65.2797 177.7227 -29.2674
State:	 41.450  28.789  16.017   0.236  0.077 -0.969 160.622    -96.75 -141.63   67.61 -142.50  122.35  175.42  -48.60  -65.28  177.72  -29.27

DOCKED: MODEL       21
DOCKED: USER    Run = 21
DOCKED: USER    DPF = D:/Protein_go_brrr/autodock/final/2DN3/heme_Fe/dock.dpf
DOCKED: USER  
DOCKED: USER    Estimated Free Energy of Binding    =  -13.05 kcal/mol  [=(1)+(2)+(3)-(4)]
DOCKED: USER    Estimated Inhibition Constant, Ki   =  271.29 pM (picomolar)  [Temperature = 298.15 K]
DOCKED: USER    
DOCKED: USER    (1) Final Intermolecular Energy     =  -16.03 kcal/mol
DOCKED: USER        vdW + Hbond + desolv Energy     =  -13.36 kcal/mol
DOCKED: USER        Electrostatic Energy            =   -2.68 kcal/mol
DOCKED: USER    (2) Final Total Internal Energy     =   -1.64 kcal/mol
DOCKED: USER    (3) Torsional Free Energy           =   +2.98 kcal/mol
DOCKED: USER    (4) Unbound System's Energy  [=(2)] =   -1.64 kcal/mol
DOCKED: USER    
DOCKED: USER    
DOCKED: USER    NEWDPF move heme_Fe_opt.pdbqt
DOCKED: USER    NEWDPF about -0.174000 -0.001000 -0.047000
DOCKED: USER    NEWDPF tran0 41.450238 28.788781 16.017103
DOCKED: USER    NEWDPF quaternion0 0.232665 0.075633 -0.954893 0.168302
DOCKED: USER    NEWDPF axisangle0 0.236032 0.076728 -0.968711 160.621836
DOCKED: USER    NEWDPF quat0 0.236032 0.076728 -0.968711 160.621836
DOCKED: USER    NEWDPF dihe0 -96.75 -141.63 67.61 -142.50 122.35 175.42 -48.60 -65.28 177.72 -29.27 
DOCKED: USER  keepresnum = 1 
DOCKED: USER  
DOCKED: REMARK  10 active torsions:
DOCKED: REMARK  status: ('A' for Active; 'I' for Inactive)
DOCKED: REMARK    1  A    between atoms: C_6  and  C_10 
DOCKED: REMARK    2  A    between atoms: C_10  and  C_11 
DOCKED: REMARK    3  A    between atoms: C_11  and  C_12 
DOCKED: REMARK    4  A    between atoms: C_12  and  O_14 
DOCKED: REMARK    5  A    between atoms: C_17  and  C_20 
DOCKED: REMARK    6  A    between atoms: C_24  and  C_27 
DOCKED: REMARK    7  A    between atoms: C_31  and  C_34 
DOCKED: REMARK    8  A    between atoms: C_34  and  C_35 
DOCKED: REMARK    9  A    between atoms: C_35  and  C_36 
DOCKED: REMARK   10  A    between atoms: C_36  and  O_38 
DOCKED: USER                              x       y       z     vdW  Elec       q    Type
DOCKED: USER                           _______ _______ _______ _____ _____    ______ ____
DOCKED: ROOT
DOCKED: ATOM      1  C   UNL d   1      42.871  28.102  17.328 -0.23 +0.02    +0.064 C 
DOCKED: ATOM      2  C   UNL d   1      40.865  32.516  16.369 -0.41 +0.01    +0.064 A 
DOCKED: ATOM      3  C   UNL d   1      37.360  30.315  13.932 -0.20 +0.01    +0.064 C 
DOCKED: ATOM      4  C   UNL d   1      39.342  26.041  14.760 -0.46 +0.01    +0.064 C 
DOCKED: ATOM      5  C   UNL d   1      42.677  29.554  17.213 -0.26 +0.02    +0.066 A 
DOCKED: ATOM      6  C   UNL d   1      43.555  30.510  17.699 -0.33 -0.01    -0.021 A 
DOCKED: ATOM      7  C   UNL d   1      42.995  31.735  17.435 -0.20 -0.01    -0.025 A 
DOCKED: ATOM      8  C   UNL d   1      41.796  31.480  16.798 -0.28 +0.02    +0.066 A 
DOCKED: ATOM      9  C   UNL d   1      43.594  33.069  17.763 -0.20 +0.01    +0.051 C 
DOCKED: ATOM     10  C   UNL d   1      39.730  32.300  15.701 -0.38 +0.01    +0.066 A 
DOCKED: ATOM     11  C   UNL d   1      38.803  33.301  15.404 -0.42 -0.00    -0.021 A 
DOCKED: ATOM     12  C   UNL d   1      37.774  32.689  14.716 -0.34 +0.00    +0.000 A 
DOCKED: ATOM     13  C   UNL d   1      38.127  31.331  14.635 -0.31 +0.01    +0.070 A 
DOCKED: ATOM     14  C   UNL d   1      38.860  34.758  15.816 -0.50 +0.01    +0.052 C 
DOCKED: ATOM     15  C   UNL d   1      37.668  28.997  13.895 -0.37 +0.01    +0.066 A 
DOCKED: ATOM     16  C   UNL d   1      36.966  28.075  13.129 -0.47 -0.00    -0.021 A 
DOCKED: ATOM     17  C   UNL d   1      37.534  26.841  13.369 -0.45 +0.00    +0.000 A 
DOCKED: ATOM     18  C   UNL d   1      38.568  27.039  14.281 -0.38 +0.01    +0.070 A 
DOCKED: ATOM     19  C   UNL d   1      35.790  28.336  12.226 -0.66 +0.01    +0.052 C 
DOCKED: ATOM     20  C   UNL d   1      40.479  26.220  15.671 -0.34 +0.02    +0.066 A 
DOCKED: ATOM     21  C   UNL d   1      41.160  25.186  16.330 -0.33 -0.01    -0.025 A 
DOCKED: ATOM     22  C   UNL d   1      42.169  25.795  17.046 -0.37 -0.01    -0.021 A 
DOCKED: ATOM     23  C   UNL d   1      42.061  27.170  16.803 -0.31 +0.02    +0.066 A 
DOCKED: ATOM     24  C   UNL d   1      40.880  23.701  16.296 -0.42 +0.01    +0.051 C 
DOCKED: ATOM     25  N   UNL d   1      41.610  30.152  16.656 -0.07 -0.08    -0.248 N 
DOCKED: ATOM     26  N   UNL d   1      39.314  31.091  15.243 -0.20 -0.05    -0.248 N 
DOCKED: ATOM     27  N   UNL d   1      38.680  28.370  14.571 -0.18 -0.06    -0.248 N 
DOCKED: ATOM     28  N   UNL d   1      41.001  27.427  16.000 -0.24 -0.08    -0.248 N 
DOCKED: ATOM     29 FE   UNL d   1      40.157  29.257  15.621 -0.08 +0.00    +0.000 Fe
DOCKED: ENDROOT
DOCKED: BRANCH   6  30
DOCKED: ATOM     30  C   UNL d   1      44.869  30.274  18.361 -0.27 +0.02    +0.052 C 
DOCKED: BRANCH  30  31
DOCKED: ATOM     31  C   UNL d   1      44.708  30.215  19.876 -0.20 +0.08    +0.115 C 
DOCKED: BRANCH  31  32
DOCKED: ATOM     32  C   UNL d   1      45.411  29.008  20.433 -0.16 +0.15    +0.139 C 
DOCKED: ATOM     33  O   UNL d   1      46.284  29.131  21.280 -0.36 -1.21    -0.650 OA
DOCKED: BRANCH  32  34
DOCKED: ATOM     34  O   UNL d   1      45.083  27.778  20.002 +0.04 -0.63    -0.776 OA
DOCKED: ATOM     35  H   UNL d   1      45.480  27.446  19.185 +0.06 +0.10    +0.167 HD
DOCKED: ENDBRANCH  32  34
DOCKED: ENDBRANCH  31  32
DOCKED: ENDBRANCH  30  31
DOCKED: ENDBRANCH   6  30
DOCKED: BRANCH  22  36
DOCKED: ATOM     36  C   UNL d   1      43.150  25.097  17.951 -0.36 +0.02    +0.052 C 
DOCKED: BRANCH  36  37
DOCKED: ATOM     37  C   UNL d   1      44.078  24.221  17.123 -0.19 +0.06    +0.115 C 
DOCKED: BRANCH  37  38
DOCKED: ATOM     38  C   UNL d   1      45.491  24.730  17.178 -0.20 +0.10    +0.139 C 
DOCKED: ATOM     39  O   UNL d   1      46.400  24.111  16.644 -0.31 -0.92    -0.650 OA
DOCKED: BRANCH  38  40
DOCKED: ATOM     40  O   UNL d   1      45.766  25.878  17.823 +0.07 -0.45    -0.776 OA
DOCKED: ATOM     41  H   UNL d   1      45.298  26.079  18.645 +0.07 +0.09    +0.167 HD
DOCKED: ENDBRANCH  38  40
DOCKED: ENDBRANCH  37  38
DOCKED: ENDBRANCH  36  37
DOCKED: ENDBRANCH  22  36
DOCKED: BRANCH  12  42
DOCKED: ATOM     42  C   UNL d   1      36.552  33.385  14.207 -0.36 +0.00    +0.004 C 
DOCKED: ATOM     43  C   UNL d   1      36.305  33.472  12.893 -0.57 +0.00    +0.012 C 
DOCKED: ENDBRANCH  12  42
DOCKED: BRANCH  17  44
DOCKED: ATOM     44  C   UNL d   1      37.126  25.559  12.751 -0.54 +0.00    +0.004 C 
DOCKED: ATOM     45  C   UNL d   1      36.175  24.802  13.308 -0.69 +0.00    +0.012 C 
DOCKED: ENDBRANCH  17  44
DOCKED: TORSDOF 10
DOCKED: TER
DOCKED: ENDMDL
________________________________________________________________________________


	BEGINNING GENETIC ALGORITHM DOCKING 22 of 100
Run: 22 Seed: 563069636 2128251836 [ Run 22 of 100 GA/GALS ]
Beginning LAMARCKIAN GENETIC ALGORITHM (LGA), with a maximum of 25000000 energy evaluations.

Final-Value: -14.465


	FINAL GENETIC ALGORITHM DOCKED STATE
	_______________________________________________


Detailed state:  trans 8.709 35.059 -1.215 quatxyzw -0.414532 -0.211752 -0.306572 -0.830264 center -0.174 -0.001 -0.047 ntor 10 57.8524 90.0966 61.1126 -165.6334 -133.9445 168.9398 40.6190 38.9045 167.3645 180.0000
State:	  8.709  35.059  -1.215  -0.744 -0.380 -0.550 -67.748     57.85   90.10   61.11 -165.63 -133.94  168.94   40.62   38.90  167.36  180.00

DOCKED: MODEL       22
DOCKED: USER    Run = 22
DOCKED: USER    DPF = D:/Protein_go_brrr/autodock/final/2DN3/heme_Fe/dock.dpf
DOCKED: USER  
DOCKED: USER    Estimated Free Energy of Binding    =  -10.94 kcal/mol  [=(1)+(2)+(3)-(4)]
DOCKED: USER    Estimated Inhibition Constant, Ki   =    9.53 nM (nanomolar)  [Temperature = 298.15 K]
DOCKED: USER    
DOCKED: USER    (1) Final Intermolecular Energy     =  -13.93 kcal/mol
DOCKED: USER        vdW + Hbond + desolv Energy     =  -12.55 kcal/mol
DOCKED: USER        Electrostatic Energy            =   -1.37 kcal/mol
DOCKED: USER    (2) Final Total Internal Energy     =   -0.54 kcal/mol
DOCKED: USER    (3) Torsional Free Energy           =   +2.98 kcal/mol
DOCKED: USER    (4) Unbound System's Energy  [=(2)] =   -0.54 kcal/mol
DOCKED: USER    
DOCKED: USER    
DOCKED: USER    NEWDPF move heme_Fe_opt.pdbqt
DOCKED: USER    NEWDPF about -0.174000 -0.001000 -0.047000
DOCKED: USER    NEWDPF tran0 8.708743 35.058632 -1.214914
DOCKED: USER    NEWDPF quaternion0 -0.414532 -0.211752 -0.306572 -0.830264
DOCKED: USER    NEWDPF axisangle0 -0.743727 -0.379912 -0.550033 -67.748285
DOCKED: USER    NEWDPF quat0 -0.743727 -0.379912 -0.550033 -67.748285
DOCKED: USER    NEWDPF dihe0 57.85 90.10 61.11 -165.63 -133.94 168.94 40.62 38.90 167.36 180.00 
DOCKED: USER  keepresnum = 1 
DOCKED: USER  
DOCKED: REMARK  10 active torsions:
DOCKED: REMARK  status: ('A' for Active; 'I' for Inactive)
DOCKED: REMARK    1  A    between atoms: C_6  and  C_10 
DOCKED: REMARK    2  A    between atoms: C_10  and  C_11 
DOCKED: REMARK    3  A    between atoms: C_11  and  C_12 
DOCKED: REMARK    4  A    between atoms: C_12  and  O_14 
DOCKED: REMARK    5  A    between atoms: C_17  and  C_20 
DOCKED: REMARK    6  A    between atoms: C_24  and  C_27 
DOCKED: REMARK    7  A    between atoms: C_31  and  C_34 
DOCKED: REMARK    8  A    between atoms: C_34  and  C_35 
DOCKED: REMARK    9  A    between atoms: C_35  and  C_36 
DOCKED: REMARK   10  A    between atoms: C_36  and  O_38 
DOCKED: USER                              x       y       z     vdW  Elec       q    Type
DOCKED: USER                           _______ _______ _______ _____ _____    ______ ____
DOCKED: ROOT
DOCKED: ATOM      1  C   UNL d   1       7.186  36.127  -2.081 -0.23 +0.01    +0.064 C 
DOCKED: ATOM      2  C   UNL d   1       7.566  33.193   1.879 -0.39 +0.01    +0.064 A 
DOCKED: ATOM      3  C   UNL d   1      12.348  33.534   1.586 -0.36 +0.00    +0.064 C 
DOCKED: ATOM      4  C   UNL d   1      12.004  36.289  -2.310 -0.46 +0.00    +0.064 C 
DOCKED: ATOM      5  C   UNL d   1       6.851  35.202  -0.989 -0.25 +0.01    +0.066 A 
DOCKED: ATOM      6  C   UNL d   1       5.570  34.775  -0.679 -0.28 -0.00    -0.021 A 
DOCKED: ATOM      7  C   UNL d   1       5.676  33.964   0.423 -0.31 -0.00    -0.025 A 
DOCKED: ATOM      8  C   UNL d   1       7.019  33.925   0.743 -0.34 +0.01    +0.066 A 
DOCKED: ATOM      9  C   UNL d   1       4.549  33.255   1.110 -0.25 +0.01    +0.051 C 
DOCKED: ATOM     10  C   UNL d   1       8.863  33.093   2.176 -0.37 +0.01    +0.066 A 
DOCKED: ATOM     11  C   UNL d   1       9.347  32.480   3.334 -0.42 -0.00    -0.021 A 
DOCKED: ATOM     12  C   UNL d   1      10.723  32.580   3.282 -0.42 +0.00    +0.000 A 
DOCKED: ATOM     13  C   UNL d   1      11.009  33.262   2.087 -0.36 +0.01    +0.070 A 
DOCKED: ATOM     14  C   UNL d   1       8.536  31.890   4.469 -0.29 -0.00    +0.052 C 
DOCKED: ATOM     15  C   UNL d   1      12.628  34.235   0.463 -0.34 +0.01    +0.066 A 
DOCKED: ATOM     16  C   UNL d   1      13.916  34.388  -0.035 -0.45 -0.00    -0.021 A 
DOCKED: ATOM     17  C   UNL d   1      13.820  35.185  -1.157 -0.44 +0.00    +0.000 A 
DOCKED: ATOM     18  C   UNL d   1      12.473  35.504  -1.315 -0.36 +0.01    +0.070 A 
DOCKED: ATOM     19  C   UNL d   1      15.192  33.828   0.533 -0.53 +0.00    +0.052 C 
DOCKED: ATOM     20  C   UNL d   1      10.588  36.596  -2.544 -0.38 +0.00    +0.066 A 
DOCKED: ATOM     21  C   UNL d   1      10.106  37.560  -3.440 -0.42 -0.00    -0.025 A 
DOCKED: ATOM     22  C   UNL d   1       8.730  37.488  -3.368 -0.35 -0.00    -0.021 A 
DOCKED: ATOM     23  C   UNL d   1       8.429  36.493  -2.431 -0.22 +0.01    +0.066 A 
DOCKED: ATOM     24  C   UNL d   1      10.890  38.507  -4.319 -0.24 -0.01    +0.051 C 
DOCKED: ATOM     25  N   UNL d   1       7.733  34.672  -0.124 -0.17 -0.05    -0.248 N 
DOCKED: ATOM     26  N   UNL d   1       9.875  33.583   1.416 -0.14 -0.03    -0.248 N 
DOCKED: ATOM     27  N   UNL d   1      11.735  34.885  -0.346 -0.09 -0.04    -0.248 N 
DOCKED: ATOM     28  N   UNL d   1       9.566  35.984  -1.898 -0.22 -0.04    -0.248 N 
DOCKED: ATOM     29 FE   UNL d   1       9.722  34.784  -0.242 -0.08 +0.00    +0.000 Fe
DOCKED: ENDROOT
DOCKED: BRANCH   6  30
DOCKED: ATOM     30  C   UNL d   1       4.310  35.104  -1.404 -0.22 +0.01    +0.052 C 
DOCKED: BRANCH  30  31
DOCKED: ATOM     31  C   UNL d   1       3.507  36.153  -0.642 -0.20 +0.07    +0.115 C 
DOCKED: BRANCH  31  32
DOCKED: ATOM     32  C   UNL d   1       2.040  35.823  -0.681 -0.12 +0.11    +0.139 C 
DOCKED: ATOM     33  O   UNL d   1       1.213  36.687  -0.935 -0.36 -0.96    -0.650 OA
DOCKED: BRANCH  32  34
DOCKED: ATOM     34  O   UNL d   1       1.624  34.569  -0.434 +0.04 -0.32    -0.776 OA
DOCKED: ATOM     35  H   UNL d   1       1.105  34.106  -1.106 +0.03 +0.05    +0.167 HD
DOCKED: ENDBRANCH  32  34
DOCKED: ENDBRANCH  31  32
DOCKED: ENDBRANCH  30  31
DOCKED: ENDBRANCH   6  30
DOCKED: BRANCH  22  36
DOCKED: ATOM     36  C   UNL d   1       7.763  38.362  -4.122 -0.30 +0.00    +0.052 C 
DOCKED: BRANCH  36  37
DOCKED: ATOM     37  C   UNL d   1       7.578  39.679  -3.383 -0.32 +0.00    +0.115 C 
DOCKED: BRANCH  37  38
DOCKED: ATOM     38  C   UNL d   1       6.150  40.141  -3.454 -0.23 +0.02    +0.139 C 
DOCKED: ATOM     39  O   UNL d   1       5.756  41.066  -2.759 -0.03 -0.15    -0.650 OA
DOCKED: BRANCH  38  40
DOCKED: ATOM     40  O   UNL d   1       5.288  39.532  -4.289 +0.07 -0.16    -0.776 OA
DOCKED: ATOM     41  H   UNL d   1       5.193  39.866  -5.192 +0.04 +0.03    +0.167 HD
DOCKED: ENDBRANCH  38  40
DOCKED: ENDBRANCH  37  38
DOCKED: ENDBRANCH  36  37
DOCKED: ENDBRANCH  22  36
DOCKED: BRANCH  12  42
DOCKED: ATOM     42  C   UNL d   1      11.659  32.065   4.328 -0.45 +0.00    +0.004 C 
DOCKED: ATOM     43  C   UNL d   1      12.432  30.995   4.096 -0.60 +0.00    +0.012 C 
DOCKED: ENDBRANCH  12  42
DOCKED: BRANCH  17  44
DOCKED: ATOM     44  C   UNL d   1      14.941  35.597  -2.032 -0.13 +0.00    +0.004 C 
DOCKED: ATOM     45  C   UNL d   1      15.338  36.872  -2.080 -0.64 +0.00    +0.012 C 
DOCKED: ENDBRANCH  17  44
DOCKED: TORSDOF 10
DOCKED: TER
DOCKED: ENDMDL
________________________________________________________________________________


	BEGINNING GENETIC ALGORITHM DOCKING 23 of 100
Run: 23 Seed: 1027645969 416412725 [ Run 23 of 100 GA/GALS ]
Beginning LAMARCKIAN GENETIC ALGORITHM (LGA), with a maximum of 25000000 energy evaluations.

Final-Value: -16.755


	FINAL GENETIC ALGORITHM DOCKED STATE
	_______________________________________________


Detailed state:  trans 41.431 28.694 16.981 quatxyzw -0.143523 -0.929481 -0.069376 0.332645 center -0.174 -0.001 -0.047 ntor 10 -111.0268 158.6483 40.2475 -108.5781 179.9317 39.2713 -73.2932 48.5839 151.7055 91.3135
State:	 41.431  28.694  16.981  -0.152 -0.986 -0.074 141.141   -111.03  158.65   40.25 -108.58  179.93   39.27  -73.29   48.58  151.71   91.31

DOCKED: MODEL       23
DOCKED: USER    Run = 23
DOCKED: USER    DPF = D:/Protein_go_brrr/autodock/final/2DN3/heme_Fe/dock.dpf
DOCKED: USER  
DOCKED: USER    Estimated Free Energy of Binding    =  -12.95 kcal/mol  [=(1)+(2)+(3)-(4)]
DOCKED: USER    Estimated Inhibition Constant, Ki   =  320.44 pM (picomolar)  [Temperature = 298.15 K]
DOCKED: USER    
DOCKED: USER    (1) Final Intermolecular Energy     =  -15.94 kcal/mol
DOCKED: USER        vdW + Hbond + desolv Energy     =  -13.28 kcal/mol
DOCKED: USER        Electrostatic Energy            =   -2.66 kcal/mol
DOCKED: USER    (2) Final Total Internal Energy     =   -0.82 kcal/mol
DOCKED: USER    (3) Torsional Free Energy           =   +2.98 kcal/mol
DOCKED: USER    (4) Unbound System's Energy  [=(2)] =   -0.82 kcal/mol
DOCKED: USER    
DOCKED: USER    
DOCKED: USER    NEWDPF move heme_Fe_opt.pdbqt
DOCKED: USER    NEWDPF about -0.174000 -0.001000 -0.047000
DOCKED: USER    NEWDPF tran0 41.430633 28.694486 16.981087
DOCKED: USER    NEWDPF quaternion0 -0.143523 -0.929481 -0.069376 0.332645
DOCKED: USER    NEWDPF axisangle0 -0.152190 -0.985610 -0.073566 141.141247
DOCKED: USER    NEWDPF quat0 -0.152190 -0.985610 -0.073566 141.141247
DOCKED: USER    NEWDPF dihe0 -111.03 158.65 40.25 -108.58 179.93 39.27 -73.29 48.58 151.71 91.31 
DOCKED: USER  keepresnum = 1 
DOCKED: USER  
DOCKED: REMARK  10 active torsions:
DOCKED: REMARK  status: ('A' for Active; 'I' for Inactive)
DOCKED: REMARK    1  A    between atoms: C_6  and  C_10 
DOCKED: REMARK    2  A    between atoms: C_10  and  C_11 
DOCKED: REMARK    3  A    between atoms: C_11  and  C_12 
DOCKED: REMARK    4  A    between atoms: C_12  and  O_14 
DOCKED: REMARK    5  A    between atoms: C_17  and  C_20 
DOCKED: REMARK    6  A    between atoms: C_24  and  C_27 
DOCKED: REMARK    7  A    between atoms: C_31  and  C_34 
DOCKED: REMARK    8  A    between atoms: C_34  and  C_35 
DOCKED: REMARK    9  A    between atoms: C_35  and  C_36 
DOCKED: REMARK   10  A    between atoms: C_36  and  O_38 
DOCKED: USER                              x       y       z     vdW  Elec       q    Type
DOCKED: USER                           _______ _______ _______ _____ _____    ______ ____
DOCKED: ROOT
DOCKED: ATOM      1  C   UNL d   1      43.218  28.036  17.744 -0.15 +0.02    +0.064 C 
DOCKED: ATOM      2  C   UNL d   1      39.667  26.017  14.962 -0.36 +0.01    +0.064 A 
DOCKED: ATOM      3  C   UNL d   1      37.903  30.409  14.147 -0.40 +0.01    +0.064 C 
DOCKED: ATOM      4  C   UNL d   1      41.268  32.375  16.922 -0.48 +0.01    +0.064 C 
DOCKED: ATOM      5  C   UNL d   1      42.333  27.053  17.105 -0.28 +0.02    +0.066 A 
DOCKED: ATOM      6  C   UNL d   1      42.465  25.679  17.217 -0.35 -0.01    -0.021 A 
DOCKED: ATOM      7  C   UNL d   1      41.481  25.119  16.441 -0.40 -0.01    -0.025 A 
DOCKED: ATOM      8  C   UNL d   1      40.785  26.174  15.884 -0.36 +0.02    +0.066 A 
DOCKED: ATOM      9  C   UNL d   1      41.221  23.654  16.266 -0.49 +0.01    +0.051 C 
DOCKED: ATOM     10  C   UNL d   1      38.943  27.016  14.456 -0.37 +0.01    +0.066 A 
DOCKED: ATOM     11  C   UNL d   1      37.952  26.841  13.486 -0.44 -0.00    -0.021 A 
DOCKED: ATOM     12  C   UNL d   1      37.440  28.096  13.221 -0.46 +0.00    +0.000 A 
DOCKED: ATOM     13  C   UNL d   1      38.156  28.980  14.046 -0.31 +0.01    +0.070 A 
DOCKED: ATOM     14  C   UNL d   1      37.561  25.551  12.794 -0.48 +0.01    +0.052 C 
DOCKED: ATOM     15  C   UNL d   1      38.624  31.273  14.900 -0.35 +0.01    +0.066 A 
DOCKED: ATOM     16  C   UNL d   1      38.289  32.613  15.049 -0.38 -0.00    -0.021 A 
DOCKED: ATOM     17  C   UNL d   1      39.260  33.182  15.846 -0.42 +0.00    +0.000 A 
DOCKED: ATOM     18  C   UNL d   1      40.169  32.176  16.162 -0.38 +0.01    +0.070 A 
DOCKED: ATOM     19  C   UNL d   1      37.116  33.338  14.445 -0.39 +0.00    +0.052 C 
DOCKED: ATOM     20  C   UNL d   1      42.213  31.327  17.327 -0.38 +0.02    +0.066 A 
DOCKED: ATOM     21  C   UNL d   1      43.454  31.549  17.940 -0.32 -0.01    -0.025 A 
DOCKED: ATOM     22  C   UNL d   1      43.987  30.299  18.177 -0.30 -0.01    -0.021 A 
DOCKED: ATOM     23  C   UNL d   1      43.058  29.368  17.695 -0.22 +0.02    +0.066 A 
DOCKED: ATOM     24  C   UNL d   1      44.115  32.864  18.285 -0.23 +0.01    +0.051 C 
DOCKED: ATOM     25  N   UNL d   1      41.299  27.350  16.297 -0.27 -0.08    -0.248 N 
DOCKED: ATOM     26  N   UNL d   1      39.078  28.324  14.792 -0.10 -0.07    -0.248 N 
DOCKED: ATOM     27  N   UNL d   1      39.756  30.992  15.618 -0.07 -0.07    -0.248 N 
DOCKED: ATOM     28  N   UNL d   1      41.998  30.003  17.137 -0.22 -0.08    -0.248 N 
DOCKED: ATOM     29 FE   UNL d   1      40.539  29.165  15.965 -0.08 +0.00    +0.000 Fe
DOCKED: ENDROOT
DOCKED: BRANCH   6  30
DOCKED: ATOM     30  C   UNL d   1      43.462  24.933  18.037 -0.34 +0.02    +0.052 C 
DOCKED: BRANCH  30  31
DOCKED: ATOM     31  C   UNL d   1      44.345  24.060  17.151 -0.15 +0.07    +0.115 C 
DOCKED: BRANCH  31  32
DOCKED: ATOM     32  C   UNL d   1      45.724  24.649  17.039 -0.20 +0.12    +0.139 C 
DOCKED: ATOM     33  O   UNL d   1      46.586  24.094  16.372 -0.25 -1.07    -0.650 OA
DOCKED: BRANCH  32  34
DOCKED: ATOM     34  O   UNL d   1      46.022  25.795  17.674 +0.05 -0.47    -0.776 OA
DOCKED: ATOM     35  H   UNL d   1      46.070  25.797  18.640 +0.06 +0.10    +0.167 HD
DOCKED: ENDBRANCH  32  34
DOCKED: ENDBRANCH  31  32
DOCKED: ENDBRANCH  30  31
DOCKED: ENDBRANCH   6  30
DOCKED: BRANCH  22  36
DOCKED: ATOM     36  C   UNL d   1      45.335  30.018  18.787 -0.24 +0.02    +0.052 C 
DOCKED: BRANCH  36  37
DOCKED: ATOM     37  C   UNL d   1      45.644  28.531  18.689 -0.18 +0.06    +0.115 C 
DOCKED: BRANCH  37  38
DOCKED: ATOM     38  C   UNL d   1      46.131  27.994  20.004 -0.15 +0.12    +0.139 C 
DOCKED: ATOM     39  O   UNL d   1      45.634  28.370  21.056 -0.11 -1.08    -0.650 OA
DOCKED: BRANCH  38  40
DOCKED: ATOM     40  O   UNL d   1      47.128  27.092  20.033 +0.06 -0.54    -0.776 OA
DOCKED: ATOM     41  H   UNL d   1      47.310  26.567  19.242 +0.04 +0.10    +0.167 HD
DOCKED: ENDBRANCH  38  40
DOCKED: ENDBRANCH  37  38
DOCKED: ENDBRANCH  36  37
DOCKED: ENDBRANCH  22  36
DOCKED: BRANCH  12  42
DOCKED: ATOM     42  C   UNL d   1      36.357  28.386  12.231 -0.67 +0.00    +0.004 C 
DOCKED: ATOM     43  C   UNL d   1      35.066  28.334  12.586 -0.64 +0.00    +0.012 C 
DOCKED: ENDBRANCH  12  42
DOCKED: BRANCH  17  44
DOCKED: ATOM     44  C   UNL d   1      39.304  34.593  16.292 -0.56 +0.00    +0.004 C 
DOCKED: ATOM     45  C   UNL d   1      39.256  35.594  15.406 -0.57 +0.00    +0.012 C 
DOCKED: ENDBRANCH  17  44
DOCKED: TORSDOF 10
DOCKED: TER
DOCKED: ENDMDL
________________________________________________________________________________


	BEGINNING GENETIC ALGORITHM DOCKING 24 of 100
Run: 24 Seed: 399884817 962296189 [ Run 24 of 100 GA/GALS ]
Beginning LAMARCKIAN GENETIC ALGORITHM (LGA), with a maximum of 25000000 energy evaluations.

Final-Value: -12.344


	FINAL GENETIC ALGORITHM DOCKED STATE
	_______________________________________________


Detailed state:  trans 4.907 36.618 -2.256 quatxyzw -0.907170 0.082295 -0.069556 0.406734 center -0.174 -0.001 -0.047 ntor 10 -133.9988 -38.1845 -166.5582 -132.2184 66.1991 104.8847 -148.2711 -98.9514 -23.9139 -7.5718
State:	  4.907  36.618  -2.256  -0.993  0.090 -0.076 132.000   -134.00  -38.18 -166.56 -132.22   66.20  104.88 -148.27  -98.95  -23.91   -7.57

DOCKED: MODEL       24
DOCKED: USER    Run = 24
DOCKED: USER    DPF = D:/Protein_go_brrr/autodock/final/2DN3/heme_Fe/dock.dpf
DOCKED: USER  
DOCKED: USER    Estimated Free Energy of Binding    =   -7.70 kcal/mol  [=(1)+(2)+(3)-(4)]
DOCKED: USER    Estimated Inhibition Constant, Ki   =    2.27 uM (micromolar)  [Temperature = 298.15 K]
DOCKED: USER    
DOCKED: USER    (1) Final Intermolecular Energy     =  -10.68 kcal/mol
DOCKED: USER        vdW + Hbond + desolv Energy     =   -7.89 kcal/mol
DOCKED: USER        Electrostatic Energy            =   -2.79 kcal/mol
DOCKED: USER    (2) Final Total Internal Energy     =   -1.66 kcal/mol
DOCKED: USER    (3) Torsional Free Energy           =   +2.98 kcal/mol
DOCKED: USER    (4) Unbound System's Energy  [=(2)] =   -1.66 kcal/mol
DOCKED: USER    
DOCKED: USER    
DOCKED: USER    NEWDPF move heme_Fe_opt.pdbqt
DOCKED: USER    NEWDPF about -0.174000 -0.001000 -0.047000
DOCKED: USER    NEWDPF tran0 4.907244 36.618461 -2.255947
DOCKED: USER    NEWDPF quaternion0 -0.907170 0.082295 -0.069556 0.406734
DOCKED: USER    NEWDPF axisangle0 -0.993020 0.090083 -0.076139 132.000352
DOCKED: USER    NEWDPF quat0 -0.993020 0.090083 -0.076139 132.000352
DOCKED: USER    NEWDPF dihe0 -134.00 -38.18 -166.56 -132.22 66.20 104.88 -148.27 -98.95 -23.91 -7.57 
DOCKED: USER  keepresnum = 1 
DOCKED: USER  
DOCKED: REMARK  10 active torsions:
DOCKED: REMARK  status: ('A' for Active; 'I' for Inactive)
DOCKED: REMARK    1  A    between atoms: C_6  and  C_10 
DOCKED: REMARK    2  A    between atoms: C_10  and  C_11 
DOCKED: REMARK    3  A    between atoms: C_11  and  C_12 
DOCKED: REMARK    4  A    between atoms: C_12  and  O_14 
DOCKED: REMARK    5  A    between atoms: C_17  and  C_20 
DOCKED: REMARK    6  A    between atoms: C_24  and  C_27 
DOCKED: REMARK    7  A    between atoms: C_31  and  C_34 
DOCKED: REMARK    8  A    between atoms: C_34  and  C_35 
DOCKED: REMARK    9  A    between atoms: C_35  and  C_36 
DOCKED: REMARK   10  A    between atoms: C_36  and  O_38 
DOCKED: USER                              x       y       z     vdW  Elec       q    Type
DOCKED: USER                           _______ _______ _______ _____ _____    ______ ____
DOCKED: ROOT
DOCKED: ATOM      1  C   UNL d   1       3.016  36.442  -3.032 -0.11 +0.03    +0.064 C 
DOCKED: ATOM      2  C   UNL d   1       7.256  38.429  -4.615 -0.20 +0.00    +0.064 A 
DOCKED: ATOM      3  C   UNL d   1       9.584  36.042  -1.158 -0.22 +0.02    +0.064 C 
DOCKED: ATOM      4  C   UNL d   1       5.479  34.191   0.456 -0.34 +0.01    +0.064 C 
DOCKED: ATOM      5  C   UNL d   1       3.983  37.288  -3.746 -0.09 +0.02    +0.066 A 
DOCKED: ATOM      6  C   UNL d   1       3.656  38.199  -4.737 -0.04 -0.01    -0.021 A 
DOCKED: ATOM      7  C   UNL d   1       4.834  38.747  -5.179 -0.06 -0.00    -0.025 A 
DOCKED: ATOM      8  C   UNL d   1       5.836  38.150  -4.439 -0.12 +0.01    +0.066 A 
DOCKED: ATOM      9  C   UNL d   1       4.978  39.798  -6.237 -0.04 +0.01    +0.051 C 
DOCKED: ATOM     10  C   UNL d   1       8.238  37.910  -3.876 -0.29 +0.00    +0.066 A 
DOCKED: ATOM     11  C   UNL d   1       9.595  38.107  -4.142 -0.41 +0.00    -0.021 A 
DOCKED: ATOM     12  C   UNL d   1      10.288  37.415  -3.169 -0.39 +0.00    +0.000 A 
DOCKED: ATOM     13  C   UNL d   1       9.308  36.818  -2.356 -0.34 +0.01    +0.070 A 
DOCKED: ATOM     14  C   UNL d   1      10.203  38.861  -5.307 -0.02 -0.01    +0.052 C 
DOCKED: ATOM     15  C   UNL d   1       8.647  35.423  -0.402 -0.09 +0.02    +0.066 A 
DOCKED: ATOM     16  C   UNL d   1       8.941  34.774   0.791 -0.22 -0.01    -0.021 A 
DOCKED: ATOM     17  C   UNL d   1       7.759  34.236   1.256 -0.37 +0.00    +0.000 A 
DOCKED: ATOM     18  C   UNL d   1       6.770  34.567   0.332 -0.34 +0.01    +0.070 A 
DOCKED: ATOM     19  C   UNL d   1      10.285  34.641   1.456 -0.37 +0.01    +0.052 C 
DOCKED: ATOM     20  C   UNL d   1       4.399  34.571  -0.463 -0.22 +0.02    +0.066 A 
DOCKED: ATOM     21  C   UNL d   1       3.106  34.030  -0.462 -0.16 -0.01    -0.025 A 
DOCKED: ATOM     22  C   UNL d   1       2.417  34.695  -1.456 -0.11 -0.01    -0.021 A 
DOCKED: ATOM     23  C   UNL d   1       3.315  35.606  -2.025 -0.13 +0.03    +0.066 A 
DOCKED: ATOM     24  C   UNL d   1       2.539  32.942   0.420 -0.17 +0.01    +0.051 C 
DOCKED: ATOM     25  N   UNL d   1       5.314  37.270  -3.561 -0.09 -0.05    -0.248 N 
DOCKED: ATOM     26  N   UNL d   1       8.059  37.112  -2.792 -0.21 -0.03    -0.248 N 
DOCKED: ATOM     27  N   UNL d   1       7.306  35.333  -0.664 -0.19 -0.06    -0.248 N 
DOCKED: ATOM     28  N   UNL d   1       4.535  35.495  -1.446 -0.12 -0.07    -0.248 N 
DOCKED: ATOM     29 FE   UNL d   1       6.296  36.302  -2.117 -0.06 +0.00    +0.000 Fe
DOCKED: ENDROOT
DOCKED: BRANCH   6  30
DOCKED: ATOM     30  C   UNL d   1       2.292  38.547  -5.227 -0.01 +0.02    +0.052 C 
DOCKED: BRANCH  30  31
DOCKED: ATOM     31  C   UNL d   1       1.481  39.227  -4.130 -0.02 +0.06    +0.115 C 
DOCKED: BRANCH  31  32
DOCKED: ATOM     32  C   UNL d   1       2.381  40.025  -3.228 -0.08 +0.10    +0.139 C 
DOCKED: ATOM     33  O   UNL d   1       2.974  41.008  -3.650 +0.04 -0.31    -0.650 OA
DOCKED: BRANCH  32  34
DOCKED: ATOM     34  O   UNL d   1       2.543  39.663  -1.944 -0.29 -1.15    -0.776 OA
DOCKED: ATOM     35  H   UNL d   1       2.704  38.732  -1.736 +0.02 +0.25    +0.167 HD
DOCKED: ENDBRANCH  32  34
DOCKED: ENDBRANCH  31  32
DOCKED: ENDBRANCH  30  31
DOCKED: ENDBRANCH   6  30
DOCKED: BRANCH  22  36
DOCKED: ATOM     36  C   UNL d   1       0.992  34.433  -1.865 -0.06 +0.02    +0.052 C 
DOCKED: BRANCH  36  37
DOCKED: ATOM     37  C   UNL d   1       0.053  35.300  -1.039 -0.08 +0.07    +0.115 C 
DOCKED: BRANCH  37  38
DOCKED: ATOM     38  C   UNL d   1      -0.004  36.700  -1.582 +0.01 +0.15    +0.139 C 
DOCKED: ATOM     39  O   UNL d   1      -0.975  37.086  -2.216 -0.07 -0.49    -0.650 OA
DOCKED: BRANCH  38  40
DOCKED: ATOM     40  O   UNL d   1       1.024  37.543  -1.373 -0.06 -1.70    -0.776 OA
DOCKED: ATOM     41  H   UNL d   1       1.287  38.147  -2.082 +0.01 +0.26    +0.167 HD
DOCKED: ENDBRANCH  38  40
DOCKED: ENDBRANCH  37  38
DOCKED: ENDBRANCH  36  37
DOCKED: ENDBRANCH  22  36
DOCKED: BRANCH  12  42
DOCKED: ATOM     42  C   UNL d   1      11.779  37.339  -3.070 -0.38 +0.00    +0.004 C 
DOCKED: ATOM     43  C   UNL d   1      12.416  36.164  -3.158 -0.56 +0.00    +0.012 C 
DOCKED: ENDBRANCH  12  42
DOCKED: BRANCH  17  44
DOCKED: ATOM     44  C   UNL d   1       7.584  33.474   2.513 -0.30 +0.00    +0.004 C 
DOCKED: ATOM     45  C   UNL d   1       7.945  32.189   2.591 -0.53 +0.00    +0.012 C 
DOCKED: ENDBRANCH  17  44
DOCKED: TORSDOF 10
DOCKED: TER
DOCKED: ENDMDL
________________________________________________________________________________


	BEGINNING GENETIC ALGORITHM DOCKING 25 of 100
Run: 25 Seed: 355492182 945299746 [ Run 25 of 100 GA/GALS ]
Beginning LAMARCKIAN GENETIC ALGORITHM (LGA), with a maximum of 25000000 energy evaluations.

Final-Value: -9.878


	FINAL GENETIC ALGORITHM DOCKED STATE
	_______________________________________________


Detailed state:  trans 37.658 29.498 0.234 quatxyzw 0.975434 -0.036550 -0.182129 0.118409 center -0.174 -0.001 -0.047 ntor 10 155.3071 22.1437 72.9851 38.7955 -12.8977 -109.6719 48.2550 76.9114 -116.2640 -178.3785
State:	 37.658  29.498   0.234   0.982 -0.037 -0.183 166.399    155.31   22.14   72.99   38.80  -12.90 -109.67   48.25   76.91 -116.26 -178.38

DOCKED: MODEL       25
DOCKED: USER    Run = 25
DOCKED: USER    DPF = D:/Protein_go_brrr/autodock/final/2DN3/heme_Fe/dock.dpf
DOCKED: USER  
DOCKED: USER    Estimated Free Energy of Binding    =   -5.11 kcal/mol  [=(1)+(2)+(3)-(4)]
DOCKED: USER    Estimated Inhibition Constant, Ki   =  181.11 uM (micromolar)  [Temperature = 298.15 K]
DOCKED: USER    
DOCKED: USER    (1) Final Intermolecular Energy     =   -8.09 kcal/mol
DOCKED: USER        vdW + Hbond + desolv Energy     =   -6.47 kcal/mol
DOCKED: USER        Electrostatic Energy            =   -1.62 kcal/mol
DOCKED: USER    (2) Final Total Internal Energy     =   -1.79 kcal/mol
DOCKED: USER    (3) Torsional Free Energy           =   +2.98 kcal/mol
DOCKED: USER    (4) Unbound System's Energy  [=(2)] =   -1.79 kcal/mol
DOCKED: USER    
DOCKED: USER    
DOCKED: USER    NEWDPF move heme_Fe_opt.pdbqt
DOCKED: USER    NEWDPF about -0.174000 -0.001000 -0.047000
DOCKED: USER    NEWDPF tran0 37.658073 29.497928 0.234272
DOCKED: USER    NEWDPF quaternion0 0.975434 -0.036550 -0.182129 0.118409
DOCKED: USER    NEWDPF axisangle0 0.982345 -0.036809 -0.183419 166.399374
DOCKED: USER    NEWDPF quat0 0.982345 -0.036809 -0.183419 166.399374
DOCKED: USER    NEWDPF dihe0 155.31 22.14 72.99 38.80 -12.90 -109.67 48.25 76.91 -116.26 -178.38 
DOCKED: USER  keepresnum = 1 
DOCKED: USER  
DOCKED: REMARK  10 active torsions:
DOCKED: REMARK  status: ('A' for Active; 'I' for Inactive)
DOCKED: REMARK    1  A    between atoms: C_6  and  C_10 
DOCKED: REMARK    2  A    between atoms: C_10  and  C_11 
DOCKED: REMARK    3  A    between atoms: C_11  and  C_12 
DOCKED: REMARK    4  A    between atoms: C_12  and  O_14 
DOCKED: REMARK    5  A    between atoms: C_17  and  C_20 
DOCKED: REMARK    6  A    between atoms: C_24  and  C_27 
DOCKED: REMARK    7  A    between atoms: C_31  and  C_34 
DOCKED: REMARK    8  A    between atoms: C_34  and  C_35 
DOCKED: REMARK    9  A    between atoms: C_35  and  C_36 
DOCKED: REMARK   10  A    between atoms: C_36  and  O_38 
DOCKED: USER                              x       y       z     vdW  Elec       q    Type
DOCKED: USER                           _______ _______ _______ _____ _____    ______ ____
DOCKED: ROOT
DOCKED: ATOM      1  C   UNL d   1      35.636  29.741   0.486 -0.15 +0.01    +0.064 C 
DOCKED: ATOM      2  C   UNL d   1      39.484  32.813   0.057 -0.25 +0.01    +0.064 A 
DOCKED: ATOM      3  C   UNL d   1      42.139  29.152  -1.558 -0.27 +0.01    +0.064 C 
DOCKED: ATOM      4  C   UNL d   1      38.458  26.139  -1.050 -0.14 +0.00    +0.064 C 
DOCKED: ATOM      5  C   UNL d   1      36.496  30.927   0.594 -0.17 +0.01    +0.066 A 
DOCKED: ATOM      6  C   UNL d   1      36.102  32.144   1.126 -0.18 -0.00    -0.021 A 
DOCKED: ATOM      7  C   UNL d   1      37.170  32.998   1.003 -0.20 -0.00    -0.025 A 
DOCKED: ATOM      8  C   UNL d   1      38.176  32.269   0.400 -0.20 +0.01    +0.066 A 
DOCKED: ATOM      9  C   UNL d   1      37.217  34.424   1.459 -0.27 +0.00    +0.051 C 
DOCKED: ATOM     10  C   UNL d   1      40.491  32.117  -0.473 -0.15 +0.00    +0.066 A 
DOCKED: ATOM     11  C   UNL d   1      41.692  32.692  -0.897 -0.23 -0.00    -0.021 A 
DOCKED: ATOM     12  C   UNL d   1      42.469  31.659  -1.382 -0.25 +0.00    +0.000 A 
DOCKED: ATOM     13  C   UNL d   1      41.691  30.497  -1.235 -0.23 +0.00    +0.070 A 
DOCKED: ATOM     14  C   UNL d   1      42.055  34.163  -0.903 -0.21 +0.01    +0.052 C 
DOCKED: ATOM     15  C   UNL d   1      41.376  28.037  -1.467 -0.19 +0.01    +0.066 A 
DOCKED: ATOM     16  C   UNL d   1      41.872  26.758  -1.689 -0.18 -0.00    -0.021 A 
DOCKED: ATOM     17  C   UNL d   1      40.811  25.888  -1.547 -0.16 +0.00    +0.000 A 
DOCKED: ATOM     18  C   UNL d   1      39.690  26.658  -1.245 -0.15 +0.01    +0.070 A 
DOCKED: ATOM     19  C   UNL d   1      43.281  26.369  -2.047 -0.23 +0.01    +0.052 C 
DOCKED: ATOM     20  C   UNL d   1      37.269  26.911  -0.670 -0.11 +0.00    +0.066 A 
DOCKED: ATOM     21  C   UNL d   1      35.955  26.422  -0.661 -0.12 -0.00    -0.025 A 
DOCKED: ATOM     22  C   UNL d   1      35.169  27.462  -0.208 -0.13 -0.00    -0.021 A 
DOCKED: ATOM     23  C   UNL d   1      36.029  28.540   0.034 -0.09 +0.01    +0.066 A 
DOCKED: ATOM     24  C   UNL d   1      35.455  25.053  -1.060 -0.09 -0.00    +0.051 C 
DOCKED: ATOM     25  N   UNL d   1      37.767  31.007   0.161 -0.12 -0.03    -0.248 N 
DOCKED: ATOM     26  N   UNL d   1      40.482  30.777  -0.689 -0.15 -0.01    -0.248 N 
DOCKED: ATOM     27  N   UNL d   1      40.045  27.975  -1.152 -0.12 -0.03    -0.248 N 
DOCKED: ATOM     28  N   UNL d   1      37.303  28.212  -0.292 -0.06 -0.03    -0.248 N 
DOCKED: ATOM     29 FE   UNL d   1      38.892  29.492  -0.491 -0.04 +0.00    +0.000 Fe
DOCKED: ENDROOT
DOCKED: BRANCH   6  30
DOCKED: ATOM     30  C   UNL d   1      34.785  32.475   1.741 -0.19 +0.01    +0.052 C 
DOCKED: BRANCH  30  31
DOCKED: ATOM     31  C   UNL d   1      33.684  31.590   1.168 -0.14 +0.06    +0.115 C 
DOCKED: BRANCH  31  32
DOCKED: ATOM     32  C   UNL d   1      32.499  32.421   0.759 +0.00 +0.13    +0.139 C 
DOCKED: ATOM     33  O   UNL d   1      32.405  33.588   1.113 -0.00 -0.45    -0.650 OA
DOCKED: BRANCH  32  34
DOCKED: ATOM     34  O   UNL d   1      31.530  31.886  -0.002 -0.33 -1.15    -0.776 OA
DOCKED: ATOM     35  H   UNL d   1      31.741  31.132  -0.570 +0.01 +0.16    +0.167 HD
DOCKED: ENDBRANCH  32  34
DOCKED: ENDBRANCH  31  32
DOCKED: ENDBRANCH  30  31
DOCKED: ENDBRANCH   6  30
DOCKED: BRANCH  22  36
DOCKED: ATOM     36  C   UNL d   1      33.670  27.433  -0.064 -0.16 +0.01    +0.052 C 
DOCKED: BRANCH  36  37
DOCKED: ATOM     37  C   UNL d   1      33.019  27.691  -1.415 -0.04 +0.02    +0.115 C 
DOCKED: BRANCH  37  38
DOCKED: ATOM     38  C   UNL d   1      32.483  29.093  -1.495 -0.03 +0.04    +0.139 C 
DOCKED: ATOM     39  O   UNL d   1      31.279  29.302  -1.500 +0.02 -0.27    -0.650 OA
DOCKED: BRANCH  38  40
DOCKED: ATOM     40  O   UNL d   1      33.332  30.133  -1.566 +0.04 -0.21    -0.776 OA
DOCKED: ATOM     41  H   UNL d   1      33.024  31.011  -1.300 +0.02 +0.06    +0.167 HD
DOCKED: ENDBRANCH  38  40
DOCKED: ENDBRANCH  37  38
DOCKED: ENDBRANCH  36  37
DOCKED: ENDBRANCH  22  36
DOCKED: BRANCH  12  42
DOCKED: ATOM     42  C   UNL d   1      43.842  31.816  -1.954 -0.23 -0.00    +0.004 C 
DOCKED: ATOM     43  C   UNL d   1      44.890  31.178  -1.416 -0.35 -0.00    +0.012 C 
DOCKED: ENDBRANCH  12  42
DOCKED: BRANCH  17  44
DOCKED: ATOM     44  C   UNL d   1      40.870  24.414  -1.671 -0.11 +0.00    +0.004 C 
DOCKED: ATOM     45  C   UNL d   1      41.068  23.644  -0.596 -0.13 +0.00    +0.012 C 
DOCKED: ENDBRANCH  17  44
DOCKED: TORSDOF 10
DOCKED: TER
DOCKED: ENDMDL
________________________________________________________________________________


	BEGINNING GENETIC ALGORITHM DOCKING 26 of 100
Run: 26 Seed: 74398941 972358776 [ Run 26 of 100 GA/GALS ]
Beginning LAMARCKIAN GENETIC ALGORITHM (LGA), with a maximum of 25000000 energy evaluations.

Final-Value: -11.027


	FINAL GENETIC ALGORITHM DOCKED STATE
	_______________________________________________


Detailed state:  trans 28.314 39.107 -0.721 quatxyzw 0.304813 -0.573039 -0.632055 -0.423345 center -0.174 -0.001 -0.047 ntor 10 104.6680 85.8619 -108.8731 -151.7060 -95.9311 -176.9787 -117.3798 -34.0699 -180.0000 5.2125
State:	 28.314  39.107  -0.721   0.336 -0.633 -0.698 -129.908    104.67   85.86 -108.87 -151.71  -95.93 -176.98 -117.38  -34.07 -180.00    5.21

DOCKED: MODEL       26
DOCKED: USER    Run = 26
DOCKED: USER    DPF = D:/Protein_go_brrr/autodock/final/2DN3/heme_Fe/dock.dpf
DOCKED: USER  
DOCKED: USER    Estimated Free Energy of Binding    =   -6.37 kcal/mol  [=(1)+(2)+(3)-(4)]
DOCKED: USER    Estimated Inhibition Constant, Ki   =   21.48 uM (micromolar)  [Temperature = 298.15 K]
DOCKED: USER    
DOCKED: USER    (1) Final Intermolecular Energy     =   -9.35 kcal/mol
DOCKED: USER        vdW + Hbond + desolv Energy     =   -7.65 kcal/mol
DOCKED: USER        Electrostatic Energy            =   -1.70 kcal/mol
DOCKED: USER    (2) Final Total Internal Energy     =   -1.68 kcal/mol
DOCKED: USER    (3) Torsional Free Energy           =   +2.98 kcal/mol
DOCKED: USER    (4) Unbound System's Energy  [=(2)] =   -1.68 kcal/mol
DOCKED: USER    
DOCKED: USER    
DOCKED: USER    NEWDPF move heme_Fe_opt.pdbqt
DOCKED: USER    NEWDPF about -0.174000 -0.001000 -0.047000
DOCKED: USER    NEWDPF tran0 28.314058 39.107122 -0.720826
DOCKED: USER    NEWDPF quaternion0 0.304813 -0.573039 -0.632055 -0.423345
DOCKED: USER    NEWDPF axisangle0 0.336450 -0.632516 -0.697657 -129.908060
DOCKED: USER    NEWDPF quat0 0.336450 -0.632516 -0.697657 -129.908060
DOCKED: USER    NEWDPF dihe0 104.67 85.86 -108.87 -151.71 -95.93 -176.98 -117.38 -34.07 -180.00 5.21 
DOCKED: USER  keepresnum = 1 
DOCKED: USER  
DOCKED: REMARK  10 active torsions:
DOCKED: REMARK  status: ('A' for Active; 'I' for Inactive)
DOCKED: REMARK    1  A    between atoms: C_6  and  C_10 
DOCKED: REMARK    2  A    between atoms: C_10  and  C_11 
DOCKED: REMARK    3  A    between atoms: C_11  and  C_12 
DOCKED: REMARK    4  A    between atoms: C_12  and  O_14 
DOCKED: REMARK    5  A    between atoms: C_17  and  C_20 
DOCKED: REMARK    6  A    between atoms: C_24  and  C_27 
DOCKED: REMARK    7  A    between atoms: C_31  and  C_34 
DOCKED: REMARK    8  A    between atoms: C_34  and  C_35 
DOCKED: REMARK    9  A    between atoms: C_35  and  C_36 
DOCKED: REMARK   10  A    between atoms: C_36  and  O_38 
DOCKED: USER                              x       y       z     vdW  Elec       q    Type
DOCKED: USER                           _______ _______ _______ _____ _____    ______ ____
DOCKED: ROOT
DOCKED: ATOM      1  C   UNL d   1      28.743  41.106  -0.893 -0.14 +0.01    +0.064 C 
DOCKED: ATOM      2  C   UNL d   1      26.629  37.735  -3.825 -0.21 +0.01    +0.064 A 
DOCKED: ATOM      3  C   UNL d   1      26.164  34.828  -0.031 -0.28 +0.01    +0.064 C 
DOCKED: ATOM      4  C   UNL d   1      28.302  38.034   2.804 -0.27 -0.01    +0.064 C 
DOCKED: ATOM      5  C   UNL d   1      28.267  40.394  -2.087 -0.12 +0.01    +0.066 A 
DOCKED: ATOM      6  C   UNL d   1      28.348  40.879  -3.382 -0.11 -0.00    -0.021 A 
DOCKED: ATOM      7  C   UNL d   1      27.757  39.944  -4.195 -0.13 -0.00    -0.025 A 
DOCKED: ATOM      8  C   UNL d   1      27.338  38.922  -3.364 -0.17 +0.01    +0.066 A 
DOCKED: ATOM      9  C   UNL d   1      27.625  40.027  -5.685 -0.07 +0.01    +0.051 C 
DOCKED: ATOM     10  C   UNL d   1      26.266  36.710  -3.054 -0.21 +0.00    +0.066 A 
DOCKED: ATOM     11  C   UNL d   1      25.487  35.640  -3.503 -0.22 +0.00    -0.021 A 
DOCKED: ATOM     12  C   UNL d   1      25.325  34.796  -2.423 -0.26 -0.00    +0.000 A 
DOCKED: ATOM     13  C   UNL d   1      26.012  35.404  -1.358 -0.18 +0.00    +0.070 A 
DOCKED: ATOM     14  C   UNL d   1      24.871  35.465  -4.875 -0.17 -0.00    +0.052 C 
DOCKED: ATOM     15  C   UNL d   1      26.780  35.433   1.011 -0.24 +0.01    +0.066 A 
DOCKED: ATOM     16  C   UNL d   1      26.991  34.808   2.234 -0.30 -0.01    -0.021 A 
DOCKED: ATOM     17  C   UNL d   1      27.605  35.733   3.054 -0.27 +0.00    +0.000 A 
DOCKED: ATOM     18  C   UNL d   1      27.750  36.903   2.313 -0.22 +0.00    +0.070 A 
DOCKED: ATOM     19  C   UNL d   1      26.610  33.407   2.627 -0.37 +0.03    +0.052 C 
DOCKED: ATOM     20  C   UNL d   1      28.526  39.264   2.035 -0.20 -0.00    +0.066 A 
DOCKED: ATOM     21  C   UNL d   1      28.909  40.499   2.576 -0.24 +0.00    -0.025 A 
DOCKED: ATOM     22  C   UNL d   1      29.041  41.357   1.504 -0.17 -0.00    -0.021 A 
DOCKED: ATOM     23  C   UNL d   1      28.729  40.617   0.357 -0.14 +0.01    +0.066 A 
DOCKED: ATOM     24  C   UNL d   1      29.137  40.864   4.025 -0.40 -0.01    +0.051 C 
DOCKED: ATOM     25  N   UNL d   1      27.659  39.195  -2.083 +0.04 -0.04    -0.248 N 
DOCKED: ATOM     26  N   UNL d   1      26.578  36.575  -1.740 -0.08 -0.02    -0.248 N 
DOCKED: ATOM     27  N   UNL d   1      27.283  36.706   1.043 -0.09 -0.03    -0.248 N 
DOCKED: ATOM     28  N   UNL d   1      28.373  39.353   0.691 -0.07 -0.03    -0.248 N 
DOCKED: ATOM     29 FE   UNL d   1      27.476  37.964  -0.522 -0.06 +0.00    +0.000 Fe
DOCKED: ENDROOT
DOCKED: BRANCH   6  30
DOCKED: ATOM     30  C   UNL d   1      28.973  42.156  -3.829 -0.05 +0.01    +0.052 C 
DOCKED: BRANCH  30  31
DOCKED: ATOM     31  C   UNL d   1      27.948  43.285  -3.836 -0.06 +0.02    +0.115 C 
DOCKED: BRANCH  31  32
DOCKED: ATOM     32  C   UNL d   1      27.432  43.536  -2.447 -0.13 +0.03    +0.139 C 
DOCKED: ATOM     33  O   UNL d   1      26.387  43.025  -2.068 -0.04 -0.16    -0.650 OA
DOCKED: BRANCH  32  34
DOCKED: ATOM     34  O   UNL d   1      28.117  44.328  -1.605 +0.07 -0.23    -0.776 OA
DOCKED: ATOM     35  H   UNL d   1      28.922  43.987  -1.190 +0.04 +0.06    +0.167 HD
DOCKED: ENDBRANCH  32  34
DOCKED: ENDBRANCH  31  32
DOCKED: ENDBRANCH  30  31
DOCKED: ENDBRANCH   6  30
DOCKED: BRANCH  22  36
DOCKED: ATOM     36  C   UNL d   1      29.400  42.817   1.585 -0.19 +0.02    +0.052 C 
DOCKED: BRANCH  36  37
DOCKED: ATOM     37  C   UNL d   1      30.862  43.008   1.211 -0.15 +0.07    +0.115 C 
DOCKED: BRANCH  37  38
DOCKED: ATOM     38  C   UNL d   1      31.066  44.303   0.476 -0.13 +0.13    +0.139 C 
DOCKED: ATOM     39  O   UNL d   1      32.167  44.611   0.045 -0.19 -1.20    -0.650 OA
DOCKED: BRANCH  38  40
DOCKED: ATOM     40  O   UNL d   1      30.029  45.140   0.291 +0.04 -0.49    -0.776 OA
DOCKED: ATOM     41  H   UNL d   1      29.525  45.089  -0.533 +0.04 +0.08    +0.167 HD
DOCKED: ENDBRANCH  38  40
DOCKED: ENDBRANCH  37  38
DOCKED: ENDBRANCH  36  37
DOCKED: ENDBRANCH  22  36
DOCKED: BRANCH  12  42
DOCKED: ATOM     42  C   UNL d   1      24.545  33.519  -2.444 -0.34 -0.00    +0.004 C 
DOCKED: ATOM     43  C   UNL d   1      23.235  33.516  -2.723 -0.50 -0.00    +0.012 C 
DOCKED: ENDBRANCH  12  42
DOCKED: BRANCH  17  44
DOCKED: ATOM     44  C   UNL d   1      28.043  35.504   4.450 -0.31 +0.00    +0.004 C 
DOCKED: ATOM     45  C   UNL d   1      27.281  35.890   5.479 -0.38 -0.01    +0.012 C 
DOCKED: ENDBRANCH  17  44
DOCKED: TORSDOF 10
DOCKED: TER
DOCKED: ENDMDL
________________________________________________________________________________


	BEGINNING GENETIC ALGORITHM DOCKING 27 of 100
Run: 27 Seed: 828664916 519598306 [ Run 27 of 100 GA/GALS ]
Beginning LAMARCKIAN GENETIC ALGORITHM (LGA), with a maximum of 25000000 energy evaluations.

Final-Value: -14.801


	FINAL GENETIC ALGORITHM DOCKED STATE
	_______________________________________________


Detailed state:  trans 8.443 35.112 -0.199 quatxyzw -0.882476 0.221907 -0.065342 0.409542 center -0.174 -0.001 -0.047 ntor 10 -180.0000 29.8246 68.8739 -137.7536 104.7742 -179.2548 -4.2355 -48.7652 -164.9425 19.2993
State:	  8.443  35.112  -0.199  -0.967  0.243 -0.072 131.648   -180.00   29.82   68.87 -137.75  104.77 -179.25   -4.24  -48.77 -164.94   19.30

DOCKED: MODEL       27
DOCKED: USER    Run = 27
DOCKED: USER    DPF = D:/Protein_go_brrr/autodock/final/2DN3/heme_Fe/dock.dpf
DOCKED: USER  
DOCKED: USER    Estimated Free Energy of Binding    =   -9.72 kcal/mol  [=(1)+(2)+(3)-(4)]
DOCKED: USER    Estimated Inhibition Constant, Ki   =   75.00 nM (nanomolar)  [Temperature = 298.15 K]
DOCKED: USER    
DOCKED: USER    (1) Final Intermolecular Energy     =  -12.70 kcal/mol
DOCKED: USER        vdW + Hbond + desolv Energy     =  -11.65 kcal/mol
DOCKED: USER        Electrostatic Energy            =   -1.05 kcal/mol
DOCKED: USER    (2) Final Total Internal Energy     =   -2.10 kcal/mol
DOCKED: USER    (3) Torsional Free Energy           =   +2.98 kcal/mol
DOCKED: USER    (4) Unbound System's Energy  [=(2)] =   -2.10 kcal/mol
DOCKED: USER    
DOCKED: USER    
DOCKED: USER    NEWDPF move heme_Fe_opt.pdbqt
DOCKED: USER    NEWDPF about -0.174000 -0.001000 -0.047000
DOCKED: USER    NEWDPF tran0 8.442889 35.111977 -0.199302
DOCKED: USER    NEWDPF quaternion0 -0.882476 0.221907 -0.065342 0.409542
DOCKED: USER    NEWDPF axisangle0 -0.967318 0.243241 -0.071624 131.647836
DOCKED: USER    NEWDPF quat0 -0.967318 0.243241 -0.071624 131.647836
DOCKED: USER    NEWDPF dihe0 -180.00 29.82 68.87 -137.75 104.77 -179.25 -4.24 -48.77 -164.94 19.30 
DOCKED: USER  keepresnum = 1 
DOCKED: USER  
DOCKED: REMARK  10 active torsions:
DOCKED: REMARK  status: ('A' for Active; 'I' for Inactive)
DOCKED: REMARK    1  A    between atoms: C_6  and  C_10 
DOCKED: REMARK    2  A    between atoms: C_10  and  C_11 
DOCKED: REMARK    3  A    between atoms: C_11  and  C_12 
DOCKED: REMARK    4  A    between atoms: C_12  and  O_14 
DOCKED: REMARK    5  A    between atoms: C_17  and  C_20 
DOCKED: REMARK    6  A    between atoms: C_24  and  C_27 
DOCKED: REMARK    7  A    between atoms: C_31  and  C_34 
DOCKED: REMARK    8  A    between atoms: C_34  and  C_35 
DOCKED: REMARK    9  A    between atoms: C_35  and  C_36 
DOCKED: REMARK   10  A    between atoms: C_36  and  O_38 
DOCKED: USER                              x       y       z     vdW  Elec       q    Type
DOCKED: USER                           _______ _______ _______ _____ _____    ______ ____
DOCKED: ROOT
DOCKED: ATOM      1  C   UNL d   1       6.665  35.415  -1.178 -0.29 +0.01    +0.064 C 
DOCKED: ATOM      2  C   UNL d   1      11.419  36.208  -2.272 -0.39 +0.01    +0.064 A 
DOCKED: ATOM      3  C   UNL d   1      12.666  33.368   1.394 -0.44 +0.00    +0.064 C 
DOCKED: ATOM      4  C   UNL d   1       8.073  32.672   2.536 -0.48 +0.00    +0.064 C 
DOCKED: ATOM      5  C   UNL d   1       7.888  35.969  -1.774 +0.18 +0.02    +0.066 A 
DOCKED: ATOM      6  C   UNL d   1       7.917  36.914  -2.787 -0.30 -0.00    -0.021 A 
DOCKED: ATOM      7  C   UNL d   1       9.237  37.131  -3.093 -0.37 -0.00    -0.025 A 
DOCKED: ATOM      8  C   UNL d   1       9.965  36.309  -2.254 -0.37 +0.01    +0.066 A 
DOCKED: ATOM      9  C   UNL d   1       9.760  38.088  -4.120 -0.45 -0.00    +0.051 C 
DOCKED: ATOM     10  C   UNL d   1      12.148  35.468  -1.436 -0.33 +0.01    +0.066 A 
DOCKED: ATOM     11  C   UNL d   1      13.531  35.302  -1.552 -0.41 -0.00    -0.021 A 
DOCKED: ATOM     12  C   UNL d   1      13.912  34.474  -0.516 -0.46 +0.00    +0.000 A 
DOCKED: ATOM     13  C   UNL d   1      12.730  34.166   0.180 -0.33 +0.01    +0.070 A 
DOCKED: ATOM     14  C   UNL d   1      14.434  35.851  -2.637 -0.07 +0.01    +0.052 C 
DOCKED: ATOM     15  C   UNL d   1      11.525  33.027   2.038 -0.36 +0.00    +0.066 A 
DOCKED: ATOM     16  C   UNL d   1      11.512  32.347   3.250 -0.39 -0.00    -0.021 A 
DOCKED: ATOM     17  C   UNL d   1      10.188  32.142   3.579 -0.46 +0.00    +0.000 A 
DOCKED: ATOM     18  C   UNL d   1       9.423  32.699   2.557 -0.38 +0.00    +0.070 A 
DOCKED: ATOM     19  C   UNL d   1      12.696  31.885   4.056 -0.50 +0.00    +0.052 C 
DOCKED: ATOM     20  C   UNL d   1       7.233  33.300   1.509 -0.37 +0.01    +0.066 A 
DOCKED: ATOM     21  C   UNL d   1       5.852  33.112   1.365 -0.23 -0.00    -0.025 A 
DOCKED: ATOM     22  C   UNL d   1       5.469  33.913   0.309 -0.28 -0.00    -0.021 A 
DOCKED: ATOM     23  C   UNL d   1       6.628  34.550  -0.152 -0.31 +0.01    +0.066 A 
DOCKED: ATOM     24  C   UNL d   1       4.932  32.224   2.170 -0.18 +0.00    +0.051 C 
DOCKED: ATOM     25  N   UNL d   1       9.142  35.611  -1.447 -0.09 -0.07    -0.248 N 
DOCKED: ATOM     26  N   UNL d   1      11.653  34.765  -0.386 +0.09 -0.04    -0.248 N 
DOCKED: ATOM     27  N   UNL d   1      10.243  33.281   1.631 -0.23 -0.02    -0.248 N 
DOCKED: ATOM     28  N   UNL d   1       7.708  34.138   0.555 -0.18 -0.04    -0.248 N 
DOCKED: ATOM     29 FE   UNL d   1       9.680  34.450   0.086 -0.07 +0.00    +0.000 Fe
DOCKED: ENDROOT
DOCKED: BRANCH   6  30
DOCKED: ATOM     30  C   UNL d   1       6.750  37.593  -3.419 -0.18 +0.01    +0.052 C 
DOCKED: BRANCH  30  31
DOCKED: ATOM     31  C   UNL d   1       6.033  36.653  -4.381 -0.19 +0.02    +0.115 C 
DOCKED: BRANCH  31  32
DOCKED: ATOM     32  C   UNL d   1       4.800  37.309  -4.937 -0.09 +0.02    +0.139 C 
DOCKED: ATOM     33  O   UNL d   1       4.784  37.736  -6.084 +0.02 -0.09    -0.650 OA
DOCKED: BRANCH  32  34
DOCKED: ATOM     34  O   UNL d   1       3.700  37.434  -4.176 +0.05 -0.23    -0.776 OA
DOCKED: ATOM     35  H   UNL d   1       3.716  37.096  -3.269 +0.04 +0.06    +0.167 HD
DOCKED: ENDBRANCH  32  34
DOCKED: ENDBRANCH  31  32
DOCKED: ENDBRANCH  30  31
DOCKED: ENDBRANCH   6  30
DOCKED: BRANCH  22  36
DOCKED: ATOM     36  C   UNL d   1       4.077  34.020  -0.255 -0.24 +0.01    +0.052 C 
DOCKED: BRANCH  36  37
DOCKED: ATOM     37  C   UNL d   1       3.552  35.435  -0.061 -0.22 +0.05    +0.115 C 
DOCKED: BRANCH  37  38
DOCKED: ATOM     38  C   UNL d   1       2.991  35.982  -1.343 -0.17 +0.08    +0.139 C 
DOCKED: ATOM     39  O   UNL d   1       2.531  37.113  -1.392 -0.09 -0.70    -0.650 OA
DOCKED: BRANCH  38  40
DOCKED: ATOM     40  O   UNL d   1       2.988  35.222  -2.453 +0.05 -0.25    -0.776 OA
DOCKED: ATOM     41  H   UNL d   1       3.048  35.652  -3.317 +0.03 +0.05    +0.167 HD
DOCKED: ENDBRANCH  38  40
DOCKED: ENDBRANCH  37  38
DOCKED: ENDBRANCH  36  37
DOCKED: ENDBRANCH  22  36
DOCKED: BRANCH  12  42
DOCKED: ATOM     42  C   UNL d   1      15.313  34.017  -0.256 -0.57 +0.00    +0.004 C 
DOCKED: ATOM     43  C   UNL d   1      15.951  34.357   0.871 -0.39 +0.00    +0.012 C 
DOCKED: ENDBRANCH  12  42
DOCKED: BRANCH  17  44
DOCKED: ATOM     44  C   UNL d   1       9.687  31.475   4.803 -0.60 +0.00    +0.004 C 
DOCKED: ATOM     45  C   UNL d   1       9.591  30.143   4.866 -0.65 +0.00    +0.012 C 
DOCKED: ENDBRANCH  17  44
DOCKED: TORSDOF 10
DOCKED: TER
DOCKED: ENDMDL
________________________________________________________________________________


	BEGINNING GENETIC ALGORITHM DOCKING 28 of 100
Run: 28 Seed: 1623257624 1014874757 [ Run 28 of 100 GA/GALS ]
Beginning LAMARCKIAN GENETIC ALGORITHM (LGA), with a maximum of 25000000 energy evaluations.

Final-Value: -9.885


	FINAL GENETIC ALGORITHM DOCKED STATE
	_______________________________________________


Detailed state:  trans 6.845 36.992 25.477 quatxyzw 0.328061 -0.276771 -0.733058 0.527636 center -0.174 -0.001 -0.047 ntor 10 -173.3764 6.2755 22.2383 39.6956 130.0727 -174.9119 -10.3348 -68.8794 171.0591 23.7669
State:	  6.845  36.992  25.477   0.386 -0.326 -0.863 116.308   -173.38    6.28   22.24   39.70  130.07 -174.91  -10.33  -68.88  171.06   23.77

DOCKED: MODEL       28
DOCKED: USER    Run = 28
DOCKED: USER    DPF = D:/Protein_go_brrr/autodock/final/2DN3/heme_Fe/dock.dpf
DOCKED: USER  
DOCKED: USER    Estimated Free Energy of Binding    =   -4.78 kcal/mol  [=(1)+(2)+(3)-(4)]
DOCKED: USER    Estimated Inhibition Constant, Ki   =  312.81 uM (micromolar)  [Temperature = 298.15 K]
DOCKED: USER    
DOCKED: USER    (1) Final Intermolecular Energy     =   -7.76 kcal/mol
DOCKED: USER        vdW + Hbond + desolv Energy     =   -6.98 kcal/mol
DOCKED: USER        Electrostatic Energy            =   -0.78 kcal/mol
DOCKED: USER    (2) Final Total Internal Energy     =   -2.12 kcal/mol
DOCKED: USER    (3) Torsional Free Energy           =   +2.98 kcal/mol
DOCKED: USER    (4) Unbound System's Energy  [=(2)] =   -2.12 kcal/mol
DOCKED: USER    
DOCKED: USER    
DOCKED: USER    NEWDPF move heme_Fe_opt.pdbqt
DOCKED: USER    NEWDPF about -0.174000 -0.001000 -0.047000
DOCKED: USER    NEWDPF tran0 6.845156 36.992443 25.477476
DOCKED: USER    NEWDPF quaternion0 0.328061 -0.276771 -0.733058 0.527636
DOCKED: USER    NEWDPF axisangle0 0.386194 -0.325816 -0.862959 116.308233
DOCKED: USER    NEWDPF quat0 0.386194 -0.325816 -0.862959 116.308233
DOCKED: USER    NEWDPF dihe0 -173.38 6.28 22.24 39.70 130.07 -174.91 -10.33 -68.88 171.06 23.77 
DOCKED: USER  keepresnum = 1 
DOCKED: USER  
DOCKED: REMARK  10 active torsions:
DOCKED: REMARK  status: ('A' for Active; 'I' for Inactive)
DOCKED: REMARK    1  A    between atoms: C_6  and  C_10 
DOCKED: REMARK    2  A    between atoms: C_10  and  C_11 
DOCKED: REMARK    3  A    between atoms: C_11  and  C_12 
DOCKED: REMARK    4  A    between atoms: C_12  and  O_14 
DOCKED: REMARK    5  A    between atoms: C_17  and  C_20 
DOCKED: REMARK    6  A    between atoms: C_24  and  C_27 
DOCKED: REMARK    7  A    between atoms: C_31  and  C_34 
DOCKED: REMARK    8  A    between atoms: C_34  and  C_35 
DOCKED: REMARK    9  A    between atoms: C_35  and  C_36 
DOCKED: REMARK   10  A    between atoms: C_36  and  O_38 
DOCKED: USER                              x       y       z     vdW  Elec       q    Type
DOCKED: USER                           _______ _______ _______ _____ _____    ______ ____
DOCKED: ROOT
DOCKED: ATOM      1  C   UNL d   1       7.253  36.237  27.341 -0.12 +0.01    +0.064 C 
DOCKED: ATOM      2  C   UNL d   1       9.633  39.217  24.198 -0.23 -0.02    +0.064 A 
DOCKED: ATOM      3  C   UNL d   1       5.543  39.781  21.744 -0.23 -0.01    +0.064 C 
DOCKED: ATOM      4  C   UNL d   1       3.245  36.816  24.713 -0.18 -0.01    +0.064 C 
DOCKED: ATOM      5  C   UNL d   1       8.322  36.957  26.636 -0.21 -0.00    +0.066 A 
DOCKED: ATOM      6  C   UNL d   1       9.660  36.931  26.991 -0.26 +0.01    -0.021 A 
DOCKED: ATOM      7  C   UNL d   1      10.320  37.762  26.120 -0.25 +0.01    -0.025 A 
DOCKED: ATOM      8  C   UNL d   1       9.358  38.263  25.265 -0.23 -0.01    +0.066 A 
DOCKED: ATOM      9  C   UNL d   1      11.793  38.037  26.105 -0.32 -0.03    +0.051 C 
DOCKED: ATOM     10  C   UNL d   1       8.733  39.672  23.324 -0.20 -0.01    +0.066 A 
DOCKED: ATOM     11  C   UNL d   1       9.002  40.671  22.385 -0.19 +0.00    -0.021 A 
DOCKED: ATOM     12  C   UNL d   1       7.833  40.864  21.676 -0.22 -0.00    +0.000 A 
DOCKED: ATOM     13  C   UNL d   1       6.901  39.970  22.229 -0.21 -0.02    +0.070 A 
DOCKED: ATOM     14  C   UNL d   1      10.289  41.453  22.217 -0.24 -0.01    +0.052 C 
DOCKED: ATOM     15  C   UNL d   1       4.625  38.959  22.306 -0.23 -0.02    +0.066 A 
DOCKED: ATOM     16  C   UNL d   1       3.371  38.731  21.754 -0.26 +0.00    -0.021 A 
DOCKED: ATOM     17  C   UNL d   1       2.706  37.879  22.610 -0.18 -0.00    +0.000 A 
DOCKED: ATOM     18  C   UNL d   1       3.570  37.610  23.669 -0.18 -0.01    +0.070 A 
DOCKED: ATOM     19  C   UNL d   1       2.808  39.311  20.484 -0.19 -0.01    +0.052 C 
DOCKED: ATOM     20  C   UNL d   1       4.149  36.461  25.814 -0.16 -0.00    +0.066 A 
DOCKED: ATOM     21  C   UNL d   1       3.770  35.809  26.996 -0.10 -0.00    -0.025 A 
DOCKED: ATOM     22  C   UNL d   1       4.929  35.643  27.724 -0.11 -0.00    -0.021 A 
DOCKED: ATOM     23  C   UNL d   1       5.964  36.203  26.965 -0.13 +0.01    +0.066 A 
DOCKED: ATOM     24  C   UNL d   1       2.391  35.366  27.428 -0.05 +0.00    +0.051 C 
DOCKED: ATOM     25  N   UNL d   1       8.144  37.764  25.576 -0.16 +0.03    -0.248 N 
DOCKED: ATOM     26  N   UNL d   1       7.446  39.249  23.239 -0.11 +0.07    -0.248 N 
DOCKED: ATOM     27  N   UNL d   1       4.766  38.238  23.461 -0.10 +0.07    -0.248 N 
DOCKED: ATOM     28  N   UNL d   1       5.475  36.740  25.821 -0.11 -0.00    -0.248 N 
DOCKED: ATOM     29 FE   UNL d   1       6.459  37.994  24.530 -0.05 -0.00    +0.000 Fe
DOCKED: ENDROOT
DOCKED: BRANCH   6  30
DOCKED: ATOM     30  C   UNL d   1      10.287  36.141  28.089 -0.02 -0.03    +0.052 C 
DOCKED: BRANCH  30  31
DOCKED: ATOM     31  C   UNL d   1      10.514  37.012  29.319 -0.10 -0.04    +0.115 C 
DOCKED: BRANCH  31  32
DOCKED: ATOM     32  C   UNL d   1      10.909  36.166  30.498 -0.09 -0.03    +0.139 C 
DOCKED: ATOM     33  O   UNL d   1      11.890  36.451  31.169 +0.01 +0.11    -0.650 OA
DOCKED: BRANCH  32  34
DOCKED: ATOM     34  O   UNL d   1      10.183  35.083  30.824 +0.01 +0.02    -0.776 OA
DOCKED: ATOM     35  H   UNL d   1       9.467  34.804  30.236 +0.02 +0.03    +0.167 HD
DOCKED: ENDBRANCH  32  34
DOCKED: ENDBRANCH  31  32
DOCKED: ENDBRANCH  30  31
DOCKED: ENDBRANCH   6  30
DOCKED: BRANCH  22  36
DOCKED: ATOM     36  C   UNL d   1       5.027  35.025  29.094 -0.07 +0.01    +0.052 C 
DOCKED: BRANCH  36  37
DOCKED: ATOM     37  C   UNL d   1       5.951  33.817  29.048 -0.12 +0.05    +0.115 C 
DOCKED: BRANCH  37  38
DOCKED: ATOM     38  C   UNL d   1       7.232  34.090  29.783 -0.09 +0.08    +0.139 C 
DOCKED: ATOM     39  O   UNL d   1       8.141  33.273  29.781 -0.44 -0.86    -0.650 OA
DOCKED: BRANCH  38  40
DOCKED: ATOM     40  O   UNL d   1       7.386  35.244  30.457 +0.02 -0.16    -0.776 OA
DOCKED: ATOM     41  H   UNL d   1       8.246  35.446  30.852 +0.02 +0.02    +0.167 HD
DOCKED: ENDBRANCH  38  40
DOCKED: ENDBRANCH  37  38
DOCKED: ENDBRANCH  36  37
DOCKED: ENDBRANCH  22  36
DOCKED: BRANCH  12  42
DOCKED: ATOM     42  C   UNL d   1       7.657  41.856  20.569 -0.28 -0.00    +0.004 C 
DOCKED: ATOM     43  C   UNL d   1       8.259  41.682  19.386 -0.37 -0.01    +0.012 C 
DOCKED: ENDBRANCH  12  42
DOCKED: BRANCH  17  44
DOCKED: ATOM     44  C   UNL d   1       1.340  37.341  22.418 -0.11 -0.00    +0.004 C 
DOCKED: ATOM     45  C   UNL d   1       1.147  36.157  21.829 -0.15 -0.00    +0.012 C 
DOCKED: ENDBRANCH  17  44
DOCKED: TORSDOF 10
DOCKED: TER
DOCKED: ENDMDL
________________________________________________________________________________


	BEGINNING GENETIC ALGORITHM DOCKING 29 of 100
Run: 29 Seed: 1342229666 210586282 [ Run 29 of 100 GA/GALS ]
Beginning LAMARCKIAN GENETIC ALGORITHM (LGA), with a maximum of 25000000 energy evaluations.

Final-Value: -14.689


	FINAL GENETIC ALGORITHM DOCKED STATE
	_______________________________________________


Detailed state:  trans 40.103 30.582 16.160 quatxyzw -0.627792 0.689469 -0.175935 -0.315527 center -0.174 -0.001 -0.047 ntor 10 -119.1572 18.0506 144.2725 178.5582 104.8136 127.5782 59.0033 111.9432 153.8619 -4.7454
State:	 40.103  30.582  16.160  -0.662  0.727 -0.185 -143.215   -119.16   18.05  144.27  178.56  104.81  127.58   59.00  111.94  153.86   -4.75

DOCKED: MODEL       29
DOCKED: USER    Run = 29
DOCKED: USER    DPF = D:/Protein_go_brrr/autodock/final/2DN3/heme_Fe/dock.dpf
DOCKED: USER  
DOCKED: USER    Estimated Free Energy of Binding    =  -11.17 kcal/mol  [=(1)+(2)+(3)-(4)]
DOCKED: USER    Estimated Inhibition Constant, Ki   =    6.52 nM (nanomolar)  [Temperature = 298.15 K]
DOCKED: USER    
DOCKED: USER    (1) Final Intermolecular Energy     =  -14.15 kcal/mol
DOCKED: USER        vdW + Hbond + desolv Energy     =  -13.87 kcal/mol
DOCKED: USER        Electrostatic Energy            =   -0.28 kcal/mol
DOCKED: USER    (2) Final Total Internal Energy     =   -0.54 kcal/mol
DOCKED: USER    (3) Torsional Free Energy           =   +2.98 kcal/mol
DOCKED: USER    (4) Unbound System's Energy  [=(2)] =   -0.54 kcal/mol
DOCKED: USER    
DOCKED: USER    
DOCKED: USER    NEWDPF move heme_Fe_opt.pdbqt
DOCKED: USER    NEWDPF about -0.174000 -0.001000 -0.047000
DOCKED: USER    NEWDPF tran0 40.103428 30.582095 16.159601
DOCKED: USER    NEWDPF quaternion0 -0.627792 0.689469 -0.175935 -0.315527
DOCKED: USER    NEWDPF axisangle0 -0.661588 0.726585 -0.185406 -143.214780
DOCKED: USER    NEWDPF quat0 -0.661588 0.726585 -0.185406 -143.214780
DOCKED: USER    NEWDPF dihe0 -119.16 18.05 144.27 178.56 104.81 127.58 59.00 111.94 153.86 -4.75 
DOCKED: USER  keepresnum = 1 
DOCKED: USER  
DOCKED: REMARK  10 active torsions:
DOCKED: REMARK  status: ('A' for Active; 'I' for Inactive)
DOCKED: REMARK    1  A    between atoms: C_6  and  C_10 
DOCKED: REMARK    2  A    between atoms: C_10  and  C_11 
DOCKED: REMARK    3  A    between atoms: C_11  and  C_12 
DOCKED: REMARK    4  A    between atoms: C_12  and  O_14 
DOCKED: REMARK    5  A    between atoms: C_17  and  C_20 
DOCKED: REMARK    6  A    between atoms: C_24  and  C_27 
DOCKED: REMARK    7  A    between atoms: C_31  and  C_34 
DOCKED: REMARK    8  A    between atoms: C_34  and  C_35 
DOCKED: REMARK    9  A    between atoms: C_35  and  C_36 
DOCKED: REMARK   10  A    between atoms: C_36  and  O_38 
DOCKED: USER                              x       y       z     vdW  Elec       q    Type
DOCKED: USER                           _______ _______ _______ _____ _____    ______ ____
DOCKED: ROOT
DOCKED: ATOM      1  C   UNL d   1      40.522  32.590  16.228 -0.47 +0.01    +0.064 C 
DOCKED: ATOM      2  C   UNL d   1      42.858  28.495  17.714 +0.02 +0.02    +0.064 A 
DOCKED: ATOM      3  C   UNL d   1      39.872  25.890  14.999 -0.43 +0.01    +0.064 C 
DOCKED: ATOM      4  C   UNL d   1      37.530  29.832  13.632 -0.41 +0.01    +0.064 C 
DOCKED: ATOM      5  C   UNL d   1      41.403  31.672  16.963 -0.39 +0.01    +0.066 A 
DOCKED: ATOM      6  C   UNL d   1      42.323  32.058  17.925 -0.45 -0.00    -0.021 A 
DOCKED: ATOM      7  C   UNL d   1      42.973  30.921  18.334 -0.36 -0.01    -0.025 A 
DOCKED: ATOM      8  C   UNL d   1      42.425  29.883  17.606 -0.20 +0.02    +0.066 A 
DOCKED: ATOM      9  C   UNL d   1      44.045  30.844  19.378 -0.29 +0.02    +0.051 C 
DOCKED: ATOM     10  C   UNL d   1      42.308  27.467  17.066 -0.26 +0.02    +0.066 A 
DOCKED: ATOM     11  C   UNL d   1      42.817  26.166  17.101 -0.32 -0.01    -0.021 A 
DOCKED: ATOM     12  C   UNL d   1      41.983  25.399  16.313 -0.30 +0.00    +0.000 A 
DOCKED: ATOM     13  C   UNL d   1      41.003  26.281  15.825 -0.35 +0.02    +0.070 A 
DOCKED: ATOM     14  C   UNL d   1      44.076  25.691  17.797 -0.29 +0.02    +0.052 C 
DOCKED: ATOM     15  C   UNL d   1      38.955  26.744  14.485 -0.38 +0.01    +0.066 A 
DOCKED: ATOM     16  C   UNL d   1      37.833  26.320  13.784 -0.46 -0.00    -0.021 A 
DOCKED: ATOM     17  C   UNL d   1      37.158  27.456  13.386 -0.45 +0.00    +0.000 A 
DOCKED: ATOM     18  C   UNL d   1      37.888  28.547  13.850 -0.37 +0.01    +0.070 A 
DOCKED: ATOM     19  C   UNL d   1      37.423  24.905  13.477 -0.54 +0.01    +0.052 C 
DOCKED: ATOM     20  C   UNL d   1      38.240  31.004  14.157 -0.35 +0.01    +0.066 A 
DOCKED: ATOM     21  C   UNL d   1      38.001  32.333  13.777 -0.39 -0.00    -0.025 A 
DOCKED: ATOM     22  C   UNL d   1      38.855  33.103  14.539 -0.40 -0.00    -0.021 A 
DOCKED: ATOM     23  C   UNL d   1      39.583  32.218  15.344 -0.37 +0.01    +0.066 A 
DOCKED: ATOM     24  C   UNL d   1      37.025  32.859  12.750 -0.44 +0.00    +0.051 C 
DOCKED: ATOM     25  N   UNL d   1      41.464  30.341  16.780 -0.15 -0.08    -0.248 N 
DOCKED: ATOM     26  N   UNL d   1      41.206  27.543  16.277 -0.26 -0.08    -0.248 N 
DOCKED: ATOM     27  N   UNL d   1      38.969  28.111  14.564 -0.12 -0.06    -0.248 N 
DOCKED: ATOM     28  N   UNL d   1      39.234  30.937  15.075 -0.16 -0.06    -0.248 N 
DOCKED: ATOM     29 FE   UNL d   1      40.219  29.240  15.674 -0.08 +0.00    +0.000 Fe
DOCKED: ENDROOT
DOCKED: BRANCH   6  30
DOCKED: ATOM     30  C   UNL d   1      42.558  33.435  18.445 -0.37 +0.01    +0.052 C 
DOCKED: BRANCH  30  31
DOCKED: ATOM     31  C   UNL d   1      43.972  33.902  18.117 -0.25 +0.02    +0.115 C 
DOCKED: BRANCH  31  32
DOCKED: ATOM     32  C   UNL d   1      44.722  34.233  19.378 -0.29 +0.02    +0.139 C 
DOCKED: ATOM     33  O   UNL d   1      45.579  33.474  19.810 +0.01 -0.17    -0.650 OA
DOCKED: BRANCH  32  34
DOCKED: ATOM     34  O   UNL d   1      44.457  35.369  20.043 +0.01 +0.01    -0.776 OA
DOCKED: ATOM     35  H   UNL d   1      43.566  35.512  20.392 -0.46 -0.04    +0.167 HD
DOCKED: ENDBRANCH  32  34
DOCKED: ENDBRANCH  31  32
DOCKED: ENDBRANCH  30  31
DOCKED: ENDBRANCH   6  30
DOCKED: BRANCH  22  36
DOCKED: ATOM     36  C   UNL d   1      38.997  34.600  14.459 -0.47 +0.01    +0.052 C 
DOCKED: BRANCH  36  37
DOCKED: ATOM     37  C   UNL d   1      38.068  35.258  15.469 -0.43 +0.01    +0.115 C 
DOCKED: BRANCH  37  38
DOCKED: ATOM     38  C   UNL d   1      36.630  35.078  15.074 -0.22 +0.01    +0.139 C 
DOCKED: ATOM     39  O   UNL d   1      35.818  34.619  15.864 +0.05 -0.05    -0.650 OA
DOCKED: BRANCH  38  40
DOCKED: ATOM     40  O   UNL d   1      36.225  35.420  13.838 +0.11 -0.03    -0.776 OA
DOCKED: ATOM     41  H   UNL d   1      35.280  35.549  13.672 +0.13 +0.00    +0.167 HD
DOCKED: ENDBRANCH  38  40
DOCKED: ENDBRANCH  37  38
DOCKED: ENDBRANCH  36  37
DOCKED: ENDBRANCH  22  36
DOCKED: BRANCH  12  42
DOCKED: ATOM     42  C   UNL d   1      42.156  23.936  16.054 -0.46 +0.00    +0.004 C 
DOCKED: ATOM     43  C   UNL d   1      41.455  23.317  15.095 -0.57 +0.00    +0.012 C 
DOCKED: ENDBRANCH  12  42
DOCKED: BRANCH  17  44
DOCKED: ATOM     44  C   UNL d   1      35.887  27.493  12.628 -0.64 +0.00    +0.004 C 
DOCKED: ATOM     45  C   UNL d   1      35.779  28.214  11.507 -0.59 +0.00    +0.012 C 
DOCKED: ENDBRANCH  17  44
DOCKED: TORSDOF 10
DOCKED: TER
DOCKED: ENDMDL
________________________________________________________________________________


	BEGINNING GENETIC ALGORITHM DOCKING 30 of 100
Run: 30 Seed: 1512028023 345854751 [ Run 30 of 100 GA/GALS ]
Beginning LAMARCKIAN GENETIC ALGORITHM (LGA), with a maximum of 25000000 energy evaluations.

Final-Value: -15.437


	FINAL GENETIC ALGORITHM DOCKED STATE
	_______________________________________________


Detailed state:  trans 8.483 35.440 -0.504 quatxyzw 0.879025 -0.249731 0.101994 -0.393125 center -0.174 -0.001 -0.047 ntor 10 141.4789 -76.5601 56.4884 -118.9507 -151.7032 138.3334 -67.8899 -54.6377 -179.9997 -20.2348
State:	  8.483  35.440  -0.504   0.956 -0.272  0.111 -133.702    141.48  -76.56   56.49 -118.95 -151.70  138.33  -67.89  -54.64 -180.00  -20.23

DOCKED: MODEL       30
DOCKED: USER    Run = 30
DOCKED: USER    DPF = D:/Protein_go_brrr/autodock/final/2DN3/heme_Fe/dock.dpf
DOCKED: USER  
DOCKED: USER    Estimated Free Energy of Binding    =  -10.91 kcal/mol  [=(1)+(2)+(3)-(4)]
DOCKED: USER    Estimated Inhibition Constant, Ki   =   10.12 nM (nanomolar)  [Temperature = 298.15 K]
DOCKED: USER    
DOCKED: USER    (1) Final Intermolecular Energy     =  -13.89 kcal/mol
DOCKED: USER        vdW + Hbond + desolv Energy     =  -12.39 kcal/mol
DOCKED: USER        Electrostatic Energy            =   -1.50 kcal/mol
DOCKED: USER    (2) Final Total Internal Energy     =   -1.55 kcal/mol
DOCKED: USER    (3) Torsional Free Energy           =   +2.98 kcal/mol
DOCKED: USER    (4) Unbound System's Energy  [=(2)] =   -1.55 kcal/mol
DOCKED: USER    
DOCKED: USER    
DOCKED: USER    NEWDPF move heme_Fe_opt.pdbqt
DOCKED: USER    NEWDPF about -0.174000 -0.001000 -0.047000
DOCKED: USER    NEWDPF tran0 8.482681 35.439797 -0.504204
DOCKED: USER    NEWDPF quaternion0 0.879025 -0.249731 0.101994 -0.393125
DOCKED: USER    NEWDPF axisangle0 0.955997 -0.271599 0.110925 -133.701889
DOCKED: USER    NEWDPF quat0 0.955997 -0.271599 0.110925 -133.701889
DOCKED: USER    NEWDPF dihe0 141.48 -76.56 56.49 -118.95 -151.70 138.33 -67.89 -54.64 -180.00 -20.23 
DOCKED: USER  keepresnum = 1 
DOCKED: USER  
DOCKED: REMARK  10 active torsions:
DOCKED: REMARK  status: ('A' for Active; 'I' for Inactive)
DOCKED: REMARK    1  A    between atoms: C_6  and  C_10 
DOCKED: REMARK    2  A    between atoms: C_10  and  C_11 
DOCKED: REMARK    3  A    between atoms: C_11  and  C_12 
DOCKED: REMARK    4  A    between atoms: C_12  and  O_14 
DOCKED: REMARK    5  A    between atoms: C_17  and  C_20 
DOCKED: REMARK    6  A    between atoms: C_24  and  C_27 
DOCKED: REMARK    7  A    between atoms: C_31  and  C_34 
DOCKED: REMARK    8  A    between atoms: C_34  and  C_35 
DOCKED: REMARK    9  A    between atoms: C_35  and  C_36 
DOCKED: REMARK   10  A    between atoms: C_36  and  O_38 
DOCKED: USER                              x       y       z     vdW  Elec       q    Type
DOCKED: USER                           _______ _______ _______ _____ _____    ______ ____
DOCKED: ROOT
DOCKED: ATOM      1  C   UNL d   1       6.812  35.789  -1.643 +0.06 +0.01    +0.064 C 
DOCKED: ATOM      2  C   UNL d   1      11.662  36.505  -2.269 -0.37 +0.00    +0.064 A 
DOCKED: ATOM      3  C   UNL d   1      12.503  33.596   1.458 -0.42 +0.00    +0.064 C 
DOCKED: ATOM      4  C   UNL d   1       7.810  32.973   2.148 -0.46 +0.01    +0.064 C 
DOCKED: ATOM      5  C   UNL d   1       8.096  36.327  -2.112 -0.11 +0.01    +0.066 A 
DOCKED: ATOM      6  C   UNL d   1       8.237  37.284  -3.104 -0.32 -0.00    -0.021 A 
DOCKED: ATOM      7  C   UNL d   1       9.585  37.479  -3.280 -0.39 -0.00    -0.025 A 
DOCKED: ATOM      8  C   UNL d   1      10.215  36.633  -2.388 -0.38 +0.01    +0.066 A 
DOCKED: ATOM      9  C   UNL d   1      10.220  38.439  -4.239 -0.47 -0.01    +0.051 C 
DOCKED: ATOM     10  C   UNL d   1      12.295  35.740  -1.378 -0.35 +0.01    +0.066 A 
DOCKED: ATOM     11  C   UNL d   1      13.679  35.550  -1.364 -0.42 -0.00    -0.021 A 
DOCKED: ATOM     12  C   UNL d   1      13.945  34.701  -0.309 -0.45 +0.00    +0.000 A 
DOCKED: ATOM     13  C   UNL d   1      12.697  34.408   0.267 -0.33 +0.01    +0.070 A 
DOCKED: ATOM     14  C   UNL d   1      14.691  36.095  -2.351 -0.44 +0.01    +0.052 C 
DOCKED: ATOM     15  C   UNL d   1      11.300  33.268   1.986 -0.35 +0.00    +0.066 A 
DOCKED: ATOM     16  C   UNL d   1      11.159  32.574   3.181 -0.40 -0.00    -0.021 A 
DOCKED: ATOM     17  C   UNL d   1       9.807  32.390   3.380 -0.43 +0.00    +0.000 A 
DOCKED: ATOM     18  C   UNL d   1       9.153  32.974   2.298 -0.37 +0.01    +0.070 A 
DOCKED: ATOM     19  C   UNL d   1      12.253  32.079   4.089 -0.28 +0.00    +0.052 C 
DOCKED: ATOM     20  C   UNL d   1       7.084  33.630   1.055 -0.34 +0.01    +0.066 A 
DOCKED: ATOM     21  C   UNL d   1       5.719  33.470   0.778 -0.27 -0.00    -0.025 A 
DOCKED: ATOM     22  C   UNL d   1       5.453  34.291  -0.298 -0.29 -0.00    -0.021 A 
DOCKED: ATOM     23  C   UNL d   1       6.661  34.912  -0.638 -0.28 +0.01    +0.066 A 
DOCKED: ATOM     24  C   UNL d   1       4.711  32.590   1.479 -0.12 +0.00    +0.051 C 
DOCKED: ATOM     25  N   UNL d   1       9.306  35.941  -1.672 -0.19 -0.05    -0.248 N 
DOCKED: ATOM     26  N   UNL d   1      11.690  35.034  -0.390 -0.09 -0.04    -0.248 N 
DOCKED: ATOM     27  N   UNL d   1      10.067  33.552   1.462 -0.22 -0.03    -0.248 N 
DOCKED: ATOM     28  N   UNL d   1       7.662  34.471   0.163 -0.17 -0.05    -0.248 N 
DOCKED: ATOM     29 FE   UNL d   1       9.675  34.751  -0.112 -0.08 +0.00    +0.000 Fe
DOCKED: ENDROOT
DOCKED: BRANCH   6  30
DOCKED: ATOM     30  C   UNL d   1       7.149  37.994  -3.834 -0.26 +0.00    +0.052 C 
DOCKED: BRANCH  30  31
DOCKED: ATOM     31  C   UNL d   1       6.763  37.235  -5.099 -0.20 +0.01    +0.115 C 
DOCKED: BRANCH  31  32
DOCKED: ATOM     32  C   UNL d   1       5.375  36.671  -4.972 -0.15 +0.02    +0.139 C 
DOCKED: ATOM     33  O   UNL d   1       5.056  35.657  -5.577 +0.00 -0.09    -0.650 OA
DOCKED: BRANCH  32  34
DOCKED: ATOM     34  O   UNL d   1       4.468  37.281  -4.190 +0.05 -0.18    -0.776 OA
DOCKED: ATOM     35  H   UNL d   1       4.755  37.662  -3.348 +0.04 +0.05    +0.167 HD
DOCKED: ENDBRANCH  32  34
DOCKED: ENDBRANCH  31  32
DOCKED: ENDBRANCH  30  31
DOCKED: ENDBRANCH   6  30
DOCKED: BRANCH  22  36
DOCKED: ATOM     36  C   UNL d   1       4.123  34.432  -0.990 -0.22 +0.01    +0.052 C 
DOCKED: BRANCH  36  37
DOCKED: ATOM     37  C   UNL d   1       3.196  35.297  -0.149 -0.20 +0.05    +0.115 C 
DOCKED: BRANCH  37  38
DOCKED: ATOM     38  C   UNL d   1       2.679  36.463  -0.943 -0.09 +0.12    +0.139 C 
DOCKED: ATOM     39  O   UNL d   1       1.510  36.808  -0.858 -0.29 -0.98    -0.650 OA
DOCKED: BRANCH  38  40
DOCKED: ATOM     40  O   UNL d   1       3.506  37.137  -1.762 +0.04 -0.51    -0.776 OA
DOCKED: ATOM     41  H   UNL d   1       3.454  36.982  -2.715 +0.04 +0.08    +0.167 HD
DOCKED: ENDBRANCH  38  40
DOCKED: ENDBRANCH  37  38
DOCKED: ENDBRANCH  36  37
DOCKED: ENDBRANCH  22  36
DOCKED: BRANCH  12  42
DOCKED: ATOM     42  C   UNL d   1      15.306  34.215   0.076 -0.62 +0.00    +0.004 C 
DOCKED: ATOM     43  C   UNL d   1      15.942  34.718   1.142 -0.56 +0.00    +0.012 C 
DOCKED: ENDBRANCH  12  42
DOCKED: BRANCH  17  44
DOCKED: ATOM     44  C   UNL d   1       9.180  31.717   4.541 -0.59 +0.00    +0.004 C 
DOCKED: ATOM     45  C   UNL d   1       9.377  30.414   4.765 -0.65 +0.00    +0.012 C 
DOCKED: ENDBRANCH  17  44
DOCKED: TORSDOF 10
DOCKED: TER
DOCKED: ENDMDL
________________________________________________________________________________


	BEGINNING GENETIC ALGORITHM DOCKING 31 of 100
Run: 31 Seed: 838405933 1840983824 [ Run 31 of 100 GA/GALS ]
Beginning LAMARCKIAN GENETIC ALGORITHM (LGA), with a maximum of 25000000 energy evaluations.

Final-Value: -11.620


	FINAL GENETIC ALGORITHM DOCKED STATE
	_______________________________________________


Detailed state:  trans 44.933 21.016 16.573 quatxyzw -0.081710 -0.439425 0.689073 -0.570445 center -0.174 -0.001 -0.047 ntor 10 125.6882 167.3394 -100.0504 -129.9788 25.3398 52.9779 -131.0801 -55.4584 -40.6045 -177.6267
State:	 44.933  21.016  16.573  -0.099 -0.535  0.839 -110.437    125.69  167.34 -100.05 -129.98   25.34   52.98 -131.08  -55.46  -40.60 -177.63

DOCKED: MODEL       31
DOCKED: USER    Run = 31
DOCKED: USER    DPF = D:/Protein_go_brrr/autodock/final/2DN3/heme_Fe/dock.dpf
DOCKED: USER  
DOCKED: USER    Estimated Free Energy of Binding    =   -8.09 kcal/mol  [=(1)+(2)+(3)-(4)]
DOCKED: USER    Estimated Inhibition Constant, Ki   =    1.17 uM (micromolar)  [Temperature = 298.15 K]
DOCKED: USER    
DOCKED: USER    (1) Final Intermolecular Energy     =  -11.07 kcal/mol
DOCKED: USER        vdW + Hbond + desolv Energy     =   -9.03 kcal/mol
DOCKED: USER        Electrostatic Energy            =   -2.04 kcal/mol
DOCKED: USER    (2) Final Total Internal Energy     =   -0.55 kcal/mol
DOCKED: USER    (3) Torsional Free Energy           =   +2.98 kcal/mol
DOCKED: USER    (4) Unbound System's Energy  [=(2)] =   -0.55 kcal/mol
DOCKED: USER    
DOCKED: USER    
DOCKED: USER    NEWDPF move heme_Fe_opt.pdbqt
DOCKED: USER    NEWDPF about -0.174000 -0.001000 -0.047000
DOCKED: USER    NEWDPF tran0 44.933149 21.016069 16.572613
DOCKED: USER    NEWDPF quaternion0 -0.081710 -0.439425 0.689073 -0.570445
DOCKED: USER    NEWDPF axisangle0 -0.099485 -0.535012 0.838966 -110.437427
DOCKED: USER    NEWDPF quat0 -0.099485 -0.535012 0.838966 -110.437427
DOCKED: USER    NEWDPF dihe0 125.69 167.34 -100.05 -129.98 25.34 52.98 -131.08 -55.46 -40.60 -177.63 
DOCKED: USER  keepresnum = 1 
DOCKED: USER  
DOCKED: REMARK  10 active torsions:
DOCKED: REMARK  status: ('A' for Active; 'I' for Inactive)
DOCKED: REMARK    1  A    between atoms: C_6  and  C_10 
DOCKED: REMARK    2  A    between atoms: C_10  and  C_11 
DOCKED: REMARK    3  A    between atoms: C_11  and  C_12 
DOCKED: REMARK    4  A    between atoms: C_12  and  O_14 
DOCKED: REMARK    5  A    between atoms: C_17  and  C_20 
DOCKED: REMARK    6  A    between atoms: C_24  and  C_27 
DOCKED: REMARK    7  A    between atoms: C_31  and  C_34 
DOCKED: REMARK    8  A    between atoms: C_34  and  C_35 
DOCKED: REMARK    9  A    between atoms: C_35  and  C_36 
DOCKED: REMARK   10  A    between atoms: C_36  and  O_38 
DOCKED: USER                              x       y       z     vdW  Elec       q    Type
DOCKED: USER                           _______ _______ _______ _____ _____    ______ ____
DOCKED: ROOT
DOCKED: ATOM      1  C   UNL d   1      45.314  19.042  16.163 -0.16 +0.04    +0.064 C 
DOCKED: ATOM      2  C   UNL d   1      46.582  22.151  19.790 -0.13 +0.04    +0.064 A 
DOCKED: ATOM      3  C   UNL d   1      43.167  25.179  18.294 -0.35 +0.02    +0.064 C 
DOCKED: ATOM      4  C   UNL d   1      41.994  22.232  14.713 -0.36 +0.01    +0.064 C 
DOCKED: ATOM      5  C   UNL d   1      46.043  19.674  17.271 -0.14 +0.06    +0.066 A 
DOCKED: ATOM      6  C   UNL d   1      47.165  19.141  17.885 -0.09 -0.02    -0.021 A 
DOCKED: ATOM      7  C   UNL d   1      47.515  20.004  18.894 -0.10 -0.02    -0.025 A 
DOCKED: ATOM      8  C   UNL d   1      46.591  21.031  18.858 -0.16 +0.05    +0.066 A 
DOCKED: ATOM      9  C   UNL d   1      48.681  19.851  19.822 -0.04 +0.02    +0.051 C 
DOCKED: ATOM     10  C   UNL d   1      45.738  23.183  19.741 -0.08 +0.04    +0.066 A 
DOCKED: ATOM     11  C   UNL d   1      45.680  24.183  20.715 -0.15 -0.01    -0.021 A 
DOCKED: ATOM     12  C   UNL d   1      44.691  25.060  20.316 -0.24 +0.00    +0.000 A 
DOCKED: ATOM     13  C   UNL d   1      44.186  24.540  19.111 -0.23 +0.04    +0.070 A 
DOCKED: ATOM     14  C   UNL d   1      46.480  24.263  21.999 -0.11 +0.03    +0.052 C 
DOCKED: ATOM     15  C   UNL d   1      42.641  24.657  17.161 -0.34 +0.02    +0.066 A 
DOCKED: ATOM     16  C   UNL d   1      41.741  25.343  16.355 -0.36 -0.01    -0.021 A 
DOCKED: ATOM     17  C   UNL d   1      41.399  24.494  15.324 -0.43 +0.00    +0.000 A 
DOCKED: ATOM     18  C   UNL d   1      42.096  23.305  15.527 -0.36 +0.02    +0.070 A 
DOCKED: ATOM     19  C   UNL d   1      41.203  26.734  16.559 -0.40 +0.02    +0.052 C 
DOCKED: ATOM     20  C   UNL d   1      42.758  20.987  14.860 -0.31 +0.02    +0.066 A 
DOCKED: ATOM     21  C   UNL d   1      42.520  19.801  14.151 -0.36 -0.01    -0.025 A 
DOCKED: ATOM     22  C   UNL d   1      43.485  18.910  14.571 -0.21 -0.01    -0.021 A 
DOCKED: ATOM     23  C   UNL d   1      44.267  19.581  15.519 -0.20 +0.03    +0.066 A 
DOCKED: ATOM     24  C   UNL d   1      41.441  19.511  13.134 -0.36 +0.01    +0.051 C 
DOCKED: ATOM     25  N   UNL d   1      45.703  20.832  17.864 -0.15 -0.21    -0.248 N 
DOCKED: ATOM     26  N   UNL d   1      44.818  23.392  18.765 -0.12 -0.15    -0.248 N 
DOCKED: ATOM     27  N   UNL d   1      42.893  23.420  16.631 -0.21 -0.09    -0.248 N 
DOCKED: ATOM     28  N   UNL d   1      43.791  20.833  15.725 -0.17 -0.13    -0.248 N 
DOCKED: ATOM     29 FE   UNL d   1      44.303  22.112  17.243 -0.07 +0.00    +0.000 Fe
DOCKED: ENDROOT
DOCKED: BRANCH   6  30
DOCKED: ATOM     30  C   UNL d   1      47.884  17.888  17.519 -0.04 +0.03    +0.052 C 
DOCKED: BRANCH  30  31
DOCKED: ATOM     31  C   UNL d   1      48.158  17.840  16.019 -0.05 +0.07    +0.115 C 
DOCKED: BRANCH  31  32
DOCKED: ATOM     32  C   UNL d   1      48.769  19.133  15.555 +0.03 +0.18    +0.139 C 
DOCKED: ATOM     33  O   UNL d   1      49.394  19.842  16.331 -0.31 -1.05    -0.650 OA
DOCKED: BRANCH  32  34
DOCKED: ATOM     34  O   UNL d   1      48.632  19.523  14.276 +0.14 -1.20    -0.776 OA
DOCKED: ATOM     35  H   UNL d   1      48.903  18.919  13.570 +0.02 +0.14    +0.167 HD
DOCKED: ENDBRANCH  32  34
DOCKED: ENDBRANCH  31  32
DOCKED: ENDBRANCH  30  31
DOCKED: ENDBRANCH   6  30
DOCKED: BRANCH  22  36
DOCKED: ATOM     36  C   UNL d   1      43.617  17.479  14.120 -0.12 +0.01    +0.052 C 
DOCKED: BRANCH  36  37
DOCKED: ATOM     37  C   UNL d   1      42.632  16.607  14.886 -0.16 +0.02    +0.115 C 
DOCKED: BRANCH  37  38
DOCKED: ATOM     38  C   UNL d   1      41.732  15.858  13.945 -0.13 +0.02    +0.139 C 
DOCKED: ATOM     39  O   UNL d   1      42.197  15.180  13.041 +0.03 -0.09    -0.650 OA
DOCKED: BRANCH  38  40
DOCKED: ATOM     40  O   UNL d   1      40.397  15.934  14.091 +0.08 +0.01    -0.776 OA
DOCKED: ATOM     41  H   UNL d   1      40.033  16.311  14.904 -0.47 -0.04    +0.167 HD
DOCKED: ENDBRANCH  38  40
DOCKED: ENDBRANCH  37  38
DOCKED: ENDBRANCH  36  37
DOCKED: ENDBRANCH  22  36
DOCKED: BRANCH  12  42
DOCKED: ATOM     42  C   UNL d   1      44.276  26.284  21.069 -0.27 +0.00    +0.004 C 
DOCKED: ATOM     43  C   UNL d   1      43.948  26.217  22.366 -0.27 +0.01    +0.012 C 
DOCKED: ENDBRANCH  12  42
DOCKED: BRANCH  17  44
DOCKED: ATOM     44  C   UNL d   1      40.481  24.806  14.205 -0.60 +0.00    +0.004 C 
DOCKED: ATOM     45  C   UNL d   1      39.157  24.821  14.390 -0.51 +0.00    +0.012 C 
DOCKED: ENDBRANCH  17  44
DOCKED: TORSDOF 10
DOCKED: TER
DOCKED: ENDMDL
________________________________________________________________________________


	BEGINNING GENETIC ALGORITHM DOCKING 32 of 100
Run: 32 Seed: 986364647 841723947 [ Run 32 of 100 GA/GALS ]
Beginning LAMARCKIAN GENETIC ALGORITHM (LGA), with a maximum of 25000000 energy evaluations.

Final-Value: -17.078


	FINAL GENETIC ALGORITHM DOCKED STATE
	_______________________________________________


Detailed state:  trans 41.676 28.881 17.049 quatxyzw -0.126360 -0.944091 -0.052610 0.299929 center -0.174 -0.001 -0.047 ntor 10 69.2351 115.8920 -129.7498 -113.2375 -109.7162 157.6442 37.2612 -34.4644 3.3952 -14.5110
State:	 41.676  28.881  17.049  -0.132 -0.990 -0.055 145.093     69.24  115.89 -129.75 -113.24 -109.72  157.64   37.26  -34.46    3.40  -14.51

DOCKED: MODEL       32
DOCKED: USER    Run = 32
DOCKED: USER    DPF = D:/Protein_go_brrr/autodock/final/2DN3/heme_Fe/dock.dpf
DOCKED: USER  
DOCKED: USER    Estimated Free Energy of Binding    =  -12.66 kcal/mol  [=(1)+(2)+(3)-(4)]
DOCKED: USER    Estimated Inhibition Constant, Ki   =  524.44 pM (picomolar)  [Temperature = 298.15 K]
DOCKED: USER    
DOCKED: USER    (1) Final Intermolecular Energy     =  -15.64 kcal/mol
DOCKED: USER        vdW + Hbond + desolv Energy     =  -13.37 kcal/mol
DOCKED: USER        Electrostatic Energy            =   -2.27 kcal/mol
DOCKED: USER    (2) Final Total Internal Energy     =   -1.43 kcal/mol
DOCKED: USER    (3) Torsional Free Energy           =   +2.98 kcal/mol
DOCKED: USER    (4) Unbound System's Energy  [=(2)] =   -1.43 kcal/mol
DOCKED: USER    
DOCKED: USER    
DOCKED: USER    NEWDPF move heme_Fe_opt.pdbqt
DOCKED: USER    NEWDPF about -0.174000 -0.001000 -0.047000
DOCKED: USER    NEWDPF tran0 41.676426 28.881140 17.049206
DOCKED: USER    NEWDPF quaternion0 -0.126360 -0.944091 -0.052610 0.299929
DOCKED: USER    NEWDPF axisangle0 -0.132459 -0.989653 -0.055149 145.093325
DOCKED: USER    NEWDPF quat0 -0.132459 -0.989653 -0.055149 145.093325
DOCKED: USER    NEWDPF dihe0 69.24 115.89 -129.75 -113.24 -109.72 157.64 37.26 -34.46 3.40 -14.51 
DOCKED: USER  keepresnum = 1 
DOCKED: USER  
DOCKED: REMARK  10 active torsions:
DOCKED: REMARK  status: ('A' for Active; 'I' for Inactive)
DOCKED: REMARK    1  A    between atoms: C_6  and  C_10 
DOCKED: REMARK    2  A    between atoms: C_10  and  C_11 
DOCKED: REMARK    3  A    between atoms: C_11  and  C_12 
DOCKED: REMARK    4  A    between atoms: C_12  and  O_14 
DOCKED: REMARK    5  A    between atoms: C_17  and  C_20 
DOCKED: REMARK    6  A    between atoms: C_24  and  C_27 
DOCKED: REMARK    7  A    between atoms: C_31  and  C_34 
DOCKED: REMARK    8  A    between atoms: C_34  and  C_35 
DOCKED: REMARK    9  A    between atoms: C_35  and  C_36 
DOCKED: REMARK   10  A    between atoms: C_36  and  O_38 
DOCKED: USER                              x       y       z     vdW  Elec       q    Type
DOCKED: USER                           _______ _______ _______ _____ _____    ______ ____
DOCKED: ROOT
DOCKED: ATOM      1  C   UNL d   1      43.534  28.302  17.701 -0.27 +0.02    +0.064 C 
DOCKED: ATOM      2  C   UNL d   1      39.855  26.083  15.257 -0.26 +0.01    +0.064 A 
DOCKED: ATOM      3  C   UNL d   1      37.902  30.392  14.425 -0.38 +0.01    +0.064 C 
DOCKED: ATOM      4  C   UNL d   1      41.397  32.551  16.877 -0.48 +0.01    +0.064 C 
DOCKED: ATOM      5  C   UNL d   1      42.635  27.272  17.162 -0.24 +0.02    +0.066 A 
DOCKED: ATOM      6  C   UNL d   1      42.818  25.907  17.311 -0.33 -0.01    -0.021 A 
DOCKED: ATOM      7  C   UNL d   1      41.798  25.291  16.629 -0.35 -0.01    -0.025 A 
DOCKED: ATOM      8  C   UNL d   1      41.031  26.305  16.089 -0.35 +0.02    +0.066 A 
DOCKED: ATOM      9  C   UNL d   1      41.570  23.814  16.524 -0.50 +0.01    +0.051 C 
DOCKED: ATOM     10  C   UNL d   1      39.065  27.043  14.772 -0.36 +0.01    +0.066 A 
DOCKED: ATOM     11  C   UNL d   1      38.013  26.805  13.884 -0.43 -0.00    -0.021 A 
DOCKED: ATOM     12  C   UNL d   1      37.444  28.034  13.615 -0.44 +0.00    +0.000 A 
DOCKED: ATOM     13  C   UNL d   1      38.191  28.968  14.354 -0.31 +0.01    +0.070 A 
DOCKED: ATOM     14  C   UNL d   1      37.612  25.480  13.267 -0.54 +0.01    +0.052 C 
DOCKED: ATOM     15  C   UNL d   1      38.649  31.302  15.094 -0.35 +0.01    +0.066 A 
DOCKED: ATOM     16  C   UNL d   1      38.284  32.637  15.220 -0.37 -0.00    -0.021 A 
DOCKED: ATOM     17  C   UNL d   1      39.292  33.262  15.924 -0.42 +0.00    +0.000 A 
DOCKED: ATOM     18  C   UNL d   1      40.252  32.293  16.207 -0.38 +0.01    +0.070 A 
DOCKED: ATOM     19  C   UNL d   1      37.049  33.306  14.680 -0.32 +0.00    +0.052 C 
DOCKED: ATOM     20  C   UNL d   1      42.401  31.546  17.246 -0.34 +0.02    +0.066 A 
DOCKED: ATOM     21  C   UNL d   1      43.676  31.824  17.759 -0.23 -0.01    -0.025 A 
DOCKED: ATOM     22  C   UNL d   1      44.262  30.599  17.999 -0.28 -0.01    -0.021 A 
DOCKED: ATOM     23  C   UNL d   1      43.330  29.626  17.619 -0.28 +0.02    +0.066 A 
DOCKED: ATOM     24  C   UNL d   1      44.318  33.169  18.009 +0.04 +0.01    +0.051 C 
DOCKED: ATOM     25  N   UNL d   1      41.537  27.509  16.423 -0.25 -0.09    -0.248 N 
DOCKED: ATOM     26  N   UNL d   1      39.184  28.365  15.052 -0.12 -0.08    -0.248 N 
DOCKED: ATOM     27  N   UNL d   1      39.837  31.079  15.735 -0.14 -0.06    -0.248 N 
DOCKED: ATOM     28  N   UNL d   1      42.214  30.210  17.119 -0.24 -0.07    -0.248 N 
DOCKED: ATOM     29 FE   UNL d   1      40.699  29.289  16.086 -0.08 +0.00    +0.000 Fe
DOCKED: ENDROOT
DOCKED: BRANCH   6  30
DOCKED: ATOM     30  C   UNL d   1      43.894  25.219  18.080 -0.30 +0.02    +0.052 C 
DOCKED: BRANCH  30  31
DOCKED: ATOM     31  C   UNL d   1      43.438  24.930  19.507 -0.33 +0.05    +0.115 C 
DOCKED: BRANCH  31  32
DOCKED: ATOM     32  C   UNL d   1      44.577  25.116  20.470 -0.23 +0.08    +0.139 C 
DOCKED: ATOM     33  O   UNL d   1      45.085  24.153  21.028 -0.41 -0.40    -0.650 OA
DOCKED: BRANCH  32  34
DOCKED: ATOM     34  O   UNL d   1      45.049  26.347  20.729 +0.05 -0.64    -0.776 OA
DOCKED: ATOM     35  H   UNL d   1      45.931  26.588  20.413 +0.05 +0.13    +0.167 HD
DOCKED: ENDBRANCH  32  34
DOCKED: ENDBRANCH  31  32
DOCKED: ENDBRANCH  30  31
DOCKED: ENDBRANCH   6  30
DOCKED: BRANCH  22  36
DOCKED: ATOM     36  C   UNL d   1      45.659  30.379  18.517 -0.22 +0.02    +0.052 C 
DOCKED: BRANCH  36  37
DOCKED: ATOM     37  C   UNL d   1      45.670  30.510  20.033 -0.14 +0.08    +0.115 C 
DOCKED: BRANCH  37  38
DOCKED: ATOM     38  C   UNL d   1      46.648  29.550  20.649 -0.07 +0.15    +0.139 C 
DOCKED: ATOM     39  O   UNL d   1      47.109  29.756  21.763 -0.39 -1.20    -0.650 OA
DOCKED: BRANCH  38  40
DOCKED: ATOM     40  O   UNL d   1      47.029  28.452  19.972 +0.01 -0.59    -0.776 OA
DOCKED: ATOM     41  H   UNL d   1      46.369  27.776  19.765 +0.05 +0.12    +0.167 HD
DOCKED: ENDBRANCH  38  40
DOCKED: ENDBRANCH  37  38
DOCKED: ENDBRANCH  36  37
DOCKED: ENDBRANCH  22  36
DOCKED: BRANCH  12  42
DOCKED: ATOM     42  C   UNL d   1      36.284  28.258  12.698 -0.63 +0.00    +0.004 C 
DOCKED: ATOM     43  C   UNL d   1      36.460  28.343  11.373 -0.66 +0.00    +0.012 C 
DOCKED: ENDBRANCH  12  42
DOCKED: BRANCH  17  44
DOCKED: ATOM     44  C   UNL d   1      39.325  34.689  16.317 -0.56 +0.00    +0.004 C 
DOCKED: ATOM     45  C   UNL d   1      39.276  35.655  15.394 -0.56 +0.00    +0.012 C 
DOCKED: ENDBRANCH  17  44
DOCKED: TORSDOF 10
DOCKED: TER
DOCKED: ENDMDL
________________________________________________________________________________


	BEGINNING GENETIC ALGORITHM DOCKING 33 of 100
Run: 33 Seed: 730274806 367395777 [ Run 33 of 100 GA/GALS ]
Beginning LAMARCKIAN GENETIC ALGORITHM (LGA), with a maximum of 25000000 energy evaluations.

Final-Value: -16.939


	FINAL GENETIC ALGORITHM DOCKED STATE
	_______________________________________________


Detailed state:  trans 41.353 29.028 16.880 quatxyzw 0.109845 0.933253 0.062714 -0.336215 center -0.174 -0.001 -0.047 ntor 10 84.9706 -76.5377 57.1387 -133.4631 158.8068 31.7487 32.9770 -14.9171 -178.6936 18.3491
State:	 41.353  29.028  16.880   0.117  0.991  0.067 -140.707     84.97  -76.54   57.14 -133.46  158.81   31.75   32.98  -14.92 -178.69   18.35

DOCKED: MODEL       33
DOCKED: USER    Run = 33
DOCKED: USER    DPF = D:/Protein_go_brrr/autodock/final/2DN3/heme_Fe/dock.dpf
DOCKED: USER  
DOCKED: USER    Estimated Free Energy of Binding    =  -13.45 kcal/mol  [=(1)+(2)+(3)-(4)]
DOCKED: USER    Estimated Inhibition Constant, Ki   =  138.77 pM (picomolar)  [Temperature = 298.15 K]
DOCKED: USER    
DOCKED: USER    (1) Final Intermolecular Energy     =  -16.43 kcal/mol
DOCKED: USER        vdW + Hbond + desolv Energy     =  -13.71 kcal/mol
DOCKED: USER        Electrostatic Energy            =   -2.72 kcal/mol
DOCKED: USER    (2) Final Total Internal Energy     =   -0.51 kcal/mol
DOCKED: USER    (3) Torsional Free Energy           =   +2.98 kcal/mol
DOCKED: USER    (4) Unbound System's Energy  [=(2)] =   -0.51 kcal/mol
DOCKED: USER    
DOCKED: USER    
DOCKED: USER    NEWDPF move heme_Fe_opt.pdbqt
DOCKED: USER    NEWDPF about -0.174000 -0.001000 -0.047000
DOCKED: USER    NEWDPF tran0 41.353353 29.027829 16.879581
DOCKED: USER    NEWDPF quaternion0 0.109845 0.933253 0.062714 -0.336215
DOCKED: USER    NEWDPF axisangle0 0.116635 0.990940 0.066591 -140.707176
DOCKED: USER    NEWDPF quat0 0.116635 0.990940 0.066591 -140.707176
DOCKED: USER    NEWDPF dihe0 84.97 -76.54 57.14 -133.46 158.81 31.75 32.98 -14.92 -178.69 18.35 
DOCKED: USER  keepresnum = 1 
DOCKED: USER  
DOCKED: REMARK  10 active torsions:
DOCKED: REMARK  status: ('A' for Active; 'I' for Inactive)
DOCKED: REMARK    1  A    between atoms: C_6  and  C_10 
DOCKED: REMARK    2  A    between atoms: C_10  and  C_11 
DOCKED: REMARK    3  A    between atoms: C_11  and  C_12 
DOCKED: REMARK    4  A    between atoms: C_12  and  O_14 
DOCKED: REMARK    5  A    between atoms: C_17  and  C_20 
DOCKED: REMARK    6  A    between atoms: C_24  and  C_27 
DOCKED: REMARK    7  A    between atoms: C_31  and  C_34 
DOCKED: REMARK    8  A    between atoms: C_34  and  C_35 
DOCKED: REMARK    9  A    between atoms: C_35  and  C_36 
DOCKED: REMARK   10  A    between atoms: C_36  and  O_38 
DOCKED: USER                              x       y       z     vdW  Elec       q    Type
DOCKED: USER                           _______ _______ _______ _____ _____    ______ ____
DOCKED: ROOT
DOCKED: ATOM      1  C   UNL d   1      43.170  28.504  17.677 -0.16 +0.02    +0.064 C 
DOCKED: ATOM      2  C   UNL d   1      39.766  26.180  14.949 -0.39 +0.01    +0.064 A 
DOCKED: ATOM      3  C   UNL d   1      37.754  30.428  13.965 -0.35 +0.01    +0.064 C 
DOCKED: ATOM      4  C   UNL d   1      40.976  32.688  16.685 -0.48 +0.01    +0.064 C 
DOCKED: ATOM      5  C   UNL d   1      42.349  27.448  17.068 -0.26 +0.02    +0.066 A 
DOCKED: ATOM      6  C   UNL d   1      42.561  26.089  17.231 -0.34 -0.01    -0.021 A 
DOCKED: ATOM      7  C   UNL d   1      41.618  25.444  16.471 -0.37 -0.01    -0.025 A 
DOCKED: ATOM      8  C   UNL d   1      40.865  26.436  15.872 -0.36 +0.02    +0.066 A 
DOCKED: ATOM      9  C   UNL d   1      41.445  23.961  16.348 -0.53 +0.01    +0.051 C 
DOCKED: ATOM     10  C   UNL d   1      38.988  27.116  14.403 -0.35 +0.01    +0.066 A 
DOCKED: ATOM     11  C   UNL d   1      38.018  26.848  13.434 -0.43 -0.00    -0.021 A 
DOCKED: ATOM     12  C   UNL d   1      37.434  28.060  13.121 -0.47 +0.00    +0.000 A 
DOCKED: ATOM     13  C   UNL d   1      38.091  29.014  13.917 -0.32 +0.01    +0.070 A 
DOCKED: ATOM     14  C   UNL d   1      37.708  25.513  12.788 -0.46 +0.01    +0.052 C 
DOCKED: ATOM     15  C   UNL d   1      38.417  31.360  14.690 -0.34 +0.01    +0.066 A 
DOCKED: ATOM     16  C   UNL d   1      38.003  32.682  14.787 -0.38 -0.00    -0.021 A 
DOCKED: ATOM     17  C   UNL d   1      38.932  33.336  15.568 -0.44 +0.00    +0.000 A 
DOCKED: ATOM     18  C   UNL d   1      39.896  32.397  15.927 -0.38 +0.01    +0.070 A 
DOCKED: ATOM     19  C   UNL d   1      36.794  33.314  14.150 -0.36 +0.00    +0.052 C 
DOCKED: ATOM     20  C   UNL d   1      41.978  31.713  17.133 -0.39 +0.01    +0.066 A 
DOCKED: ATOM     21  C   UNL d   1      43.199  32.029  17.745 -0.32 -0.01    -0.025 A 
DOCKED: ATOM     22  C   UNL d   1      43.802  30.822  18.031 -0.31 -0.01    -0.021 A 
DOCKED: ATOM     23  C   UNL d   1      42.933  29.822  17.578 -0.30 +0.02    +0.066 A 
DOCKED: ATOM     24  C   UNL d   1      43.778  33.392  18.046 -0.23 +0.01    +0.051 C 
DOCKED: ATOM     25  N   UNL d   1      41.307  27.654  16.245 -0.25 -0.09    -0.248 N 
DOCKED: ATOM     26  N   UNL d   1      39.044  28.441  14.692 -0.00 -0.07    -0.248 N 
DOCKED: ATOM     27  N   UNL d   1      39.557  31.172  15.424 -0.16 -0.06    -0.248 N 
DOCKED: ATOM     28  N   UNL d   1      41.842  30.372  16.991 -0.23 -0.07    -0.248 N 
DOCKED: ATOM     29 FE   UNL d   1      40.444  29.408  15.842 -0.08 +0.00    +0.000 Fe
DOCKED: ENDROOT
DOCKED: BRANCH   6  30
DOCKED: ATOM     30  C   UNL d   1      43.593  25.433  18.083 -0.32 +0.02    +0.052 C 
DOCKED: BRANCH  30  31
DOCKED: ATOM     31  C   UNL d   1      44.883  25.217  17.300 -0.22 +0.07    +0.115 C 
DOCKED: BRANCH  31  32
DOCKED: ATOM     32  C   UNL d   1      45.572  23.961  17.756 -0.22 +0.11    +0.139 C 
DOCKED: ATOM     33  O   UNL d   1      46.383  23.398  17.035 -0.36 -1.05    -0.650 OA
DOCKED: BRANCH  32  34
DOCKED: ATOM     34  O   UNL d   1      45.302  23.445  18.967 -0.02 -0.49    -0.776 OA
DOCKED: ATOM     35  H   UNL d   1      45.875  23.672  19.713 +0.05 +0.10    +0.167 HD
DOCKED: ENDBRANCH  32  34
DOCKED: ENDBRANCH  31  32
DOCKED: ENDBRANCH  30  31
DOCKED: ENDBRANCH   6  30
DOCKED: BRANCH  22  36
DOCKED: ATOM     36  C   UNL d   1      45.159  30.643  18.658 -0.26 +0.02    +0.052 C 
DOCKED: BRANCH  36  37
DOCKED: ATOM     37  C   UNL d   1      45.012  29.976  20.018 -0.11 +0.09    +0.115 C 
DOCKED: BRANCH  37  38
DOCKED: ATOM     38  C   UNL d   1      46.331  29.440  20.500 -0.14 +0.15    +0.139 C 
DOCKED: ATOM     39  O   UNL d   1      47.378  29.996  20.203 -0.04 -0.46    -0.650 OA
DOCKED: BRANCH  38  40
DOCKED: ATOM     40  O   UNL d   1      46.366  28.334  21.265 -0.30 -1.36    -0.776 OA
DOCKED: ATOM     41  H   UNL d   1      46.629  27.494  20.864 +0.03 +0.18    +0.167 HD
DOCKED: ENDBRANCH  38  40
DOCKED: ENDBRANCH  37  38
DOCKED: ENDBRANCH  36  37
DOCKED: ENDBRANCH  22  36
DOCKED: BRANCH  12  42
DOCKED: ATOM     42  C   UNL d   1      36.344  28.250  12.115 -0.69 +0.00    +0.004 C 
DOCKED: ATOM     43  C   UNL d   1      35.080  28.469  12.501 -0.62 +0.00    +0.012 C 
DOCKED: ENDBRANCH  12  42
DOCKED: BRANCH  17  44
DOCKED: ATOM     44  C   UNL d   1      38.890  34.762  15.963 -0.50 +0.00    +0.004 C 
DOCKED: ATOM     45  C   UNL d   1      39.280  35.720  15.115 -0.59 +0.00    +0.012 C 
DOCKED: ENDBRANCH  17  44
DOCKED: TORSDOF 10
DOCKED: TER
DOCKED: ENDMDL
________________________________________________________________________________


	BEGINNING GENETIC ALGORITHM DOCKING 34 of 100
Run: 34 Seed: 1197374706 1754589390 [ Run 34 of 100 GA/GALS ]
Beginning LAMARCKIAN GENETIC ALGORITHM (LGA), with a maximum of 25000000 energy evaluations.

Final-Value: -16.822


	FINAL GENETIC ALGORITHM DOCKED STATE
	_______________________________________________


Detailed state:  trans 41.798 28.791 16.174 quatxyzw 0.223407 0.098356 -0.952268 0.183308 center -0.174 -0.001 -0.047 ntor 10 90.5654 -171.9924 65.1709 -141.2145 -71.0540 73.6994 -54.3053 29.6401 174.7763 25.0003
State:	 41.798  28.791  16.174   0.227  0.100 -0.969 158.875     90.57 -171.99   65.17 -141.21  -71.05   73.70  -54.31   29.64  174.78   25.00

DOCKED: MODEL       34
DOCKED: USER    Run = 34
DOCKED: USER    DPF = D:/Protein_go_brrr/autodock/final/2DN3/heme_Fe/dock.dpf
DOCKED: USER  
DOCKED: USER    Estimated Free Energy of Binding    =  -13.28 kcal/mol  [=(1)+(2)+(3)-(4)]
DOCKED: USER    Estimated Inhibition Constant, Ki   =  183.85 pM (picomolar)  [Temperature = 298.15 K]
DOCKED: USER    
DOCKED: USER    (1) Final Intermolecular Energy     =  -16.26 kcal/mol
DOCKED: USER        vdW + Hbond + desolv Energy     =  -13.63 kcal/mol
DOCKED: USER        Electrostatic Energy            =   -2.64 kcal/mol
DOCKED: USER    (2) Final Total Internal Energy     =   -0.56 kcal/mol
DOCKED: USER    (3) Torsional Free Energy           =   +2.98 kcal/mol
DOCKED: USER    (4) Unbound System's Energy  [=(2)] =   -0.56 kcal/mol
DOCKED: USER    
DOCKED: USER    
DOCKED: USER    NEWDPF move heme_Fe_opt.pdbqt
DOCKED: USER    NEWDPF about -0.174000 -0.001000 -0.047000
DOCKED: USER    NEWDPF tran0 41.798036 28.790625 16.173858
DOCKED: USER    NEWDPF quaternion0 0.223407 0.098356 -0.952268 0.183308
DOCKED: USER    NEWDPF axisangle0 0.227258 0.100052 -0.968681 158.875003
DOCKED: USER    NEWDPF quat0 0.227258 0.100052 -0.968681 158.875003
DOCKED: USER    NEWDPF dihe0 90.57 -171.99 65.17 -141.21 -71.05 73.70 -54.31 29.64 174.78 25.00 
DOCKED: USER  keepresnum = 1 
DOCKED: USER  
DOCKED: REMARK  10 active torsions:
DOCKED: REMARK  status: ('A' for Active; 'I' for Inactive)
DOCKED: REMARK    1  A    between atoms: C_6  and  C_10 
DOCKED: REMARK    2  A    between atoms: C_10  and  C_11 
DOCKED: REMARK    3  A    between atoms: C_11  and  C_12 
DOCKED: REMARK    4  A    between atoms: C_12  and  O_14 
DOCKED: REMARK    5  A    between atoms: C_17  and  C_20 
DOCKED: REMARK    6  A    between atoms: C_24  and  C_27 
DOCKED: REMARK    7  A    between atoms: C_31  and  C_34 
DOCKED: REMARK    8  A    between atoms: C_34  and  C_35 
DOCKED: REMARK    9  A    between atoms: C_35  and  C_36 
DOCKED: REMARK   10  A    between atoms: C_36  and  O_38 
DOCKED: USER                              x       y       z     vdW  Elec       q    Type
DOCKED: USER                           _______ _______ _______ _____ _____    ______ ____
DOCKED: ROOT
DOCKED: ATOM      1  C   UNL d   1      43.221  28.010  17.430 -0.25 +0.02    +0.064 C 
DOCKED: ATOM      2  C   UNL d   1      41.283  32.503  16.732 -0.41 +0.01    +0.064 A 
DOCKED: ATOM      3  C   UNL d   1      37.713  30.498  14.221 -0.26 +0.01    +0.064 C 
DOCKED: ATOM      4  C   UNL d   1      39.628  26.152  14.795 -0.47 +0.01    +0.064 C 
DOCKED: ATOM      5  C   UNL d   1      43.051  29.469  17.395 -0.28 +0.02    +0.066 A 
DOCKED: ATOM      6  C   UNL d   1      43.951  30.382  17.921 -0.31 -0.01    -0.021 A 
DOCKED: ATOM      7  C   UNL d   1      43.410  31.629  17.731 -0.29 -0.01    -0.025 A 
DOCKED: ATOM      8  C   UNL d   1      42.200  31.430  17.094 -0.36 +0.02    +0.066 A 
DOCKED: ATOM      9  C   UNL d   1      44.036  32.933  18.123 -0.14 +0.01    +0.051 C 
DOCKED: ATOM     10  C   UNL d   1      40.137  32.343  16.067 -0.39 +0.01    +0.066 A 
DOCKED: ATOM     11  C   UNL d   1      39.225  33.375  15.835 -0.41 -0.00    -0.021 A 
DOCKED: ATOM     12  C   UNL d   1      38.178  32.819  15.127 -0.39 +0.00    +0.000 A 
DOCKED: ATOM     13  C   UNL d   1      38.506  31.461  14.969 -0.34 +0.01    +0.070 A 
DOCKED: ATOM     14  C   UNL d   1      39.313  34.806  16.324 -0.50 +0.01    +0.052 C 
DOCKED: ATOM     15  C   UNL d   1      37.998  29.179  14.110 -0.34 +0.01    +0.066 A 
DOCKED: ATOM     16  C   UNL d   1      37.271  28.311  13.304 -0.44 -0.00    -0.021 A 
DOCKED: ATOM     17  C   UNL d   1      37.820  27.056  13.471 -0.45 +0.00    +0.000 A 
DOCKED: ATOM     18  C   UNL d   1      38.867  27.187  14.379 -0.35 +0.01    +0.070 A 
DOCKED: ATOM     19  C   UNL d   1      36.091  28.641  12.430 -0.62 +0.01    +0.052 C 
DOCKED: ATOM     20  C   UNL d   1      40.777  26.261  15.702 -0.38 +0.02    +0.066 A 
DOCKED: ATOM     21  C   UNL d   1      41.446  25.182  16.296 -0.42 -0.01    -0.025 A 
DOCKED: ATOM     22  C   UNL d   1      42.474  25.734  17.032 -0.35 -0.01    -0.021 A 
DOCKED: ATOM     23  C   UNL d   1      42.388  27.121  16.865 -0.31 +0.02    +0.066 A 
DOCKED: ATOM     24  C   UNL d   1      41.140  23.706  16.186 -0.48 +0.01    +0.051 C 
DOCKED: ATOM     25  N   UNL d   1      41.989  30.115  16.883 -0.16 -0.08    -0.248 N 
DOCKED: ATOM     26  N   UNL d   1      39.695  31.168  15.550 -0.17 -0.06    -0.248 N 
DOCKED: ATOM     27  N   UNL d   1      39.006  28.499  14.739 +0.00 -0.07    -0.248 N 
DOCKED: ATOM     28  N   UNL d   1      41.324  27.439  16.088 -0.24 -0.08    -0.248 N 
DOCKED: ATOM     29 FE   UNL d   1      40.509  29.302  15.819 -0.08 +0.00    +0.000 Fe
DOCKED: ENDROOT
DOCKED: BRANCH   6  30
DOCKED: ATOM     30  C   UNL d   1      45.267  30.088  18.555 -0.24 +0.02    +0.052 C 
DOCKED: BRANCH  30  31
DOCKED: ATOM     31  C   UNL d   1      45.134  30.022  20.072 -0.07 +0.09    +0.115 C 
DOCKED: BRANCH  31  32
DOCKED: ATOM     32  C   UNL d   1      45.676  28.718  20.591 -0.14 +0.17    +0.139 C 
DOCKED: ATOM     33  O   UNL d   1      45.077  27.671  20.392 -0.02 -0.63    -0.650 OA
DOCKED: BRANCH  32  34
DOCKED: ATOM     34  O   UNL d   1      46.828  28.694  21.282 -0.45 -1.24    -0.776 OA
DOCKED: ATOM     35  H   UNL d   1      47.661  28.585  20.802 +0.02 +0.16    +0.167 HD
DOCKED: ENDBRANCH  32  34
DOCKED: ENDBRANCH  31  32
DOCKED: ENDBRANCH  30  31
DOCKED: ENDBRANCH   6  30
DOCKED: BRANCH  22  36
DOCKED: ATOM     36  C   UNL d   1      43.452  24.971  17.887 -0.34 +0.02    +0.052 C 
DOCKED: BRANCH  36  37
DOCKED: ATOM     37  C   UNL d   1      44.872  25.251  17.417 -0.22 +0.06    +0.115 C 
DOCKED: BRANCH  37  38
DOCKED: ATOM     38  C   UNL d   1      45.774  24.084  17.702 -0.21 +0.12    +0.139 C 
DOCKED: ATOM     39  O   UNL d   1      45.700  23.060  17.039 -0.36 -0.85    -0.650 OA
DOCKED: BRANCH  38  40
DOCKED: ATOM     40  O   UNL d   1      46.672  24.159  18.700 +0.06 -0.57    -0.776 OA
DOCKED: ATOM     41  H   UNL d   1      46.651  24.921  19.296 +0.05 +0.10    +0.167 HD
DOCKED: ENDBRANCH  38  40
DOCKED: ENDBRANCH  37  38
DOCKED: ENDBRANCH  36  37
DOCKED: ENDBRANCH  22  36
DOCKED: BRANCH  12  42
DOCKED: ATOM     42  C   UNL d   1      36.963  33.562  14.670 -0.39 +0.00    +0.004 C 
DOCKED: ATOM     43  C   UNL d   1      36.730  33.766  13.367 -0.52 +0.00    +0.012 C 
DOCKED: ENDBRANCH  12  42
DOCKED: BRANCH  17  44
DOCKED: ATOM     44  C   UNL d   1      37.383  25.817  12.789 -0.54 +0.00    +0.004 C 
DOCKED: ATOM     45  C   UNL d   1      36.407  25.061  13.302 -0.66 +0.00    +0.012 C 
DOCKED: ENDBRANCH  17  44
DOCKED: TORSDOF 10
DOCKED: TER
DOCKED: ENDMDL
________________________________________________________________________________


	BEGINNING GENETIC ALGORITHM DOCKING 35 of 100
Run: 35 Seed: 1283137100 1661534626 [ Run 35 of 100 GA/GALS ]
Beginning LAMARCKIAN GENETIC ALGORITHM (LGA), with a maximum of 25000000 energy evaluations.

Final-Value: -17.030


	FINAL GENETIC ALGORITHM DOCKED STATE
	_______________________________________________


Detailed state:  trans 41.493 28.831 16.984 quatxyzw -0.135873 -0.930948 -0.071969 0.331203 center -0.174 -0.001 -0.047 ntor 10 -131.9013 -163.1731 40.2431 -113.4548 -179.6575 11.6964 -70.0954 50.8657 148.0695 85.6913
State:	 41.493  28.831  16.984  -0.144 -0.987 -0.076 141.316   -131.90 -163.17   40.24 -113.45 -179.66   11.70  -70.10   50.87  148.07   85.69

DOCKED: MODEL       35
DOCKED: USER    Run = 35
DOCKED: USER    DPF = D:/Protein_go_brrr/autodock/final/2DN3/heme_Fe/dock.dpf
DOCKED: USER  
DOCKED: USER    Estimated Free Energy of Binding    =  -13.21 kcal/mol  [=(1)+(2)+(3)-(4)]
DOCKED: USER    Estimated Inhibition Constant, Ki   =  206.13 pM (picomolar)  [Temperature = 298.15 K]
DOCKED: USER    
DOCKED: USER    (1) Final Intermolecular Energy     =  -16.20 kcal/mol
DOCKED: USER        vdW + Hbond + desolv Energy     =  -13.37 kcal/mol
DOCKED: USER        Electrostatic Energy            =   -2.82 kcal/mol
DOCKED: USER    (2) Final Total Internal Energy     =   -0.83 kcal/mol
DOCKED: USER    (3) Torsional Free Energy           =   +2.98 kcal/mol
DOCKED: USER    (4) Unbound System's Energy  [=(2)] =   -0.83 kcal/mol
DOCKED: USER    
DOCKED: USER    
DOCKED: USER    NEWDPF move heme_Fe_opt.pdbqt
DOCKED: USER    NEWDPF about -0.174000 -0.001000 -0.047000
DOCKED: USER    NEWDPF tran0 41.492777 28.831152 16.984049
DOCKED: USER    NEWDPF quaternion0 -0.135873 -0.930948 -0.071969 0.331203
DOCKED: USER    NEWDPF axisangle0 -0.144000 -0.986634 -0.076274 141.316356
DOCKED: USER    NEWDPF quat0 -0.144000 -0.986634 -0.076274 141.316356
DOCKED: USER    NEWDPF dihe0 -131.90 -163.17 40.24 -113.45 -179.66 11.70 -70.10 50.87 148.07 85.69 
DOCKED: USER  keepresnum = 1 
DOCKED: USER  
DOCKED: REMARK  10 active torsions:
DOCKED: REMARK  status: ('A' for Active; 'I' for Inactive)
DOCKED: REMARK    1  A    between atoms: C_6  and  C_10 
DOCKED: REMARK    2  A    between atoms: C_10  and  C_11 
DOCKED: REMARK    3  A    between atoms: C_11  and  C_12 
DOCKED: REMARK    4  A    between atoms: C_12  and  O_14 
DOCKED: REMARK    5  A    between atoms: C_17  and  C_20 
DOCKED: REMARK    6  A    between atoms: C_24  and  C_27 
DOCKED: REMARK    7  A    between atoms: C_31  and  C_34 
DOCKED: REMARK    8  A    between atoms: C_34  and  C_35 
DOCKED: REMARK    9  A    between atoms: C_35  and  C_36 
DOCKED: REMARK   10  A    between atoms: C_36  and  O_38 
DOCKED: USER                              x       y       z     vdW  Elec       q    Type
DOCKED: USER                           _______ _______ _______ _____ _____    ______ ____
DOCKED: ROOT
DOCKED: ATOM      1  C   UNL d   1      43.292  28.203  17.744 -0.17 +0.02    +0.064 C 
DOCKED: ATOM      2  C   UNL d   1      39.770  26.124  14.968 -0.38 +0.01    +0.064 A 
DOCKED: ATOM      3  C   UNL d   1      37.932  30.487  14.157 -0.40 +0.01    +0.064 C 
DOCKED: ATOM      4  C   UNL d   1      41.269  32.508  16.925 -0.48 +0.01    +0.064 C 
DOCKED: ATOM      5  C   UNL d   1      42.422  27.205  17.106 -0.26 +0.02    +0.066 A 
DOCKED: ATOM      6  C   UNL d   1      42.578  25.833  17.218 -0.34 -0.01    -0.021 A 
DOCKED: ATOM      7  C   UNL d   1      41.602  25.257  16.444 -0.38 -0.01    -0.025 A 
DOCKED: ATOM      8  C   UNL d   1      40.887  26.300  15.888 -0.36 +0.02    +0.066 A 
DOCKED: ATOM      9  C   UNL d   1      41.365  23.788  16.270 -0.52 +0.01    +0.051 C 
DOCKED: ATOM     10  C   UNL d   1      39.028  27.111  14.463 -0.35 +0.01    +0.066 A 
DOCKED: ATOM     11  C   UNL d   1      38.039  26.920  13.495 -0.43 -0.00    -0.021 A 
DOCKED: ATOM     12  C   UNL d   1      37.505  28.166  13.232 -0.46 +0.00    +0.000 A 
DOCKED: ATOM     13  C   UNL d   1      38.209  29.063  14.055 -0.30 +0.01    +0.070 A 
DOCKED: ATOM     14  C   UNL d   1      37.668  25.624  12.804 -0.46 +0.01    +0.052 C 
DOCKED: ATOM     15  C   UNL d   1      38.640  31.362  14.909 -0.35 +0.01    +0.066 A 
DOCKED: ATOM     16  C   UNL d   1      38.283  32.697  15.057 -0.38 -0.00    -0.021 A 
DOCKED: ATOM     17  C   UNL d   1      39.246  33.282  15.852 -0.42 +0.00    +0.000 A 
DOCKED: ATOM     18  C   UNL d   1      40.172  32.291  16.167 -0.38 +0.01    +0.070 A 
DOCKED: ATOM     19  C   UNL d   1      37.097  33.402  14.456 -0.39 +0.00    +0.052 C 
DOCKED: ATOM     20  C   UNL d   1      42.232  31.476  17.328 -0.37 +0.02    +0.066 A 
DOCKED: ATOM     21  C   UNL d   1      43.471  31.719  17.939 -0.31 -0.01    -0.025 A 
DOCKED: ATOM     22  C   UNL d   1      44.025  30.477  18.175 -0.30 -0.01    -0.021 A 
DOCKED: ATOM     23  C   UNL d   1      43.110  29.532  17.695 -0.25 +0.02    +0.066 A 
DOCKED: ATOM     24  C   UNL d   1      44.110  33.044  18.283 -0.24 +0.01    +0.051 C 
DOCKED: ATOM     25  N   UNL d   1      41.383  27.484  16.301 -0.26 -0.08    -0.248 N 
DOCKED: ATOM     26  N   UNL d   1      39.143  28.422  14.799 -0.02 -0.08    -0.248 N 
DOCKED: ATOM     27  N   UNL d   1      39.777  31.100  15.624 -0.15 -0.06    -0.248 N 
DOCKED: ATOM     28  N   UNL d   1      42.039  30.148  17.139 -0.23 -0.08    -0.248 N 
DOCKED: ATOM     29 FE   UNL d   1      40.592  29.287  15.970 -0.08 +0.00    +0.000 Fe
DOCKED: ENDROOT
DOCKED: BRANCH   6  30
DOCKED: ATOM     30  C   UNL d   1      43.588  25.104  18.036 -0.33 +0.02    +0.052 C 
DOCKED: BRANCH  30  31
DOCKED: ATOM     31  C   UNL d   1      44.425  24.177  17.161 -0.15 +0.07    +0.115 C 
DOCKED: BRANCH  31  32
DOCKED: ATOM     32  C   UNL d   1      45.832  24.694  17.042 -0.21 +0.12    +0.139 C 
DOCKED: ATOM     33  O   UNL d   1      46.662  24.093  16.375 -0.23 -1.09    -0.650 OA
DOCKED: BRANCH  32  34
DOCKED: ATOM     34  O   UNL d   1      46.190  25.827  17.670 +0.05 -0.47    -0.776 OA
DOCKED: ATOM     35  H   UNL d   1      45.957  25.940  18.603 +0.06 +0.10    +0.167 HD
DOCKED: ENDBRANCH  32  34
DOCKED: ENDBRANCH  31  32
DOCKED: ENDBRANCH  30  31
DOCKED: ENDBRANCH   6  30
DOCKED: BRANCH  22  36
DOCKED: ATOM     36  C   UNL d   1      45.378  30.219  18.782 -0.24 +0.02    +0.052 C 
DOCKED: BRANCH  36  37
DOCKED: ATOM     37  C   UNL d   1      45.651  28.723  18.810 -0.18 +0.06    +0.115 C 
DOCKED: BRANCH  37  38
DOCKED: ATOM     38  C   UNL d   1      46.101  28.282  20.175 -0.16 +0.13    +0.139 C 
DOCKED: ATOM     39  O   UNL d   1      46.007  29.031  21.136 -0.23 -1.15    -0.650 OA
DOCKED: BRANCH  38  40
DOCKED: ATOM     40  O   UNL d   1      46.617  27.052  20.347 +0.05 -0.63    -0.776 OA
DOCKED: ATOM     41  H   UNL d   1      46.917  26.556  19.573 +0.04 +0.10    +0.167 HD
DOCKED: ENDBRANCH  38  40
DOCKED: ENDBRANCH  37  38
DOCKED: ENDBRANCH  36  37
DOCKED: ENDBRANCH  22  36
DOCKED: BRANCH  12  42
DOCKED: ATOM     42  C   UNL d   1      36.416  28.439  12.244 -0.67 +0.00    +0.004 C 
DOCKED: ATOM     43  C   UNL d   1      35.127  28.365  12.601 -0.65 +0.00    +0.012 C 
DOCKED: ENDBRANCH  12  42
DOCKED: BRANCH  17  44
DOCKED: ATOM     44  C   UNL d   1      39.267  34.694  16.299 -0.55 +0.00    +0.004 C 
DOCKED: ATOM     45  C   UNL d   1      39.299  35.692  15.410 -0.56 +0.00    +0.012 C 
DOCKED: ENDBRANCH  17  44
DOCKED: TORSDOF 10
DOCKED: TER
DOCKED: ENDMDL
________________________________________________________________________________


	BEGINNING GENETIC ALGORITHM DOCKING 36 of 100
Run: 36 Seed: 2135899676 1759011210 [ Run 36 of 100 GA/GALS ]
Beginning LAMARCKIAN GENETIC ALGORITHM (LGA), with a maximum of 25000000 energy evaluations.

Final-Value: -10.998


	FINAL GENETIC ALGORITHM DOCKED STATE
	_______________________________________________


Detailed state:  trans 28.455 38.892 -0.671 quatxyzw 0.279051 -0.580103 -0.641050 -0.417930 center -0.174 -0.001 -0.047 ntor 10 157.2136 -26.7886 -102.9532 -150.7779 114.6450 112.6232 143.2071 26.9150 -160.7339 -1.8579
State:	 28.455  38.892  -0.671   0.307 -0.639 -0.706 -130.592    157.21  -26.79 -102.95 -150.78  114.65  112.62  143.21   26.92 -160.73   -1.86

DOCKED: MODEL       36
DOCKED: USER    Run = 36
DOCKED: USER    DPF = D:/Protein_go_brrr/autodock/final/2DN3/heme_Fe/dock.dpf
DOCKED: USER  
DOCKED: USER    Estimated Free Energy of Binding    =   -7.32 kcal/mol  [=(1)+(2)+(3)-(4)]
DOCKED: USER    Estimated Inhibition Constant, Ki   =    4.31 uM (micromolar)  [Temperature = 298.15 K]
DOCKED: USER    
DOCKED: USER    (1) Final Intermolecular Energy     =  -10.30 kcal/mol
DOCKED: USER        vdW + Hbond + desolv Energy     =   -8.45 kcal/mol
DOCKED: USER        Electrostatic Energy            =   -1.85 kcal/mol
DOCKED: USER    (2) Final Total Internal Energy     =   -0.70 kcal/mol
DOCKED: USER    (3) Torsional Free Energy           =   +2.98 kcal/mol
DOCKED: USER    (4) Unbound System's Energy  [=(2)] =   -0.70 kcal/mol
DOCKED: USER    
DOCKED: USER    
DOCKED: USER    NEWDPF move heme_Fe_opt.pdbqt
DOCKED: USER    NEWDPF about -0.174000 -0.001000 -0.047000
DOCKED: USER    NEWDPF tran0 28.455204 38.891672 -0.671037
DOCKED: USER    NEWDPF quaternion0 0.279051 -0.580103 -0.641050 -0.417930
DOCKED: USER    NEWDPF axisangle0 0.307162 -0.638543 -0.705630 -130.592001
DOCKED: USER    NEWDPF quat0 0.307162 -0.638543 -0.705630 -130.592001
DOCKED: USER    NEWDPF dihe0 157.21 -26.79 -102.95 -150.78 114.65 112.62 143.21 26.92 -160.73 -1.86 
DOCKED: USER  keepresnum = 1 
DOCKED: USER  
DOCKED: REMARK  10 active torsions:
DOCKED: REMARK  status: ('A' for Active; 'I' for Inactive)
DOCKED: REMARK    1  A    between atoms: C_6  and  C_10 
DOCKED: REMARK    2  A    between atoms: C_10  and  C_11 
DOCKED: REMARK    3  A    between atoms: C_11  and  C_12 
DOCKED: REMARK    4  A    between atoms: C_12  and  O_14 
DOCKED: REMARK    5  A    between atoms: C_17  and  C_20 
DOCKED: REMARK    6  A    between atoms: C_24  and  C_27 
DOCKED: REMARK    7  A    between atoms: C_31  and  C_34 
DOCKED: REMARK    8  A    between atoms: C_34  and  C_35 
DOCKED: REMARK    9  A    between atoms: C_35  and  C_36 
DOCKED: REMARK   10  A    between atoms: C_36  and  O_38 
DOCKED: USER                              x       y       z     vdW  Elec       q    Type
DOCKED: USER                           _______ _______ _______ _____ _____    ______ ____
DOCKED: ROOT
DOCKED: ATOM      1  C   UNL d   1      28.975  40.865  -0.889 -0.13 +0.01    +0.064 C 
DOCKED: ATOM      2  C   UNL d   1      26.626  37.552  -3.707 -0.21 +0.00    +0.064 A 
DOCKED: ATOM      3  C   UNL d   1      26.121  34.734   0.149 -0.31 +0.01    +0.064 C 
DOCKED: ATOM      4  C   UNL d   1      28.484  37.878   2.871 -0.25 -0.01    +0.064 C 
DOCKED: ATOM      5  C   UNL d   1      28.434  40.156  -2.058 -0.11 +0.01    +0.066 A 
DOCKED: ATOM      6  C   UNL d   1      28.504  40.615  -3.363 -0.10 -0.00    -0.021 A 
DOCKED: ATOM      7  C   UNL d   1      27.848  39.697  -4.144 -0.13 -0.00    -0.025 A 
DOCKED: ATOM      8  C   UNL d   1      27.403  38.711  -3.285 -0.17 +0.01    +0.066 A 
DOCKED: ATOM      9  C   UNL d   1      27.681  39.761  -5.631 -0.07 +0.01    +0.051 C 
DOCKED: ATOM     10  C   UNL d   1      26.233  36.558  -2.908 -0.20 +0.00    +0.066 A 
DOCKED: ATOM     11  C   UNL d   1      25.393  35.520  -3.318 -0.23 +0.00    -0.021 A 
DOCKED: ATOM     12  C   UNL d   1      25.218  34.703  -2.219 -0.29 -0.00    +0.000 A 
DOCKED: ATOM     13  C   UNL d   1      25.962  35.295  -1.184 -0.16 +0.00    +0.070 A 
DOCKED: ATOM     14  C   UNL d   1      24.733  35.353  -4.671 -0.20 -0.00    +0.052 C 
DOCKED: ATOM     15  C   UNL d   1      26.792  35.325   1.165 -0.25 +0.01    +0.066 A 
DOCKED: ATOM     16  C   UNL d   1      27.006  34.712   2.392 -0.30 -0.01    -0.021 A 
DOCKED: ATOM     17  C   UNL d   1      27.684  35.618   3.180 -0.26 +0.00    +0.000 A 
DOCKED: ATOM     18  C   UNL d   1      27.865  36.768   2.415 -0.21 +0.00    +0.070 A 
DOCKED: ATOM     19  C   UNL d   1      26.568  33.336   2.820 -0.36 +0.03    +0.052 C 
DOCKED: ATOM     20  C   UNL d   1      28.747  39.083   2.075 -0.18 -0.00    +0.066 A 
DOCKED: ATOM     21  C   UNL d   1      29.203  40.307   2.585 -0.22 +0.00    -0.025 A 
DOCKED: ATOM     22  C   UNL d   1      29.348  41.140   1.494 -0.15 -0.00    -0.021 A 
DOCKED: ATOM     23  C   UNL d   1      28.971  40.397   0.369 -0.12 +0.01    +0.066 A 
DOCKED: ATOM     24  C   UNL d   1      29.486  40.685   4.020 -0.39 -0.01    +0.051 C 
DOCKED: ATOM     25  N   UNL d   1      27.769  38.989  -2.018 +0.01 -0.03    -0.248 N 
DOCKED: ATOM     26  N   UNL d   1      26.573  36.430  -1.600 -0.07 -0.02    -0.248 N 
DOCKED: ATOM     27  N   UNL d   1      27.356  36.573   1.161 -0.11 -0.03    -0.248 N 
DOCKED: ATOM     28  N   UNL d   1      28.563  39.158   0.735 -0.09 -0.03    -0.248 N 
DOCKED: ATOM     29 FE   UNL d   1      27.568  37.794  -0.431 -0.06 +0.00    +0.000 Fe
DOCKED: ENDROOT
DOCKED: BRANCH   6  30
DOCKED: ATOM     30  C   UNL d   1      29.178  41.853  -3.849 -0.04 +0.01    +0.052 C 
DOCKED: BRANCH  30  31
DOCKED: ATOM     31  C   UNL d   1      28.403  43.094  -3.419 -0.06 +0.02    +0.115 C 
DOCKED: BRANCH  31  32
DOCKED: ATOM     32  C   UNL d   1      26.923  42.834  -3.468 -0.16 +0.03    +0.139 C 
DOCKED: ATOM     33  O   UNL d   1      26.256  42.834  -2.443 -0.04 -0.15    -0.650 OA
DOCKED: BRANCH  32  34
DOCKED: ATOM     34  O   UNL d   1      26.318  42.598  -4.645 +0.03 -0.13    -0.776 OA
DOCKED: ATOM     35  H   UNL d   1      26.736  42.913  -5.459 +0.03 +0.02    +0.167 HD
DOCKED: ENDBRANCH  32  34
DOCKED: ENDBRANCH  31  32
DOCKED: ENDBRANCH  30  31
DOCKED: ENDBRANCH   6  30
DOCKED: BRANCH  22  36
DOCKED: ATOM     36  C   UNL d   1      29.778  42.582   1.540 -0.18 +0.02    +0.052 C 
DOCKED: BRANCH  36  37
DOCKED: ATOM     37  C   UNL d   1      31.277  42.679   1.297 -0.14 +0.08    +0.115 C 
DOCKED: BRANCH  37  38
DOCKED: ATOM     38  C   UNL d   1      31.846  43.917   1.930 -0.04 +0.18    +0.139 C 
DOCKED: ATOM     39  O   UNL d   1      32.614  43.838   2.878 -0.38 -0.97    -0.650 OA
DOCKED: BRANCH  38  40
DOCKED: ATOM     40  O   UNL d   1      31.509  45.130   1.456 -0.30 -1.07    -0.776 OA
DOCKED: ATOM     41  H   UNL d   1      31.531  45.891   2.053 -0.32 +0.16    +0.167 HD
DOCKED: ENDBRANCH  38  40
DOCKED: ENDBRANCH  37  38
DOCKED: ENDBRANCH  36  37
DOCKED: ENDBRANCH  22  36
DOCKED: BRANCH  12  42
DOCKED: ATOM     42  C   UNL d   1      24.378  33.465  -2.198 -0.35 -0.00    +0.004 C 
DOCKED: ATOM     43  C   UNL d   1      23.088  33.502  -2.558 -0.49 -0.00    +0.012 C 
DOCKED: ENDBRANCH  12  42
DOCKED: BRANCH  17  44
DOCKED: ATOM     44  C   UNL d   1      28.147  35.392   4.568 -0.31 +0.00    +0.004 C 
DOCKED: ATOM     45  C   UNL d   1      27.422  35.815   5.609 -0.37 -0.01    +0.012 C 
DOCKED: ENDBRANCH  17  44
DOCKED: TORSDOF 10
DOCKED: TER
DOCKED: ENDMDL
________________________________________________________________________________


	BEGINNING GENETIC ALGORITHM DOCKING 37 of 100
Run: 37 Seed: 548858277 1150777531 [ Run 37 of 100 GA/GALS ]
Beginning LAMARCKIAN GENETIC ALGORITHM (LGA), with a maximum of 25000000 energy evaluations.

Final-Value: -14.744


	FINAL GENETIC ALGORITHM DOCKED STATE
	_______________________________________________


Detailed state:  trans 10.326 35.631 -0.607 quatxyzw -0.525555 0.745794 -0.370453 0.174205 center -0.174 -0.001 -0.047 ntor 10 180.0000 169.9961 91.5370 -166.4756 139.4642 54.7517 43.7728 98.5966 157.0989 12.8346
State:	 10.326  35.631  -0.607  -0.534  0.757 -0.376 159.935    180.00  170.00   91.54 -166.48  139.46   54.75   43.77   98.60  157.10   12.83

DOCKED: MODEL       37
DOCKED: USER    Run = 37
DOCKED: USER    DPF = D:/Protein_go_brrr/autodock/final/2DN3/heme_Fe/dock.dpf
DOCKED: USER  
DOCKED: USER    Estimated Free Energy of Binding    =  -11.09 kcal/mol  [=(1)+(2)+(3)-(4)]
DOCKED: USER    Estimated Inhibition Constant, Ki   =    7.42 nM (nanomolar)  [Temperature = 298.15 K]
DOCKED: USER    
DOCKED: USER    (1) Final Intermolecular Energy     =  -14.07 kcal/mol
DOCKED: USER        vdW + Hbond + desolv Energy     =  -13.83 kcal/mol
DOCKED: USER        Electrostatic Energy            =   -0.24 kcal/mol
DOCKED: USER    (2) Final Total Internal Energy     =   -0.67 kcal/mol
DOCKED: USER    (3) Torsional Free Energy           =   +2.98 kcal/mol
DOCKED: USER    (4) Unbound System's Energy  [=(2)] =   -0.67 kcal/mol
DOCKED: USER    
DOCKED: USER    
DOCKED: USER    NEWDPF move heme_Fe_opt.pdbqt
DOCKED: USER    NEWDPF about -0.174000 -0.001000 -0.047000
DOCKED: USER    NEWDPF tran0 10.326019 35.631487 -0.607409
DOCKED: USER    NEWDPF quaternion0 -0.525555 0.745794 -0.370453 0.174205
DOCKED: USER    NEWDPF axisangle0 -0.533716 0.757375 -0.376206 159.935185
DOCKED: USER    NEWDPF quat0 -0.533716 0.757375 -0.376206 159.935185
DOCKED: USER    NEWDPF dihe0 180.00 170.00 91.54 -166.48 139.46 54.75 43.77 98.60 157.10 12.83 
DOCKED: USER  keepresnum = 1 
DOCKED: USER  
DOCKED: REMARK  10 active torsions:
DOCKED: REMARK  status: ('A' for Active; 'I' for Inactive)
DOCKED: REMARK    1  A    between atoms: C_6  and  C_10 
DOCKED: REMARK    2  A    between atoms: C_10  and  C_11 
DOCKED: REMARK    3  A    between atoms: C_11  and  C_12 
DOCKED: REMARK    4  A    between atoms: C_12  and  O_14 
DOCKED: REMARK    5  A    between atoms: C_17  and  C_20 
DOCKED: REMARK    6  A    between atoms: C_24  and  C_27 
DOCKED: REMARK    7  A    between atoms: C_31  and  C_34 
DOCKED: REMARK    8  A    between atoms: C_34  and  C_35 
DOCKED: REMARK    9  A    between atoms: C_35  and  C_36 
DOCKED: REMARK   10  A    between atoms: C_36  and  O_38 
DOCKED: USER                              x       y       z     vdW  Elec       q    Type
DOCKED: USER                           _______ _______ _______ _____ _____    ______ ____
DOCKED: ROOT
DOCKED: ATOM      1  C   UNL d   1      11.215  36.527  -2.225 -0.41 +0.00    +0.064 C 
DOCKED: ATOM      2  C   UNL d   1      12.813  33.703   1.503 -0.29 +0.00    +0.064 A 
DOCKED: ATOM      3  C   UNL d   1       8.259  32.514   2.462 -0.48 +0.00    +0.064 C 
DOCKED: ATOM      4  C   UNL d   1       6.684  35.324  -1.074 -0.29 +0.01    +0.064 C 
DOCKED: ATOM      5  C   UNL d   1      12.081  35.908  -1.212 -0.35 +0.01    +0.066 A 
DOCKED: ATOM      6  C   UNL d   1      13.446  36.117  -1.105 -0.41 -0.00    -0.021 A 
DOCKED: ATOM      7  C   UNL d   1      13.890  35.329  -0.072 -0.40 -0.00    -0.025 A 
DOCKED: ATOM      8  C   UNL d   1      12.777  34.670   0.413 -0.34 +0.01    +0.066 A 
DOCKED: ATOM      9  C   UNL d   1      15.300  35.237   0.426 -0.54 +0.01    +0.051 C 
DOCKED: ATOM     10  C   UNL d   1      11.746  33.096   2.027 -0.36 +0.00    +0.066 A 
DOCKED: ATOM     11  C   UNL d   1      11.824  32.090   2.993 -0.40 -0.00    -0.021 A 
DOCKED: ATOM     12  C   UNL d   1      10.525  31.718   3.274 -0.47 +0.00    +0.000 A 
DOCKED: ATOM     13  C   UNL d   1       9.714  32.519   2.451 -0.39 +0.00    +0.070 A 
DOCKED: ATOM     14  C   UNL d   1      13.078  31.464   3.570 -0.57 +0.00    +0.052 C 
DOCKED: ATOM     15  C   UNL d   1       7.475  33.245   1.636 -0.38 +0.01    +0.066 A 
DOCKED: ATOM     16  C   UNL d   1       6.091  33.288   1.744 -0.40 -0.00    -0.021 A 
DOCKED: ATOM     17  C   UNL d   1       5.634  34.095   0.723 -0.35 +0.00    +0.000 A 
DOCKED: ATOM     18  C   UNL d   1       6.753  34.523   0.011 -0.32 +0.01    +0.070 A 
DOCKED: ATOM     19  C   UNL d   1       5.227  32.579   2.752 -0.44 +0.00    +0.052 C 
DOCKED: ATOM     20  C   UNL d   1       7.842  35.844  -1.811 +0.04 +0.02    +0.066 A 
DOCKED: ATOM     21  C   UNL d   1       7.786  36.505  -3.047 -0.31 -0.00    -0.025 A 
DOCKED: ATOM     22  C   UNL d   1       9.087  36.850  -3.349 -0.35 -0.00    -0.021 A 
DOCKED: ATOM     23  C   UNL d   1       9.882  36.383  -2.296 -0.37 +0.01    +0.066 A 
DOCKED: ATOM     24  C   UNL d   1       6.578  36.797  -3.906 -0.26 +0.01    +0.051 C 
DOCKED: ATOM     25  N   UNL d   1      11.677  35.031  -0.277 -0.09 -0.04    -0.248 N 
DOCKED: ATOM     26  N   UNL d   1      10.458  33.353   1.684 -0.23 -0.02    -0.248 N 
DOCKED: ATOM     27  N   UNL d   1       7.888  34.037   0.598 -0.15 -0.04    -0.248 N 
DOCKED: ATOM     28  N   UNL d   1       9.123  35.731  -1.382 -0.11 -0.07    -0.248 N 
DOCKED: ATOM     29 FE   UNL d   1       9.789  34.542   0.150 -0.07 +0.00    +0.000 Fe
DOCKED: ENDROOT
DOCKED: BRANCH   6  30
DOCKED: ATOM     30  C   UNL d   1      14.286  37.034  -1.927 -0.53 +0.00    +0.052 C 
DOCKED: BRANCH  30  31
DOCKED: ATOM     31  C   UNL d   1      15.269  36.243  -2.784 -0.32 +0.01    +0.115 C 
DOCKED: BRANCH  31  32
DOCKED: ATOM     32  C   UNL d   1      16.630  36.879  -2.745 -0.38 +0.02    +0.139 C 
DOCKED: ATOM     33  O   UNL d   1      17.638  36.190  -2.673 +0.04 -0.11    -0.650 OA
DOCKED: BRANCH  32  34
DOCKED: ATOM     34  O   UNL d   1      16.752  38.217  -2.789 +0.37 -0.14    -0.776 OA
DOCKED: ATOM     35  H   UNL d   1      15.953  38.759  -2.846 -0.26 -0.00    +0.167 HD
DOCKED: ENDBRANCH  32  34
DOCKED: ENDBRANCH  31  32
DOCKED: ENDBRANCH  30  31
DOCKED: ENDBRANCH   6  30
DOCKED: BRANCH  22  36
DOCKED: ATOM     36  C   UNL d   1       9.543  37.546  -4.605 -0.33 -0.00    +0.052 C 
DOCKED: BRANCH  36  37
DOCKED: ATOM     37  C   UNL d   1       9.984  38.964  -4.275 -0.33 -0.02    +0.115 C 
DOCKED: BRANCH  37  38
DOCKED: ATOM     38  C   UNL d   1       8.803  39.890  -4.194 -0.33 -0.02    +0.139 C 
DOCKED: ATOM     39  O   UNL d   1       7.863  39.642  -3.453 -0.06 -0.01    -0.650 OA
DOCKED: BRANCH  38  40
DOCKED: ATOM     40  O   UNL d   1       8.772  41.005  -4.946 +0.08 +0.22    -0.776 OA
DOCKED: ATOM     41  H   UNL d   1       9.572  41.276  -5.418 -0.48 -0.13    +0.167 HD
DOCKED: ENDBRANCH  38  40
DOCKED: ENDBRANCH  37  38
DOCKED: ENDBRANCH  36  37
DOCKED: ENDBRANCH  22  36
DOCKED: BRANCH  12  42
DOCKED: ATOM     42  C   UNL d   1      10.131  30.657   4.252 -0.65 +0.00    +0.004 C 
DOCKED: ATOM     43  C   UNL d   1       9.080  30.825   5.065 -0.61 -0.00    +0.012 C 
DOCKED: ENDBRANCH  12  42
DOCKED: BRANCH  17  44
DOCKED: ATOM     44  C   UNL d   1       4.222  34.450   0.458 -0.32 +0.00    +0.004 C 
DOCKED: ATOM     45  C   UNL d   1       3.599  34.009  -0.640 -0.21 +0.00    +0.012 C 
DOCKED: ENDBRANCH  17  44
DOCKED: TORSDOF 10
DOCKED: TER
DOCKED: ENDMDL
________________________________________________________________________________


	BEGINNING GENETIC ALGORITHM DOCKING 38 of 100
Run: 38 Seed: 1283640623 1097310512 [ Run 38 of 100 GA/GALS ]
Beginning LAMARCKIAN GENETIC ALGORITHM (LGA), with a maximum of 25000000 energy evaluations.

Final-Value: -14.513


	FINAL GENETIC ALGORITHM DOCKED STATE
	_______________________________________________


Detailed state:  trans 8.607 34.693 -0.857 quatxyzw -0.413848 -0.197774 -0.264634 -0.848283 center -0.174 -0.001 -0.047 ntor 10 78.0978 -70.6826 67.8381 180.0000 -42.7447 96.0016 -13.1849 15.2249 -168.4494 -149.3615
State:	  8.607  34.693  -0.857  -0.782 -0.373 -0.500 -63.949     78.10  -70.68   67.84  180.00  -42.74   96.00  -13.18   15.22 -168.45 -149.36

DOCKED: MODEL       38
DOCKED: USER    Run = 38
DOCKED: USER    DPF = D:/Protein_go_brrr/autodock/final/2DN3/heme_Fe/dock.dpf
DOCKED: USER  
DOCKED: USER    Estimated Free Energy of Binding    =  -11.19 kcal/mol  [=(1)+(2)+(3)-(4)]
DOCKED: USER    Estimated Inhibition Constant, Ki   =    6.28 nM (nanomolar)  [Temperature = 298.15 K]
DOCKED: USER    
DOCKED: USER    (1) Final Intermolecular Energy     =  -14.17 kcal/mol
DOCKED: USER        vdW + Hbond + desolv Energy     =  -12.72 kcal/mol
DOCKED: USER        Electrostatic Energy            =   -1.46 kcal/mol
DOCKED: USER    (2) Final Total Internal Energy     =   -0.34 kcal/mol
DOCKED: USER    (3) Torsional Free Energy           =   +2.98 kcal/mol
DOCKED: USER    (4) Unbound System's Energy  [=(2)] =   -0.34 kcal/mol
DOCKED: USER    
DOCKED: USER    
DOCKED: USER    NEWDPF move heme_Fe_opt.pdbqt
DOCKED: USER    NEWDPF about -0.174000 -0.001000 -0.047000
DOCKED: USER    NEWDPF tran0 8.606889 34.692746 -0.856703
DOCKED: USER    NEWDPF quaternion0 -0.413848 -0.197774 -0.264634 -0.848283
DOCKED: USER    NEWDPF axisangle0 -0.781518 -0.373481 -0.499741 -63.949177
DOCKED: USER    NEWDPF quat0 -0.781518 -0.373481 -0.499741 -63.949177
DOCKED: USER    NEWDPF dihe0 78.10 -70.68 67.84 180.00 -42.74 96.00 -13.18 15.22 -168.45 -149.36 
DOCKED: USER  keepresnum = 1 
DOCKED: USER  
DOCKED: REMARK  10 active torsions:
DOCKED: REMARK  status: ('A' for Active; 'I' for Inactive)
DOCKED: REMARK    1  A    between atoms: C_6  and  C_10 
DOCKED: REMARK    2  A    between atoms: C_10  and  C_11 
DOCKED: REMARK    3  A    between atoms: C_11  and  C_12 
DOCKED: REMARK    4  A    between atoms: C_12  and  O_14 
DOCKED: REMARK    5  A    between atoms: C_17  and  C_20 
DOCKED: REMARK    6  A    between atoms: C_24  and  C_27 
DOCKED: REMARK    7  A    between atoms: C_31  and  C_34 
DOCKED: REMARK    8  A    between atoms: C_34  and  C_35 
DOCKED: REMARK    9  A    between atoms: C_35  and  C_36 
DOCKED: REMARK   10  A    between atoms: C_36  and  O_38 
DOCKED: USER                              x       y       z     vdW  Elec       q    Type
DOCKED: USER                           _______ _______ _______ _____ _____    ______ ____
DOCKED: ROOT
DOCKED: ATOM      1  C   UNL d   1       6.960  35.657  -1.612 -0.04 +0.01    +0.064 C 
DOCKED: ATOM      2  C   UNL d   1       7.800  32.738   2.288 -0.41 +0.00    +0.064 A 
DOCKED: ATOM      3  C   UNL d   1      12.518  33.412   1.688 -0.33 +0.00    +0.064 C 
DOCKED: ATOM      4  C   UNL d   1      11.731  36.154  -2.152 -0.45 +0.00    +0.064 C 
DOCKED: ATOM      5  C   UNL d   1       6.762  34.705  -0.510 -0.31 +0.01    +0.066 A 
DOCKED: ATOM      6  C   UNL d   1       5.537  34.189  -0.121 -0.30 -0.00    -0.021 A 
DOCKED: ATOM      7  C   UNL d   1       5.771  33.382   0.965 -0.29 -0.00    -0.025 A 
DOCKED: ATOM      8  C   UNL d   1       7.132  33.436   1.197 -0.34 +0.01    +0.066 A 
DOCKED: ATOM      9  C   UNL d   1       4.742  32.594   1.716 -0.21 +0.00    +0.051 C 
DOCKED: ATOM     10  C   UNL d   1       9.118  32.727   2.499 -0.39 +0.00    +0.066 A 
DOCKED: ATOM     11  C   UNL d   1       9.718  32.144   3.618 -0.44 -0.00    -0.021 A 
DOCKED: ATOM     12  C   UNL d   1      11.078  32.340   3.477 -0.43 +0.00    +0.000 A 
DOCKED: ATOM     13  C   UNL d   1      11.237  33.046   2.272 -0.35 +0.00    +0.070 A 
DOCKED: ATOM     14  C   UNL d   1       9.026  31.493   4.798 -0.55 -0.00    +0.052 C 
DOCKED: ATOM     15  C   UNL d   1      12.675  34.136   0.555 -0.35 +0.01    +0.066 A 
DOCKED: ATOM     16  C   UNL d   1      13.914  34.380  -0.024 -0.45 -0.00    -0.021 A 
DOCKED: ATOM     17  C   UNL d   1      13.690  35.174  -1.129 -0.43 +0.00    +0.000 A 
DOCKED: ATOM     18  C   UNL d   1      12.317  35.400  -1.197 -0.32 +0.01    +0.070 A 
DOCKED: ATOM     19  C   UNL d   1      15.260  33.908   0.456 -0.55 +0.00    +0.052 C 
DOCKED: ATOM     20  C   UNL d   1      10.285  36.363  -2.290 -0.37 +0.01    +0.066 A 
DOCKED: ATOM     21  C   UNL d   1       9.680  37.296  -3.145 -0.38 -0.00    -0.025 A 
DOCKED: ATOM     22  C   UNL d   1       8.320  37.128  -2.984 -0.33 -0.00    -0.021 A 
DOCKED: ATOM     23  C   UNL d   1       8.150  36.110  -2.038 -0.21 +0.01    +0.066 A 
DOCKED: ATOM     24  C   UNL d   1      10.337  38.299  -4.064 -0.46 -0.00    +0.051 C 
DOCKED: ATOM     25  N   UNL d   1       7.733  34.234   0.292 -0.12 -0.04    -0.248 N 
DOCKED: ATOM     26  N   UNL d   1      10.042  33.290   1.680 -0.23 -0.02    -0.248 N 
DOCKED: ATOM     27  N   UNL d   1      11.688  34.726  -0.187 -0.07 -0.04    -0.248 N 
DOCKED: ATOM     28  N   UNL d   1       9.352  35.678  -1.586 -0.08 -0.06    -0.248 N 
DOCKED: ATOM     29 FE   UNL d   1       9.698  34.485   0.046 -0.07 +0.00    +0.000 Fe
DOCKED: ENDROOT
DOCKED: BRANCH   6  30
DOCKED: ATOM     30  C   UNL d   1       4.212  34.433  -0.759 -0.23 +0.01    +0.052 C 
DOCKED: BRANCH  30  31
DOCKED: ATOM     31  C   UNL d   1       3.648  35.785  -0.335 -0.18 +0.06    +0.115 C 
DOCKED: BRANCH  31  32
DOCKED: ATOM     32  C   UNL d   1       2.488  36.169  -1.210 -0.15 +0.10    +0.139 C 
DOCKED: ATOM     33  O   UNL d   1       2.538  36.000  -2.421 +0.01 -0.31    -0.650 OA
DOCKED: BRANCH  32  34
DOCKED: ATOM     34  O   UNL d   1       1.381  36.704  -0.668 -0.25 -1.22    -0.776 OA
DOCKED: ATOM     35  H   UNL d   1       0.602  36.144  -0.544 +0.01 +0.18    +0.167 HD
DOCKED: ENDBRANCH  32  34
DOCKED: ENDBRANCH  31  32
DOCKED: ENDBRANCH  30  31
DOCKED: ENDBRANCH   6  30
DOCKED: BRANCH  22  36
DOCKED: ATOM     36  C   UNL d   1       7.247  37.936  -3.666 -0.28 +0.00    +0.052 C 
DOCKED: BRANCH  36  37
DOCKED: ATOM     37  C   UNL d   1       7.508  39.420  -3.452 -0.32 +0.01    +0.115 C 
DOCKED: BRANCH  37  38
DOCKED: ATOM     38  C   UNL d   1       6.298  40.236  -3.806 -0.24 +0.02    +0.139 C 
DOCKED: ATOM     39  O   UNL d   1       5.505  40.585  -2.944 -0.02 -0.16    -0.650 OA
DOCKED: BRANCH  38  40
DOCKED: ATOM     40  O   UNL d   1       6.076  40.587  -5.086 +0.10 -0.09    -0.776 OA
DOCKED: ATOM     41  H   UNL d   1       5.348  40.171  -5.568 +0.04 +0.02    +0.167 HD
DOCKED: ENDBRANCH  38  40
DOCKED: ENDBRANCH  37  38
DOCKED: ENDBRANCH  36  37
DOCKED: ENDBRANCH  22  36
DOCKED: BRANCH  12  42
DOCKED: ATOM     42  C   UNL d   1      12.113  31.886   4.456 -0.39 +0.00    +0.004 C 
DOCKED: ATOM     43  C   UNL d   1      13.026  30.966   4.117 -0.66 +0.00    +0.012 C 
DOCKED: ENDBRANCH  12  42
DOCKED: BRANCH  17  44
DOCKED: ATOM     44  C   UNL d   1      14.720  35.667  -2.072 -0.30 +0.00    +0.004 C 
DOCKED: ATOM     45  C   UNL d   1      14.830  36.971  -2.345 -0.58 +0.00    +0.012 C 
DOCKED: ENDBRANCH  17  44
DOCKED: TORSDOF 10
DOCKED: TER
DOCKED: ENDMDL
________________________________________________________________________________


	BEGINNING GENETIC ALGORITHM DOCKING 39 of 100
Run: 39 Seed: 1835708008 910671675 [ Run 39 of 100 GA/GALS ]
Beginning LAMARCKIAN GENETIC ALGORITHM (LGA), with a maximum of 25000000 energy evaluations.

Final-Value: -10.635


	FINAL GENETIC ALGORITHM DOCKED STATE
	_______________________________________________


Detailed state:  trans 28.678 38.990 -0.234 quatxyzw 0.307944 -0.579641 -0.644112 -0.392817 center -0.174 -0.001 -0.047 ntor 10 -140.7349 31.0373 -117.6656 -137.4070 -142.7351 -122.5216 -65.0265 74.9452 -147.2225 10.1906
State:	 28.678  38.990  -0.234   0.335 -0.630 -0.700 -133.740   -140.73   31.04 -117.67 -137.41 -142.74 -122.52  -65.03   74.95 -147.22   10.19

DOCKED: MODEL       39
DOCKED: USER    Run = 39
DOCKED: USER    DPF = D:/Protein_go_brrr/autodock/final/2DN3/heme_Fe/dock.dpf
DOCKED: USER  
DOCKED: USER    Estimated Free Energy of Binding    =   -6.99 kcal/mol  [=(1)+(2)+(3)-(4)]
DOCKED: USER    Estimated Inhibition Constant, Ki   =    7.58 uM (micromolar)  [Temperature = 298.15 K]
DOCKED: USER    
DOCKED: USER    (1) Final Intermolecular Energy     =   -9.97 kcal/mol
DOCKED: USER        vdW + Hbond + desolv Energy     =   -8.30 kcal/mol
DOCKED: USER        Electrostatic Energy            =   -1.67 kcal/mol
DOCKED: USER    (2) Final Total Internal Energy     =   -0.67 kcal/mol
DOCKED: USER    (3) Torsional Free Energy           =   +2.98 kcal/mol
DOCKED: USER    (4) Unbound System's Energy  [=(2)] =   -0.67 kcal/mol
DOCKED: USER    
DOCKED: USER    
DOCKED: USER    NEWDPF move heme_Fe_opt.pdbqt
DOCKED: USER    NEWDPF about -0.174000 -0.001000 -0.047000
DOCKED: USER    NEWDPF tran0 28.678291 38.990231 -0.234333
DOCKED: USER    NEWDPF quaternion0 0.307944 -0.579641 -0.644112 -0.392817
DOCKED: USER    NEWDPF axisangle0 0.334862 -0.630308 -0.700414 -133.740197
DOCKED: USER    NEWDPF quat0 0.334862 -0.630308 -0.700414 -133.740197
DOCKED: USER    NEWDPF dihe0 -140.73 31.04 -117.67 -137.41 -142.74 -122.52 -65.03 74.95 -147.22 10.19 
DOCKED: USER  keepresnum = 1 
DOCKED: USER  
DOCKED: REMARK  10 active torsions:
DOCKED: REMARK  status: ('A' for Active; 'I' for Inactive)
DOCKED: REMARK    1  A    between atoms: C_6  and  C_10 
DOCKED: REMARK    2  A    between atoms: C_10  and  C_11 
DOCKED: REMARK    3  A    between atoms: C_11  and  C_12 
DOCKED: REMARK    4  A    between atoms: C_12  and  O_14 
DOCKED: REMARK    5  A    between atoms: C_17  and  C_20 
DOCKED: REMARK    6  A    between atoms: C_24  and  C_27 
DOCKED: REMARK    7  A    between atoms: C_31  and  C_34 
DOCKED: REMARK    8  A    between atoms: C_34  and  C_35 
DOCKED: REMARK    9  A    between atoms: C_35  and  C_36 
DOCKED: REMARK   10  A    between atoms: C_36  and  O_38 
DOCKED: USER                              x       y       z     vdW  Elec       q    Type
DOCKED: USER                           _______ _______ _______ _____ _____    ______ ____
DOCKED: ROOT
DOCKED: ATOM      1  C   UNL d   1      29.210  40.970  -0.335 -0.12 +0.01    +0.064 C 
DOCKED: ATOM      2  C   UNL d   1      27.048  37.784  -3.435 -0.19 +0.01    +0.064 A 
DOCKED: ATOM      3  C   UNL d   1      26.297  34.807   0.258 -0.29 +0.01    +0.064 C 
DOCKED: ATOM      4  C   UNL d   1      28.480  37.828   3.256 -0.27 -0.01    +0.064 C 
DOCKED: ATOM      5  C   UNL d   1      28.746  40.312  -1.565 -0.12 +0.01    +0.066 A 
DOCKED: ATOM      6  C   UNL d   1      28.899  40.826  -2.842 -0.09 -0.00    -0.021 A 
DOCKED: ATOM      7  C   UNL d   1      28.295  39.943  -3.702 -0.11 -0.00    -0.025 A 
DOCKED: ATOM      8  C   UNL d   1      27.796  38.923  -2.916 -0.15 +0.01    +0.066 A 
DOCKED: ATOM      9  C   UNL d   1      28.223  40.071  -5.193 -0.06 +0.01    +0.051 C 
DOCKED: ATOM     10  C   UNL d   1      26.605  36.759  -2.706 -0.20 +0.00    +0.066 A 
DOCKED: ATOM     11  C   UNL d   1      25.793  35.741  -3.212 -0.22 +0.00    -0.021 A 
DOCKED: ATOM     12  C   UNL d   1      25.549  34.878  -2.163 -0.25 -0.00    +0.000 A 
DOCKED: ATOM     13  C   UNL d   1      26.224  35.424  -1.057 -0.16 +0.01    +0.070 A 
DOCKED: ATOM     14  C   UNL d   1      25.221  35.632  -4.611 -0.18 -0.00    +0.052 C 
DOCKED: ATOM     15  C   UNL d   1      26.902  35.353   1.339 -0.25 +0.01    +0.066 A 
DOCKED: ATOM     16  C   UNL d   1      27.037  34.688   2.550 -0.30 -0.01    -0.021 A 
DOCKED: ATOM     17  C   UNL d   1      27.663  35.559   3.418 -0.27 +0.00    +0.000 A 
DOCKED: ATOM     18  C   UNL d   1      27.893  36.739   2.715 -0.22 +0.00    +0.070 A 
DOCKED: ATOM     19  C   UNL d   1      26.573  33.297   2.890 -0.36 +0.03    +0.052 C 
DOCKED: ATOM     20  C   UNL d   1      28.794  39.065   2.530 -0.20 -0.01    +0.066 A 
DOCKED: ATOM     21  C   UNL d   1      29.215  40.265   3.119 -0.27 +0.00    -0.025 A 
DOCKED: ATOM     22  C   UNL d   1      29.430  41.143   2.077 -0.18 -0.00    -0.021 A 
DOCKED: ATOM     23  C   UNL d   1      29.126  40.449   0.899 -0.12 +0.01    +0.066 A 
DOCKED: ATOM     24  C   UNL d   1      29.406  40.581   4.585 -0.29 -0.02    +0.051 C 
DOCKED: ATOM     25  N   UNL d   1      28.080  39.146  -1.617 -0.08 -0.04    -0.248 N 
DOCKED: ATOM     26  N   UNL d   1      26.861  36.575  -1.385 -0.05 -0.03    -0.248 N 
DOCKED: ATOM     27  N   UNL d   1      27.465  36.599   1.424 -0.13 -0.03    -0.248 N 
DOCKED: ATOM     28  N   UNL d   1      28.695  39.196   1.185 -0.09 -0.02    -0.248 N 
DOCKED: ATOM     29 FE   UNL d   1      27.778  37.885  -0.098 -0.05 +0.00    +0.000 Fe
DOCKED: ENDROOT
DOCKED: BRANCH   6  30
DOCKED: ATOM     30  C   UNL d   1      29.602  42.082  -3.231 -0.03 +0.01    +0.052 C 
DOCKED: BRANCH  30  31
DOCKED: ATOM     31  C   UNL d   1      28.989  43.285  -2.523 -0.04 +0.03    +0.115 C 
DOCKED: BRANCH  31  32
DOCKED: ATOM     32  C   UNL d   1      29.984  43.903  -1.580 -0.03 +0.05    +0.139 C 
DOCKED: ATOM     33  O   UNL d   1      29.623  44.357  -0.503 +0.04 -0.31    -0.650 OA
DOCKED: BRANCH  32  34
DOCKED: ATOM     34  O   UNL d   1      31.284  43.961  -1.914 +0.04 -0.40    -0.776 OA
DOCKED: ATOM     35  H   UNL d   1      31.525  44.164  -2.828 +0.01 +0.07    +0.167 HD
DOCKED: ENDBRANCH  32  34
DOCKED: ENDBRANCH  31  32
DOCKED: ENDBRANCH  30  31
DOCKED: ENDBRANCH   6  30
DOCKED: BRANCH  22  36
DOCKED: ATOM     36  C   UNL d   1      29.855  42.581   2.211 -0.22 +0.02    +0.052 C 
DOCKED: BRANCH  36  37
DOCKED: ATOM     37  C   UNL d   1      31.306  42.729   1.778 -0.19 +0.08    +0.115 C 
DOCKED: BRANCH  37  38
DOCKED: ATOM     38  C   UNL d   1      32.206  42.921   2.966 -0.33 +0.11    +0.139 C 
DOCKED: ATOM     39  O   UNL d   1      32.921  43.908   3.056 -0.47 -1.06    -0.650 OA
DOCKED: BRANCH  38  40
DOCKED: ATOM     40  O   UNL d   1      32.233  41.998   3.944 +0.03 -0.23    -0.776 OA
DOCKED: ATOM     41  H   UNL d   1      32.418  42.279   4.850 -0.32 +0.01    +0.167 HD
DOCKED: ENDBRANCH  38  40
DOCKED: ENDBRANCH  37  38
DOCKED: ENDBRANCH  36  37
DOCKED: ENDBRANCH  22  36
DOCKED: BRANCH  12  42
DOCKED: ATOM     42  C   UNL d   1      24.709  33.643  -2.248 -0.34 -0.00    +0.004 C 
DOCKED: ATOM     43  C   UNL d   1      23.381  33.721  -2.401 -0.47 -0.00    +0.012 C 
DOCKED: ENDBRANCH  12  42
DOCKED: BRANCH  17  44
DOCKED: ATOM     44  C   UNL d   1      28.036  35.273   4.822 -0.33 +0.00    +0.004 C 
DOCKED: ATOM     45  C   UNL d   1      27.144  35.407   5.808 -0.39 -0.00    +0.012 C 
DOCKED: ENDBRANCH  17  44
DOCKED: TORSDOF 10
DOCKED: TER
DOCKED: ENDMDL
________________________________________________________________________________


	BEGINNING GENETIC ALGORITHM DOCKING 40 of 100
Run: 40 Seed: 409806436 1117971293 [ Run 40 of 100 GA/GALS ]
Beginning LAMARCKIAN GENETIC ALGORITHM (LGA), with a maximum of 25000000 energy evaluations.

Final-Value: -14.740


	FINAL GENETIC ALGORITHM DOCKED STATE
	_______________________________________________


Detailed state:  trans 40.459 30.726 15.573 quatxyzw -0.247544 0.175125 0.777622 0.550779 center -0.174 -0.001 -0.047 ntor 10 -52.7086 84.6242 -140.0798 -136.1041 -143.9676 -107.1298 -34.3047 -14.6741 -25.2641 -41.0888
State:	 40.459  30.726  15.573  -0.297  0.210  0.932 113.159    -52.71   84.62 -140.08 -136.10 -143.97 -107.13  -34.30  -14.67  -25.26  -41.09

DOCKED: MODEL       40
DOCKED: USER    Run = 40
DOCKED: USER    DPF = D:/Protein_go_brrr/autodock/final/2DN3/heme_Fe/dock.dpf
DOCKED: USER  
DOCKED: USER    Estimated Free Energy of Binding    =  -11.32 kcal/mol  [=(1)+(2)+(3)-(4)]
DOCKED: USER    Estimated Inhibition Constant, Ki   =    5.00 nM (nanomolar)  [Temperature = 298.15 K]
DOCKED: USER    
DOCKED: USER    (1) Final Intermolecular Energy     =  -14.31 kcal/mol
DOCKED: USER        vdW + Hbond + desolv Energy     =  -14.07 kcal/mol
DOCKED: USER        Electrostatic Energy            =   -0.24 kcal/mol
DOCKED: USER    (2) Final Total Internal Energy     =   -0.43 kcal/mol
DOCKED: USER    (3) Torsional Free Energy           =   +2.98 kcal/mol
DOCKED: USER    (4) Unbound System's Energy  [=(2)] =   -0.43 kcal/mol
DOCKED: USER    
DOCKED: USER    
DOCKED: USER    NEWDPF move heme_Fe_opt.pdbqt
DOCKED: USER    NEWDPF about -0.174000 -0.001000 -0.047000
DOCKED: USER    NEWDPF tran0 40.458848 30.726006 15.573090
DOCKED: USER    NEWDPF quaternion0 -0.247544 0.175125 0.777622 0.550779
DOCKED: USER    NEWDPF axisangle0 -0.296584 0.209818 0.931673 113.159051
DOCKED: USER    NEWDPF quat0 -0.296584 0.209818 0.931673 113.159051
DOCKED: USER    NEWDPF dihe0 -52.71 84.62 -140.08 -136.10 -143.97 -107.13 -34.30 -14.67 -25.26 -41.09 
DOCKED: USER  keepresnum = 1 
DOCKED: USER  
DOCKED: REMARK  10 active torsions:
DOCKED: REMARK  status: ('A' for Active; 'I' for Inactive)
DOCKED: REMARK    1  A    between atoms: C_6  and  C_10 
DOCKED: REMARK    2  A    between atoms: C_10  and  C_11 
DOCKED: REMARK    3  A    between atoms: C_11  and  C_12 
DOCKED: REMARK    4  A    between atoms: C_12  and  O_14 
DOCKED: REMARK    5  A    between atoms: C_17  and  C_20 
DOCKED: REMARK    6  A    between atoms: C_24  and  C_27 
DOCKED: REMARK    7  A    between atoms: C_31  and  C_34 
DOCKED: REMARK    8  A    between atoms: C_34  and  C_35 
DOCKED: REMARK    9  A    between atoms: C_35  and  C_36 
DOCKED: REMARK   10  A    between atoms: C_36  and  O_38 
DOCKED: USER                              x       y       z     vdW  Elec       q    Type
DOCKED: USER                           _______ _______ _______ _____ _____    ______ ____
DOCKED: ROOT
DOCKED: ATOM      1  C   UNL d   1      40.642  32.614  16.356 -0.47 +0.01    +0.064 C 
DOCKED: ATOM      2  C   UNL d   1      37.206  30.273  13.684 -0.24 +0.01    +0.064 A 
DOCKED: ATOM      3  C   UNL d   1      39.323  26.095  14.748 -0.46 +0.01    +0.064 C 
DOCKED: ATOM      4  C   UNL d   1      42.719  28.350  17.252 -0.08 +0.02    +0.064 C 
DOCKED: ATOM      5  C   UNL d   1      39.527  32.350  15.436 -0.38 +0.01    +0.066 A 
DOCKED: ATOM      6  C   UNL d   1      38.754  33.326  14.830 -0.41 -0.00    -0.021 A 
DOCKED: ATOM      7  C   UNL d   1      37.797  32.675  14.091 -0.37 -0.00    -0.025 A 
DOCKED: ATOM      8  C   UNL d   1      38.024  31.325  14.274 -0.34 +0.01    +0.066 A 
DOCKED: ATOM      9  C   UNL d   1      36.743  33.321  13.245 -0.48 +0.00    +0.051 C 
DOCKED: ATOM     10  C   UNL d   1      37.437  28.964  13.798 -0.38 +0.01    +0.066 A 
DOCKED: ATOM     11  C   UNL d   1      36.571  27.979  13.317 -0.46 -0.00    -0.021 A 
DOCKED: ATOM     12  C   UNL d   1      37.151  26.765  13.626 -0.46 +0.00    +0.000 A 
DOCKED: ATOM     13  C   UNL d   1      38.348  27.075  14.294 -0.37 +0.01    +0.070 A 
DOCKED: ATOM     14  C   UNL d   1      35.224  28.184  12.655 -0.62 +0.01    +0.052 C 
DOCKED: ATOM     15  C   UNL d   1      40.451  26.386  15.437 -0.37 +0.02    +0.066 A 
DOCKED: ATOM     16  C   UNL d   1      41.406  25.432  15.766 -0.35 -0.01    -0.021 A 
DOCKED: ATOM     17  C   UNL d   1      42.385  26.080  16.492 -0.16 +0.00    +0.000 A 
DOCKED: ATOM     18  C   UNL d   1      42.001  27.415  16.592 -0.31 +0.02    +0.070 A 
DOCKED: ATOM     19  C   UNL d   1      41.389  23.964  15.435 -0.54 +0.01    +0.052 C 
DOCKED: ATOM     20  C   UNL d   1      42.378  29.776  17.327 -0.24 +0.02    +0.066 A 
DOCKED: ATOM     21  C   UNL d   1      42.996  30.713  18.166 -0.35 -0.01    -0.025 A 
DOCKED: ATOM     22  C   UNL d   1      42.398  31.924  17.885 -0.44 -0.00    -0.021 A 
DOCKED: ATOM     23  C   UNL d   1      41.439  31.678  16.895 -0.38 +0.01    +0.066 A 
DOCKED: ATOM     24  C   UNL d   1      44.089  30.491  19.185 -0.31 +0.02    +0.051 C 
DOCKED: ATOM     25  N   UNL d   1      39.083  31.130  15.086 -0.21 -0.05    -0.248 N 
DOCKED: ATOM     26  N   UNL d   1      38.519  28.415  14.407 -0.21 -0.05    -0.248 N 
DOCKED: ATOM     27  N   UNL d   1      40.835  27.613  15.907 -0.23 -0.08    -0.248 N 
DOCKED: ATOM     28  N   UNL d   1      41.401  30.358  16.590 -0.09 -0.08    -0.248 N 
DOCKED: ATOM     29 FE   UNL d   1      39.961  29.386  15.500 -0.08 +0.00    +0.000 Fe
DOCKED: ENDROOT
DOCKED: BRANCH   6  30
DOCKED: ATOM     30  C   UNL d   1      38.926  34.803  14.929 -0.53 +0.01    +0.052 C 
DOCKED: BRANCH  30  31
DOCKED: ATOM     31  C   UNL d   1      40.255  35.234  14.319 -0.10 +0.01    +0.115 C 
DOCKED: BRANCH  31  32
DOCKED: ATOM     32  C   UNL d   1      40.121  36.580  13.663 -0.41 +0.02    +0.139 C 
DOCKED: ATOM     33  O   UNL d   1      40.732  36.836  12.635 +0.12 -0.08    -0.650 OA
DOCKED: BRANCH  32  34
DOCKED: ATOM     34  O   UNL d   1      39.325  37.518  14.203 +0.02 -0.07    -0.776 OA
DOCKED: ATOM     35  H   UNL d   1      39.687  38.398  14.378 +0.09 +0.01    +0.167 HD
DOCKED: ENDBRANCH  32  34
DOCKED: ENDBRANCH  31  32
DOCKED: ENDBRANCH  30  31
DOCKED: ENDBRANCH   6  30
DOCKED: BRANCH  22  36
DOCKED: ATOM     36  C   UNL d   1      42.698  33.233  18.566 -0.33 +0.01    +0.052 C 
DOCKED: BRANCH  36  37
DOCKED: ATOM     37  C   UNL d   1      44.183  33.543  18.451 -0.33 +0.02    +0.115 C 
DOCKED: BRANCH  37  38
DOCKED: ATOM     38  C   UNL d   1      44.459  34.984  18.774 -0.32 +0.01    +0.139 C 
DOCKED: ATOM     39  O   UNL d   1      44.752  35.778  17.892 +0.03 -0.09    -0.650 OA
DOCKED: BRANCH  38  40
DOCKED: ATOM     40  O   UNL d   1      44.390  35.411  20.048 +0.01 +0.02    -0.776 OA
DOCKED: ATOM     41  H   UNL d   1      43.570  35.817  20.363 -0.48 -0.04    +0.167 HD
DOCKED: ENDBRANCH  38  40
DOCKED: ENDBRANCH  37  38
DOCKED: ENDBRANCH  36  37
DOCKED: ENDBRANCH  22  36
DOCKED: BRANCH  12  42
DOCKED: ATOM     42  C   UNL d   1      36.561  25.428  13.306 -0.66 +0.00    +0.004 C 
DOCKED: ATOM     43  C   UNL d   1      35.780  24.790  14.188 -0.72 +0.00    +0.012 C 
DOCKED: ENDBRANCH  12  42
DOCKED: BRANCH  17  44
DOCKED: ATOM     44  C   UNL d   1      43.617  25.465  17.035 -0.31 +0.00    +0.004 C 
DOCKED: ATOM     45  C   UNL d   1      43.595  24.796  18.193 -0.36 +0.01    +0.012 C 
DOCKED: ENDBRANCH  17  44
DOCKED: TORSDOF 10
DOCKED: TER
DOCKED: ENDMDL
________________________________________________________________________________


	BEGINNING GENETIC ALGORITHM DOCKING 41 of 100
Run: 41 Seed: 223517130 866828848 [ Run 41 of 100 GA/GALS ]
Beginning LAMARCKIAN GENETIC ALGORITHM (LGA), with a maximum of 25000000 energy evaluations.

Final-Value: -16.760


	FINAL GENETIC ALGORITHM DOCKED STATE
	_______________________________________________


Detailed state:  trans 41.640 29.031 16.931 quatxyzw -0.107667 -0.940150 -0.069806 0.315679 center -0.174 -0.001 -0.047 ntor 10 124.3179 -80.2338 51.2480 -128.4950 173.3385 79.6745 57.8703 -24.1509 -157.5409 -15.6500
State:	 41.640  29.031  16.931  -0.113 -0.991 -0.074 143.196    124.32  -80.23   51.25 -128.49  173.34   79.67   57.87  -24.15 -157.54  -15.65

DOCKED: MODEL       41
DOCKED: USER    Run = 41
DOCKED: USER    DPF = D:/Protein_go_brrr/autodock/final/2DN3/heme_Fe/dock.dpf
DOCKED: USER  
DOCKED: USER    Estimated Free Energy of Binding    =  -13.22 kcal/mol  [=(1)+(2)+(3)-(4)]
DOCKED: USER    Estimated Inhibition Constant, Ki   =  204.21 pM (picomolar)  [Temperature = 298.15 K]
DOCKED: USER    
DOCKED: USER    (1) Final Intermolecular Energy     =  -16.20 kcal/mol
DOCKED: USER        vdW + Hbond + desolv Energy     =  -13.22 kcal/mol
DOCKED: USER        Electrostatic Energy            =   -2.98 kcal/mol
DOCKED: USER    (2) Final Total Internal Energy     =   -0.56 kcal/mol
DOCKED: USER    (3) Torsional Free Energy           =   +2.98 kcal/mol
DOCKED: USER    (4) Unbound System's Energy  [=(2)] =   -0.56 kcal/mol
DOCKED: USER    
DOCKED: USER    
DOCKED: USER    NEWDPF move heme_Fe_opt.pdbqt
DOCKED: USER    NEWDPF about -0.174000 -0.001000 -0.047000
DOCKED: USER    NEWDPF tran0 41.639659 29.031113 16.931238
DOCKED: USER    NEWDPF quaternion0 -0.107667 -0.940150 -0.069806 0.315679
DOCKED: USER    NEWDPF axisangle0 -0.113469 -0.990814 -0.073568 143.196437
DOCKED: USER    NEWDPF quat0 -0.113469 -0.990814 -0.073568 143.196437
DOCKED: USER    NEWDPF dihe0 124.32 -80.23 51.25 -128.49 173.34 79.67 57.87 -24.15 -157.54 -15.65 
DOCKED: USER  keepresnum = 1 
DOCKED: USER  
DOCKED: REMARK  10 active torsions:
DOCKED: REMARK  status: ('A' for Active; 'I' for Inactive)
DOCKED: REMARK    1  A    between atoms: C_6  and  C_10 
DOCKED: REMARK    2  A    between atoms: C_10  and  C_11 
DOCKED: REMARK    3  A    between atoms: C_11  and  C_12 
DOCKED: REMARK    4  A    between atoms: C_12  and  O_14 
DOCKED: REMARK    5  A    between atoms: C_17  and  C_20 
DOCKED: REMARK    6  A    between atoms: C_24  and  C_27 
DOCKED: REMARK    7  A    between atoms: C_31  and  C_34 
DOCKED: REMARK    8  A    between atoms: C_34  and  C_35 
DOCKED: REMARK    9  A    between atoms: C_35  and  C_36 
DOCKED: REMARK   10  A    between atoms: C_36  and  O_38 
DOCKED: USER                              x       y       z     vdW  Elec       q    Type
DOCKED: USER                           _______ _______ _______ _____ _____    ______ ____
DOCKED: ROOT
DOCKED: ATOM      1  C   UNL d   1      43.494  28.519  17.645 -0.27 +0.02    +0.064 C 
DOCKED: ATOM      2  C   UNL d   1      40.010  26.192  15.023 -0.39 +0.01    +0.064 A 
DOCKED: ATOM      3  C   UNL d   1      37.906  30.428  14.189 -0.40 +0.01    +0.064 C 
DOCKED: ATOM      4  C   UNL d   1      41.208  32.688  16.810 -0.48 +0.01    +0.064 C 
DOCKED: ATOM      5  C   UNL d   1      42.662  27.462  17.054 -0.30 +0.02    +0.066 A 
DOCKED: ATOM      6  C   UNL d   1      42.898  26.103  17.187 -0.32 -0.01    -0.021 A 
DOCKED: ATOM      7  C   UNL d   1      41.932  25.458  16.456 -0.32 -0.01    -0.025 A 
DOCKED: ATOM      8  C   UNL d   1      41.143  26.448  15.904 -0.35 +0.02    +0.066 A 
DOCKED: ATOM      9  C   UNL d   1      41.773  23.975  16.317 -0.50 +0.01    +0.051 C 
DOCKED: ATOM     10  C   UNL d   1      39.199  27.126  14.524 -0.34 +0.01    +0.066 A 
DOCKED: ATOM     11  C   UNL d   1      38.192  26.860  13.592 -0.44 -0.00    -0.021 A 
DOCKED: ATOM     12  C   UNL d   1      37.581  28.068  13.322 -0.45 +0.00    +0.000 A 
DOCKED: ATOM     13  C   UNL d   1      38.259  29.019  14.105 -0.29 +0.01    +0.070 A 
DOCKED: ATOM     14  C   UNL d   1      37.873  25.531  12.938 -0.46 +0.01    +0.052 C 
DOCKED: ATOM     15  C   UNL d   1      38.586  31.357  14.901 -0.35 +0.01    +0.066 A 
DOCKED: ATOM     16  C   UNL d   1      38.160  32.672  15.035 -0.37 -0.00    -0.021 A 
DOCKED: ATOM     17  C   UNL d   1      39.113  33.327  15.788 -0.41 +0.00    +0.000 A 
DOCKED: ATOM     18  C   UNL d   1      40.102  32.395  16.092 -0.39 +0.01    +0.070 A 
DOCKED: ATOM     19  C   UNL d   1      36.918  33.298  14.459 -0.31 +0.00    +0.052 C 
DOCKED: ATOM     20  C   UNL d   1      42.240  31.720  17.201 -0.36 +0.01    +0.066 A 
DOCKED: ATOM     21  C   UNL d   1      43.481  32.043  17.767 -0.25 -0.01    -0.025 A 
DOCKED: ATOM     22  C   UNL d   1      44.111  30.840  18.009 -0.29 -0.01    -0.021 A 
DOCKED: ATOM     23  C   UNL d   1      43.237  29.835  17.577 -0.30 +0.02    +0.066 A 
DOCKED: ATOM     24  C   UNL d   1      44.055  33.409  18.065 -0.14 +0.01    +0.051 C 
DOCKED: ATOM     25  N   UNL d   1      41.584  27.666  16.277 -0.25 -0.08    -0.248 N 
DOCKED: ATOM     26  N   UNL d   1      39.250  28.447  14.831 +0.03 -0.08    -0.248 N 
DOCKED: ATOM     27  N   UNL d   1      39.758  31.173  15.584 -0.18 -0.06    -0.248 N 
DOCKED: ATOM     28  N   UNL d   1      42.116  30.380  17.044 -0.25 -0.07    -0.248 N 
DOCKED: ATOM     29 FE   UNL d   1      40.683  29.415  15.938 -0.08 +0.00    +0.000 Fe
DOCKED: ENDROOT
DOCKED: BRANCH   6  30
DOCKED: ATOM     30  C   UNL d   1      43.972  25.449  17.986 -0.29 +0.02    +0.052 C 
DOCKED: BRANCH  30  31
DOCKED: ATOM     31  C   UNL d   1      45.342  25.720  17.373 -0.24 +0.07    +0.115 C 
DOCKED: BRANCH  31  32
DOCKED: ATOM     32  C   UNL d   1      46.034  24.428  17.037 -0.19 +0.14    +0.139 C 
DOCKED: ATOM     33  O   UNL d   1      47.092  24.429  16.424 -0.17 -1.00    -0.650 OA
DOCKED: BRANCH  32  34
DOCKED: ATOM     34  O   UNL d   1      45.492  23.256  17.409 -0.11 -0.78    -0.776 OA
DOCKED: ATOM     35  H   UNL d   1      45.287  23.109  18.343 +0.06 +0.12    +0.167 HD
DOCKED: ENDBRANCH  32  34
DOCKED: ENDBRANCH  31  32
DOCKED: ENDBRANCH  30  31
DOCKED: ENDBRANCH   6  30
DOCKED: BRANCH  22  36
DOCKED: ATOM     36  C   UNL d   1      45.495  30.670  18.577 -0.23 +0.02    +0.052 C 
DOCKED: BRANCH  36  37
DOCKED: ATOM     37  C   UNL d   1      45.447  30.801  20.093 -0.03 +0.08    +0.115 C 
DOCKED: BRANCH  37  38
DOCKED: ATOM     38  C   UNL d   1      46.595  30.073  20.733 -0.03 +0.15    +0.139 C 
DOCKED: ATOM     39  O   UNL d   1      47.709  30.573  20.772 -0.05 -0.46    -0.650 OA
DOCKED: BRANCH  38  40
DOCKED: ATOM     40  O   UNL d   1      46.401  28.854  21.268 -0.36 -1.42    -0.776 OA
DOCKED: ATOM     41  H   UNL d   1      46.654  28.071  20.759 +0.03 +0.19    +0.167 HD
DOCKED: ENDBRANCH  38  40
DOCKED: ENDBRANCH  37  38
DOCKED: ENDBRANCH  36  37
DOCKED: ENDBRANCH  22  36
DOCKED: BRANCH  12  42
DOCKED: ATOM     42  C   UNL d   1      36.449  28.260  12.364 -0.66 +0.00    +0.004 C 
DOCKED: ATOM     43  C   UNL d   1      35.184  28.339  12.800 -0.67 +0.00    +0.012 C 
DOCKED: ENDBRANCH  12  42
DOCKED: BRANCH  17  44
DOCKED: ATOM     44  C   UNL d   1      39.069  34.746  16.207 -0.49 +0.00    +0.004 C 
DOCKED: ATOM     45  C   UNL d   1      39.316  35.726  15.331 -0.56 +0.00    +0.012 C 
DOCKED: ENDBRANCH  17  44
DOCKED: TORSDOF 10
DOCKED: TER
DOCKED: ENDMDL
________________________________________________________________________________


	BEGINNING GENETIC ALGORITHM DOCKING 42 of 100
Run: 42 Seed: 1169161023 2007899741 [ Run 42 of 100 GA/GALS ]
Beginning LAMARCKIAN GENETIC ALGORITHM (LGA), with a maximum of 25000000 energy evaluations.

Final-Value: -13.276


	FINAL GENETIC ALGORITHM DOCKED STATE
	_______________________________________________


Detailed state:  trans 44.419 22.315 17.973 quatxyzw -0.073692 0.885884 0.114130 -0.443569 center -0.174 -0.001 -0.047 ntor 10 152.3551 168.0086 0.0064 158.9029 95.8220 97.6730 -168.5600 80.5699 178.9526 0.3789
State:	 44.419  22.315  17.973  -0.082  0.988  0.127 -127.336    152.36  168.01    0.01  158.90   95.82   97.67 -168.56   80.57  178.95    0.38

DOCKED: MODEL       42
DOCKED: USER    Run = 42
DOCKED: USER    DPF = D:/Protein_go_brrr/autodock/final/2DN3/heme_Fe/dock.dpf
DOCKED: USER  
DOCKED: USER    Estimated Free Energy of Binding    =   -9.77 kcal/mol  [=(1)+(2)+(3)-(4)]
DOCKED: USER    Estimated Inhibition Constant, Ki   =   69.43 nM (nanomolar)  [Temperature = 298.15 K]
DOCKED: USER    
DOCKED: USER    (1) Final Intermolecular Energy     =  -12.75 kcal/mol
DOCKED: USER        vdW + Hbond + desolv Energy     =   -8.99 kcal/mol
DOCKED: USER        Electrostatic Energy            =   -3.76 kcal/mol
DOCKED: USER    (2) Final Total Internal Energy     =   -0.53 kcal/mol
DOCKED: USER    (3) Torsional Free Energy           =   +2.98 kcal/mol
DOCKED: USER    (4) Unbound System's Energy  [=(2)] =   -0.53 kcal/mol
DOCKED: USER    
DOCKED: USER    
DOCKED: USER    NEWDPF move heme_Fe_opt.pdbqt
DOCKED: USER    NEWDPF about -0.174000 -0.001000 -0.047000
DOCKED: USER    NEWDPF tran0 44.419369 22.314781 17.973469
DOCKED: USER    NEWDPF quaternion0 -0.073692 0.885884 0.114130 -0.443569
DOCKED: USER    NEWDPF axisangle0 -0.082223 0.988445 0.127343 -127.336395
DOCKED: USER    NEWDPF quat0 -0.082223 0.988445 0.127343 -127.336395
DOCKED: USER    NEWDPF dihe0 152.36 168.01 0.01 158.90 95.82 97.67 -168.56 80.57 178.95 0.38 
DOCKED: USER  keepresnum = 1 
DOCKED: USER  
DOCKED: REMARK  10 active torsions:
DOCKED: REMARK  status: ('A' for Active; 'I' for Inactive)
DOCKED: REMARK    1  A    between atoms: C_6  and  C_10 
DOCKED: REMARK    2  A    between atoms: C_10  and  C_11 
DOCKED: REMARK    3  A    between atoms: C_11  and  C_12 
DOCKED: REMARK    4  A    between atoms: C_12  and  O_14 
DOCKED: REMARK    5  A    between atoms: C_17  and  C_20 
DOCKED: REMARK    6  A    between atoms: C_24  and  C_27 
DOCKED: REMARK    7  A    between atoms: C_31  and  C_34 
DOCKED: REMARK    8  A    between atoms: C_34  and  C_35 
DOCKED: REMARK    9  A    between atoms: C_35  and  C_36 
DOCKED: REMARK   10  A    between atoms: C_36  and  O_38 
DOCKED: USER                              x       y       z     vdW  Elec       q    Type
DOCKED: USER                           _______ _______ _______ _____ _____    ______ ____
DOCKED: ROOT
DOCKED: ATOM      1  C   UNL d   1      46.022  22.458  19.247 -0.15 +0.04    +0.064 C 
DOCKED: ATOM      2  C   UNL d   1      44.468  19.097  15.973 -0.18 +0.03    +0.064 A 
DOCKED: ATOM      3  C   UNL d   1      41.479  22.374  14.131 -0.30 +0.01    +0.064 C 
DOCKED: ATOM      4  C   UNL d   1      42.893  25.611  17.358 -0.35 +0.02    +0.064 C 
DOCKED: ATOM      5  C   UNL d   1      45.802  21.184  18.550 -0.18 +0.04    +0.066 A 
DOCKED: ATOM      6  C   UNL d   1      46.409  19.984  18.884 -0.17 -0.01    -0.021 A 
DOCKED: ATOM      7  C   UNL d   1      45.980  19.052  17.972 -0.16 -0.01    -0.025 A 
DOCKED: ATOM      8  C   UNL d   1      45.126  19.719  17.115 -0.20 +0.04    +0.066 A 
DOCKED: ATOM      9  C   UNL d   1      46.359  17.603  17.946 -0.08 +0.02    +0.051 C 
DOCKED: ATOM     10  C   UNL d   1      43.596  19.703  15.165 -0.24 +0.03    +0.066 A 
DOCKED: ATOM     11  C   UNL d   1      43.071  19.115  14.012 -0.25 -0.01    -0.021 A 
DOCKED: ATOM     12  C   UNL d   1      42.218  20.046  13.453 -0.42 +0.00    +0.000 A 
DOCKED: ATOM     13  C   UNL d   1      42.275  21.168  14.298 -0.38 +0.02    +0.070 A 
DOCKED: ATOM     14  C   UNL d   1      43.416  17.758  13.433 -0.13 +0.01    +0.052 C 
DOCKED: ATOM     15  C   UNL d   1      41.568  23.477  14.912 -0.41 +0.02    +0.066 A 
DOCKED: ATOM     16  C   UNL d   1      40.721  24.569  14.781 -0.52 -0.01    -0.021 A 
DOCKED: ATOM     17  C   UNL d   1      41.129  25.506  15.708 -0.38 +0.00    +0.000 A 
DOCKED: ATOM     18  C   UNL d   1      42.220  24.963  16.382 -0.27 +0.02    +0.070 A 
DOCKED: ATOM     19  C   UNL d   1      39.587  24.740  13.805 -0.30 +0.01    +0.052 C 
DOCKED: ATOM     20  C   UNL d   1      44.006  25.047  18.131 -0.25 +0.03    +0.066 A 
DOCKED: ATOM     21  C   UNL d   1      44.837  25.770  18.999 -0.19 -0.01    -0.025 A 
DOCKED: ATOM     22  C   UNL d   1      45.713  24.849  19.536 -0.14 -0.01    -0.021 A 
DOCKED: ATOM     23  C   UNL d   1      45.388  23.610  18.972 -0.16 +0.04    +0.066 A 
DOCKED: ATOM     24  C   UNL d   1      44.817  27.248  19.311 -0.15 +0.03    +0.051 C 
DOCKED: ATOM     25  N   UNL d   1      45.012  21.013  17.475 -0.17 -0.18    -0.248 N 
DOCKED: ATOM     26  N   UNL d   1      43.121  20.963  15.337 -0.20 -0.08    -0.248 N 
DOCKED: ATOM     27  N   UNL d   1      42.464  23.698  15.923 -0.12 -0.08    -0.248 N 
DOCKED: ATOM     28  N   UNL d   1      44.376  23.745  18.082 -0.16 -0.14    -0.248 N 
DOCKED: ATOM     29 FE   UNL d   1      43.748  22.356  16.710 -0.07 +0.00    +0.000 Fe
DOCKED: ENDROOT
DOCKED: BRANCH   6  30
DOCKED: ATOM     30  C   UNL d   1      47.334  19.729  20.025 -0.12 +0.02    +0.052 C 
DOCKED: BRANCH  30  31
DOCKED: ATOM     31  C   UNL d   1      48.785  19.925  19.598 -0.04 +0.06    +0.115 C 
DOCKED: BRANCH  31  32
DOCKED: ATOM     32  C   UNL d   1      48.852  20.583  18.248 +0.01 +0.15    +0.139 C 
DOCKED: ATOM     33  O   UNL d   1      48.992  21.794  18.151 -0.06 -0.81    -0.650 OA
DOCKED: BRANCH  32  34
DOCKED: ATOM     34  O   UNL d   1      48.757  19.842  17.131 -0.52 -1.16    -0.776 OA
DOCKED: ATOM     35  H   UNL d   1      49.045  18.919  17.155 +0.01 +0.14    +0.167 HD
DOCKED: ENDBRANCH  32  34
DOCKED: ENDBRANCH  31  32
DOCKED: ENDBRANCH  30  31
DOCKED: ENDBRANCH   6  30
DOCKED: BRANCH  22  36
DOCKED: ATOM     36  C   UNL d   1      46.830  25.156  20.499 -0.08 +0.03    +0.052 C 
DOCKED: BRANCH  36  37
DOCKED: ATOM     37  C   UNL d   1      46.372  24.872  21.922 -0.10 +0.08    +0.115 C 
DOCKED: BRANCH  37  38
DOCKED: ATOM     38  C   UNL d   1      45.980  26.141  22.625 -0.08 +0.18    +0.139 C 
DOCKED: ATOM     39  O   UNL d   1      44.809  26.481  22.695 -0.23 -1.12    -0.650 OA
DOCKED: BRANCH  38  40
DOCKED: ATOM     40  O   UNL d   1      46.925  26.919  23.183 +0.23 -1.38    -0.776 OA
DOCKED: ATOM     41  H   UNL d   1      47.822  26.570  23.284 +0.01 +0.18    +0.167 HD
DOCKED: ENDBRANCH  38  40
DOCKED: ENDBRANCH  37  38
DOCKED: ENDBRANCH  36  37
DOCKED: ENDBRANCH  22  36
DOCKED: BRANCH  12  42
DOCKED: ATOM     42  C   UNL d   1      41.440  19.846  12.192 -0.20 +0.00    +0.004 C 
DOCKED: ATOM     43  C   UNL d   1      40.734  18.726  11.988 -0.33 +0.00    +0.012 C 
DOCKED: ENDBRANCH  12  42
DOCKED: BRANCH  17  44
DOCKED: ATOM     44  C   UNL d   1      40.502  26.825  15.948 -0.43 +0.00    +0.004 C 
DOCKED: ATOM     45  C   UNL d   1      41.239  27.875  16.326 -0.37 +0.00    +0.012 C 
DOCKED: ENDBRANCH  17  44
DOCKED: TORSDOF 10
DOCKED: TER
DOCKED: ENDMDL
________________________________________________________________________________


	BEGINNING GENETIC ALGORITHM DOCKING 43 of 100
Run: 43 Seed: 1316864708 1002126797 [ Run 43 of 100 GA/GALS ]
Beginning LAMARCKIAN GENETIC ALGORITHM (LGA), with a maximum of 25000000 energy evaluations.

Final-Value: -10.955


	FINAL GENETIC ALGORITHM DOCKED STATE
	_______________________________________________


Detailed state:  trans 28.006 40.732 -0.781 quatxyzw -0.390417 0.692202 -0.385631 -0.468742 center -0.174 -0.001 -0.047 ntor 10 -3.8959 153.4198 73.8383 54.7843 -111.2499 -70.0334 -70.7111 2.6643 178.5865 147.1027
State:	 28.006  40.732  -0.781  -0.442  0.784 -0.437 -124.095     -3.90  153.42   73.84   54.78 -111.25  -70.03  -70.71    2.66  178.59  147.10

DOCKED: MODEL       43
DOCKED: USER    Run = 43
DOCKED: USER    DPF = D:/Protein_go_brrr/autodock/final/2DN3/heme_Fe/dock.dpf
DOCKED: USER  
DOCKED: USER    Estimated Free Energy of Binding    =   -6.00 kcal/mol  [=(1)+(2)+(3)-(4)]
DOCKED: USER    Estimated Inhibition Constant, Ki   =   40.00 uM (micromolar)  [Temperature = 298.15 K]
DOCKED: USER    
DOCKED: USER    (1) Final Intermolecular Energy     =   -8.98 kcal/mol
DOCKED: USER        vdW + Hbond + desolv Energy     =   -6.40 kcal/mol
DOCKED: USER        Electrostatic Energy            =   -2.59 kcal/mol
DOCKED: USER    (2) Final Total Internal Energy     =   -1.97 kcal/mol
DOCKED: USER    (3) Torsional Free Energy           =   +2.98 kcal/mol
DOCKED: USER    (4) Unbound System's Energy  [=(2)] =   -1.97 kcal/mol
DOCKED: USER    
DOCKED: USER    
DOCKED: USER    NEWDPF move heme_Fe_opt.pdbqt
DOCKED: USER    NEWDPF about -0.174000 -0.001000 -0.047000
DOCKED: USER    NEWDPF tran0 28.005717 40.731846 -0.780626
DOCKED: USER    NEWDPF quaternion0 -0.390417 0.692202 -0.385631 -0.468742
DOCKED: USER    NEWDPF axisangle0 -0.441981 0.783624 -0.436562 -124.094618
DOCKED: USER    NEWDPF quat0 -0.441981 0.783624 -0.436562 -124.094618
DOCKED: USER    NEWDPF dihe0 -3.90 153.42 73.84 54.78 -111.25 -70.03 -70.71 2.66 178.59 147.10 
DOCKED: USER  keepresnum = 1 
DOCKED: USER  
DOCKED: REMARK  10 active torsions:
DOCKED: REMARK  status: ('A' for Active; 'I' for Inactive)
DOCKED: REMARK    1  A    between atoms: C_6  and  C_10 
DOCKED: REMARK    2  A    between atoms: C_10  and  C_11 
DOCKED: REMARK    3  A    between atoms: C_11  and  C_12 
DOCKED: REMARK    4  A    between atoms: C_12  and  O_14 
DOCKED: REMARK    5  A    between atoms: C_17  and  C_20 
DOCKED: REMARK    6  A    between atoms: C_24  and  C_27 
DOCKED: REMARK    7  A    between atoms: C_31  and  C_34 
DOCKED: REMARK    8  A    between atoms: C_34  and  C_35 
DOCKED: REMARK    9  A    between atoms: C_35  and  C_36 
DOCKED: REMARK   10  A    between atoms: C_36  and  O_38 
DOCKED: USER                              x       y       z     vdW  Elec       q    Type
DOCKED: USER                           _______ _______ _______ _____ _____    ______ ____
DOCKED: ROOT
DOCKED: ATOM      1  C   UNL d   1      29.028  42.406  -0.179 -0.12 +0.02    +0.064 C 
DOCKED: ATOM      2  C   UNL d   1      28.505  37.822   1.594 -0.16 +0.00    +0.064 A 
DOCKED: ATOM      3  C   UNL d   1      26.717  36.459  -2.650 -0.21 +0.00    +0.064 C 
DOCKED: ATOM      4  C   UNL d   1      27.117  40.912  -4.352 -0.17 +0.01    +0.064 C 
DOCKED: ATOM      5  C   UNL d   1      28.969  41.261   0.741 -0.13 +0.02    +0.066 A 
DOCKED: ATOM      6  C   UNL d   1      29.299  41.309   2.085 -0.19 -0.00    -0.021 A 
DOCKED: ATOM      7  C   UNL d   1      29.157  40.035   2.576 -0.21 +0.00    -0.025 A 
DOCKED: ATOM      8  C   UNL d   1      28.745  39.257   1.511 -0.16 +0.00    +0.066 A 
DOCKED: ATOM      9  C   UNL d   1      29.388  39.603   3.992 -0.30 -0.02    +0.051 C 
DOCKED: ATOM     10  C   UNL d   1      28.052  37.060   0.598 -0.14 +0.01    +0.066 A 
DOCKED: ATOM     11  C   UNL d   1      27.941  35.669   0.674 -0.17 -0.01    -0.021 A 
DOCKED: ATOM     12  C   UNL d   1      27.444  35.250  -0.544 -0.17 +0.00    +0.000 A 
DOCKED: ATOM     13  C   UNL d   1      27.283  36.417  -1.310 -0.15 +0.01    +0.070 A 
DOCKED: ATOM     14  C   UNL d   1      28.354  34.776   1.826 -0.20 +0.03    +0.052 C 
DOCKED: ATOM     15  C   UNL d   1      26.608  37.573  -3.411 -0.22 +0.01    +0.066 A 
DOCKED: ATOM     16  C   UNL d   1      25.971  37.588  -4.646 -0.21 -0.00    -0.021 A 
DOCKED: ATOM     17  C   UNL d   1      26.088  38.871  -5.140 -0.20 +0.00    +0.000 A 
DOCKED: ATOM     18  C   UNL d   1      26.799  39.608  -4.196 -0.19 +0.01    +0.070 A 
DOCKED: ATOM     19  C   UNL d   1      25.300  36.438  -5.347 -0.15 +0.00    +0.052 C 
DOCKED: ATOM     20  C   UNL d   1      27.809  41.735  -3.353 -0.12 +0.01    +0.066 A 
DOCKED: ATOM     21  C   UNL d   1      28.320  43.022  -3.577 -0.06 -0.00    -0.025 A 
DOCKED: ATOM     22  C   UNL d   1      28.849  43.433  -2.371 -0.05 -0.01    -0.021 A 
DOCKED: ATOM     23  C   UNL d   1      28.647  42.385  -1.465 -0.09 +0.02    +0.066 A 
DOCKED: ATOM     24  C   UNL d   1      28.319  43.827  -4.855 -0.03 +0.01    +0.051 C 
DOCKED: ATOM     25  N   UNL d   1      28.622  40.008   0.398 -0.08 -0.04    -0.248 N 
DOCKED: ATOM     26  N   UNL d   1      27.662  37.520  -0.618 +0.11 -0.03    -0.248 N 
DOCKED: ATOM     27  N   UNL d   1      27.081  38.822  -3.113 -0.11 -0.03    -0.248 N 
DOCKED: ATOM     28  N   UNL d   1      28.053  41.334  -2.082 -0.09 -0.05    -0.248 N 
DOCKED: ATOM     29 FE   UNL d   1      27.857  39.428  -1.352 -0.05 +0.00    +0.000 Fe
DOCKED: ENDROOT
DOCKED: BRANCH   6  30
DOCKED: ATOM     30  C   UNL d   1      29.709  42.507   2.871 -0.25 +0.02    +0.052 C 
DOCKED: BRANCH  30  31
DOCKED: ATOM     31  C   UNL d   1      31.226  42.658   2.875 -0.28 +0.06    +0.115 C 
DOCKED: BRANCH  31  32
DOCKED: ATOM     32  C   UNL d   1      31.639  43.839   2.040 -0.20 +0.16    +0.139 C 
DOCKED: ATOM     33  O   UNL d   1      32.238  43.678   0.986 +0.00 -1.02    -0.650 OA
DOCKED: BRANCH  32  34
DOCKED: ATOM     34  O   UNL d   1      31.353  45.087   2.448 -0.04 -0.78    -0.776 OA
DOCKED: ATOM     35  H   UNL d   1      31.676  45.836   1.929 -0.29 +0.20    +0.167 HD
DOCKED: ENDBRANCH  32  34
DOCKED: ENDBRANCH  31  32
DOCKED: ENDBRANCH  30  31
DOCKED: ENDBRANCH   6  30
DOCKED: BRANCH  22  36
DOCKED: ATOM     36  C   UNL d   1      29.552  44.741  -2.120 -0.04 +0.02    +0.052 C 
DOCKED: BRANCH  36  37
DOCKED: ATOM     37  C   UNL d   1      31.004  44.480  -1.747 -0.05 +0.06    +0.115 C 
DOCKED: BRANCH  37  38
DOCKED: ATOM     38  C   UNL d   1      31.722  45.765  -1.446 -0.12 +0.11    +0.139 C 
DOCKED: ATOM     39  O   UNL d   1      31.979  46.562  -2.337 -0.01 -0.34    -0.650 OA
DOCKED: BRANCH  38  40
DOCKED: ATOM     40  O   UNL d   1      32.092  46.047  -0.184 -0.36 -1.29    -0.776 OA
DOCKED: ATOM     41  H   UNL d   1      31.591  45.665   0.549 -0.01 +0.24    +0.167 HD
DOCKED: ENDBRANCH  38  40
DOCKED: ENDBRANCH  37  38
DOCKED: ENDBRANCH  36  37
DOCKED: ENDBRANCH  22  36
DOCKED: BRANCH  12  42
DOCKED: ATOM     42  C   UNL d   1      27.174  33.826  -0.914 -0.19 +0.00    +0.004 C 
DOCKED: ATOM     43  C   UNL d   1      25.949  33.431  -1.286 -0.23 +0.00    +0.012 C 
DOCKED: ENDBRANCH  12  42
DOCKED: BRANCH  17  44
DOCKED: ATOM     44  C   UNL d   1      25.538  39.364  -6.423 -0.15 +0.00    +0.004 C 
DOCKED: ATOM     45  C   UNL d   1      24.497  40.203  -6.444 -0.14 +0.00    +0.012 C 
DOCKED: ENDBRANCH  17  44
DOCKED: TORSDOF 10
DOCKED: TER
DOCKED: ENDMDL
________________________________________________________________________________


	BEGINNING GENETIC ALGORITHM DOCKING 44 of 100
Run: 44 Seed: 35406875 1908973391 [ Run 44 of 100 GA/GALS ]
Beginning LAMARCKIAN GENETIC ALGORITHM (LGA), with a maximum of 25000000 energy evaluations.

Final-Value: -16.831


	FINAL GENETIC ALGORITHM DOCKED STATE
	_______________________________________________


Detailed state:  trans 41.469 28.739 16.939 quatxyzw -0.135732 -0.933340 -0.074938 0.323785 center -0.174 -0.001 -0.047 ntor 10 44.7385 70.3442 44.4949 -117.7999 -38.7719 -85.9879 13.4346 -0.7941 -179.4705 21.2232
State:	 41.469  28.739  16.939  -0.143 -0.986 -0.079 142.216     44.74   70.34   44.49 -117.80  -38.77  -85.99   13.43   -0.79 -179.47   21.22

DOCKED: MODEL       44
DOCKED: USER    Run = 44
DOCKED: USER    DPF = D:/Protein_go_brrr/autodock/final/2DN3/heme_Fe/dock.dpf
DOCKED: USER  
DOCKED: USER    Estimated Free Energy of Binding    =  -13.45 kcal/mol  [=(1)+(2)+(3)-(4)]
DOCKED: USER    Estimated Inhibition Constant, Ki   =  138.29 pM (picomolar)  [Temperature = 298.15 K]
DOCKED: USER    
DOCKED: USER    (1) Final Intermolecular Energy     =  -16.43 kcal/mol
DOCKED: USER        vdW + Hbond + desolv Energy     =  -13.64 kcal/mol
DOCKED: USER        Electrostatic Energy            =   -2.79 kcal/mol
DOCKED: USER    (2) Final Total Internal Energy     =   -0.40 kcal/mol
DOCKED: USER    (3) Torsional Free Energy           =   +2.98 kcal/mol
DOCKED: USER    (4) Unbound System's Energy  [=(2)] =   -0.40 kcal/mol
DOCKED: USER    
DOCKED: USER    
DOCKED: USER    NEWDPF move heme_Fe_opt.pdbqt
DOCKED: USER    NEWDPF about -0.174000 -0.001000 -0.047000
DOCKED: USER    NEWDPF tran0 41.469253 28.739356 16.938516
DOCKED: USER    NEWDPF quaternion0 -0.135732 -0.933340 -0.074938 0.323785
DOCKED: USER    NEWDPF axisangle0 -0.143460 -0.986481 -0.079205 142.216019
DOCKED: USER    NEWDPF quat0 -0.143460 -0.986481 -0.079205 142.216019
DOCKED: USER    NEWDPF dihe0 44.74 70.34 44.49 -117.80 -38.77 -85.99 13.43 -0.79 -179.47 21.22 
DOCKED: USER  keepresnum = 1 
DOCKED: USER  
DOCKED: REMARK  10 active torsions:
DOCKED: REMARK  status: ('A' for Active; 'I' for Inactive)
DOCKED: REMARK    1  A    between atoms: C_6  and  C_10 
DOCKED: REMARK    2  A    between atoms: C_10  and  C_11 
DOCKED: REMARK    3  A    between atoms: C_11  and  C_12 
DOCKED: REMARK    4  A    between atoms: C_12  and  O_14 
DOCKED: REMARK    5  A    between atoms: C_17  and  C_20 
DOCKED: REMARK    6  A    between atoms: C_24  and  C_27 
DOCKED: REMARK    7  A    between atoms: C_31  and  C_34 
DOCKED: REMARK    8  A    between atoms: C_34  and  C_35 
DOCKED: REMARK    9  A    between atoms: C_35  and  C_36 
DOCKED: REMARK   10  A    between atoms: C_36  and  O_38 
DOCKED: USER                              x       y       z     vdW  Elec       q    Type
DOCKED: USER                           _______ _______ _______ _____ _____    ______ ____
DOCKED: ROOT
DOCKED: ATOM      1  C   UNL d   1      43.282  28.113  17.668 -0.19 +0.02    +0.064 C 
DOCKED: ATOM      2  C   UNL d   1      39.728  26.040  14.928 -0.39 +0.01    +0.064 A 
DOCKED: ATOM      3  C   UNL d   1      37.861  30.401  14.175 -0.38 +0.01    +0.064 C 
DOCKED: ATOM      4  C   UNL d   1      41.231  32.416  16.909 -0.48 +0.01    +0.064 C 
DOCKED: ATOM      5  C   UNL d   1      42.407  27.116  17.035 -0.32 +0.02    +0.066 A 
DOCKED: ATOM      6  C   UNL d   1      42.569  25.744  17.135 -0.34 -0.01    -0.021 A 
DOCKED: ATOM      7  C   UNL d   1      41.584  25.169  16.371 -0.39 -0.01    -0.025 A 
DOCKED: ATOM      8  C   UNL d   1      40.857  26.214  15.834 -0.36 +0.02    +0.066 A 
DOCKED: ATOM      9  C   UNL d   1      41.351  23.701  16.190 -0.52 +0.01    +0.051 C 
DOCKED: ATOM     10  C   UNL d   1      38.975  27.028  14.442 -0.36 +0.01    +0.066 A 
DOCKED: ATOM     11  C   UNL d   1      37.973  26.839  13.487 -0.44 -0.00    -0.021 A 
DOCKED: ATOM     12  C   UNL d   1      37.430  28.085  13.240 -0.46 +0.00    +0.000 A 
DOCKED: ATOM     13  C   UNL d   1      38.142  28.978  14.059 -0.31 +0.01    +0.070 A 
DOCKED: ATOM     14  C   UNL d   1      37.596  25.547  12.792 -0.48 +0.01    +0.052 C 
DOCKED: ATOM     15  C   UNL d   1      38.577  31.274  14.923 -0.35 +0.01    +0.066 A 
DOCKED: ATOM     16  C   UNL d   1      38.216  32.605  15.086 -0.37 -0.00    -0.021 A 
DOCKED: ATOM     17  C   UNL d   1      39.189  33.190  15.871 -0.40 +0.00    +0.000 A 
DOCKED: ATOM     18  C   UNL d   1      40.123  32.199  16.166 -0.38 +0.01    +0.070 A 
DOCKED: ATOM     19  C   UNL d   1      37.019  33.310  14.507 -0.34 +0.00    +0.052 C 
DOCKED: ATOM     20  C   UNL d   1      42.203  31.385  17.290 -0.37 +0.02    +0.066 A 
DOCKED: ATOM     21  C   UNL d   1      43.450  31.628  17.885 -0.31 -0.01    -0.025 A 
DOCKED: ATOM     22  C   UNL d   1      44.012  30.387  18.104 -0.30 -0.01    -0.021 A 
DOCKED: ATOM     23  C   UNL d   1      43.094  29.441  17.631 -0.24 +0.02    +0.066 A 
DOCKED: ATOM     24  C   UNL d   1      44.088  32.953  18.229 -0.20 +0.01    +0.051 C 
DOCKED: ATOM     25  N   UNL d   1      41.354  27.397  16.247 -0.26 -0.08    -0.248 N 
DOCKED: ATOM     26  N   UNL d   1      39.090  28.336  14.785 -0.09 -0.07    -0.248 N 
DOCKED: ATOM     27  N   UNL d   1      39.725  31.011  15.620 -0.10 -0.07    -0.248 N 
DOCKED: ATOM     28  N   UNL d   1      42.013  30.058  17.095 -0.23 -0.08    -0.248 N 
DOCKED: ATOM     29 FE   UNL d   1      40.552  29.199  15.941 -0.08 +0.00    +0.000 Fe
DOCKED: ENDROOT
DOCKED: BRANCH   6  30
DOCKED: ATOM     30  C   UNL d   1      43.594  25.013  17.933 -0.33 +0.02    +0.052 C 
DOCKED: BRANCH  30  31
DOCKED: ATOM     31  C   UNL d   1      44.849  24.766  17.103 -0.18 +0.07    +0.115 C 
DOCKED: BRANCH  31  32
DOCKED: ATOM     32  C   UNL d   1      45.738  23.761  17.781 -0.22 +0.12    +0.139 C 
DOCKED: ATOM     33  O   UNL d   1      45.876  23.769  18.996 +0.00 -0.43    -0.650 OA
DOCKED: BRANCH  32  34
DOCKED: ATOM     34  O   UNL d   1      46.392  22.840  17.053 -0.10 -1.48    -0.776 OA
DOCKED: ATOM     35  H   UNL d   1      46.400  21.921  17.356 +0.04 +0.29    +0.167 HD
DOCKED: ENDBRANCH  32  34
DOCKED: ENDBRANCH  31  32
DOCKED: ENDBRANCH  30  31
DOCKED: ENDBRANCH   6  30
DOCKED: BRANCH  22  36
DOCKED: ATOM     36  C   UNL d   1      45.375  30.130  18.690 -0.24 +0.02    +0.052 C 
DOCKED: BRANCH  36  37
DOCKED: ATOM     37  C   UNL d   1      45.237  29.348  19.988 -0.20 +0.09    +0.115 C 
DOCKED: BRANCH  37  38
DOCKED: ATOM     38  C   UNL d   1      46.584  29.042  20.578 -0.13 +0.15    +0.139 C 
DOCKED: ATOM     39  O   UNL d   1      47.208  28.049  20.231 -0.02 -0.52    -0.650 OA
DOCKED: BRANCH  38  40
DOCKED: ATOM     40  O   UNL d   1      47.115  29.862  21.502 -0.43 -1.18    -0.776 OA
DOCKED: ATOM     41  H   UNL d   1      47.881  30.403  21.266 +0.02 +0.14    +0.167 HD
DOCKED: ENDBRANCH  38  40
DOCKED: ENDBRANCH  37  38
DOCKED: ENDBRANCH  36  37
DOCKED: ENDBRANCH  22  36
DOCKED: BRANCH  12  42
DOCKED: ATOM     42  C   UNL d   1      36.325  28.360  12.270 -0.67 +0.00    +0.004 C 
DOCKED: ATOM     43  C   UNL d   1      35.046  28.361  12.665 -0.63 +0.00    +0.012 C 
DOCKED: ENDBRANCH  12  42
DOCKED: BRANCH  17  44
DOCKED: ATOM     44  C   UNL d   1      39.211  34.598  16.327 -0.51 +0.00    +0.004 C 
DOCKED: ATOM     45  C   UNL d   1      39.313  35.600  15.449 -0.56 +0.00    +0.012 C 
DOCKED: ENDBRANCH  17  44
DOCKED: TORSDOF 10
DOCKED: TER
DOCKED: ENDMDL
________________________________________________________________________________


	BEGINNING GENETIC ALGORITHM DOCKING 45 of 100
Run: 45 Seed: 1056435239 1263840830 [ Run 45 of 100 GA/GALS ]
Beginning LAMARCKIAN GENETIC ALGORITHM (LGA), with a maximum of 25000000 energy evaluations.

Final-Value: -16.908


	FINAL GENETIC ALGORITHM DOCKED STATE
	_______________________________________________


Detailed state:  trans 41.264 29.014 16.842 quatxyzw -0.113841 -0.935156 -0.062963 0.329484 center -0.174 -0.001 -0.047 ntor 10 -41.3410 50.0282 80.6907 -139.1418 -1.8332 -160.3357 25.0400 -2.8719 169.2892 23.2321
State:	 41.264  29.014  16.842  -0.121 -0.990 -0.067 141.525    -41.34   50.03   80.69 -139.14   -1.83 -160.34   25.04   -2.87  169.29   23.23

DOCKED: MODEL       45
DOCKED: USER    Run = 45
DOCKED: USER    DPF = D:/Protein_go_brrr/autodock/final/2DN3/heme_Fe/dock.dpf
DOCKED: USER  
DOCKED: USER    Estimated Free Energy of Binding    =  -13.43 kcal/mol  [=(1)+(2)+(3)-(4)]
DOCKED: USER    Estimated Inhibition Constant, Ki   =  143.79 pM (picomolar)  [Temperature = 298.15 K]
DOCKED: USER    
DOCKED: USER    (1) Final Intermolecular Energy     =  -16.41 kcal/mol
DOCKED: USER        vdW + Hbond + desolv Energy     =  -13.79 kcal/mol
DOCKED: USER        Electrostatic Energy            =   -2.62 kcal/mol
DOCKED: USER    (2) Final Total Internal Energy     =   -0.50 kcal/mol
DOCKED: USER    (3) Torsional Free Energy           =   +2.98 kcal/mol
DOCKED: USER    (4) Unbound System's Energy  [=(2)] =   -0.50 kcal/mol
DOCKED: USER    
DOCKED: USER    
DOCKED: USER    NEWDPF move heme_Fe_opt.pdbqt
DOCKED: USER    NEWDPF about -0.174000 -0.001000 -0.047000
DOCKED: USER    NEWDPF tran0 41.264381 29.014070 16.842196
DOCKED: USER    NEWDPF quaternion0 -0.113841 -0.935156 -0.062963 0.329484
DOCKED: USER    NEWDPF axisangle0 -0.120574 -0.990462 -0.066686 141.525048
DOCKED: USER    NEWDPF quat0 -0.120574 -0.990462 -0.066686 141.525048
DOCKED: USER    NEWDPF dihe0 -41.34 50.03 80.69 -139.14 -1.83 -160.34 25.04 -2.87 169.29 23.23 
DOCKED: USER  keepresnum = 1 
DOCKED: USER  
DOCKED: REMARK  10 active torsions:
DOCKED: REMARK  status: ('A' for Active; 'I' for Inactive)
DOCKED: REMARK    1  A    between atoms: C_6  and  C_10 
DOCKED: REMARK    2  A    between atoms: C_10  and  C_11 
DOCKED: REMARK    3  A    between atoms: C_11  and  C_12 
DOCKED: REMARK    4  A    between atoms: C_12  and  O_14 
DOCKED: REMARK    5  A    between atoms: C_17  and  C_20 
DOCKED: REMARK    6  A    between atoms: C_24  and  C_27 
DOCKED: REMARK    7  A    between atoms: C_31  and  C_34 
DOCKED: REMARK    8  A    between atoms: C_34  and  C_35 
DOCKED: REMARK    9  A    between atoms: C_35  and  C_36 
DOCKED: REMARK   10  A    between atoms: C_36  and  O_38 
DOCKED: USER                              x       y       z     vdW  Elec       q    Type
DOCKED: USER                           _______ _______ _______ _____ _____    ______ ____
DOCKED: ROOT
DOCKED: ATOM      1  C   UNL d   1      43.089  28.476  17.611 -0.15 +0.02    +0.064 C 
DOCKED: ATOM      2  C   UNL d   1      39.633  26.184  14.922 -0.39 +0.01    +0.064 A 
DOCKED: ATOM      3  C   UNL d   1      37.632  30.449  13.985 -0.28 +0.01    +0.064 C 
DOCKED: ATOM      4  C   UNL d   1      40.906  32.677  16.669 -0.48 +0.01    +0.064 C 
DOCKED: ATOM      5  C   UNL d   1      42.253  27.428  17.010 -0.30 +0.02    +0.066 A 
DOCKED: ATOM      6  C   UNL d   1      42.459  26.066  17.164 -0.35 -0.01    -0.021 A 
DOCKED: ATOM      7  C   UNL d   1      41.501  25.431  16.414 -0.39 -0.01    -0.025 A 
DOCKED: ATOM      8  C   UNL d   1      40.746  26.430  15.830 -0.38 +0.02    +0.066 A 
DOCKED: ATOM      9  C   UNL d   1      41.318  23.949  16.288 -0.51 +0.01    +0.051 C 
DOCKED: ATOM     10  C   UNL d   1      38.853  27.127  14.391 -0.36 +0.01    +0.066 A 
DOCKED: ATOM     11  C   UNL d   1      37.867  26.870  13.435 -0.43 -0.00    -0.021 A 
DOCKED: ATOM     12  C   UNL d   1      37.286  28.086  13.136 -0.47 +0.00    +0.000 A 
DOCKED: ATOM     13  C   UNL d   1      37.960  29.033  13.926 -0.35 +0.01    +0.070 A 
DOCKED: ATOM     14  C   UNL d   1      37.540  25.540  12.788 -0.49 +0.01    +0.052 C 
DOCKED: ATOM     15  C   UNL d   1      38.311  31.373  14.705 -0.33 +0.01    +0.066 A 
DOCKED: ATOM     16  C   UNL d   1      37.906  32.697  14.814 -0.37 -0.00    -0.021 A 
DOCKED: ATOM     17  C   UNL d   1      38.851  33.343  15.584 -0.44 +0.00    +0.000 A 
DOCKED: ATOM     18  C   UNL d   1      39.814  32.396  15.925 -0.37 +0.01    +0.070 A 
DOCKED: ATOM     19  C   UNL d   1      36.693  33.340  14.197 -0.34 +0.00    +0.052 C 
DOCKED: ATOM     20  C   UNL d   1      41.908  31.694  17.099 -0.39 +0.01    +0.066 A 
DOCKED: ATOM     21  C   UNL d   1      43.140  32.000  17.694 -0.27 -0.01    -0.025 A 
DOCKED: ATOM     22  C   UNL d   1      43.740  30.788  17.966 -0.32 -0.01    -0.021 A 
DOCKED: ATOM     23  C   UNL d   1      42.859  29.795  17.522 -0.30 +0.02    +0.066 A 
DOCKED: ATOM     24  C   UNL d   1      43.732  33.358  17.993 -0.22 +0.01    +0.051 C 
DOCKED: ATOM     25  N   UNL d   1      41.200  27.643  16.202 -0.25 -0.08    -0.248 N 
DOCKED: ATOM     26  N   UNL d   1      38.921  28.451  14.685 -0.05 -0.07    -0.248 N 
DOCKED: ATOM     27  N   UNL d   1      39.461  31.175  15.422 -0.19 -0.05    -0.248 N 
DOCKED: ATOM     28  N   UNL d   1      41.763  30.355  16.953 -0.21 -0.08    -0.248 N 
DOCKED: ATOM     29 FE   UNL d   1      40.342  29.405  15.819 -0.08 +0.00    +0.000 Fe
DOCKED: ENDROOT
DOCKED: BRANCH   6  30
DOCKED: ATOM     30  C   UNL d   1      43.499  25.401  17.998 -0.33 +0.02    +0.052 C 
DOCKED: BRANCH  30  31
DOCKED: ATOM     31  C   UNL d   1      44.657  24.914  17.133 -0.20 +0.07    +0.115 C 
DOCKED: BRANCH  31  32
DOCKED: ATOM     32  C   UNL d   1      45.365  23.767  17.798 -0.23 +0.11    +0.139 C 
DOCKED: ATOM     33  O   UNL d   1      45.014  23.373  18.901 -0.10 -0.40    -0.650 OA
DOCKED: BRANCH  32  34
DOCKED: ATOM     34  O   UNL d   1      46.396  23.163  17.183 -0.19 -1.27    -0.776 OA
DOCKED: ATOM     35  H   UNL d   1      47.174  22.916  17.703 +0.03 +0.25    +0.167 HD
DOCKED: ENDBRANCH  32  34
DOCKED: ENDBRANCH  31  32
DOCKED: ENDBRANCH  30  31
DOCKED: ENDBRANCH   6  30
DOCKED: BRANCH  22  36
DOCKED: ATOM     36  C   UNL d   1      45.105  30.599  18.573 -0.26 +0.02    +0.052 C 
DOCKED: BRANCH  36  37
DOCKED: ATOM     37  C   UNL d   1      44.984  29.819  19.875 -0.24 +0.08    +0.115 C 
DOCKED: BRANCH  37  38
DOCKED: ATOM     38  C   UNL d   1      46.338  29.536  20.460 -0.15 +0.14    +0.139 C 
DOCKED: ATOM     39  O   UNL d   1      46.490  28.644  21.282 -0.40 -1.15    -0.650 OA
DOCKED: BRANCH  38  40
DOCKED: ATOM     40  O   UNL d   1      47.400  30.270  20.083 +0.01 -0.49    -0.776 OA
DOCKED: ATOM     41  H   UNL d   1      48.210  29.818  19.807 +0.03 +0.09    +0.167 HD
DOCKED: ENDBRANCH  38  40
DOCKED: ENDBRANCH  37  38
DOCKED: ENDBRANCH  36  37
DOCKED: ENDBRANCH  22  36
DOCKED: BRANCH  12  42
DOCKED: ATOM     42  C   UNL d   1      36.183  28.288  12.146 -0.69 +0.00    +0.004 C 
DOCKED: ATOM     43  C   UNL d   1      35.070  28.953  12.481 -0.56 +0.00    +0.012 C 
DOCKED: ENDBRANCH  12  42
DOCKED: BRANCH  17  44
DOCKED: ATOM     44  C   UNL d   1      38.823  34.767  15.986 -0.48 +0.00    +0.004 C 
DOCKED: ATOM     45  C   UNL d   1      39.312  35.716  15.180 -0.58 +0.00    +0.012 C 
DOCKED: ENDBRANCH  17  44
DOCKED: TORSDOF 10
DOCKED: TER
DOCKED: ENDMDL
________________________________________________________________________________


	BEGINNING GENETIC ALGORITHM DOCKING 46 of 100
Run: 46 Seed: 1465433036 1459661254 [ Run 46 of 100 GA/GALS ]
Beginning LAMARCKIAN GENETIC ALGORITHM (LGA), with a maximum of 25000000 energy evaluations.

Final-Value: -16.880


	FINAL GENETIC ALGORITHM DOCKED STATE
	_______________________________________________


Detailed state:  trans 41.496 28.708 16.939 quatxyzw -0.142631 -0.932163 -0.072949 0.324665 center -0.174 -0.001 -0.047 ntor 10 80.6673 123.2969 40.7608 -110.6493 149.7924 -23.5190 17.3850 -36.8074 -177.0271 -53.4092
State:	 41.496  28.708  16.939  -0.151 -0.986 -0.077 142.109     80.67  123.30   40.76 -110.65  149.79  -23.52   17.39  -36.81 -177.03  -53.41

DOCKED: MODEL       46
DOCKED: USER    Run = 46
DOCKED: USER    DPF = D:/Protein_go_brrr/autodock/final/2DN3/heme_Fe/dock.dpf
DOCKED: USER  
DOCKED: USER    Estimated Free Energy of Binding    =  -13.63 kcal/mol  [=(1)+(2)+(3)-(4)]
DOCKED: USER    Estimated Inhibition Constant, Ki   =  101.38 pM (picomolar)  [Temperature = 298.15 K]
DOCKED: USER    
DOCKED: USER    (1) Final Intermolecular Energy     =  -16.62 kcal/mol
DOCKED: USER        vdW + Hbond + desolv Energy     =  -13.53 kcal/mol
DOCKED: USER        Electrostatic Energy            =   -3.09 kcal/mol
DOCKED: USER    (2) Final Total Internal Energy     =   -0.26 kcal/mol
DOCKED: USER    (3) Torsional Free Energy           =   +2.98 kcal/mol
DOCKED: USER    (4) Unbound System's Energy  [=(2)] =   -0.26 kcal/mol
DOCKED: USER    
DOCKED: USER    
DOCKED: USER    NEWDPF move heme_Fe_opt.pdbqt
DOCKED: USER    NEWDPF about -0.174000 -0.001000 -0.047000
DOCKED: USER    NEWDPF tran0 41.495958 28.708430 16.939402
DOCKED: USER    NEWDPF quaternion0 -0.142631 -0.932163 -0.072949 0.324665
DOCKED: USER    NEWDPF axisangle0 -0.150800 -0.985551 -0.077127 142.109426
DOCKED: USER    NEWDPF quat0 -0.150800 -0.985551 -0.077127 142.109426
DOCKED: USER    NEWDPF dihe0 80.67 123.30 40.76 -110.65 149.79 -23.52 17.39 -36.81 -177.03 -53.41 
DOCKED: USER  keepresnum = 1 
DOCKED: USER  
DOCKED: REMARK  10 active torsions:
DOCKED: REMARK  status: ('A' for Active; 'I' for Inactive)
DOCKED: REMARK    1  A    between atoms: C_6  and  C_10 
DOCKED: REMARK    2  A    between atoms: C_10  and  C_11 
DOCKED: REMARK    3  A    between atoms: C_11  and  C_12 
DOCKED: REMARK    4  A    between atoms: C_12  and  O_14 
DOCKED: REMARK    5  A    between atoms: C_17  and  C_20 
DOCKED: REMARK    6  A    between atoms: C_24  and  C_27 
DOCKED: REMARK    7  A    between atoms: C_31  and  C_34 
DOCKED: REMARK    8  A    between atoms: C_34  and  C_35 
DOCKED: REMARK    9  A    between atoms: C_35  and  C_36 
DOCKED: REMARK   10  A    between atoms: C_36  and  O_38 
DOCKED: USER                              x       y       z     vdW  Elec       q    Type
DOCKED: USER                           _______ _______ _______ _____ _____    ______ ____
DOCKED: ROOT
DOCKED: ATOM      1  C   UNL d   1      43.299  28.055  17.670 -0.20 +0.02    +0.064 C 
DOCKED: ATOM      2  C   UNL d   1      39.717  26.036  14.926 -0.39 +0.01    +0.064 A 
DOCKED: ATOM      3  C   UNL d   1      37.915  30.424  14.174 -0.40 +0.01    +0.064 C 
DOCKED: ATOM      4  C   UNL d   1      41.311  32.388  16.912 -0.48 +0.01    +0.064 C 
DOCKED: ATOM      5  C   UNL d   1      42.410  27.072  17.036 -0.32 +0.02    +0.066 A 
DOCKED: ATOM      6  C   UNL d   1      42.552  25.697  17.135 -0.34 -0.01    -0.021 A 
DOCKED: ATOM      7  C   UNL d   1      41.559  25.138  16.370 -0.40 -0.01    -0.025 A 
DOCKED: ATOM      8  C   UNL d   1      40.848  26.193  15.832 -0.36 +0.02    +0.066 A 
DOCKED: ATOM      9  C   UNL d   1      41.305  23.673  16.188 -0.51 +0.01    +0.051 C 
DOCKED: ATOM     10  C   UNL d   1      38.979  27.035  14.439 -0.36 +0.01    +0.066 A 
DOCKED: ATOM     11  C   UNL d   1      37.975  26.862  13.483 -0.44 -0.00    -0.021 A 
DOCKED: ATOM     12  C   UNL d   1      37.451  28.115  13.237 -0.46 +0.00    +0.000 A 
DOCKED: ATOM     13  C   UNL d   1      38.175  28.998  14.057 -0.31 +0.01    +0.070 A 
DOCKED: ATOM     14  C   UNL d   1      37.580  25.576  12.787 -0.48 +0.01    +0.052 C 
DOCKED: ATOM     15  C   UNL d   1      38.642  31.286  14.923 -0.35 +0.01    +0.066 A 
DOCKED: ATOM     16  C   UNL d   1      38.302  32.623  15.087 -0.38 -0.00    -0.021 A 
DOCKED: ATOM     17  C   UNL d   1      39.282  33.192  15.874 -0.42 +0.00    +0.000 A 
DOCKED: ATOM     18  C   UNL d   1      40.201  32.188  16.168 -0.38 +0.01    +0.070 A 
DOCKED: ATOM     19  C   UNL d   1      37.115  33.346  14.507 -0.38 +0.00    +0.052 C 
DOCKED: ATOM     20  C   UNL d   1      42.268  31.343  17.294 -0.37 +0.02    +0.066 A 
DOCKED: ATOM     21  C   UNL d   1      43.518  31.567  17.890 -0.30 -0.01    -0.025 A 
DOCKED: ATOM     22  C   UNL d   1      44.061  30.318  18.108 -0.30 -0.01    -0.021 A 
DOCKED: ATOM     23  C   UNL d   1      43.130  29.386  17.634 -0.24 +0.02    +0.066 A 
DOCKED: ATOM     24  C   UNL d   1      44.175  32.883  18.235 -0.18 +0.01    +0.051 C 
DOCKED: ATOM     25  N   UNL d   1      41.362  27.368  16.247 -0.26 -0.08    -0.248 N 
DOCKED: ATOM     26  N   UNL d   1      39.112  28.341  14.784 -0.09 -0.07    -0.248 N 
DOCKED: ATOM     27  N   UNL d   1      39.787  31.006  15.621 -0.07 -0.07    -0.248 N 
DOCKED: ATOM     28  N   UNL d   1      42.059  30.019  17.097 -0.23 -0.08    -0.248 N 
DOCKED: ATOM     29 FE   UNL d   1      40.586  29.182  15.941 -0.08 +0.00    +0.000 Fe
DOCKED: ENDROOT
DOCKED: BRANCH   6  30
DOCKED: ATOM     30  C   UNL d   1      43.566  24.951  17.933 -0.33 +0.02    +0.052 C 
DOCKED: BRANCH  30  31
DOCKED: ATOM     31  C   UNL d   1      44.840  24.739  17.124 -0.18 +0.07    +0.115 C 
DOCKED: BRANCH  31  32
DOCKED: ATOM     32  C   UNL d   1      45.678  23.652  17.739 -0.22 +0.12    +0.139 C 
DOCKED: ATOM     33  O   UNL d   1      46.398  22.950  17.042 -0.19 -1.21    -0.650 OA
DOCKED: BRANCH  32  34
DOCKED: ATOM     34  O   UNL d   1      45.643  23.441  19.065 +0.02 -0.50    -0.776 OA
DOCKED: ATOM     35  H   UNL d   1      46.349  23.807  19.617 +0.05 +0.10    +0.167 HD
DOCKED: ENDBRANCH  32  34
DOCKED: ENDBRANCH  31  32
DOCKED: ENDBRANCH  30  31
DOCKED: ENDBRANCH   6  30
DOCKED: BRANCH  22  36
DOCKED: ATOM     36  C   UNL d   1      45.420  30.041  18.695 -0.23 +0.02    +0.052 C 
DOCKED: BRANCH  36  37
DOCKED: ATOM     37  C   UNL d   1      45.658  30.950  19.892 -0.20 +0.07    +0.115 C 
DOCKED: BRANCH  37  38
DOCKED: ATOM     38  C   UNL d   1      46.401  30.226  20.979 +0.17 +0.17    +0.139 C 
DOCKED: ATOM     39  O   UNL d   1      46.367  29.007  21.055 -0.35 -1.06    -0.650 OA
DOCKED: BRANCH  38  40
DOCKED: ATOM     40  O   UNL d   1      47.111  30.922  21.884 -0.16 -0.90    -0.776 OA
DOCKED: ATOM     41  H   UNL d   1      47.808  31.519  21.577 +0.02 +0.11    +0.167 HD
DOCKED: ENDBRANCH  38  40
DOCKED: ENDBRANCH  37  38
DOCKED: ENDBRANCH  36  37
DOCKED: ENDBRANCH  22  36
DOCKED: BRANCH  12  42
DOCKED: ATOM     42  C   UNL d   1      36.351  28.408  12.266 -0.67 +0.00    +0.004 C 
DOCKED: ATOM     43  C   UNL d   1      35.067  28.355  12.643 -0.65 +0.00    +0.012 C 
DOCKED: ENDBRANCH  12  42
DOCKED: BRANCH  17  44
DOCKED: ATOM     44  C   UNL d   1      39.324  34.600  16.330 -0.55 +0.00    +0.004 C 
DOCKED: ATOM     45  C   UNL d   1      39.299  35.606  15.451 -0.56 +0.00    +0.012 C 
DOCKED: ENDBRANCH  17  44
DOCKED: TORSDOF 10
DOCKED: TER
DOCKED: ENDMDL
________________________________________________________________________________


	BEGINNING GENETIC ALGORITHM DOCKING 47 of 100
Run: 47 Seed: 1345982782 207044371 [ Run 47 of 100 GA/GALS ]
Beginning LAMARCKIAN GENETIC ALGORITHM (LGA), with a maximum of 25000000 energy evaluations.

Final-Value: -12.730


	FINAL GENETIC ALGORITHM DOCKED STATE
	_______________________________________________


Detailed state:  trans 44.650 22.816 18.339 quatxyzw 0.100036 -0.899970 -0.097925 0.412865 center -0.174 -0.001 -0.047 ntor 10 158.1116 179.2267 2.1338 170.6062 97.4997 -119.3149 175.5088 -165.0858 -170.3255 -28.8656
State:	 44.650  22.816  18.339   0.110 -0.988 -0.108 131.230    158.11  179.23    2.13  170.61   97.50 -119.31  175.51 -165.09 -170.33  -28.87

DOCKED: MODEL       47
DOCKED: USER    Run = 47
DOCKED: USER    DPF = D:/Protein_go_brrr/autodock/final/2DN3/heme_Fe/dock.dpf
DOCKED: USER  
DOCKED: USER    Estimated Free Energy of Binding    =   -9.44 kcal/mol  [=(1)+(2)+(3)-(4)]
DOCKED: USER    Estimated Inhibition Constant, Ki   =  120.55 nM (nanomolar)  [Temperature = 298.15 K]
DOCKED: USER    
DOCKED: USER    (1) Final Intermolecular Energy     =  -12.42 kcal/mol
DOCKED: USER        vdW + Hbond + desolv Energy     =   -9.62 kcal/mol
DOCKED: USER        Electrostatic Energy            =   -2.80 kcal/mol
DOCKED: USER    (2) Final Total Internal Energy     =   -0.31 kcal/mol
DOCKED: USER    (3) Torsional Free Energy           =   +2.98 kcal/mol
DOCKED: USER    (4) Unbound System's Energy  [=(2)] =   -0.31 kcal/mol
DOCKED: USER    
DOCKED: USER    
DOCKED: USER    NEWDPF move heme_Fe_opt.pdbqt
DOCKED: USER    NEWDPF about -0.174000 -0.001000 -0.047000
DOCKED: USER    NEWDPF tran0 44.649717 22.815619 18.339409
DOCKED: USER    NEWDPF quaternion0 0.100036 -0.899970 -0.097925 0.412865
DOCKED: USER    NEWDPF axisangle0 0.109834 -0.988118 -0.107516 131.230087
DOCKED: USER    NEWDPF quat0 0.109834 -0.988118 -0.107516 131.230087
DOCKED: USER    NEWDPF dihe0 158.11 179.23 2.13 170.61 97.50 -119.31 175.51 -165.09 -170.33 -28.87 
DOCKED: USER  keepresnum = 1 
DOCKED: USER  
DOCKED: REMARK  10 active torsions:
DOCKED: REMARK  status: ('A' for Active; 'I' for Inactive)
DOCKED: REMARK    1  A    between atoms: C_6  and  C_10 
DOCKED: REMARK    2  A    between atoms: C_10  and  C_11 
DOCKED: REMARK    3  A    between atoms: C_11  and  C_12 
DOCKED: REMARK    4  A    between atoms: C_12  and  O_14 
DOCKED: REMARK    5  A    between atoms: C_17  and  C_20 
DOCKED: REMARK    6  A    between atoms: C_24  and  C_27 
DOCKED: REMARK    7  A    between atoms: C_31  and  C_34 
DOCKED: REMARK    8  A    between atoms: C_34  and  C_35 
DOCKED: REMARK    9  A    between atoms: C_35  and  C_36 
DOCKED: REMARK   10  A    between atoms: C_36  and  O_38 
DOCKED: USER                              x       y       z     vdW  Elec       q    Type
DOCKED: USER                           _______ _______ _______ _____ _____    ______ ____
DOCKED: ROOT
DOCKED: ATOM      1  C   UNL d   1      46.316  23.093  19.504 -0.16 +0.04    +0.064 C 
DOCKED: ATOM      2  C   UNL d   1      44.709  19.486  16.532 -0.20 +0.04    +0.064 A 
DOCKED: ATOM      3  C   UNL d   1      41.494  22.537  14.682 -0.34 +0.01    +0.064 C 
DOCKED: ATOM      4  C   UNL d   1      42.963  26.012  17.623 -0.34 +0.02    +0.064 C 
DOCKED: ATOM      5  C   UNL d   1      46.106  21.771  18.898 -0.16 +0.05    +0.066 A 
DOCKED: ATOM      6  C   UNL d   1      46.778  20.617  19.265 -0.16 -0.01    -0.021 A 
DOCKED: ATOM      7  C   UNL d   1      46.334  19.616  18.437 -0.17 -0.02    -0.025 A 
DOCKED: ATOM      8  C   UNL d   1      45.407  20.199  17.595 -0.20 +0.05    +0.066 A 
DOCKED: ATOM      9  C   UNL d   1      46.767  18.183  18.473 -0.09 +0.02    +0.051 C 
DOCKED: ATOM     10  C   UNL d   1      43.769  20.010  15.743 -0.26 +0.03    +0.066 A 
DOCKED: ATOM     11  C   UNL d   1      43.202  19.335  14.660 -0.27 -0.01    -0.021 A 
DOCKED: ATOM     12  C   UNL d   1      42.283  20.200  14.099 -0.42 +0.00    +0.000 A 
DOCKED: ATOM     13  C   UNL d   1      42.344  21.372  14.872 -0.21 +0.01    +0.070 A 
DOCKED: ATOM     14  C   UNL d   1      43.566  17.959  14.142 -0.14 +0.01    +0.052 C 
DOCKED: ATOM     15  C   UNL d   1      41.584  23.687  15.390 -0.42 +0.02    +0.066 A 
DOCKED: ATOM     16  C   UNL d   1      40.689  24.739  15.246 -0.49 -0.00    -0.021 A 
DOCKED: ATOM     17  C   UNL d   1      41.113  25.744  16.091 -0.36 +0.00    +0.000 A 
DOCKED: ATOM     18  C   UNL d   1      42.261  25.282  16.729 -0.27 +0.02    +0.070 A 
DOCKED: ATOM     19  C   UNL d   1      39.496  24.810  14.331 -0.54 +0.01    +0.052 C 
DOCKED: ATOM     20  C   UNL d   1      44.140  25.536  18.360 -0.23 +0.03    +0.066 A 
DOCKED: ATOM     21  C   UNL d   1      44.990  26.339  19.134 -0.17 -0.01    -0.025 A 
DOCKED: ATOM     22  C   UNL d   1      45.931  25.485  19.671 -0.12 -0.01    -0.021 A 
DOCKED: ATOM     23  C   UNL d   1      45.623  24.202  19.201 -0.15 +0.04    +0.066 A 
DOCKED: ATOM     24  C   UNL d   1      44.931  27.832  19.359 -0.18 +0.03    +0.051 C 
DOCKED: ATOM     25  N   UNL d   1      45.263  21.508  17.884 -0.16 -0.19    -0.248 N 
DOCKED: ATOM     26  N   UNL d   1      43.256  21.260  15.869 -0.19 -0.09    -0.248 N 
DOCKED: ATOM     27  N   UNL d   1      42.527  24.001  16.332 -0.22 -0.08    -0.248 N 
DOCKED: ATOM     28  N   UNL d   1      44.557  24.247  18.366 -0.14 -0.14    -0.248 N 
DOCKED: ATOM     29 FE   UNL d   1      43.906  22.756  17.118 -0.07 +0.00    +0.000 Fe
DOCKED: ENDROOT
DOCKED: BRANCH   6  30
DOCKED: ATOM     30  C   UNL d   1      47.776  20.465  20.362 -0.09 +0.02    +0.052 C 
DOCKED: BRANCH  30  31
DOCKED: ATOM     31  C   UNL d   1      49.152  20.940  19.909 -0.03 +0.06    +0.115 C 
DOCKED: BRANCH  31  32
DOCKED: ATOM     32  C   UNL d   1      49.125  21.322  18.456 -0.07 +0.14    +0.139 C 
DOCKED: ATOM     33  O   UNL d   1      48.994  22.491  18.121 +0.03 -0.78    -0.650 OA
DOCKED: BRANCH  32  34
DOCKED: ATOM     34  O   UNL d   1      49.245  20.378  17.507 -0.38 -1.08    -0.776 OA
DOCKED: ATOM     35  H   UNL d   1      49.657  19.533  17.736 +0.01 +0.13    +0.167 HD
DOCKED: ENDBRANCH  32  34
DOCKED: ENDBRANCH  31  32
DOCKED: ENDBRANCH  30  31
DOCKED: ENDBRANCH   6  30
DOCKED: BRANCH  22  36
DOCKED: ATOM     36  C   UNL d   1      47.088  25.889  20.546 -0.07 +0.03    +0.052 C 
DOCKED: BRANCH  36  37
DOCKED: ATOM     37  C   UNL d   1      46.570  26.373  21.892 -0.08 +0.13    +0.115 C 
DOCKED: BRANCH  37  38
DOCKED: ATOM     38  C   UNL d   1      45.128  25.994  22.082 -0.20 +0.15    +0.139 C 
DOCKED: ATOM     39  O   UNL d   1      44.272  26.851  22.241 -0.56 -1.07    -0.650 OA
DOCKED: BRANCH  38  40
DOCKED: ATOM     40  O   UNL d   1      44.770  24.697  22.082 -0.05 -0.51    -0.776 OA
DOCKED: ATOM     41  H   UNL d   1      45.448  24.022  21.943 +0.05 +0.09    +0.167 HD
DOCKED: ENDBRANCH  38  40
DOCKED: ENDBRANCH  37  38
DOCKED: ENDBRANCH  36  37
DOCKED: ENDBRANCH  22  36
DOCKED: BRANCH  12  42
DOCKED: ATOM     42  C   UNL d   1      41.442  19.896  12.900 -0.25 +0.00    +0.004 C 
DOCKED: ATOM     43  C   UNL d   1      40.737  18.760  12.823 -0.38 +0.00    +0.012 C 
DOCKED: ENDBRANCH  12  42
DOCKED: BRANCH  17  44
DOCKED: ATOM     44  C   UNL d   1      40.450  27.053  16.290 -0.42 +0.00    +0.004 C 
DOCKED: ATOM     45  C   UNL d   1      41.164  28.183  16.329 -0.30 +0.00    +0.012 C 
DOCKED: ENDBRANCH  17  44
DOCKED: TORSDOF 10
DOCKED: TER
DOCKED: ENDMDL
________________________________________________________________________________


	BEGINNING GENETIC ALGORITHM DOCKING 48 of 100
Run: 48 Seed: 1983357069 1786839468 [ Run 48 of 100 GA/GALS ]
Beginning LAMARCKIAN GENETIC ALGORITHM (LGA), with a maximum of 25000000 energy evaluations.

Final-Value: -17.172


	FINAL GENETIC ALGORITHM DOCKED STATE
	_______________________________________________


Detailed state:  trans 41.620 28.806 16.877 quatxyzw 0.129574 0.940720 0.073135 -0.304808 center -0.174 -0.001 -0.047 ntor 10 112.7856 100.3472 33.9582 -118.2166 -152.8935 -66.1942 42.9598 -61.9961 -155.9104 -14.2273
State:	 41.620  28.806  16.877   0.136  0.988  0.077 -144.507    112.79  100.35   33.96 -118.22 -152.89  -66.19   42.96  -62.00 -155.91  -14.23

DOCKED: MODEL       48
DOCKED: USER    Run = 48
DOCKED: USER    DPF = D:/Protein_go_brrr/autodock/final/2DN3/heme_Fe/dock.dpf
DOCKED: USER  
DOCKED: USER    Estimated Free Energy of Binding    =  -13.60 kcal/mol  [=(1)+(2)+(3)-(4)]
DOCKED: USER    Estimated Inhibition Constant, Ki   =  106.94 pM (picomolar)  [Temperature = 298.15 K]
DOCKED: USER    
DOCKED: USER    (1) Final Intermolecular Energy     =  -16.59 kcal/mol
DOCKED: USER        vdW + Hbond + desolv Energy     =  -13.65 kcal/mol
DOCKED: USER        Electrostatic Energy            =   -2.93 kcal/mol
DOCKED: USER    (2) Final Total Internal Energy     =   -0.59 kcal/mol
DOCKED: USER    (3) Torsional Free Energy           =   +2.98 kcal/mol
DOCKED: USER    (4) Unbound System's Energy  [=(2)] =   -0.59 kcal/mol
DOCKED: USER    
DOCKED: USER    
DOCKED: USER    NEWDPF move heme_Fe_opt.pdbqt
DOCKED: USER    NEWDPF about -0.174000 -0.001000 -0.047000
DOCKED: USER    NEWDPF tran0 41.620285 28.806439 16.876712
DOCKED: USER    NEWDPF quaternion0 0.129574 0.940720 0.073135 -0.304808
DOCKED: USER    NEWDPF axisangle0 0.136048 0.987722 0.076789 -144.506715
DOCKED: USER    NEWDPF quat0 0.136048 0.987722 0.076789 -144.506715
DOCKED: USER    NEWDPF dihe0 112.79 100.35 33.96 -118.22 -152.89 -66.19 42.96 -62.00 -155.91 -14.23 
DOCKED: USER  keepresnum = 1 
DOCKED: USER  
DOCKED: REMARK  10 active torsions:
DOCKED: REMARK  status: ('A' for Active; 'I' for Inactive)
DOCKED: REMARK    1  A    between atoms: C_6  and  C_10 
DOCKED: REMARK    2  A    between atoms: C_10  and  C_11 
DOCKED: REMARK    3  A    between atoms: C_11  and  C_12 
DOCKED: REMARK    4  A    between atoms: C_12  and  O_14 
DOCKED: REMARK    5  A    between atoms: C_17  and  C_20 
DOCKED: REMARK    6  A    between atoms: C_24  and  C_27 
DOCKED: REMARK    7  A    between atoms: C_31  and  C_34 
DOCKED: REMARK    8  A    between atoms: C_34  and  C_35 
DOCKED: REMARK    9  A    between atoms: C_35  and  C_36 
DOCKED: REMARK   10  A    between atoms: C_36  and  O_38 
DOCKED: USER                              x       y       z     vdW  Elec       q    Type
DOCKED: USER                           _______ _______ _______ _____ _____    ______ ____
DOCKED: ROOT
DOCKED: ATOM      1  C   UNL d   1      43.470  28.210  17.535 -0.28 +0.02    +0.064 C 
DOCKED: ATOM      2  C   UNL d   1      39.842  26.074  14.946 -0.39 +0.01    +0.064 A 
DOCKED: ATOM      3  C   UNL d   1      37.880  30.403  14.254 -0.38 +0.01    +0.064 C 
DOCKED: ATOM      4  C   UNL d   1      41.325  32.479  16.846 -0.48 +0.01    +0.064 C 
DOCKED: ATOM      5  C   UNL d   1      42.586  27.198  16.941 -0.30 +0.02    +0.066 A 
DOCKED: ATOM      6  C   UNL d   1      42.773  25.829  17.039 -0.33 -0.01    -0.021 A 
DOCKED: ATOM      7  C   UNL d   1      41.767  25.237  16.316 -0.35 -0.01    -0.025 A 
DOCKED: ATOM      8  C   UNL d   1      41.003  26.268  15.805 -0.35 +0.02    +0.066 A 
DOCKED: ATOM      9  C   UNL d   1      41.549  23.764  16.149 -0.52 +0.01    +0.051 C 
DOCKED: ATOM     10  C   UNL d   1      39.055  27.048  14.486 -0.36 +0.01    +0.066 A 
DOCKED: ATOM     11  C   UNL d   1      38.019  26.842  13.573 -0.44 -0.00    -0.021 A 
DOCKED: ATOM     12  C   UNL d   1      37.448  28.078  13.344 -0.45 +0.00    +0.000 A 
DOCKED: ATOM     13  C   UNL d   1      38.178  28.985  14.131 -0.31 +0.01    +0.070 A 
DOCKED: ATOM     14  C   UNL d   1      37.635  25.541  12.897 -0.49 +0.01    +0.052 C 
DOCKED: ATOM     15  C   UNL d   1      38.612  31.290  14.970 -0.35 +0.01    +0.066 A 
DOCKED: ATOM     16  C   UNL d   1      38.238  32.616  15.144 -0.37 -0.00    -0.021 A 
DOCKED: ATOM     17  C   UNL d   1      39.232  33.218  15.888 -0.41 +0.00    +0.000 A 
DOCKED: ATOM     18  C   UNL d   1      40.192  32.243  16.148 -0.38 +0.01    +0.070 A 
DOCKED: ATOM     19  C   UNL d   1      37.008  33.301  14.610 -0.31 +0.00    +0.052 C 
DOCKED: ATOM     20  C   UNL d   1      42.327  31.464  17.191 -0.35 +0.02    +0.066 A 
DOCKED: ATOM     21  C   UNL d   1      43.593  31.728  17.735 -0.24 -0.01    -0.025 A 
DOCKED: ATOM     22  C   UNL d   1      44.182  30.497  17.935 -0.29 -0.01    -0.021 A 
DOCKED: ATOM     23  C   UNL d   1      43.261  29.536  17.502 -0.28 +0.02    +0.066 A 
DOCKED: ATOM     24  C   UNL d   1      44.224  33.064  18.049 -0.02 +0.01    +0.051 C 
DOCKED: ATOM     25  N   UNL d   1      41.498  27.460  16.195 -0.25 -0.08    -0.248 N 
DOCKED: ATOM     26  N   UNL d   1      39.163  28.359  14.821 -0.07 -0.08    -0.248 N 
DOCKED: ATOM     27  N   UNL d   1      39.791  31.047  15.622 -0.10 -0.07    -0.248 N 
DOCKED: ATOM     28  N   UNL d   1      42.149  30.133  17.008 -0.23 -0.08    -0.248 N 
DOCKED: ATOM     29 FE   UNL d   1      40.657  29.248  15.915 -0.08 +0.00    +0.000 Fe
DOCKED: ENDROOT
DOCKED: BRANCH   6  30
DOCKED: ATOM     30  C   UNL d   1      43.840  25.117  17.797 -0.31 +0.02    +0.052 C 
DOCKED: BRANCH  30  31
DOCKED: ATOM     31  C   UNL d   1      45.209  25.383  17.183 -0.24 +0.07    +0.115 C 
DOCKED: BRANCH  31  32
DOCKED: ATOM     32  C   UNL d   1      46.014  24.115  17.119 -0.15 +0.15    +0.139 C 
DOCKED: ATOM     33  O   UNL d   1      47.236  24.150  17.138 -0.17 -0.88    -0.650 OA
DOCKED: BRANCH  32  34
DOCKED: ATOM     34  O   UNL d   1      45.393  22.926  17.039 -0.18 -0.90    -0.776 OA
DOCKED: ATOM     35  H   UNL d   1      44.874  22.615  17.794 +0.07 +0.12    +0.167 HD
DOCKED: ENDBRANCH  32  34
DOCKED: ENDBRANCH  31  32
DOCKED: ENDBRANCH  30  31
DOCKED: ENDBRANCH   6  30
DOCKED: BRANCH  22  36
DOCKED: ATOM     36  C   UNL d   1      45.571  30.262  18.467 -0.22 +0.02    +0.052 C 
DOCKED: BRANCH  36  37
DOCKED: ATOM     37  C   UNL d   1      45.556  30.326  19.987 -0.15 +0.08    +0.115 C 
DOCKED: BRANCH  37  38
DOCKED: ATOM     38  C   UNL d   1      45.955  29.007  20.586 -0.14 +0.16    +0.139 C 
DOCKED: ATOM     39  O   UNL d   1      45.249  28.020  20.450 -0.05 -0.67    -0.650 OA
DOCKED: BRANCH  38  40
DOCKED: ATOM     40  O   UNL d   1      47.101  28.906  21.284 -0.55 -1.15    -0.776 OA
DOCKED: ATOM     41  H   UNL d   1      47.937  28.821  20.805 +0.02 +0.14    +0.167 HD
DOCKED: ENDBRANCH  38  40
DOCKED: ENDBRANCH  37  38
DOCKED: ENDBRANCH  36  37
DOCKED: ENDBRANCH  22  36
DOCKED: BRANCH  12  42
DOCKED: ATOM     42  C   UNL d   1      36.301  28.333  12.418 -0.66 +0.00    +0.004 C 
DOCKED: ATOM     43  C   UNL d   1      35.039  28.113  12.807 -0.66 +0.00    +0.012 C 
DOCKED: ENDBRANCH  12  42
DOCKED: BRANCH  17  44
DOCKED: ATOM     44  C   UNL d   1      39.251  34.628  16.338 -0.51 +0.00    +0.004 C 
DOCKED: ATOM     45  C   UNL d   1      39.311  35.628  15.454 -0.56 +0.00    +0.012 C 
DOCKED: ENDBRANCH  17  44
DOCKED: TORSDOF 10
DOCKED: TER
DOCKED: ENDMDL
________________________________________________________________________________


	BEGINNING GENETIC ALGORITHM DOCKING 49 of 100
Run: 49 Seed: 1411933201 1397854036 [ Run 49 of 100 GA/GALS ]
Beginning LAMARCKIAN GENETIC ALGORITHM (LGA), with a maximum of 25000000 energy evaluations.

Final-Value: -10.481


	FINAL GENETIC ALGORITHM DOCKED STATE
	_______________________________________________


Detailed state:  trans 28.912 39.628 -0.898 quatxyzw 0.380210 -0.418589 -0.789944 -0.237091 center -0.174 -0.001 -0.047 ntor 10 125.7135 21.5907 -178.7052 -150.8802 180.0000 -153.1450 17.0997 43.5131 -6.4289 44.5724
State:	 28.912  39.628  -0.898   0.391 -0.431 -0.813 -152.570    125.71   21.59 -178.71 -150.88  180.00 -153.15   17.10   43.51   -6.43   44.57

DOCKED: MODEL       49
DOCKED: USER    Run = 49
DOCKED: USER    DPF = D:/Protein_go_brrr/autodock/final/2DN3/heme_Fe/dock.dpf
DOCKED: USER  
DOCKED: USER    Estimated Free Energy of Binding    =   -7.29 kcal/mol  [=(1)+(2)+(3)-(4)]
DOCKED: USER    Estimated Inhibition Constant, Ki   =    4.51 uM (micromolar)  [Temperature = 298.15 K]
DOCKED: USER    
DOCKED: USER    (1) Final Intermolecular Energy     =  -10.28 kcal/mol
DOCKED: USER        vdW + Hbond + desolv Energy     =   -7.71 kcal/mol
DOCKED: USER        Electrostatic Energy            =   -2.56 kcal/mol
DOCKED: USER    (2) Final Total Internal Energy     =   -0.21 kcal/mol
DOCKED: USER    (3) Torsional Free Energy           =   +2.98 kcal/mol
DOCKED: USER    (4) Unbound System's Energy  [=(2)] =   -0.21 kcal/mol
DOCKED: USER    
DOCKED: USER    
DOCKED: USER    NEWDPF move heme_Fe_opt.pdbqt
DOCKED: USER    NEWDPF about -0.174000 -0.001000 -0.047000
DOCKED: USER    NEWDPF tran0 28.912042 39.628148 -0.898485
DOCKED: USER    NEWDPF quaternion0 0.380210 -0.418589 -0.789944 -0.237091
DOCKED: USER    NEWDPF axisangle0 0.391369 -0.430875 -0.813128 -152.570218
DOCKED: USER    NEWDPF quat0 0.391369 -0.430875 -0.813128 -152.570218
DOCKED: USER    NEWDPF dihe0 125.71 21.59 -178.71 -150.88 180.00 -153.15 17.10 43.51 -6.43 44.57 
DOCKED: USER  keepresnum = 1 
DOCKED: USER  
DOCKED: REMARK  10 active torsions:
DOCKED: REMARK  status: ('A' for Active; 'I' for Inactive)
DOCKED: REMARK    1  A    between atoms: C_6  and  C_10 
DOCKED: REMARK    2  A    between atoms: C_10  and  C_11 
DOCKED: REMARK    3  A    between atoms: C_11  and  C_12 
DOCKED: REMARK    4  A    between atoms: C_12  and  O_14 
DOCKED: REMARK    5  A    between atoms: C_17  and  C_20 
DOCKED: REMARK    6  A    between atoms: C_24  and  C_27 
DOCKED: REMARK    7  A    between atoms: C_31  and  C_34 
DOCKED: REMARK    8  A    between atoms: C_34  and  C_35 
DOCKED: REMARK    9  A    between atoms: C_35  and  C_36 
DOCKED: REMARK   10  A    between atoms: C_36  and  O_38 
DOCKED: USER                              x       y       z     vdW  Elec       q    Type
DOCKED: USER                           _______ _______ _______ _____ _____    ______ ____
DOCKED: ROOT
DOCKED: ATOM      1  C   UNL d   1      29.669  41.288   0.040 -0.09 +0.02    +0.064 C 
DOCKED: ATOM      2  C   UNL d   1      27.451  40.451  -4.297 -0.14 +0.01    +0.064 A 
DOCKED: ATOM      3  C   UNL d   1      26.043  36.157  -2.669 -0.23 +0.00    +0.064 C 
DOCKED: ATOM      4  C   UNL d   1      28.272  36.904   1.498 -0.19 +0.01    +0.064 C 
DOCKED: ATOM      5  C   UNL d   1      29.247  41.416  -1.361 -0.08 +0.02    +0.066 A 
DOCKED: ATOM      6  C   UNL d   1      29.571  42.477  -2.191 -0.04 -0.01    -0.021 A 
DOCKED: ATOM      7  C   UNL d   1      28.951  42.245  -3.394 -0.05 -0.00    -0.025 A 
DOCKED: ATOM      8  C   UNL d   1      28.272  41.051  -3.252 -0.11 +0.01    +0.066 A 
DOCKED: ATOM      9  C   UNL d   1      29.029  43.117  -4.610 -0.02 +0.01    +0.051 C 
DOCKED: ATOM     10  C   UNL d   1      26.833  39.272  -4.206 -0.19 +0.01    +0.066 A 
DOCKED: ATOM     11  C   UNL d   1      25.961  38.777  -5.178 -0.20 -0.00    -0.021 A 
DOCKED: ATOM     12  C   UNL d   1      25.528  37.547  -4.725 -0.23 +0.00    +0.000 A 
DOCKED: ATOM     13  C   UNL d   1      26.158  37.357  -3.483 -0.22 +0.00    +0.070 A 
DOCKED: ATOM     14  C   UNL d   1      25.509  39.472  -6.446 -0.14 +0.01    +0.052 C 
DOCKED: ATOM     15  C   UNL d   1      26.606  35.991  -1.449 -0.15 +0.01    +0.066 A 
DOCKED: ATOM     16  C   UNL d   1      26.555  34.793  -0.747 -0.21 -0.00    -0.021 A 
DOCKED: ATOM     17  C   UNL d   1      27.194  35.007   0.456 -0.23 +0.00    +0.000 A 
DOCKED: ATOM     18  C   UNL d   1      27.617  36.334   0.463 -0.11 +0.01    +0.070 A 
DOCKED: ATOM     19  C   UNL d   1      25.910  33.503  -1.178 -0.22 +0.00    +0.052 C 
DOCKED: ATOM     20  C   UNL d   1      28.785  38.279   1.515 -0.15 +0.00    +0.066 A 
DOCKED: ATOM     21  C   UNL d   1      29.284  38.943   2.645 -0.19 +0.00    -0.025 A 
DOCKED: ATOM     22  C   UNL d   1      29.689  40.186   2.204 -0.16 -0.00    -0.021 A 
DOCKED: ATOM     23  C   UNL d   1      29.416  40.234   0.831 -0.10 +0.01    +0.066 A 
DOCKED: ATOM     24  C   UNL d   1      29.376  38.444   4.068 -0.19 -0.02    +0.051 C 
DOCKED: ATOM     25  N   UNL d   1      28.462  40.544  -2.017 -0.09 -0.04    -0.248 N 
DOCKED: ATOM     26  N   UNL d   1      26.947  38.412  -3.162 -0.14 -0.03    -0.248 N 
DOCKED: ATOM     27  N   UNL d   1      27.294  36.927  -0.726 -0.03 -0.03    -0.248 N 
DOCKED: ATOM     28  N   UNL d   1      28.824  39.084   0.426 -0.09 -0.03    -0.248 N 
DOCKED: ATOM     29 FE   UNL d   1      27.885  38.747  -1.366 -0.05 +0.00    +0.000 Fe
DOCKED: ENDROOT
DOCKED: BRANCH   6  30
DOCKED: ATOM     30  C   UNL d   1      30.442  43.642  -1.867 -0.04 +0.02    +0.052 C 
DOCKED: BRANCH  30  31
DOCKED: ATOM     31  C   UNL d   1      31.913  43.286  -2.055 -0.03 +0.06    +0.115 C 
DOCKED: BRANCH  31  32
DOCKED: ATOM     32  C   UNL d   1      32.790  44.282  -1.349 -0.07 +0.15    +0.139 C 
DOCKED: ATOM     33  O   UNL d   1      34.007  44.171  -1.378 -0.20 -0.91    -0.650 OA
DOCKED: BRANCH  32  34
DOCKED: ATOM     34  O   UNL d   1      32.240  45.307  -0.676 -0.37 -1.15    -0.776 OA
DOCKED: ATOM     35  H   UNL d   1      31.619  45.890  -1.135 +0.02 +0.14    +0.167 HD
DOCKED: ENDBRANCH  32  34
DOCKED: ENDBRANCH  31  32
DOCKED: ENDBRANCH  30  31
DOCKED: ENDBRANCH   6  30
DOCKED: BRANCH  22  36
DOCKED: ATOM     36  C   UNL d   1      30.259  41.282   3.065 -0.29 +0.01    +0.052 C 
DOCKED: BRANCH  36  37
DOCKED: ATOM     37  C   UNL d   1      31.370  42.000   2.313 -0.20 +0.05    +0.115 C 
DOCKED: BRANCH  37  38
DOCKED: ATOM     38  C   UNL d   1      32.544  42.267   3.212 -0.34 +0.08    +0.139 C 
DOCKED: ATOM     39  O   UNL d   1      33.297  43.205   2.996 -0.52 -0.84    -0.650 OA
DOCKED: BRANCH  38  40
DOCKED: ATOM     40  O   UNL d   1      32.777  41.465   4.266 +0.04 -0.08    -0.776 OA
DOCKED: ATOM     41  H   UNL d   1      33.314  41.797   4.999 -0.49 -0.06    +0.167 HD
DOCKED: ENDBRANCH  38  40
DOCKED: ENDBRANCH  37  38
DOCKED: ENDBRANCH  36  37
DOCKED: ENDBRANCH  22  36
DOCKED: BRANCH  12  42
DOCKED: ATOM     42  C   UNL d   1      24.567  36.658  -5.448 -0.21 +0.00    +0.004 C 
DOCKED: ATOM     43  C   UNL d   1      23.510  36.129  -4.818 -0.27 -0.00    +0.012 C 
DOCKED: ENDBRANCH  12  42
DOCKED: BRANCH  17  44
DOCKED: ATOM     44  C   UNL d   1      27.405  34.001   1.522 -0.30 +0.00    +0.004 C 
DOCKED: ATOM     45  C   UNL d   1      26.576  33.929   2.569 -0.40 +0.00    +0.012 C 
DOCKED: ENDBRANCH  17  44
DOCKED: TORSDOF 10
DOCKED: TER
DOCKED: ENDMDL
________________________________________________________________________________


	BEGINNING GENETIC ALGORITHM DOCKING 50 of 100
Run: 50 Seed: 936151994 1746785642 [ Run 50 of 100 GA/GALS ]
Beginning LAMARCKIAN GENETIC ALGORITHM (LGA), with a maximum of 25000000 energy evaluations.

Final-Value: -16.922


	FINAL GENETIC ALGORITHM DOCKED STATE
	_______________________________________________


Detailed state:  trans 41.206 29.084 16.837 quatxyzw 0.103657 0.934660 0.060236 -0.334721 center -0.174 -0.001 -0.047 ntor 10 83.3320 54.9972 83.3308 -147.3474 157.6279 178.8037 32.7568 -6.8262 178.5709 31.9267
State:	 41.206  29.084  16.837   0.110  0.992  0.064 -140.889     83.33   55.00   83.33 -147.35  157.63  178.80   32.76   -6.83  178.57   31.93

DOCKED: MODEL       50
DOCKED: USER    Run = 50
DOCKED: USER    DPF = D:/Protein_go_brrr/autodock/final/2DN3/heme_Fe/dock.dpf
DOCKED: USER  
DOCKED: USER    Estimated Free Energy of Binding    =  -13.48 kcal/mol  [=(1)+(2)+(3)-(4)]
DOCKED: USER    Estimated Inhibition Constant, Ki   =  132.09 pM (picomolar)  [Temperature = 298.15 K]
DOCKED: USER    
DOCKED: USER    (1) Final Intermolecular Energy     =  -16.46 kcal/mol
DOCKED: USER        vdW + Hbond + desolv Energy     =  -13.87 kcal/mol
DOCKED: USER        Electrostatic Energy            =   -2.59 kcal/mol
DOCKED: USER    (2) Final Total Internal Energy     =   -0.46 kcal/mol
DOCKED: USER    (3) Torsional Free Energy           =   +2.98 kcal/mol
DOCKED: USER    (4) Unbound System's Energy  [=(2)] =   -0.46 kcal/mol
DOCKED: USER    
DOCKED: USER    
DOCKED: USER    NEWDPF move heme_Fe_opt.pdbqt
DOCKED: USER    NEWDPF about -0.174000 -0.001000 -0.047000
DOCKED: USER    NEWDPF tran0 41.206353 29.083524 16.836808
DOCKED: USER    NEWDPF quaternion0 0.103657 0.934660 0.060236 -0.334721
DOCKED: USER    NEWDPF axisangle0 0.110002 0.991874 0.063923 -140.888893
DOCKED: USER    NEWDPF quat0 0.110002 0.991874 0.063923 -140.888893
DOCKED: USER    NEWDPF dihe0 83.33 55.00 83.33 -147.35 157.63 178.80 32.76 -6.83 178.57 31.93 
DOCKED: USER  keepresnum = 1 
DOCKED: USER  
DOCKED: REMARK  10 active torsions:
DOCKED: REMARK  status: ('A' for Active; 'I' for Inactive)
DOCKED: REMARK    1  A    between atoms: C_6  and  C_10 
DOCKED: REMARK    2  A    between atoms: C_10  and  C_11 
DOCKED: REMARK    3  A    between atoms: C_11  and  C_12 
DOCKED: REMARK    4  A    between atoms: C_12  and  O_14 
DOCKED: REMARK    5  A    between atoms: C_17  and  C_20 
DOCKED: REMARK    6  A    between atoms: C_24  and  C_27 
DOCKED: REMARK    7  A    between atoms: C_31  and  C_34 
DOCKED: REMARK    8  A    between atoms: C_34  and  C_35 
DOCKED: REMARK    9  A    between atoms: C_35  and  C_36 
DOCKED: REMARK   10  A    between atoms: C_36  and  O_38 
DOCKED: USER                              x       y       z     vdW  Elec       q    Type
DOCKED: USER                           _______ _______ _______ _____ _____    ______ ____
DOCKED: ROOT
DOCKED: ATOM      1  C   UNL d   1      43.031  28.585  17.632 -0.14 +0.02    +0.064 C 
DOCKED: ATOM      2  C   UNL d   1      39.642  26.203  14.936 -0.38 +0.01    +0.064 A 
DOCKED: ATOM      3  C   UNL d   1      37.583  30.421  13.923 -0.28 +0.01    +0.064 C 
DOCKED: ATOM      4  C   UNL d   1      40.790  32.737  16.612 -0.48 +0.01    +0.064 C 
DOCKED: ATOM      5  C   UNL d   1      42.219  27.516  17.035 -0.30 +0.02    +0.066 A 
DOCKED: ATOM      6  C   UNL d   1      42.446  26.160  17.210 -0.34 -0.01    -0.021 A 
DOCKED: ATOM      7  C   UNL d   1      41.506  25.499  16.458 -0.38 -0.01    -0.025 A 
DOCKED: ATOM      8  C   UNL d   1      40.742  26.478  15.853 -0.37 +0.02    +0.066 A 
DOCKED: ATOM      9  C   UNL d   1      41.349  24.014  16.349 -0.50 +0.01    +0.051 C 
DOCKED: ATOM     10  C   UNL d   1      38.853  27.126  14.385 -0.36 +0.01    +0.066 A 
DOCKED: ATOM     11  C   UNL d   1      37.882  26.840  13.422 -0.43 -0.00    -0.021 A 
DOCKED: ATOM     12  C   UNL d   1      37.285  28.042  13.101 -0.47 +0.00    +0.000 A 
DOCKED: ATOM     13  C   UNL d   1      37.934  29.011  13.886 -0.36 +0.01    +0.070 A 
DOCKED: ATOM     14  C   UNL d   1      37.584  25.496  12.788 -0.48 +0.01    +0.052 C 
DOCKED: ATOM     15  C   UNL d   1      38.238  31.366  14.638 -0.33 +0.01    +0.066 A 
DOCKED: ATOM     16  C   UNL d   1      37.811  32.684  14.725 -0.34 -0.00    -0.021 A 
DOCKED: ATOM     17  C   UNL d   1      38.736  33.355  15.497 -0.43 +0.00    +0.000 A 
DOCKED: ATOM     18  C   UNL d   1      39.711  32.429  15.860 -0.37 +0.01    +0.070 A 
DOCKED: ATOM     19  C   UNL d   1      36.594  33.299  14.087 -0.34 +0.00    +0.052 C 
DOCKED: ATOM     20  C   UNL d   1      41.803  31.777  17.065 -0.39 +0.01    +0.066 A 
DOCKED: ATOM     21  C   UNL d   1      43.023  32.111  17.670 -0.27 -0.01    -0.025 A 
DOCKED: ATOM     22  C   UNL d   1      43.640  30.913  17.964 -0.32 -0.01    -0.021 A 
DOCKED: ATOM     23  C   UNL d   1      42.780  29.900  17.523 -0.29 +0.02    +0.066 A 
DOCKED: ATOM     24  C   UNL d   1      43.589  33.482  17.957 -0.29 +0.01    +0.051 C 
DOCKED: ATOM     25  N   UNL d   1      41.172  27.704  16.214 -0.22 -0.09    -0.248 N 
DOCKED: ATOM     26  N   UNL d   1      38.896  28.454  14.662 -0.06 -0.07    -0.248 N 
DOCKED: ATOM     27  N   UNL d   1      39.383  31.196  15.369 -0.21 -0.05    -0.248 N 
DOCKED: ATOM     28  N   UNL d   1      41.682  30.433  16.935 -0.21 -0.07    -0.248 N 
DOCKED: ATOM     29 FE   UNL d   1      40.289  29.446  15.799 -0.08 +0.00    +0.000 Fe
DOCKED: ENDROOT
DOCKED: BRANCH   6  30
DOCKED: ATOM     30  C   UNL d   1      43.488  25.523  18.064 -0.32 +0.02    +0.052 C 
DOCKED: BRANCH  30  31
DOCKED: ATOM     31  C   UNL d   1      44.754  25.252  17.259 -0.22 +0.06    +0.115 C 
DOCKED: BRANCH  31  32
DOCKED: ATOM     32  C   UNL d   1      45.436  24.007  17.755 -0.23 +0.11    +0.139 C 
DOCKED: ATOM     33  O   UNL d   1      46.204  23.387  17.032 -0.35 -0.99    -0.650 OA
DOCKED: BRANCH  32  34
DOCKED: ATOM     34  O   UNL d   1      45.207  23.563  19.002 -0.03 -0.48    -0.776 OA
DOCKED: ATOM     35  H   UNL d   1      45.829  23.797  19.706 +0.05 +0.10    +0.167 HD
DOCKED: ENDBRANCH  32  34
DOCKED: ENDBRANCH  31  32
DOCKED: ENDBRANCH  30  31
DOCKED: ENDBRANCH   6  30
DOCKED: BRANCH  22  36
DOCKED: ATOM     36  C   UNL d   1      45.001  30.754  18.588 -0.27 +0.02    +0.052 C 
DOCKED: BRANCH  36  37
DOCKED: ATOM     37  C   UNL d   1      44.913  29.811  19.779 -0.23 +0.08    +0.115 C 
DOCKED: BRANCH  37  38
DOCKED: ATOM     38  C   UNL d   1      46.280  29.484  20.310 -0.15 +0.13    +0.139 C 
DOCKED: ATOM     39  O   UNL d   1      46.415  28.758  21.284 -0.39 -1.18    -0.650 OA
DOCKED: BRANCH  38  40
DOCKED: ATOM     40  O   UNL d   1      47.371  29.998  19.715 +0.03 -0.45    -0.776 OA
DOCKED: ATOM     41  H   UNL d   1      48.068  29.398  19.414 +0.03 +0.08    +0.167 HD
DOCKED: ENDBRANCH  38  40
DOCKED: ENDBRANCH  37  38
DOCKED: ENDBRANCH  36  37
DOCKED: ENDBRANCH  22  36
DOCKED: BRANCH  12  42
DOCKED: ATOM     42  C   UNL d   1      36.189  28.213  12.097 -0.69 +0.00    +0.004 C 
DOCKED: ATOM     43  C   UNL d   1      35.084  28.909  12.394 -0.57 +0.00    +0.012 C 
DOCKED: ENDBRANCH  12  42
DOCKED: BRANCH  17  44
DOCKED: ATOM     44  C   UNL d   1      38.680  34.784  15.880 -0.50 +0.00    +0.004 C 
DOCKED: ATOM     45  C   UNL d   1      39.304  35.714  15.148 -0.59 +0.00    +0.012 C 
DOCKED: ENDBRANCH  17  44
DOCKED: TORSDOF 10
DOCKED: TER
DOCKED: ENDMDL
________________________________________________________________________________


	BEGINNING GENETIC ALGORITHM DOCKING 51 of 100
Run: 51 Seed: 2025247885 139225048 [ Run 51 of 100 GA/GALS ]
Beginning LAMARCKIAN GENETIC ALGORITHM (LGA), with a maximum of 25000000 energy evaluations.

Final-Value: -11.785


	FINAL GENETIC ALGORITHM DOCKED STATE
	_______________________________________________


Detailed state:  trans 28.205 39.969 -0.281 quatxyzw -0.410554 0.647698 -0.496346 -0.406906 center -0.174 -0.001 -0.047 ntor 10 140.7362 -62.4568 168.7661 46.7296 126.1912 107.4687 -19.7457 69.8389 -177.3363 157.0133
State:	 28.205  39.969  -0.281  -0.449  0.709 -0.543 -131.979    140.74  -62.46  168.77   46.73  126.19  107.47  -19.75   69.84 -177.34  157.01

DOCKED: MODEL       51
DOCKED: USER    Run = 51
DOCKED: USER    DPF = D:/Protein_go_brrr/autodock/final/2DN3/heme_Fe/dock.dpf
DOCKED: USER  
DOCKED: USER    Estimated Free Energy of Binding    =   -6.81 kcal/mol  [=(1)+(2)+(3)-(4)]
DOCKED: USER    Estimated Inhibition Constant, Ki   =   10.26 uM (micromolar)  [Temperature = 298.15 K]
DOCKED: USER    
DOCKED: USER    (1) Final Intermolecular Energy     =   -9.79 kcal/mol
DOCKED: USER        vdW + Hbond + desolv Energy     =   -7.24 kcal/mol
DOCKED: USER        Electrostatic Energy            =   -2.55 kcal/mol
DOCKED: USER    (2) Final Total Internal Energy     =   -2.00 kcal/mol
DOCKED: USER    (3) Torsional Free Energy           =   +2.98 kcal/mol
DOCKED: USER    (4) Unbound System's Energy  [=(2)] =   -2.00 kcal/mol
DOCKED: USER    
DOCKED: USER    
DOCKED: USER    NEWDPF move heme_Fe_opt.pdbqt
DOCKED: USER    NEWDPF about -0.174000 -0.001000 -0.047000
DOCKED: USER    NEWDPF tran0 28.205267 39.969375 -0.281305
DOCKED: USER    NEWDPF quaternion0 -0.410554 0.647698 -0.496346 -0.406906
DOCKED: USER    NEWDPF axisangle0 -0.449445 0.709053 -0.543364 -131.978706
DOCKED: USER    NEWDPF quat0 -0.449445 0.709053 -0.543364 -131.978706
DOCKED: USER    NEWDPF dihe0 140.74 -62.46 168.77 46.73 126.19 107.47 -19.75 69.84 -177.34 157.01 
DOCKED: USER  keepresnum = 1 
DOCKED: USER  
DOCKED: REMARK  10 active torsions:
DOCKED: REMARK  status: ('A' for Active; 'I' for Inactive)
DOCKED: REMARK    1  A    between atoms: C_6  and  C_10 
DOCKED: REMARK    2  A    between atoms: C_10  and  C_11 
DOCKED: REMARK    3  A    between atoms: C_11  and  C_12 
DOCKED: REMARK    4  A    between atoms: C_12  and  O_14 
DOCKED: REMARK    5  A    between atoms: C_17  and  C_20 
DOCKED: REMARK    6  A    between atoms: C_24  and  C_27 
DOCKED: REMARK    7  A    between atoms: C_31  and  C_34 
DOCKED: REMARK    8  A    between atoms: C_34  and  C_35 
DOCKED: REMARK    9  A    between atoms: C_35  and  C_36 
DOCKED: REMARK   10  A    between atoms: C_36  and  O_38 
DOCKED: USER                              x       y       z     vdW  Elec       q    Type
DOCKED: USER                           _______ _______ _______ _____ _____    ______ ____
DOCKED: ROOT
DOCKED: ATOM      1  C   UNL d   1      29.367  41.649  -0.081 -0.11 +0.02    +0.064 C 
DOCKED: ATOM      2  C   UNL d   1      28.400  37.725   2.766 -0.21 -0.01    +0.064 A 
DOCKED: ATOM      3  C   UNL d   1      26.560  35.487  -1.065 -0.21 +0.01    +0.064 C 
DOCKED: ATOM      4  C   UNL d   1      27.392  39.312  -3.814 -0.19 +0.01    +0.064 C 
DOCKED: ATOM      5  C   UNL d   1      29.189  40.784   1.094 -0.12 +0.01    +0.066 A 
DOCKED: ATOM      6  C   UNL d   1      29.502  41.143   2.395 -0.21 -0.00    -0.021 A 
DOCKED: ATOM      7  C   UNL d   1      29.236  40.051   3.184 -0.26 +0.00    -0.025 A 
DOCKED: ATOM      8  C   UNL d   1      28.771  39.067   2.334 -0.19 -0.00    +0.066 A 
DOCKED: ATOM      9  C   UNL d   1      29.405  39.975   4.671 -0.21 -0.03    +0.051 C 
DOCKED: ATOM     10  C   UNL d   1      27.894  36.777   1.976 -0.20 +0.01    +0.066 A 
DOCKED: ATOM     11  C   UNL d   1      27.656  35.465   2.395 -0.24 -0.01    -0.021 A 
DOCKED: ATOM     12  C   UNL d   1      27.141  34.795   1.304 -0.27 +0.00    +0.000 A 
DOCKED: ATOM     13  C   UNL d   1      27.099  35.739   0.263 -0.14 +0.01    +0.070 A 
DOCKED: ATOM     14  C   UNL d   1      27.967  34.862   3.749 -0.27 +0.02    +0.052 C 
DOCKED: ATOM     15  C   UNL d   1      26.566  36.376  -2.085 -0.17 +0.00    +0.066 A 
DOCKED: ATOM     16  C   UNL d   1      25.952  36.132  -3.307 -0.23 -0.00    -0.021 A 
DOCKED: ATOM     17  C   UNL d   1      26.193  37.233  -4.103 -0.23 +0.00    +0.000 A 
DOCKED: ATOM     18  C   UNL d   1      26.954  38.122  -3.348 -0.19 +0.01    +0.070 A 
DOCKED: ATOM     19  C   UNL d   1      25.189  34.903  -3.723 -0.21 -0.00    +0.052 C 
DOCKED: ATOM     20  C   UNL d   1      28.141  40.300  -3.029 -0.13 +0.01    +0.066 A 
DOCKED: ATOM     21  C   UNL d   1      28.771  41.440  -3.549 -0.07 -0.00    -0.025 A 
DOCKED: ATOM     22  C   UNL d   1      29.316  42.098  -2.466 -0.05 -0.00    -0.021 A 
DOCKED: ATOM     23  C   UNL d   1      29.006  41.334  -1.335 -0.09 +0.01    +0.066 A 
DOCKED: ATOM     24  C   UNL d   1      28.863  41.892  -4.988 -0.03 +0.01    +0.051 C 
DOCKED: ATOM     25  N   UNL d   1      28.735  39.519   1.064 -0.09 -0.02    -0.248 N 
DOCKED: ATOM     26  N   UNL d   1      27.567  36.944   0.669 -0.01 -0.03    -0.248 N 
DOCKED: ATOM     27  N   UNL d   1      27.146  37.616  -2.093 -0.12 -0.03    -0.248 N 
DOCKED: ATOM     28  N   UNL d   1      28.327  40.216  -1.689 -0.08 -0.04    -0.248 N 
DOCKED: ATOM     29 FE   UNL d   1      27.947  38.580  -0.512 -0.05 +0.00    +0.000 Fe
DOCKED: ENDROOT
DOCKED: BRANCH   6  30
DOCKED: ATOM     30  C   UNL d   1      30.007  42.462   2.870 -0.25 +0.02    +0.052 C 
DOCKED: BRANCH  30  31
DOCKED: ATOM     31  C   UNL d   1      31.529  42.516   2.798 -0.28 +0.06    +0.115 C 
DOCKED: BRANCH  31  32
DOCKED: ATOM     32  C   UNL d   1      32.006  43.941   2.806 -0.27 +0.16    +0.139 C 
DOCKED: ATOM     33  O   UNL d   1      32.832  44.318   3.626 -0.47 -0.76    -0.650 OA
DOCKED: BRANCH  32  34
DOCKED: ATOM     34  O   UNL d   1      31.527  44.818   1.908 -0.15 -0.97    -0.776 OA
DOCKED: ATOM     35  H   UNL d   1      31.378  44.524   0.998 +0.04 +0.21    +0.167 HD
DOCKED: ENDBRANCH  32  34
DOCKED: ENDBRANCH  31  32
DOCKED: ENDBRANCH  30  31
DOCKED: ENDBRANCH   6  30
DOCKED: BRANCH  22  36
DOCKED: ATOM     36  C   UNL d   1      30.132  43.362  -2.525 -0.02 +0.02    +0.052 C 
DOCKED: BRANCH  36  37
DOCKED: ATOM     37  C   UNL d   1      31.599  43.039  -2.282 -0.02 +0.05    +0.115 C 
DOCKED: BRANCH  37  38
DOCKED: ATOM     38  C   UNL d   1      32.059  43.583  -0.959 -0.08 +0.12    +0.139 C 
DOCKED: ATOM     39  O   UNL d   1      32.274  42.836  -0.016 +0.02 -0.59    -0.650 OA
DOCKED: BRANCH  38  40
DOCKED: ATOM     40  O   UNL d   1      32.233  44.907  -0.802 -0.25 -1.03    -0.776 OA
DOCKED: ATOM     41  H   UNL d   1      31.687  45.381  -0.159 +0.02 +0.23    +0.167 HD
DOCKED: ENDBRANCH  38  40
DOCKED: ENDBRANCH  37  38
DOCKED: ENDBRANCH  36  37
DOCKED: ENDBRANCH  22  36
DOCKED: BRANCH  12  42
DOCKED: ATOM     42  C   UNL d   1      26.747  33.352   1.293 -0.36 +0.00    +0.004 C 
DOCKED: ATOM     43  C   UNL d   1      26.951  32.590   0.210 -0.18 +0.01    +0.012 C 
DOCKED: ENDBRANCH  12  42
DOCKED: BRANCH  17  44
DOCKED: ATOM     44  C   UNL d   1      25.711  37.429  -5.489 -0.18 +0.00    +0.004 C 
DOCKED: ATOM     45  C   UNL d   1      24.646  38.199  -5.740 -0.23 +0.00    +0.012 C 
DOCKED: ENDBRANCH  17  44
DOCKED: TORSDOF 10
DOCKED: TER
DOCKED: ENDMDL
________________________________________________________________________________


	BEGINNING GENETIC ALGORITHM DOCKING 52 of 100
Run: 52 Seed: 1191720001 649843269 [ Run 52 of 100 GA/GALS ]
Beginning LAMARCKIAN GENETIC ALGORITHM (LGA), with a maximum of 25000000 energy evaluations.

Final-Value: -17.263


	FINAL GENETIC ALGORITHM DOCKED STATE
	_______________________________________________


Detailed state:  trans 41.479 28.760 16.941 quatxyzw 0.139076 0.932595 0.073946 -0.324739 center -0.174 -0.001 -0.047 ntor 10 152.5072 36.0997 37.4106 -114.5177 121.8785 119.3632 -7.1405 -26.1074 -178.3530 21.6416
State:	 41.479  28.760  16.941   0.147  0.986  0.078 -142.100    152.51   36.10   37.41 -114.52  121.88  119.36   -7.14  -26.11 -178.35   21.64

DOCKED: MODEL       52
DOCKED: USER    Run = 52
DOCKED: USER    DPF = D:/Protein_go_brrr/autodock/final/2DN3/heme_Fe/dock.dpf
DOCKED: USER  
DOCKED: USER    Estimated Free Energy of Binding    =  -12.77 kcal/mol  [=(1)+(2)+(3)-(4)]
DOCKED: USER    Estimated Inhibition Constant, Ki   =  437.39 pM (picomolar)  [Temperature = 298.15 K]
DOCKED: USER    
DOCKED: USER    (1) Final Intermolecular Energy     =  -15.75 kcal/mol
DOCKED: USER        vdW + Hbond + desolv Energy     =  -13.60 kcal/mol
DOCKED: USER        Electrostatic Energy            =   -2.15 kcal/mol
DOCKED: USER    (2) Final Total Internal Energy     =   -1.51 kcal/mol
DOCKED: USER    (3) Torsional Free Energy           =   +2.98 kcal/mol
DOCKED: USER    (4) Unbound System's Energy  [=(2)] =   -1.51 kcal/mol
DOCKED: USER    
DOCKED: USER    
DOCKED: USER    NEWDPF move heme_Fe_opt.pdbqt
DOCKED: USER    NEWDPF about -0.174000 -0.001000 -0.047000
DOCKED: USER    NEWDPF tran0 41.478972 28.760133 16.941268
DOCKED: USER    NEWDPF quaternion0 0.139076 0.932595 0.073946 -0.324739
DOCKED: USER    NEWDPF axisangle0 0.147045 0.986035 0.078184 -142.100419
DOCKED: USER    NEWDPF quat0 0.147045 0.986035 0.078184 -142.100419
DOCKED: USER    NEWDPF dihe0 152.51 36.10 37.41 -114.52 121.88 119.36 -7.14 -26.11 -178.35 21.64 
DOCKED: USER  keepresnum = 1 
DOCKED: USER  
DOCKED: REMARK  10 active torsions:
DOCKED: REMARK  status: ('A' for Active; 'I' for Inactive)
DOCKED: REMARK    1  A    between atoms: C_6  and  C_10 
DOCKED: REMARK    2  A    between atoms: C_10  and  C_11 
DOCKED: REMARK    3  A    between atoms: C_11  and  C_12 
DOCKED: REMARK    4  A    between atoms: C_12  and  O_14 
DOCKED: REMARK    5  A    between atoms: C_17  and  C_20 
DOCKED: REMARK    6  A    between atoms: C_24  and  C_27 
DOCKED: REMARK    7  A    between atoms: C_31  and  C_34 
DOCKED: REMARK    8  A    between atoms: C_34  and  C_35 
DOCKED: REMARK    9  A    between atoms: C_35  and  C_36 
DOCKED: REMARK   10  A    between atoms: C_36  and  O_38 
DOCKED: USER                              x       y       z     vdW  Elec       q    Type
DOCKED: USER                           _______ _______ _______ _____ _____    ______ ____
DOCKED: ROOT
DOCKED: ATOM      1  C   UNL d   1      43.286  28.120  17.673 -0.19 +0.02    +0.064 C 
DOCKED: ATOM      2  C   UNL d   1      39.721  26.074  14.928 -0.39 +0.01    +0.064 A 
DOCKED: ATOM      3  C   UNL d   1      37.887  30.448  14.173 -0.39 +0.01    +0.064 C 
DOCKED: ATOM      4  C   UNL d   1      41.267  32.438  16.912 -0.48 +0.01    +0.064 C 
DOCKED: ATOM      5  C   UNL d   1      42.405  27.130  17.039 -0.32 +0.02    +0.066 A 
DOCKED: ATOM      6  C   UNL d   1      42.557  25.757  17.139 -0.34 -0.01    -0.021 A 
DOCKED: ATOM      7  C   UNL d   1      41.569  25.190  16.374 -0.39 -0.01    -0.025 A 
DOCKED: ATOM      8  C   UNL d   1      40.850  26.239  15.835 -0.36 +0.02    +0.066 A 
DOCKED: ATOM      9  C   UNL d   1      41.325  23.723  16.192 -0.51 +0.01    +0.051 C 
DOCKED: ATOM     10  C   UNL d   1      38.976  27.067  14.440 -0.36 +0.01    +0.066 A 
DOCKED: ATOM     11  C   UNL d   1      37.974  26.886  13.484 -0.43 -0.00    -0.021 A 
DOCKED: ATOM     12  C   UNL d   1      37.441  28.135  13.237 -0.46 +0.00    +0.000 A 
DOCKED: ATOM     13  C   UNL d   1      38.158  29.024  14.057 -0.31 +0.01    +0.070 A 
DOCKED: ATOM     14  C   UNL d   1      37.589  25.596  12.788 -0.47 +0.01    +0.052 C 
DOCKED: ATOM     15  C   UNL d   1      38.608  31.316  14.922 -0.36 +0.01    +0.066 A 
DOCKED: ATOM     16  C   UNL d   1      38.257  32.650  15.085 -0.38 -0.00    -0.021 A 
DOCKED: ATOM     17  C   UNL d   1      39.232  33.227  15.872 -0.41 +0.00    +0.000 A 
DOCKED: ATOM     18  C   UNL d   1      40.159  32.230  16.167 -0.38 +0.01    +0.070 A 
DOCKED: ATOM     19  C   UNL d   1      37.066  33.364  14.504 -0.37 +0.00    +0.052 C 
DOCKED: ATOM     20  C   UNL d   1      42.232  31.400  17.295 -0.37 +0.02    +0.066 A 
DOCKED: ATOM     21  C   UNL d   1      43.479  31.634  17.891 -0.31 -0.01    -0.025 A 
DOCKED: ATOM     22  C   UNL d   1      44.032  30.389  18.111 -0.30 -0.01    -0.021 A 
DOCKED: ATOM     23  C   UNL d   1      43.108  29.450  17.637 -0.25 +0.02    +0.066 A 
DOCKED: ATOM     24  C   UNL d   1      44.127  32.955  18.236 -0.20 +0.01    +0.051 C 
DOCKED: ATOM     25  N   UNL d   1      41.355  27.419  16.250 -0.26 -0.08    -0.248 N 
DOCKED: ATOM     26  N   UNL d   1      39.100  28.374  14.784 -0.06 -0.07    -0.248 N 
DOCKED: ATOM     27  N   UNL d   1      39.754  31.045  15.620 -0.11 -0.07    -0.248 N 
DOCKED: ATOM     28  N   UNL d   1      42.032  30.075  17.099 -0.23 -0.08    -0.248 N 
DOCKED: ATOM     29 FE   UNL d   1      40.566  29.226  15.942 -0.08 +0.00    +0.000 Fe
DOCKED: ENDROOT
DOCKED: BRANCH   6  30
DOCKED: ATOM     30  C   UNL d   1      43.576  25.019  17.938 -0.33 +0.02    +0.052 C 
DOCKED: BRANCH  30  31
DOCKED: ATOM     31  C   UNL d   1      44.840  24.786  17.119 -0.19 +0.07    +0.115 C 
DOCKED: BRANCH  31  32
DOCKED: ATOM     32  C   UNL d   1      45.924  24.198  17.980 -0.20 +0.11    +0.139 C 
DOCKED: ATOM     33  O   UNL d   1      46.431  23.122  17.694 -0.13 -0.81    -0.650 OA
DOCKED: BRANCH  32  34
DOCKED: ATOM     34  O   UNL d   1      46.346  24.852  19.075 +0.09 -0.48    -0.776 OA
DOCKED: ATOM     35  H   UNL d   1      46.276  25.817  19.102 +0.05 +0.10    +0.167 HD
DOCKED: ENDBRANCH  32  34
DOCKED: ENDBRANCH  31  32
DOCKED: ENDBRANCH  30  31
DOCKED: ENDBRANCH   6  30
DOCKED: BRANCH  22  36
DOCKED: ATOM     36  C   UNL d   1      45.392  30.122  18.699 -0.24 +0.02    +0.052 C 
DOCKED: BRANCH  36  37
DOCKED: ATOM     37  C   UNL d   1      45.247  29.332  19.991 -0.20 +0.10    +0.115 C 
DOCKED: BRANCH  37  38
DOCKED: ATOM     38  C   UNL d   1      46.474  28.507  20.258 -0.14 +0.13    +0.139 C 
DOCKED: ATOM     39  O   UNL d   1      47.138  28.683  21.269 -0.53 -0.93    -0.650 OA
DOCKED: BRANCH  38  40
DOCKED: ATOM     40  O   UNL d   1      46.853  27.564  19.378 +0.06 -0.48    -0.776 OA
DOCKED: ATOM     41  H   UNL d   1      47.243  26.743  19.708 +0.04 +0.10    +0.167 HD
DOCKED: ENDBRANCH  38  40
DOCKED: ENDBRANCH  37  38
DOCKED: ENDBRANCH  36  37
DOCKED: ENDBRANCH  22  36
DOCKED: BRANCH  12  42
DOCKED: ATOM     42  C   UNL d   1      36.340  28.419  12.265 -0.67 +0.00    +0.004 C 
DOCKED: ATOM     43  C   UNL d   1      35.055  28.292  12.623 -0.63 +0.00    +0.012 C 
DOCKED: ENDBRANCH  12  42
DOCKED: BRANCH  17  44
DOCKED: ATOM     44  C   UNL d   1      39.264  34.635  16.328 -0.54 +0.00    +0.004 C 
DOCKED: ATOM     45  C   UNL d   1      39.309  35.639  15.446 -0.56 +0.00    +0.012 C 
DOCKED: ENDBRANCH  17  44
DOCKED: TORSDOF 10
DOCKED: TER
DOCKED: ENDMDL
________________________________________________________________________________


	BEGINNING GENETIC ALGORITHM DOCKING 53 of 100
Run: 53 Seed: 12162178 28619052 [ Run 53 of 100 GA/GALS ]
Beginning LAMARCKIAN GENETIC ALGORITHM (LGA), with a maximum of 25000000 energy evaluations.

Final-Value: -16.828


	FINAL GENETIC ALGORITHM DOCKED STATE
	_______________________________________________


Detailed state:  trans 41.810 28.637 16.396 quatxyzw -0.252950 -0.098164 0.945681 -0.179076 center -0.174 -0.001 -0.047 ntor 10 -61.5316 111.8259 65.8652 -135.8032 115.9229 -96.4215 59.0560 33.7718 -23.0498 150.5067
State:	 41.810  28.637  16.396  -0.257 -0.100  0.961 -159.368    -61.53  111.83   65.87 -135.80  115.92  -96.42   59.06   33.77  -23.05  150.51

DOCKED: MODEL       53
DOCKED: USER    Run = 53
DOCKED: USER    DPF = D:/Protein_go_brrr/autodock/final/2DN3/heme_Fe/dock.dpf
DOCKED: USER  
DOCKED: USER    Estimated Free Energy of Binding    =  -11.62 kcal/mol  [=(1)+(2)+(3)-(4)]
DOCKED: USER    Estimated Inhibition Constant, Ki   =    3.06 nM (nanomolar)  [Temperature = 298.15 K]
DOCKED: USER    
DOCKED: USER    (1) Final Intermolecular Energy     =  -14.60 kcal/mol
DOCKED: USER        vdW + Hbond + desolv Energy     =  -13.18 kcal/mol
DOCKED: USER        Electrostatic Energy            =   -1.42 kcal/mol
DOCKED: USER    (2) Final Total Internal Energy     =   -2.23 kcal/mol
DOCKED: USER    (3) Torsional Free Energy           =   +2.98 kcal/mol
DOCKED: USER    (4) Unbound System's Energy  [=(2)] =   -2.23 kcal/mol
DOCKED: USER    
DOCKED: USER    
DOCKED: USER    NEWDPF move heme_Fe_opt.pdbqt
DOCKED: USER    NEWDPF about -0.174000 -0.001000 -0.047000
DOCKED: USER    NEWDPF tran0 41.810087 28.637431 16.395567
DOCKED: USER    NEWDPF quaternion0 -0.252950 -0.098164 0.945681 -0.179076
DOCKED: USER    NEWDPF axisangle0 -0.257106 -0.099777 0.961219 -159.368141
DOCKED: USER    NEWDPF quat0 -0.257106 -0.099777 0.961219 -159.368141
DOCKED: USER    NEWDPF dihe0 -61.53 111.83 65.87 -135.80 115.92 -96.42 59.06 33.77 -23.05 150.51 
DOCKED: USER  keepresnum = 1 
DOCKED: USER  
DOCKED: REMARK  10 active torsions:
DOCKED: REMARK  status: ('A' for Active; 'I' for Inactive)
DOCKED: REMARK    1  A    between atoms: C_6  and  C_10 
DOCKED: REMARK    2  A    between atoms: C_10  and  C_11 
DOCKED: REMARK    3  A    between atoms: C_11  and  C_12 
DOCKED: REMARK    4  A    between atoms: C_12  and  O_14 
DOCKED: REMARK    5  A    between atoms: C_17  and  C_20 
DOCKED: REMARK    6  A    between atoms: C_24  and  C_27 
DOCKED: REMARK    7  A    between atoms: C_31  and  C_34 
DOCKED: REMARK    8  A    between atoms: C_34  and  C_35 
DOCKED: REMARK    9  A    between atoms: C_35  and  C_36 
DOCKED: REMARK   10  A    between atoms: C_36  and  O_38 
DOCKED: USER                              x       y       z     vdW  Elec       q    Type
DOCKED: USER                           _______ _______ _______ _____ _____    ______ ____
DOCKED: ROOT
DOCKED: ATOM      1  C   UNL d   1      43.154  27.872  17.744 -0.15 +0.02    +0.064 C 
DOCKED: ATOM      2  C   UNL d   1      41.265  32.356  16.878 -0.41 +0.01    +0.064 A 
DOCKED: ATOM      3  C   UNL d   1      37.851  30.321  14.181 -0.37 +0.01    +0.064 C 
DOCKED: ATOM      4  C   UNL d   1      39.725  25.982  14.920 -0.46 +0.01    +0.064 C 
DOCKED: ATOM      5  C   UNL d   1      42.988  29.330  17.682 -0.20 +0.02    +0.066 A 
DOCKED: ATOM      6  C   UNL d   1      43.855  30.250  18.250 -0.30 -0.01    -0.021 A 
DOCKED: ATOM      7  C   UNL d   1      43.327  31.494  18.013 -0.34 -0.01    -0.025 A 
DOCKED: ATOM      8  C   UNL d   1      42.158  31.287  17.307 -0.38 +0.02    +0.066 A 
DOCKED: ATOM      9  C   UNL d   1      43.930  32.802  18.426 -0.36 +0.01    +0.051 C 
DOCKED: ATOM     10  C   UNL d   1      40.161  32.188  16.148 -0.38 +0.01    +0.066 A 
DOCKED: ATOM     11  C   UNL d   1      39.265  33.217  15.849 -0.41 -0.00    -0.021 A 
DOCKED: ATOM     12  C   UNL d   1      38.262  32.652  15.086 -0.39 +0.00    +0.000 A 
DOCKED: ATOM     13  C   UNL d   1      38.598  31.293  14.964 -0.35 +0.01    +0.070 A 
DOCKED: ATOM     14  C   UNL d   1      39.324  34.654  16.326 -0.52 +0.01    +0.052 C 
DOCKED: ATOM     15  C   UNL d   1      38.140  29.001  14.103 -0.31 +0.01    +0.066 A 
DOCKED: ATOM     16  C   UNL d   1      37.463  28.124  13.265 -0.44 -0.00    -0.021 A 
DOCKED: ATOM     17  C   UNL d   1      38.000  26.871  13.479 -0.45 +0.00    +0.000 A 
DOCKED: ATOM     18  C   UNL d   1      38.991  27.013  14.448 -0.36 +0.02    +0.070 A 
DOCKED: ATOM     19  C   UNL d   1      36.338  28.443  12.318 -0.62 +0.01    +0.052 C 
DOCKED: ATOM     20  C   UNL d   1      40.818  26.103  15.893 -0.35 +0.02    +0.066 A 
DOCKED: ATOM     21  C   UNL d   1      41.450  25.030  16.539 -0.39 -0.01    -0.025 A 
DOCKED: ATOM     22  C   UNL d   1      42.432  25.591  17.329 -0.35 -0.01    -0.021 A 
DOCKED: ATOM     23  C   UNL d   1      42.357  26.976  17.140 -0.28 +0.02    +0.066 A 
DOCKED: ATOM     24  C   UNL d   1      41.150  23.553  16.428 -0.42 +0.01    +0.051 C 
DOCKED: ATOM     25  N   UNL d   1      41.959  29.970  17.099 -0.23 -0.08    -0.248 N 
DOCKED: ATOM     26  N   UNL d   1      39.750  31.007  15.618 -0.08 -0.07    -0.248 N 
DOCKED: ATOM     27  N   UNL d   1      39.108  28.328  14.800 -0.10 -0.07    -0.248 N 
DOCKED: ATOM     28  N   UNL d   1      41.341  27.285  16.298 -0.27 -0.08    -0.248 N 
DOCKED: ATOM     29 FE   UNL d   1      40.545  29.144  15.958 -0.08 +0.00    +0.000 Fe
DOCKED: ENDROOT
DOCKED: BRANCH   6  30
DOCKED: ATOM     30  C   UNL d   1      45.131  29.963  18.965 -0.26 +0.03    +0.052 C 
DOCKED: BRANCH  30  31
DOCKED: ATOM     31  C   UNL d   1      46.166  29.379  18.009 +0.23 +0.05    +0.115 C 
DOCKED: BRANCH  31  32
DOCKED: ATOM     32  C   UNL d   1      46.607  28.020  18.478 -0.12 +0.07    +0.139 C 
DOCKED: ATOM     33  O   UNL d   1      46.378  27.025  17.805 +0.02 -0.33    -0.650 OA
DOCKED: BRANCH  32  34
DOCKED: ATOM     34  O   UNL d   1      47.258  27.888  19.645 +0.05 -0.50    -0.776 OA
DOCKED: ATOM     35  H   UNL d   1      46.860  27.354  20.347 +0.04 +0.14    +0.167 HD
DOCKED: ENDBRANCH  32  34
DOCKED: ENDBRANCH  31  32
DOCKED: ENDBRANCH  30  31
DOCKED: ENDBRANCH   6  30
DOCKED: BRANCH  22  36
DOCKED: ATOM     36  C   UNL d   1      43.356  24.839  18.249 -0.36 +0.02    +0.052 C 
DOCKED: BRANCH  36  37
DOCKED: ATOM     37  C   UNL d   1      43.035  25.187  19.695 -0.32 +0.05    +0.115 C 
DOCKED: BRANCH  37  38
DOCKED: ATOM     38  C   UNL d   1      44.276  25.166  20.543 -0.26 +0.08    +0.139 C 
DOCKED: ATOM     39  O   UNL d   1      44.569  24.177  21.198 -0.48 -0.43    -0.650 OA
DOCKED: BRANCH  38  40
DOCKED: ATOM     40  O   UNL d   1      45.076  26.246  20.587 +0.06 -0.59    -0.776 OA
DOCKED: ATOM     41  H   UNL d   1      45.577  26.493  19.798 +0.06 +0.11    +0.167 HD
DOCKED: ENDBRANCH  38  40
DOCKED: ENDBRANCH  37  38
DOCKED: ENDBRANCH  36  37
DOCKED: ENDBRANCH  22  36
DOCKED: BRANCH  12  42
DOCKED: ATOM     42  C   UNL d   1      37.077  33.390  14.549 -0.41 +0.00    +0.004 C 
DOCKED: ATOM     43  C   UNL d   1      36.915  33.567  13.231 -0.51 +0.00    +0.012 C 
DOCKED: ENDBRANCH  12  42
DOCKED: BRANCH  17  44
DOCKED: ATOM     44  C   UNL d   1      37.604  25.624  12.788 -0.51 +0.00    +0.004 C 
DOCKED: ATOM     45  C   UNL d   1      36.532  24.930  13.186 -0.65 +0.00    +0.012 C 
DOCKED: ENDBRANCH  17  44
DOCKED: TORSDOF 10
DOCKED: TER
DOCKED: ENDMDL
________________________________________________________________________________


	BEGINNING GENETIC ALGORITHM DOCKING 54 of 100
Run: 54 Seed: 2124866632 1325641063 [ Run 54 of 100 GA/GALS ]
Beginning LAMARCKIAN GENETIC ALGORITHM (LGA), with a maximum of 25000000 energy evaluations.

Final-Value: -9.591


	FINAL GENETIC ALGORITHM DOCKED STATE
	_______________________________________________


Detailed state:  trans 40.942 42.561 2.336 quatxyzw -0.910886 0.039141 0.210288 -0.352894 center -0.174 -0.001 -0.047 ntor 10 -170.7145 -29.4920 65.4172 48.8826 -92.6839 180.0000 147.1605 108.4610 -161.2825 -162.8732
State:	 40.942  42.561   2.336  -0.974  0.042  0.225 -138.671   -170.71  -29.49   65.42   48.88  -92.68  180.00  147.16  108.46 -161.28 -162.87

DOCKED: MODEL       54
DOCKED: USER    Run = 54
DOCKED: USER    DPF = D:/Protein_go_brrr/autodock/final/2DN3/heme_Fe/dock.dpf
DOCKED: USER  
DOCKED: USER    Estimated Free Energy of Binding    =   -5.01 kcal/mol  [=(1)+(2)+(3)-(4)]
DOCKED: USER    Estimated Inhibition Constant, Ki   =  210.94 uM (micromolar)  [Temperature = 298.15 K]
DOCKED: USER    
DOCKED: USER    (1) Final Intermolecular Energy     =   -8.00 kcal/mol
DOCKED: USER        vdW + Hbond + desolv Energy     =   -5.72 kcal/mol
DOCKED: USER        Electrostatic Energy            =   -2.27 kcal/mol
DOCKED: USER    (2) Final Total Internal Energy     =   -1.59 kcal/mol
DOCKED: USER    (3) Torsional Free Energy           =   +2.98 kcal/mol
DOCKED: USER    (4) Unbound System's Energy  [=(2)] =   -1.59 kcal/mol
DOCKED: USER    
DOCKED: USER    
DOCKED: USER    NEWDPF move heme_Fe_opt.pdbqt
DOCKED: USER    NEWDPF about -0.174000 -0.001000 -0.047000
DOCKED: USER    NEWDPF tran0 40.942026 42.560702 2.335967
DOCKED: USER    NEWDPF quaternion0 -0.910886 0.039141 0.210288 -0.352894
DOCKED: USER    NEWDPF axisangle0 -0.973519 0.041833 0.224748 -138.671093
DOCKED: USER    NEWDPF quat0 -0.973519 0.041833 0.224748 -138.671093
DOCKED: USER    NEWDPF dihe0 -170.71 -29.49 65.42 48.88 -92.68 180.00 147.16 108.46 -161.28 -162.87 
DOCKED: USER  keepresnum = 1 
DOCKED: USER  
DOCKED: REMARK  10 active torsions:
DOCKED: REMARK  status: ('A' for Active; 'I' for Inactive)
DOCKED: REMARK    1  A    between atoms: C_6  and  C_10 
DOCKED: REMARK    2  A    between atoms: C_10  and  C_11 
DOCKED: REMARK    3  A    between atoms: C_11  and  C_12 
DOCKED: REMARK    4  A    between atoms: C_12  and  O_14 
DOCKED: REMARK    5  A    between atoms: C_17  and  C_20 
DOCKED: REMARK    6  A    between atoms: C_24  and  C_27 
DOCKED: REMARK    7  A    between atoms: C_31  and  C_34 
DOCKED: REMARK    8  A    between atoms: C_34  and  C_35 
DOCKED: REMARK    9  A    between atoms: C_35  and  C_36 
DOCKED: REMARK   10  A    between atoms: C_36  and  O_38 
DOCKED: USER                              x       y       z     vdW  Elec       q    Type
DOCKED: USER                           _______ _______ _______ _____ _____    ______ ____
DOCKED: ROOT
DOCKED: ATOM      1  C   UNL d   1      38.966  42.803   2.834 -0.21 +0.02    +0.064 C 
DOCKED: ATOM      2  C   UNL d   1      43.084  45.443   3.546 -0.21 +0.00    +0.064 A 
DOCKED: ATOM      3  C   UNL d   1      45.292  42.764   0.227 -0.07 +0.01    +0.064 C 
DOCKED: ATOM      4  C   UNL d   1      41.350  40.129  -0.401 -0.07 +0.01    +0.064 C 
DOCKED: ATOM      5  C   UNL d   1      39.945  43.740   3.402 -0.17 +0.02    +0.066 A 
DOCKED: ATOM      6  C   UNL d   1      39.696  44.598   4.461 -0.27 -0.01    -0.021 A 
DOCKED: ATOM      7  C   UNL d   1      40.839  45.333   4.656 -0.31 -0.00    -0.025 A 
DOCKED: ATOM      8  C   UNL d   1      41.742  44.896   3.707 -0.19 +0.01    +0.066 A 
DOCKED: ATOM      9  C   UNL d   1      41.047  46.379   5.708 -0.17 -0.00    +0.051 C 
DOCKED: ATOM     10  C   UNL d   1      43.994  45.001   2.677 -0.10 +0.00    +0.066 A 
DOCKED: ATOM     11  C   UNL d   1      45.229  45.619   2.467 -0.14 +0.00    -0.021 A 
DOCKED: ATOM     12  C   UNL d   1      45.879  44.875   1.502 -0.09 +0.00    +0.000 A 
DOCKED: ATOM     13  C   UNL d   1      44.994  43.836   1.164 -0.08 +0.01    +0.070 A 
DOCKED: ATOM     14  C   UNL d   1      45.738  46.896   3.104 -0.18 -0.01    +0.052 C 
DOCKED: ATOM     15  C   UNL d   1      44.425  41.791  -0.140 -0.06 +0.01    +0.066 A 
DOCKED: ATOM     16  C   UNL d   1      44.780  40.729  -0.961 -0.03 -0.00    -0.021 A 
DOCKED: ATOM     17  C   UNL d   1      43.644  39.969  -1.147 -0.04 +0.00    +0.000 A 
DOCKED: ATOM     18  C   UNL d   1      42.619  40.590  -0.436 -0.05 +0.01    +0.070 A 
DOCKED: ATOM     19  C   UNL d   1      46.128  40.450  -1.570 -0.01 +0.01    +0.052 C 
DOCKED: ATOM     20  C   UNL d   1      40.260  40.720   0.384 -0.08 +0.02    +0.066 A 
DOCKED: ATOM     21  C   UNL d   1      38.905  40.378   0.275 -0.04 -0.01    -0.025 A 
DOCKED: ATOM     22  C   UNL d   1      38.245  41.143   1.215 -0.13 -0.01    -0.021 A 
DOCKED: ATOM     23  C   UNL d   1      39.218  41.922   1.853 -0.13 +0.02    +0.066 A 
DOCKED: ATOM     24  C   UNL d   1      38.254  39.388  -0.663 -0.02 +0.01    +0.051 C 
DOCKED: ATOM     25  N   UNL d   1      41.199  43.920   2.952 -0.08 -0.05    -0.248 N 
DOCKED: ATOM     26  N   UNL d   1      43.842  43.917   1.874 -0.05 -0.03    -0.248 N 
DOCKED: ATOM     27  N   UNL d   1      43.108  41.686   0.218 -0.04 -0.04    -0.248 N 
DOCKED: ATOM     28  N   UNL d   1      40.439  41.693   1.311 -0.05 -0.06    -0.248 N 
DOCKED: ATOM     29 FE   UNL d   1      42.140  42.804   1.591 -0.03 +0.00    +0.000 Fe
DOCKED: ENDROOT
DOCKED: BRANCH   6  30
DOCKED: ATOM     30  C   UNL d   1      38.444  44.700   5.264 -0.42 +0.02    +0.052 C 
DOCKED: BRANCH  30  31
DOCKED: ATOM     31  C   UNL d   1      37.331  45.348   4.448 -0.38 +0.08    +0.115 C 
DOCKED: BRANCH  31  32
DOCKED: ATOM     32  C   UNL d   1      37.900  46.363   3.495 -0.24 +0.11    +0.139 C 
DOCKED: ATOM     33  O   UNL d   1      37.985  47.540   3.817 -0.60 -0.46    -0.650 OA
DOCKED: BRANCH  32  34
DOCKED: ATOM     34  O   UNL d   1      38.320  45.984   2.277 +0.00 -0.56    -0.776 OA
DOCKED: ATOM     35  H   UNL d   1      38.129  45.085   1.973 +0.04 +0.13    +0.167 HD
DOCKED: ENDBRANCH  32  34
DOCKED: ENDBRANCH  31  32
DOCKED: ENDBRANCH  30  31
DOCKED: ENDBRANCH   6  30
DOCKED: BRANCH  22  36
DOCKED: ATOM     36  C   UNL d   1      36.758  41.157   1.451 -0.20 +0.03    +0.052 C 
DOCKED: BRANCH  36  37
DOCKED: ATOM     37  C   UNL d   1      36.050  41.725   0.230 -0.10 +0.08    +0.115 C 
DOCKED: BRANCH  37  38
DOCKED: ATOM     38  C   UNL d   1      36.269  43.208   0.122 +0.08 +0.18    +0.139 C 
DOCKED: ATOM     39  O   UNL d   1      35.779  43.847  -0.798 -0.58 -1.04    -0.650 OA
DOCKED: BRANCH  38  40
DOCKED: ATOM     40  O   UNL d   1      37.014  43.845   1.042 -0.04 -0.95    -0.776 OA
DOCKED: ATOM     41  H   UNL d   1      37.507  44.636   0.782 +0.02 +0.18    +0.167 HD
DOCKED: ENDBRANCH  38  40
DOCKED: ENDBRANCH  37  38
DOCKED: ENDBRANCH  36  37
DOCKED: ENDBRANCH  22  36
DOCKED: BRANCH  12  42
DOCKED: ATOM     42  C   UNL d   1      47.237  45.181   0.956 -0.05 -0.00    +0.004 C 
DOCKED: ATOM     43  C   UNL d   1      48.272  44.362   1.186 -0.05 -0.00    +0.012 C 
DOCKED: ENDBRANCH  12  42
DOCKED: BRANCH  17  44
DOCKED: ATOM     44  C   UNL d   1      43.550  38.720  -1.935 -0.03 +0.00    +0.004 C 
DOCKED: ATOM     45  C   UNL d   1      43.510  37.529  -1.329 -0.08 +0.00    +0.012 C 
DOCKED: ENDBRANCH  17  44
DOCKED: TORSDOF 10
DOCKED: TER
DOCKED: ENDMDL
________________________________________________________________________________


	BEGINNING GENETIC ALGORITHM DOCKING 55 of 100
Run: 55 Seed: 1265822400 934416648 [ Run 55 of 100 GA/GALS ]
Beginning LAMARCKIAN GENETIC ALGORITHM (LGA), with a maximum of 25000000 energy evaluations.

Final-Value: -12.626


	FINAL GENETIC ALGORITHM DOCKED STATE
	_______________________________________________


Detailed state:  trans 44.603 20.788 17.219 quatxyzw 0.571658 0.698476 0.401079 -0.156442 center -0.174 -0.001 -0.047 ntor 10 -158.3616 -180.0000 -149.5606 31.2315 -86.0930 19.1804 163.0382 -108.0581 -166.1603 128.6764
State:	 44.603  20.788  17.219   0.579  0.707  0.406 -161.999   -158.36 -180.00 -149.56   31.23  -86.09   19.18  163.04 -108.06 -166.16  128.68

DOCKED: MODEL       55
DOCKED: USER    Run = 55
DOCKED: USER    DPF = D:/Protein_go_brrr/autodock/final/2DN3/heme_Fe/dock.dpf
DOCKED: USER  
DOCKED: USER    Estimated Free Energy of Binding    =   -8.02 kcal/mol  [=(1)+(2)+(3)-(4)]
DOCKED: USER    Estimated Inhibition Constant, Ki   =    1.32 uM (micromolar)  [Temperature = 298.15 K]
DOCKED: USER    
DOCKED: USER    (1) Final Intermolecular Energy     =  -11.01 kcal/mol
DOCKED: USER        vdW + Hbond + desolv Energy     =   -8.76 kcal/mol
DOCKED: USER        Electrostatic Energy            =   -2.25 kcal/mol
DOCKED: USER    (2) Final Total Internal Energy     =   -1.62 kcal/mol
DOCKED: USER    (3) Torsional Free Energy           =   +2.98 kcal/mol
DOCKED: USER    (4) Unbound System's Energy  [=(2)] =   -1.62 kcal/mol
DOCKED: USER    
DOCKED: USER    
DOCKED: USER    NEWDPF move heme_Fe_opt.pdbqt
DOCKED: USER    NEWDPF about -0.174000 -0.001000 -0.047000
DOCKED: USER    NEWDPF tran0 44.602934 20.788382 17.219294
DOCKED: USER    NEWDPF quaternion0 0.571658 0.698476 0.401079 -0.156442
DOCKED: USER    NEWDPF axisangle0 0.578784 0.707183 0.406079 -161.999141
DOCKED: USER    NEWDPF quat0 0.578784 0.707183 0.406079 -161.999141
DOCKED: USER    NEWDPF dihe0 -158.36 -180.00 -149.56 31.23 -86.09 19.18 163.04 -108.06 -166.16 128.68 
DOCKED: USER  keepresnum = 1 
DOCKED: USER  
DOCKED: REMARK  10 active torsions:
DOCKED: REMARK  status: ('A' for Active; 'I' for Inactive)
DOCKED: REMARK    1  A    between atoms: C_6  and  C_10 
DOCKED: REMARK    2  A    between atoms: C_10  and  C_11 
DOCKED: REMARK    3  A    between atoms: C_11  and  C_12 
DOCKED: REMARK    4  A    between atoms: C_12  and  O_14 
DOCKED: REMARK    5  A    between atoms: C_17  and  C_20 
DOCKED: REMARK    6  A    between atoms: C_24  and  C_27 
DOCKED: REMARK    7  A    between atoms: C_31  and  C_34 
DOCKED: REMARK    8  A    between atoms: C_34  and  C_35 
DOCKED: REMARK    9  A    between atoms: C_35  and  C_36 
DOCKED: REMARK   10  A    between atoms: C_36  and  O_38 
DOCKED: USER                              x       y       z     vdW  Elec       q    Type
DOCKED: USER                           _______ _______ _______ _____ _____    ______ ____
DOCKED: ROOT
DOCKED: ATOM      1  C   UNL d   1      45.513  19.159  16.365 -0.16 +0.05    +0.064 C 
DOCKED: ATOM      2  C   UNL d   1      42.057  22.378  14.906 -0.32 +0.01    +0.064 A 
DOCKED: ATOM      3  C   UNL d   1      43.298  25.255  18.546 -0.34 +0.03    +0.064 C 
DOCKED: ATOM      4  C   UNL d   1      46.576  22.106  20.038 -0.14 +0.03    +0.064 C 
DOCKED: ATOM      5  C   UNL d   1      44.368  19.760  15.667 -0.21 +0.04    +0.066 A 
DOCKED: ATOM      6  C   UNL d   1      43.671  19.161  14.630 -0.21 -0.01    -0.021 A 
DOCKED: ATOM      7  C   UNL d   1      42.714  20.057  14.223 -0.36 -0.01    -0.025 A 
DOCKED: ATOM      8  C   UNL d   1      42.864  21.170  15.028 -0.33 +0.02    +0.066 A 
DOCKED: ATOM      9  C   UNL d   1      41.707  19.840  13.136 -0.36 +0.01    +0.051 C 
DOCKED: ATOM     10  C   UNL d   1      42.142  23.442  15.706 -0.38 +0.02    +0.066 A 
DOCKED: ATOM     11  C   UNL d   1      41.436  24.629  15.495 -0.41 -0.01    -0.021 A 
DOCKED: ATOM     12  C   UNL d   1      41.790  25.481  16.522 -0.36 +0.00    +0.000 A 
DOCKED: ATOM     13  C   UNL d   1      42.708  24.766  17.310 -0.33 +0.02    +0.070 A 
DOCKED: ATOM     14  C   UNL d   1      40.523  24.960  14.333 -0.54 +0.01    +0.052 C 
DOCKED: ATOM     15  C   UNL d   1      44.222  24.591  19.281 -0.21 +0.03    +0.066 A 
DOCKED: ATOM     16  C   UNL d   1      44.687  25.048  20.507 -0.24 -0.01    -0.021 A 
DOCKED: ATOM     17  C   UNL d   1      45.635  24.143  20.938 -0.16 +0.00    +0.000 A 
DOCKED: ATOM     18  C   UNL d   1      45.729  23.155  19.960 -0.03 +0.04    +0.070 A 
DOCKED: ATOM     19  C   UNL d   1      44.276  26.298  21.237 -0.26 +0.05    +0.052 C 
DOCKED: ATOM     20  C   UNL d   1      46.659  21.016  19.058 -0.16 +0.04    +0.066 A 
DOCKED: ATOM     21  C   UNL d   1      47.661  20.036  19.020 -0.09 -0.02    -0.025 A 
DOCKED: ATOM     22  C   UNL d   1      47.331  19.199  17.974 -0.09 -0.02    -0.021 A 
DOCKED: ATOM     23  C   UNL d   1      46.151  19.703  17.414 -0.14 +0.06    +0.066 A 
DOCKED: ATOM     24  C   UNL d   1      48.870  19.888  19.914 -0.03 +0.02    +0.051 C 
DOCKED: ATOM     25  N   UNL d   1      43.864  20.982  15.911 -0.17 -0.13    -0.248 N 
DOCKED: ATOM     26  N   UNL d   1      42.930  23.526  16.809 -0.21 -0.09    -0.248 N 
DOCKED: ATOM     27  N   UNL d   1      44.830  23.407  18.961 -0.11 -0.15    -0.248 N 
DOCKED: ATOM     28  N   UNL d   1      45.771  20.837  18.051 -0.15 -0.20    -0.248 N 
DOCKED: ATOM     29 FE   UNL d   1      44.352  22.182  17.431 -0.07 +0.00    +0.000 Fe
DOCKED: ENDROOT
DOCKED: BRANCH   6  30
DOCKED: ATOM     30  C   UNL d   1      43.888  17.798  14.067 -0.12 +0.01    +0.052 C 
DOCKED: BRANCH  30  31
DOCKED: ATOM     31  C   UNL d   1      45.114  17.776  13.161 -0.07 +0.04    +0.115 C 
DOCKED: BRANCH  31  32
DOCKED: ATOM     32  C   UNL d   1      45.503  19.175  12.768 -0.22 +0.07    +0.139 C 
DOCKED: ATOM     33  O   UNL d   1      44.987  19.716  11.800 -0.06 -0.19    -0.650 OA
DOCKED: BRANCH  32  34
DOCKED: ATOM     34  O   UNL d   1      46.425  19.844  13.480 -0.38 -0.90    -0.776 OA
DOCKED: ATOM     35  H   UNL d   1      47.050  19.346  14.025 +0.03 +0.22    +0.167 HD
DOCKED: ENDBRANCH  32  34
DOCKED: ENDBRANCH  31  32
DOCKED: ENDBRANCH  30  31
DOCKED: ENDBRANCH   6  30
DOCKED: BRANCH  22  36
DOCKED: ATOM     36  C   UNL d   1      48.133  18.012  17.511 -0.04 +0.03    +0.052 C 
DOCKED: BRANCH  36  37
DOCKED: ATOM     37  C   UNL d   1      48.251  18.033  15.994 -0.05 +0.08    +0.115 C 
DOCKED: BRANCH  37  38
DOCKED: ATOM     38  C   UNL d   1      49.163  19.137  15.539 -0.04 +0.17    +0.139 C 
DOCKED: ATOM     39  O   UNL d   1      49.959  19.649  16.313 -0.20 -0.74    -0.650 OA
DOCKED: BRANCH  38  40
DOCKED: ATOM     40  O   UNL d   1      49.104  19.576  14.269 +0.06 -1.08    -0.776 OA
DOCKED: ATOM     41  H   UNL d   1      48.474  19.168  13.660 +0.02 +0.18    +0.167 HD
DOCKED: ENDBRANCH  38  40
DOCKED: ENDBRANCH  37  38
DOCKED: ENDBRANCH  36  37
DOCKED: ENDBRANCH  22  36
DOCKED: BRANCH  12  42
DOCKED: ATOM     42  C   UNL d   1      41.279  26.877  16.691 -0.42 +0.00    +0.004 C 
DOCKED: ATOM     43  C   UNL d   1      42.028  27.932  16.344 -0.38 +0.00    +0.012 C 
DOCKED: ENDBRANCH  12  42
DOCKED: BRANCH  17  44
DOCKED: ATOM     44  C   UNL d   1      46.387  24.207  22.212 -0.13 +0.00    +0.004 C 
DOCKED: ATOM     45  C   UNL d   1      45.868  23.709  23.339 -0.18 +0.01    +0.012 C 
DOCKED: ENDBRANCH  17  44
DOCKED: TORSDOF 10
DOCKED: TER
DOCKED: ENDMDL
________________________________________________________________________________


	BEGINNING GENETIC ALGORITHM DOCKING 56 of 100
Run: 56 Seed: 1460979468 1870770373 [ Run 56 of 100 GA/GALS ]
Beginning LAMARCKIAN GENETIC ALGORITHM (LGA), with a maximum of 25000000 energy evaluations.

Final-Value: -16.171


	FINAL GENETIC ALGORITHM DOCKED STATE
	_______________________________________________


Detailed state:  trans 8.627 34.929 -1.059 quatxyzw 0.405695 0.199031 0.264602 0.851929 center -0.174 -0.001 -0.047 ntor 10 167.6545 9.7956 68.8096 -150.8308 147.6754 -125.0687 -17.4354 -76.7593 -179.8063 11.7103
State:	  8.627  34.929  -1.059   0.775  0.380  0.505 63.156    167.65    9.80   68.81 -150.83  147.68 -125.07  -17.44  -76.76 -179.81   11.71

DOCKED: MODEL       56
DOCKED: USER    Run = 56
DOCKED: USER    DPF = D:/Protein_go_brrr/autodock/final/2DN3/heme_Fe/dock.dpf
DOCKED: USER  
DOCKED: USER    Estimated Free Energy of Binding    =  -10.98 kcal/mol  [=(1)+(2)+(3)-(4)]
DOCKED: USER    Estimated Inhibition Constant, Ki   =    8.97 nM (nanomolar)  [Temperature = 298.15 K]
DOCKED: USER    
DOCKED: USER    (1) Final Intermolecular Energy     =  -13.96 kcal/mol
DOCKED: USER        vdW + Hbond + desolv Energy     =  -12.46 kcal/mol
DOCKED: USER        Electrostatic Energy            =   -1.50 kcal/mol
DOCKED: USER    (2) Final Total Internal Energy     =   -2.21 kcal/mol
DOCKED: USER    (3) Torsional Free Energy           =   +2.98 kcal/mol
DOCKED: USER    (4) Unbound System's Energy  [=(2)] =   -2.21 kcal/mol
DOCKED: USER    
DOCKED: USER    
DOCKED: USER    NEWDPF move heme_Fe_opt.pdbqt
DOCKED: USER    NEWDPF about -0.174000 -0.001000 -0.047000
DOCKED: USER    NEWDPF tran0 8.626965 34.929198 -1.059203
DOCKED: USER    NEWDPF quaternion0 0.405695 0.199031 0.264602 0.851929
DOCKED: USER    NEWDPF axisangle0 0.774735 0.380080 0.505297 63.155757
DOCKED: USER    NEWDPF quat0 0.774735 0.380080 0.505297 63.155757
DOCKED: USER    NEWDPF dihe0 167.65 9.80 68.81 -150.83 147.68 -125.07 -17.44 -76.76 -179.81 11.71 
DOCKED: USER  keepresnum = 1 
DOCKED: USER  
DOCKED: REMARK  10 active torsions:
DOCKED: REMARK  status: ('A' for Active; 'I' for Inactive)
DOCKED: REMARK    1  A    between atoms: C_6  and  C_10 
DOCKED: REMARK    2  A    between atoms: C_10  and  C_11 
DOCKED: REMARK    3  A    between atoms: C_11  and  C_12 
DOCKED: REMARK    4  A    between atoms: C_12  and  O_14 
DOCKED: REMARK    5  A    between atoms: C_17  and  C_20 
DOCKED: REMARK    6  A    between atoms: C_24  and  C_27 
DOCKED: REMARK    7  A    between atoms: C_31  and  C_34 
DOCKED: REMARK    8  A    between atoms: C_34  and  C_35 
DOCKED: REMARK    9  A    between atoms: C_35  and  C_36 
DOCKED: REMARK   10  A    between atoms: C_36  and  O_38 
DOCKED: USER                              x       y       z     vdW  Elec       q    Type
DOCKED: USER                           _______ _______ _______ _____ _____    ______ ____
DOCKED: ROOT
DOCKED: ATOM      1  C   UNL d   1       6.978  35.895  -1.807 +0.04 +0.01    +0.064 C 
DOCKED: ATOM      2  C   UNL d   1       7.817  32.919   2.049 -0.40 +0.01    +0.064 A 
DOCKED: ATOM      3  C   UNL d   1      12.533  33.632   1.484 -0.39 +0.00    +0.064 C 
DOCKED: ATOM      4  C   UNL d   1      11.748  36.431  -2.315 -0.44 +0.00    +0.064 C 
DOCKED: ATOM      5  C   UNL d   1       6.781  34.925  -0.721 -0.27 +0.01    +0.066 A 
DOCKED: ATOM      6  C   UNL d   1       5.557  34.395  -0.347 -0.29 -0.00    -0.021 A 
DOCKED: ATOM      7  C   UNL d   1       5.790  33.572   0.727 -0.28 -0.00    -0.025 A 
DOCKED: ATOM      8  C   UNL d   1       7.149  33.630   0.966 -0.33 +0.01    +0.066 A 
DOCKED: ATOM      9  C   UNL d   1       4.763  32.765   1.460 -0.17 +0.00    +0.051 C 
DOCKED: ATOM     10  C   UNL d   1       9.134  32.912   2.267 -0.37 +0.01    +0.066 A 
DOCKED: ATOM     11  C   UNL d   1       9.732  32.315   3.379 -0.43 -0.00    -0.021 A 
DOCKED: ATOM     12  C   UNL d   1      11.091  32.522   3.248 -0.42 +0.00    +0.000 A 
DOCKED: ATOM     13  C   UNL d   1      11.252  33.248   2.056 -0.35 +0.00    +0.070 A 
DOCKED: ATOM     14  C   UNL d   1       9.038  31.641   4.545 -0.55 +0.00    +0.052 C 
DOCKED: ATOM     15  C   UNL d   1      12.692  34.375   0.364 -0.34 +0.01    +0.066 A 
DOCKED: ATOM     16  C   UNL d   1      13.932  34.636  -0.205 -0.44 -0.00    -0.021 A 
DOCKED: ATOM     17  C   UNL d   1      13.708  35.446  -1.298 -0.44 +0.00    +0.000 A 
DOCKED: ATOM     18  C   UNL d   1      12.334  35.664  -1.369 -0.35 +0.01    +0.070 A 
DOCKED: ATOM     19  C   UNL d   1      15.279  34.164   0.274 -0.58 +0.00    +0.052 C 
DOCKED: ATOM     20  C   UNL d   1      10.301  36.633  -2.457 -0.38 +0.01    +0.066 A 
DOCKED: ATOM     21  C   UNL d   1       9.694  37.576  -3.299 -0.39 -0.00    -0.025 A 
DOCKED: ATOM     22  C   UNL d   1       8.335  37.397  -3.148 -0.32 -0.00    -0.021 A 
DOCKED: ATOM     23  C   UNL d   1       8.167  36.362  -2.220 -0.14 +0.01    +0.066 A 
DOCKED: ATOM     24  C   UNL d   1      10.350  38.597  -4.199 -0.43 -0.01    +0.051 C 
DOCKED: ATOM     25  N   UNL d   1       7.751  34.446   0.078 -0.13 -0.05    -0.248 N 
DOCKED: ATOM     26  N   UNL d   1      10.059  33.494   1.462 -0.22 -0.03    -0.248 N 
DOCKED: ATOM     27  N   UNL d   1      11.704  34.971  -0.374 -0.10 -0.04    -0.248 N 
DOCKED: ATOM     28  N   UNL d   1       9.369  35.931  -1.769 -0.19 -0.05    -0.248 N 
DOCKED: ATOM     29 FE   UNL d   1       9.715  34.714  -0.155 -0.08 +0.00    +0.000 Fe
DOCKED: ENDROOT
DOCKED: BRANCH   6  30
DOCKED: ATOM     30  C   UNL d   1       4.234  34.641  -0.988 -0.23 +0.01    +0.052 C 
DOCKED: BRANCH  30  31
DOCKED: ATOM     31  C   UNL d   1       3.533  35.831  -0.342 -0.16 +0.06    +0.115 C 
DOCKED: BRANCH  31  32
DOCKED: ATOM     32  C   UNL d   1       2.432  36.339  -1.231 -0.13 +0.11    +0.139 C 
DOCKED: ATOM     33  O   UNL d   1       1.419  36.828  -0.751 -0.30 -1.06    -0.650 OA
DOCKED: BRANCH  32  34
DOCKED: ATOM     34  O   UNL d   1       2.553  36.260  -2.567 +0.04 -0.39    -0.776 OA
DOCKED: ATOM     35  H   UNL d   1       3.416  36.045  -2.948 +0.04 +0.06    +0.167 HD
DOCKED: ENDBRANCH  32  34
DOCKED: ENDBRANCH  31  32
DOCKED: ENDBRANCH  30  31
DOCKED: ENDBRANCH   6  30
DOCKED: BRANCH  22  36
DOCKED: ATOM     36  C   UNL d   1       7.261  38.209  -3.822 -0.27 +0.00    +0.052 C 
DOCKED: BRANCH  36  37
DOCKED: ATOM     37  C   UNL d   1       6.568  37.365  -4.882 -0.19 +0.01    +0.115 C 
DOCKED: BRANCH  37  38
DOCKED: ATOM     38  C   UNL d   1       5.235  36.872  -4.392 -0.14 +0.02    +0.139 C 
DOCKED: ATOM     39  O   UNL d   1       4.968  35.680  -4.399 +0.01 -0.11    -0.650 OA
DOCKED: BRANCH  38  40
DOCKED: ATOM     40  O   UNL d   1       4.320  37.749  -3.942 +0.05 -0.22    -0.776 OA
DOCKED: ATOM     41  H   UNL d   1       3.526  37.415  -3.502 +0.03 +0.06    +0.167 HD
DOCKED: ENDBRANCH  38  40
DOCKED: ENDBRANCH  37  38
DOCKED: ENDBRANCH  36  37
DOCKED: ENDBRANCH  22  36
DOCKED: BRANCH  12  42
DOCKED: ATOM     42  C   UNL d   1      12.125  32.058   4.225 -0.36 +0.00    +0.004 C 
DOCKED: ATOM     43  C   UNL d   1      13.057  31.164   3.870 -0.65 +0.00    +0.012 C 
DOCKED: ENDBRANCH  12  42
DOCKED: BRANCH  17  44
DOCKED: ATOM     44  C   UNL d   1      14.740  35.961  -2.227 -0.35 +0.00    +0.004 C 
DOCKED: ATOM     45  C   UNL d   1      15.248  37.188  -2.075 -0.65 +0.00    +0.012 C 
DOCKED: ENDBRANCH  17  44
DOCKED: TORSDOF 10
DOCKED: TER
DOCKED: ENDMDL
________________________________________________________________________________


	BEGINNING GENETIC ALGORITHM DOCKING 57 of 100
Run: 57 Seed: 1028445357 649327077 [ Run 57 of 100 GA/GALS ]
Beginning LAMARCKIAN GENETIC ALGORITHM (LGA), with a maximum of 25000000 energy evaluations.

Final-Value: -11.043


	FINAL GENETIC ALGORITHM DOCKED STATE
	_______________________________________________


Detailed state:  trans 34.869 37.649 0.211 quatxyzw 0.393167 -0.044439 0.627638 0.670459 center -0.174 -0.001 -0.047 ntor 10 -134.6451 -115.6430 169.6762 -132.6373 163.9339 -132.2462 -89.2866 45.6502 142.2150 -178.8329
State:	 34.869  37.649   0.211   0.530 -0.060  0.846 95.795   -134.65 -115.64  169.68 -132.64  163.93 -132.25  -89.29   45.65  142.22 -178.83

DOCKED: MODEL       57
DOCKED: USER    Run = 57
DOCKED: USER    DPF = D:/Protein_go_brrr/autodock/final/2DN3/heme_Fe/dock.dpf
DOCKED: USER  
DOCKED: USER    Estimated Free Energy of Binding    =   -6.66 kcal/mol  [=(1)+(2)+(3)-(4)]
DOCKED: USER    Estimated Inhibition Constant, Ki   =   13.16 uM (micromolar)  [Temperature = 298.15 K]
DOCKED: USER    
DOCKED: USER    (1) Final Intermolecular Energy     =   -9.64 kcal/mol
DOCKED: USER        vdW + Hbond + desolv Energy     =   -6.94 kcal/mol
DOCKED: USER        Electrostatic Energy            =   -2.70 kcal/mol
DOCKED: USER    (2) Final Total Internal Energy     =   -1.40 kcal/mol
DOCKED: USER    (3) Torsional Free Energy           =   +2.98 kcal/mol
DOCKED: USER    (4) Unbound System's Energy  [=(2)] =   -1.40 kcal/mol
DOCKED: USER    
DOCKED: USER    
DOCKED: USER    NEWDPF move heme_Fe_opt.pdbqt
DOCKED: USER    NEWDPF about -0.174000 -0.001000 -0.047000
DOCKED: USER    NEWDPF tran0 34.868544 37.649161 0.211086
DOCKED: USER    NEWDPF quaternion0 0.393167 -0.044439 0.627638 0.670459
DOCKED: USER    NEWDPF axisangle0 0.529913 -0.059895 0.845934 95.795033
DOCKED: USER    NEWDPF quat0 0.529913 -0.059895 0.845934 95.795033
DOCKED: USER    NEWDPF dihe0 -134.65 -115.64 169.68 -132.64 163.93 -132.25 -89.29 45.65 142.22 -178.83 
DOCKED: USER  keepresnum = 1 
DOCKED: USER  
DOCKED: REMARK  10 active torsions:
DOCKED: REMARK  status: ('A' for Active; 'I' for Inactive)
DOCKED: REMARK    1  A    between atoms: C_6  and  C_10 
DOCKED: REMARK    2  A    between atoms: C_10  and  C_11 
DOCKED: REMARK    3  A    between atoms: C_11  and  C_12 
DOCKED: REMARK    4  A    between atoms: C_12  and  O_14 
DOCKED: REMARK    5  A    between atoms: C_17  and  C_20 
DOCKED: REMARK    6  A    between atoms: C_24  and  C_27 
DOCKED: REMARK    7  A    between atoms: C_31  and  C_34 
DOCKED: REMARK    8  A    between atoms: C_34  and  C_35 
DOCKED: REMARK    9  A    between atoms: C_35  and  C_36 
DOCKED: REMARK   10  A    between atoms: C_36  and  O_38 
DOCKED: USER                              x       y       z     vdW  Elec       q    Type
DOCKED: USER                           _______ _______ _______ _____ _____    ______ ____
DOCKED: ROOT
DOCKED: ATOM      1  C   UNL d   1      34.703  39.642  -0.249 -0.07 +0.02    +0.064 C 
DOCKED: ATOM      2  C   UNL d   1      32.674  36.672   3.141 -0.01 +0.01    +0.064 A 
DOCKED: ATOM      3  C   UNL d   1      36.038  33.384   2.174 -0.31 +0.00    +0.064 C 
DOCKED: ATOM      4  C   UNL d   1      37.955  36.200  -1.185 -0.07 +0.01    +0.064 C 
DOCKED: ATOM      5  C   UNL d   1      33.770  39.077   0.736 -0.09 +0.02    +0.066 A 
DOCKED: ATOM      6  C   UNL d   1      32.611  39.698   1.173 -0.09 -0.01    -0.021 A 
DOCKED: ATOM      7  C   UNL d   1      32.050  38.874   2.118 -0.12 -0.00    -0.025 A 
DOCKED: ATOM      8  C   UNL d   1      32.889  37.781   2.220 -0.14 +0.01    +0.066 A 
DOCKED: ATOM      9  C   UNL d   1      30.772  39.122   2.859 -0.03 +0.00    +0.051 C 
DOCKED: ATOM     10  C   UNL d   1      33.435  35.580   3.219 -0.26 +0.01    +0.066 A 
DOCKED: ATOM     11  C   UNL d   1      33.271  34.588   4.189 -0.35 -0.01    -0.021 A 
DOCKED: ATOM     12  C   UNL d   1      34.240  33.636   3.943 -0.38 +0.00    +0.000 A 
DOCKED: ATOM     13  C   UNL d   1      34.958  34.105   2.829 -0.28 +0.01    +0.070 A 
DOCKED: ATOM     14  C   UNL d   1      32.283  34.581   5.338 -0.40 +0.02    +0.052 C 
DOCKED: ATOM     15  C   UNL d   1      36.767  33.854   1.134 -0.23 +0.00    +0.066 A 
DOCKED: ATOM     16  C   UNL d   1      37.723  33.095   0.473 -0.21 -0.00    -0.021 A 
DOCKED: ATOM     17  C   UNL d   1      38.280  33.906  -0.494 -0.15 +0.00    +0.000 A 
DOCKED: ATOM     18  C   UNL d   1      37.651  35.145  -0.397 -0.11 +0.01    +0.070 A 
DOCKED: ATOM     19  C   UNL d   1      38.119  31.670   0.754 -0.29 +0.00    +0.052 C 
DOCKED: ATOM     20  C   UNL d   1      37.273  37.499  -1.153 -0.02 +0.01    +0.066 A 
DOCKED: ATOM     21  C   UNL d   1      37.703  38.657  -1.817 -0.05 -0.00    -0.025 A 
DOCKED: ATOM     22  C   UNL d   1      36.755  39.622  -1.547 -0.04 -0.01    -0.021 A 
DOCKED: ATOM     23  C   UNL d   1      35.792  39.020  -0.728 -0.07 +0.02    +0.066 A 
DOCKED: ATOM     24  C   UNL d   1      38.942  38.855  -2.659 -0.03 +0.01    +0.051 C 
DOCKED: ATOM     25  N   UNL d   1      33.929  37.903   1.371 -0.07 -0.05    -0.248 N 
DOCKED: ATOM     26  N   UNL d   1      34.474  35.294   2.393 -0.13 -0.00    -0.248 N 
DOCKED: ATOM     27  N   UNL d   1      36.690  35.101   0.574 -0.12 -0.02    -0.248 N 
DOCKED: ATOM     28  N   UNL d   1      36.136  37.738  -0.455 -0.07 -0.05    -0.248 N 
DOCKED: ATOM     29 FE   UNL d   1      35.307  36.516   0.968 -0.04 +0.00    +0.000 Fe
DOCKED: ENDROOT
DOCKED: BRANCH   6  30
DOCKED: ATOM     30  C   UNL d   1      32.051  40.997   0.705 -0.07 +0.02    +0.052 C 
DOCKED: BRANCH  30  31
DOCKED: ATOM     31  C   UNL d   1      31.751  41.914   1.885 -0.16 +0.06    +0.115 C 
DOCKED: BRANCH  31  32
DOCKED: ATOM     32  C   UNL d   1      32.943  42.774   2.200 -0.03 +0.17    +0.139 C 
DOCKED: ATOM     33  O   UNL d   1      32.826  43.768   2.903 -0.42 -1.03    -0.650 OA
DOCKED: BRANCH  32  34
DOCKED: ATOM     34  O   UNL d   1      34.153  42.457   1.709 -0.06 -0.99    -0.776 OA
DOCKED: ATOM     35  H   UNL d   1      34.230  42.204   0.779 +0.04 +0.19    +0.167 HD
DOCKED: ENDBRANCH  32  34
DOCKED: ENDBRANCH  31  32
DOCKED: ENDBRANCH  30  31
DOCKED: ENDBRANCH   6  30
DOCKED: BRANCH  22  36
DOCKED: ATOM     36  C   UNL d   1      36.801  41.054  -2.010 -0.02 +0.02    +0.052 C 
DOCKED: BRANCH  36  37
DOCKED: ATOM     37  C   UNL d   1      37.698  41.864  -1.086 -0.04 +0.04    +0.115 C 
DOCKED: BRANCH  37  38
DOCKED: ATOM     38  C   UNL d   1      37.058  43.176  -0.729 -0.09 +0.10    +0.139 C 
DOCKED: ATOM     39  O   UNL d   1      37.690  44.220  -0.801 +0.06 -0.45    -0.650 OA
DOCKED: BRANCH  38  40
DOCKED: ATOM     40  O   UNL d   1      35.778  43.209  -0.320 -0.46 -1.08    -0.776 OA
DOCKED: ATOM     41  H   UNL d   1      35.537  42.768   0.507 +0.03 +0.24    +0.167 HD
DOCKED: ENDBRANCH  38  40
DOCKED: ENDBRANCH  37  38
DOCKED: ENDBRANCH  36  37
DOCKED: ENDBRANCH  22  36
DOCKED: BRANCH  12  42
DOCKED: ATOM     42  C   UNL d   1      34.444  32.393   4.749 -0.60 +0.00    +0.004 C 
DOCKED: ATOM     43  C   UNL d   1      35.675  31.926   4.997 -0.59 +0.00    +0.012 C 
DOCKED: ENDBRANCH  12  42
DOCKED: BRANCH  17  44
DOCKED: ATOM     44  C   UNL d   1      39.330  33.515  -1.461 -0.10 +0.00    +0.004 C 
DOCKED: ATOM     45  C   UNL d   1      40.614  33.455  -1.092 -0.19 +0.00    +0.012 C 
DOCKED: ENDBRANCH  17  44
DOCKED: TORSDOF 10
DOCKED: TER
DOCKED: ENDMDL
________________________________________________________________________________


	BEGINNING GENETIC ALGORITHM DOCKING 58 of 100
Run: 58 Seed: 1142264204 64048930 [ Run 58 of 100 GA/GALS ]
Beginning LAMARCKIAN GENETIC ALGORITHM (LGA), with a maximum of 25000000 energy evaluations.

Final-Value: -11.704


	FINAL GENETIC ALGORITHM DOCKED STATE
	_______________________________________________


Detailed state:  trans 44.754 20.953 17.292 quatxyzw -0.559987 -0.713878 -0.395352 0.143143 center -0.174 -0.001 -0.047 ntor 10 -141.1428 163.6068 -145.2865 31.3995 -79.1852 -76.1349 175.2728 39.5510 -171.6503 155.2392
State:	 44.754  20.953  17.292  -0.566 -0.721 -0.399 163.540   -141.14  163.61 -145.29   31.40  -79.19  -76.13  175.27   39.55 -171.65  155.24

DOCKED: MODEL       58
DOCKED: USER    Run = 58
DOCKED: USER    DPF = D:/Protein_go_brrr/autodock/final/2DN3/heme_Fe/dock.dpf
DOCKED: USER  
DOCKED: USER    Estimated Free Energy of Binding    =   -6.92 kcal/mol  [=(1)+(2)+(3)-(4)]
DOCKED: USER    Estimated Inhibition Constant, Ki   =    8.48 uM (micromolar)  [Temperature = 298.15 K]
DOCKED: USER    
DOCKED: USER    (1) Final Intermolecular Energy     =   -9.90 kcal/mol
DOCKED: USER        vdW + Hbond + desolv Energy     =   -8.53 kcal/mol
DOCKED: USER        Electrostatic Energy            =   -1.38 kcal/mol
DOCKED: USER    (2) Final Total Internal Energy     =   -1.80 kcal/mol
DOCKED: USER    (3) Torsional Free Energy           =   +2.98 kcal/mol
DOCKED: USER    (4) Unbound System's Energy  [=(2)] =   -1.80 kcal/mol
DOCKED: USER    
DOCKED: USER    
DOCKED: USER    NEWDPF move heme_Fe_opt.pdbqt
DOCKED: USER    NEWDPF about -0.174000 -0.001000 -0.047000
DOCKED: USER    NEWDPF tran0 44.754468 20.952945 17.292475
DOCKED: USER    NEWDPF quaternion0 -0.559987 -0.713878 -0.395352 0.143143
DOCKED: USER    NEWDPF axisangle0 -0.565813 -0.721306 -0.399466 163.540479
DOCKED: USER    NEWDPF quat0 -0.565813 -0.721306 -0.399466 163.540479
DOCKED: USER    NEWDPF dihe0 -141.14 163.61 -145.29 31.40 -79.19 -76.13 175.27 39.55 -171.65 155.24 
DOCKED: USER  keepresnum = 1 
DOCKED: USER  
DOCKED: REMARK  10 active torsions:
DOCKED: REMARK  status: ('A' for Active; 'I' for Inactive)
DOCKED: REMARK    1  A    between atoms: C_6  and  C_10 
DOCKED: REMARK    2  A    between atoms: C_10  and  C_11 
DOCKED: REMARK    3  A    between atoms: C_11  and  C_12 
DOCKED: REMARK    4  A    between atoms: C_12  and  O_14 
DOCKED: REMARK    5  A    between atoms: C_17  and  C_20 
DOCKED: REMARK    6  A    between atoms: C_24  and  C_27 
DOCKED: REMARK    7  A    between atoms: C_31  and  C_34 
DOCKED: REMARK    8  A    between atoms: C_34  and  C_35 
DOCKED: REMARK    9  A    between atoms: C_35  and  C_36 
DOCKED: REMARK   10  A    between atoms: C_36  and  O_38 
DOCKED: USER                              x       y       z     vdW  Elec       q    Type
DOCKED: USER                           _______ _______ _______ _____ _____    ______ ____
DOCKED: ROOT
DOCKED: ATOM      1  C   UNL d   1      45.716  19.356  16.434 -0.16 +0.05    +0.064 C 
DOCKED: ATOM      2  C   UNL d   1      42.096  22.411  15.020 -0.27 +0.01    +0.064 A 
DOCKED: ATOM      3  C   UNL d   1      43.287  25.372  18.609 -0.34 +0.03    +0.064 C 
DOCKED: ATOM      4  C   UNL d   1      46.727  22.380  20.058 -0.14 +0.03    +0.064 C 
DOCKED: ATOM      5  C   UNL d   1      44.532  19.901  15.754 -0.21 +0.04    +0.066 A 
DOCKED: ATOM      6  C   UNL d   1      43.841  19.264  14.737 -0.21 -0.01    -0.021 A 
DOCKED: ATOM      7  C   UNL d   1      42.838  20.114  14.342 -0.36 -0.01    -0.025 A 
DOCKED: ATOM      8  C   UNL d   1      42.956  21.240  15.135 -0.29 +0.02    +0.066 A 
DOCKED: ATOM      9  C   UNL d   1      41.819  19.844  13.278 -0.39 +0.01    +0.051 C 
DOCKED: ATOM     10  C   UNL d   1      42.152  23.485  15.809 -0.38 +0.02    +0.066 A 
DOCKED: ATOM     11  C   UNL d   1      41.392  24.639  15.602 -0.43 -0.01    -0.021 A 
DOCKED: ATOM     12  C   UNL d   1      41.729  25.515  16.615 -0.36 +0.00    +0.000 A 
DOCKED: ATOM     13  C   UNL d   1      42.693  24.847  17.389 -0.33 +0.02    +0.070 A 
DOCKED: ATOM     14  C   UNL d   1      40.441  24.920  14.457 -0.55 +0.01    +0.052 C 
DOCKED: ATOM     15  C   UNL d   1      44.253  24.755  19.330 -0.22 +0.03    +0.066 A 
DOCKED: ATOM     16  C   UNL d   1      44.723  25.242  20.542 -0.23 -0.01    -0.021 A 
DOCKED: ATOM     17  C   UNL d   1      45.717  24.382  20.961 -0.16 +0.00    +0.000 A 
DOCKED: ATOM     18  C   UNL d   1      45.834  23.391  19.989 -0.11 +0.04    +0.070 A 
DOCKED: ATOM     19  C   UNL d   1      44.274  26.481  21.270 -0.20 +0.05    +0.052 C 
DOCKED: ATOM     20  C   UNL d   1      46.836  21.285  19.086 -0.15 +0.05    +0.066 A 
DOCKED: ATOM     21  C   UNL d   1      47.878  20.348  19.036 -0.09 -0.02    -0.025 A 
DOCKED: ATOM     22  C   UNL d   1      47.563  19.489  18.004 -0.08 -0.02    -0.021 A 
DOCKED: ATOM     23  C   UNL d   1      46.352  19.936  17.464 -0.12 +0.07    +0.066 A 
DOCKED: ATOM     24  C   UNL d   1      49.111  20.260  19.906 -0.03 +0.02    +0.051 C 
DOCKED: ATOM     25  N   UNL d   1      43.982  21.103  15.999 -0.17 -0.15    -0.248 N 
DOCKED: ATOM     26  N   UNL d   1      42.958  23.613  16.894 -0.21 -0.09    -0.248 N 
DOCKED: ATOM     27  N   UNL d   1      44.904  23.594  19.007 -0.11 -0.15    -0.248 N 
DOCKED: ATOM     28  N   UNL d   1      45.936  21.059  18.099 -0.14 -0.22    -0.248 N 
DOCKED: ATOM     29 FE   UNL d   1      44.448  22.336  17.498 -0.06 +0.00    +0.000 Fe
DOCKED: ENDROOT
DOCKED: BRANCH   6  30
DOCKED: ATOM     30  C   UNL d   1      44.104  17.906  14.181 -0.11 +0.02    +0.052 C 
DOCKED: BRANCH  30  31
DOCKED: ATOM     31  C   UNL d   1      45.224  17.953  13.148 -0.09 +0.04    +0.115 C 
DOCKED: BRANCH  31  32
DOCKED: ATOM     32  C   UNL d   1      45.659  19.372  12.908 -0.24 +0.08    +0.139 C 
DOCKED: ATOM     33  O   UNL d   1      45.007  20.110  12.182 -0.07 -0.25    -0.650 OA
DOCKED: BRANCH  32  34
DOCKED: ATOM     34  O   UNL d   1      46.774  19.844  13.490 -0.41 -1.01    -0.776 OA
DOCKED: ATOM     35  H   UNL d   1      47.547  19.266  13.563 +0.03 +0.19    +0.167 HD
DOCKED: ENDBRANCH  32  34
DOCKED: ENDBRANCH  31  32
DOCKED: ENDBRANCH  30  31
DOCKED: ENDBRANCH   6  30
DOCKED: BRANCH  22  36
DOCKED: ATOM     36  C   UNL d   1      48.406  18.332  17.534 -0.05 +0.03    +0.052 C 
DOCKED: BRANCH  36  37
DOCKED: ATOM     37  C   UNL d   1      49.036  18.669  16.190 -0.05 +0.11    +0.115 C 
DOCKED: BRANCH  37  38
DOCKED: ATOM     38  C   UNL d   1      49.051  17.470  15.286 -0.03 +0.07    +0.139 C 
DOCKED: ATOM     39  O   UNL d   1      49.863  16.571  15.453 +0.01 -0.23    -0.650 OA
DOCKED: BRANCH  38  40
DOCKED: ATOM     40  O   UNL d   1      48.166  17.378  14.277 +0.03 -0.39    -0.776 OA
DOCKED: ATOM     41  H   UNL d   1      47.385  17.948  14.285 +0.03 +0.11    +0.167 HD
DOCKED: ENDBRANCH  38  40
DOCKED: ENDBRANCH  37  38
DOCKED: ENDBRANCH  36  37
DOCKED: ENDBRANCH  22  36
DOCKED: BRANCH  12  42
DOCKED: ATOM     42  C   UNL d   1      41.162  26.889  16.782 -0.40 +0.00    +0.004 C 
DOCKED: ATOM     43  C   UNL d   1      41.821  27.966  16.334 -0.37 +0.00    +0.012 C 
DOCKED: ENDBRANCH  12  42
DOCKED: BRANCH  17  44
DOCKED: ATOM     44  C   UNL d   1      46.491  24.491  22.218 -0.12 +0.00    +0.004 C 
DOCKED: ATOM     45  C   UNL d   1      46.019  23.978  23.359 -0.16 +0.01    +0.012 C 
DOCKED: ENDBRANCH  17  44
DOCKED: TORSDOF 10
DOCKED: TER
DOCKED: ENDMDL
________________________________________________________________________________


	BEGINNING GENETIC ALGORITHM DOCKING 59 of 100
Run: 59 Seed: 1464179899 1015831099 [ Run 59 of 100 GA/GALS ]
Beginning LAMARCKIAN GENETIC ALGORITHM (LGA), with a maximum of 25000000 energy evaluations.

Final-Value: -11.153


	FINAL GENETIC ALGORITHM DOCKED STATE
	_______________________________________________


Detailed state:  trans 25.945 45.876 -0.915 quatxyzw 0.083232 0.907987 0.318908 -0.258709 center -0.174 -0.001 -0.047 ntor 10 89.0055 -64.8753 16.0766 13.3673 150.1735 -179.9737 -23.9000 50.8191 170.7154 144.1867
State:	 25.945  45.876  -0.915   0.086  0.940  0.330 -150.013     89.01  -64.88   16.08   13.37  150.17 -179.97  -23.90   50.82  170.72  144.19

DOCKED: MODEL       59
DOCKED: USER    Run = 59
DOCKED: USER    DPF = D:/Protein_go_brrr/autodock/final/2DN3/heme_Fe/dock.dpf
DOCKED: USER  
DOCKED: USER    Estimated Free Energy of Binding    =   -6.15 kcal/mol  [=(1)+(2)+(3)-(4)]
DOCKED: USER    Estimated Inhibition Constant, Ki   =   30.93 uM (micromolar)  [Temperature = 298.15 K]
DOCKED: USER    
DOCKED: USER    (1) Final Intermolecular Energy     =   -9.14 kcal/mol
DOCKED: USER        vdW + Hbond + desolv Energy     =   -7.03 kcal/mol
DOCKED: USER        Electrostatic Energy            =   -2.11 kcal/mol
DOCKED: USER    (2) Final Total Internal Energy     =   -2.02 kcal/mol
DOCKED: USER    (3) Torsional Free Energy           =   +2.98 kcal/mol
DOCKED: USER    (4) Unbound System's Energy  [=(2)] =   -2.02 kcal/mol
DOCKED: USER    
DOCKED: USER    
DOCKED: USER    NEWDPF move heme_Fe_opt.pdbqt
DOCKED: USER    NEWDPF about -0.174000 -0.001000 -0.047000
DOCKED: USER    NEWDPF tran0 25.945268 45.875969 -0.914503
DOCKED: USER    NEWDPF quaternion0 0.083232 0.907987 0.318908 -0.258709
DOCKED: USER    NEWDPF axisangle0 0.086166 0.939988 0.330148 -150.013056
DOCKED: USER    NEWDPF quat0 0.086166 0.939988 0.330148 -150.013056
DOCKED: USER    NEWDPF dihe0 89.01 -64.88 16.08 13.37 150.17 -179.97 -23.90 50.82 170.72 144.19 
DOCKED: USER  keepresnum = 1 
DOCKED: USER  
DOCKED: REMARK  10 active torsions:
DOCKED: REMARK  status: ('A' for Active; 'I' for Inactive)
DOCKED: REMARK    1  A    between atoms: C_6  and  C_10 
DOCKED: REMARK    2  A    between atoms: C_10  and  C_11 
DOCKED: REMARK    3  A    between atoms: C_11  and  C_12 
DOCKED: REMARK    4  A    between atoms: C_12  and  O_14 
DOCKED: REMARK    5  A    between atoms: C_17  and  C_20 
DOCKED: REMARK    6  A    between atoms: C_24  and  C_27 
DOCKED: REMARK    7  A    between atoms: C_31  and  C_34 
DOCKED: REMARK    8  A    between atoms: C_34  and  C_35 
DOCKED: REMARK    9  A    between atoms: C_35  and  C_36 
DOCKED: REMARK   10  A    between atoms: C_36  and  O_38 
DOCKED: USER                              x       y       z     vdW  Elec       q    Type
DOCKED: USER                           _______ _______ _______ _____ _____    ______ ____
DOCKED: ROOT
DOCKED: ATOM      1  C   UNL d   1      27.913  45.489  -0.478 -0.13 +0.03    +0.064 C 
DOCKED: ATOM      2  C   UNL d   1      24.745  43.937  -3.940 -0.27 +0.01    +0.064 A 
DOCKED: ATOM      3  C   UNL d   1      21.815  47.563  -2.786 -0.28 -0.00    +0.064 C 
DOCKED: ATOM      4  C   UNL d   1      24.818  49.020   0.641 -0.10 +0.01    +0.064 C 
DOCKED: ATOM      5  C   UNL d   1      27.254  44.666  -1.503 -0.13 +0.02    +0.066 A 
DOCKED: ATOM      6  C   UNL d   1      27.754  43.474  -2.001 -0.13 -0.01    -0.021 A 
DOCKED: ATOM      7  C   UNL d   1      26.875  43.046  -2.965 -0.19 -0.01    -0.025 A 
DOCKED: ATOM      8  C   UNL d   1      25.872  43.994  -3.018 -0.25 +0.01    +0.066 A 
DOCKED: ATOM      9  C   UNL d   1      26.992  41.787  -3.769 -0.19 +0.01    +0.051 C 
DOCKED: ATOM     10  C   UNL d   1      23.734  44.807  -3.973 -0.26 +0.01    +0.066 A 
DOCKED: ATOM     11  C   UNL d   1      22.729  44.791  -4.943 -0.25 -0.00    -0.021 A 
DOCKED: ATOM     12  C   UNL d   1      21.880  45.838  -4.642 -0.26 -0.00    +0.000 A 
DOCKED: ATOM     13  C   UNL d   1      22.422  46.449  -3.498 -0.23 +0.00    +0.070 A 
DOCKED: ATOM     14  C   UNL d   1      22.619  43.866  -6.138 -0.22 +0.01    +0.052 C 
DOCKED: ATOM     15  C   UNL d   1      22.358  48.188  -1.716 -0.17 +0.00    +0.066 A 
DOCKED: ATOM     16  C   UNL d   1      21.701  49.183  -1.003 -0.21 +0.00    -0.021 A 
DOCKED: ATOM     17  C   UNL d   1      22.566  49.607  -0.016 -0.16 +0.00    +0.000 A 
DOCKED: ATOM     18  C   UNL d   1      23.736  48.862  -0.153 -0.10 +0.01    +0.070 A 
DOCKED: ATOM     19  C   UNL d   1      20.322  49.733  -1.253 -0.22 -0.01    +0.052 C 
DOCKED: ATOM     20  C   UNL d   1      26.041  48.213   0.566 -0.09 +0.02    +0.066 A 
DOCKED: ATOM     21  C   UNL d   1      27.238  48.492   1.241 -0.09 -0.01    -0.025 A 
DOCKED: ATOM     22  C   UNL d   1      28.102  47.466   0.918 -0.09 -0.01    -0.021 A 
DOCKED: ATOM     23  C   UNL d   1      27.405  46.610   0.058 -0.11 +0.03    +0.066 A 
DOCKED: ATOM     24  C   UNL d   1      27.563  49.662   2.141 -0.10 +0.01    +0.051 C 
DOCKED: ATOM     25  N   UNL d   1      26.101  44.974  -2.121 -0.12 -0.06    -0.248 N 
DOCKED: ATOM     26  N   UNL d   1      23.557  45.827  -3.095 -0.09 -0.03    -0.248 N 
DOCKED: ATOM     27  N   UNL d   1      23.593  47.960  -1.170 +0.03 -0.03    -0.248 N 
DOCKED: ATOM     28  N   UNL d   1      26.163  47.094  -0.189 -0.06 -0.08    -0.248 N 
DOCKED: ATOM     29 FE   UNL d   1      24.860  46.462  -1.641 -0.05 +0.00    +0.000 Fe
DOCKED: ENDROOT
DOCKED: BRANCH   6  30
DOCKED: ATOM     30  C   UNL d   1      28.991  42.765  -1.569 -0.09 +0.01    +0.052 C 
DOCKED: BRANCH  30  31
DOCKED: ATOM     31  C   UNL d   1      30.137  43.038  -2.538 -0.02 +0.03    +0.115 C 
DOCKED: BRANCH  31  32
DOCKED: ATOM     32  C   UNL d   1      31.462  42.843  -1.855 -0.02 +0.06    +0.139 C 
DOCKED: ATOM     33  O   UNL d   1      32.442  42.477  -2.488 +0.02 -0.26    -0.650 OA
DOCKED: BRANCH  32  34
DOCKED: ATOM     34  O   UNL d   1      31.581  43.072  -0.536 +0.04 -0.53    -0.776 OA
DOCKED: ATOM     35  H   UNL d   1      31.837  43.954  -0.233 +0.03 +0.19    +0.167 HD
DOCKED: ENDBRANCH  32  34
DOCKED: ENDBRANCH  31  32
DOCKED: ENDBRANCH  30  31
DOCKED: ENDBRANCH   6  30
DOCKED: BRANCH  22  36
DOCKED: ATOM     36  C   UNL d   1      29.533  47.345   1.372 -0.17 +0.02    +0.052 C 
DOCKED: BRANCH  36  37
DOCKED: ATOM     37  C   UNL d   1      30.457  47.352   0.164 -0.16 +0.05    +0.115 C 
DOCKED: BRANCH  37  38
DOCKED: ATOM     38  C   UNL d   1      31.427  46.206   0.221 -0.06 +0.15    +0.139 C 
DOCKED: ATOM     39  O   UNL d   1      32.253  46.041  -0.664 -0.49 -0.90    -0.650 OA
DOCKED: BRANCH  38  40
DOCKED: ATOM     40  O   UNL d   1      31.389  45.345   1.253 -0.33 -1.02    -0.776 OA
DOCKED: ATOM     41  H   UNL d   1      31.149  44.422   1.088 +0.04 +0.18    +0.167 HD
DOCKED: ENDBRANCH  38  40
DOCKED: ENDBRANCH  37  38
DOCKED: ENDBRANCH  36  37
DOCKED: ENDBRANCH  22  36
DOCKED: BRANCH  12  42
DOCKED: ATOM     42  C   UNL d   1      20.661  46.204  -5.428 -0.30 -0.00    +0.004 C 
DOCKED: ATOM     43  C   UNL d   1      19.623  45.364  -5.521 -0.46 -0.00    +0.012 C 
DOCKED: ENDBRANCH  12  42
DOCKED: BRANCH  17  44
DOCKED: ATOM     44  C   UNL d   1      22.285  50.642   1.004 -0.19 -0.00    +0.004 C 
DOCKED: ATOM     45  C   UNL d   1      21.370  50.435   1.956 -0.35 -0.00    +0.012 C 
DOCKED: ENDBRANCH  17  44
DOCKED: TORSDOF 10
DOCKED: TER
DOCKED: ENDMDL
________________________________________________________________________________


	BEGINNING GENETIC ALGORITHM DOCKING 60 of 100
Run: 60 Seed: 403702293 373090542 [ Run 60 of 100 GA/GALS ]
Beginning LAMARCKIAN GENETIC ALGORITHM (LGA), with a maximum of 25000000 energy evaluations.

Final-Value: -15.162


	FINAL GENETIC ALGORITHM DOCKED STATE
	_______________________________________________


Detailed state:  trans 8.624 34.917 -1.051 quatxyzw -0.400785 -0.199022 -0.256427 -0.856742 center -0.174 -0.001 -0.047 ntor 10 129.3614 179.6234 66.7283 -148.5774 -179.7715 -120.5034 -56.7405 -115.3511 -171.4839 -23.7796
State:	  8.624  34.917  -1.051  -0.777 -0.386 -0.497 -62.095    129.36  179.62   66.73 -148.58 -179.77 -120.50  -56.74 -115.35 -171.48  -23.78

DOCKED: MODEL       60
DOCKED: USER    Run = 60
DOCKED: USER    DPF = D:/Protein_go_brrr/autodock/final/2DN3/heme_Fe/dock.dpf
DOCKED: USER  
DOCKED: USER    Estimated Free Energy of Binding    =  -10.36 kcal/mol  [=(1)+(2)+(3)-(4)]
DOCKED: USER    Estimated Inhibition Constant, Ki   =   25.28 nM (nanomolar)  [Temperature = 298.15 K]
DOCKED: USER    
DOCKED: USER    (1) Final Intermolecular Energy     =  -13.35 kcal/mol
DOCKED: USER        vdW + Hbond + desolv Energy     =  -12.22 kcal/mol
DOCKED: USER        Electrostatic Energy            =   -1.12 kcal/mol
DOCKED: USER    (2) Final Total Internal Energy     =   -1.81 kcal/mol
DOCKED: USER    (3) Torsional Free Energy           =   +2.98 kcal/mol
DOCKED: USER    (4) Unbound System's Energy  [=(2)] =   -1.81 kcal/mol
DOCKED: USER    
DOCKED: USER    
DOCKED: USER    NEWDPF move heme_Fe_opt.pdbqt
DOCKED: USER    NEWDPF about -0.174000 -0.001000 -0.047000
DOCKED: USER    NEWDPF tran0 8.623695 34.917270 -1.051317
DOCKED: USER    NEWDPF quaternion0 -0.400785 -0.199022 -0.256427 -0.856742
DOCKED: USER    NEWDPF axisangle0 -0.777099 -0.385892 -0.497197 -62.094575
DOCKED: USER    NEWDPF quat0 -0.777099 -0.385892 -0.497197 -62.094575
DOCKED: USER    NEWDPF dihe0 129.36 179.62 66.73 -148.58 -179.77 -120.50 -56.74 -115.35 -171.48 -23.78 
DOCKED: USER  keepresnum = 1 
DOCKED: USER  
DOCKED: REMARK  10 active torsions:
DOCKED: REMARK  status: ('A' for Active; 'I' for Inactive)
DOCKED: REMARK    1  A    between atoms: C_6  and  C_10 
DOCKED: REMARK    2  A    between atoms: C_10  and  C_11 
DOCKED: REMARK    3  A    between atoms: C_11  and  C_12 
DOCKED: REMARK    4  A    between atoms: C_12  and  O_14 
DOCKED: REMARK    5  A    between atoms: C_17  and  C_20 
DOCKED: REMARK    6  A    between atoms: C_24  and  C_27 
DOCKED: REMARK    7  A    between atoms: C_31  and  C_34 
DOCKED: REMARK    8  A    between atoms: C_34  and  C_35 
DOCKED: REMARK    9  A    between atoms: C_35  and  C_36 
DOCKED: REMARK   10  A    between atoms: C_36  and  O_38 
DOCKED: USER                              x       y       z     vdW  Elec       q    Type
DOCKED: USER                           _______ _______ _______ _____ _____    ______ ____
DOCKED: ROOT
DOCKED: ATOM      1  C   UNL d   1       6.953  35.859  -1.781 +0.04 +0.01    +0.064 C 
DOCKED: ATOM      2  C   UNL d   1       7.870  32.864   2.043 -0.40 +0.01    +0.064 A 
DOCKED: ATOM      3  C   UNL d   1      12.569  33.669   1.457 -0.41 +0.00    +0.064 C 
DOCKED: ATOM      4  C   UNL d   1      11.709  36.487  -2.312 -0.43 +0.00    +0.064 C 
DOCKED: ATOM      5  C   UNL d   1       6.780  34.876  -0.703 -0.28 +0.01    +0.066 A 
DOCKED: ATOM      6  C   UNL d   1       5.568  34.320  -0.326 -0.29 -0.00    -0.021 A 
DOCKED: ATOM      7  C   UNL d   1       5.823  33.492   0.739 -0.27 -0.00    -0.025 A 
DOCKED: ATOM      8  C   UNL d   1       7.183  33.573   0.971 -0.32 +0.01    +0.066 A 
DOCKED: ATOM      9  C   UNL d   1       4.816  32.659   1.471 -0.13 +0.00    +0.051 C 
DOCKED: ATOM     10  C   UNL d   1       9.187  32.880   2.253 -0.38 +0.01    +0.066 A 
DOCKED: ATOM     11  C   UNL d   1       9.804  32.285   3.356 -0.43 -0.00    -0.021 A 
DOCKED: ATOM     12  C   UNL d   1      11.158  32.517   3.220 -0.42 +0.00    +0.000 A 
DOCKED: ATOM     13  C   UNL d   1      11.298  33.257   2.033 -0.35 +0.00    +0.070 A 
DOCKED: ATOM     14  C   UNL d   1       9.129  31.587   4.520 -0.56 +0.00    +0.052 C 
DOCKED: ATOM     15  C   UNL d   1      12.706  34.426   0.343 -0.34 +0.01    +0.066 A 
DOCKED: ATOM     16  C   UNL d   1      13.938  34.714  -0.231 -0.43 -0.00    -0.021 A 
DOCKED: ATOM     17  C   UNL d   1      13.693  35.530  -1.316 -0.44 +0.00    +0.000 A 
DOCKED: ATOM     18  C   UNL d   1      12.315  35.724  -1.376 -0.35 +0.01    +0.070 A 
DOCKED: ATOM     19  C   UNL d   1      15.296  34.263   0.236 -0.58 +0.01    +0.052 C 
DOCKED: ATOM     20  C   UNL d   1      10.258  36.664  -2.444 -0.38 +0.01    +0.066 A 
DOCKED: ATOM     21  C   UNL d   1       9.629  37.603  -3.274 -0.38 -0.00    -0.025 A 
DOCKED: ATOM     22  C   UNL d   1       8.274  37.398  -3.116 -0.32 -0.00    -0.021 A 
DOCKED: ATOM     23  C   UNL d   1       8.130  36.352  -2.196 -0.13 +0.01    +0.066 A 
DOCKED: ATOM     24  C   UNL d   1      10.260  38.645  -4.168 -0.41 -0.01    +0.051 C 
DOCKED: ATOM     25  N   UNL d   1       7.763  34.408   0.086 -0.12 -0.05    -0.248 N 
DOCKED: ATOM     26  N   UNL d   1      10.097  33.486   1.448 -0.20 -0.03    -0.248 N 
DOCKED: ATOM     27  N   UNL d   1      11.704  35.010  -0.384 -0.11 -0.04    -0.248 N 
DOCKED: ATOM     28  N   UNL d   1       9.343  35.939  -1.756 -0.20 -0.05    -0.248 N 
DOCKED: ATOM     29 FE   UNL d   1       9.721  34.714  -0.155 -0.08 +0.00    +0.000 Fe
DOCKED: ENDROOT
DOCKED: BRANCH   6  30
DOCKED: ATOM     30  C   UNL d   1       4.237  34.547  -0.957 -0.23 +0.01    +0.052 C 
DOCKED: BRANCH  30  31
DOCKED: ATOM     31  C   UNL d   1       3.607  35.836  -0.441 -0.19 +0.06    +0.115 C 
DOCKED: BRANCH  31  32
DOCKED: ATOM     32  C   UNL d   1       3.288  36.760  -1.584 -0.17 +0.09    +0.139 C 
DOCKED: ATOM     33  O   UNL d   1       2.778  37.852  -1.379 -0.12 -0.86    -0.650 OA
DOCKED: BRANCH  32  34
DOCKED: ATOM     34  O   UNL d   1       3.562  36.391  -2.846 +0.04 -0.29    -0.776 OA
DOCKED: ATOM     35  H   UNL d   1       4.448  36.063  -3.058 +0.04 +0.04    +0.167 HD
DOCKED: ENDBRANCH  32  34
DOCKED: ENDBRANCH  31  32
DOCKED: ENDBRANCH  30  31
DOCKED: ENDBRANCH   6  30
DOCKED: BRANCH  22  36
DOCKED: ATOM     36  C   UNL d   1       7.180  38.196  -3.776 -0.27 +0.00    +0.052 C 
DOCKED: BRANCH  36  37
DOCKED: ATOM     37  C   UNL d   1       7.097  37.831  -5.251 -0.19 +0.01    +0.115 C 
DOCKED: BRANCH  37  38
DOCKED: ATOM     38  C   UNL d   1       6.705  36.391  -5.428 -0.22 +0.01    +0.139 C 
DOCKED: ATOM     39  O   UNL d   1       7.436  35.613  -6.023 +0.20 -0.04    -0.650 OA
DOCKED: BRANCH  38  40
DOCKED: ATOM     40  O   UNL d   1       5.536  35.948  -4.933 +0.03 -0.10    -0.776 OA
DOCKED: ATOM     41  H   UNL d   1       4.963  36.565  -4.457 +0.04 +0.03    +0.167 HD
DOCKED: ENDBRANCH  38  40
DOCKED: ENDBRANCH  37  38
DOCKED: ENDBRANCH  36  37
DOCKED: ENDBRANCH  22  36
DOCKED: BRANCH  12  42
DOCKED: ATOM     42  C   UNL d   1      12.206  32.064   4.186 -0.34 +0.00    +0.004 C 
DOCKED: ATOM     43  C   UNL d   1      13.127  31.160   3.829 -0.65 +0.00    +0.012 C 
DOCKED: ENDBRANCH  12  42
DOCKED: BRANCH  17  44
DOCKED: ATOM     44  C   UNL d   1      14.709  36.072  -2.246 -0.48 +0.00    +0.004 C 
DOCKED: ATOM     45  C   UNL d   1      15.229  37.290  -2.059 -0.65 +0.00    +0.012 C 
DOCKED: ENDBRANCH  17  44
DOCKED: TORSDOF 10
DOCKED: TER
DOCKED: ENDMDL
________________________________________________________________________________


	BEGINNING GENETIC ALGORITHM DOCKING 61 of 100
Run: 61 Seed: 1312779904 680209712 [ Run 61 of 100 GA/GALS ]
Beginning LAMARCKIAN GENETIC ALGORITHM (LGA), with a maximum of 25000000 energy evaluations.

Final-Value: -16.714


	FINAL GENETIC ALGORITHM DOCKED STATE
	_______________________________________________


Detailed state:  trans 41.771 28.786 16.203 quatxyzw 0.227805 0.097295 -0.950994 0.185063 center -0.174 -0.001 -0.047 ntor 10 -78.1332 -4.8313 65.1176 -142.4857 72.0401 -27.7178 10.3291 19.5299 179.9037 2.2437
State:	 41.771  28.786  16.203   0.232  0.099 -0.968 158.670    -78.13   -4.83   65.12 -142.49   72.04  -27.72   10.33   19.53  179.90    2.24

DOCKED: MODEL       61
DOCKED: USER    Run = 61
DOCKED: USER    DPF = D:/Protein_go_brrr/autodock/final/2DN3/heme_Fe/dock.dpf
DOCKED: USER  
DOCKED: USER    Estimated Free Energy of Binding    =  -13.21 kcal/mol  [=(1)+(2)+(3)-(4)]
DOCKED: USER    Estimated Inhibition Constant, Ki   =  209.07 pM (picomolar)  [Temperature = 298.15 K]
DOCKED: USER    
DOCKED: USER    (1) Final Intermolecular Energy     =  -16.19 kcal/mol
DOCKED: USER        vdW + Hbond + desolv Energy     =  -13.46 kcal/mol
DOCKED: USER        Electrostatic Energy            =   -2.72 kcal/mol
DOCKED: USER    (2) Final Total Internal Energy     =   -0.53 kcal/mol
DOCKED: USER    (3) Torsional Free Energy           =   +2.98 kcal/mol
DOCKED: USER    (4) Unbound System's Energy  [=(2)] =   -0.53 kcal/mol
DOCKED: USER    
DOCKED: USER    
DOCKED: USER    NEWDPF move heme_Fe_opt.pdbqt
DOCKED: USER    NEWDPF about -0.174000 -0.001000 -0.047000
DOCKED: USER    NEWDPF tran0 41.770858 28.786241 16.203237
DOCKED: USER    NEWDPF quaternion0 0.227805 0.097295 -0.950994 0.185063
DOCKED: USER    NEWDPF axisangle0 0.231809 0.099005 -0.967710 158.670345
DOCKED: USER    NEWDPF quat0 0.231809 0.099005 -0.967710 158.670345
DOCKED: USER    NEWDPF dihe0 -78.13 -4.83 65.12 -142.49 72.04 -27.72 10.33 19.53 179.90 2.24 
DOCKED: USER  keepresnum = 1 
DOCKED: USER  
DOCKED: REMARK  10 active torsions:
DOCKED: REMARK  status: ('A' for Active; 'I' for Inactive)
DOCKED: REMARK    1  A    between atoms: C_6  and  C_10 
DOCKED: REMARK    2  A    between atoms: C_10  and  C_11 
DOCKED: REMARK    3  A    between atoms: C_11  and  C_12 
DOCKED: REMARK    4  A    between atoms: C_12  and  O_14 
DOCKED: REMARK    5  A    between atoms: C_17  and  C_20 
DOCKED: REMARK    6  A    between atoms: C_24  and  C_27 
DOCKED: REMARK    7  A    between atoms: C_31  and  C_34 
DOCKED: REMARK    8  A    between atoms: C_34  and  C_35 
DOCKED: REMARK    9  A    between atoms: C_35  and  C_36 
DOCKED: REMARK   10  A    between atoms: C_36  and  O_38 
DOCKED: USER                              x       y       z     vdW  Elec       q    Type
DOCKED: USER                           _______ _______ _______ _____ _____    ______ ____
DOCKED: ROOT
DOCKED: ATOM      1  C   UNL d   1      43.179  28.001  17.473 -0.23 +0.02    +0.064 C 
DOCKED: ATOM      2  C   UNL d   1      41.270  32.503  16.747 -0.41 +0.01    +0.064 A 
DOCKED: ATOM      3  C   UNL d   1      37.711  30.509  14.212 -0.26 +0.01    +0.064 C 
DOCKED: ATOM      4  C   UNL d   1      39.599  26.155  14.813 -0.46 +0.01    +0.064 C 
DOCKED: ATOM      5  C   UNL d   1      43.018  29.461  17.433 -0.27 +0.02    +0.066 A 
DOCKED: ATOM      6  C   UNL d   1      43.917  30.371  17.964 -0.31 -0.01    -0.021 A 
DOCKED: ATOM      7  C   UNL d   1      43.384  31.621  17.766 -0.31 -0.01    -0.025 A 
DOCKED: ATOM      8  C   UNL d   1      42.179  31.425  17.120 -0.37 +0.02    +0.066 A 
DOCKED: ATOM      9  C   UNL d   1      44.014  32.922  18.160 -0.18 +0.01    +0.051 C 
DOCKED: ATOM     10  C   UNL d   1      40.129  32.346  16.074 -0.39 +0.01    +0.066 A 
DOCKED: ATOM     11  C   UNL d   1      39.224  33.383  15.832 -0.41 -0.00    -0.021 A 
DOCKED: ATOM     12  C   UNL d   1      38.181  32.830  15.116 -0.39 +0.00    +0.000 A 
DOCKED: ATOM     13  C   UNL d   1      38.502  31.470  14.965 -0.34 +0.01    +0.070 A 
DOCKED: ATOM     14  C   UNL d   1      39.316  34.815  16.317 -0.50 +0.01    +0.052 C 
DOCKED: ATOM     15  C   UNL d   1      37.990  29.188  14.107 -0.34 +0.01    +0.066 A 
DOCKED: ATOM     16  C   UNL d   1      37.265  28.323  13.297 -0.45 -0.00    -0.021 A 
DOCKED: ATOM     17  C   UNL d   1      37.806  27.065  13.472 -0.45 +0.00    +0.000 A 
DOCKED: ATOM     18  C   UNL d   1      38.847  27.193  14.389 -0.35 +0.01    +0.070 A 
DOCKED: ATOM     19  C   UNL d   1      36.094  28.656  12.413 -0.62 +0.01    +0.052 C 
DOCKED: ATOM     20  C   UNL d   1      40.741  26.261  15.729 -0.38 +0.02    +0.066 A 
DOCKED: ATOM     21  C   UNL d   1      41.400  25.180  16.331 -0.41 -0.01    -0.025 A 
DOCKED: ATOM     22  C   UNL d   1      42.424  25.728  17.075 -0.35 -0.01    -0.021 A 
DOCKED: ATOM     23  C   UNL d   1      42.347  27.115  16.903 -0.31 +0.02    +0.066 A 
DOCKED: ATOM     24  C   UNL d   1      41.087  23.705  16.223 -0.47 +0.01    +0.051 C 
DOCKED: ATOM     25  N   UNL d   1      41.963  30.111  16.911 -0.18 -0.08    -0.248 N 
DOCKED: ATOM     26  N   UNL d   1      39.686  31.173  15.556 -0.18 -0.06    -0.248 N 
DOCKED: ATOM     27  N   UNL d   1      38.989  28.505  14.747 -0.00 -0.07    -0.248 N 
DOCKED: ATOM     28  N   UNL d   1      41.291  27.437  16.117 -0.25 -0.08    -0.248 N 
DOCKED: ATOM     29 FE   UNL d   1      40.488  29.303  15.836 -0.08 +0.00    +0.000 Fe
DOCKED: ENDROOT
DOCKED: BRANCH   6  30
DOCKED: ATOM     30  C   UNL d   1      45.227  30.072  18.609 -0.25 +0.02    +0.052 C 
DOCKED: BRANCH  30  31
DOCKED: ATOM     31  C   UNL d   1      45.059  29.885  20.113 -0.06 +0.09    +0.115 C 
DOCKED: BRANCH  31  32
DOCKED: ATOM     32  C   UNL d   1      46.400  29.836  20.790 +0.07 +0.17    +0.139 C 
DOCKED: ATOM     33  O   UNL d   1      47.079  30.847  20.903 -0.10 -0.53    -0.650 OA
DOCKED: BRANCH  32  34
DOCKED: ATOM     34  O   UNL d   1      46.867  28.675  21.279 -0.46 -1.22    -0.776 OA
DOCKED: ATOM     35  H   UNL d   1      47.536  28.189  20.777 +0.02 +0.16    +0.167 HD
DOCKED: ENDBRANCH  32  34
DOCKED: ENDBRANCH  31  32
DOCKED: ENDBRANCH  30  31
DOCKED: ENDBRANCH   6  30
DOCKED: BRANCH  22  36
DOCKED: ATOM     36  C   UNL d   1      43.391  24.963  17.939 -0.35 +0.02    +0.052 C 
DOCKED: BRANCH  36  37
DOCKED: ATOM     37  C   UNL d   1      44.701  24.762  17.192 -0.19 +0.07    +0.115 C 
DOCKED: BRANCH  37  38
DOCKED: ATOM     38  C   UNL d   1      45.505  23.650  17.803 -0.23 +0.11    +0.139 C 
DOCKED: ATOM     39  O   UNL d   1      45.393  23.376  18.988 -0.07 -0.41    -0.650 OA
DOCKED: BRANCH  38  40
DOCKED: ATOM     40  O   UNL d   1      46.363  22.946  17.042 -0.15 -1.42    -0.776 OA
DOCKED: ATOM     41  H   UNL d   1      46.929  22.283  17.463 +0.04 +0.32    +0.167 HD
DOCKED: ENDBRANCH  38  40
DOCKED: ENDBRANCH  37  38
DOCKED: ENDBRANCH  36  37
DOCKED: ENDBRANCH  22  36
DOCKED: BRANCH  12  42
DOCKED: ATOM     42  C   UNL d   1      36.973  33.578  14.648 -0.40 +0.00    +0.004 C 
DOCKED: ATOM     43  C   UNL d   1      36.752  33.781  13.342 -0.52 +0.00    +0.012 C 
DOCKED: ENDBRANCH  12  42
DOCKED: BRANCH  17  44
DOCKED: ATOM     44  C   UNL d   1      37.368  25.826  12.790 -0.54 +0.00    +0.004 C 
DOCKED: ATOM     45  C   UNL d   1      36.401  25.064  13.310 -0.66 +0.00    +0.012 C 
DOCKED: ENDBRANCH  17  44
DOCKED: TORSDOF 10
DOCKED: TER
DOCKED: ENDMDL
________________________________________________________________________________


	BEGINNING GENETIC ALGORITHM DOCKING 62 of 100
Run: 62 Seed: 1588206791 1821795054 [ Run 62 of 100 GA/GALS ]
Beginning LAMARCKIAN GENETIC ALGORITHM (LGA), with a maximum of 25000000 energy evaluations.

Final-Value: -16.851


	FINAL GENETIC ALGORITHM DOCKED STATE
	_______________________________________________


Detailed state:  trans 41.375 29.036 16.916 quatxyzw -0.107851 -0.930966 -0.061445 0.343357 center -0.174 -0.001 -0.047 ntor 10 61.7861 156.4554 51.3685 -133.3734 180.0000 125.1899 49.3956 61.3609 -179.8802 74.2507
State:	 41.375  29.036  16.916  -0.115 -0.991 -0.065 139.837     61.79  156.46   51.37 -133.37  180.00  125.19   49.40   61.36 -179.88   74.25

DOCKED: MODEL       62
DOCKED: USER    Run = 62
DOCKED: USER    DPF = D:/Protein_go_brrr/autodock/final/2DN3/heme_Fe/dock.dpf
DOCKED: USER  
DOCKED: USER    Estimated Free Energy of Binding    =  -13.97 kcal/mol  [=(1)+(2)+(3)-(4)]
DOCKED: USER    Estimated Inhibition Constant, Ki   =   57.11 pM (picomolar)  [Temperature = 298.15 K]
DOCKED: USER    
DOCKED: USER    (1) Final Intermolecular Energy     =  -16.96 kcal/mol
DOCKED: USER        vdW + Hbond + desolv Energy     =  -13.77 kcal/mol
DOCKED: USER        Electrostatic Energy            =   -3.19 kcal/mol
DOCKED: USER    (2) Final Total Internal Energy     =   +0.11 kcal/mol
DOCKED: USER    (3) Torsional Free Energy           =   +2.98 kcal/mol
DOCKED: USER    (4) Unbound System's Energy  [=(2)] =   +0.11 kcal/mol
DOCKED: USER    
DOCKED: USER    
DOCKED: USER    NEWDPF move heme_Fe_opt.pdbqt
DOCKED: USER    NEWDPF about -0.174000 -0.001000 -0.047000
DOCKED: USER    NEWDPF tran0 41.375365 29.036271 16.915776
DOCKED: USER    NEWDPF quaternion0 -0.107851 -0.930966 -0.061445 0.343357
DOCKED: USER    NEWDPF axisangle0 -0.114832 -0.991228 -0.065423 139.836915
DOCKED: USER    NEWDPF quat0 -0.114832 -0.991228 -0.065423 139.836915
DOCKED: USER    NEWDPF dihe0 61.79 156.46 51.37 -133.37 180.00 125.19 49.40 61.36 -179.88 74.25 
DOCKED: USER  keepresnum = 1 
DOCKED: USER  
DOCKED: REMARK  10 active torsions:
DOCKED: REMARK  status: ('A' for Active; 'I' for Inactive)
DOCKED: REMARK    1  A    between atoms: C_6  and  C_10 
DOCKED: REMARK    2  A    between atoms: C_10  and  C_11 
DOCKED: REMARK    3  A    between atoms: C_11  and  C_12 
DOCKED: REMARK    4  A    between atoms: C_12  and  O_14 
DOCKED: REMARK    5  A    between atoms: C_17  and  C_20 
DOCKED: REMARK    6  A    between atoms: C_24  and  C_27 
DOCKED: REMARK    7  A    between atoms: C_31  and  C_34 
DOCKED: REMARK    8  A    between atoms: C_34  and  C_35 
DOCKED: REMARK    9  A    between atoms: C_35  and  C_36 
DOCKED: REMARK   10  A    between atoms: C_36  and  O_38 
DOCKED: USER                              x       y       z     vdW  Elec       q    Type
DOCKED: USER                           _______ _______ _______ _____ _____    ______ ____
DOCKED: ROOT
DOCKED: ATOM      1  C   UNL d   1      43.181  28.519  17.742 -0.14 +0.02    +0.064 C 
DOCKED: ATOM      2  C   UNL d   1      39.821  26.176  14.976 -0.38 +0.01    +0.064 A 
DOCKED: ATOM      3  C   UNL d   1      37.818  30.417  13.941 -0.38 +0.01    +0.064 C 
DOCKED: ATOM      4  C   UNL d   1      40.996  32.694  16.697 -0.48 +0.01    +0.064 C 
DOCKED: ATOM      5  C   UNL d   1      42.371  27.459  17.127 -0.19 +0.02    +0.066 A 
DOCKED: ATOM      6  C   UNL d   1      42.582  26.101  17.300 -0.34 -0.01    -0.021 A 
DOCKED: ATOM      7  C   UNL d   1      41.651  25.451  16.529 -0.36 -0.01    -0.025 A 
DOCKED: ATOM      8  C   UNL d   1      40.906  26.439  15.914 -0.36 +0.02    +0.066 A 
DOCKED: ATOM      9  C   UNL d   1      41.482  23.967  16.411 -0.52 +0.01    +0.051 C 
DOCKED: ATOM     10  C   UNL d   1      39.050  27.108  14.414 -0.35 +0.01    +0.066 A 
DOCKED: ATOM     11  C   UNL d   1      38.094  26.834  13.432 -0.43 -0.00    -0.021 A 
DOCKED: ATOM     12  C   UNL d   1      37.514  28.043  13.104 -0.47 +0.00    +0.000 A 
DOCKED: ATOM     13  C   UNL d   1      38.158  29.003  13.905 -0.31 +0.01    +0.070 A 
DOCKED: ATOM     14  C   UNL d   1      37.796  25.496  12.788 -0.44 +0.01    +0.052 C 
DOCKED: ATOM     15  C   UNL d   1      38.469  31.353  14.671 -0.35 +0.01    +0.066 A 
DOCKED: ATOM     16  C   UNL d   1      38.051  32.675  14.755 -0.38 -0.00    -0.021 A 
DOCKED: ATOM     17  C   UNL d   1      38.968  33.334  15.547 -0.44 +0.00    +0.000 A 
DOCKED: ATOM     18  C   UNL d   1      39.928  32.398  15.925 -0.38 +0.01    +0.070 A 
DOCKED: ATOM     19  C   UNL d   1      36.851  33.302  14.098 -0.38 +0.00    +0.052 C 
DOCKED: ATOM     20  C   UNL d   1      41.992  31.723  17.165 -0.39 +0.01    +0.066 A 
DOCKED: ATOM     21  C   UNL d   1      43.203  32.045  17.794 -0.32 -0.01    -0.025 A 
DOCKED: ATOM     22  C   UNL d   1      43.804  30.840  18.094 -0.31 -0.01    -0.021 A 
DOCKED: ATOM     23  C   UNL d   1      42.943  29.836  17.634 -0.29 +0.02    +0.066 A 
DOCKED: ATOM     24  C   UNL d   1      43.776  33.410  18.096 -0.26 +0.01    +0.051 C 
DOCKED: ATOM     25  N   UNL d   1      41.340  27.659  16.287 -0.26 -0.09    -0.248 N 
DOCKED: ATOM     26  N   UNL d   1      39.100  28.435  14.697 +0.02 -0.07    -0.248 N 
DOCKED: ATOM     27  N   UNL d   1      39.598  31.170  15.423 -0.15 -0.06    -0.248 N 
DOCKED: ATOM     28  N   UNL d   1      41.861  30.382  17.028 -0.25 -0.07    -0.248 N 
DOCKED: ATOM     29 FE   UNL d   1      40.481  29.410  15.863 -0.08 +0.00    +0.000 Fe
DOCKED: ENDROOT
DOCKED: BRANCH   6  30
DOCKED: ATOM     30  C   UNL d   1      43.602  25.451  18.171 -0.32 +0.02    +0.052 C 
DOCKED: BRANCH  30  31
DOCKED: ATOM     31  C   UNL d   1      44.894  25.207  17.399 -0.22 +0.07    +0.115 C 
DOCKED: BRANCH  31  32
DOCKED: ATOM     32  C   UNL d   1      45.357  23.788  17.583 -0.19 +0.11    +0.139 C 
DOCKED: ATOM     33  O   UNL d   1      46.379  23.390  17.041 -0.36 -1.05    -0.650 OA
DOCKED: BRANCH  32  34
DOCKED: ATOM     34  O   UNL d   1      44.648  22.941  18.348 +0.06 -0.46    -0.776 OA
DOCKED: ATOM     35  H   UNL d   1      45.061  22.562  19.136 +0.06 +0.09    +0.167 HD
DOCKED: ENDBRANCH  32  34
DOCKED: ENDBRANCH  31  32
DOCKED: ENDBRANCH  30  31
DOCKED: ENDBRANCH   6  30
DOCKED: BRANCH  22  36
DOCKED: ATOM     36  C   UNL d   1      45.152  30.666  18.743 -0.26 +0.02    +0.052 C 
DOCKED: BRANCH  36  37
DOCKED: ATOM     37  C   UNL d   1      45.367  29.202  19.097 -0.20 +0.07    +0.115 C 
DOCKED: BRANCH  37  38
DOCKED: ATOM     38  C   UNL d   1      45.561  29.029  20.577 -0.16 +0.16    +0.139 C 
DOCKED: ATOM     39  O   UNL d   1      44.856  28.261  21.215 -0.06 -1.07    -0.650 OA
DOCKED: BRANCH  38  40
DOCKED: ATOM     40  O   UNL d   1      46.518  29.727  21.214 -0.37 -1.20    -0.776 OA
DOCKED: ATOM     41  H   UNL d   1      47.277  30.053  20.710 +0.02 +0.15    +0.167 HD
DOCKED: ENDBRANCH  38  40
DOCKED: ENDBRANCH  37  38
DOCKED: ENDBRANCH  36  37
DOCKED: ENDBRANCH  22  36
DOCKED: BRANCH  12  42
DOCKED: ATOM     42  C   UNL d   1      36.439  28.228  12.081 -0.68 +0.00    +0.004 C 
DOCKED: ATOM     43  C   UNL d   1      35.153  28.332  12.443 -0.63 +0.00    +0.012 C 
DOCKED: ENDBRANCH  12  42
DOCKED: BRANCH  17  44
DOCKED: ATOM     44  C   UNL d   1      38.918  34.763  15.934 -0.51 +0.00    +0.004 C 
DOCKED: ATOM     45  C   UNL d   1      39.318  35.716  15.087 -0.60 +0.00    +0.012 C 
DOCKED: ENDBRANCH  17  44
DOCKED: TORSDOF 10
DOCKED: TER
DOCKED: ENDMDL
________________________________________________________________________________


	BEGINNING GENETIC ALGORITHM DOCKING 63 of 100
Run: 63 Seed: 1537510989 118726037 [ Run 63 of 100 GA/GALS ]
Beginning LAMARCKIAN GENETIC ALGORITHM (LGA), with a maximum of 25000000 energy evaluations.

Final-Value: -9.266


	FINAL GENETIC ALGORITHM DOCKED STATE
	_______________________________________________


Detailed state:  trans 27.066 42.743 -3.189 quatxyzw 0.335406 0.196936 -0.920487 -0.037727 center -0.174 -0.001 -0.047 ntor 10 -108.9384 115.0750 -149.2469 -156.4733 20.2591 -124.8358 39.8090 -78.2875 21.8694 -179.7217
State:	 27.066  42.743  -3.189   0.336  0.197 -0.921 -175.676   -108.94  115.07 -149.25 -156.47   20.26 -124.84   39.81  -78.29   21.87 -179.72

DOCKED: MODEL       63
DOCKED: USER    Run = 63
DOCKED: USER    DPF = D:/Protein_go_brrr/autodock/final/2DN3/heme_Fe/dock.dpf
DOCKED: USER  
DOCKED: USER    Estimated Free Energy of Binding    =   -5.61 kcal/mol  [=(1)+(2)+(3)-(4)]
DOCKED: USER    Estimated Inhibition Constant, Ki   =   77.09 uM (micromolar)  [Temperature = 298.15 K]
DOCKED: USER    
DOCKED: USER    (1) Final Intermolecular Energy     =   -8.59 kcal/mol
DOCKED: USER        vdW + Hbond + desolv Energy     =   -6.78 kcal/mol
DOCKED: USER        Electrostatic Energy            =   -1.81 kcal/mol
DOCKED: USER    (2) Final Total Internal Energy     =   -0.67 kcal/mol
DOCKED: USER    (3) Torsional Free Energy           =   +2.98 kcal/mol
DOCKED: USER    (4) Unbound System's Energy  [=(2)] =   -0.67 kcal/mol
DOCKED: USER    
DOCKED: USER    
DOCKED: USER    NEWDPF move heme_Fe_opt.pdbqt
DOCKED: USER    NEWDPF about -0.174000 -0.001000 -0.047000
DOCKED: USER    NEWDPF tran0 27.065890 42.743161 -3.189231
DOCKED: USER    NEWDPF quaternion0 0.335406 0.196936 -0.920487 -0.037727
DOCKED: USER    NEWDPF axisangle0 0.335645 0.197076 -0.921143 -175.675778
DOCKED: USER    NEWDPF quat0 0.335645 0.197076 -0.921143 -175.675778
DOCKED: USER    NEWDPF dihe0 -108.94 115.07 -149.25 -156.47 20.26 -124.84 39.81 -78.29 21.87 -179.72 
DOCKED: USER  keepresnum = 1 
DOCKED: USER  
DOCKED: REMARK  10 active torsions:
DOCKED: REMARK  status: ('A' for Active; 'I' for Inactive)
DOCKED: REMARK    1  A    between atoms: C_6  and  C_10 
DOCKED: REMARK    2  A    between atoms: C_10  and  C_11 
DOCKED: REMARK    3  A    between atoms: C_11  and  C_12 
DOCKED: REMARK    4  A    between atoms: C_12  and  O_14 
DOCKED: REMARK    5  A    between atoms: C_17  and  C_20 
DOCKED: REMARK    6  A    between atoms: C_24  and  C_27 
DOCKED: REMARK    7  A    between atoms: C_31  and  C_34 
DOCKED: REMARK    8  A    between atoms: C_34  and  C_35 
DOCKED: REMARK    9  A    between atoms: C_35  and  C_36 
DOCKED: REMARK   10  A    between atoms: C_36  and  O_38 
DOCKED: USER                              x       y       z     vdW  Elec       q    Type
DOCKED: USER                           _______ _______ _______ _____ _____    ______ ____
DOCKED: ROOT
DOCKED: ATOM      1  C   UNL d   1      28.263  42.467  -1.546 -0.14 +0.02    +0.064 C 
DOCKED: ATOM      2  C   UNL d   1      24.890  45.829  -2.869 -0.18 +0.01    +0.064 A 
DOCKED: ATOM      3  C   UNL d   1      23.385  42.856  -6.328 -0.14 +0.01    +0.064 C 
DOCKED: ATOM      4  C   UNL d   1      26.712  39.633  -5.132 -0.17 +0.01    +0.064 C 
DOCKED: ATOM      5  C   UNL d   1      27.508  43.723  -1.651 -0.14 +0.02    +0.066 A 
DOCKED: ATOM      6  C   UNL d   1      27.745  44.854  -0.887 -0.13 -0.01    -0.021 A 
DOCKED: ATOM      7  C   UNL d   1      26.805  45.786  -1.252 -0.13 -0.01    -0.025 A 
DOCKED: ATOM      8  C   UNL d   1      26.031  45.187  -2.227 -0.16 +0.02    +0.066 A 
DOCKED: ATOM      9  C   UNL d   1      26.679  47.175  -0.705 -0.11 +0.01    +0.051 C 
DOCKED: ATOM     10  C   UNL d   1      24.162  45.295  -3.852 -0.23 +0.01    +0.066 A 
DOCKED: ATOM     11  C   UNL d   1      23.006  45.886  -4.367 -0.23 -0.00    -0.021 A 
DOCKED: ATOM     12  C   UNL d   1      22.543  45.040  -5.355 -0.24 +0.00    +0.000 A 
DOCKED: ATOM     13  C   UNL d   1      23.445  43.962  -5.386 -0.16 +0.01    +0.070 A 
DOCKED: ATOM     14  C   UNL d   1      22.335  47.160  -3.895 -0.21 +0.00    +0.052 C 
DOCKED: ATOM     15  C   UNL d   1      24.221  41.791  -6.328 -0.01 +0.01    +0.066 A 
DOCKED: ATOM     16  C   UNL d   1      24.193  40.805  -7.306 -0.12 -0.00    -0.021 A 
DOCKED: ATOM     17  C   UNL d   1      25.149  39.872  -6.961 -0.12 +0.00    +0.000 A 
DOCKED: ATOM     18  C   UNL d   1      25.736  40.310  -5.776 -0.15 +0.01    +0.070 A 
DOCKED: ATOM     19  C   UNL d   1      23.287  40.726  -8.505 -0.12 +0.01    +0.052 C 
DOCKED: ATOM     20  C   UNL d   1      27.395  40.093  -3.917 -0.16 +0.01    +0.066 A 
DOCKED: ATOM     21  C   UNL d   1      28.259  39.318  -3.131 -0.13 -0.00    -0.025 A 
DOCKED: ATOM     22  C   UNL d   1      28.700  40.149  -2.122 -0.12 -0.00    -0.021 A 
DOCKED: ATOM     23  C   UNL d   1      28.085  41.390  -2.327 -0.13 +0.01    +0.066 A 
DOCKED: ATOM     24  C   UNL d   1      28.653  37.870  -3.309 -0.09 +0.01    +0.051 C 
DOCKED: ATOM     25  N   UNL d   1      26.467  43.936  -2.474 -0.14 -0.06    -0.248 N 
DOCKED: ATOM     26  N   UNL d   1      24.427  44.113  -4.463 -0.17 -0.04    -0.248 N 
DOCKED: ATOM     27  N   UNL d   1      25.197  41.511  -5.409 -0.10 -0.05    -0.248 N 
DOCKED: ATOM     28  N   UNL d   1      27.256  41.337  -3.397 -0.11 -0.04    -0.248 N 
DOCKED: ATOM     29 FE   UNL d   1      25.842  42.723  -3.931 -0.05 +0.00    +0.000 Fe
DOCKED: ENDROOT
DOCKED: BRANCH   6  30
DOCKED: ATOM     30  C   UNL d   1      28.822  45.050   0.125 -0.13 +0.03    +0.052 C 
DOCKED: BRANCH  30  31
DOCKED: ATOM     31  C   UNL d   1      29.845  46.068  -0.365 -0.10 +0.06    +0.115 C 
DOCKED: BRANCH  31  32
DOCKED: ATOM     32  C   UNL d   1      31.237  45.633   0.002 -0.11 +0.15    +0.139 C 
DOCKED: ATOM     33  O   UNL d   1      31.475  44.463   0.269 -0.26 -0.76    -0.650 OA
DOCKED: BRANCH  32  34
DOCKED: ATOM     34  O   UNL d   1      32.236  46.530   0.040 -0.40 -1.24    -0.776 OA
DOCKED: ATOM     35  H   UNL d   1      32.252  47.186   0.752 -0.54 +0.19    +0.167 HD
DOCKED: ENDBRANCH  32  34
DOCKED: ENDBRANCH  31  32
DOCKED: ENDBRANCH  30  31
DOCKED: ENDBRANCH   6  30
DOCKED: BRANCH  22  36
DOCKED: ATOM     36  C   UNL d   1      29.621  39.756  -0.997 -0.09 +0.01    +0.052 C 
DOCKED: BRANCH  36  37
DOCKED: ATOM     37  C   UNL d   1      28.822  39.083   0.109 -0.14 +0.02    +0.115 C 
DOCKED: BRANCH  37  38
DOCKED: ATOM     38  C   UNL d   1      28.966  37.589   0.046 -0.11 +0.02    +0.139 C 
DOCKED: ATOM     39  O   UNL d   1      27.982  36.868  -0.024 -0.00 -0.10    -0.650 OA
DOCKED: BRANCH  38  40
DOCKED: ATOM     40  O   UNL d   1      30.190  37.031   0.069 +0.05 -0.16    -0.776 OA
DOCKED: ATOM     41  H   UNL d   1      30.795  37.194  -0.668 +0.02 +0.03    +0.167 HD
DOCKED: ENDBRANCH  38  40
DOCKED: ENDBRANCH  37  38
DOCKED: ENDBRANCH  36  37
DOCKED: ENDBRANCH  22  36
DOCKED: BRANCH  12  42
DOCKED: ATOM     42  C   UNL d   1      21.313  45.272  -6.174 -0.27 +0.00    +0.004 C 
DOCKED: ATOM     43  C   UNL d   1      20.171  44.629  -5.899 -0.48 +0.00    +0.012 C 
DOCKED: ENDBRANCH  12  42
DOCKED: BRANCH  17  44
DOCKED: ATOM     44  C   UNL d   1      25.493  38.652  -7.726 -0.06 +0.00    +0.004 C 
DOCKED: ATOM     45  C   UNL d   1      25.056  37.451  -7.334 -0.07 +0.00    +0.012 C 
DOCKED: ENDBRANCH  17  44
DOCKED: TORSDOF 10
DOCKED: TER
DOCKED: ENDMDL
________________________________________________________________________________


	BEGINNING GENETIC ALGORITHM DOCKING 64 of 100
Run: 64 Seed: 1197372555 834001174 [ Run 64 of 100 GA/GALS ]
Beginning LAMARCKIAN GENETIC ALGORITHM (LGA), with a maximum of 25000000 energy evaluations.

Final-Value: -17.248


	FINAL GENETIC ALGORITHM DOCKED STATE
	_______________________________________________


Detailed state:  trans 41.791 28.781 16.156 quatxyzw -0.221208 -0.098575 0.952565 -0.184311 center -0.174 -0.001 -0.047 ntor 10 37.7085 -61.7466 65.8558 -142.8188 -141.0993 -175.6666 -63.9865 40.1451 179.5308 -180.0000
State:	 41.791  28.781  16.156  -0.225 -0.100  0.969 -158.758     37.71  -61.75   65.86 -142.82 -141.10 -175.67  -63.99   40.15  179.53 -180.00

DOCKED: MODEL       64
DOCKED: USER    Run = 64
DOCKED: USER    DPF = D:/Protein_go_brrr/autodock/final/2DN3/heme_Fe/dock.dpf
DOCKED: USER  
DOCKED: USER    Estimated Free Energy of Binding    =  -12.27 kcal/mol  [=(1)+(2)+(3)-(4)]
DOCKED: USER    Estimated Inhibition Constant, Ki   =    1.01 nM (nanomolar)  [Temperature = 298.15 K]
DOCKED: USER    
DOCKED: USER    (1) Final Intermolecular Energy     =  -15.25 kcal/mol
DOCKED: USER        vdW + Hbond + desolv Energy     =  -13.33 kcal/mol
DOCKED: USER        Electrostatic Energy            =   -1.92 kcal/mol
DOCKED: USER    (2) Final Total Internal Energy     =   -2.00 kcal/mol
DOCKED: USER    (3) Torsional Free Energy           =   +2.98 kcal/mol
DOCKED: USER    (4) Unbound System's Energy  [=(2)] =   -2.00 kcal/mol
DOCKED: USER    
DOCKED: USER    
DOCKED: USER    NEWDPF move heme_Fe_opt.pdbqt
DOCKED: USER    NEWDPF about -0.174000 -0.001000 -0.047000
DOCKED: USER    NEWDPF tran0 41.790858 28.780539 16.156395
DOCKED: USER    NEWDPF quaternion0 -0.221208 -0.098575 0.952565 -0.184311
DOCKED: USER    NEWDPF axisangle0 -0.225064 -0.100293 0.969168 -158.758095
DOCKED: USER    NEWDPF quat0 -0.225064 -0.100293 0.969168 -158.758095
DOCKED: USER    NEWDPF dihe0 37.71 -61.75 65.86 -142.82 -141.10 -175.67 -63.99 40.15 179.53 -180.00 
DOCKED: USER  keepresnum = 1 
DOCKED: USER  
DOCKED: REMARK  10 active torsions:
DOCKED: REMARK  status: ('A' for Active; 'I' for Inactive)
DOCKED: REMARK    1  A    between atoms: C_6  and  C_10 
DOCKED: REMARK    2  A    between atoms: C_10  and  C_11 
DOCKED: REMARK    3  A    between atoms: C_11  and  C_12 
DOCKED: REMARK    4  A    between atoms: C_12  and  O_14 
DOCKED: REMARK    5  A    between atoms: C_17  and  C_20 
DOCKED: REMARK    6  A    between atoms: C_24  and  C_27 
DOCKED: REMARK    7  A    between atoms: C_31  and  C_34 
DOCKED: REMARK    8  A    between atoms: C_34  and  C_35 
DOCKED: REMARK    9  A    between atoms: C_35  and  C_36 
DOCKED: REMARK   10  A    between atoms: C_36  and  O_38 
DOCKED: USER                              x       y       z     vdW  Elec       q    Type
DOCKED: USER                           _______ _______ _______ _____ _____    ______ ____
DOCKED: ROOT
DOCKED: ATOM      1  C   UNL d   1      43.218  27.996  17.405 -0.26 +0.02    +0.064 C 
DOCKED: ATOM      2  C   UNL d   1      41.283  32.493  16.723 -0.41 +0.01    +0.064 A 
DOCKED: ATOM      3  C   UNL d   1      37.700  30.496  14.224 -0.24 +0.01    +0.064 C 
DOCKED: ATOM      4  C   UNL d   1      39.612  26.146  14.783 -0.47 +0.01    +0.064 C 
DOCKED: ATOM      5  C   UNL d   1      43.050  29.455  17.373 -0.28 +0.02    +0.066 A 
DOCKED: ATOM      6  C   UNL d   1      43.953  30.366  17.897 -0.31 -0.01    -0.021 A 
DOCKED: ATOM      7  C   UNL d   1      43.413  31.615  17.710 -0.26 -0.01    -0.025 A 
DOCKED: ATOM      8  C   UNL d   1      42.200  31.417  17.079 -0.36 +0.02    +0.066 A 
DOCKED: ATOM      9  C   UNL d   1      44.043  32.916  18.102 -0.13 +0.01    +0.051 C 
DOCKED: ATOM     10  C   UNL d   1      40.134  32.335  16.063 -0.39 +0.01    +0.066 A 
DOCKED: ATOM     11  C   UNL d   1      39.222  33.368  15.837 -0.41 -0.00    -0.021 A 
DOCKED: ATOM     12  C   UNL d   1      38.172  32.815  15.132 -0.39 +0.00    +0.000 A 
DOCKED: ATOM     13  C   UNL d   1      38.497  31.457  14.971 -0.34 +0.01    +0.070 A 
DOCKED: ATOM     14  C   UNL d   1      39.314  34.799  16.327 -0.51 +0.01    +0.052 C 
DOCKED: ATOM     15  C   UNL d   1      37.982  29.177  14.110 -0.34 +0.01    +0.066 A 
DOCKED: ATOM     16  C   UNL d   1      37.251  28.312  13.306 -0.44 -0.00    -0.021 A 
DOCKED: ATOM     17  C   UNL d   1      37.798  27.056  13.468 -0.45 +0.00    +0.000 A 
DOCKED: ATOM     18  C   UNL d   1      38.850  27.184  14.372 -0.35 +0.01    +0.070 A 
DOCKED: ATOM     19  C   UNL d   1      36.067  28.644  12.438 -0.62 +0.01    +0.052 C 
DOCKED: ATOM     20  C   UNL d   1      40.765  26.253  15.685 -0.39 +0.02    +0.066 A 
DOCKED: ATOM     21  C   UNL d   1      41.435  25.172  16.274 -0.41 -0.01    -0.025 A 
DOCKED: ATOM     22  C   UNL d   1      42.467  25.721  17.007 -0.34 -0.01    -0.021 A 
DOCKED: ATOM     23  C   UNL d   1      42.382  27.109  16.842 -0.30 +0.02    +0.066 A 
DOCKED: ATOM     24  C   UNL d   1      41.126  23.697  16.163 -0.48 +0.01    +0.051 C 
DOCKED: ATOM     25  N   UNL d   1      41.987  30.103  16.867 -0.15 -0.08    -0.248 N 
DOCKED: ATOM     26  N   UNL d   1      39.689  31.162  15.545 -0.16 -0.06    -0.248 N 
DOCKED: ATOM     27  N   UNL d   1      38.992  28.495  14.734 -0.00 -0.07    -0.248 N 
DOCKED: ATOM     28  N   UNL d   1      41.315  27.430  16.071 -0.24 -0.08    -0.248 N 
DOCKED: ATOM     29 FE   UNL d   1      40.501  29.294  15.808 -0.08 +0.00    +0.000 Fe
DOCKED: ENDROOT
DOCKED: BRANCH   6  30
DOCKED: ATOM     30  C   UNL d   1      45.272  30.070  18.524 -0.24 +0.02    +0.052 C 
DOCKED: BRANCH  30  31
DOCKED: ATOM     31  C   UNL d   1      45.125  29.885  20.030 -0.13 +0.09    +0.115 C 
DOCKED: BRANCH  31  32
DOCKED: ATOM     32  C   UNL d   1      45.486  28.480  20.426 -0.17 +0.15    +0.139 C 
DOCKED: ATOM     33  O   UNL d   1      44.850  27.893  21.290 -0.13 -1.03    -0.650 OA
DOCKED: BRANCH  32  34
DOCKED: ATOM     34  O   UNL d   1      46.515  27.855  19.830 +0.05 -0.57    -0.776 OA
DOCKED: ATOM     35  H   UNL d   1      46.442  26.909  19.636 +0.05 +0.11    +0.167 HD
DOCKED: ENDBRANCH  32  34
DOCKED: ENDBRANCH  31  32
DOCKED: ENDBRANCH  30  31
DOCKED: ENDBRANCH   6  30
DOCKED: BRANCH  22  36
DOCKED: ATOM     36  C   UNL d   1      43.448  24.956  17.856 -0.34 +0.02    +0.052 C 
DOCKED: BRANCH  36  37
DOCKED: ATOM     37  C   UNL d   1      42.835  24.675  19.220 -0.38 +0.04    +0.115 C 
DOCKED: BRANCH  37  38
DOCKED: ATOM     38  C   UNL d   1      43.857  24.827  20.311 -0.29 +0.08    +0.139 C 
DOCKED: ATOM     39  O   UNL d   1      43.576  24.567  21.471 -0.23 -0.39    -0.650 OA
DOCKED: BRANCH  38  40
DOCKED: ATOM     40  O   UNL d   1      45.096  25.258  20.014 +0.04 -0.46    -0.776 OA
DOCKED: ATOM     41  H   UNL d   1      45.411  26.087  20.401 +0.06 +0.12    +0.167 HD
DOCKED: ENDBRANCH  38  40
DOCKED: ENDBRANCH  37  38
DOCKED: ENDBRANCH  36  37
DOCKED: ENDBRANCH  22  36
DOCKED: BRANCH  12  42
DOCKED: ATOM     42  C   UNL d   1      36.956  33.560  14.682 -0.38 +0.00    +0.004 C 
DOCKED: ATOM     43  C   UNL d   1      36.709  33.755  13.380 -0.52 +0.00    +0.012 C 
DOCKED: ENDBRANCH  12  42
DOCKED: BRANCH  17  44
DOCKED: ATOM     44  C   UNL d   1      37.357  25.818  12.787 -0.54 +0.00    +0.004 C 
DOCKED: ATOM     45  C   UNL d   1      36.404  25.046  13.319 -0.66 +0.00    +0.012 C 
DOCKED: ENDBRANCH  17  44
DOCKED: TORSDOF 10
DOCKED: TER
DOCKED: ENDMDL
________________________________________________________________________________


	BEGINNING GENETIC ALGORITHM DOCKING 65 of 100
Run: 65 Seed: 1371925400 417825351 [ Run 65 of 100 GA/GALS ]
Beginning LAMARCKIAN GENETIC ALGORITHM (LGA), with a maximum of 25000000 energy evaluations.

Final-Value: -15.084


	FINAL GENETIC ALGORITHM DOCKED STATE
	_______________________________________________


Detailed state:  trans 8.698 35.082 -1.197 quatxyzw -0.412314 -0.209700 -0.297808 -0.835065 center -0.174 -0.001 -0.047 ntor 10 -69.8494 -105.2511 69.8838 -161.2147 57.8733 44.5832 32.2954 -44.5996 174.4284 -163.7607
State:	  8.698  35.082  -1.197  -0.749 -0.381 -0.541 -66.755    -69.85 -105.25   69.88 -161.21   57.87   44.58   32.30  -44.60  174.43 -163.76

DOCKED: MODEL       65
DOCKED: USER    Run = 65
DOCKED: USER    DPF = D:/Protein_go_brrr/autodock/final/2DN3/heme_Fe/dock.dpf
DOCKED: USER  
DOCKED: USER    Estimated Free Energy of Binding    =  -11.46 kcal/mol  [=(1)+(2)+(3)-(4)]
DOCKED: USER    Estimated Inhibition Constant, Ki   =    3.98 nM (nanomolar)  [Temperature = 298.15 K]
DOCKED: USER    
DOCKED: USER    (1) Final Intermolecular Energy     =  -14.44 kcal/mol
DOCKED: USER        vdW + Hbond + desolv Energy     =  -13.26 kcal/mol
DOCKED: USER        Electrostatic Energy            =   -1.18 kcal/mol
DOCKED: USER    (2) Final Total Internal Energy     =   -0.64 kcal/mol
DOCKED: USER    (3) Torsional Free Energy           =   +2.98 kcal/mol
DOCKED: USER    (4) Unbound System's Energy  [=(2)] =   -0.64 kcal/mol
DOCKED: USER    
DOCKED: USER    
DOCKED: USER    NEWDPF move heme_Fe_opt.pdbqt
DOCKED: USER    NEWDPF about -0.174000 -0.001000 -0.047000
DOCKED: USER    NEWDPF tran0 8.698451 35.081658 -1.196621
DOCKED: USER    NEWDPF quaternion0 -0.412314 -0.209700 -0.297808 -0.835065
DOCKED: USER    NEWDPF axisangle0 -0.749455 -0.381168 -0.541320 -66.754729
DOCKED: USER    NEWDPF quat0 -0.749455 -0.381168 -0.541320 -66.754729
DOCKED: USER    NEWDPF dihe0 -69.85 -105.25 69.88 -161.21 57.87 44.58 32.30 -44.60 174.43 -163.76 
DOCKED: USER  keepresnum = 1 
DOCKED: USER  
DOCKED: REMARK  10 active torsions:
DOCKED: REMARK  status: ('A' for Active; 'I' for Inactive)
DOCKED: REMARK    1  A    between atoms: C_6  and  C_10 
DOCKED: REMARK    2  A    between atoms: C_10  and  C_11 
DOCKED: REMARK    3  A    between atoms: C_11  and  C_12 
DOCKED: REMARK    4  A    between atoms: C_12  and  O_14 
DOCKED: REMARK    5  A    between atoms: C_17  and  C_20 
DOCKED: REMARK    6  A    between atoms: C_24  and  C_27 
DOCKED: REMARK    7  A    between atoms: C_31  and  C_34 
DOCKED: REMARK    8  A    between atoms: C_34  and  C_35 
DOCKED: REMARK    9  A    between atoms: C_35  and  C_36 
DOCKED: REMARK   10  A    between atoms: C_36  and  O_38 
DOCKED: USER                              x       y       z     vdW  Elec       q    Type
DOCKED: USER                           _______ _______ _______ _____ _____    ______ ____
DOCKED: ROOT
DOCKED: ATOM      1  C   UNL d   1       7.148  36.129  -2.039 -0.15 +0.01    +0.064 C 
DOCKED: ATOM      2  C   UNL d   1       7.622  33.181   1.900 -0.39 +0.01    +0.064 A 
DOCKED: ATOM      3  C   UNL d   1      12.394  33.604   1.555 -0.35 +0.00    +0.064 C 
DOCKED: ATOM      4  C   UNL d   1      11.960  36.373  -2.322 -0.46 +0.00    +0.064 C 
DOCKED: ATOM      5  C   UNL d   1       6.841  35.192  -0.949 -0.24 +0.01    +0.066 A 
DOCKED: ATOM      6  C   UNL d   1       5.571  34.743  -0.626 -0.29 -0.00    -0.021 A 
DOCKED: ATOM      7  C   UNL d   1       5.703  33.928   0.470 -0.31 -0.00    -0.025 A 
DOCKED: ATOM      8  C   UNL d   1       7.051  33.910   0.775 -0.34 +0.01    +0.066 A 
DOCKED: ATOM      9  C   UNL d   1       4.596  33.197   1.165 -0.20 +0.01    +0.051 C 
DOCKED: ATOM     10  C   UNL d   1       8.924  33.101   2.182 -0.37 +0.01    +0.066 A 
DOCKED: ATOM     11  C   UNL d   1       9.432  32.491   3.331 -0.42 -0.00    -0.021 A 
DOCKED: ATOM     12  C   UNL d   1      10.805  32.614   3.264 -0.42 +0.00    +0.000 A 
DOCKED: ATOM     13  C   UNL d   1      11.066  33.307   2.069 -0.35 +0.01    +0.070 A 
DOCKED: ATOM     14  C   UNL d   1       8.644  31.881   4.472 -0.38 +0.00    +0.052 C 
DOCKED: ATOM     15  C   UNL d   1      12.650  34.316   0.432 -0.34 +0.01    +0.066 A 
DOCKED: ATOM     16  C   UNL d   1      13.929  34.492  -0.079 -0.44 -0.00    -0.021 A 
DOCKED: ATOM     17  C   UNL d   1      13.807  35.293  -1.196 -0.44 +0.00    +0.000 A 
DOCKED: ATOM     18  C   UNL d   1      12.454  35.591  -1.337 -0.36 +0.01    +0.070 A 
DOCKED: ATOM     19  C   UNL d   1      15.221  33.951   0.472 -0.58 +0.00    +0.052 C 
DOCKED: ATOM     20  C   UNL d   1      10.537  36.657  -2.538 -0.38 +0.01    +0.066 A 
DOCKED: ATOM     21  C   UNL d   1      10.028  37.618  -3.424 -0.40 -0.00    -0.025 A 
DOCKED: ATOM     22  C   UNL d   1       8.655  37.522  -3.337 -0.35 -0.00    -0.021 A 
DOCKED: ATOM     23  C   UNL d   1       8.381  36.517  -2.401 -0.19 +0.01    +0.066 A 
DOCKED: ATOM     24  C   UNL d   1      10.786  38.582  -4.307 -0.22 -0.01    +0.051 C 
DOCKED: ATOM     25  N   UNL d   1       7.741  34.673  -0.096 -0.18 -0.05    -0.248 N 
DOCKED: ATOM     26  N   UNL d   1       9.920  33.612   1.414 -0.13 -0.03    -0.248 N 
DOCKED: ATOM     27  N   UNL d   1      11.736  34.955  -0.363 -0.10 -0.04    -0.248 N 
DOCKED: ATOM     28  N   UNL d   1       9.533  36.024  -1.885 -0.23 -0.04    -0.248 N 
DOCKED: ATOM     29 FE   UNL d   1       9.727  34.819  -0.237 -0.08 +0.00    +0.000 Fe
DOCKED: ENDROOT
DOCKED: BRANCH   6  30
DOCKED: ATOM     30  C   UNL d   1       4.297  35.054  -1.335 -0.22 +0.01    +0.052 C 
DOCKED: BRANCH  30  31
DOCKED: ATOM     31  C   UNL d   1       3.568  36.208  -0.655 -0.18 +0.07    +0.115 C 
DOCKED: BRANCH  31  32
DOCKED: ATOM     32  C   UNL d   1       2.080  36.040  -0.786 -0.12 +0.12    +0.139 C 
DOCKED: ATOM     33  O   UNL d   1       1.527  35.035  -0.364 -0.02 -0.36    -0.650 OA
DOCKED: BRANCH  32  34
DOCKED: ATOM     34  O   UNL d   1       1.342  36.998  -1.372 -0.34 -1.14    -0.776 OA
DOCKED: ATOM     35  H   UNL d   1       0.946  36.822  -2.237 +0.02 +0.15    +0.167 HD
DOCKED: ENDBRANCH  32  34
DOCKED: ENDBRANCH  31  32
DOCKED: ENDBRANCH  30  31
DOCKED: ENDBRANCH   6  30
DOCKED: BRANCH  22  36
DOCKED: ATOM     36  C   UNL d   1       7.664  38.384  -4.075 -0.30 +0.00    +0.052 C 
DOCKED: BRANCH  36  37
DOCKED: ATOM     37  C   UNL d   1       7.759  39.818  -3.576 -0.34 +0.00    +0.115 C 
DOCKED: BRANCH  37  38
DOCKED: ATOM     38  C   UNL d   1       7.773  40.788  -4.724 -0.32 -0.01    +0.139 C 
DOCKED: ATOM     39  O   UNL d   1       6.996  40.661  -5.659 +0.06 -0.00    -0.650 OA
DOCKED: BRANCH  38  40
DOCKED: ATOM     40  O   UNL d   1       8.649  41.808  -4.730 +0.00 +0.16    -0.776 OA
DOCKED: ATOM     41  H   UNL d   1       9.580  41.627  -4.923 -0.50 -0.10    +0.167 HD
DOCKED: ENDBRANCH  38  40
DOCKED: ENDBRANCH  37  38
DOCKED: ENDBRANCH  36  37
DOCKED: ENDBRANCH  22  36
DOCKED: BRANCH  12  42
DOCKED: ATOM     42  C   UNL d   1      11.762  32.109   4.297 -0.44 +0.00    +0.004 C 
DOCKED: ATOM     43  C   UNL d   1      12.669  31.171   3.996 -0.61 +0.00    +0.012 C 
DOCKED: ENDBRANCH  12  42
DOCKED: BRANCH  17  44
DOCKED: ATOM     44  C   UNL d   1      14.911  35.728  -2.081 -0.23 +0.00    +0.004 C 
DOCKED: ATOM     45  C   UNL d   1      15.345  36.993  -2.063 -0.64 +0.00    +0.012 C 
DOCKED: ENDBRANCH  17  44
DOCKED: TORSDOF 10
DOCKED: TER
DOCKED: ENDMDL
________________________________________________________________________________


	BEGINNING GENETIC ALGORITHM DOCKING 66 of 100
Run: 66 Seed: 1693048655 1040713255 [ Run 66 of 100 GA/GALS ]
Beginning LAMARCKIAN GENETIC ALGORITHM (LGA), with a maximum of 25000000 energy evaluations.

Final-Value: -14.522


	FINAL GENETIC ALGORITHM DOCKED STATE
	_______________________________________________


Detailed state:  trans 10.421 34.781 -0.501 quatxyzw -0.195468 -0.437187 -0.763099 -0.433981 center -0.174 -0.001 -0.047 ntor 10 143.2731 122.1663 -0.8006 50.4874 111.8417 38.0573 49.0464 64.0628 142.5259 -11.5710
State:	 10.421  34.781  -0.501  -0.217 -0.485 -0.847 -128.559    143.27  122.17   -0.80   50.49  111.84   38.06   49.05   64.06  142.53  -11.57

DOCKED: MODEL       66
DOCKED: USER    Run = 66
DOCKED: USER    DPF = D:/Protein_go_brrr/autodock/final/2DN3/heme_Fe/dock.dpf
DOCKED: USER  
DOCKED: USER    Estimated Free Energy of Binding    =  -11.02 kcal/mol  [=(1)+(2)+(3)-(4)]
DOCKED: USER    Estimated Inhibition Constant, Ki   =    8.32 nM (nanomolar)  [Temperature = 298.15 K]
DOCKED: USER    
DOCKED: USER    (1) Final Intermolecular Energy     =  -14.01 kcal/mol
DOCKED: USER        vdW + Hbond + desolv Energy     =  -13.82 kcal/mol
DOCKED: USER        Electrostatic Energy            =   -0.19 kcal/mol
DOCKED: USER    (2) Final Total Internal Energy     =   -0.52 kcal/mol
DOCKED: USER    (3) Torsional Free Energy           =   +2.98 kcal/mol
DOCKED: USER    (4) Unbound System's Energy  [=(2)] =   -0.52 kcal/mol
DOCKED: USER    
DOCKED: USER    
DOCKED: USER    NEWDPF move heme_Fe_opt.pdbqt
DOCKED: USER    NEWDPF about -0.174000 -0.001000 -0.047000
DOCKED: USER    NEWDPF tran0 10.421348 34.780830 -0.500951
DOCKED: USER    NEWDPF quaternion0 -0.195468 -0.437187 -0.763099 -0.433981
DOCKED: USER    NEWDPF axisangle0 -0.216964 -0.485266 -0.847020 -128.559023
DOCKED: USER    NEWDPF quat0 -0.216964 -0.485266 -0.847020 -128.559023
DOCKED: USER    NEWDPF dihe0 143.27 122.17 -0.80 50.49 111.84 38.06 49.05 64.06 142.53 -11.57 
DOCKED: USER  keepresnum = 1 
DOCKED: USER  
DOCKED: REMARK  10 active torsions:
DOCKED: REMARK  status: ('A' for Active; 'I' for Inactive)
DOCKED: REMARK    1  A    between atoms: C_6  and  C_10 
DOCKED: REMARK    2  A    between atoms: C_10  and  C_11 
DOCKED: REMARK    3  A    between atoms: C_11  and  C_12 
DOCKED: REMARK    4  A    between atoms: C_12  and  O_14 
DOCKED: REMARK    5  A    between atoms: C_17  and  C_20 
DOCKED: REMARK    6  A    between atoms: C_24  and  C_27 
DOCKED: REMARK    7  A    between atoms: C_31  and  C_34 
DOCKED: REMARK    8  A    between atoms: C_34  and  C_35 
DOCKED: REMARK    9  A    between atoms: C_35  and  C_36 
DOCKED: REMARK   10  A    between atoms: C_36  and  O_38 
DOCKED: USER                              x       y       z     vdW  Elec       q    Type
DOCKED: USER                           _______ _______ _______ _____ _____    ______ ____
DOCKED: ROOT
DOCKED: ATOM      1  C   UNL d   1      11.412  36.214  -1.585 -0.40 +0.01    +0.064 C 
DOCKED: ATOM      2  C   UNL d   1       6.660  35.058  -0.869 -0.26 +0.01    +0.064 A 
DOCKED: ATOM      3  C   UNL d   1       7.956  32.341   2.873 -0.50 +0.00    +0.064 C 
DOCKED: ATOM      4  C   UNL d   1      12.571  33.363   2.134 -0.16 +0.00    +0.064 C 
DOCKED: ATOM      5  C   UNL d   1       9.963  36.074  -1.782 -0.29 +0.01    +0.066 A 
DOCKED: ATOM      6  C   UNL d   1       9.251  36.628  -2.833 -0.38 -0.00    -0.021 A 
DOCKED: ATOM      7  C   UNL d   1       7.931  36.309  -2.631 -0.28 -0.00    -0.025 A 
DOCKED: ATOM      8  C   UNL d   1       7.888  35.573  -1.464 -0.03 +0.02    +0.066 A 
DOCKED: ATOM      9  C   UNL d   1       6.787  36.680  -3.525 -0.28 +0.01    +0.051 C 
DOCKED: ATOM     10  C   UNL d   1       6.597  34.297   0.224 -0.32 +0.01    +0.066 A 
DOCKED: ATOM     11  C   UNL d   1       5.400  33.915   0.835 -0.32 -0.00    -0.021 A 
DOCKED: ATOM     12  C   UNL d   1       5.747  33.145   1.926 -0.39 +0.00    +0.000 A 
DOCKED: ATOM     13  C   UNL d   1       7.152  33.103   1.931 -0.39 +0.01    +0.070 A 
DOCKED: ATOM     14  C   UNL d   1       3.995  34.322   0.437 -0.28 +0.01    +0.052 C 
DOCKED: ATOM     15  C   UNL d   1       9.310  32.339   2.913 -0.42 +0.00    +0.066 A 
DOCKED: ATOM     16  C   UNL d   1      10.042  31.522   3.764 -0.50 -0.00    -0.021 A 
DOCKED: ATOM     17  C   UNL d   1      11.373  31.817   3.555 -0.47 +0.00    +0.000 A 
DOCKED: ATOM     18  C   UNL d   1      11.422  32.813   2.582 -0.33 +0.00    +0.070 A 
DOCKED: ATOM     19  C   UNL d   1       9.514  30.519   4.755 -0.66 +0.00    +0.052 C 
DOCKED: ATOM     20  C   UNL d   1      12.664  34.368   1.068 -0.31 +0.01    +0.066 A 
DOCKED: ATOM     21  C   UNL d   1      13.819  35.089   0.733 -0.40 -0.00    -0.025 A 
DOCKED: ATOM     22  C   UNL d   1      13.469  35.886  -0.337 -0.39 -0.00    -0.021 A 
DOCKED: ATOM     23  C   UNL d   1      12.121  35.626  -0.608 -0.33 +0.01    +0.066 A 
DOCKED: ATOM     24  C   UNL d   1      15.183  35.040   1.382 -0.53 +0.00    +0.051 C 
DOCKED: ATOM     25  N   UNL d   1       9.127  35.423  -0.954 -0.02 -0.08    -0.248 N 
DOCKED: ATOM     26  N   UNL d   1       7.671  33.812   0.899 -0.22 -0.03    -0.248 N 
DOCKED: ATOM     27  N   UNL d   1      10.156  33.104   2.156 -0.25 -0.02    -0.248 N 
DOCKED: ATOM     28  N   UNL d   1      11.623  34.733   0.282 -0.15 -0.04    -0.248 N 
DOCKED: ATOM     29 FE   UNL d   1       9.648  34.272   0.591 -0.08 +0.00    +0.000 Fe
DOCKED: ENDROOT
DOCKED: BRANCH   6  30
DOCKED: ATOM     30  C   UNL d   1       9.797  37.402  -3.984 -0.33 +0.00    +0.052 C 
DOCKED: BRANCH  30  31
DOCKED: ATOM     31  C   UNL d   1       9.058  38.726  -4.143 -0.37 -0.01    +0.115 C 
DOCKED: BRANCH  31  32
DOCKED: ATOM     32  C   UNL d   1       8.633  38.923  -5.572 -0.26 -0.02    +0.139 C 
DOCKED: ATOM     33  O   UNL d   1       7.449  38.897  -5.879 +0.04 +0.00    -0.650 OA
DOCKED: BRANCH  32  34
DOCKED: ATOM     34  O   UNL d   1       9.554  39.129  -6.528 +0.07 +0.21    -0.776 OA
DOCKED: ATOM     35  H   UNL d   1      10.337  39.658  -6.319 -0.50 -0.11    +0.167 HD
DOCKED: ENDBRANCH  32  34
DOCKED: ENDBRANCH  31  32
DOCKED: ENDBRANCH  30  31
DOCKED: ENDBRANCH   6  30
DOCKED: BRANCH  22  36
DOCKED: ATOM     36  C   UNL d   1      14.370  36.876  -1.028 -0.49 +0.00    +0.052 C 
DOCKED: BRANCH  36  37
DOCKED: ATOM     37  C   UNL d   1      15.190  36.167  -2.095 -0.46 +0.01    +0.115 C 
DOCKED: BRANCH  37  38
DOCKED: ATOM     38  C   UNL d   1      16.657  36.233  -1.780 -0.46 +0.03    +0.139 C 
DOCKED: ATOM     39  O   UNL d   1      17.054  36.135  -0.628 +0.11 -0.15    -0.650 OA
DOCKED: BRANCH  38  40
DOCKED: ATOM     40  O   UNL d   1      17.550  36.406  -2.771 +0.08 -0.13    -0.776 OA
DOCKED: ATOM     41  H   UNL d   1      17.578  35.765  -3.495 +0.12 +0.03    +0.167 HD
DOCKED: ENDBRANCH  38  40
DOCKED: ENDBRANCH  37  38
DOCKED: ENDBRANCH  36  37
DOCKED: ENDBRANCH  22  36
DOCKED: BRANCH  12  42
DOCKED: ATOM     42  C   UNL d   1       4.775  32.528   2.882 -0.45 +0.00    +0.004 C 
DOCKED: ATOM     43  C   UNL d   1       3.702  31.860   2.439 -0.31 +0.00    +0.012 C 
DOCKED: ENDBRANCH  12  42
DOCKED: BRANCH  17  44
DOCKED: ATOM     44  C   UNL d   1      12.525  31.174   4.227 -0.62 +0.00    +0.004 C 
DOCKED: ATOM     45  C   UNL d   1      13.278  30.275   3.585 -0.64 +0.00    +0.012 C 
DOCKED: ENDBRANCH  17  44
DOCKED: TORSDOF 10
DOCKED: TER
DOCKED: ENDMDL
________________________________________________________________________________


	BEGINNING GENETIC ALGORITHM DOCKING 67 of 100
Run: 67 Seed: 1046072859 2049592858 [ Run 67 of 100 GA/GALS ]
Beginning LAMARCKIAN GENETIC ALGORITHM (LGA), with a maximum of 25000000 energy evaluations.

Final-Value: -11.036


	FINAL GENETIC ALGORITHM DOCKED STATE
	_______________________________________________


Detailed state:  trans 25.285 45.915 -1.217 quatxyzw -0.132711 -0.903231 -0.322048 0.250691 center -0.174 -0.001 -0.047 ntor 10 25.6248 -94.8695 10.6538 15.6258 -174.4329 -157.5751 -72.7343 26.8031 -173.2560 -172.9036
State:	 25.285  45.915  -1.217  -0.137 -0.933 -0.333 150.963     25.62  -94.87   10.65   15.63 -174.43 -157.58  -72.73   26.80 -173.26 -172.90

DOCKED: MODEL       67
DOCKED: USER    Run = 67
DOCKED: USER    DPF = D:/Protein_go_brrr/autodock/final/2DN3/heme_Fe/dock.dpf
DOCKED: USER  
DOCKED: USER    Estimated Free Energy of Binding    =   -5.96 kcal/mol  [=(1)+(2)+(3)-(4)]
DOCKED: USER    Estimated Inhibition Constant, Ki   =   42.84 uM (micromolar)  [Temperature = 298.15 K]
DOCKED: USER    
DOCKED: USER    (1) Final Intermolecular Energy     =   -8.94 kcal/mol
DOCKED: USER        vdW + Hbond + desolv Energy     =   -7.35 kcal/mol
DOCKED: USER        Electrostatic Energy            =   -1.59 kcal/mol
DOCKED: USER    (2) Final Total Internal Energy     =   -2.09 kcal/mol
DOCKED: USER    (3) Torsional Free Energy           =   +2.98 kcal/mol
DOCKED: USER    (4) Unbound System's Energy  [=(2)] =   -2.09 kcal/mol
DOCKED: USER    
DOCKED: USER    
DOCKED: USER    NEWDPF move heme_Fe_opt.pdbqt
DOCKED: USER    NEWDPF about -0.174000 -0.001000 -0.047000
DOCKED: USER    NEWDPF tran0 25.285297 45.915497 -1.217082
DOCKED: USER    NEWDPF quaternion0 -0.132711 -0.903231 -0.322048 0.250691
DOCKED: USER    NEWDPF axisangle0 -0.137088 -0.933026 -0.332671 150.963159
DOCKED: USER    NEWDPF quat0 -0.137088 -0.933026 -0.332671 150.963159
DOCKED: USER    NEWDPF dihe0 25.62 -94.87 10.65 15.63 -174.43 -157.58 -72.73 26.80 -173.26 -172.90 
DOCKED: USER  keepresnum = 1 
DOCKED: USER  
DOCKED: REMARK  10 active torsions:
DOCKED: REMARK  status: ('A' for Active; 'I' for Inactive)
DOCKED: REMARK    1  A    between atoms: C_6  and  C_10 
DOCKED: REMARK    2  A    between atoms: C_10  and  C_11 
DOCKED: REMARK    3  A    between atoms: C_11  and  C_12 
DOCKED: REMARK    4  A    between atoms: C_12  and  O_14 
DOCKED: REMARK    5  A    between atoms: C_17  and  C_20 
DOCKED: REMARK    6  A    between atoms: C_24  and  C_27 
DOCKED: REMARK    7  A    between atoms: C_31  and  C_34 
DOCKED: REMARK    8  A    between atoms: C_34  and  C_35 
DOCKED: REMARK    9  A    between atoms: C_35  and  C_36 
DOCKED: REMARK   10  A    between atoms: C_36  and  O_38 
DOCKED: USER                              x       y       z     vdW  Elec       q    Type
DOCKED: USER                           _______ _______ _______ _____ _____    ______ ____
DOCKED: ROOT
DOCKED: ATOM      1  C   UNL d   1      27.229  45.350  -0.882 -0.15 +0.02    +0.064 C 
DOCKED: ATOM      2  C   UNL d   1      23.800  44.197  -4.250 -0.20 +0.01    +0.064 A 
DOCKED: ATOM      3  C   UNL d   1      21.238  48.009  -2.845 -0.26 -0.01    +0.064 C 
DOCKED: ATOM      4  C   UNL d   1      24.493  49.082   0.492 -0.10 +0.01    +0.064 C 
DOCKED: ATOM      5  C   UNL d   1      26.462  44.624  -1.904 -0.17 +0.02    +0.066 A 
DOCKED: ATOM      6  C   UNL d   1      26.837  43.414  -2.464 -0.21 -0.00    -0.021 A 
DOCKED: ATOM      7  C   UNL d   1      25.887  43.097  -3.401 -0.27 -0.01    -0.025 A 
DOCKED: ATOM      8  C   UNL d   1      24.966  44.126  -3.378 -0.29 +0.01    +0.066 A 
DOCKED: ATOM      9  C   UNL d   1      25.863  41.864  -4.252 -0.25 +0.01    +0.051 C 
DOCKED: ATOM     10  C   UNL d   1      22.867  45.149  -4.208 -0.22 +0.00    +0.066 A 
DOCKED: ATOM     11  C   UNL d   1      21.824  45.253  -5.132 -0.28 -0.00    -0.021 A 
DOCKED: ATOM     12  C   UNL d   1      21.080  46.354  -4.759 -0.28 -0.00    +0.000 A 
DOCKED: ATOM     13  C   UNL d   1      21.718  46.876  -3.620 -0.26 -0.00    +0.070 A 
DOCKED: ATOM     14  C   UNL d   1      21.587  44.386  -6.352 -0.30 +0.01    +0.052 C 
DOCKED: ATOM     15  C   UNL d   1      21.877  48.546  -1.779 -0.19 -0.00    +0.066 A 
DOCKED: ATOM     16  C   UNL d   1      21.336  49.564  -1.005 -0.21 +0.00    -0.021 A 
DOCKED: ATOM     17  C   UNL d   1      22.274  49.878  -0.044 -0.16 +0.00    +0.000 A 
DOCKED: ATOM     18  C   UNL d   1      23.370  49.045  -0.257 -0.11 +0.01    +0.070 A 
DOCKED: ATOM     19  C   UNL d   1      19.999  50.236  -1.174 -0.27 -0.01    +0.052 C 
DOCKED: ATOM     20  C   UNL d   1      25.640  48.179   0.336 -0.10 +0.02    +0.066 A 
DOCKED: ATOM     21  C   UNL d   1      26.883  48.333   0.966 -0.09 -0.01    -0.025 A 
DOCKED: ATOM     22  C   UNL d   1      27.643  47.252   0.570 -0.11 -0.01    -0.021 A 
DOCKED: ATOM     23  C   UNL d   1      26.841  46.489  -0.287 -0.11 +0.02    +0.066 A 
DOCKED: ATOM     24  C   UNL d   1      27.343  49.437   1.890 -0.09 +0.01    +0.051 C 
DOCKED: ATOM     25  N   UNL d   1      25.314  45.049  -2.459 -0.15 -0.06    -0.248 N 
DOCKED: ATOM     26  N   UNL d   1      22.813  46.147  -3.290 -0.11 -0.02    -0.248 N 
DOCKED: ATOM     27  N   UNL d   1      23.109  48.195  -1.296 -0.09 -0.02    -0.248 N 
DOCKED: ATOM     28  N   UNL d   1      25.635  47.083  -0.461 +0.08 -0.07    -0.248 N 
DOCKED: ATOM     29 FE   UNL d   1      24.224  46.617  -1.874 -0.05 +0.00    +0.000 Fe
DOCKED: ENDROOT
DOCKED: BRANCH   6  30
DOCKED: ATOM     30  C   UNL d   1      28.028  42.589  -2.112 -0.14 +0.01    +0.052 C 
DOCKED: BRANCH  30  31
DOCKED: ATOM     31  C   UNL d   1      29.264  43.078  -2.858 -0.03 +0.03    +0.115 C 
DOCKED: BRANCH  31  32
DOCKED: ATOM     32  C   UNL d   1      30.201  43.785  -1.918 -0.03 +0.05    +0.139 C 
DOCKED: ATOM     33  O   UNL d   1      31.206  44.340  -2.339 +0.02 -0.29    -0.650 OA
DOCKED: BRANCH  32  34
DOCKED: ATOM     34  O   UNL d   1      29.940  43.812  -0.600 +0.06 -0.36    -0.776 OA
DOCKED: ATOM     35  H   UNL d   1      30.294  44.537  -0.066 +0.04 +0.11    +0.167 HD
DOCKED: ENDBRANCH  32  34
DOCKED: ENDBRANCH  31  32
DOCKED: ENDBRANCH  30  31
DOCKED: ENDBRANCH   6  30
DOCKED: BRANCH  22  36
DOCKED: ATOM     36  C   UNL d   1      29.076  46.995   0.956 -0.10 +0.02    +0.052 C 
DOCKED: BRANCH  36  37
DOCKED: ATOM     37  C   UNL d   1      29.994  47.914   0.162 -0.12 +0.04    +0.115 C 
DOCKED: BRANCH  37  38
DOCKED: ATOM     38  C   UNL d   1      31.364  47.313   0.018 -0.17 +0.09    +0.139 C 
DOCKED: ATOM     39  O   UNL d   1      32.335  48.019  -0.210 -0.06 -0.45    -0.650 OA
DOCKED: BRANCH  38  40
DOCKED: ATOM     40  O   UNL d   1      31.530  45.984   0.137 -0.60 -0.93    -0.776 OA
DOCKED: ATOM     41  H   UNL d   1      31.387  45.422  -0.637 +0.03 +0.16    +0.167 HD
DOCKED: ENDBRANCH  38  40
DOCKED: ENDBRANCH  37  38
DOCKED: ENDBRANCH  36  37
DOCKED: ENDBRANCH  22  36
DOCKED: BRANCH  12  42
DOCKED: ATOM     42  C   UNL d   1      19.865  46.850  -5.477 -0.27 -0.00    +0.004 C 
DOCKED: ATOM     43  C   UNL d   1      18.795  46.062  -5.645 -0.40 -0.00    +0.012 C 
DOCKED: ENDBRANCH  12  42
DOCKED: BRANCH  17  44
DOCKED: ATOM     44  C   UNL d   1      22.124  50.894   1.022 -0.20 -0.00    +0.004 C 
DOCKED: ATOM     45  C   UNL d   1      21.267  50.707   2.031 -0.36 -0.00    +0.012 C 
DOCKED: ENDBRANCH  17  44
DOCKED: TORSDOF 10
DOCKED: TER
DOCKED: ENDMDL
________________________________________________________________________________


	BEGINNING GENETIC ALGORITHM DOCKING 68 of 100
Run: 68 Seed: 737860024 167555539 [ Run 68 of 100 GA/GALS ]
Beginning LAMARCKIAN GENETIC ALGORITHM (LGA), with a maximum of 25000000 energy evaluations.

Final-Value: -14.226


	FINAL GENETIC ALGORITHM DOCKED STATE
	_______________________________________________


Detailed state:  trans 10.068 35.830 -0.728 quatxyzw 0.525936 -0.745738 0.383317 -0.142594 center -0.174 -0.001 -0.047 ntor 10 -134.3610 161.9768 72.0528 -161.4741 94.0362 68.8816 62.4767 78.4029 162.9106 1.2429
State:	 10.068  35.830  -0.728   0.531 -0.753  0.387 -163.604   -134.36  161.98   72.05 -161.47   94.04   68.88   62.48   78.40  162.91    1.24

DOCKED: MODEL       68
DOCKED: USER    Run = 68
DOCKED: USER    DPF = D:/Protein_go_brrr/autodock/final/2DN3/heme_Fe/dock.dpf
DOCKED: USER  
DOCKED: USER    Estimated Free Energy of Binding    =  -10.52 kcal/mol  [=(1)+(2)+(3)-(4)]
DOCKED: USER    Estimated Inhibition Constant, Ki   =   19.58 nM (nanomolar)  [Temperature = 298.15 K]
DOCKED: USER    
DOCKED: USER    (1) Final Intermolecular Energy     =  -13.50 kcal/mol
DOCKED: USER        vdW + Hbond + desolv Energy     =  -13.24 kcal/mol
DOCKED: USER        Electrostatic Energy            =   -0.26 kcal/mol
DOCKED: USER    (2) Final Total Internal Energy     =   -0.73 kcal/mol
DOCKED: USER    (3) Torsional Free Energy           =   +2.98 kcal/mol
DOCKED: USER    (4) Unbound System's Energy  [=(2)] =   -0.73 kcal/mol
DOCKED: USER    
DOCKED: USER    
DOCKED: USER    NEWDPF move heme_Fe_opt.pdbqt
DOCKED: USER    NEWDPF about -0.174000 -0.001000 -0.047000
DOCKED: USER    NEWDPF tran0 10.067548 35.830439 -0.727675
DOCKED: USER    NEWDPF quaternion0 0.525936 -0.745738 0.383317 -0.142594
DOCKED: USER    NEWDPF axisangle0 0.531366 -0.753438 0.387275 -163.604006
DOCKED: USER    NEWDPF quat0 0.531366 -0.753438 0.387275 -163.604006
DOCKED: USER    NEWDPF dihe0 -134.36 161.98 72.05 -161.47 94.04 68.88 62.48 78.40 162.91 1.24 
DOCKED: USER  keepresnum = 1 
DOCKED: USER  
DOCKED: REMARK  10 active torsions:
DOCKED: REMARK  status: ('A' for Active; 'I' for Inactive)
DOCKED: REMARK    1  A    between atoms: C_6  and  C_10 
DOCKED: REMARK    2  A    between atoms: C_10  and  C_11 
DOCKED: REMARK    3  A    between atoms: C_11  and  C_12 
DOCKED: REMARK    4  A    between atoms: C_12  and  O_14 
DOCKED: REMARK    5  A    between atoms: C_17  and  C_20 
DOCKED: REMARK    6  A    between atoms: C_24  and  C_27 
DOCKED: REMARK    7  A    between atoms: C_31  and  C_34 
DOCKED: REMARK    8  A    between atoms: C_34  and  C_35 
DOCKED: REMARK    9  A    between atoms: C_35  and  C_36 
DOCKED: REMARK   10  A    between atoms: C_36  and  O_38 
DOCKED: USER                              x       y       z     vdW  Elec       q    Type
DOCKED: USER                           _______ _______ _______ _____ _____    ______ ____
DOCKED: ROOT
DOCKED: ATOM      1  C   UNL d   1      11.026  36.775  -2.277 -0.40 +0.00    +0.064 C 
DOCKED: ATOM      2  C   UNL d   1      12.478  33.941   1.504 -0.27 +0.01    +0.064 A 
DOCKED: ATOM      3  C   UNL d   1       7.911  32.610   2.170 -0.47 +0.00    +0.064 C 
DOCKED: ATOM      4  C   UNL d   1       6.471  35.428  -1.418 -0.29 +0.01    +0.064 C 
DOCKED: ATOM      5  C   UNL d   1      11.847  36.165  -1.222 -0.35 +0.01    +0.066 A 
DOCKED: ATOM      6  C   UNL d   1      13.197  36.411  -1.029 -0.39 -0.00    -0.021 A 
DOCKED: ATOM      7  C   UNL d   1      13.600  35.620   0.019 -0.38 -0.00    -0.025 A 
DOCKED: ATOM      8  C   UNL d   1      12.479  34.923   0.426 -0.33 +0.01    +0.066 A 
DOCKED: ATOM      9  C   UNL d   1      14.979  35.561   0.600 -0.47 +0.00    +0.051 C 
DOCKED: ATOM     10  C   UNL d   1      11.400  33.297   1.954 -0.35 +0.00    +0.066 A 
DOCKED: ATOM     11  C   UNL d   1      11.448  32.279   2.909 -0.41 -0.00    -0.021 A 
DOCKED: ATOM     12  C   UNL d   1      10.146  31.866   3.107 -0.47 +0.00    +0.000 A 
DOCKED: ATOM     13  C   UNL d   1       9.363  32.656   2.247 -0.39 +0.00    +0.070 A 
DOCKED: ATOM     14  C   UNL d   1      12.683  31.680   3.553 -0.52 +0.00    +0.052 C 
DOCKED: ATOM     15  C   UNL d   1       7.157  33.332   1.307 -0.35 +0.01    +0.066 A 
DOCKED: ATOM     16  C   UNL d   1       5.768  33.334   1.332 -0.35 -0.00    -0.021 A 
DOCKED: ATOM     17  C   UNL d   1       5.351  34.143   0.296 -0.31 +0.00    +0.000 A 
DOCKED: ATOM     18  C   UNL d   1       6.497  34.613  -0.341 -0.30 +0.01    +0.070 A 
DOCKED: ATOM     19  C   UNL d   1       4.866  32.586   2.276 -0.39 +0.00    +0.052 C 
DOCKED: ATOM     20  C   UNL d   1       7.656  35.991  -2.077 -0.24 +0.01    +0.066 A 
DOCKED: ATOM     21  C   UNL d   1       7.655  36.669  -3.304 -0.30 -0.00    -0.025 A 
DOCKED: ATOM     22  C   UNL d   1       8.961  37.055  -3.523 -0.34 -0.00    -0.021 A 
DOCKED: ATOM     23  C   UNL d   1       9.705  36.595  -2.430 -0.37 +0.01    +0.066 A 
DOCKED: ATOM     24  C   UNL d   1       6.493  36.940  -4.231 -0.24 +0.01    +0.051 C 
DOCKED: ATOM     25  N   UNL d   1      11.413  35.263  -0.324 +0.01 -0.05    -0.248 N 
DOCKED: ATOM     26  N   UNL d   1      10.128  33.522   1.537 -0.22 -0.03    -0.248 N 
DOCKED: ATOM     27  N   UNL d   1       7.608  34.150   0.306 -0.15 -0.04    -0.248 N 
DOCKED: ATOM     28  N   UNL d   1       8.911  35.908  -1.573 -0.19 -0.06    -0.248 N 
DOCKED: ATOM     29 FE   UNL d   1       9.517  34.715  -0.018 -0.08 +0.00    +0.000 Fe
DOCKED: ENDROOT
DOCKED: BRANCH   6  30
DOCKED: ATOM     30  C   UNL d   1      14.057  37.363  -1.787 -0.41 +0.00    +0.052 C 
DOCKED: BRANCH  30  31
DOCKED: ATOM     31  C   UNL d   1      15.018  36.612  -2.702 -0.43 +0.01    +0.115 C 
DOCKED: BRANCH  31  32
DOCKED: ATOM     32  C   UNL d   1      16.443  36.882  -2.306 -0.47 +0.02    +0.139 C 
DOCKED: ATOM     33  O   UNL d   1      17.032  36.128  -1.545 +0.04 -0.14    -0.650 OA
DOCKED: BRANCH  32  34
DOCKED: ATOM     34  O   UNL d   1      17.083  37.961  -2.787 +0.37 -0.16    -0.776 OA
DOCKED: ATOM     35  H   UNL d   1      16.630  38.816  -2.786 -0.26 +0.02    +0.167 HD
DOCKED: ENDBRANCH  32  34
DOCKED: ENDBRANCH  31  32
DOCKED: ENDBRANCH  30  31
DOCKED: ENDBRANCH   6  30
DOCKED: BRANCH  22  36
DOCKED: ATOM     36  C   UNL d   1       9.471  37.782  -4.740 -0.34 -0.00    +0.052 C 
DOCKED: BRANCH  36  37
DOCKED: ATOM     37  C   UNL d   1       9.578  39.270  -4.441 -0.17 -0.02    +0.115 C 
DOCKED: BRANCH  37  38
DOCKED: ATOM     38  C   UNL d   1       8.430  40.025  -5.048 -0.25 -0.02    +0.139 C 
DOCKED: ATOM     39  O   UNL d   1       7.294  39.887  -4.619 +0.03 -0.01    -0.650 OA
DOCKED: BRANCH  38  40
DOCKED: ATOM     40  O   UNL d   1       8.647  40.861  -6.079 +0.12 +0.25    -0.776 OA
DOCKED: ATOM     41  H   UNL d   1       9.546  41.174  -6.249 -0.39 -0.13    +0.167 HD
DOCKED: ENDBRANCH  38  40
DOCKED: ENDBRANCH  37  38
DOCKED: ENDBRANCH  36  37
DOCKED: ENDBRANCH  22  36
DOCKED: BRANCH  12  42
DOCKED: ATOM     42  C   UNL d   1       9.724  30.780   4.044 -0.65 +0.00    +0.004 C 
DOCKED: ATOM     43  C   UNL d   1       8.882  31.030   5.056 -0.60 -0.00    +0.012 C 
DOCKED: ENDBRANCH  12  42
DOCKED: BRANCH  17  44
DOCKED: ATOM     44  C   UNL d   1       3.947  34.462  -0.050 -0.27 +0.00    +0.004 C 
DOCKED: ATOM     45  C   UNL d   1       3.374  33.940  -1.139 -0.19 +0.00    +0.012 C 
DOCKED: ENDBRANCH  17  44
DOCKED: TORSDOF 10
DOCKED: TER
DOCKED: ENDMDL
________________________________________________________________________________


	BEGINNING GENETIC ALGORITHM DOCKING 69 of 100
Run: 69 Seed: 1340325560 2017290105 [ Run 69 of 100 GA/GALS ]
Beginning LAMARCKIAN GENETIC ALGORITHM (LGA), with a maximum of 25000000 energy evaluations.

Final-Value: -15.280


	FINAL GENETIC ALGORITHM DOCKED STATE
	_______________________________________________


Detailed state:  trans 41.143 29.216 16.812 quatxyzw -0.081519 -0.929224 -0.043852 0.357734 center -0.174 -0.001 -0.047 ntor 10 -43.6468 -129.7207 78.5329 -156.6830 4.8994 -106.8644 -68.2132 -5.8406 -146.7139 -179.8996
State:	 41.143  29.216  16.812  -0.087 -0.995 -0.047 138.078    -43.65 -129.72   78.53 -156.68    4.90 -106.86  -68.21   -5.84 -146.71 -179.90

DOCKED: MODEL       69
DOCKED: USER    Run = 69
DOCKED: USER    DPF = D:/Protein_go_brrr/autodock/final/2DN3/heme_Fe/dock.dpf
DOCKED: USER  
DOCKED: USER    Estimated Free Energy of Binding    =  -10.65 kcal/mol  [=(1)+(2)+(3)-(4)]
DOCKED: USER    Estimated Inhibition Constant, Ki   =   15.50 nM (nanomolar)  [Temperature = 298.15 K]
DOCKED: USER    
DOCKED: USER    (1) Final Intermolecular Energy     =  -13.64 kcal/mol
DOCKED: USER        vdW + Hbond + desolv Energy     =  -12.54 kcal/mol
DOCKED: USER        Electrostatic Energy            =   -1.10 kcal/mol
DOCKED: USER    (2) Final Total Internal Energy     =   -1.64 kcal/mol
DOCKED: USER    (3) Torsional Free Energy           =   +2.98 kcal/mol
DOCKED: USER    (4) Unbound System's Energy  [=(2)] =   -1.64 kcal/mol
DOCKED: USER    
DOCKED: USER    
DOCKED: USER    NEWDPF move heme_Fe_opt.pdbqt
DOCKED: USER    NEWDPF about -0.174000 -0.001000 -0.047000
DOCKED: USER    NEWDPF tran0 41.142552 29.215962 16.811912
DOCKED: USER    NEWDPF quaternion0 -0.081519 -0.929224 -0.043852 0.357734
DOCKED: USER    NEWDPF axisangle0 -0.087296 -0.995075 -0.046960 138.077751
DOCKED: USER    NEWDPF quat0 -0.087296 -0.995075 -0.046960 138.077751
DOCKED: USER    NEWDPF dihe0 -43.65 -129.72 78.53 -156.68 4.90 -106.86 -68.21 -5.84 -146.71 -179.90 
DOCKED: USER  keepresnum = 1 
DOCKED: USER  
DOCKED: REMARK  10 active torsions:
DOCKED: REMARK  status: ('A' for Active; 'I' for Inactive)
DOCKED: REMARK    1  A    between atoms: C_6  and  C_10 
DOCKED: REMARK    2  A    between atoms: C_10  and  C_11 
DOCKED: REMARK    3  A    between atoms: C_11  and  C_12 
DOCKED: REMARK    4  A    between atoms: C_12  and  O_14 
DOCKED: REMARK    5  A    between atoms: C_17  and  C_20 
DOCKED: REMARK    6  A    between atoms: C_24  and  C_27 
DOCKED: REMARK    7  A    between atoms: C_31  and  C_34 
DOCKED: REMARK    8  A    between atoms: C_34  and  C_35 
DOCKED: REMARK    9  A    between atoms: C_35  and  C_36 
DOCKED: REMARK   10  A    between atoms: C_36  and  O_38 
DOCKED: USER                              x       y       z     vdW  Elec       q    Type
DOCKED: USER                           _______ _______ _______ _____ _____    ______ ____
DOCKED: ROOT
DOCKED: ATOM      1  C   UNL d   1      42.941  28.808  17.713 -0.13 +0.02    +0.064 C 
DOCKED: ATOM      2  C   UNL d   1      39.742  26.203  14.990 -0.37 +0.01    +0.064 A 
DOCKED: ATOM      3  C   UNL d   1      37.626  30.309  13.674 -0.38 +0.01    +0.064 C 
DOCKED: ATOM      4  C   UNL d   1      40.645  32.841  16.386 -0.48 +0.01    +0.064 C 
DOCKED: ATOM      5  C   UNL d   1      42.185  27.689  17.135 -0.06 +0.02    +0.066 A 
DOCKED: ATOM      6  C   UNL d   1      42.437  26.350  17.387 -0.32 -0.01    -0.021 A 
DOCKED: ATOM      7  C   UNL d   1      41.551  25.627  16.627 -0.36 -0.01    -0.025 A 
DOCKED: ATOM      8  C   UNL d   1      40.790  26.554  15.940 -0.37 +0.02    +0.066 A 
DOCKED: ATOM      9  C   UNL d   1      41.436  24.134  16.586 -0.49 +0.01    +0.051 C 
DOCKED: ATOM     10  C   UNL d   1      38.956  27.076  14.357 -0.36 +0.01    +0.066 A 
DOCKED: ATOM     11  C   UNL d   1      38.038  26.717  13.367 -0.43 -0.00    -0.021 A 
DOCKED: ATOM     12  C   UNL d   1      37.427  27.885  12.959 -0.48 +0.00    +0.000 A 
DOCKED: ATOM     13  C   UNL d   1      38.014  28.908  13.723 -0.35 +0.01    +0.070 A 
DOCKED: ATOM     14  C   UNL d   1      37.804  25.336  12.789 -0.44 +0.01    +0.052 C 
DOCKED: ATOM     15  C   UNL d   1      38.223  31.305  14.369 -0.34 +0.01    +0.066 A 
DOCKED: ATOM     16  C   UNL d   1      37.759  32.614  14.370 -0.34 -0.00    -0.021 A 
DOCKED: ATOM     17  C   UNL d   1      38.630  33.347  15.149 -0.43 +0.00    +0.000 A 
DOCKED: ATOM     18  C   UNL d   1      39.610  32.467  15.602 -0.39 +0.01    +0.070 A 
DOCKED: ATOM     19  C   UNL d   1      36.557  33.163  13.648 -0.34 +0.00    +0.052 C 
DOCKED: ATOM     20  C   UNL d   1      41.660  31.933  16.932 -0.38 +0.01    +0.066 A 
DOCKED: ATOM     21  C   UNL d   1      42.841  32.330  17.574 -0.31 -0.01    -0.025 A 
DOCKED: ATOM     22  C   UNL d   1      43.474  31.165  17.955 -0.34 -0.01    -0.021 A 
DOCKED: ATOM     23  C   UNL d   1      42.661  30.108  17.527 -0.29 +0.02    +0.066 A 
DOCKED: ATOM     24  C   UNL d   1      43.359  33.729  17.817 -0.31 +0.01    +0.051 C 
DOCKED: ATOM     25  N   UNL d   1      41.172  27.807  16.258 -0.21 -0.09    -0.248 N 
DOCKED: ATOM     26  N   UNL d   1      38.953  28.417  14.569 -0.03 -0.07    -0.248 N 
DOCKED: ATOM     27  N   UNL d   1      39.337  31.203  15.159 -0.21 -0.05    -0.248 N 
DOCKED: ATOM     28  N   UNL d   1      41.578  30.582  16.864 -0.19 -0.07    -0.248 N 
DOCKED: ATOM     29 FE   UNL d   1      40.266  29.501  15.717 -0.08 +0.00    +0.000 Fe
DOCKED: ENDROOT
DOCKED: BRANCH   6  30
DOCKED: ATOM     30  C   UNL d   1      43.454  25.784  18.318 -0.31 +0.02    +0.052 C 
DOCKED: BRANCH  30  31
DOCKED: ATOM     31  C   UNL d   1      44.852  26.272  17.953 -0.22 +0.06    +0.115 C 
DOCKED: BRANCH  31  32
DOCKED: ATOM     32  C   UNL d   1      45.382  27.193  19.016 -0.16 +0.08    +0.139 C 
DOCKED: ATOM     33  O   UNL d   1      44.749  27.388  20.044 +0.07 -0.50    -0.650 OA
DOCKED: BRANCH  32  34
DOCKED: ATOM     34  O   UNL d   1      46.561  27.813  18.844 +0.06 -0.43    -0.776 OA
DOCKED: ATOM     35  H   UNL d   1      46.638  28.749  19.077 +0.04 +0.09    +0.167 HD
DOCKED: ENDBRANCH  32  34
DOCKED: ENDBRANCH  31  32
DOCKED: ENDBRANCH  30  31
DOCKED: ENDBRANCH   6  30
DOCKED: BRANCH  22  36
DOCKED: ATOM     36  C   UNL d   1      44.808  31.074  18.647 -0.28 +0.02    +0.052 C 
DOCKED: BRANCH  36  37
DOCKED: ATOM     37  C   UNL d   1      45.927  31.165  17.620 -0.08 +0.04    +0.115 C 
DOCKED: BRANCH  37  38
DOCKED: ATOM     38  C   UNL d   1      47.269  31.240  18.290 -0.13 +0.05    +0.139 C 
DOCKED: ATOM     39  O   UNL d   1      47.899  32.287  18.313 +0.03 -0.17    -0.650 OA
DOCKED: BRANCH  38  40
DOCKED: ATOM     40  O   UNL d   1      47.792  30.145  18.871 +0.05 -0.33    -0.776 OA
DOCKED: ATOM     41  H   UNL d   1      47.824  29.318  18.370 +0.04 +0.07    +0.167 HD
DOCKED: ENDBRANCH  38  40
DOCKED: ENDBRANCH  37  38
DOCKED: ENDBRANCH  36  37
DOCKED: ENDBRANCH  22  36
DOCKED: BRANCH  12  42
DOCKED: ATOM     42  C   UNL d   1      36.375  27.976  11.899 -0.65 +0.00    +0.004 C 
DOCKED: ATOM     43  C   UNL d   1      35.201  28.573  12.143 -0.60 +0.00    +0.012 C 
DOCKED: ENDBRANCH  12  42
DOCKED: BRANCH  17  44
DOCKED: ATOM     44  C   UNL d   1      38.520  34.791  15.457 -0.58 +0.00    +0.004 C 
DOCKED: ATOM     45  C   UNL d   1      39.293  35.685  14.832 -0.61 +0.00    +0.012 C 
DOCKED: ENDBRANCH  17  44
DOCKED: TORSDOF 10
DOCKED: TER
DOCKED: ENDMDL
________________________________________________________________________________


	BEGINNING GENETIC ALGORITHM DOCKING 70 of 100
Run: 70 Seed: 1762761843 876056737 [ Run 70 of 100 GA/GALS ]
Beginning LAMARCKIAN GENETIC ALGORITHM (LGA), with a maximum of 25000000 energy evaluations.

Final-Value: -11.380


	FINAL GENETIC ALGORITHM DOCKED STATE
	_______________________________________________


Detailed state:  trans 25.845 46.152 -1.610 quatxyzw 0.150618 0.361651 -0.904606 0.167963 center -0.174 -0.001 -0.047 ntor 10 -79.8478 -9.2375 70.2927 -123.2709 173.0511 91.2222 44.3126 -82.6661 14.6449 -5.6170
State:	 25.845  46.152  -1.610   0.153  0.367 -0.918 160.661    -79.85   -9.24   70.29 -123.27  173.05   91.22   44.31  -82.67   14.64   -5.62

DOCKED: MODEL       70
DOCKED: USER    Run = 70
DOCKED: USER    DPF = D:/Protein_go_brrr/autodock/final/2DN3/heme_Fe/dock.dpf
DOCKED: USER  
DOCKED: USER    Estimated Free Energy of Binding    =   -6.20 kcal/mol  [=(1)+(2)+(3)-(4)]
DOCKED: USER    Estimated Inhibition Constant, Ki   =   28.39 uM (micromolar)  [Temperature = 298.15 K]
DOCKED: USER    
DOCKED: USER    (1) Final Intermolecular Energy     =   -9.19 kcal/mol
DOCKED: USER        vdW + Hbond + desolv Energy     =   -7.41 kcal/mol
DOCKED: USER        Electrostatic Energy            =   -1.77 kcal/mol
DOCKED: USER    (2) Final Total Internal Energy     =   -2.19 kcal/mol
DOCKED: USER    (3) Torsional Free Energy           =   +2.98 kcal/mol
DOCKED: USER    (4) Unbound System's Energy  [=(2)] =   -2.19 kcal/mol
DOCKED: USER    
DOCKED: USER    
DOCKED: USER    NEWDPF move heme_Fe_opt.pdbqt
DOCKED: USER    NEWDPF about -0.174000 -0.001000 -0.047000
DOCKED: USER    NEWDPF tran0 25.845234 46.151833 -1.609657
DOCKED: USER    NEWDPF quaternion0 0.150618 0.361651 -0.904606 0.167963
DOCKED: USER    NEWDPF axisangle0 0.152789 0.366863 -0.917642 160.661210
DOCKED: USER    NEWDPF quat0 0.152789 0.366863 -0.917642 160.661210
DOCKED: USER    NEWDPF dihe0 -79.85 -9.24 70.29 -123.27 173.05 91.22 44.31 -82.67 14.64 -5.62 
DOCKED: USER  keepresnum = 1 
DOCKED: USER  
DOCKED: REMARK  10 active torsions:
DOCKED: REMARK  status: ('A' for Active; 'I' for Inactive)
DOCKED: REMARK    1  A    between atoms: C_6  and  C_10 
DOCKED: REMARK    2  A    between atoms: C_10  and  C_11 
DOCKED: REMARK    3  A    between atoms: C_11  and  C_12 
DOCKED: REMARK    4  A    between atoms: C_12  and  O_14 
DOCKED: REMARK    5  A    between atoms: C_17  and  C_20 
DOCKED: REMARK    6  A    between atoms: C_24  and  C_27 
DOCKED: REMARK    7  A    between atoms: C_31  and  C_34 
DOCKED: REMARK    8  A    between atoms: C_34  and  C_35 
DOCKED: REMARK    9  A    between atoms: C_35  and  C_36 
DOCKED: REMARK   10  A    between atoms: C_36  and  O_38 
DOCKED: USER                              x       y       z     vdW  Elec       q    Type
DOCKED: USER                           _______ _______ _______ _____ _____    ______ ____
DOCKED: ROOT
DOCKED: ATOM      1  C   UNL d   1      27.426  45.053  -0.900 -0.15 +0.02    +0.064 C 
DOCKED: ATOM      2  C   UNL d   1      24.871  48.945   0.758 -0.08 +0.01    +0.064 A 
DOCKED: ATOM      3  C   UNL d   1      21.468  48.011  -2.500 -0.24 -0.00    +0.064 C 
DOCKED: ATOM      4  C   UNL d   1      23.974  44.303  -4.190 -0.26 +0.01    +0.064 C 
DOCKED: ATOM      5  C   UNL d   1      27.062  46.285  -0.187 -0.11 +0.03    +0.066 A 
DOCKED: ATOM      6  C   UNL d   1      27.859  46.921   0.751 -0.12 -0.01    -0.021 A 
DOCKED: ATOM      7  C   UNL d   1      27.147  48.000   1.213 -0.11 -0.01    -0.025 A 
DOCKED: ATOM      8  C   UNL d   1      25.942  47.981   0.539 -0.10 +0.02    +0.066 A 
DOCKED: ATOM      9  C   UNL d   1      27.615  48.996   2.230 -0.14 +0.01    +0.051 C 
DOCKED: ATOM     10  C   UNL d   1      23.722  48.984   0.080 -0.10 +0.01    +0.066 A 
DOCKED: ATOM     11  C   UNL d   1      22.669  49.848   0.390 -0.14 -0.00    -0.021 A 
DOCKED: ATOM     12  C   UNL d   1      21.668  49.587  -0.525 -0.21 -0.00    +0.000 A 
DOCKED: ATOM     13  C   UNL d   1      22.165  48.561  -1.348 -0.17 +0.00    +0.070 A 
DOCKED: ATOM     14  C   UNL d   1      22.592  50.827   1.544 -0.16 -0.00    +0.052 C 
DOCKED: ATOM     15  C   UNL d   1      21.919  46.989  -3.264 -0.22 -0.00    +0.066 A 
DOCKED: ATOM     16  C   UNL d   1      21.271  46.559  -4.415 -0.27 +0.00    -0.021 A 
DOCKED: ATOM     17  C   UNL d   1      21.991  45.487  -4.902 -0.29 +0.00    +0.000 A 
DOCKED: ATOM     18  C   UNL d   1      23.060  45.285  -4.033 -0.23 +0.01    +0.070 A 
DOCKED: ATOM     19  C   UNL d   1      20.011  47.115  -5.022 -0.26 -0.00    +0.052 C 
DOCKED: ATOM     20  C   UNL d   1      25.147  44.099  -3.330 -0.29 +0.01    +0.066 A 
DOCKED: ATOM     21  C   UNL d   1      25.986  42.976  -3.358 -0.26 -0.01    -0.025 A 
DOCKED: ATOM     22  C   UNL d   1      26.970  43.217  -2.422 -0.20 -0.00    -0.021 A 
DOCKED: ATOM     23  C   UNL d   1      26.690  44.467  -1.858 -0.17 +0.02    +0.066 A 
DOCKED: ATOM     24  C   UNL d   1      25.873  41.736  -4.214 -0.25 +0.01    +0.051 C 
DOCKED: ATOM     25  N   UNL d   1      25.897  46.942  -0.319 -0.04 -0.08    -0.248 N 
DOCKED: ATOM     26  N   UNL d   1      23.413  48.187  -0.974 -0.08 -0.03    -0.248 N 
DOCKED: ATOM     27  N   UNL d   1      23.042  46.235  -3.050 -0.06 -0.02    -0.248 N 
DOCKED: ATOM     28  N   UNL d   1      25.552  44.980  -2.384 -0.14 -0.06    -0.248 N 
DOCKED: ATOM     29 FE   UNL d   1      24.482  46.583  -1.681 -0.05 +0.00    +0.000 Fe
DOCKED: ENDROOT
DOCKED: BRANCH   6  30
DOCKED: ATOM     30  C   UNL d   1      29.237  46.537   1.172 +0.02 +0.03    +0.052 C 
DOCKED: BRANCH  30  31
DOCKED: ATOM     31  C   UNL d   1      30.271  47.467   0.547 -0.16 +0.05    +0.115 C 
DOCKED: BRANCH  31  32
DOCKED: ATOM     32  C   UNL d   1      31.435  46.677   0.016 -0.17 +0.12    +0.139 C 
DOCKED: ATOM     33  O   UNL d   1      32.313  47.223  -0.638 -0.21 -0.61    -0.650 OA
DOCKED: BRANCH  32  34
DOCKED: ATOM     34  O   UNL d   1      31.520  45.357   0.255 -0.52 -1.03    -0.776 OA
DOCKED: ATOM     35  H   UNL d   1      31.253  44.736  -0.437 +0.03 +0.15    +0.167 HD
DOCKED: ENDBRANCH  32  34
DOCKED: ENDBRANCH  31  32
DOCKED: ENDBRANCH  30  31
DOCKED: ENDBRANCH   6  30
DOCKED: BRANCH  22  36
DOCKED: ATOM     36  C   UNL d   1      28.086  42.274  -2.057 -0.15 +0.01    +0.052 C 
DOCKED: BRANCH  36  37
DOCKED: ATOM     37  C   UNL d   1      29.304  42.562  -2.922 -0.04 +0.03    +0.115 C 
DOCKED: BRANCH  37  38
DOCKED: ATOM     38  C   UNL d   1      30.274  43.458  -2.206 -0.02 +0.05    +0.139 C 
DOCKED: ATOM     39  O   UNL d   1      31.174  42.989  -1.525 +0.03 -0.30    -0.650 OA
DOCKED: BRANCH  38  40
DOCKED: ATOM     40  O   UNL d   1      30.155  44.794  -2.309 +0.04 -0.27    -0.776 OA
DOCKED: ATOM     41  H   UNL d   1      30.693  45.359  -1.738 +0.02 +0.08    +0.167 HD
DOCKED: ENDBRANCH  38  40
DOCKED: ENDBRANCH  37  38
DOCKED: ENDBRANCH  36  37
DOCKED: ENDBRANCH  22  36
DOCKED: BRANCH  12  42
DOCKED: ATOM     42  C   UNL d   1      20.342  50.276  -0.563 -0.35 -0.00    +0.004 C 
DOCKED: ATOM     43  C   UNL d   1      19.970  50.997  -1.628 -0.29 -0.00    +0.012 C 
DOCKED: ENDBRANCH  12  42
DOCKED: BRANCH  17  44
DOCKED: ATOM     44  C   UNL d   1      21.686  44.719  -6.131 -0.30 +0.00    +0.004 C 
DOCKED: ATOM     45  C   UNL d   1      20.611  43.926  -6.194 -0.43 +0.00    +0.012 C 
DOCKED: ENDBRANCH  17  44
DOCKED: TORSDOF 10
DOCKED: TER
DOCKED: ENDMDL
________________________________________________________________________________


	BEGINNING GENETIC ALGORITHM DOCKING 71 of 100
Run: 71 Seed: 614669130 2049952461 [ Run 71 of 100 GA/GALS ]
Beginning LAMARCKIAN GENETIC ALGORITHM (LGA), with a maximum of 25000000 energy evaluations.

Final-Value: -15.114


	FINAL GENETIC ALGORITHM DOCKED STATE
	_______________________________________________


Detailed state:  trans 8.634 35.020 -1.073 quatxyzw 0.408682 0.195211 0.282185 0.845721 center -0.174 -0.001 -0.047 ntor 10 88.3481 -97.7245 73.3691 -154.3588 -65.9144 57.4065 -27.6188 -53.5826 -180.0000 -164.9253
State:	  8.634  35.020  -1.073   0.766  0.366  0.529 64.501     88.35  -97.72   73.37 -154.36  -65.91   57.41  -27.62  -53.58 -180.00 -164.93

DOCKED: MODEL       71
DOCKED: USER    Run = 71
DOCKED: USER    DPF = D:/Protein_go_brrr/autodock/final/2DN3/heme_Fe/dock.dpf
DOCKED: USER  
DOCKED: USER    Estimated Free Energy of Binding    =  -11.53 kcal/mol  [=(1)+(2)+(3)-(4)]
DOCKED: USER    Estimated Inhibition Constant, Ki   =    3.54 nM (nanomolar)  [Temperature = 298.15 K]
DOCKED: USER    
DOCKED: USER    (1) Final Intermolecular Energy     =  -14.51 kcal/mol
DOCKED: USER        vdW + Hbond + desolv Energy     =  -13.29 kcal/mol
DOCKED: USER        Electrostatic Energy            =   -1.22 kcal/mol
DOCKED: USER    (2) Final Total Internal Energy     =   -0.60 kcal/mol
DOCKED: USER    (3) Torsional Free Energy           =   +2.98 kcal/mol
DOCKED: USER    (4) Unbound System's Energy  [=(2)] =   -0.60 kcal/mol
DOCKED: USER    
DOCKED: USER    
DOCKED: USER    NEWDPF move heme_Fe_opt.pdbqt
DOCKED: USER    NEWDPF about -0.174000 -0.001000 -0.047000
DOCKED: USER    NEWDPF tran0 8.633550 35.019641 -1.072697
DOCKED: USER    NEWDPF quaternion0 0.408682 0.195211 0.282185 0.845721
DOCKED: USER    NEWDPF axisangle0 0.765859 0.365820 0.528807 64.501491
DOCKED: USER    NEWDPF quat0 0.765859 0.365820 0.528807 64.501491
DOCKED: USER    NEWDPF dihe0 88.35 -97.72 73.37 -154.36 -65.91 57.41 -27.62 -53.58 -180.00 -164.93 
DOCKED: USER  keepresnum = 1 
DOCKED: USER  
DOCKED: REMARK  10 active torsions:
DOCKED: REMARK  status: ('A' for Active; 'I' for Inactive)
DOCKED: REMARK    1  A    between atoms: C_6  and  C_10 
DOCKED: REMARK    2  A    between atoms: C_10  and  C_11 
DOCKED: REMARK    3  A    between atoms: C_11  and  C_12 
DOCKED: REMARK    4  A    between atoms: C_12  and  O_14 
DOCKED: REMARK    5  A    between atoms: C_17  and  C_20 
DOCKED: REMARK    6  A    between atoms: C_24  and  C_27 
DOCKED: REMARK    7  A    between atoms: C_31  and  C_34 
DOCKED: REMARK    8  A    between atoms: C_34  and  C_35 
DOCKED: REMARK    9  A    between atoms: C_35  and  C_36 
DOCKED: REMARK   10  A    between atoms: C_36  and  O_38 
DOCKED: USER                              x       y       z     vdW  Elec       q    Type
DOCKED: USER                           _______ _______ _______ _____ _____    ______ ____
DOCKED: ROOT
DOCKED: ATOM      1  C   UNL d   1       7.028  36.046  -1.836 +0.13 +0.01    +0.064 C 
DOCKED: ATOM      2  C   UNL d   1       7.722  33.045   2.030 -0.40 +0.01    +0.064 A 
DOCKED: ATOM      3  C   UNL d   1      12.466  33.580   1.506 -0.39 +0.00    +0.064 C 
DOCKED: ATOM      4  C   UNL d   1      11.820  36.402  -2.303 -0.45 +0.00    +0.064 C 
DOCKED: ATOM      5  C   UNL d   1       6.786  35.085  -0.751 -0.25 +0.01    +0.066 A 
DOCKED: ATOM      6  C   UNL d   1       5.539  34.602  -0.386 -0.29 -0.00    -0.021 A 
DOCKED: ATOM      7  C   UNL d   1       5.733  33.772   0.690 -0.30 -0.00    -0.025 A 
DOCKED: ATOM      8  C   UNL d   1       7.091  33.779   0.941 -0.34 +0.01    +0.066 A 
DOCKED: ATOM      9  C   UNL d   1       4.670  33.005   1.415 -0.21 +0.01    +0.051 C 
DOCKED: ATOM     10  C   UNL d   1       9.035  32.989   2.259 -0.37 +0.01    +0.066 A 
DOCKED: ATOM     11  C   UNL d   1       9.601  32.372   3.377 -0.42 -0.00    -0.021 A 
DOCKED: ATOM     12  C   UNL d   1      10.968  32.527   3.258 -0.43 +0.00    +0.000 A 
DOCKED: ATOM     13  C   UNL d   1      11.167  33.245   2.066 -0.35 +0.01    +0.070 A 
DOCKED: ATOM     14  C   UNL d   1       8.873  31.726   4.538 -0.55 +0.00    +0.052 C 
DOCKED: ATOM     15  C   UNL d   1      12.662  34.315   0.386 -0.34 +0.01    +0.066 A 
DOCKED: ATOM     16  C   UNL d   1      13.916  34.529  -0.172 -0.44 -0.00    -0.021 A 
DOCKED: ATOM     17  C   UNL d   1      13.732  35.345  -1.268 -0.44 +0.00    +0.000 A 
DOCKED: ATOM     18  C   UNL d   1      12.368  35.615  -1.351 -0.35 +0.01    +0.070 A 
DOCKED: ATOM     19  C   UNL d   1      15.240  34.008   0.319 -0.60 +0.00    +0.052 C 
DOCKED: ATOM     20  C   UNL d   1      10.383  36.658  -2.458 -0.38 +0.01    +0.066 A 
DOCKED: ATOM     21  C   UNL d   1       9.819  37.621  -3.306 -0.37 -0.00    -0.025 A 
DOCKED: ATOM     22  C   UNL d   1       8.452  37.494  -3.167 -0.33 -0.00    -0.021 A 
DOCKED: ATOM     23  C   UNL d   1       8.237  36.467  -2.239 -0.11 +0.01    +0.066 A 
DOCKED: ATOM     24  C   UNL d   1      10.520  38.617  -4.201 -0.37 -0.01    +0.051 C 
DOCKED: ATOM     25  N   UNL d   1       7.730  34.572   0.057 -0.18 -0.05    -0.248 N 
DOCKED: ATOM     26  N   UNL d   1       9.989  33.535   1.462 -0.22 -0.03    -0.248 N 
DOCKED: ATOM     27  N   UNL d   1      11.704  34.947  -0.361 -0.10 -0.04    -0.248 N 
DOCKED: ATOM     28  N   UNL d   1       9.419  35.992  -1.776 -0.21 -0.05    -0.248 N 
DOCKED: ATOM     29 FE   UNL d   1       9.705  34.765  -0.159 -0.08 +0.00    +0.000 Fe
DOCKED: ENDROOT
DOCKED: BRANCH   6  30
DOCKED: ATOM     30  C   UNL d   1       4.232  34.896  -1.039 -0.23 +0.01    +0.052 C 
DOCKED: BRANCH  30  31
DOCKED: ATOM     31  C   UNL d   1       3.569  36.110  -0.397 -0.15 +0.07    +0.115 C 
DOCKED: BRANCH  31  32
DOCKED: ATOM     32  C   UNL d   1       2.676  36.806  -1.387 -0.17 +0.12    +0.139 C 
DOCKED: ATOM     33  O   UNL d   1       3.147  37.355  -2.373 -0.01 -0.42    -0.650 OA
DOCKED: BRANCH  32  34
DOCKED: ATOM     34  O   UNL d   1       1.346  36.831  -1.195 -0.37 -1.09    -0.776 OA
DOCKED: ATOM     35  H   UNL d   1       0.802  36.133  -1.585 +0.02 +0.14    +0.167 HD
DOCKED: ENDBRANCH  32  34
DOCKED: ENDBRANCH  31  32
DOCKED: ENDBRANCH  30  31
DOCKED: ENDBRANCH   6  30
DOCKED: BRANCH  22  36
DOCKED: ATOM     36  C   UNL d   1       7.415  38.345  -3.850 -0.29 +0.00    +0.052 C 
DOCKED: BRANCH  36  37
DOCKED: ATOM     37  C   UNL d   1       7.479  39.766  -3.310 -0.32 +0.00    +0.115 C 
DOCKED: BRANCH  37  38
DOCKED: ATOM     38  C   UNL d   1       7.649  40.759  -4.425 -0.33 -0.00    +0.139 C 
DOCKED: ATOM     39  O   UNL d   1       6.841  40.817  -5.339 +0.05 -0.02    -0.650 OA
DOCKED: BRANCH  38  40
DOCKED: ATOM     40  O   UNL d   1       8.703  41.594  -4.424 +0.01 +0.14    -0.776 OA
DOCKED: ATOM     41  H   UNL d   1       9.555  41.277  -4.756 -0.46 -0.10    +0.167 HD
DOCKED: ENDBRANCH  38  40
DOCKED: ENDBRANCH  37  38
DOCKED: ENDBRANCH  36  37
DOCKED: ENDBRANCH  22  36
DOCKED: BRANCH  12  42
DOCKED: ATOM     42  C   UNL d   1      11.975  32.026   4.244 -0.43 +0.00    +0.004 C 
DOCKED: ATOM     43  C   UNL d   1      12.933  31.166   3.875 -0.64 +0.00    +0.012 C 
DOCKED: ENDBRANCH  12  42
DOCKED: BRANCH  17  44
DOCKED: ATOM     44  C   UNL d   1      14.790  35.820  -2.189 -0.20 +0.00    +0.004 C 
DOCKED: ATOM     45  C   UNL d   1      15.294  37.053  -2.076 -0.65 +0.00    +0.012 C 
DOCKED: ENDBRANCH  17  44
DOCKED: TORSDOF 10
DOCKED: TER
DOCKED: ENDMDL
________________________________________________________________________________


	BEGINNING GENETIC ALGORITHM DOCKING 72 of 100
Run: 72 Seed: 1437946687 1738405766 [ Run 72 of 100 GA/GALS ]
Beginning LAMARCKIAN GENETIC ALGORITHM (LGA), with a maximum of 25000000 energy evaluations.

Final-Value: -15.907


	FINAL GENETIC ALGORITHM DOCKED STATE
	_______________________________________________


Detailed state:  trans 8.637 34.694 -0.885 quatxyzw 0.409716 0.208333 0.270562 0.845888 center -0.174 -0.001 -0.047 ntor 10 123.6698 -42.8181 70.9785 -155.3289 171.2937 -166.7823 -22.1235 -78.3502 -172.0987 14.6198
State:	  8.637  34.694  -0.885   0.768  0.391  0.507 64.466    123.67  -42.82   70.98 -155.33  171.29 -166.78  -22.12  -78.35 -172.10   14.62

DOCKED: MODEL       72
DOCKED: USER    Run = 72
DOCKED: USER    DPF = D:/Protein_go_brrr/autodock/final/2DN3/heme_Fe/dock.dpf
DOCKED: USER  
DOCKED: USER    Estimated Free Energy of Binding    =  -10.80 kcal/mol  [=(1)+(2)+(3)-(4)]
DOCKED: USER    Estimated Inhibition Constant, Ki   =   12.13 nM (nanomolar)  [Temperature = 298.15 K]
DOCKED: USER    
DOCKED: USER    (1) Final Intermolecular Energy     =  -13.78 kcal/mol
DOCKED: USER        vdW + Hbond + desolv Energy     =  -12.35 kcal/mol
DOCKED: USER        Electrostatic Energy            =   -1.43 kcal/mol
DOCKED: USER    (2) Final Total Internal Energy     =   -2.12 kcal/mol
DOCKED: USER    (3) Torsional Free Energy           =   +2.98 kcal/mol
DOCKED: USER    (4) Unbound System's Energy  [=(2)] =   -2.12 kcal/mol
DOCKED: USER    
DOCKED: USER    
DOCKED: USER    NEWDPF move heme_Fe_opt.pdbqt
DOCKED: USER    NEWDPF about -0.174000 -0.001000 -0.047000
DOCKED: USER    NEWDPF tran0 8.637472 34.693536 -0.885182
DOCKED: USER    NEWDPF quaternion0 0.409716 0.208333 0.270562 0.845888
DOCKED: USER    NEWDPF axisangle0 0.768178 0.390604 0.507278 64.465558
DOCKED: USER    NEWDPF quat0 0.768178 0.390604 0.507278 64.465558
DOCKED: USER    NEWDPF dihe0 123.67 -42.82 70.98 -155.33 171.29 -166.78 -22.12 -78.35 -172.10 14.62 
DOCKED: USER  keepresnum = 1 
DOCKED: USER  
DOCKED: REMARK  10 active torsions:
DOCKED: REMARK  status: ('A' for Active; 'I' for Inactive)
DOCKED: REMARK    1  A    between atoms: C_6  and  C_10 
DOCKED: REMARK    2  A    between atoms: C_10  and  C_11 
DOCKED: REMARK    3  A    between atoms: C_11  and  C_12 
DOCKED: REMARK    4  A    between atoms: C_12  and  O_14 
DOCKED: REMARK    5  A    between atoms: C_17  and  C_20 
DOCKED: REMARK    6  A    between atoms: C_24  and  C_27 
DOCKED: REMARK    7  A    between atoms: C_31  and  C_34 
DOCKED: REMARK    8  A    between atoms: C_34  and  C_35 
DOCKED: REMARK    9  A    between atoms: C_35  and  C_36 
DOCKED: REMARK   10  A    between atoms: C_36  and  O_38 
DOCKED: USER                              x       y       z     vdW  Elec       q    Type
DOCKED: USER                           _______ _______ _______ _____ _____    ______ ____
DOCKED: ROOT
DOCKED: ATOM      1  C   UNL d   1       7.012  35.660  -1.681 -0.07 +0.01    +0.064 C 
DOCKED: ATOM      2  C   UNL d   1       7.748  32.734   2.234 -0.41 +0.00    +0.064 A 
DOCKED: ATOM      3  C   UNL d   1      12.480  33.404   1.758 -0.31 +0.00    +0.064 C 
DOCKED: ATOM      4  C   UNL d   1      11.796  36.154  -2.096 -0.45 +0.01    +0.064 C 
DOCKED: ATOM      5  C   UNL d   1       6.785  34.707  -0.586 -0.31 +0.01    +0.066 A 
DOCKED: ATOM      6  C   UNL d   1       5.549  34.192  -0.230 -0.29 -0.00    -0.021 A 
DOCKED: ATOM      7  C   UNL d   1       5.754  33.382   0.860 -0.27 -0.00    -0.025 A 
DOCKED: ATOM      8  C   UNL d   1       7.108  33.434   1.127 -0.33 +0.01    +0.066 A 
DOCKED: ATOM      9  C   UNL d   1       4.706  32.594   1.583 -0.16 +0.00    +0.051 C 
DOCKED: ATOM     10  C   UNL d   1       9.059  32.721   2.479 -0.39 +0.00    +0.066 A 
DOCKED: ATOM     11  C   UNL d   1       9.630  32.136   3.612 -0.45 -0.00    -0.021 A 
DOCKED: ATOM     12  C   UNL d   1      10.993  32.330   3.507 -0.44 +0.00    +0.000 A 
DOCKED: ATOM     13  C   UNL d   1      11.184  33.038   2.308 -0.35 +0.00    +0.070 A 
DOCKED: ATOM     14  C   UNL d   1       8.907  31.484   4.772 -0.55 -0.00    +0.052 C 
DOCKED: ATOM     15  C   UNL d   1      12.667  34.131   0.631 -0.35 +0.01    +0.066 A 
DOCKED: ATOM     16  C   UNL d   1      13.921  34.374   0.085 -0.45 -0.00    -0.021 A 
DOCKED: ATOM     17  C   UNL d   1      13.726  35.170  -1.025 -0.43 +0.00    +0.000 A 
DOCKED: ATOM     18  C   UNL d   1      12.356  35.397  -1.128 -0.33 +0.01    +0.070 A 
DOCKED: ATOM     19  C   UNL d   1      15.254  33.900   0.598 -0.56 +0.00    +0.052 C 
DOCKED: ATOM     20  C   UNL d   1      10.354  36.365  -2.272 -0.37 +0.01    +0.066 A 
DOCKED: ATOM     21  C   UNL d   1       9.772  37.300  -3.140 -0.38 -0.00    -0.025 A 
DOCKED: ATOM     22  C   UNL d   1       8.408  37.133  -3.015 -0.34 -0.00    -0.021 A 
DOCKED: ATOM     23  C   UNL d   1       8.212  36.113  -2.076 -0.28 +0.01    +0.066 A 
DOCKED: ATOM     24  C   UNL d   1      10.454  38.304  -4.040 -0.44 -0.00    +0.051 C 
DOCKED: ATOM     25  N   UNL d   1       7.734  34.234   0.240 -0.11 -0.04    -0.248 N 
DOCKED: ATOM     26  N   UNL d   1      10.005  33.285   1.685 -0.23 -0.02    -0.248 N 
DOCKED: ATOM     27  N   UNL d   1      11.700  34.723  -0.136 -0.11 -0.04    -0.248 N 
DOCKED: ATOM     28  N   UNL d   1       9.402  35.680  -1.593 -0.07 -0.06    -0.248 N 
DOCKED: ATOM     29 FE   UNL d   1       9.705  34.483   0.045 -0.07 +0.00    +0.000 Fe
DOCKED: ENDROOT
DOCKED: BRANCH   6  30
DOCKED: ATOM     30  C   UNL d   1       4.242  34.438  -0.902 -0.23 +0.01    +0.052 C 
DOCKED: BRANCH  30  31
DOCKED: ATOM     31  C   UNL d   1       3.625  35.747  -0.422 -0.19 +0.06    +0.115 C 
DOCKED: BRANCH  31  32
DOCKED: ATOM     32  C   UNL d   1       2.637  36.264  -1.430 -0.16 +0.10    +0.139 C 
DOCKED: ATOM     33  O   UNL d   1       1.916  37.216  -1.165 -0.05 -1.03    -0.650 OA
DOCKED: BRANCH  32  34
DOCKED: ATOM     34  O   UNL d   1       2.537  35.682  -2.637 +0.04 -0.31    -0.776 OA
DOCKED: ATOM     35  H   UNL d   1       3.326  35.614  -3.192 +0.04 +0.05    +0.167 HD
DOCKED: ENDBRANCH  32  34
DOCKED: ENDBRANCH  31  32
DOCKED: ENDBRANCH  30  31
DOCKED: ENDBRANCH   6  30
DOCKED: BRANCH  22  36
DOCKED: ATOM     36  C   UNL d   1       7.354  37.943  -3.723 -0.28 +0.00    +0.052 C 
DOCKED: BRANCH  36  37
DOCKED: ATOM     37  C   UNL d   1       6.628  37.069  -4.735 -0.21 +0.01    +0.115 C 
DOCKED: BRANCH  37  38
DOCKED: ATOM     38  C   UNL d   1       5.301  36.611  -4.198 -0.15 +0.02    +0.139 C 
DOCKED: ATOM     39  O   UNL d   1       4.678  35.717  -4.750 -0.00 -0.11    -0.650 OA
DOCKED: BRANCH  38  40
DOCKED: ATOM     40  O   UNL d   1       4.787  37.190  -3.098 +0.06 -0.23    -0.776 OA
DOCKED: ATOM     41  H   UNL d   1       3.845  37.412  -3.081 +0.04 +0.07    +0.167 HD
DOCKED: ENDBRANCH  38  40
DOCKED: ENDBRANCH  37  38
DOCKED: ENDBRANCH  36  37
DOCKED: ENDBRANCH  22  36
DOCKED: BRANCH  12  42
DOCKED: ATOM     42  C   UNL d   1      12.002  31.874   4.512 -0.33 +0.00    +0.004 C 
DOCKED: ATOM     43  C   UNL d   1      12.961  31.000   4.177 -0.65 +0.00    +0.012 C 
DOCKED: ENDBRANCH  12  42
DOCKED: BRANCH  17  44
DOCKED: ATOM     44  C   UNL d   1      14.781  35.664  -1.939 -0.31 +0.00    +0.004 C 
DOCKED: ATOM     45  C   UNL d   1      15.232  36.919  -1.850 -0.63 +0.00    +0.012 C 
DOCKED: ENDBRANCH  17  44
DOCKED: TORSDOF 10
DOCKED: TER
DOCKED: ENDMDL
________________________________________________________________________________


	BEGINNING GENETIC ALGORITHM DOCKING 73 of 100
Run: 73 Seed: 1421089784 472630067 [ Run 73 of 100 GA/GALS ]
Beginning LAMARCKIAN GENETIC ALGORITHM (LGA), with a maximum of 25000000 energy evaluations.

Final-Value: -16.534


	FINAL GENETIC ALGORITHM DOCKED STATE
	_______________________________________________


Detailed state:  trans 41.159 29.170 16.816 quatxyzw 0.083226 0.930128 0.046737 -0.354614 center -0.174 -0.001 -0.047 ntor 10 76.5381 77.3585 91.2703 -157.7149 152.1421 150.1305 49.2028 1.5647 175.7471 54.3324
State:	 41.159  29.170  16.816   0.089  0.995  0.050 -138.460     76.54   77.36   91.27 -157.71  152.14  150.13   49.20    1.56  175.75   54.33

DOCKED: MODEL       73
DOCKED: USER    Run = 73
DOCKED: USER    DPF = D:/Protein_go_brrr/autodock/final/2DN3/heme_Fe/dock.dpf
DOCKED: USER  
DOCKED: USER    Estimated Free Energy of Binding    =  -13.34 kcal/mol  [=(1)+(2)+(3)-(4)]
DOCKED: USER    Estimated Inhibition Constant, Ki   =  166.03 pM (picomolar)  [Temperature = 298.15 K]
DOCKED: USER    
DOCKED: USER    (1) Final Intermolecular Energy     =  -16.32 kcal/mol
DOCKED: USER        vdW + Hbond + desolv Energy     =  -13.83 kcal/mol
DOCKED: USER        Electrostatic Energy            =   -2.50 kcal/mol
DOCKED: USER    (2) Final Total Internal Energy     =   -0.21 kcal/mol
DOCKED: USER    (3) Torsional Free Energy           =   +2.98 kcal/mol
DOCKED: USER    (4) Unbound System's Energy  [=(2)] =   -0.21 kcal/mol
DOCKED: USER    
DOCKED: USER    
DOCKED: USER    NEWDPF move heme_Fe_opt.pdbqt
DOCKED: USER    NEWDPF about -0.174000 -0.001000 -0.047000
DOCKED: USER    NEWDPF tran0 41.158576 29.169633 16.816198
DOCKED: USER    NEWDPF quaternion0 0.083226 0.930128 0.046737 -0.354614
DOCKED: USER    NEWDPF axisangle0 0.089011 0.994776 0.049986 -138.460426
DOCKED: USER    NEWDPF quat0 0.089011 0.994776 0.049986 -138.460426
DOCKED: USER    NEWDPF dihe0 76.54 77.36 91.27 -157.71 152.14 150.13 49.20 1.56 175.75 54.33 
DOCKED: USER  keepresnum = 1 
DOCKED: USER  
DOCKED: REMARK  10 active torsions:
DOCKED: REMARK  status: ('A' for Active; 'I' for Inactive)
DOCKED: REMARK    1  A    between atoms: C_6  and  C_10 
DOCKED: REMARK    2  A    between atoms: C_10  and  C_11 
DOCKED: REMARK    3  A    between atoms: C_11  and  C_12 
DOCKED: REMARK    4  A    between atoms: C_12  and  O_14 
DOCKED: REMARK    5  A    between atoms: C_17  and  C_20 
DOCKED: REMARK    6  A    between atoms: C_24  and  C_27 
DOCKED: REMARK    7  A    between atoms: C_31  and  C_34 
DOCKED: REMARK    8  A    between atoms: C_34  and  C_35 
DOCKED: REMARK    9  A    between atoms: C_35  and  C_36 
DOCKED: REMARK   10  A    between atoms: C_36  and  O_38 
DOCKED: USER                              x       y       z     vdW  Elec       q    Type
DOCKED: USER                           _______ _______ _______ _____ _____    ______ ____
DOCKED: ROOT
DOCKED: ATOM      1  C   UNL d   1      42.962  28.754  17.703 -0.12 +0.02    +0.064 C 
DOCKED: ATOM      2  C   UNL d   1      39.745  26.171  14.981 -0.37 +0.01    +0.064 A 
DOCKED: ATOM      3  C   UNL d   1      37.623  30.287  13.707 -0.37 +0.01    +0.064 C 
DOCKED: ATOM      4  C   UNL d   1      40.661  32.798  16.419 -0.48 +0.01    +0.064 C 
DOCKED: ATOM      5  C   UNL d   1      42.201  27.639  17.122 -0.11 +0.02    +0.066 A 
DOCKED: ATOM      6  C   UNL d   1      42.454  26.299  17.363 -0.33 -0.01    -0.021 A 
DOCKED: ATOM      7  C   UNL d   1      41.563  25.582  16.604 -0.36 -0.01    -0.025 A 
DOCKED: ATOM      8  C   UNL d   1      40.799  26.514  15.928 -0.37 +0.02    +0.066 A 
DOCKED: ATOM      9  C   UNL d   1      41.447  24.089  16.552 -0.50 +0.01    +0.051 C 
DOCKED: ATOM     10  C   UNL d   1      38.955  27.049  14.360 -0.36 +0.01    +0.066 A 
DOCKED: ATOM     11  C   UNL d   1      38.032  26.697  13.373 -0.43 -0.00    -0.021 A 
DOCKED: ATOM     12  C   UNL d   1      37.418  27.868  12.977 -0.48 +0.00    +0.000 A 
DOCKED: ATOM     13  C   UNL d   1      38.011  28.886  13.745 -0.35 +0.01    +0.070 A 
DOCKED: ATOM     14  C   UNL d   1      37.793  25.320  12.786 -0.43 +0.01    +0.052 C 
DOCKED: ATOM     15  C   UNL d   1      38.226  31.278  14.406 -0.34 +0.01    +0.066 A 
DOCKED: ATOM     16  C   UNL d   1      37.762  32.587  14.419 -0.34 -0.00    -0.021 A 
DOCKED: ATOM     17  C   UNL d   1      38.639  33.314  15.198 -0.43 +0.00    +0.000 A 
DOCKED: ATOM     18  C   UNL d   1      39.621  32.430  15.639 -0.38 +0.01    +0.070 A 
DOCKED: ATOM     19  C   UNL d   1      36.557  33.142  13.709 -0.29 +0.00    +0.052 C 
DOCKED: ATOM     20  C   UNL d   1      41.679  31.885  16.952 -0.38 +0.01    +0.066 A 
DOCKED: ATOM     21  C   UNL d   1      42.864  32.277  17.589 -0.31 -0.01    -0.025 A 
DOCKED: ATOM     22  C   UNL d   1      43.498  31.109  17.958 -0.33 -0.01    -0.021 A 
DOCKED: ATOM     23  C   UNL d   1      42.682  30.055  17.528 -0.28 +0.02    +0.066 A 
DOCKED: ATOM     24  C   UNL d   1      43.384  33.674  17.839 -0.31 +0.01    +0.051 C 
DOCKED: ATOM     25  N   UNL d   1      41.184  27.764  16.252 -0.22 -0.09    -0.248 N 
DOCKED: ATOM     26  N   UNL d   1      38.955  28.388  14.581 -0.05 -0.07    -0.248 N 
DOCKED: ATOM     27  N   UNL d   1      39.344  31.169  15.188 -0.21 -0.05    -0.248 N 
DOCKED: ATOM     28  N   UNL d   1      41.596  30.535  16.875 -0.19 -0.07    -0.248 N 
DOCKED: ATOM     29 FE   UNL d   1      40.275  29.463  15.729 -0.08 +0.00    +0.000 Fe
DOCKED: ENDROOT
DOCKED: BRANCH   6  30
DOCKED: ATOM     30  C   UNL d   1      43.477  25.726  18.284 -0.31 +0.02    +0.052 C 
DOCKED: BRANCH  30  31
DOCKED: ATOM     31  C   UNL d   1      44.758  25.390  17.528 -0.23 +0.06    +0.115 C 
DOCKED: BRANCH  31  32
DOCKED: ATOM     32  C   UNL d   1      45.209  23.993  17.850 -0.23 +0.10    +0.139 C 
DOCKED: ATOM     33  O   UNL d   1      45.858  23.345  17.041 -0.36 -0.86    -0.650 OA
DOCKED: BRANCH  32  34
DOCKED: ATOM     34  O   UNL d   1      44.901  23.442  19.036 -0.08 -0.46    -0.776 OA
DOCKED: ATOM     35  H   UNL d   1      45.584  23.383  19.719 +0.05 +0.10    +0.167 HD
DOCKED: ENDBRANCH  32  34
DOCKED: ENDBRANCH  31  32
DOCKED: ENDBRANCH  30  31
DOCKED: ENDBRANCH   6  30
DOCKED: BRANCH  22  36
DOCKED: ATOM     36  C   UNL d   1      44.837  31.012  18.642 -0.28 +0.02    +0.052 C 
DOCKED: BRANCH  36  37
DOCKED: ATOM     37  C   UNL d   1      44.892  29.748  19.487 -0.23 +0.07    +0.115 C 
DOCKED: BRANCH  37  38
DOCKED: ATOM     38  C   UNL d   1      46.211  29.632  20.198 -0.15 +0.12    +0.139 C 
DOCKED: ATOM     39  O   UNL d   1      46.291  29.065  21.277 -0.37 -1.22    -0.650 OA
DOCKED: BRANCH  38  40
DOCKED: ATOM     40  O   UNL d   1      47.318  30.159  19.646 +0.04 -0.43    -0.776 OA
DOCKED: ATOM     41  H   UNL d   1      47.953  29.571  19.214 +0.03 +0.08    +0.167 HD
DOCKED: ENDBRANCH  38  40
DOCKED: ENDBRANCH  37  38
DOCKED: ENDBRANCH  36  37
DOCKED: ENDBRANCH  22  36
DOCKED: BRANCH  12  42
DOCKED: ATOM     42  C   UNL d   1      36.360  27.968  11.924 -0.65 +0.00    +0.004 C 
DOCKED: ATOM     43  C   UNL d   1      35.301  28.772  12.085 -0.62 +0.00    +0.012 C 
DOCKED: ENDBRANCH  12  42
DOCKED: BRANCH  17  44
DOCKED: ATOM     44  C   UNL d   1      38.532  34.756  15.516 -0.58 +0.00    +0.004 C 
DOCKED: ATOM     45  C   UNL d   1      39.316  35.651  14.908 -0.62 +0.00    +0.012 C 
DOCKED: ENDBRANCH  17  44
DOCKED: TORSDOF 10
DOCKED: TER
DOCKED: ENDMDL
________________________________________________________________________________


	BEGINNING GENETIC ALGORITHM DOCKING 74 of 100
Run: 74 Seed: 581894153 2057310109 [ Run 74 of 100 GA/GALS ]
Beginning LAMARCKIAN GENETIC ALGORITHM (LGA), with a maximum of 25000000 energy evaluations.

Final-Value: -9.952


	FINAL GENETIC ALGORITHM DOCKED STATE
	_______________________________________________


Detailed state:  trans 12.365 39.446 25.289 quatxyzw 0.406097 -0.048730 -0.679764 0.608795 center -0.174 -0.001 -0.047 ntor 10 160.7073 -87.9043 12.3722 14.9625 -95.1482 -172.3027 -63.8458 -15.4148 20.7386 -143.5732
State:	 12.365  39.446  25.289   0.512 -0.061 -0.857 104.995    160.71  -87.90   12.37   14.96  -95.15 -172.30  -63.85  -15.41   20.74 -143.57

DOCKED: MODEL       74
DOCKED: USER    Run = 74
DOCKED: USER    DPF = D:/Protein_go_brrr/autodock/final/2DN3/heme_Fe/dock.dpf
DOCKED: USER  
DOCKED: USER    Estimated Free Energy of Binding    =   -6.58 kcal/mol  [=(1)+(2)+(3)-(4)]
DOCKED: USER    Estimated Inhibition Constant, Ki   =   15.13 uM (micromolar)  [Temperature = 298.15 K]
DOCKED: USER    
DOCKED: USER    (1) Final Intermolecular Energy     =   -9.56 kcal/mol
DOCKED: USER        vdW + Hbond + desolv Energy     =   -8.85 kcal/mol
DOCKED: USER        Electrostatic Energy            =   -0.71 kcal/mol
DOCKED: USER    (2) Final Total Internal Energy     =   -0.39 kcal/mol
DOCKED: USER    (3) Torsional Free Energy           =   +2.98 kcal/mol
DOCKED: USER    (4) Unbound System's Energy  [=(2)] =   -0.39 kcal/mol
DOCKED: USER    
DOCKED: USER    
DOCKED: USER    NEWDPF move heme_Fe_opt.pdbqt
DOCKED: USER    NEWDPF about -0.174000 -0.001000 -0.047000
DOCKED: USER    NEWDPF tran0 12.364651 39.445810 25.289480
DOCKED: USER    NEWDPF quaternion0 0.406097 -0.048730 -0.679764 0.608795
DOCKED: USER    NEWDPF axisangle0 0.511890 -0.061425 -0.856852 104.995087
DOCKED: USER    NEWDPF quat0 0.511890 -0.061425 -0.856852 104.995087
DOCKED: USER    NEWDPF dihe0 160.71 -87.90 12.37 14.96 -95.15 -172.30 -63.85 -15.41 20.74 -143.57 
DOCKED: USER  keepresnum = 1 
DOCKED: USER  
DOCKED: REMARK  10 active torsions:
DOCKED: REMARK  status: ('A' for Active; 'I' for Inactive)
DOCKED: REMARK    1  A    between atoms: C_6  and  C_10 
DOCKED: REMARK    2  A    between atoms: C_10  and  C_11 
DOCKED: REMARK    3  A    between atoms: C_11  and  C_12 
DOCKED: REMARK    4  A    between atoms: C_12  and  O_14 
DOCKED: REMARK    5  A    between atoms: C_17  and  C_20 
DOCKED: REMARK    6  A    between atoms: C_24  and  C_27 
DOCKED: REMARK    7  A    between atoms: C_31  and  C_34 
DOCKED: REMARK    8  A    between atoms: C_34  and  C_35 
DOCKED: REMARK    9  A    between atoms: C_35  and  C_36 
DOCKED: REMARK   10  A    between atoms: C_36  and  O_38 
DOCKED: USER                              x       y       z     vdW  Elec       q    Type
DOCKED: USER                           _______ _______ _______ _____ _____    ______ ____
DOCKED: ROOT
DOCKED: ATOM      1  C   UNL d   1      12.013  38.198  26.880 -0.28 -0.03    +0.064 C 
DOCKED: ATOM      2  C   UNL d   1      15.252  41.812  25.942 -0.17 -0.01    +0.064 A 
DOCKED: ATOM      3  C   UNL d   1      12.531  43.193  22.233 -0.24 -0.01    +0.064 C 
DOCKED: ATOM      4  C   UNL d   1       9.439  39.638  23.059 -0.30 -0.01    +0.064 C 
DOCKED: ATOM      5  C   UNL d   1      13.220  39.035  26.909 -0.23 -0.03    +0.066 A 
DOCKED: ATOM      6  C   UNL d   1      14.285  38.857  27.776 -0.22 +0.01    -0.021 A 
DOCKED: ATOM      7  C   UNL d   1      15.183  39.863  27.518 -0.19 +0.01    -0.025 A 
DOCKED: ATOM      8  C   UNL d   1      14.630  40.618  26.501 -0.19 -0.02    +0.066 A 
DOCKED: ATOM      9  C   UNL d   1      16.501  40.068  28.199 -0.18 -0.00    +0.051 C 
DOCKED: ATOM     10  C   UNL d   1      14.768  42.524  24.923 -0.19 -0.02    +0.066 A 
DOCKED: ATOM     11  C   UNL d   1      15.326  43.727  24.485 -0.19 +0.00    -0.021 A 
DOCKED: ATOM     12  C   UNL d   1      14.549  44.155  23.426 -0.20 -0.00    +0.000 A 
DOCKED: ATOM     13  C   UNL d   1      13.543  43.185  23.277 -0.21 -0.02    +0.070 A 
DOCKED: ATOM     14  C   UNL d   1      16.501  44.469  25.089 +0.01 -0.00    +0.052 C 
DOCKED: ATOM     15  C   UNL d   1      11.529  42.290  22.116 -0.22 -0.02    +0.066 A 
DOCKED: ATOM     16  C   UNL d   1      10.642  42.274  21.048 -0.20 +0.01    -0.021 A 
DOCKED: ATOM     17  C   UNL d   1       9.747  41.251  21.286 -0.27 -0.00    +0.000 A 
DOCKED: ATOM     18  C   UNL d   1      10.107  40.669  22.499 -0.23 -0.02    +0.070 A 
DOCKED: ATOM     19  C   UNL d   1      10.619  43.199  19.860 -0.21 -0.03    +0.052 C 
DOCKED: ATOM     20  C   UNL d   1       9.825  38.960  24.302 -0.26 -0.02    +0.066 A 
DOCKED: ATOM     21  C   UNL d   1       9.037  38.030  24.996 -0.25 +0.01    -0.025 A 
DOCKED: ATOM     22  C   UNL d   1       9.796  37.623  26.074 -0.26 +0.01    -0.021 A 
DOCKED: ATOM     23  C   UNL d   1      11.006  38.322  26.000 -0.25 -0.03    +0.066 A 
DOCKED: ATOM     24  C   UNL d   1       7.643  37.546  24.671 -0.14 -0.01    +0.051 C 
DOCKED: ATOM     25  N   UNL d   1      13.440  40.106  26.126 -0.09 +0.09    -0.248 N 
DOCKED: ATOM     26  N   UNL d   1      13.670  42.195  24.195 -0.11 +0.08    -0.248 N 
DOCKED: ATOM     27  N   UNL d   1      11.229  41.278  22.989 -0.14 +0.07    -0.248 N 
DOCKED: ATOM     28  N   UNL d   1      11.001  39.169  24.942 -0.18 +0.09    -0.248 N 
DOCKED: ATOM     29 FE   UNL d   1      12.334  40.682  24.568 -0.05 -0.00    +0.000 Fe
DOCKED: ENDROOT
DOCKED: BRANCH   6  30
DOCKED: ATOM     30  C   UNL d   1      14.455  37.774  28.786 -0.25 -0.02    +0.052 C 
DOCKED: BRANCH  30  31
DOCKED: ATOM     31  C   UNL d   1      15.563  36.814  28.367 -0.17 -0.03    +0.115 C 
DOCKED: BRANCH  31  32
DOCKED: ATOM     32  C   UNL d   1      16.696  36.855  29.356 -0.30 +0.01    +0.139 C 
DOCKED: ATOM     33  O   UNL d   1      17.667  37.572  29.161 -0.25 -0.15    -0.650 OA
DOCKED: BRANCH  32  34
DOCKED: ATOM     34  O   UNL d   1      16.650  36.100  30.466 -0.03 -0.06    -0.776 OA
DOCKED: ATOM     35  H   UNL d   1      15.796  35.760  30.768 +0.05 +0.00    +0.167 HD
DOCKED: ENDBRANCH  32  34
DOCKED: ENDBRANCH  31  32
DOCKED: ENDBRANCH  30  31
DOCKED: ENDBRANCH   6  30
DOCKED: BRANCH  22  36
DOCKED: ATOM     36  C   UNL d   1       9.359  36.654  27.141 -0.26 -0.01    +0.052 C 
DOCKED: BRANCH  36  37
DOCKED: ATOM     37  C   UNL d   1       7.959  37.012  27.618 -0.15 -0.00    +0.115 C 
DOCKED: BRANCH  37  38
DOCKED: ATOM     38  C   UNL d   1       7.339  35.872  28.374 -0.13 +0.03    +0.139 C 
DOCKED: ATOM     39  O   UNL d   1       6.167  35.913  28.718 -0.00 -0.10    -0.650 OA
DOCKED: BRANCH  38  40
DOCKED: ATOM     40  O   UNL d   1       8.077  34.791  28.682 -0.33 -0.56    -0.776 OA
DOCKED: ATOM     41  H   UNL d   1       8.539  34.763  29.532 +0.02 +0.09    +0.167 HD
DOCKED: ENDBRANCH  38  40
DOCKED: ENDBRANCH  37  38
DOCKED: ENDBRANCH  36  37
DOCKED: ENDBRANCH  22  36
DOCKED: BRANCH  12  42
DOCKED: ATOM     42  C   UNL d   1      14.776  45.415  22.652 -0.20 -0.00    +0.004 C 
DOCKED: ATOM     43  C   UNL d   1      15.922  45.620  21.990 -0.32 -0.00    +0.012 C 
DOCKED: ENDBRANCH  12  42
DOCKED: BRANCH  17  44
DOCKED: ATOM     44  C   UNL d   1       8.633  40.845  20.400 -0.39 -0.00    +0.004 C 
DOCKED: ATOM     45  C   UNL d   1       8.873  40.270  19.217 -0.52 -0.00    +0.012 C 
DOCKED: ENDBRANCH  17  44
DOCKED: TORSDOF 10
DOCKED: TER
DOCKED: ENDMDL
________________________________________________________________________________


	BEGINNING GENETIC ALGORITHM DOCKING 75 of 100
Run: 75 Seed: 1796699383 205610070 [ Run 75 of 100 GA/GALS ]
Beginning LAMARCKIAN GENETIC ALGORITHM (LGA), with a maximum of 25000000 energy evaluations.

Final-Value: -15.634


	FINAL GENETIC ALGORITHM DOCKED STATE
	_______________________________________________


Detailed state:  trans 8.588 34.597 -0.766 quatxyzw -0.418391 -0.174810 -0.238364 -0.858821 center -0.174 -0.001 -0.047 ntor 10 -106.4050 56.9750 70.4619 -134.3842 102.3276 -111.1187 -26.8823 -64.6470 -177.1907 4.6480
State:	  8.588  34.597  -0.766  -0.817 -0.341 -0.465 -61.631   -106.40   56.97   70.46 -134.38  102.33 -111.12  -26.88  -64.65 -177.19    4.65

DOCKED: MODEL       75
DOCKED: USER    Run = 75
DOCKED: USER    DPF = D:/Protein_go_brrr/autodock/final/2DN3/heme_Fe/dock.dpf
DOCKED: USER  
DOCKED: USER    Estimated Free Energy of Binding    =  -10.47 kcal/mol  [=(1)+(2)+(3)-(4)]
DOCKED: USER    Estimated Inhibition Constant, Ki   =   21.24 nM (nanomolar)  [Temperature = 298.15 K]
DOCKED: USER    
DOCKED: USER    (1) Final Intermolecular Energy     =  -13.45 kcal/mol
DOCKED: USER        vdW + Hbond + desolv Energy     =  -12.26 kcal/mol
DOCKED: USER        Electrostatic Energy            =   -1.19 kcal/mol
DOCKED: USER    (2) Final Total Internal Energy     =   -2.18 kcal/mol
DOCKED: USER    (3) Torsional Free Energy           =   +2.98 kcal/mol
DOCKED: USER    (4) Unbound System's Energy  [=(2)] =   -2.18 kcal/mol
DOCKED: USER    
DOCKED: USER    
DOCKED: USER    NEWDPF move heme_Fe_opt.pdbqt
DOCKED: USER    NEWDPF about -0.174000 -0.001000 -0.047000
DOCKED: USER    NEWDPF tran0 8.587825 34.597393 -0.766337
DOCKED: USER    NEWDPF quaternion0 -0.418391 -0.174810 -0.238364 -0.858821
DOCKED: USER    NEWDPF axisangle0 -0.816729 -0.341243 -0.465304 -61.631126
DOCKED: USER    NEWDPF quat0 -0.816729 -0.341243 -0.465304 -61.631126
DOCKED: USER    NEWDPF dihe0 -106.40 56.97 70.46 -134.38 102.33 -111.12 -26.88 -64.65 -177.19 4.65 
DOCKED: USER  keepresnum = 1 
DOCKED: USER  
DOCKED: REMARK  10 active torsions:
DOCKED: REMARK  status: ('A' for Active; 'I' for Inactive)
DOCKED: REMARK    1  A    between atoms: C_6  and  C_10 
DOCKED: REMARK    2  A    between atoms: C_10  and  C_11 
DOCKED: REMARK    3  A    between atoms: C_11  and  C_12 
DOCKED: REMARK    4  A    between atoms: C_12  and  O_14 
DOCKED: REMARK    5  A    between atoms: C_17  and  C_20 
DOCKED: REMARK    6  A    between atoms: C_24  and  C_27 
DOCKED: REMARK    7  A    between atoms: C_31  and  C_34 
DOCKED: REMARK    8  A    between atoms: C_34  and  C_35 
DOCKED: REMARK    9  A    between atoms: C_35  and  C_36 
DOCKED: REMARK   10  A    between atoms: C_36  and  O_38 
DOCKED: USER                              x       y       z     vdW  Elec       q    Type
DOCKED: USER                           _______ _______ _______ _____ _____    ______ ____
DOCKED: ROOT
DOCKED: ATOM      1  C   UNL d   1       6.867  35.514  -1.406 -0.17 +0.01    +0.064 C 
DOCKED: ATOM      2  C   UNL d   1       8.052  32.614   2.418 -0.42 +0.00    +0.064 A 
DOCKED: ATOM      3  C   UNL d   1      12.697  33.428   1.505 -0.41 +0.00    +0.064 C 
DOCKED: ATOM      4  C   UNL d   1      11.574  36.152  -2.263 -0.46 +0.00    +0.064 C 
DOCKED: ATOM      5  C   UNL d   1       6.771  34.555  -0.296 -0.31 +0.01    +0.066 A 
DOCKED: ATOM      6  C   UNL d   1       5.590  34.003   0.172 -0.31 -0.00    -0.021 A 
DOCKED: ATOM      7  C   UNL d   1       5.920  33.201   1.237 -0.24 -0.00    -0.025 A 
DOCKED: ATOM      8  C   UNL d   1       7.291  33.294   1.377 -0.36 +0.01    +0.066 A 
DOCKED: ATOM      9  C   UNL d   1       4.968  32.381   2.053 -0.10 +0.00    +0.051 C 
DOCKED: ATOM     10  C   UNL d   1       9.380  32.641   2.540 -0.39 +0.00    +0.066 A 
DOCKED: ATOM     11  C   UNL d   1      10.072  32.075   3.614 -0.45 -0.00    -0.021 A 
DOCKED: ATOM     12  C   UNL d   1      11.412  32.310   3.383 -0.41 +0.00    +0.000 A 
DOCKED: ATOM     13  C   UNL d   1      11.470  33.023   2.172 -0.36 +0.00    +0.070 A 
DOCKED: ATOM     14  C   UNL d   1       9.480  31.401   4.835 -0.59 +0.00    +0.052 C 
DOCKED: ATOM     15  C   UNL d   1      12.756  34.158   0.367 -0.34 +0.01    +0.066 A 
DOCKED: ATOM     16  C   UNL d   1      13.946  34.439  -0.293 -0.45 -0.00    -0.021 A 
DOCKED: ATOM     17  C   UNL d   1      13.625  35.228  -1.378 -0.44 +0.00    +0.000 A 
DOCKED: ATOM     18  C   UNL d   1      12.244  35.414  -1.352 -0.33 +0.01    +0.070 A 
DOCKED: ATOM     19  C   UNL d   1      15.335  34.006   0.093 -0.57 +0.01    +0.052 C 
DOCKED: ATOM     20  C   UNL d   1      10.116  36.319  -2.303 -0.37 +0.01    +0.066 A 
DOCKED: ATOM     21  C   UNL d   1       9.428  37.235  -3.111 -0.38 -0.00    -0.025 A 
DOCKED: ATOM     22  C   UNL d   1       8.087  37.027  -2.860 -0.31 -0.00    -0.021 A 
DOCKED: ATOM     23  C   UNL d   1       8.011  36.002  -1.909 -0.02 +0.02    +0.066 A 
DOCKED: ATOM     24  C   UNL d   1       9.992  38.259  -4.069 -0.47 -0.00    +0.051 C 
DOCKED: ATOM     25  N   UNL d   1       7.807  34.111   0.437 -0.12 -0.04    -0.248 N 
DOCKED: ATOM     26  N   UNL d   1      10.231  33.233   1.663 -0.23 -0.02    -0.248 N 
DOCKED: ATOM     27  N   UNL d   1      11.704  34.720  -0.305 -0.06 -0.04    -0.248 N 
DOCKED: ATOM     28  N   UNL d   1       9.253  35.606  -1.540 -0.07 -0.06    -0.248 N 
DOCKED: ATOM     29 FE   UNL d   1       9.743  34.420   0.060 -0.07 +0.00    +0.000 Fe
DOCKED: ENDROOT
DOCKED: BRANCH   6  30
DOCKED: ATOM     30  C   UNL d   1       4.219  34.208  -0.375 -0.25 +0.01    +0.052 C 
DOCKED: BRANCH  30  31
DOCKED: ATOM     31  C   UNL d   1       3.563  35.430   0.258 -0.19 +0.05    +0.115 C 
DOCKED: BRANCH  31  32
DOCKED: ATOM     32  C   UNL d   1       2.544  36.023  -0.675 -0.14 +0.10    +0.139 C 
DOCKED: ATOM     33  O   UNL d   1       1.350  35.824  -0.502 -0.12 -0.57    -0.650 OA
DOCKED: BRANCH  32  34
DOCKED: ATOM     34  O   UNL d   1       2.939  36.780  -1.713 +0.00 -0.56    -0.776 OA
DOCKED: ATOM     35  H   UNL d   1       3.348  36.351  -2.478 +0.04 +0.07    +0.167 HD
DOCKED: ENDBRANCH  32  34
DOCKED: ENDBRANCH  31  32
DOCKED: ENDBRANCH  30  31
DOCKED: ENDBRANCH   6  30
DOCKED: BRANCH  22  36
DOCKED: ATOM     36  C   UNL d   1       6.948  37.804  -3.465 -0.23 +0.01    +0.052 C 
DOCKED: BRANCH  36  37
DOCKED: ATOM     37  C   UNL d   1       6.310  36.994  -4.584 -0.20 +0.01    +0.115 C 
DOCKED: BRANCH  37  38
DOCKED: ATOM     38  C   UNL d   1       4.900  36.611  -4.236 -0.13 +0.03    +0.139 C 
DOCKED: ATOM     39  O   UNL d   1       4.605  35.447  -4.011 +0.00 -0.12    -0.650 OA
DOCKED: BRANCH  38  40
DOCKED: ATOM     40  O   UNL d   1       3.944  37.556  -4.172 +0.05 -0.22    -0.776 OA
DOCKED: ATOM     41  H   UNL d   1       3.440  37.660  -3.354 +0.03 +0.07    +0.167 HD
DOCKED: ENDBRANCH  38  40
DOCKED: ENDBRANCH  37  38
DOCKED: ENDBRANCH  36  37
DOCKED: ENDBRANCH  22  36
DOCKED: BRANCH  12  42
DOCKED: ATOM     42  C   UNL d   1      12.524  31.885   4.288 -0.53 +0.00    +0.004 C 
DOCKED: ATOM     43  C   UNL d   1      13.468  31.033   3.867 -0.68 +0.00    +0.012 C 
DOCKED: ENDBRANCH  12  42
DOCKED: BRANCH  17  44
DOCKED: ATOM     44  C   UNL d   1      14.574  35.753  -2.385 -0.10 +0.00    +0.004 C 
DOCKED: ATOM     45  C   UNL d   1      15.309  36.841  -2.132 -0.63 +0.00    +0.012 C 
DOCKED: ENDBRANCH  17  44
DOCKED: TORSDOF 10
DOCKED: TER
DOCKED: ENDMDL
________________________________________________________________________________


	BEGINNING GENETIC ALGORITHM DOCKING 76 of 100
Run: 76 Seed: 1008714427 1699333427 [ Run 76 of 100 GA/GALS ]
Beginning LAMARCKIAN GENETIC ALGORITHM (LGA), with a maximum of 25000000 energy evaluations.

Final-Value: -13.388


	FINAL GENETIC ALGORITHM DOCKED STATE
	_______________________________________________


Detailed state:  trans 8.902 34.088 0.469 quatxyzw 0.404389 -0.171009 -0.379050 0.814584 center -0.174 -0.001 -0.047 ntor 10 -84.0059 87.6069 -146.9099 67.3470 170.1655 101.2150 121.2683 54.4460 49.4177 -35.1055
State:	  8.902  34.088   0.469   0.697 -0.295 -0.653 70.908    -84.01   87.61 -146.91   67.35  170.17  101.22  121.27   54.45   49.42  -35.11

DOCKED: MODEL       76
DOCKED: USER    Run = 76
DOCKED: USER    DPF = D:/Protein_go_brrr/autodock/final/2DN3/heme_Fe/dock.dpf
DOCKED: USER  
DOCKED: USER    Estimated Free Energy of Binding    =  -10.06 kcal/mol  [=(1)+(2)+(3)-(4)]
DOCKED: USER    Estimated Inhibition Constant, Ki   =   42.60 nM (nanomolar)  [Temperature = 298.15 K]
DOCKED: USER    
DOCKED: USER    (1) Final Intermolecular Energy     =  -13.04 kcal/mol
DOCKED: USER        vdW + Hbond + desolv Energy     =  -12.56 kcal/mol
DOCKED: USER        Electrostatic Energy            =   -0.48 kcal/mol
DOCKED: USER    (2) Final Total Internal Energy     =   -0.35 kcal/mol
DOCKED: USER    (3) Torsional Free Energy           =   +2.98 kcal/mol
DOCKED: USER    (4) Unbound System's Energy  [=(2)] =   -0.35 kcal/mol
DOCKED: USER    
DOCKED: USER    
DOCKED: USER    NEWDPF move heme_Fe_opt.pdbqt
DOCKED: USER    NEWDPF about -0.174000 -0.001000 -0.047000
DOCKED: USER    NEWDPF tran0 8.901993 34.087532 0.468648
DOCKED: USER    NEWDPF quaternion0 0.404389 -0.171009 -0.379050 0.814584
DOCKED: USER    NEWDPF axisangle0 0.697167 -0.294820 -0.653483 70.907524
DOCKED: USER    NEWDPF quat0 0.697167 -0.294820 -0.653483 70.907524
DOCKED: USER    NEWDPF dihe0 -84.01 87.61 -146.91 67.35 170.17 101.22 121.27 54.45 49.42 -35.11 
DOCKED: USER  keepresnum = 1 
DOCKED: USER  
DOCKED: REMARK  10 active torsions:
DOCKED: REMARK  status: ('A' for Active; 'I' for Inactive)
DOCKED: REMARK    1  A    between atoms: C_6  and  C_10 
DOCKED: REMARK    2  A    between atoms: C_10  and  C_11 
DOCKED: REMARK    3  A    between atoms: C_11  and  C_12 
DOCKED: REMARK    4  A    between atoms: C_12  and  O_14 
DOCKED: REMARK    5  A    between atoms: C_17  and  C_20 
DOCKED: REMARK    6  A    between atoms: C_24  and  C_27 
DOCKED: REMARK    7  A    between atoms: C_31  and  C_34 
DOCKED: REMARK    8  A    between atoms: C_34  and  C_35 
DOCKED: REMARK    9  A    between atoms: C_35  and  C_36 
DOCKED: REMARK   10  A    between atoms: C_36  and  O_38 
DOCKED: USER                              x       y       z     vdW  Elec       q    Type
DOCKED: USER                           _______ _______ _______ _____ _____    ______ ____
DOCKED: ROOT
DOCKED: ATOM      1  C   UNL d   1       7.636  33.535   1.986 -0.41 +0.01    +0.064 C 
DOCKED: ATOM      2  C   UNL d   1      12.543  33.850   1.489 -0.30 +0.00    +0.064 A 
DOCKED: ATOM      3  C   UNL d   1      11.904  36.474  -2.482 -0.47 +0.00    +0.064 C 
DOCKED: ATOM      4  C   UNL d   1       7.152  36.093  -2.079 -0.23 +0.01    +0.064 C 
DOCKED: ATOM      5  C   UNL d   1       9.076  33.310   2.168 -0.35 +0.01    +0.066 A 
DOCKED: ATOM      6  C   UNL d   1       9.633  32.505   3.148 -0.42 -0.00    -0.021 A 
DOCKED: ATOM      7  C   UNL d   1      10.996  32.596   3.012 -0.41 -0.00    -0.025 A 
DOCKED: ATOM      8  C   UNL d   1      11.219  33.454   1.952 -0.34 +0.01    +0.066 A 
DOCKED: ATOM      9  C   UNL d   1      12.017  31.881   3.844 -0.50 +0.00    +0.051 C 
DOCKED: ATOM     10  C   UNL d   1      12.787  34.630   0.435 -0.34 +0.01    +0.066 A 
DOCKED: ATOM     11  C   UNL d   1      14.060  35.085   0.084 -0.42 -0.00    -0.021 A 
DOCKED: ATOM     12  C   UNL d   1      13.901  35.858  -1.048 -0.43 +0.00    +0.000 A 
DOCKED: ATOM     13  C   UNL d   1      12.523  35.841  -1.329 -0.36 +0.01    +0.070 A 
DOCKED: ATOM     14  C   UNL d   1      15.357  34.851   0.832 -0.57 +0.00    +0.052 C 
DOCKED: ATOM     15  C   UNL d   1      10.573  36.505  -2.728 -0.39 +0.00    +0.066 A 
DOCKED: ATOM     16  C   UNL d   1      10.028  37.033  -3.892 -0.11 -0.00    -0.021 A 
DOCKED: ATOM     17  C   UNL d   1       8.658  36.928  -3.776 -0.28 +0.00    +0.000 A 
DOCKED: ATOM     18  C   UNL d   1       8.397  36.340  -2.540 -0.28 +0.01    +0.070 A 
DOCKED: ATOM     19  C   UNL d   1      10.764  37.638  -5.057 -0.39 -0.00    +0.052 C 
DOCKED: ATOM     20  C   UNL d   1       6.841  35.421  -0.812 -0.20 +0.01    +0.066 A 
DOCKED: ATOM     21  C   UNL d   1       5.569  35.338  -0.229 -0.26 -0.01    -0.025 A 
DOCKED: ATOM     22  C   UNL d   1       5.727  34.594   0.921 -0.38 -0.00    -0.021 A 
DOCKED: ATOM     23  C   UNL d   1       7.085  34.259   0.999 -0.36 +0.01    +0.066 A 
DOCKED: ATOM     24  C   UNL d   1       4.267  35.927  -0.720 -0.16 +0.02    +0.051 C 
DOCKED: ATOM     25  N   UNL d   1      10.049  33.879   1.435 -0.19 -0.04    -0.248 N 
DOCKED: ATOM     26  N   UNL d   1      11.843  35.100  -0.420 -0.14 -0.03    -0.248 N 
DOCKED: ATOM     27  N   UNL d   1       9.575  36.039  -1.914 -0.24 -0.04    -0.248 N 
DOCKED: ATOM     28  N   UNL d   1       7.767  34.804  -0.037 -0.21 -0.05    -0.248 N 
DOCKED: ATOM     29 FE   UNL d   1       9.803  34.953  -0.230 -0.08 +0.00    +0.000 Fe
DOCKED: ENDROOT
DOCKED: BRANCH   6  30
DOCKED: ATOM     30  C   UNL d   1       8.909  31.673   4.151 -0.57 +0.00    +0.052 C 
DOCKED: BRANCH  30  31
DOCKED: ATOM     31  C   UNL d   1       9.586  30.317   4.319 -0.54 +0.00    +0.115 C 
DOCKED: BRANCH  31  32
DOCKED: ATOM     32  C   UNL d   1       9.632  29.586   3.006 -0.19 +0.00    +0.139 C 
DOCKED: ATOM     33  O   UNL d   1      10.291  28.563   2.885 +0.20 -0.01    -0.650 OA
DOCKED: BRANCH  32  34
DOCKED: ATOM     34  O   UNL d   1       8.946  30.053   1.949 +0.06 -0.01    -0.776 OA
DOCKED: ATOM     35  H   UNL d   1       9.403  30.606   1.300 +0.11 -0.00    +0.167 HD
DOCKED: ENDBRANCH  32  34
DOCKED: ENDBRANCH  31  32
DOCKED: ENDBRANCH  30  31
DOCKED: ENDBRANCH   6  30
DOCKED: BRANCH  22  36
DOCKED: ATOM     36  C   UNL d   1       4.643  34.266   1.914 -0.28 +0.01    +0.052 C 
DOCKED: BRANCH  36  37
DOCKED: ATOM     37  C   UNL d   1       3.560  33.440   1.237 -0.24 +0.02    +0.115 C 
DOCKED: BRANCH  37  38
DOCKED: ATOM     38  C   UNL d   1       2.207  34.065   1.429 -0.18 +0.04    +0.139 C 
DOCKED: ATOM     39  O   UNL d   1       1.687  34.718   0.536 -0.02 -0.30    -0.650 OA
DOCKED: BRANCH  38  40
DOCKED: ATOM     40  O   UNL d   1       1.556  33.912   2.596 +0.02 -0.19    -0.776 OA
DOCKED: ATOM     41  H   UNL d   1       0.933  33.178   2.694 +0.05 +0.03    +0.167 HD
DOCKED: ENDBRANCH  38  40
DOCKED: ENDBRANCH  37  38
DOCKED: ENDBRANCH  36  37
DOCKED: ENDBRANCH  22  36
DOCKED: BRANCH  12  42
DOCKED: ATOM     42  C   UNL d   1      15.008  36.560  -1.768 -0.59 +0.00    +0.004 C 
DOCKED: ATOM     43  C   UNL d   1      15.240  37.864  -1.572 -0.63 +0.00    +0.012 C 
DOCKED: ENDBRANCH  12  42
DOCKED: BRANCH  17  44
DOCKED: ATOM     44  C   UNL d   1       7.663  37.343  -4.791 -0.28 +0.00    +0.004 C 
DOCKED: ATOM     45  C   UNL d   1       6.799  36.461  -5.304 -0.27 +0.00    +0.012 C 
DOCKED: ENDBRANCH  17  44
DOCKED: TORSDOF 10
DOCKED: TER
DOCKED: ENDMDL
________________________________________________________________________________


	BEGINNING GENETIC ALGORITHM DOCKING 77 of 100
Run: 77 Seed: 793387720 1368800400 [ Run 77 of 100 GA/GALS ]
Beginning LAMARCKIAN GENETIC ALGORITHM (LGA), with a maximum of 25000000 energy evaluations.

Final-Value: -15.557


	FINAL GENETIC ALGORITHM DOCKED STATE
	_______________________________________________


Detailed state:  trans 8.700 35.065 -1.219 quatxyzw 0.413828 0.209943 0.302881 0.832427 center -0.174 -0.001 -0.047 ntor 10 -89.7473 -87.7127 73.0442 -161.9002 135.6911 94.6120 -42.4091 -55.0101 141.5929 18.1233
State:	  8.700  35.065  -1.219   0.747  0.379  0.547 67.302    -89.75  -87.71   73.04 -161.90  135.69   94.61  -42.41  -55.01  141.59   18.12

DOCKED: MODEL       77
DOCKED: USER    Run = 77
DOCKED: USER    DPF = D:/Protein_go_brrr/autodock/final/2DN3/heme_Fe/dock.dpf
DOCKED: USER  
DOCKED: USER    Estimated Free Energy of Binding    =  -11.01 kcal/mol  [=(1)+(2)+(3)-(4)]
DOCKED: USER    Estimated Inhibition Constant, Ki   =    8.55 nM (nanomolar)  [Temperature = 298.15 K]
DOCKED: USER    
DOCKED: USER    (1) Final Intermolecular Energy     =  -13.99 kcal/mol
DOCKED: USER        vdW + Hbond + desolv Energy     =  -12.25 kcal/mol
DOCKED: USER        Electrostatic Energy            =   -1.74 kcal/mol
DOCKED: USER    (2) Final Total Internal Energy     =   -1.57 kcal/mol
DOCKED: USER    (3) Torsional Free Energy           =   +2.98 kcal/mol
DOCKED: USER    (4) Unbound System's Energy  [=(2)] =   -1.57 kcal/mol
DOCKED: USER    
DOCKED: USER    
DOCKED: USER    NEWDPF move heme_Fe_opt.pdbqt
DOCKED: USER    NEWDPF about -0.174000 -0.001000 -0.047000
DOCKED: USER    NEWDPF tran0 8.699621 35.065267 -1.219131
DOCKED: USER    NEWDPF quaternion0 0.413828 0.209943 0.302881 0.832427
DOCKED: USER    NEWDPF axisangle0 0.746799 0.378866 0.546583 67.302373
DOCKED: USER    NEWDPF quat0 0.746799 0.378866 0.546583 67.302373
DOCKED: USER    NEWDPF dihe0 -89.75 -87.71 73.04 -161.90 135.69 94.61 -42.41 -55.01 141.59 18.12 
DOCKED: USER  keepresnum = 1 
DOCKED: USER  
DOCKED: REMARK  10 active torsions:
DOCKED: REMARK  status: ('A' for Active; 'I' for Inactive)
DOCKED: REMARK    1  A    between atoms: C_6  and  C_10 
DOCKED: REMARK    2  A    between atoms: C_10  and  C_11 
DOCKED: REMARK    3  A    between atoms: C_11  and  C_12 
DOCKED: REMARK    4  A    between atoms: C_12  and  O_14 
DOCKED: REMARK    5  A    between atoms: C_17  and  C_20 
DOCKED: REMARK    6  A    between atoms: C_24  and  C_27 
DOCKED: REMARK    7  A    between atoms: C_31  and  C_34 
DOCKED: REMARK    8  A    between atoms: C_34  and  C_35 
DOCKED: REMARK    9  A    between atoms: C_35  and  C_36 
DOCKED: REMARK   10  A    between atoms: C_36  and  O_38 
DOCKED: USER                              x       y       z     vdW  Elec       q    Type
DOCKED: USER                           _______ _______ _______ _____ _____    ______ ____
DOCKED: ROOT
DOCKED: ATOM      1  C   UNL d   1       7.164  36.126  -2.072 -0.21 +0.01    +0.064 C 
DOCKED: ATOM      2  C   UNL d   1       7.589  33.185   1.877 -0.39 +0.01    +0.064 A 
DOCKED: ATOM      3  C   UNL d   1      12.366  33.556   1.554 -0.37 +0.00    +0.064 C 
DOCKED: ATOM      4  C   UNL d   1      11.980  36.319  -2.332 -0.46 +0.00    +0.064 C 
DOCKED: ATOM      5  C   UNL d   1       6.842  35.196  -0.981 -0.25 +0.01    +0.066 A 
DOCKED: ATOM      6  C   UNL d   1       5.566  34.761  -0.663 -0.28 -0.00    -0.021 A 
DOCKED: ATOM      7  C   UNL d   1       5.685  33.947   0.436 -0.31 -0.00    -0.025 A 
DOCKED: ATOM      8  C   UNL d   1       7.030  33.917   0.747 -0.34 +0.01    +0.066 A 
DOCKED: ATOM      9  C   UNL d   1       4.567  33.230   1.128 -0.23 +0.01    +0.051 C 
DOCKED: ATOM     10  C   UNL d   1       8.888  33.092   2.166 -0.37 +0.01    +0.066 A 
DOCKED: ATOM     11  C   UNL d   1       9.384  32.480   3.319 -0.42 -0.00    -0.021 A 
DOCKED: ATOM     12  C   UNL d   1      10.759  32.588   3.258 -0.42 +0.00    +0.000 A 
DOCKED: ATOM     13  C   UNL d   1      11.033  33.275   2.063 -0.35 +0.01    +0.070 A 
DOCKED: ATOM     14  C   UNL d   1       8.584  31.881   4.458 -0.35 +0.00    +0.052 C 
DOCKED: ATOM     15  C   UNL d   1      12.635  34.262   0.431 -0.33 +0.01    +0.066 A 
DOCKED: ATOM     16  C   UNL d   1      13.919  34.424  -0.075 -0.44 -0.00    -0.021 A 
DOCKED: ATOM     17  C   UNL d   1      13.810  35.223  -1.194 -0.44 +0.00    +0.000 A 
DOCKED: ATOM     18  C   UNL d   1      12.461  35.535  -1.343 -0.36 +0.01    +0.070 A 
DOCKED: ATOM     19  C   UNL d   1      15.202  33.871   0.484 -0.54 +0.00    +0.052 C 
DOCKED: ATOM     20  C   UNL d   1      10.561  36.618  -2.556 -0.38 +0.00    +0.066 A 
DOCKED: ATOM     21  C   UNL d   1      10.067  37.581  -3.447 -0.41 -0.00    -0.025 A 
DOCKED: ATOM     22  C   UNL d   1       8.692  37.500  -3.366 -0.35 -0.00    -0.021 A 
DOCKED: ATOM     23  C   UNL d   1       8.403  36.501  -2.429 -0.21 +0.01    +0.066 A 
DOCKED: ATOM     24  C   UNL d   1      10.839  38.535  -4.329 -0.22 -0.01    +0.051 C 
DOCKED: ATOM     25  N   UNL d   1       7.733  34.670  -0.122 -0.17 -0.05    -0.248 N 
DOCKED: ATOM     26  N   UNL d   1       9.893  33.590   1.401 -0.11 -0.03    -0.248 N 
DOCKED: ATOM     27  N   UNL d   1      11.732  34.909  -0.370 -0.09 -0.04    -0.248 N 
DOCKED: ATOM     28  N   UNL d   1       9.547  35.997  -1.906 -0.22 -0.04    -0.248 N 
DOCKED: ATOM     29 FE   UNL d   1       9.721  34.795  -0.254 -0.08 +0.00    +0.000 Fe
DOCKED: ENDROOT
DOCKED: BRANCH   6  30
DOCKED: ATOM     30  C   UNL d   1       4.299  35.084  -1.379 -0.22 +0.01    +0.052 C 
DOCKED: BRANCH  30  31
DOCKED: ATOM     31  C   UNL d   1       3.239  35.581  -0.403 -0.17 +0.06    +0.115 C 
DOCKED: BRANCH  31  32
DOCKED: ATOM     32  C   UNL d   1       2.501  36.757  -0.982 -0.01 +0.14    +0.139 C 
DOCKED: ATOM     33  O   UNL d   1       1.283  36.829  -0.901 -0.36 -1.04    -0.650 OA
DOCKED: BRANCH  32  34
DOCKED: ATOM     34  O   UNL d   1       3.178  37.742  -1.596 -0.04 -0.75    -0.776 OA
DOCKED: ATOM     35  H   UNL d   1       3.338  37.679  -2.548 +0.03 +0.10    +0.167 HD
DOCKED: ENDBRANCH  32  34
DOCKED: ENDBRANCH  31  32
DOCKED: ENDBRANCH  30  31
DOCKED: ENDBRANCH   6  30
DOCKED: BRANCH  22  36
DOCKED: ATOM     36  C   UNL d   1       7.714  38.370  -4.111 -0.30 +0.00    +0.052 C 
DOCKED: BRANCH  36  37
DOCKED: ATOM     37  C   UNL d   1       6.907  37.520  -5.082 -0.19 +0.01    +0.115 C 
DOCKED: BRANCH  37  38
DOCKED: ATOM     38  C   UNL d   1       5.433  37.673  -4.835 -0.10 +0.02    +0.139 C 
DOCKED: ATOM     39  O   UNL d   1       4.773  38.483  -5.469 +0.04 -0.11    -0.650 OA
DOCKED: BRANCH  38  40
DOCKED: ATOM     40  O   UNL d   1       4.826  36.915  -3.904 +0.05 -0.17    -0.776 OA
DOCKED: ATOM     41  H   UNL d   1       4.747  37.254  -3.001 +0.04 +0.05    +0.167 HD
DOCKED: ENDBRANCH  38  40
DOCKED: ENDBRANCH  37  38
DOCKED: ENDBRANCH  36  37
DOCKED: ENDBRANCH  22  36
DOCKED: BRANCH  12  42
DOCKED: ATOM     42  C   UNL d   1      11.705  32.076   4.297 -0.47 +0.00    +0.004 C 
DOCKED: ATOM     43  C   UNL d   1      12.645  31.173   3.988 -0.61 +0.00    +0.012 C 
DOCKED: ENDBRANCH  12  42
DOCKED: BRANCH  17  44
DOCKED: ATOM     44  C   UNL d   1      14.922  35.645  -2.076 -0.16 +0.00    +0.004 C 
DOCKED: ATOM     45  C   UNL d   1      15.361  36.908  -2.069 -0.64 +0.00    +0.012 C 
DOCKED: ENDBRANCH  17  44
DOCKED: TORSDOF 10
DOCKED: TER
DOCKED: ENDMDL
________________________________________________________________________________


	BEGINNING GENETIC ALGORITHM DOCKING 78 of 100
Run: 78 Seed: 101587827 747144316 [ Run 78 of 100 GA/GALS ]
Beginning LAMARCKIAN GENETIC ALGORITHM (LGA), with a maximum of 25000000 energy evaluations.

Final-Value: -17.389


	FINAL GENETIC ALGORITHM DOCKED STATE
	_______________________________________________


Detailed state:  trans 41.591 28.614 16.099 quatxyzw 0.218022 0.097068 -0.949910 0.201778 center -0.174 -0.001 -0.047 ntor 10 -34.7014 -64.7740 59.9058 -140.6316 90.8665 -164.7725 -54.0993 44.3708 162.4713 161.4525
State:	 41.591  28.614  16.099   0.223  0.099 -0.970 156.718    -34.70  -64.77   59.91 -140.63   90.87 -164.77  -54.10   44.37  162.47  161.45

DOCKED: MODEL       78
DOCKED: USER    Run = 78
DOCKED: USER    DPF = D:/Protein_go_brrr/autodock/final/2DN3/heme_Fe/dock.dpf
DOCKED: USER  
DOCKED: USER    Estimated Free Energy of Binding    =  -12.40 kcal/mol  [=(1)+(2)+(3)-(4)]
DOCKED: USER    Estimated Inhibition Constant, Ki   =  818.58 pM (picomolar)  [Temperature = 298.15 K]
DOCKED: USER    
DOCKED: USER    (1) Final Intermolecular Energy     =  -15.38 kcal/mol
DOCKED: USER        vdW + Hbond + desolv Energy     =  -13.24 kcal/mol
DOCKED: USER        Electrostatic Energy            =   -2.14 kcal/mol
DOCKED: USER    (2) Final Total Internal Energy     =   -2.01 kcal/mol
DOCKED: USER    (3) Torsional Free Energy           =   +2.98 kcal/mol
DOCKED: USER    (4) Unbound System's Energy  [=(2)] =   -2.01 kcal/mol
DOCKED: USER    
DOCKED: USER    
DOCKED: USER    NEWDPF move heme_Fe_opt.pdbqt
DOCKED: USER    NEWDPF about -0.174000 -0.001000 -0.047000
DOCKED: USER    NEWDPF tran0 41.591171 28.613568 16.099321
DOCKED: USER    NEWDPF quaternion0 0.218022 0.097068 -0.949910 0.201778
DOCKED: USER    NEWDPF axisangle0 0.222601 0.099107 -0.969859 156.718073
DOCKED: USER    NEWDPF quat0 0.222601 0.099107 -0.969859 156.718073
DOCKED: USER    NEWDPF dihe0 -34.70 -64.77 59.91 -140.63 90.87 -164.77 -54.10 44.37 162.47 161.45 
DOCKED: USER  keepresnum = 1 
DOCKED: USER  
DOCKED: REMARK  10 active torsions:
DOCKED: REMARK  status: ('A' for Active; 'I' for Inactive)
DOCKED: REMARK    1  A    between atoms: C_6  and  C_10 
DOCKED: REMARK    2  A    between atoms: C_10  and  C_11 
DOCKED: REMARK    3  A    between atoms: C_11  and  C_12 
DOCKED: REMARK    4  A    between atoms: C_12  and  O_14 
DOCKED: REMARK    5  A    between atoms: C_17  and  C_20 
DOCKED: REMARK    6  A    between atoms: C_24  and  C_27 
DOCKED: REMARK    7  A    between atoms: C_31  and  C_34 
DOCKED: REMARK    8  A    between atoms: C_34  and  C_35 
DOCKED: REMARK    9  A    between atoms: C_35  and  C_36 
DOCKED: REMARK   10  A    between atoms: C_36  and  O_38 
DOCKED: USER                              x       y       z     vdW  Elec       q    Type
DOCKED: USER                           _______ _______ _______ _____ _____    ______ ____
DOCKED: ROOT
DOCKED: ATOM      1  C   UNL d   1      43.001  27.772  17.330 -0.26 +0.02    +0.064 C 
DOCKED: ATOM      2  C   UNL d   1      41.216  32.337  16.694 -0.40 +0.01    +0.064 A 
DOCKED: ATOM      3  C   UNL d   1      37.545  30.481  14.215 -0.14 +0.01    +0.064 C 
DOCKED: ATOM      4  C   UNL d   1      39.311  26.065  14.729 -0.46 +0.01    +0.064 C 
DOCKED: ATOM      5  C   UNL d   1      42.884  29.237  17.309 -0.26 +0.02    +0.066 A 
DOCKED: ATOM      6  C   UNL d   1      43.822  30.113  17.830 -0.31 -0.01    -0.021 A 
DOCKED: ATOM      7  C   UNL d   1      43.323  31.380  17.657 -0.28 -0.01    -0.025 A 
DOCKED: ATOM      8  C   UNL d   1      42.099  31.229  17.035 -0.37 +0.02    +0.066 A 
DOCKED: ATOM      9  C   UNL d   1      44.001  32.657  18.051 -0.09 +0.01    +0.051 C 
DOCKED: ATOM     10  C   UNL d   1      40.057  32.223  16.043 -0.38 +0.01    +0.066 A 
DOCKED: ATOM     11  C   UNL d   1      39.179  33.289  15.832 -0.40 -0.00    -0.021 A 
DOCKED: ATOM     12  C   UNL d   1      38.104  32.776  15.134 -0.39 +0.00    +0.000 A 
DOCKED: ATOM     13  C   UNL d   1      38.381  31.409  14.961 -0.32 +0.01    +0.070 A 
DOCKED: ATOM     14  C   UNL d   1      39.324  34.712  16.331 -0.52 +0.01    +0.052 C 
DOCKED: ATOM     15  C   UNL d   1      37.780  29.154  14.090 -0.35 +0.01    +0.066 A 
DOCKED: ATOM     16  C   UNL d   1      37.013  28.320  13.287 -0.45 -0.00    -0.021 A 
DOCKED: ATOM     17  C   UNL d   1      37.518  27.045  13.436 -0.45 +0.00    +0.000 A 
DOCKED: ATOM     18  C   UNL d   1      38.582  27.131  14.332 -0.37 +0.01    +0.070 A 
DOCKED: ATOM     19  C   UNL d   1      35.834  28.699  12.431 -0.64 +0.01    +0.052 C 
DOCKED: ATOM     20  C   UNL d   1      40.475  26.126  15.621 -0.36 +0.02    +0.066 A 
DOCKED: ATOM     21  C   UNL d   1      41.113  25.019  16.197 -0.33 -0.01    -0.025 A 
DOCKED: ATOM     22  C   UNL d   1      42.169  25.527  16.924 -0.36 -0.01    -0.021 A 
DOCKED: ATOM     23  C   UNL d   1      42.131  26.918  16.769 -0.33 +0.02    +0.066 A 
DOCKED: ATOM     24  C   UNL d   1      40.753  23.556  16.079 -0.42 +0.01    +0.051 C 
DOCKED: ATOM     25  N   UNL d   1      41.839  29.924  16.817 -0.12 -0.08    -0.248 N 
DOCKED: ATOM     26  N   UNL d   1      39.567  31.069  15.522 -0.08 -0.06    -0.248 N 
DOCKED: ATOM     27  N   UNL d   1      38.771  28.433  14.700 -0.14 -0.06    -0.248 N 
DOCKED: ATOM     28  N   UNL d   1      41.068  27.281  16.009 -0.25 -0.08    -0.248 N 
DOCKED: ATOM     29 FE   UNL d   1      40.317  29.173  15.765 -0.08 +0.00    +0.000 Fe
DOCKED: ENDROOT
DOCKED: BRANCH   6  30
DOCKED: ATOM     30  C   UNL d   1      45.136  29.767  18.444 -0.25 +0.02    +0.052 C 
DOCKED: BRANCH  30  31
DOCKED: ATOM     31  C   UNL d   1      45.102  29.986  19.952 -0.17 +0.09    +0.115 C 
DOCKED: BRANCH  31  32
DOCKED: ATOM     32  C   UNL d   1      45.525  28.738  20.675 +0.01 +0.18    +0.139 C 
DOCKED: ATOM     33  O   UNL d   1      46.699  28.551  20.962 -0.31 -0.90    -0.650 OA
DOCKED: BRANCH  32  34
DOCKED: ATOM     34  O   UNL d   1      44.612  27.812  21.013 +0.05 -1.01    -0.776 OA
DOCKED: ATOM     35  H   UNL d   1      44.861  26.877  20.994 +0.05 +0.17    +0.167 HD
DOCKED: ENDBRANCH  32  34
DOCKED: ENDBRANCH  31  32
DOCKED: ENDBRANCH  30  31
DOCKED: ENDBRANCH   6  30
DOCKED: BRANCH  22  36
DOCKED: ATOM     36  C   UNL d   1      43.130  24.723  17.759 -0.37 +0.02    +0.052 C 
DOCKED: BRANCH  36  37
DOCKED: ATOM     37  C   UNL d   1      42.754  24.839  19.229 -0.39 +0.04    +0.115 C 
DOCKED: BRANCH  37  38
DOCKED: ATOM     38  C   UNL d   1      43.973  25.050  20.082 -0.27 +0.08    +0.139 C 
DOCKED: ATOM     39  O   UNL d   1      43.923  24.894  21.293 -0.31 -0.39    -0.650 OA
DOCKED: BRANCH  38  40
DOCKED: ATOM     40  O   UNL d   1      45.135  25.418  19.513 +0.08 -0.44    -0.776 OA
DOCKED: ATOM     41  H   UNL d   1      45.508  26.285  19.725 +0.06 +0.11    +0.167 HD
DOCKED: ENDBRANCH  38  40
DOCKED: ENDBRANCH  37  38
DOCKED: ENDBRANCH  36  37
DOCKED: ENDBRANCH  22  36
DOCKED: BRANCH  12  42
DOCKED: ATOM     42  C   UNL d   1      36.910  33.566  14.699 -0.36 +0.00    +0.004 C 
DOCKED: ATOM     43  C   UNL d   1      36.722  33.878  13.410 -0.52 +0.00    +0.012 C 
DOCKED: ENDBRANCH  12  42
DOCKED: BRANCH  17  44
DOCKED: ATOM     44  C   UNL d   1      37.029  25.827  12.751 -0.54 +0.00    +0.004 C 
DOCKED: ATOM     45  C   UNL d   1      36.025  25.109  13.265 -0.69 +0.00    +0.012 C 
DOCKED: ENDBRANCH  17  44
DOCKED: TORSDOF 10
DOCKED: TER
DOCKED: ENDMDL
________________________________________________________________________________


	BEGINNING GENETIC ALGORITHM DOCKING 79 of 100
Run: 79 Seed: 1076527180 1037437733 [ Run 79 of 100 GA/GALS ]
Beginning LAMARCKIAN GENETIC ALGORITHM (LGA), with a maximum of 25000000 energy evaluations.

Final-Value: -17.868


	FINAL GENETIC ALGORITHM DOCKED STATE
	_______________________________________________


Detailed state:  trans 41.794 28.804 16.255 quatxyzw 0.236270 0.095421 -0.949834 0.181348 center -0.174 -0.001 -0.047 ntor 10 -114.7109 -120.8572 65.6695 -141.7577 104.4672 178.9301 -36.7215 -76.1106 -171.3964 -31.7817
State:	 41.794  28.804  16.255   0.240  0.097 -0.966 159.103   -114.71 -120.86   65.67 -141.76  104.47  178.93  -36.72  -76.11 -171.40  -31.78

DOCKED: MODEL       79
DOCKED: USER    Run = 79
DOCKED: USER    DPF = D:/Protein_go_brrr/autodock/final/2DN3/heme_Fe/dock.dpf
DOCKED: USER  
DOCKED: USER    Estimated Free Energy of Binding    =  -13.23 kcal/mol  [=(1)+(2)+(3)-(4)]
DOCKED: USER    Estimated Inhibition Constant, Ki   =  201.41 pM (picomolar)  [Temperature = 298.15 K]
DOCKED: USER    
DOCKED: USER    (1) Final Intermolecular Energy     =  -16.21 kcal/mol
DOCKED: USER        vdW + Hbond + desolv Energy     =  -13.60 kcal/mol
DOCKED: USER        Electrostatic Energy            =   -2.61 kcal/mol
DOCKED: USER    (2) Final Total Internal Energy     =   -1.66 kcal/mol
DOCKED: USER    (3) Torsional Free Energy           =   +2.98 kcal/mol
DOCKED: USER    (4) Unbound System's Energy  [=(2)] =   -1.66 kcal/mol
DOCKED: USER    
DOCKED: USER    
DOCKED: USER    NEWDPF move heme_Fe_opt.pdbqt
DOCKED: USER    NEWDPF about -0.174000 -0.001000 -0.047000
DOCKED: USER    NEWDPF tran0 41.793595 28.803557 16.254520
DOCKED: USER    NEWDPF quaternion0 0.236270 0.095421 -0.949834 0.181348
DOCKED: USER    NEWDPF axisangle0 0.240254 0.097030 -0.965849 159.103452
DOCKED: USER    NEWDPF quat0 0.240254 0.097030 -0.965849 159.103452
DOCKED: USER    NEWDPF dihe0 -114.71 -120.86 65.67 -141.76 104.47 178.93 -36.72 -76.11 -171.40 -31.78 
DOCKED: USER  keepresnum = 1 
DOCKED: USER  
DOCKED: REMARK  10 active torsions:
DOCKED: REMARK  status: ('A' for Active; 'I' for Inactive)
DOCKED: REMARK    1  A    between atoms: C_6  and  C_10 
DOCKED: REMARK    2  A    between atoms: C_10  and  C_11 
DOCKED: REMARK    3  A    between atoms: C_11  and  C_12 
DOCKED: REMARK    4  A    between atoms: C_12  and  O_14 
DOCKED: REMARK    5  A    between atoms: C_17  and  C_20 
DOCKED: REMARK    6  A    between atoms: C_24  and  C_27 
DOCKED: REMARK    7  A    between atoms: C_31  and  C_34 
DOCKED: REMARK    8  A    between atoms: C_34  and  C_35 
DOCKED: REMARK    9  A    between atoms: C_35  and  C_36 
DOCKED: REMARK   10  A    between atoms: C_36  and  O_38 
DOCKED: USER                              x       y       z     vdW  Elec       q    Type
DOCKED: USER                           _______ _______ _______ _____ _____    ______ ____
DOCKED: ROOT
DOCKED: ATOM      1  C   UNL d   1      43.184  28.035  17.554 -0.20 +0.02    +0.064 C 
DOCKED: ATOM      2  C   UNL d   1      41.269  32.522  16.760 -0.41 +0.01    +0.064 A 
DOCKED: ATOM      3  C   UNL d   1      37.761  30.493  14.182 -0.30 +0.01    +0.064 C 
DOCKED: ATOM      4  C   UNL d   1      39.656  26.152  14.850 -0.46 +0.01    +0.064 C 
DOCKED: ATOM      5  C   UNL d   1      43.017  29.494  17.500 -0.26 +0.02    +0.066 A 
DOCKED: ATOM      6  C   UNL d   1      43.904  30.412  18.038 -0.31 -0.01    -0.021 A 
DOCKED: ATOM      7  C   UNL d   1      43.369  31.657  17.820 -0.31 -0.01    -0.025 A 
DOCKED: ATOM      8  C   UNL d   1      42.176  31.452  17.156 -0.37 +0.02    +0.066 A 
DOCKED: ATOM      9  C   UNL d   1      43.987  32.964  18.214 -0.22 +0.01    +0.051 C 
DOCKED: ATOM     10  C   UNL d   1      40.140  32.356  16.068 -0.39 +0.01    +0.066 A 
DOCKED: ATOM     11  C   UNL d   1      39.235  33.386  15.803 -0.42 -0.00    -0.021 A 
DOCKED: ATOM     12  C   UNL d   1      38.206  32.823  15.075 -0.39 +0.00    +0.000 A 
DOCKED: ATOM     13  C   UNL d   1      38.535  31.463  14.940 -0.35 +0.01    +0.070 A 
DOCKED: ATOM     14  C   UNL d   1      39.312  34.823  16.278 -0.50 +0.01    +0.052 C 
DOCKED: ATOM     15  C   UNL d   1      38.046  29.173  14.092 -0.33 +0.01    +0.066 A 
DOCKED: ATOM     16  C   UNL d   1      37.339  28.297  13.278 -0.45 -0.00    -0.021 A 
DOCKED: ATOM     17  C   UNL d   1      37.882  27.044  13.472 -0.45 +0.00    +0.000 A 
DOCKED: ATOM     18  C   UNL d   1      38.907  27.184  14.405 -0.34 +0.02    +0.070 A 
DOCKED: ATOM     19  C   UNL d   1      36.181  28.619  12.371 -0.62 +0.01    +0.052 C 
DOCKED: ATOM     20  C   UNL d   1      40.782  26.270  15.784 -0.37 +0.02    +0.066 A 
DOCKED: ATOM     21  C   UNL d   1      41.435  25.197  16.406 -0.40 -0.01    -0.025 A 
DOCKED: ATOM     22  C   UNL d   1      42.445  25.755  17.162 -0.35 -0.01    -0.021 A 
DOCKED: ATOM     23  C   UNL d   1      42.365  27.141  16.978 -0.32 +0.02    +0.066 A 
DOCKED: ATOM     24  C   UNL d   1      41.130  23.720  16.304 -0.47 +0.01    +0.051 C 
DOCKED: ATOM     25  N   UNL d   1      41.969  30.135  16.954 -0.20 -0.08    -0.248 N 
DOCKED: ATOM     26  N   UNL d   1      39.710  31.176  15.553 -0.18 -0.06    -0.248 N 
DOCKED: ATOM     27  N   UNL d   1      39.037  28.499  14.754 +0.02 -0.08    -0.248 N 
DOCKED: ATOM     28  N   UNL d   1      41.320  27.452  16.172 -0.25 -0.08    -0.248 N 
DOCKED: ATOM     29 FE   UNL d   1      40.514  29.312  15.862 -0.08 +0.00    +0.000 Fe
DOCKED: ENDROOT
DOCKED: BRANCH   6  30
DOCKED: ATOM     30  C   UNL d   1      45.204  30.124  18.707 -0.25 +0.02    +0.052 C 
DOCKED: BRANCH  30  31
DOCKED: ATOM     31  C   UNL d   1      44.987  29.738  20.166 -0.07 +0.10    +0.115 C 
DOCKED: BRANCH  31  32
DOCKED: ATOM     32  C   UNL d   1      45.963  28.671  20.579 -0.15 +0.16    +0.139 C 
DOCKED: ATOM     33  O   UNL d   1      46.928  28.945  21.278 -0.54 -1.02    -0.650 OA
DOCKED: BRANCH  32  34
DOCKED: ATOM     34  O   UNL d   1      45.782  27.400  20.180 +0.05 -0.66    -0.776 OA
DOCKED: ATOM     35  H   UNL d   1      45.844  27.191  19.237 +0.05 +0.10    +0.167 HD
DOCKED: ENDBRANCH  32  34
DOCKED: ENDBRANCH  31  32
DOCKED: ENDBRANCH  30  31
DOCKED: ENDBRANCH   6  30
DOCKED: BRANCH  22  36
DOCKED: ATOM     36  C   UNL d   1      43.400  25.001  18.049 -0.34 +0.02    +0.052 C 
DOCKED: BRANCH  36  37
DOCKED: ATOM     37  C   UNL d   1      44.283  24.098  17.201 -0.17 +0.07    +0.115 C 
DOCKED: BRANCH  37  38
DOCKED: ATOM     38  C   UNL d   1      45.656  24.686  17.037 -0.20 +0.11    +0.139 C 
DOCKED: ATOM     39  O   UNL d   1      46.518  24.095  16.404 -0.27 -1.04    -0.650 OA
DOCKED: BRANCH  38  40
DOCKED: ATOM     40  O   UNL d   1      45.948  25.874  17.595 +0.05 -0.46    -0.776 OA
DOCKED: ATOM     41  H   UNL d   1      45.860  25.978  18.553 +0.06 +0.09    +0.167 HD
DOCKED: ENDBRANCH  38  40
DOCKED: ENDBRANCH  37  38
DOCKED: ENDBRANCH  36  37
DOCKED: ENDBRANCH  22  36
DOCKED: BRANCH  12  42
DOCKED: ATOM     42  C   UNL d   1      37.003  33.562  14.580 -0.41 +0.00    +0.004 C 
DOCKED: ATOM     43  C   UNL d   1      36.797  33.744  13.269 -0.52 +0.00    +0.012 C 
DOCKED: ENDBRANCH  12  42
DOCKED: BRANCH  17  44
DOCKED: ATOM     44  C   UNL d   1      37.461  25.798  12.793 -0.53 +0.00    +0.004 C 
DOCKED: ATOM     45  C   UNL d   1      36.478  25.042  13.295 -0.66 +0.00    +0.012 C 
DOCKED: ENDBRANCH  17  44
DOCKED: TORSDOF 10
DOCKED: TER
DOCKED: ENDMDL
________________________________________________________________________________


	BEGINNING GENETIC ALGORITHM DOCKING 80 of 100
Run: 80 Seed: 1927778545 1959907424 [ Run 80 of 100 GA/GALS ]
Beginning LAMARCKIAN GENETIC ALGORITHM (LGA), with a maximum of 25000000 energy evaluations.

Final-Value: -15.403


	FINAL GENETIC ALGORITHM DOCKED STATE
	_______________________________________________


Detailed state:  trans 8.496 35.415 -0.529 quatxyzw -0.869554 0.265814 -0.123065 0.397585 center -0.174 -0.001 -0.047 ntor 10 -59.4661 -149.4192 47.9472 -110.5555 127.2137 150.8729 -57.9075 -60.0375 -175.8952 -32.6478
State:	  8.496  35.415  -0.529  -0.948  0.290 -0.134 133.145    -59.47 -149.42   47.95 -110.56  127.21  150.87  -57.91  -60.04 -175.90  -32.65

DOCKED: MODEL       80
DOCKED: USER    Run = 80
DOCKED: USER    DPF = D:/Protein_go_brrr/autodock/final/2DN3/heme_Fe/dock.dpf
DOCKED: USER  
DOCKED: USER    Estimated Free Energy of Binding    =  -10.81 kcal/mol  [=(1)+(2)+(3)-(4)]
DOCKED: USER    Estimated Inhibition Constant, Ki   =   11.96 nM (nanomolar)  [Temperature = 298.15 K]
DOCKED: USER    
DOCKED: USER    (1) Final Intermolecular Energy     =  -13.79 kcal/mol
DOCKED: USER        vdW + Hbond + desolv Energy     =  -12.20 kcal/mol
DOCKED: USER        Electrostatic Energy            =   -1.59 kcal/mol
DOCKED: USER    (2) Final Total Internal Energy     =   -1.61 kcal/mol
DOCKED: USER    (3) Torsional Free Energy           =   +2.98 kcal/mol
DOCKED: USER    (4) Unbound System's Energy  [=(2)] =   -1.61 kcal/mol
DOCKED: USER    
DOCKED: USER    
DOCKED: USER    NEWDPF move heme_Fe_opt.pdbqt
DOCKED: USER    NEWDPF about -0.174000 -0.001000 -0.047000
DOCKED: USER    NEWDPF tran0 8.495830 35.414677 -0.529353
DOCKED: USER    NEWDPF quaternion0 -0.869554 0.265814 -0.123065 0.397585
DOCKED: USER    NEWDPF axisangle0 -0.947675 0.289695 -0.134121 133.145380
DOCKED: USER    NEWDPF quat0 -0.947675 0.289695 -0.134121 133.145380
DOCKED: USER    NEWDPF dihe0 -59.47 -149.42 47.95 -110.56 127.21 150.87 -57.91 -60.04 -175.90 -32.65 
DOCKED: USER  keepresnum = 1 
DOCKED: USER  
DOCKED: REMARK  10 active torsions:
DOCKED: REMARK  status: ('A' for Active; 'I' for Inactive)
DOCKED: REMARK    1  A    between atoms: C_6  and  C_10 
DOCKED: REMARK    2  A    between atoms: C_10  and  C_11 
DOCKED: REMARK    3  A    between atoms: C_11  and  C_12 
DOCKED: REMARK    4  A    between atoms: C_12  and  O_14 
DOCKED: REMARK    5  A    between atoms: C_17  and  C_20 
DOCKED: REMARK    6  A    between atoms: C_24  and  C_27 
DOCKED: REMARK    7  A    between atoms: C_31  and  C_34 
DOCKED: REMARK    8  A    between atoms: C_34  and  C_35 
DOCKED: REMARK    9  A    between atoms: C_35  and  C_36 
DOCKED: REMARK   10  A    between atoms: C_36  and  O_38 
DOCKED: USER                              x       y       z     vdW  Elec       q    Type
DOCKED: USER                           _______ _______ _______ _____ _____    ______ ____
DOCKED: ROOT
DOCKED: ATOM      1  C   UNL d   1       6.889  35.766  -1.757 -0.03 +0.01    +0.064 C 
DOCKED: ATOM      2  C   UNL d   1      11.776  36.386  -2.158 -0.37 +0.00    +0.064 A 
DOCKED: ATOM      3  C   UNL d   1      12.381  33.549   1.670 -0.30 +0.00    +0.064 C 
DOCKED: ATOM      4  C   UNL d   1       7.650  33.021   2.140 -0.47 +0.01    +0.064 C 
DOCKED: ATOM      5  C   UNL d   1       8.205  36.271  -2.174 -0.20 +0.01    +0.066 A 
DOCKED: ATOM      6  C   UNL d   1       8.412  37.202  -3.178 -0.33 -0.00    -0.021 A 
DOCKED: ATOM      7  C   UNL d   1       9.769  37.371  -3.292 -0.39 -0.00    -0.025 A 
DOCKED: ATOM      8  C   UNL d   1      10.339  36.535  -2.351 -0.37 +0.01    +0.066 A 
DOCKED: ATOM      9  C   UNL d   1      10.468  38.298  -4.239 -0.49 -0.00    +0.051 C 
DOCKED: ATOM     10  C   UNL d   1      12.351  35.631  -1.220 -0.35 +0.01    +0.066 A 
DOCKED: ATOM     11  C   UNL d   1      13.729  35.418  -1.133 -0.42 -0.00    -0.021 A 
DOCKED: ATOM     12  C   UNL d   1      13.928  34.589  -0.047 -0.45 +0.00    +0.000 A 
DOCKED: ATOM     13  C   UNL d   1      12.648  34.330   0.473 -0.34 +0.01    +0.070 A 
DOCKED: ATOM     14  C   UNL d   1      14.798  35.923  -2.080 -0.38 +0.01    +0.052 C 
DOCKED: ATOM     15  C   UNL d   1      11.148  33.254   2.145 -0.36 +0.00    +0.066 A 
DOCKED: ATOM     16  C   UNL d   1      10.936  32.589   3.346 -0.41 -0.00    -0.021 A 
DOCKED: ATOM     17  C   UNL d   1       9.572  32.433   3.482 -0.43 +0.00    +0.000 A 
DOCKED: ATOM     18  C   UNL d   1       8.983  33.003   2.356 -0.36 +0.01    +0.070 A 
DOCKED: ATOM     19  C   UNL d   1      11.975  32.097   4.318 -0.31 +0.00    +0.052 C 
DOCKED: ATOM     20  C   UNL d   1       6.990  33.665   0.998 -0.34 +0.01    +0.066 A 
DOCKED: ATOM     21  C   UNL d   1       5.638  33.521   0.657 -0.25 -0.00    -0.025 A 
DOCKED: ATOM     22  C   UNL d   1       5.440  34.322  -0.449 -0.28 -0.00    -0.021 A 
DOCKED: ATOM     23  C   UNL d   1       6.674  34.915  -0.741 -0.28 +0.01    +0.066 A 
DOCKED: ATOM     24  C   UNL d   1       4.581  32.675   1.327 +0.04 +0.00    +0.051 C 
DOCKED: ATOM     25  N   UNL d   1       9.385  35.875  -1.666 -0.16 -0.05    -0.248 N 
DOCKED: ATOM     26  N   UNL d   1      11.686  34.958  -0.247 -0.10 -0.04    -0.248 N 
DOCKED: ATOM     27  N   UNL d   1       9.948  33.546   1.555 -0.22 -0.03    -0.248 N 
DOCKED: ATOM     28  N   UNL d   1       7.626  34.475   0.118 -0.18 -0.05    -0.248 N 
DOCKED: ATOM     29 FE   UNL d   1       9.655  34.715  -0.064 -0.08 +0.00    +0.000 Fe
DOCKED: ENDROOT
DOCKED: BRANCH   6  30
DOCKED: ATOM     30  C   UNL d   1       7.373  37.913  -3.977 -0.28 +0.00    +0.052 C 
DOCKED: BRANCH  30  31
DOCKED: ATOM     31  C   UNL d   1       6.963  37.085  -5.190 -0.21 +0.01    +0.115 C 
DOCKED: BRANCH  31  32
DOCKED: ATOM     32  C   UNL d   1       5.485  36.813  -5.165 -0.15 +0.02    +0.139 C 
DOCKED: ATOM     33  O   UNL d   1       4.786  37.079  -6.133 +0.01 -0.09    -0.650 OA
DOCKED: BRANCH  32  34
DOCKED: ATOM     34  O   UNL d   1       4.916  36.272  -4.075 +0.04 -0.15    -0.776 OA
DOCKED: ATOM     35  H   UNL d   1       4.216  36.760  -3.619 +0.04 +0.05    +0.167 HD
DOCKED: ENDBRANCH  32  34
DOCKED: ENDBRANCH  31  32
DOCKED: ENDBRANCH  30  31
DOCKED: ENDBRANCH   6  30
DOCKED: BRANCH  22  36
DOCKED: ATOM     36  C   UNL d   1       4.148  34.469  -1.209 -0.22 +0.01    +0.052 C 
DOCKED: BRANCH  36  37
DOCKED: ATOM     37  C   UNL d   1       3.094  35.102  -0.312 -0.19 +0.05    +0.115 C 
DOCKED: BRANCH  37  38
DOCKED: ATOM     38  C   UNL d   1       2.617  36.408  -0.882 -0.08 +0.12    +0.139 C 
DOCKED: ATOM     39  O   UNL d   1       1.482  36.807  -0.664 -0.27 -1.06    -0.650 OA
DOCKED: BRANCH  38  40
DOCKED: ATOM     40  O   UNL d   1       3.441  37.150  -1.643 +0.03 -0.55    -0.776 OA
DOCKED: ATOM     41  H   UNL d   1       4.114  36.706  -2.177 +0.05 +0.07    +0.167 HD
DOCKED: ENDBRANCH  38  40
DOCKED: ENDBRANCH  37  38
DOCKED: ENDBRANCH  36  37
DOCKED: ENDBRANCH  22  36
DOCKED: BRANCH  12  42
DOCKED: ATOM     42  C   UNL d   1      15.260  34.089   0.415 -0.64 +0.00    +0.004 C 
DOCKED: ATOM     43  C   UNL d   1      15.929  34.714   1.392 -0.53 +0.00    +0.012 C 
DOCKED: ENDBRANCH  12  42
DOCKED: BRANCH  17  44
DOCKED: ATOM     44  C   UNL d   1       8.878  31.798   4.625 -0.57 -0.00    +0.004 C 
DOCKED: ATOM     45  C   UNL d   1       9.165  30.544   4.990 -0.63 -0.00    +0.012 C 
DOCKED: ENDBRANCH  17  44
DOCKED: TORSDOF 10
DOCKED: TER
DOCKED: ENDMDL
________________________________________________________________________________


	BEGINNING GENETIC ALGORITHM DOCKING 81 of 100
Run: 81 Seed: 1448628382 1451730275 [ Run 81 of 100 GA/GALS ]
Beginning LAMARCKIAN GENETIC ALGORITHM (LGA), with a maximum of 25000000 energy evaluations.

Final-Value: -11.215


	FINAL GENETIC ALGORITHM DOCKED STATE
	_______________________________________________


Detailed state:  trans 28.970 39.127 0.034 quatxyzw 0.334104 -0.572832 -0.657892 -0.356954 center -0.174 -0.001 -0.047 ntor 10 92.6639 6.6377 -152.7255 -150.5174 -177.3414 -115.8331 -34.3608 -72.2077 -168.1619 6.9452
State:	 28.970  39.127   0.034   0.358 -0.613 -0.704 -138.173     92.66    6.64 -152.73 -150.52 -177.34 -115.83  -34.36  -72.21 -168.16    6.95

DOCKED: MODEL       81
DOCKED: USER    Run = 81
DOCKED: USER    DPF = D:/Protein_go_brrr/autodock/final/2DN3/heme_Fe/dock.dpf
DOCKED: USER  
DOCKED: USER    Estimated Free Energy of Binding    =   -6.02 kcal/mol  [=(1)+(2)+(3)-(4)]
DOCKED: USER    Estimated Inhibition Constant, Ki   =   38.97 uM (micromolar)  [Temperature = 298.15 K]
DOCKED: USER    
DOCKED: USER    (1) Final Intermolecular Energy     =   -9.00 kcal/mol
DOCKED: USER        vdW + Hbond + desolv Energy     =   -7.25 kcal/mol
DOCKED: USER        Electrostatic Energy            =   -1.75 kcal/mol
DOCKED: USER    (2) Final Total Internal Energy     =   -2.22 kcal/mol
DOCKED: USER    (3) Torsional Free Energy           =   +2.98 kcal/mol
DOCKED: USER    (4) Unbound System's Energy  [=(2)] =   -2.22 kcal/mol
DOCKED: USER    
DOCKED: USER    
DOCKED: USER    NEWDPF move heme_Fe_opt.pdbqt
DOCKED: USER    NEWDPF about -0.174000 -0.001000 -0.047000
DOCKED: USER    NEWDPF tran0 28.970158 39.127424 0.033521
DOCKED: USER    NEWDPF quaternion0 0.334104 -0.572832 -0.657892 -0.356954
DOCKED: USER    NEWDPF axisangle0 0.357666 -0.613231 -0.704289 -138.173494
DOCKED: USER    NEWDPF quat0 0.357666 -0.613231 -0.704289 -138.173494
DOCKED: USER    NEWDPF dihe0 92.66 6.64 -152.73 -150.52 -177.34 -115.83 -34.36 -72.21 -168.16 6.95 
DOCKED: USER  keepresnum = 1 
DOCKED: USER  
DOCKED: REMARK  10 active torsions:
DOCKED: REMARK  status: ('A' for Active; 'I' for Inactive)
DOCKED: REMARK    1  A    between atoms: C_6  and  C_10 
DOCKED: REMARK    2  A    between atoms: C_10  and  C_11 
DOCKED: REMARK    3  A    between atoms: C_11  and  C_12 
DOCKED: REMARK    4  A    between atoms: C_12  and  O_14 
DOCKED: REMARK    5  A    between atoms: C_17  and  C_20 
DOCKED: REMARK    6  A    between atoms: C_24  and  C_27 
DOCKED: REMARK    7  A    between atoms: C_31  and  C_34 
DOCKED: REMARK    8  A    between atoms: C_34  and  C_35 
DOCKED: REMARK    9  A    between atoms: C_35  and  C_36 
DOCKED: REMARK   10  A    between atoms: C_36  and  O_38 
DOCKED: USER                              x       y       z     vdW  Elec       q    Type
DOCKED: USER                           _______ _______ _______ _____ _____    ______ ____
DOCKED: ROOT
DOCKED: ATOM      1  C   UNL d   1      29.548  41.095   0.100 -0.10 +0.02    +0.064 C 
DOCKED: ATOM      2  C   UNL d   1      27.517  38.178  -3.335 -0.17 +0.01    +0.064 A 
DOCKED: ATOM      3  C   UNL d   1      26.478  34.980   0.095 -0.26 +0.01    +0.064 C 
DOCKED: ATOM      4  C   UNL d   1      28.532  37.741   3.419 -0.27 -0.02    +0.064 C 
DOCKED: ATOM      5  C   UNL d   1      29.147  40.533  -1.197 -0.10 +0.01    +0.066 A 
DOCKED: ATOM      6  C   UNL d   1      29.390  41.127  -2.425 -0.06 -0.00    -0.021 A 
DOCKED: ATOM      7  C   UNL d   1      28.822  40.318  -3.378 -0.09 -0.00    -0.025 A 
DOCKED: ATOM      8  C   UNL d   1      28.254  39.260  -2.695 -0.14 +0.01    +0.066 A 
DOCKED: ATOM      9  C   UNL d   1      28.846  40.547  -4.859 -0.05 +0.01    +0.051 C 
DOCKED: ATOM     10  C   UNL d   1      27.010  37.117  -2.705 -0.18 +0.01    +0.066 A 
DOCKED: ATOM     11  C   UNL d   1      26.210  36.156  -3.328 -0.21 -0.00    -0.021 A 
DOCKED: ATOM     12  C   UNL d   1      25.883  35.231  -2.356 -0.23 +0.00    +0.000 A 
DOCKED: ATOM     13  C   UNL d   1      26.500  35.685  -1.177 -0.09 +0.01    +0.070 A 
DOCKED: ATOM     14  C   UNL d   1      25.724  36.154  -4.763 -0.16 +0.00    +0.052 C 
DOCKED: ATOM     15  C   UNL d   1      27.026  35.439   1.245 -0.23 +0.01    +0.066 A 
DOCKED: ATOM     16  C   UNL d   1      27.072  34.691   2.415 -0.30 -0.01    -0.021 A 
DOCKED: ATOM     17  C   UNL d   1      27.660  35.486   3.376 -0.27 +0.00    +0.000 A 
DOCKED: ATOM     18  C   UNL d   1      27.957  36.705   2.769 -0.21 +0.00    +0.070 A 
DOCKED: ATOM     19  C   UNL d   1      26.559  33.292   2.630 -0.35 +0.03    +0.052 C 
DOCKED: ATOM     20  C   UNL d   1      28.915  39.015   2.799 -0.21 -0.01    +0.066 A 
DOCKED: ATOM     21  C   UNL d   1      29.324  40.163   3.493 -0.30 +0.00    -0.025 A 
DOCKED: ATOM     22  C   UNL d   1      29.620  41.102   2.527 -0.22 -0.00    -0.021 A 
DOCKED: ATOM     23  C   UNL d   1      29.376  40.496   1.289 -0.12 +0.01    +0.066 A 
DOCKED: ATOM     24  C   UNL d   1      29.429  40.375   4.985 -0.20 -0.04    +0.051 C 
DOCKED: ATOM     25  N   UNL d   1      28.462  39.389  -1.369 -0.08 -0.04    -0.248 N 
DOCKED: ATOM     26  N   UNL d   1      27.179  36.839  -1.387 -0.10 -0.03    -0.248 N 
DOCKED: ATOM     27  N   UNL d   1      27.608  36.661   1.449 -0.12 -0.03    -0.248 N 
DOCKED: ATOM     28  N   UNL d   1      28.903  39.238   1.462 -0.08 -0.02    -0.248 N 
DOCKED: ATOM     29 FE   UNL d   1      28.041  38.038   0.039 -0.05 +0.00    +0.000 Fe
DOCKED: ENDROOT
DOCKED: BRANCH   6  30
DOCKED: ATOM     30  C   UNL d   1      30.141  42.388  -2.684 -0.02 +0.01    +0.052 C 
DOCKED: BRANCH  30  31
DOCKED: ATOM     31  C   UNL d   1      29.271  43.605  -2.391 -0.03 +0.03    +0.115 C 
DOCKED: BRANCH  31  32
DOCKED: ATOM     32  C   UNL d   1      30.105  44.728  -1.840 -0.03 +0.05    +0.139 C 
DOCKED: ATOM     33  O   UNL d   1      29.585  45.780  -1.495 +0.04 -0.24    -0.650 OA
DOCKED: BRANCH  32  34
DOCKED: ATOM     34  O   UNL d   1      31.436  44.584  -1.720 +0.02 -0.48    -0.776 OA
DOCKED: ATOM     35  H   UNL d   1      31.794  44.190  -0.912 +0.02 +0.15    +0.167 HD
DOCKED: ENDBRANCH  32  34
DOCKED: ENDBRANCH  31  32
DOCKED: ENDBRANCH  30  31
DOCKED: ENDBRANCH   6  30
DOCKED: BRANCH  22  36
DOCKED: ATOM     36  C   UNL d   1      30.066  42.517   2.784 -0.25 +0.02    +0.052 C 
DOCKED: BRANCH  36  37
DOCKED: ATOM     37  C   UNL d   1      31.561  42.639   2.528 -0.26 +0.07    +0.115 C 
DOCKED: BRANCH  37  38
DOCKED: ATOM     38  C   UNL d   1      31.830  43.389   1.254 -0.08 +0.16    +0.139 C 
DOCKED: ATOM     39  O   UNL d   1      32.377  42.841   0.309 +0.03 -0.66    -0.650 OA
DOCKED: BRANCH  38  40
DOCKED: ATOM     40  O   UNL d   1      31.470  44.681   1.147 -0.25 -1.03    -0.776 OA
DOCKED: ATOM     41  H   UNL d   1      31.564  45.126   0.293 +0.03 +0.23    +0.167 HD
DOCKED: ENDBRANCH  38  40
DOCKED: ENDBRANCH  37  38
DOCKED: ENDBRANCH  36  37
DOCKED: ENDBRANCH  22  36
DOCKED: BRANCH  12  42
DOCKED: ATOM     42  C   UNL d   1      25.026  34.025  -2.575 -0.30 -0.00    +0.004 C 
DOCKED: ATOM     43  C   UNL d   1      23.762  33.988  -2.132 -0.51 -0.00    +0.012 C 
DOCKED: ENDBRANCH  12  42
DOCKED: BRANCH  17  44
DOCKED: ATOM     44  C   UNL d   1      27.940  35.098   4.777 -0.33 +0.00    +0.004 C 
DOCKED: ATOM     45  C   UNL d   1      27.094  35.425   5.759 -0.39 -0.00    +0.012 C 
DOCKED: ENDBRANCH  17  44
DOCKED: TORSDOF 10
DOCKED: TER
DOCKED: ENDMDL
________________________________________________________________________________


	BEGINNING GENETIC ALGORITHM DOCKING 82 of 100
Run: 82 Seed: 1206595005 2086087302 [ Run 82 of 100 GA/GALS ]
Beginning LAMARCKIAN GENETIC ALGORITHM (LGA), with a maximum of 25000000 energy evaluations.

Final-Value: -10.308


	FINAL GENETIC ALGORITHM DOCKED STATE
	_______________________________________________


Detailed state:  trans 26.666 44.015 -1.430 quatxyzw 0.231850 -0.842103 -0.090844 0.478389 center -0.174 -0.001 -0.047 ntor 10 74.1420 -50.1996 65.8315 32.6201 116.0410 105.5329 -40.5866 63.1649 177.5343 -180.0000
State:	 26.666  44.015  -1.430   0.264 -0.959 -0.103 122.840     74.14  -50.20   65.83   32.62  116.04  105.53  -40.59   63.16  177.53 -180.00

DOCKED: MODEL       82
DOCKED: USER    Run = 82
DOCKED: USER    DPF = D:/Protein_go_brrr/autodock/final/2DN3/heme_Fe/dock.dpf
DOCKED: USER  
DOCKED: USER    Estimated Free Energy of Binding    =   -5.31 kcal/mol  [=(1)+(2)+(3)-(4)]
DOCKED: USER    Estimated Inhibition Constant, Ki   =  128.19 uM (micromolar)  [Temperature = 298.15 K]
DOCKED: USER    
DOCKED: USER    (1) Final Intermolecular Energy     =   -8.29 kcal/mol
DOCKED: USER        vdW + Hbond + desolv Energy     =   -6.64 kcal/mol
DOCKED: USER        Electrostatic Energy            =   -1.65 kcal/mol
DOCKED: USER    (2) Final Total Internal Energy     =   -2.02 kcal/mol
DOCKED: USER    (3) Torsional Free Energy           =   +2.98 kcal/mol
DOCKED: USER    (4) Unbound System's Energy  [=(2)] =   -2.02 kcal/mol
DOCKED: USER    
DOCKED: USER    
DOCKED: USER    NEWDPF move heme_Fe_opt.pdbqt
DOCKED: USER    NEWDPF about -0.174000 -0.001000 -0.047000
DOCKED: USER    NEWDPF tran0 26.665771 44.015415 -1.429831
DOCKED: USER    NEWDPF quaternion0 0.231850 -0.842103 -0.090844 0.478389
DOCKED: USER    NEWDPF axisangle0 0.264021 -0.958953 -0.103450 122.839556
DOCKED: USER    NEWDPF quat0 0.264021 -0.958953 -0.103450 122.839556
DOCKED: USER    NEWDPF dihe0 74.14 -50.20 65.83 32.62 116.04 105.53 -40.59 63.16 177.53 -180.00 
DOCKED: USER  keepresnum = 1 
DOCKED: USER  
DOCKED: REMARK  10 active torsions:
DOCKED: REMARK  status: ('A' for Active; 'I' for Inactive)
DOCKED: REMARK    1  A    between atoms: C_6  and  C_10 
DOCKED: REMARK    2  A    between atoms: C_10  and  C_11 
DOCKED: REMARK    3  A    between atoms: C_11  and  C_12 
DOCKED: REMARK    4  A    between atoms: C_12  and  O_14 
DOCKED: REMARK    5  A    between atoms: C_17  and  C_20 
DOCKED: REMARK    6  A    between atoms: C_24  and  C_27 
DOCKED: REMARK    7  A    between atoms: C_31  and  C_34 
DOCKED: REMARK    8  A    between atoms: C_34  and  C_35 
DOCKED: REMARK    9  A    between atoms: C_35  and  C_36 
DOCKED: REMARK   10  A    between atoms: C_36  and  O_38 
DOCKED: USER                              x       y       z     vdW  Elec       q    Type
DOCKED: USER                           _______ _______ _______ _____ _____    ______ ____
DOCKED: ROOT
DOCKED: ATOM      1  C   UNL d   1      27.961  44.765  -0.026 -0.17 +0.03    +0.064 C 
DOCKED: ATOM      2  C   UNL d   1      27.813  40.671  -2.791 -0.12 +0.01    +0.064 A 
DOCKED: ATOM      3  C   UNL d   1      24.451  42.729  -5.535 -0.09 +0.01    +0.064 C 
DOCKED: ATOM      4  C   UNL d   1      24.503  46.660  -2.809 -0.17 +0.01    +0.064 C 
DOCKED: ATOM      5  C   UNL d   1      28.171  43.390  -0.500 -0.14 +0.02    +0.066 A 
DOCKED: ATOM      6  C   UNL d   1      28.990  42.457   0.116 -0.12 -0.01    -0.021 A 
DOCKED: ATOM      7  C   UNL d   1      28.951  41.322  -0.655 -0.12 -0.01    -0.025 A 
DOCKED: ATOM      8  C   UNL d   1      28.109  41.605  -1.713 -0.13 +0.01    +0.066 A 
DOCKED: ATOM      9  C   UNL d   1      29.670  40.038  -0.373 -0.10 +0.01    +0.051 C 
DOCKED: ATOM     10  C   UNL d   1      26.960  40.898  -3.792 -0.13 +0.01    +0.066 A 
DOCKED: ATOM     11  C   UNL d   1      26.784  40.030  -4.872 -0.17 -0.00    -0.021 A 
DOCKED: ATOM     12  C   UNL d   1      25.831  40.609  -5.687 -0.18 +0.00    +0.000 A 
DOCKED: ATOM     13  C   UNL d   1      25.478  41.816  -5.059 -0.10 +0.01    +0.070 A 
DOCKED: ATOM     14  C   UNL d   1      27.536  38.744  -5.150 -0.10 +0.01    +0.052 C 
DOCKED: ATOM     15  C   UNL d   1      24.144  43.917  -4.963 -0.21 +0.01    +0.066 A 
DOCKED: ATOM     16  C   UNL d   1      23.089  44.714  -5.389 -0.22 -0.00    -0.021 A 
DOCKED: ATOM     17  C   UNL d   1      23.104  45.850  -4.606 -0.22 +0.00    +0.000 A 
DOCKED: ATOM     18  C   UNL d   1      24.173  45.721  -3.722 -0.20 +0.01    +0.070 A 
DOCKED: ATOM     19  C   UNL d   1      22.118  44.433  -6.504 -0.23 +0.01    +0.052 C 
DOCKED: ATOM     20  C   UNL d   1      25.582  46.532  -1.822 -0.03 +0.01    +0.066 A 
DOCKED: ATOM     21  C   UNL d   1      26.063  47.568  -1.009 -0.09 -0.01    -0.025 A 
DOCKED: ATOM     22  C   UNL d   1      27.039  47.003  -0.215 -0.11 -0.01    -0.021 A 
DOCKED: ATOM     23  C   UNL d   1      27.120  45.653  -0.577 -0.12 +0.02    +0.066 A 
DOCKED: ATOM     24  C   UNL d   1      25.636  49.017  -0.976 -0.06 +0.01    +0.051 C 
DOCKED: ATOM     25  N   UNL d   1      27.628  42.860  -1.610 -0.10 -0.06    -0.248 N 
DOCKED: ATOM     26  N   UNL d   1      26.172  41.997  -3.909 -0.15 -0.05    -0.248 N 
DOCKED: ATOM     27  N   UNL d   1      24.786  44.514  -3.911 -0.17 -0.04    -0.248 N 
DOCKED: ATOM     28  N   UNL d   1      26.260  45.382  -1.589 -0.08 -0.07    -0.248 N 
DOCKED: ATOM     29 FE   UNL d   1      26.215  43.691  -2.749 -0.04 +0.00    +0.000 Fe
DOCKED: ENDROOT
DOCKED: BRANCH   6  30
DOCKED: ATOM     30  C   UNL d   1      29.755  42.627   1.384 -0.17 +0.02    +0.052 C 
DOCKED: BRANCH  30  31
DOCKED: ATOM     31  C   UNL d   1      31.175  43.104   1.098 -0.15 +0.09    +0.115 C 
DOCKED: BRANCH  31  32
DOCKED: ATOM     32  C   UNL d   1      31.593  44.141   2.103 -0.18 +0.16    +0.139 C 
DOCKED: ATOM     33  O   UNL d   1      32.518  43.925   2.874 -0.37 -0.96    -0.650 OA
DOCKED: BRANCH  32  34
DOCKED: ATOM     34  O   UNL d   1      30.951  45.320   2.163 -0.05 -0.70    -0.776 OA
DOCKED: ATOM     35  H   UNL d   1      31.388  46.111   1.817 -0.30 +0.15    +0.167 HD
DOCKED: ENDBRANCH  32  34
DOCKED: ENDBRANCH  31  32
DOCKED: ENDBRANCH  30  31
DOCKED: ENDBRANCH   6  30
DOCKED: BRANCH  22  36
DOCKED: ATOM     36  C   UNL d   1      27.880  47.732   0.799 -0.11 +0.02    +0.052 C 
DOCKED: BRANCH  36  37
DOCKED: ATOM     37  C   UNL d   1      29.054  48.406   0.104 -0.07 +0.03    +0.115 C 
DOCKED: BRANCH  37  38
DOCKED: ATOM     38  C   UNL d   1      30.361  47.854   0.598 -0.16 +0.05    +0.139 C 
DOCKED: ATOM     39  O   UNL d   1      31.018  47.091  -0.094 -0.10 -0.40    -0.650 OA
DOCKED: BRANCH  38  40
DOCKED: ATOM     40  O   UNL d   1      30.817  48.197   1.816 +0.09 -0.06    -0.776 OA
DOCKED: ATOM     41  H   UNL d   1      31.099  47.500   2.425 -0.40 -0.02    +0.167 HD
DOCKED: ENDBRANCH  38  40
DOCKED: ENDBRANCH  37  38
DOCKED: ENDBRANCH  36  37
DOCKED: ENDBRANCH  22  36
DOCKED: BRANCH  12  42
DOCKED: ATOM     42  C   UNL d   1      25.336  40.027  -6.972 -0.12 +0.00    +0.004 C 
DOCKED: ATOM     43  C   UNL d   1      24.070  39.610  -7.098 -0.17 +0.00    +0.012 C 
DOCKED: ENDBRANCH  12  42
DOCKED: BRANCH  17  44
DOCKED: ATOM     44  C   UNL d   1      22.146  46.976  -4.686 -0.19 +0.00    +0.004 C 
DOCKED: ATOM     45  C   UNL d   1      20.994  46.943  -4.008 -0.33 -0.00    +0.012 C 
DOCKED: ENDBRANCH  17  44
DOCKED: TORSDOF 10
DOCKED: TER
DOCKED: ENDMDL
________________________________________________________________________________


	BEGINNING GENETIC ALGORITHM DOCKING 83 of 100
Run: 83 Seed: 922020163 1417781137 [ Run 83 of 100 GA/GALS ]
Beginning LAMARCKIAN GENETIC ALGORITHM (LGA), with a maximum of 25000000 energy evaluations.

Final-Value: -14.802


	FINAL GENETIC ALGORITHM DOCKED STATE
	_______________________________________________


Detailed state:  trans 8.533 35.647 -0.586 quatxyzw -0.870301 0.281890 -0.116597 0.386679 center -0.174 -0.001 -0.047 ntor 10 -97.4941 141.6162 45.2349 -108.2094 37.2586 -45.1850 -54.3927 -58.4756 27.7846 -43.1308
State:	  8.533  35.647  -0.586  -0.944  0.306 -0.126 134.504    -97.49  141.62   45.23 -108.21   37.26  -45.19  -54.39  -58.48   27.78  -43.13

DOCKED: MODEL       83
DOCKED: USER    Run = 83
DOCKED: USER    DPF = D:/Protein_go_brrr/autodock/final/2DN3/heme_Fe/dock.dpf
DOCKED: USER  
DOCKED: USER    Estimated Free Energy of Binding    =  -11.36 kcal/mol  [=(1)+(2)+(3)-(4)]
DOCKED: USER    Estimated Inhibition Constant, Ki   =    4.73 nM (nanomolar)  [Temperature = 298.15 K]
DOCKED: USER    
DOCKED: USER    (1) Final Intermolecular Energy     =  -14.34 kcal/mol
DOCKED: USER        vdW + Hbond + desolv Energy     =  -12.72 kcal/mol
DOCKED: USER        Electrostatic Energy            =   -1.62 kcal/mol
DOCKED: USER    (2) Final Total Internal Energy     =   -0.46 kcal/mol
DOCKED: USER    (3) Torsional Free Energy           =   +2.98 kcal/mol
DOCKED: USER    (4) Unbound System's Energy  [=(2)] =   -0.46 kcal/mol
DOCKED: USER    
DOCKED: USER    
DOCKED: USER    NEWDPF move heme_Fe_opt.pdbqt
DOCKED: USER    NEWDPF about -0.174000 -0.001000 -0.047000
DOCKED: USER    NEWDPF tran0 8.532970 35.647266 -0.586456
DOCKED: USER    NEWDPF quaternion0 -0.870301 0.281890 -0.116597 0.386679
DOCKED: USER    NEWDPF axisangle0 -0.943707 0.305666 -0.126431 134.504031
DOCKED: USER    NEWDPF quat0 -0.943707 0.305666 -0.126431 134.504031
DOCKED: USER    NEWDPF dihe0 -97.49 141.62 45.23 -108.21 37.26 -45.19 -54.39 -58.48 27.78 -43.13 
DOCKED: USER  keepresnum = 1 
DOCKED: USER  
DOCKED: REMARK  10 active torsions:
DOCKED: REMARK  status: ('A' for Active; 'I' for Inactive)
DOCKED: REMARK    1  A    between atoms: C_6  and  C_10 
DOCKED: REMARK    2  A    between atoms: C_10  and  C_11 
DOCKED: REMARK    3  A    between atoms: C_11  and  C_12 
DOCKED: REMARK    4  A    between atoms: C_12  and  O_14 
DOCKED: REMARK    5  A    between atoms: C_17  and  C_20 
DOCKED: REMARK    6  A    between atoms: C_24  and  C_27 
DOCKED: REMARK    7  A    between atoms: C_31  and  C_34 
DOCKED: REMARK    8  A    between atoms: C_34  and  C_35 
DOCKED: REMARK    9  A    between atoms: C_35  and  C_36 
DOCKED: REMARK   10  A    between atoms: C_36  and  O_38 
DOCKED: USER                              x       y       z     vdW  Elec       q    Type
DOCKED: USER                           _______ _______ _______ _____ _____    ______ ____
DOCKED: ROOT
DOCKED: ATOM      1  C   UNL d   1       6.947  36.080  -1.815 +0.17 +0.01    +0.064 C 
DOCKED: ATOM      2  C   UNL d   1      11.853  36.563  -2.166 -0.36 +0.00    +0.064 A 
DOCKED: ATOM      3  C   UNL d   1      12.344  33.607   1.588 -0.34 +0.00    +0.064 C 
DOCKED: ATOM      4  C   UNL d   1       7.595  33.209   2.012 -0.46 +0.01    +0.064 C 
DOCKED: ATOM      5  C   UNL d   1       8.280  36.556  -2.209 -0.06 +0.01    +0.066 A 
DOCKED: ATOM      6  C   UNL d   1       8.522  37.507  -3.187 -0.34 -0.00    -0.021 A 
DOCKED: ATOM      7  C   UNL d   1       9.885  37.638  -3.286 -0.35 -0.00    -0.025 A 
DOCKED: ATOM      8  C   UNL d   1      10.423  36.761  -2.364 -0.37 +0.01    +0.066 A 
DOCKED: ATOM      9  C   UNL d   1      10.618  38.569  -4.203 -0.36 -0.01    +0.051 C 
DOCKED: ATOM     10  C   UNL d   1      12.398  35.766  -1.245 -0.36 +0.01    +0.066 A 
DOCKED: ATOM     11  C   UNL d   1      13.768  35.509  -1.155 -0.42 -0.00    -0.021 A 
DOCKED: ATOM     12  C   UNL d   1      13.934  34.646  -0.090 -0.45 +0.00    +0.000 A 
DOCKED: ATOM     13  C   UNL d   1      12.643  34.412   0.414 -0.33 +0.01    +0.070 A 
DOCKED: ATOM     14  C   UNL d   1      14.859  36.008  -2.080 -0.43 +0.01    +0.052 C 
DOCKED: ATOM     15  C   UNL d   1      11.099  33.336   2.046 -0.35 +0.01    +0.066 A 
DOCKED: ATOM     16  C   UNL d   1      10.859  32.647   3.228 -0.39 -0.00    -0.021 A 
DOCKED: ATOM     17  C   UNL d   1       9.490  32.528   3.350 -0.42 +0.00    +0.000 A 
DOCKED: ATOM     18  C   UNL d   1       8.926  33.145   2.236 -0.36 +0.01    +0.070 A 
DOCKED: ATOM     19  C   UNL d   1      11.874  32.097   4.193 -0.38 +0.00    +0.052 C 
DOCKED: ATOM     20  C   UNL d   1       6.964  33.903   0.883 -0.35 +0.01    +0.066 A 
DOCKED: ATOM     21  C   UNL d   1       5.611  33.810   0.529 -0.28 -0.00    -0.025 A 
DOCKED: ATOM     22  C   UNL d   1       5.445  34.645  -0.556 -0.28 -0.00    -0.021 A 
DOCKED: ATOM     23  C   UNL d   1       6.699  35.208  -0.824 -0.24 +0.01    +0.066 A 
DOCKED: ATOM     24  C   UNL d   1       4.524  32.977   1.169 -0.02 +0.01    +0.051 C 
DOCKED: ATOM     25  N   UNL d   1       9.444  36.111  -1.704 -0.25 -0.05    -0.248 N 
DOCKED: ATOM     26  N   UNL d   1      11.705  35.087  -0.295 -0.14 -0.04    -0.248 N 
DOCKED: ATOM     27  N   UNL d   1       9.912  33.681   1.456 -0.22 -0.03    -0.248 N 
DOCKED: ATOM     28  N   UNL d   1       7.631  34.717   0.029 -0.23 -0.05    -0.248 N 
DOCKED: ATOM     29 FE   UNL d   1       9.667  34.901  -0.132 -0.08 +0.00    +0.000 Fe
DOCKED: ENDROOT
DOCKED: BRANCH   6  30
DOCKED: ATOM     30  C   UNL d   1       7.512  38.270  -3.973 -0.29 +0.00    +0.052 C 
DOCKED: BRANCH  30  31
DOCKED: ATOM     31  C   UNL d   1       7.620  39.764  -3.686 -0.33 +0.00    +0.115 C 
DOCKED: BRANCH  31  32
DOCKED: ATOM     32  C   UNL d   1       7.790  40.535  -4.965 -0.28 -0.01    +0.139 C 
DOCKED: ATOM     33  O   UNL d   1       7.201  40.193  -5.982 +0.06 +0.02    -0.650 OA
DOCKED: BRANCH  32  34
DOCKED: ATOM     34  O   UNL d   1       8.594  41.610  -5.003 +0.03 +0.19    -0.776 OA
DOCKED: ATOM     35  H   UNL d   1       9.546  41.481  -5.119 -0.47 -0.11    +0.167 HD
DOCKED: ENDBRANCH  32  34
DOCKED: ENDBRANCH  31  32
DOCKED: ENDBRANCH  30  31
DOCKED: ENDBRANCH   6  30
DOCKED: BRANCH  22  36
DOCKED: ATOM     36  C   UNL d   1       4.164  34.852  -1.320 -0.22 +0.01    +0.052 C 
DOCKED: BRANCH  36  37
DOCKED: ATOM     37  C   UNL d   1       3.051  35.246  -0.360 -0.19 +0.05    +0.115 C 
DOCKED: BRANCH  37  38
DOCKED: ATOM     38  C   UNL d   1       2.477  36.586  -0.723 +0.03 +0.14    +0.139 C 
DOCKED: ATOM     39  O   UNL d   1       3.209  37.526  -0.999 -0.05 -0.69    -0.650 OA
DOCKED: BRANCH  38  40
DOCKED: ATOM     40  O   UNL d   1       1.144  36.763  -0.741 -0.33 -1.30    -0.776 OA
DOCKED: ATOM     41  H   UNL d   1       0.581  36.052  -1.078 +0.02 +0.15    +0.167 HD
DOCKED: ENDBRANCH  38  40
DOCKED: ENDBRANCH  37  38
DOCKED: ENDBRANCH  36  37
DOCKED: ENDBRANCH  22  36
DOCKED: BRANCH  12  42
DOCKED: ATOM     42  C   UNL d   1      15.247  34.094   0.368 -0.64 +0.00    +0.004 C 
DOCKED: ATOM     43  C   UNL d   1      15.953  34.702   1.329 -0.52 +0.00    +0.012 C 
DOCKED: ENDBRANCH  12  42
DOCKED: BRANCH  17  44
DOCKED: ATOM     44  C   UNL d   1       8.768  31.883   4.470 -0.51 +0.00    +0.004 C 
DOCKED: ATOM     45  C   UNL d   1       9.047  30.627   4.833 -0.61 -0.00    +0.012 C 
DOCKED: ENDBRANCH  17  44
DOCKED: TORSDOF 10
DOCKED: TER
DOCKED: ENDMDL
________________________________________________________________________________


	BEGINNING GENETIC ALGORITHM DOCKING 84 of 100
Run: 84 Seed: 1141603162 766306516 [ Run 84 of 100 GA/GALS ]
Beginning LAMARCKIAN GENETIC ALGORITHM (LGA), with a maximum of 25000000 energy evaluations.

Final-Value: -14.937


	FINAL GENETIC ALGORITHM DOCKED STATE
	_______________________________________________


Detailed state:  trans 8.673 34.981 -1.204 quatxyzw -0.415969 -0.219222 -0.286804 -0.834659 center -0.174 -0.001 -0.047 ntor 10 63.4319 81.2570 65.7046 -161.6964 -161.9015 153.1460 37.3945 -59.9449 -180.0000 -177.9932
State:	  8.673  34.981  -1.204  -0.755 -0.398 -0.521 -66.839     63.43   81.26   65.70 -161.70 -161.90  153.15   37.39  -59.94 -180.00 -177.99

DOCKED: MODEL       84
DOCKED: USER    Run = 84
DOCKED: USER    DPF = D:/Protein_go_brrr/autodock/final/2DN3/heme_Fe/dock.dpf
DOCKED: USER  
DOCKED: USER    Estimated Free Energy of Binding    =  -11.29 kcal/mol  [=(1)+(2)+(3)-(4)]
DOCKED: USER    Estimated Inhibition Constant, Ki   =    5.34 nM (nanomolar)  [Temperature = 298.15 K]
DOCKED: USER    
DOCKED: USER    (1) Final Intermolecular Energy     =  -14.27 kcal/mol
DOCKED: USER        vdW + Hbond + desolv Energy     =  -13.06 kcal/mol
DOCKED: USER        Electrostatic Energy            =   -1.20 kcal/mol
DOCKED: USER    (2) Final Total Internal Energy     =   -0.67 kcal/mol
DOCKED: USER    (3) Torsional Free Energy           =   +2.98 kcal/mol
DOCKED: USER    (4) Unbound System's Energy  [=(2)] =   -0.67 kcal/mol
DOCKED: USER    
DOCKED: USER    
DOCKED: USER    NEWDPF move heme_Fe_opt.pdbqt
DOCKED: USER    NEWDPF about -0.174000 -0.001000 -0.047000
DOCKED: USER    NEWDPF tran0 8.673090 34.981113 -1.204232
DOCKED: USER    NEWDPF quaternion0 -0.415969 -0.219222 -0.286804 -0.834659
DOCKED: USER    NEWDPF axisangle0 -0.755253 -0.398030 -0.520736 -66.839370
DOCKED: USER    NEWDPF quat0 -0.755253 -0.398030 -0.520736 -66.839370
DOCKED: USER    NEWDPF dihe0 63.43 81.26 65.70 -161.70 -161.90 153.15 37.39 -59.94 -180.00 -177.99 
DOCKED: USER  keepresnum = 1 
DOCKED: USER  
DOCKED: REMARK  10 active torsions:
DOCKED: REMARK  status: ('A' for Active; 'I' for Inactive)
DOCKED: REMARK    1  A    between atoms: C_6  and  C_10 
DOCKED: REMARK    2  A    between atoms: C_10  and  C_11 
DOCKED: REMARK    3  A    between atoms: C_11  and  C_12 
DOCKED: REMARK    4  A    between atoms: C_12  and  O_14 
DOCKED: REMARK    5  A    between atoms: C_17  and  C_20 
DOCKED: REMARK    6  A    between atoms: C_24  and  C_27 
DOCKED: REMARK    7  A    between atoms: C_31  and  C_34 
DOCKED: REMARK    8  A    between atoms: C_34  and  C_35 
DOCKED: REMARK    9  A    between atoms: C_35  and  C_36 
DOCKED: REMARK   10  A    between atoms: C_36  and  O_38 
DOCKED: USER                              x       y       z     vdW  Elec       q    Type
DOCKED: USER                           _______ _______ _______ _____ _____    ______ ____
DOCKED: ROOT
DOCKED: ATOM      1  C   UNL d   1       7.102  35.976  -2.072 -0.23 +0.01    +0.064 C 
DOCKED: ATOM      2  C   UNL d   1       7.628  33.107   1.919 -0.39 +0.01    +0.064 A 
DOCKED: ATOM      3  C   UNL d   1      12.390  33.640   1.589 -0.32 +0.00    +0.064 C 
DOCKED: ATOM      4  C   UNL d   1      11.908  36.333  -2.336 -0.46 +0.00    +0.064 C 
DOCKED: ATOM      5  C   UNL d   1       6.812  35.050  -0.967 -0.26 +0.01    +0.066 A 
DOCKED: ATOM      6  C   UNL d   1       5.552  34.576  -0.643 -0.28 -0.00    -0.021 A 
DOCKED: ATOM      7  C   UNL d   1       5.699  33.782   0.468 -0.28 -0.00    -0.025 A 
DOCKED: ATOM      8  C   UNL d   1       7.045  33.803   0.779 -0.33 +0.01    +0.066 A 
DOCKED: ATOM      9  C   UNL d   1       4.606  33.036   1.170 -0.05 +0.01    +0.051 C 
DOCKED: ATOM     10  C   UNL d   1       8.930  33.064   2.208 -0.37 +0.01    +0.066 A 
DOCKED: ATOM     11  C   UNL d   1       9.447  32.485   3.370 -0.41 -0.00    -0.021 A 
DOCKED: ATOM     12  C   UNL d   1      10.817  32.641   3.307 -0.41 +0.00    +0.000 A 
DOCKED: ATOM     13  C   UNL d   1      11.067  33.320   2.102 -0.35 +0.01    +0.070 A 
DOCKED: ATOM     14  C   UNL d   1       8.668  31.875   4.517 -0.37 -0.00    +0.052 C 
DOCKED: ATOM     15  C   UNL d   1      12.634  34.339   0.455 -0.34 +0.01    +0.066 A 
DOCKED: ATOM     16  C   UNL d   1      13.911  34.538  -0.053 -0.44 -0.00    -0.021 A 
DOCKED: ATOM     17  C   UNL d   1      13.775  35.318  -1.183 -0.44 +0.00    +0.000 A 
DOCKED: ATOM     18  C   UNL d   1      12.415  35.580  -1.336 -0.36 +0.01    +0.070 A 
DOCKED: ATOM     19  C   UNL d   1      15.213  34.038   0.513 -0.61 +0.00    +0.052 C 
DOCKED: ATOM     20  C   UNL d   1      10.479  36.579  -2.564 -0.38 +0.01    +0.066 A 
DOCKED: ATOM     21  C   UNL d   1       9.952  37.512  -3.468 -0.42 -0.00    -0.025 A 
DOCKED: ATOM     22  C   UNL d   1       8.581  37.384  -3.385 -0.34 -0.00    -0.021 A 
DOCKED: ATOM     23  C   UNL d   1       8.326  36.388  -2.434 -0.23 +0.01    +0.066 A 
DOCKED: ATOM     24  C   UNL d   1      10.690  38.479  -4.363 -0.30 -0.01    +0.051 C 
DOCKED: ATOM     25  N   UNL d   1       7.721  34.567  -0.102 -0.11 -0.05    -0.248 N 
DOCKED: ATOM     26  N   UNL d   1       9.917  33.586   1.436 -0.18 -0.03    -0.248 N 
DOCKED: ATOM     27  N   UNL d   1      11.709  34.943  -0.354 -0.10 -0.04    -0.248 N 
DOCKED: ATOM     28  N   UNL d   1       9.487  35.932  -1.904 -0.20 -0.04    -0.248 N 
DOCKED: ATOM     29 FE   UNL d   1       9.703  34.760  -0.235 -0.08 +0.00    +0.000 Fe
DOCKED: ENDROOT
DOCKED: BRANCH   6  30
DOCKED: ATOM     30  C   UNL d   1       4.275  34.844  -1.363 -0.22 +0.01    +0.052 C 
DOCKED: BRANCH  30  31
DOCKED: ATOM     31  C   UNL d   1       3.581  36.076  -0.792 -0.21 +0.06    +0.115 C 
DOCKED: BRANCH  31  32
DOCKED: ATOM     32  C   UNL d   1       2.091  35.878  -0.772 -0.12 +0.11    +0.139 C 
DOCKED: ATOM     33  O   UNL d   1       1.337  36.836  -0.667 -0.31 -1.11    -0.650 OA
DOCKED: BRANCH  32  34
DOCKED: ATOM     34  O   UNL d   1       1.572  34.643  -0.869 +0.04 -0.32    -0.776 OA
DOCKED: ATOM     35  H   UNL d   1       1.023  34.423  -1.635 +0.03 +0.06    +0.167 HD
DOCKED: ENDBRANCH  32  34
DOCKED: ENDBRANCH  31  32
DOCKED: ENDBRANCH  30  31
DOCKED: ENDBRANCH   6  30
DOCKED: BRANCH  22  36
DOCKED: ATOM     36  C   UNL d   1       7.573  38.208  -4.142 -0.28 +0.00    +0.052 C 
DOCKED: BRANCH  36  37
DOCKED: ATOM     37  C   UNL d   1       7.376  39.546  -3.444 -0.32 +0.01    +0.115 C 
DOCKED: BRANCH  37  38
DOCKED: ATOM     38  C   UNL d   1       7.752  40.686  -4.348 -0.34 -0.00    +0.139 C 
DOCKED: ATOM     39  O   UNL d   1       7.242  41.788  -4.210 -0.03 -0.02    -0.650 OA
DOCKED: BRANCH  38  40
DOCKED: ATOM     40  O   UNL d   1       8.658  40.497  -5.325 +0.10 +0.21    -0.776 OA
DOCKED: ATOM     41  H   UNL d   1       9.573  40.773  -5.176 -0.46 -0.11    +0.167 HD
DOCKED: ENDBRANCH  38  40
DOCKED: ENDBRANCH  37  38
DOCKED: ENDBRANCH  36  37
DOCKED: ENDBRANCH  22  36
DOCKED: BRANCH  12  42
DOCKED: ATOM     42  C   UNL d   1      11.780  32.177   4.353 -0.36 +0.00    +0.004 C 
DOCKED: ATOM     43  C   UNL d   1      12.657  31.197   4.096 -0.61 +0.00    +0.012 C 
DOCKED: ENDBRANCH  12  42
DOCKED: BRANCH  17  44
DOCKED: ATOM     44  C   UNL d   1      14.872  35.765  -2.071 -0.28 +0.00    +0.004 C 
DOCKED: ATOM     45  C   UNL d   1      15.269  37.042  -2.079 -0.65 +0.00    +0.012 C 
DOCKED: ENDBRANCH  17  44
DOCKED: TORSDOF 10
DOCKED: TER
DOCKED: ENDMDL
________________________________________________________________________________


	BEGINNING GENETIC ALGORITHM DOCKING 85 of 100
Run: 85 Seed: 408793293 2139525482 [ Run 85 of 100 GA/GALS ]
Beginning LAMARCKIAN GENETIC ALGORITHM (LGA), with a maximum of 25000000 energy evaluations.

Final-Value: -17.378


	FINAL GENETIC ALGORITHM DOCKED STATE
	_______________________________________________


Detailed state:  trans 41.804 28.689 16.277 quatxyzw 0.235887 0.098033 -0.949509 0.182153 center -0.174 -0.001 -0.047 ntor 10 -145.9203 -72.7662 69.6090 -142.6519 78.6989 -115.8799 5.6598 30.1324 -175.5599 154.4943
State:	 41.804  28.689  16.277   0.240  0.100 -0.966 159.010   -145.92  -72.77   69.61 -142.65   78.70 -115.88    5.66   30.13 -175.56  154.49

DOCKED: MODEL       85
DOCKED: USER    Run = 85
DOCKED: USER    DPF = D:/Protein_go_brrr/autodock/final/2DN3/heme_Fe/dock.dpf
DOCKED: USER  
DOCKED: USER    Estimated Free Energy of Binding    =  -12.76 kcal/mol  [=(1)+(2)+(3)-(4)]
DOCKED: USER    Estimated Inhibition Constant, Ki   =  446.00 pM (picomolar)  [Temperature = 298.15 K]
DOCKED: USER    
DOCKED: USER    (1) Final Intermolecular Energy     =  -15.74 kcal/mol
DOCKED: USER        vdW + Hbond + desolv Energy     =  -13.61 kcal/mol
DOCKED: USER        Electrostatic Energy            =   -2.13 kcal/mol
DOCKED: USER    (2) Final Total Internal Energy     =   -1.64 kcal/mol
DOCKED: USER    (3) Torsional Free Energy           =   +2.98 kcal/mol
DOCKED: USER    (4) Unbound System's Energy  [=(2)] =   -1.64 kcal/mol
DOCKED: USER    
DOCKED: USER    
DOCKED: USER    NEWDPF move heme_Fe_opt.pdbqt
DOCKED: USER    NEWDPF about -0.174000 -0.001000 -0.047000
DOCKED: USER    NEWDPF tran0 41.803759 28.688664 16.276627
DOCKED: USER    NEWDPF quaternion0 0.235887 0.098033 -0.949509 0.182153
DOCKED: USER    NEWDPF axisangle0 0.239901 0.099701 -0.965664 159.009563
DOCKED: USER    NEWDPF quat0 0.239901 0.099701 -0.965664 159.009563
DOCKED: USER    NEWDPF dihe0 -145.92 -72.77 69.61 -142.65 78.70 -115.88 5.66 30.13 -175.56 154.49 
DOCKED: USER  keepresnum = 1 
DOCKED: USER  
DOCKED: REMARK  10 active torsions:
DOCKED: REMARK  status: ('A' for Active; 'I' for Inactive)
DOCKED: REMARK    1  A    between atoms: C_6  and  C_10 
DOCKED: REMARK    2  A    between atoms: C_10  and  C_11 
DOCKED: REMARK    3  A    between atoms: C_11  and  C_12 
DOCKED: REMARK    4  A    between atoms: C_12  and  O_14 
DOCKED: REMARK    5  A    between atoms: C_17  and  C_20 
DOCKED: REMARK    6  A    between atoms: C_24  and  C_27 
DOCKED: REMARK    7  A    between atoms: C_31  and  C_34 
DOCKED: REMARK    8  A    between atoms: C_34  and  C_35 
DOCKED: REMARK    9  A    between atoms: C_35  and  C_36 
DOCKED: REMARK   10  A    between atoms: C_36  and  O_38 
DOCKED: USER                              x       y       z     vdW  Elec       q    Type
DOCKED: USER                           _______ _______ _______ _____ _____    ______ ____
DOCKED: ROOT
DOCKED: ATOM      1  C   UNL d   1      43.193  27.912  17.572 -0.21 +0.02    +0.064 C 
DOCKED: ATOM      2  C   UNL d   1      41.280  32.404  16.802 -0.41 +0.01    +0.064 A 
DOCKED: ATOM      3  C   UNL d   1      37.772  30.391  14.213 -0.31 +0.01    +0.064 C 
DOCKED: ATOM      4  C   UNL d   1      39.665  26.045  14.857 -0.46 +0.01    +0.064 C 
DOCKED: ATOM      5  C   UNL d   1      43.027  29.372  17.526 -0.24 +0.02    +0.066 A 
DOCKED: ATOM      6  C   UNL d   1      43.914  30.286  18.069 -0.30 -0.01    -0.021 A 
DOCKED: ATOM      7  C   UNL d   1      43.380  31.533  17.859 -0.32 -0.01    -0.025 A 
DOCKED: ATOM      8  C   UNL d   1      42.186  31.332  17.193 -0.37 +0.02    +0.066 A 
DOCKED: ATOM      9  C   UNL d   1      43.998  32.838  18.260 -0.24 +0.01    +0.051 C 
DOCKED: ATOM     10  C   UNL d   1      40.152  32.242  16.110 -0.38 +0.01    +0.066 A 
DOCKED: ATOM     11  C   UNL d   1      39.247  33.274  15.850 -0.41 -0.00    -0.021 A 
DOCKED: ATOM     12  C   UNL d   1      38.217  32.716  15.119 -0.39 +0.00    +0.000 A 
DOCKED: ATOM     13  C   UNL d   1      38.547  31.357  14.976 -0.34 +0.01    +0.070 A 
DOCKED: ATOM     14  C   UNL d   1      39.325  34.708  16.333 -0.52 +0.01    +0.052 C 
DOCKED: ATOM     15  C   UNL d   1      38.057  29.071  14.116 -0.33 +0.01    +0.066 A 
DOCKED: ATOM     16  C   UNL d   1      37.350  28.201  13.296 -0.44 -0.00    -0.021 A 
DOCKED: ATOM     17  C   UNL d   1      37.892  26.946  13.483 -0.45 +0.00    +0.000 A 
DOCKED: ATOM     18  C   UNL d   1      38.917  27.080  14.417 -0.36 +0.01    +0.070 A 
DOCKED: ATOM     19  C   UNL d   1      36.192  28.528  12.391 -0.62 +0.01    +0.052 C 
DOCKED: ATOM     20  C   UNL d   1      40.791  26.158  15.792 -0.37 +0.02    +0.066 A 
DOCKED: ATOM     21  C   UNL d   1      41.444  25.081  16.408 -0.41 -0.01    -0.025 A 
DOCKED: ATOM     22  C   UNL d   1      42.454  25.635  17.167 -0.35 -0.01    -0.021 A 
DOCKED: ATOM     23  C   UNL d   1      42.374  27.022  16.991 -0.32 +0.02    +0.066 A 
DOCKED: ATOM     24  C   UNL d   1      41.138  23.605  16.298 -0.47 +0.01    +0.051 C 
DOCKED: ATOM     25  N   UNL d   1      41.979  30.016  16.984 -0.21 -0.08    -0.248 N 
DOCKED: ATOM     26  N   UNL d   1      39.721  31.066  15.588 -0.08 -0.06    -0.248 N 
DOCKED: ATOM     27  N   UNL d   1      39.048  28.393  14.774 -0.06 -0.07    -0.248 N 
DOCKED: ATOM     28  N   UNL d   1      41.330  27.338  16.186 -0.26 -0.08    -0.248 N 
DOCKED: ATOM     29 FE   UNL d   1      40.525  29.200  15.886 -0.08 +0.00    +0.000 Fe
DOCKED: ENDROOT
DOCKED: BRANCH   6  30
DOCKED: ATOM     30  C   UNL d   1      45.214  29.994  18.737 -0.25 +0.02    +0.052 C 
DOCKED: BRANCH  30  31
DOCKED: ATOM     31  C   UNL d   1      45.007  29.700  20.219 -0.05 +0.10    +0.115 C 
DOCKED: BRANCH  31  32
DOCKED: ATOM     32  C   UNL d   1      46.330  29.543  20.914 +0.36 +0.19    +0.139 C 
DOCKED: ATOM     33  O   UNL d   1      46.991  30.524  21.226 -0.23 -0.69    -0.650 OA
DOCKED: BRANCH  32  34
DOCKED: ATOM     34  O   UNL d   1      46.801  28.317  21.201 -0.36 -1.16    -0.776 OA
DOCKED: ATOM     35  H   UNL d   1      46.613  27.589  20.593 +0.04 +0.16    +0.167 HD
DOCKED: ENDBRANCH  32  34
DOCKED: ENDBRANCH  31  32
DOCKED: ENDBRANCH  30  31
DOCKED: ENDBRANCH   6  30
DOCKED: BRANCH  22  36
DOCKED: ATOM     36  C   UNL d   1      43.409  24.876  18.050 -0.35 +0.02    +0.052 C 
DOCKED: BRANCH  36  37
DOCKED: ATOM     37  C   UNL d   1      43.075  25.138  19.511 -0.33 +0.05    +0.115 C 
DOCKED: BRANCH  37  38
DOCKED: ATOM     38  C   UNL d   1      44.304  25.038  20.371 -0.25 +0.08    +0.139 C 
DOCKED: ATOM     39  O   UNL d   1      44.399  24.172  21.228 -0.49 -0.44    -0.650 OA
DOCKED: BRANCH  38  40
DOCKED: ATOM     40  O   UNL d   1      45.313  25.911  20.202 +0.08 -0.52    -0.776 OA
DOCKED: ATOM     41  H   UNL d   1      45.454  26.600  20.866 +0.05 +0.16    +0.167 HD
DOCKED: ENDBRANCH  38  40
DOCKED: ENDBRANCH  37  38
DOCKED: ENDBRANCH  36  37
DOCKED: ENDBRANCH  22  36
DOCKED: BRANCH  12  42
DOCKED: ATOM     42  C   UNL d   1      37.015  33.458  14.628 -0.39 +0.00    +0.004 C 
DOCKED: ATOM     43  C   UNL d   1      36.769  33.580  13.317 -0.51 +0.00    +0.012 C 
DOCKED: ENDBRANCH  12  42
DOCKED: BRANCH  17  44
DOCKED: ATOM     44  C   UNL d   1      37.470  25.703  12.797 -0.53 +0.00    +0.004 C 
DOCKED: ATOM     45  C   UNL d   1      36.500  24.936  13.305 -0.66 +0.00    +0.012 C 
DOCKED: ENDBRANCH  17  44
DOCKED: TORSDOF 10
DOCKED: TER
DOCKED: ENDMDL
________________________________________________________________________________


	BEGINNING GENETIC ALGORITHM DOCKING 86 of 100
Run: 86 Seed: 220149151 1824776666 [ Run 86 of 100 GA/GALS ]
Beginning LAMARCKIAN GENETIC ALGORITHM (LGA), with a maximum of 25000000 energy evaluations.

Final-Value: -15.473


	FINAL GENETIC ALGORITHM DOCKED STATE
	_______________________________________________


Detailed state:  trans 8.595 34.706 -0.858 quatxyzw -0.411312 -0.197602 -0.264964 -0.849453 center -0.174 -0.001 -0.047 ntor 10 -104.2950 -83.7800 70.1151 -158.5241 121.8808 168.2448 -46.6230 -70.6412 -180.0000 -25.9081
State:	  8.595  34.706  -0.858  -0.779 -0.374 -0.502 -63.696   -104.30  -83.78   70.12 -158.52  121.88  168.24  -46.62  -70.64 -180.00  -25.91

DOCKED: MODEL       86
DOCKED: USER    Run = 86
DOCKED: USER    DPF = D:/Protein_go_brrr/autodock/final/2DN3/heme_Fe/dock.dpf
DOCKED: USER  
DOCKED: USER    Estimated Free Energy of Binding    =  -10.84 kcal/mol  [=(1)+(2)+(3)-(4)]
DOCKED: USER    Estimated Inhibition Constant, Ki   =   11.41 nM (nanomolar)  [Temperature = 298.15 K]
DOCKED: USER    
DOCKED: USER    (1) Final Intermolecular Energy     =  -13.82 kcal/mol
DOCKED: USER        vdW + Hbond + desolv Energy     =  -12.60 kcal/mol
DOCKED: USER        Electrostatic Energy            =   -1.22 kcal/mol
DOCKED: USER    (2) Final Total Internal Energy     =   -1.65 kcal/mol
DOCKED: USER    (3) Torsional Free Energy           =   +2.98 kcal/mol
DOCKED: USER    (4) Unbound System's Energy  [=(2)] =   -1.65 kcal/mol
DOCKED: USER    
DOCKED: USER    
DOCKED: USER    NEWDPF move heme_Fe_opt.pdbqt
DOCKED: USER    NEWDPF about -0.174000 -0.001000 -0.047000
DOCKED: USER    NEWDPF tran0 8.594526 34.706142 -0.857508
DOCKED: USER    NEWDPF quaternion0 -0.411312 -0.197602 -0.264964 -0.849453
DOCKED: USER    NEWDPF axisangle0 -0.779496 -0.374484 -0.502144 -63.695602
DOCKED: USER    NEWDPF quat0 -0.779496 -0.374484 -0.502144 -63.695602
DOCKED: USER    NEWDPF dihe0 -104.30 -83.78 70.12 -158.52 121.88 168.24 -46.62 -70.64 -180.00 -25.91 
DOCKED: USER  keepresnum = 1 
DOCKED: USER  
DOCKED: REMARK  10 active torsions:
DOCKED: REMARK  status: ('A' for Active; 'I' for Inactive)
DOCKED: REMARK    1  A    between atoms: C_6  and  C_10 
DOCKED: REMARK    2  A    between atoms: C_10  and  C_11 
DOCKED: REMARK    3  A    between atoms: C_11  and  C_12 
DOCKED: REMARK    4  A    between atoms: C_12  and  O_14 
DOCKED: REMARK    5  A    between atoms: C_17  and  C_20 
DOCKED: REMARK    6  A    between atoms: C_24  and  C_27 
DOCKED: REMARK    7  A    between atoms: C_31  and  C_34 
DOCKED: REMARK    8  A    between atoms: C_34  and  C_35 
DOCKED: REMARK    9  A    between atoms: C_35  and  C_36 
DOCKED: REMARK   10  A    between atoms: C_36  and  O_38 
DOCKED: USER                              x       y       z     vdW  Elec       q    Type
DOCKED: USER                           _______ _______ _______ _____ _____    ______ ____
DOCKED: ROOT
DOCKED: ATOM      1  C   UNL d   1       6.948  35.673  -1.609 -0.02 +0.01    +0.064 C 
DOCKED: ATOM      2  C   UNL d   1       7.787  32.733   2.275 -0.41 +0.00    +0.064 A 
DOCKED: ATOM      3  C   UNL d   1      12.505  33.415   1.684 -0.33 +0.00    +0.064 C 
DOCKED: ATOM      4  C   UNL d   1      11.718  36.178  -2.142 -0.45 +0.00    +0.064 C 
DOCKED: ATOM      5  C   UNL d   1       6.750  34.715  -0.512 -0.31 +0.01    +0.066 A 
DOCKED: ATOM      6  C   UNL d   1       5.524  34.196  -0.127 -0.30 -0.00    -0.021 A 
DOCKED: ATOM      7  C   UNL d   1       5.758  33.383   0.954 -0.29 -0.00    -0.025 A 
DOCKED: ATOM      8  C   UNL d   1       7.119  33.436   1.188 -0.34 +0.01    +0.066 A 
DOCKED: ATOM      9  C   UNL d   1       4.730  32.589   1.701 -0.20 +0.00    +0.051 C 
DOCKED: ATOM     10  C   UNL d   1       9.104  32.722   2.488 -0.39 +0.00    +0.066 A 
DOCKED: ATOM     11  C   UNL d   1       9.704  32.134   3.604 -0.45 -0.00    -0.021 A 
DOCKED: ATOM     12  C   UNL d   1      11.064  32.332   3.465 -0.44 +0.00    +0.000 A 
DOCKED: ATOM     13  C   UNL d   1      11.224  33.044   2.264 -0.35 +0.00    +0.070 A 
DOCKED: ATOM     14  C   UNL d   1       9.012  31.476   4.780 -0.56 -0.00    +0.052 C 
DOCKED: ATOM     15  C   UNL d   1      12.662  34.146   0.555 -0.34 +0.01    +0.066 A 
DOCKED: ATOM     16  C   UNL d   1      13.901  34.394  -0.021 -0.45 -0.00    -0.021 A 
DOCKED: ATOM     17  C   UNL d   1      13.677  35.193  -1.123 -0.43 +0.00    +0.000 A 
DOCKED: ATOM     18  C   UNL d   1      12.304  35.418  -1.191 -0.34 +0.01    +0.070 A 
DOCKED: ATOM     19  C   UNL d   1      15.248  33.920   0.457 -0.56 +0.00    +0.052 C 
DOCKED: ATOM     20  C   UNL d   1      10.272  36.386  -2.281 -0.37 +0.01    +0.066 A 
DOCKED: ATOM     21  C   UNL d   1       9.667  37.323  -3.130 -0.38 -0.00    -0.025 A 
DOCKED: ATOM     22  C   UNL d   1       8.307  37.153  -2.972 -0.33 -0.00    -0.021 A 
DOCKED: ATOM     23  C   UNL d   1       8.137  36.129  -2.032 -0.19 +0.01    +0.066 A 
DOCKED: ATOM     24  C   UNL d   1      10.324  38.331  -4.044 -0.44 -0.00    +0.051 C 
DOCKED: ATOM     25  N   UNL d   1       7.720  34.240   0.288 -0.13 -0.04    -0.248 N 
DOCKED: ATOM     26  N   UNL d   1      10.029  33.290   1.673 -0.23 -0.02    -0.248 N 
DOCKED: ATOM     27  N   UNL d   1      11.675  34.739  -0.185 -0.05 -0.04    -0.248 N 
DOCKED: ATOM     28  N   UNL d   1       9.339  35.696  -1.581 -0.09 -0.06    -0.248 N 
DOCKED: ATOM     29 FE   UNL d   1       9.685  34.494   0.045 -0.07 +0.00    +0.000 Fe
DOCKED: ENDROOT
DOCKED: BRANCH   6  30
DOCKED: ATOM     30  C   UNL d   1       4.200  34.442  -0.765 -0.23 +0.01    +0.052 C 
DOCKED: BRANCH  30  31
DOCKED: ATOM     31  C   UNL d   1       3.506  35.640  -0.126 -0.17 +0.06    +0.115 C 
DOCKED: BRANCH  31  32
DOCKED: ATOM     32  C   UNL d   1       2.958  36.556  -1.184 -0.15 +0.11    +0.139 C 
DOCKED: ATOM     33  O   UNL d   1       1.765  36.823  -1.220 -0.27 -0.82    -0.650 OA
DOCKED: BRANCH  32  34
DOCKED: ATOM     34  O   UNL d   1       3.778  37.092  -2.104 +0.04 -0.41    -0.776 OA
DOCKED: ATOM     35  H   UNL d   1       4.098  36.537  -2.829 +0.04 +0.06    +0.167 HD
DOCKED: ENDBRANCH  32  34
DOCKED: ENDBRANCH  31  32
DOCKED: ENDBRANCH  30  31
DOCKED: ENDBRANCH   6  30
DOCKED: BRANCH  22  36
DOCKED: ATOM     36  C   UNL d   1       7.234  37.963  -3.650 -0.28 +0.00    +0.052 C 
DOCKED: BRANCH  36  37
DOCKED: ATOM     37  C   UNL d   1       7.180  37.609  -5.129 -0.20 +0.01    +0.115 C 
DOCKED: BRANCH  37  38
DOCKED: ATOM     38  C   UNL d   1       5.942  36.820  -5.449 -0.17 +0.02    +0.139 C 
DOCKED: ATOM     39  O   UNL d   1       5.607  36.626  -6.608 -0.02 -0.07    -0.650 OA
DOCKED: BRANCH  38  40
DOCKED: ATOM     40  O   UNL d   1       5.187  36.322  -4.453 +0.04 -0.13    -0.776 OA
DOCKED: ATOM     41  H   UNL d   1       4.415  36.822  -4.154 +0.04 +0.04    +0.167 HD
DOCKED: ENDBRANCH  38  40
DOCKED: ENDBRANCH  37  38
DOCKED: ENDBRANCH  36  37
DOCKED: ENDBRANCH  22  36
DOCKED: BRANCH  12  42
DOCKED: ATOM     42  C   UNL d   1      12.099  31.873   4.443 -0.41 +0.00    +0.004 C 
DOCKED: ATOM     43  C   UNL d   1      13.041  30.990   4.086 -0.66 +0.00    +0.012 C 
DOCKED: ENDBRANCH  12  42
DOCKED: BRANCH  17  44
DOCKED: ATOM     44  C   UNL d   1      14.708  35.692  -2.062 -0.33 +0.00    +0.004 C 
DOCKED: ATOM     45  C   UNL d   1      15.112  36.966  -2.020 -0.63 +0.00    +0.012 C 
DOCKED: ENDBRANCH  17  44
DOCKED: TORSDOF 10
DOCKED: TER
DOCKED: ENDMDL
________________________________________________________________________________


	BEGINNING GENETIC ALGORITHM DOCKING 87 of 100
Run: 87 Seed: 983509598 567402902 [ Run 87 of 100 GA/GALS ]
Beginning LAMARCKIAN GENETIC ALGORITHM (LGA), with a maximum of 25000000 energy evaluations.

Final-Value: -12.840


	FINAL GENETIC ALGORITHM DOCKED STATE
	_______________________________________________


Detailed state:  trans 43.727 28.980 18.985 quatxyzw -0.240550 0.911135 -0.028696 -0.333384 center -0.174 -0.001 -0.047 ntor 10 178.9785 -73.0431 -161.5981 -165.3625 60.5939 58.8554 -39.3005 92.0764 -157.6732 -176.8010
State:	 43.727  28.980  18.985  -0.255  0.966 -0.030 -141.051    178.98  -73.04 -161.60 -165.36   60.59   58.86  -39.30   92.08 -157.67 -176.80

DOCKED: MODEL       87
DOCKED: USER    Run = 87
DOCKED: USER    DPF = D:/Protein_go_brrr/autodock/final/2DN3/heme_Fe/dock.dpf
DOCKED: USER  
DOCKED: USER    Estimated Free Energy of Binding    =   -7.65 kcal/mol  [=(1)+(2)+(3)-(4)]
DOCKED: USER    Estimated Inhibition Constant, Ki   =    2.46 uM (micromolar)  [Temperature = 298.15 K]
DOCKED: USER    
DOCKED: USER    (1) Final Intermolecular Energy     =  -10.64 kcal/mol
DOCKED: USER        vdW + Hbond + desolv Energy     =   -9.80 kcal/mol
DOCKED: USER        Electrostatic Energy            =   -0.83 kcal/mol
DOCKED: USER    (2) Final Total Internal Energy     =   -2.20 kcal/mol
DOCKED: USER    (3) Torsional Free Energy           =   +2.98 kcal/mol
DOCKED: USER    (4) Unbound System's Energy  [=(2)] =   -2.20 kcal/mol
DOCKED: USER    
DOCKED: USER    
DOCKED: USER    NEWDPF move heme_Fe_opt.pdbqt
DOCKED: USER    NEWDPF about -0.174000 -0.001000 -0.047000
DOCKED: USER    NEWDPF tran0 43.727056 28.979776 18.984866
DOCKED: USER    NEWDPF quaternion0 -0.240550 0.911135 -0.028696 -0.333384
DOCKED: USER    NEWDPF axisangle0 -0.255146 0.966423 -0.030438 -141.051411
DOCKED: USER    NEWDPF quat0 -0.255146 0.966423 -0.030438 -141.051411
DOCKED: USER    NEWDPF dihe0 178.98 -73.04 -161.60 -165.36 60.59 58.86 -39.30 92.08 -157.67 -176.80 
DOCKED: USER  keepresnum = 1 
DOCKED: USER  
DOCKED: REMARK  10 active torsions:
DOCKED: REMARK  status: ('A' for Active; 'I' for Inactive)
DOCKED: REMARK    1  A    between atoms: C_6  and  C_10 
DOCKED: REMARK    2  A    between atoms: C_10  and  C_11 
DOCKED: REMARK    3  A    between atoms: C_11  and  C_12 
DOCKED: REMARK    4  A    between atoms: C_12  and  O_14 
DOCKED: REMARK    5  A    between atoms: C_17  and  C_20 
DOCKED: REMARK    6  A    between atoms: C_24  and  C_27 
DOCKED: REMARK    7  A    between atoms: C_31  and  C_34 
DOCKED: REMARK    8  A    between atoms: C_34  and  C_35 
DOCKED: REMARK    9  A    between atoms: C_35  and  C_36 
DOCKED: REMARK   10  A    between atoms: C_36  and  O_38 
DOCKED: USER                              x       y       z     vdW  Elec       q    Type
DOCKED: USER                           _______ _______ _______ _____ _____    ______ ____
DOCKED: ROOT
DOCKED: ATOM      1  C   UNL d   1      45.394  29.891  19.761 -0.24 +0.04    +0.064 C 
DOCKED: ATOM      2  C   UNL d   1      44.250  25.265  18.450 -0.22 +0.03    +0.064 A 
DOCKED: ATOM      3  C   UNL d   1      40.428  26.955  16.081 -0.39 +0.02    +0.064 C 
DOCKED: ATOM      4  C   UNL d   1      41.458  31.429  17.426 -0.47 +0.01    +0.064 C 
DOCKED: ATOM      5  C   UNL d   1      45.379  28.424  19.681 -0.18 +0.05    +0.066 A 
DOCKED: ATOM      6  C   UNL d   1      46.267  27.588  20.338 -0.15 -0.02    -0.021 A 
DOCKED: ATOM      7  C   UNL d   1      45.951  26.304  19.970 -0.12 -0.02    -0.025 A 
DOCKED: ATOM      8  C   UNL d   1      44.881  26.405  19.103 -0.16 +0.04    +0.066 A 
DOCKED: ATOM      9  C   UNL d   1      46.631  25.056  20.445 -0.09 +0.03    +0.051 C 
DOCKED: ATOM     10  C   UNL d   1      43.180  25.330  17.655 -0.29 +0.03    +0.066 A 
DOCKED: ATOM     11  C   UNL d   1      42.668  24.236  16.953 -0.37 -0.01    -0.021 A 
DOCKED: ATOM     12  C   UNL d   1      41.576  24.701  16.249 -0.44 +0.00    +0.000 A 
DOCKED: ATOM     13  C   UNL d   1      41.482  26.070  16.554 -0.35 +0.02    +0.070 A 
DOCKED: ATOM     14  C   UNL d   1      43.234  22.831  16.902 -0.34 +0.02    +0.052 C 
DOCKED: ATOM     15  C   UNL d   1      40.363  28.284  16.330 -0.26 +0.03    +0.066 A 
DOCKED: ATOM     16  C   UNL d   1      39.288  29.075  15.944 -0.18 -0.01    -0.021 A 
DOCKED: ATOM     17  C   UNL d   1      39.585  30.367  16.328 -0.34 +0.00    +0.000 A 
DOCKED: ATOM     18  C   UNL d   1      40.837  30.334  16.936 -0.25 +0.02    +0.070 A 
DOCKED: ATOM     19  C   UNL d   1      38.041  28.642  15.221 -0.40 +0.01    +0.052 C 
DOCKED: ATOM     20  C   UNL d   1      42.748  31.423  18.127 -0.38 +0.02    +0.066 A 
DOCKED: ATOM     21  C   UNL d   1      43.494  32.562  18.460 -0.38 -0.01    -0.025 A 
DOCKED: ATOM     22  C   UNL d   1      44.605  32.101  19.136 -0.28 -0.01    -0.021 A 
DOCKED: ATOM     23  C   UNL d   1      44.497  30.706  19.182 -0.26 +0.03    +0.066 A 
DOCKED: ATOM     24  C   UNL d   1      43.189  34.011  18.159 -0.33 +0.01    +0.051 C 
DOCKED: ATOM     25  N   UNL d   1      44.529  27.696  18.937 -0.07 -0.13    -0.248 N 
DOCKED: ATOM     26  N   UNL d   1      42.465  26.456  17.404 -0.21 -0.08    -0.248 N 
DOCKED: ATOM     27  N   UNL d   1      41.297  29.047  16.977 -0.04 -0.12    -0.248 N 
DOCKED: ATOM     28  N   UNL d   1      43.385  30.295  18.526 -0.16 -0.09    -0.248 N 
DOCKED: ATOM     29 FE   UNL d   1      42.924  28.377  17.964 -0.08 +0.00    +0.000 Fe
DOCKED: ENDROOT
DOCKED: BRANCH   6  30
DOCKED: ATOM     30  C   UNL d   1      47.349  27.985  21.283 -0.05 +0.06    +0.052 C 
DOCKED: BRANCH  30  31
DOCKED: ATOM     31  C   UNL d   1      48.456  28.737  20.553 -0.06 +0.08    +0.115 C 
DOCKED: BRANCH  31  32
DOCKED: ATOM     32  C   UNL d   1      48.965  29.874  21.395 -0.06 +0.09    +0.139 C 
DOCKED: ATOM     33  O   UNL d   1      49.463  29.662  22.492 -0.01 -0.42    -0.650 OA
DOCKED: BRANCH  32  34
DOCKED: ATOM     34  O   UNL d   1      48.875  31.137  20.948 +0.02 -0.36    -0.776 OA
DOCKED: ATOM     35  H   UNL d   1      48.493  31.300  20.074 +0.02 +0.07    +0.167 HD
DOCKED: ENDBRANCH  32  34
DOCKED: ENDBRANCH  31  32
DOCKED: ENDBRANCH  30  31
DOCKED: ENDBRANCH   6  30
DOCKED: BRANCH  22  36
DOCKED: ATOM     36  C   UNL d   1      45.730  32.953  19.663 -0.23 +0.02    +0.052 C 
DOCKED: BRANCH  36  37
DOCKED: ATOM     37  C   UNL d   1      46.680  33.308  18.528 -0.14 +0.03    +0.115 C 
DOCKED: BRANCH  37  38
DOCKED: ATOM     38  C   UNL d   1      47.748  32.264  18.373 -0.11 +0.04    +0.139 C 
DOCKED: ATOM     39  O   UNL d   1      47.456  31.099  18.144 +0.02 -0.21    -0.650 OA
DOCKED: BRANCH  38  40
DOCKED: ATOM     40  O   UNL d   1      49.044  32.606  18.489 +0.05 -0.18    -0.776 OA
DOCKED: ATOM     41  H   UNL d   1      49.529  32.344  19.284 +0.02 +0.04    +0.167 HD
DOCKED: ENDBRANCH  38  40
DOCKED: ENDBRANCH  37  38
DOCKED: ENDBRANCH  36  37
DOCKED: ENDBRANCH  22  36
DOCKED: BRANCH  12  42
DOCKED: ATOM     42  C   UNL d   1      40.722  23.868  15.346 -0.54 +0.00    +0.004 C 
DOCKED: ATOM     43  C   UNL d   1      40.691  24.093  14.026 -0.53 +0.00    +0.012 C 
DOCKED: ENDBRANCH  12  42
DOCKED: BRANCH  17  44
DOCKED: ATOM     44  C   UNL d   1      38.717  31.552  16.144 -0.31 +0.00    +0.004 C 
DOCKED: ATOM     45  C   UNL d   1      39.056  32.523  15.290 -0.47 +0.00    +0.012 C 
DOCKED: ENDBRANCH  17  44
DOCKED: TORSDOF 10
DOCKED: TER
DOCKED: ENDMDL
________________________________________________________________________________


	BEGINNING GENETIC ALGORITHM DOCKING 88 of 100
Run: 88 Seed: 262767382 1804496896 [ Run 88 of 100 GA/GALS ]
Beginning LAMARCKIAN GENETIC ALGORITHM (LGA), with a maximum of 25000000 energy evaluations.

Final-Value: -14.938


	FINAL GENETIC ALGORITHM DOCKED STATE
	_______________________________________________


Detailed state:  trans 8.684 35.081 -1.181 quatxyzw 0.409500 0.218971 0.303240 0.832110 center -0.174 -0.001 -0.047 ntor 10 60.3659 113.5625 77.0273 -173.2785 128.0786 -128.8751 -38.5882 26.6460 178.9727 -178.8061
State:	  8.684  35.081  -1.181   0.738  0.395  0.547 67.368     60.37  113.56   77.03 -173.28  128.08 -128.88  -38.59   26.65  178.97 -178.81

DOCKED: MODEL       88
DOCKED: USER    Run = 88
DOCKED: USER    DPF = D:/Protein_go_brrr/autodock/final/2DN3/heme_Fe/dock.dpf
DOCKED: USER  
DOCKED: USER    Estimated Free Energy of Binding    =  -10.56 kcal/mol  [=(1)+(2)+(3)-(4)]
DOCKED: USER    Estimated Inhibition Constant, Ki   =   18.06 nM (nanomolar)  [Temperature = 298.15 K]
DOCKED: USER    
DOCKED: USER    (1) Final Intermolecular Energy     =  -13.55 kcal/mol
DOCKED: USER        vdW + Hbond + desolv Energy     =  -12.29 kcal/mol
DOCKED: USER        Electrostatic Energy            =   -1.26 kcal/mol
DOCKED: USER    (2) Final Total Internal Energy     =   -1.39 kcal/mol
DOCKED: USER    (3) Torsional Free Energy           =   +2.98 kcal/mol
DOCKED: USER    (4) Unbound System's Energy  [=(2)] =   -1.39 kcal/mol
DOCKED: USER    
DOCKED: USER    
DOCKED: USER    NEWDPF move heme_Fe_opt.pdbqt
DOCKED: USER    NEWDPF about -0.174000 -0.001000 -0.047000
DOCKED: USER    NEWDPF tran0 8.684049 35.081208 -1.180844
DOCKED: USER    NEWDPF quaternion0 0.409500 0.218971 0.303240 0.832110
DOCKED: USER    NEWDPF axisangle0 0.738356 0.394819 0.546762 67.367744
DOCKED: USER    NEWDPF quat0 0.738356 0.394819 0.546762 67.367744
DOCKED: USER    NEWDPF dihe0 60.37 113.56 77.03 -173.28 128.08 -128.88 -38.59 26.65 178.97 -178.81 
DOCKED: USER  keepresnum = 1 
DOCKED: USER  
DOCKED: REMARK  10 active torsions:
DOCKED: REMARK  status: ('A' for Active; 'I' for Inactive)
DOCKED: REMARK    1  A    between atoms: C_6  and  C_10 
DOCKED: REMARK    2  A    between atoms: C_10  and  C_11 
DOCKED: REMARK    3  A    between atoms: C_11  and  C_12 
DOCKED: REMARK    4  A    between atoms: C_12  and  O_14 
DOCKED: REMARK    5  A    between atoms: C_17  and  C_20 
DOCKED: REMARK    6  A    between atoms: C_24  and  C_27 
DOCKED: REMARK    7  A    between atoms: C_31  and  C_34 
DOCKED: REMARK    8  A    between atoms: C_34  and  C_35 
DOCKED: REMARK    9  A    between atoms: C_35  and  C_36 
DOCKED: REMARK   10  A    between atoms: C_36  and  O_38 
DOCKED: USER                              x       y       z     vdW  Elec       q    Type
DOCKED: USER                           _______ _______ _______ _____ _____    ______ ____
DOCKED: ROOT
DOCKED: ATOM      1  C   UNL d   1       7.155  36.131  -2.060 -0.18 +0.01    +0.064 C 
DOCKED: ATOM      2  C   UNL d   1       7.534  33.186   1.892 -0.40 +0.01    +0.064 A 
DOCKED: ATOM      3  C   UNL d   1      12.313  33.599   1.656 -0.30 +0.00    +0.064 C 
DOCKED: ATOM      4  C   UNL d   1      11.973  36.365  -2.233 -0.45 +0.00    +0.064 C 
DOCKED: ATOM      5  C   UNL d   1       6.822  35.196  -0.976 -0.25 +0.01    +0.066 A 
DOCKED: ATOM      6  C   UNL d   1       5.544  34.749  -0.682 -0.28 -0.00    -0.021 A 
DOCKED: ATOM      7  C   UNL d   1       5.649  33.935   0.418 -0.30 -0.00    -0.025 A 
DOCKED: ATOM      8  C   UNL d   1       6.989  33.915   0.753 -0.34 +0.01    +0.066 A 
DOCKED: ATOM      9  C   UNL d   1       4.525  33.207   1.088 -0.19 +0.01    +0.051 C 
DOCKED: ATOM     10  C   UNL d   1       8.828  33.104   2.204 -0.37 +0.01    +0.066 A 
DOCKED: ATOM     11  C   UNL d   1       9.308  32.494   3.365 -0.42 -0.00    -0.021 A 
DOCKED: ATOM     12  C   UNL d   1      10.683  32.614   3.329 -0.41 +0.00    +0.000 A 
DOCKED: ATOM     13  C   UNL d   1      10.973  33.306   2.140 -0.36 +0.01    +0.070 A 
DOCKED: ATOM     14  C   UNL d   1       8.493  31.886   4.489 -0.25 -0.00    +0.052 C 
DOCKED: ATOM     15  C   UNL d   1      12.596  34.309   0.538 -0.34 +0.01    +0.066 A 
DOCKED: ATOM     16  C   UNL d   1      13.887  34.482   0.056 -0.44 -0.00    -0.021 A 
DOCKED: ATOM     17  C   UNL d   1      13.792  35.283  -1.063 -0.43 +0.00    +0.000 A 
DOCKED: ATOM     18  C   UNL d   1      12.442  35.583  -1.236 -0.36 +0.01    +0.070 A 
DOCKED: ATOM     19  C   UNL d   1      15.165  33.939   0.637 -0.58 +0.00    +0.052 C 
DOCKED: ATOM     20  C   UNL d   1      10.556  36.652  -2.482 -0.38 +0.01    +0.066 A 
DOCKED: ATOM     21  C   UNL d   1      10.070  37.613  -3.380 -0.38 -0.00    -0.025 A 
DOCKED: ATOM     22  C   UNL d   1       8.694  37.520  -3.324 -0.35 -0.00    -0.021 A 
DOCKED: ATOM     23  C   UNL d   1       8.397  36.516  -2.394 -0.19 +0.01    +0.066 A 
DOCKED: ATOM     24  C   UNL d   1      10.849  38.574  -4.246 -0.25 -0.01    +0.051 C 
DOCKED: ATOM     25  N   UNL d   1       7.701  34.675  -0.102 -0.19 -0.05    -0.248 N 
DOCKED: ATOM     26  N   UNL d   1       9.842  33.612   1.458 -0.22 -0.03    -0.248 N 
DOCKED: ATOM     27  N   UNL d   1      11.702  34.949  -0.277 -0.11 -0.04    -0.248 N 
DOCKED: ATOM     28  N   UNL d   1       9.536  36.022  -1.851 -0.23 -0.04    -0.248 N 
DOCKED: ATOM     29 FE   UNL d   1       9.690  34.818  -0.197 -0.08 +0.00    +0.000 Fe
DOCKED: ENDROOT
DOCKED: BRANCH   6  30
DOCKED: ATOM     30  C   UNL d   1       4.287  35.063  -1.420 -0.22 +0.01    +0.052 C 
DOCKED: BRANCH  30  31
DOCKED: ATOM     31  C   UNL d   1       3.603  36.288  -0.826 -0.16 +0.07    +0.115 C 
DOCKED: BRANCH  31  32
DOCKED: ATOM     32  C   UNL d   1       3.011  37.140  -1.914 -0.16 +0.10    +0.139 C 
DOCKED: ATOM     33  O   UNL d   1       1.840  37.489  -1.866 -0.16 -0.85    -0.650 OA
DOCKED: BRANCH  32  34
DOCKED: ATOM     34  O   UNL d   1       3.769  37.528  -2.954 +0.04 -0.35    -0.776 OA
DOCKED: ATOM     35  H   UNL d   1       3.901  38.473  -3.112 +0.04 +0.08    +0.167 HD
DOCKED: ENDBRANCH  32  34
DOCKED: ENDBRANCH  31  32
DOCKED: ENDBRANCH  30  31
DOCKED: ENDBRANCH   6  30
DOCKED: BRANCH  22  36
DOCKED: ATOM     36  C   UNL d   1       7.723  38.382  -4.085 -0.30 +0.00    +0.052 C 
DOCKED: BRANCH  36  37
DOCKED: ATOM     37  C   UNL d   1       7.532  39.706  -3.359 -0.32 +0.00    +0.115 C 
DOCKED: BRANCH  37  38
DOCKED: ATOM     38  C   UNL d   1       6.193  40.308  -3.678 -0.24 +0.02    +0.139 C 
DOCKED: ATOM     39  O   UNL d   1       6.103  41.467  -4.054 +0.02 -0.10    -0.650 OA
DOCKED: BRANCH  38  40
DOCKED: ATOM     40  O   UNL d   1       5.077  39.569  -3.548 +0.05 -0.21    -0.776 OA
DOCKED: ATOM     41  H   UNL d   1       4.941  38.815  -4.139 +0.04 +0.04    +0.167 HD
DOCKED: ENDBRANCH  38  40
DOCKED: ENDBRANCH  37  38
DOCKED: ENDBRANCH  36  37
DOCKED: ENDBRANCH  22  36
DOCKED: BRANCH  12  42
DOCKED: ATOM     42  C   UNL d   1      11.615  32.108   4.384 -0.38 +0.00    +0.004 C 
DOCKED: ATOM     43  C   UNL d   1      12.617  31.275   4.077 -0.60 +0.00    +0.012 C 
DOCKED: ENDBRANCH  12  42
DOCKED: BRANCH  17  44
DOCKED: ATOM     44  C   UNL d   1      14.916  35.715  -1.924 -0.29 +0.00    +0.004 C 
DOCKED: ATOM     45  C   UNL d   1      15.199  37.012  -2.080 -0.64 +0.00    +0.012 C 
DOCKED: ENDBRANCH  17  44
DOCKED: TORSDOF 10
DOCKED: TER
DOCKED: ENDMDL
________________________________________________________________________________


	BEGINNING GENETIC ALGORITHM DOCKING 89 of 100
Run: 89 Seed: 1637627708 197585519 [ Run 89 of 100 GA/GALS ]
Beginning LAMARCKIAN GENETIC ALGORITHM (LGA), with a maximum of 25000000 energy evaluations.

Final-Value: -10.852


	FINAL GENETIC ALGORITHM DOCKED STATE
	_______________________________________________


Detailed state:  trans 28.366 39.825 -0.033 quatxyzw 0.415411 -0.616646 0.546603 0.385236 center -0.174 -0.001 -0.047 ntor 10 101.9315 97.6612 153.4353 48.0607 51.7433 -178.9450 60.8104 -29.7600 -72.4495 6.5144
State:	 28.366  39.825  -0.033   0.450 -0.668  0.592 134.683    101.93   97.66  153.44   48.06   51.74 -178.95   60.81  -29.76  -72.45    6.51

DOCKED: MODEL       89
DOCKED: USER    Run = 89
DOCKED: USER    DPF = D:/Protein_go_brrr/autodock/final/2DN3/heme_Fe/dock.dpf
DOCKED: USER  
DOCKED: USER    Estimated Free Energy of Binding    =   -5.93 kcal/mol  [=(1)+(2)+(3)-(4)]
DOCKED: USER    Estimated Inhibition Constant, Ki   =   45.36 uM (micromolar)  [Temperature = 298.15 K]
DOCKED: USER    
DOCKED: USER    (1) Final Intermolecular Energy     =   -8.91 kcal/mol
DOCKED: USER        vdW + Hbond + desolv Energy     =   -6.78 kcal/mol
DOCKED: USER        Electrostatic Energy            =   -2.12 kcal/mol
DOCKED: USER    (2) Final Total Internal Energy     =   -1.94 kcal/mol
DOCKED: USER    (3) Torsional Free Energy           =   +2.98 kcal/mol
DOCKED: USER    (4) Unbound System's Energy  [=(2)] =   -1.94 kcal/mol
DOCKED: USER    
DOCKED: USER    
DOCKED: USER    NEWDPF move heme_Fe_opt.pdbqt
DOCKED: USER    NEWDPF about -0.174000 -0.001000 -0.047000
DOCKED: USER    NEWDPF tran0 28.366085 39.824720 -0.033120
DOCKED: USER    NEWDPF quaternion0 0.415411 -0.616646 0.546603 0.385236
DOCKED: USER    NEWDPF axisangle0 0.450155 -0.668221 0.592319 134.683247
DOCKED: USER    NEWDPF quat0 0.450155 -0.668221 0.592319 134.683247
DOCKED: USER    NEWDPF dihe0 101.93 97.66 153.44 48.06 51.74 -178.95 60.81 -29.76 -72.45 6.51 
DOCKED: USER  keepresnum = 1 
DOCKED: USER  
DOCKED: REMARK  10 active torsions:
DOCKED: REMARK  status: ('A' for Active; 'I' for Inactive)
DOCKED: REMARK    1  A    between atoms: C_6  and  C_10 
DOCKED: REMARK    2  A    between atoms: C_10  and  C_11 
DOCKED: REMARK    3  A    between atoms: C_11  and  C_12 
DOCKED: REMARK    4  A    between atoms: C_12  and  O_14 
DOCKED: REMARK    5  A    between atoms: C_17  and  C_20 
DOCKED: REMARK    6  A    between atoms: C_24  and  C_27 
DOCKED: REMARK    7  A    between atoms: C_31  and  C_34 
DOCKED: REMARK    8  A    between atoms: C_34  and  C_35 
DOCKED: REMARK    9  A    between atoms: C_35  and  C_36 
DOCKED: REMARK   10  A    between atoms: C_36  and  O_38 
DOCKED: USER                              x       y       z     vdW  Elec       q    Type
DOCKED: USER                           _______ _______ _______ _____ _____    ______ ____
DOCKED: ROOT
DOCKED: ATOM      1  C   UNL d   1      29.575  41.482   0.011 -0.10 +0.02    +0.064 C 
DOCKED: ATOM      2  C   UNL d   1      28.390  37.951   3.260 -0.24 -0.02    +0.064 A 
DOCKED: ATOM      3  C   UNL d   1      26.602  35.330  -0.345 -0.24 +0.01    +0.064 C 
DOCKED: ATOM      4  C   UNL d   1      27.644  38.779  -3.491 -0.18 +0.01    +0.064 C 
DOCKED: ATOM      5  C   UNL d   1      29.332  40.767   1.271 -0.12 +0.01    +0.066 A 
DOCKED: ATOM      6  C   UNL d   1      29.614  41.268   2.532 -0.22 -0.00    -0.021 A 
DOCKED: ATOM      7  C   UNL d   1      29.289  40.285   3.433 -0.30 +0.00    -0.025 A 
DOCKED: ATOM      8  C   UNL d   1      28.819  39.221   2.688 -0.21 -0.01    +0.066 A 
DOCKED: ATOM      9  C   UNL d   1      29.407  40.380   4.924 -0.24 -0.04    +0.051 C 
DOCKED: ATOM     10  C   UNL d   1      27.880  36.931   2.569 -0.22 -0.00    +0.066 A 
DOCKED: ATOM     11  C   UNL d   1      27.585  35.685   3.130 -0.26 -0.00    -0.021 A 
DOCKED: ATOM     12  C   UNL d   1      27.084  34.906   2.107 -0.30 +0.00    +0.000 A 
DOCKED: ATOM     13  C   UNL d   1      27.106  35.721   0.962 -0.19 +0.01    +0.070 A 
DOCKED: ATOM     14  C   UNL d   1      27.834  35.238   4.556 -0.30 +0.00    +0.052 C 
DOCKED: ATOM     15  C   UNL d   1      26.669  36.092  -1.462 -0.14 +0.01    +0.066 A 
DOCKED: ATOM     16  C   UNL d   1      26.086  35.723  -2.668 -0.21 -0.00    -0.021 A 
DOCKED: ATOM     17  C   UNL d   1      26.389  36.715  -3.578 -0.22 +0.00    +0.000 A 
DOCKED: ATOM     18  C   UNL d   1      27.153  37.666  -2.905 -0.19 +0.01    +0.070 A 
DOCKED: ATOM     19  C   UNL d   1      25.298  34.476  -2.963 -0.23 -0.00    +0.052 C 
DOCKED: ATOM     20  C   UNL d   1      28.400  39.831  -2.801 -0.12 +0.01    +0.066 A 
DOCKED: ATOM     21  C   UNL d   1      29.083  40.883  -3.429 -0.06 -0.00    -0.025 A 
DOCKED: ATOM     22  C   UNL d   1      29.615  41.648  -2.411 -0.04 -0.00    -0.021 A 
DOCKED: ATOM     23  C   UNL d   1      29.244  41.033  -1.210 -0.09 +0.01    +0.066 A 
DOCKED: ATOM     24  C   UNL d   1      29.235  41.159  -4.906 -0.03 +0.01    +0.051 C 
DOCKED: ATOM     25  N   UNL d   1      28.838  39.521   1.374 -0.09 -0.02    -0.248 N 
DOCKED: ATOM     26  N   UNL d   1      27.600  36.952   1.242 -0.08 -0.03    -0.248 N 
DOCKED: ATOM     27  N   UNL d   1      27.289  37.305  -1.593 -0.10 -0.03    -0.248 N 
DOCKED: ATOM     28  N   UNL d   1      28.541  39.900  -1.455 -0.08 -0.04    -0.248 N 
DOCKED: ATOM     29 FE   UNL d   1      28.070  38.426  -0.109 -0.05 +0.00    +0.000 Fe
DOCKED: ENDROOT
DOCKED: BRANCH   6  30
DOCKED: ATOM     30  C   UNL d   1      30.147  42.619   2.867 -0.23 +0.02    +0.052 C 
DOCKED: BRANCH  30  31
DOCKED: ATOM     31  C   UNL d   1      29.977  43.574   1.690 -0.15 +0.07    +0.115 C 
DOCKED: BRANCH  31  32
DOCKED: ATOM     32  C   UNL d   1      31.315  44.076   1.222 -0.18 +0.15    +0.139 C 
DOCKED: ATOM     33  O   UNL d   1      32.219  43.293   0.967 +0.01 -0.83    -0.650 OA
DOCKED: BRANCH  32  34
DOCKED: ATOM     34  O   UNL d   1      31.529  45.395   1.080 -0.42 -1.10    -0.776 OA
DOCKED: ATOM     35  H   UNL d   1      31.181  45.845   0.298 +0.02 +0.17    +0.167 HD
DOCKED: ENDBRANCH  32  34
DOCKED: ENDBRANCH  31  32
DOCKED: ENDBRANCH  30  31
DOCKED: ENDBRANCH   6  30
DOCKED: BRANCH  22  36
DOCKED: ATOM     36  C   UNL d   1      30.472  42.873  -2.588 -0.02 +0.02    +0.052 C 
DOCKED: BRANCH  36  37
DOCKED: ATOM     37  C   UNL d   1      29.647  44.122  -2.316 -0.03 +0.04    +0.115 C 
DOCKED: BRANCH  37  38
DOCKED: ATOM     38  C   UNL d   1      30.503  45.223  -1.758 -0.05 +0.06    +0.139 C 
DOCKED: ATOM     39  O   UNL d   1      30.016  46.303  -1.458 +0.03 -0.26    -0.650 OA
DOCKED: BRANCH  38  40
DOCKED: ATOM     40  O   UNL d   1      31.823  45.026  -1.589 -0.03 -0.60    -0.776 OA
DOCKED: ATOM     41  H   UNL d   1      32.133  44.574  -0.792 +0.02 +0.20    +0.167 HD
DOCKED: ENDBRANCH  38  40
DOCKED: ENDBRANCH  37  38
DOCKED: ENDBRANCH  36  37
DOCKED: ENDBRANCH  22  36
DOCKED: BRANCH  12  42
DOCKED: ATOM     42  C   UNL d   1      26.644  33.483   2.252 -0.40 +0.00    +0.004 C 
DOCKED: ATOM     43  C   UNL d   1      26.574  32.672   1.188 -0.10 +0.00    +0.012 C 
DOCKED: ENDBRANCH  12  42
DOCKED: BRANCH  17  44
DOCKED: ATOM     44  C   UNL d   1      25.957  36.761  -4.993 -0.17 +0.00    +0.004 C 
DOCKED: ATOM     45  C   UNL d   1      24.944  37.545  -5.375 -0.23 +0.00    +0.012 C 
DOCKED: ENDBRANCH  17  44
DOCKED: TORSDOF 10
DOCKED: TER
DOCKED: ENDMDL
________________________________________________________________________________


	BEGINNING GENETIC ALGORITHM DOCKING 90 of 100
Run: 90 Seed: 949888755 82910791 [ Run 90 of 100 GA/GALS ]
Beginning LAMARCKIAN GENETIC ALGORITHM (LGA), with a maximum of 25000000 energy evaluations.

Final-Value: -17.403


	FINAL GENETIC ALGORITHM DOCKED STATE
	_______________________________________________


Detailed state:  trans 41.630 28.697 16.142 quatxyzw -0.222018 -0.094149 0.950394 -0.196457 center -0.174 -0.001 -0.047 ntor 10 128.9531 -25.7810 68.0313 -147.0407 106.4481 -116.5719 -9.4638 41.0934 -177.7622 168.1654
State:	 41.630  28.697  16.142  -0.226 -0.096  0.969 -157.340    128.95  -25.78   68.03 -147.04  106.45 -116.57   -9.46   41.09 -177.76  168.17

DOCKED: MODEL       90
DOCKED: USER    Run = 90
DOCKED: USER    DPF = D:/Protein_go_brrr/autodock/final/2DN3/heme_Fe/dock.dpf
DOCKED: USER  
DOCKED: USER    Estimated Free Energy of Binding    =  -12.98 kcal/mol  [=(1)+(2)+(3)-(4)]
DOCKED: USER    Estimated Inhibition Constant, Ki   =  306.99 pM (picomolar)  [Temperature = 298.15 K]
DOCKED: USER    
DOCKED: USER    (1) Final Intermolecular Energy     =  -15.96 kcal/mol
DOCKED: USER        vdW + Hbond + desolv Energy     =  -14.02 kcal/mol
DOCKED: USER        Electrostatic Energy            =   -1.94 kcal/mol
DOCKED: USER    (2) Final Total Internal Energy     =   -1.44 kcal/mol
DOCKED: USER    (3) Torsional Free Energy           =   +2.98 kcal/mol
DOCKED: USER    (4) Unbound System's Energy  [=(2)] =   -1.44 kcal/mol
DOCKED: USER    
DOCKED: USER    
DOCKED: USER    NEWDPF move heme_Fe_opt.pdbqt
DOCKED: USER    NEWDPF about -0.174000 -0.001000 -0.047000
DOCKED: USER    NEWDPF tran0 41.630460 28.696984 16.141661
DOCKED: USER    NEWDPF quaternion0 -0.222018 -0.094149 0.950394 -0.196457
DOCKED: USER    NEWDPF axisangle0 -0.226430 -0.096020 0.969283 -157.340351
DOCKED: USER    NEWDPF quat0 -0.226430 -0.096020 0.969283 -157.340351
DOCKED: USER    NEWDPF dihe0 128.95 -25.78 68.03 -147.04 106.45 -116.57 -9.46 41.09 -177.76 168.17 
DOCKED: USER  keepresnum = 1 
DOCKED: USER  
DOCKED: REMARK  10 active torsions:
DOCKED: REMARK  status: ('A' for Active; 'I' for Inactive)
DOCKED: REMARK    1  A    between atoms: C_6  and  C_10 
DOCKED: REMARK    2  A    between atoms: C_10  and  C_11 
DOCKED: REMARK    3  A    between atoms: C_11  and  C_12 
DOCKED: REMARK    4  A    between atoms: C_12  and  O_14 
DOCKED: REMARK    5  A    between atoms: C_17  and  C_20 
DOCKED: REMARK    6  A    between atoms: C_24  and  C_27 
DOCKED: REMARK    7  A    between atoms: C_31  and  C_34 
DOCKED: REMARK    8  A    between atoms: C_34  and  C_35 
DOCKED: REMARK    9  A    between atoms: C_35  and  C_36 
DOCKED: REMARK   10  A    between atoms: C_36  and  O_38 
DOCKED: USER                              x       y       z     vdW  Elec       q    Type
DOCKED: USER                           _______ _______ _______ _____ _____    ______ ____
DOCKED: ROOT
DOCKED: ATOM      1  C   UNL d   1      43.039  27.879  17.390 -0.24 +0.02    +0.064 C 
DOCKED: ATOM      2  C   UNL d   1      41.220  32.423  16.698 -0.41 +0.01    +0.064 A 
DOCKED: ATOM      3  C   UNL d   1      37.582  30.513  14.211 -0.16 +0.01    +0.064 C 
DOCKED: ATOM      4  C   UNL d   1      39.381  26.117  14.779 -0.46 +0.01    +0.064 C 
DOCKED: ATOM      5  C   UNL d   1      42.909  29.342  17.355 -0.26 +0.02    +0.066 A 
DOCKED: ATOM      6  C   UNL d   1      43.836  30.231  17.874 -0.31 -0.01    -0.021 A 
DOCKED: ATOM      7  C   UNL d   1      43.328  31.492  17.685 -0.27 -0.01    -0.025 A 
DOCKED: ATOM      8  C   UNL d   1      42.110  31.325  17.056 -0.37 +0.02    +0.066 A 
DOCKED: ATOM      9  C   UNL d   1      43.992  32.778  18.072 -0.12 +0.01    +0.051 C 
DOCKED: ATOM     10  C   UNL d   1      40.067  32.293  16.040 -0.38 +0.01    +0.066 A 
DOCKED: ATOM     11  C   UNL d   1      39.182  33.349  15.812 -0.40 -0.00    -0.021 A 
DOCKED: ATOM     12  C   UNL d   1      38.116  32.821  15.111 -0.39 +0.00    +0.000 A 
DOCKED: ATOM     13  C   UNL d   1      38.405  31.455  14.953 -0.33 +0.01    +0.070 A 
DOCKED: ATOM     14  C   UNL d   1      39.312  34.778  16.298 -0.51 +0.01    +0.052 C 
DOCKED: ATOM     15  C   UNL d   1      37.830  29.186  14.100 -0.35 +0.01    +0.066 A 
DOCKED: ATOM     16  C   UNL d   1      37.075  28.338  13.299 -0.45 -0.00    -0.021 A 
DOCKED: ATOM     17  C   UNL d   1      37.590  27.069  13.464 -0.45 +0.00    +0.000 A 
DOCKED: ATOM     18  C   UNL d   1      38.646  27.172  14.367 -0.37 +0.01    +0.070 A 
DOCKED: ATOM     19  C   UNL d   1      35.899  28.699  12.432 -0.64 +0.01    +0.052 C 
DOCKED: ATOM     20  C   UNL d   1      40.538  26.196  15.679 -0.34 +0.02    +0.066 A 
DOCKED: ATOM     21  C   UNL d   1      41.181  25.099  16.270 -0.34 -0.01    -0.025 A 
DOCKED: ATOM     22  C   UNL d   1      42.228  25.624  17.000 -0.36 -0.01    -0.021 A 
DOCKED: ATOM     23  C   UNL d   1      42.179  27.013  16.831 -0.33 +0.02    +0.066 A 
DOCKED: ATOM     24  C   UNL d   1      40.834  23.632  16.164 -0.43 +0.01    +0.051 C 
DOCKED: ATOM     25  N   UNL d   1      41.862  30.016  16.848 -0.14 -0.08    -0.248 N 
DOCKED: ATOM     26  N   UNL d   1      39.590  31.130  15.527 -0.14 -0.06    -0.248 N 
DOCKED: ATOM     27  N   UNL d   1      38.823  28.480  14.724 -0.10 -0.07    -0.248 N 
DOCKED: ATOM     28  N   UNL d   1      41.119  27.359  16.061 -0.25 -0.08    -0.248 N 
DOCKED: ATOM     29 FE   UNL d   1      40.354  29.243  15.793 -0.08 +0.00    +0.000 Fe
DOCKED: ENDROOT
DOCKED: BRANCH   6  30
DOCKED: ATOM     30  C   UNL d   1      45.148  29.902  18.500 -0.25 +0.02    +0.052 C 
DOCKED: BRANCH  30  31
DOCKED: ATOM     31  C   UNL d   1      44.987  29.660  19.997 -0.18 +0.09    +0.115 C 
DOCKED: BRANCH  31  32
DOCKED: ATOM     32  C   UNL d   1      46.258  29.108  20.580 -0.14 +0.16    +0.139 C 
DOCKED: ATOM     33  O   UNL d   1      46.980  29.808  21.276 -0.52 -0.89    -0.650 OA
DOCKED: BRANCH  32  34
DOCKED: ATOM     34  O   UNL d   1      46.614  27.835  20.340 -0.00 -0.71    -0.776 OA
DOCKED: ATOM     35  H   UNL d   1      45.970  27.130  20.499 +0.05 +0.15    +0.167 HD
DOCKED: ENDBRANCH  32  34
DOCKED: ENDBRANCH  31  32
DOCKED: ENDBRANCH  30  31
DOCKED: ENDBRANCH   6  30
DOCKED: BRANCH  22  36
DOCKED: ATOM     36  C   UNL d   1      43.190  24.836  17.850 -0.36 +0.02    +0.052 C 
DOCKED: BRANCH  36  37
DOCKED: ATOM     37  C   UNL d   1      42.709  24.825  19.293 -0.39 +0.04    +0.115 C 
DOCKED: BRANCH  37  38
DOCKED: ATOM     38  C   UNL d   1      43.860  24.984  20.246 -0.28 +0.08    +0.139 C 
DOCKED: ATOM     39  O   UNL d   1      44.146  24.095  21.034 -0.52 -0.45    -0.650 OA
DOCKED: BRANCH  38  40
DOCKED: ATOM     40  O   UNL d   1      44.585  26.117  20.239 +0.06 -0.51    -0.776 OA
DOCKED: ATOM     41  H   UNL d   1      45.045  26.385  21.046 +0.05 +0.15    +0.167 HD
DOCKED: ENDBRANCH  38  40
DOCKED: ENDBRANCH  37  38
DOCKED: ENDBRANCH  36  37
DOCKED: ENDBRANCH  22  36
DOCKED: BRANCH  12  42
DOCKED: ATOM     42  C   UNL d   1      36.919  33.597  14.660 -0.38 +0.00    +0.004 C 
DOCKED: ATOM     43  C   UNL d   1      36.652  33.757  13.358 -0.52 +0.00    +0.012 C 
DOCKED: ENDBRANCH  12  42
DOCKED: BRANCH  17  44
DOCKED: ATOM     44  C   UNL d   1      37.116  25.841  12.787 -0.58 +0.00    +0.004 C 
DOCKED: ATOM     45  C   UNL d   1      36.204  25.051  13.363 -0.68 +0.00    +0.012 C 
DOCKED: ENDBRANCH  17  44
DOCKED: TORSDOF 10
DOCKED: TER
DOCKED: ENDMDL
________________________________________________________________________________


	BEGINNING GENETIC ALGORITHM DOCKING 91 of 100
Run: 91 Seed: 209717684 871354465 [ Run 91 of 100 GA/GALS ]
Beginning LAMARCKIAN GENETIC ALGORITHM (LGA), with a maximum of 25000000 energy evaluations.

Final-Value: -17.069


	FINAL GENETIC ALGORITHM DOCKED STATE
	_______________________________________________


Detailed state:  trans 41.583 28.928 16.937 quatxyzw 0.121147 0.938421 0.059753 -0.317991 center -0.174 -0.001 -0.047 ntor 10 -150.3616 87.5880 48.2188 -120.1735 -6.9808 -41.1111 60.5978 -31.4100 -158.3529 -5.5847
State:	 41.583  28.928  16.937   0.128  0.990  0.063 -142.917   -150.36   87.59   48.22 -120.17   -6.98  -41.11   60.60  -31.41 -158.35   -5.58

DOCKED: MODEL       91
DOCKED: USER    Run = 91
DOCKED: USER    DPF = D:/Protein_go_brrr/autodock/final/2DN3/heme_Fe/dock.dpf
DOCKED: USER  
DOCKED: USER    Estimated Free Energy of Binding    =  -13.48 kcal/mol  [=(1)+(2)+(3)-(4)]
DOCKED: USER    Estimated Inhibition Constant, Ki   =  132.22 pM (picomolar)  [Temperature = 298.15 K]
DOCKED: USER    
DOCKED: USER    (1) Final Intermolecular Energy     =  -16.46 kcal/mol
DOCKED: USER        vdW + Hbond + desolv Energy     =  -13.26 kcal/mol
DOCKED: USER        Electrostatic Energy            =   -3.20 kcal/mol
DOCKED: USER    (2) Final Total Internal Energy     =   -0.61 kcal/mol
DOCKED: USER    (3) Torsional Free Energy           =   +2.98 kcal/mol
DOCKED: USER    (4) Unbound System's Energy  [=(2)] =   -0.61 kcal/mol
DOCKED: USER    
DOCKED: USER    
DOCKED: USER    NEWDPF move heme_Fe_opt.pdbqt
DOCKED: USER    NEWDPF about -0.174000 -0.001000 -0.047000
DOCKED: USER    NEWDPF tran0 41.583382 28.927602 16.937131
DOCKED: USER    NEWDPF quaternion0 0.121147 0.938421 0.059753 -0.317991
DOCKED: USER    NEWDPF axisangle0 0.127780 0.989798 0.063025 -142.917051
DOCKED: USER    NEWDPF quat0 0.127780 0.989798 0.063025 -142.917051
DOCKED: USER    NEWDPF dihe0 -150.36 87.59 48.22 -120.17 -6.98 -41.11 60.60 -31.41 -158.35 -5.58 
DOCKED: USER  keepresnum = 1 
DOCKED: USER  
DOCKED: REMARK  10 active torsions:
DOCKED: REMARK  status: ('A' for Active; 'I' for Inactive)
DOCKED: REMARK    1  A    between atoms: C_6  and  C_10 
DOCKED: REMARK    2  A    between atoms: C_10  and  C_11 
DOCKED: REMARK    3  A    between atoms: C_11  and  C_12 
DOCKED: REMARK    4  A    between atoms: C_12  and  O_14 
DOCKED: REMARK    5  A    between atoms: C_17  and  C_20 
DOCKED: REMARK    6  A    between atoms: C_24  and  C_27 
DOCKED: REMARK    7  A    between atoms: C_31  and  C_34 
DOCKED: REMARK    8  A    between atoms: C_34  and  C_35 
DOCKED: REMARK    9  A    between atoms: C_35  and  C_36 
DOCKED: REMARK   10  A    between atoms: C_36  and  O_38 
DOCKED: USER                              x       y       z     vdW  Elec       q    Type
DOCKED: USER                           _______ _______ _______ _____ _____    ______ ____
DOCKED: ROOT
DOCKED: ATOM      1  C   UNL d   1      43.420  28.364  17.659 -0.24 +0.02    +0.064 C 
DOCKED: ATOM      2  C   UNL d   1      39.865  26.122  15.057 -0.35 +0.01    +0.064 A 
DOCKED: ATOM      3  C   UNL d   1      37.900  30.415  14.174 -0.40 +0.01    +0.064 C 
DOCKED: ATOM      4  C   UNL d   1      41.271  32.595  16.776 -0.48 +0.01    +0.064 C 
DOCKED: ATOM      5  C   UNL d   1      42.555  27.328  17.078 -0.28 +0.02    +0.066 A 
DOCKED: ATOM      6  C   UNL d   1      42.746  25.964  17.226 -0.33 -0.01    -0.021 A 
DOCKED: ATOM      7  C   UNL d   1      41.760  25.342  16.500 -0.35 -0.01    -0.025 A 
DOCKED: ATOM      8  C   UNL d   1      41.005  26.352  15.936 -0.35 +0.02    +0.066 A 
DOCKED: ATOM      9  C   UNL d   1      41.554  23.863  16.377 -0.52 +0.01    +0.051 C 
DOCKED: ATOM     10  C   UNL d   1      39.085  27.077  14.546 -0.35 +0.01    +0.066 A 
DOCKED: ATOM     11  C   UNL d   1      38.072  26.834  13.616 -0.44 -0.00    -0.021 A 
DOCKED: ATOM     12  C   UNL d   1      37.501  28.058  13.332 -0.45 +0.00    +0.000 A 
DOCKED: ATOM     13  C   UNL d   1      38.207  28.995  14.106 -0.30 +0.01    +0.070 A 
DOCKED: ATOM     14  C   UNL d   1      37.710  25.509  12.975 -0.49 +0.01    +0.052 C 
DOCKED: ATOM     15  C   UNL d   1      38.610  31.329  14.877 -0.36 +0.01    +0.066 A 
DOCKED: ATOM     16  C   UNL d   1      38.226  32.659  14.997 -0.38 -0.00    -0.021 A 
DOCKED: ATOM     17  C   UNL d   1      39.198  33.290  15.745 -0.43 +0.00    +0.000 A 
DOCKED: ATOM     18  C   UNL d   1      40.157  32.330  16.060 -0.38 +0.01    +0.070 A 
DOCKED: ATOM     19  C   UNL d   1      37.006  33.318  14.412 -0.35 +0.00    +0.052 C 
DOCKED: ATOM     20  C   UNL d   1      42.270  31.598  17.179 -0.36 +0.01    +0.066 A 
DOCKED: ATOM     21  C   UNL d   1      43.520  31.887  17.744 -0.26 -0.01    -0.025 A 
DOCKED: ATOM     22  C   UNL d   1      44.111  30.667  17.999 -0.29 -0.01    -0.021 A 
DOCKED: ATOM     23  C   UNL d   1      43.205  29.686  17.577 -0.29 +0.02    +0.066 A 
DOCKED: ATOM     24  C   UNL d   1      44.138  33.237  18.028 -0.05 +0.01    +0.051 C 
DOCKED: ATOM     25  N   UNL d   1      41.484  27.558  16.298 -0.26 -0.08    -0.248 N 
DOCKED: ATOM     26  N   UNL d   1      39.179  28.399  14.839 -0.04 -0.08    -0.248 N 
DOCKED: ATOM     27  N   UNL d   1      39.774  31.115  15.565 -0.09 -0.06    -0.248 N 
DOCKED: ATOM     28  N   UNL d   1      42.103  30.261  17.036 -0.25 -0.07    -0.248 N 
DOCKED: ATOM     29 FE   UNL d   1      40.641  29.332  15.938 -0.08 +0.00    +0.000 Fe
DOCKED: ENDROOT
DOCKED: BRANCH   6  30
DOCKED: ATOM     30  C   UNL d   1      43.798  25.283  18.033 -0.31 +0.02    +0.052 C 
DOCKED: BRANCH  30  31
DOCKED: ATOM     31  C   UNL d   1      45.174  25.487  17.409 -0.24 +0.07    +0.115 C 
DOCKED: BRANCH  31  32
DOCKED: ATOM     32  C   UNL d   1      45.783  24.164  17.036 -0.13 +0.14    +0.139 C 
DOCKED: ATOM     33  O   UNL d   1      45.242  23.115  17.358 -0.11 -0.61    -0.650 OA
DOCKED: BRANCH  32  34
DOCKED: ATOM     34  O   UNL d   1      46.933  24.122  16.342 -0.10 -1.39    -0.776 OA
DOCKED: ATOM     35  H   UNL d   1      47.572  24.842  16.449 +0.03 +0.20    +0.167 HD
DOCKED: ENDBRANCH  32  34
DOCKED: ENDBRANCH  31  32
DOCKED: ENDBRANCH  30  31
DOCKED: ENDBRANCH   6  30
DOCKED: BRANCH  22  36
DOCKED: ATOM     36  C   UNL d   1      45.488  30.458  18.572 -0.23 +0.02    +0.052 C 
DOCKED: BRANCH  36  37
DOCKED: ATOM     37  C   UNL d   1      45.404  30.359  20.088 -0.04 +0.09    +0.115 C 
DOCKED: BRANCH  37  38
DOCKED: ATOM     38  C   UNL d   1      46.460  29.436  20.627 -0.07 +0.16    +0.139 C 
DOCKED: ATOM     39  O   UNL d   1      46.724  28.387  20.057 -0.04 -0.54    -0.650 OA
DOCKED: BRANCH  38  40
DOCKED: ATOM     40  O   UNL d   1      47.125  29.760  21.750 -0.37 -1.41    -0.776 OA
DOCKED: ATOM     41  H   UNL d   1      47.962  30.239  21.679 +0.01 +0.17    +0.167 HD
DOCKED: ENDBRANCH  38  40
DOCKED: ENDBRANCH  37  38
DOCKED: ENDBRANCH  36  37
DOCKED: ENDBRANCH  22  36
DOCKED: BRANCH  12  42
DOCKED: ATOM     42  C   UNL d   1      36.376  28.276  12.371 -0.66 +0.00    +0.004 C 
DOCKED: ATOM     43  C   UNL d   1      35.107  28.341  12.797 -0.68 +0.00    +0.012 C 
DOCKED: ENDBRANCH  12  42
DOCKED: BRANCH  17  44
DOCKED: ATOM     44  C   UNL d   1      39.200  34.715  16.148 -0.54 +0.00    +0.004 C 
DOCKED: ATOM     45  C   UNL d   1      39.316  35.685  15.235 -0.58 +0.00    +0.012 C 
DOCKED: ENDBRANCH  17  44
DOCKED: TORSDOF 10
DOCKED: TER
DOCKED: ENDMDL
________________________________________________________________________________


	BEGINNING GENETIC ALGORITHM DOCKING 92 of 100
Run: 92 Seed: 1543688503 1713146190 [ Run 92 of 100 GA/GALS ]
Beginning LAMARCKIAN GENETIC ALGORITHM (LGA), with a maximum of 25000000 energy evaluations.

Final-Value: -12.087


	FINAL GENETIC ALGORITHM DOCKED STATE
	_______________________________________________


Detailed state:  trans 27.429 43.136 -0.685 quatxyzw -0.268894 0.806611 0.002549 -0.526373 center -0.174 -0.001 -0.047 ntor 10 -61.6230 4.4029 66.3561 44.1328 120.1496 143.9190 -95.6342 92.0919 153.2992 177.7855
State:	 27.429  43.136  -0.685  -0.316  0.949  0.003 -116.479    -61.62    4.40   66.36   44.13  120.15  143.92  -95.63   92.09  153.30  177.79

DOCKED: MODEL       92
DOCKED: USER    Run = 92
DOCKED: USER    DPF = D:/Protein_go_brrr/autodock/final/2DN3/heme_Fe/dock.dpf
DOCKED: USER  
DOCKED: USER    Estimated Free Energy of Binding    =   -6.55 kcal/mol  [=(1)+(2)+(3)-(4)]
DOCKED: USER    Estimated Inhibition Constant, Ki   =   15.73 uM (micromolar)  [Temperature = 298.15 K]
DOCKED: USER    
DOCKED: USER    (1) Final Intermolecular Energy     =   -9.54 kcal/mol
DOCKED: USER        vdW + Hbond + desolv Energy     =   -6.83 kcal/mol
DOCKED: USER        Electrostatic Energy            =   -2.71 kcal/mol
DOCKED: USER    (2) Final Total Internal Energy     =   -2.55 kcal/mol
DOCKED: USER    (3) Torsional Free Energy           =   +2.98 kcal/mol
DOCKED: USER    (4) Unbound System's Energy  [=(2)] =   -2.55 kcal/mol
DOCKED: USER    
DOCKED: USER    
DOCKED: USER    NEWDPF move heme_Fe_opt.pdbqt
DOCKED: USER    NEWDPF about -0.174000 -0.001000 -0.047000
DOCKED: USER    NEWDPF tran0 27.428629 43.135539 -0.684780
DOCKED: USER    NEWDPF quaternion0 -0.268894 0.806611 0.002549 -0.526373
DOCKED: USER    NEWDPF axisangle0 -0.316251 0.948671 0.002998 -116.478615
DOCKED: USER    NEWDPF quat0 -0.316251 0.948671 0.002998 -116.478615
DOCKED: USER    NEWDPF dihe0 -61.62 4.40 66.36 44.13 120.15 143.92 -95.63 92.09 153.30 177.79 
DOCKED: USER  keepresnum = 1 
DOCKED: USER  
DOCKED: REMARK  10 active torsions:
DOCKED: REMARK  status: ('A' for Active; 'I' for Inactive)
DOCKED: REMARK    1  A    between atoms: C_6  and  C_10 
DOCKED: REMARK    2  A    between atoms: C_10  and  C_11 
DOCKED: REMARK    3  A    between atoms: C_11  and  C_12 
DOCKED: REMARK    4  A    between atoms: C_12  and  O_14 
DOCKED: REMARK    5  A    between atoms: C_17  and  C_20 
DOCKED: REMARK    6  A    between atoms: C_24  and  C_27 
DOCKED: REMARK    7  A    between atoms: C_31  and  C_34 
DOCKED: REMARK    8  A    between atoms: C_34  and  C_35 
DOCKED: REMARK    9  A    between atoms: C_35  and  C_36 
DOCKED: REMARK   10  A    between atoms: C_36  and  O_38 
DOCKED: USER                              x       y       z     vdW  Elec       q    Type
DOCKED: USER                           _______ _______ _______ _____ _____    ______ ____
DOCKED: ROOT
DOCKED: ATOM      1  C   UNL d   1      28.502  44.092   0.779 -0.17 +0.03    +0.064 C 
DOCKED: ATOM      2  C   UNL d   1      28.689  39.618  -1.313 -0.12 +0.01    +0.064 A 
DOCKED: ATOM      3  C   UNL d   1      25.867  41.229  -4.849 -0.22 +0.01    +0.064 C 
DOCKED: ATOM      4  C   UNL d   1      25.587  45.537  -2.786 -0.19 +0.01    +0.064 C 
DOCKED: ATOM      5  C   UNL d   1      28.748  42.660   0.562 -0.14 +0.02    +0.066 A 
DOCKED: ATOM      6  C   UNL d   1      29.432  41.833   1.438 -0.15 -0.01    -0.021 A 
DOCKED: ATOM      7  C   UNL d   1      29.487  40.592   0.855 -0.11 -0.00    -0.025 A 
DOCKED: ATOM      8  C   UNL d   1      28.833  40.708  -0.356 -0.12 +0.01    +0.066 A 
DOCKED: ATOM      9  C   UNL d   1      30.116  39.366   1.444 -0.11 +0.01    +0.051 C 
DOCKED: ATOM     10  C   UNL d   1      28.014  39.688  -2.461 -0.13 +0.01    +0.066 A 
DOCKED: ATOM     11  C   UNL d   1      27.990  38.662  -3.410 -0.14 -0.00    -0.021 A 
DOCKED: ATOM     12  C   UNL d   1      27.196  39.109  -4.447 -0.17 +0.00    +0.000 A 
DOCKED: ATOM     13  C   UNL d   1      26.780  40.400  -4.078 -0.15 +0.01    +0.070 A 
DOCKED: ATOM     14  C   UNL d   1      28.742  37.348  -3.362 -0.07 +0.01    +0.052 C 
DOCKED: ATOM     15  C   UNL d   1      25.504  42.493  -4.524 -0.19 +0.01    +0.066 A 
DOCKED: ATOM     16  C   UNL d   1      24.552  43.215  -5.232 -0.19 -0.00    -0.021 A 
DOCKED: ATOM     17  C   UNL d   1      24.473  44.459  -4.641 -0.23 +0.00    +0.000 A 
DOCKED: ATOM     18  C   UNL d   1      25.382  44.468  -3.586 -0.22 +0.01    +0.070 A 
DOCKED: ATOM     19  C   UNL d   1      23.766  42.765  -6.434 -0.16 +0.01    +0.052 C 
DOCKED: ATOM     20  C   UNL d   1      26.490  45.562  -1.629 -0.11 +0.02    +0.066 A 
DOCKED: ATOM     21  C   UNL d   1      26.862  46.711  -0.917 -0.10 -0.01    -0.025 A 
DOCKED: ATOM     22  C   UNL d   1      27.682  46.275   0.102 -0.12 -0.01    -0.021 A 
DOCKED: ATOM     23  C   UNL d   1      27.784  44.885  -0.031 -0.15 +0.03    +0.066 A 
DOCKED: ATOM     24  C   UNL d   1      26.474  48.149  -1.177 -0.06 +0.01    +0.051 C 
DOCKED: ATOM     25  N   UNL d   1      28.376  41.965  -0.527 -0.09 -0.06    -0.248 N 
DOCKED: ATOM     26  N   UNL d   1      27.285  40.757  -2.872 -0.11 -0.04    -0.248 N 
DOCKED: ATOM     27  N   UNL d   1      25.985  43.245  -3.486 -0.17 -0.05    -0.248 N 
DOCKED: ATOM     28  N   UNL d   1      27.090  44.461  -1.116 -0.11 -0.08    -0.248 N 
DOCKED: ATOM     29 FE   UNL d   1      27.187  42.611  -1.994 -0.04 +0.00    +0.000 Fe
DOCKED: ENDROOT
DOCKED: BRANCH   6  30
DOCKED: ATOM     30  C   UNL d   1      29.988  42.197   2.773 -0.26 +0.02    +0.052 C 
DOCKED: BRANCH  30  31
DOCKED: ATOM     31  C   UNL d   1      31.505  42.041   2.787 -0.26 +0.05    +0.115 C 
DOCKED: BRANCH  31  32
DOCKED: ATOM     32  C   UNL d   1      32.166  43.275   2.240 -0.22 +0.16    +0.139 C 
DOCKED: ATOM     33  O   UNL d   1      32.942  43.924   2.927 -0.43 -1.16    -0.650 OA
DOCKED: BRANCH  32  34
DOCKED: ATOM     34  O   UNL d   1      31.908  43.679   0.984 +0.02 -1.03    -0.776 OA
DOCKED: ATOM     35  H   UNL d   1      31.501  44.545   0.844 +0.04 +0.22    +0.167 HD
DOCKED: ENDBRANCH  32  34
DOCKED: ENDBRANCH  31  32
DOCKED: ENDBRANCH  30  31
DOCKED: ENDBRANCH   6  30
DOCKED: BRANCH  22  36
DOCKED: ATOM     36  C   UNL d   1      28.369  47.152   1.116 +0.01 +0.03    +0.052 C 
DOCKED: BRANCH  36  37
DOCKED: ATOM     37  C   UNL d   1      29.684  47.663   0.545 -0.13 +0.04    +0.115 C 
DOCKED: BRANCH  37  38
DOCKED: ATOM     38  C   UNL d   1      30.806  46.708   0.839 -0.18 +0.09    +0.139 C 
DOCKED: ATOM     39  O   UNL d   1      31.700  46.525   0.026 -0.46 -0.74    -0.650 OA
DOCKED: BRANCH  38  40
DOCKED: ATOM     40  O   UNL d   1      30.831  46.041   2.006 -0.03 -0.54    -0.776 OA
DOCKED: ATOM     41  H   UNL d   1      31.590  45.475   2.208 -0.13 +0.19    +0.167 HD
DOCKED: ENDBRANCH  38  40
DOCKED: ENDBRANCH  37  38
DOCKED: ENDBRANCH  36  37
DOCKED: ENDBRANCH  22  36
DOCKED: BRANCH  12  42
DOCKED: ATOM     42  C   UNL d   1      26.898  38.335  -5.692 -0.11 +0.00    +0.004 C 
DOCKED: ATOM     43  C   UNL d   1      25.655  37.915  -5.961 -0.15 +0.00    +0.012 C 
DOCKED: ENDBRANCH  12  42
DOCKED: BRANCH  17  44
DOCKED: ATOM     44  C   UNL d   1      23.570  45.560  -5.047 -0.20 +0.00    +0.004 C 
DOCKED: ATOM     45  C   UNL d   1      22.416  45.771  -4.406 -0.30 +0.00    +0.012 C 
DOCKED: ENDBRANCH  17  44
DOCKED: TORSDOF 10
DOCKED: TER
DOCKED: ENDMDL
________________________________________________________________________________


	BEGINNING GENETIC ALGORITHM DOCKING 93 of 100
Run: 93 Seed: 361777045 835326940 [ Run 93 of 100 GA/GALS ]
Beginning LAMARCKIAN GENETIC ALGORITHM (LGA), with a maximum of 25000000 energy evaluations.

Final-Value: -12.614


	FINAL GENETIC ALGORITHM DOCKED STATE
	_______________________________________________


Detailed state:  trans 29.015 39.652 -0.327 quatxyzw -0.373833 0.508709 0.703693 0.326006 center -0.174 -0.001 -0.047 ntor 10 38.5060 78.1715 -172.9128 -156.3833 -49.9563 -158.1543 60.1736 -58.6733 -14.0383 -26.7891
State:	 29.015  39.652  -0.327  -0.395  0.538  0.744 141.947     38.51   78.17 -172.91 -156.38  -49.96 -158.15   60.17  -58.67  -14.04  -26.79

DOCKED: MODEL       93
DOCKED: USER    Run = 93
DOCKED: USER    DPF = D:/Protein_go_brrr/autodock/final/2DN3/heme_Fe/dock.dpf
DOCKED: USER  
DOCKED: USER    Estimated Free Energy of Binding    =   -7.14 kcal/mol  [=(1)+(2)+(3)-(4)]
DOCKED: USER    Estimated Inhibition Constant, Ki   =    5.86 uM (micromolar)  [Temperature = 298.15 K]
DOCKED: USER    
DOCKED: USER    (1) Final Intermolecular Energy     =  -10.12 kcal/mol
DOCKED: USER        vdW + Hbond + desolv Energy     =   -7.20 kcal/mol
DOCKED: USER        Electrostatic Energy            =   -2.93 kcal/mol
DOCKED: USER    (2) Final Total Internal Energy     =   -2.49 kcal/mol
DOCKED: USER    (3) Torsional Free Energy           =   +2.98 kcal/mol
DOCKED: USER    (4) Unbound System's Energy  [=(2)] =   -2.49 kcal/mol
DOCKED: USER    
DOCKED: USER    
DOCKED: USER    NEWDPF move heme_Fe_opt.pdbqt
DOCKED: USER    NEWDPF about -0.174000 -0.001000 -0.047000
DOCKED: USER    NEWDPF tran0 29.015151 39.652481 -0.327189
DOCKED: USER    NEWDPF quaternion0 -0.373833 0.508709 0.703693 0.326006
DOCKED: USER    NEWDPF axisangle0 -0.395437 0.538107 0.744359 141.946876
DOCKED: USER    NEWDPF quat0 -0.395437 0.538107 0.744359 141.946876
DOCKED: USER    NEWDPF dihe0 38.51 78.17 -172.91 -156.38 -49.96 -158.15 60.17 -58.67 -14.04 -26.79 
DOCKED: USER  keepresnum = 1 
DOCKED: USER  
DOCKED: REMARK  10 active torsions:
DOCKED: REMARK  status: ('A' for Active; 'I' for Inactive)
DOCKED: REMARK    1  A    between atoms: C_6  and  C_10 
DOCKED: REMARK    2  A    between atoms: C_10  and  C_11 
DOCKED: REMARK    3  A    between atoms: C_11  and  C_12 
DOCKED: REMARK    4  A    between atoms: C_12  and  O_14 
DOCKED: REMARK    5  A    between atoms: C_17  and  C_20 
DOCKED: REMARK    6  A    between atoms: C_24  and  C_27 
DOCKED: REMARK    7  A    between atoms: C_31  and  C_34 
DOCKED: REMARK    8  A    between atoms: C_34  and  C_35 
DOCKED: REMARK    9  A    between atoms: C_35  and  C_36 
DOCKED: REMARK   10  A    between atoms: C_36  and  O_38 
DOCKED: USER                              x       y       z     vdW  Elec       q    Type
DOCKED: USER                           _______ _______ _______ _____ _____    ______ ____
DOCKED: ROOT
DOCKED: ATOM      1  C   UNL d   1      29.560  41.582   0.109 -0.10 +0.02    +0.064 C 
DOCKED: ATOM      2  C   UNL d   1      27.611  39.323  -3.831 -0.15 +0.01    +0.064 A 
DOCKED: ATOM      3  C   UNL d   1      26.589  35.531  -1.066 -0.21 +0.01    +0.064 C 
DOCKED: ATOM      4  C   UNL d   1      28.566  37.657   2.737 -0.23 -0.00    +0.064 C 
DOCKED: ATOM      5  C   UNL d   1      29.182  41.264  -1.274 -0.09 +0.01    +0.066 A 
DOCKED: ATOM      6  C   UNL d   1      29.427  42.078  -2.368 -0.05 -0.00    -0.021 A 
DOCKED: ATOM      7  C   UNL d   1      28.882  41.452  -3.461 -0.06 -0.00    -0.025 A 
DOCKED: ATOM      8  C   UNL d   1      28.325  40.278  -2.993 -0.12 +0.01    +0.066 A 
DOCKED: ATOM      9  C   UNL d   1      28.917  41.951  -4.873 -0.03 +0.01    +0.051 C 
DOCKED: ATOM     10  C   UNL d   1      27.114  38.157  -3.415 -0.19 +0.01    +0.066 A 
DOCKED: ATOM     11  C   UNL d   1      26.336  37.316  -4.215 -0.21 -0.00    -0.021 A 
DOCKED: ATOM     12  C   UNL d   1      26.015  36.223  -3.435 -0.23 +0.00    +0.000 A 
DOCKED: ATOM     13  C   UNL d   1      26.612  36.460  -2.185 -0.17 +0.01    +0.070 A 
DOCKED: ATOM     14  C   UNL d   1      25.864  37.574  -5.632 -0.15 +0.00    +0.052 C 
DOCKED: ATOM     15  C   UNL d   1      27.118  35.777   0.156 -0.13 +0.01    +0.066 A 
DOCKED: ATOM     16  C   UNL d   1      27.164  34.826   1.168 -0.25 -0.01    -0.021 A 
DOCKED: ATOM     17  C   UNL d   1      27.731  35.438   2.267 -0.24 +0.00    +0.000 A 
DOCKED: ATOM     18  C   UNL d   1      28.014  36.751   1.900 -0.19 +0.01    +0.070 A 
DOCKED: ATOM     19  C   UNL d   1      26.672  33.404   1.115 -0.33 +0.02    +0.052 C 
DOCKED: ATOM     20  C   UNL d   1      28.934  39.029   2.369 -0.18 -0.00    +0.066 A 
DOCKED: ATOM     21  C   UNL d   1      29.318  40.034   3.268 -0.27 +0.00    -0.025 A 
DOCKED: ATOM     22  C   UNL d   1      29.609  41.140   2.496 -0.21 -0.00    -0.021 A 
DOCKED: ATOM     23  C   UNL d   1      29.387  40.771   1.165 -0.11 +0.01    +0.066 A 
DOCKED: ATOM     24  C   UNL d   1      29.405  39.968   4.775 -0.17 -0.04    +0.051 C 
DOCKED: ATOM     25  N   UNL d   1      28.517  40.162  -1.663 -0.08 -0.04    -0.248 N 
DOCKED: ATOM     26  N   UNL d   1      27.275  37.642  -2.169 -0.15 -0.03    -0.248 N 
DOCKED: ATOM     27  N   UNL d   1      27.678  36.948   0.590 -0.03 -0.03    -0.248 N 
DOCKED: ATOM     28  N   UNL d   1      28.932  39.496   1.096 -0.08 -0.02    -0.248 N 
DOCKED: ATOM     29 FE   UNL d   1      28.104  38.568  -0.535 -0.05 +0.00    +0.000 Fe
DOCKED: ENDROOT
DOCKED: BRANCH   6  30
DOCKED: ATOM     30  C   UNL d   1      30.161  43.376  -2.380 -0.03 +0.02    +0.052 C 
DOCKED: BRANCH  30  31
DOCKED: ATOM     31  C   UNL d   1      31.663  43.148  -2.258 -0.02 +0.05    +0.115 C 
DOCKED: BRANCH  31  32
DOCKED: ATOM     32  C   UNL d   1      32.200  43.822  -1.026 -0.09 +0.13    +0.139 C 
DOCKED: ATOM     33  O   UNL d   1      31.937  44.993  -0.792 -0.24 -0.76    -0.650 OA
DOCKED: BRANCH  32  34
DOCKED: ATOM     34  O   UNL d   1      32.976  43.139  -0.167 +0.05 -1.00    -0.776 OA
DOCKED: ATOM     35  H   UNL d   1      32.870  43.290   0.782 +0.04 +0.29    +0.167 HD
DOCKED: ENDBRANCH  32  34
DOCKED: ENDBRANCH  31  32
DOCKED: ENDBRANCH  30  31
DOCKED: ENDBRANCH   6  30
DOCKED: BRANCH  22  36
DOCKED: ATOM     36  C   UNL d   1      30.030  42.489   3.017 -0.16 +0.02    +0.052 C 
DOCKED: BRANCH  36  37
DOCKED: ATOM     37  C   UNL d   1      31.438  42.404   3.587 -0.28 +0.05    +0.115 C 
DOCKED: BRANCH  37  38
DOCKED: ATOM     38  C   UNL d   1      32.367  43.341   2.869 -0.25 +0.15    +0.139 C 
DOCKED: ATOM     39  O   UNL d   1      33.575  43.158   2.885 -0.53 -0.94    -0.650 OA
DOCKED: BRANCH  38  40
DOCKED: ATOM     40  O   UNL d   1      31.871  44.399   2.203 -0.01 -1.13    -0.776 OA
DOCKED: ATOM     41  H   UNL d   1      31.798  44.355   1.239 +0.04 +0.27    +0.167 HD
DOCKED: ENDBRANCH  38  40
DOCKED: ENDBRANCH  37  38
DOCKED: ENDBRANCH  36  37
DOCKED: ENDBRANCH  22  36
DOCKED: BRANCH  12  42
DOCKED: ATOM     42  C   UNL d   1      25.179  35.068  -3.885 -0.22 -0.00    +0.004 C 
DOCKED: ATOM     43  C   UNL d   1      24.090  34.696  -3.199 -0.39 -0.00    +0.012 C 
DOCKED: ENDBRANCH  12  42
DOCKED: BRANCH  17  44
DOCKED: ATOM     44  C   UNL d   1      28.002  34.801   3.575 -0.29 +0.00    +0.004 C 
DOCKED: ATOM     45  C   UNL d   1      27.203  35.023   4.624 -0.36 +0.00    +0.012 C 
DOCKED: ENDBRANCH  17  44
DOCKED: TORSDOF 10
DOCKED: TER
DOCKED: ENDMDL
________________________________________________________________________________


	BEGINNING GENETIC ALGORITHM DOCKING 94 of 100
Run: 94 Seed: 888572959 1174660225 [ Run 94 of 100 GA/GALS ]
Beginning LAMARCKIAN GENETIC ALGORITHM (LGA), with a maximum of 25000000 energy evaluations.

Final-Value: -17.184


	FINAL GENETIC ALGORITHM DOCKED STATE
	_______________________________________________


Detailed state:  trans 41.568 28.727 16.906 quatxyzw 0.136927 0.935778 0.074673 -0.316219 center -0.174 -0.001 -0.047 ntor 10 -148.9729 -84.5882 42.4885 -114.0128 -9.4667 110.6476 53.1572 -20.3716 -149.2628 -43.9521
State:	 41.568  28.727  16.906   0.144  0.986  0.079 -143.131   -148.97  -84.59   42.49 -114.01   -9.47  110.65   53.16  -20.37 -149.26  -43.95

DOCKED: MODEL       94
DOCKED: USER    Run = 94
DOCKED: USER    DPF = D:/Protein_go_brrr/autodock/final/2DN3/heme_Fe/dock.dpf
DOCKED: USER  
DOCKED: USER    Estimated Free Energy of Binding    =  -13.79 kcal/mol  [=(1)+(2)+(3)-(4)]
DOCKED: USER    Estimated Inhibition Constant, Ki   =   77.63 pM (picomolar)  [Temperature = 298.15 K]
DOCKED: USER    
DOCKED: USER    (1) Final Intermolecular Energy     =  -16.78 kcal/mol
DOCKED: USER        vdW + Hbond + desolv Energy     =  -13.68 kcal/mol
DOCKED: USER        Electrostatic Energy            =   -3.09 kcal/mol
DOCKED: USER    (2) Final Total Internal Energy     =   -0.41 kcal/mol
DOCKED: USER    (3) Torsional Free Energy           =   +2.98 kcal/mol
DOCKED: USER    (4) Unbound System's Energy  [=(2)] =   -0.41 kcal/mol
DOCKED: USER    
DOCKED: USER    
DOCKED: USER    NEWDPF move heme_Fe_opt.pdbqt
DOCKED: USER    NEWDPF about -0.174000 -0.001000 -0.047000
DOCKED: USER    NEWDPF tran0 41.567969 28.727464 16.906048
DOCKED: USER    NEWDPF quaternion0 0.136927 0.935778 0.074673 -0.316219
DOCKED: USER    NEWDPF axisangle0 0.144333 0.986394 0.078712 -143.131155
DOCKED: USER    NEWDPF quat0 0.144333 0.986394 0.078712 -143.131155
DOCKED: USER    NEWDPF dihe0 -148.97 -84.59 42.49 -114.01 -9.47 110.65 53.16 -20.37 -149.26 -43.95 
DOCKED: USER  keepresnum = 1 
DOCKED: USER  
DOCKED: REMARK  10 active torsions:
DOCKED: REMARK  status: ('A' for Active; 'I' for Inactive)
DOCKED: REMARK    1  A    between atoms: C_6  and  C_10 
DOCKED: REMARK    2  A    between atoms: C_10  and  C_11 
DOCKED: REMARK    3  A    between atoms: C_11  and  C_12 
DOCKED: REMARK    4  A    between atoms: C_12  and  O_14 
DOCKED: REMARK    5  A    between atoms: C_17  and  C_20 
DOCKED: REMARK    6  A    between atoms: C_24  and  C_27 
DOCKED: REMARK    7  A    between atoms: C_31  and  C_34 
DOCKED: REMARK    8  A    between atoms: C_34  and  C_35 
DOCKED: REMARK    9  A    between atoms: C_35  and  C_36 
DOCKED: REMARK   10  A    between atoms: C_36  and  O_38 
DOCKED: USER                              x       y       z     vdW  Elec       q    Type
DOCKED: USER                           _______ _______ _______ _____ _____    ______ ____
DOCKED: ROOT
DOCKED: ATOM      1  C   UNL d   1      43.392  28.098  17.605 -0.24 +0.02    +0.064 C 
DOCKED: ATOM      2  C   UNL d   1      39.793  26.033  14.919 -0.40 +0.01    +0.064 A 
DOCKED: ATOM      3  C   UNL d   1      37.917  30.396  14.204 -0.40 +0.01    +0.064 C 
DOCKED: ATOM      4  C   UNL d   1      41.331  32.404  16.888 -0.48 +0.01    +0.064 C 
DOCKED: ATOM      5  C   UNL d   1      42.506  27.104  16.985 -0.31 +0.02    +0.066 A 
DOCKED: ATOM      6  C   UNL d   1      42.669  25.731  17.080 -0.34 -0.01    -0.021 A 
DOCKED: ATOM      7  C   UNL d   1      41.671  25.159  16.330 -0.38 -0.01    -0.025 A 
DOCKED: ATOM      8  C   UNL d   1      40.937  26.205  15.806 -0.36 +0.02    +0.066 A 
DOCKED: ATOM      9  C   UNL d   1      41.435  23.690  16.150 -0.53 +0.01    +0.051 C 
DOCKED: ATOM     10  C   UNL d   1      39.033  27.022  14.446 -0.36 +0.01    +0.066 A 
DOCKED: ATOM     11  C   UNL d   1      38.016  26.836  13.507 -0.44 -0.00    -0.021 A 
DOCKED: ATOM     12  C   UNL d   1      37.470  28.083  13.271 -0.46 +0.00    +0.000 A 
DOCKED: ATOM     13  C   UNL d   1      38.195  28.974  14.081 -0.30 +0.01    +0.070 A 
DOCKED: ATOM     14  C   UNL d   1      37.628  25.545  12.816 -0.47 +0.01    +0.052 C 
DOCKED: ATOM     15  C   UNL d   1      38.645  31.268  14.942 -0.35 +0.01    +0.066 A 
DOCKED: ATOM     16  C   UNL d   1      38.288  32.599  15.113 -0.38 -0.00    -0.021 A 
DOCKED: ATOM     17  C   UNL d   1      39.274  33.181  15.884 -0.42 +0.00    +0.000 A 
DOCKED: ATOM     18  C   UNL d   1      40.212  32.190  16.162 -0.38 +0.01    +0.070 A 
DOCKED: ATOM     19  C   UNL d   1      37.083  33.306  14.555 -0.36 +0.00    +0.052 C 
DOCKED: ATOM     20  C   UNL d   1      42.309  31.372  17.251 -0.36 +0.02    +0.066 A 
DOCKED: ATOM     21  C   UNL d   1      43.565  31.613  17.827 -0.29 -0.01    -0.025 A 
DOCKED: ATOM     22  C   UNL d   1      44.130  30.372  18.034 -0.30 -0.01    -0.021 A 
DOCKED: ATOM     23  C   UNL d   1      43.204  29.427  17.574 -0.26 +0.02    +0.066 A 
DOCKED: ATOM     24  C   UNL d   1      44.210  32.938  18.163 -0.11 +0.01    +0.051 C 
DOCKED: ATOM     25  N   UNL d   1      41.441  27.386  16.214 -0.26 -0.08    -0.248 N 
DOCKED: ATOM     26  N   UNL d   1      39.154  28.330  14.790 -0.08 -0.08    -0.248 N 
DOCKED: ATOM     27  N   UNL d   1      39.805  31.003  15.620 -0.06 -0.07    -0.248 N 
DOCKED: ATOM     28  N   UNL d   1      42.115  30.045  17.057 -0.24 -0.08    -0.248 N 
DOCKED: ATOM     29 FE   UNL d   1      40.635  29.189  15.924 -0.08 +0.00    +0.000 Fe
DOCKED: ENDROOT
DOCKED: BRANCH   6  30
DOCKED: ATOM     30  C   UNL d   1      43.706  24.998  17.859 -0.32 +0.02    +0.052 C 
DOCKED: BRANCH  30  31
DOCKED: ATOM     31  C   UNL d   1      45.106  25.374  17.384 -0.23 +0.07    +0.115 C 
DOCKED: BRANCH  31  32
DOCKED: ATOM     32  C   UNL d   1      45.893  24.140  17.040 -0.14 +0.14    +0.139 C 
DOCKED: ATOM     33  O   UNL d   1      45.465  23.029  17.320 -0.18 -0.69    -0.650 OA
DOCKED: BRANCH  32  34
DOCKED: ATOM     34  O   UNL d   1      47.081  24.248  16.421 -0.09 -1.32    -0.776 OA
DOCKED: ATOM     35  H   UNL d   1      47.628  25.028  16.589 +0.03 +0.18    +0.167 HD
DOCKED: ENDBRANCH  32  34
DOCKED: ENDBRANCH  31  32
DOCKED: ENDBRANCH  30  31
DOCKED: ENDBRANCH   6  30
DOCKED: BRANCH  22  36
DOCKED: ATOM     36  C   UNL d   1      45.502  30.113  18.598 -0.23 +0.02    +0.052 C 
DOCKED: BRANCH  36  37
DOCKED: ATOM     37  C   UNL d   1      45.660  30.846  19.921 -0.18 +0.07    +0.115 C 
DOCKED: BRANCH  37  38
DOCKED: ATOM     38  C   UNL d   1      46.756  30.235  20.748 -0.06 +0.14    +0.139 C 
DOCKED: ATOM     39  O   UNL d   1      47.802  30.836  20.944 -0.04 -0.45    -0.650 OA
DOCKED: BRANCH  38  40
DOCKED: ATOM     40  O   UNL d   1      46.592  29.010  21.280 -0.43 -1.37    -0.776 OA
DOCKED: ATOM     41  H   UNL d   1      46.934  28.241  20.803 +0.03 +0.19    +0.167 HD
DOCKED: ENDBRANCH  38  40
DOCKED: ENDBRANCH  37  38
DOCKED: ENDBRANCH  36  37
DOCKED: ENDBRANCH  22  36
DOCKED: BRANCH  12  42
DOCKED: ATOM     42  C   UNL d   1      36.350  28.361  12.319 -0.67 +0.00    +0.004 C 
DOCKED: ATOM     43  C   UNL d   1      35.074  28.322  12.726 -0.67 +0.00    +0.012 C 
DOCKED: ENDBRANCH  12  42
DOCKED: BRANCH  17  44
DOCKED: ATOM     44  C   UNL d   1      39.304  34.588  16.342 -0.53 +0.00    +0.004 C 
DOCKED: ATOM     45  C   UNL d   1      39.317  35.595  15.463 -0.56 +0.00    +0.012 C 
DOCKED: ENDBRANCH  17  44
DOCKED: TORSDOF 10
DOCKED: TER
DOCKED: ENDMDL
________________________________________________________________________________


	BEGINNING GENETIC ALGORITHM DOCKING 95 of 100
Run: 95 Seed: 528830512 678121495 [ Run 95 of 100 GA/GALS ]
Beginning LAMARCKIAN GENETIC ALGORITHM (LGA), with a maximum of 25000000 energy evaluations.

Final-Value: -17.133


	FINAL GENETIC ALGORITHM DOCKED STATE
	_______________________________________________


Detailed state:  trans 41.566 28.704 16.895 quatxyzw -0.145223 -0.937503 -0.067387 0.308961 center -0.174 -0.001 -0.047 ntor 10 -53.9227 107.4147 33.3748 -108.9717 -36.4409 161.0573 -58.4142 -19.4380 -138.8670 -18.8658
State:	 41.566  28.704  16.895  -0.153 -0.986 -0.071 144.007    -53.92  107.41   33.37 -108.97  -36.44  161.06  -58.41  -19.44 -138.87  -18.87

DOCKED: MODEL       95
DOCKED: USER    Run = 95
DOCKED: USER    DPF = D:/Protein_go_brrr/autodock/final/2DN3/heme_Fe/dock.dpf
DOCKED: USER  
DOCKED: USER    Estimated Free Energy of Binding    =  -12.13 kcal/mol  [=(1)+(2)+(3)-(4)]
DOCKED: USER    Estimated Inhibition Constant, Ki   =    1.29 nM (nanomolar)  [Temperature = 298.15 K]
DOCKED: USER    
DOCKED: USER    (1) Final Intermolecular Energy     =  -15.11 kcal/mol
DOCKED: USER        vdW + Hbond + desolv Energy     =  -13.02 kcal/mol
DOCKED: USER        Electrostatic Energy            =   -2.10 kcal/mol
DOCKED: USER    (2) Final Total Internal Energy     =   -2.02 kcal/mol
DOCKED: USER    (3) Torsional Free Energy           =   +2.98 kcal/mol
DOCKED: USER    (4) Unbound System's Energy  [=(2)] =   -2.02 kcal/mol
DOCKED: USER    
DOCKED: USER    
DOCKED: USER    NEWDPF move heme_Fe_opt.pdbqt
DOCKED: USER    NEWDPF about -0.174000 -0.001000 -0.047000
DOCKED: USER    NEWDPF tran0 41.566119 28.703837 16.895404
DOCKED: USER    NEWDPF quaternion0 -0.145223 -0.937503 -0.067387 0.308961
DOCKED: USER    NEWDPF axisangle0 -0.152693 -0.985730 -0.070854 144.006785
DOCKED: USER    NEWDPF quat0 -0.152693 -0.985730 -0.070854 144.006785
DOCKED: USER    NEWDPF dihe0 -53.92 107.41 33.37 -108.97 -36.44 161.06 -58.41 -19.44 -138.87 -18.87 
DOCKED: USER  keepresnum = 1 
DOCKED: USER  
DOCKED: REMARK  10 active torsions:
DOCKED: REMARK  status: ('A' for Active; 'I' for Inactive)
DOCKED: REMARK    1  A    between atoms: C_6  and  C_10 
DOCKED: REMARK    2  A    between atoms: C_10  and  C_11 
DOCKED: REMARK    3  A    between atoms: C_11  and  C_12 
DOCKED: REMARK    4  A    between atoms: C_12  and  O_14 
DOCKED: REMARK    5  A    between atoms: C_17  and  C_20 
DOCKED: REMARK    6  A    between atoms: C_24  and  C_27 
DOCKED: REMARK    7  A    between atoms: C_31  and  C_34 
DOCKED: REMARK    8  A    between atoms: C_34  and  C_35 
DOCKED: REMARK    9  A    between atoms: C_35  and  C_36 
DOCKED: REMARK   10  A    between atoms: C_36  and  O_38 
DOCKED: USER                              x       y       z     vdW  Elec       q    Type
DOCKED: USER                           _______ _______ _______ _____ _____    ______ ____
DOCKED: ROOT
DOCKED: ATOM      1  C   UNL d   1      43.390  28.045  17.566 -0.25 +0.02    +0.064 C 
DOCKED: ATOM      2  C   UNL d   1      39.707  26.030  14.958 -0.37 +0.01    +0.064 A 
DOCKED: ATOM      3  C   UNL d   1      37.899  30.423  14.248 -0.39 +0.01    +0.064 C 
DOCKED: ATOM      4  C   UNL d   1      41.397  32.384  16.856 -0.47 +0.01    +0.064 C 
DOCKED: ATOM      5  C   UNL d   1      42.475  27.063  16.968 -0.31 +0.02    +0.066 A 
DOCKED: ATOM      6  C   UNL d   1      42.614  25.689  17.070 -0.34 -0.01    -0.021 A 
DOCKED: ATOM      7  C   UNL d   1      41.593  25.130  16.342 -0.40 -0.01    -0.025 A 
DOCKED: ATOM      8  C   UNL d   1      40.869  26.186  15.824 -0.36 +0.02    +0.066 A 
DOCKED: ATOM      9  C   UNL d   1      41.326  23.665  16.176 -0.51 +0.01    +0.051 C 
DOCKED: ATOM     10  C   UNL d   1      38.956  27.030  14.493 -0.36 +0.01    +0.066 A 
DOCKED: ATOM     11  C   UNL d   1      37.919  26.857  13.573 -0.43 -0.00    -0.021 A 
DOCKED: ATOM     12  C   UNL d   1      37.392  28.112  13.339 -0.46 +0.00    +0.000 A 
DOCKED: ATOM     13  C   UNL d   1      38.148  28.995  14.129 -0.31 +0.01    +0.070 A 
DOCKED: ATOM     14  C   UNL d   1      37.495  25.569  12.898 -0.51 +0.01    +0.052 C 
DOCKED: ATOM     15  C   UNL d   1      38.656  31.285  14.966 -0.35 +0.01    +0.066 A 
DOCKED: ATOM     16  C   UNL d   1      38.327  32.624  15.135 -0.38 -0.00    -0.021 A 
DOCKED: ATOM     17  C   UNL d   1      39.337  33.193  15.884 -0.43 +0.00    +0.000 A 
DOCKED: ATOM     18  C   UNL d   1      40.261  32.186  16.152 -0.37 +0.01    +0.070 A 
DOCKED: ATOM     19  C   UNL d   1      37.125  33.350  14.593 -0.38 +0.00    +0.052 C 
DOCKED: ATOM     20  C   UNL d   1      42.362  31.336  17.209 -0.35 +0.02    +0.066 A 
DOCKED: ATOM     21  C   UNL d   1      43.633  31.558  17.760 -0.27 -0.01    -0.025 A 
DOCKED: ATOM     22  C   UNL d   1      44.178  30.307  17.966 -0.29 -0.01    -0.021 A 
DOCKED: ATOM     23  C   UNL d   1      43.227  29.377  17.529 -0.26 +0.02    +0.066 A 
DOCKED: ATOM     24  C   UNL d   1      44.308  32.872  18.076 -0.00 +0.01    +0.051 C 
DOCKED: ATOM     25  N   UNL d   1      41.402  27.361  16.215 -0.26 -0.08    -0.248 N 
DOCKED: ATOM     26  N   UNL d   1      39.108  28.337  14.826 -0.10 -0.07    -0.248 N 
DOCKED: ATOM     27  N   UNL d   1      39.822  31.003  15.625 -0.06 -0.07    -0.248 N 
DOCKED: ATOM     28  N   UNL d   1      42.140  30.012  17.027 -0.24 -0.08    -0.248 N 
DOCKED: ATOM     29 FE   UNL d   1      40.624  29.177  15.927 -0.08 +0.00    +0.000 Fe
DOCKED: ENDROOT
DOCKED: BRANCH   6  30
DOCKED: ATOM     30  C   UNL d   1      43.652  24.942  17.836 -0.32 +0.02    +0.052 C 
DOCKED: BRANCH  30  31
DOCKED: ATOM     31  C   UNL d   1      45.046  25.471  17.515 -0.23 +0.06    +0.115 C 
DOCKED: BRANCH  31  32
DOCKED: ATOM     32  C   UNL d   1      45.727  25.950  18.767 -0.14 +0.08    +0.139 C 
DOCKED: ATOM     33  O   UNL d   1      45.090  26.509  19.648 +0.04 -0.41    -0.650 OA
DOCKED: BRANCH  32  34
DOCKED: ATOM     34  O   UNL d   1      47.048  25.768  18.928 +0.07 -0.46    -0.776 OA
DOCKED: ATOM     35  H   UNL d   1      47.606  26.532  19.132 +0.04 +0.09    +0.167 HD
DOCKED: ENDBRANCH  32  34
DOCKED: ENDBRANCH  31  32
DOCKED: ENDBRANCH  30  31
DOCKED: ENDBRANCH   6  30
DOCKED: BRANCH  22  36
DOCKED: ATOM     36  C   UNL d   1      45.555  30.026  18.507 -0.22 +0.02    +0.052 C 
DOCKED: BRANCH  36  37
DOCKED: ATOM     37  C   UNL d   1      45.560  30.206  20.018 -0.14 +0.09    +0.115 C 
DOCKED: BRANCH  37  38
DOCKED: ATOM     38  C   UNL d   1      46.721  29.485  20.642 -0.07 +0.15    +0.139 C 
DOCKED: ATOM     39  O   UNL d   1      47.105  29.775  21.766 -0.39 -1.20    -0.650 OA
DOCKED: BRANCH  38  40
DOCKED: ATOM     40  O   UNL d   1      47.351  28.512  19.962 +0.02 -0.55    -0.776 OA
DOCKED: ATOM     41  H   UNL d   1      46.910  27.659  19.843 +0.04 +0.12    +0.167 HD
DOCKED: ENDBRANCH  38  40
DOCKED: ENDBRANCH  37  38
DOCKED: ENDBRANCH  36  37
DOCKED: ENDBRANCH  22  36
DOCKED: BRANCH  12  42
DOCKED: ATOM     42  C   UNL d   1      36.261  28.404  12.405 -0.66 +0.00    +0.004 C 
DOCKED: ATOM     43  C   UNL d   1      34.989  28.218  12.783 -0.65 +0.00    +0.012 C 
DOCKED: ENDBRANCH  12  42
DOCKED: BRANCH  17  44
DOCKED: ATOM     44  C   UNL d   1      39.401  34.602  16.332 -0.51 +0.00    +0.004 C 
DOCKED: ATOM     45  C   UNL d   1      39.316  35.605  15.452 -0.56 +0.00    +0.012 C 
DOCKED: ENDBRANCH  17  44
DOCKED: TORSDOF 10
DOCKED: TER
DOCKED: ENDMDL
________________________________________________________________________________


	BEGINNING GENETIC ALGORITHM DOCKING 96 of 100
Run: 96 Seed: 1914185356 1141887266 [ Run 96 of 100 GA/GALS ]
Beginning LAMARCKIAN GENETIC ALGORITHM (LGA), with a maximum of 25000000 energy evaluations.

Final-Value: -15.487


	FINAL GENETIC ALGORITHM DOCKED STATE
	_______________________________________________


Detailed state:  trans 41.438 28.797 16.979 quatxyzw 0.144468 0.929836 0.071772 -0.330730 center -0.174 -0.001 -0.047 ntor 10 86.7615 -8.8264 28.8231 -110.7340 -163.5413 -163.7477 48.5076 -47.0225 -168.3966 -156.9032
State:	 41.438  28.797  16.979   0.153  0.985  0.076 -141.374     86.76   -8.83   28.82 -110.73 -163.54 -163.75   48.51  -47.02 -168.40 -156.90

DOCKED: MODEL       96
DOCKED: USER    Run = 96
DOCKED: USER    DPF = D:/Protein_go_brrr/autodock/final/2DN3/heme_Fe/dock.dpf
DOCKED: USER  
DOCKED: USER    Estimated Free Energy of Binding    =  -11.92 kcal/mol  [=(1)+(2)+(3)-(4)]
DOCKED: USER    Estimated Inhibition Constant, Ki   =    1.82 nM (nanomolar)  [Temperature = 298.15 K]
DOCKED: USER    
DOCKED: USER    (1) Final Intermolecular Energy     =  -14.91 kcal/mol
DOCKED: USER        vdW + Hbond + desolv Energy     =  -13.10 kcal/mol
DOCKED: USER        Electrostatic Energy            =   -1.81 kcal/mol
DOCKED: USER    (2) Final Total Internal Energy     =   -0.58 kcal/mol
DOCKED: USER    (3) Torsional Free Energy           =   +2.98 kcal/mol
DOCKED: USER    (4) Unbound System's Energy  [=(2)] =   -0.58 kcal/mol
DOCKED: USER    
DOCKED: USER    
DOCKED: USER    NEWDPF move heme_Fe_opt.pdbqt
DOCKED: USER    NEWDPF about -0.174000 -0.001000 -0.047000
DOCKED: USER    NEWDPF tran0 41.437511 28.797055 16.978864
DOCKED: USER    NEWDPF quaternion0 0.144468 0.929836 0.071772 -0.330730
DOCKED: USER    NEWDPF axisangle0 0.153083 0.985283 0.076052 -141.373827
DOCKED: USER    NEWDPF quat0 0.153083 0.985283 0.076052 -141.373827
DOCKED: USER    NEWDPF dihe0 86.76 -8.83 28.82 -110.73 -163.54 -163.75 48.51 -47.02 -168.40 -156.90 
DOCKED: USER  keepresnum = 1 
DOCKED: USER  
DOCKED: REMARK  10 active torsions:
DOCKED: REMARK  status: ('A' for Active; 'I' for Inactive)
DOCKED: REMARK    1  A    between atoms: C_6  and  C_10 
DOCKED: REMARK    2  A    between atoms: C_10  and  C_11 
DOCKED: REMARK    3  A    between atoms: C_11  and  C_12 
DOCKED: REMARK    4  A    between atoms: C_12  and  O_14 
DOCKED: REMARK    5  A    between atoms: C_17  and  C_20 
DOCKED: REMARK    6  A    between atoms: C_24  and  C_27 
DOCKED: REMARK    7  A    between atoms: C_31  and  C_34 
DOCKED: REMARK    8  A    between atoms: C_34  and  C_35 
DOCKED: REMARK    9  A    between atoms: C_35  and  C_36 
DOCKED: REMARK   10  A    between atoms: C_36  and  O_38 
DOCKED: USER                              x       y       z     vdW  Elec       q    Type
DOCKED: USER                           _______ _______ _______ _____ _____    ______ ____
DOCKED: ROOT
DOCKED: ATOM      1  C   UNL d   1      43.228  28.135  17.733 -0.15 +0.02    +0.064 C 
DOCKED: ATOM      2  C   UNL d   1      39.668  26.130  14.950 -0.38 +0.01    +0.064 A 
DOCKED: ATOM      3  C   UNL d   1      37.900  30.527  14.166 -0.40 +0.01    +0.064 C 
DOCKED: ATOM      4  C   UNL d   1      41.274  32.477  16.941 -0.48 +0.01    +0.064 C 
DOCKED: ATOM      5  C   UNL d   1      42.341  27.155  17.090 -0.28 +0.02    +0.066 A 
DOCKED: ATOM      6  C   UNL d   1      42.474  25.780  17.195 -0.35 -0.01    -0.021 A 
DOCKED: ATOM      7  C   UNL d   1      41.487  25.225  16.419 -0.40 -0.01    -0.025 A 
DOCKED: ATOM      8  C   UNL d   1      40.789  26.283  15.870 -0.37 +0.02    +0.066 A 
DOCKED: ATOM      9  C   UNL d   1      41.226  23.761  16.237 -0.49 +0.01    +0.051 C 
DOCKED: ATOM     10  C   UNL d   1      38.942  27.132  14.452 -0.35 +0.01    +0.066 A 
DOCKED: ATOM     11  C   UNL d   1      37.948  26.963  13.485 -0.43 -0.00    -0.021 A 
DOCKED: ATOM     12  C   UNL d   1      37.434  28.218  13.229 -0.46 +0.00    +0.000 A 
DOCKED: ATOM     13  C   UNL d   1      38.154  29.099  14.056 -0.31 +0.01    +0.070 A 
DOCKED: ATOM     14  C   UNL d   1      37.555  25.677  12.787 -0.47 +0.01    +0.052 C 
DOCKED: ATOM     15  C   UNL d   1      38.624  31.386  14.922 -0.35 +0.01    +0.066 A 
DOCKED: ATOM     16  C   UNL d   1      38.289  32.725  15.078 -0.38 -0.00    -0.021 A 
DOCKED: ATOM     17  C   UNL d   1      39.262  33.291  15.875 -0.42 +0.00    +0.000 A 
DOCKED: ATOM     18  C   UNL d   1      40.172  32.282  16.184 -0.38 +0.01    +0.070 A 
DOCKED: ATOM     19  C   UNL d   1      37.114  33.453  14.483 -0.40 +0.00    +0.052 C 
DOCKED: ATOM     20  C   UNL d   1      42.221  31.428  17.336 -0.38 +0.02    +0.066 A 
DOCKED: ATOM     21  C   UNL d   1      43.464  31.646  17.947 -0.31 -0.01    -0.025 A 
DOCKED: ATOM     22  C   UNL d   1      43.998  30.395  18.175 -0.30 -0.01    -0.021 A 
DOCKED: ATOM     23  C   UNL d   1      43.067  29.467  17.692 -0.24 +0.02    +0.066 A 
DOCKED: ATOM     24  C   UNL d   1      44.125  32.959  18.297 -0.24 +0.01    +0.051 C 
DOCKED: ATOM     25  N   UNL d   1      41.304  27.456  16.288 -0.26 -0.08    -0.248 N 
DOCKED: ATOM     26  N   UNL d   1      39.078  28.438  14.795 -0.02 -0.08    -0.248 N 
DOCKED: ATOM     27  N   UNL d   1      39.758  31.102  15.634 -0.15 -0.06    -0.248 N 
DOCKED: ATOM     28  N   UNL d   1      42.006  30.104  17.141 -0.23 -0.08    -0.248 N 
DOCKED: ATOM     29 FE   UNL d   1      40.542  29.273  15.968 -0.08 +0.00    +0.000 Fe
DOCKED: ENDROOT
DOCKED: BRANCH   6  30
DOCKED: ATOM     30  C   UNL d   1      43.473  25.030  18.007 -0.34 +0.02    +0.052 C 
DOCKED: BRANCH  30  31
DOCKED: ATOM     31  C   UNL d   1      44.824  24.993  17.301 -0.21 +0.07    +0.115 C 
DOCKED: BRANCH  31  32
DOCKED: ATOM     32  C   UNL d   1      45.368  23.591  17.279 -0.12 +0.13    +0.139 C 
DOCKED: ATOM     33  O   UNL d   1      46.548  23.384  17.035 -0.27 -1.11    -0.650 OA
DOCKED: BRANCH  32  34
DOCKED: ATOM     34  O   UNL d   1      44.557  22.549  17.529 +0.05 -0.53    -0.776 OA
DOCKED: ATOM     35  H   UNL d   1      44.490  22.212  18.433 +0.07 +0.09    +0.167 HD
DOCKED: ENDBRANCH  32  34
DOCKED: ENDBRANCH  31  32
DOCKED: ENDBRANCH  30  31
DOCKED: ENDBRANCH   6  30
DOCKED: BRANCH  22  36
DOCKED: ATOM     36  C   UNL d   1      45.348  30.111  18.779 -0.24 +0.02    +0.052 C 
DOCKED: BRANCH  36  37
DOCKED: ATOM     37  C   UNL d   1      46.436  30.734  17.918 -0.13 +0.04    +0.115 C 
DOCKED: BRANCH  37  38
DOCKED: ATOM     38  C   UNL d   1      47.413  31.506  18.759 -0.11 +0.05    +0.139 C 
DOCKED: ATOM     39  O   UNL d   1      48.178  32.311  18.250 +0.03 -0.16    -0.650 OA
DOCKED: BRANCH  38  40
DOCKED: ATOM     40  O   UNL d   1      47.455  31.310  20.089 +0.03 -0.39    -0.776 OA
DOCKED: ATOM     41  H   UNL d   1      48.172  31.710  20.601 +0.02 +0.07    +0.167 HD
DOCKED: ENDBRANCH  38  40
DOCKED: ENDBRANCH  37  38
DOCKED: ENDBRANCH  36  37
DOCKED: ENDBRANCH  22  36
DOCKED: BRANCH  12  42
DOCKED: ATOM     42  C   UNL d   1      36.348  28.514  12.244 -0.67 +0.00    +0.004 C 
DOCKED: ATOM     43  C   UNL d   1      35.068  28.244  12.528 -0.63 +0.00    +0.012 C 
DOCKED: ENDBRANCH  12  42
DOCKED: BRANCH  17  44
DOCKED: ATOM     44  C   UNL d   1      39.307  34.699  16.330 -0.56 +0.00    +0.004 C 
DOCKED: ATOM     45  C   UNL d   1      39.300  35.704  15.447 -0.55 +0.00    +0.012 C 
DOCKED: ENDBRANCH  17  44
DOCKED: TORSDOF 10
DOCKED: TER
DOCKED: ENDMDL
________________________________________________________________________________


	BEGINNING GENETIC ALGORITHM DOCKING 97 of 100
Run: 97 Seed: 1566195812 1988058130 [ Run 97 of 100 GA/GALS ]
Beginning LAMARCKIAN GENETIC ALGORITHM (LGA), with a maximum of 25000000 energy evaluations.

Final-Value: -14.726


	FINAL GENETIC ALGORITHM DOCKED STATE
	_______________________________________________


Detailed state:  trans 8.707 34.987 -1.216 quatxyzw -0.414273 -0.226253 -0.310708 -0.825014 center -0.174 -0.001 -0.047 ntor 10 73.6567 30.8473 55.7282 -166.4340 -138.6202 -180.0000 53.3270 -66.4359 -179.8443 -179.9067
State:	  8.707  34.987  -1.216  -0.733 -0.400 -0.550 -68.820     73.66   30.85   55.73 -166.43 -138.62 -180.00   53.33  -66.44 -179.84 -179.91

DOCKED: MODEL       97
DOCKED: USER    Run = 97
DOCKED: USER    DPF = D:/Protein_go_brrr/autodock/final/2DN3/heme_Fe/dock.dpf
DOCKED: USER  
DOCKED: USER    Estimated Free Energy of Binding    =  -11.03 kcal/mol  [=(1)+(2)+(3)-(4)]
DOCKED: USER    Estimated Inhibition Constant, Ki   =    8.28 nM (nanomolar)  [Temperature = 298.15 K]
DOCKED: USER    
DOCKED: USER    (1) Final Intermolecular Energy     =  -14.01 kcal/mol
DOCKED: USER        vdW + Hbond + desolv Energy     =  -12.91 kcal/mol
DOCKED: USER        Electrostatic Energy            =   -1.10 kcal/mol
DOCKED: USER    (2) Final Total Internal Energy     =   -0.72 kcal/mol
DOCKED: USER    (3) Torsional Free Energy           =   +2.98 kcal/mol
DOCKED: USER    (4) Unbound System's Energy  [=(2)] =   -0.72 kcal/mol
DOCKED: USER    
DOCKED: USER    
DOCKED: USER    NEWDPF move heme_Fe_opt.pdbqt
DOCKED: USER    NEWDPF about -0.174000 -0.001000 -0.047000
DOCKED: USER    NEWDPF tran0 8.706912 34.986711 -1.215817
DOCKED: USER    NEWDPF quaternion0 -0.414273 -0.226253 -0.310708 -0.825014
DOCKED: USER    NEWDPF axisangle0 -0.733080 -0.400369 -0.549816 -68.820151
DOCKED: USER    NEWDPF quat0 -0.733080 -0.400369 -0.549816 -68.820151
DOCKED: USER    NEWDPF dihe0 73.66 30.85 55.73 -166.43 -138.62 -180.00 53.33 -66.44 -179.84 -179.91 
DOCKED: USER  keepresnum = 1 
DOCKED: USER  
DOCKED: REMARK  10 active torsions:
DOCKED: REMARK  status: ('A' for Active; 'I' for Inactive)
DOCKED: REMARK    1  A    between atoms: C_6  and  C_10 
DOCKED: REMARK    2  A    between atoms: C_10  and  C_11 
DOCKED: REMARK    3  A    between atoms: C_11  and  C_12 
DOCKED: REMARK    4  A    between atoms: C_12  and  O_14 
DOCKED: REMARK    5  A    between atoms: C_17  and  C_20 
DOCKED: REMARK    6  A    between atoms: C_24  and  C_27 
DOCKED: REMARK    7  A    between atoms: C_31  and  C_34 
DOCKED: REMARK    8  A    between atoms: C_34  and  C_35 
DOCKED: REMARK    9  A    between atoms: C_35  and  C_36 
DOCKED: REMARK   10  A    between atoms: C_36  and  O_38 
DOCKED: USER                              x       y       z     vdW  Elec       q    Type
DOCKED: USER                           _______ _______ _______ _____ _____    ______ ____
DOCKED: ROOT
DOCKED: ATOM      1  C   UNL d   1       7.208  36.042  -2.138 -0.25 +0.01    +0.064 C 
DOCKED: ATOM      2  C   UNL d   1       7.476  33.153   1.863 -0.40 +0.01    +0.064 A 
DOCKED: ATOM      3  C   UNL d   1      12.264  33.501   1.709 -0.32 +0.00    +0.064 C 
DOCKED: ATOM      4  C   UNL d   1      12.031  36.212  -2.225 -0.46 +0.00    +0.064 C 
DOCKED: ATOM      5  C   UNL d   1       6.843  35.128  -1.047 -0.26 +0.01    +0.066 A 
DOCKED: ATOM      6  C   UNL d   1       5.554  34.702  -0.771 -0.28 -0.00    -0.021 A 
DOCKED: ATOM      7  C   UNL d   1       5.629  33.903   0.343 -0.29 -0.00    -0.025 A 
DOCKED: ATOM      8  C   UNL d   1       6.962  33.871   0.704 -0.32 +0.01    +0.066 A 
DOCKED: ATOM      9  C   UNL d   1       4.483  33.200   1.003 -0.16 +0.01    +0.051 C 
DOCKED: ATOM     10  C   UNL d   1       8.763  33.059   2.200 -0.37 +0.01    +0.066 A 
DOCKED: ATOM     11  C   UNL d   1       9.214  32.460   3.379 -0.42 -0.00    -0.021 A 
DOCKED: ATOM     12  C   UNL d   1      10.591  32.562   3.366 -0.42 +0.00    +0.000 A 
DOCKED: ATOM     13  C   UNL d   1      10.911  33.232   2.173 -0.36 +0.01    +0.070 A 
DOCKED: ATOM     14  C   UNL d   1       8.371  31.880   4.496 -0.16 -0.00    +0.052 C 
DOCKED: ATOM     15  C   UNL d   1      12.576  34.191   0.587 -0.34 +0.01    +0.066 A 
DOCKED: ATOM     16  C   UNL d   1      13.878  34.340   0.126 -0.45 -0.00    -0.021 A 
DOCKED: ATOM     17  C   UNL d   1      13.814  35.125  -1.007 -0.44 +0.00    +0.000 A 
DOCKED: ATOM     18  C   UNL d   1      12.472  35.440  -1.208 -0.35 +0.01    +0.070 A 
DOCKED: ATOM     19  C   UNL d   1      15.138  33.790   0.739 -0.55 +0.00    +0.052 C 
DOCKED: ATOM     20  C   UNL d   1      10.622  36.514  -2.505 -0.38 +0.01    +0.066 A 
DOCKED: ATOM     21  C   UNL d   1      10.165  37.467  -3.426 -0.41 -0.00    -0.025 A 
DOCKED: ATOM     22  C   UNL d   1       8.788  37.393  -3.394 -0.36 -0.00    -0.021 A 
DOCKED: ATOM     23  C   UNL d   1       8.461  36.407  -2.455 -0.25 +0.01    +0.066 A 
DOCKED: ATOM     24  C   UNL d   1      10.973  38.406  -4.291 -0.32 -0.01    +0.051 C 
DOCKED: ATOM     25  N   UNL d   1       7.699  34.610  -0.150 -0.13 -0.05    -0.248 N 
DOCKED: ATOM     26  N   UNL d   1       9.797  33.543   1.465 -0.22 -0.03    -0.248 N 
DOCKED: ATOM     27  N   UNL d   1      11.706  34.830  -0.255 -0.10 -0.04    -0.248 N 
DOCKED: ATOM     28  N   UNL d   1       9.583  35.906  -1.883 -0.19 -0.04    -0.248 N 
DOCKED: ATOM     29 FE   UNL d   1       9.691  34.725  -0.210 -0.08 +0.00    +0.000 Fe
DOCKED: ENDROOT
DOCKED: BRANCH   6  30
DOCKED: ATOM     30  C   UNL d   1       4.315  35.020  -1.536 -0.21 +0.01    +0.052 C 
DOCKED: BRANCH  30  31
DOCKED: ATOM     31  C   UNL d   1       3.652  36.280  -0.991 -0.16 +0.06    +0.115 C 
DOCKED: BRANCH  31  32
DOCKED: ATOM     32  C   UNL d   1       2.209  36.014  -0.661 -0.12 +0.11    +0.139 C 
DOCKED: ATOM     33  O   UNL d   1       1.346  36.837  -0.932 -0.35 -1.01    -0.650 OA
DOCKED: BRANCH  32  34
DOCKED: ATOM     34  O   UNL d   1       1.855  34.864  -0.062 +0.02 -0.38    -0.776 OA
DOCKED: ATOM     35  H   UNL d   1       1.401  34.185  -0.581 +0.03 +0.06    +0.167 HD
DOCKED: ENDBRANCH  32  34
DOCKED: ENDBRANCH  31  32
DOCKED: ENDBRANCH  30  31
DOCKED: ENDBRANCH   6  30
DOCKED: BRANCH  22  36
DOCKED: ATOM     36  C   UNL d   1       7.842  38.256  -4.186 -0.30 +0.00    +0.052 C 
DOCKED: BRANCH  36  37
DOCKED: ATOM     37  C   UNL d   1       7.634  39.582  -3.469 -0.33 +0.00    +0.115 C 
DOCKED: BRANCH  37  38
DOCKED: ATOM     38  C   UNL d   1       8.226  40.718  -4.254 -0.36 -0.01    +0.139 C 
DOCKED: ATOM     39  O   UNL d   1       8.159  41.866  -3.840 +0.03 +0.02    -0.650 OA
DOCKED: BRANCH  38  40
DOCKED: ATOM     40  O   UNL d   1       8.836  40.476  -5.428 +0.11 +0.25    -0.776 OA
DOCKED: ATOM     41  H   UNL d   1       9.565  41.048  -5.706 -0.46 -0.14    +0.167 HD
DOCKED: ENDBRANCH  38  40
DOCKED: ENDBRANCH  37  38
DOCKED: ENDBRANCH  36  37
DOCKED: ENDBRANCH  22  36
DOCKED: BRANCH  12  42
DOCKED: ATOM     42  C   UNL d   1      11.496  32.061   4.446 -0.34 +0.00    +0.004 C 
DOCKED: ATOM     43  C   UNL d   1      12.197  30.930   4.288 -0.60 +0.00    +0.012 C 
DOCKED: ENDBRANCH  12  42
DOCKED: BRANCH  17  44
DOCKED: ATOM     44  C   UNL d   1      14.959  35.530  -1.852 -0.18 +0.00    +0.004 C 
DOCKED: ATOM     45  C   UNL d   1      15.346  36.808  -1.915 -0.63 +0.00    +0.012 C 
DOCKED: ENDBRANCH  17  44
DOCKED: TORSDOF 10
DOCKED: TER
DOCKED: ENDMDL
________________________________________________________________________________


	BEGINNING GENETIC ALGORITHM DOCKING 98 of 100
Run: 98 Seed: 868579837 960822549 [ Run 98 of 100 GA/GALS ]
Beginning LAMARCKIAN GENETIC ALGORITHM (LGA), with a maximum of 25000000 energy evaluations.

Final-Value: -17.548


	FINAL GENETIC ALGORITHM DOCKED STATE
	_______________________________________________


Detailed state:  trans 41.346 29.018 16.914 quatxyzw 0.111793 0.930582 0.060343 -0.343334 center -0.174 -0.001 -0.047 ntor 10 -137.2922 -100.8004 49.1360 -131.5014 -176.1124 112.2719 -74.9811 -43.3069 139.4056 13.4984
State:	 41.346  29.018  16.914   0.119  0.991  0.064 -139.840   -137.29 -100.80   49.14 -131.50 -176.11  112.27  -74.98  -43.31  139.41   13.50

DOCKED: MODEL       98
DOCKED: USER    Run = 98
DOCKED: USER    DPF = D:/Protein_go_brrr/autodock/final/2DN3/heme_Fe/dock.dpf
DOCKED: USER  
DOCKED: USER    Estimated Free Energy of Binding    =  -13.03 kcal/mol  [=(1)+(2)+(3)-(4)]
DOCKED: USER    Estimated Inhibition Constant, Ki   =  280.99 pM (picomolar)  [Temperature = 298.15 K]
DOCKED: USER    
DOCKED: USER    (1) Final Intermolecular Energy     =  -16.01 kcal/mol
DOCKED: USER        vdW + Hbond + desolv Energy     =  -13.47 kcal/mol
DOCKED: USER        Electrostatic Energy            =   -2.55 kcal/mol
DOCKED: USER    (2) Final Total Internal Energy     =   -1.53 kcal/mol
DOCKED: USER    (3) Torsional Free Energy           =   +2.98 kcal/mol
DOCKED: USER    (4) Unbound System's Energy  [=(2)] =   -1.53 kcal/mol
DOCKED: USER    
DOCKED: USER    
DOCKED: USER    NEWDPF move heme_Fe_opt.pdbqt
DOCKED: USER    NEWDPF about -0.174000 -0.001000 -0.047000
DOCKED: USER    NEWDPF tran0 41.346301 29.017779 16.913903
DOCKED: USER    NEWDPF quaternion0 0.111793 0.930582 0.060343 -0.343334
DOCKED: USER    NEWDPF axisangle0 0.119028 0.990810 0.064248 -139.839707
DOCKED: USER    NEWDPF quat0 0.119028 0.990810 0.064248 -139.839707
DOCKED: USER    NEWDPF dihe0 -137.29 -100.80 49.14 -131.50 -176.11 112.27 -74.98 -43.31 139.41 13.50 
DOCKED: USER  keepresnum = 1 
DOCKED: USER  
DOCKED: REMARK  10 active torsions:
DOCKED: REMARK  status: ('A' for Active; 'I' for Inactive)
DOCKED: REMARK    1  A    between atoms: C_6  and  C_10 
DOCKED: REMARK    2  A    between atoms: C_10  and  C_11 
DOCKED: REMARK    3  A    between atoms: C_11  and  C_12 
DOCKED: REMARK    4  A    between atoms: C_12  and  O_14 
DOCKED: REMARK    5  A    between atoms: C_17  and  C_20 
DOCKED: REMARK    6  A    between atoms: C_24  and  C_27 
DOCKED: REMARK    7  A    between atoms: C_31  and  C_34 
DOCKED: REMARK    8  A    between atoms: C_34  and  C_35 
DOCKED: REMARK    9  A    between atoms: C_35  and  C_36 
DOCKED: REMARK   10  A    between atoms: C_36  and  O_38 
DOCKED: USER                              x       y       z     vdW  Elec       q    Type
DOCKED: USER                           _______ _______ _______ _____ _____    ______ ____
DOCKED: ROOT
DOCKED: ATOM      1  C   UNL d   1      43.148  28.485  17.739 -0.13 +0.02    +0.064 C 
DOCKED: ATOM      2  C   UNL d   1      39.768  26.172  14.973 -0.38 +0.01    +0.064 A 
DOCKED: ATOM      3  C   UNL d   1      37.798  30.429  13.942 -0.37 +0.01    +0.064 C 
DOCKED: ATOM      4  C   UNL d   1      40.996  32.679  16.698 -0.48 +0.01    +0.064 C 
DOCKED: ATOM      5  C   UNL d   1      42.329  27.432  17.124 -0.19 +0.02    +0.066 A 
DOCKED: ATOM      6  C   UNL d   1      42.529  26.072  17.296 -0.34 -0.01    -0.021 A 
DOCKED: ATOM      7  C   UNL d   1      41.592  25.431  16.524 -0.37 -0.01    -0.025 A 
DOCKED: ATOM      8  C   UNL d   1      40.855  26.425  15.910 -0.36 +0.02    +0.066 A 
DOCKED: ATOM      9  C   UNL d   1      41.411  23.948  16.406 -0.51 +0.01    +0.051 C 
DOCKED: ATOM     10  C   UNL d   1      39.004  27.111  14.412 -0.35 +0.01    +0.066 A 
DOCKED: ATOM     11  C   UNL d   1      38.046  26.845  13.430 -0.43 -0.00    -0.021 A 
DOCKED: ATOM     12  C   UNL d   1      37.475  28.059  13.104 -0.47 +0.00    +0.000 A 
DOCKED: ATOM     13  C   UNL d   1      38.127  29.013  13.905 -0.31 +0.01    +0.070 A 
DOCKED: ATOM     14  C   UNL d   1      37.736  25.510  12.785 -0.44 +0.01    +0.052 C 
DOCKED: ATOM     15  C   UNL d   1      38.457  31.360  14.672 -0.35 +0.01    +0.066 A 
DOCKED: ATOM     16  C   UNL d   1      38.051  32.685  14.758 -0.38 -0.00    -0.021 A 
DOCKED: ATOM     17  C   UNL d   1      38.974  33.337  15.550 -0.44 +0.00    +0.000 A 
DOCKED: ATOM     18  C   UNL d   1      39.926  32.392  15.926 -0.38 +0.01    +0.070 A 
DOCKED: ATOM     19  C   UNL d   1      36.856  33.323  14.101 -0.38 +0.00    +0.052 C 
DOCKED: ATOM     20  C   UNL d   1      41.985  31.699  17.165 -0.39 +0.01    +0.066 A 
DOCKED: ATOM     21  C   UNL d   1      43.199  32.010  17.793 -0.32 -0.01    -0.025 A 
DOCKED: ATOM     22  C   UNL d   1      43.790  30.800  18.092 -0.32 -0.01    -0.021 A 
DOCKED: ATOM     23  C   UNL d   1      42.921  29.804  17.632 -0.29 +0.02    +0.066 A 
DOCKED: ATOM     24  C   UNL d   1      43.783  33.371  18.096 -0.25 +0.01    +0.051 C 
DOCKED: ATOM     25  N   UNL d   1      41.299  27.641  16.284 -0.26 -0.09    -0.248 N 
DOCKED: ATOM     26  N   UNL d   1      39.065  28.437  14.696 +0.00 -0.07    -0.248 N 
DOCKED: ATOM     27  N   UNL d   1      39.586  31.167  15.423 -0.14 -0.06    -0.248 N 
DOCKED: ATOM     28  N   UNL d   1      41.843  30.359  17.027 -0.24 -0.07    -0.248 N 
DOCKED: ATOM     29 FE   UNL d   1      40.454  29.400  15.862 -0.08 +0.00    +0.000 Fe
DOCKED: ENDROOT
DOCKED: BRANCH   6  30
DOCKED: ATOM     30  C   UNL d   1      43.545  25.414  18.165 -0.32 +0.02    +0.052 C 
DOCKED: BRANCH  30  31
DOCKED: ATOM     31  C   UNL d   1      44.291  24.329  17.397 -0.21 +0.06    +0.115 C 
DOCKED: BRANCH  31  32
DOCKED: ATOM     32  C   UNL d   1      45.676  24.795  17.040 -0.21 +0.11    +0.139 C 
DOCKED: ATOM     33  O   UNL d   1      46.413  24.095  16.360 -0.29 -1.02    -0.650 OA
DOCKED: BRANCH  32  34
DOCKED: ATOM     34  O   UNL d   1      46.116  25.990  17.467 +0.04 -0.46    -0.776 OA
DOCKED: ATOM     35  H   UNL d   1      45.932  26.261  18.378 +0.06 +0.09    +0.167 HD
DOCKED: ENDBRANCH  32  34
DOCKED: ENDBRANCH  31  32
DOCKED: ENDBRANCH  30  31
DOCKED: ENDBRANCH   6  30
DOCKED: BRANCH  22  36
DOCKED: ATOM     36  C   UNL d   1      45.137  30.615  18.740 -0.26 +0.02    +0.052 C 
DOCKED: BRANCH  36  37
DOCKED: ATOM     37  C   UNL d   1      44.959  30.067  20.148 +0.06 +0.09    +0.115 C 
DOCKED: BRANCH  37  38
DOCKED: ATOM     38  C   UNL d   1      45.937  28.960  20.423 -0.16 +0.15    +0.139 C 
DOCKED: ATOM     39  O   UNL d   1      46.836  29.109  21.237 -0.51 -1.03    -0.650 OA
DOCKED: BRANCH  38  40
DOCKED: ATOM     40  O   UNL d   1      45.831  27.791  19.766 +0.05 -0.58    -0.776 OA
DOCKED: ATOM     41  H   UNL d   1      46.161  27.730  18.859 +0.05 +0.09    +0.167 HD
DOCKED: ENDBRANCH  38  40
DOCKED: ENDBRANCH  37  38
DOCKED: ENDBRANCH  36  37
DOCKED: ENDBRANCH  22  36
DOCKED: BRANCH  12  42
DOCKED: ATOM     42  C   UNL d   1      36.401  28.253  12.081 -0.69 +0.00    +0.004 C 
DOCKED: ATOM     43  C   UNL d   1      35.112  28.323  12.440 -0.62 +0.00    +0.012 C 
DOCKED: ENDBRANCH  12  42
DOCKED: BRANCH  17  44
DOCKED: ATOM     44  C   UNL d   1      38.935  34.765  15.938 -0.52 +0.00    +0.004 C 
DOCKED: ATOM     45  C   UNL d   1      39.307  35.718  15.077 -0.60 +0.00    +0.012 C 
DOCKED: ENDBRANCH  17  44
DOCKED: TORSDOF 10
DOCKED: TER
DOCKED: ENDMDL
________________________________________________________________________________


	BEGINNING GENETIC ALGORITHM DOCKING 99 of 100
Run: 99 Seed: 984050007 2073518400 [ Run 99 of 100 GA/GALS ]
Beginning LAMARCKIAN GENETIC ALGORITHM (LGA), with a maximum of 25000000 energy evaluations.

Final-Value: -17.036


	FINAL GENETIC ALGORITHM DOCKED STATE
	_______________________________________________


Detailed state:  trans 41.127 29.088 16.745 quatxyzw 0.103177 0.935004 0.047367 -0.335974 center -0.174 -0.001 -0.047 ntor 10 68.0927 -86.1566 91.8005 -149.9287 -138.9038 113.4418 -49.8383 -41.9976 -173.5222 0.3792
State:	 41.127  29.088  16.745   0.110  0.993  0.050 -140.736     68.09  -86.16   91.80 -149.93 -138.90  113.44  -49.84  -42.00 -173.52    0.38

DOCKED: MODEL       99
DOCKED: USER    Run = 99
DOCKED: USER    DPF = D:/Protein_go_brrr/autodock/final/2DN3/heme_Fe/dock.dpf
DOCKED: USER  
DOCKED: USER    Estimated Free Energy of Binding    =  -12.05 kcal/mol  [=(1)+(2)+(3)-(4)]
DOCKED: USER    Estimated Inhibition Constant, Ki   =    1.47 nM (nanomolar)  [Temperature = 298.15 K]
DOCKED: USER    
DOCKED: USER    (1) Final Intermolecular Energy     =  -15.03 kcal/mol
DOCKED: USER        vdW + Hbond + desolv Energy     =  -13.10 kcal/mol
DOCKED: USER        Electrostatic Energy            =   -1.93 kcal/mol
DOCKED: USER    (2) Final Total Internal Energy     =   -2.00 kcal/mol
DOCKED: USER    (3) Torsional Free Energy           =   +2.98 kcal/mol
DOCKED: USER    (4) Unbound System's Energy  [=(2)] =   -2.00 kcal/mol
DOCKED: USER    
DOCKED: USER    
DOCKED: USER    NEWDPF move heme_Fe_opt.pdbqt
DOCKED: USER    NEWDPF about -0.174000 -0.001000 -0.047000
DOCKED: USER    NEWDPF tran0 41.126988 29.088477 16.745097
DOCKED: USER    NEWDPF quaternion0 0.103177 0.935004 0.047367 -0.335974
DOCKED: USER    NEWDPF axisangle0 0.109545 0.992709 0.050290 -140.736425
DOCKED: USER    NEWDPF quat0 0.109545 0.992709 0.050290 -140.736425
DOCKED: USER    NEWDPF dihe0 68.09 -86.16 91.80 -149.93 -138.90 113.44 -49.84 -42.00 -173.52 0.38 
DOCKED: USER  keepresnum = 1 
DOCKED: USER  
DOCKED: REMARK  10 active torsions:
DOCKED: REMARK  status: ('A' for Active; 'I' for Inactive)
DOCKED: REMARK    1  A    between atoms: C_6  and  C_10 
DOCKED: REMARK    2  A    between atoms: C_10  and  C_11 
DOCKED: REMARK    3  A    between atoms: C_11  and  C_12 
DOCKED: REMARK    4  A    between atoms: C_12  and  O_14 
DOCKED: REMARK    5  A    between atoms: C_17  and  C_20 
DOCKED: REMARK    6  A    between atoms: C_24  and  C_27 
DOCKED: REMARK    7  A    between atoms: C_31  and  C_34 
DOCKED: REMARK    8  A    between atoms: C_34  and  C_35 
DOCKED: REMARK    9  A    between atoms: C_35  and  C_36 
DOCKED: REMARK   10  A    between atoms: C_36  and  O_38 
DOCKED: USER                              x       y       z     vdW  Elec       q    Type
DOCKED: USER                           _______ _______ _______ _____ _____    ______ ____
DOCKED: ROOT
DOCKED: ATOM      1  C   UNL d   1      42.949  28.596  17.552 -0.15 +0.02    +0.064 C 
DOCKED: ATOM      2  C   UNL d   1      39.539  26.174  14.917 -0.39 +0.01    +0.064 A 
DOCKED: ATOM      3  C   UNL d   1      37.512  30.382  13.800 -0.30 +0.01    +0.064 C 
DOCKED: ATOM      4  C   UNL d   1      40.739  32.739  16.431 -0.48 +0.01    +0.064 C 
DOCKED: ATOM      5  C   UNL d   1      42.128  27.518  16.982 -0.29 +0.02    +0.066 A 
DOCKED: ATOM      6  C   UNL d   1      42.344  26.166  17.190 -0.35 -0.01    -0.021 A 
DOCKED: ATOM      7  C   UNL d   1      41.399  25.494  16.455 -0.36 -0.01    -0.025 A 
DOCKED: ATOM      8  C   UNL d   1      40.641  26.463  15.826 -0.35 +0.02    +0.066 A 
DOCKED: ATOM      9  C   UNL d   1      41.230  24.007  16.382 -0.45 +0.01    +0.051 C 
DOCKED: ATOM     10  C   UNL d   1      38.757  27.089  14.343 -0.37 +0.01    +0.066 A 
DOCKED: ATOM     11  C   UNL d   1      37.783  26.787  13.388 -0.43 -0.00    -0.021 A 
DOCKED: ATOM     12  C   UNL d   1      37.195  27.986  13.037 -0.48 +0.00    +0.000 A 
DOCKED: ATOM     13  C   UNL d   1      37.853  28.968  13.798 -0.37 +0.01    +0.070 A 
DOCKED: ATOM     14  C   UNL d   1      37.474  25.431  12.788 -0.50 +0.01    +0.052 C 
DOCKED: ATOM     15  C   UNL d   1      38.176  31.339  14.491 -0.33 +0.01    +0.066 A 
DOCKED: ATOM     16  C   UNL d   1      37.758  32.663  14.546 -0.33 -0.00    -0.021 A 
DOCKED: ATOM     17  C   UNL d   1      38.689  33.345  15.301 -0.43 +0.00    +0.000 A 
DOCKED: ATOM     18  C   UNL d   1      39.657  32.420  15.687 -0.38 +0.01    +0.070 A 
DOCKED: ATOM     19  C   UNL d   1      36.546  33.271  13.894 -0.34 +0.00    +0.052 C 
DOCKED: ATOM     20  C   UNL d   1      41.745  31.782  16.907 -0.36 +0.01    +0.066 A 
DOCKED: ATOM     21  C   UNL d   1      42.968  32.121  17.503 -0.16 -0.01    -0.025 A 
DOCKED: ATOM     22  C   UNL d   1      43.576  30.926  17.826 -0.33 -0.01    -0.021 A 
DOCKED: ATOM     23  C   UNL d   1      42.707  29.909  17.410 -0.29 +0.02    +0.066 A 
DOCKED: ATOM     24  C   UNL d   1      43.545  33.495  17.755 -0.25 +0.01    +0.051 C 
DOCKED: ATOM     25  N   UNL d   1      41.081  27.694  16.157 -0.21 -0.09    -0.248 N 
DOCKED: ATOM     26  N   UNL d   1      38.811  28.423  14.588 -0.11 -0.06    -0.248 N 
DOCKED: ATOM     27  N   UNL d   1      39.320  31.178  15.226 -0.22 -0.05    -0.248 N 
DOCKED: ATOM     28  N   UNL d   1      41.613  30.437  16.810 -0.16 -0.08    -0.248 N 
DOCKED: ATOM     29 FE   UNL d   1      40.212  29.432  15.699 -0.08 +0.00    +0.000 Fe
DOCKED: ENDROOT
DOCKED: BRANCH   6  30
DOCKED: ATOM     30  C   UNL d   1      43.381  25.541  18.059 -0.33 +0.02    +0.052 C 
DOCKED: BRANCH  30  31
DOCKED: ATOM     31  C   UNL d   1      44.707  25.419  17.315 -0.23 +0.06    +0.115 C 
DOCKED: BRANCH  31  32
DOCKED: ATOM     32  C   UNL d   1      45.830  25.971  18.148 -0.18 +0.08    +0.139 C 
DOCKED: ATOM     33  O   UNL d   1      46.712  26.647  17.637 +0.01 -0.35    -0.650 OA
DOCKED: BRANCH  32  34
DOCKED: ATOM     34  O   UNL d   1      45.875  25.725  19.469 +0.10 -0.46    -0.776 OA
DOCKED: ATOM     35  H   UNL d   1      45.738  26.456  20.087 +0.05 +0.12    +0.167 HD
DOCKED: ENDBRANCH  32  34
DOCKED: ENDBRANCH  31  32
DOCKED: ENDBRANCH  30  31
DOCKED: ENDBRANCH   6  30
DOCKED: BRANCH  22  36
DOCKED: ATOM     36  C   UNL d   1      44.936  30.771  18.453 -0.27 +0.02    +0.052 C 
DOCKED: BRANCH  36  37
DOCKED: ATOM     37  C   UNL d   1      44.790  30.580  19.955 -0.05 +0.08    +0.115 C 
DOCKED: BRANCH  37  38
DOCKED: ATOM     38  C   UNL d   1      45.711  29.503  20.454 -0.13 +0.15    +0.139 C 
DOCKED: ATOM     39  O   UNL d   1      46.641  29.772  21.199 -0.42 -0.96    -0.650 OA
DOCKED: BRANCH  38  40
DOCKED: ATOM     40  O   UNL d   1      45.518  28.227  20.076 +0.01 -0.70    -0.776 OA
DOCKED: ATOM     41  H   UNL d   1      45.994  27.887  19.306 +0.05 +0.11    +0.167 HD
DOCKED: ENDBRANCH  38  40
DOCKED: ENDBRANCH  37  38
DOCKED: ENDBRANCH  36  37
DOCKED: ENDBRANCH  22  36
DOCKED: BRANCH  12  42
DOCKED: ATOM     42  C   UNL d   1      36.100  28.140  12.030 -0.69 +0.00    +0.004 C 
DOCKED: ATOM     43  C   UNL d   1      35.082  28.984  12.242 -0.58 +0.00    +0.012 C 
DOCKED: ENDBRANCH  12  42
DOCKED: BRANCH  17  44
DOCKED: ATOM     44  C   UNL d   1      38.645  34.783  15.649 -0.58 +0.00    +0.004 C 
DOCKED: ATOM     45  C   UNL d   1      39.317  35.684  14.924 -0.62 +0.00    +0.012 C 
DOCKED: ENDBRANCH  17  44
DOCKED: TORSDOF 10
DOCKED: TER
DOCKED: ENDMDL
________________________________________________________________________________


	BEGINNING GENETIC ALGORITHM DOCKING 100 of 100
Run: 100 Seed: 39034482 1374325484 [ Run 100 of 100 GA/GALS ]
Beginning LAMARCKIAN GENETIC ALGORITHM (LGA), with a maximum of 25000000 energy evaluations.

Final-Value: -16.713


	FINAL GENETIC ALGORITHM DOCKED STATE
	_______________________________________________


Detailed state:  trans 41.565 28.907 16.929 quatxyzw -0.136170 -0.936225 -0.070107 0.316267 center -0.174 -0.001 -0.047 ntor 10 72.6818 -35.4833 35.1155 -113.5025 146.8241 34.1633 13.8838 27.3276 176.7665 -2.1163
State:	 41.565  28.907  16.929  -0.144 -0.987 -0.074 143.125     72.68  -35.48   35.12 -113.50  146.82   34.16   13.88   27.33  176.77   -2.12

DOCKED: MODEL      100
DOCKED: USER    Run = 100
DOCKED: USER    DPF = D:/Protein_go_brrr/autodock/final/2DN3/heme_Fe/dock.dpf
DOCKED: USER  
DOCKED: USER    Estimated Free Energy of Binding    =  -13.22 kcal/mol  [=(1)+(2)+(3)-(4)]
DOCKED: USER    Estimated Inhibition Constant, Ki   =  205.48 pM (picomolar)  [Temperature = 298.15 K]
DOCKED: USER    
DOCKED: USER    (1) Final Intermolecular Energy     =  -16.20 kcal/mol
DOCKED: USER        vdW + Hbond + desolv Energy     =  -13.32 kcal/mol
DOCKED: USER        Electrostatic Energy            =   -2.88 kcal/mol
DOCKED: USER    (2) Final Total Internal Energy     =   -0.51 kcal/mol
DOCKED: USER    (3) Torsional Free Energy           =   +2.98 kcal/mol
DOCKED: USER    (4) Unbound System's Energy  [=(2)] =   -0.51 kcal/mol
DOCKED: USER    
DOCKED: USER    
DOCKED: USER    NEWDPF move heme_Fe_opt.pdbqt
DOCKED: USER    NEWDPF about -0.174000 -0.001000 -0.047000
DOCKED: USER    NEWDPF tran0 41.565383 28.906643 16.929341
DOCKED: USER    NEWDPF quaternion0 -0.136170 -0.936225 -0.070107 0.316267
DOCKED: USER    NEWDPF axisangle0 -0.143538 -0.986882 -0.073900 143.125389
DOCKED: USER    NEWDPF quat0 -0.143538 -0.986882 -0.073900 143.125389
DOCKED: USER    NEWDPF dihe0 72.68 -35.48 35.12 -113.50 146.82 34.16 13.88 27.33 176.77 -2.12 
DOCKED: USER  keepresnum = 1 
DOCKED: USER  
DOCKED: REMARK  10 active torsions:
DOCKED: REMARK  status: ('A' for Active; 'I' for Inactive)
DOCKED: REMARK    1  A    between atoms: C_6  and  C_10 
DOCKED: REMARK    2  A    between atoms: C_10  and  C_11 
DOCKED: REMARK    3  A    between atoms: C_11  and  C_12 
DOCKED: REMARK    4  A    between atoms: C_12  and  O_14 
DOCKED: REMARK    5  A    between atoms: C_17  and  C_20 
DOCKED: REMARK    6  A    between atoms: C_24  and  C_27 
DOCKED: REMARK    7  A    between atoms: C_31  and  C_34 
DOCKED: REMARK    8  A    between atoms: C_34  and  C_35 
DOCKED: REMARK    9  A    between atoms: C_35  and  C_36 
DOCKED: REMARK   10  A    between atoms: C_36  and  O_38 
DOCKED: USER                              x       y       z     vdW  Elec       q    Type
DOCKED: USER                           _______ _______ _______ _____ _____    ______ ____
DOCKED: ROOT
DOCKED: ATOM      1  C   UNL d   1      43.389  28.281  17.631 -0.23 +0.02    +0.064 C 
DOCKED: ATOM      2  C   UNL d   1      39.784  26.197  14.969 -0.38 +0.01    +0.064 A 
DOCKED: ATOM      3  C   UNL d   1      37.913  30.556  14.217 -0.40 +0.01    +0.064 C 
DOCKED: ATOM      4  C   UNL d   1      41.333  32.583  16.878 -0.48 +0.01    +0.064 C 
DOCKED: ATOM      5  C   UNL d   1      42.501  27.282  17.021 -0.31 +0.02    +0.066 A 
DOCKED: ATOM      6  C   UNL d   1      42.663  25.911  17.129 -0.34 -0.01    -0.021 A 
DOCKED: ATOM      7  C   UNL d   1      41.663  25.333  16.386 -0.37 -0.01    -0.025 A 
DOCKED: ATOM      8  C   UNL d   1      40.929  26.375  15.853 -0.36 +0.02    +0.066 A 
DOCKED: ATOM      9  C   UNL d   1      41.424  23.863  16.219 -0.53 +0.01    +0.051 C 
DOCKED: ATOM     10  C   UNL d   1      39.025  27.183  14.488 -0.34 +0.01    +0.066 A 
DOCKED: ATOM     11  C   UNL d   1      38.006  26.990  13.552 -0.43 -0.00    -0.021 A 
DOCKED: ATOM     12  C   UNL d   1      37.462  28.234  13.306 -0.46 +0.00    +0.000 A 
DOCKED: ATOM     13  C   UNL d   1      38.189  29.132  14.106 -0.30 +0.01    +0.070 A 
DOCKED: ATOM     14  C   UNL d   1      37.615  25.693  12.873 -0.47 +0.01    +0.052 C 
DOCKED: ATOM     15  C   UNL d   1      38.643  31.433  14.946 -0.35 +0.01    +0.066 A 
DOCKED: ATOM     16  C   UNL d   1      38.289  32.766  15.106 -0.38 -0.00    -0.021 A 
DOCKED: ATOM     17  C   UNL d   1      39.276  33.354  15.870 -0.43 +0.00    +0.000 A 
DOCKED: ATOM     18  C   UNL d   1      40.213  32.364  16.155 -0.39 +0.01    +0.070 A 
DOCKED: ATOM     19  C   UNL d   1      37.083  33.470  14.542 -0.39 +0.00    +0.052 C 
DOCKED: ATOM     20  C   UNL d   1      42.311  31.553  17.250 -0.36 +0.02    +0.066 A 
DOCKED: ATOM     21  C   UNL d   1      43.568  31.798  17.821 -0.27 -0.01    -0.025 A 
DOCKED: ATOM     22  C   UNL d   1      44.131  30.557  18.039 -0.29 -0.01    -0.021 A 
DOCKED: ATOM     23  C   UNL d   1      43.203  29.610  17.589 -0.28 +0.02    +0.066 A 
DOCKED: ATOM     24  C   UNL d   1      44.215  33.124  18.144 -0.11 +0.01    +0.051 C 
DOCKED: ATOM     25  N   UNL d   1      41.436  27.559  16.250 -0.26 -0.08    -0.248 N 
DOCKED: ATOM     26  N   UNL d   1      39.148  28.493  14.820 +0.04 -0.08    -0.248 N 
DOCKED: ATOM     27  N   UNL d   1      39.803  31.173  15.625 -0.20 -0.06    -0.248 N 
DOCKED: ATOM     28  N   UNL d   1      42.114  30.225  17.067 -0.24 -0.07    -0.248 N 
DOCKED: ATOM     29 FE   UNL d   1      40.631  29.361  15.944 -0.08 +0.00    +0.000 Fe
DOCKED: ENDROOT
DOCKED: BRANCH   6  30
DOCKED: ATOM     30  C   UNL d   1      43.700  25.183  17.914 -0.32 +0.02    +0.052 C 
DOCKED: BRANCH  30  31
DOCKED: ATOM     31  C   UNL d   1      44.902  24.846  17.038 -0.19 +0.07    +0.115 C 
DOCKED: BRANCH  31  32
DOCKED: ATOM     32  C   UNL d   1      45.782  23.835  17.720 -0.22 +0.12    +0.139 C 
DOCKED: ATOM     33  O   UNL d   1      46.395  23.002  17.068 -0.20 -1.18    -0.650 OA
DOCKED: BRANCH  32  34
DOCKED: ATOM     34  O   UNL d   1      45.902  23.839  19.059 +0.05 -0.50    -0.776 OA
DOCKED: ATOM     35  H   UNL d   1      46.728  24.151  19.455 +0.04 +0.10    +0.167 HD
DOCKED: ENDBRANCH  32  34
DOCKED: ENDBRANCH  31  32
DOCKED: ENDBRANCH  30  31
DOCKED: ENDBRANCH   6  30
DOCKED: BRANCH  22  36
DOCKED: ATOM     36  C   UNL d   1      45.504  30.302  18.603 -0.23 +0.02    +0.052 C 
DOCKED: BRANCH  36  37
DOCKED: ATOM     37  C   UNL d   1      45.408  30.074  20.104 -0.09 +0.09    +0.115 C 
DOCKED: BRANCH  37  38
DOCKED: ATOM     38  C   UNL d   1      46.692  30.448  20.789 -0.05 +0.13    +0.139 C 
DOCKED: ATOM     39  O   UNL d   1      47.372  31.376  20.378 -0.00 -0.35    -0.650 OA
DOCKED: BRANCH  38  40
DOCKED: ATOM     40  O   UNL d   1      47.105  29.756  21.866 -0.31 -1.52    -0.776 OA
DOCKED: ATOM     41  H   UNL d   1      48.052  29.605  21.992 +0.01 +0.21    +0.167 HD
DOCKED: ENDBRANCH  38  40
DOCKED: ENDBRANCH  37  38
DOCKED: ENDBRANCH  36  37
DOCKED: ENDBRANCH  22  36
DOCKED: BRANCH  12  42
DOCKED: ATOM     42  C   UNL d   1      36.341  28.505  12.353 -0.66 +0.00    +0.004 C 
DOCKED: ATOM     43  C   UNL d   1      35.065  28.330  12.722 -0.66 +0.00    +0.012 C 
DOCKED: ENDBRANCH  12  42
DOCKED: BRANCH  17  44
DOCKED: ATOM     44  C   UNL d   1      39.309  34.765  16.315 -0.55 +0.00    +0.004 C 
DOCKED: ATOM     45  C   UNL d   1      39.312  35.764  15.426 -0.55 +0.00    +0.012 C 
DOCKED: ENDBRANCH  17  44
DOCKED: TORSDOF 10
DOCKED: TER
DOCKED: ENDMDL
________________________________________________________________________________

DPF> analysis                             # perform a ranked cluster analysis


		CLUSTER ANALYSIS OF CONFORMATIONS
		_________________________________

Number of conformations = 100

RMSD cluster analysis will be performed using the ligand atoms only (45 / 45 total atoms).

Outputting structurally similar clusters, ranked in order of increasing energy.


________________________________________________________________________________

Number of distinct conformational clusters found = 20,  out of 100 runs,
Using an rmsd-tolerance of 2.0 A


	CLUSTERING HISTOGRAM
	____________________

________________________________________________________________________________
     |           |     |           |     |                                    
Clus | Lowest    | Run | Mean      | Num | Histogram                          
-ter | Binding   |     | Binding   | in  |                                    
Rank | Energy    |     | Energy    | Clus|    5    10   15   20   25   30   35
_____|___________|_____|___________|_____|____:____|____:____|____:____|____:___
   1 |    -13.97 |  62 |    -12.98 |  46 |##############################################
   2 |    -11.53 |  71 |    -10.89 |  18 |##################
   3 |    -11.32 |  40 |    -11.25 |   2 |##
   4 |    -11.09 |  37 |    -10.88 |   3 |###
   5 |    -10.06 |  76 |    -10.06 |   1 |#
   6 |     -9.77 |  42 |     -9.14 |   4 |####
   7 |     -8.09 |  31 |     -7.51 |   2 |##
   8 |     -7.70 |  24 |     -7.70 |   1 |#
   9 |     -7.65 |  87 |     -7.65 |   1 |#
  10 |     -7.32 |  36 |     -6.65 |   9 |#########
  11 |     -6.66 |  57 |     -6.66 |   1 |#
  12 |     -6.58 |  74 |     -6.58 |   1 |#
  13 |     -6.55 |  92 |     -5.93 |   2 |##
  14 |     -6.20 |  70 |     -6.10 |   3 |###
  15 |     -5.61 |  63 |     -5.61 |   1 |#
  16 |     -5.55 |   9 |     -5.55 |   1 |#
  17 |     -5.11 |  25 |     -5.11 |   1 |#
  18 |     -5.01 |  54 |     -5.01 |   1 |#
  19 |     -4.78 |  28 |     -4.78 |   1 |#
  20 |     -3.74 |   3 |     -3.74 |   1 |#
_____|___________|_____|___________|_____|______________________________________


Number of multi-member conformational clusters found = 9, out of 100 runs.

	RMSD TABLE
	__________

_____________________________________________________________________
     |      |      |           |         |                 |
Rank | Sub- | Run  | Binding   | Cluster | Reference       | Grep
     | Rank |      | Energy    | RMSD    | RMSD            | Pattern
_____|______|______|___________|_________|_________________|___________
   1      1     62      -13.97      0.00     49.86           RANKING
   1      2     94      -13.79      0.94     50.11           RANKING
   1      3     17      -13.69      0.16     49.79           RANKING
   1      4     46      -13.63      0.69     50.10           RANKING
   1      5     13      -13.62      1.06     49.96           RANKING
   1      6     48      -13.60      0.60     49.97           RANKING
   1      7     20      -13.58      0.61     49.95           RANKING
   1      8      1      -13.49      0.74     50.02           RANKING
   1      9     50      -13.48      0.56     49.89           RANKING
   1     10     91      -13.48      0.86     50.15           RANKING
   1     11     44      -13.45      0.67     49.99           RANKING
   1     12     33      -13.45      0.61     49.93           RANKING
   1     13     45      -13.43      0.60     49.93           RANKING
   1     14      7      -13.37      0.55     49.89           RANKING
   1     15     73      -13.34      0.58     49.84           RANKING
   1     16     14      -13.29      1.09     49.74           RANKING
   1     17     15      -13.29      0.77     49.79           RANKING
   1     18     34      -13.28      0.90     49.83           RANKING
   1     19     12      -13.28      0.50     49.70           RANKING
   1     20     79      -13.23      1.12     49.77           RANKING
   1     21     41      -13.22      0.66     50.16           RANKING
   1     22    100      -13.22      0.75     50.23           RANKING
   1     23     35      -13.21      1.02     49.94           RANKING
   1     24     61      -13.21      0.88     49.86           RANKING
   1     25     21      -13.05      1.15     49.42           RANKING
   1     26     98      -13.03      0.95     49.89           RANKING
   1     27     90      -12.98      1.31     49.67           RANKING
   1     28     11      -12.96      1.32     49.69           RANKING
   1     29     23      -12.95      1.08     49.84           RANKING
   1     30      6      -12.92      1.17     49.49           RANKING
   1     31      2      -12.80      1.32     49.61           RANKING
   1     32     52      -12.77      1.03     49.98           RANKING
   1     33     85      -12.76      1.24     49.88           RANKING
   1     34     19      -12.75      1.08     49.75           RANKING
   1     35      5      -12.69      1.27     49.67           RANKING
   1     36     32      -12.66      1.12     50.20           RANKING
   1     37     18      -12.65      1.29     49.49           RANKING
   1     38      8      -12.52      1.05     49.95           RANKING
   1     39     78      -12.40      1.37     49.52           RANKING
   1     40     64      -12.27      1.33     49.68           RANKING
   1     41     95      -12.13      1.11     50.18           RANKING
   1     42     99      -12.05      1.11     49.85           RANKING
   1     43     96      -11.92      0.96     50.07           RANKING
   1     44     16      -11.90      0.96     49.99           RANKING
   1     45     53      -11.62      1.42     49.76           RANKING
   1     46     69      -10.65      1.19     50.18           RANKING
   2      1     71      -11.53      0.00     32.92           RANKING
   2      2     65      -11.46      0.44     32.92           RANKING
   2      3     83      -11.36      0.68     32.89           RANKING
   2      4     84      -11.29      0.60     32.77           RANKING
   2      5     38      -11.19      0.93     32.50           RANKING
   2      6     97      -11.03      0.70     32.77           RANKING
   2      7     77      -11.01      1.11     32.48           RANKING
   2      8     56      -10.98      1.04     32.28           RANKING
   2      9     22      -10.94      1.07     32.59           RANKING
   2     10     30      -10.91      1.34     32.25           RANKING
   2     11     86      -10.84      1.32     32.17           RANKING
   2     12     80      -10.81      1.35     32.21           RANKING
   2     13     72      -10.80      1.11     32.07           RANKING
   2     14      4      -10.79      1.44     32.25           RANKING
   2     15     88      -10.56      1.18     32.86           RANKING
   2     16     75      -10.47      1.16     32.03           RANKING
   2     17     60      -10.36      1.47     32.34           RANKING
   2     18     27       -9.72      1.38     31.98           RANKING
   3      1     40      -11.32      0.00     49.71           RANKING
   3      2     29      -11.17      1.51     49.35           RANKING
   4      1     37      -11.09      0.00     33.23           RANKING
   4      2     66      -11.02      1.19     32.83           RANKING
   4      3     68      -10.52      0.55     33.32           RANKING
   5      1     76      -10.06      0.00     31.71           RANKING
   6      1     42       -9.77      0.00     49.60           RANKING
   6      2     47       -9.44      0.93     49.81           RANKING
   6      3     10       -9.32      0.67     49.91           RANKING
   6      4     55       -8.02      1.98     49.45           RANKING
   7      1     31       -8.09      0.00     48.65           RANKING
   7      2     58       -6.92      1.31     49.51           RANKING
   8      1     24       -7.70      0.00     33.35           RANKING
   9      1     87       -7.65      0.00     52.47           RANKING
  10      1     36       -7.32      0.00     43.91           RANKING
  10      2     49       -7.29      1.97     45.08           RANKING
  10      3     93       -7.14      1.52     45.05           RANKING
  10      4     39       -6.99      1.43     44.31           RANKING
  10      5     51       -6.81      1.51     45.02           RANKING
  10      6     26       -6.37      1.09     44.02           RANKING
  10      7     81       -6.02      1.38     44.64           RANKING
  10      8     43       -6.00      1.95     45.66           RANKING
  10      9     89       -5.93      1.55     44.99           RANKING
  11      1     57       -6.66      0.00     47.78           RANKING
  12      1     74       -6.58      0.00     45.89           RANKING
  13      1     92       -6.55      0.00     47.42           RANKING
  13      2     82       -5.31      1.43     47.93           RANKING
  14      1     70       -6.20      0.00     48.99           RANKING
  14      2     59       -6.15      1.00     49.06           RANKING
  14      3     67       -5.96      0.80     49.05           RANKING
  15      1     63       -5.61      0.00     46.26           RANKING
  16      1      9       -5.55      0.00     24.63           RANKING
  17      1     25       -5.11      0.00     43.98           RANKING
  18      1     54       -5.01      0.00     55.61           RANKING
  19      1     28       -4.78      0.00     43.19           RANKING
  20      1      3       -3.74      0.00     53.53           RANKING
_______________________________________________________________________



	INFORMATION ENTROPY ANALYSIS FOR THIS CLUSTERING
	________________________________________________


Information entropy for this clustering = 0.43  (rmstol = 2.00 Angstrom)

_______________________________________________________________________


	STATISTICAL MECHANICAL ANALYSIS
	_______________________________


Partition function, Q =   101.80            at Temperature, T = 298.15 K
Free energy,        A ~ -2739.07 kcal/mol   at Temperature, T = 298.15 K
Internal energy,    U =   -10.60 kcal/mol   at Temperature, T = 298.15 K
Entropy,            S =     9.15 kcal/mol/K at Temperature, T = 298.15 K

_______________________________________________________________________


	LOWEST ENERGY DOCKED CONFORMATION from EACH CLUSTER
	___________________________________________________



Keeping original residue number (specified in the input PDBQ file) for outputting.

MODEL       62
USER    Run = 62
USER    Cluster Rank = 1
USER    Number of conformations in this cluster = 46
USER  
USER    RMSD from reference structure       = 49.856 A
USER  
USER    Estimated Free Energy of Binding    =  -13.97 kcal/mol  [=(1)+(2)+(3)-(4)]
USER    Estimated Inhibition Constant, Ki   =   57.11 pM (picomolar)  [Temperature = 298.15 K]
USER    
USER    (1) Final Intermolecular Energy     =  -16.96 kcal/mol
USER        vdW + Hbond + desolv Energy     =  -13.77 kcal/mol
USER        Electrostatic Energy            =   -3.19 kcal/mol
USER    (2) Final Total Internal Energy     =   +0.11 kcal/mol
USER    (3) Torsional Free Energy           =   +2.98 kcal/mol
USER    (4) Unbound System's Energy  [=(2)] =   +0.11 kcal/mol
USER    
USER    
USER  
USER    DPF = D:/Protein_go_brrr/autodock/final/2DN3/heme_Fe/dock.dpf
USER    NEWDPF move	heme_Fe_opt.pdbqt
USER    NEWDPF about	-0.174000 -0.001000 -0.047000
USER    NEWDPF tran0	41.375365 29.036271 16.915776
USER    NEWDPF axisangle0	-0.114832 -0.991228 -0.065423 139.836915
USER    NEWDPF quaternion0	-0.107851 -0.930966 -0.061445 0.343357
USER    NEWDPF dihe0	61.79 156.46 51.37 -133.37 180.00 125.19 49.40 61.36 -179.88 74.25 
USER  
USER                              x       y       z    vdW   Elec        q     RMS 
ATOM      1  C   UNL d   1      43.181  28.519  17.742 -0.14 +0.02    +0.064    49.856
ATOM      2  C   UNL d   1      39.821  26.176  14.976 -0.38 +0.01    +0.064    49.856
ATOM      3  C   UNL d   1      37.818  30.417  13.941 -0.38 +0.01    +0.064    49.856
ATOM      4  C   UNL d   1      40.996  32.694  16.697 -0.48 +0.01    +0.064    49.856
ATOM      5  C   UNL d   1      42.371  27.459  17.127 -0.19 +0.02    +0.066    49.856
ATOM      6  C   UNL d   1      42.582  26.101  17.300 -0.34 -0.01    -0.021    49.856
ATOM      7  C   UNL d   1      41.651  25.451  16.529 -0.36 -0.01    -0.025    49.856
ATOM      8  C   UNL d   1      40.906  26.439  15.914 -0.36 +0.02    +0.066    49.856
ATOM      9  C   UNL d   1      41.482  23.967  16.411 -0.52 +0.01    +0.051    49.856
ATOM     10  C   UNL d   1      39.050  27.108  14.414 -0.35 +0.01    +0.066    49.856
ATOM     11  C   UNL d   1      38.094  26.834  13.432 -0.43 -0.00    -0.021    49.856
ATOM     12  C   UNL d   1      37.514  28.043  13.104 -0.47 +0.00    +0.000    49.856
ATOM     13  C   UNL d   1      38.158  29.003  13.905 -0.31 +0.01    +0.070    49.856
ATOM     14  C   UNL d   1      37.796  25.496  12.788 -0.44 +0.01    +0.052    49.856
ATOM     15  C   UNL d   1      38.469  31.353  14.671 -0.35 +0.01    +0.066    49.856
ATOM     16  C   UNL d   1      38.051  32.675  14.755 -0.38 -0.00    -0.021    49.856
ATOM     17  C   UNL d   1      38.968  33.334  15.547 -0.44 +0.00    +0.000    49.856
ATOM     18  C   UNL d   1      39.928  32.398  15.925 -0.38 +0.01    +0.070    49.856
ATOM     19  C   UNL d   1      36.851  33.302  14.098 -0.38 +0.00    +0.052    49.856
ATOM     20  C   UNL d   1      41.992  31.723  17.165 -0.39 +0.01    +0.066    49.856
ATOM     21  C   UNL d   1      43.203  32.045  17.794 -0.32 -0.01    -0.025    49.856
ATOM     22  C   UNL d   1      43.804  30.840  18.094 -0.31 -0.01    -0.021    49.856
ATOM     23  C   UNL d   1      42.943  29.836  17.634 -0.29 +0.02    +0.066    49.856
ATOM     24  C   UNL d   1      43.776  33.410  18.096 -0.26 +0.01    +0.051    49.856
ATOM     25  N   UNL d   1      41.340  27.659  16.287 -0.26 -0.09    -0.248    49.856
ATOM     26  N   UNL d   1      39.100  28.435  14.697 +0.02 -0.07    -0.248    49.856
ATOM     27  N   UNL d   1      39.598  31.170  15.423 -0.15 -0.06    -0.248    49.856
ATOM     28  N   UNL d   1      41.861  30.382  17.028 -0.25 -0.07    -0.248    49.856
ATOM     29 FE   UNL d   1      40.481  29.410  15.863 -0.08 +0.00    +0.000    49.856
ATOM     30  C   UNL d   1      43.602  25.451  18.171 -0.32 +0.02    +0.052    49.856
ATOM     31  C   UNL d   1      44.894  25.207  17.399 -0.22 +0.07    +0.115    49.856
ATOM     32  C   UNL d   1      45.357  23.788  17.583 -0.19 +0.11    +0.139    49.856
ATOM     33  O   UNL d   1      46.379  23.390  17.041 -0.36 -1.05    -0.650    49.856
ATOM     34  O   UNL d   1      44.648  22.941  18.348 +0.06 -0.46    -0.776    49.856
ATOM     35  H   UNL d   1      45.061  22.562  19.136 +0.06 +0.09    +0.167    49.856
ATOM     36  C   UNL d   1      45.152  30.666  18.743 -0.26 +0.02    +0.052    49.856
ATOM     37  C   UNL d   1      45.367  29.202  19.097 -0.20 +0.07    +0.115    49.856
ATOM     38  C   UNL d   1      45.561  29.029  20.577 -0.16 +0.16    +0.139    49.856
ATOM     39  O   UNL d   1      44.856  28.261  21.215 -0.06 -1.07    -0.650    49.856
ATOM     40  O   UNL d   1      46.518  29.727  21.214 -0.37 -1.20    -0.776    49.856
ATOM     41  H   UNL d   1      47.277  30.053  20.710 +0.02 +0.15    +0.167    49.856
ATOM     42  C   UNL d   1      36.439  28.228  12.081 -0.68 +0.00    +0.004    49.856
ATOM     43  C   UNL d   1      35.153  28.332  12.443 -0.63 +0.00    +0.012    49.856
ATOM     44  C   UNL d   1      38.918  34.763  15.934 -0.51 +0.00    +0.004    49.856
ATOM     45  C   UNL d   1      39.318  35.716  15.087 -0.60 +0.00    +0.012    49.856
TER
ENDMDL
MODEL       71
USER    Run = 71
USER    Cluster Rank = 2
USER    Number of conformations in this cluster = 18
USER  
USER    RMSD from reference structure       = 32.922 A
USER  
USER    Estimated Free Energy of Binding    =  -11.53 kcal/mol  [=(1)+(2)+(3)-(4)]
USER    Estimated Inhibition Constant, Ki   =    3.54 nM (nanomolar)  [Temperature = 298.15 K]
USER    
USER    (1) Final Intermolecular Energy     =  -14.51 kcal/mol
USER        vdW + Hbond + desolv Energy     =  -13.29 kcal/mol
USER        Electrostatic Energy            =   -1.22 kcal/mol
USER    (2) Final Total Internal Energy     =   -0.60 kcal/mol
USER    (3) Torsional Free Energy           =   +2.98 kcal/mol
USER    (4) Unbound System's Energy  [=(2)] =   -0.60 kcal/mol
USER    
USER    
USER  
USER    DPF = D:/Protein_go_brrr/autodock/final/2DN3/heme_Fe/dock.dpf
USER    NEWDPF move	heme_Fe_opt.pdbqt
USER    NEWDPF about	-0.174000 -0.001000 -0.047000
USER    NEWDPF tran0	8.633550 35.019641 -1.072697
USER    NEWDPF axisangle0	0.765859 0.365820 0.528807 64.501491
USER    NEWDPF quaternion0	0.408682 0.195211 0.282185 0.845721
USER    NEWDPF dihe0	88.35 -97.72 73.37 -154.36 -65.91 57.41 -27.62 -53.58 -180.00 -164.93 
USER  
USER                              x       y       z    vdW   Elec        q     RMS 
ATOM      1  C   UNL d   1       7.028  36.046  -1.836 +0.13 +0.01    +0.064    32.922
ATOM      2  C   UNL d   1       7.722  33.045   2.030 -0.40 +0.01    +0.064    32.922
ATOM      3  C   UNL d   1      12.466  33.580   1.506 -0.39 +0.00    +0.064    32.922
ATOM      4  C   UNL d   1      11.820  36.402  -2.303 -0.45 +0.00    +0.064    32.922
ATOM      5  C   UNL d   1       6.786  35.085  -0.751 -0.25 +0.01    +0.066    32.922
ATOM      6  C   UNL d   1       5.539  34.602  -0.386 -0.29 -0.00    -0.021    32.922
ATOM      7  C   UNL d   1       5.733  33.772   0.690 -0.30 -0.00    -0.025    32.922
ATOM      8  C   UNL d   1       7.091  33.779   0.941 -0.34 +0.01    +0.066    32.922
ATOM      9  C   UNL d   1       4.670  33.005   1.415 -0.21 +0.01    +0.051    32.922
ATOM     10  C   UNL d   1       9.035  32.989   2.259 -0.37 +0.01    +0.066    32.922
ATOM     11  C   UNL d   1       9.601  32.372   3.377 -0.42 -0.00    -0.021    32.922
ATOM     12  C   UNL d   1      10.968  32.527   3.258 -0.43 +0.00    +0.000    32.922
ATOM     13  C   UNL d   1      11.167  33.245   2.066 -0.35 +0.01    +0.070    32.922
ATOM     14  C   UNL d   1       8.873  31.726   4.538 -0.55 +0.00    +0.052    32.922
ATOM     15  C   UNL d   1      12.662  34.315   0.386 -0.34 +0.01    +0.066    32.922
ATOM     16  C   UNL d   1      13.916  34.529  -0.172 -0.44 -0.00    -0.021    32.922
ATOM     17  C   UNL d   1      13.732  35.345  -1.268 -0.44 +0.00    +0.000    32.922
ATOM     18  C   UNL d   1      12.368  35.615  -1.351 -0.35 +0.01    +0.070    32.922
ATOM     19  C   UNL d   1      15.240  34.008   0.319 -0.60 +0.00    +0.052    32.922
ATOM     20  C   UNL d   1      10.383  36.658  -2.458 -0.38 +0.01    +0.066    32.922
ATOM     21  C   UNL d   1       9.819  37.621  -3.306 -0.37 -0.00    -0.025    32.922
ATOM     22  C   UNL d   1       8.452  37.494  -3.167 -0.33 -0.00    -0.021    32.922
ATOM     23  C   UNL d   1       8.237  36.467  -2.239 -0.11 +0.01    +0.066    32.922
ATOM     24  C   UNL d   1      10.520  38.617  -4.201 -0.37 -0.01    +0.051    32.922
ATOM     25  N   UNL d   1       7.730  34.572   0.057 -0.18 -0.05    -0.248    32.922
ATOM     26  N   UNL d   1       9.989  33.535   1.462 -0.22 -0.03    -0.248    32.922
ATOM     27  N   UNL d   1      11.704  34.947  -0.361 -0.10 -0.04    -0.248    32.922
ATOM     28  N   UNL d   1       9.419  35.992  -1.776 -0.21 -0.05    -0.248    32.922
ATOM     29 FE   UNL d   1       9.705  34.765  -0.159 -0.08 +0.00    +0.000    32.922
ATOM     30  C   UNL d   1       4.232  34.896  -1.039 -0.23 +0.01    +0.052    32.922
ATOM     31  C   UNL d   1       3.569  36.110  -0.397 -0.15 +0.07    +0.115    32.922
ATOM     32  C   UNL d   1       2.676  36.806  -1.387 -0.17 +0.12    +0.139    32.922
ATOM     33  O   UNL d   1       3.147  37.355  -2.373 -0.01 -0.42    -0.650    32.922
ATOM     34  O   UNL d   1       1.346  36.831  -1.195 -0.37 -1.09    -0.776    32.922
ATOM     35  H   UNL d   1       0.802  36.133  -1.585 +0.02 +0.14    +0.167    32.922
ATOM     36  C   UNL d   1       7.415  38.345  -3.850 -0.29 +0.00    +0.052    32.922
ATOM     37  C   UNL d   1       7.479  39.766  -3.310 -0.32 +0.00    +0.115    32.922
ATOM     38  C   UNL d   1       7.649  40.759  -4.425 -0.33 -0.00    +0.139    32.922
ATOM     39  O   UNL d   1       6.841  40.817  -5.339 +0.05 -0.02    -0.650    32.922
ATOM     40  O   UNL d   1       8.703  41.594  -4.424 +0.01 +0.14    -0.776    32.922
ATOM     41  H   UNL d   1       9.555  41.277  -4.756 -0.46 -0.10    +0.167    32.922
ATOM     42  C   UNL d   1      11.975  32.026   4.244 -0.43 +0.00    +0.004    32.922
ATOM     43  C   UNL d   1      12.933  31.166   3.875 -0.64 +0.00    +0.012    32.922
ATOM     44  C   UNL d   1      14.790  35.820  -2.189 -0.20 +0.00    +0.004    32.922
ATOM     45  C   UNL d   1      15.294  37.053  -2.076 -0.65 +0.00    +0.012    32.922
TER
ENDMDL
MODEL       40
USER    Run = 40
USER    Cluster Rank = 3
USER    Number of conformations in this cluster = 2
USER  
USER    RMSD from reference structure       = 49.708 A
USER  
USER    Estimated Free Energy of Binding    =  -11.32 kcal/mol  [=(1)+(2)+(3)-(4)]
USER    Estimated Inhibition Constant, Ki   =    5.00 nM (nanomolar)  [Temperature = 298.15 K]
USER    
USER    (1) Final Intermolecular Energy     =  -14.31 kcal/mol
USER        vdW + Hbond + desolv Energy     =  -14.07 kcal/mol
USER        Electrostatic Energy            =   -0.24 kcal/mol
USER    (2) Final Total Internal Energy     =   -0.43 kcal/mol
USER    (3) Torsional Free Energy           =   +2.98 kcal/mol
USER    (4) Unbound System's Energy  [=(2)] =   -0.43 kcal/mol
USER    
USER    
USER  
USER    DPF = D:/Protein_go_brrr/autodock/final/2DN3/heme_Fe/dock.dpf
USER    NEWDPF move	heme_Fe_opt.pdbqt
USER    NEWDPF about	-0.174000 -0.001000 -0.047000
USER    NEWDPF tran0	40.458848 30.726006 15.573090
USER    NEWDPF axisangle0	-0.296584 0.209818 0.931673 113.159051
USER    NEWDPF quaternion0	-0.247544 0.175125 0.777622 0.550779
USER    NEWDPF dihe0	-52.71 84.62 -140.08 -136.10 -143.97 -107.13 -34.30 -14.67 -25.26 -41.09 
USER  
USER                              x       y       z    vdW   Elec        q     RMS 
ATOM      1  C   UNL d   1      40.642  32.614  16.356 -0.47 +0.01    +0.064    49.708
ATOM      2  C   UNL d   1      37.206  30.273  13.684 -0.24 +0.01    +0.064    49.708
ATOM      3  C   UNL d   1      39.323  26.095  14.748 -0.46 +0.01    +0.064    49.708
ATOM      4  C   UNL d   1      42.719  28.350  17.252 -0.08 +0.02    +0.064    49.708
ATOM      5  C   UNL d   1      39.527  32.350  15.436 -0.38 +0.01    +0.066    49.708
ATOM      6  C   UNL d   1      38.754  33.326  14.830 -0.41 -0.00    -0.021    49.708
ATOM      7  C   UNL d   1      37.797  32.675  14.091 -0.37 -0.00    -0.025    49.708
ATOM      8  C   UNL d   1      38.024  31.325  14.274 -0.34 +0.01    +0.066    49.708
ATOM      9  C   UNL d   1      36.743  33.321  13.245 -0.48 +0.00    +0.051    49.708
ATOM     10  C   UNL d   1      37.437  28.964  13.798 -0.38 +0.01    +0.066    49.708
ATOM     11  C   UNL d   1      36.571  27.979  13.317 -0.46 -0.00    -0.021    49.708
ATOM     12  C   UNL d   1      37.151  26.765  13.626 -0.46 +0.00    +0.000    49.708
ATOM     13  C   UNL d   1      38.348  27.075  14.294 -0.37 +0.01    +0.070    49.708
ATOM     14  C   UNL d   1      35.224  28.184  12.655 -0.62 +0.01    +0.052    49.708
ATOM     15  C   UNL d   1      40.451  26.386  15.437 -0.37 +0.02    +0.066    49.708
ATOM     16  C   UNL d   1      41.406  25.432  15.766 -0.35 -0.01    -0.021    49.708
ATOM     17  C   UNL d   1      42.385  26.080  16.492 -0.16 +0.00    +0.000    49.708
ATOM     18  C   UNL d   1      42.001  27.415  16.592 -0.31 +0.02    +0.070    49.708
ATOM     19  C   UNL d   1      41.389  23.964  15.435 -0.54 +0.01    +0.052    49.708
ATOM     20  C   UNL d   1      42.378  29.776  17.327 -0.24 +0.02    +0.066    49.708
ATOM     21  C   UNL d   1      42.996  30.713  18.166 -0.35 -0.01    -0.025    49.708
ATOM     22  C   UNL d   1      42.398  31.924  17.885 -0.44 -0.00    -0.021    49.708
ATOM     23  C   UNL d   1      41.439  31.678  16.895 -0.38 +0.01    +0.066    49.708
ATOM     24  C   UNL d   1      44.089  30.491  19.185 -0.31 +0.02    +0.051    49.708
ATOM     25  N   UNL d   1      39.083  31.130  15.086 -0.21 -0.05    -0.248    49.708
ATOM     26  N   UNL d   1      38.519  28.415  14.407 -0.21 -0.05    -0.248    49.708
ATOM     27  N   UNL d   1      40.835  27.613  15.907 -0.23 -0.08    -0.248    49.708
ATOM     28  N   UNL d   1      41.401  30.358  16.590 -0.09 -0.08    -0.248    49.708
ATOM     29 FE   UNL d   1      39.961  29.386  15.500 -0.08 +0.00    +0.000    49.708
ATOM     30  C   UNL d   1      38.926  34.803  14.929 -0.53 +0.01    +0.052    49.708
ATOM     31  C   UNL d   1      40.255  35.234  14.319 -0.10 +0.01    +0.115    49.708
ATOM     32  C   UNL d   1      40.121  36.580  13.663 -0.41 +0.02    +0.139    49.708
ATOM     33  O   UNL d   1      40.732  36.836  12.635 +0.12 -0.08    -0.650    49.708
ATOM     34  O   UNL d   1      39.325  37.518  14.203 +0.02 -0.07    -0.776    49.708
ATOM     35  H   UNL d   1      39.687  38.398  14.378 +0.09 +0.01    +0.167    49.708
ATOM     36  C   UNL d   1      42.698  33.233  18.566 -0.33 +0.01    +0.052    49.708
ATOM     37  C   UNL d   1      44.183  33.543  18.451 -0.33 +0.02    +0.115    49.708
ATOM     38  C   UNL d   1      44.459  34.984  18.774 -0.32 +0.01    +0.139    49.708
ATOM     39  O   UNL d   1      44.752  35.778  17.892 +0.03 -0.09    -0.650    49.708
ATOM     40  O   UNL d   1      44.390  35.411  20.048 +0.01 +0.02    -0.776    49.708
ATOM     41  H   UNL d   1      43.570  35.817  20.363 -0.48 -0.04    +0.167    49.708
ATOM     42  C   UNL d   1      36.561  25.428  13.306 -0.66 +0.00    +0.004    49.708
ATOM     43  C   UNL d   1      35.780  24.790  14.188 -0.72 +0.00    +0.012    49.708
ATOM     44  C   UNL d   1      43.617  25.465  17.035 -0.31 +0.00    +0.004    49.708
ATOM     45  C   UNL d   1      43.595  24.796  18.193 -0.36 +0.01    +0.012    49.708
TER
ENDMDL
MODEL       37
USER    Run = 37
USER    Cluster Rank = 4
USER    Number of conformations in this cluster = 3
USER  
USER    RMSD from reference structure       = 33.227 A
USER  
USER    Estimated Free Energy of Binding    =  -11.09 kcal/mol  [=(1)+(2)+(3)-(4)]
USER    Estimated Inhibition Constant, Ki   =    7.42 nM (nanomolar)  [Temperature = 298.15 K]
USER    
USER    (1) Final Intermolecular Energy     =  -14.07 kcal/mol
USER        vdW + Hbond + desolv Energy     =  -13.83 kcal/mol
USER        Electrostatic Energy            =   -0.24 kcal/mol
USER    (2) Final Total Internal Energy     =   -0.67 kcal/mol
USER    (3) Torsional Free Energy           =   +2.98 kcal/mol
USER    (4) Unbound System's Energy  [=(2)] =   -0.67 kcal/mol
USER    
USER    
USER  
USER    DPF = D:/Protein_go_brrr/autodock/final/2DN3/heme_Fe/dock.dpf
USER    NEWDPF move	heme_Fe_opt.pdbqt
USER    NEWDPF about	-0.174000 -0.001000 -0.047000
USER    NEWDPF tran0	10.326019 35.631487 -0.607409
USER    NEWDPF axisangle0	-0.533716 0.757375 -0.376206 159.935185
USER    NEWDPF quaternion0	-0.525555 0.745794 -0.370453 0.174205
USER    NEWDPF dihe0	180.00 170.00 91.54 -166.48 139.46 54.75 43.77 98.60 157.10 12.83 
USER  
USER                              x       y       z    vdW   Elec        q     RMS 
ATOM      1  C   UNL d   1      11.215  36.527  -2.225 -0.41 +0.00    +0.064    33.227
ATOM      2  C   UNL d   1      12.813  33.703   1.503 -0.29 +0.00    +0.064    33.227
ATOM      3  C   UNL d   1       8.259  32.514   2.462 -0.48 +0.00    +0.064    33.227
ATOM      4  C   UNL d   1       6.684  35.324  -1.074 -0.29 +0.01    +0.064    33.227
ATOM      5  C   UNL d   1      12.081  35.908  -1.212 -0.35 +0.01    +0.066    33.227
ATOM      6  C   UNL d   1      13.446  36.117  -1.105 -0.41 -0.00    -0.021    33.227
ATOM      7  C   UNL d   1      13.890  35.329  -0.072 -0.40 -0.00    -0.025    33.227
ATOM      8  C   UNL d   1      12.777  34.670   0.413 -0.34 +0.01    +0.066    33.227
ATOM      9  C   UNL d   1      15.300  35.237   0.426 -0.54 +0.01    +0.051    33.227
ATOM     10  C   UNL d   1      11.746  33.096   2.027 -0.36 +0.00    +0.066    33.227
ATOM     11  C   UNL d   1      11.824  32.090   2.993 -0.40 -0.00    -0.021    33.227
ATOM     12  C   UNL d   1      10.525  31.718   3.274 -0.47 +0.00    +0.000    33.227
ATOM     13  C   UNL d   1       9.714  32.519   2.451 -0.39 +0.00    +0.070    33.227
ATOM     14  C   UNL d   1      13.078  31.464   3.570 -0.57 +0.00    +0.052    33.227
ATOM     15  C   UNL d   1       7.475  33.245   1.636 -0.38 +0.01    +0.066    33.227
ATOM     16  C   UNL d   1       6.091  33.288   1.744 -0.40 -0.00    -0.021    33.227
ATOM     17  C   UNL d   1       5.634  34.095   0.723 -0.35 +0.00    +0.000    33.227
ATOM     18  C   UNL d   1       6.753  34.523   0.011 -0.32 +0.01    +0.070    33.227
ATOM     19  C   UNL d   1       5.227  32.579   2.752 -0.44 +0.00    +0.052    33.227
ATOM     20  C   UNL d   1       7.842  35.844  -1.811 +0.04 +0.02    +0.066    33.227
ATOM     21  C   UNL d   1       7.786  36.505  -3.047 -0.31 -0.00    -0.025    33.227
ATOM     22  C   UNL d   1       9.087  36.850  -3.349 -0.35 -0.00    -0.021    33.227
ATOM     23  C   UNL d   1       9.882  36.383  -2.296 -0.37 +0.01    +0.066    33.227
ATOM     24  C   UNL d   1       6.578  36.797  -3.906 -0.26 +0.01    +0.051    33.227
ATOM     25  N   UNL d   1      11.677  35.031  -0.277 -0.09 -0.04    -0.248    33.227
ATOM     26  N   UNL d   1      10.458  33.353   1.684 -0.23 -0.02    -0.248    33.227
ATOM     27  N   UNL d   1       7.888  34.037   0.598 -0.15 -0.04    -0.248    33.227
ATOM     28  N   UNL d   1       9.123  35.731  -1.382 -0.11 -0.07    -0.248    33.227
ATOM     29 FE   UNL d   1       9.789  34.542   0.150 -0.07 +0.00    +0.000    33.227
ATOM     30  C   UNL d   1      14.286  37.034  -1.927 -0.53 +0.00    +0.052    33.227
ATOM     31  C   UNL d   1      15.269  36.243  -2.784 -0.32 +0.01    +0.115    33.227
ATOM     32  C   UNL d   1      16.630  36.879  -2.745 -0.38 +0.02    +0.139    33.227
ATOM     33  O   UNL d   1      17.638  36.190  -2.673 +0.04 -0.11    -0.650    33.227
ATOM     34  O   UNL d   1      16.752  38.217  -2.789 +0.37 -0.14    -0.776    33.227
ATOM     35  H   UNL d   1      15.953  38.759  -2.846 -0.26 -0.00    +0.167    33.227
ATOM     36  C   UNL d   1       9.543  37.546  -4.605 -0.33 -0.00    +0.052    33.227
ATOM     37  C   UNL d   1       9.984  38.964  -4.275 -0.33 -0.02    +0.115    33.227
ATOM     38  C   UNL d   1       8.803  39.890  -4.194 -0.33 -0.02    +0.139    33.227
ATOM     39  O   UNL d   1       7.863  39.642  -3.453 -0.06 -0.01    -0.650    33.227
ATOM     40  O   UNL d   1       8.772  41.005  -4.946 +0.08 +0.22    -0.776    33.227
ATOM     41  H   UNL d   1       9.572  41.276  -5.418 -0.48 -0.13    +0.167    33.227
ATOM     42  C   UNL d   1      10.131  30.657   4.252 -0.65 +0.00    +0.004    33.227
ATOM     43  C   UNL d   1       9.080  30.825   5.065 -0.61 -0.00    +0.012    33.227
ATOM     44  C   UNL d   1       4.222  34.450   0.458 -0.32 +0.00    +0.004    33.227
ATOM     45  C   UNL d   1       3.599  34.009  -0.640 -0.21 +0.00    +0.012    33.227
TER
ENDMDL
MODEL       76
USER    Run = 76
USER    Cluster Rank = 5
USER    Number of conformations in this cluster = 1
USER  
USER    RMSD from reference structure       = 31.712 A
USER  
USER    Estimated Free Energy of Binding    =  -10.06 kcal/mol  [=(1)+(2)+(3)-(4)]
USER    Estimated Inhibition Constant, Ki   =   42.60 nM (nanomolar)  [Temperature = 298.15 K]
USER    
USER    (1) Final Intermolecular Energy     =  -13.04 kcal/mol
USER        vdW + Hbond + desolv Energy     =  -12.56 kcal/mol
USER        Electrostatic Energy            =   -0.48 kcal/mol
USER    (2) Final Total Internal Energy     =   -0.35 kcal/mol
USER    (3) Torsional Free Energy           =   +2.98 kcal/mol
USER    (4) Unbound System's Energy  [=(2)] =   -0.35 kcal/mol
USER    
USER    
USER  
USER    DPF = D:/Protein_go_brrr/autodock/final/2DN3/heme_Fe/dock.dpf
USER    NEWDPF move	heme_Fe_opt.pdbqt
USER    NEWDPF about	-0.174000 -0.001000 -0.047000
USER    NEWDPF tran0	8.901993 34.087532 0.468648
USER    NEWDPF axisangle0	0.697167 -0.294820 -0.653483 70.907524
USER    NEWDPF quaternion0	0.404389 -0.171009 -0.379050 0.814584
USER    NEWDPF dihe0	-84.01 87.61 -146.91 67.35 170.17 101.22 121.27 54.45 49.42 -35.11 
USER  
USER                              x       y       z    vdW   Elec        q     RMS 
ATOM      1  C   UNL d   1       7.636  33.535   1.986 -0.41 +0.01    +0.064    31.712
ATOM      2  C   UNL d   1      12.543  33.850   1.489 -0.30 +0.00    +0.064    31.712
ATOM      3  C   UNL d   1      11.904  36.474  -2.482 -0.47 +0.00    +0.064    31.712
ATOM      4  C   UNL d   1       7.152  36.093  -2.079 -0.23 +0.01    +0.064    31.712
ATOM      5  C   UNL d   1       9.076  33.310   2.168 -0.35 +0.01    +0.066    31.712
ATOM      6  C   UNL d   1       9.633  32.505   3.148 -0.42 -0.00    -0.021    31.712
ATOM      7  C   UNL d   1      10.996  32.596   3.012 -0.41 -0.00    -0.025    31.712
ATOM      8  C   UNL d   1      11.219  33.454   1.952 -0.34 +0.01    +0.066    31.712
ATOM      9  C   UNL d   1      12.017  31.881   3.844 -0.50 +0.00    +0.051    31.712
ATOM     10  C   UNL d   1      12.787  34.630   0.435 -0.34 +0.01    +0.066    31.712
ATOM     11  C   UNL d   1      14.060  35.085   0.084 -0.42 -0.00    -0.021    31.712
ATOM     12  C   UNL d   1      13.901  35.858  -1.048 -0.43 +0.00    +0.000    31.712
ATOM     13  C   UNL d   1      12.523  35.841  -1.329 -0.36 +0.01    +0.070    31.712
ATOM     14  C   UNL d   1      15.357  34.851   0.832 -0.57 +0.00    +0.052    31.712
ATOM     15  C   UNL d   1      10.573  36.505  -2.728 -0.39 +0.00    +0.066    31.712
ATOM     16  C   UNL d   1      10.028  37.033  -3.892 -0.11 -0.00    -0.021    31.712
ATOM     17  C   UNL d   1       8.658  36.928  -3.776 -0.28 +0.00    +0.000    31.712
ATOM     18  C   UNL d   1       8.397  36.340  -2.540 -0.28 +0.01    +0.070    31.712
ATOM     19  C   UNL d   1      10.764  37.638  -5.057 -0.39 -0.00    +0.052    31.712
ATOM     20  C   UNL d   1       6.841  35.421  -0.812 -0.20 +0.01    +0.066    31.712
ATOM     21  C   UNL d   1       5.569  35.338  -0.229 -0.26 -0.01    -0.025    31.712
ATOM     22  C   UNL d   1       5.727  34.594   0.921 -0.38 -0.00    -0.021    31.712
ATOM     23  C   UNL d   1       7.085  34.259   0.999 -0.36 +0.01    +0.066    31.712
ATOM     24  C   UNL d   1       4.267  35.927  -0.720 -0.16 +0.02    +0.051    31.712
ATOM     25  N   UNL d   1      10.049  33.879   1.435 -0.19 -0.04    -0.248    31.712
ATOM     26  N   UNL d   1      11.843  35.100  -0.420 -0.14 -0.03    -0.248    31.712
ATOM     27  N   UNL d   1       9.575  36.039  -1.914 -0.24 -0.04    -0.248    31.712
ATOM     28  N   UNL d   1       7.767  34.804  -0.037 -0.21 -0.05    -0.248    31.712
ATOM     29 FE   UNL d   1       9.803  34.953  -0.230 -0.08 +0.00    +0.000    31.712
ATOM     30  C   UNL d   1       8.909  31.673   4.151 -0.57 +0.00    +0.052    31.712
ATOM     31  C   UNL d   1       9.586  30.317   4.319 -0.54 +0.00    +0.115    31.712
ATOM     32  C   UNL d   1       9.632  29.586   3.006 -0.19 +0.00    +0.139    31.712
ATOM     33  O   UNL d   1      10.291  28.563   2.885 +0.20 -0.01    -0.650    31.712
ATOM     34  O   UNL d   1       8.946  30.053   1.949 +0.06 -0.01    -0.776    31.712
ATOM     35  H   UNL d   1       9.403  30.606   1.300 +0.11 -0.00    +0.167    31.712
ATOM     36  C   UNL d   1       4.643  34.266   1.914 -0.28 +0.01    +0.052    31.712
ATOM     37  C   UNL d   1       3.560  33.440   1.237 -0.24 +0.02    +0.115    31.712
ATOM     38  C   UNL d   1       2.207  34.065   1.429 -0.18 +0.04    +0.139    31.712
ATOM     39  O   UNL d   1       1.687  34.718   0.536 -0.02 -0.30    -0.650    31.712
ATOM     40  O   UNL d   1       1.556  33.912   2.596 +0.02 -0.19    -0.776    31.712
ATOM     41  H   UNL d   1       0.933  33.178   2.694 +0.05 +0.03    +0.167    31.712
ATOM     42  C   UNL d   1      15.008  36.560  -1.768 -0.59 +0.00    +0.004    31.712
ATOM     43  C   UNL d   1      15.240  37.864  -1.572 -0.63 +0.00    +0.012    31.712
ATOM     44  C   UNL d   1       7.663  37.343  -4.791 -0.28 +0.00    +0.004    31.712
ATOM     45  C   UNL d   1       6.799  36.461  -5.304 -0.27 +0.00    +0.012    31.712
TER
ENDMDL
MODEL       42
USER    Run = 42
USER    Cluster Rank = 6
USER    Number of conformations in this cluster = 4
USER  
USER    RMSD from reference structure       = 49.604 A
USER  
USER    Estimated Free Energy of Binding    =   -9.77 kcal/mol  [=(1)+(2)+(3)-(4)]
USER    Estimated Inhibition Constant, Ki   =   69.43 nM (nanomolar)  [Temperature = 298.15 K]
USER    
USER    (1) Final Intermolecular Energy     =  -12.75 kcal/mol
USER        vdW + Hbond + desolv Energy     =   -8.99 kcal/mol
USER        Electrostatic Energy            =   -3.76 kcal/mol
USER    (2) Final Total Internal Energy     =   -0.53 kcal/mol
USER    (3) Torsional Free Energy           =   +2.98 kcal/mol
USER    (4) Unbound System's Energy  [=(2)] =   -0.53 kcal/mol
USER    
USER    
USER  
USER    DPF = D:/Protein_go_brrr/autodock/final/2DN3/heme_Fe/dock.dpf
USER    NEWDPF move	heme_Fe_opt.pdbqt
USER    NEWDPF about	-0.174000 -0.001000 -0.047000
USER    NEWDPF tran0	44.419369 22.314781 17.973469
USER    NEWDPF axisangle0	-0.082223 0.988445 0.127343 -127.336395
USER    NEWDPF quaternion0	-0.073692 0.885884 0.114130 -0.443569
USER    NEWDPF dihe0	152.36 168.01 0.01 158.90 95.82 97.67 -168.56 80.57 178.95 0.38 
USER  
USER                              x       y       z    vdW   Elec        q     RMS 
ATOM      1  C   UNL d   1      46.022  22.458  19.247 -0.15 +0.04    +0.064    49.604
ATOM      2  C   UNL d   1      44.468  19.097  15.973 -0.18 +0.03    +0.064    49.604
ATOM      3  C   UNL d   1      41.479  22.374  14.131 -0.30 +0.01    +0.064    49.604
ATOM      4  C   UNL d   1      42.893  25.611  17.358 -0.35 +0.02    +0.064    49.604
ATOM      5  C   UNL d   1      45.802  21.184  18.550 -0.18 +0.04    +0.066    49.604
ATOM      6  C   UNL d   1      46.409  19.984  18.884 -0.17 -0.01    -0.021    49.604
ATOM      7  C   UNL d   1      45.980  19.052  17.972 -0.16 -0.01    -0.025    49.604
ATOM      8  C   UNL d   1      45.126  19.719  17.115 -0.20 +0.04    +0.066    49.604
ATOM      9  C   UNL d   1      46.359  17.603  17.946 -0.08 +0.02    +0.051    49.604
ATOM     10  C   UNL d   1      43.596  19.703  15.165 -0.24 +0.03    +0.066    49.604
ATOM     11  C   UNL d   1      43.071  19.115  14.012 -0.25 -0.01    -0.021    49.604
ATOM     12  C   UNL d   1      42.218  20.046  13.453 -0.42 +0.00    +0.000    49.604
ATOM     13  C   UNL d   1      42.275  21.168  14.298 -0.38 +0.02    +0.070    49.604
ATOM     14  C   UNL d   1      43.416  17.758  13.433 -0.13 +0.01    +0.052    49.604
ATOM     15  C   UNL d   1      41.568  23.477  14.912 -0.41 +0.02    +0.066    49.604
ATOM     16  C   UNL d   1      40.721  24.569  14.781 -0.52 -0.01    -0.021    49.604
ATOM     17  C   UNL d   1      41.129  25.506  15.708 -0.38 +0.00    +0.000    49.604
ATOM     18  C   UNL d   1      42.220  24.963  16.382 -0.27 +0.02    +0.070    49.604
ATOM     19  C   UNL d   1      39.587  24.740  13.805 -0.30 +0.01    +0.052    49.604
ATOM     20  C   UNL d   1      44.006  25.047  18.131 -0.25 +0.03    +0.066    49.604
ATOM     21  C   UNL d   1      44.837  25.770  18.999 -0.19 -0.01    -0.025    49.604
ATOM     22  C   UNL d   1      45.713  24.849  19.536 -0.14 -0.01    -0.021    49.604
ATOM     23  C   UNL d   1      45.388  23.610  18.972 -0.16 +0.04    +0.066    49.604
ATOM     24  C   UNL d   1      44.817  27.248  19.311 -0.15 +0.03    +0.051    49.604
ATOM     25  N   UNL d   1      45.012  21.013  17.475 -0.17 -0.18    -0.248    49.604
ATOM     26  N   UNL d   1      43.121  20.963  15.337 -0.20 -0.08    -0.248    49.604
ATOM     27  N   UNL d   1      42.464  23.698  15.923 -0.12 -0.08    -0.248    49.604
ATOM     28  N   UNL d   1      44.376  23.745  18.082 -0.16 -0.14    -0.248    49.604
ATOM     29 FE   UNL d   1      43.748  22.356  16.710 -0.07 +0.00    +0.000    49.604
ATOM     30  C   UNL d   1      47.334  19.729  20.025 -0.12 +0.02    +0.052    49.604
ATOM     31  C   UNL d   1      48.785  19.925  19.598 -0.04 +0.06    +0.115    49.604
ATOM     32  C   UNL d   1      48.852  20.583  18.248 +0.01 +0.15    +0.139    49.604
ATOM     33  O   UNL d   1      48.992  21.794  18.151 -0.06 -0.81    -0.650    49.604
ATOM     34  O   UNL d   1      48.757  19.842  17.131 -0.52 -1.16    -0.776    49.604
ATOM     35  H   UNL d   1      49.045  18.919  17.155 +0.01 +0.14    +0.167    49.604
ATOM     36  C   UNL d   1      46.830  25.156  20.499 -0.08 +0.03    +0.052    49.604
ATOM     37  C   UNL d   1      46.372  24.872  21.922 -0.10 +0.08    +0.115    49.604
ATOM     38  C   UNL d   1      45.980  26.141  22.625 -0.08 +0.18    +0.139    49.604
ATOM     39  O   UNL d   1      44.809  26.481  22.695 -0.23 -1.12    -0.650    49.604
ATOM     40  O   UNL d   1      46.925  26.919  23.183 +0.23 -1.38    -0.776    49.604
ATOM     41  H   UNL d   1      47.822  26.570  23.284 +0.01 +0.18    +0.167    49.604
ATOM     42  C   UNL d   1      41.440  19.846  12.192 -0.20 +0.00    +0.004    49.604
ATOM     43  C   UNL d   1      40.734  18.726  11.988 -0.33 +0.00    +0.012    49.604
ATOM     44  C   UNL d   1      40.502  26.825  15.948 -0.43 +0.00    +0.004    49.604
ATOM     45  C   UNL d   1      41.239  27.875  16.326 -0.37 +0.00    +0.012    49.604
TER
ENDMDL
MODEL       31
USER    Run = 31
USER    Cluster Rank = 7
USER    Number of conformations in this cluster = 2
USER  
USER    RMSD from reference structure       = 48.653 A
USER  
USER    Estimated Free Energy of Binding    =   -8.09 kcal/mol  [=(1)+(2)+(3)-(4)]
USER    Estimated Inhibition Constant, Ki   =    1.17 uM (micromolar)  [Temperature = 298.15 K]
USER    
USER    (1) Final Intermolecular Energy     =  -11.07 kcal/mol
USER        vdW + Hbond + desolv Energy     =   -9.03 kcal/mol
USER        Electrostatic Energy            =   -2.04 kcal/mol
USER    (2) Final Total Internal Energy     =   -0.55 kcal/mol
USER    (3) Torsional Free Energy           =   +2.98 kcal/mol
USER    (4) Unbound System's Energy  [=(2)] =   -0.55 kcal/mol
USER    
USER    
USER  
USER    DPF = D:/Protein_go_brrr/autodock/final/2DN3/heme_Fe/dock.dpf
USER    NEWDPF move	heme_Fe_opt.pdbqt
USER    NEWDPF about	-0.174000 -0.001000 -0.047000
USER    NEWDPF tran0	44.933149 21.016069 16.572613
USER    NEWDPF axisangle0	-0.099485 -0.535012 0.838966 -110.437427
USER    NEWDPF quaternion0	-0.081710 -0.439425 0.689073 -0.570445
USER    NEWDPF dihe0	125.69 167.34 -100.05 -129.98 25.34 52.98 -131.08 -55.46 -40.60 -177.63 
USER  
USER                              x       y       z    vdW   Elec        q     RMS 
ATOM      1  C   UNL d   1      45.314  19.042  16.163 -0.16 +0.04    +0.064    48.653
ATOM      2  C   UNL d   1      46.582  22.151  19.790 -0.13 +0.04    +0.064    48.653
ATOM      3  C   UNL d   1      43.167  25.179  18.294 -0.35 +0.02    +0.064    48.653
ATOM      4  C   UNL d   1      41.994  22.232  14.713 -0.36 +0.01    +0.064    48.653
ATOM      5  C   UNL d   1      46.043  19.674  17.271 -0.14 +0.06    +0.066    48.653
ATOM      6  C   UNL d   1      47.165  19.141  17.885 -0.09 -0.02    -0.021    48.653
ATOM      7  C   UNL d   1      47.515  20.004  18.894 -0.10 -0.02    -0.025    48.653
ATOM      8  C   UNL d   1      46.591  21.031  18.858 -0.16 +0.05    +0.066    48.653
ATOM      9  C   UNL d   1      48.681  19.851  19.822 -0.04 +0.02    +0.051    48.653
ATOM     10  C   UNL d   1      45.738  23.183  19.741 -0.08 +0.04    +0.066    48.653
ATOM     11  C   UNL d   1      45.680  24.183  20.715 -0.15 -0.01    -0.021    48.653
ATOM     12  C   UNL d   1      44.691  25.060  20.316 -0.24 +0.00    +0.000    48.653
ATOM     13  C   UNL d   1      44.186  24.540  19.111 -0.23 +0.04    +0.070    48.653
ATOM     14  C   UNL d   1      46.480  24.263  21.999 -0.11 +0.03    +0.052    48.653
ATOM     15  C   UNL d   1      42.641  24.657  17.161 -0.34 +0.02    +0.066    48.653
ATOM     16  C   UNL d   1      41.741  25.343  16.355 -0.36 -0.01    -0.021    48.653
ATOM     17  C   UNL d   1      41.399  24.494  15.324 -0.43 +0.00    +0.000    48.653
ATOM     18  C   UNL d   1      42.096  23.305  15.527 -0.36 +0.02    +0.070    48.653
ATOM     19  C   UNL d   1      41.203  26.734  16.559 -0.40 +0.02    +0.052    48.653
ATOM     20  C   UNL d   1      42.758  20.987  14.860 -0.31 +0.02    +0.066    48.653
ATOM     21  C   UNL d   1      42.520  19.801  14.151 -0.36 -0.01    -0.025    48.653
ATOM     22  C   UNL d   1      43.485  18.910  14.571 -0.21 -0.01    -0.021    48.653
ATOM     23  C   UNL d   1      44.267  19.581  15.519 -0.20 +0.03    +0.066    48.653
ATOM     24  C   UNL d   1      41.441  19.511  13.134 -0.36 +0.01    +0.051    48.653
ATOM     25  N   UNL d   1      45.703  20.832  17.864 -0.15 -0.21    -0.248    48.653
ATOM     26  N   UNL d   1      44.818  23.392  18.765 -0.12 -0.15    -0.248    48.653
ATOM     27  N   UNL d   1      42.893  23.420  16.631 -0.21 -0.09    -0.248    48.653
ATOM     28  N   UNL d   1      43.791  20.833  15.725 -0.17 -0.13    -0.248    48.653
ATOM     29 FE   UNL d   1      44.303  22.112  17.243 -0.07 +0.00    +0.000    48.653
ATOM     30  C   UNL d   1      47.884  17.888  17.519 -0.04 +0.03    +0.052    48.653
ATOM     31  C   UNL d   1      48.158  17.840  16.019 -0.05 +0.07    +0.115    48.653
ATOM     32  C   UNL d   1      48.769  19.133  15.555 +0.03 +0.18    +0.139    48.653
ATOM     33  O   UNL d   1      49.394  19.842  16.331 -0.31 -1.05    -0.650    48.653
ATOM     34  O   UNL d   1      48.632  19.523  14.276 +0.14 -1.20    -0.776    48.653
ATOM     35  H   UNL d   1      48.903  18.919  13.570 +0.02 +0.14    +0.167    48.653
ATOM     36  C   UNL d   1      43.617  17.479  14.120 -0.12 +0.01    +0.052    48.653
ATOM     37  C   UNL d   1      42.632  16.607  14.886 -0.16 +0.02    +0.115    48.653
ATOM     38  C   UNL d   1      41.732  15.858  13.945 -0.13 +0.02    +0.139    48.653
ATOM     39  O   UNL d   1      42.197  15.180  13.041 +0.03 -0.09    -0.650    48.653
ATOM     40  O   UNL d   1      40.397  15.934  14.091 +0.08 +0.01    -0.776    48.653
ATOM     41  H   UNL d   1      40.033  16.311  14.904 -0.47 -0.04    +0.167    48.653
ATOM     42  C   UNL d   1      44.276  26.284  21.069 -0.27 +0.00    +0.004    48.653
ATOM     43  C   UNL d   1      43.948  26.217  22.366 -0.27 +0.01    +0.012    48.653
ATOM     44  C   UNL d   1      40.481  24.806  14.205 -0.60 +0.00    +0.004    48.653
ATOM     45  C   UNL d   1      39.157  24.821  14.390 -0.51 +0.00    +0.012    48.653
TER
ENDMDL
MODEL       24
USER    Run = 24
USER    Cluster Rank = 8
USER    Number of conformations in this cluster = 1
USER  
USER    RMSD from reference structure       = 33.345 A
USER  
USER    Estimated Free Energy of Binding    =   -7.70 kcal/mol  [=(1)+(2)+(3)-(4)]
USER    Estimated Inhibition Constant, Ki   =    2.27 uM (micromolar)  [Temperature = 298.15 K]
USER    
USER    (1) Final Intermolecular Energy     =  -10.68 kcal/mol
USER        vdW + Hbond + desolv Energy     =   -7.89 kcal/mol
USER        Electrostatic Energy            =   -2.79 kcal/mol
USER    (2) Final Total Internal Energy     =   -1.66 kcal/mol
USER    (3) Torsional Free Energy           =   +2.98 kcal/mol
USER    (4) Unbound System's Energy  [=(2)] =   -1.66 kcal/mol
USER    
USER    
USER  
USER    DPF = D:/Protein_go_brrr/autodock/final/2DN3/heme_Fe/dock.dpf
USER    NEWDPF move	heme_Fe_opt.pdbqt
USER    NEWDPF about	-0.174000 -0.001000 -0.047000
USER    NEWDPF tran0	4.907244 36.618461 -2.255947
USER    NEWDPF axisangle0	-0.993020 0.090083 -0.076139 132.000352
USER    NEWDPF quaternion0	-0.907170 0.082295 -0.069556 0.406734
USER    NEWDPF dihe0	-134.00 -38.18 -166.56 -132.22 66.20 104.88 -148.27 -98.95 -23.91 -7.57 
USER  
USER                              x       y       z    vdW   Elec        q     RMS 
ATOM      1  C   UNL d   1       3.016  36.442  -3.032 -0.11 +0.03    +0.064    33.345
ATOM      2  C   UNL d   1       7.256  38.429  -4.615 -0.20 +0.00    +0.064    33.345
ATOM      3  C   UNL d   1       9.584  36.042  -1.158 -0.22 +0.02    +0.064    33.345
ATOM      4  C   UNL d   1       5.479  34.191   0.456 -0.34 +0.01    +0.064    33.345
ATOM      5  C   UNL d   1       3.983  37.288  -3.746 -0.09 +0.02    +0.066    33.345
ATOM      6  C   UNL d   1       3.656  38.199  -4.737 -0.04 -0.01    -0.021    33.345
ATOM      7  C   UNL d   1       4.834  38.747  -5.179 -0.06 -0.00    -0.025    33.345
ATOM      8  C   UNL d   1       5.836  38.150  -4.439 -0.12 +0.01    +0.066    33.345
ATOM      9  C   UNL d   1       4.978  39.798  -6.237 -0.04 +0.01    +0.051    33.345
ATOM     10  C   UNL d   1       8.238  37.910  -3.876 -0.29 +0.00    +0.066    33.345
ATOM     11  C   UNL d   1       9.595  38.107  -4.142 -0.41 +0.00    -0.021    33.345
ATOM     12  C   UNL d   1      10.288  37.415  -3.169 -0.39 +0.00    +0.000    33.345
ATOM     13  C   UNL d   1       9.308  36.818  -2.356 -0.34 +0.01    +0.070    33.345
ATOM     14  C   UNL d   1      10.203  38.861  -5.307 -0.02 -0.01    +0.052    33.345
ATOM     15  C   UNL d   1       8.647  35.423  -0.402 -0.09 +0.02    +0.066    33.345
ATOM     16  C   UNL d   1       8.941  34.774   0.791 -0.22 -0.01    -0.021    33.345
ATOM     17  C   UNL d   1       7.759  34.236   1.256 -0.37 +0.00    +0.000    33.345
ATOM     18  C   UNL d   1       6.770  34.567   0.332 -0.34 +0.01    +0.070    33.345
ATOM     19  C   UNL d   1      10.285  34.641   1.456 -0.37 +0.01    +0.052    33.345
ATOM     20  C   UNL d   1       4.399  34.571  -0.463 -0.22 +0.02    +0.066    33.345
ATOM     21  C   UNL d   1       3.106  34.030  -0.462 -0.16 -0.01    -0.025    33.345
ATOM     22  C   UNL d   1       2.417  34.695  -1.456 -0.11 -0.01    -0.021    33.345
ATOM     23  C   UNL d   1       3.315  35.606  -2.025 -0.13 +0.03    +0.066    33.345
ATOM     24  C   UNL d   1       2.539  32.942   0.420 -0.17 +0.01    +0.051    33.345
ATOM     25  N   UNL d   1       5.314  37.270  -3.561 -0.09 -0.05    -0.248    33.345
ATOM     26  N   UNL d   1       8.059  37.112  -2.792 -0.21 -0.03    -0.248    33.345
ATOM     27  N   UNL d   1       7.306  35.333  -0.664 -0.19 -0.06    -0.248    33.345
ATOM     28  N   UNL d   1       4.535  35.495  -1.446 -0.12 -0.07    -0.248    33.345
ATOM     29 FE   UNL d   1       6.296  36.302  -2.117 -0.06 +0.00    +0.000    33.345
ATOM     30  C   UNL d   1       2.292  38.547  -5.227 -0.01 +0.02    +0.052    33.345
ATOM     31  C   UNL d   1       1.481  39.227  -4.130 -0.02 +0.06    +0.115    33.345
ATOM     32  C   UNL d   1       2.381  40.025  -3.228 -0.08 +0.10    +0.139    33.345
ATOM     33  O   UNL d   1       2.974  41.008  -3.650 +0.04 -0.31    -0.650    33.345
ATOM     34  O   UNL d   1       2.543  39.663  -1.944 -0.29 -1.15    -0.776    33.345
ATOM     35  H   UNL d   1       2.704  38.732  -1.736 +0.02 +0.25    +0.167    33.345
ATOM     36  C   UNL d   1       0.992  34.433  -1.865 -0.06 +0.02    +0.052    33.345
ATOM     37  C   UNL d   1       0.053  35.300  -1.039 -0.08 +0.07    +0.115    33.345
ATOM     38  C   UNL d   1      -0.004  36.700  -1.582 +0.01 +0.15    +0.139    33.345
ATOM     39  O   UNL d   1      -0.975  37.086  -2.216 -0.07 -0.49    -0.650    33.345
ATOM     40  O   UNL d   1       1.024  37.543  -1.373 -0.06 -1.70    -0.776    33.345
ATOM     41  H   UNL d   1       1.287  38.147  -2.082 +0.01 +0.26    +0.167    33.345
ATOM     42  C   UNL d   1      11.779  37.339  -3.070 -0.38 +0.00    +0.004    33.345
ATOM     43  C   UNL d   1      12.416  36.164  -3.158 -0.56 +0.00    +0.012    33.345
ATOM     44  C   UNL d   1       7.584  33.474   2.513 -0.30 +0.00    +0.004    33.345
ATOM     45  C   UNL d   1       7.945  32.189   2.591 -0.53 +0.00    +0.012    33.345
TER
ENDMDL
MODEL       87
USER    Run = 87
USER    Cluster Rank = 9
USER    Number of conformations in this cluster = 1
USER  
USER    RMSD from reference structure       = 52.471 A
USER  
USER    Estimated Free Energy of Binding    =   -7.65 kcal/mol  [=(1)+(2)+(3)-(4)]
USER    Estimated Inhibition Constant, Ki   =    2.46 uM (micromolar)  [Temperature = 298.15 K]
USER    
USER    (1) Final Intermolecular Energy     =  -10.64 kcal/mol
USER        vdW + Hbond + desolv Energy     =   -9.80 kcal/mol
USER        Electrostatic Energy            =   -0.83 kcal/mol
USER    (2) Final Total Internal Energy     =   -2.20 kcal/mol
USER    (3) Torsional Free Energy           =   +2.98 kcal/mol
USER    (4) Unbound System's Energy  [=(2)] =   -2.20 kcal/mol
USER    
USER    
USER  
USER    DPF = D:/Protein_go_brrr/autodock/final/2DN3/heme_Fe/dock.dpf
USER    NEWDPF move	heme_Fe_opt.pdbqt
USER    NEWDPF about	-0.174000 -0.001000 -0.047000
USER    NEWDPF tran0	43.727056 28.979776 18.984866
USER    NEWDPF axisangle0	-0.255146 0.966423 -0.030438 -141.051411
USER    NEWDPF quaternion0	-0.240550 0.911135 -0.028696 -0.333384
USER    NEWDPF dihe0	178.98 -73.04 -161.60 -165.36 60.59 58.86 -39.30 92.08 -157.67 -176.80 
USER  
USER                              x       y       z    vdW   Elec        q     RMS 
ATOM      1  C   UNL d   1      45.394  29.891  19.761 -0.24 +0.04    +0.064    52.471
ATOM      2  C   UNL d   1      44.250  25.265  18.450 -0.22 +0.03    +0.064    52.471
ATOM      3  C   UNL d   1      40.428  26.955  16.081 -0.39 +0.02    +0.064    52.471
ATOM      4  C   UNL d   1      41.458  31.429  17.426 -0.47 +0.01    +0.064    52.471
ATOM      5  C   UNL d   1      45.379  28.424  19.681 -0.18 +0.05    +0.066    52.471
ATOM      6  C   UNL d   1      46.267  27.588  20.338 -0.15 -0.02    -0.021    52.471
ATOM      7  C   UNL d   1      45.951  26.304  19.970 -0.12 -0.02    -0.025    52.471
ATOM      8  C   UNL d   1      44.881  26.405  19.103 -0.16 +0.04    +0.066    52.471
ATOM      9  C   UNL d   1      46.631  25.056  20.445 -0.09 +0.03    +0.051    52.471
ATOM     10  C   UNL d   1      43.180  25.330  17.655 -0.29 +0.03    +0.066    52.471
ATOM     11  C   UNL d   1      42.668  24.236  16.953 -0.37 -0.01    -0.021    52.471
ATOM     12  C   UNL d   1      41.576  24.701  16.249 -0.44 +0.00    +0.000    52.471
ATOM     13  C   UNL d   1      41.482  26.070  16.554 -0.35 +0.02    +0.070    52.471
ATOM     14  C   UNL d   1      43.234  22.831  16.902 -0.34 +0.02    +0.052    52.471
ATOM     15  C   UNL d   1      40.363  28.284  16.330 -0.26 +0.03    +0.066    52.471
ATOM     16  C   UNL d   1      39.288  29.075  15.944 -0.18 -0.01    -0.021    52.471
ATOM     17  C   UNL d   1      39.585  30.367  16.328 -0.34 +0.00    +0.000    52.471
ATOM     18  C   UNL d   1      40.837  30.334  16.936 -0.25 +0.02    +0.070    52.471
ATOM     19  C   UNL d   1      38.041  28.642  15.221 -0.40 +0.01    +0.052    52.471
ATOM     20  C   UNL d   1      42.748  31.423  18.127 -0.38 +0.02    +0.066    52.471
ATOM     21  C   UNL d   1      43.494  32.562  18.460 -0.38 -0.01    -0.025    52.471
ATOM     22  C   UNL d   1      44.605  32.101  19.136 -0.28 -0.01    -0.021    52.471
ATOM     23  C   UNL d   1      44.497  30.706  19.182 -0.26 +0.03    +0.066    52.471
ATOM     24  C   UNL d   1      43.189  34.011  18.159 -0.33 +0.01    +0.051    52.471
ATOM     25  N   UNL d   1      44.529  27.696  18.937 -0.07 -0.13    -0.248    52.471
ATOM     26  N   UNL d   1      42.465  26.456  17.404 -0.21 -0.08    -0.248    52.471
ATOM     27  N   UNL d   1      41.297  29.047  16.977 -0.04 -0.12    -0.248    52.471
ATOM     28  N   UNL d   1      43.385  30.295  18.526 -0.16 -0.09    -0.248    52.471
ATOM     29 FE   UNL d   1      42.924  28.377  17.964 -0.08 +0.00    +0.000    52.471
ATOM     30  C   UNL d   1      47.349  27.985  21.283 -0.05 +0.06    +0.052    52.471
ATOM     31  C   UNL d   1      48.456  28.737  20.553 -0.06 +0.08    +0.115    52.471
ATOM     32  C   UNL d   1      48.965  29.874  21.395 -0.06 +0.09    +0.139    52.471
ATOM     33  O   UNL d   1      49.463  29.662  22.492 -0.01 -0.42    -0.650    52.471
ATOM     34  O   UNL d   1      48.875  31.137  20.948 +0.02 -0.36    -0.776    52.471
ATOM     35  H   UNL d   1      48.493  31.300  20.074 +0.02 +0.07    +0.167    52.471
ATOM     36  C   UNL d   1      45.730  32.953  19.663 -0.23 +0.02    +0.052    52.471
ATOM     37  C   UNL d   1      46.680  33.308  18.528 -0.14 +0.03    +0.115    52.471
ATOM     38  C   UNL d   1      47.748  32.264  18.373 -0.11 +0.04    +0.139    52.471
ATOM     39  O   UNL d   1      47.456  31.099  18.144 +0.02 -0.21    -0.650    52.471
ATOM     40  O   UNL d   1      49.044  32.606  18.489 +0.05 -0.18    -0.776    52.471
ATOM     41  H   UNL d   1      49.529  32.344  19.284 +0.02 +0.04    +0.167    52.471
ATOM     42  C   UNL d   1      40.722  23.868  15.346 -0.54 +0.00    +0.004    52.471
ATOM     43  C   UNL d   1      40.691  24.093  14.026 -0.53 +0.00    +0.012    52.471
ATOM     44  C   UNL d   1      38.717  31.552  16.144 -0.31 +0.00    +0.004    52.471
ATOM     45  C   UNL d   1      39.056  32.523  15.290 -0.47 +0.00    +0.012    52.471
TER
ENDMDL
MODEL       36
USER    Run = 36
USER    Cluster Rank = 10
USER    Number of conformations in this cluster = 9
USER  
USER    RMSD from reference structure       = 43.907 A
USER  
USER    Estimated Free Energy of Binding    =   -7.32 kcal/mol  [=(1)+(2)+(3)-(4)]
USER    Estimated Inhibition Constant, Ki   =    4.31 uM (micromolar)  [Temperature = 298.15 K]
USER    
USER    (1) Final Intermolecular Energy     =  -10.30 kcal/mol
USER        vdW + Hbond + desolv Energy     =   -8.45 kcal/mol
USER        Electrostatic Energy            =   -1.85 kcal/mol
USER    (2) Final Total Internal Energy     =   -0.70 kcal/mol
USER    (3) Torsional Free Energy           =   +2.98 kcal/mol
USER    (4) Unbound System's Energy  [=(2)] =   -0.70 kcal/mol
USER    
USER    
USER  
USER    DPF = D:/Protein_go_brrr/autodock/final/2DN3/heme_Fe/dock.dpf
USER    NEWDPF move	heme_Fe_opt.pdbqt
USER    NEWDPF about	-0.174000 -0.001000 -0.047000
USER    NEWDPF tran0	28.455204 38.891672 -0.671037
USER    NEWDPF axisangle0	0.307162 -0.638543 -0.705630 -130.592001
USER    NEWDPF quaternion0	0.279051 -0.580103 -0.641050 -0.417930
USER    NEWDPF dihe0	157.21 -26.79 -102.95 -150.78 114.65 112.62 143.21 26.92 -160.73 -1.86 
USER  
USER                              x       y       z    vdW   Elec        q     RMS 
ATOM      1  C   UNL d   1      28.975  40.865  -0.889 -0.13 +0.01    +0.064    43.907
ATOM      2  C   UNL d   1      26.626  37.552  -3.707 -0.21 +0.00    +0.064    43.907
ATOM      3  C   UNL d   1      26.121  34.734   0.149 -0.31 +0.01    +0.064    43.907
ATOM      4  C   UNL d   1      28.484  37.878   2.871 -0.25 -0.01    +0.064    43.907
ATOM      5  C   UNL d   1      28.434  40.156  -2.058 -0.11 +0.01    +0.066    43.907
ATOM      6  C   UNL d   1      28.504  40.615  -3.363 -0.10 -0.00    -0.021    43.907
ATOM      7  C   UNL d   1      27.848  39.697  -4.144 -0.13 -0.00    -0.025    43.907
ATOM      8  C   UNL d   1      27.403  38.711  -3.285 -0.17 +0.01    +0.066    43.907
ATOM      9  C   UNL d   1      27.681  39.761  -5.631 -0.07 +0.01    +0.051    43.907
ATOM     10  C   UNL d   1      26.233  36.558  -2.908 -0.20 +0.00    +0.066    43.907
ATOM     11  C   UNL d   1      25.393  35.520  -3.318 -0.23 +0.00    -0.021    43.907
ATOM     12  C   UNL d   1      25.218  34.703  -2.219 -0.29 -0.00    +0.000    43.907
ATOM     13  C   UNL d   1      25.962  35.295  -1.184 -0.16 +0.00    +0.070    43.907
ATOM     14  C   UNL d   1      24.733  35.353  -4.671 -0.20 -0.00    +0.052    43.907
ATOM     15  C   UNL d   1      26.792  35.325   1.165 -0.25 +0.01    +0.066    43.907
ATOM     16  C   UNL d   1      27.006  34.712   2.392 -0.30 -0.01    -0.021    43.907
ATOM     17  C   UNL d   1      27.684  35.618   3.180 -0.26 +0.00    +0.000    43.907
ATOM     18  C   UNL d   1      27.865  36.768   2.415 -0.21 +0.00    +0.070    43.907
ATOM     19  C   UNL d   1      26.568  33.336   2.820 -0.36 +0.03    +0.052    43.907
ATOM     20  C   UNL d   1      28.747  39.083   2.075 -0.18 -0.00    +0.066    43.907
ATOM     21  C   UNL d   1      29.203  40.307   2.585 -0.22 +0.00    -0.025    43.907
ATOM     22  C   UNL d   1      29.348  41.140   1.494 -0.15 -0.00    -0.021    43.907
ATOM     23  C   UNL d   1      28.971  40.397   0.369 -0.12 +0.01    +0.066    43.907
ATOM     24  C   UNL d   1      29.486  40.685   4.020 -0.39 -0.01    +0.051    43.907
ATOM     25  N   UNL d   1      27.769  38.989  -2.018 +0.01 -0.03    -0.248    43.907
ATOM     26  N   UNL d   1      26.573  36.430  -1.600 -0.07 -0.02    -0.248    43.907
ATOM     27  N   UNL d   1      27.356  36.573   1.161 -0.11 -0.03    -0.248    43.907
ATOM     28  N   UNL d   1      28.563  39.158   0.735 -0.09 -0.03    -0.248    43.907
ATOM     29 FE   UNL d   1      27.568  37.794  -0.431 -0.06 +0.00    +0.000    43.907
ATOM     30  C   UNL d   1      29.178  41.853  -3.849 -0.04 +0.01    +0.052    43.907
ATOM     31  C   UNL d   1      28.403  43.094  -3.419 -0.06 +0.02    +0.115    43.907
ATOM     32  C   UNL d   1      26.923  42.834  -3.468 -0.16 +0.03    +0.139    43.907
ATOM     33  O   UNL d   1      26.256  42.834  -2.443 -0.04 -0.15    -0.650    43.907
ATOM     34  O   UNL d   1      26.318  42.598  -4.645 +0.03 -0.13    -0.776    43.907
ATOM     35  H   UNL d   1      26.736  42.913  -5.459 +0.03 +0.02    +0.167    43.907
ATOM     36  C   UNL d   1      29.778  42.582   1.540 -0.18 +0.02    +0.052    43.907
ATOM     37  C   UNL d   1      31.277  42.679   1.297 -0.14 +0.08    +0.115    43.907
ATOM     38  C   UNL d   1      31.846  43.917   1.930 -0.04 +0.18    +0.139    43.907
ATOM     39  O   UNL d   1      32.614  43.838   2.878 -0.38 -0.97    -0.650    43.907
ATOM     40  O   UNL d   1      31.509  45.130   1.456 -0.30 -1.07    -0.776    43.907
ATOM     41  H   UNL d   1      31.531  45.891   2.053 -0.32 +0.16    +0.167    43.907
ATOM     42  C   UNL d   1      24.378  33.465  -2.198 -0.35 -0.00    +0.004    43.907
ATOM     43  C   UNL d   1      23.088  33.502  -2.558 -0.49 -0.00    +0.012    43.907
ATOM     44  C   UNL d   1      28.147  35.392   4.568 -0.31 +0.00    +0.004    43.907
ATOM     45  C   UNL d   1      27.422  35.815   5.609 -0.37 -0.01    +0.012    43.907
TER
ENDMDL
MODEL       57
USER    Run = 57
USER    Cluster Rank = 11
USER    Number of conformations in this cluster = 1
USER  
USER    RMSD from reference structure       = 47.780 A
USER  
USER    Estimated Free Energy of Binding    =   -6.66 kcal/mol  [=(1)+(2)+(3)-(4)]
USER    Estimated Inhibition Constant, Ki   =   13.16 uM (micromolar)  [Temperature = 298.15 K]
USER    
USER    (1) Final Intermolecular Energy     =   -9.64 kcal/mol
USER        vdW + Hbond + desolv Energy     =   -6.94 kcal/mol
USER        Electrostatic Energy            =   -2.70 kcal/mol
USER    (2) Final Total Internal Energy     =   -1.40 kcal/mol
USER    (3) Torsional Free Energy           =   +2.98 kcal/mol
USER    (4) Unbound System's Energy  [=(2)] =   -1.40 kcal/mol
USER    
USER    
USER  
USER    DPF = D:/Protein_go_brrr/autodock/final/2DN3/heme_Fe/dock.dpf
USER    NEWDPF move	heme_Fe_opt.pdbqt
USER    NEWDPF about	-0.174000 -0.001000 -0.047000
USER    NEWDPF tran0	34.868544 37.649161 0.211086
USER    NEWDPF axisangle0	0.529913 -0.059895 0.845934 95.795033
USER    NEWDPF quaternion0	0.393167 -0.044439 0.627638 0.670459
USER    NEWDPF dihe0	-134.65 -115.64 169.68 -132.64 163.93 -132.25 -89.29 45.65 142.22 -178.83 
USER  
USER                              x       y       z    vdW   Elec        q     RMS 
ATOM      1  C   UNL d   1      34.703  39.642  -0.249 -0.07 +0.02    +0.064    47.780
ATOM      2  C   UNL d   1      32.674  36.672   3.141 -0.01 +0.01    +0.064    47.780
ATOM      3  C   UNL d   1      36.038  33.384   2.174 -0.31 +0.00    +0.064    47.780
ATOM      4  C   UNL d   1      37.955  36.200  -1.185 -0.07 +0.01    +0.064    47.780
ATOM      5  C   UNL d   1      33.770  39.077   0.736 -0.09 +0.02    +0.066    47.780
ATOM      6  C   UNL d   1      32.611  39.698   1.173 -0.09 -0.01    -0.021    47.780
ATOM      7  C   UNL d   1      32.050  38.874   2.118 -0.12 -0.00    -0.025    47.780
ATOM      8  C   UNL d   1      32.889  37.781   2.220 -0.14 +0.01    +0.066    47.780
ATOM      9  C   UNL d   1      30.772  39.122   2.859 -0.03 +0.00    +0.051    47.780
ATOM     10  C   UNL d   1      33.435  35.580   3.219 -0.26 +0.01    +0.066    47.780
ATOM     11  C   UNL d   1      33.271  34.588   4.189 -0.35 -0.01    -0.021    47.780
ATOM     12  C   UNL d   1      34.240  33.636   3.943 -0.38 +0.00    +0.000    47.780
ATOM     13  C   UNL d   1      34.958  34.105   2.829 -0.28 +0.01    +0.070    47.780
ATOM     14  C   UNL d   1      32.283  34.581   5.338 -0.40 +0.02    +0.052    47.780
ATOM     15  C   UNL d   1      36.767  33.854   1.134 -0.23 +0.00    +0.066    47.780
ATOM     16  C   UNL d   1      37.723  33.095   0.473 -0.21 -0.00    -0.021    47.780
ATOM     17  C   UNL d   1      38.280  33.906  -0.494 -0.15 +0.00    +0.000    47.780
ATOM     18  C   UNL d   1      37.651  35.145  -0.397 -0.11 +0.01    +0.070    47.780
ATOM     19  C   UNL d   1      38.119  31.670   0.754 -0.29 +0.00    +0.052    47.780
ATOM     20  C   UNL d   1      37.273  37.499  -1.153 -0.02 +0.01    +0.066    47.780
ATOM     21  C   UNL d   1      37.703  38.657  -1.817 -0.05 -0.00    -0.025    47.780
ATOM     22  C   UNL d   1      36.755  39.622  -1.547 -0.04 -0.01    -0.021    47.780
ATOM     23  C   UNL d   1      35.792  39.020  -0.728 -0.07 +0.02    +0.066    47.780
ATOM     24  C   UNL d   1      38.942  38.855  -2.659 -0.03 +0.01    +0.051    47.780
ATOM     25  N   UNL d   1      33.929  37.903   1.371 -0.07 -0.05    -0.248    47.780
ATOM     26  N   UNL d   1      34.474  35.294   2.393 -0.13 -0.00    -0.248    47.780
ATOM     27  N   UNL d   1      36.690  35.101   0.574 -0.12 -0.02    -0.248    47.780
ATOM     28  N   UNL d   1      36.136  37.738  -0.455 -0.07 -0.05    -0.248    47.780
ATOM     29 FE   UNL d   1      35.307  36.516   0.968 -0.04 +0.00    +0.000    47.780
ATOM     30  C   UNL d   1      32.051  40.997   0.705 -0.07 +0.02    +0.052    47.780
ATOM     31  C   UNL d   1      31.751  41.914   1.885 -0.16 +0.06    +0.115    47.780
ATOM     32  C   UNL d   1      32.943  42.774   2.200 -0.03 +0.17    +0.139    47.780
ATOM     33  O   UNL d   1      32.826  43.768   2.903 -0.42 -1.03    -0.650    47.780
ATOM     34  O   UNL d   1      34.153  42.457   1.709 -0.06 -0.99    -0.776    47.780
ATOM     35  H   UNL d   1      34.230  42.204   0.779 +0.04 +0.19    +0.167    47.780
ATOM     36  C   UNL d   1      36.801  41.054  -2.010 -0.02 +0.02    +0.052    47.780
ATOM     37  C   UNL d   1      37.698  41.864  -1.086 -0.04 +0.04    +0.115    47.780
ATOM     38  C   UNL d   1      37.058  43.176  -0.729 -0.09 +0.10    +0.139    47.780
ATOM     39  O   UNL d   1      37.690  44.220  -0.801 +0.06 -0.45    -0.650    47.780
ATOM     40  O   UNL d   1      35.778  43.209  -0.320 -0.46 -1.08    -0.776    47.780
ATOM     41  H   UNL d   1      35.537  42.768   0.507 +0.03 +0.24    +0.167    47.780
ATOM     42  C   UNL d   1      34.444  32.393   4.749 -0.60 +0.00    +0.004    47.780
ATOM     43  C   UNL d   1      35.675  31.926   4.997 -0.59 +0.00    +0.012    47.780
ATOM     44  C   UNL d   1      39.330  33.515  -1.461 -0.10 +0.00    +0.004    47.780
ATOM     45  C   UNL d   1      40.614  33.455  -1.092 -0.19 +0.00    +0.012    47.780
TER
ENDMDL
MODEL       74
USER    Run = 74
USER    Cluster Rank = 12
USER    Number of conformations in this cluster = 1
USER  
USER    RMSD from reference structure       = 45.888 A
USER  
USER    Estimated Free Energy of Binding    =   -6.58 kcal/mol  [=(1)+(2)+(3)-(4)]
USER    Estimated Inhibition Constant, Ki   =   15.13 uM (micromolar)  [Temperature = 298.15 K]
USER    
USER    (1) Final Intermolecular Energy     =   -9.56 kcal/mol
USER        vdW + Hbond + desolv Energy     =   -8.85 kcal/mol
USER        Electrostatic Energy            =   -0.71 kcal/mol
USER    (2) Final Total Internal Energy     =   -0.39 kcal/mol
USER    (3) Torsional Free Energy           =   +2.98 kcal/mol
USER    (4) Unbound System's Energy  [=(2)] =   -0.39 kcal/mol
USER    
USER    
USER  
USER    DPF = D:/Protein_go_brrr/autodock/final/2DN3/heme_Fe/dock.dpf
USER    NEWDPF move	heme_Fe_opt.pdbqt
USER    NEWDPF about	-0.174000 -0.001000 -0.047000
USER    NEWDPF tran0	12.364651 39.445810 25.289480
USER    NEWDPF axisangle0	0.511890 -0.061425 -0.856852 104.995087
USER    NEWDPF quaternion0	0.406097 -0.048730 -0.679764 0.608795
USER    NEWDPF dihe0	160.71 -87.90 12.37 14.96 -95.15 -172.30 -63.85 -15.41 20.74 -143.57 
USER  
USER                              x       y       z    vdW   Elec        q     RMS 
ATOM      1  C   UNL d   1      12.013  38.198  26.880 -0.28 -0.03    +0.064    45.888
ATOM      2  C   UNL d   1      15.252  41.812  25.942 -0.17 -0.01    +0.064    45.888
ATOM      3  C   UNL d   1      12.531  43.193  22.233 -0.24 -0.01    +0.064    45.888
ATOM      4  C   UNL d   1       9.439  39.638  23.059 -0.30 -0.01    +0.064    45.888
ATOM      5  C   UNL d   1      13.220  39.035  26.909 -0.23 -0.03    +0.066    45.888
ATOM      6  C   UNL d   1      14.285  38.857  27.776 -0.22 +0.01    -0.021    45.888
ATOM      7  C   UNL d   1      15.183  39.863  27.518 -0.19 +0.01    -0.025    45.888
ATOM      8  C   UNL d   1      14.630  40.618  26.501 -0.19 -0.02    +0.066    45.888
ATOM      9  C   UNL d   1      16.501  40.068  28.199 -0.18 -0.00    +0.051    45.888
ATOM     10  C   UNL d   1      14.768  42.524  24.923 -0.19 -0.02    +0.066    45.888
ATOM     11  C   UNL d   1      15.326  43.727  24.485 -0.19 +0.00    -0.021    45.888
ATOM     12  C   UNL d   1      14.549  44.155  23.426 -0.20 -0.00    +0.000    45.888
ATOM     13  C   UNL d   1      13.543  43.185  23.277 -0.21 -0.02    +0.070    45.888
ATOM     14  C   UNL d   1      16.501  44.469  25.089 +0.01 -0.00    +0.052    45.888
ATOM     15  C   UNL d   1      11.529  42.290  22.116 -0.22 -0.02    +0.066    45.888
ATOM     16  C   UNL d   1      10.642  42.274  21.048 -0.20 +0.01    -0.021    45.888
ATOM     17  C   UNL d   1       9.747  41.251  21.286 -0.27 -0.00    +0.000    45.888
ATOM     18  C   UNL d   1      10.107  40.669  22.499 -0.23 -0.02    +0.070    45.888
ATOM     19  C   UNL d   1      10.619  43.199  19.860 -0.21 -0.03    +0.052    45.888
ATOM     20  C   UNL d   1       9.825  38.960  24.302 -0.26 -0.02    +0.066    45.888
ATOM     21  C   UNL d   1       9.037  38.030  24.996 -0.25 +0.01    -0.025    45.888
ATOM     22  C   UNL d   1       9.796  37.623  26.074 -0.26 +0.01    -0.021    45.888
ATOM     23  C   UNL d   1      11.006  38.322  26.000 -0.25 -0.03    +0.066    45.888
ATOM     24  C   UNL d   1       7.643  37.546  24.671 -0.14 -0.01    +0.051    45.888
ATOM     25  N   UNL d   1      13.440  40.106  26.126 -0.09 +0.09    -0.248    45.888
ATOM     26  N   UNL d   1      13.670  42.195  24.195 -0.11 +0.08    -0.248    45.888
ATOM     27  N   UNL d   1      11.229  41.278  22.989 -0.14 +0.07    -0.248    45.888
ATOM     28  N   UNL d   1      11.001  39.169  24.942 -0.18 +0.09    -0.248    45.888
ATOM     29 FE   UNL d   1      12.334  40.682  24.568 -0.05 -0.00    +0.000    45.888
ATOM     30  C   UNL d   1      14.455  37.774  28.786 -0.25 -0.02    +0.052    45.888
ATOM     31  C   UNL d   1      15.563  36.814  28.367 -0.17 -0.03    +0.115    45.888
ATOM     32  C   UNL d   1      16.696  36.855  29.356 -0.30 +0.01    +0.139    45.888
ATOM     33  O   UNL d   1      17.667  37.572  29.161 -0.25 -0.15    -0.650    45.888
ATOM     34  O   UNL d   1      16.650  36.100  30.466 -0.03 -0.06    -0.776    45.888
ATOM     35  H   UNL d   1      15.796  35.760  30.768 +0.05 +0.00    +0.167    45.888
ATOM     36  C   UNL d   1       9.359  36.654  27.141 -0.26 -0.01    +0.052    45.888
ATOM     37  C   UNL d   1       7.959  37.012  27.618 -0.15 -0.00    +0.115    45.888
ATOM     38  C   UNL d   1       7.339  35.872  28.374 -0.13 +0.03    +0.139    45.888
ATOM     39  O   UNL d   1       6.167  35.913  28.718 -0.00 -0.10    -0.650    45.888
ATOM     40  O   UNL d   1       8.077  34.791  28.682 -0.33 -0.56    -0.776    45.888
ATOM     41  H   UNL d   1       8.539  34.763  29.532 +0.02 +0.09    +0.167    45.888
ATOM     42  C   UNL d   1      14.776  45.415  22.652 -0.20 -0.00    +0.004    45.888
ATOM     43  C   UNL d   1      15.922  45.620  21.990 -0.32 -0.00    +0.012    45.888
ATOM     44  C   UNL d   1       8.633  40.845  20.400 -0.39 -0.00    +0.004    45.888
ATOM     45  C   UNL d   1       8.873  40.270  19.217 -0.52 -0.00    +0.012    45.888
TER
ENDMDL
MODEL       92
USER    Run = 92
USER    Cluster Rank = 13
USER    Number of conformations in this cluster = 2
USER  
USER    RMSD from reference structure       = 47.417 A
USER  
USER    Estimated Free Energy of Binding    =   -6.55 kcal/mol  [=(1)+(2)+(3)-(4)]
USER    Estimated Inhibition Constant, Ki   =   15.73 uM (micromolar)  [Temperature = 298.15 K]
USER    
USER    (1) Final Intermolecular Energy     =   -9.54 kcal/mol
USER        vdW + Hbond + desolv Energy     =   -6.83 kcal/mol
USER        Electrostatic Energy            =   -2.71 kcal/mol
USER    (2) Final Total Internal Energy     =   -2.55 kcal/mol
USER    (3) Torsional Free Energy           =   +2.98 kcal/mol
USER    (4) Unbound System's Energy  [=(2)] =   -2.55 kcal/mol
USER    
USER    
USER  
USER    DPF = D:/Protein_go_brrr/autodock/final/2DN3/heme_Fe/dock.dpf
USER    NEWDPF move	heme_Fe_opt.pdbqt
USER    NEWDPF about	-0.174000 -0.001000 -0.047000
USER    NEWDPF tran0	27.428629 43.135539 -0.684780
USER    NEWDPF axisangle0	-0.316251 0.948671 0.002998 -116.478615
USER    NEWDPF quaternion0	-0.268894 0.806611 0.002549 -0.526373
USER    NEWDPF dihe0	-61.62 4.40 66.36 44.13 120.15 143.92 -95.63 92.09 153.30 177.79 
USER  
USER                              x       y       z    vdW   Elec        q     RMS 
ATOM      1  C   UNL d   1      28.502  44.092   0.779 -0.17 +0.03    +0.064    47.417
ATOM      2  C   UNL d   1      28.689  39.618  -1.313 -0.12 +0.01    +0.064    47.417
ATOM      3  C   UNL d   1      25.867  41.229  -4.849 -0.22 +0.01    +0.064    47.417
ATOM      4  C   UNL d   1      25.587  45.537  -2.786 -0.19 +0.01    +0.064    47.417
ATOM      5  C   UNL d   1      28.748  42.660   0.562 -0.14 +0.02    +0.066    47.417
ATOM      6  C   UNL d   1      29.432  41.833   1.438 -0.15 -0.01    -0.021    47.417
ATOM      7  C   UNL d   1      29.487  40.592   0.855 -0.11 -0.00    -0.025    47.417
ATOM      8  C   UNL d   1      28.833  40.708  -0.356 -0.12 +0.01    +0.066    47.417
ATOM      9  C   UNL d   1      30.116  39.366   1.444 -0.11 +0.01    +0.051    47.417
ATOM     10  C   UNL d   1      28.014  39.688  -2.461 -0.13 +0.01    +0.066    47.417
ATOM     11  C   UNL d   1      27.990  38.662  -3.410 -0.14 -0.00    -0.021    47.417
ATOM     12  C   UNL d   1      27.196  39.109  -4.447 -0.17 +0.00    +0.000    47.417
ATOM     13  C   UNL d   1      26.780  40.400  -4.078 -0.15 +0.01    +0.070    47.417
ATOM     14  C   UNL d   1      28.742  37.348  -3.362 -0.07 +0.01    +0.052    47.417
ATOM     15  C   UNL d   1      25.504  42.493  -4.524 -0.19 +0.01    +0.066    47.417
ATOM     16  C   UNL d   1      24.552  43.215  -5.232 -0.19 -0.00    -0.021    47.417
ATOM     17  C   UNL d   1      24.473  44.459  -4.641 -0.23 +0.00    +0.000    47.417
ATOM     18  C   UNL d   1      25.382  44.468  -3.586 -0.22 +0.01    +0.070    47.417
ATOM     19  C   UNL d   1      23.766  42.765  -6.434 -0.16 +0.01    +0.052    47.417
ATOM     20  C   UNL d   1      26.490  45.562  -1.629 -0.11 +0.02    +0.066    47.417
ATOM     21  C   UNL d   1      26.862  46.711  -0.917 -0.10 -0.01    -0.025    47.417
ATOM     22  C   UNL d   1      27.682  46.275   0.102 -0.12 -0.01    -0.021    47.417
ATOM     23  C   UNL d   1      27.784  44.885  -0.031 -0.15 +0.03    +0.066    47.417
ATOM     24  C   UNL d   1      26.474  48.149  -1.177 -0.06 +0.01    +0.051    47.417
ATOM     25  N   UNL d   1      28.376  41.965  -0.527 -0.09 -0.06    -0.248    47.417
ATOM     26  N   UNL d   1      27.285  40.757  -2.872 -0.11 -0.04    -0.248    47.417
ATOM     27  N   UNL d   1      25.985  43.245  -3.486 -0.17 -0.05    -0.248    47.417
ATOM     28  N   UNL d   1      27.090  44.461  -1.116 -0.11 -0.08    -0.248    47.417
ATOM     29 FE   UNL d   1      27.187  42.611  -1.994 -0.04 +0.00    +0.000    47.417
ATOM     30  C   UNL d   1      29.988  42.197   2.773 -0.26 +0.02    +0.052    47.417
ATOM     31  C   UNL d   1      31.505  42.041   2.787 -0.26 +0.05    +0.115    47.417
ATOM     32  C   UNL d   1      32.166  43.275   2.240 -0.22 +0.16    +0.139    47.417
ATOM     33  O   UNL d   1      32.942  43.924   2.927 -0.43 -1.16    -0.650    47.417
ATOM     34  O   UNL d   1      31.908  43.679   0.984 +0.02 -1.03    -0.776    47.417
ATOM     35  H   UNL d   1      31.501  44.545   0.844 +0.04 +0.22    +0.167    47.417
ATOM     36  C   UNL d   1      28.369  47.152   1.116 +0.01 +0.03    +0.052    47.417
ATOM     37  C   UNL d   1      29.684  47.663   0.545 -0.13 +0.04    +0.115    47.417
ATOM     38  C   UNL d   1      30.806  46.708   0.839 -0.18 +0.09    +0.139    47.417
ATOM     39  O   UNL d   1      31.700  46.525   0.026 -0.46 -0.74    -0.650    47.417
ATOM     40  O   UNL d   1      30.831  46.041   2.006 -0.03 -0.54    -0.776    47.417
ATOM     41  H   UNL d   1      31.590  45.475   2.208 -0.13 +0.19    +0.167    47.417
ATOM     42  C   UNL d   1      26.898  38.335  -5.692 -0.11 +0.00    +0.004    47.417
ATOM     43  C   UNL d   1      25.655  37.915  -5.961 -0.15 +0.00    +0.012    47.417
ATOM     44  C   UNL d   1      23.570  45.560  -5.047 -0.20 +0.00    +0.004    47.417
ATOM     45  C   UNL d   1      22.416  45.771  -4.406 -0.30 +0.00    +0.012    47.417
TER
ENDMDL
MODEL       70
USER    Run = 70
USER    Cluster Rank = 14
USER    Number of conformations in this cluster = 3
USER  
USER    RMSD from reference structure       = 48.994 A
USER  
USER    Estimated Free Energy of Binding    =   -6.20 kcal/mol  [=(1)+(2)+(3)-(4)]
USER    Estimated Inhibition Constant, Ki   =   28.39 uM (micromolar)  [Temperature = 298.15 K]
USER    
USER    (1) Final Intermolecular Energy     =   -9.19 kcal/mol
USER        vdW + Hbond + desolv Energy     =   -7.41 kcal/mol
USER        Electrostatic Energy            =   -1.77 kcal/mol
USER    (2) Final Total Internal Energy     =   -2.19 kcal/mol
USER    (3) Torsional Free Energy           =   +2.98 kcal/mol
USER    (4) Unbound System's Energy  [=(2)] =   -2.19 kcal/mol
USER    
USER    
USER  
USER    DPF = D:/Protein_go_brrr/autodock/final/2DN3/heme_Fe/dock.dpf
USER    NEWDPF move	heme_Fe_opt.pdbqt
USER    NEWDPF about	-0.174000 -0.001000 -0.047000
USER    NEWDPF tran0	25.845234 46.151833 -1.609657
USER    NEWDPF axisangle0	0.152789 0.366863 -0.917642 160.661210
USER    NEWDPF quaternion0	0.150618 0.361651 -0.904606 0.167963
USER    NEWDPF dihe0	-79.85 -9.24 70.29 -123.27 173.05 91.22 44.31 -82.67 14.64 -5.62 
USER  
USER                              x       y       z    vdW   Elec        q     RMS 
ATOM      1  C   UNL d   1      27.426  45.053  -0.900 -0.15 +0.02    +0.064    48.994
ATOM      2  C   UNL d   1      24.871  48.945   0.758 -0.08 +0.01    +0.064    48.994
ATOM      3  C   UNL d   1      21.468  48.011  -2.500 -0.24 -0.00    +0.064    48.994
ATOM      4  C   UNL d   1      23.974  44.303  -4.190 -0.26 +0.01    +0.064    48.994
ATOM      5  C   UNL d   1      27.062  46.285  -0.187 -0.11 +0.03    +0.066    48.994
ATOM      6  C   UNL d   1      27.859  46.921   0.751 -0.12 -0.01    -0.021    48.994
ATOM      7  C   UNL d   1      27.147  48.000   1.213 -0.11 -0.01    -0.025    48.994
ATOM      8  C   UNL d   1      25.942  47.981   0.539 -0.10 +0.02    +0.066    48.994
ATOM      9  C   UNL d   1      27.615  48.996   2.230 -0.14 +0.01    +0.051    48.994
ATOM     10  C   UNL d   1      23.722  48.984   0.080 -0.10 +0.01    +0.066    48.994
ATOM     11  C   UNL d   1      22.669  49.848   0.390 -0.14 -0.00    -0.021    48.994
ATOM     12  C   UNL d   1      21.668  49.587  -0.525 -0.21 -0.00    +0.000    48.994
ATOM     13  C   UNL d   1      22.165  48.561  -1.348 -0.17 +0.00    +0.070    48.994
ATOM     14  C   UNL d   1      22.592  50.827   1.544 -0.16 -0.00    +0.052    48.994
ATOM     15  C   UNL d   1      21.919  46.989  -3.264 -0.22 -0.00    +0.066    48.994
ATOM     16  C   UNL d   1      21.271  46.559  -4.415 -0.27 +0.00    -0.021    48.994
ATOM     17  C   UNL d   1      21.991  45.487  -4.902 -0.29 +0.00    +0.000    48.994
ATOM     18  C   UNL d   1      23.060  45.285  -4.033 -0.23 +0.01    +0.070    48.994
ATOM     19  C   UNL d   1      20.011  47.115  -5.022 -0.26 -0.00    +0.052    48.994
ATOM     20  C   UNL d   1      25.147  44.099  -3.330 -0.29 +0.01    +0.066    48.994
ATOM     21  C   UNL d   1      25.986  42.976  -3.358 -0.26 -0.01    -0.025    48.994
ATOM     22  C   UNL d   1      26.970  43.217  -2.422 -0.20 -0.00    -0.021    48.994
ATOM     23  C   UNL d   1      26.690  44.467  -1.858 -0.17 +0.02    +0.066    48.994
ATOM     24  C   UNL d   1      25.873  41.736  -4.214 -0.25 +0.01    +0.051    48.994
ATOM     25  N   UNL d   1      25.897  46.942  -0.319 -0.04 -0.08    -0.248    48.994
ATOM     26  N   UNL d   1      23.413  48.187  -0.974 -0.08 -0.03    -0.248    48.994
ATOM     27  N   UNL d   1      23.042  46.235  -3.050 -0.06 -0.02    -0.248    48.994
ATOM     28  N   UNL d   1      25.552  44.980  -2.384 -0.14 -0.06    -0.248    48.994
ATOM     29 FE   UNL d   1      24.482  46.583  -1.681 -0.05 +0.00    +0.000    48.994
ATOM     30  C   UNL d   1      29.237  46.537   1.172 +0.02 +0.03    +0.052    48.994
ATOM     31  C   UNL d   1      30.271  47.467   0.547 -0.16 +0.05    +0.115    48.994
ATOM     32  C   UNL d   1      31.435  46.677   0.016 -0.17 +0.12    +0.139    48.994
ATOM     33  O   UNL d   1      32.313  47.223  -0.638 -0.21 -0.61    -0.650    48.994
ATOM     34  O   UNL d   1      31.520  45.357   0.255 -0.52 -1.03    -0.776    48.994
ATOM     35  H   UNL d   1      31.253  44.736  -0.437 +0.03 +0.15    +0.167    48.994
ATOM     36  C   UNL d   1      28.086  42.274  -2.057 -0.15 +0.01    +0.052    48.994
ATOM     37  C   UNL d   1      29.304  42.562  -2.922 -0.04 +0.03    +0.115    48.994
ATOM     38  C   UNL d   1      30.274  43.458  -2.206 -0.02 +0.05    +0.139    48.994
ATOM     39  O   UNL d   1      31.174  42.989  -1.525 +0.03 -0.30    -0.650    48.994
ATOM     40  O   UNL d   1      30.155  44.794  -2.309 +0.04 -0.27    -0.776    48.994
ATOM     41  H   UNL d   1      30.693  45.359  -1.738 +0.02 +0.08    +0.167    48.994
ATOM     42  C   UNL d   1      20.342  50.276  -0.563 -0.35 -0.00    +0.004    48.994
ATOM     43  C   UNL d   1      19.970  50.997  -1.628 -0.29 -0.00    +0.012    48.994
ATOM     44  C   UNL d   1      21.686  44.719  -6.131 -0.30 +0.00    +0.004    48.994
ATOM     45  C   UNL d   1      20.611  43.926  -6.194 -0.43 +0.00    +0.012    48.994
TER
ENDMDL
MODEL       63
USER    Run = 63
USER    Cluster Rank = 15
USER    Number of conformations in this cluster = 1
USER  
USER    RMSD from reference structure       = 46.259 A
USER  
USER    Estimated Free Energy of Binding    =   -5.61 kcal/mol  [=(1)+(2)+(3)-(4)]
USER    Estimated Inhibition Constant, Ki   =   77.09 uM (micromolar)  [Temperature = 298.15 K]
USER    
USER    (1) Final Intermolecular Energy     =   -8.59 kcal/mol
USER        vdW + Hbond + desolv Energy     =   -6.78 kcal/mol
USER        Electrostatic Energy            =   -1.81 kcal/mol
USER    (2) Final Total Internal Energy     =   -0.67 kcal/mol
USER    (3) Torsional Free Energy           =   +2.98 kcal/mol
USER    (4) Unbound System's Energy  [=(2)] =   -0.67 kcal/mol
USER    
USER    
USER  
USER    DPF = D:/Protein_go_brrr/autodock/final/2DN3/heme_Fe/dock.dpf
USER    NEWDPF move	heme_Fe_opt.pdbqt
USER    NEWDPF about	-0.174000 -0.001000 -0.047000
USER    NEWDPF tran0	27.065890 42.743161 -3.189231
USER    NEWDPF axisangle0	0.335645 0.197076 -0.921143 -175.675778
USER    NEWDPF quaternion0	0.335406 0.196936 -0.920487 -0.037727
USER    NEWDPF dihe0	-108.94 115.07 -149.25 -156.47 20.26 -124.84 39.81 -78.29 21.87 -179.72 
USER  
USER                              x       y       z    vdW   Elec        q     RMS 
ATOM      1  C   UNL d   1      28.263  42.467  -1.546 -0.14 +0.02    +0.064    46.259
ATOM      2  C   UNL d   1      24.890  45.829  -2.869 -0.18 +0.01    +0.064    46.259
ATOM      3  C   UNL d   1      23.385  42.856  -6.328 -0.14 +0.01    +0.064    46.259
ATOM      4  C   UNL d   1      26.712  39.633  -5.132 -0.17 +0.01    +0.064    46.259
ATOM      5  C   UNL d   1      27.508  43.723  -1.651 -0.14 +0.02    +0.066    46.259
ATOM      6  C   UNL d   1      27.745  44.854  -0.887 -0.13 -0.01    -0.021    46.259
ATOM      7  C   UNL d   1      26.805  45.786  -1.252 -0.13 -0.01    -0.025    46.259
ATOM      8  C   UNL d   1      26.031  45.187  -2.227 -0.16 +0.02    +0.066    46.259
ATOM      9  C   UNL d   1      26.679  47.175  -0.705 -0.11 +0.01    +0.051    46.259
ATOM     10  C   UNL d   1      24.162  45.295  -3.852 -0.23 +0.01    +0.066    46.259
ATOM     11  C   UNL d   1      23.006  45.886  -4.367 -0.23 -0.00    -0.021    46.259
ATOM     12  C   UNL d   1      22.543  45.040  -5.355 -0.24 +0.00    +0.000    46.259
ATOM     13  C   UNL d   1      23.445  43.962  -5.386 -0.16 +0.01    +0.070    46.259
ATOM     14  C   UNL d   1      22.335  47.160  -3.895 -0.21 +0.00    +0.052    46.259
ATOM     15  C   UNL d   1      24.221  41.791  -6.328 -0.01 +0.01    +0.066    46.259
ATOM     16  C   UNL d   1      24.193  40.805  -7.306 -0.12 -0.00    -0.021    46.259
ATOM     17  C   UNL d   1      25.149  39.872  -6.961 -0.12 +0.00    +0.000    46.259
ATOM     18  C   UNL d   1      25.736  40.310  -5.776 -0.15 +0.01    +0.070    46.259
ATOM     19  C   UNL d   1      23.287  40.726  -8.505 -0.12 +0.01    +0.052    46.259
ATOM     20  C   UNL d   1      27.395  40.093  -3.917 -0.16 +0.01    +0.066    46.259
ATOM     21  C   UNL d   1      28.259  39.318  -3.131 -0.13 -0.00    -0.025    46.259
ATOM     22  C   UNL d   1      28.700  40.149  -2.122 -0.12 -0.00    -0.021    46.259
ATOM     23  C   UNL d   1      28.085  41.390  -2.327 -0.13 +0.01    +0.066    46.259
ATOM     24  C   UNL d   1      28.653  37.870  -3.309 -0.09 +0.01    +0.051    46.259
ATOM     25  N   UNL d   1      26.467  43.936  -2.474 -0.14 -0.06    -0.248    46.259
ATOM     26  N   UNL d   1      24.427  44.113  -4.463 -0.17 -0.04    -0.248    46.259
ATOM     27  N   UNL d   1      25.197  41.511  -5.409 -0.10 -0.05    -0.248    46.259
ATOM     28  N   UNL d   1      27.256  41.337  -3.397 -0.11 -0.04    -0.248    46.259
ATOM     29 FE   UNL d   1      25.842  42.723  -3.931 -0.05 +0.00    +0.000    46.259
ATOM     30  C   UNL d   1      28.822  45.050   0.125 -0.13 +0.03    +0.052    46.259
ATOM     31  C   UNL d   1      29.845  46.068  -0.365 -0.10 +0.06    +0.115    46.259
ATOM     32  C   UNL d   1      31.237  45.633   0.002 -0.11 +0.15    +0.139    46.259
ATOM     33  O   UNL d   1      31.475  44.463   0.269 -0.26 -0.76    -0.650    46.259
ATOM     34  O   UNL d   1      32.236  46.530   0.040 -0.40 -1.24    -0.776    46.259
ATOM     35  H   UNL d   1      32.252  47.186   0.752 -0.54 +0.19    +0.167    46.259
ATOM     36  C   UNL d   1      29.621  39.756  -0.997 -0.09 +0.01    +0.052    46.259
ATOM     37  C   UNL d   1      28.822  39.083   0.109 -0.14 +0.02    +0.115    46.259
ATOM     38  C   UNL d   1      28.966  37.589   0.046 -0.11 +0.02    +0.139    46.259
ATOM     39  O   UNL d   1      27.982  36.868  -0.024 -0.00 -0.10    -0.650    46.259
ATOM     40  O   UNL d   1      30.190  37.031   0.069 +0.05 -0.16    -0.776    46.259
ATOM     41  H   UNL d   1      30.795  37.194  -0.668 +0.02 +0.03    +0.167    46.259
ATOM     42  C   UNL d   1      21.313  45.272  -6.174 -0.27 +0.00    +0.004    46.259
ATOM     43  C   UNL d   1      20.171  44.629  -5.899 -0.48 +0.00    +0.012    46.259
ATOM     44  C   UNL d   1      25.493  38.652  -7.726 -0.06 +0.00    +0.004    46.259
ATOM     45  C   UNL d   1      25.056  37.451  -7.334 -0.07 +0.00    +0.012    46.259
TER
ENDMDL
MODEL        9
USER    Run = 9
USER    Cluster Rank = 16
USER    Number of conformations in this cluster = 1
USER  
USER    RMSD from reference structure       = 24.626 A
USER  
USER    Estimated Free Energy of Binding    =   -5.55 kcal/mol  [=(1)+(2)+(3)-(4)]
USER    Estimated Inhibition Constant, Ki   =   84.84 uM (micromolar)  [Temperature = 298.15 K]
USER    
USER    (1) Final Intermolecular Energy     =   -8.54 kcal/mol
USER        vdW + Hbond + desolv Energy     =   -6.49 kcal/mol
USER        Electrostatic Energy            =   -2.04 kcal/mol
USER    (2) Final Total Internal Energy     =   -0.73 kcal/mol
USER    (3) Torsional Free Energy           =   +2.98 kcal/mol
USER    (4) Unbound System's Energy  [=(2)] =   -0.73 kcal/mol
USER    
USER    
USER  
USER    DPF = D:/Protein_go_brrr/autodock/final/2DN3/heme_Fe/dock.dpf
USER    NEWDPF move	heme_Fe_opt.pdbqt
USER    NEWDPF about	-0.174000 -0.001000 -0.047000
USER    NEWDPF tran0	20.305543 19.495243 2.425655
USER    NEWDPF axisangle0	0.699536 0.440523 -0.562663 136.608110
USER    NEWDPF quaternion0	0.649980 0.409316 -0.522803 0.369681
USER    NEWDPF dihe0	-122.08 88.43 85.68 -111.35 -172.41 -114.97 90.90 -83.48 -144.97 4.96 
USER  
USER                              x       y       z    vdW   Elec        q     RMS 
ATOM      1  C   UNL d   1      19.540  17.727   3.130 -0.10 +0.01    +0.064    24.626
ATOM      2  C   UNL d   1      19.679  22.373   4.809 -0.25 +0.01    +0.064    24.626
ATOM      3  C   UNL d   1      20.923  23.852   0.412 -0.19 -0.00    +0.064    24.626
ATOM      4  C   UNL d   1      20.898  19.351  -1.208 -0.17 -0.01    +0.064    24.626
ATOM      5  C   UNL d   1      19.545  18.888   4.031 -0.08 +0.01    +0.066    24.626
ATOM      6  C   UNL d   1      19.340  18.828   5.399 -0.14 -0.01    -0.021    24.626
ATOM      7  C   UNL d   1      19.375  20.119   5.864 -0.22 -0.01    -0.025    24.626
ATOM      8  C   UNL d   1      19.601  20.919   4.760 -0.19 +0.01    +0.066    24.626
ATOM      9  C   UNL d   1      19.219  20.549   7.291 -0.24 +0.02    +0.051    24.626
ATOM     10  C   UNL d   1      19.952  23.163   3.770 -0.26 +0.01    +0.066    24.626
ATOM     11  C   UNL d   1      19.907  24.558   3.824 -0.33 -0.00    -0.021    24.626
ATOM     12  C   UNL d   1      20.246  25.009   2.563 -0.32 +0.00    +0.000    24.626
ATOM     13  C   UNL d   1      20.474  23.854   1.796 -0.19 +0.00    +0.070    24.626
ATOM     14  C   UNL d   1      19.494  25.420   5.000 -0.31 +0.01    +0.052    24.626
ATOM     15  C   UNL d   1      21.094  22.743  -0.346 -0.14 +0.00    +0.066    24.626
ATOM     16  C   UNL d   1      21.620  22.777  -1.631 -0.14 +0.00    -0.021    24.626
ATOM     17  C   UNL d   1      21.610  21.481  -2.102 -0.14 -0.00    +0.000    24.626
ATOM     18  C   UNL d   1      21.074  20.685  -1.092 -0.11 -0.00    +0.070    24.626
ATOM     19  C   UNL d   1      22.090  23.983  -2.399 -0.16 -0.01    +0.052    24.626
ATOM     20  C   UNL d   1      20.394  18.472  -0.145 -0.14 -0.00    +0.066    24.626
ATOM     21  C   UNL d   1      20.019  17.132  -0.312 -0.11 +0.00    -0.025    24.626
ATOM     22  C   UNL d   1      19.648  16.685   0.939 -0.08 -0.00    -0.021    24.626
ATOM     23  C   UNL d   1      19.804  17.767   1.815 -0.04 +0.01    +0.066    24.626
ATOM     24  C   UNL d   1      20.003  16.307  -1.578 -0.09 -0.00    +0.051    24.626
ATOM     25  N   UNL d   1      19.713  20.166   3.648 -0.06 -0.05    -0.248    24.626
ATOM     26  N   UNL d   1      20.287  22.728   2.528 -0.13 -0.04    -0.248    24.626
ATOM     27  N   UNL d   1      20.797  21.453   0.004 -0.12 -0.01    -0.248    24.626
ATOM     28  N   UNL d   1      20.217  18.867   1.139 -0.07 -0.02    -0.248    24.626
ATOM     29 FE   UNL d   1      20.252  20.797   1.832 -0.04 +0.00    +0.000    24.626
ATOM     30  C   UNL d   1      19.142  17.606   6.229 -0.13 +0.02    +0.052    24.626
ATOM     31  C   UNL d   1      17.974  16.779   5.702 -0.13 +0.06    +0.115    24.626
ATOM     32  C   UNL d   1      16.687  17.220   6.341 +0.04 +0.18    +0.139    24.626
ATOM     33  O   UNL d   1      15.653  16.593   6.156 -0.03 -1.10    -0.650    24.626
ATOM     34  O   UNL d   1      16.661  18.312   7.123 -0.41 -1.10    -0.776    24.626
ATOM     35  H   UNL d   1      16.948  19.160   6.755 +0.08 +0.13    +0.167    24.626
ATOM     36  C   UNL d   1      19.126  15.310   1.264 -0.03 +0.00    +0.052    24.626
ATOM     37  C   UNL d   1      20.232  14.477   1.894 -0.00 +0.01    +0.115    24.626
ATOM     38  C   UNL d   1      20.149  14.519   3.394 +0.00 +0.02    +0.139    24.626
ATOM     39  O   UNL d   1      21.039  15.034   4.055 +0.02 -0.08    -0.650    24.626
ATOM     40  O   UNL d   1      19.088  13.983   4.023 +0.03 -0.14    -0.776    24.626
ATOM     41  H   UNL d   1      18.327  14.546   4.224 +0.02 +0.04    +0.167    24.626
ATOM     42  C   UNL d   1      20.315  26.447   2.158 -0.50 -0.00    +0.004    24.626
ATOM     43  C   UNL d   1      21.360  26.918   1.464 -0.54 -0.00    +0.012    24.626
ATOM     44  C   UNL d   1      22.101  21.030  -3.424 -0.13 -0.00    +0.004    24.626
ATOM     45  C   UNL d   1      21.601  21.544  -4.552 -0.18 -0.00    +0.012    24.626
TER
ENDMDL
MODEL       25
USER    Run = 25
USER    Cluster Rank = 17
USER    Number of conformations in this cluster = 1
USER  
USER    RMSD from reference structure       = 43.977 A
USER  
USER    Estimated Free Energy of Binding    =   -5.11 kcal/mol  [=(1)+(2)+(3)-(4)]
USER    Estimated Inhibition Constant, Ki   =  181.11 uM (micromolar)  [Temperature = 298.15 K]
USER    
USER    (1) Final Intermolecular Energy     =   -8.09 kcal/mol
USER        vdW + Hbond + desolv Energy     =   -6.47 kcal/mol
USER        Electrostatic Energy            =   -1.62 kcal/mol
USER    (2) Final Total Internal Energy     =   -1.79 kcal/mol
USER    (3) Torsional Free Energy           =   +2.98 kcal/mol
USER    (4) Unbound System's Energy  [=(2)] =   -1.79 kcal/mol
USER    
USER    
USER  
USER    DPF = D:/Protein_go_brrr/autodock/final/2DN3/heme_Fe/dock.dpf
USER    NEWDPF move	heme_Fe_opt.pdbqt
USER    NEWDPF about	-0.174000 -0.001000 -0.047000
USER    NEWDPF tran0	37.658073 29.497928 0.234272
USER    NEWDPF axisangle0	0.982345 -0.036809 -0.183419 166.399374
USER    NEWDPF quaternion0	0.975434 -0.036550 -0.182129 0.118409
USER    NEWDPF dihe0	155.31 22.14 72.99 38.80 -12.90 -109.67 48.25 76.91 -116.26 -178.38 
USER  
USER                              x       y       z    vdW   Elec        q     RMS 
ATOM      1  C   UNL d   1      35.636  29.741   0.486 -0.15 +0.01    +0.064    43.977
ATOM      2  C   UNL d   1      39.484  32.813   0.057 -0.25 +0.01    +0.064    43.977
ATOM      3  C   UNL d   1      42.139  29.152  -1.558 -0.27 +0.01    +0.064    43.977
ATOM      4  C   UNL d   1      38.458  26.139  -1.050 -0.14 +0.00    +0.064    43.977
ATOM      5  C   UNL d   1      36.496  30.927   0.594 -0.17 +0.01    +0.066    43.977
ATOM      6  C   UNL d   1      36.102  32.144   1.126 -0.18 -0.00    -0.021    43.977
ATOM      7  C   UNL d   1      37.170  32.998   1.003 -0.20 -0.00    -0.025    43.977
ATOM      8  C   UNL d   1      38.176  32.269   0.400 -0.20 +0.01    +0.066    43.977
ATOM      9  C   UNL d   1      37.217  34.424   1.459 -0.27 +0.00    +0.051    43.977
ATOM     10  C   UNL d   1      40.491  32.117  -0.473 -0.15 +0.00    +0.066    43.977
ATOM     11  C   UNL d   1      41.692  32.692  -0.897 -0.23 -0.00    -0.021    43.977
ATOM     12  C   UNL d   1      42.469  31.659  -1.382 -0.25 +0.00    +0.000    43.977
ATOM     13  C   UNL d   1      41.691  30.497  -1.235 -0.23 +0.00    +0.070    43.977
ATOM     14  C   UNL d   1      42.055  34.163  -0.903 -0.21 +0.01    +0.052    43.977
ATOM     15  C   UNL d   1      41.376  28.037  -1.467 -0.19 +0.01    +0.066    43.977
ATOM     16  C   UNL d   1      41.872  26.758  -1.689 -0.18 -0.00    -0.021    43.977
ATOM     17  C   UNL d   1      40.811  25.888  -1.547 -0.16 +0.00    +0.000    43.977
ATOM     18  C   UNL d   1      39.690  26.658  -1.245 -0.15 +0.01    +0.070    43.977
ATOM     19  C   UNL d   1      43.281  26.369  -2.047 -0.23 +0.01    +0.052    43.977
ATOM     20  C   UNL d   1      37.269  26.911  -0.670 -0.11 +0.00    +0.066    43.977
ATOM     21  C   UNL d   1      35.955  26.422  -0.661 -0.12 -0.00    -0.025    43.977
ATOM     22  C   UNL d   1      35.169  27.462  -0.208 -0.13 -0.00    -0.021    43.977
ATOM     23  C   UNL d   1      36.029  28.540   0.034 -0.09 +0.01    +0.066    43.977
ATOM     24  C   UNL d   1      35.455  25.053  -1.060 -0.09 -0.00    +0.051    43.977
ATOM     25  N   UNL d   1      37.767  31.007   0.161 -0.12 -0.03    -0.248    43.977
ATOM     26  N   UNL d   1      40.482  30.777  -0.689 -0.15 -0.01    -0.248    43.977
ATOM     27  N   UNL d   1      40.045  27.975  -1.152 -0.12 -0.03    -0.248    43.977
ATOM     28  N   UNL d   1      37.303  28.212  -0.292 -0.06 -0.03    -0.248    43.977
ATOM     29 FE   UNL d   1      38.892  29.492  -0.491 -0.04 +0.00    +0.000    43.977
ATOM     30  C   UNL d   1      34.785  32.475   1.741 -0.19 +0.01    +0.052    43.977
ATOM     31  C   UNL d   1      33.684  31.590   1.168 -0.14 +0.06    +0.115    43.977
ATOM     32  C   UNL d   1      32.499  32.421   0.759 +0.00 +0.13    +0.139    43.977
ATOM     33  O   UNL d   1      32.405  33.588   1.113 -0.00 -0.45    -0.650    43.977
ATOM     34  O   UNL d   1      31.530  31.886  -0.002 -0.33 -1.15    -0.776    43.977
ATOM     35  H   UNL d   1      31.741  31.132  -0.570 +0.01 +0.16    +0.167    43.977
ATOM     36  C   UNL d   1      33.670  27.433  -0.064 -0.16 +0.01    +0.052    43.977
ATOM     37  C   UNL d   1      33.019  27.691  -1.415 -0.04 +0.02    +0.115    43.977
ATOM     38  C   UNL d   1      32.483  29.093  -1.495 -0.03 +0.04    +0.139    43.977
ATOM     39  O   UNL d   1      31.279  29.302  -1.500 +0.02 -0.27    -0.650    43.977
ATOM     40  O   UNL d   1      33.332  30.133  -1.566 +0.04 -0.21    -0.776    43.977
ATOM     41  H   UNL d   1      33.024  31.011  -1.300 +0.02 +0.06    +0.167    43.977
ATOM     42  C   UNL d   1      43.842  31.816  -1.954 -0.23 -0.00    +0.004    43.977
ATOM     43  C   UNL d   1      44.890  31.178  -1.416 -0.35 -0.00    +0.012    43.977
ATOM     44  C   UNL d   1      40.870  24.414  -1.671 -0.11 +0.00    +0.004    43.977
ATOM     45  C   UNL d   1      41.068  23.644  -0.596 -0.13 +0.00    +0.012    43.977
TER
ENDMDL
MODEL       54
USER    Run = 54
USER    Cluster Rank = 18
USER    Number of conformations in this cluster = 1
USER  
USER    RMSD from reference structure       = 55.605 A
USER  
USER    Estimated Free Energy of Binding    =   -5.01 kcal/mol  [=(1)+(2)+(3)-(4)]
USER    Estimated Inhibition Constant, Ki   =  210.94 uM (micromolar)  [Temperature = 298.15 K]
USER    
USER    (1) Final Intermolecular Energy     =   -8.00 kcal/mol
USER        vdW + Hbond + desolv Energy     =   -5.72 kcal/mol
USER        Electrostatic Energy            =   -2.27 kcal/mol
USER    (2) Final Total Internal Energy     =   -1.59 kcal/mol
USER    (3) Torsional Free Energy           =   +2.98 kcal/mol
USER    (4) Unbound System's Energy  [=(2)] =   -1.59 kcal/mol
USER    
USER    
USER  
USER    DPF = D:/Protein_go_brrr/autodock/final/2DN3/heme_Fe/dock.dpf
USER    NEWDPF move	heme_Fe_opt.pdbqt
USER    NEWDPF about	-0.174000 -0.001000 -0.047000
USER    NEWDPF tran0	40.942026 42.560702 2.335967
USER    NEWDPF axisangle0	-0.973519 0.041833 0.224748 -138.671093
USER    NEWDPF quaternion0	-0.910886 0.039141 0.210288 -0.352894
USER    NEWDPF dihe0	-170.71 -29.49 65.42 48.88 -92.68 180.00 147.16 108.46 -161.28 -162.87 
USER  
USER                              x       y       z    vdW   Elec        q     RMS 
ATOM      1  C   UNL d   1      38.966  42.803   2.834 -0.21 +0.02    +0.064    55.605
ATOM      2  C   UNL d   1      43.084  45.443   3.546 -0.21 +0.00    +0.064    55.605
ATOM      3  C   UNL d   1      45.292  42.764   0.227 -0.07 +0.01    +0.064    55.605
ATOM      4  C   UNL d   1      41.350  40.129  -0.401 -0.07 +0.01    +0.064    55.605
ATOM      5  C   UNL d   1      39.945  43.740   3.402 -0.17 +0.02    +0.066    55.605
ATOM      6  C   UNL d   1      39.696  44.598   4.461 -0.27 -0.01    -0.021    55.605
ATOM      7  C   UNL d   1      40.839  45.333   4.656 -0.31 -0.00    -0.025    55.605
ATOM      8  C   UNL d   1      41.742  44.896   3.707 -0.19 +0.01    +0.066    55.605
ATOM      9  C   UNL d   1      41.047  46.379   5.708 -0.17 -0.00    +0.051    55.605
ATOM     10  C   UNL d   1      43.994  45.001   2.677 -0.10 +0.00    +0.066    55.605
ATOM     11  C   UNL d   1      45.229  45.619   2.467 -0.14 +0.00    -0.021    55.605
ATOM     12  C   UNL d   1      45.879  44.875   1.502 -0.09 +0.00    +0.000    55.605
ATOM     13  C   UNL d   1      44.994  43.836   1.164 -0.08 +0.01    +0.070    55.605
ATOM     14  C   UNL d   1      45.738  46.896   3.104 -0.18 -0.01    +0.052    55.605
ATOM     15  C   UNL d   1      44.425  41.791  -0.140 -0.06 +0.01    +0.066    55.605
ATOM     16  C   UNL d   1      44.780  40.729  -0.961 -0.03 -0.00    -0.021    55.605
ATOM     17  C   UNL d   1      43.644  39.969  -1.147 -0.04 +0.00    +0.000    55.605
ATOM     18  C   UNL d   1      42.619  40.590  -0.436 -0.05 +0.01    +0.070    55.605
ATOM     19  C   UNL d   1      46.128  40.450  -1.570 -0.01 +0.01    +0.052    55.605
ATOM     20  C   UNL d   1      40.260  40.720   0.384 -0.08 +0.02    +0.066    55.605
ATOM     21  C   UNL d   1      38.905  40.378   0.275 -0.04 -0.01    -0.025    55.605
ATOM     22  C   UNL d   1      38.245  41.143   1.215 -0.13 -0.01    -0.021    55.605
ATOM     23  C   UNL d   1      39.218  41.922   1.853 -0.13 +0.02    +0.066    55.605
ATOM     24  C   UNL d   1      38.254  39.388  -0.663 -0.02 +0.01    +0.051    55.605
ATOM     25  N   UNL d   1      41.199  43.920   2.952 -0.08 -0.05    -0.248    55.605
ATOM     26  N   UNL d   1      43.842  43.917   1.874 -0.05 -0.03    -0.248    55.605
ATOM     27  N   UNL d   1      43.108  41.686   0.218 -0.04 -0.04    -0.248    55.605
ATOM     28  N   UNL d   1      40.439  41.693   1.311 -0.05 -0.06    -0.248    55.605
ATOM     29 FE   UNL d   1      42.140  42.804   1.591 -0.03 +0.00    +0.000    55.605
ATOM     30  C   UNL d   1      38.444  44.700   5.264 -0.42 +0.02    +0.052    55.605
ATOM     31  C   UNL d   1      37.331  45.348   4.448 -0.38 +0.08    +0.115    55.605
ATOM     32  C   UNL d   1      37.900  46.363   3.495 -0.24 +0.11    +0.139    55.605
ATOM     33  O   UNL d   1      37.985  47.540   3.817 -0.60 -0.46    -0.650    55.605
ATOM     34  O   UNL d   1      38.320  45.984   2.277 +0.00 -0.56    -0.776    55.605
ATOM     35  H   UNL d   1      38.129  45.085   1.973 +0.04 +0.13    +0.167    55.605
ATOM     36  C   UNL d   1      36.758  41.157   1.451 -0.20 +0.03    +0.052    55.605
ATOM     37  C   UNL d   1      36.050  41.725   0.230 -0.10 +0.08    +0.115    55.605
ATOM     38  C   UNL d   1      36.269  43.208   0.122 +0.08 +0.18    +0.139    55.605
ATOM     39  O   UNL d   1      35.779  43.847  -0.798 -0.58 -1.04    -0.650    55.605
ATOM     40  O   UNL d   1      37.014  43.845   1.042 -0.04 -0.95    -0.776    55.605
ATOM     41  H   UNL d   1      37.507  44.636   0.782 +0.02 +0.18    +0.167    55.605
ATOM     42  C   UNL d   1      47.237  45.181   0.956 -0.05 -0.00    +0.004    55.605
ATOM     43  C   UNL d   1      48.272  44.362   1.186 -0.05 -0.00    +0.012    55.605
ATOM     44  C   UNL d   1      43.550  38.720  -1.935 -0.03 +0.00    +0.004    55.605
ATOM     45  C   UNL d   1      43.510  37.529  -1.329 -0.08 +0.00    +0.012    55.605
TER
ENDMDL
MODEL       28
USER    Run = 28
USER    Cluster Rank = 19
USER    Number of conformations in this cluster = 1
USER  
USER    RMSD from reference structure       = 43.189 A
USER  
USER    Estimated Free Energy of Binding    =   -4.78 kcal/mol  [=(1)+(2)+(3)-(4)]
USER    Estimated Inhibition Constant, Ki   =  312.81 uM (micromolar)  [Temperature = 298.15 K]
USER    
USER    (1) Final Intermolecular Energy     =   -7.76 kcal/mol
USER        vdW + Hbond + desolv Energy     =   -6.98 kcal/mol
USER        Electrostatic Energy            =   -0.78 kcal/mol
USER    (2) Final Total Internal Energy     =   -2.12 kcal/mol
USER    (3) Torsional Free Energy           =   +2.98 kcal/mol
USER    (4) Unbound System's Energy  [=(2)] =   -2.12 kcal/mol
USER    
USER    
USER  
USER    DPF = D:/Protein_go_brrr/autodock/final/2DN3/heme_Fe/dock.dpf
USER    NEWDPF move	heme_Fe_opt.pdbqt
USER    NEWDPF about	-0.174000 -0.001000 -0.047000
USER    NEWDPF tran0	6.845156 36.992443 25.477476
USER    NEWDPF axisangle0	0.386194 -0.325816 -0.862959 116.308233
USER    NEWDPF quaternion0	0.328061 -0.276771 -0.733058 0.527636
USER    NEWDPF dihe0	-173.38 6.28 22.24 39.70 130.07 -174.91 -10.33 -68.88 171.06 23.77 
USER  
USER                              x       y       z    vdW   Elec        q     RMS 
ATOM      1  C   UNL d   1       7.253  36.237  27.341 -0.12 +0.01    +0.064    43.189
ATOM      2  C   UNL d   1       9.633  39.217  24.198 -0.23 -0.02    +0.064    43.189
ATOM      3  C   UNL d   1       5.543  39.781  21.744 -0.23 -0.01    +0.064    43.189
ATOM      4  C   UNL d   1       3.245  36.816  24.713 -0.18 -0.01    +0.064    43.189
ATOM      5  C   UNL d   1       8.322  36.957  26.636 -0.21 -0.00    +0.066    43.189
ATOM      6  C   UNL d   1       9.660  36.931  26.991 -0.26 +0.01    -0.021    43.189
ATOM      7  C   UNL d   1      10.320  37.762  26.120 -0.25 +0.01    -0.025    43.189
ATOM      8  C   UNL d   1       9.358  38.263  25.265 -0.23 -0.01    +0.066    43.189
ATOM      9  C   UNL d   1      11.793  38.037  26.105 -0.32 -0.03    +0.051    43.189
ATOM     10  C   UNL d   1       8.733  39.672  23.324 -0.20 -0.01    +0.066    43.189
ATOM     11  C   UNL d   1       9.002  40.671  22.385 -0.19 +0.00    -0.021    43.189
ATOM     12  C   UNL d   1       7.833  40.864  21.676 -0.22 -0.00    +0.000    43.189
ATOM     13  C   UNL d   1       6.901  39.970  22.229 -0.21 -0.02    +0.070    43.189
ATOM     14  C   UNL d   1      10.289  41.453  22.217 -0.24 -0.01    +0.052    43.189
ATOM     15  C   UNL d   1       4.625  38.959  22.306 -0.23 -0.02    +0.066    43.189
ATOM     16  C   UNL d   1       3.371  38.731  21.754 -0.26 +0.00    -0.021    43.189
ATOM     17  C   UNL d   1       2.706  37.879  22.610 -0.18 -0.00    +0.000    43.189
ATOM     18  C   UNL d   1       3.570  37.610  23.669 -0.18 -0.01    +0.070    43.189
ATOM     19  C   UNL d   1       2.808  39.311  20.484 -0.19 -0.01    +0.052    43.189
ATOM     20  C   UNL d   1       4.149  36.461  25.814 -0.16 -0.00    +0.066    43.189
ATOM     21  C   UNL d   1       3.770  35.809  26.996 -0.10 -0.00    -0.025    43.189
ATOM     22  C   UNL d   1       4.929  35.643  27.724 -0.11 -0.00    -0.021    43.189
ATOM     23  C   UNL d   1       5.964  36.203  26.965 -0.13 +0.01    +0.066    43.189
ATOM     24  C   UNL d   1       2.391  35.366  27.428 -0.05 +0.00    +0.051    43.189
ATOM     25  N   UNL d   1       8.144  37.764  25.576 -0.16 +0.03    -0.248    43.189
ATOM     26  N   UNL d   1       7.446  39.249  23.239 -0.11 +0.07    -0.248    43.189
ATOM     27  N   UNL d   1       4.766  38.238  23.461 -0.10 +0.07    -0.248    43.189
ATOM     28  N   UNL d   1       5.475  36.740  25.821 -0.11 -0.00    -0.248    43.189
ATOM     29 FE   UNL d   1       6.459  37.994  24.530 -0.05 -0.00    +0.000    43.189
ATOM     30  C   UNL d   1      10.287  36.141  28.089 -0.02 -0.03    +0.052    43.189
ATOM     31  C   UNL d   1      10.514  37.012  29.319 -0.10 -0.04    +0.115    43.189
ATOM     32  C   UNL d   1      10.909  36.166  30.498 -0.09 -0.03    +0.139    43.189
ATOM     33  O   UNL d   1      11.890  36.451  31.169 +0.01 +0.11    -0.650    43.189
ATOM     34  O   UNL d   1      10.183  35.083  30.824 +0.01 +0.02    -0.776    43.189
ATOM     35  H   UNL d   1       9.467  34.804  30.236 +0.02 +0.03    +0.167    43.189
ATOM     36  C   UNL d   1       5.027  35.025  29.094 -0.07 +0.01    +0.052    43.189
ATOM     37  C   UNL d   1       5.951  33.817  29.048 -0.12 +0.05    +0.115    43.189
ATOM     38  C   UNL d   1       7.232  34.090  29.783 -0.09 +0.08    +0.139    43.189
ATOM     39  O   UNL d   1       8.141  33.273  29.781 -0.44 -0.86    -0.650    43.189
ATOM     40  O   UNL d   1       7.386  35.244  30.457 +0.02 -0.16    -0.776    43.189
ATOM     41  H   UNL d   1       8.246  35.446  30.852 +0.02 +0.02    +0.167    43.189
ATOM     42  C   UNL d   1       7.657  41.856  20.569 -0.28 -0.00    +0.004    43.189
ATOM     43  C   UNL d   1       8.259  41.682  19.386 -0.37 -0.01    +0.012    43.189
ATOM     44  C   UNL d   1       1.340  37.341  22.418 -0.11 -0.00    +0.004    43.189
ATOM     45  C   UNL d   1       1.147  36.157  21.829 -0.15 -0.00    +0.012    43.189
TER
ENDMDL
MODEL        3
USER    Run = 3
USER    Cluster Rank = 20
USER    Number of conformations in this cluster = 1
USER  
USER    RMSD from reference structure       = 53.529 A
USER  
USER    Estimated Free Energy of Binding    =   -3.74 kcal/mol  [=(1)+(2)+(3)-(4)]
USER    Estimated Inhibition Constant, Ki   =    1.80 mM (millimolar)  [Temperature = 298.15 K]
USER    
USER    (1) Final Intermolecular Energy     =   -6.73 kcal/mol
USER        vdW + Hbond + desolv Energy     =   -6.72 kcal/mol
USER        Electrostatic Energy            =   -0.00 kcal/mol
USER    (2) Final Total Internal Energy     =   -2.04 kcal/mol
USER    (3) Torsional Free Energy           =   +2.98 kcal/mol
USER    (4) Unbound System's Energy  [=(2)] =   -2.04 kcal/mol
USER    
USER    
USER  
USER    DPF = D:/Protein_go_brrr/autodock/final/2DN3/heme_Fe/dock.dpf
USER    NEWDPF move	heme_Fe_opt.pdbqt
USER    NEWDPF about	-0.174000 -0.001000 -0.047000
USER    NEWDPF tran0	22.513705 42.582131 29.260907
USER    NEWDPF axisangle0	-0.808414 -0.573916 0.130720 156.689244
USER    NEWDPF quaternion0	-0.791745 -0.562082 0.128025 0.202025
USER    NEWDPF dihe0	-88.04 -149.64 78.33 15.24 -157.31 -85.67 61.52 -168.06 -14.21 -2.03 
USER  
USER                              x       y       z    vdW   Elec        q     RMS 
ATOM      1  C   UNL d   1      21.807  40.692  29.631 -0.16 -0.01    +0.064    53.529
ATOM      2  C   UNL d   1      19.895  44.796  27.648 -0.11 -0.01    +0.064    53.529
ATOM      3  C   UNL d   1      24.335  46.581  27.234 -0.26 -0.03    +0.064    53.529
ATOM      4  C   UNL d   1      26.197  42.661  29.248 -0.26 -0.02    +0.064    53.529
ATOM      5  C   UNL d   1      20.850  41.715  29.188 -0.11 -0.01    +0.066    53.529
ATOM      6  C   UNL d   1      19.472  41.597  29.266 -0.08 +0.00    -0.021    53.529
ATOM      7  C   UNL d   1      18.942  42.736  28.712 -0.08 +0.00    -0.025    53.529
ATOM      8  C   UNL d   1      20.018  43.506  28.316 -0.12 -0.01    +0.066    53.529
ATOM      9  C   UNL d   1      17.486  43.063  28.592 -0.06 -0.00    +0.051    53.529
ATOM     10  C   UNL d   1      20.916  45.585  27.308 -0.14 -0.01    +0.066    53.529
ATOM     11  C   UNL d   1      20.773  46.760  26.566 -0.25 +0.00    -0.021    53.529
ATOM     12  C   UNL d   1      22.041  47.285  26.419 -0.32 -0.00    +0.000    53.529
ATOM     13  C   UNL d   1      22.902  46.390  27.077 -0.26 -0.03    +0.070    53.529
ATOM     14  C   UNL d   1      19.498  47.320  25.968 -0.21 -0.00    +0.052    53.529
ATOM     15  C   UNL d   1      25.175  45.696  27.822 -0.13 -0.02    +0.066    53.529
ATOM     16  C   UNL d   1      26.521  45.960  28.040 -0.18 +0.00    -0.021    53.529
ATOM     17  C   UNL d   1      27.061  44.829  28.618 -0.31 -0.00    +0.000    53.529
ATOM     18  C   UNL d   1      26.031  43.899  28.734 -0.26 -0.02    +0.070    53.529
ATOM     19  C   UNL d   1      27.279  47.214  27.698 -0.29 -0.01    +0.052    53.529
ATOM     20  C   UNL d   1      25.124  41.679  29.442 -0.28 -0.02    +0.066    53.529
ATOM     21  C   UNL d   1      25.311  40.332  29.783 -0.26 +0.01    -0.025    53.529
ATOM     22  C   UNL d   1      24.046  39.792  29.899 -0.16 +0.00    -0.021    53.529
ATOM     23  C   UNL d   1      23.143  40.825  29.621 -0.18 -0.01    +0.066    53.529
ATOM     24  C   UNL d   1      26.607  39.581  29.986 -0.38 -0.04    +0.051    53.529
ATOM     25  N   UNL d   1      21.178  42.887  28.616 -0.09 +0.04    -0.248    53.529
ATOM     26  N   UNL d   1      22.217  45.349  27.612 -0.14 +0.06    -0.248    53.529
ATOM     27  N   UNL d   1      24.861  44.447  28.286 -0.13 +0.08    -0.248    53.529
ATOM     28  N   UNL d   1      23.807  41.961  29.299 -0.13 +0.06    -0.248    53.529
ATOM     29 FE   UNL d   1      23.014  43.655  28.456 -0.05 -0.00    +0.000    53.529
ATOM     30  C   UNL d   1      18.696  40.470  29.857 -0.09 -0.00    +0.052    53.529
ATOM     31  C   UNL d   1      18.745  40.519  31.380 -0.03 -0.00    +0.115    53.529
ATOM     32  C   UNL d   1      19.398  39.280  31.926 -0.06 +0.01    +0.139    53.529
ATOM     33  O   UNL d   1      19.184  38.917  33.074 +0.01 -0.04    -0.650    53.529
ATOM     34  O   UNL d   1      20.227  38.558  31.153 +0.02 -0.08    -0.776    53.529
ATOM     35  H   UNL d   1      21.175  38.750  31.174 +0.04 +0.01    +0.167    53.529
ATOM     36  C   UNL d   1      23.729  38.354  30.212 -0.20 -0.01    +0.052    53.529
ATOM     37  C   UNL d   1      23.494  38.194  31.707 -0.11 -0.00    +0.115    53.529
ATOM     38  C   UNL d   1      23.379  39.532  32.381 -0.04 -0.01    +0.139    53.529
ATOM     39  O   UNL d   1      24.377  40.131  32.756 +0.05 +0.08    -0.650    53.529
ATOM     40  O   UNL d   1      22.168  40.082  32.580 +0.04 +0.02    -0.776    53.529
ATOM     41  H   UNL d   1      21.405  39.503  32.711 +0.02 +0.00    +0.167    53.529
ATOM     42  C   UNL d   1      22.366  48.544  25.678 -0.13 -0.00    +0.004    53.529
ATOM     43  C   UNL d   1      23.061  49.528  26.263 -0.23 -0.01    +0.012    53.529
ATOM     44  C   UNL d   1      28.467  44.657  29.049 -0.36 -0.00    +0.004    53.529
ATOM     45  C   UNL d   1      28.950  45.336  30.095 -0.28 -0.00    +0.012    53.529
TER
ENDMDL


AVSFLD: # AVS field file
AVSFLD: #
AVSFLD: # Created by AutoDock
AVSFLD: #
AVSFLD: ndim=2           # number of dimensions in the field
AVSFLD: nspace=1         # number of physical coordinates
AVSFLD: veclen=7         # vector size
AVSFLD: dim1=45          # atoms
AVSFLD: dim2=20          # conformations
AVSFLD: data=Real       # data type (byte,integer,Real,double)
AVSFLD: field=uniform    # field coordinate layout
AVSFLD: label= x y z vdW Elec q RMS
AVSFLD: variable 1 file = D:/Protein_go_brrr/autodock/final/2DN3/heme_Fe/dock.dlg.pdb filetype = ascii offset = 5 stride = 12
AVSFLD: variable 2 file = D:/Protein_go_brrr/autodock/final/2DN3/heme_Fe/dock.dlg.pdb filetype = ascii offset = 6 stride = 12
AVSFLD: variable 3 file = D:/Protein_go_brrr/autodock/final/2DN3/heme_Fe/dock.dlg.pdb filetype = ascii offset = 7 stride = 12
AVSFLD: variable 4 file = D:/Protein_go_brrr/autodock/final/2DN3/heme_Fe/dock.dlg.pdb filetype = ascii offset = 8 stride = 12
AVSFLD: variable 5 file = D:/Protein_go_brrr/autodock/final/2DN3/heme_Fe/dock.dlg.pdb filetype = ascii offset = 9 stride = 12
AVSFLD: variable 6 file = D:/Protein_go_brrr/autodock/final/2DN3/heme_Fe/dock.dlg.pdb filetype = ascii offset = 10 stride = 12
AVSFLD: variable 7 file = D:/Protein_go_brrr/autodock/final/2DN3/heme_Fe/dock.dlg.pdb filetype = ascii offset = 11 stride = 12
AVSFLD: # end of file

>>> Closing the docking parameter file (DPF)...
This docking finished at:			2:07 38" a.m., 09/27/2025


________________________________________________________________________________

D:/autodockScripts/autodock4.exe: Successful Completion on "ACER"

Real= 8h 15m 00.53s,  CPU= 5m 16.25s,  System= 46.27s
________________________________________________________________________________

