          AutoDock 4.2 Release 4.2.6   
         (C) 1989-2012 The Scripps Research Institute
        AutoDock comes with ABSOLUTELY NO WARRANTY.
        AutoDock is free software, and you are welcome
        to redistribute it under certain conditions;
        for details type 'autodock4 -C'

                     main.cc  $Revision: 1.213 $

                   Compiled on Jul 18 2014 at 15:34:58


This file was created at:			3:08 38" p.m., 10/17/2025
                   on host:		"ACER"
Current Working Directory = "D:\Protein_go_brrr\autodock\final\mut_K82N\heme_Co"

      ________________________________________________________________

                   SETTING UP DEFAULT PARAMETER LIBRARY
      ________________________________________________________________


Random number generator was seeded with values 44236, 1760706518.
Docking parameter file (DPF) used for this docking:		D:/Protein_go_brrr/autodock/final/mut_K82N/heme_Co/dock.dpf
DPF> autodock_parameter_version 4.2       # used by autodock to validate parameter set

	Autodock parameter version 4.2.
DPF> outlev 1                             # diagnostic output level

Output Level = 1  ADT-COMPATIBLE OUTPUT DURING DOCKING.
DPF> intelec                              # calculate internal electrostatics

Electrostatic energies will be calculated for all non-bonds between moving atoms.
DPF> seed pid time                        # seeds for random generator

Random number generator was seeded with values 44236, 1760706518.
DPF> ligand_types A C OA N Fe HD          # atoms types in ligand

DPF> fld mut_K82N_m0.maps.fld             # grid_data_file

Opening Grid Map Dimensions file:		mut_K82N_m0.maps.fld
Grid Point Spacing =				0.658 Angstroms

Even Number of User-specified Grid Points =	126 x-points
						126 y-points
						126 z-points

Coordinates of Central Grid Point of Maps =	(0.575, 0.825, 0.156)
Macromolecule file used to create Grid Maps =	mut_K82N_m0.pdbqt
Grid Parameter file used to create Grid Maps =	D:/Protein_go_brrr/autodock/final/mut_K82N/heme_Co/grid.gpf
Minimum coordinates in grid = (-40.879, -40.629, -41.298)
Maximum coordinates in grid = (42.029, 42.279, 41.610)

DPF> map mut_K82N_m0.A.map                # atom-specific affinity map

DPF> map mut_K82N_m0.C.map                # atom-specific affinity map

DPF> map mut_K82N_m0.OA.map               # atom-specific affinity map

DPF> map mut_K82N_m0.N.map                # atom-specific affinity map

DPF> map mut_K82N_m0.Fe.map               # atom-specific affinity map

DPF> map mut_K82N_m0.HD.map               # atom-specific affinity map

DPF> elecmap mut_K82N_m0.e.map            # electrostatics map

DPF> desolvmap mut_K82N_m0.d.map          # desolvation map

DPF> move heme_Co_opt.pdbqt               # small molecule

1,4-interactions will be _ignored_ in the non-bonded internal energy calculation.

Ligand PDBQT file = "heme_Co_opt.pdbqt"

INPUT LIGAND PDBQT FILE:
________________________

INPUT-LIGAND-PDBQT: REMARK  12 active torsions:
INPUT-LIGAND-PDBQT: REMARK  status: ('A' for Active; 'I' for Inactive)
INPUT-LIGAND-PDBQT: REMARK    1  A    between atoms: C_6  and  C_10 
INPUT-LIGAND-PDBQT: REMARK    2  A    between atoms: C_10  and  C_11 
INPUT-LIGAND-PDBQT: REMARK    3  A    between atoms: C_11  and  C_12 
INPUT-LIGAND-PDBQT: REMARK    4  A    between atoms: C_12  and  O_14 
INPUT-LIGAND-PDBQT: REMARK    5  A    between atoms: C_17  and  C_20 
INPUT-LIGAND-PDBQT: REMARK    6  A    between atoms: C_24  and  C_27 
INPUT-LIGAND-PDBQT: REMARK    7  A    between atoms: C_31  and  C_34 
INPUT-LIGAND-PDBQT: REMARK    8  A    between atoms: C_34  and  C_35 
INPUT-LIGAND-PDBQT: REMARK    9  A    between atoms: C_35  and  C_36 
INPUT-LIGAND-PDBQT: REMARK   10  A    between atoms: C_36  and  O_38 
INPUT-LIGAND-PDBQT: REMARK   11  A    between atoms: FE_43  and  C_44 
INPUT-LIGAND-PDBQT: REMARK   12  A    between atoms: C_44  and  O_45 
INPUT-LIGAND-PDBQT: ROOT
INPUT-LIGAND-PDBQT: ATOM      1  C   UNL d   1       6.846  35.483  -1.586  0.00  0.00     0.064 A 
INPUT-LIGAND-PDBQT: ATOM      2  C   UNL d   1       8.105  32.823   2.149  0.00  0.00     0.064 C 
INPUT-LIGAND-PDBQT: ATOM      3  C   UNL d   1      12.720  33.414   1.062  0.00  0.00     0.064 A 
INPUT-LIGAND-PDBQT: ATOM      4  C   UNL d   1      11.472  36.449  -2.529  0.00  0.00     0.064 A 
INPUT-LIGAND-PDBQT: ATOM      5  C   UNL d   1       6.850  34.683  -0.507  0.00  0.00     0.066 A 
INPUT-LIGAND-PDBQT: ATOM      6  C   UNL d   1       5.664  34.330   0.166  0.00  0.00    -0.021 A 
INPUT-LIGAND-PDBQT: ATOM      7  C   UNL d   1       6.037  33.577   1.262  0.00  0.00    -0.025 A 
INPUT-LIGAND-PDBQT: ATOM      8  C   UNL d   1       7.432  33.489   1.202  0.00  0.00     0.066 A 
INPUT-LIGAND-PDBQT: ATOM      9  C   UNL d   1       5.127  32.958   2.334  0.00  0.00     0.051 C 
INPUT-LIGAND-PDBQT: ATOM     10  C   UNL d   1       9.537  32.657   2.156  0.00  0.00     0.066 A 
INPUT-LIGAND-PDBQT: ATOM     11  C   UNL d   1      10.289  31.854   3.041  0.00  0.00    -0.021 A 
INPUT-LIGAND-PDBQT: ATOM     12  C   UNL d   1      11.631  32.042   2.699  0.00  0.00     0.000 A 
INPUT-LIGAND-PDBQT: ATOM     13  C   UNL d   1      11.598  32.933   1.626  0.00  0.00     0.070 A 
INPUT-LIGAND-PDBQT: ATOM     14  C   UNL d   1       9.736  30.905   4.073  0.00  0.00     0.052 C 
INPUT-LIGAND-PDBQT: ATOM     15  C   UNL d   1      12.870  34.375  -0.013  0.00  0.00     0.066 A 
INPUT-LIGAND-PDBQT: ATOM     16  C   UNL d   1      14.059  34.940  -0.452  0.00  0.00    -0.021 A 
INPUT-LIGAND-PDBQT: ATOM     17  C   UNL d   1      13.704  35.818  -1.486  0.00  0.00     0.000 A 
INPUT-LIGAND-PDBQT: ATOM     18  C   UNL d   1      12.323  35.706  -1.608  0.00  0.00     0.070 A 
INPUT-LIGAND-PDBQT: ATOM     19  C   UNL d   1      15.432  34.638   0.106  0.00  0.00     0.052 C 
INPUT-LIGAND-PDBQT: ATOM     20  C   UNL d   1      10.120  36.421  -2.607  0.00  0.00     0.066 A 
INPUT-LIGAND-PDBQT: ATOM     21  C   UNL d   1       9.411  37.209  -3.511  0.00  0.00    -0.025 A 
INPUT-LIGAND-PDBQT: ATOM     22  C   UNL d   1       8.076  36.930  -3.282  0.00  0.00    -0.021 A 
INPUT-LIGAND-PDBQT: ATOM     23  C   UNL d   1       8.036  35.987  -2.233  0.00  0.00     0.066 A 
INPUT-LIGAND-PDBQT: ATOM     24  C   UNL d   1       9.976  38.195  -4.530  0.00  0.00     0.051 C 
INPUT-LIGAND-PDBQT: ATOM     25  N   UNL d   1       7.962  34.160   0.113  0.00  0.00    -0.248 N 
INPUT-LIGAND-PDBQT: ATOM     26  N   UNL d   1      10.329  33.260   1.263  0.00  0.00    -0.248 N 
INPUT-LIGAND-PDBQT: ATOM     27  N   UNL d   1      11.857  34.861  -0.695  0.00  0.00    -0.248 N 
INPUT-LIGAND-PDBQT: ATOM     28  N   UNL d   1       9.271  35.678  -1.820  0.00  0.00    -0.248 N 
INPUT-LIGAND-PDBQT: ATOM     29 FE   UNL d   1      10.024  34.533  -0.318  0.00  0.00     0.000 Fe
INPUT-LIGAND-PDBQT: ENDROOT
INPUT-LIGAND-PDBQT: BRANCH   6  30
INPUT-LIGAND-PDBQT: ATOM     30  C   UNL d   1       4.249  34.772  -0.192  0.00  0.00     0.052 C 
INPUT-LIGAND-PDBQT: BRANCH  30  31
INPUT-LIGAND-PDBQT: ATOM     31  C   UNL d   1       3.660  33.865  -1.272  0.00  0.00     0.115 C 
INPUT-LIGAND-PDBQT: BRANCH  31  32
INPUT-LIGAND-PDBQT: ATOM     32  C   UNL d   1       2.237  34.239  -1.627  0.00  0.00     0.139 C 
INPUT-LIGAND-PDBQT: ATOM     33  O   UNL d   1       1.374  33.374  -1.641  0.00  0.00    -0.650 OA
INPUT-LIGAND-PDBQT: BRANCH  32  34
INPUT-LIGAND-PDBQT: ATOM     34  O   UNL d   1       1.874  35.517  -1.885  0.00  0.00    -0.776 OA
INPUT-LIGAND-PDBQT: ATOM     35  H   UNL d   1       2.467  36.277  -1.807  0.00  0.00     0.167 HD
INPUT-LIGAND-PDBQT: ENDBRANCH  32  34
INPUT-LIGAND-PDBQT: ENDBRANCH  31  32
INPUT-LIGAND-PDBQT: ENDBRANCH  30  31
INPUT-LIGAND-PDBQT: ENDBRANCH   6  30
INPUT-LIGAND-PDBQT: BRANCH  29  36
INPUT-LIGAND-PDBQT: ATOM     36  C   UNL d   1       9.893  36.149   1.011  0.00  0.00     0.190 C 
INPUT-LIGAND-PDBQT: BRANCH  36  37
INPUT-LIGAND-PDBQT: ATOM     37  O   UNL d   1      10.463  37.389   1.317  0.00  0.00    -0.399 OA
INPUT-LIGAND-PDBQT: ATOM     38  H   UNL d   1      10.901  37.258   2.204  0.00  0.00     0.209 HD
INPUT-LIGAND-PDBQT: ENDBRANCH  36  37
INPUT-LIGAND-PDBQT: ENDBRANCH  29  36
INPUT-LIGAND-PDBQT: BRANCH  22  39
INPUT-LIGAND-PDBQT: ATOM     39  C   UNL d   1       6.906  37.586  -3.991  0.00  0.00     0.052 C 
INPUT-LIGAND-PDBQT: BRANCH  39  40
INPUT-LIGAND-PDBQT: ATOM     40  C   UNL d   1       6.343  36.659  -5.081  0.00  0.00     0.115 C 
INPUT-LIGAND-PDBQT: BRANCH  40  41
INPUT-LIGAND-PDBQT: ATOM     41  C   UNL d   1       5.088  37.175  -5.753  0.00  0.00     0.139 C 
INPUT-LIGAND-PDBQT: ATOM     42  O   UNL d   1       4.969  37.063  -6.965  0.00  0.00    -0.650 OA
INPUT-LIGAND-PDBQT: BRANCH  41  43
INPUT-LIGAND-PDBQT: ATOM     43  O   UNL d   1       4.056  37.678  -5.040  0.00  0.00    -0.776 OA
INPUT-LIGAND-PDBQT: ATOM     44  H   UNL d   1       4.103  37.816  -4.085  0.00  0.00     0.167 HD
INPUT-LIGAND-PDBQT: ENDBRANCH  41  43
INPUT-LIGAND-PDBQT: ENDBRANCH  40  41
INPUT-LIGAND-PDBQT: ENDBRANCH  39  40
INPUT-LIGAND-PDBQT: ENDBRANCH  22  39
INPUT-LIGAND-PDBQT: BRANCH  12  45
INPUT-LIGAND-PDBQT: ATOM     45  C   UNL d   1      12.932  31.471   3.247  0.00  0.00     0.004 C 
INPUT-LIGAND-PDBQT: ATOM     46  C   UNL d   1      13.165  30.727   4.325  0.00  0.00     0.012 C 
INPUT-LIGAND-PDBQT: ENDBRANCH  12  45
INPUT-LIGAND-PDBQT: BRANCH  17  47
INPUT-LIGAND-PDBQT: ATOM     47  C   UNL d   1      14.559  36.745  -2.286  0.00  0.00     0.004 C 
INPUT-LIGAND-PDBQT: ATOM     48  C   UNL d   1      15.750  37.188  -1.876  0.00  0.00     0.012 C 
INPUT-LIGAND-PDBQT: ENDBRANCH  17  47
INPUT-LIGAND-PDBQT: TORSDOF 12
________________________________________________________________________________

Total charge on ligand                               =	-2.002 e
REMARK  12 active torsions:
REMARK  status: ('A' for Active; 'I' for Inactive)
REMARK    1  A    between atoms: C_6  and  C_10 
REMARK    2  A    between atoms: C_10  and  C_11 
REMARK    3  A    between atoms: C_11  and  C_12 
REMARK    4  A    between atoms: C_12  and  O_14 
REMARK    5  A    between atoms: C_17  and  C_20 
REMARK    6  A    between atoms: C_24  and  C_27 
REMARK    7  A    between atoms: C_31  and  C_34 
REMARK    8  A    between atoms: C_34  and  C_35 
REMARK    9  A    between atoms: C_35  and  C_36 
REMARK   10  A    between atoms: C_36  and  O_38 
REMARK   11  A    between atoms: FE_43  and  C_44 
REMARK   12  A    between atoms: C_44  and  O_45 


Number of Rotatable Bonds in Small Molecule =	12 torsions
Number of atoms in ligand:  48

Number of non-hydrogen atoms in ligand:  45

Number of vibrational degrees of freedom of ligand:  138


Number of torsional degrees of freedom = 12
Estimated loss of torsional free energy upon binding = +3.5796 kcal/mol


DPF> about 8.781 34.984 -0.736            # small molecule center

Small molecule center of rotation =	(+8.781, +34.984, -0.736)

DPF> tran0 random                         # initial coordinates/A or random

Initial translation =			(20.470, 37.978, -32.021) Angstroms
DPF> quaternion0 random                   # initial orientation

Each run will begin with a new, random initial orientation.
Initial quaternion,  (x,y,z,w) =	( 0.790, -0.147, 0.573, -0.160 ),
DPF> dihe0 random                         # initial dihedrals (relative) or random

DPF> torsdof 12                            # torsional degrees of freedom

Number of torsional degrees of freedom = 12
Free energy coefficient for torsional degrees of freedom = 0.2983, the factory default value.

Estimated loss of torsional free energy upon binding = +3.5796 kcal/mol

DPF> rmstol 2.0                           # cluster_tolerance/A

Maximum RMS tolerance for conformational cluster analysis = 2.00 Angstroms
DPF> extnrg 1000.0                        # external grid energy

External grid energy (beyond grid map walls) = 1000.00

DPF> e0max 0.0 10000                      # max initial energy; max number of retries

Using user-specified maximum number of retries for simanneal initialization, 10000 retries.
If the simanneal initial energy is greater than e0max, 0.000,
then a new, random initial state will be created.

DPF> ga_pop_size 150                      # number of individuals in population

A population of 150 individuals will be used
DPF> ga_num_evals 25000000                # maximum number of energy evaluations

There will be at most 25000000 function evaluations used.
DPF> ga_num_generations 27000             # maximum number of generations

The GA will run for at most 27000 generations.
DPF> ga_elitism 1                         # number of top individuals to survive to next generation

The 1 best will be preserved each GA generation.
DPF> ga_mutation_rate 0.02                # rate of gene mutation

The mutation rate is 0.020000.
DPF> ga_crossover_rate 0.8                # rate of crossover

The crossover rate is 0.800000.
DPF> ga_window_size 10                    # 

The GA's selection window is 10 generations.
DPF> ga_cauchy_alpha 0.0                  # Alpha parameter of Cauchy distribution

The alpha parameter (for the Cauchy distribution) is being set to 0.000000.
DPF> ga_cauchy_beta 1.0                   # Beta parameter Cauchy distribution

The beta parameter (for the Cauchy distribution) is being set to 1.000000.
DPF> set_ga                               # set the above parameters for GA or LGA

DPF> sw_max_its 300                       # iterations of Solis & Wets local search

Solis & Wets algorithms will perform at most 300 iterations.
DPF> sw_max_succ 4                        # consecutive successes before changing rho

Solis & Wets algorithms expand rho every 4 in a row successes.
DPF> sw_max_fail 4                        # consecutive failures before changing rho

Solis & Wets algorithms contract rho every 4 in a row failures.
DPF> sw_rho 1.0                           # size of local search space to sample

rho is set to 1.000000.
DPF> sw_lb_rho 0.01                       # lower bound on rho

rho will never get smaller than 0.010000.
DPF> ls_search_freq 0.06                  # probability of performing local search on individual

Local search will be performed with frequency 0.060000.
DPF> set_psw1                             # set the above pseudo-Solis & Wets parameters

Creating a new Local Search object using the pseudo-Solis-Wets algorithm (pSW1) with the current settings.

DPF> unbound_model bound                  # state of unbound ligand

DPF> ga_run 100                           # do this many hybrid GA-LS runs

centering ligand on specified point: 8.781 34.984 -0.736
Furthest true ligand atom from "about" center is 7.934 Angstroms (maxrad).
Number of requested GA dockings = 100 runs
Unbound model to be used is 'same as bound' [AutoDock 4.2 default].

	BEGINNING GENETIC ALGORITHM DOCKING 1 of 100
Run: 1 Seed: 721435307 1573098528 [ Run 1 of 100 GA/GALS ]
Beginning LAMARCKIAN GENETIC ALGORITHM (LGA), with a maximum of 25000000 energy evaluations.

Final-Value: -9.492


	FINAL GENETIC ALGORITHM DOCKED STATE
	_______________________________________________


Detailed state:  trans 7.723 15.460 -11.699 quatxyzw -0.461472 -0.786294 -0.058193 -0.406692 center 8.781 34.984 -0.736 ntor 12 160.1712 116.4803 31.8043 77.4621 104.9374 91.7297 -90.6164 73.4289 71.1611 19.6321 -24.2544 160.3612
State:	  7.723  15.460 -11.699  -0.505 -0.861 -0.064 -132.006    160.17  116.48   31.80   77.46  104.94   91.73  -90.62   73.43   71.16   19.63  -24.25  160.36

DOCKED: MODEL        1
DOCKED: USER    Run = 1
DOCKED: USER    DPF = D:/Protein_go_brrr/autodock/final/mut_K82N/heme_Co/dock.dpf
DOCKED: USER  
DOCKED: USER    Estimated Free Energy of Binding    =   -3.54 kcal/mol  [=(1)+(2)+(3)-(4)]
DOCKED: USER    Estimated Inhibition Constant, Ki   =    2.53 mM (millimolar)  [Temperature = 298.15 K]
DOCKED: USER    
DOCKED: USER    (1) Final Intermolecular Energy     =   -7.12 kcal/mol
DOCKED: USER        vdW + Hbond + desolv Energy     =   -7.07 kcal/mol
DOCKED: USER        Electrostatic Energy            =   -0.05 kcal/mol
DOCKED: USER    (2) Final Total Internal Energy     =   -2.37 kcal/mol
DOCKED: USER    (3) Torsional Free Energy           =   +3.58 kcal/mol
DOCKED: USER    (4) Unbound System's Energy  [=(2)] =   -2.37 kcal/mol
DOCKED: USER    
DOCKED: USER    
DOCKED: USER    NEWDPF move heme_Co_opt.pdbqt
DOCKED: USER    NEWDPF about 8.781000 34.984000 -0.736000
DOCKED: USER    NEWDPF tran0 7.722957 15.460155 -11.699309
DOCKED: USER    NEWDPF quaternion0 -0.461472 -0.786294 -0.058193 -0.406692
DOCKED: USER    NEWDPF axisangle0 -0.505133 -0.860688 -0.063699 -132.005571
DOCKED: USER    NEWDPF quat0 -0.505133 -0.860688 -0.063699 -132.005571
DOCKED: USER    NEWDPF dihe0 160.17 116.48 31.80 77.46 104.94 91.73 -90.62 73.43 71.16 19.63 -24.25 160.36 
DOCKED: USER  keepresnum = 1 
DOCKED: USER  
DOCKED: REMARK  12 active torsions:
DOCKED: REMARK  status: ('A' for Active; 'I' for Inactive)
DOCKED: REMARK    1  A    between atoms: C_6  and  C_10 
DOCKED: REMARK    2  A    between atoms: C_10  and  C_11 
DOCKED: REMARK    3  A    between atoms: C_11  and  C_12 
DOCKED: REMARK    4  A    between atoms: C_12  and  O_14 
DOCKED: REMARK    5  A    between atoms: C_17  and  C_20 
DOCKED: REMARK    6  A    between atoms: C_24  and  C_27 
DOCKED: REMARK    7  A    between atoms: C_31  and  C_34 
DOCKED: REMARK    8  A    between atoms: C_34  and  C_35 
DOCKED: REMARK    9  A    between atoms: C_35  and  C_36 
DOCKED: REMARK   10  A    between atoms: C_36  and  O_38 
DOCKED: REMARK   11  A    between atoms: FE_43  and  C_44 
DOCKED: REMARK   12  A    between atoms: C_44  and  O_45 
DOCKED: USER                              x       y       z     vdW  Elec       q    Type
DOCKED: USER                           _______ _______ _______ _____ _____    ______ ____
DOCKED: ROOT
DOCKED: ATOM      1  C   UNL d   1       9.077  14.034 -12.619 -0.15 +0.01    +0.064 A 
DOCKED: ATOM      2  C   UNL d   1       4.527  15.123 -13.466 -0.22 -0.01    +0.064 C 
DOCKED: ATOM      3  C   UNL d   1       4.498  18.081  -9.714 +0.04 -0.03    +0.064 A 
DOCKED: ATOM      4  C   UNL d   1       9.251  17.280  -9.062 -0.09 -0.00    +0.064 A 
DOCKED: ATOM      5  C   UNL d   1       7.826  14.086 -13.104 -0.19 +0.01    +0.066 A 
DOCKED: ATOM      6  C   UNL d   1       7.447  13.396 -14.272 -0.21 -0.00    -0.021 A 
DOCKED: ATOM      7  C   UNL d   1       6.132  13.733 -14.526 -0.21 -0.00    -0.025 A 
DOCKED: ATOM      8  C   UNL d   1       5.760  14.602 -13.494 -0.24 +0.00    +0.066 A 
DOCKED: ATOM      9  C   UNL d   1       5.247  13.265 -15.691 -0.14 +0.01    +0.051 C 
DOCKED: ATOM     10  C   UNL d   1       4.046  16.003 -12.430 -0.25 -0.01    +0.066 A 
DOCKED: ATOM     11  C   UNL d   1       2.724  16.471 -12.267 -0.29 +0.01    -0.021 A 
DOCKED: ATOM     12  C   UNL d   1       2.743  17.328 -11.164 -0.27 -0.00    +0.000 A 
DOCKED: ATOM     13  C   UNL d   1       4.068  17.310 -10.729 -0.21 -0.02    +0.070 A 
DOCKED: ATOM     14  C   UNL d   1       1.520  16.039 -13.065 -0.31 -0.03    +0.052 C 
DOCKED: ATOM     15  C   UNL d   1       5.834  18.226  -9.171 -0.19 -0.02    +0.066 A 
DOCKED: ATOM     16  C   UNL d   1       6.238  19.148  -8.216 -0.22 +0.01    -0.021 A 
DOCKED: ATOM     17  C   UNL d   1       7.609  18.923  -8.026 -0.18 -0.00    +0.000 A 
DOCKED: ATOM     18  C   UNL d   1       7.930  17.865  -8.871 -0.12 -0.01    +0.070 A 
DOCKED: ATOM     19  C   UNL d   1       5.344  20.169  -7.548 -0.28 -0.02    +0.052 C 
DOCKED: ATOM     20  C   UNL d   1       9.604  16.310  -9.939 -0.17 -0.00    +0.066 A 
DOCKED: ATOM     21  C   UNL d   1      10.915  15.854 -10.056 -0.17 -0.00    -0.025 A 
DOCKED: ATOM     22  C   UNL d   1      10.890  14.897 -11.054 -0.21 -0.00    -0.021 A 
DOCKED: ATOM     23  C   UNL d   1       9.557  14.825 -11.509 -0.23 +0.00    +0.066 A 
DOCKED: ATOM     24  C   UNL d   1      12.137  16.321  -9.269 -0.12 -0.00    +0.051 C 
DOCKED: ATOM     25  N   UNL d   1       6.788  14.833 -12.596 -0.17 -0.00    -0.248 N 
DOCKED: ATOM     26  N   UNL d   1       4.843  16.465 -11.461 -0.17 +0.05    -0.248 N 
DOCKED: ATOM     27  N   UNL d   1       6.855  17.496  -9.559 -0.17 +0.05    -0.248 N 
DOCKED: ATOM     28  N   UNL d   1       8.775  15.680 -10.839 -0.19 +0.00    -0.248 N 
DOCKED: ATOM     29 FE   UNL d   1       6.827  16.243 -10.986 -0.05 -0.00    +0.000 Fe
DOCKED: ENDROOT
DOCKED: BRANCH   6  30
DOCKED: ATOM     30  C   UNL d   1       8.343  12.519 -15.141 -0.16 +0.01    +0.052 C 
DOCKED: BRANCH  30  31
DOCKED: ATOM     31  C   UNL d   1       8.904  11.353 -14.329 -0.20 +0.05    +0.115 C 
DOCKED: BRANCH  31  32
DOCKED: ATOM     32  C   UNL d   1      10.394  11.479 -14.091 -0.13 +0.02    +0.139 C 
DOCKED: ATOM     33  O   UNL d   1      10.856  11.176 -13.001 -0.01 -0.09    -0.650 OA
DOCKED: BRANCH  32  34
DOCKED: ATOM     34  O   UNL d   1      11.245  11.874 -15.066 +0.05 -0.06    -0.776 OA
DOCKED: ATOM     35  H   UNL d   1      12.107  12.281 -14.903 +0.02 +0.00    +0.167 HD
DOCKED: ENDBRANCH  32  34
DOCKED: ENDBRANCH  31  32
DOCKED: ENDBRANCH  30  31
DOCKED: ENDBRANCH   6  30
DOCKED: BRANCH  29  36
DOCKED: ATOM     36  C   UNL d   1       7.330  17.691 -12.416 -0.03 -0.02    +0.190 C 
DOCKED: BRANCH  36  37
DOCKED: ATOM     37  O   UNL d   1       8.316  18.048 -13.341 +0.00 +0.03    -0.399 OA
DOCKED: ATOM     38  H   UNL d   1       8.984  17.308 -13.303 +0.02 -0.01    +0.209 HD
DOCKED: ENDBRANCH  36  37
DOCKED: ENDBRANCH  29  36
DOCKED: BRANCH  22  39
DOCKED: ATOM     39  C   UNL d   1      12.098  14.145 -11.582 -0.15 +0.00    +0.052 C 
DOCKED: BRANCH  39  40
DOCKED: ATOM     40  C   UNL d   1      12.616  14.790 -12.877 -0.03 -0.00    +0.115 C 
DOCKED: BRANCH  40  41
DOCKED: ATOM     41  C   UNL d   1      13.592  13.933 -13.655 -0.01 -0.00    +0.139 C 
DOCKED: ATOM     42  O   UNL d   1      14.473  14.474 -14.309 +0.00 +0.02    -0.650 OA
DOCKED: BRANCH  41  43
DOCKED: ATOM     43  O   UNL d   1      13.572  12.584 -13.578 +0.03 +0.01    -0.776 OA
DOCKED: ATOM     44  H   UNL d   1      12.750  12.080 -13.525 +0.03 +0.00    +0.167 HD
DOCKED: ENDBRANCH  41  43
DOCKED: ENDBRANCH  40  41
DOCKED: ENDBRANCH  39  40
DOCKED: ENDBRANCH  22  39
DOCKED: BRANCH  12  45
DOCKED: ATOM     45  C   UNL d   1       1.664  18.143 -10.463 -0.32 -0.00    +0.004 C 
DOCKED: ATOM     46  C   UNL d   1       0.624  17.753  -9.731 -0.49 -0.00    +0.012 C 
DOCKED: ENDBRANCH  12  45
DOCKED: BRANCH  17  47
DOCKED: ATOM     47  C   UNL d   1       8.587  19.655  -7.167 -0.13 -0.00    +0.004 C 
DOCKED: ATOM     48  C   UNL d   1       8.749  19.412  -5.864 -0.17 -0.00    +0.012 C 
DOCKED: ENDBRANCH  17  47
DOCKED: TORSDOF 12
DOCKED: TER
DOCKED: ENDMDL
________________________________________________________________________________


	BEGINNING GENETIC ALGORITHM DOCKING 2 of 100
Run: 2 Seed: 1589069685 2036081338 [ Run 2 of 100 GA/GALS ]
Beginning LAMARCKIAN GENETIC ALGORITHM (LGA), with a maximum of 25000000 energy evaluations.

Final-Value: -9.611


	FINAL GENETIC ALGORITHM DOCKED STATE
	_______________________________________________


Detailed state:  trans 10.537 -11.484 1.914 quatxyzw -0.596198 0.363064 -0.553539 -0.454233 center 8.781 34.984 -0.736 ntor 12 5.7228 128.0661 -167.2203 116.9853 -99.2224 124.1892 33.5112 100.8056 154.9026 108.4305 -165.5046 -177.8325
State:	 10.537 -11.484   1.914  -0.669  0.408 -0.621 -125.969      5.72  128.07 -167.22  116.99  -99.22  124.19   33.51  100.81  154.90  108.43 -165.50 -177.83

DOCKED: MODEL        2
DOCKED: USER    Run = 2
DOCKED: USER    DPF = D:/Protein_go_brrr/autodock/final/mut_K82N/heme_Co/dock.dpf
DOCKED: USER  
DOCKED: USER    Estimated Free Energy of Binding    =   -3.05 kcal/mol  [=(1)+(2)+(3)-(4)]
DOCKED: USER    Estimated Inhibition Constant, Ki   =    5.79 mM (millimolar)  [Temperature = 298.15 K]
DOCKED: USER    
DOCKED: USER    (1) Final Intermolecular Energy     =   -6.63 kcal/mol
DOCKED: USER        vdW + Hbond + desolv Energy     =   -6.42 kcal/mol
DOCKED: USER        Electrostatic Energy            =   -0.21 kcal/mol
DOCKED: USER    (2) Final Total Internal Energy     =   -2.98 kcal/mol
DOCKED: USER    (3) Torsional Free Energy           =   +3.58 kcal/mol
DOCKED: USER    (4) Unbound System's Energy  [=(2)] =   -2.98 kcal/mol
DOCKED: USER    
DOCKED: USER    
DOCKED: USER    NEWDPF move heme_Co_opt.pdbqt
DOCKED: USER    NEWDPF about 8.781000 34.984000 -0.736000
DOCKED: USER    NEWDPF tran0 10.536809 -11.484241 1.914179
DOCKED: USER    NEWDPF quaternion0 -0.596198 0.363064 -0.553539 -0.454233
DOCKED: USER    NEWDPF axisangle0 -0.669221 0.407533 -0.621337 -125.968871
DOCKED: USER    NEWDPF quat0 -0.669221 0.407533 -0.621337 -125.968871
DOCKED: USER    NEWDPF dihe0 5.72 128.07 -167.22 116.99 -99.22 124.19 33.51 100.81 154.90 108.43 -165.50 -177.83 
DOCKED: USER  keepresnum = 1 
DOCKED: USER  
DOCKED: REMARK  12 active torsions:
DOCKED: REMARK  status: ('A' for Active; 'I' for Inactive)
DOCKED: REMARK    1  A    between atoms: C_6  and  C_10 
DOCKED: REMARK    2  A    between atoms: C_10  and  C_11 
DOCKED: REMARK    3  A    between atoms: C_11  and  C_12 
DOCKED: REMARK    4  A    between atoms: C_12  and  O_14 
DOCKED: REMARK    5  A    between atoms: C_17  and  C_20 
DOCKED: REMARK    6  A    between atoms: C_24  and  C_27 
DOCKED: REMARK    7  A    between atoms: C_31  and  C_34 
DOCKED: REMARK    8  A    between atoms: C_34  and  C_35 
DOCKED: REMARK    9  A    between atoms: C_35  and  C_36 
DOCKED: REMARK   10  A    between atoms: C_36  and  O_38 
DOCKED: REMARK   11  A    between atoms: FE_43  and  C_44 
DOCKED: REMARK   12  A    between atoms: C_44  and  O_45 
DOCKED: USER                              x       y       z     vdW  Elec       q    Type
DOCKED: USER                           _______ _______ _______ _____ _____    ______ ____
DOCKED: ROOT
DOCKED: ATOM      1  C   UNL d   1       9.491  -9.954   0.783 -0.17 +0.01    +0.064 A 
DOCKED: ATOM      2  C   UNL d   1      13.158  -9.749   3.803 -0.15 +0.01    +0.064 C 
DOCKED: ATOM      3  C   UNL d   1      12.693 -14.411   4.742 -0.02 +0.03    +0.064 A 
DOCKED: ATOM      4  C   UNL d   1       9.197 -14.727   1.375 -0.26 +0.02    +0.064 A 
DOCKED: ATOM      5  C   UNL d   1      10.504  -9.548   1.566 -0.25 +0.01    +0.066 A 
DOCKED: ATOM      6  C   UNL d   1      10.999  -8.230   1.525 -0.30 -0.00    -0.021 A 
DOCKED: ATOM      7  C   UNL d   1      12.077  -8.182   2.387 -0.22 -0.00    -0.025 A 
DOCKED: ATOM      8  C   UNL d   1      12.184  -9.467   2.929 -0.19 +0.01    +0.066 A 
DOCKED: ATOM      9  C   UNL d   1      12.982  -6.980   2.697 -0.18 +0.00    +0.051 C 
DOCKED: ATOM     10  C   UNL d   1      13.330 -11.034   4.433 -0.11 +0.01    +0.066 A 
DOCKED: ATOM     11  C   UNL d   1      14.243 -11.355   5.462 -0.07 -0.00    -0.021 A 
DOCKED: ATOM     12  C   UNL d   1      14.083 -12.719   5.719 -0.07 +0.00    +0.000 A 
DOCKED: ATOM     13  C   UNL d   1      13.079 -13.126   4.840 -0.07 +0.03    +0.070 A 
DOCKED: ATOM     14  C   UNL d   1      15.130 -10.386   6.201 -0.05 +0.00    +0.052 C 
DOCKED: ATOM     15  C   UNL d   1      11.715 -15.013   3.857 -0.06 +0.04    +0.066 A 
DOCKED: ATOM     16  C   UNL d   1      11.467 -16.369   3.706 -0.11 -0.01    -0.021 A 
DOCKED: ATOM     17  C   UNL d   1      10.461 -16.466   2.734 -0.17 +0.00    +0.000 A 
DOCKED: ATOM     18  C   UNL d   1      10.162 -15.154   2.380 -0.20 +0.02    +0.070 A 
DOCKED: ATOM     19  C   UNL d   1      12.168 -17.479   4.458 -0.05 +0.01    +0.052 C 
DOCKED: ATOM     20  C   UNL d   1       8.951 -13.464   0.953 -0.24 +0.02    +0.066 A 
DOCKED: ATOM     21  C   UNL d   1       8.023 -13.182  -0.048 -0.29 -0.01    -0.025 A 
DOCKED: ATOM     22  C   UNL d   1       8.066 -11.810  -0.220 -0.32 -0.00    -0.021 A 
DOCKED: ATOM     23  C   UNL d   1       9.033 -11.321   0.684 -0.23 +0.01    +0.066 A 
DOCKED: ATOM     24  C   UNL d   1       7.154 -14.172  -0.818 -0.37 +0.01    +0.051 C 
DOCKED: ATOM     25  N   UNL d   1      11.218 -10.332   2.443 -0.11 -0.04    -0.248 N 
DOCKED: ATOM     26  N   UNL d   1      12.586 -12.096   4.103 -0.06 -0.09    -0.248 N 
DOCKED: ATOM     27  N   UNL d   1      10.949 -14.317   3.047 -0.04 -0.13    -0.248 N 
DOCKED: ATOM     28  N   UNL d   1       9.573 -12.319   1.394 -0.12 -0.06    -0.248 N 
DOCKED: ATOM     29 FE   UNL d   1      11.073 -12.443   2.761 -0.05 +0.00    +0.000 Fe
DOCKED: ENDROOT
DOCKED: BRANCH   6  30
DOCKED: ATOM     30  C   UNL d   1      10.501  -7.099   0.632 -0.29 -0.00    +0.052 C 
DOCKED: BRANCH  30  31
DOCKED: ATOM     31  C   UNL d   1      11.103  -7.215  -0.768 -0.14 +0.00    +0.115 C 
DOCKED: BRANCH  31  32
DOCKED: ATOM     32  C   UNL d   1      12.440  -7.923  -0.764 -0.05 +0.00    +0.139 C 
DOCKED: ATOM     33  O   UNL d   1      13.469  -7.263  -0.741 +0.03 -0.02    -0.650 OA
DOCKED: BRANCH  32  34
DOCKED: ATOM     34  O   UNL d   1      12.538  -9.272  -0.738 +0.05 -0.02    -0.776 OA
DOCKED: ATOM     35  H   UNL d   1      11.780  -9.873  -0.742 +0.03 +0.01    +0.167 HD
DOCKED: ENDBRANCH  32  34
DOCKED: ENDBRANCH  31  32
DOCKED: ENDBRANCH  30  31
DOCKED: ENDBRANCH   6  30
DOCKED: BRANCH  29  36
DOCKED: ATOM     36  C   UNL d   1      12.485 -12.658   1.227 -0.04 +0.02    +0.190 C 
DOCKED: BRANCH  36  37
DOCKED: ATOM     37  O   UNL d   1      12.942 -12.071   0.042 -0.00 -0.02    -0.399 OA
DOCKED: ATOM     38  H   UNL d   1      12.549 -11.154   0.043 +0.03 +0.01    +0.209 HD
DOCKED: ENDBRANCH  36  37
DOCKED: ENDBRANCH  29  36
DOCKED: BRANCH  22  39
DOCKED: ATOM     39  C   UNL d   1       7.265 -11.027  -1.243 -0.42 +0.01    +0.052 C 
DOCKED: BRANCH  39  40
DOCKED: ATOM     40  C   UNL d   1       7.875 -11.185  -2.646 -0.22 +0.02    +0.115 C 
DOCKED: BRANCH  40  41
DOCKED: ATOM     41  C   UNL d   1       9.118 -10.354  -2.884 -0.16 +0.01    +0.139 C 
DOCKED: ATOM     42  O   UNL d   1       9.126  -9.536  -3.793 -0.38 -0.09    -0.650 OA
DOCKED: BRANCH  41  43
DOCKED: ATOM     43  O   UNL d   1      10.190 -10.429  -2.064 +0.06 -0.05    -0.776 OA
DOCKED: ATOM     44  H   UNL d   1      10.866  -9.739  -2.028 +0.03 +0.01    +0.167 HD
DOCKED: ENDBRANCH  41  43
DOCKED: ENDBRANCH  40  41
DOCKED: ENDBRANCH  39  40
DOCKED: ENDBRANCH  22  39
DOCKED: BRANCH  12  45
DOCKED: ATOM     45  C   UNL d   1      14.747 -13.675   6.701 -0.04 +0.00    +0.004 C 
DOCKED: ATOM     46  C   UNL d   1      14.270 -14.257   7.799 -0.04 +0.00    +0.012 C 
DOCKED: ENDBRANCH  12  45
DOCKED: BRANCH  17  47
DOCKED: ATOM     47  C   UNL d   1       9.840 -17.678   2.121 -0.17 +0.00    +0.004 C 
DOCKED: ATOM     48  C   UNL d   1       9.865 -17.937   0.811 -0.15 +0.00    +0.012 C 
DOCKED: ENDBRANCH  17  47
DOCKED: TORSDOF 12
DOCKED: TER
DOCKED: ENDMDL
________________________________________________________________________________


	BEGINNING GENETIC ALGORITHM DOCKING 3 of 100
Run: 3 Seed: 240288400 599896326 [ Run 3 of 100 GA/GALS ]
Beginning LAMARCKIAN GENETIC ALGORITHM (LGA), with a maximum of 25000000 energy evaluations.

Final-Value: -9.242


	FINAL GENETIC ALGORITHM DOCKED STATE
	_______________________________________________


Detailed state:  trans 11.837 -7.154 1.689 quatxyzw 0.721874 -0.002152 0.586057 0.368009 center 8.781 34.984 -0.736 ntor 12 1.4387 93.6842 -43.8261 126.6776 55.1617 153.5909 49.4558 -158.7882 -152.5600 50.1421 -170.7652 164.2455
State:	 11.837  -7.154   1.689   0.776 -0.002  0.630 136.814      1.44   93.68  -43.83  126.68   55.16  153.59   49.46 -158.79 -152.56   50.14 -170.77  164.25

DOCKED: MODEL        3
DOCKED: USER    Run = 3
DOCKED: USER    DPF = D:/Protein_go_brrr/autodock/final/mut_K82N/heme_Co/dock.dpf
DOCKED: USER  
DOCKED: USER    Estimated Free Energy of Binding    =   -3.08 kcal/mol  [=(1)+(2)+(3)-(4)]
DOCKED: USER    Estimated Inhibition Constant, Ki   =    5.56 mM (millimolar)  [Temperature = 298.15 K]
DOCKED: USER    
DOCKED: USER    (1) Final Intermolecular Energy     =   -6.66 kcal/mol
DOCKED: USER        vdW + Hbond + desolv Energy     =   -6.58 kcal/mol
DOCKED: USER        Electrostatic Energy            =   -0.08 kcal/mol
DOCKED: USER    (2) Final Total Internal Energy     =   -2.59 kcal/mol
DOCKED: USER    (3) Torsional Free Energy           =   +3.58 kcal/mol
DOCKED: USER    (4) Unbound System's Energy  [=(2)] =   -2.59 kcal/mol
DOCKED: USER    
DOCKED: USER    
DOCKED: USER    NEWDPF move heme_Co_opt.pdbqt
DOCKED: USER    NEWDPF about 8.781000 34.984000 -0.736000
DOCKED: USER    NEWDPF tran0 11.837166 -7.153916 1.689369
DOCKED: USER    NEWDPF quaternion0 0.721874 -0.002152 0.586057 0.368009
DOCKED: USER    NEWDPF axisangle0 0.776357 -0.002314 0.630289 136.814187
DOCKED: USER    NEWDPF quat0 0.776357 -0.002314 0.630289 136.814187
DOCKED: USER    NEWDPF dihe0 1.44 93.68 -43.83 126.68 55.16 153.59 49.46 -158.79 -152.56 50.14 -170.77 164.25 
DOCKED: USER  keepresnum = 1 
DOCKED: USER  
DOCKED: REMARK  12 active torsions:
DOCKED: REMARK  status: ('A' for Active; 'I' for Inactive)
DOCKED: REMARK    1  A    between atoms: C_6  and  C_10 
DOCKED: REMARK    2  A    between atoms: C_10  and  C_11 
DOCKED: REMARK    3  A    between atoms: C_11  and  C_12 
DOCKED: REMARK    4  A    between atoms: C_12  and  O_14 
DOCKED: REMARK    5  A    between atoms: C_17  and  C_20 
DOCKED: REMARK    6  A    between atoms: C_24  and  C_27 
DOCKED: REMARK    7  A    between atoms: C_31  and  C_34 
DOCKED: REMARK    8  A    between atoms: C_34  and  C_35 
DOCKED: REMARK    9  A    between atoms: C_35  and  C_36 
DOCKED: REMARK   10  A    between atoms: C_36  and  O_38 
DOCKED: REMARK   11  A    between atoms: FE_43  and  C_44 
DOCKED: REMARK   12  A    between atoms: C_44  and  O_45 
DOCKED: USER                              x       y       z     vdW  Elec       q    Type
DOCKED: USER                           _______ _______ _______ _____ _____    ______ ____
DOCKED: ROOT
DOCKED: ATOM      1  C   UNL d   1      10.725  -7.127  -0.175 -0.08 -0.00    +0.064 A 
DOCKED: ATOM      2  C   UNL d   1      13.146  -3.759   2.150 -0.15 -0.00    +0.064 C 
DOCKED: ATOM      3  C   UNL d   1      13.922  -6.770   5.778 -0.18 +0.00    +0.064 A 
DOCKED: ATOM      4  C   UNL d   1      11.787 -10.339   3.256 -0.18 +0.01    +0.064 A 
DOCKED: ATOM      5  C   UNL d   1      11.298  -5.974   0.210 -0.22 -0.00    +0.066 A 
DOCKED: ATOM      6  C   UNL d   1      11.346  -4.846  -0.632 -0.22 -0.00    -0.021 A 
DOCKED: ATOM      7  C   UNL d   1      12.069  -3.879   0.039 -0.23 +0.00    -0.025 A 
DOCKED: ATOM      8  C   UNL d   1      12.417  -4.453   1.266 -0.17 -0.00    +0.066 A 
DOCKED: ATOM      9  C   UNL d   1      12.428  -2.466  -0.445 -0.25 +0.01    +0.051 C 
DOCKED: ATOM     10  C   UNL d   1      13.529  -4.256   3.448 +0.00 +0.00    +0.066 A 
DOCKED: ATOM     11  C   UNL d   1      14.171  -3.530   4.474 -0.14 -0.00    -0.021 A 
DOCKED: ATOM     12  C   UNL d   1      14.381  -4.431   5.522 -0.18 +0.00    +0.000 A 
DOCKED: ATOM     13  C   UNL d   1      13.843  -5.633   5.064 -0.16 +0.01    +0.070 A 
DOCKED: ATOM     14  C   UNL d   1      14.466  -2.052   4.470 -0.15 +0.00    +0.052 C 
DOCKED: ATOM     15  C   UNL d   1      13.469  -8.104   5.437 -0.19 +0.01    +0.066 A 
DOCKED: ATOM     16  C   UNL d   1      13.711  -9.265   6.158 -0.14 -0.00    -0.021 A 
DOCKED: ATOM     17  C   UNL d   1      13.100 -10.297   5.433 -0.20 +0.00    +0.000 A 
DOCKED: ATOM     18  C   UNL d   1      12.516  -9.680   4.332 -0.22 +0.01    +0.070 A 
DOCKED: ATOM     19  C   UNL d   1      14.485  -9.346   7.456 -0.07 +0.00    +0.052 C 
DOCKED: ATOM     20  C   UNL d   1      11.286  -9.773   2.132 -0.22 +0.01    +0.066 A 
DOCKED: ATOM     21  C   UNL d   1      10.635 -10.517   1.151 -0.21 -0.00    -0.025 A 
DOCKED: ATOM     22  C   UNL d   1      10.292  -9.613   0.163 -0.23 -0.00    -0.021 A 
DOCKED: ATOM     23  C   UNL d   1      10.764  -8.353   0.588 -0.23 +0.00    +0.066 A 
DOCKED: ATOM     24  C   UNL d   1      10.370 -12.021   1.145 -0.18 +0.01    +0.051 C 
DOCKED: ATOM     25  N   UNL d   1      11.948  -5.748   1.402 -0.16 +0.01    -0.248 N 
DOCKED: ATOM     26  N   UNL d   1      13.278  -5.512   3.833 -0.09 -0.02    -0.248 N 
DOCKED: ATOM     27  N   UNL d   1      12.782  -8.379   4.351 -0.15 -0.02    -0.248 N 
DOCKED: ATOM     28  N   UNL d   1      11.369  -8.446   1.778 -0.18 -0.01    -0.248 N 
DOCKED: ATOM     29 FE   UNL d   1      12.388  -7.144   2.962 -0.05 +0.00    +0.000 Fe
DOCKED: ENDROOT
DOCKED: BRANCH   6  30
DOCKED: ATOM     30  C   UNL d   1      10.789  -4.743  -2.048 -0.24 +0.01    +0.052 C 
DOCKED: BRANCH  30  31
DOCKED: ATOM     31  C   UNL d   1      11.816  -5.236  -3.067 -0.13 +0.02    +0.115 C 
DOCKED: BRANCH  31  32
DOCKED: ATOM     32  C   UNL d   1      12.793  -6.225  -2.469 -0.04 +0.01    +0.139 C 
DOCKED: ATOM     33  O   UNL d   1      13.735  -5.815  -1.808 +0.04 -0.05    -0.650 OA
DOCKED: BRANCH  32  34
DOCKED: ATOM     34  O   UNL d   1      12.631  -7.562  -2.601 +0.05 -0.02    -0.776 OA
DOCKED: ATOM     35  H   UNL d   1      11.878  -7.978  -3.044 +0.03 +0.00    +0.167 HD
DOCKED: ENDBRANCH  32  34
DOCKED: ENDBRANCH  31  32
DOCKED: ENDBRANCH  30  31
DOCKED: ENDBRANCH   6  30
DOCKED: BRANCH  29  36
DOCKED: ATOM     36  C   UNL d   1      14.165  -7.563   1.933 -0.04 +0.01    +0.190 C 
DOCKED: BRANCH  36  37
DOCKED: ATOM     37  O   UNL d   1      14.889  -7.236   0.782 +0.00 -0.01    -0.399 OA
DOCKED: ATOM     38  H   UNL d   1      14.219  -6.833   0.162 +0.02 +0.00    +0.209 HD
DOCKED: ENDBRANCH  36  37
DOCKED: ENDBRANCH  29  36
DOCKED: BRANCH  22  39
DOCKED: ATOM     39  C   UNL d   1       9.605  -9.958  -1.146 -0.11 +0.00    +0.052 C 
DOCKED: BRANCH  39  40
DOCKED: ATOM     40  C   UNL d   1      10.641 -10.172  -2.262 -0.07 +0.01    +0.115 C 
DOCKED: BRANCH  40  41
DOCKED: ATOM     41  C   UNL d   1      10.291  -9.506  -3.576 -0.10 +0.01    +0.139 C 
DOCKED: ATOM     42  O   UNL d   1       9.128  -9.202  -3.801 -0.39 -0.08    -0.650 OA
DOCKED: BRANCH  41  43
DOCKED: ATOM     43  O   UNL d   1      11.241  -9.159  -4.472 +0.03 -0.01    -0.776 OA
DOCKED: ATOM     44  H   UNL d   1      12.103  -8.813  -4.206 +0.02 +0.00    +0.167 HD
DOCKED: ENDBRANCH  41  43
DOCKED: ENDBRANCH  40  41
DOCKED: ENDBRANCH  39  40
DOCKED: ENDBRANCH  22  39
DOCKED: BRANCH  12  45
DOCKED: ATOM     45  C   UNL d   1      15.009  -4.290   6.902 -0.18 +0.00    +0.004 C 
DOCKED: ATOM     46  C   UNL d   1      14.485  -4.461   8.113 -0.30 +0.00    +0.012 C 
DOCKED: ENDBRANCH  12  45
DOCKED: BRANCH  17  47
DOCKED: ATOM     47  C   UNL d   1      13.086 -11.768   5.694 -0.17 +0.00    +0.004 C 
DOCKED: ATOM     48  C   UNL d   1      13.085 -12.299   6.919 -0.17 +0.00    +0.012 C 
DOCKED: ENDBRANCH  17  47
DOCKED: TORSDOF 12
DOCKED: TER
DOCKED: ENDMDL
________________________________________________________________________________


	BEGINNING GENETIC ALGORITHM DOCKING 4 of 100
Run: 4 Seed: 760365435 630191408 [ Run 4 of 100 GA/GALS ]
Beginning LAMARCKIAN GENETIC ALGORITHM (LGA), with a maximum of 25000000 energy evaluations.

Final-Value: -10.924


	FINAL GENETIC ALGORITHM DOCKED STATE
	_______________________________________________


Detailed state:  trans -10.439 11.731 -8.026 quatxyzw 0.565356 0.047240 -0.792419 0.224081 center 8.781 34.984 -0.736 ntor 12 109.0033 125.3192 113.0918 115.7681 137.9340 87.2683 -153.9662 -65.3726 -72.1648 119.9703 164.9187 180.0000
State:	-10.439  11.731  -8.026   0.580  0.048 -0.813 154.102    109.00  125.32  113.09  115.77  137.93   87.27 -153.97  -65.37  -72.16  119.97  164.92  180.00

DOCKED: MODEL        4
DOCKED: USER    Run = 4
DOCKED: USER    DPF = D:/Protein_go_brrr/autodock/final/mut_K82N/heme_Co/dock.dpf
DOCKED: USER  
DOCKED: USER    Estimated Free Energy of Binding    =   -4.25 kcal/mol  [=(1)+(2)+(3)-(4)]
DOCKED: USER    Estimated Inhibition Constant, Ki   =  771.97 uM (micromolar)  [Temperature = 298.15 K]
DOCKED: USER    
DOCKED: USER    (1) Final Intermolecular Energy     =   -7.83 kcal/mol
DOCKED: USER        vdW + Hbond + desolv Energy     =   -5.81 kcal/mol
DOCKED: USER        Electrostatic Energy            =   -2.02 kcal/mol
DOCKED: USER    (2) Final Total Internal Energy     =   -3.10 kcal/mol
DOCKED: USER    (3) Torsional Free Energy           =   +3.58 kcal/mol
DOCKED: USER    (4) Unbound System's Energy  [=(2)] =   -3.10 kcal/mol
DOCKED: USER    
DOCKED: USER    
DOCKED: USER    NEWDPF move heme_Co_opt.pdbqt
DOCKED: USER    NEWDPF about 8.781000 34.984000 -0.736000
DOCKED: USER    NEWDPF tran0 -10.438806 11.731001 -8.026129
DOCKED: USER    NEWDPF quaternion0 0.565356 0.047240 -0.792419 0.224081
DOCKED: USER    NEWDPF axisangle0 0.580108 0.048472 -0.813096 154.102272
DOCKED: USER    NEWDPF quat0 0.580108 0.048472 -0.813096 154.102272
DOCKED: USER    NEWDPF dihe0 109.00 125.32 113.09 115.77 137.93 87.27 -153.97 -65.37 -72.16 119.97 164.92 180.00 
DOCKED: USER  keepresnum = 1 
DOCKED: USER  
DOCKED: REMARK  12 active torsions:
DOCKED: REMARK  status: ('A' for Active; 'I' for Inactive)
DOCKED: REMARK    1  A    between atoms: C_6  and  C_10 
DOCKED: REMARK    2  A    between atoms: C_10  and  C_11 
DOCKED: REMARK    3  A    between atoms: C_11  and  C_12 
DOCKED: REMARK    4  A    between atoms: C_12  and  O_14 
DOCKED: REMARK    5  A    between atoms: C_17  and  C_20 
DOCKED: REMARK    6  A    between atoms: C_24  and  C_27 
DOCKED: REMARK    7  A    between atoms: C_31  and  C_34 
DOCKED: REMARK    8  A    between atoms: C_34  and  C_35 
DOCKED: REMARK    9  A    between atoms: C_35  and  C_36 
DOCKED: REMARK   10  A    between atoms: C_36  and  O_38 
DOCKED: REMARK   11  A    between atoms: FE_43  and  C_44 
DOCKED: REMARK   12  A    between atoms: C_44  and  O_45 
DOCKED: USER                              x       y       z     vdW  Elec       q    Type
DOCKED: USER                           _______ _______ _______ _____ _____    ______ ____
DOCKED: ROOT
DOCKED: ATOM      1  C   UNL d   1      -9.306  10.342  -6.800 -0.13 +0.02    +0.064 A 
DOCKED: ATOM      2  C   UNL d   1     -12.257  13.904  -5.698 -0.16 +0.03    +0.064 C 
DOCKED: ATOM      3  C   UNL d   1     -12.640  15.067 -10.316 -0.06 +0.03    +0.064 A 
DOCKED: ATOM      4  C   UNL d   1      -9.937  11.199 -11.500 -0.06 +0.02    +0.064 A 
DOCKED: ATOM      5  C   UNL d   1     -10.055  11.252  -6.156 -0.24 +0.02    +0.066 A 
DOCKED: ATOM      6  C   UNL d   1     -10.257  11.204  -4.763 -0.36 -0.01    -0.021 A 
DOCKED: ATOM      7  C   UNL d   1     -11.132  12.226  -4.452 -0.27 -0.01    -0.025 A 
DOCKED: ATOM      8  C   UNL d   1     -11.414  12.864  -5.665 -0.19 +0.03    +0.066 A 
DOCKED: ATOM      9  C   UNL d   1     -11.692  12.600  -3.071 -0.29 +0.01    +0.051 C 
DOCKED: ATOM     10  C   UNL d   1     -12.586  14.639  -6.893 -0.10 +0.04    +0.066 A 
DOCKED: ATOM     11  C   UNL d   1     -13.351  15.823  -6.972 -0.07 -0.01    -0.021 A 
DOCKED: ATOM     12  C   UNL d   1     -13.444  16.142  -8.330 -0.09 +0.00    +0.000 A 
DOCKED: ATOM     13  C   UNL d   1     -12.720  15.139  -8.976 -0.10 +0.04    +0.070 A 
DOCKED: ATOM     14  C   UNL d   1     -13.867  16.631  -5.809 -0.08 +0.03    +0.052 C 
DOCKED: ATOM     15  C   UNL d   1     -11.983  14.076 -11.146 -0.07 +0.02    +0.066 A 
DOCKED: ATOM     16  C   UNL d   1     -12.060  13.977 -12.528 -0.04 -0.00    -0.021 A 
DOCKED: ATOM     17  C   UNL d   1     -11.284  12.862 -12.874 -0.05 +0.00    +0.000 A 
DOCKED: ATOM     18  C   UNL d   1     -10.779  12.376 -11.672 -0.07 +0.02    +0.070 A 
DOCKED: ATOM     19  C   UNL d   1     -12.838  14.908 -13.431 -0.01 +0.01    +0.052 C 
DOCKED: ATOM     20  C   UNL d   1      -9.505  10.658 -10.336 -0.10 +0.02    +0.066 A 
DOCKED: ATOM     21  C   UNL d   1      -8.729   9.501 -10.296 -0.13 -0.00    -0.025 A 
DOCKED: ATOM     22  C   UNL d   1      -8.507   9.247  -8.955 -0.20 -0.00    -0.021 A 
DOCKED: ATOM     23  C   UNL d   1      -9.174  10.262  -8.237 -0.14 +0.01    +0.066 A 
DOCKED: ATOM     24  C   UNL d   1      -8.239   8.668 -11.477 -0.13 +0.00    +0.051 C 
DOCKED: ATOM     25  N   UNL d   1     -10.756  12.286  -6.737 -0.14 -0.09    -0.248 N 
DOCKED: ATOM     26  N   UNL d   1     -12.155  14.263  -8.102 -0.10 -0.16    -0.248 N 
DOCKED: ATOM     27  N   UNL d   1     -11.240  13.105 -10.662 -0.07 -0.08    -0.248 N 
DOCKED: ATOM     28  N   UNL d   1      -9.782  11.116  -9.069 -0.11 -0.07    -0.248 N 
DOCKED: ATOM     29 FE   UNL d   1     -11.010  12.717  -8.817 -0.03 +0.00    +0.000 Fe
DOCKED: ENDROOT
DOCKED: BRANCH   6  30
DOCKED: ATOM     30  C   UNL d   1      -9.694  10.166  -3.798 -0.45 +0.01    +0.052 C 
DOCKED: BRANCH  30  31
DOCKED: ATOM     31  C   UNL d   1     -10.811   9.275  -3.256 -0.35 +0.03    +0.115 C 
DOCKED: BRANCH  31  32
DOCKED: ATOM     32  C   UNL d   1     -10.792   7.890  -3.866 -0.32 +0.07    +0.139 C 
DOCKED: ATOM     33  O   UNL d   1      -9.960   7.079  -3.490 -0.04 -0.40    -0.650 OA
DOCKED: BRANCH  32  34
DOCKED: ATOM     34  O   UNL d   1     -11.702   7.500  -4.789 +0.01 -0.58    -0.776 OA
DOCKED: ATOM     35  H   UNL d   1     -11.516   7.414  -5.734 +0.04 +0.15    +0.167 HD
DOCKED: ENDBRANCH  32  34
DOCKED: ENDBRANCH  31  32
DOCKED: ENDBRANCH  30  31
DOCKED: ENDBRANCH   6  30
DOCKED: BRANCH  29  36
DOCKED: ATOM     36  C   UNL d   1     -12.682  11.454  -8.759 -0.01 +0.04    +0.190 C 
DOCKED: BRANCH  36  37
DOCKED: ATOM     37  O   UNL d   1     -13.065  10.119  -8.596 +0.01 -0.08    -0.399 OA
DOCKED: ATOM     38  H   UNL d   1     -12.246   9.656  -8.264 +0.02 +0.05    +0.209 HD
DOCKED: ENDBRANCH  36  37
DOCKED: ENDBRANCH  29  36
DOCKED: BRANCH  22  39
DOCKED: ATOM     39  C   UNL d   1      -7.750   8.055  -8.400 -0.27 +0.01    +0.052 C 
DOCKED: BRANCH  39  40
DOCKED: ATOM     40  C   UNL d   1      -8.635   6.797  -8.411 -0.18 +0.04    +0.115 C 
DOCKED: BRANCH  40  41
DOCKED: ATOM     41  C   UNL d   1      -9.831   6.866  -7.485 -0.16 +0.10    +0.139 C 
DOCKED: ATOM     42  O   UNL d   1     -10.776   7.584  -7.781 +0.02 -0.37    -0.650 OA
DOCKED: BRANCH  41  43
DOCKED: ATOM     43  O   UNL d   1      -9.922   6.090  -6.382 -0.40 -1.24    -0.776 OA
DOCKED: ATOM     44  H   UNL d   1      -9.989   6.459  -5.492 +0.03 +0.22    +0.167 HD
DOCKED: ENDBRANCH  41  43
DOCKED: ENDBRANCH  40  41
DOCKED: ENDBRANCH  39  40
DOCKED: ENDBRANCH  22  39
DOCKED: BRANCH  12  45
DOCKED: ATOM     45  C   UNL d   1     -14.113  17.282  -9.085 -0.05 +0.00    +0.004 C 
DOCKED: ATOM     46  C   UNL d   1     -13.587  18.335  -9.707 -0.05 +0.01    +0.012 C 
DOCKED: ENDBRANCH  12  45
DOCKED: BRANCH  17  47
DOCKED: ATOM     47  C   UNL d   1     -11.053  12.239 -14.211 -0.02 +0.00    +0.004 C 
DOCKED: ATOM     48  C   UNL d   1      -9.856  12.181 -14.801 -0.04 +0.00    +0.012 C 
DOCKED: ENDBRANCH  17  47
DOCKED: TORSDOF 12
DOCKED: TER
DOCKED: ENDMDL
________________________________________________________________________________


	BEGINNING GENETIC ALGORITHM DOCKING 5 of 100
Run: 5 Seed: 758619428 801218004 [ Run 5 of 100 GA/GALS ]
Beginning LAMARCKIAN GENETIC ALGORITHM (LGA), with a maximum of 25000000 energy evaluations.

Final-Value: -10.727


	FINAL GENETIC ALGORITHM DOCKED STATE
	_______________________________________________


Detailed state:  trans 3.688 6.243 18.784 quatxyzw 0.218287 -0.637026 -0.708367 -0.211576 center 8.781 34.984 -0.736 ntor 12 -158.7894 112.7613 42.7583 135.4703 -24.3954 124.8287 51.4891 177.8539 150.5031 -55.7044 -146.9191 175.0628
State:	  3.688   6.243  18.784   0.223 -0.652 -0.725 -155.571   -158.79  112.76   42.76  135.47  -24.40  124.83   51.49  177.85  150.50  -55.70 -146.92  175.06

DOCKED: MODEL        5
DOCKED: USER    Run = 5
DOCKED: USER    DPF = D:/Protein_go_brrr/autodock/final/mut_K82N/heme_Co/dock.dpf
DOCKED: USER  
DOCKED: USER    Estimated Free Energy of Binding    =   -4.90 kcal/mol  [=(1)+(2)+(3)-(4)]
DOCKED: USER    Estimated Inhibition Constant, Ki   =  254.98 uM (micromolar)  [Temperature = 298.15 K]
DOCKED: USER    
DOCKED: USER    (1) Final Intermolecular Energy     =   -8.48 kcal/mol
DOCKED: USER        vdW + Hbond + desolv Energy     =   -7.75 kcal/mol
DOCKED: USER        Electrostatic Energy            =   -0.73 kcal/mol
DOCKED: USER    (2) Final Total Internal Energy     =   -2.24 kcal/mol
DOCKED: USER    (3) Torsional Free Energy           =   +3.58 kcal/mol
DOCKED: USER    (4) Unbound System's Energy  [=(2)] =   -2.24 kcal/mol
DOCKED: USER    
DOCKED: USER    
DOCKED: USER    NEWDPF move heme_Co_opt.pdbqt
DOCKED: USER    NEWDPF about 8.781000 34.984000 -0.736000
DOCKED: USER    NEWDPF tran0 3.688029 6.243390 18.783634
DOCKED: USER    NEWDPF quaternion0 0.218287 -0.637026 -0.708367 -0.211576
DOCKED: USER    NEWDPF axisangle0 0.223343 -0.651782 -0.724775 -155.570507
DOCKED: USER    NEWDPF quat0 0.223343 -0.651782 -0.724775 -155.570507
DOCKED: USER    NEWDPF dihe0 -158.79 112.76 42.76 135.47 -24.40 124.83 51.49 177.85 150.50 -55.70 -146.92 175.06 
DOCKED: USER  keepresnum = 1 
DOCKED: USER  
DOCKED: REMARK  12 active torsions:
DOCKED: REMARK  status: ('A' for Active; 'I' for Inactive)
DOCKED: REMARK    1  A    between atoms: C_6  and  C_10 
DOCKED: REMARK    2  A    between atoms: C_10  and  C_11 
DOCKED: REMARK    3  A    between atoms: C_11  and  C_12 
DOCKED: REMARK    4  A    between atoms: C_12  and  O_14 
DOCKED: REMARK    5  A    between atoms: C_17  and  C_20 
DOCKED: REMARK    6  A    between atoms: C_24  and  C_27 
DOCKED: REMARK    7  A    between atoms: C_31  and  C_34 
DOCKED: REMARK    8  A    between atoms: C_34  and  C_35 
DOCKED: REMARK    9  A    between atoms: C_35  and  C_36 
DOCKED: REMARK   10  A    between atoms: C_36  and  O_38 
DOCKED: REMARK   11  A    between atoms: FE_43  and  C_44 
DOCKED: REMARK   12  A    between atoms: C_44  and  O_45 
DOCKED: USER                              x       y       z     vdW  Elec       q    Type
DOCKED: USER                           _______ _______ _______ _____ _____    ______ ____
DOCKED: ROOT
DOCKED: ATOM      1  C   UNL d   1       5.768   6.624  19.278 -0.20 -0.01    +0.064 A 
DOCKED: ATOM      2  C   UNL d   1       2.522   9.185  16.929 -0.20 -0.02    +0.064 C 
DOCKED: ATOM      3  C   UNL d   1      -0.598   5.579  17.233 -0.22 -0.02    +0.064 A 
DOCKED: ATOM      4  C   UNL d   1       2.564   3.091  19.967 -0.26 -0.05    +0.064 A 
DOCKED: ATOM      5  C   UNL d   1       5.123   7.575  18.582 -0.18 -0.02    +0.066 A 
DOCKED: ATOM      6  C   UNL d   1       5.693   8.840  18.341 -0.12 +0.00    -0.021 A 
DOCKED: ATOM      7  C   UNL d   1       4.738   9.587  17.679 -0.14 +0.01    -0.025 A 
DOCKED: ATOM      8  C   UNL d   1       3.634   8.741  17.530 -0.18 -0.02    +0.066 A 
DOCKED: ATOM      9  C   UNL d   1       4.846  11.042  17.199 -0.12 -0.01    +0.051 C 
DOCKED: ATOM     10  C   UNL d   1       1.347   8.379  16.708 -0.21 -0.03    +0.066 A 
DOCKED: ATOM     11  C   UNL d   1       0.205   8.741  15.961 -0.22 +0.01    -0.021 A 
DOCKED: ATOM     12  C   UNL d   1      -0.687   7.670  16.063 -0.15 -0.00    +0.000 A 
DOCKED: ATOM     13  C   UNL d   1      -0.020   6.732  16.851 -0.22 -0.03    +0.070 A 
DOCKED: ATOM     14  C   UNL d   1       0.038   9.991  15.135 -0.13 -0.06    +0.052 C 
DOCKED: ATOM     15  C   UNL d   1      -0.077   4.526  18.083 -0.23 -0.02    +0.066 A 
DOCKED: ATOM     16  C   UNL d   1      -0.780   3.428  18.557 -0.23 +0.01    -0.021 A 
DOCKED: ATOM     17  C   UNL d   1       0.127   2.709  19.348 -0.27 -0.00    +0.000 A 
DOCKED: ATOM     18  C   UNL d   1       1.321   3.419  19.280 -0.29 -0.04    +0.070 A 
DOCKED: ATOM     19  C   UNL d   1      -2.229   3.116  18.254 -0.27 -0.01    +0.052 C 
DOCKED: ATOM     20  C   UNL d   1       3.711   3.812  19.986 -0.29 -0.03    +0.066 A 
DOCKED: ATOM     21  C   UNL d   1       4.829   3.411  20.714 -0.31 +0.01    -0.025 A 
DOCKED: ATOM     22  C   UNL d   1       5.778   4.396  20.511 -0.29 +0.00    -0.021 A 
DOCKED: ATOM     23  C   UNL d   1       5.184   5.362  19.672 -0.26 -0.01    +0.066 A 
DOCKED: ATOM     24  C   UNL d   1       4.979   2.162  21.578 -0.37 -0.02    +0.051 C 
DOCKED: ATOM     25  N   UNL d   1       3.846   7.486  18.075 -0.13 +0.11    -0.248 N 
DOCKED: ATOM     26  N   UNL d   1       1.232   7.139  17.193 -0.12 +0.12    -0.248 N 
DOCKED: ATOM     27  N   UNL d   1       1.154   4.511  18.543 -0.12 +0.13    -0.248 N 
DOCKED: ATOM     28  N   UNL d   1       3.931   5.013  19.354 -0.17 +0.11    -0.248 N 
DOCKED: ATOM     29 FE   UNL d   1       2.423   5.908  18.325 -0.03 -0.00    +0.000 Fe
DOCKED: ENDROOT
DOCKED: BRANCH   6  30
DOCKED: ATOM     30  C   UNL d   1       7.063   9.324  18.803 -0.06 -0.01    +0.052 C 
DOCKED: BRANCH  30  31
DOCKED: ATOM     31  C   UNL d   1       7.136   9.350  20.330 -0.01 -0.01    +0.115 C 
DOCKED: BRANCH  31  32
DOCKED: ATOM     32  C   UNL d   1       5.797   9.650  20.967 -0.00 -0.01    +0.139 C 
DOCKED: ATOM     33  O   UNL d   1       5.388  10.801  20.993 +0.01 +0.05    -0.650 OA
DOCKED: BRANCH  32  34
DOCKED: ATOM     34  O   UNL d   1       5.007   8.673  21.471 +0.02 +0.06    -0.776 OA
DOCKED: ATOM     35  H   UNL d   1       4.066   8.781  21.666 +0.01 -0.02    +0.167 HD
DOCKED: ENDBRANCH  32  34
DOCKED: ENDBRANCH  31  32
DOCKED: ENDBRANCH  30  31
DOCKED: ENDBRANCH   6  30
DOCKED: BRANCH  29  36
DOCKED: ATOM     36  C   UNL d   1       1.796   6.901  20.061 -0.05 -0.05    +0.190 C 
DOCKED: BRANCH  36  37
DOCKED: ATOM     37  O   UNL d   1       2.243   7.733  21.093 +0.00 +0.07    -0.399 OA
DOCKED: ATOM     38  H   UNL d   1       3.212   7.880  20.901 +0.02 -0.03    +0.209 HD
DOCKED: ENDBRANCH  36  37
DOCKED: ENDBRANCH  29  36
DOCKED: BRANCH  22  39
DOCKED: ATOM     39  C   UNL d   1       7.157   4.433  21.144 -0.25 +0.01    +0.052 C 
DOCKED: BRANCH  39  40
DOCKED: ATOM     40  C   UNL d   1       7.090   5.040  22.555 -0.14 +0.03    +0.115 C 
DOCKED: BRANCH  40  41
DOCKED: ATOM     41  C   UNL d   1       7.533   4.104  23.660 -0.10 +0.07    +0.139 C 
DOCKED: ATOM     42  O   UNL d   1       7.150   2.943  23.649 -0.04 -0.28    -0.650 OA
DOCKED: BRANCH  41  43
DOCKED: ATOM     43  O   UNL d   1       8.410   4.493  24.611 -0.12 -0.82    -0.776 OA
DOCKED: ATOM     44  H   UNL d   1       8.311   5.318  25.103 +0.01 +0.13    +0.167 HD
DOCKED: ENDBRANCH  41  43
DOCKED: ENDBRANCH  40  41
DOCKED: ENDBRANCH  39  40
DOCKED: ENDBRANCH  22  39
DOCKED: BRANCH  12  45
DOCKED: ATOM     45  C   UNL d   1      -2.077   7.419  15.495 -0.28 -0.00    +0.004 C 
DOCKED: ATOM     46  C   UNL d   1      -2.552   6.397  14.787 -0.39 -0.01    +0.012 C 
DOCKED: ENDBRANCH  12  45
DOCKED: BRANCH  17  47
DOCKED: ATOM     47  C   UNL d   1      -0.087   1.475  20.162 -0.22 -0.00    +0.004 C 
DOCKED: ATOM     48  C   UNL d   1      -1.131   1.300  20.976 -0.22 -0.00    +0.012 C 
DOCKED: ENDBRANCH  17  47
DOCKED: TORSDOF 12
DOCKED: TER
DOCKED: ENDMDL
________________________________________________________________________________


	BEGINNING GENETIC ALGORITHM DOCKING 6 of 100
Run: 6 Seed: 1172824365 510667002 [ Run 6 of 100 GA/GALS ]
Beginning LAMARCKIAN GENETIC ALGORITHM (LGA), with a maximum of 25000000 energy evaluations.

Final-Value: -9.569


	FINAL GENETIC ALGORITHM DOCKED STATE
	_______________________________________________


Detailed state:  trans 12.054 -11.334 3.234 quatxyzw 0.018734 0.764849 -0.524340 -0.373794 center 8.781 34.984 -0.736 ntor 12 37.2395 115.0429 156.8433 -95.1399 99.5341 120.9539 47.6763 -31.5201 158.8505 126.7655 -157.1894 -179.8775
State:	 12.054 -11.334   3.234   0.020  0.825 -0.565 -136.100     37.24  115.04  156.84  -95.14   99.53  120.95   47.68  -31.52  158.85  126.77 -157.19 -179.88

DOCKED: MODEL        6
DOCKED: USER    Run = 6
DOCKED: USER    DPF = D:/Protein_go_brrr/autodock/final/mut_K82N/heme_Co/dock.dpf
DOCKED: USER  
DOCKED: USER    Estimated Free Energy of Binding    =   -2.55 kcal/mol  [=(1)+(2)+(3)-(4)]
DOCKED: USER    Estimated Inhibition Constant, Ki   =   13.57 mM (millimolar)  [Temperature = 298.15 K]
DOCKED: USER    
DOCKED: USER    (1) Final Intermolecular Energy     =   -6.13 kcal/mol
DOCKED: USER        vdW + Hbond + desolv Energy     =   -5.99 kcal/mol
DOCKED: USER        Electrostatic Energy            =   -0.14 kcal/mol
DOCKED: USER    (2) Final Total Internal Energy     =   -3.44 kcal/mol
DOCKED: USER    (3) Torsional Free Energy           =   +3.58 kcal/mol
DOCKED: USER    (4) Unbound System's Energy  [=(2)] =   -3.44 kcal/mol
DOCKED: USER    
DOCKED: USER    
DOCKED: USER    NEWDPF move heme_Co_opt.pdbqt
DOCKED: USER    NEWDPF about 8.781000 34.984000 -0.736000
DOCKED: USER    NEWDPF tran0 12.054371 -11.333748 3.234028
DOCKED: USER    NEWDPF quaternion0 0.018734 0.764849 -0.524340 -0.373794
DOCKED: USER    NEWDPF axisangle0 0.020198 0.824625 -0.565319 -136.100370
DOCKED: USER    NEWDPF quat0 0.020198 0.824625 -0.565319 -136.100370
DOCKED: USER    NEWDPF dihe0 37.24 115.04 156.84 -95.14 99.53 120.95 47.68 -31.52 158.85 126.77 -157.19 -179.88 
DOCKED: USER  keepresnum = 1 
DOCKED: USER  
DOCKED: REMARK  12 active torsions:
DOCKED: REMARK  status: ('A' for Active; 'I' for Inactive)
DOCKED: REMARK    1  A    between atoms: C_6  and  C_10 
DOCKED: REMARK    2  A    between atoms: C_10  and  C_11 
DOCKED: REMARK    3  A    between atoms: C_11  and  C_12 
DOCKED: REMARK    4  A    between atoms: C_12  and  O_14 
DOCKED: REMARK    5  A    between atoms: C_17  and  C_20 
DOCKED: REMARK    6  A    between atoms: C_24  and  C_27 
DOCKED: REMARK    7  A    between atoms: C_31  and  C_34 
DOCKED: REMARK    8  A    between atoms: C_34  and  C_35 
DOCKED: REMARK    9  A    between atoms: C_35  and  C_36 
DOCKED: REMARK   10  A    between atoms: C_36  and  O_38 
DOCKED: REMARK   11  A    between atoms: FE_43  and  C_44 
DOCKED: REMARK   12  A    between atoms: C_44  and  O_45 
DOCKED: USER                              x       y       z     vdW  Elec       q    Type
DOCKED: USER                           _______ _______ _______ _____ _____    ______ ____
DOCKED: ROOT
DOCKED: ATOM      1  C   UNL d   1      13.188  -9.713   4.130 -0.13 +0.01    +0.064 A 
DOCKED: ATOM      2  C   UNL d   1      13.225 -14.414   4.844 -0.08 +0.02    +0.064 C 
DOCKED: ATOM      3  C   UNL d   1       9.551 -14.938   1.835 -0.25 +0.02    +0.064 A 
DOCKED: ATOM      4  C   UNL d   1       9.743 -10.190   0.794 -0.25 +0.01    +0.064 A 
DOCKED: ATOM      5  C   UNL d   1      13.444 -10.954   4.574 -0.10 +0.01    +0.066 A 
DOCKED: ATOM      6  C   UNL d   1      14.521 -11.231   5.439 -0.06 -0.00    -0.021 A 
DOCKED: ATOM      7  C   UNL d   1      14.541 -12.600   5.625 -0.04 -0.00    -0.025 A 
DOCKED: ATOM      8  C   UNL d   1      13.467 -13.097   4.879 -0.06 +0.02    +0.066 A 
DOCKED: ATOM      9  C   UNL d   1      15.528 -13.422   6.468 -0.01 +0.00    +0.051 C 
DOCKED: ATOM     10  C   UNL d   1      12.128 -15.014   4.127 -0.07 +0.03    +0.066 A 
DOCKED: ATOM     11  C   UNL d   1      11.738 -16.371   4.164 -0.10 -0.01    -0.021 A 
DOCKED: ATOM     12  C   UNL d   1      10.662 -16.495   3.281 -0.17 +0.00    +0.000 A 
DOCKED: ATOM     13  C   UNL d   1      10.468 -15.207   2.781 -0.18 +0.03    +0.070 A 
DOCKED: ATOM     14  C   UNL d   1      12.306 -17.439   5.063 -0.05 +0.01    +0.052 C 
DOCKED: ATOM     15  C   UNL d   1       9.254 -13.683   1.172 -0.23 +0.02    +0.066 A 
DOCKED: ATOM     16  C   UNL d   1       8.393 -13.503   0.099 -0.26 -0.00    -0.021 A 
DOCKED: ATOM     17  C   UNL d   1       8.447 -12.136  -0.207 -0.26 +0.00    +0.000 A 
DOCKED: ATOM     18  C   UNL d   1       9.327 -11.585   0.719 -0.22 +0.01    +0.070 A 
DOCKED: ATOM     19  C   UNL d   1       7.586 -14.593  -0.571 -0.34 +0.01    +0.052 C 
DOCKED: ATOM     20  C   UNL d   1      10.662  -9.648   1.629 -0.23 +0.01    +0.066 A 
DOCKED: ATOM     21  C   UNL d   1      11.005  -8.298   1.582 -0.30 -0.00    -0.025 A 
DOCKED: ATOM     22  C   UNL d   1      11.975  -8.125   2.552 -0.24 -0.00    -0.021 A 
DOCKED: ATOM     23  C   UNL d   1      12.186  -9.391   3.140 -0.21 +0.01    +0.066 A 
DOCKED: ATOM     24  C   UNL d   1      10.450  -7.229   0.644 -0.29 -0.00    +0.051 C 
DOCKED: ATOM     25  N   UNL d   1      12.766 -12.099   4.223 -0.05 -0.08    -0.248 N 
DOCKED: ATOM     26  N   UNL d   1      11.319 -14.302   3.336 -0.03 -0.13    -0.248 N 
DOCKED: ATOM     27  N   UNL d   1       9.811 -12.540   1.505 -0.11 -0.06    -0.248 N 
DOCKED: ATOM     28  N   UNL d   1      11.395 -10.315   2.582 -0.11 -0.04    -0.248 N 
DOCKED: ATOM     29 FE   UNL d   1      11.201 -12.329   2.783 -0.05 +0.00    +0.000 Fe
DOCKED: ENDROOT
DOCKED: BRANCH   6  30
DOCKED: ATOM     30  C   UNL d   1      15.528 -10.226   5.989 -0.04 +0.00    +0.052 C 
DOCKED: BRANCH  30  31
DOCKED: ATOM     31  C   UNL d   1      16.497  -9.783   4.893 -0.01 +0.00    +0.115 C 
DOCKED: BRANCH  31  32
DOCKED: ATOM     32  C   UNL d   1      16.600 -10.793   3.770 -0.00 +0.00    +0.139 C 
DOCKED: ATOM     33  O   UNL d   1      17.331 -11.763   3.899 +0.00 -0.01    -0.650 OA
DOCKED: BRANCH  32  34
DOCKED: ATOM     34  O   UNL d   1      15.866 -10.683   2.638 +0.01 -0.02    -0.776 OA
DOCKED: ATOM     35  H   UNL d   1      15.610  -9.841   2.235 +0.01 +0.00    +0.167 HD
DOCKED: ENDBRANCH  32  34
DOCKED: ENDBRANCH  31  32
DOCKED: ENDBRANCH  30  31
DOCKED: ENDBRANCH   6  30
DOCKED: BRANCH  29  36
DOCKED: ATOM     36  C   UNL d   1      12.709 -12.640   1.360 -0.04 +0.02    +0.190 C 
DOCKED: BRANCH  36  37
DOCKED: ATOM     37  O   UNL d   1      14.010 -12.262   1.015 -0.00 -0.02    -0.399 OA
DOCKED: ATOM     38  H   UNL d   1      14.295 -11.636   1.738 +0.02 +0.01    +0.209 HD
DOCKED: ENDBRANCH  36  37
DOCKED: ENDBRANCH  29  36
DOCKED: BRANCH  22  39
DOCKED: ATOM     39  C   UNL d   1      12.701  -6.827   2.848 -0.18 +0.00    +0.052 C 
DOCKED: BRANCH  39  40
DOCKED: ATOM     40  C   UNL d   1      13.806  -6.574   1.808 -0.08 +0.00    +0.115 C 
DOCKED: BRANCH  40  41
DOCKED: ATOM     41  C   UNL d   1      14.853  -7.665   1.731 -0.02 +0.00    +0.139 C 
DOCKED: ATOM     42  O   UNL d   1      14.855  -8.425   0.773 +0.02 -0.01    -0.650 OA
DOCKED: BRANCH  41  43
DOCKED: ATOM     43  O   UNL d   1      15.840  -7.769   2.648 +0.02 -0.01    -0.776 OA
DOCKED: ATOM     44  H   UNL d   1      16.365  -8.572   2.757 +0.00 +0.00    +0.167 HD
DOCKED: ENDBRANCH  41  43
DOCKED: ENDBRANCH  40  41
DOCKED: ENDBRANCH  39  40
DOCKED: ENDBRANCH  22  39
DOCKED: BRANCH  12  45
DOCKED: ATOM     45  C   UNL d   1       9.788 -17.671   2.868 -0.20 +0.00    +0.004 C 
DOCKED: ATOM     46  C   UNL d   1       9.790 -18.404   1.757 -0.16 +0.00    +0.012 C 
DOCKED: ENDBRANCH  12  45
DOCKED: BRANCH  17  47
DOCKED: ATOM     47  C   UNL d   1       7.780 -11.377  -1.307 -0.35 +0.00    +0.004 C 
DOCKED: ATOM     48  C   UNL d   1       6.494 -11.018  -1.280 -0.50 +0.00    +0.012 C 
DOCKED: ENDBRANCH  17  47
DOCKED: TORSDOF 12
DOCKED: TER
DOCKED: ENDMDL
________________________________________________________________________________


	BEGINNING GENETIC ALGORITHM DOCKING 7 of 100
Run: 7 Seed: 1716992874 1683070724 [ Run 7 of 100 GA/GALS ]
Beginning LAMARCKIAN GENETIC ALGORITHM (LGA), with a maximum of 25000000 energy evaluations.

Final-Value: -10.358


	FINAL GENETIC ALGORITHM DOCKED STATE
	_______________________________________________


Detailed state:  trans -11.640 13.478 -6.591 quatxyzw 0.144461 0.316205 -0.818668 0.457087 center 8.781 34.984 -0.736 ntor 12 10.6600 102.4897 -150.3726 102.2240 136.4328 82.2622 165.9274 120.3976 57.9129 147.7100 -162.6950 171.8539
State:	-11.640  13.478  -6.591   0.162  0.356 -0.920 125.601     10.66  102.49 -150.37  102.22  136.43   82.26  165.93  120.40   57.91  147.71 -162.69  171.85

DOCKED: MODEL        7
DOCKED: USER    Run = 7
DOCKED: USER    DPF = D:/Protein_go_brrr/autodock/final/mut_K82N/heme_Co/dock.dpf
DOCKED: USER  
DOCKED: USER    Estimated Free Energy of Binding    =   -4.67 kcal/mol  [=(1)+(2)+(3)-(4)]
DOCKED: USER    Estimated Inhibition Constant, Ki   =  375.00 uM (micromolar)  [Temperature = 298.15 K]
DOCKED: USER    
DOCKED: USER    (1) Final Intermolecular Energy     =   -8.25 kcal/mol
DOCKED: USER        vdW + Hbond + desolv Energy     =   -6.33 kcal/mol
DOCKED: USER        Electrostatic Energy            =   -1.92 kcal/mol
DOCKED: USER    (2) Final Total Internal Energy     =   -2.10 kcal/mol
DOCKED: USER    (3) Torsional Free Energy           =   +3.58 kcal/mol
DOCKED: USER    (4) Unbound System's Energy  [=(2)] =   -2.10 kcal/mol
DOCKED: USER    
DOCKED: USER    
DOCKED: USER    NEWDPF move heme_Co_opt.pdbqt
DOCKED: USER    NEWDPF about 8.781000 34.984000 -0.736000
DOCKED: USER    NEWDPF tran0 -11.640194 13.477962 -6.591453
DOCKED: USER    NEWDPF quaternion0 0.144461 0.316205 -0.818668 0.457087
DOCKED: USER    NEWDPF axisangle0 0.162421 0.355518 -0.920449 125.601418
DOCKED: USER    NEWDPF quat0 0.162421 0.355518 -0.920449 125.601418
DOCKED: USER    NEWDPF dihe0 10.66 102.49 -150.37 102.22 136.43 82.26 165.93 120.40 57.91 147.71 -162.69 171.85 
DOCKED: USER  keepresnum = 1 
DOCKED: USER  
DOCKED: REMARK  12 active torsions:
DOCKED: REMARK  status: ('A' for Active; 'I' for Inactive)
DOCKED: REMARK    1  A    between atoms: C_6  and  C_10 
DOCKED: REMARK    2  A    between atoms: C_10  and  C_11 
DOCKED: REMARK    3  A    between atoms: C_11  and  C_12 
DOCKED: REMARK    4  A    between atoms: C_12  and  O_14 
DOCKED: REMARK    5  A    between atoms: C_17  and  C_20 
DOCKED: REMARK    6  A    between atoms: C_24  and  C_27 
DOCKED: REMARK    7  A    between atoms: C_31  and  C_34 
DOCKED: REMARK    8  A    between atoms: C_34  and  C_35 
DOCKED: REMARK    9  A    between atoms: C_35  and  C_36 
DOCKED: REMARK   10  A    between atoms: C_36  and  O_38 
DOCKED: REMARK   11  A    between atoms: FE_43  and  C_44 
DOCKED: REMARK   12  A    between atoms: C_44  and  O_45 
DOCKED: USER                              x       y       z     vdW  Elec       q    Type
DOCKED: USER                           _______ _______ _______ _____ _____    ______ ____
DOCKED: ROOT
DOCKED: ATOM      1  C   UNL d   1     -10.476  11.990  -7.662 -0.20 +0.02    +0.064 A 
DOCKED: ATOM      2  C   UNL d   1     -11.371  12.623  -3.035 -0.33 +0.02    +0.064 C 
DOCKED: ATOM      3  C   UNL d   1     -13.682  16.692  -4.001 -0.09 +0.02    +0.064 A 
DOCKED: ATOM      4  C   UNL d   1     -13.115  15.869  -8.762 -0.08 +0.04    +0.064 A 
DOCKED: ATOM      5  C   UNL d   1     -10.519  11.883  -6.324 -0.23 +0.02    +0.066 A 
DOCKED: ATOM      6  C   UNL d   1     -10.000  10.762  -5.646 -0.30 -0.01    -0.021 A 
DOCKED: ATOM      7  C   UNL d   1     -10.283  10.941  -4.306 -0.39 -0.01    -0.025 A 
DOCKED: ATOM      8  C   UNL d   1     -10.948  12.169  -4.221 -0.28 +0.02    +0.066 A 
DOCKED: ATOM      9  C   UNL d   1      -9.948  10.000  -3.139 -0.45 +0.01    +0.051 C 
DOCKED: ATOM     10  C   UNL d   1     -12.040  13.887  -2.847 -0.21 +0.02    +0.066 A 
DOCKED: ATOM     11  C   UNL d   1     -12.384  14.484  -1.614 -0.26 -0.00    -0.021 A 
DOCKED: ATOM     12  C   UNL d   1     -13.053  15.671  -1.925 -0.17 +0.00    +0.000 A 
DOCKED: ATOM     13  C   UNL d   1     -13.056  15.716  -3.320 -0.13 +0.02    +0.070 A 
DOCKED: ATOM     14  C   UNL d   1     -12.004  13.984  -0.244 -0.29 +0.01    +0.052 C 
DOCKED: ATOM     15  C   UNL d   1     -13.830  16.866  -5.433 -0.06 +0.03    +0.066 A 
DOCKED: ATOM     16  C   UNL d   1     -14.613  17.818  -6.070 -0.05 -0.01    -0.021 A 
DOCKED: ATOM     17  C   UNL d   1     -14.454  17.583  -7.443 -0.05 +0.00    +0.000 A 
DOCKED: ATOM     18  C   UNL d   1     -13.570  16.513  -7.536 -0.06 +0.05    +0.070 A 
DOCKED: ATOM     19  C   UNL d   1     -15.450  18.871  -5.379 -0.01 +0.01    +0.052 C 
DOCKED: ATOM     20  C   UNL d   1     -12.325  14.775  -8.874 -0.13 +0.04    +0.066 A 
DOCKED: ATOM     21  C   UNL d   1     -11.984  14.227 -10.108 -0.11 -0.01    -0.025 A 
DOCKED: ATOM     22  C   UNL d   1     -11.200  13.124  -9.824 -0.14 -0.01    -0.021 A 
DOCKED: ATOM     23  C   UNL d   1     -11.110  13.046  -8.417 -0.20 +0.03    +0.066 A 
DOCKED: ATOM     24  C   UNL d   1     -12.402  14.718 -11.492 -0.06 +0.01    +0.051 C 
DOCKED: ATOM     25  N   UNL d   1     -11.102  12.778  -5.455 -0.16 -0.10    -0.248 N 
DOCKED: ATOM     26  N   UNL d   1     -12.395  14.666  -3.874 -0.07 -0.10    -0.248 N 
DOCKED: ATOM     27  N   UNL d   1     -13.243  16.092  -6.319 -0.05 -0.19    -0.248 N 
DOCKED: ATOM     28  N   UNL d   1     -11.791  14.042  -7.839 -0.12 -0.16    -0.248 N 
DOCKED: ATOM     29 FE   UNL d   1     -12.235  14.533  -5.916 -0.05 +0.00    +0.000 Fe
DOCKED: ENDROOT
DOCKED: BRANCH   6  30
DOCKED: ATOM     30  C   UNL d   1      -9.338   9.543  -6.279 -0.30 +0.02    +0.052 C 
DOCKED: BRANCH  30  31
DOCKED: ATOM     31  C   UNL d   1     -10.392   8.597  -6.853 -0.16 +0.05    +0.115 C 
DOCKED: BRANCH  31  32
DOCKED: ATOM     32  C   UNL d   1     -10.278   7.197  -6.290 -0.13 +0.13    +0.139 C 
DOCKED: ATOM     33  O   UNL d   1      -9.962   7.043  -5.120 -0.44 -0.66    -0.650 OA
DOCKED: BRANCH  32  34
DOCKED: ATOM     34  O   UNL d   1     -10.564   6.100  -7.030 -0.24 -1.26    -0.776 OA
DOCKED: ATOM     35  H   UNL d   1     -10.767   6.120  -7.976 +0.03 +0.18    +0.167 HD
DOCKED: ENDBRANCH  32  34
DOCKED: ENDBRANCH  31  32
DOCKED: ENDBRANCH  30  31
DOCKED: ENDBRANCH   6  30
DOCKED: BRANCH  29  36
DOCKED: ATOM     36  C   UNL d   1     -13.925  13.293  -5.965 -0.04 +0.05    +0.190 C 
DOCKED: BRANCH  36  37
DOCKED: ATOM     37  O   UNL d   1     -14.559  12.303  -6.723 +0.00 -0.08    -0.399 OA
DOCKED: ATOM     38  H   UNL d   1     -14.067  12.291  -7.592 +0.02 +0.04    +0.209 HD
DOCKED: ENDBRANCH  36  37
DOCKED: ENDBRANCH  29  36
DOCKED: BRANCH  22  39
DOCKED: ATOM     39  C   UNL d   1     -10.626  12.164 -10.849 -0.10 +0.02    +0.052 C 
DOCKED: BRANCH  39  40
DOCKED: ATOM     40  C   UNL d   1     -11.637  11.054 -11.178 -0.03 +0.02    +0.115 C 
DOCKED: BRANCH  40  41
DOCKED: ATOM     41  C   UNL d   1     -12.439  10.566  -9.990 -0.01 +0.03    +0.139 C 
DOCKED: ATOM     42  O   UNL d   1     -12.128   9.514  -9.450 +0.02 -0.14    -0.650 OA
DOCKED: BRANCH  41  43
DOCKED: ATOM     43  O   UNL d   1     -13.435  11.305  -9.454 +0.03 -0.14    -0.776 OA
DOCKED: ATOM     44  H   UNL d   1     -13.614  11.325  -8.505 +0.01 +0.03    +0.167 HD
DOCKED: ENDBRANCH  41  43
DOCKED: ENDBRANCH  40  41
DOCKED: ENDBRANCH  39  40
DOCKED: ENDBRANCH  22  39
DOCKED: BRANCH  12  45
DOCKED: ATOM     45  C   UNL d   1     -13.669  16.770  -1.070 -0.12 +0.00    +0.004 C 
DOCKED: ATOM     46  C   UNL d   1     -13.159  17.922  -0.641 -0.14 +0.00    +0.012 C 
DOCKED: ENDBRANCH  12  45
DOCKED: BRANCH  17  47
DOCKED: ATOM     47  C   UNL d   1     -15.105  18.255  -8.608 -0.01 +0.00    +0.004 C 
DOCKED: ATOM     48  C   UNL d   1     -14.438  18.983  -9.506 -0.01 +0.00    +0.012 C 
DOCKED: ENDBRANCH  17  47
DOCKED: TORSDOF 12
DOCKED: TER
DOCKED: ENDMDL
________________________________________________________________________________


	BEGINNING GENETIC ALGORITHM DOCKING 8 of 100
Run: 8 Seed: 923188756 171390306 [ Run 8 of 100 GA/GALS ]
Beginning LAMARCKIAN GENETIC ALGORITHM (LGA), with a maximum of 25000000 energy evaluations.

Final-Value: -11.182


	FINAL GENETIC ALGORITHM DOCKED STATE
	_______________________________________________


Detailed state:  trans -12.643 10.469 -1.384 quatxyzw -0.222352 -0.356151 0.589861 -0.689768 center 8.781 34.984 -0.736 ntor 12 72.3183 106.3162 -89.1440 119.8178 94.1585 137.8438 -138.1483 109.3207 -32.5401 -48.3331 -146.9478 1.1717
State:	-12.643  10.469  -1.384  -0.307 -0.492  0.815 -92.776     72.32  106.32  -89.14  119.82   94.16  137.84 -138.15  109.32  -32.54  -48.33 -146.95    1.17

DOCKED: MODEL        8
DOCKED: USER    Run = 8
DOCKED: USER    DPF = D:/Protein_go_brrr/autodock/final/mut_K82N/heme_Co/dock.dpf
DOCKED: USER  
DOCKED: USER    Estimated Free Energy of Binding    =   -5.41 kcal/mol  [=(1)+(2)+(3)-(4)]
DOCKED: USER    Estimated Inhibition Constant, Ki   =  108.35 uM (micromolar)  [Temperature = 298.15 K]
DOCKED: USER    
DOCKED: USER    (1) Final Intermolecular Energy     =   -8.99 kcal/mol
DOCKED: USER        vdW + Hbond + desolv Energy     =   -6.50 kcal/mol
DOCKED: USER        Electrostatic Energy            =   -2.49 kcal/mol
DOCKED: USER    (2) Final Total Internal Energy     =   -2.19 kcal/mol
DOCKED: USER    (3) Torsional Free Energy           =   +3.58 kcal/mol
DOCKED: USER    (4) Unbound System's Energy  [=(2)] =   -2.19 kcal/mol
DOCKED: USER    
DOCKED: USER    
DOCKED: USER    NEWDPF move heme_Co_opt.pdbqt
DOCKED: USER    NEWDPF about 8.781000 34.984000 -0.736000
DOCKED: USER    NEWDPF tran0 -12.643183 10.468732 -1.384350
DOCKED: USER    NEWDPF quaternion0 -0.222352 -0.356151 0.589861 -0.689768
DOCKED: USER    NEWDPF axisangle0 -0.307104 -0.491901 0.814691 -92.776484
DOCKED: USER    NEWDPF quat0 -0.307104 -0.491901 0.814691 -92.776484
DOCKED: USER    NEWDPF dihe0 72.32 106.32 -89.14 119.82 94.16 137.84 -138.15 109.32 -32.54 -48.33 -146.95 1.17 
DOCKED: USER  keepresnum = 1 
DOCKED: USER  
DOCKED: REMARK  12 active torsions:
DOCKED: REMARK  status: ('A' for Active; 'I' for Inactive)
DOCKED: REMARK    1  A    between atoms: C_6  and  C_10 
DOCKED: REMARK    2  A    between atoms: C_10  and  C_11 
DOCKED: REMARK    3  A    between atoms: C_11  and  C_12 
DOCKED: REMARK    4  A    between atoms: C_12  and  O_14 
DOCKED: REMARK    5  A    between atoms: C_17  and  C_20 
DOCKED: REMARK    6  A    between atoms: C_24  and  C_27 
DOCKED: REMARK    7  A    between atoms: C_31  and  C_34 
DOCKED: REMARK    8  A    between atoms: C_34  and  C_35 
DOCKED: REMARK    9  A    between atoms: C_35  and  C_36 
DOCKED: REMARK   10  A    between atoms: C_36  and  O_38 
DOCKED: REMARK   11  A    between atoms: FE_43  and  C_44 
DOCKED: REMARK   12  A    between atoms: C_44  and  O_45 
DOCKED: USER                              x       y       z     vdW  Elec       q    Type
DOCKED: USER                           _______ _______ _______ _____ _____    ______ ____
DOCKED: ROOT
DOCKED: ATOM      1  C   UNL d   1     -12.427   8.787  -2.741 -0.17 +0.02    +0.064 A 
DOCKED: ATOM      2  C   UNL d   1     -13.435   9.041   1.900 -0.18 +0.01    +0.064 C 
DOCKED: ATOM      3  C   UNL d   1     -12.771  13.772   1.823 -0.15 +0.01    +0.064 A 
DOCKED: ATOM      4  C   UNL d   1     -12.116  13.589  -2.994 -0.21 +0.02    +0.064 A 
DOCKED: ATOM      5  C   UNL d   1     -12.716   8.504  -1.460 -0.18 +0.01    +0.066 A 
DOCKED: ATOM      6  C   UNL d   1     -13.052   7.202  -1.039 -0.20 -0.00    -0.021 A 
DOCKED: ATOM      7  C   UNL d   1     -13.365   7.286   0.304 -0.18 -0.00    -0.025 A 
DOCKED: ATOM      8  C   UNL d   1     -13.192   8.631   0.648 -0.17 +0.01    +0.066 A 
DOCKED: ATOM      9  C   UNL d   1     -13.813   6.153   1.239 -0.17 +0.01    +0.051 C 
DOCKED: ATOM     10  C   UNL d   1     -13.260  10.398   2.353 -0.12 +0.01    +0.066 A 
DOCKED: ATOM     11  C   UNL d   1     -13.362  10.864   3.682 -0.11 -0.00    -0.021 A 
DOCKED: ATOM     12  C   UNL d   1     -13.160  12.246   3.631 -0.09 +0.00    +0.000 A 
DOCKED: ATOM     13  C   UNL d   1     -12.937  12.518   2.281 -0.10 +0.01    +0.070 A 
DOCKED: ATOM     14  C   UNL d   1     -13.546  10.014   4.913 -0.14 +0.02    +0.052 C 
DOCKED: ATOM     15  C   UNL d   1     -12.583  14.237   0.463 -0.20 +0.01    +0.066 A 
DOCKED: ATOM     16  C   UNL d   1     -12.562  15.558   0.040 -0.21 -0.00    -0.021 A 
DOCKED: ATOM     17  C   UNL d   1     -12.376  15.511  -1.349 -0.27 +0.00    +0.000 A 
DOCKED: ATOM     18  C   UNL d   1     -12.281  14.159  -1.663 -0.25 +0.01    +0.070 A 
DOCKED: ATOM     19  C   UNL d   1     -12.716  16.768   0.935 -0.07 +0.01    +0.052 C 
DOCKED: ATOM     20  C   UNL d   1     -12.107  12.278  -3.334 -0.19 +0.02    +0.066 A 
DOCKED: ATOM     21  C   UNL d   1     -11.978  11.853  -4.654 -0.15 -0.01    -0.025 A 
DOCKED: ATOM     22  C   UNL d   1     -12.035  10.472  -4.609 -0.11 -0.01    -0.021 A 
DOCKED: ATOM     23  C   UNL d   1     -12.210  10.120  -3.253 -0.14 +0.02    +0.066 A 
DOCKED: ATOM     24  C   UNL d   1     -11.828  12.720  -5.901 -0.19 +0.02    +0.051 C 
DOCKED: ATOM     25  N   UNL d   1     -12.784   9.407  -0.423 -0.02 -0.05    -0.248 N 
DOCKED: ATOM     26  N   UNL d   1     -12.942  11.393   1.518 +0.15 -0.04    -0.248 N 
DOCKED: ATOM     27  N   UNL d   1     -12.438  13.429  -0.564 -0.10 -0.04    -0.248 N 
DOCKED: ATOM     28  N   UNL d   1     -12.256  11.210  -2.478 -0.09 -0.05    -0.248 N 
DOCKED: ATOM     29 FE   UNL d   1     -12.600  11.537  -0.501 -0.05 +0.00    +0.000 Fe
DOCKED: ENDROOT
DOCKED: BRANCH   6  30
DOCKED: ATOM     30  C   UNL d   1     -13.143   5.958  -1.916 -0.17 +0.02    +0.052 C 
DOCKED: BRANCH  30  31
DOCKED: ATOM     31  C   UNL d   1     -14.236   6.124  -2.971 -0.10 +0.05    +0.115 C 
DOCKED: BRANCH  31  32
DOCKED: ATOM     32  C   UNL d   1     -13.884   5.446  -4.278 -0.06 +0.14    +0.139 C 
DOCKED: ATOM     33  O   UNL d   1     -14.244   4.295  -4.475 -0.12 -0.68    -0.650 OA
DOCKED: BRANCH  32  34
DOCKED: ATOM     34  O   UNL d   1     -13.219   6.092  -5.265 -0.56 -1.11    -0.776 OA
DOCKED: ATOM     35  H   UNL d   1     -12.296   6.374  -5.205 +0.02 +0.28    +0.167 HD
DOCKED: ENDBRANCH  32  34
DOCKED: ENDBRANCH  31  32
DOCKED: ENDBRANCH  30  31
DOCKED: ENDBRANCH   6  30
DOCKED: BRANCH  29  36
DOCKED: ATOM     36  C   UNL d   1     -14.667  11.591  -0.845 -0.04 +0.02    +0.190 C 
DOCKED: BRANCH  36  37
DOCKED: ATOM     37  O   UNL d   1     -15.753  10.799  -1.234 -0.00 -0.04    -0.399 OA
DOCKED: ATOM     38  H   UNL d   1     -15.350   9.928  -1.507 +0.01 +0.03    +0.209 HD
DOCKED: ENDBRANCH  36  37
DOCKED: ENDBRANCH  29  36
DOCKED: BRANCH  22  39
DOCKED: ATOM     39  C   UNL d   1     -11.990   9.549  -5.813 -0.09 +0.02    +0.052 C 
DOCKED: BRANCH  39  40
DOCKED: ATOM     40  C   UNL d   1     -10.598   8.913  -5.956 -0.19 +0.05    +0.115 C 
DOCKED: BRANCH  40  41
DOCKED: ATOM     41  C   UNL d   1     -10.607   7.401  -6.034 -0.20 +0.12    +0.139 C 
DOCKED: ATOM     42  O   UNL d   1     -10.125   6.751  -5.117 -0.33 -0.73    -0.650 OA
DOCKED: BRANCH  41  43
DOCKED: ATOM     43  O   UNL d   1     -11.212   6.745  -7.049 -0.04 -0.87    -0.776 OA
DOCKED: ATOM     44  H   UNL d   1     -12.161   6.566  -7.059 +0.01 +0.20    +0.167 HD
DOCKED: ENDBRANCH  41  43
DOCKED: ENDBRANCH  40  41
DOCKED: ENDBRANCH  39  40
DOCKED: ENDBRANCH  22  39
DOCKED: BRANCH  12  45
DOCKED: ATOM     45  C   UNL d   1     -13.133  13.331   4.699 -0.06 +0.00    +0.004 C 
DOCKED: ATOM     46  C   UNL d   1     -12.126  14.069   5.158 -0.08 +0.00    +0.012 C 
DOCKED: ENDBRANCH  12  45
DOCKED: BRANCH  17  47
DOCKED: ATOM     47  C   UNL d   1     -12.338  16.623  -2.345 -0.25 +0.00    +0.004 C 
DOCKED: ATOM     48  C   UNL d   1     -11.318  17.478  -2.456 -0.21 +0.01    +0.012 C 
DOCKED: ENDBRANCH  17  47
DOCKED: TORSDOF 12
DOCKED: TER
DOCKED: ENDMDL
________________________________________________________________________________


	BEGINNING GENETIC ALGORITHM DOCKING 9 of 100
Run: 9 Seed: 90003446 1989893858 [ Run 9 of 100 GA/GALS ]
Beginning LAMARCKIAN GENETIC ALGORITHM (LGA), with a maximum of 25000000 energy evaluations.

Final-Value: -9.279


	FINAL GENETIC ALGORITHM DOCKED STATE
	_______________________________________________


Detailed state:  trans -6.897 -12.927 7.802 quatxyzw -0.124382 -0.291108 -0.920021 0.230970 center 8.781 34.984 -0.736 ntor 12 -171.0498 77.0814 -44.5532 89.5849 135.9848 158.5467 -66.8553 140.6995 -52.6727 120.3614 -131.4074 18.5749
State:	 -6.897 -12.927   7.802  -0.128 -0.299 -0.946 153.292   -171.05   77.08  -44.55   89.58  135.98  158.55  -66.86  140.70  -52.67  120.36 -131.41   18.57

DOCKED: MODEL        9
DOCKED: USER    Run = 9
DOCKED: USER    DPF = D:/Protein_go_brrr/autodock/final/mut_K82N/heme_Co/dock.dpf
DOCKED: USER  
DOCKED: USER    Estimated Free Energy of Binding    =   -4.85 kcal/mol  [=(1)+(2)+(3)-(4)]
DOCKED: USER    Estimated Inhibition Constant, Ki   =  276.40 uM (micromolar)  [Temperature = 298.15 K]
DOCKED: USER    
DOCKED: USER    (1) Final Intermolecular Energy     =   -8.43 kcal/mol
DOCKED: USER        vdW + Hbond + desolv Energy     =   -8.03 kcal/mol
DOCKED: USER        Electrostatic Energy            =   -0.40 kcal/mol
DOCKED: USER    (2) Final Total Internal Energy     =   -0.84 kcal/mol
DOCKED: USER    (3) Torsional Free Energy           =   +3.58 kcal/mol
DOCKED: USER    (4) Unbound System's Energy  [=(2)] =   -0.84 kcal/mol
DOCKED: USER    
DOCKED: USER    
DOCKED: USER    NEWDPF move heme_Co_opt.pdbqt
DOCKED: USER    NEWDPF about 8.781000 34.984000 -0.736000
DOCKED: USER    NEWDPF tran0 -6.896770 -12.927217 7.802039
DOCKED: USER    NEWDPF quaternion0 -0.124382 -0.291108 -0.920021 0.230970
DOCKED: USER    NEWDPF axisangle0 -0.127838 -0.299198 -0.945589 153.291677
DOCKED: USER    NEWDPF quat0 -0.127838 -0.299198 -0.945589 153.291677
DOCKED: USER    NEWDPF dihe0 -171.05 77.08 -44.55 89.58 135.98 158.55 -66.86 140.70 -52.67 120.36 -131.41 18.57 
DOCKED: USER  keepresnum = 1 
DOCKED: USER  
DOCKED: REMARK  12 active torsions:
DOCKED: REMARK  status: ('A' for Active; 'I' for Inactive)
DOCKED: REMARK    1  A    between atoms: C_6  and  C_10 
DOCKED: REMARK    2  A    between atoms: C_10  and  C_11 
DOCKED: REMARK    3  A    between atoms: C_11  and  C_12 
DOCKED: REMARK    4  A    between atoms: C_12  and  O_14 
DOCKED: REMARK    5  A    between atoms: C_17  and  C_20 
DOCKED: REMARK    6  A    between atoms: C_24  and  C_27 
DOCKED: REMARK    7  A    between atoms: C_31  and  C_34 
DOCKED: REMARK    8  A    between atoms: C_34  and  C_35 
DOCKED: REMARK    9  A    between atoms: C_35  and  C_36 
DOCKED: REMARK   10  A    between atoms: C_36  and  O_38 
DOCKED: REMARK   11  A    between atoms: FE_43  and  C_44 
DOCKED: REMARK   12  A    between atoms: C_44  and  O_45 
DOCKED: USER                              x       y       z     vdW  Elec       q    Type
DOCKED: USER                           _______ _______ _______ _____ _____    ______ ____
DOCKED: ROOT
DOCKED: ATOM      1  C   UNL d   1      -5.713 -14.657   7.236 -0.18 -0.01    +0.064 A 
DOCKED: ATOM      2  C   UNL d   1      -4.504 -10.320   8.763 -0.35 -0.02    +0.064 C 
DOCKED: ATOM      3  C   UNL d   1      -9.087  -8.972   8.680 -0.12 -0.01    +0.064 A 
DOCKED: ATOM      4  C   UNL d   1     -10.385 -13.506   7.491 -0.09 -0.01    +0.064 A 
DOCKED: ATOM      5  C   UNL d   1      -5.042 -13.560   7.624 -0.25 -0.01    +0.066 A 
DOCKED: ATOM      6  C   UNL d   1      -3.650 -13.573   7.841 -0.33 +0.00    -0.021 A 
DOCKED: ATOM      7  C   UNL d   1      -3.308 -12.318   8.306 -0.37 +0.00    -0.025 A 
DOCKED: ATOM      8  C   UNL d   1      -4.502 -11.589   8.338 +0.00 -0.02    +0.066 A 
DOCKED: ATOM      9  C   UNL d   1      -1.916 -11.810   8.710 -0.51 -0.01    +0.051 C 
DOCKED: ATOM     10  C   UNL d   1      -5.677  -9.484   8.806 -0.37 -0.01    +0.066 A 
DOCKED: ATOM     11  C   UNL d   1      -5.721  -8.105   9.108 -0.43 +0.00    -0.021 A 
DOCKED: ATOM     12  C   UNL d   1      -7.069  -7.738   9.073 -0.31 -0.00    +0.000 A 
DOCKED: ATOM     13  C   UNL d   1      -7.745  -8.912   8.740 -0.21 -0.01    +0.070 A 
DOCKED: ATOM     14  C   UNL d   1      -4.535  -7.200   9.318 -0.38 -0.01    +0.052 C 
DOCKED: ATOM     15  C   UNL d   1      -9.946 -10.107   8.405 -0.07 -0.01    +0.066 A 
DOCKED: ATOM     16  C   UNL d   1     -11.330 -10.134   8.501 -0.05 +0.00    -0.021 A 
DOCKED: ATOM     17  C   UNL d   1     -11.709 -11.441   8.162 -0.05 -0.00    +0.000 A 
DOCKED: ATOM     18  C   UNL d   1     -10.523 -12.105   7.867 -0.09 -0.01    +0.070 A 
DOCKED: ATOM     19  C   UNL d   1     -12.204  -8.966   8.898 -0.02 -0.01    +0.052 C 
DOCKED: ATOM     20  C   UNL d   1      -9.238 -14.196   7.285 -0.10 -0.01    +0.066 A 
DOCKED: ATOM     21  C   UNL d   1      -9.233 -15.551   6.962 -0.07 +0.00    -0.025 A 
DOCKED: ATOM     22  C   UNL d   1      -7.900 -15.904   6.854 -0.08 +0.00    -0.021 A 
DOCKED: ATOM     23  C   UNL d   1      -7.152 -14.740   7.130 -0.08 -0.02    +0.066 A 
DOCKED: ATOM     24  C   UNL d   1     -10.438 -16.471   6.786 -0.03 -0.01    +0.051 C 
DOCKED: ATOM     25  N   UNL d   1      -5.591 -12.332   7.915 -0.16 +0.07    -0.248 N 
DOCKED: ATOM     26  N   UNL d   1      -6.898  -9.953   8.524 -0.18 +0.04    -0.248 N 
DOCKED: ATOM     27  N   UNL d   1      -9.491 -11.289   8.052 -0.08 +0.03    -0.248 N 
DOCKED: ATOM     28  N   UNL d   1      -7.958 -13.704   7.393 -0.11 +0.06    -0.248 N 
DOCKED: ATOM     29 FE   UNL d   1      -7.658 -11.783   7.986 -0.05 -0.00    +0.000 Fe
DOCKED: ENDROOT
DOCKED: BRANCH   6  30
DOCKED: ATOM     30  C   UNL d   1      -2.716 -14.768   7.683 -0.25 +0.02    +0.052 C 
DOCKED: BRANCH  30  31
DOCKED: ATOM     31  C   UNL d   1      -3.302 -16.002   8.369 -0.08 +0.04    +0.115 C 
DOCKED: BRANCH  31  32
DOCKED: ATOM     32  C   UNL d   1      -3.405 -17.188   7.434 +0.00 +0.09    +0.139 C 
DOCKED: ATOM     33  O   UNL d   1      -3.564 -18.307   7.899 -0.08 -0.30    -0.650 OA
DOCKED: BRANCH  32  34
DOCKED: ATOM     34  O   UNL d   1      -3.376 -17.045   6.089 -0.48 -0.25    -0.776 OA
DOCKED: ATOM     35  H   UNL d   1      -3.506 -17.770   5.462 -0.50 -0.21    +0.167 HD
DOCKED: ENDBRANCH  32  34
DOCKED: ENDBRANCH  31  32
DOCKED: ENDBRANCH  30  31
DOCKED: ENDBRANCH   6  30
DOCKED: BRANCH  29  36
DOCKED: ATOM     36  C   UNL d   1      -7.632 -12.382   9.995 -0.07 -0.02    +0.190 C 
DOCKED: BRANCH  36  37
DOCKED: ATOM     37  O   UNL d   1      -6.788 -12.853  11.006 -0.04 +0.01    -0.399 OA
DOCKED: ATOM     38  H   UNL d   1      -6.139 -13.452  10.541 +0.05 -0.00    +0.209 HD
DOCKED: ENDBRANCH  36  37
DOCKED: ENDBRANCH  29  36
DOCKED: BRANCH  22  39
DOCKED: ATOM     39  C   UNL d   1      -7.380 -17.300   6.566 -0.05 -0.01    +0.052 C 
DOCKED: BRANCH  39  40
DOCKED: ATOM     40  C   UNL d   1      -6.551 -17.313   5.270 -0.12 -0.05    +0.115 C 
DOCKED: BRANCH  40  41
DOCKED: ATOM     41  C   UNL d   1      -7.344 -17.002   4.018 -0.16 -0.04    +0.139 C 
DOCKED: ATOM     42  O   UNL d   1      -8.002 -17.888   3.491 +0.05 +0.15    -0.650 OA
DOCKED: BRANCH  41  43
DOCKED: ATOM     43  O   UNL d   1      -7.415 -15.750   3.516 +0.01 +0.24    -0.776 OA
DOCKED: ATOM     44  H   UNL d   1      -7.477 -14.967   4.079 -0.52 -0.10    +0.167 HD
DOCKED: ENDBRANCH  41  43
DOCKED: ENDBRANCH  40  41
DOCKED: ENDBRANCH  39  40
DOCKED: ENDBRANCH  22  39
DOCKED: BRANCH  12  45
DOCKED: ATOM     45  C   UNL d   1      -7.791  -6.415   9.295 -0.29 -0.00    +0.004 C 
DOCKED: ATOM     46  C   UNL d   1      -7.981  -5.384   8.476 -0.34 -0.00    +0.012 C 
DOCKED: ENDBRANCH  12  45
DOCKED: BRANCH  17  47
DOCKED: ATOM     47  C   UNL d   1     -13.064 -12.069   8.153 -0.02 -0.00    +0.004 C 
DOCKED: ATOM     48  C   UNL d   1     -13.673 -12.491   7.042 -0.03 -0.00    +0.012 C 
DOCKED: ENDBRANCH  17  47
DOCKED: TORSDOF 12
DOCKED: TER
DOCKED: ENDMDL
________________________________________________________________________________


	BEGINNING GENETIC ALGORITHM DOCKING 10 of 100
Run: 10 Seed: 1122851255 1295820341 [ Run 10 of 100 GA/GALS ]
Beginning LAMARCKIAN GENETIC ALGORITHM (LGA), with a maximum of 25000000 energy evaluations.

Final-Value: -9.882


	FINAL GENETIC ALGORITHM DOCKED STATE
	_______________________________________________


Detailed state:  trans -9.352 6.810 -11.570 quatxyzw 0.518978 -0.406668 -0.486049 0.573620 center 8.781 34.984 -0.736 ntor 12 -82.5532 108.4608 91.7951 36.4464 97.1659 132.1910 -134.2044 -15.7808 0.1707 -3.2298 173.7809 38.3832
State:	 -9.352   6.810 -11.570   0.634 -0.496 -0.593 109.994    -82.55  108.46   91.80   36.45   97.17  132.19 -134.20  -15.78    0.17   -3.23  173.78   38.38

DOCKED: MODEL       10
DOCKED: USER    Run = 10
DOCKED: USER    DPF = D:/Protein_go_brrr/autodock/final/mut_K82N/heme_Co/dock.dpf
DOCKED: USER  
DOCKED: USER    Estimated Free Energy of Binding    =   -5.92 kcal/mol  [=(1)+(2)+(3)-(4)]
DOCKED: USER    Estimated Inhibition Constant, Ki   =   45.72 uM (micromolar)  [Temperature = 298.15 K]
DOCKED: USER    
DOCKED: USER    (1) Final Intermolecular Energy     =   -9.50 kcal/mol
DOCKED: USER        vdW + Hbond + desolv Energy     =   -6.92 kcal/mol
DOCKED: USER        Electrostatic Energy            =   -2.58 kcal/mol
DOCKED: USER    (2) Final Total Internal Energy     =   -0.38 kcal/mol
DOCKED: USER    (3) Torsional Free Energy           =   +3.58 kcal/mol
DOCKED: USER    (4) Unbound System's Energy  [=(2)] =   -0.38 kcal/mol
DOCKED: USER    
DOCKED: USER    
DOCKED: USER    NEWDPF move heme_Co_opt.pdbqt
DOCKED: USER    NEWDPF about 8.781000 34.984000 -0.736000
DOCKED: USER    NEWDPF tran0 -9.352017 6.810035 -11.569857
DOCKED: USER    NEWDPF quaternion0 0.518978 -0.406668 -0.486049 0.573620
DOCKED: USER    NEWDPF axisangle0 0.633579 -0.496468 -0.593378 109.993968
DOCKED: USER    NEWDPF quat0 0.633579 -0.496468 -0.593378 109.993968
DOCKED: USER    NEWDPF dihe0 -82.55 108.46 91.80 36.45 97.17 132.19 -134.20 -15.78 0.17 -3.23 173.78 38.38 
DOCKED: USER  keepresnum = 1 
DOCKED: USER  
DOCKED: REMARK  12 active torsions:
DOCKED: REMARK  status: ('A' for Active; 'I' for Inactive)
DOCKED: REMARK    1  A    between atoms: C_6  and  C_10 
DOCKED: REMARK    2  A    between atoms: C_10  and  C_11 
DOCKED: REMARK    3  A    between atoms: C_11  and  C_12 
DOCKED: REMARK    4  A    between atoms: C_12  and  O_14 
DOCKED: REMARK    5  A    between atoms: C_17  and  C_20 
DOCKED: REMARK    6  A    between atoms: C_24  and  C_27 
DOCKED: REMARK    7  A    between atoms: C_31  and  C_34 
DOCKED: REMARK    8  A    between atoms: C_34  and  C_35 
DOCKED: REMARK    9  A    between atoms: C_35  and  C_36 
DOCKED: REMARK   10  A    between atoms: C_36  and  O_38 
DOCKED: REMARK   11  A    between atoms: FE_43  and  C_44 
DOCKED: REMARK   12  A    between atoms: C_44  and  O_45 
DOCKED: USER                              x       y       z     vdW  Elec       q    Type
DOCKED: USER                           _______ _______ _______ _____ _____    ______ ____
DOCKED: ROOT
DOCKED: ATOM      1  C   UNL d   1     -10.189   5.700  -9.902 -0.11 +0.03    +0.064 A 
DOCKED: ATOM      2  C   UNL d   1      -7.477   9.601 -10.104 -0.26 +0.00    +0.064 C 
DOCKED: ATOM      3  C   UNL d   1      -7.107   9.143 -14.846 -0.08 -0.01    +0.064 A 
DOCKED: ATOM      4  C   UNL d   1     -10.190   5.382 -14.710 -0.21 +0.01    +0.064 A 
DOCKED: ATOM      5  C   UNL d   1      -9.446   6.779  -9.605 -0.09 +0.02    +0.066 A 
DOCKED: ATOM      6  C   UNL d   1      -9.359   7.289  -8.294 -0.15 -0.01    -0.021 A 
DOCKED: ATOM      7  C   UNL d   1      -8.589   8.433  -8.363 -0.20 -0.01    -0.025 A 
DOCKED: ATOM      8  C   UNL d   1      -8.226   8.564  -9.708 -0.14 +0.01    +0.066 A 
DOCKED: ATOM      9  C   UNL d   1      -8.203   9.379  -7.215 -0.16 +0.01    +0.051 C 
DOCKED: ATOM     10  C   UNL d   1      -7.033   9.804 -11.461 -0.20 -0.00    +0.066 A 
DOCKED: ATOM     11  C   UNL d   1      -6.132  10.791 -11.915 -0.32 +0.00    -0.021 A 
DOCKED: ATOM     12  C   UNL d   1      -6.039  10.632 -13.300 -0.22 -0.00    +0.000 A 
DOCKED: ATOM     13  C   UNL d   1      -6.878   9.555 -13.587 -0.11 -0.01    +0.070 A 
DOCKED: ATOM     14  C   UNL d   1      -5.350  11.749 -11.053 -0.23 -0.01    +0.052 C 
DOCKED: ATOM     15  C   UNL d   1      -7.978   8.087 -15.324 -0.10 -0.00    +0.066 A 
DOCKED: ATOM     16  C   UNL d   1      -8.281   7.807 -16.649 -0.12 +0.00    -0.021 A 
DOCKED: ATOM     17  C   UNL d   1      -9.172   6.725 -16.615 -0.17 +0.00    +0.000 A 
DOCKED: ATOM     18  C   UNL d   1      -9.329   6.418 -15.268 -0.17 +0.01    +0.070 A 
DOCKED: ATOM     19  C   UNL d   1      -7.736   8.549 -17.849 -0.07 -0.01    +0.052 C 
DOCKED: ATOM     20  C   UNL d   1     -10.425   5.122 -13.402 -0.18 +0.02    +0.066 A 
DOCKED: ATOM     21  C   UNL d   1     -11.303   4.121 -12.989 -0.15 -0.01    -0.025 A 
DOCKED: ATOM     22  C   UNL d   1     -11.301   4.170 -11.607 -0.14 -0.01    -0.021 A 
DOCKED: ATOM     23  C   UNL d   1     -10.424   5.215 -11.243 -0.14 +0.02    +0.066 A 
DOCKED: ATOM     24  C   UNL d   1     -12.119   3.177 -13.868 -0.16 +0.04    +0.051 C 
DOCKED: ATOM     25  N   UNL d   1      -8.738   7.549 -10.499 -0.05 -0.04    -0.248 N 
DOCKED: ATOM     26  N   UNL d   1      -7.434   9.019 -12.467 -0.07 +0.00    -0.248 N 
DOCKED: ATOM     27  N   UNL d   1      -8.628   7.269 -14.527 -0.03 -0.01    -0.248 N 
DOCKED: ATOM     28  N   UNL d   1      -9.894   5.795 -12.326 -0.10 -0.05    -0.248 N 
DOCKED: ATOM     29 FE   UNL d   1      -8.681   7.398 -12.632 -0.03 +0.00    +0.000 Fe
DOCKED: ENDROOT
DOCKED: BRANCH   6  30
DOCKED: ATOM     30  C   UNL d   1     -10.057   6.737  -7.056 -0.21 +0.05    +0.052 C 
DOCKED: BRANCH  30  31
DOCKED: ATOM     31  C   UNL d   1     -11.279   7.585  -6.706 -0.13 +0.09    +0.115 C 
DOCKED: BRANCH  31  32
DOCKED: ATOM     32  C   UNL d   1     -12.029   7.049  -5.505 -0.07 +0.15    +0.139 C 
DOCKED: ATOM     33  O   UNL d   1     -11.806   7.520  -4.399 -0.02 -0.45    -0.650 OA
DOCKED: BRANCH  32  34
DOCKED: ATOM     34  O   UNL d   1     -12.979   6.093  -5.620 -0.44 -1.31    -0.776 OA
DOCKED: ATOM     35  H   UNL d   1     -13.911   6.272  -5.807 +0.01 +0.16    +0.167 HD
DOCKED: ENDBRANCH  32  34
DOCKED: ENDBRANCH  31  32
DOCKED: ENDBRANCH  30  31
DOCKED: ENDBRANCH   6  30
DOCKED: BRANCH  29  36
DOCKED: ATOM     36  C   UNL d   1     -10.341   8.678 -12.655 -0.03 +0.02    +0.190 C 
DOCKED: BRANCH  36  37
DOCKED: ATOM     37  O   UNL d   1     -11.409   9.133 -11.874 +0.00 -0.05    -0.399 OA
DOCKED: ATOM     38  H   UNL d   1     -11.358   8.596 -11.034 +0.02 +0.04    +0.209 HD
DOCKED: ENDBRANCH  36  37
DOCKED: ENDBRANCH  29  36
DOCKED: BRANCH  22  39
DOCKED: ATOM     39  C   UNL d   1     -12.147   3.302 -10.695 -0.13 +0.02    +0.052 C 
DOCKED: BRANCH  39  40
DOCKED: ATOM     40  C   UNL d   1     -11.336   2.854  -9.467 -0.04 +0.08    +0.115 C 
DOCKED: BRANCH  40  41
DOCKED: ATOM     41  C   UNL d   1     -12.154   2.160  -8.398 -0.07 +0.15    +0.139 C 
DOCKED: ATOM     42  O   UNL d   1     -11.849   1.028  -8.052 -0.20 -0.51    -0.650 OA
DOCKED: BRANCH  41  43
DOCKED: ATOM     43  O   UNL d   1     -13.160   2.791  -7.752 -0.32 -1.16    -0.776 OA
DOCKED: ATOM     44  H   UNL d   1     -14.086   2.684  -8.003 +0.01 +0.13    +0.167 HD
DOCKED: ENDBRANCH  41  43
DOCKED: ENDBRANCH  40  41
DOCKED: ENDBRANCH  39  40
DOCKED: ENDBRANCH  22  39
DOCKED: BRANCH  12  45
DOCKED: ATOM     45  C   UNL d   1      -5.245  11.358 -14.378 -0.25 -0.00    +0.004 C 
DOCKED: ATOM     46  C   UNL d   1      -4.082  12.002 -14.311 -0.44 -0.01    +0.012 C 
DOCKED: ENDBRANCH  12  45
DOCKED: BRANCH  17  47
DOCKED: ATOM     47  C   UNL d   1      -9.882   6.038 -17.735 -0.18 +0.00    +0.004 C 
DOCKED: ATOM     48  C   UNL d   1      -9.286   5.185 -18.572 -0.23 +0.00    +0.012 C 
DOCKED: ENDBRANCH  17  47
DOCKED: TORSDOF 12
DOCKED: TER
DOCKED: ENDMDL
________________________________________________________________________________


	BEGINNING GENETIC ALGORITHM DOCKING 11 of 100
Run: 11 Seed: 698176468 1529066157 [ Run 11 of 100 GA/GALS ]
Beginning LAMARCKIAN GENETIC ALGORITHM (LGA), with a maximum of 25000000 energy evaluations.

Final-Value: -8.609


	FINAL GENETIC ALGORITHM DOCKED STATE
	_______________________________________________


Detailed state:  trans 13.459 9.912 0.393 quatxyzw 0.542566 0.706710 0.277619 -0.359320 center 8.781 34.984 -0.736 ntor 12 22.6078 113.1965 3.3744 93.6815 125.4214 145.7091 179.8079 -9.0539 -87.1768 113.6653 2.3477 -12.6634
State:	 13.459   9.912   0.393   0.581  0.757  0.297 -137.883     22.61  113.20    3.37   93.68  125.42  145.71  179.81   -9.05  -87.18  113.67    2.35  -12.66

DOCKED: MODEL       11
DOCKED: USER    Run = 11
DOCKED: USER    DPF = D:/Protein_go_brrr/autodock/final/mut_K82N/heme_Co/dock.dpf
DOCKED: USER  
DOCKED: USER    Estimated Free Energy of Binding    =   -4.09 kcal/mol  [=(1)+(2)+(3)-(4)]
DOCKED: USER    Estimated Inhibition Constant, Ki   =    1.00 mM (millimolar)  [Temperature = 298.15 K]
DOCKED: USER    
DOCKED: USER    (1) Final Intermolecular Energy     =   -7.67 kcal/mol
DOCKED: USER        vdW + Hbond + desolv Energy     =   -6.72 kcal/mol
DOCKED: USER        Electrostatic Energy            =   -0.95 kcal/mol
DOCKED: USER    (2) Final Total Internal Energy     =   -0.94 kcal/mol
DOCKED: USER    (3) Torsional Free Energy           =   +3.58 kcal/mol
DOCKED: USER    (4) Unbound System's Energy  [=(2)] =   -0.94 kcal/mol
DOCKED: USER    
DOCKED: USER    
DOCKED: USER    NEWDPF move heme_Co_opt.pdbqt
DOCKED: USER    NEWDPF about 8.781000 34.984000 -0.736000
DOCKED: USER    NEWDPF tran0 13.459070 9.911530 0.393155
DOCKED: USER    NEWDPF quaternion0 0.542566 0.706710 0.277619 -0.359320
DOCKED: USER    NEWDPF axisangle0 0.581395 0.757286 0.297487 -137.883092
DOCKED: USER    NEWDPF quat0 0.581395 0.757286 0.297487 -137.883092
DOCKED: USER    NEWDPF dihe0 22.61 113.20 3.37 93.68 125.42 145.71 179.81 -9.05 -87.18 113.67 2.35 -12.66 
DOCKED: USER  keepresnum = 1 
DOCKED: USER  
DOCKED: REMARK  12 active torsions:
DOCKED: REMARK  status: ('A' for Active; 'I' for Inactive)
DOCKED: REMARK    1  A    between atoms: C_6  and  C_10 
DOCKED: REMARK    2  A    between atoms: C_10  and  C_11 
DOCKED: REMARK    3  A    between atoms: C_11  and  C_12 
DOCKED: REMARK    4  A    between atoms: C_12  and  O_14 
DOCKED: REMARK    5  A    between atoms: C_17  and  C_20 
DOCKED: REMARK    6  A    between atoms: C_24  and  C_27 
DOCKED: REMARK    7  A    between atoms: C_31  and  C_34 
DOCKED: REMARK    8  A    between atoms: C_34  and  C_35 
DOCKED: REMARK    9  A    between atoms: C_35  and  C_36 
DOCKED: REMARK   10  A    between atoms: C_36  and  O_38 
DOCKED: REMARK   11  A    between atoms: FE_43  and  C_44 
DOCKED: REMARK   12  A    between atoms: C_44  and  O_45 
DOCKED: USER                              x       y       z     vdW  Elec       q    Type
DOCKED: USER                           _______ _______ _______ _____ _____    ______ ____
DOCKED: ROOT
DOCKED: ATOM      1  C   UNL d   1      13.351   8.168   1.683 -0.14 -0.00    +0.064 A 
DOCKED: ATOM      2  C   UNL d   1      14.671   8.710  -2.853 -0.20 -0.00    +0.064 C 
DOCKED: ATOM      3  C   UNL d   1      13.420  13.319  -2.705 -0.16 -0.01    +0.064 A 
DOCKED: ATOM      4  C   UNL d   1      12.428  12.884   2.037 -0.13 +0.00    +0.064 A 
DOCKED: ATOM      5  C   UNL d   1      13.769   7.969   0.422 -0.17 -0.00    +0.066 A 
DOCKED: ATOM      6  C   UNL d   1      14.295   6.733  -0.004 -0.07 -0.00    -0.021 A 
DOCKED: ATOM      7  C   UNL d   1      14.697   6.903  -1.315 -0.08 -0.00    -0.025 A 
DOCKED: ATOM      8  C   UNL d   1      14.385   8.228  -1.636 -0.18 +0.00    +0.066 A 
DOCKED: ATOM      9  C   UNL d   1      15.353   5.867  -2.241 -0.12 +0.00    +0.051 C 
DOCKED: ATOM     10  C   UNL d   1      14.363  10.051  -3.283 -0.24 -0.01    +0.066 A 
DOCKED: ATOM     11  C   UNL d   1      14.509  10.573  -4.587 -0.25 +0.00    -0.021 A 
DOCKED: ATOM     12  C   UNL d   1      14.133  11.918  -4.516 -0.25 -0.00    +0.000 A 
DOCKED: ATOM     13  C   UNL d   1      13.775  12.112  -3.181 -0.17 -0.02    +0.070 A 
DOCKED: ATOM     14  C   UNL d   1      14.890   9.798  -5.821 -0.18 -0.00    +0.052 C 
DOCKED: ATOM     15  C   UNL d   1      13.073  13.708  -1.353 -0.22 -0.01    +0.066 A 
DOCKED: ATOM     16  C   UNL d   1      12.856  15.001  -0.899 -0.16 +0.00    -0.021 A 
DOCKED: ATOM     17  C   UNL d   1      12.572  14.882   0.469 -0.15 -0.00    +0.000 A 
DOCKED: ATOM     18  C   UNL d   1      12.621  13.518   0.739 -0.17 -0.00    +0.070 A 
DOCKED: ATOM     19  C   UNL d   1      12.926  16.252  -1.747 -0.11 -0.01    +0.052 C 
DOCKED: ATOM     20  C   UNL d   1      12.556  11.570   2.340 -0.09 +0.00    +0.066 A 
DOCKED: ATOM     21  C   UNL d   1      12.380  11.086   3.634 -0.10 -0.00    -0.025 A 
DOCKED: ATOM     22  C   UNL d   1      12.611   9.724   3.557 -0.10 -0.00    -0.021 A 
DOCKED: ATOM     23  C   UNL d   1      12.931   9.446   2.211 -0.11 +0.00    +0.066 A 
DOCKED: ATOM     24  C   UNL d   1      12.028  11.882   4.888 -0.07 +0.01    +0.051 C 
DOCKED: ATOM     25  N   UNL d   1      13.804   8.910  -0.581 -0.14 +0.01    -0.248 N 
DOCKED: ATOM     26  N   UNL d   1      13.861  10.969  -2.450 -0.19 +0.04    -0.248 N 
DOCKED: ATOM     27  N   UNL d   1      12.952  12.853  -0.363 -0.16 +0.02    -0.248 N 
DOCKED: ATOM     28  N   UNL d   1      12.901  10.561   1.472 +0.04 -0.00    -0.248 N 
DOCKED: ATOM     29 FE   UNL d   1      13.351  10.998  -0.462 -0.05 -0.00    +0.000 Fe
DOCKED: ENDROOT
DOCKED: BRANCH   6  30
DOCKED: ATOM     30  C   UNL d   1      14.472   5.479   0.844 -0.10 +0.00    +0.052 C 
DOCKED: BRANCH  30  31
DOCKED: ATOM     31  C   UNL d   1      13.192   4.644   0.843 -0.15 +0.00    +0.115 C 
DOCKED: BRANCH  31  32
DOCKED: ATOM     32  C   UNL d   1      13.173   3.617  -0.268 -0.16 +0.02    +0.139 C 
DOCKED: ATOM     33  O   UNL d   1      14.133   2.876  -0.419 +0.03 -0.10    -0.650 OA
DOCKED: BRANCH  32  34
DOCKED: ATOM     34  O   UNL d   1      12.101   3.456  -1.078 -0.23 -0.15    -0.776 OA
DOCKED: ATOM     35  H   UNL d   1      11.401   4.114  -1.191 -0.46 -0.03    +0.167 HD
DOCKED: ENDBRANCH  32  34
DOCKED: ENDBRANCH  31  32
DOCKED: ENDBRANCH  30  31
DOCKED: ENDBRANCH   6  30
DOCKED: BRANCH  29  36
DOCKED: ATOM     36  C   UNL d   1      15.363  11.290   0.048 -0.05 -0.01    +0.190 C 
DOCKED: BRANCH  36  37
DOCKED: ATOM     37  O   UNL d   1      16.536  10.609   0.391 -0.00 +0.01    -0.399 OA
DOCKED: ATOM     38  H   UNL d   1      16.286   9.644   0.377 +0.02 -0.01    +0.209 HD
DOCKED: ENDBRANCH  36  37
DOCKED: ENDBRANCH  29  36
DOCKED: BRANCH  22  39
DOCKED: ATOM     39  C   UNL d   1      12.589   8.760   4.729 -0.08 +0.00    +0.052 C 
DOCKED: BRANCH  39  40
DOCKED: ATOM     40  C   UNL d   1      11.170   8.210   4.951 -0.15 +0.02    +0.115 C 
DOCKED: BRANCH  40  41
DOCKED: ATOM     41  C   UNL d   1      10.193   9.214   5.526 -0.16 +0.06    +0.139 C 
DOCKED: ATOM     42  O   UNL d   1       9.112   9.377   4.978 -0.40 -0.44    -0.650 OA
DOCKED: BRANCH  41  43
DOCKED: ATOM     43  O   UNL d   1      10.446   9.872   6.678 +0.05 -0.40    -0.776 OA
DOCKED: ATOM     44  H   UNL d   1      11.308   9.842   7.115 +0.03 +0.05    +0.167 HD
DOCKED: ENDBRANCH  41  43
DOCKED: ENDBRANCH  40  41
DOCKED: ENDBRANCH  39  40
DOCKED: ENDBRANCH  22  39
DOCKED: BRANCH  12  45
DOCKED: ATOM     45  C   UNL d   1      14.053  13.030  -5.553 -0.24 -0.00    +0.004 C 
DOCKED: ATOM     46  C   UNL d   1      13.083  13.352  -6.404 -0.33 -0.00    +0.012 C 
DOCKED: ENDBRANCH  12  45
DOCKED: BRANCH  17  47
DOCKED: ATOM     47  C   UNL d   1      12.320  15.944   1.488 -0.10 -0.00    +0.004 C 
DOCKED: ATOM     48  C   UNL d   1      11.106  16.243   1.957 -0.15 -0.00    +0.012 C 
DOCKED: ENDBRANCH  17  47
DOCKED: TORSDOF 12
DOCKED: TER
DOCKED: ENDMDL
________________________________________________________________________________


	BEGINNING GENETIC ALGORITHM DOCKING 12 of 100
Run: 12 Seed: 2004976609 908251369 [ Run 12 of 100 GA/GALS ]
Beginning LAMARCKIAN GENETIC ALGORITHM (LGA), with a maximum of 25000000 energy evaluations.

Final-Value: -8.804


	FINAL GENETIC ALGORITHM DOCKED STATE
	_______________________________________________


Detailed state:  trans 14.140 3.072 20.988 quatxyzw 0.566873 0.671972 -0.276524 -0.388128 center 8.781 34.984 -0.736 ntor 12 -132.0850 112.6623 1.4602 117.4622 -88.1806 133.2275 151.9033 153.2906 -90.9093 -119.6068 -19.2064 -16.4940
State:	 14.140   3.072  20.988   0.615  0.729 -0.300 -134.324   -132.08  112.66    1.46  117.46  -88.18  133.23  151.90  153.29  -90.91 -119.61  -19.21  -16.49

DOCKED: MODEL       12
DOCKED: USER    Run = 12
DOCKED: USER    DPF = D:/Protein_go_brrr/autodock/final/mut_K82N/heme_Co/dock.dpf
DOCKED: USER  
DOCKED: USER    Estimated Free Energy of Binding    =   -4.49 kcal/mol  [=(1)+(2)+(3)-(4)]
DOCKED: USER    Estimated Inhibition Constant, Ki   =  511.06 uM (micromolar)  [Temperature = 298.15 K]
DOCKED: USER    
DOCKED: USER    (1) Final Intermolecular Energy     =   -8.07 kcal/mol
DOCKED: USER        vdW + Hbond + desolv Energy     =   -5.26 kcal/mol
DOCKED: USER        Electrostatic Energy            =   -2.81 kcal/mol
DOCKED: USER    (2) Final Total Internal Energy     =   -0.73 kcal/mol
DOCKED: USER    (3) Torsional Free Energy           =   +3.58 kcal/mol
DOCKED: USER    (4) Unbound System's Energy  [=(2)] =   -0.73 kcal/mol
DOCKED: USER    
DOCKED: USER    
DOCKED: USER    NEWDPF move heme_Co_opt.pdbqt
DOCKED: USER    NEWDPF about 8.781000 34.984000 -0.736000
DOCKED: USER    NEWDPF tran0 14.139689 3.071675 20.987899
DOCKED: USER    NEWDPF quaternion0 0.566873 0.671972 -0.276524 -0.388128
DOCKED: USER    NEWDPF axisangle0 0.615093 0.729132 -0.300046 -134.323894
DOCKED: USER    NEWDPF quat0 0.615093 0.729132 -0.300046 -134.323894
DOCKED: USER    NEWDPF dihe0 -132.08 112.66 1.46 117.46 -88.18 133.23 151.90 153.29 -90.91 -119.61 -19.21 -16.49 
DOCKED: USER  keepresnum = 1 
DOCKED: USER  
DOCKED: REMARK  12 active torsions:
DOCKED: REMARK  status: ('A' for Active; 'I' for Inactive)
DOCKED: REMARK    1  A    between atoms: C_6  and  C_10 
DOCKED: REMARK    2  A    between atoms: C_10  and  C_11 
DOCKED: REMARK    3  A    between atoms: C_11  and  C_12 
DOCKED: REMARK    4  A    between atoms: C_12  and  O_14 
DOCKED: REMARK    5  A    between atoms: C_17  and  C_20 
DOCKED: REMARK    6  A    between atoms: C_24  and  C_27 
DOCKED: REMARK    7  A    between atoms: C_31  and  C_34 
DOCKED: REMARK    8  A    between atoms: C_34  and  C_35 
DOCKED: REMARK    9  A    between atoms: C_35  and  C_36 
DOCKED: REMARK   10  A    between atoms: C_36  and  O_38 
DOCKED: REMARK   11  A    between atoms: FE_43  and  C_44 
DOCKED: REMARK   12  A    between atoms: C_44  and  O_45 
DOCKED: USER                              x       y       z     vdW  Elec       q    Type
DOCKED: USER                           _______ _______ _______ _____ _____    ______ ____
DOCKED: ROOT
DOCKED: ATOM      1  C   UNL d   1      14.558   2.805  23.102 -0.07 +0.03    +0.064 A 
DOCKED: ATOM      2  C   UNL d   1      12.668  -0.082  19.830 -0.24 +0.01    +0.064 C 
DOCKED: ATOM      3  C   UNL d   1      12.760   3.447  16.610 -0.10 -0.00    +0.064 A 
DOCKED: ATOM      4  C   UNL d   1      15.046   6.299  19.819 -0.01 +0.01    +0.064 A 
DOCKED: ATOM      5  C   UNL d   1      14.002   1.768  22.455 -0.08 +0.03    +0.066 A 
DOCKED: ATOM      6  C   UNL d   1      13.863   0.500  23.054 -0.11 -0.01    -0.021 A 
DOCKED: ATOM      7  C   UNL d   1      13.335  -0.339  22.093 -0.14 -0.01    -0.025 A 
DOCKED: ATOM      8  C   UNL d   1      13.159   0.455  20.954 -0.15 +0.02    +0.066 A 
DOCKED: ATOM      9  C   UNL d   1      13.005  -1.834  22.225 -0.12 +0.01    +0.051 C 
DOCKED: ATOM     10  C   UNL d   1      12.427   0.662  18.619 -0.26 +0.00    +0.066 A 
DOCKED: ATOM     11  C   UNL d   1      11.785   0.191  17.453 -0.39 +0.00    -0.021 A 
DOCKED: ATOM     12  C   UNL d   1      11.822   1.242  16.532 -0.30 -0.00    +0.000 A 
DOCKED: ATOM     13  C   UNL d   1      12.471   2.277  17.206 -0.17 -0.00    +0.070 A 
DOCKED: ATOM     14  C   UNL d   1      11.104  -1.143  17.287 -0.27 -0.01    +0.052 C 
DOCKED: ATOM     15  C   UNL d   1      13.466   4.598  17.137 -0.03 +0.00    +0.066 A 
DOCKED: ATOM     16  C   UNL d   1      13.860   5.720  16.422 -0.01 -0.00    -0.021 A 
DOCKED: ATOM     17  C   UNL d   1      14.522   6.545  17.343 -0.00 +0.00    +0.000 A 
DOCKED: ATOM     18  C   UNL d   1      14.465   5.865  18.555 -0.01 +0.00    +0.070 A 
DOCKED: ATOM     19  C   UNL d   1      13.604   5.957  14.950 -0.02 -0.00    +0.052 C 
DOCKED: ATOM     20  C   UNL d   1      15.079   5.617  20.989 -0.02 +0.01    +0.066 A 
DOCKED: ATOM     21  C   UNL d   1      15.700   6.124  22.129 -0.01 -0.00    -0.025 A 
DOCKED: ATOM     22  C   UNL d   1      15.550   5.150  23.099 -0.03 -0.01    -0.021 A 
DOCKED: ATOM     23  C   UNL d   1      14.849   4.084  22.496 -0.06 +0.03    +0.066 A 
DOCKED: ATOM     24  C   UNL d   1      16.419   7.461  22.280 +0.00 +0.00    +0.051 C 
DOCKED: ATOM     25  N   UNL d   1      13.558   1.766  21.152 -0.09 -0.08    -0.248 N 
DOCKED: ATOM     26  N   UNL d   1      12.786   1.944  18.486 -0.12 -0.01    -0.248 N 
DOCKED: ATOM     27  N   UNL d   1      13.856   4.696  18.388 -0.01 -0.02    -0.248 N 
DOCKED: ATOM     28  N   UNL d   1      14.564   4.361  21.218 -0.03 -0.06    -0.248 N 
DOCKED: ATOM     29 FE   UNL d   1      13.717   3.320  19.691 -0.02 +0.00    +0.000 Fe
DOCKED: ENDROOT
DOCKED: BRANCH   6  30
DOCKED: ATOM     30  C   UNL d   1      14.300   0.107  24.461 -0.08 +0.02    +0.052 C 
DOCKED: BRANCH  30  31
DOCKED: ATOM     31  C   UNL d   1      13.489   0.871  25.508 -0.06 +0.10    +0.115 C 
DOCKED: BRANCH  31  32
DOCKED: ATOM     32  C   UNL d   1      12.197   0.168  25.863 -0.09 +0.12    +0.139 C 
DOCKED: ATOM     33  O   UNL d   1      12.092  -1.033  25.664 -0.02 -0.28    -0.650 OA
DOCKED: BRANCH  32  34
DOCKED: ATOM     34  O   UNL d   1      11.161   0.819  26.442 -0.51 -1.18    -0.776 OA
DOCKED: ATOM     35  H   UNL d   1      10.643   0.469  27.180 +0.01 +0.14    +0.167 HD
DOCKED: ENDBRANCH  32  34
DOCKED: ENDBRANCH  31  32
DOCKED: ENDBRANCH  30  31
DOCKED: ENDBRANCH   6  30
DOCKED: BRANCH  29  36
DOCKED: ATOM     36  C   UNL d   1      15.579   2.500  19.185 -0.01 +0.01    +0.190 C 
DOCKED: BRANCH  36  37
DOCKED: ATOM     37  O   UNL d   1      16.610   1.692  19.674 +0.00 -0.03    -0.399 OA
DOCKED: ATOM     38  H   UNL d   1      16.323   1.440  20.597 +0.01 +0.02    +0.209 HD
DOCKED: ENDBRANCH  36  37
DOCKED: ENDBRANCH  29  36
DOCKED: BRANCH  22  39
DOCKED: ATOM     39  C   UNL d   1      16.108   5.219  24.508 -0.02 +0.01    +0.052 C 
DOCKED: BRANCH  39  40
DOCKED: ATOM     40  C   UNL d   1      15.150   5.987  25.435 -0.02 +0.04    +0.115 C 
DOCKED: BRANCH  40  41
DOCKED: ATOM     41  C   UNL d   1      13.736   5.445  25.458 -0.03 +0.14    +0.139 C 
DOCKED: ATOM     42  O   UNL d   1      13.036   5.557  24.462 -0.22 -0.78    -0.650 OA
DOCKED: BRANCH  41  43
DOCKED: ATOM     43  O   UNL d   1      13.255   4.762  26.521 -0.41 -1.23    -0.776 OA
DOCKED: ATOM     44  H   UNL d   1      13.742   4.683  27.351 +0.00 +0.14    +0.167 HD
DOCKED: ENDBRANCH  41  43
DOCKED: ENDBRANCH  40  41
DOCKED: ENDBRANCH  39  40
DOCKED: ENDBRANCH  22  39
DOCKED: BRANCH  12  45
DOCKED: ATOM     45  C   UNL d   1      11.306   1.392  15.107 -0.41 -0.00    +0.004 C 
DOCKED: ATOM     46  C   UNL d   1      10.294   2.109  14.624 -0.50 -0.00    +0.012 C 
DOCKED: ENDBRANCH  12  45
DOCKED: BRANCH  17  47
DOCKED: ATOM     47  C   UNL d   1      15.213   7.851  17.129 +0.00 +0.00    +0.004 C 
DOCKED: ATOM     48  C   UNL d   1      16.538   8.004  17.194 +0.00 +0.00    +0.012 C 
DOCKED: ENDBRANCH  17  47
DOCKED: TORSDOF 12
DOCKED: TER
DOCKED: ENDMDL
________________________________________________________________________________


	BEGINNING GENETIC ALGORITHM DOCKING 13 of 100
Run: 13 Seed: 461543606 589331220 [ Run 13 of 100 GA/GALS ]
Beginning LAMARCKIAN GENETIC ALGORITHM (LGA), with a maximum of 25000000 energy evaluations.

Final-Value: -9.061


	FINAL GENETIC ALGORITHM DOCKED STATE
	_______________________________________________


Detailed state:  trans -3.494 0.137 20.978 quatxyzw 0.098076 -0.541283 -0.612045 0.568150 center 8.781 34.984 -0.736 ntor 12 41.8095 112.1084 142.3025 126.2000 105.9673 88.1789 100.5013 -13.8724 110.5503 -179.4488 41.1787 179.7325
State:	 -3.494   0.137  20.978   0.119 -0.658 -0.744 110.757     41.81  112.11  142.30  126.20  105.97   88.18  100.50  -13.87  110.55 -179.45   41.18  179.73

DOCKED: MODEL       13
DOCKED: USER    Run = 13
DOCKED: USER    DPF = D:/Protein_go_brrr/autodock/final/mut_K82N/heme_Co/dock.dpf
DOCKED: USER  
DOCKED: USER    Estimated Free Energy of Binding    =   -3.51 kcal/mol  [=(1)+(2)+(3)-(4)]
DOCKED: USER    Estimated Inhibition Constant, Ki   =    2.68 mM (millimolar)  [Temperature = 298.15 K]
DOCKED: USER    
DOCKED: USER    (1) Final Intermolecular Energy     =   -7.09 kcal/mol
DOCKED: USER        vdW + Hbond + desolv Energy     =   -5.91 kcal/mol
DOCKED: USER        Electrostatic Energy            =   -1.17 kcal/mol
DOCKED: USER    (2) Final Total Internal Energy     =   -1.97 kcal/mol
DOCKED: USER    (3) Torsional Free Energy           =   +3.58 kcal/mol
DOCKED: USER    (4) Unbound System's Energy  [=(2)] =   -1.97 kcal/mol
DOCKED: USER    
DOCKED: USER    
DOCKED: USER    NEWDPF move heme_Co_opt.pdbqt
DOCKED: USER    NEWDPF about 8.781000 34.984000 -0.736000
DOCKED: USER    NEWDPF tran0 -3.494384 0.137264 20.978388
DOCKED: USER    NEWDPF quaternion0 0.098076 -0.541283 -0.612045 0.568150
DOCKED: USER    NEWDPF axisangle0 0.119180 -0.657756 -0.743743 110.757306
DOCKED: USER    NEWDPF quat0 0.119180 -0.657756 -0.743743 110.757306
DOCKED: USER    NEWDPF dihe0 41.81 112.11 142.30 126.20 105.97 88.18 100.50 -13.87 110.55 -179.45 41.18 179.73 
DOCKED: USER  keepresnum = 1 
DOCKED: USER  
DOCKED: REMARK  12 active torsions:
DOCKED: REMARK  status: ('A' for Active; 'I' for Inactive)
DOCKED: REMARK    1  A    between atoms: C_6  and  C_10 
DOCKED: REMARK    2  A    between atoms: C_10  and  C_11 
DOCKED: REMARK    3  A    between atoms: C_11  and  C_12 
DOCKED: REMARK    4  A    between atoms: C_12  and  O_14 
DOCKED: REMARK    5  A    between atoms: C_17  and  C_20 
DOCKED: REMARK    6  A    between atoms: C_24  and  C_27 
DOCKED: REMARK    7  A    between atoms: C_31  and  C_34 
DOCKED: REMARK    8  A    between atoms: C_34  and  C_35 
DOCKED: REMARK    9  A    between atoms: C_35  and  C_36 
DOCKED: REMARK   10  A    between atoms: C_36  and  O_38 
DOCKED: REMARK   11  A    between atoms: FE_43  and  C_44 
DOCKED: REMARK   12  A    between atoms: C_44  and  O_45 
DOCKED: USER                              x       y       z     vdW  Elec       q    Type
DOCKED: USER                           _______ _______ _______ _____ _____    ______ ____
DOCKED: ROOT
DOCKED: ATOM      1  C   UNL d   1      -3.667  -1.545  22.340 -0.09 +0.02    +0.064 A 
DOCKED: ATOM      2  C   UNL d   1      -0.107   1.472  21.423 -0.07 -0.04    +0.064 C 
DOCKED: ATOM      3  C   UNL d   1      -2.666   3.487  17.927 -0.21 -0.02    +0.064 A 
DOCKED: ATOM      4  C   UNL d   1      -6.458   0.674  19.100 -0.15 -0.01    +0.064 A 
DOCKED: ATOM      5  C   UNL d   1      -2.493  -0.893  22.322 -0.08 +0.02    +0.066 A 
DOCKED: ATOM      6  C   UNL d   1      -1.479  -1.153  23.265 -0.11 -0.01    -0.021 A 
DOCKED: ATOM      7  C   UNL d   1      -0.458  -0.259  23.009 -0.13 +0.00    -0.025 A 
DOCKED: ATOM      8  C   UNL d   1      -0.884   0.496  21.911 -0.16 -0.01    +0.066 A 
DOCKED: ATOM      9  C   UNL d   1       0.874  -0.109  23.760 -0.09 -0.02    +0.051 C 
DOCKED: ATOM     10  C   UNL d   1      -0.451   2.282  20.282 -0.18 -0.03    +0.066 A 
DOCKED: ATOM     11  C   UNL d   1       0.379   3.225  19.636 -0.22 +0.01    -0.021 A 
DOCKED: ATOM     12  C   UNL d   1      -0.391   3.794  18.618 -0.24 -0.00    +0.000 A 
DOCKED: ATOM     13  C   UNL d   1      -1.625   3.151  18.710 -0.20 -0.02    +0.070 A 
DOCKED: ATOM     14  C   UNL d   1       1.836   3.478  19.927 -0.29 -0.03    +0.052 C 
DOCKED: ATOM     15  C   UNL d   1      -4.019   2.965  17.922 -0.15 -0.02    +0.066 A 
DOCKED: ATOM     16  C   UNL d   1      -5.088   3.457  17.186 -0.09 +0.01    -0.021 A 
DOCKED: ATOM     17  C   UNL d   1      -6.184   2.651  17.523 -0.18 -0.00    +0.000 A 
DOCKED: ATOM     18  C   UNL d   1      -5.692   1.717  18.428 -0.18 -0.01    +0.070 A 
DOCKED: ATOM     19  C   UNL d   1      -5.029   4.628  16.231 -0.25 -0.02    +0.052 C 
DOCKED: ATOM     20  C   UNL d   1      -6.021  -0.189  20.047 -0.13 -0.00    +0.066 A 
DOCKED: ATOM     21  C   UNL d   1      -6.863  -1.124  20.646 -0.07 +0.00    -0.025 A 
DOCKED: ATOM     22  C   UNL d   1      -6.078  -1.798  21.564 -0.06 -0.00    -0.021 A 
DOCKED: ATOM     23  C   UNL d   1      -4.790  -1.228  21.488 -0.10 +0.01    +0.066 A 
DOCKED: ATOM     24  C   UNL d   1      -8.347  -1.352  20.372 -0.04 -0.00    +0.051 C 
DOCKED: ATOM     25  N   UNL d   1      -2.139   0.121  21.461 -0.12 -0.05    -0.248 N 
DOCKED: ATOM     26  N   UNL d   1      -1.642   2.198  19.679 -0.13 +0.05    -0.248 N 
DOCKED: ATOM     27  N   UNL d   1      -4.406   1.953  18.666 -0.15 +0.04    -0.248 N 
DOCKED: ATOM     28  N   UNL d   1      -4.752  -0.252  20.573 -0.11 -0.02    -0.248 N 
DOCKED: ATOM     29 FE   UNL d   1      -3.343   1.089  19.981 -0.04 +0.00    +0.000 Fe
DOCKED: ENDROOT
DOCKED: BRANCH   6  30
DOCKED: ATOM     30  C   UNL d   1      -1.536  -2.161  24.408 -0.05 +0.01    +0.052 C 
DOCKED: BRANCH  30  31
DOCKED: ATOM     31  C   UNL d   1      -0.346  -3.118  24.340 -0.06 +0.03    +0.115 C 
DOCKED: BRANCH  31  32
DOCKED: ATOM     32  C   UNL d   1      -0.452  -4.092  23.187 +0.04 +0.11    +0.139 C 
DOCKED: ATOM     33  O   UNL d   1      -1.556  -4.429  22.785 -0.22 -0.55    -0.650 OA
DOCKED: BRANCH  32  34
DOCKED: ATOM     34  O   UNL d   1       0.641  -4.568  22.547 -0.37 -0.70    -0.776 OA
DOCKED: ATOM     35  H   UNL d   1       1.473  -4.793  22.986 +0.02 +0.05    +0.167 HD
DOCKED: ENDBRANCH  32  34
DOCKED: ENDBRANCH  31  32
DOCKED: ENDBRANCH  30  31
DOCKED: ENDBRANCH   6  30
DOCKED: BRANCH  29  36
DOCKED: ATOM     36  C   UNL d   1      -3.936   2.415  21.493 -0.03 -0.01    +0.190 C 
DOCKED: BRANCH  36  37
DOCKED: ATOM     37  O   UNL d   1      -4.651   2.488  22.693 +0.00 +0.02    -0.399 OA
DOCKED: ATOM     38  H   UNL d   1      -4.995   1.564  22.843 +0.01 -0.01    +0.209 HD
DOCKED: ENDBRANCH  36  37
DOCKED: ENDBRANCH  29  36
DOCKED: BRANCH  22  39
DOCKED: ATOM     39  C   UNL d   1      -6.563  -2.885  22.506 -0.03 +0.00    +0.052 C 
DOCKED: BRANCH  39  40
DOCKED: ATOM     40  C   UNL d   1      -7.296  -2.271  23.710 -0.00 -0.00    +0.115 C 
DOCKED: BRANCH  40  41
DOCKED: ATOM     41  C   UNL d   1      -7.268  -0.758  23.755 -0.00 -0.00    +0.139 C 
DOCKED: ATOM     42  O   UNL d   1      -8.322  -0.141  23.812 +0.00 +0.02    -0.650 OA
DOCKED: BRANCH  41  43
DOCKED: ATOM     43  O   UNL d   1      -6.106  -0.071  23.821 +0.01 +0.01    -0.776 OA
DOCKED: ATOM     44  H   UNL d   1      -5.996   0.804  23.427 +0.01 -0.00    +0.167 HD
DOCKED: ENDBRANCH  41  43
DOCKED: ENDBRANCH  40  41
DOCKED: ENDBRANCH  39  40
DOCKED: ENDBRANCH  22  39
DOCKED: BRANCH  12  45
DOCKED: ATOM     45  C   UNL d   1      -0.098   4.853  17.563 -0.33 -0.00    +0.004 C 
DOCKED: ATOM     46  C   UNL d   1      -0.095   4.774  16.235 -0.47 -0.00    +0.012 C 
DOCKED: ENDBRANCH  12  45
DOCKED: BRANCH  17  47
DOCKED: ATOM     47  C   UNL d   1      -7.610   2.750  17.090 -0.15 -0.00    +0.004 C 
DOCKED: ATOM     48  C   UNL d   1      -8.073   2.227  15.952 -0.22 -0.00    +0.012 C 
DOCKED: ENDBRANCH  17  47
DOCKED: TORSDOF 12
DOCKED: TER
DOCKED: ENDMDL
________________________________________________________________________________


	BEGINNING GENETIC ALGORITHM DOCKING 14 of 100
Run: 14 Seed: 661274279 1598223530 [ Run 14 of 100 GA/GALS ]
Beginning LAMARCKIAN GENETIC ALGORITHM (LGA), with a maximum of 25000000 energy evaluations.

Final-Value: -9.174


	FINAL GENETIC ALGORITHM DOCKED STATE
	_______________________________________________


Detailed state:  trans -13.027 0.365 -3.848 quatxyzw 0.827074 -0.409464 -0.295899 -0.246438 center 8.781 34.984 -0.736 ntor 12 -33.1436 107.2795 -154.9637 53.8566 119.8167 81.8939 68.3275 111.0880 -112.5337 144.0464 -12.9820 -180.0000
State:	-13.027   0.365  -3.848   0.853 -0.422 -0.305 -151.466    -33.14  107.28 -154.96   53.86  119.82   81.89   68.33  111.09 -112.53  144.05  -12.98 -180.00

DOCKED: MODEL       14
DOCKED: USER    Run = 14
DOCKED: USER    DPF = D:/Protein_go_brrr/autodock/final/mut_K82N/heme_Co/dock.dpf
DOCKED: USER  
DOCKED: USER    Estimated Free Energy of Binding    =   -3.58 kcal/mol  [=(1)+(2)+(3)-(4)]
DOCKED: USER    Estimated Inhibition Constant, Ki   =    2.36 mM (millimolar)  [Temperature = 298.15 K]
DOCKED: USER    
DOCKED: USER    (1) Final Intermolecular Energy     =   -7.16 kcal/mol
DOCKED: USER        vdW + Hbond + desolv Energy     =   -5.99 kcal/mol
DOCKED: USER        Electrostatic Energy            =   -1.17 kcal/mol
DOCKED: USER    (2) Final Total Internal Energy     =   -2.01 kcal/mol
DOCKED: USER    (3) Torsional Free Energy           =   +3.58 kcal/mol
DOCKED: USER    (4) Unbound System's Energy  [=(2)] =   -2.01 kcal/mol
DOCKED: USER    
DOCKED: USER    
DOCKED: USER    NEWDPF move heme_Co_opt.pdbqt
DOCKED: USER    NEWDPF about 8.781000 34.984000 -0.736000
DOCKED: USER    NEWDPF tran0 -13.027392 0.365337 -3.848324
DOCKED: USER    NEWDPF quaternion0 0.827074 -0.409464 -0.295899 -0.246438
DOCKED: USER    NEWDPF axisangle0 0.853394 -0.422494 -0.305316 -151.466380
DOCKED: USER    NEWDPF quat0 0.853394 -0.422494 -0.305316 -151.466380
DOCKED: USER    NEWDPF dihe0 -33.14 107.28 -154.96 53.86 119.82 81.89 68.33 111.09 -112.53 144.05 -12.98 -180.00 
DOCKED: USER  keepresnum = 1 
DOCKED: USER  
DOCKED: REMARK  12 active torsions:
DOCKED: REMARK  status: ('A' for Active; 'I' for Inactive)
DOCKED: REMARK    1  A    between atoms: C_6  and  C_10 
DOCKED: REMARK    2  A    between atoms: C_10  and  C_11 
DOCKED: REMARK    3  A    between atoms: C_11  and  C_12 
DOCKED: REMARK    4  A    between atoms: C_12  and  O_14 
DOCKED: REMARK    5  A    between atoms: C_17  and  C_20 
DOCKED: REMARK    6  A    between atoms: C_24  and  C_27 
DOCKED: REMARK    7  A    between atoms: C_31  and  C_34 
DOCKED: REMARK    8  A    between atoms: C_34  and  C_35 
DOCKED: REMARK    9  A    between atoms: C_35  and  C_36 
DOCKED: REMARK   10  A    between atoms: C_36  and  O_38 
DOCKED: REMARK   11  A    between atoms: FE_43  and  C_44 
DOCKED: REMARK   12  A    between atoms: C_44  and  O_45 
DOCKED: USER                              x       y       z     vdW  Elec       q    Type
DOCKED: USER                           _______ _______ _______ _____ _____    ______ ____
DOCKED: ROOT
DOCKED: ATOM      1  C   UNL d   1     -13.652   1.828  -2.369 -0.10 +0.02    +0.064 A 
DOCKED: ATOM      2  C   UNL d   1     -14.204   1.619  -7.088 -0.07 +0.04    +0.064 C 
DOCKED: ATOM      3  C   UNL d   1     -11.507  -2.321  -7.267 -0.20 +0.01    +0.064 A 
DOCKED: ATOM      4  C   UNL d   1     -11.249  -2.349  -2.409 -0.19 -0.03    +0.064 A 
DOCKED: ATOM      5  C   UNL d   1     -13.971   2.080  -3.650 -0.06 +0.04    +0.066 A 
DOCKED: ATOM      6  C   UNL d   1     -14.829   3.137  -4.011 -0.09 -0.01    -0.021 A 
DOCKED: ATOM      7  C   UNL d   1     -15.004   3.058  -5.379 -0.07 -0.02    -0.025 A 
DOCKED: ATOM      8  C   UNL d   1     -14.233   1.967  -5.795 -0.04 +0.06    +0.066 A 
DOCKED: ATOM      9  C   UNL d   1     -15.862   3.966  -6.274 -0.03 +0.02    +0.051 C 
DOCKED: ATOM     10  C   UNL d   1     -13.420   0.529  -7.613 -0.08 +0.03    +0.066 A 
DOCKED: ATOM     11  C   UNL d   1     -13.237   0.200  -8.973 -0.09 -0.01    -0.021 A 
DOCKED: ATOM     12  C   UNL d   1     -12.443  -0.950  -8.997 -0.18 +0.00    +0.000 A 
DOCKED: ATOM     13  C   UNL d   1     -12.191  -1.230  -7.653 -0.16 +0.02    +0.070 A 
DOCKED: ATOM     14  C   UNL d   1     -13.716   1.000 -10.157 -0.07 +0.02    +0.052 C 
DOCKED: ATOM     15  C   UNL d   1     -11.202  -2.789  -5.929 -0.13 +0.00    +0.066 A 
DOCKED: ATOM     16  C   UNL d   1     -10.616  -4.002  -5.595 -0.21 +0.00    -0.021 A 
DOCKED: ATOM     17  C   UNL d   1     -10.542  -4.016  -4.195 -0.23 -0.00    +0.000 A 
DOCKED: ATOM     18  C   UNL d   1     -11.074  -2.798  -3.785 -0.17 -0.01    +0.070 A 
DOCKED: ATOM     19  C   UNL d   1     -10.169  -5.061  -6.579 -0.41 -0.00    +0.052 C 
DOCKED: ATOM     20  C   UNL d   1     -11.842  -1.208  -1.983 -0.16 -0.01    +0.066 A 
DOCKED: ATOM     21  C   UNL d   1     -11.983  -0.903  -0.631 -0.21 +0.01    -0.025 A 
DOCKED: ATOM     22  C   UNL d   1     -12.647   0.309  -0.590 -0.15 +0.00    -0.021 A 
DOCKED: ATOM     23  C   UNL d   1     -12.890   0.681  -1.929 -0.12 +0.01    +0.066 A 
DOCKED: ATOM     24  C   UNL d   1     -11.526  -1.735   0.564 -0.22 -0.05    +0.051 C 
DOCKED: ATOM     25  N   UNL d   1     -13.577   1.347  -4.746 -0.03 -0.18    -0.248 N 
DOCKED: ATOM     26  N   UNL d   1     -12.735  -0.303  -6.820 -0.07 -0.10    -0.248 N 
DOCKED: ATOM     27  N   UNL d   1     -11.484  -2.107  -4.842 -0.09 -0.01    -0.248 N 
DOCKED: ATOM     28  N   UNL d   1     -12.407  -0.236  -2.776 -0.07 -0.03    -0.248 N 
DOCKED: ATOM     29 FE   UNL d   1     -12.468  -0.482  -4.793 -0.02 +0.00    +0.000 Fe
DOCKED: ENDROOT
DOCKED: BRANCH   6  30
DOCKED: ATOM     30  C   UNL d   1     -15.509   4.121  -3.065 -0.06 +0.02    +0.052 C 
DOCKED: BRANCH  30  31
DOCKED: ATOM     31  C   UNL d   1     -14.487   5.091  -2.474 -0.10 +0.05    +0.115 C 
DOCKED: BRANCH  31  32
DOCKED: ATOM     32  C   UNL d   1     -13.877   5.997  -3.522 -0.11 +0.09    +0.139 C 
DOCKED: ATOM     33  O   UNL d   1     -13.242   5.506  -4.444 -0.38 -0.97    -0.650 OA
DOCKED: BRANCH  32  34
DOCKED: ATOM     34  O   UNL d   1     -14.051   7.339  -3.500 +0.04 -0.30    -0.776 OA
DOCKED: ATOM     35  H   UNL d   1     -14.872   7.776  -3.238 +0.02 +0.04    +0.167 HD
DOCKED: ENDBRANCH  32  34
DOCKED: ENDBRANCH  31  32
DOCKED: ENDBRANCH  30  31
DOCKED: ENDBRANCH   6  30
DOCKED: BRANCH  29  36
DOCKED: ATOM     36  C   UNL d   1     -14.310  -1.472  -4.640 -0.02 +0.01    +0.190 C 
DOCKED: BRANCH  36  37
DOCKED: ATOM     37  O   UNL d   1     -15.347  -1.763  -3.748 +0.00 +0.01    -0.399 OA
DOCKED: ATOM     38  H   UNL d   1     -15.034  -1.415  -2.867 +0.01 -0.01    +0.209 HD
DOCKED: ENDBRANCH  36  37
DOCKED: ENDBRANCH  29  36
DOCKED: BRANCH  22  39
DOCKED: ATOM     39  C   UNL d   1     -13.078   1.033   0.672 -0.14 -0.00    +0.052 C 
DOCKED: BRANCH  39  40
DOCKED: ATOM     40  C   UNL d   1     -14.357   0.404   1.248 -0.03 -0.01    +0.115 C 
DOCKED: BRANCH  40  41
DOCKED: ATOM     41  C   UNL d   1     -15.395   0.035   0.209 -0.01 -0.01    +0.139 C 
DOCKED: ATOM     42  O   UNL d   1     -16.441   0.666   0.157 +0.01 +0.01    -0.650 OA
DOCKED: BRANCH  41  43
DOCKED: ATOM     43  O   UNL d   1     -15.161  -0.918  -0.720 +0.03 +0.09    -0.776 OA
DOCKED: ATOM     44  H   UNL d   1     -15.548  -0.887  -1.605 +0.01 -0.01    +0.167 HD
DOCKED: ENDBRANCH  41  43
DOCKED: ENDBRANCH  40  41
DOCKED: ENDBRANCH  39  40
DOCKED: ENDBRANCH  22  39
DOCKED: BRANCH  12  45
DOCKED: ATOM     45  C   UNL d   1     -11.881  -1.802 -10.127 -0.22 +0.00    +0.004 C 
DOCKED: ATOM     46  C   UNL d   1     -11.278  -1.449 -11.259 -0.33 +0.00    +0.012 C 
DOCKED: ENDBRANCH  12  45
DOCKED: BRANCH  17  47
DOCKED: ATOM     47  C   UNL d   1     -10.063  -5.091  -3.275 -0.39 -0.00    +0.004 C 
DOCKED: ATOM     48  C   UNL d   1      -8.838  -5.115  -2.744 -0.57 -0.01    +0.012 C 
DOCKED: ENDBRANCH  17  47
DOCKED: TORSDOF 12
DOCKED: TER
DOCKED: ENDMDL
________________________________________________________________________________


	BEGINNING GENETIC ALGORITHM DOCKING 15 of 100
Run: 15 Seed: 2067074785 80290682 [ Run 15 of 100 GA/GALS ]
Beginning LAMARCKIAN GENETIC ALGORITHM (LGA), with a maximum of 25000000 energy evaluations.

Final-Value: -10.898


	FINAL GENETIC ALGORITHM DOCKED STATE
	_______________________________________________


Detailed state:  trans -13.688 0.767 -4.677 quatxyzw 0.573978 -0.472022 0.330063 -0.582068 center 8.781 34.984 -0.736 ntor 12 -171.2507 115.7590 -75.5359 29.2225 108.0146 133.8973 -141.4205 138.1375 123.9319 -149.9387 0.8294 -19.9711
State:	-13.688   0.767  -4.677   0.706 -0.580  0.406 -108.808   -171.25  115.76  -75.54   29.22  108.01  133.90 -141.42  138.14  123.93 -149.94    0.83  -19.97

DOCKED: MODEL       15
DOCKED: USER    Run = 15
DOCKED: USER    DPF = D:/Protein_go_brrr/autodock/final/mut_K82N/heme_Co/dock.dpf
DOCKED: USER  
DOCKED: USER    Estimated Free Energy of Binding    =   -5.09 kcal/mol  [=(1)+(2)+(3)-(4)]
DOCKED: USER    Estimated Inhibition Constant, Ki   =  185.73 uM (micromolar)  [Temperature = 298.15 K]
DOCKED: USER    
DOCKED: USER    (1) Final Intermolecular Energy     =   -8.67 kcal/mol
DOCKED: USER        vdW + Hbond + desolv Energy     =   -5.74 kcal/mol
DOCKED: USER        Electrostatic Energy            =   -2.93 kcal/mol
DOCKED: USER    (2) Final Total Internal Energy     =   -2.23 kcal/mol
DOCKED: USER    (3) Torsional Free Energy           =   +3.58 kcal/mol
DOCKED: USER    (4) Unbound System's Energy  [=(2)] =   -2.23 kcal/mol
DOCKED: USER    
DOCKED: USER    
DOCKED: USER    NEWDPF move heme_Co_opt.pdbqt
DOCKED: USER    NEWDPF about 8.781000 34.984000 -0.736000
DOCKED: USER    NEWDPF tran0 -13.687878 0.767178 -4.676767
DOCKED: USER    NEWDPF quaternion0 0.573978 -0.472022 0.330063 -0.582068
DOCKED: USER    NEWDPF axisangle0 0.705878 -0.580492 0.405911 -108.807712
DOCKED: USER    NEWDPF quat0 0.705878 -0.580492 0.405911 -108.807712
DOCKED: USER    NEWDPF dihe0 -171.25 115.76 -75.54 29.22 108.01 133.90 -141.42 138.14 123.93 -149.94 0.83 -19.97 
DOCKED: USER  keepresnum = 1 
DOCKED: USER  
DOCKED: REMARK  12 active torsions:
DOCKED: REMARK  status: ('A' for Active; 'I' for Inactive)
DOCKED: REMARK    1  A    between atoms: C_6  and  C_10 
DOCKED: REMARK    2  A    between atoms: C_10  and  C_11 
DOCKED: REMARK    3  A    between atoms: C_11  and  C_12 
DOCKED: REMARK    4  A    between atoms: C_12  and  O_14 
DOCKED: REMARK    5  A    between atoms: C_17  and  C_20 
DOCKED: REMARK    6  A    between atoms: C_24  and  C_27 
DOCKED: REMARK    7  A    between atoms: C_31  and  C_34 
DOCKED: REMARK    8  A    between atoms: C_34  and  C_35 
DOCKED: REMARK    9  A    between atoms: C_35  and  C_36 
DOCKED: REMARK   10  A    between atoms: C_36  and  O_38 
DOCKED: REMARK   11  A    between atoms: FE_43  and  C_44 
DOCKED: REMARK   12  A    between atoms: C_44  and  O_45 
DOCKED: USER                              x       y       z     vdW  Elec       q    Type
DOCKED: USER                           _______ _______ _______ _____ _____    ______ ____
DOCKED: ROOT
DOCKED: ATOM      1  C   UNL d   1     -14.656   1.966  -6.206 -0.06 +0.04    +0.064 A 
DOCKED: ATOM      2  C   UNL d   1     -12.406  -2.219  -6.376 -0.14 +0.01    +0.064 C 
DOCKED: ATOM      3  C   UNL d   1     -11.215  -1.809  -1.768 -0.22 -0.03    +0.064 A 
DOCKED: ATOM      4  C   UNL d   1     -13.833   2.280  -1.469 -0.11 +0.02    +0.064 A 
DOCKED: ATOM      5  C   UNL d   1     -14.098   0.810  -6.601 -0.06 +0.03    +0.066 A 
DOCKED: ATOM      6  C   UNL d   1     -14.285   0.294  -7.898 -0.05 -0.01    -0.021 A 
DOCKED: ATOM      7  C   UNL d   1     -13.649  -0.931  -7.935 -0.07 -0.01    -0.025 A 
DOCKED: ATOM      8  C   UNL d   1     -13.088  -1.103  -6.665 -0.08 +0.02    +0.066 A 
DOCKED: ATOM      9  C   UNL d   1     -13.565  -1.914  -9.112 -0.11 +0.01    +0.051 C 
DOCKED: ATOM     10  C   UNL d   1     -11.772  -2.472  -5.107 -0.13 +0.00    +0.066 A 
DOCKED: ATOM     11  C   UNL d   1     -10.926  -3.557  -4.788 -0.18 +0.00    -0.021 A 
DOCKED: ATOM     12  C   UNL d   1     -10.590  -3.410  -3.439 -0.25 -0.00    +0.000 A 
DOCKED: ATOM     13  C   UNL d   1     -11.243  -2.244  -3.040 -0.18 -0.02    +0.070 A 
DOCKED: ATOM     14  C   UNL d   1     -10.409  -4.598  -5.747 -0.27 -0.00    +0.052 C 
DOCKED: ATOM     15  C   UNL d   1     -11.871  -0.661  -1.173 -0.20 -0.01    +0.066 A 
DOCKED: ATOM     16  C   UNL d   1     -11.919  -0.348   0.178 -0.24 +0.01    -0.021 A 
DOCKED: ATOM     17  C   UNL d   1     -12.676   0.829   0.270 -0.17 -0.00    +0.000 A 
DOCKED: ATOM     18  C   UNL d   1     -13.016   1.152  -1.040 -0.13 +0.01    +0.070 A 
DOCKED: ATOM     19  C   UNL d   1     -11.273  -1.149   1.287 -0.02 -0.03    +0.052 C 
DOCKED: ATOM     20  C   UNL d   1     -14.249   2.566  -2.726 -0.09 +0.03    +0.066 A 
DOCKED: ATOM     21  C   UNL d   1     -15.063   3.661  -3.008 -0.08 -0.01    -0.025 A 
DOCKED: ATOM     22  C   UNL d   1     -15.293   3.613  -4.371 -0.07 -0.01    -0.021 A 
DOCKED: ATOM     23  C   UNL d   1     -14.612   2.475  -4.854 -0.08 +0.05    +0.066 A 
DOCKED: ATOM     24  C   UNL d   1     -15.612   4.692  -2.026 -0.04 +0.01    +0.051 C 
DOCKED: ATOM     25  N   UNL d   1     -13.345  -0.037  -5.820 -0.06 -0.10    -0.248 N 
DOCKED: ATOM     26  N   UNL d   1     -11.911  -1.648  -4.063 -0.07 -0.00    -0.248 N 
DOCKED: ATOM     27  N   UNL d   1     -12.546   0.227  -1.869 -0.08 -0.02    -0.248 N 
DOCKED: ATOM     28  N   UNL d   1     -13.981   1.838  -3.861 -0.07 -0.15    -0.248 N 
DOCKED: ATOM     29 FE   UNL d   1     -12.923   0.106  -3.727 -0.02 +0.00    +0.000 Fe
DOCKED: ENDROOT
DOCKED: BRANCH   6  30
DOCKED: ATOM     30  C   UNL d   1     -15.109   0.922  -9.017 -0.02 +0.01    +0.052 C 
DOCKED: BRANCH  30  31
DOCKED: ATOM     31  C   UNL d   1     -14.277   1.947  -9.787 -0.03 +0.04    +0.115 C 
DOCKED: BRANCH  31  32
DOCKED: ATOM     32  C   UNL d   1     -13.742   3.045  -8.894 -0.06 +0.09    +0.139 C 
DOCKED: ATOM     33  O   UNL d   1     -12.661   2.898  -8.342 -0.34 -0.84    -0.650 OA
DOCKED: BRANCH  32  34
DOCKED: ATOM     34  O   UNL d   1     -14.401   4.214  -8.720 +0.01 -0.44    -0.776 OA
DOCKED: ATOM     35  H   UNL d   1     -14.059   4.961  -8.210 +0.01 +0.12    +0.167 HD
DOCKED: ENDBRANCH  32  34
DOCKED: ENDBRANCH  31  32
DOCKED: ENDBRANCH  30  31
DOCKED: ENDBRANCH   6  30
DOCKED: BRANCH  29  36
DOCKED: ATOM     36  C   UNL d   1     -14.691  -0.976  -3.412 -0.01 +0.01    +0.190 C 
DOCKED: BRANCH  36  37
DOCKED: ATOM     37  O   UNL d   1     -15.906  -1.325  -4.010 +0.00 -0.01    -0.399 OA
DOCKED: ATOM     38  H   UNL d   1     -15.869  -0.917  -4.920 +0.01 +0.02    +0.209 HD
DOCKED: ENDBRANCH  36  37
DOCKED: ENDBRANCH  29  36
DOCKED: BRANCH  22  39
DOCKED: ATOM     39  C   UNL d   1     -16.173   4.573  -5.149 -0.03 +0.02    +0.052 C 
DOCKED: BRANCH  39  40
DOCKED: ATOM     40  C   UNL d   1     -15.411   5.869  -5.470 -0.04 +0.05    +0.115 C 
DOCKED: BRANCH  40  41
DOCKED: ATOM     41  C   UNL d   1     -13.905   5.718  -5.501 +0.09 +0.17    +0.139 C 
DOCKED: ATOM     42  O   UNL d   1     -13.277   5.774  -4.453 -0.41 -0.85    -0.650 OA
DOCKED: BRANCH  41  43
DOCKED: ATOM     43  O   UNL d   1     -13.243   5.434  -6.644 -0.15 -1.47    -0.776 OA
DOCKED: ATOM     44  H   UNL d   1     -13.312   4.578  -7.085 +0.00 +0.33    +0.167 HD
DOCKED: ENDBRANCH  41  43
DOCKED: ENDBRANCH  40  41
DOCKED: ENDBRANCH  39  40
DOCKED: ENDBRANCH  22  39
DOCKED: BRANCH  12  45
DOCKED: ATOM     45  C   UNL d   1      -9.717  -4.222  -2.492 -0.40 -0.00    +0.004 C 
DOCKED: ATOM     46  C   UNL d   1      -8.743  -5.093  -2.744 -0.58 -0.01    +0.012 C 
DOCKED: ENDBRANCH  12  45
DOCKED: BRANCH  17  47
DOCKED: ATOM     47  C   UNL d   1     -13.110   1.592   1.477 -0.16 -0.00    +0.004 C 
DOCKED: ATOM     48  C   UNL d   1     -12.361   2.527   2.067 -0.29 +0.00    +0.012 C 
DOCKED: ENDBRANCH  17  47
DOCKED: TORSDOF 12
DOCKED: TER
DOCKED: ENDMDL
________________________________________________________________________________


	BEGINNING GENETIC ALGORITHM DOCKING 16 of 100
Run: 16 Seed: 1692117440 1666211054 [ Run 16 of 100 GA/GALS ]
Beginning LAMARCKIAN GENETIC ALGORITHM (LGA), with a maximum of 25000000 energy evaluations.

Final-Value: -9.244


	FINAL GENETIC ALGORITHM DOCKED STATE
	_______________________________________________


Detailed state:  trans 9.243 12.898 -13.445 quatxyzw -0.638498 -0.489338 -0.163230 -0.571160 center 8.781 34.984 -0.736 ntor 12 164.1278 131.5548 10.6241 98.8441 132.6054 133.5448 -128.4499 110.9530 -136.0518 -92.0701 -179.6984 -12.2508
State:	  9.243  12.898 -13.445  -0.778 -0.596 -0.199 -110.338    164.13  131.55   10.62   98.84  132.61  133.54 -128.45  110.95 -136.05  -92.07 -179.70  -12.25

DOCKED: MODEL       16
DOCKED: USER    Run = 16
DOCKED: USER    DPF = D:/Protein_go_brrr/autodock/final/mut_K82N/heme_Co/dock.dpf
DOCKED: USER  
DOCKED: USER    Estimated Free Energy of Binding    =   -3.44 kcal/mol  [=(1)+(2)+(3)-(4)]
DOCKED: USER    Estimated Inhibition Constant, Ki   =    3.01 mM (millimolar)  [Temperature = 298.15 K]
DOCKED: USER    
DOCKED: USER    (1) Final Intermolecular Energy     =   -7.02 kcal/mol
DOCKED: USER        vdW + Hbond + desolv Energy     =   -6.28 kcal/mol
DOCKED: USER        Electrostatic Energy            =   -0.74 kcal/mol
DOCKED: USER    (2) Final Total Internal Energy     =   -2.22 kcal/mol
DOCKED: USER    (3) Torsional Free Energy           =   +3.58 kcal/mol
DOCKED: USER    (4) Unbound System's Energy  [=(2)] =   -2.22 kcal/mol
DOCKED: USER    
DOCKED: USER    
DOCKED: USER    NEWDPF move heme_Co_opt.pdbqt
DOCKED: USER    NEWDPF about 8.781000 34.984000 -0.736000
DOCKED: USER    NEWDPF tran0 9.242800 12.897887 -13.445091
DOCKED: USER    NEWDPF quaternion0 -0.638498 -0.489338 -0.163230 -0.571160
DOCKED: USER    NEWDPF axisangle0 -0.777861 -0.596144 -0.198858 -110.337663
DOCKED: USER    NEWDPF quat0 -0.777861 -0.596144 -0.198858 -110.337663
DOCKED: USER    NEWDPF dihe0 164.13 131.55 10.62 98.84 132.61 133.54 -128.45 110.95 -136.05 -92.07 -179.70 -12.25 
DOCKED: USER  keepresnum = 1 
DOCKED: USER  
DOCKED: REMARK  12 active torsions:
DOCKED: REMARK  status: ('A' for Active; 'I' for Inactive)
DOCKED: REMARK    1  A    between atoms: C_6  and  C_10 
DOCKED: REMARK    2  A    between atoms: C_10  and  C_11 
DOCKED: REMARK    3  A    between atoms: C_11  and  C_12 
DOCKED: REMARK    4  A    between atoms: C_12  and  O_14 
DOCKED: REMARK    5  A    between atoms: C_17  and  C_20 
DOCKED: REMARK    6  A    between atoms: C_24  and  C_27 
DOCKED: REMARK    7  A    between atoms: C_31  and  C_34 
DOCKED: REMARK    8  A    between atoms: C_34  and  C_35 
DOCKED: REMARK    9  A    between atoms: C_35  and  C_36 
DOCKED: REMARK   10  A    between atoms: C_36  and  O_38 
DOCKED: REMARK   11  A    between atoms: FE_43  and  C_44 
DOCKED: REMARK   12  A    between atoms: C_44  and  O_45 
DOCKED: USER                              x       y       z     vdW  Elec       q    Type
DOCKED: USER                           _______ _______ _______ _____ _____    ______ ____
DOCKED: ROOT
DOCKED: ATOM      1  C   UNL d   1       9.040  11.359 -14.964 -0.14 +0.02    +0.064 A 
DOCKED: ATOM      2  C   UNL d   1       6.162  14.883 -13.582 -0.22 -0.00    +0.064 C 
DOCKED: ATOM      3  C   UNL d   1       9.181  16.017 -10.057 -0.18 -0.00    +0.064 A 
DOCKED: ATOM      4  C   UNL d   1      12.319  12.676 -11.687 -0.17 +0.00    +0.064 A 
DOCKED: ATOM      5  C   UNL d   1       8.015  12.215 -14.823 -0.18 +0.03    +0.066 A 
DOCKED: ATOM      6  C   UNL d   1       6.938  12.247 -15.730 -0.09 -0.01    -0.021 A 
DOCKED: ATOM      7  C   UNL d   1       6.117  13.287 -15.337 -0.17 -0.00    -0.025 A 
DOCKED: ATOM      8  C   UNL d   1       6.719  13.833 -14.199 -0.20 +0.01    +0.066 A 
DOCKED: ATOM      9  C   UNL d   1       4.813  13.759 -15.999 -0.13 +0.00    +0.051 C 
DOCKED: ATOM     10  C   UNL d   1       6.695  15.495 -12.390 -0.21 -0.00    +0.066 A 
DOCKED: ATOM     11  C   UNL d   1       6.085  16.506 -11.616 -0.21 +0.00    -0.021 A 
DOCKED: ATOM     12  C   UNL d   1       6.985  16.815 -10.593 -0.25 -0.00    +0.000 A 
DOCKED: ATOM     13  C   UNL d   1       8.069  15.964 -10.810 -0.24 -0.00    +0.070 A 
DOCKED: ATOM     14  C   UNL d   1       4.694  17.057 -11.804 -0.20 -0.01    +0.052 C 
DOCKED: ATOM     15  C   UNL d   1      10.408  15.253 -10.173 -0.23 +0.00    +0.066 A 
DOCKED: ATOM     16  C   UNL d   1      11.577  15.459  -9.453 -0.12 -0.00    -0.021 A 
DOCKED: ATOM     17  C   UNL d   1      12.485  14.499  -9.921 -0.18 +0.00    +0.000 A 
DOCKED: ATOM     18  C   UNL d   1      11.791  13.770 -10.882 -0.21 +0.00    +0.070 A 
DOCKED: ATOM     19  C   UNL d   1      11.778  16.517  -8.392 -0.06 -0.00    +0.052 C 
DOCKED: ATOM     20  C   UNL d   1      11.691  12.010 -12.685 -0.16 +0.00    +0.066 A 
DOCKED: ATOM     21  C   UNL d   1      12.315  10.999 -13.412 -0.10 -0.00    -0.025 A 
DOCKED: ATOM     22  C   UNL d   1      11.384  10.581 -14.345 -0.09 -0.00    -0.021 A 
DOCKED: ATOM     23  C   UNL d   1      10.233  11.372 -14.148 -0.13 +0.01    +0.066 A 
DOCKED: ATOM     24  C   UNL d   1      13.737  10.470 -13.241 -0.06 -0.00    +0.051 C 
DOCKED: ATOM     25  N   UNL d   1       7.894  13.185 -13.854 -0.14 -0.05    -0.248 N 
DOCKED: ATOM     26  N   UNL d   1       7.867  15.127 -11.863 -0.16 +0.00    -0.248 N 
DOCKED: ATOM     27  N   UNL d   1      10.568  14.267 -11.026 -0.19 -0.01    -0.248 N 
DOCKED: ATOM     28  N   UNL d   1      10.415  12.240 -13.145 -0.08 -0.04    -0.248 N 
DOCKED: ATOM     29 FE   UNL d   1       9.312  13.755 -12.357 -0.06 +0.00    +0.000 Fe
DOCKED: ENDROOT
DOCKED: BRANCH   6  30
DOCKED: ATOM     30  C   UNL d   1       6.760  11.367 -16.962 -0.06 +0.03    +0.052 C 
DOCKED: BRANCH  30  31
DOCKED: ATOM     31  C   UNL d   1       7.274  12.081 -18.212 -0.04 +0.02    +0.115 C 
DOCKED: BRANCH  31  32
DOCKED: ATOM     32  C   UNL d   1       8.580  12.806 -17.966 -0.01 +0.01    +0.139 C 
DOCKED: ATOM     33  O   UNL d   1       9.627  12.306 -18.351 +0.02 -0.03    -0.650 OA
DOCKED: BRANCH  32  34
DOCKED: ATOM     34  O   UNL d   1       8.625  14.022 -17.372 +0.03 -0.02    -0.776 OA
DOCKED: ATOM     35  H   UNL d   1       9.413  14.392 -16.951 +0.01 +0.00    +0.167 HD
DOCKED: ENDBRANCH  32  34
DOCKED: ENDBRANCH  31  32
DOCKED: ENDBRANCH  30  31
DOCKED: ENDBRANCH   6  30
DOCKED: BRANCH  29  36
DOCKED: ATOM     36  C   UNL d   1      10.096  15.092 -13.769 -0.04 +0.00    +0.190 C 
DOCKED: BRANCH  36  37
DOCKED: ATOM     37  O   UNL d   1      10.165  15.348 -15.143 +0.00 +0.00    -0.399 OA
DOCKED: ATOM     38  H   UNL d   1       9.419  14.818 -15.540 +0.02 +0.00    +0.209 HD
DOCKED: ENDBRANCH  36  37
DOCKED: ENDBRANCH  29  36
DOCKED: BRANCH  22  39
DOCKED: ATOM     39  C   UNL d   1      11.618   9.524 -15.408 -0.04 +0.00    +0.052 C 
DOCKED: BRANCH  39  40
DOCKED: ATOM     40  C   UNL d   1      11.261   8.127 -14.872 -0.06 +0.01    +0.115 C 
DOCKED: BRANCH  40  41
DOCKED: ATOM     41  C   UNL d   1       9.786   7.793 -14.933 -0.10 +0.05    +0.139 C 
DOCKED: ATOM     42  O   UNL d   1       9.150   7.700 -13.893 -0.13 -0.32    -0.650 OA
DOCKED: BRANCH  41  43
DOCKED: ATOM     43  O   UNL d   1       9.131   7.679 -16.110 -0.53 -0.49    -0.776 OA
DOCKED: ATOM     44  H   UNL d   1       9.591   7.564 -16.951 +0.02 +0.04    +0.167 HD
DOCKED: ENDBRANCH  41  43
DOCKED: ENDBRANCH  40  41
DOCKED: ENDBRANCH  39  40
DOCKED: ENDBRANCH  22  39
DOCKED: BRANCH  12  45
DOCKED: ATOM     45  C   UNL d   1       6.938  17.798  -9.430 -0.26 -0.00    +0.004 C 
DOCKED: ATOM     46  C   UNL d   1       6.497  17.645  -8.185 -0.25 -0.00    +0.012 C 
DOCKED: ENDBRANCH  12  45
DOCKED: BRANCH  17  47
DOCKED: ATOM     47  C   UNL d   1      13.918  14.284  -9.558 -0.12 -0.00    +0.004 C 
DOCKED: ATOM     48  C   UNL d   1      14.354  13.223  -8.874 -0.15 -0.00    +0.012 C 
DOCKED: ENDBRANCH  17  47
DOCKED: TORSDOF 12
DOCKED: TER
DOCKED: ENDMDL
________________________________________________________________________________


	BEGINNING GENETIC ALGORITHM DOCKING 17 of 100
Run: 17 Seed: 1685094827 369126641 [ Run 17 of 100 GA/GALS ]
Beginning LAMARCKIAN GENETIC ALGORITHM (LGA), with a maximum of 25000000 energy evaluations.

Final-Value: -10.689


	FINAL GENETIC ALGORITHM DOCKED STATE
	_______________________________________________


Detailed state:  trans 11.147 5.166 12.135 quatxyzw 0.074897 -0.380287 0.311344 0.867662 center 8.781 34.984 -0.736 ntor 12 131.7905 132.8252 31.0133 104.0707 98.8672 124.2744 -140.6596 119.7722 -126.3882 -19.6832 -170.5595 171.8723
State:	 11.147   5.166  12.135   0.151 -0.765  0.626 59.624    131.79  132.83   31.01  104.07   98.87  124.27 -140.66  119.77 -126.39  -19.68 -170.56  171.87

DOCKED: MODEL       17
DOCKED: USER    Run = 17
DOCKED: USER    DPF = D:/Protein_go_brrr/autodock/final/mut_K82N/heme_Co/dock.dpf
DOCKED: USER  
DOCKED: USER    Estimated Free Energy of Binding    =   -5.10 kcal/mol  [=(1)+(2)+(3)-(4)]
DOCKED: USER    Estimated Inhibition Constant, Ki   =  182.71 uM (micromolar)  [Temperature = 298.15 K]
DOCKED: USER    
DOCKED: USER    (1) Final Intermolecular Energy     =   -8.68 kcal/mol
DOCKED: USER        vdW + Hbond + desolv Energy     =   -7.74 kcal/mol
DOCKED: USER        Electrostatic Energy            =   -0.94 kcal/mol
DOCKED: USER    (2) Final Total Internal Energy     =   -2.01 kcal/mol
DOCKED: USER    (3) Torsional Free Energy           =   +3.58 kcal/mol
DOCKED: USER    (4) Unbound System's Energy  [=(2)] =   -2.01 kcal/mol
DOCKED: USER    
DOCKED: USER    
DOCKED: USER    NEWDPF move heme_Co_opt.pdbqt
DOCKED: USER    NEWDPF about 8.781000 34.984000 -0.736000
DOCKED: USER    NEWDPF tran0 11.146622 5.166301 12.134667
DOCKED: USER    NEWDPF quaternion0 0.074897 -0.380287 0.311344 0.867662
DOCKED: USER    NEWDPF axisangle0 0.150652 -0.764927 0.626251 59.623919
DOCKED: USER    NEWDPF quat0 0.150652 -0.764927 0.626251 59.623919
DOCKED: USER    NEWDPF dihe0 131.79 132.83 31.01 104.07 98.87 124.27 -140.66 119.77 -126.39 -19.68 -170.56 171.87 
DOCKED: USER  keepresnum = 1 
DOCKED: USER  
DOCKED: REMARK  12 active torsions:
DOCKED: REMARK  status: ('A' for Active; 'I' for Inactive)
DOCKED: REMARK    1  A    between atoms: C_6  and  C_10 
DOCKED: REMARK    2  A    between atoms: C_10  and  C_11 
DOCKED: REMARK    3  A    between atoms: C_11  and  C_12 
DOCKED: REMARK    4  A    between atoms: C_12  and  O_14 
DOCKED: REMARK    5  A    between atoms: C_17  and  C_20 
DOCKED: REMARK    6  A    between atoms: C_24  and  C_27 
DOCKED: REMARK    7  A    between atoms: C_31  and  C_34 
DOCKED: REMARK    8  A    between atoms: C_34  and  C_35 
DOCKED: REMARK    9  A    between atoms: C_35  and  C_36 
DOCKED: REMARK   10  A    between atoms: C_36  and  O_38 
DOCKED: REMARK   11  A    between atoms: FE_43  and  C_44 
DOCKED: REMARK   12  A    between atoms: C_44  and  O_45 
DOCKED: USER                              x       y       z     vdW  Elec       q    Type
DOCKED: USER                           _______ _______ _______ _____ _____    ______ ____
DOCKED: ROOT
DOCKED: ATOM      1  C   UNL d   1       9.787   6.809  12.544 -0.11 -0.00    +0.064 A 
DOCKED: ATOM      2  C   UNL d   1      11.791   3.544  15.360 -0.20 -0.01    +0.064 C 
DOCKED: ATOM      3  C   UNL d   1      13.694   1.374  11.553 -0.13 -0.01    +0.064 A 
DOCKED: ATOM      4  C   UNL d   1      11.979   4.915   8.693 -0.16 +0.00    +0.064 A 
DOCKED: ATOM      5  C   UNL d   1      10.165   6.056  13.590 -0.15 -0.01    +0.066 A 
DOCKED: ATOM      6  C   UNL d   1       9.857   6.412  14.917 -0.28 +0.00    -0.021 A 
DOCKED: ATOM      7  C   UNL d   1      10.460   5.473  15.731 -0.24 +0.00    -0.025 A 
DOCKED: ATOM      8  C   UNL d   1      11.096   4.577  14.866 -0.21 -0.01    +0.066 A 
DOCKED: ATOM      9  C   UNL d   1      10.448   5.410  17.266 -0.17 +0.00    +0.051 C 
DOCKED: ATOM     10  C   UNL d   1      12.456   2.556  14.548 -0.13 -0.01    +0.066 A 
DOCKED: ATOM     11  C   UNL d   1      13.082   1.374  15.000 -0.15 +0.00    -0.021 A 
DOCKED: ATOM     12  C   UNL d   1      13.625   0.759  13.869 -0.16 -0.00    +0.000 A 
DOCKED: ATOM     13  C   UNL d   1      13.280   1.601  12.812 -0.13 -0.01    +0.070 A 
DOCKED: ATOM     14  C   UNL d   1      13.067   0.840  16.409 -0.20 -0.00    +0.052 C 
DOCKED: ATOM     15  C   UNL d   1      13.477   2.163  10.356 -0.13 -0.00    +0.066 A 
DOCKED: ATOM     16  C   UNL d   1      14.054   1.949   9.113 -0.11 +0.00    -0.021 A 
DOCKED: ATOM     17  C   UNL d   1      13.564   2.969   8.285 -0.12 -0.00    +0.000 A 
DOCKED: ATOM     18  C   UNL d   1      12.710   3.718   9.088 -0.14 -0.00    +0.070 A 
DOCKED: ATOM     19  C   UNL d   1      15.012   0.829   8.772 -0.05 +0.00    +0.052 C 
DOCKED: ATOM     20  C   UNL d   1      11.211   5.709   9.478 -0.22 +0.00    +0.066 A 
DOCKED: ATOM     21  C   UNL d   1      10.587   6.855   8.991 -0.23 -0.00    -0.025 A 
DOCKED: ATOM     22  C   UNL d   1       9.924   7.406  10.072 -0.31 -0.00    -0.021 A 
DOCKED: ATOM     23  C   UNL d   1      10.189   6.568  11.176 -0.28 -0.00    +0.066 A 
DOCKED: ATOM     24  C   UNL d   1      10.636   7.410   7.570 -0.14 +0.01    +0.051 C 
DOCKED: ATOM     25  N   UNL d   1      10.925   4.910  13.533 -0.15 +0.03    -0.248 N 
DOCKED: ATOM     26  N   UNL d   1      12.526   2.658  13.216 -0.07 +0.02    -0.248 N 
DOCKED: ATOM     27  N   UNL d   1      12.706   3.227  10.322 -0.07 +0.01    -0.248 N 
DOCKED: ATOM     28  N   UNL d   1      10.969   5.541  10.821 -0.17 +0.01    -0.248 N 
DOCKED: ATOM     29 FE   UNL d   1      11.866   4.021  11.830 -0.04 -0.00    +0.000 Fe
DOCKED: ENDROOT
DOCKED: BRANCH   6  30
DOCKED: ATOM     30  C   UNL d   1       9.086   7.646  15.372 -0.28 -0.01    +0.052 C 
DOCKED: BRANCH  30  31
DOCKED: ATOM     31  C   UNL d   1      10.028   8.840  15.531 -0.14 -0.00    +0.115 C 
DOCKED: BRANCH  31  32
DOCKED: ATOM     32  C   UNL d   1      10.877   9.072  14.300 -0.10 +0.01    +0.139 C 
DOCKED: ATOM     33  O   UNL d   1      10.463   9.805  13.414 -0.36 -0.06    -0.650 OA
DOCKED: BRANCH  32  34
DOCKED: ATOM     34  O   UNL d   1      12.110   8.530  14.166 +0.04 +0.00    -0.776 OA
DOCKED: ATOM     35  H   UNL d   1      12.396   8.011  13.401 +0.02 -0.00    +0.167 HD
DOCKED: ENDBRANCH  32  34
DOCKED: ENDBRANCH  31  32
DOCKED: ENDBRANCH  30  31
DOCKED: ENDBRANCH   6  30
DOCKED: BRANCH  29  36
DOCKED: ATOM     36  C   UNL d   1      13.519   5.242  12.248 -0.02 -0.01    +0.190 C 
DOCKED: BRANCH  36  37
DOCKED: ATOM     37  O   UNL d   1      13.882   6.478  12.791 +0.00 +0.01    -0.399 OA
DOCKED: ATOM     38  H   UNL d   1      13.101   6.751  13.350 +0.02 -0.00    +0.209 HD
DOCKED: ENDBRANCH  36  37
DOCKED: ENDBRANCH  29  36
DOCKED: BRANCH  22  39
DOCKED: ATOM     39  C   UNL d   1       9.135   8.702  10.053 -0.34 +0.01    +0.052 C 
DOCKED: BRANCH  39  40
DOCKED: ATOM     40  C   UNL d   1      10.058   9.903  10.319 -0.19 +0.03    +0.115 C 
DOCKED: BRANCH  40  41
DOCKED: ATOM     41  C   UNL d   1       9.557  11.214   9.751 +0.04 +0.08    +0.139 C 
DOCKED: ATOM     42  O   UNL d   1      10.047  11.644   8.716 -0.52 -0.49    -0.650 OA
DOCKED: BRANCH  41  43
DOCKED: ATOM     43  O   UNL d   1       8.522  11.880  10.309 -0.50 -0.57    -0.776 OA
DOCKED: ATOM     44  H   UNL d   1       8.385  11.922  11.264 +0.02 +0.04    +0.167 HD
DOCKED: ENDBRANCH  41  43
DOCKED: ENDBRANCH  40  41
DOCKED: ENDBRANCH  39  40
DOCKED: ENDBRANCH  22  39
DOCKED: BRANCH  12  45
DOCKED: ATOM     45  C   UNL d   1      14.409  -0.531  13.664 -0.24 -0.00    +0.004 C 
DOCKED: ATOM     46  C   UNL d   1      13.999  -1.746  13.311 -0.33 -0.00    +0.012 C 
DOCKED: ENDBRANCH  12  45
DOCKED: BRANCH  17  47
DOCKED: ATOM     47  C   UNL d   1      13.889   3.281   6.861 -0.10 -0.00    +0.004 C 
DOCKED: ATOM     48  C   UNL d   1      13.397   2.596   5.826 -0.13 -0.00    +0.012 C 
DOCKED: ENDBRANCH  17  47
DOCKED: TORSDOF 12
DOCKED: TER
DOCKED: ENDMDL
________________________________________________________________________________


	BEGINNING GENETIC ALGORITHM DOCKING 18 of 100
Run: 18 Seed: 884003886 1013262317 [ Run 18 of 100 GA/GALS ]
Beginning LAMARCKIAN GENETIC ALGORITHM (LGA), with a maximum of 25000000 energy evaluations.

Final-Value: -10.865


	FINAL GENETIC ALGORITHM DOCKED STATE
	_______________________________________________


Detailed state:  trans -13.330 7.528 -7.627 quatxyzw -0.595259 -0.147171 -0.484042 0.624269 center 8.781 34.984 -0.736 ntor 12 55.1225 105.7743 -135.0812 73.2752 -24.7730 111.3243 18.5744 121.7731 178.0837 141.8240 -176.8132 164.7252
State:	-13.330   7.528  -7.627  -0.762 -0.188 -0.620 102.743     55.12  105.77 -135.08   73.28  -24.77  111.32   18.57  121.77  178.08  141.82 -176.81  164.73

DOCKED: MODEL       18
DOCKED: USER    Run = 18
DOCKED: USER    DPF = D:/Protein_go_brrr/autodock/final/mut_K82N/heme_Co/dock.dpf
DOCKED: USER  
DOCKED: USER    Estimated Free Energy of Binding    =   -3.43 kcal/mol  [=(1)+(2)+(3)-(4)]
DOCKED: USER    Estimated Inhibition Constant, Ki   =    3.04 mM (millimolar)  [Temperature = 298.15 K]
DOCKED: USER    
DOCKED: USER    (1) Final Intermolecular Energy     =   -7.01 kcal/mol
DOCKED: USER        vdW + Hbond + desolv Energy     =   -4.67 kcal/mol
DOCKED: USER        Electrostatic Energy            =   -2.34 kcal/mol
DOCKED: USER    (2) Final Total Internal Energy     =   -3.85 kcal/mol
DOCKED: USER    (3) Torsional Free Energy           =   +3.58 kcal/mol
DOCKED: USER    (4) Unbound System's Energy  [=(2)] =   -3.85 kcal/mol
DOCKED: USER    
DOCKED: USER    
DOCKED: USER    NEWDPF move heme_Co_opt.pdbqt
DOCKED: USER    NEWDPF about 8.781000 34.984000 -0.736000
DOCKED: USER    NEWDPF tran0 -13.330458 7.528015 -7.627382
DOCKED: USER    NEWDPF quaternion0 -0.595259 -0.147171 -0.484042 0.624269
DOCKED: USER    NEWDPF axisangle0 -0.761970 -0.188388 -0.619605 102.742958
DOCKED: USER    NEWDPF quat0 -0.761970 -0.188388 -0.619605 102.742958
DOCKED: USER    NEWDPF dihe0 55.12 105.77 -135.08 73.28 -24.77 111.32 18.57 121.77 178.08 141.82 -176.81 164.73 
DOCKED: USER  keepresnum = 1 
DOCKED: USER  
DOCKED: REMARK  12 active torsions:
DOCKED: REMARK  status: ('A' for Active; 'I' for Inactive)
DOCKED: REMARK    1  A    between atoms: C_6  and  C_10 
DOCKED: REMARK    2  A    between atoms: C_10  and  C_11 
DOCKED: REMARK    3  A    between atoms: C_11  and  C_12 
DOCKED: REMARK    4  A    between atoms: C_12  and  O_14 
DOCKED: REMARK    5  A    between atoms: C_17  and  C_20 
DOCKED: REMARK    6  A    between atoms: C_24  and  C_27 
DOCKED: REMARK    7  A    between atoms: C_31  and  C_34 
DOCKED: REMARK    8  A    between atoms: C_34  and  C_35 
DOCKED: REMARK    9  A    between atoms: C_35  and  C_36 
DOCKED: REMARK   10  A    between atoms: C_36  and  O_38 
DOCKED: REMARK   11  A    between atoms: FE_43  and  C_44 
DOCKED: REMARK   12  A    between atoms: C_44  and  O_45 
DOCKED: USER                              x       y       z     vdW  Elec       q    Type
DOCKED: USER                           _______ _______ _______ _____ _____    ______ ____
DOCKED: ROOT
DOCKED: ATOM      1  C   UNL d   1     -15.135   6.442  -8.156 -0.00 +0.02    +0.064 A 
DOCKED: ATOM      2  C   UNL d   1     -10.540   5.651  -9.091 -0.12 +0.04    +0.064 C 
DOCKED: ATOM      3  C   UNL d   1      -9.368   9.797  -7.026 -0.22 +0.02    +0.064 A 
DOCKED: ATOM      4  C   UNL d   1     -14.008  10.443  -5.718 -0.01 +0.01    +0.064 A 
DOCKED: ATOM      5  C   UNL d   1     -13.970   5.938  -8.595 -0.03 +0.03    +0.066 A 
DOCKED: ATOM      6  C   UNL d   1     -13.886   4.672  -9.206 -0.04 -0.01    -0.021 A 
DOCKED: ATOM      7  C   UNL d   1     -12.547   4.438  -9.455 -0.08 -0.02    -0.025 A 
DOCKED: ATOM      8  C   UNL d   1     -11.874   5.577  -9.000 -0.07 +0.05    +0.066 A 
DOCKED: ATOM      9  C   UNL d   1     -11.911   3.194 -10.095 -0.14 +0.03    +0.051 C 
DOCKED: ATOM     10  C   UNL d   1      -9.765   6.793  -8.674 -0.12 +0.03    +0.066 A 
DOCKED: ATOM     11  C   UNL d   1      -8.381   6.989  -8.871 -0.17 -0.01    -0.021 A 
DOCKED: ATOM     12  C   UNL d   1      -8.066   8.208  -8.262 -0.23 +0.00    +0.000 A 
DOCKED: ATOM     13  C   UNL d   1      -9.280   8.669  -7.752 -0.18 +0.02    +0.070 A 
DOCKED: ATOM     14  C   UNL d   1      -7.459   6.107  -9.673 -0.24 +0.01    +0.052 C 
DOCKED: ATOM     15  C   UNL d   1     -10.524  10.389  -6.382 -0.17 +0.02    +0.066 A 
DOCKED: ATOM     16  C   UNL d   1     -10.520  11.480  -5.524 -0.28 -0.01    -0.021 A 
DOCKED: ATOM     17  C   UNL d   1     -11.856  11.668  -5.142 -0.15 +0.00    +0.000 A 
DOCKED: ATOM     18  C   UNL d   1     -12.574  10.685  -5.814 -0.04 +0.02    +0.070 A 
DOCKED: ATOM     19  C   UNL d   1      -9.296  12.268  -5.114 -0.15 +0.02    +0.052 C 
DOCKED: ATOM     20  C   UNL d   1     -14.716   9.441  -6.293 +0.00 +0.01    +0.066 A 
DOCKED: ATOM     21  C   UNL d   1     -16.087   9.292  -6.098 +0.00 -0.00    -0.025 A 
DOCKED: ATOM     22  C   UNL d   1     -16.445   8.163  -6.812 +0.00 -0.00    -0.021 A 
DOCKED: ATOM     23  C   UNL d   1     -15.262   7.669  -7.403 +0.00 +0.02    +0.066 A 
DOCKED: ATOM     24  C   UNL d   1     -17.009  10.170  -5.255 +0.00 +0.01    +0.051 C 
DOCKED: ATOM     25  N   UNL d   1     -12.731   6.526  -8.468 -0.03 -0.16    -0.248 N 
DOCKED: ATOM     26  N   UNL d   1     -10.316   7.840  -8.051 -0.06 -0.11    -0.248 N 
DOCKED: ATOM     27  N   UNL d   1     -11.745   9.923  -6.519 -0.02 -0.07    -0.248 N 
DOCKED: ATOM     28  N   UNL d   1     -14.213   8.438  -7.089 +0.00 -0.08    -0.248 N 
DOCKED: ATOM     29 FE   UNL d   1     -12.213   8.326  -7.435 -0.01 +0.00    +0.000 Fe
DOCKED: ENDROOT
DOCKED: BRANCH   6  30
DOCKED: ATOM     30  C   UNL d   1     -15.038   3.706  -9.459 -0.01 +0.02    +0.052 C 
DOCKED: BRANCH  30  31
DOCKED: ATOM     31  C   UNL d   1     -15.180   2.724  -8.297 -0.02 +0.05    +0.115 C 
DOCKED: BRANCH  31  32
DOCKED: ATOM     32  C   UNL d   1     -14.098   2.903  -7.254 +0.00 +0.15    +0.139 C 
DOCKED: ATOM     33  O   UNL d   1     -13.247   2.036  -7.117 -0.42 -0.90    -0.650 OA
DOCKED: BRANCH  32  34
DOCKED: ATOM     34  O   UNL d   1     -14.010   4.019  -6.495 +0.03 -1.18    -0.776 OA
DOCKED: ATOM     35  H   UNL d   1     -14.747   4.397  -5.995 +0.00 +0.15    +0.167 HD
DOCKED: ENDBRANCH  32  34
DOCKED: ENDBRANCH  31  32
DOCKED: ENDBRANCH  30  31
DOCKED: ENDBRANCH   6  30
DOCKED: BRANCH  29  36
DOCKED: ATOM     36  C   UNL d   1     -11.960   7.139  -5.726 -0.07 +0.20    +0.190 C 
DOCKED: BRANCH  36  37
DOCKED: ATOM     37  O   UNL d   1     -12.537   6.091  -5.002 -0.40 -0.72    -0.399 OA
DOCKED: ATOM     38  H   UNL d   1     -13.420   5.932  -5.440 +0.02 +0.31    +0.209 HD
DOCKED: ENDBRANCH  36  37
DOCKED: ENDBRANCH  29  36
DOCKED: BRANCH  22  39
DOCKED: ATOM     39  C   UNL d   1     -17.836   7.560  -6.866 +0.00 +0.01    +0.052 C 
DOCKED: BRANCH  39  40
DOCKED: ATOM     40  C   UNL d   1     -17.993   6.460  -5.804 +0.00 +0.02    +0.115 C 
DOCKED: BRANCH  40  41
DOCKED: ATOM     41  C   UNL d   1     -16.812   5.517  -5.703 -0.00 +0.03    +0.139 C 
DOCKED: ATOM     42  O   UNL d   1     -16.874   4.421  -6.243 +0.01 -0.17    -0.650 OA
DOCKED: BRANCH  41  43
DOCKED: ATOM     43  O   UNL d   1     -15.657   5.886  -5.106 +0.01 -0.31    -0.776 OA
DOCKED: ATOM     44  H   UNL d   1     -14.797   5.783  -5.532 +0.01 +0.11    +0.167 HD
DOCKED: ENDBRANCH  41  43
DOCKED: ENDBRANCH  40  41
DOCKED: ENDBRANCH  39  40
DOCKED: ENDBRANCH  22  39
DOCKED: BRANCH  12  45
DOCKED: ATOM     45  C   UNL d   1      -6.770   8.994  -8.122 -0.33 +0.00    +0.004 C 
DOCKED: ATOM     46  C   UNL d   1      -6.003   9.572  -9.043 -0.49 -0.00    +0.012 C 
DOCKED: ENDBRANCH  12  45
DOCKED: BRANCH  17  47
DOCKED: ATOM     47  C   UNL d   1     -12.444  12.651  -4.184 -0.19 +0.00    +0.004 C 
DOCKED: ATOM     48  C   UNL d   1     -11.935  12.896  -2.974 -0.29 +0.00    +0.012 C 
DOCKED: ENDBRANCH  17  47
DOCKED: TORSDOF 12
DOCKED: TER
DOCKED: ENDMDL
________________________________________________________________________________


	BEGINNING GENETIC ALGORITHM DOCKING 19 of 100
Run: 19 Seed: 606290386 1841628244 [ Run 19 of 100 GA/GALS ]
Beginning LAMARCKIAN GENETIC ALGORITHM (LGA), with a maximum of 25000000 energy evaluations.

Final-Value: -11.909


	FINAL GENETIC ALGORITHM DOCKED STATE
	_______________________________________________


Detailed state:  trans -8.073 10.565 -12.129 quatxyzw -0.082536 -0.597148 -0.099234 0.791678 center 8.781 34.984 -0.736 ntor 12 0.3309 17.5631 -41.8665 -56.9649 -85.0181 177.4709 179.1817 -53.2266 -52.7850 -61.4342 -11.9067 150.7100
State:	 -8.073  10.565 -12.129  -0.135 -0.977 -0.162 75.315      0.33   17.56  -41.87  -56.96  -85.02  177.47  179.18  -53.23  -52.79  -61.43  -11.91  150.71

DOCKED: MODEL       19
DOCKED: USER    Run = 19
DOCKED: USER    DPF = D:/Protein_go_brrr/autodock/final/mut_K82N/heme_Co/dock.dpf
DOCKED: USER  
DOCKED: USER    Estimated Free Energy of Binding    =   -7.54 kcal/mol  [=(1)+(2)+(3)-(4)]
DOCKED: USER    Estimated Inhibition Constant, Ki   =    2.98 uM (micromolar)  [Temperature = 298.15 K]
DOCKED: USER    
DOCKED: USER    (1) Final Intermolecular Energy     =  -11.12 kcal/mol
DOCKED: USER        vdW + Hbond + desolv Energy     =   -8.73 kcal/mol
DOCKED: USER        Electrostatic Energy            =   -2.39 kcal/mol
DOCKED: USER    (2) Final Total Internal Energy     =   -0.79 kcal/mol
DOCKED: USER    (3) Torsional Free Energy           =   +3.58 kcal/mol
DOCKED: USER    (4) Unbound System's Energy  [=(2)] =   -0.79 kcal/mol
DOCKED: USER    
DOCKED: USER    
DOCKED: USER    NEWDPF move heme_Co_opt.pdbqt
DOCKED: USER    NEWDPF about 8.781000 34.984000 -0.736000
DOCKED: USER    NEWDPF tran0 -8.072593 10.564688 -12.129471
DOCKED: USER    NEWDPF quaternion0 -0.082536 -0.597148 -0.099234 0.791678
DOCKED: USER    NEWDPF axisangle0 -0.135096 -0.977428 -0.162428 75.314765
DOCKED: USER    NEWDPF quat0 -0.135096 -0.977428 -0.162428 75.314765
DOCKED: USER    NEWDPF dihe0 0.33 17.56 -41.87 -56.96 -85.02 177.47 179.18 -53.23 -52.79 -61.43 -11.91 150.71 
DOCKED: USER  keepresnum = 1 
DOCKED: USER  
DOCKED: REMARK  12 active torsions:
DOCKED: REMARK  status: ('A' for Active; 'I' for Inactive)
DOCKED: REMARK    1  A    between atoms: C_6  and  C_10 
DOCKED: REMARK    2  A    between atoms: C_10  and  C_11 
DOCKED: REMARK    3  A    between atoms: C_11  and  C_12 
DOCKED: REMARK    4  A    between atoms: C_12  and  O_14 
DOCKED: REMARK    5  A    between atoms: C_17  and  C_20 
DOCKED: REMARK    6  A    between atoms: C_24  and  C_27 
DOCKED: REMARK    7  A    between atoms: C_31  and  C_34 
DOCKED: REMARK    8  A    between atoms: C_34  and  C_35 
DOCKED: REMARK    9  A    between atoms: C_35  and  C_36 
DOCKED: REMARK   10  A    between atoms: C_36  and  O_38 
DOCKED: REMARK   11  A    between atoms: FE_43  and  C_44 
DOCKED: REMARK   12  A    between atoms: C_44  and  O_45 
DOCKED: USER                              x       y       z     vdW  Elec       q    Type
DOCKED: USER                           _______ _______ _______ _____ _____    ______ ____
DOCKED: ROOT
DOCKED: ATOM      1  C   UNL d   1      -9.436  10.563 -10.440 -0.10 +0.02    +0.064 A 
DOCKED: ATOM      2  C   UNL d   1      -5.352   8.268 -11.252 -0.25 -0.01    +0.064 C 
DOCKED: ATOM      3  C   UNL d   1      -5.199  10.032 -15.689 -0.08 -0.01    +0.064 A 
DOCKED: ATOM      4  C   UNL d   1      -9.164  12.691 -14.755 -0.05 +0.00    +0.064 A 
DOCKED: ATOM      5  C   UNL d   1      -8.351   9.777 -10.348 -0.15 +0.01    +0.066 A 
DOCKED: ATOM      6  C   UNL d   1      -7.999   9.125  -9.150 -0.22 -0.00    -0.021 A 
DOCKED: ATOM      7  C   UNL d   1      -6.801   8.479  -9.385 -0.30 -0.00    -0.025 A 
DOCKED: ATOM      8  C   UNL d   1      -6.481   8.751 -10.719 -0.24 -0.00    +0.066 A 
DOCKED: ATOM      9  C   UNL d   1      -5.977   7.635  -8.401 -0.35 +0.00    +0.051 C 
DOCKED: ATOM     10  C   UNL d   1      -4.953   8.473 -12.622 -0.13 -0.01    +0.066 A 
DOCKED: ATOM     11  C   UNL d   1      -3.853   7.879 -13.279 -0.40 +0.00    -0.021 A 
DOCKED: ATOM     12  C   UNL d   1      -3.835   8.408 -14.572 -0.38 -0.00    +0.000 A 
DOCKED: ATOM     13  C   UNL d   1      -4.928   9.274 -14.613 -0.19 -0.01    +0.070 A 
DOCKED: ATOM     14  C   UNL d   1      -2.953   6.807 -12.719 -0.42 -0.01    +0.052 C 
DOCKED: ATOM     15  C   UNL d   1      -6.249  11.013 -15.883 -0.04 -0.01    +0.066 A 
DOCKED: ATOM     16  C   UNL d   1      -6.387  11.868 -16.967 -0.02 +0.01    -0.021 A 
DOCKED: ATOM     17  C   UNL d   1      -7.528  12.639 -16.701 -0.02 -0.00    +0.000 A 
DOCKED: ATOM     18  C   UNL d   1      -8.007  12.179 -15.479 -0.03 -0.01    +0.070 A 
DOCKED: ATOM     19  C   UNL d   1      -5.466  11.921 -18.165 -0.02 -0.02    +0.052 C 
DOCKED: ATOM     20  C   UNL d   1      -9.599  12.319 -13.527 -0.06 +0.01    +0.066 A 
DOCKED: ATOM     21  C   UNL d   1     -10.704  12.910 -12.918 -0.06 -0.00    -0.025 A 
DOCKED: ATOM     22  C   UNL d   1     -10.824  12.297 -11.685 -0.07 -0.01    -0.021 A 
DOCKED: ATOM     23  C   UNL d   1      -9.770  11.362 -11.596 -0.00 +0.02    +0.066 A 
DOCKED: ATOM     24  C   UNL d   1     -11.591  14.020 -13.476 -0.04 +0.01    +0.051 C 
DOCKED: ATOM     25  N   UNL d   1      -7.426   9.548 -11.342 -0.10 -0.01    -0.248 N 
DOCKED: ATOM     26  N   UNL d   1      -5.635   9.270 -13.451 -0.12 +0.04    -0.248 N 
DOCKED: ATOM     27  N   UNL d   1      -7.204  11.232 -15.007 -0.02 +0.03    -0.248 N 
DOCKED: ATOM     28  N   UNL d   1      -9.025  11.374 -12.708 -0.06 -0.04    -0.248 N 
DOCKED: ATOM     29 FE   UNL d   1      -7.312  10.441 -13.283 -0.03 -0.00    +0.000 Fe
DOCKED: ENDROOT
DOCKED: BRANCH   6  30
DOCKED: ATOM     30  C   UNL d   1      -8.748   9.194  -7.823 -0.26 +0.01    +0.052 C 
DOCKED: BRANCH  30  31
DOCKED: ATOM     31  C   UNL d   1     -10.054   8.405  -7.901 -0.12 +0.04    +0.115 C 
DOCKED: BRANCH  31  32
DOCKED: ATOM     32  C   UNL d   1     -10.167   7.366  -6.806 -0.17 +0.10    +0.139 C 
DOCKED: ATOM     33  O   UNL d   1      -9.953   7.689  -5.647 -0.55 -0.52    -0.650 OA
DOCKED: BRANCH  32  34
DOCKED: ATOM     34  O   UNL d   1     -10.546   6.092  -7.062 -0.25 -1.25    -0.776 OA
DOCKED: ATOM     35  H   UNL d   1     -10.819   5.770  -7.932 +0.03 +0.22    +0.167 HD
DOCKED: ENDBRANCH  32  34
DOCKED: ENDBRANCH  31  32
DOCKED: ENDBRANCH  30  31
DOCKED: ENDBRANCH   6  30
DOCKED: BRANCH  29  36
DOCKED: ATOM     36  C   UNL d   1      -6.163  11.954 -12.395 -0.26 -0.01    +0.190 C 
DOCKED: BRANCH  36  37
DOCKED: ATOM     37  O   UNL d   1      -5.346  12.232 -11.295 -0.75 +0.01    -0.399 OA
DOCKED: ATOM     38  H   UNL d   1      -5.951  12.663 -10.628 -0.46 -0.04    +0.209 HD
DOCKED: ENDBRANCH  36  37
DOCKED: ENDBRANCH  29  36
DOCKED: BRANCH  22  39
DOCKED: ATOM     39  C   UNL d   1     -11.857  12.640 -10.628 -0.07 +0.01    +0.052 C 
DOCKED: BRANCH  39  40
DOCKED: ATOM     40  C   UNL d   1     -11.201  13.374  -9.447 -0.17 +0.05    +0.115 C 
DOCKED: BRANCH  40  41
DOCKED: ATOM     41  C   UNL d   1     -11.628  14.819  -9.294 -0.17 +0.10    +0.139 C 
DOCKED: ATOM     42  O   UNL d   1     -12.652  15.078  -8.678 -0.01 -0.43    -0.650 OA
DOCKED: BRANCH  41  43
DOCKED: ATOM     43  O   UNL d   1     -10.862  15.837  -9.745 -0.28 -0.84    -0.776 OA
DOCKED: ATOM     44  H   UNL d   1      -9.897  15.814  -9.715 -0.43 +0.18    +0.167 HD
DOCKED: ENDBRANCH  41  43
DOCKED: ENDBRANCH  40  41
DOCKED: ENDBRANCH  39  40
DOCKED: ENDBRANCH  22  39
DOCKED: BRANCH  12  45
DOCKED: ATOM     45  C   UNL d   1      -2.927   8.182 -15.774 -0.38 -0.00    +0.004 C 
DOCKED: ATOM     46  C   UNL d   1      -1.637   8.459 -15.949 -0.39 -0.00    +0.012 C 
DOCKED: ENDBRANCH  12  45
DOCKED: BRANCH  17  47
DOCKED: ATOM     47  C   UNL d   1      -8.123  13.763 -17.483 -0.01 -0.00    +0.004 C 
DOCKED: ATOM     48  C   UNL d   1      -8.048  15.043 -17.108 -0.03 -0.00    +0.012 C 
DOCKED: ENDBRANCH  17  47
DOCKED: TORSDOF 12
DOCKED: TER
DOCKED: ENDMDL
________________________________________________________________________________


	BEGINNING GENETIC ALGORITHM DOCKING 20 of 100
Run: 20 Seed: 1347486568 1520531841 [ Run 20 of 100 GA/GALS ]
Beginning LAMARCKIAN GENETIC ALGORITHM (LGA), with a maximum of 25000000 energy evaluations.

Final-Value: -9.918


	FINAL GENETIC ALGORITHM DOCKED STATE
	_______________________________________________


Detailed state:  trans -11.643 13.769 -6.429 quatxyzw -0.134639 -0.335435 0.811495 -0.459165 center 8.781 34.984 -0.736 ntor 12 140.4622 99.4305 -46.4072 109.1185 138.1737 123.5612 -123.1217 -19.3894 -121.1748 180.0000 180.0000 -180.0000
State:	-11.643  13.769  -6.429  -0.152 -0.378  0.913 -125.334    140.46   99.43  -46.41  109.12  138.17  123.56 -123.12  -19.39 -121.17  180.00  180.00 -180.00

DOCKED: MODEL       20
DOCKED: USER    Run = 20
DOCKED: USER    DPF = D:/Protein_go_brrr/autodock/final/mut_K82N/heme_Co/dock.dpf
DOCKED: USER  
DOCKED: USER    Estimated Free Energy of Binding    =   -2.60 kcal/mol  [=(1)+(2)+(3)-(4)]
DOCKED: USER    Estimated Inhibition Constant, Ki   =   12.43 mM (millimolar)  [Temperature = 298.15 K]
DOCKED: USER    
DOCKED: USER    (1) Final Intermolecular Energy     =   -6.18 kcal/mol
DOCKED: USER        vdW + Hbond + desolv Energy     =   -5.58 kcal/mol
DOCKED: USER        Electrostatic Energy            =   -0.60 kcal/mol
DOCKED: USER    (2) Final Total Internal Energy     =   -3.74 kcal/mol
DOCKED: USER    (3) Torsional Free Energy           =   +3.58 kcal/mol
DOCKED: USER    (4) Unbound System's Energy  [=(2)] =   -3.74 kcal/mol
DOCKED: USER    
DOCKED: USER    
DOCKED: USER    NEWDPF move heme_Co_opt.pdbqt
DOCKED: USER    NEWDPF about 8.781000 34.984000 -0.736000
DOCKED: USER    NEWDPF tran0 -11.643438 13.769277 -6.429084
DOCKED: USER    NEWDPF quaternion0 -0.134639 -0.335435 0.811495 -0.459165
DOCKED: USER    NEWDPF axisangle0 -0.151560 -0.377592 0.913484 -125.333579
DOCKED: USER    NEWDPF quat0 -0.151560 -0.377592 0.913484 -125.333579
DOCKED: USER    NEWDPF dihe0 140.46 99.43 -46.41 109.12 138.17 123.56 -123.12 -19.39 -121.17 180.00 180.00 -180.00 
DOCKED: USER  keepresnum = 1 
DOCKED: USER  
DOCKED: REMARK  12 active torsions:
DOCKED: REMARK  status: ('A' for Active; 'I' for Inactive)
DOCKED: REMARK    1  A    between atoms: C_6  and  C_10 
DOCKED: REMARK    2  A    between atoms: C_10  and  C_11 
DOCKED: REMARK    3  A    between atoms: C_11  and  C_12 
DOCKED: REMARK    4  A    between atoms: C_12  and  O_14 
DOCKED: REMARK    5  A    between atoms: C_17  and  C_20 
DOCKED: REMARK    6  A    between atoms: C_24  and  C_27 
DOCKED: REMARK    7  A    between atoms: C_31  and  C_34 
DOCKED: REMARK    8  A    between atoms: C_34  and  C_35 
DOCKED: REMARK    9  A    between atoms: C_35  and  C_36 
DOCKED: REMARK   10  A    between atoms: C_36  and  O_38 
DOCKED: REMARK   11  A    between atoms: FE_43  and  C_44 
DOCKED: REMARK   12  A    between atoms: C_44  and  O_45 
DOCKED: USER                              x       y       z     vdW  Elec       q    Type
DOCKED: USER                           _______ _______ _______ _____ _____    ______ ____
DOCKED: ROOT
DOCKED: ATOM      1  C   UNL d   1     -10.474  12.334  -7.564 -0.23 +0.02    +0.064 A 
DOCKED: ATOM      2  C   UNL d   1     -11.381  12.754  -2.915 -0.32 +0.02    +0.064 C 
DOCKED: ATOM      3  C   UNL d   1     -13.697  16.859  -3.699 -0.09 +0.02    +0.064 A 
DOCKED: ATOM      4  C   UNL d   1     -13.117  16.255  -8.491 -0.07 +0.05    +0.064 A 
DOCKED: ATOM      5  C   UNL d   1     -10.520  12.166  -6.232 -0.25 +0.02    +0.066 A 
DOCKED: ATOM      6  C   UNL d   1     -10.000  11.016  -5.605 -0.32 -0.01    -0.021 A 
DOCKED: ATOM      7  C   UNL d   1     -10.287  11.133  -4.259 -0.39 -0.01    -0.025 A 
DOCKED: ATOM      8  C   UNL d   1     -10.954  12.355  -4.119 -0.27 +0.02    +0.066 A 
DOCKED: ATOM      9  C   UNL d   1      -9.952  10.140  -3.135 -0.47 +0.01    +0.051 C 
DOCKED: ATOM     10  C   UNL d   1     -12.052  14.006  -2.670 -0.23 +0.02    +0.066 A 
DOCKED: ATOM     11  C   UNL d   1     -12.400  14.546  -1.413 -0.26 -0.00    -0.021 A 
DOCKED: ATOM     12  C   UNL d   1     -13.070  15.745  -1.671 -0.17 +0.00    +0.000 A 
DOCKED: ATOM     13  C   UNL d   1     -13.071  15.854  -3.062 -0.14 +0.02    +0.070 A 
DOCKED: ATOM     14  C   UNL d   1     -12.022  13.985  -0.066 -0.28 +0.01    +0.052 C 
DOCKED: ATOM     15  C   UNL d   1     -13.842  17.097  -5.122 -0.07 +0.03    +0.066 A 
DOCKED: ATOM     16  C   UNL d   1     -14.625  18.075  -5.717 -0.04 -0.01    -0.021 A 
DOCKED: ATOM     17  C   UNL d   1     -14.463  17.904  -7.100 -0.05 +0.00    +0.000 A 
DOCKED: ATOM     18  C   UNL d   1     -13.577  16.841  -7.238 -0.04 +0.05    +0.070 A 
DOCKED: ATOM     19  C   UNL d   1     -15.466  19.094  -4.981 -0.01 +0.01    +0.052 C 
DOCKED: ATOM     20  C   UNL d   1     -12.325  15.168  -8.651 -0.11 +0.05    +0.066 A 
DOCKED: ATOM     21  C   UNL d   1     -11.981  14.677  -9.909 -0.14 -0.01    -0.025 A 
DOCKED: ATOM     22  C   UNL d   1     -11.195  13.564  -9.673 -0.17 -0.01    -0.021 A 
DOCKED: ATOM     23  C   UNL d   1     -11.108  13.422  -8.272 -0.22 +0.03    +0.066 A 
DOCKED: ATOM     24  C   UNL d   1     -12.396  15.230 -11.270 -0.06 +0.02    +0.051 C 
DOCKED: ATOM     25  N   UNL d   1     -11.107  13.019  -5.325 -0.15 -0.11    -0.248 N 
DOCKED: ATOM     26  N   UNL d   1     -12.406  14.831  -3.662 -0.06 -0.10    -0.248 N 
DOCKED: ATOM     27  N   UNL d   1     -13.252  16.366  -6.041 -0.02 -0.19    -0.248 N 
DOCKED: ATOM     28  N   UNL d   1     -11.793  14.390  -7.650 -0.11 -0.20    -0.248 N 
DOCKED: ATOM     29 FE   UNL d   1     -12.242  14.791  -5.708 -0.05 +0.00    +0.000 Fe
DOCKED: ENDROOT
DOCKED: BRANCH   6  30
DOCKED: ATOM     30  C   UNL d   1      -9.334   9.829  -6.291 -0.30 +0.02    +0.052 C 
DOCKED: BRANCH  30  31
DOCKED: ATOM     31  C   UNL d   1     -10.347   8.709  -6.530 -0.18 +0.05    +0.115 C 
DOCKED: BRANCH  31  32
DOCKED: ATOM     32  C   UNL d   1     -11.536   9.170  -7.345 -0.05 +0.05    +0.139 C 
DOCKED: ATOM     33  O   UNL d   1     -11.646   8.806  -8.506 +0.04 -0.20    -0.650 OA
DOCKED: BRANCH  32  34
DOCKED: ATOM     34  O   UNL d   1     -12.514   9.940  -6.815 +0.07 -0.21    -0.776 OA
DOCKED: ATOM     35  H   UNL d   1     -12.904  10.706  -7.258 +0.02 +0.04    +0.167 HD
DOCKED: ENDBRANCH  32  34
DOCKED: ENDBRANCH  31  32
DOCKED: ENDBRANCH  30  31
DOCKED: ENDBRANCH   6  30
DOCKED: BRANCH  29  36
DOCKED: ATOM     36  C   UNL d   1     -13.929  13.552  -5.817 -0.04 +0.05    +0.190 C 
DOCKED: BRANCH  36  37
DOCKED: ATOM     37  O   UNL d   1     -14.345  12.265  -6.174 +0.00 -0.08    -0.399 OA
DOCKED: ATOM     38  H   UNL d   1     -13.580  11.881  -6.688 +0.02 +0.05    +0.209 HD
DOCKED: ENDBRANCH  36  37
DOCKED: ENDBRANCH  29  36
DOCKED: BRANCH  22  39
DOCKED: ATOM     39  C   UNL d   1     -10.617  12.653 -10.740 -0.09 +0.02    +0.052 C 
DOCKED: BRANCH  39  40
DOCKED: ATOM     40  C   UNL d   1     -11.690  11.685 -11.267 -0.04 +0.02    +0.115 C 
DOCKED: BRANCH  40  41
DOCKED: ATOM     41  C   UNL d   1     -13.012  11.758 -10.532 -0.01 +0.02    +0.139 C 
DOCKED: ATOM     42  O   UNL d   1     -14.021  12.077 -11.146 +0.01 -0.08    -0.650 OA
DOCKED: BRANCH  41  43
DOCKED: ATOM     43  O   UNL d   1     -13.125  11.397  -9.235 +0.03 -0.15    -0.776 OA
DOCKED: ATOM     44  H   UNL d   1     -12.668  10.629  -8.868 +0.02 +0.04    +0.167 HD
DOCKED: ENDBRANCH  41  43
DOCKED: ENDBRANCH  40  41
DOCKED: ENDBRANCH  39  40
DOCKED: ENDBRANCH  22  39
DOCKED: BRANCH  12  45
DOCKED: ATOM     45  C   UNL d   1     -13.690  16.803  -0.768 -0.12 +0.00    +0.004 C 
DOCKED: ATOM     46  C   UNL d   1     -13.230  17.990  -0.383 -0.13 +0.00    +0.012 C 
DOCKED: ENDBRANCH  12  45
DOCKED: BRANCH  17  47
DOCKED: ATOM     47  C   UNL d   1     -15.113  18.627  -8.233 -0.02 +0.00    +0.004 C 
DOCKED: ATOM     48  C   UNL d   1     -14.440  19.370  -9.116 -0.01 +0.00    +0.012 C 
DOCKED: ENDBRANCH  17  47
DOCKED: TORSDOF 12
DOCKED: TER
DOCKED: ENDMDL
________________________________________________________________________________


	BEGINNING GENETIC ALGORITHM DOCKING 21 of 100
Run: 21 Seed: 833656141 1490237584 [ Run 21 of 100 GA/GALS ]
Beginning LAMARCKIAN GENETIC ALGORITHM (LGA), with a maximum of 25000000 energy evaluations.

Final-Value: -8.993


	FINAL GENETIC ALGORITHM DOCKED STATE
	_______________________________________________


Detailed state:  trans 12.335 13.977 -1.237 quatxyzw -0.093544 -0.580710 0.196950 0.784370 center 8.781 34.984 -0.736 ntor 12 163.2207 85.8029 1.3037 127.3256 87.4883 124.1797 27.5991 -27.4338 178.0455 178.8180 -163.8306 -178.3417
State:	 12.335  13.977  -1.237  -0.151 -0.936  0.318 76.675    163.22   85.80    1.30  127.33   87.49  124.18   27.60  -27.43  178.05  178.82 -163.83 -178.34

DOCKED: MODEL       21
DOCKED: USER    Run = 21
DOCKED: USER    DPF = D:/Protein_go_brrr/autodock/final/mut_K82N/heme_Co/dock.dpf
DOCKED: USER  
DOCKED: USER    Estimated Free Energy of Binding    =   -2.47 kcal/mol  [=(1)+(2)+(3)-(4)]
DOCKED: USER    Estimated Inhibition Constant, Ki   =   15.48 mM (millimolar)  [Temperature = 298.15 K]
DOCKED: USER    
DOCKED: USER    (1) Final Intermolecular Energy     =   -6.05 kcal/mol
DOCKED: USER        vdW + Hbond + desolv Energy     =   -6.26 kcal/mol
DOCKED: USER        Electrostatic Energy            =   +0.21 kcal/mol
DOCKED: USER    (2) Final Total Internal Energy     =   -2.94 kcal/mol
DOCKED: USER    (3) Torsional Free Energy           =   +3.58 kcal/mol
DOCKED: USER    (4) Unbound System's Energy  [=(2)] =   -2.94 kcal/mol
DOCKED: USER    
DOCKED: USER    
DOCKED: USER    NEWDPF move heme_Co_opt.pdbqt
DOCKED: USER    NEWDPF about 8.781000 34.984000 -0.736000
DOCKED: USER    NEWDPF tran0 12.335229 13.976863 -1.236652
DOCKED: USER    NEWDPF quaternion0 -0.093544 -0.580710 0.196950 0.784370
DOCKED: USER    NEWDPF axisangle0 -0.150806 -0.936186 0.317511 76.675066
DOCKED: USER    NEWDPF quat0 -0.150806 -0.936186 0.317511 76.675066
DOCKED: USER    NEWDPF dihe0 163.22 85.80 1.30 127.33 87.49 124.18 27.60 -27.43 178.05 178.82 -163.83 -178.34 
DOCKED: USER  keepresnum = 1 
DOCKED: USER  
DOCKED: REMARK  12 active torsions:
DOCKED: REMARK  status: ('A' for Active; 'I' for Inactive)
DOCKED: REMARK    1  A    between atoms: C_6  and  C_10 
DOCKED: REMARK    2  A    between atoms: C_10  and  C_11 
DOCKED: REMARK    3  A    between atoms: C_11  and  C_12 
DOCKED: REMARK    4  A    between atoms: C_12  and  O_14 
DOCKED: REMARK    5  A    between atoms: C_17  and  C_20 
DOCKED: REMARK    6  A    between atoms: C_24  and  C_27 
DOCKED: REMARK    7  A    between atoms: C_31  and  C_34 
DOCKED: REMARK    8  A    between atoms: C_34  and  C_35 
DOCKED: REMARK    9  A    between atoms: C_35  and  C_36 
DOCKED: REMARK   10  A    between atoms: C_36  and  O_38 
DOCKED: REMARK   11  A    between atoms: FE_43  and  C_44 
DOCKED: REMARK   12  A    between atoms: C_44  and  O_45 
DOCKED: USER                              x       y       z     vdW  Elec       q    Type
DOCKED: USER                           _______ _______ _______ _____ _____    ______ ____
DOCKED: ROOT
DOCKED: ATOM      1  C   UNL d   1      11.321  15.135   0.295 -0.25 -0.01    +0.064 A 
DOCKED: ATOM      2  C   UNL d   1      13.787  11.073   0.470 -0.11 -0.00    +0.064 C 
DOCKED: ATOM      3  C   UNL d   1      14.228  11.092  -4.288 -0.24 -0.01    +0.064 A 
DOCKED: ATOM      4  C   UNL d   1      12.047  15.437  -4.460 -0.16 -0.01    +0.064 A 
DOCKED: ATOM      5  C   UNL d   1      11.931  14.005   0.689 -0.23 -0.00    +0.066 A 
DOCKED: ATOM      6  C   UNL d   1      12.078  13.671   2.049 -0.14 +0.00    -0.021 A 
DOCKED: ATOM      7  C   UNL d   1      12.814  12.503   2.095 -0.12 +0.00    -0.025 A 
DOCKED: ATOM      8  C   UNL d   1      13.070  12.167   0.762 -0.12 -0.00    +0.066 A 
DOCKED: ATOM      9  C   UNL d   1      13.267  11.723   3.339 -0.07 +0.00    +0.051 C 
DOCKED: ATOM     10  C   UNL d   1      14.079  10.634  -0.872 -0.07 -0.00    +0.066 A 
DOCKED: ATOM     11  C   UNL d   1      14.704   9.424  -1.246 -0.17 +0.00    -0.021 A 
DOCKED: ATOM     12  C   UNL d   1      14.816   9.454  -2.639 -0.20 -0.00    +0.000 A 
DOCKED: ATOM     13  C   UNL d   1      14.242  10.670  -3.011 -0.23 -0.01    +0.070 A 
DOCKED: ATOM     14  C   UNL d   1      15.072   8.289  -0.326 -0.13 -0.00    +0.052 C 
DOCKED: ATOM     15  C   UNL d   1      13.727  12.335  -4.840 -0.26 -0.01    +0.066 A 
DOCKED: ATOM     16  C   UNL d   1      13.874  12.773  -6.148 -0.23 +0.00    -0.021 A 
DOCKED: ATOM     17  C   UNL d   1      13.249  14.027  -6.202 -0.23 -0.00    +0.000 A 
DOCKED: ATOM     18  C   UNL d   1      12.753  14.248  -4.922 -0.17 -0.01    +0.070 A 
DOCKED: ATOM     19  C   UNL d   1      14.576  12.015  -7.253 -0.14 -0.00    +0.052 C 
DOCKED: ATOM     20  C   UNL d   1      11.632  15.712  -3.200 -0.23 -0.02    +0.066 A 
DOCKED: ATOM     21  C   UNL d   1      10.995  16.906  -2.871 -0.20 +0.01    -0.025 A 
DOCKED: ATOM     22  C   UNL d   1      10.748  16.835  -1.512 -0.19 +0.00    -0.021 A 
DOCKED: ATOM     23  C   UNL d   1      11.261  15.596  -1.074 -0.22 -0.01    +0.066 A 
DOCKED: ATOM     24  C   UNL d   1      10.656  18.068  -3.801 -0.16 -0.01    +0.051 C 
DOCKED: ATOM     25  N   UNL d   1      12.530  13.076  -0.131 -0.16 +0.02    -0.248 N 
DOCKED: ATOM     26  N   UNL d   1      13.747  11.356  -1.947 -0.17 +0.04    -0.248 N 
DOCKED: ATOM     27  N   UNL d   1      13.082  13.234  -4.129 -0.15 +0.07    -0.248 N 
DOCKED: ATOM     28  N   UNL d   1      11.799  14.914  -2.092 -0.22 +0.06    -0.248 N 
DOCKED: ATOM     29 FE   UNL d   1      12.821  13.163  -2.249 -0.06 -0.00    +0.000 Fe
DOCKED: ENDROOT
DOCKED: BRANCH   6  30
DOCKED: ATOM     30  C   UNL d   1      11.598  14.489   3.244 -0.10 +0.00    +0.052 C 
DOCKED: BRANCH  30  31
DOCKED: ATOM     31  C   UNL d   1      12.569  15.633   3.535 -0.03 -0.00    +0.115 C 
DOCKED: BRANCH  31  32
DOCKED: ATOM     32  C   UNL d   1      13.785  15.602   2.635 -0.02 -0.01    +0.139 C 
DOCKED: ATOM     33  O   UNL d   1      14.843  15.173   3.069 +0.01 +0.02    -0.650 OA
DOCKED: BRANCH  32  34
DOCKED: ATOM     34  O   UNL d   1      13.729  15.992   1.340 +0.03 +0.05    -0.776 OA
DOCKED: ATOM     35  H   UNL d   1      14.498  16.264   0.820 +0.01 -0.01    +0.167 HD
DOCKED: ENDBRANCH  32  34
DOCKED: ENDBRANCH  31  32
DOCKED: ENDBRANCH  30  31
DOCKED: ENDBRANCH   6  30
DOCKED: BRANCH  29  36
DOCKED: ATOM     36  C   UNL d   1      14.625  14.152  -1.848 -0.06 -0.02    +0.190 C 
DOCKED: BRANCH  36  37
DOCKED: ATOM     37  O   UNL d   1      15.246  15.009  -0.934 -0.00 +0.03    -0.399 OA
DOCKED: ATOM     38  H   UNL d   1      14.502  15.539  -0.532 +0.02 -0.02    +0.209 HD
DOCKED: ENDBRANCH  36  37
DOCKED: ENDBRANCH  29  36
DOCKED: BRANCH  22  39
DOCKED: ATOM     39  C   UNL d   1      10.112  17.929  -0.676 -0.23 -0.01    +0.052 C 
DOCKED: BRANCH  39  40
DOCKED: ATOM     40  C   UNL d   1      11.125  19.049  -0.385 -0.10 -0.01    +0.115 C 
DOCKED: BRANCH  40  41
DOCKED: ATOM     41  C   UNL d   1      12.537  18.747  -0.842 -0.04 -0.01    +0.139 C 
DOCKED: ATOM     42  O   UNL d   1      13.009  19.374  -1.780 +0.01 +0.06    -0.650 OA
DOCKED: BRANCH  41  43
DOCKED: ATOM     43  O   UNL d   1      13.322  17.865  -0.185 +0.03 +0.06    -0.776 OA
DOCKED: ATOM     44  H   UNL d   1      12.992  17.309   0.532 +0.02 -0.01    +0.167 HD
DOCKED: ENDBRANCH  41  43
DOCKED: ENDBRANCH  40  41
DOCKED: ENDBRANCH  39  40
DOCKED: ENDBRANCH  22  39
DOCKED: BRANCH  12  45
DOCKED: ATOM     45  C   UNL d   1      15.379   8.471  -3.656 -0.17 -0.00    +0.004 C 
DOCKED: ATOM     46  C   UNL d   1      14.790   7.838  -4.667 -0.21 -0.00    +0.012 C 
DOCKED: ENDBRANCH  12  45
DOCKED: BRANCH  17  47
DOCKED: ATOM     47  C   UNL d   1      13.149  14.995  -7.335 -0.18 -0.00    +0.004 C 
DOCKED: ATOM     48  C   UNL d   1      12.472  14.747  -8.459 -0.20 +0.00    +0.012 C 
DOCKED: ENDBRANCH  17  47
DOCKED: TORSDOF 12
DOCKED: TER
DOCKED: ENDMDL
________________________________________________________________________________


	BEGINNING GENETIC ALGORITHM DOCKING 22 of 100
Run: 22 Seed: 1767864709 1531649065 [ Run 22 of 100 GA/GALS ]
Beginning LAMARCKIAN GENETIC ALGORITHM (LGA), with a maximum of 25000000 energy evaluations.

Final-Value: -9.260


	FINAL GENETIC ALGORITHM DOCKED STATE
	_______________________________________________


Detailed state:  trans 13.085 1.361 13.433 quatxyzw -0.454856 -0.765347 -0.421110 0.173250 center 8.781 34.984 -0.736 ntor 12 -46.6398 118.8696 -144.2924 161.6434 53.1668 139.8518 53.4017 173.7783 -129.7778 93.7393 165.8358 -179.2988
State:	 13.085   1.361  13.433  -0.462 -0.777 -0.428 160.046    -46.64  118.87 -144.29  161.64   53.17  139.85   53.40  173.78 -129.78   93.74  165.84 -179.30

DOCKED: MODEL       22
DOCKED: USER    Run = 22
DOCKED: USER    DPF = D:/Protein_go_brrr/autodock/final/mut_K82N/heme_Co/dock.dpf
DOCKED: USER  
DOCKED: USER    Estimated Free Energy of Binding    =   -3.04 kcal/mol  [=(1)+(2)+(3)-(4)]
DOCKED: USER    Estimated Inhibition Constant, Ki   =    5.94 mM (millimolar)  [Temperature = 298.15 K]
DOCKED: USER    
DOCKED: USER    (1) Final Intermolecular Energy     =   -6.62 kcal/mol
DOCKED: USER        vdW + Hbond + desolv Energy     =   -6.63 kcal/mol
DOCKED: USER        Electrostatic Energy            =   +0.02 kcal/mol
DOCKED: USER    (2) Final Total Internal Energy     =   -2.64 kcal/mol
DOCKED: USER    (3) Torsional Free Energy           =   +3.58 kcal/mol
DOCKED: USER    (4) Unbound System's Energy  [=(2)] =   -2.64 kcal/mol
DOCKED: USER    
DOCKED: USER    
DOCKED: USER    NEWDPF move heme_Co_opt.pdbqt
DOCKED: USER    NEWDPF about 8.781000 34.984000 -0.736000
DOCKED: USER    NEWDPF tran0 13.084525 1.360564 13.433207
DOCKED: USER    NEWDPF quaternion0 -0.454856 -0.765347 -0.421110 0.173250
DOCKED: USER    NEWDPF axisangle0 -0.461840 -0.777099 -0.427576 160.046305
DOCKED: USER    NEWDPF quat0 -0.461840 -0.777099 -0.427576 160.046305
DOCKED: USER    NEWDPF dihe0 -46.64 118.87 -144.29 161.64 53.17 139.85 53.40 173.78 -129.78 93.74 165.84 -179.30 
DOCKED: USER  keepresnum = 1 
DOCKED: USER  
DOCKED: REMARK  12 active torsions:
DOCKED: REMARK  status: ('A' for Active; 'I' for Inactive)
DOCKED: REMARK    1  A    between atoms: C_6  and  C_10 
DOCKED: REMARK    2  A    between atoms: C_10  and  C_11 
DOCKED: REMARK    3  A    between atoms: C_11  and  C_12 
DOCKED: REMARK    4  A    between atoms: C_12  and  O_14 
DOCKED: REMARK    5  A    between atoms: C_17  and  C_20 
DOCKED: REMARK    6  A    between atoms: C_24  and  C_27 
DOCKED: REMARK    7  A    between atoms: C_31  and  C_34 
DOCKED: REMARK    8  A    between atoms: C_34  and  C_35 
DOCKED: REMARK    9  A    between atoms: C_35  and  C_36 
DOCKED: REMARK   10  A    between atoms: C_36  and  O_38 
DOCKED: REMARK   11  A    between atoms: FE_43  and  C_44 
DOCKED: REMARK   12  A    between atoms: C_44  and  O_45 
DOCKED: USER                              x       y       z     vdW  Elec       q    Type
DOCKED: USER                           _______ _______ _______ _____ _____    ______ ____
DOCKED: ROOT
DOCKED: ATOM      1  C   UNL d   1      13.826  -0.567  14.103 -0.25 -0.01    +0.064 A 
DOCKED: ATOM      2  C   UNL d   1      14.121   1.696   9.931 -0.13 -0.00    +0.064 C 
DOCKED: ATOM      3  C   UNL d   1      11.313   5.190  11.586 -0.17 -0.00    +0.064 A 
DOCKED: ATOM      4  C   UNL d   1      11.312   3.093  15.975 -0.22 -0.01    +0.064 A 
DOCKED: ATOM      5  C   UNL d   1      14.083  -0.224  12.830 -0.18 -0.01    +0.066 A 
DOCKED: ATOM      6  C   UNL d   1      14.949  -0.977  12.013 -0.14 +0.00    -0.021 A 
DOCKED: ATOM      7  C   UNL d   1      15.049  -0.303  10.812 -0.07 +0.00    -0.025 A 
DOCKED: ATOM      8  C   UNL d   1      14.228   0.822  10.941 -0.11 -0.01    +0.066 A 
DOCKED: ATOM      9  C   UNL d   1      15.882  -0.691   9.580 -0.11 -0.00    +0.051 C 
DOCKED: ATOM     10  C   UNL d   1      13.281   2.867   9.963 -0.11 -0.00    +0.066 A 
DOCKED: ATOM     11  C   UNL d   1      13.017   3.745   8.889 -0.12 +0.00    -0.021 A 
DOCKED: ATOM     12  C   UNL d   1      12.193   4.752   9.399 -0.18 -0.00    +0.000 A 
DOCKED: ATOM     13  C   UNL d   1      12.005   4.408  10.738 -0.14 -0.00    +0.070 A 
DOCKED: ATOM     14  C   UNL d   1      13.455   3.562   7.459 -0.11 -0.00    +0.052 C 
DOCKED: ATOM     15  C   UNL d   1      11.067   5.015  13.004 -0.20 -0.00    +0.066 A 
DOCKED: ATOM     16  C   UNL d   1      10.467   5.934  13.854 -0.26 +0.00    -0.021 A 
DOCKED: ATOM     17  C   UNL d   1      10.467   5.334  15.122 -0.26 -0.00    +0.000 A 
DOCKED: ATOM     18  C   UNL d   1      11.053   4.086  14.940 -0.22 -0.01    +0.070 A 
DOCKED: ATOM     19  C   UNL d   1       9.940   7.292  13.447 -0.23 +0.00    +0.052 C 
DOCKED: ATOM     20  C   UNL d   1      11.958   1.910  15.839 -0.23 -0.01    +0.066 A 
DOCKED: ATOM     21  C   UNL d   1      12.179   1.055  16.917 -0.27 +0.00    -0.025 A 
DOCKED: ATOM     22  C   UNL d   1      12.876  -0.022  16.401 -0.27 +0.00    -0.021 A 
DOCKED: ATOM     23  C   UNL d   1      13.058   0.236  15.026 -0.22 -0.01    +0.066 A 
DOCKED: ATOM     24  C   UNL d   1      11.763   1.263  18.371 -0.24 -0.00    +0.051 C 
DOCKED: ATOM     25  N   UNL d   1      13.612   0.893  12.179 -0.10 +0.04    -0.248 N 
DOCKED: ATOM     26  N   UNL d   1      12.617   3.239  11.063 -0.07 +0.01    -0.248 N 
DOCKED: ATOM     27  N   UNL d   1      11.425   3.943  13.673 -0.12 +0.02    -0.248 N 
DOCKED: ATOM     28  N   UNL d   1      12.506   1.406  14.682 -0.10 +0.04    -0.248 N 
DOCKED: ATOM     29 FE   UNL d   1      12.453   2.507  12.973 -0.04 -0.00    +0.000 Fe
DOCKED: ENDROOT
DOCKED: BRANCH   6  30
DOCKED: ATOM     30  C   UNL d   1      15.705  -2.240  12.410 -0.18 -0.00    +0.052 C 
DOCKED: BRANCH  30  31
DOCKED: ATOM     31  C   UNL d   1      17.204  -1.959  12.516 -0.09 -0.00    +0.115 C 
DOCKED: BRANCH  31  32
DOCKED: ATOM     32  C   UNL d   1      17.502  -0.719  13.330 -0.04 -0.00    +0.139 C 
DOCKED: ATOM     33  O   UNL d   1      17.325   0.384  12.833 +0.02 +0.02    -0.650 OA
DOCKED: BRANCH  32  34
DOCKED: ATOM     34  O   UNL d   1      17.917  -0.787  14.617 +0.02 +0.00    -0.776 OA
DOCKED: ATOM     35  H   UNL d   1      17.474  -1.303  15.304 +0.02 +0.00    +0.167 HD
DOCKED: ENDBRANCH  32  34
DOCKED: ENDBRANCH  31  32
DOCKED: ENDBRANCH  30  31
DOCKED: ENDBRANCH   6  30
DOCKED: BRANCH  29  36
DOCKED: ATOM     36  C   UNL d   1      14.273   3.418  13.476 -0.02 -0.01    +0.190 C 
DOCKED: BRANCH  36  37
DOCKED: ATOM     37  O   UNL d   1      15.641   3.167  13.623 +0.00 +0.01    -0.399 OA
DOCKED: ATOM     38  H   UNL d   1      15.765   2.228  13.311 +0.01 -0.01    +0.209 HD
DOCKED: ENDBRANCH  36  37
DOCKED: ENDBRANCH  29  36
DOCKED: BRANCH  22  39
DOCKED: ATOM     39  C   UNL d   1      13.393  -1.201  17.205 -0.29 +0.00    +0.052 C 
DOCKED: BRANCH  39  40
DOCKED: ATOM     40  C   UNL d   1      14.674  -0.820  17.965 -0.11 +0.00    +0.115 C 
DOCKED: BRANCH  40  41
DOCKED: ATOM     41  C   UNL d   1      15.956  -1.107  17.213 -0.08 +0.00    +0.139 C 
DOCKED: ATOM     42  O   UNL d   1      16.110  -2.202  16.690 -0.00 -0.04    -0.650 OA
DOCKED: BRANCH  41  43
DOCKED: ATOM     43  O   UNL d   1      16.900  -0.157  17.029 +0.02 -0.01    -0.776 OA
DOCKED: ATOM     44  H   UNL d   1      17.363  -0.041  16.189 +0.01 +0.00    +0.167 HD
DOCKED: ENDBRANCH  41  43
DOCKED: ENDBRANCH  40  41
DOCKED: ENDBRANCH  39  40
DOCKED: ENDBRANCH  22  39
DOCKED: BRANCH  12  45
DOCKED: ATOM     45  C   UNL d   1      11.549   5.983   8.773 -0.21 +0.00    +0.004 C 
DOCKED: ATOM     46  C   UNL d   1      10.443   6.644   9.104 -0.29 +0.00    +0.012 C 
DOCKED: ENDBRANCH  12  45
DOCKED: BRANCH  17  47
DOCKED: ATOM     47  C   UNL d   1      10.009   5.879  16.434 -0.23 -0.00    +0.004 C 
DOCKED: ATOM     48  C   UNL d   1       9.004   6.750  16.561 -0.32 -0.00    +0.012 C 
DOCKED: ENDBRANCH  17  47
DOCKED: TORSDOF 12
DOCKED: TER
DOCKED: ENDMDL
________________________________________________________________________________


	BEGINNING GENETIC ALGORITHM DOCKING 23 of 100
Run: 23 Seed: 1542121955 126395609 [ Run 23 of 100 GA/GALS ]
Beginning LAMARCKIAN GENETIC ALGORITHM (LGA), with a maximum of 25000000 energy evaluations.

Final-Value: -9.992


	FINAL GENETIC ALGORITHM DOCKED STATE
	_______________________________________________


Detailed state:  trans 12.428 13.948 -1.301 quatxyzw 0.115114 0.595862 -0.197134 -0.769958 center 8.781 34.984 -0.736 ntor 12 37.1497 129.7134 -149.6053 126.0851 79.7188 102.4789 23.5078 122.7884 -178.5317 141.3856 -180.0000 166.5843
State:	 12.428  13.948  -1.301   0.180  0.934 -0.309 -79.300     37.15  129.71 -149.61  126.09   79.72  102.48   23.51  122.79 -178.53  141.39 -180.00  166.58

DOCKED: MODEL       23
DOCKED: USER    Run = 23
DOCKED: USER    DPF = D:/Protein_go_brrr/autodock/final/mut_K82N/heme_Co/dock.dpf
DOCKED: USER  
DOCKED: USER    Estimated Free Energy of Binding    =   -2.51 kcal/mol  [=(1)+(2)+(3)-(4)]
DOCKED: USER    Estimated Inhibition Constant, Ki   =   14.58 mM (millimolar)  [Temperature = 298.15 K]
DOCKED: USER    
DOCKED: USER    (1) Final Intermolecular Energy     =   -6.08 kcal/mol
DOCKED: USER        vdW + Hbond + desolv Energy     =   -6.28 kcal/mol
DOCKED: USER        Electrostatic Energy            =   +0.20 kcal/mol
DOCKED: USER    (2) Final Total Internal Energy     =   -3.91 kcal/mol
DOCKED: USER    (3) Torsional Free Energy           =   +3.58 kcal/mol
DOCKED: USER    (4) Unbound System's Energy  [=(2)] =   -3.91 kcal/mol
DOCKED: USER    
DOCKED: USER    
DOCKED: USER    NEWDPF move heme_Co_opt.pdbqt
DOCKED: USER    NEWDPF about 8.781000 34.984000 -0.736000
DOCKED: USER    NEWDPF tran0 12.427878 13.947692 -1.301474
DOCKED: USER    NEWDPF quaternion0 0.115114 0.595862 -0.197134 -0.769958
DOCKED: USER    NEWDPF axisangle0 0.180403 0.933815 -0.308942 -79.299737
DOCKED: USER    NEWDPF quat0 0.180403 0.933815 -0.308942 -79.299737
DOCKED: USER    NEWDPF dihe0 37.15 129.71 -149.61 126.09 79.72 102.48 23.51 122.79 -178.53 141.39 -180.00 166.58 
DOCKED: USER  keepresnum = 1 
DOCKED: USER  
DOCKED: REMARK  12 active torsions:
DOCKED: REMARK  status: ('A' for Active; 'I' for Inactive)
DOCKED: REMARK    1  A    between atoms: C_6  and  C_10 
DOCKED: REMARK    2  A    between atoms: C_10  and  C_11 
DOCKED: REMARK    3  A    between atoms: C_11  and  C_12 
DOCKED: REMARK    4  A    between atoms: C_12  and  O_14 
DOCKED: REMARK    5  A    between atoms: C_17  and  C_20 
DOCKED: REMARK    6  A    between atoms: C_24  and  C_27 
DOCKED: REMARK    7  A    between atoms: C_31  and  C_34 
DOCKED: REMARK    8  A    between atoms: C_34  and  C_35 
DOCKED: REMARK    9  A    between atoms: C_35  and  C_36 
DOCKED: REMARK   10  A    between atoms: C_36  and  O_38 
DOCKED: REMARK   11  A    between atoms: FE_43  and  C_44 
DOCKED: REMARK   12  A    between atoms: C_44  and  O_45 
DOCKED: USER                              x       y       z     vdW  Elec       q    Type
DOCKED: USER                           _______ _______ _______ _____ _____    ______ ____
DOCKED: ROOT
DOCKED: ATOM      1  C   UNL d   1      11.496  15.067   0.309 -0.24 -0.01    +0.064 A 
DOCKED: ATOM      2  C   UNL d   1      13.848  10.935   0.234 -0.08 -0.00    +0.064 C 
DOCKED: ATOM      3  C   UNL d   1      14.140  11.145  -4.530 -0.25 -0.01    +0.064 A 
DOCKED: ATOM      4  C   UNL d   1      12.081  15.551  -4.450 -0.17 -0.01    +0.064 A 
DOCKED: ATOM      5  C   UNL d   1      12.085  13.905   0.636 -0.21 -0.00    +0.066 A 
DOCKED: ATOM      6  C   UNL d   1      12.265  13.509   1.975 -0.14 +0.00    -0.021 A 
DOCKED: ATOM      7  C   UNL d   1      12.968  12.320   1.948 -0.12 +0.00    -0.025 A 
DOCKED: ATOM      8  C   UNL d   1      13.173  12.034   0.594 -0.10 -0.00    +0.066 A 
DOCKED: ATOM      9  C   UNL d   1      13.437  11.475   3.143 -0.07 +0.00    +0.051 C 
DOCKED: ATOM     10  C   UNL d   1      14.085  10.545  -1.134 -0.09 -0.01    +0.066 A 
DOCKED: ATOM     11  C   UNL d   1      14.663   9.336  -1.578 -0.19 +0.00    -0.021 A 
DOCKED: ATOM     12  C   UNL d   1      14.732   9.422  -2.972 -0.22 -0.00    +0.000 A 
DOCKED: ATOM     13  C   UNL d   1      14.182  10.668  -3.274 -0.24 -0.01    +0.070 A 
DOCKED: ATOM     14  C   UNL d   1      15.027   8.153  -0.719 -0.15 +0.00    +0.052 C 
DOCKED: ATOM     15  C   UNL d   1      13.658  12.424  -5.013 -0.25 -0.01    +0.066 A 
DOCKED: ATOM     16  C   UNL d   1      13.776  12.913  -6.307 -0.23 +0.00    -0.021 A 
DOCKED: ATOM     17  C   UNL d   1      13.186  14.185  -6.288 -0.22 -0.00    +0.000 A 
DOCKED: ATOM     18  C   UNL d   1      12.737  14.365  -4.984 -0.16 -0.01    +0.070 A 
DOCKED: ATOM     19  C   UNL d   1      14.421  12.184  -7.464 -0.14 -0.00    +0.052 C 
DOCKED: ATOM     20  C   UNL d   1      11.713  15.783  -3.167 -0.24 -0.01    +0.066 A 
DOCKED: ATOM     21  C   UNL d   1      11.122  16.980  -2.767 -0.20 +0.01    -0.025 A 
DOCKED: ATOM     22  C   UNL d   1      10.915  16.858  -1.405 -0.20 +0.00    -0.021 A 
DOCKED: ATOM     23  C   UNL d   1      11.406  15.587  -1.036 -0.22 -0.01    +0.066 A 
DOCKED: ATOM     24  C   UNL d   1      10.788  18.189  -3.637 -0.15 -0.01    +0.051 C 
DOCKED: ATOM     25  N   UNL d   1      12.631  12.996  -0.242 -0.16 +0.02    -0.248 N 
DOCKED: ATOM     26  N   UNL d   1      13.740  11.322  -2.166 -0.18 +0.05    -0.248 N 
DOCKED: ATOM     27  N   UNL d   1      13.062  13.309  -4.246 -0.16 +0.06    -0.248 N 
DOCKED: ATOM     28  N   UNL d   1      11.892  14.935  -2.099 -0.21 +0.06    -0.248 N 
DOCKED: ATOM     29 FE   UNL d   1      12.857  13.165  -2.362 -0.06 -0.00    +0.000 Fe
DOCKED: ENDROOT
DOCKED: BRANCH   6  30
DOCKED: ATOM     30  C   UNL d   1      11.847  14.288   3.218 -0.10 +0.00    +0.052 C 
DOCKED: BRANCH  30  31
DOCKED: ATOM     31  C   UNL d   1      13.020  15.106   3.759 -0.02 -0.00    +0.115 C 
DOCKED: BRANCH  31  32
DOCKED: ATOM     32  C   UNL d   1      14.278  14.924   2.937 -0.02 -0.00    +0.139 C 
DOCKED: ATOM     33  O   UNL d   1      15.195  14.252   3.382 +0.00 +0.02    -0.650 OA
DOCKED: BRANCH  32  34
DOCKED: ATOM     34  O   UNL d   1      14.404  15.446   1.694 +0.02 +0.04    -0.776 OA
DOCKED: ATOM     35  H   UNL d   1      14.001  16.278   1.410 +0.01 -0.01    +0.167 HD
DOCKED: ENDBRANCH  32  34
DOCKED: ENDBRANCH  31  32
DOCKED: ENDBRANCH  30  31
DOCKED: ENDBRANCH   6  30
DOCKED: BRANCH  29  36
DOCKED: ATOM     36  C   UNL d   1      14.701  14.086  -1.979 -0.06 -0.02    +0.190 C 
DOCKED: BRANCH  36  37
DOCKED: ATOM     37  O   UNL d   1      15.300  15.120  -1.252 -0.00 +0.03    -0.399 OA
DOCKED: ATOM     38  H   UNL d   1      14.629  15.365  -0.555 +0.02 -0.02    +0.209 HD
DOCKED: ENDBRANCH  36  37
DOCKED: ENDBRANCH  29  36
DOCKED: BRANCH  22  39
DOCKED: ATOM     39  C   UNL d   1      10.338  17.932  -0.503 -0.22 -0.01    +0.052 C 
DOCKED: BRANCH  39  40
DOCKED: ATOM     40  C   UNL d   1      11.459  18.793   0.102 -0.09 -0.01    +0.115 C 
DOCKED: BRANCH  40  41
DOCKED: ATOM     41  C   UNL d   1      12.645  18.004   0.615 -0.04 -0.01    +0.139 C 
DOCKED: ATOM     42  O   UNL d   1      12.732  17.766   1.812 +0.02 +0.04    -0.650 OA
DOCKED: BRANCH  41  43
DOCKED: ATOM     43  O   UNL d   1      13.566  17.480  -0.223 +0.03 +0.06    -0.776 OA
DOCKED: ATOM     44  H   UNL d   1      13.985  16.624  -0.064 +0.02 -0.01    +0.167 HD
DOCKED: ENDBRANCH  41  43
DOCKED: ENDBRANCH  40  41
DOCKED: ENDBRANCH  39  40
DOCKED: ENDBRANCH  22  39
DOCKED: BRANCH  12  45
DOCKED: ATOM     45  C   UNL d   1      15.234   8.468  -4.047 -0.19 -0.00    +0.004 C 
DOCKED: ATOM     46  C   UNL d   1      14.590   7.879  -5.051 -0.25 -0.00    +0.012 C 
DOCKED: ENDBRANCH  12  45
DOCKED: BRANCH  17  47
DOCKED: ATOM     47  C   UNL d   1      13.078  15.203  -7.375 -0.17 -0.00    +0.004 C 
DOCKED: ATOM     48  C   UNL d   1      12.486  14.968  -8.549 -0.19 +0.00    +0.012 C 
DOCKED: ENDBRANCH  17  47
DOCKED: TORSDOF 12
DOCKED: TER
DOCKED: ENDMDL
________________________________________________________________________________


	BEGINNING GENETIC ALGORITHM DOCKING 24 of 100
Run: 24 Seed: 1295698034 856348758 [ Run 24 of 100 GA/GALS ]
Beginning LAMARCKIAN GENETIC ALGORITHM (LGA), with a maximum of 25000000 energy evaluations.

Final-Value: -11.505


	FINAL GENETIC ALGORITHM DOCKED STATE
	_______________________________________________


Detailed state:  trans -11.312 11.337 -5.715 quatxyzw -0.517035 -0.264750 0.723551 -0.372902 center 8.781 34.984 -0.736 ntor 12 -75.4515 122.3917 -109.6224 116.3149 64.9672 133.0188 65.4834 -153.1683 -133.6019 80.2147 173.5526 179.0790
State:	-11.312  11.337  -5.715  -0.557 -0.285  0.780 -136.211    -75.45  122.39 -109.62  116.31   64.97  133.02   65.48 -153.17 -133.60   80.21  173.55  179.08

DOCKED: MODEL       24
DOCKED: USER    Run = 24
DOCKED: USER    DPF = D:/Protein_go_brrr/autodock/final/mut_K82N/heme_Co/dock.dpf
DOCKED: USER  
DOCKED: USER    Estimated Free Energy of Binding    =   -5.01 kcal/mol  [=(1)+(2)+(3)-(4)]
DOCKED: USER    Estimated Inhibition Constant, Ki   =  212.82 uM (micromolar)  [Temperature = 298.15 K]
DOCKED: USER    
DOCKED: USER    (1) Final Intermolecular Energy     =   -8.59 kcal/mol
DOCKED: USER        vdW + Hbond + desolv Energy     =   -5.72 kcal/mol
DOCKED: USER        Electrostatic Energy            =   -2.86 kcal/mol
DOCKED: USER    (2) Final Total Internal Energy     =   -2.92 kcal/mol
DOCKED: USER    (3) Torsional Free Energy           =   +3.58 kcal/mol
DOCKED: USER    (4) Unbound System's Energy  [=(2)] =   -2.92 kcal/mol
DOCKED: USER    
DOCKED: USER    
DOCKED: USER    NEWDPF move heme_Co_opt.pdbqt
DOCKED: USER    NEWDPF about 8.781000 34.984000 -0.736000
DOCKED: USER    NEWDPF tran0 -11.311723 11.337248 -5.714752
DOCKED: USER    NEWDPF quaternion0 -0.517035 -0.264750 0.723551 -0.372902
DOCKED: USER    NEWDPF axisangle0 -0.557228 -0.285331 0.779797 -136.210587
DOCKED: USER    NEWDPF quat0 -0.557228 -0.285331 0.779797 -136.210587
DOCKED: USER    NEWDPF dihe0 -75.45 122.39 -109.62 116.31 64.97 133.02 65.48 -153.17 -133.60 80.21 173.55 179.08 
DOCKED: USER  keepresnum = 1 
DOCKED: USER  
DOCKED: REMARK  12 active torsions:
DOCKED: REMARK  status: ('A' for Active; 'I' for Inactive)
DOCKED: REMARK    1  A    between atoms: C_6  and  C_10 
DOCKED: REMARK    2  A    between atoms: C_10  and  C_11 
DOCKED: REMARK    3  A    between atoms: C_11  and  C_12 
DOCKED: REMARK    4  A    between atoms: C_12  and  O_14 
DOCKED: REMARK    5  A    between atoms: C_17  and  C_20 
DOCKED: REMARK    6  A    between atoms: C_24  and  C_27 
DOCKED: REMARK    7  A    between atoms: C_31  and  C_34 
DOCKED: REMARK    8  A    between atoms: C_34  and  C_35 
DOCKED: REMARK    9  A    between atoms: C_35  and  C_36 
DOCKED: REMARK   10  A    between atoms: C_36  and  O_38 
DOCKED: REMARK   11  A    between atoms: FE_43  and  C_44 
DOCKED: REMARK   12  A    between atoms: C_44  and  O_45 
DOCKED: USER                              x       y       z     vdW  Elec       q    Type
DOCKED: USER                           _______ _______ _______ _____ _____    ______ ____
DOCKED: ROOT
DOCKED: ATOM      1  C   UNL d   1     -10.278   9.471  -5.309 -0.25 +0.02    +0.064 A 
DOCKED: ATOM      2  C   UNL d   1     -13.339  12.052  -2.743 -0.10 +0.01    +0.064 C 
DOCKED: ATOM      3  C   UNL d   1     -13.332  15.459  -6.093 -0.06 +0.04    +0.064 A 
DOCKED: ATOM      4  C   UNL d   1     -10.509  12.669  -8.906 -0.18 +0.02    +0.064 A 
DOCKED: ATOM      5  C   UNL d   1     -11.087   9.942  -4.345 -0.22 +0.02    +0.066 A 
DOCKED: ATOM      6  C   UNL d   1     -11.407   9.185  -3.202 -0.28 -0.01    -0.021 A 
DOCKED: ATOM      7  C   UNL d   1     -12.313   9.929  -2.472 -0.16 -0.01    -0.025 A 
DOCKED: ATOM      8  C   UNL d   1     -12.494  11.114  -3.192 -0.12 +0.01    +0.066 A 
DOCKED: ATOM      9  C   UNL d   1     -12.992   9.551  -1.147 -0.09 +0.01    +0.051 C 
DOCKED: ATOM     10  C   UNL d   1     -13.569  13.313  -3.402 -0.08 +0.01    +0.066 A 
DOCKED: ATOM     11  C   UNL d   1     -14.334  14.394  -2.911 -0.06 -0.00    -0.021 A 
DOCKED: ATOM     12  C   UNL d   1     -14.312  15.375  -3.906 -0.07 +0.00    +0.000 A 
DOCKED: ATOM     13  C   UNL d   1     -13.528  14.828  -4.922 -0.10 +0.03    +0.070 A 
DOCKED: ATOM     14  C   UNL d   1     -14.954  14.499  -1.541 -0.04 +0.01    +0.052 C 
DOCKED: ATOM     15  C   UNL d   1     -12.599  15.019  -7.264 -0.04 +0.05    +0.066 A 
DOCKED: ATOM     16  C   UNL d   1     -12.557  15.657  -8.495 -0.09 -0.02    -0.021 A 
DOCKED: ATOM     17  C   UNL d   1     -11.746  14.855  -9.311 -0.18 +0.00    +0.000 A 
DOCKED: ATOM     18  C   UNL d   1     -11.342  13.796  -8.504 -0.21 +0.04    +0.070 A 
DOCKED: ATOM     19  C   UNL d   1     -13.261  16.951  -8.838 -0.09 +0.04    +0.052 C 
DOCKED: ATOM     20  C   UNL d   1     -10.175  11.586  -8.165 -0.19 +0.02    +0.066 A 
DOCKED: ATOM     21  C   UNL d   1      -9.397  10.548  -8.674 -0.18 -0.01    -0.025 A 
DOCKED: ATOM     22  C   UNL d   1      -9.289   9.625  -7.650 -0.21 -0.01    -0.021 A 
DOCKED: ATOM     23  C   UNL d   1     -10.023  10.144  -6.562 -0.20 +0.02    +0.066 A 
DOCKED: ATOM     24  C   UNL d   1      -8.801  10.432 -10.075 -0.15 +0.01    +0.051 C 
DOCKED: ATOM     25  N   UNL d   1     -11.742  11.153  -4.354 -0.08 -0.06    -0.248 N 
DOCKED: ATOM     26  N   UNL d   1     -13.034  13.604  -4.592 -0.07 -0.08    -0.248 N 
DOCKED: ATOM     27  N   UNL d   1     -11.894  13.911  -7.301 -0.12 -0.15    -0.248 N 
DOCKED: ATOM     28  N   UNL d   1     -10.563  11.329  -6.871 -0.10 -0.07    -0.248 N 
DOCKED: ATOM     29 FE   UNL d   1     -11.820  12.612  -5.917 -0.04 +0.00    +0.000 Fe
DOCKED: ENDROOT
DOCKED: BRANCH   6  30
DOCKED: ATOM     30  C   UNL d   1     -10.921   7.776  -2.879 -0.39 +0.02    +0.052 C 
DOCKED: BRANCH  30  31
DOCKED: ATOM     31  C   UNL d   1     -12.015   6.749  -3.174 +0.08 +0.07    +0.115 C 
DOCKED: BRANCH  31  32
DOCKED: ATOM     32  C   UNL d   1     -12.699   7.001  -4.500 -0.12 +0.12    +0.139 C 
DOCKED: ATOM     33  O   UNL d   1     -13.340   8.028  -4.661 +0.03 -0.29    -0.650 OA
DOCKED: BRANCH  32  34
DOCKED: ATOM     34  O   UNL d   1     -12.586   6.142  -5.541 -0.28 -1.50    -0.776 OA
DOCKED: ATOM     35  H   UNL d   1     -11.821   6.102  -6.132 +0.02 +0.38    +0.167 HD
DOCKED: ENDBRANCH  32  34
DOCKED: ENDBRANCH  31  32
DOCKED: ENDBRANCH  30  31
DOCKED: ENDBRANCH   6  30
DOCKED: BRANCH  29  36
DOCKED: ATOM     36  C   UNL d   1     -13.482  11.568  -6.655 -0.01 +0.04    +0.190 C 
DOCKED: BRANCH  36  37
DOCKED: ATOM     37  O   UNL d   1     -14.114  10.321  -6.633 +0.01 -0.08    -0.399 OA
DOCKED: ATOM     38  H   UNL d   1     -13.630   9.800  -5.932 +0.02 +0.05    +0.209 HD
DOCKED: ENDBRANCH  36  37
DOCKED: ENDBRANCH  29  36
DOCKED: BRANCH  22  39
DOCKED: ATOM     39  C   UNL d   1      -8.574   8.290  -7.741 -0.24 +0.01    +0.052 C 
DOCKED: BRANCH  39  40
DOCKED: ATOM     40  C   UNL d   1      -9.455   7.250  -8.453 -0.14 +0.05    +0.115 C 
DOCKED: BRANCH  40  41
DOCKED: ATOM     41  C   UNL d   1     -10.071   6.218  -7.533 -0.09 +0.15    +0.139 C 
DOCKED: ATOM     42  O   UNL d   1      -9.637   6.094  -6.397 -0.46 -0.91    -0.650 OA
DOCKED: BRANCH  41  43
DOCKED: ATOM     43  O   UNL d   1     -11.148   5.489  -7.904 +0.01 -1.23    -0.776 OA
DOCKED: ATOM     44  H   UNL d   1     -12.038   5.677  -7.580 +0.01 +0.27    +0.167 HD
DOCKED: ENDBRANCH  41  43
DOCKED: ENDBRANCH  40  41
DOCKED: ENDBRANCH  39  40
DOCKED: ENDBRANCH  22  39
DOCKED: BRANCH  12  45
DOCKED: ATOM     45  C   UNL d   1     -14.922  16.767  -4.005 -0.05 +0.00    +0.004 C 
DOCKED: ATOM     46  C   UNL d   1     -14.351  17.968  -3.954 -0.06 +0.00    +0.012 C 
DOCKED: ENDBRANCH  12  45
DOCKED: BRANCH  17  47
DOCKED: ATOM     47  C   UNL d   1     -11.396  15.009 -10.755 -0.17 +0.00    +0.004 C 
DOCKED: ATOM     48  C   UNL d   1     -11.062  16.175 -11.312 -0.15 +0.01    +0.012 C 
DOCKED: ENDBRANCH  17  47
DOCKED: TORSDOF 12
DOCKED: TER
DOCKED: ENDMDL
________________________________________________________________________________


	BEGINNING GENETIC ALGORITHM DOCKING 25 of 100
Run: 25 Seed: 181427764 813418870 [ Run 25 of 100 GA/GALS ]
Beginning LAMARCKIAN GENETIC ALGORITHM (LGA), with a maximum of 25000000 energy evaluations.

Final-Value: -10.033


	FINAL GENETIC ALGORITHM DOCKED STATE
	_______________________________________________


Detailed state:  trans -11.208 7.270 -11.454 quatxyzw -0.768942 -0.284412 0.225419 0.526331 center 8.781 34.984 -0.736 ntor 12 7.5691 133.8106 -107.4295 -107.1389 -26.7481 112.2303 28.0526 160.8371 -171.0684 117.2499 180.0000 175.2102
State:	-11.208   7.270 -11.454  -0.904 -0.334  0.265 116.484      7.57  133.81 -107.43 -107.14  -26.75  112.23   28.05  160.84 -171.07  117.25  180.00  175.21

DOCKED: MODEL       25
DOCKED: USER    Run = 25
DOCKED: USER    DPF = D:/Protein_go_brrr/autodock/final/mut_K82N/heme_Co/dock.dpf
DOCKED: USER  
DOCKED: USER    Estimated Free Energy of Binding    =   -3.15 kcal/mol  [=(1)+(2)+(3)-(4)]
DOCKED: USER    Estimated Inhibition Constant, Ki   =    4.93 mM (millimolar)  [Temperature = 298.15 K]
DOCKED: USER    
DOCKED: USER    (1) Final Intermolecular Energy     =   -6.73 kcal/mol
DOCKED: USER        vdW + Hbond + desolv Energy     =   -3.99 kcal/mol
DOCKED: USER        Electrostatic Energy            =   -2.74 kcal/mol
DOCKED: USER    (2) Final Total Internal Energy     =   -3.31 kcal/mol
DOCKED: USER    (3) Torsional Free Energy           =   +3.58 kcal/mol
DOCKED: USER    (4) Unbound System's Energy  [=(2)] =   -3.31 kcal/mol
DOCKED: USER    
DOCKED: USER    
DOCKED: USER    NEWDPF move heme_Co_opt.pdbqt
DOCKED: USER    NEWDPF about 8.781000 34.984000 -0.736000
DOCKED: USER    NEWDPF tran0 -11.207631 7.269812 -11.453667
DOCKED: USER    NEWDPF quaternion0 -0.768942 -0.284412 0.225419 0.526331
DOCKED: USER    NEWDPF axisangle0 -0.904340 -0.334493 0.265112 116.484207
DOCKED: USER    NEWDPF quat0 -0.904340 -0.334493 0.265112 116.484207
DOCKED: USER    NEWDPF dihe0 7.57 133.81 -107.43 -107.14 -26.75 112.23 28.05 160.84 -171.07 117.25 180.00 175.21 
DOCKED: USER  keepresnum = 1 
DOCKED: USER  
DOCKED: REMARK  12 active torsions:
DOCKED: REMARK  status: ('A' for Active; 'I' for Inactive)
DOCKED: REMARK    1  A    between atoms: C_6  and  C_10 
DOCKED: REMARK    2  A    between atoms: C_10  and  C_11 
DOCKED: REMARK    3  A    between atoms: C_11  and  C_12 
DOCKED: REMARK    4  A    between atoms: C_12  and  O_14 
DOCKED: REMARK    5  A    between atoms: C_17  and  C_20 
DOCKED: REMARK    6  A    between atoms: C_24  and  C_27 
DOCKED: REMARK    7  A    between atoms: C_31  and  C_34 
DOCKED: REMARK    8  A    between atoms: C_34  and  C_35 
DOCKED: REMARK    9  A    between atoms: C_35  and  C_36 
DOCKED: REMARK   10  A    between atoms: C_36  and  O_38 
DOCKED: REMARK   11  A    between atoms: FE_43  and  C_44 
DOCKED: REMARK   12  A    between atoms: C_44  and  O_45 
DOCKED: USER                              x       y       z     vdW  Elec       q    Type
DOCKED: USER                           _______ _______ _______ _____ _____    ______ ____
DOCKED: ROOT
DOCKED: ATOM      1  C   UNL d   1     -12.256   7.538  -9.571 -0.01 +0.02    +0.064 A 
DOCKED: ATOM      2  C   UNL d   1     -13.300   5.043 -13.482 -0.05 +0.02    +0.064 C 
DOCKED: ATOM      3  C   UNL d   1      -9.450   6.818 -15.687 -0.14 +0.00    +0.064 A 
DOCKED: ATOM      4  C   UNL d   1      -8.152   9.073 -11.577 -0.11 +0.00    +0.064 A 
DOCKED: ATOM      5  C   UNL d   1     -12.844   6.754 -10.490 -0.01 +0.02    +0.066 A 
DOCKED: ATOM      6  C   UNL d   1     -13.987   5.986 -10.196 -0.00 -0.01    -0.021 A 
DOCKED: ATOM      7  C   UNL d   1     -14.273   5.247 -11.327 -0.00 -0.01    -0.025 A 
DOCKED: ATOM      8  C   UNL d   1     -13.302   5.608 -12.268 -0.02 +0.02    +0.066 A 
DOCKED: ATOM      9  C   UNL d   1     -15.411   4.236 -11.530 -0.00 +0.01    +0.051 C 
DOCKED: ATOM     10  C   UNL d   1     -12.357   5.371 -14.523 -0.08 +0.02    +0.066 A 
DOCKED: ATOM     11  C   UNL d   1     -12.387   4.919 -15.861 -0.12 -0.01    -0.021 A 
DOCKED: ATOM     12  C   UNL d   1     -11.256   5.455 -16.482 -0.15 +0.00    +0.000 A 
DOCKED: ATOM     13  C   UNL d   1     -10.628   6.202 -15.484 -0.12 +0.01    +0.070 A 
DOCKED: ATOM     14  C   UNL d   1     -13.484   4.111 -16.505 -0.10 +0.04    +0.052 C 
DOCKED: ATOM     15  C   UNL d   1      -8.641   7.583 -14.759 -0.09 +0.00    +0.066 A 
DOCKED: ATOM     16  C   UNL d   1      -7.363   8.072 -14.991 -0.08 +0.00    -0.021 A 
DOCKED: ATOM     17  C   UNL d   1      -6.983   8.721 -13.808 -0.11 -0.00    +0.000 A 
DOCKED: ATOM     18  C   UNL d   1      -8.070   8.591 -12.950 -0.08 +0.00    +0.070 A 
DOCKED: ATOM     19  C   UNL d   1      -6.582   7.910 -16.276 -0.20 -0.01    +0.052 C 
DOCKED: ATOM     20  C   UNL d   1      -9.163   8.884 -10.696 -0.07 +0.01    +0.066 A 
DOCKED: ATOM     21  C   UNL d   1      -9.111   9.366  -9.389 -0.13 -0.00    -0.025 A 
DOCKED: ATOM     22  C   UNL d   1     -10.294   8.963  -8.796 -0.07 -0.01    -0.021 A 
DOCKED: ATOM     23  C   UNL d   1     -11.009   8.239  -9.774 -0.02 +0.02    +0.066 A 
DOCKED: ATOM     24  C   UNL d   1      -7.982  10.154  -8.732 -0.01 +0.01    +0.051 C 
DOCKED: ATOM     25  N   UNL d   1     -12.407   6.544 -11.778 -0.01 -0.06    -0.248 N 
DOCKED: ATOM     26  N   UNL d   1     -11.325   6.195 -14.316 -0.04 -0.05    -0.248 N 
DOCKED: ATOM     27  N   UNL d   1      -9.027   7.882 -13.539 -0.05 -0.01    -0.248 N 
DOCKED: ATOM     28  N   UNL d   1     -10.327   8.187 -10.924 -0.01 -0.04    -0.248 N 
DOCKED: ATOM     29 FE   UNL d   1     -10.616   7.255 -12.708 -0.02 +0.00    +0.000 Fe
DOCKED: ENDROOT
DOCKED: BRANCH   6  30
DOCKED: ATOM     30  C   UNL d   1     -14.715   5.913  -8.857 -0.01 +0.02    +0.052 C 
DOCKED: BRANCH  30  31
DOCKED: ATOM     31  C   UNL d   1     -14.232   4.709  -8.049 -0.05 +0.09    +0.115 C 
DOCKED: BRANCH  31  32
DOCKED: ATOM     32  C   UNL d   1     -13.056   4.012  -8.698 -0.04 +0.13    +0.139 C 
DOCKED: ATOM     33  O   UNL d   1     -13.241   2.978  -9.323 -0.02 -0.41    -0.650 OA
DOCKED: BRANCH  32  34
DOCKED: ATOM     34  O   UNL d   1     -11.804   4.523  -8.651 +0.03 -0.96    -0.776 OA
DOCKED: ATOM     35  H   UNL d   1     -11.562   5.326  -8.171 +0.02 +0.23    +0.167 HD
DOCKED: ENDBRANCH  32  34
DOCKED: ENDBRANCH  31  32
DOCKED: ENDBRANCH  30  31
DOCKED: ENDBRANCH   6  30
DOCKED: BRANCH  29  36
DOCKED: ATOM     36  C   UNL d   1      -9.685   5.523 -11.980 -0.15 +0.04    +0.190 C 
DOCKED: BRANCH  36  37
DOCKED: ATOM     37  O   UNL d   1      -9.588   4.700 -10.853 -0.12 -0.12    -0.399 OA
DOCKED: ATOM     38  H   UNL d   1     -10.409   4.895 -10.322 +0.05 +0.09    +0.209 HD
DOCKED: ENDBRANCH  36  37
DOCKED: ENDBRANCH  29  36
DOCKED: BRANCH  22  39
DOCKED: ATOM     39  C   UNL d   1     -10.679   9.207  -7.349 -0.13 +0.02    +0.052 C 
DOCKED: BRANCH  39  40
DOCKED: ATOM     40  C   UNL d   1     -10.062   8.137  -6.434 -0.18 +0.07    +0.115 C 
DOCKED: BRANCH  40  41
DOCKED: ATOM     41  C   UNL d   1     -10.636   6.748  -6.622 -0.15 +0.16    +0.139 C 
DOCKED: ATOM     42  O   UNL d   1     -11.826   6.560  -6.413 -0.07 -1.00    -0.650 OA
DOCKED: BRANCH  41  43
DOCKED: ATOM     43  O   UNL d   1      -9.888   5.728  -7.097 -0.34 -1.30    -0.776 OA
DOCKED: ATOM     44  H   UNL d   1      -9.938   5.430  -8.014 +0.04 +0.20    +0.167 HD
DOCKED: ENDBRANCH  41  43
DOCKED: ENDBRANCH  40  41
DOCKED: ENDBRANCH  39  40
DOCKED: ENDBRANCH  22  39
DOCKED: BRANCH  12  45
DOCKED: ATOM     45  C   UNL d   1     -10.709   5.364 -17.900 -0.17 +0.00    +0.004 C 
DOCKED: ATOM     46  C   UNL d   1      -9.582   4.826 -18.361 -0.21 +0.00    +0.012 C 
DOCKED: ENDBRANCH  12  45
DOCKED: BRANCH  17  47
DOCKED: ATOM     47  C   UNL d   1      -5.690   9.379 -13.453 -0.25 -0.00    +0.004 C 
DOCKED: ATOM     48  C   UNL d   1      -4.497   8.810 -13.643 -0.37 -0.00    +0.012 C 
DOCKED: ENDBRANCH  17  47
DOCKED: TORSDOF 12
DOCKED: TER
DOCKED: ENDMDL
________________________________________________________________________________


	BEGINNING GENETIC ALGORITHM DOCKING 26 of 100
Run: 26 Seed: 779803979 2028587244 [ Run 26 of 100 GA/GALS ]
Beginning LAMARCKIAN GENETIC ALGORITHM (LGA), with a maximum of 25000000 energy evaluations.

Final-Value: -10.209


	FINAL GENETIC ALGORITHM DOCKED STATE
	_______________________________________________


Detailed state:  trans -11.629 13.447 -6.607 quatxyzw 0.144315 0.313973 -0.821050 0.454391 center 8.781 34.984 -0.736 ntor 12 11.4887 122.6887 143.7597 104.9309 139.7956 87.3306 162.8112 -14.1059 59.3269 179.8633 -160.6070 176.7101
State:	-11.629  13.447  -6.607   0.162  0.352 -0.922 125.949     11.49  122.69  143.76  104.93  139.80   87.33  162.81  -14.11   59.33  179.86 -160.61  176.71

DOCKED: MODEL       26
DOCKED: USER    Run = 26
DOCKED: USER    DPF = D:/Protein_go_brrr/autodock/final/mut_K82N/heme_Co/dock.dpf
DOCKED: USER  
DOCKED: USER    Estimated Free Energy of Binding    =   -4.61 kcal/mol  [=(1)+(2)+(3)-(4)]
DOCKED: USER    Estimated Inhibition Constant, Ki   =  417.43 uM (micromolar)  [Temperature = 298.15 K]
DOCKED: USER    
DOCKED: USER    (1) Final Intermolecular Energy     =   -8.19 kcal/mol
DOCKED: USER        vdW + Hbond + desolv Energy     =   -6.31 kcal/mol
DOCKED: USER        Electrostatic Energy            =   -1.88 kcal/mol
DOCKED: USER    (2) Final Total Internal Energy     =   -2.02 kcal/mol
DOCKED: USER    (3) Torsional Free Energy           =   +3.58 kcal/mol
DOCKED: USER    (4) Unbound System's Energy  [=(2)] =   -2.02 kcal/mol
DOCKED: USER    
DOCKED: USER    
DOCKED: USER    NEWDPF move heme_Co_opt.pdbqt
DOCKED: USER    NEWDPF about 8.781000 34.984000 -0.736000
DOCKED: USER    NEWDPF tran0 -11.628982 13.447226 -6.606806
DOCKED: USER    NEWDPF quaternion0 0.144315 0.313973 -0.821050 0.454391
DOCKED: USER    NEWDPF axisangle0 0.162006 0.352461 -0.921697 125.948514
DOCKED: USER    NEWDPF quat0 0.162006 0.352461 -0.921697 125.948514
DOCKED: USER    NEWDPF dihe0 11.49 122.69 143.76 104.93 139.80 87.33 162.81 -14.11 59.33 179.86 -160.61 176.71 
DOCKED: USER  keepresnum = 1 
DOCKED: USER  
DOCKED: REMARK  12 active torsions:
DOCKED: REMARK  status: ('A' for Active; 'I' for Inactive)
DOCKED: REMARK    1  A    between atoms: C_6  and  C_10 
DOCKED: REMARK    2  A    between atoms: C_10  and  C_11 
DOCKED: REMARK    3  A    between atoms: C_11  and  C_12 
DOCKED: REMARK    4  A    between atoms: C_12  and  O_14 
DOCKED: REMARK    5  A    between atoms: C_17  and  C_20 
DOCKED: REMARK    6  A    between atoms: C_24  and  C_27 
DOCKED: REMARK    7  A    between atoms: C_31  and  C_34 
DOCKED: REMARK    8  A    between atoms: C_34  and  C_35 
DOCKED: REMARK    9  A    between atoms: C_35  and  C_36 
DOCKED: REMARK   10  A    between atoms: C_36  and  O_38 
DOCKED: REMARK   11  A    between atoms: FE_43  and  C_44 
DOCKED: REMARK   12  A    between atoms: C_44  and  O_45 
DOCKED: USER                              x       y       z     vdW  Elec       q    Type
DOCKED: USER                           _______ _______ _______ _____ _____    ______ ____
DOCKED: ROOT
DOCKED: ATOM      1  C   UNL d   1     -10.457  11.960  -7.670 -0.20 +0.02    +0.064 A 
DOCKED: ATOM      2  C   UNL d   1     -11.351  12.615  -3.046 -0.33 +0.02    +0.064 C 
DOCKED: ATOM      3  C   UNL d   1     -13.687  16.664  -4.032 -0.09 +0.02    +0.064 A 
DOCKED: ATOM      4  C   UNL d   1     -13.121  15.817  -8.789 -0.08 +0.04    +0.064 A 
DOCKED: ATOM      5  C   UNL d   1     -10.498  11.861  -6.331 -0.23 +0.02    +0.066 A 
DOCKED: ATOM      6  C   UNL d   1      -9.971  10.747  -5.648 -0.31 -0.01    -0.021 A 
DOCKED: ATOM      7  C   UNL d   1     -10.254  10.932  -4.309 -0.39 -0.01    -0.025 A 
DOCKED: ATOM      8  C   UNL d   1     -10.925  12.156  -4.230 -0.28 +0.02    +0.066 A 
DOCKED: ATOM      9  C   UNL d   1      -9.911   9.999  -3.136 -0.41 +0.01    +0.051 C 
DOCKED: ATOM     10  C   UNL d   1     -12.026  13.875  -2.864 -0.21 +0.02    +0.066 A 
DOCKED: ATOM     11  C   UNL d   1     -12.372  14.478  -1.635 -0.26 -0.00    -0.021 A 
DOCKED: ATOM     12  C   UNL d   1     -13.049  15.659  -1.952 -0.18 +0.00    +0.000 A 
DOCKED: ATOM     13  C   UNL d   1     -13.055  15.696  -3.346 -0.13 +0.02    +0.070 A 
DOCKED: ATOM     14  C   UNL d   1     -11.988  13.988  -0.262 -0.29 +0.01    +0.052 C 
DOCKED: ATOM     15  C   UNL d   1     -13.838  16.828  -5.465 -0.06 +0.03    +0.066 A 
DOCKED: ATOM     16  C   UNL d   1     -14.627  17.772  -6.107 -0.05 -0.01    -0.021 A 
DOCKED: ATOM     17  C   UNL d   1     -14.469  17.530  -7.479 -0.05 +0.00    +0.000 A 
DOCKED: ATOM     18  C   UNL d   1     -13.579  16.465  -7.566 -0.06 +0.05    +0.070 A 
DOCKED: ATOM     19  C   UNL d   1     -15.469  18.824  -5.421 -0.01 +0.01    +0.052 C 
DOCKED: ATOM     20  C   UNL d   1     -12.324  14.727  -8.896 -0.13 +0.04    +0.066 A 
DOCKED: ATOM     21  C   UNL d   1     -11.982  14.174 -10.128 -0.11 -0.01    -0.025 A 
DOCKED: ATOM     22  C   UNL d   1     -11.190  13.077  -9.837 -0.14 -0.01    -0.021 A 
DOCKED: ATOM     23  C   UNL d   1     -11.098  13.008  -8.431 -0.19 +0.03    +0.066 A 
DOCKED: ATOM     24  C   UNL d   1     -12.404  14.654 -11.514 -0.05 +0.01    +0.051 C 
DOCKED: ATOM     25  N   UNL d   1     -11.086  12.757  -5.467 -0.16 -0.10    -0.248 N 
DOCKED: ATOM     26  N   UNL d   1     -12.387  14.646  -3.895 -0.07 -0.11    -0.248 N 
DOCKED: ATOM     27  N   UNL d   1     -13.247  16.053  -6.347 -0.05 -0.19    -0.248 N 
DOCKED: ATOM     28  N   UNL d   1     -11.785  14.003  -7.857 -0.12 -0.16    -0.248 N 
DOCKED: ATOM     29 FE   UNL d   1     -12.230  14.502  -5.937 -0.05 +0.00    +0.000 Fe
DOCKED: ENDROOT
DOCKED: BRANCH   6  30
DOCKED: ATOM     30  C   UNL d   1      -9.302   9.528  -6.275 -0.30 +0.02    +0.052 C 
DOCKED: BRANCH  30  31
DOCKED: ATOM     31  C   UNL d   1     -10.348   8.598  -6.888 -0.16 +0.05    +0.115 C 
DOCKED: BRANCH  31  32
DOCKED: ATOM     32  C   UNL d   1     -10.285   7.199  -6.311 -0.14 +0.13    +0.139 C 
DOCKED: ATOM     33  O   UNL d   1      -9.966   7.046  -5.142 -0.44 -0.66    -0.650 OA
DOCKED: BRANCH  32  34
DOCKED: ATOM     34  O   UNL d   1     -10.619   6.108  -7.038 -0.22 -1.27    -0.776 OA
DOCKED: ATOM     35  H   UNL d   1     -10.817   6.125  -7.984 +0.03 +0.18    +0.167 HD
DOCKED: ENDBRANCH  32  34
DOCKED: ENDBRANCH  31  32
DOCKED: ENDBRANCH  30  31
DOCKED: ENDBRANCH   6  30
DOCKED: BRANCH  29  36
DOCKED: ATOM     36  C   UNL d   1     -13.912  13.252  -5.977 -0.04 +0.05    +0.190 C 
DOCKED: BRANCH  36  37
DOCKED: ATOM     37  O   UNL d   1     -14.503  12.203  -6.687 +0.00 -0.08    -0.399 OA
DOCKED: ATOM     38  H   UNL d   1     -13.804  11.904  -7.333 +0.02 +0.04    +0.209 HD
DOCKED: ENDBRANCH  36  37
DOCKED: ENDBRANCH  29  36
DOCKED: BRANCH  22  39
DOCKED: ATOM     39  C   UNL d   1     -10.612  12.115 -10.858 -0.10 +0.02    +0.052 C 
DOCKED: BRANCH  39  40
DOCKED: ATOM     40  C   UNL d   1     -11.659  11.067 -11.270 -0.03 +0.02    +0.115 C 
DOCKED: BRANCH  40  41
DOCKED: ATOM     41  C   UNL d   1     -12.953  11.136 -10.487 -0.01 +0.02    +0.139 C 
DOCKED: ATOM     42  O   UNL d   1     -14.010  11.268 -11.089 +0.01 -0.08    -0.650 OA
DOCKED: BRANCH  41  43
DOCKED: ATOM     43  O   UNL d   1     -12.983  10.968  -9.147 +0.03 -0.15    -0.776 OA
DOCKED: ATOM     44  H   UNL d   1     -13.643  11.394  -8.584 +0.01 +0.03    +0.167 HD
DOCKED: ENDBRANCH  41  43
DOCKED: ENDBRANCH  40  41
DOCKED: ENDBRANCH  39  40
DOCKED: ENDBRANCH  22  39
DOCKED: BRANCH  12  45
DOCKED: ATOM     45  C   UNL d   1     -13.670  16.759  -1.102 -0.12 +0.00    +0.004 C 
DOCKED: ATOM     46  C   UNL d   1     -13.184  17.937  -0.720 -0.13 +0.00    +0.012 C 
DOCKED: ENDBRANCH  12  45
DOCKED: BRANCH  17  47
DOCKED: ATOM     47  C   UNL d   1     -15.125  18.191  -8.646 -0.01 +0.00    +0.004 C 
DOCKED: ATOM     48  C   UNL d   1     -14.455  18.864  -9.585 -0.01 +0.00    +0.012 C 
DOCKED: ENDBRANCH  17  47
DOCKED: TORSDOF 12
DOCKED: TER
DOCKED: ENDMDL
________________________________________________________________________________


	BEGINNING GENETIC ALGORITHM DOCKING 27 of 100
Run: 27 Seed: 325772298 1575022817 [ Run 27 of 100 GA/GALS ]
Beginning LAMARCKIAN GENETIC ALGORITHM (LGA), with a maximum of 25000000 energy evaluations.

Final-Value: -9.307


	FINAL GENETIC ALGORITHM DOCKED STATE
	_______________________________________________


Detailed state:  trans -3.542 17.603 8.900 quatxyzw -0.235701 -0.268798 -0.115292 0.926769 center 8.781 34.984 -0.736 ntor 12 3.8476 120.6790 28.3586 -34.0003 170.2853 150.8425 -154.6308 138.9300 -169.8423 -174.9013 -14.7089 -11.1705
State:	 -3.542  17.603   8.900  -0.627 -0.716 -0.307 44.127      3.85  120.68   28.36  -34.00  170.29  150.84 -154.63  138.93 -169.84 -174.90  -14.71  -11.17

DOCKED: MODEL       27
DOCKED: USER    Run = 27
DOCKED: USER    DPF = D:/Protein_go_brrr/autodock/final/mut_K82N/heme_Co/dock.dpf
DOCKED: USER  
DOCKED: USER    Estimated Free Energy of Binding    =   -4.16 kcal/mol  [=(1)+(2)+(3)-(4)]
DOCKED: USER    Estimated Inhibition Constant, Ki   =  892.88 uM (micromolar)  [Temperature = 298.15 K]
DOCKED: USER    
DOCKED: USER    (1) Final Intermolecular Energy     =   -7.74 kcal/mol
DOCKED: USER        vdW + Hbond + desolv Energy     =   -4.96 kcal/mol
DOCKED: USER        Electrostatic Energy            =   -2.77 kcal/mol
DOCKED: USER    (2) Final Total Internal Energy     =   -1.57 kcal/mol
DOCKED: USER    (3) Torsional Free Energy           =   +3.58 kcal/mol
DOCKED: USER    (4) Unbound System's Energy  [=(2)] =   -1.57 kcal/mol
DOCKED: USER    
DOCKED: USER    
DOCKED: USER    NEWDPF move heme_Co_opt.pdbqt
DOCKED: USER    NEWDPF about 8.781000 34.984000 -0.736000
DOCKED: USER    NEWDPF tran0 -3.541956 17.603077 8.900049
DOCKED: USER    NEWDPF quaternion0 -0.235701 -0.268798 -0.115292 0.926769
DOCKED: USER    NEWDPF axisangle0 -0.627478 -0.715588 -0.306928 44.126806
DOCKED: USER    NEWDPF quat0 -0.627478 -0.715588 -0.306928 44.126806
DOCKED: USER    NEWDPF dihe0 3.85 120.68 28.36 -34.00 170.29 150.84 -154.63 138.93 -169.84 -174.90 -14.71 -11.17 
DOCKED: USER  keepresnum = 1 
DOCKED: USER  
DOCKED: REMARK  12 active torsions:
DOCKED: REMARK  status: ('A' for Active; 'I' for Inactive)
DOCKED: REMARK    1  A    between atoms: C_6  and  C_10 
DOCKED: REMARK    2  A    between atoms: C_10  and  C_11 
DOCKED: REMARK    3  A    between atoms: C_11  and  C_12 
DOCKED: REMARK    4  A    between atoms: C_12  and  O_14 
DOCKED: REMARK    5  A    between atoms: C_17  and  C_20 
DOCKED: REMARK    6  A    between atoms: C_24  and  C_27 
DOCKED: REMARK    7  A    between atoms: C_31  and  C_34 
DOCKED: REMARK    8  A    between atoms: C_34  and  C_35 
DOCKED: REMARK    9  A    between atoms: C_35  and  C_36 
DOCKED: REMARK   10  A    between atoms: C_36  and  O_38 
DOCKED: REMARK   11  A    between atoms: FE_43  and  C_44 
DOCKED: REMARK   12  A    between atoms: C_44  and  O_45 
DOCKED: USER                              x       y       z     vdW  Elec       q    Type
DOCKED: USER                           _______ _______ _______ _____ _____    ______ ____
DOCKED: ROOT
DOCKED: ATOM      1  C   UNL d   1      -5.659  17.693   9.375 -0.05 +0.05    +0.064 A 
DOCKED: ATOM      2  C   UNL d   1      -2.320  14.428  10.270 -0.10 -0.01    +0.064 C 
DOCKED: ATOM      3  C   UNL d   1       0.853  16.916   7.707 -0.15 -0.00    +0.064 A 
DOCKED: ATOM      4  C   UNL d   1      -2.430  20.455   7.102 -0.13 +0.01    +0.064 A 
DOCKED: ATOM      5  C   UNL d   1      -4.990  16.600   9.777 -0.05 +0.04    +0.066 A 
DOCKED: ATOM      6  C   UNL d   1      -5.570  15.640  10.629 -0.04 -0.00    -0.021 A 
DOCKED: ATOM      7  C   UNL d   1      -4.590  14.707  10.903 -0.06 +0.00    -0.025 A 
DOCKED: ATOM      8  C   UNL d   1      -3.459  15.128  10.196 -0.06 +0.01    +0.066 A 
DOCKED: ATOM      9  C   UNL d   1      -4.698  13.461  11.797 -0.12 -0.02    +0.051 C 
DOCKED: ATOM     10  C   UNL d   1      -1.115  14.770   9.556 -0.08 -0.01    +0.066 A 
DOCKED: ATOM     11  C   UNL d   1       0.067  14.001   9.481 -0.15 +0.01    -0.021 A 
DOCKED: ATOM     12  C   UNL d   1       0.974  14.749   8.724 -0.16 -0.00    +0.000 A 
DOCKED: ATOM     13  C   UNL d   1       0.277  15.908   8.385 -0.12 -0.00    +0.070 A 
DOCKED: ATOM     14  C   UNL d   1       0.262  12.608  10.021 -0.23 -0.05    +0.052 C 
DOCKED: ATOM     15  C   UNL d   1       0.300  18.199   7.319 -0.16 -0.00    +0.066 A 
DOCKED: ATOM     16  C   UNL d   1       0.994  19.255   6.747 -0.25 +0.01    -0.021 A 
DOCKED: ATOM     17  C   UNL d   1       0.052  20.279   6.573 -0.27 -0.00    +0.000 A 
DOCKED: ATOM     18  C   UNL d   1      -1.151  19.758   7.039 -0.18 +0.00    +0.070 A 
DOCKED: ATOM     19  C   UNL d   1       2.466  19.253   6.402 -0.29 -0.03    +0.052 C 
DOCKED: ATOM     20  C   UNL d   1      -3.591  19.999   7.630 -0.11 +0.03    +0.066 A 
DOCKED: ATOM     21  C   UNL d   1      -4.747  20.777   7.665 -0.07 -0.01    -0.025 A 
DOCKED: ATOM     22  C   UNL d   1      -5.702  19.996   8.289 -0.06 -0.01    -0.021 A 
DOCKED: ATOM     23  C   UNL d   1      -5.074  18.776   8.617 +0.03 +0.06    +0.066 A 
DOCKED: ATOM     24  C   UNL d   1      -4.927  22.201   7.147 -0.03 +0.01    +0.051 C 
DOCKED: ATOM     25  N   UNL d   1      -3.680  16.295   9.485 -0.06 -0.12    -0.248 N 
DOCKED: ATOM     26  N   UNL d   1      -1.004  15.894   8.841 -0.05 -0.01    -0.248 N 
DOCKED: ATOM     27  N   UNL d   1      -0.959  18.529   7.504 -0.13 -0.03    -0.248 N 
DOCKED: ATOM     28  N   UNL d   1      -3.795  18.775   8.222 -0.04 -0.23    -0.248 N 
DOCKED: ATOM     29 FE   UNL d   1      -2.241  17.481   8.434 -0.03 +0.00    +0.000 Fe
DOCKED: ENDROOT
DOCKED: BRANCH   6  30
DOCKED: ATOM     30  C   UNL d   1      -6.980  15.674  11.211 -0.02 +0.01    +0.052 C 
DOCKED: BRANCH  30  31
DOCKED: ATOM     31  C   UNL d   1      -8.019  15.446  10.114 -0.03 +0.02    +0.115 C 
DOCKED: BRANCH  31  32
DOCKED: ATOM     32  C   UNL d   1      -7.390  15.052   8.795 -0.10 +0.08    +0.139 C 
DOCKED: ATOM     33  O   UNL d   1      -6.968  13.915   8.647 -0.01 -0.24    -0.650 OA
DOCKED: BRANCH  32  34
DOCKED: ATOM     34  O   UNL d   1      -7.322  15.907   7.748 -0.34 -1.18    -0.776 OA
DOCKED: ATOM     35  H   UNL d   1      -7.666  16.811   7.762 +0.02 +0.22    +0.167 HD
DOCKED: ENDBRANCH  32  34
DOCKED: ENDBRANCH  31  32
DOCKED: ENDBRANCH  30  31
DOCKED: ENDBRANCH   6  30
DOCKED: BRANCH  29  36
DOCKED: ATOM     36  C   UNL d   1      -1.756  18.331  10.288 -0.01 +0.01    +0.190 C 
DOCKED: BRANCH  36  37
DOCKED: ATOM     37  O   UNL d   1      -2.117  18.338  11.639 +0.01 +0.01    -0.399 OA
DOCKED: ATOM     38  H   UNL d   1      -2.793  17.610  11.728 +0.01 -0.00    +0.209 HD
DOCKED: ENDBRANCH  36  37
DOCKED: ENDBRANCH  29  36
DOCKED: BRANCH  22  39
DOCKED: ATOM     39  C   UNL d   1      -7.121  20.429   8.607 -0.02 +0.01    +0.052 C 
DOCKED: BRANCH  39  40
DOCKED: ATOM     40  C   UNL d   1      -8.067  20.086   7.445 -0.04 +0.04    +0.115 C 
DOCKED: BRANCH  40  41
DOCKED: ATOM     41  C   UNL d   1      -7.392  19.421   6.265 -0.14 +0.10    +0.139 C 
DOCKED: ATOM     42  O   UNL d   1      -6.825  20.113   5.431 -0.10 -0.31    -0.650 OA
DOCKED: BRANCH  41  43
DOCKED: ATOM     43  O   UNL d   1      -7.321  18.076   6.152 -0.08 -1.42    -0.776 OA
DOCKED: ATOM     44  H   UNL d   1      -8.027  17.491   6.457 +0.03 +0.20    +0.167 HD
DOCKED: ENDBRANCH  41  43
DOCKED: ENDBRANCH  40  41
DOCKED: ENDBRANCH  39  40
DOCKED: ENDBRANCH  22  39
DOCKED: BRANCH  12  45
DOCKED: ATOM     45  C   UNL d   1       2.405  14.494   8.270 -0.15 -0.00    +0.004 C 
DOCKED: ATOM     46  C   UNL d   1       3.444  13.982   8.925 -0.27 -0.00    +0.012 C 
DOCKED: ENDBRANCH  12  45
DOCKED: BRANCH  17  47
DOCKED: ATOM     47  C   UNL d   1       0.238  21.670   6.060 -0.27 -0.00    +0.004 C 
DOCKED: ATOM     48  C   UNL d   1      -0.702  22.340   5.389 -0.25 -0.00    +0.012 C 
DOCKED: ENDBRANCH  17  47
DOCKED: TORSDOF 12
DOCKED: TER
DOCKED: ENDMDL
________________________________________________________________________________


	BEGINNING GENETIC ALGORITHM DOCKING 28 of 100
Run: 28 Seed: 158795812 2079915318 [ Run 28 of 100 GA/GALS ]
Beginning LAMARCKIAN GENETIC ALGORITHM (LGA), with a maximum of 25000000 energy evaluations.

Final-Value: -11.823


	FINAL GENETIC ALGORITHM DOCKED STATE
	_______________________________________________


Detailed state:  trans -7.838 10.538 -12.092 quatxyzw 0.166579 0.522053 0.154566 -0.822083 center 8.781 34.984 -0.736 ntor 12 40.8805 170.8441 20.3341 -83.8188 -79.3981 169.1224 180.0000 -91.4296 -58.7492 -90.2468 14.9225 -180.0000
State:	 -7.838  10.538 -12.092   0.293  0.917  0.271 -69.412     40.88  170.84   20.33  -83.82  -79.40  169.12  180.00  -91.43  -58.75  -90.25   14.92 -180.00

DOCKED: MODEL       28
DOCKED: USER    Run = 28
DOCKED: USER    DPF = D:/Protein_go_brrr/autodock/final/mut_K82N/heme_Co/dock.dpf
DOCKED: USER  
DOCKED: USER    Estimated Free Energy of Binding    =   -7.40 kcal/mol  [=(1)+(2)+(3)-(4)]
DOCKED: USER    Estimated Inhibition Constant, Ki   =    3.74 uM (micromolar)  [Temperature = 298.15 K]
DOCKED: USER    
DOCKED: USER    (1) Final Intermolecular Energy     =  -10.98 kcal/mol
DOCKED: USER        vdW + Hbond + desolv Energy     =   -8.40 kcal/mol
DOCKED: USER        Electrostatic Energy            =   -2.58 kcal/mol
DOCKED: USER    (2) Final Total Internal Energy     =   -0.84 kcal/mol
DOCKED: USER    (3) Torsional Free Energy           =   +3.58 kcal/mol
DOCKED: USER    (4) Unbound System's Energy  [=(2)] =   -0.84 kcal/mol
DOCKED: USER    
DOCKED: USER    
DOCKED: USER    NEWDPF move heme_Co_opt.pdbqt
DOCKED: USER    NEWDPF about 8.781000 34.984000 -0.736000
DOCKED: USER    NEWDPF tran0 -7.837668 10.538306 -12.091785
DOCKED: USER    NEWDPF quaternion0 0.166579 0.522053 0.154566 -0.822083
DOCKED: USER    NEWDPF axisangle0 0.292569 0.916901 0.271470 -69.412193
DOCKED: USER    NEWDPF quat0 0.292569 0.916901 0.271470 -69.412193
DOCKED: USER    NEWDPF dihe0 40.88 170.84 20.33 -83.82 -79.40 169.12 180.00 -91.43 -58.75 -90.25 14.92 -180.00 
DOCKED: USER  keepresnum = 1 
DOCKED: USER  
DOCKED: REMARK  12 active torsions:
DOCKED: REMARK  status: ('A' for Active; 'I' for Inactive)
DOCKED: REMARK    1  A    between atoms: C_6  and  C_10 
DOCKED: REMARK    2  A    between atoms: C_10  and  C_11 
DOCKED: REMARK    3  A    between atoms: C_11  and  C_12 
DOCKED: REMARK    4  A    between atoms: C_12  and  O_14 
DOCKED: REMARK    5  A    between atoms: C_17  and  C_20 
DOCKED: REMARK    6  A    between atoms: C_24  and  C_27 
DOCKED: REMARK    7  A    between atoms: C_31  and  C_34 
DOCKED: REMARK    8  A    between atoms: C_34  and  C_35 
DOCKED: REMARK    9  A    between atoms: C_35  and  C_36 
DOCKED: REMARK   10  A    between atoms: C_36  and  O_38 
DOCKED: REMARK   11  A    between atoms: FE_43  and  C_44 
DOCKED: REMARK   12  A    between atoms: C_44  and  O_45 
DOCKED: USER                              x       y       z     vdW  Elec       q    Type
DOCKED: USER                           _______ _______ _______ _____ _____    ______ ____
DOCKED: ROOT
DOCKED: ATOM      1  C   UNL d   1      -9.439  10.253 -10.653 -0.09 +0.01    +0.064 A 
DOCKED: ATOM      2  C   UNL d   1      -5.315   7.987 -11.335 -0.29 -0.01    +0.064 C 
DOCKED: ATOM      3  C   UNL d   1      -4.472  10.614 -15.235 -0.15 -0.02    +0.064 A 
DOCKED: ATOM      4  C   UNL d   1      -8.491  13.206 -14.342 -0.09 +0.00    +0.064 A 
DOCKED: ATOM      5  C   UNL d   1      -8.391   9.416 -10.573 -0.12 +0.01    +0.066 A 
DOCKED: ATOM      6  C   UNL d   1      -8.234   8.516  -9.501 -0.17 -0.00    -0.021 A 
DOCKED: ATOM      7  C   UNL d   1      -7.024   7.877  -9.692 -0.25 -0.00    -0.025 A 
DOCKED: ATOM      8  C   UNL d   1      -6.504   8.402 -10.880 -0.22 -0.00    +0.066 A 
DOCKED: ATOM      9  C   UNL d   1      -6.370   6.812  -8.799 -0.23 +0.00    +0.051 C 
DOCKED: ATOM     10  C   UNL d   1      -4.712   8.450 -12.559 -0.11 -0.02    +0.066 A 
DOCKED: ATOM     11  C   UNL d   1      -3.536   7.952 -13.162 -0.44 +0.00    -0.021 A 
DOCKED: ATOM     12  C   UNL d   1      -3.316   8.734 -14.300 -0.43 -0.00    +0.000 A 
DOCKED: ATOM     13  C   UNL d   1      -4.377   9.639 -14.314 -0.24 -0.02    +0.070 A 
DOCKED: ATOM     14  C   UNL d   1      -2.746   6.748 -12.717 -0.47 -0.01    +0.052 C 
DOCKED: ATOM     15  C   UNL d   1      -5.466  11.661 -15.367 -0.10 -0.02    +0.066 A 
DOCKED: ATOM     16  C   UNL d   1      -5.427  12.726 -16.256 -0.11 +0.01    -0.021 A 
DOCKED: ATOM     17  C   UNL d   1      -6.583  13.478 -16.000 -0.09 -0.00    +0.000 A 
DOCKED: ATOM     18  C   UNL d   1      -7.247  12.800 -14.984 -0.09 -0.01    +0.070 A 
DOCKED: ATOM     19  C   UNL d   1      -4.336  12.980 -17.272 -0.08 -0.04    +0.052 C 
DOCKED: ATOM     20  C   UNL d   1      -9.110  12.611 -13.294 +0.05 +0.01    +0.066 A 
DOCKED: ATOM     21  C   UNL d   1     -10.284  13.115 -12.740 +0.06 -0.01    -0.025 A 
DOCKED: ATOM     22  C   UNL d   1     -10.597  12.268 -11.693 -0.07 -0.01    -0.021 A 
DOCKED: ATOM     23  C   UNL d   1      -9.583  11.287 -11.652 -0.00 +0.02    +0.066 A 
DOCKED: ATOM     24  C   UNL d   1     -11.061  14.356 -13.174 -0.06 +0.01    +0.051 C 
DOCKED: ATOM     25  N   UNL d   1      -7.333   9.353 -11.451 -0.09 -0.00    -0.248 N 
DOCKED: ATOM     26  N   UNL d   1      -5.250   9.430 -13.293 -0.14 +0.05    -0.248 N 
DOCKED: ATOM     27  N   UNL d   1      -6.538  11.740 -14.611 -0.05 +0.04    -0.248 N 
DOCKED: ATOM     28  N   UNL d   1      -8.680  11.492 -12.618 -0.05 -0.04    -0.248 N 
DOCKED: ATOM     29 FE   UNL d   1      -6.915  10.619 -13.124 -0.04 -0.00    +0.000 Fe
DOCKED: ENDROOT
DOCKED: BRANCH   6  30
DOCKED: ATOM     30  C   UNL d   1      -9.171   8.347  -8.310 -0.18 +0.01    +0.052 C 
DOCKED: BRANCH  30  31
DOCKED: ATOM     31  C   UNL d   1     -10.093   7.146  -8.519 -0.11 +0.06    +0.115 C 
DOCKED: BRANCH  31  32
DOCKED: ATOM     32  C   UNL d   1      -9.917   6.091  -7.448 -0.09 +0.16    +0.139 C 
DOCKED: ATOM     33  O   UNL d   1      -9.950   6.417  -6.271 -0.41 -0.88    -0.650 OA
DOCKED: BRANCH  32  34
DOCKED: ATOM     34  O   UNL d   1      -9.772   4.780  -7.750 -0.32 -1.24    -0.776 OA
DOCKED: ATOM     35  H   UNL d   1      -9.284   4.449  -8.517 +0.05 +0.14    +0.167 HD
DOCKED: ENDBRANCH  32  34
DOCKED: ENDBRANCH  31  32
DOCKED: ENDBRANCH  30  31
DOCKED: ENDBRANCH   6  30
DOCKED: BRANCH  29  36
DOCKED: ATOM     36  C   UNL d   1      -5.889  11.862 -11.784 -0.21 -0.01    +0.190 C 
DOCKED: BRANCH  36  37
DOCKED: ATOM     37  O   UNL d   1      -5.348  11.906 -10.495 -0.47 +0.04    -0.399 OA
DOCKED: ATOM     38  H   UNL d   1      -4.694  11.153 -10.466 -0.42 -0.09    +0.209 HD
DOCKED: ENDBRANCH  36  37
DOCKED: ENDBRANCH  29  36
DOCKED: BRANCH  22  39
DOCKED: ATOM     39  C   UNL d   1     -11.771  12.435 -10.747 -0.07 +0.01    +0.052 C 
DOCKED: BRANCH  39  40
DOCKED: ATOM     40  C   UNL d   1     -11.465  13.504  -9.685 -0.15 +0.05    +0.115 C 
DOCKED: BRANCH  40  41
DOCKED: ATOM     41  C   UNL d   1     -11.738  14.925 -10.132 -0.15 +0.07    +0.139 C 
DOCKED: ATOM     42  O   UNL d   1     -12.793  15.183 -10.694 +0.02 -0.22    -0.650 OA
DOCKED: BRANCH  41  43
DOCKED: ATOM     43  O   UNL d   1     -10.886  15.935  -9.849 -0.24 -0.81    -0.776 OA
DOCKED: ATOM     44  H   UNL d   1      -9.941  15.793  -9.706 -0.45 +0.18    +0.167 HD
DOCKED: ENDBRANCH  41  43
DOCKED: ENDBRANCH  40  41
DOCKED: ENDBRANCH  39  40
DOCKED: ENDBRANCH  22  39
DOCKED: BRANCH  12  45
DOCKED: ATOM     45  C   UNL d   1      -2.242   8.717 -15.379 -0.43 -0.00    +0.004 C 
DOCKED: ATOM     46  C   UNL d   1      -1.090   9.377 -15.465 -0.42 -0.00    +0.012 C 
DOCKED: ENDBRANCH  12  45
DOCKED: BRANCH  17  47
DOCKED: ATOM     47  C   UNL d   1      -7.037  14.765 -16.606 -0.08 -0.00    +0.004 C 
DOCKED: ATOM     48  C   UNL d   1      -6.900  15.951 -16.008 -0.12 -0.00    +0.012 C 
DOCKED: ENDBRANCH  17  47
DOCKED: TORSDOF 12
DOCKED: TER
DOCKED: ENDMDL
________________________________________________________________________________


	BEGINNING GENETIC ALGORITHM DOCKING 29 of 100
Run: 29 Seed: 77185706 1239713935 [ Run 29 of 100 GA/GALS ]
Beginning LAMARCKIAN GENETIC ALGORITHM (LGA), with a maximum of 25000000 energy evaluations.

Final-Value: -10.574


	FINAL GENETIC ALGORITHM DOCKED STATE
	_______________________________________________


Detailed state:  trans 2.441 4.874 18.851 quatxyzw -0.045450 0.481430 0.708442 -0.514070 center 8.781 34.984 -0.736 ntor 12 29.7051 105.5477 -22.4478 -99.2927 145.9562 166.1192 65.2933 88.7023 71.2368 17.8666 162.9561 -166.2356
State:	  2.441   4.874  18.851  -0.053  0.561  0.826 -118.129     29.71  105.55  -22.45  -99.29  145.96  166.12   65.29   88.70   71.24   17.87  162.96 -166.24

DOCKED: MODEL       29
DOCKED: USER    Run = 29
DOCKED: USER    DPF = D:/Protein_go_brrr/autodock/final/mut_K82N/heme_Co/dock.dpf
DOCKED: USER  
DOCKED: USER    Estimated Free Energy of Binding    =   -6.27 kcal/mol  [=(1)+(2)+(3)-(4)]
DOCKED: USER    Estimated Inhibition Constant, Ki   =   25.50 uM (micromolar)  [Temperature = 298.15 K]
DOCKED: USER    
DOCKED: USER    (1) Final Intermolecular Energy     =   -9.85 kcal/mol
DOCKED: USER        vdW + Hbond + desolv Energy     =   -9.11 kcal/mol
DOCKED: USER        Electrostatic Energy            =   -0.74 kcal/mol
DOCKED: USER    (2) Final Total Internal Energy     =   -0.73 kcal/mol
DOCKED: USER    (3) Torsional Free Energy           =   +3.58 kcal/mol
DOCKED: USER    (4) Unbound System's Energy  [=(2)] =   -0.73 kcal/mol
DOCKED: USER    
DOCKED: USER    
DOCKED: USER    NEWDPF move heme_Co_opt.pdbqt
DOCKED: USER    NEWDPF about 8.781000 34.984000 -0.736000
DOCKED: USER    NEWDPF tran0 2.440845 4.873891 18.851425
DOCKED: USER    NEWDPF quaternion0 -0.045450 0.481430 0.708442 -0.514070
DOCKED: USER    NEWDPF axisangle0 -0.052988 0.561273 0.825933 -118.129321
DOCKED: USER    NEWDPF quat0 -0.052988 0.561273 0.825933 -118.129321
DOCKED: USER    NEWDPF dihe0 29.71 105.55 -22.45 -99.29 145.96 166.12 65.29 88.70 71.24 17.87 162.96 -166.24 
DOCKED: USER  keepresnum = 1 
DOCKED: USER  
DOCKED: REMARK  12 active torsions:
DOCKED: REMARK  status: ('A' for Active; 'I' for Inactive)
DOCKED: REMARK    1  A    between atoms: C_6  and  C_10 
DOCKED: REMARK    2  A    between atoms: C_10  and  C_11 
DOCKED: REMARK    3  A    between atoms: C_11  and  C_12 
DOCKED: REMARK    4  A    between atoms: C_12  and  O_14 
DOCKED: REMARK    5  A    between atoms: C_17  and  C_20 
DOCKED: REMARK    6  A    between atoms: C_24  and  C_27 
DOCKED: REMARK    7  A    between atoms: C_31  and  C_34 
DOCKED: REMARK    8  A    between atoms: C_34  and  C_35 
DOCKED: REMARK    9  A    between atoms: C_35  and  C_36 
DOCKED: REMARK   10  A    between atoms: C_36  and  O_38 
DOCKED: REMARK   11  A    between atoms: FE_43  and  C_44 
DOCKED: REMARK   12  A    between atoms: C_44  and  O_45 
DOCKED: USER                              x       y       z     vdW  Elec       q    Type
DOCKED: USER                           _______ _______ _______ _____ _____    ______ ____
DOCKED: ROOT
DOCKED: ATOM      1  C   UNL d   1       2.594   2.926  19.798 -0.27 -0.05    +0.064 A 
DOCKED: ATOM      2  C   UNL d   1       5.668   6.531  19.392 -0.22 -0.01    +0.064 C 
DOCKED: ATOM      3  C   UNL d   1       2.586   8.894  16.608 -0.24 -0.03    +0.064 A 
DOCKED: ATOM      4  C   UNL d   1      -0.720   5.398  17.323 -0.22 -0.02    +0.064 A 
DOCKED: ATOM      5  C   UNL d   1       3.674   3.721  19.862 -0.29 -0.03    +0.066 A 
DOCKED: ATOM      6  C   UNL d   1       4.791   3.403  20.660 -0.32 +0.01    -0.021 A 
DOCKED: ATOM      7  C   UNL d   1       5.670   4.463  20.556 -0.29 +0.00    -0.025 A 
DOCKED: ATOM      8  C   UNL d   1       5.060   5.375  19.688 -0.25 -0.02    +0.066 A 
DOCKED: ATOM      9  C   UNL d   1       7.035   4.626  21.242 -0.27 +0.01    +0.051 C 
DOCKED: ATOM     10  C   UNL d   1       5.130   7.518  18.489 -0.19 -0.02    +0.066 A 
DOCKED: ATOM     11  C   UNL d   1       5.779   8.684  18.030 -0.16 +0.01    -0.021 A 
DOCKED: ATOM     12  C   UNL d   1       4.860   9.352  17.216 -0.21 -0.00    +0.000 A 
DOCKED: ATOM     13  C   UNL d   1       3.725   8.540  17.230 -0.22 -0.03    +0.070 A 
DOCKED: ATOM     14  C   UNL d   1       7.215   9.065  18.285 -0.11 -0.01    +0.052 C 
DOCKED: ATOM     15  C   UNL d   1       1.311   8.205  16.562 -0.23 -0.03    +0.066 A 
DOCKED: ATOM     16  C   UNL d   1       0.131   8.695  16.022 -0.21 +0.01    -0.021 A 
DOCKED: ATOM     17  C   UNL d   1      -0.827   7.691  16.228 -0.17 -0.00    +0.000 A 
DOCKED: ATOM     18  C   UNL d   1      -0.147   6.658  16.865 -0.22 -0.03    +0.070 A 
DOCKED: ATOM     19  C   UNL d   1      -0.038  10.044  15.359 -0.20 -0.05    +0.052 C 
DOCKED: ATOM     20  C   UNL d   1      -0.100   4.416  18.020 -0.25 -0.02    +0.066 A 
DOCKED: ATOM     21  C   UNL d   1      -0.766   3.265  18.436 -0.21 +0.01    -0.025 A 
DOCKED: ATOM     22  C   UNL d   1       0.171   2.520  19.127 -0.23 +0.01    -0.021 A 
DOCKED: ATOM     23  C   UNL d   1       1.370   3.265  19.109 -0.29 -0.04    +0.066 A 
DOCKED: ATOM     24  C   UNL d   1      -2.231   2.901  18.204 -0.29 -0.01    +0.051 C 
DOCKED: ATOM     25  N   UNL d   1       3.825   4.939  19.238 -0.16 +0.12    -0.248 N 
DOCKED: ATOM     26  N   UNL d   1       3.909   7.404  17.954 -0.14 +0.11    -0.248 N 
DOCKED: ATOM     27  N   UNL d   1       1.116   7.011  17.074 -0.11 +0.12    -0.248 N 
DOCKED: ATOM     28  N   UNL d   1       1.209   4.414  18.441 -0.07 +0.13    -0.248 N 
DOCKED: ATOM     29 FE   UNL d   1       2.388   6.033  18.092 -0.04 -0.00    +0.000 Fe
DOCKED: ENDROOT
DOCKED: BRANCH   6  30
DOCKED: ATOM     30  C   UNL d   1       4.957   2.169  21.541 -0.36 -0.02    +0.052 C 
DOCKED: BRANCH  30  31
DOCKED: ATOM     31  C   UNL d   1       4.978   2.564  23.018 -0.16 -0.02    +0.115 C 
DOCKED: BRANCH  31  32
DOCKED: ATOM     32  C   UNL d   1       6.342   2.374  23.646 -0.17 +0.03    +0.139 C 
DOCKED: ATOM     33  O   UNL d   1       6.812   1.250  23.735 -0.02 -0.16    -0.650 OA
DOCKED: BRANCH  32  34
DOCKED: ATOM     34  O   UNL d   1       7.087   3.420  24.073 -0.00 -0.35    -0.776 OA
DOCKED: ATOM     35  H   UNL d   1       6.721   4.273  24.346 +0.03 +0.06    +0.167 HD
DOCKED: ENDBRANCH  32  34
DOCKED: ENDBRANCH  31  32
DOCKED: ENDBRANCH  30  31
DOCKED: ENDBRANCH   6  30
DOCKED: BRANCH  29  36
DOCKED: ATOM     36  C   UNL d   1       1.774   6.899  19.900 -0.06 -0.05    +0.190 C 
DOCKED: BRANCH  36  37
DOCKED: ATOM     37  O   UNL d   1       2.128   7.039  21.245 +0.00 +0.07    -0.399 OA
DOCKED: ATOM     38  H   UNL d   1       2.910   6.431  21.369 +0.03 -0.04    +0.209 HD
DOCKED: ENDBRANCH  36  37
DOCKED: ENDBRANCH  29  36
DOCKED: BRANCH  22  39
DOCKED: ATOM     39  C   UNL d   1      -0.094   1.197  19.821 -0.19 -0.04    +0.052 C 
DOCKED: BRANCH  39  40
DOCKED: ATOM     40  C   UNL d   1      -1.080   1.383  20.985 -0.19 -0.03    +0.115 C 
DOCKED: BRANCH  40  41
DOCKED: ATOM     41  C   UNL d   1      -1.182   0.192  21.914 -0.17 +0.00    +0.139 C 
DOCKED: ATOM     42  O   UNL d   1      -2.286  -0.214  22.248 -0.05 -0.14    -0.650 OA
DOCKED: BRANCH  41  43
DOCKED: ATOM     43  O   UNL d   1      -0.087  -0.490  22.317 -0.53 +0.06    -0.776 OA
DOCKED: ATOM     44  H   UNL d   1       0.767  -0.410  21.874 -0.38 -0.24    +0.167 HD
DOCKED: ENDBRANCH  41  43
DOCKED: ENDBRANCH  40  41
DOCKED: ENDBRANCH  39  40
DOCKED: ENDBRANCH  22  39
DOCKED: BRANCH  12  45
DOCKED: ATOM     45  C   UNL d   1       4.928  10.647  16.418 -0.12 -0.00    +0.004 C 
DOCKED: ATOM     46  C   UNL d   1       4.356  11.828  16.632 -0.11 -0.00    +0.012 C 
DOCKED: ENDBRANCH  12  45
DOCKED: BRANCH  17  47
DOCKED: ATOM     47  C   UNL d   1      -2.287   7.686  15.913 -0.24 -0.00    +0.004 C 
DOCKED: ATOM     48  C   UNL d   1      -2.874   6.755  15.158 -0.35 -0.01    +0.012 C 
DOCKED: ENDBRANCH  17  47
DOCKED: TORSDOF 12
DOCKED: TER
DOCKED: ENDMDL
________________________________________________________________________________


	BEGINNING GENETIC ALGORITHM DOCKING 30 of 100
Run: 30 Seed: 63989857 1225876127 [ Run 30 of 100 GA/GALS ]
Beginning LAMARCKIAN GENETIC ALGORITHM (LGA), with a maximum of 25000000 energy evaluations.

Final-Value: -10.568


	FINAL GENETIC ALGORITHM DOCKED STATE
	_______________________________________________


Detailed state:  trans 10.947 5.420 13.048 quatxyzw -0.053891 0.355197 -0.373903 -0.855060 center 8.781 34.984 -0.736 ntor 12 -163.6847 115.4705 -80.2684 139.5584 108.0516 129.9558 48.5179 -72.7245 161.0448 -30.5224 -158.9787 -156.6724
State:	 10.947   5.420  13.048  -0.104  0.685 -0.721 -62.467   -163.68  115.47  -80.27  139.56  108.05  129.96   48.52  -72.72  161.04  -30.52 -158.98 -156.67

DOCKED: MODEL       30
DOCKED: USER    Run = 30
DOCKED: USER    DPF = D:/Protein_go_brrr/autodock/final/mut_K82N/heme_Co/dock.dpf
DOCKED: USER  
DOCKED: USER    Estimated Free Energy of Binding    =   -4.80 kcal/mol  [=(1)+(2)+(3)-(4)]
DOCKED: USER    Estimated Inhibition Constant, Ki   =  302.37 uM (micromolar)  [Temperature = 298.15 K]
DOCKED: USER    
DOCKED: USER    (1) Final Intermolecular Energy     =   -8.38 kcal/mol
DOCKED: USER        vdW + Hbond + desolv Energy     =   -7.61 kcal/mol
DOCKED: USER        Electrostatic Energy            =   -0.77 kcal/mol
DOCKED: USER    (2) Final Total Internal Energy     =   -2.19 kcal/mol
DOCKED: USER    (3) Torsional Free Energy           =   +3.58 kcal/mol
DOCKED: USER    (4) Unbound System's Energy  [=(2)] =   -2.19 kcal/mol
DOCKED: USER    
DOCKED: USER    
DOCKED: USER    NEWDPF move heme_Co_opt.pdbqt
DOCKED: USER    NEWDPF about 8.781000 34.984000 -0.736000
DOCKED: USER    NEWDPF tran0 10.946651 5.419991 13.048123
DOCKED: USER    NEWDPF quaternion0 -0.053891 0.355197 -0.373903 -0.855060
DOCKED: USER    NEWDPF axisangle0 -0.103931 0.685009 -0.721084 -62.467240
DOCKED: USER    NEWDPF quat0 -0.103931 0.685009 -0.721084 -62.467240
DOCKED: USER    NEWDPF dihe0 -163.68 115.47 -80.27 139.56 108.05 129.96 48.52 -72.72 161.04 -30.52 -158.98 -156.67 
DOCKED: USER  keepresnum = 1 
DOCKED: USER  
DOCKED: REMARK  12 active torsions:
DOCKED: REMARK  status: ('A' for Active; 'I' for Inactive)
DOCKED: REMARK    1  A    between atoms: C_6  and  C_10 
DOCKED: REMARK    2  A    between atoms: C_10  and  C_11 
DOCKED: REMARK    3  A    between atoms: C_11  and  C_12 
DOCKED: REMARK    4  A    between atoms: C_12  and  O_14 
DOCKED: REMARK    5  A    between atoms: C_17  and  C_20 
DOCKED: REMARK    6  A    between atoms: C_24  and  C_27 
DOCKED: REMARK    7  A    between atoms: C_31  and  C_34 
DOCKED: REMARK    8  A    between atoms: C_34  and  C_35 
DOCKED: REMARK    9  A    between atoms: C_35  and  C_36 
DOCKED: REMARK   10  A    between atoms: C_36  and  O_38 
DOCKED: REMARK   11  A    between atoms: FE_43  and  C_44 
DOCKED: REMARK   12  A    between atoms: C_44  and  O_45 
DOCKED: USER                              x       y       z     vdW  Elec       q    Type
DOCKED: USER                           _______ _______ _______ _____ _____    ______ ____
DOCKED: ROOT
DOCKED: ATOM      1  C   UNL d   1       9.790   7.235  13.336 -0.15 +0.00    +0.064 A 
DOCKED: ATOM      2  C   UNL d   1      11.200   3.833  16.345 -0.22 -0.00    +0.064 C 
DOCKED: ATOM      3  C   UNL d   1      13.011   1.317  12.710 -0.17 -0.01    +0.064 A 
DOCKED: ATOM      4  C   UNL d   1      11.925   4.954   9.668 -0.17 -0.00    +0.064 A 
DOCKED: ATOM      5  C   UNL d   1      10.010   6.474  14.421 -0.24 -0.01    +0.066 A 
DOCKED: ATOM      6  C   UNL d   1       9.679   6.909  15.719 -0.26 +0.00    -0.021 A 
DOCKED: ATOM      7  C   UNL d   1      10.111   5.928  16.590 -0.18 +0.00    -0.025 A 
DOCKED: ATOM      8  C   UNL d   1      10.672   4.930  15.786 -0.21 -0.01    +0.066 A 
DOCKED: ATOM      9  C   UNL d   1      10.007   5.916  18.123 -0.11 +0.00    +0.051 C 
DOCKED: ATOM     10  C   UNL d   1      11.775   2.743  15.597 -0.20 -0.01    +0.066 A 
DOCKED: ATOM     11  C   UNL d   1      12.217   1.506  16.115 -0.24 +0.00    -0.021 A 
DOCKED: ATOM     12  C   UNL d   1      12.737   0.790  15.033 -0.23 -0.00    +0.000 A 
DOCKED: ATOM     13  C   UNL d   1      12.562   1.636  13.937 -0.17 -0.01    +0.070 A 
DOCKED: ATOM     14  C   UNL d   1      12.057   1.024  17.534 -0.31 -0.01    +0.052 C 
DOCKED: ATOM     15  C   UNL d   1      12.963   2.088  11.483 -0.15 -0.01    +0.066 A 
DOCKED: ATOM     16  C   UNL d   1      13.575   1.762  10.281 -0.15 +0.00    -0.021 A 
DOCKED: ATOM     17  C   UNL d   1      13.266   2.810   9.401 -0.14 -0.00    +0.000 A 
DOCKED: ATOM     18  C   UNL d   1      12.474   3.687  10.134 -0.13 -0.00    +0.070 A 
DOCKED: ATOM     19  C   UNL d   1      14.397   0.519  10.025 +0.05 -0.01    +0.052 C 
DOCKED: ATOM     20  C   UNL d   1      11.225   5.864  10.387 -0.21 -0.00    +0.066 A 
DOCKED: ATOM     21  C   UNL d   1      10.782   7.064   9.836 -0.22 -0.00    -0.025 A 
DOCKED: ATOM     22  C   UNL d   1      10.137   7.730  10.863 -0.25 -0.00    -0.021 A 
DOCKED: ATOM     23  C   UNL d   1      10.231   6.901  12.001 -0.23 -0.00    +0.066 A 
DOCKED: ATOM     24  C   UNL d   1      10.979   7.563   8.407 -0.19 +0.01    +0.051 C 
DOCKED: ATOM     25  N   UNL d   1      10.618   5.239  14.437 -0.17 +0.03    -0.248 N 
DOCKED: ATOM     26  N   UNL d   1      11.930   2.792  14.270 -0.11 +0.03    -0.248 N 
DOCKED: ATOM     27  N   UNL d   1      12.339   3.240  11.378 -0.07 +0.01    -0.248 N 
DOCKED: ATOM     28  N   UNL d   1      10.891   5.772  11.718 -0.16 +0.01    -0.248 N 
DOCKED: ATOM     29 FE   UNL d   1      11.528   4.183  12.815 -0.05 -0.00    +0.000 Fe
DOCKED: ENDROOT
DOCKED: BRANCH   6  30
DOCKED: ATOM     30  C   UNL d   1       9.050   8.245  16.098 -0.24 -0.01    +0.052 C 
DOCKED: BRANCH  30  31
DOCKED: ATOM     31  C   UNL d   1      10.081   9.370  16.002 -0.10 -0.00    +0.115 C 
DOCKED: BRANCH  31  32
DOCKED: ATOM     32  C   UNL d   1      11.503   8.856  16.063 -0.03 -0.00    +0.139 C 
DOCKED: ATOM     33  O   UNL d   1      12.002   8.596  17.148 +0.03 +0.00    -0.650 OA
DOCKED: BRANCH  32  34
DOCKED: ATOM     34  O   UNL d   1      12.233   8.628  14.946 +0.04 +0.01    -0.776 OA
DOCKED: ATOM     35  H   UNL d   1      13.072   8.147  14.934 +0.01 -0.00    +0.167 HD
DOCKED: ENDBRANCH  32  34
DOCKED: ENDBRANCH  31  32
DOCKED: ENDBRANCH  30  31
DOCKED: ENDBRANCH   6  30
DOCKED: BRANCH  29  36
DOCKED: ATOM     36  C   UNL d   1      13.299   5.196  13.297 -0.03 -0.01    +0.190 C 
DOCKED: BRANCH  36  37
DOCKED: ATOM     37  O   UNL d   1      13.789   6.356  13.905 +0.00 +0.01    -0.399 OA
DOCKED: ATOM     38  H   UNL d   1      12.978   6.834  14.236 +0.03 -0.00    +0.209 HD
DOCKED: ENDBRANCH  36  37
DOCKED: ENDBRANCH  29  36
DOCKED: BRANCH  22  39
DOCKED: ATOM     39  C   UNL d   1       9.525   9.115  10.766 -0.20 +0.01    +0.052 C 
DOCKED: BRANCH  39  40
DOCKED: ATOM     40  C   UNL d   1      10.566  10.136  10.277 -0.13 +0.02    +0.115 C 
DOCKED: BRANCH  40  41
DOCKED: ATOM     41  C   UNL d   1      10.009  11.209   9.367 -0.05 +0.08    +0.139 C 
DOCKED: ATOM     42  O   UNL d   1       9.199  12.010   9.812 -0.48 -0.44    -0.650 OA
DOCKED: BRANCH  41  43
DOCKED: ATOM     43  O   UNL d   1      10.447  11.361   8.097 -0.45 -0.52    -0.776 OA
DOCKED: ATOM     44  H   UNL d   1      11.308  11.744   7.888 +0.02 +0.05    +0.167 HD
DOCKED: ENDBRANCH  41  43
DOCKED: ENDBRANCH  40  41
DOCKED: ENDBRANCH  39  40
DOCKED: ENDBRANCH  22  39
DOCKED: BRANCH  12  45
DOCKED: ATOM     45  C   UNL d   1      13.358  -0.594  14.906 -0.34 -0.00    +0.004 C 
DOCKED: ATOM     46  C   UNL d   1      13.107  -1.580  14.048 -0.35 -0.00    +0.012 C 
DOCKED: ENDBRANCH  12  45
DOCKED: BRANCH  17  47
DOCKED: ATOM     47  C   UNL d   1      13.706   3.031   7.991 -0.13 -0.00    +0.004 C 
DOCKED: ATOM     48  C   UNL d   1      13.073   2.519   6.933 -0.19 -0.00    +0.012 C 
DOCKED: ENDBRANCH  17  47
DOCKED: TORSDOF 12
DOCKED: TER
DOCKED: ENDMDL
________________________________________________________________________________


	BEGINNING GENETIC ALGORITHM DOCKING 31 of 100
Run: 31 Seed: 1459203670 501197579 [ Run 31 of 100 GA/GALS ]
Beginning LAMARCKIAN GENETIC ALGORITHM (LGA), with a maximum of 25000000 energy evaluations.

Final-Value: -9.851


	FINAL GENETIC ALGORITHM DOCKED STATE
	_______________________________________________


Detailed state:  trans 11.763 -13.224 3.200 quatxyzw -0.660585 -0.733807 0.153281 0.040735 center 8.781 34.984 -0.736 ntor 12 179.7823 110.9516 158.8610 -59.9715 139.9748 127.3430 39.0243 176.6240 154.8928 147.7531 -152.8208 21.6310
State:	 11.763 -13.224   3.200  -0.661 -0.734  0.153 175.331    179.78  110.95  158.86  -59.97  139.97  127.34   39.02  176.62  154.89  147.75 -152.82   21.63

DOCKED: MODEL       31
DOCKED: USER    Run = 31
DOCKED: USER    DPF = D:/Protein_go_brrr/autodock/final/mut_K82N/heme_Co/dock.dpf
DOCKED: USER  
DOCKED: USER    Estimated Free Energy of Binding    =   -3.95 kcal/mol  [=(1)+(2)+(3)-(4)]
DOCKED: USER    Estimated Inhibition Constant, Ki   =    1.26 mM (millimolar)  [Temperature = 298.15 K]
DOCKED: USER    
DOCKED: USER    (1) Final Intermolecular Energy     =   -7.53 kcal/mol
DOCKED: USER        vdW + Hbond + desolv Energy     =   -6.84 kcal/mol
DOCKED: USER        Electrostatic Energy            =   -0.69 kcal/mol
DOCKED: USER    (2) Final Total Internal Energy     =   -2.32 kcal/mol
DOCKED: USER    (3) Torsional Free Energy           =   +3.58 kcal/mol
DOCKED: USER    (4) Unbound System's Energy  [=(2)] =   -2.32 kcal/mol
DOCKED: USER    
DOCKED: USER    
DOCKED: USER    NEWDPF move heme_Co_opt.pdbqt
DOCKED: USER    NEWDPF about 8.781000 34.984000 -0.736000
DOCKED: USER    NEWDPF tran0 11.762544 -13.224235 3.200297
DOCKED: USER    NEWDPF quaternion0 -0.660585 -0.733807 0.153281 0.040735
DOCKED: USER    NEWDPF axisangle0 -0.661134 -0.734417 0.153408 175.330806
DOCKED: USER    NEWDPF quat0 -0.661134 -0.734417 0.153408 175.330806
DOCKED: USER    NEWDPF dihe0 179.78 110.95 158.86 -59.97 139.97 127.34 39.02 176.62 154.89 147.75 -152.82 21.63 
DOCKED: USER  keepresnum = 1 
DOCKED: USER  
DOCKED: REMARK  12 active torsions:
DOCKED: REMARK  status: ('A' for Active; 'I' for Inactive)
DOCKED: REMARK    1  A    between atoms: C_6  and  C_10 
DOCKED: REMARK    2  A    between atoms: C_10  and  C_11 
DOCKED: REMARK    3  A    between atoms: C_11  and  C_12 
DOCKED: REMARK    4  A    between atoms: C_12  and  O_14 
DOCKED: REMARK    5  A    between atoms: C_17  and  C_20 
DOCKED: REMARK    6  A    between atoms: C_24  and  C_27 
DOCKED: REMARK    7  A    between atoms: C_31  and  C_34 
DOCKED: REMARK    8  A    between atoms: C_34  and  C_35 
DOCKED: REMARK    9  A    between atoms: C_35  and  C_36 
DOCKED: REMARK   10  A    between atoms: C_36  and  O_38 
DOCKED: REMARK   11  A    between atoms: FE_43  and  C_44 
DOCKED: REMARK   12  A    between atoms: C_44  and  O_45 
DOCKED: USER                              x       y       z     vdW  Elec       q    Type
DOCKED: USER                           _______ _______ _______ _____ _____    ______ ____
DOCKED: ROOT
DOCKED: ATOM      1  C   UNL d   1      12.614 -14.799   4.430 -0.06 +0.03    +0.064 A 
DOCKED: ATOM      2  C   UNL d   1       9.313 -14.849   1.008 -0.25 +0.01    +0.064 C 
DOCKED: ATOM      3  C   UNL d   1       9.476 -10.082   0.728 -0.19 +0.01    +0.064 A 
DOCKED: ATOM      4  C   UNL d   1      13.124 -10.032   3.947 -0.13 +0.01    +0.064 A 
DOCKED: ATOM      5  C   UNL d   1      11.674 -15.160   3.541 -0.09 +0.03    +0.066 A 
DOCKED: ATOM      6  C   UNL d   1      11.378 -16.511   3.273 -0.10 -0.01    -0.021 A 
DOCKED: ATOM      7  C   UNL d   1      10.436 -16.520   2.263 -0.15 -0.01    -0.025 A 
DOCKED: ATOM      8  C   UNL d   1      10.185 -15.175   1.969 -0.18 +0.02    +0.066 A 
DOCKED: ATOM      9  C   UNL d   1       9.788 -17.740   1.590 -0.16 +0.01    +0.051 C 
DOCKED: ATOM     10  C   UNL d   1       8.971 -13.494   0.654 -0.22 +0.01    +0.066 A 
DOCKED: ATOM     11  C   UNL d   1       7.963 -13.085  -0.247 -0.28 -0.00    -0.021 A 
DOCKED: ATOM     12  C   UNL d   1       8.030 -11.691  -0.306 -0.33 +0.00    +0.000 A 
DOCKED: ATOM     13  C   UNL d   1       9.062 -11.351   0.569 -0.23 +0.01    +0.070 A 
DOCKED: ATOM     14  C   UNL d   1       6.952 -13.978  -0.919 -0.30 +0.01    +0.052 C 
DOCKED: ATOM     15  C   UNL d   1      10.555  -9.562   1.545 -0.25 +0.01    +0.066 A 
DOCKED: ATOM     16  C   UNL d   1      11.025  -8.256   1.554 -0.30 -0.00    -0.021 A 
DOCKED: ATOM     17  C   UNL d   1      12.078  -8.237   2.479 -0.24 +0.00    +0.000 A 
DOCKED: ATOM     18  C   UNL d   1      12.157  -9.534   2.976 -0.20 +0.01    +0.070 A 
DOCKED: ATOM     19  C   UNL d   1      10.478  -7.122   0.715 -0.30 -0.00    +0.052 C 
DOCKED: ATOM     20  C   UNL d   1      13.275 -11.306   4.380 -0.10 +0.01    +0.066 A 
DOCKED: ATOM     21  C   UNL d   1      14.265 -11.669   5.290 -0.06 -0.00    -0.025 A 
DOCKED: ATOM     22  C   UNL d   1      14.124 -13.033   5.470 -0.06 -0.00    -0.021 A 
DOCKED: ATOM     23  C   UNL d   1      13.053 -13.439   4.646 -0.05 +0.03    +0.066 A 
DOCKED: ATOM     24  C   UNL d   1      15.309 -10.765   5.940 -0.04 +0.00    +0.051 C 
DOCKED: ATOM     25  N   UNL d   1      10.934 -14.311   2.750 -0.11 -0.10    -0.248 N 
DOCKED: ATOM     26  N   UNL d   1       9.592 -12.438   1.191 -0.13 -0.05    -0.248 N 
DOCKED: ATOM     27  N   UNL d   1      11.255 -10.302   2.376 -0.12 -0.04    -0.248 N 
DOCKED: ATOM     28  N   UNL d   1      12.538 -12.397   3.982 -0.05 -0.09    -0.248 N 
DOCKED: ATOM     29 FE   UNL d   1      11.106 -12.187   2.554 -0.05 +0.00    +0.000 Fe
DOCKED: ENDROOT
DOCKED: BRANCH   6  30
DOCKED: ATOM     30  C   UNL d   1      12.038 -17.730   3.909 -0.04 +0.01    +0.052 C 
DOCKED: BRANCH  30  31
DOCKED: ATOM     31  C   UNL d   1      13.492 -17.852   3.452 -0.00 +0.01    +0.115 C 
DOCKED: BRANCH  31  32
DOCKED: ATOM     32  C   UNL d   1      13.725 -17.228   2.093 -0.00 +0.01    +0.139 C 
DOCKED: ATOM     33  O   UNL d   1      13.603 -17.913   1.089 +0.01 -0.03    -0.650 OA
DOCKED: BRANCH  32  34
DOCKED: ATOM     34  O   UNL d   1      14.019 -15.916   1.947 +0.02 -0.06    -0.776 OA
DOCKED: ATOM     35  H   UNL d   1      14.233 -15.497   1.102 +0.00 +0.01    +0.167 HD
DOCKED: ENDBRANCH  32  34
DOCKED: ENDBRANCH  31  32
DOCKED: ENDBRANCH  30  31
DOCKED: ENDBRANCH   6  30
DOCKED: BRANCH  29  36
DOCKED: ATOM     36  C   UNL d   1      12.519 -12.554   1.050 -0.04 +0.02    +0.190 C 
DOCKED: BRANCH  36  37
DOCKED: ATOM     37  O   UNL d   1      13.467 -13.486   0.615 +0.00 -0.03    -0.399 OA
DOCKED: ATOM     38  H   UNL d   1      13.453 -14.207   1.304 +0.01 +0.02    +0.209 HD
DOCKED: ENDBRANCH  36  37
DOCKED: ENDBRANCH  29  36
DOCKED: BRANCH  22  39
DOCKED: ATOM     39  C   UNL d   1      15.015 -13.902   6.338 -0.02 +0.01    +0.052 C 
DOCKED: BRANCH  39  40
DOCKED: ATOM     40  C   UNL d   1      14.182 -14.646   7.395 -0.04 +0.02    +0.115 C 
DOCKED: BRANCH  40  41
DOCKED: ATOM     41  C   UNL d   1      13.044 -13.836   7.979 -0.10 +0.03    +0.139 C 
DOCKED: ATOM     42  O   UNL d   1      13.246 -12.678   8.317 +0.01 -0.06    -0.650 OA
DOCKED: BRANCH  41  43
DOCKED: ATOM     43  O   UNL d   1      11.788 -14.328   8.056 -0.35 -0.52    -0.776 OA
DOCKED: ATOM     44  H   UNL d   1      11.103 -13.920   8.602 -0.40 -0.03    +0.167 HD
DOCKED: ENDBRANCH  41  43
DOCKED: ENDBRANCH  40  41
DOCKED: ENDBRANCH  39  40
DOCKED: ENDBRANCH  22  39
DOCKED: BRANCH  12  45
DOCKED: ATOM     45  C   UNL d   1       7.230 -10.644  -1.070 -0.40 +0.00    +0.004 C 
DOCKED: ATOM     46  C   UNL d   1       7.175 -10.377  -2.372 -0.34 +0.00    +0.012 C 
DOCKED: ENDBRANCH  12  45
DOCKED: BRANCH  17  47
DOCKED: ATOM     47  C   UNL d   1      12.997  -7.121   2.855 -0.20 +0.00    +0.004 C 
DOCKED: ATOM     48  C   UNL d   1      13.076  -6.617   4.089 -0.21 +0.00    +0.012 C 
DOCKED: ENDBRANCH  17  47
DOCKED: TORSDOF 12
DOCKED: TER
DOCKED: ENDMDL
________________________________________________________________________________


	BEGINNING GENETIC ALGORITHM DOCKING 32 of 100
Run: 32 Seed: 1713751544 317180887 [ Run 32 of 100 GA/GALS ]
Beginning LAMARCKIAN GENETIC ALGORITHM (LGA), with a maximum of 25000000 energy evaluations.

Final-Value: -9.721


	FINAL GENETIC ALGORITHM DOCKED STATE
	_______________________________________________


Detailed state:  trans -10.949 6.308 -12.283 quatxyzw -0.034476 -0.010147 -0.386974 0.921390 center 8.781 34.984 -0.736 ntor 12 3.7225 76.1098 97.7100 118.1262 64.6512 149.8146 -171.7930 -100.2469 -126.4956 -64.2874 -41.5795 1.4918
State:	-10.949   6.308 -12.283  -0.089 -0.026 -0.996 45.740      3.72   76.11   97.71  118.13   64.65  149.81 -171.79 -100.25 -126.50  -64.29  -41.58    1.49

DOCKED: MODEL       32
DOCKED: USER    Run = 32
DOCKED: USER    DPF = D:/Protein_go_brrr/autodock/final/mut_K82N/heme_Co/dock.dpf
DOCKED: USER  
DOCKED: USER    Estimated Free Energy of Binding    =   -4.45 kcal/mol  [=(1)+(2)+(3)-(4)]
DOCKED: USER    Estimated Inhibition Constant, Ki   =  550.69 uM (micromolar)  [Temperature = 298.15 K]
DOCKED: USER    
DOCKED: USER    (1) Final Intermolecular Energy     =   -8.03 kcal/mol
DOCKED: USER        vdW + Hbond + desolv Energy     =   -5.91 kcal/mol
DOCKED: USER        Electrostatic Energy            =   -2.11 kcal/mol
DOCKED: USER    (2) Final Total Internal Energy     =   -1.70 kcal/mol
DOCKED: USER    (3) Torsional Free Energy           =   +3.58 kcal/mol
DOCKED: USER    (4) Unbound System's Energy  [=(2)] =   -1.70 kcal/mol
DOCKED: USER    
DOCKED: USER    
DOCKED: USER    NEWDPF move heme_Co_opt.pdbqt
DOCKED: USER    NEWDPF about 8.781000 34.984000 -0.736000
DOCKED: USER    NEWDPF tran0 -10.949438 6.308141 -12.283079
DOCKED: USER    NEWDPF quaternion0 -0.034476 -0.010147 -0.386974 0.921390
DOCKED: USER    NEWDPF axisangle0 -0.088709 -0.026108 -0.995715 45.739728
DOCKED: USER    NEWDPF quat0 -0.088709 -0.026108 -0.995715 45.739728
DOCKED: USER    NEWDPF dihe0 3.72 76.11 97.71 118.13 64.65 149.81 -171.79 -100.25 -126.50 -64.29 -41.58 1.49 
DOCKED: USER  keepresnum = 1 
DOCKED: USER  
DOCKED: REMARK  12 active torsions:
DOCKED: REMARK  status: ('A' for Active; 'I' for Inactive)
DOCKED: REMARK    1  A    between atoms: C_6  and  C_10 
DOCKED: REMARK    2  A    between atoms: C_10  and  C_11 
DOCKED: REMARK    3  A    between atoms: C_11  and  C_12 
DOCKED: REMARK    4  A    between atoms: C_12  and  O_14 
DOCKED: REMARK    5  A    between atoms: C_17  and  C_20 
DOCKED: REMARK    6  A    between atoms: C_24  and  C_27 
DOCKED: REMARK    7  A    between atoms: C_31  and  C_34 
DOCKED: REMARK    8  A    between atoms: C_34  and  C_35 
DOCKED: REMARK    9  A    between atoms: C_35  and  C_36 
DOCKED: REMARK   10  A    between atoms: C_36  and  O_38 
DOCKED: REMARK   11  A    between atoms: FE_43  and  C_44 
DOCKED: REMARK   12  A    between atoms: C_44  and  O_45 
DOCKED: USER                              x       y       z     vdW  Elec       q    Type
DOCKED: USER                           _______ _______ _______ _____ _____    ______ ____
DOCKED: ROOT
DOCKED: ATOM      1  C   UNL d   1     -12.699   5.323 -13.111 -0.05 +0.02    +0.064 A 
DOCKED: ATOM      2  C   UNL d   1      -9.752   4.156  -9.565 -0.18 +0.04    +0.064 C 
DOCKED: ATOM      3  C   UNL d   1      -6.991   7.924 -10.570 -0.19 +0.00    +0.064 A 
DOCKED: ATOM      4  C   UNL d   1     -10.190   9.352 -13.945 -0.02 +0.00    +0.064 A 
DOCKED: ATOM      5  C   UNL d   1     -12.077   4.707 -12.092 -0.08 +0.02    +0.066 A 
DOCKED: ATOM      6  C   UNL d   1     -12.625   3.576 -11.455 -0.10 -0.01    -0.021 A 
DOCKED: ATOM      7  C   UNL d   1     -11.778   3.256 -10.413 -0.09 -0.01    -0.025 A 
DOCKED: ATOM      8  C   UNL d   1     -10.741   4.194 -10.468 -0.13 +0.03    +0.066 A 
DOCKED: ATOM      9  C   UNL d   1     -11.926   2.115  -9.395 -0.14 +0.03    +0.051 C 
DOCKED: ATOM     10  C   UNL d   1      -8.631   5.062  -9.559 -0.21 +0.02    +0.066 A 
DOCKED: ATOM     11  C   UNL d   1      -7.492   4.989  -8.727 -0.25 -0.01    -0.021 A 
DOCKED: ATOM     12  C   UNL d   1      -6.702   6.097  -9.044 -0.28 +0.00    +0.000 A 
DOCKED: ATOM     13  C   UNL d   1      -7.408   6.756 -10.051 -0.18 +0.01    +0.070 A 
DOCKED: ATOM     14  C   UNL d   1      -7.157   3.874  -7.770 -0.34 +0.02    +0.052 C 
DOCKED: ATOM     15  C   UNL d   1      -7.619   8.761 -11.573 -0.13 +0.00    +0.066 A 
DOCKED: ATOM     16  C   UNL d   1      -7.209  10.029 -11.961 -0.19 +0.00    -0.021 A 
DOCKED: ATOM     17  C   UNL d   1      -8.130  10.446 -12.932 -0.11 +0.00    +0.000 A 
DOCKED: ATOM     18  C   UNL d   1      -9.023   9.389 -13.073 -0.05 +0.00    +0.070 A 
DOCKED: ATOM     19  C   UNL d   1      -6.007  10.767 -11.415 -0.39 -0.01    +0.052 C 
DOCKED: ATOM     20  C   UNL d   1     -11.120   8.371 -14.036 -0.02 +0.01    +0.066 A 
DOCKED: ATOM     21  C   UNL d   1     -12.219   8.466 -14.887 -0.01 -0.00    -0.025 A 
DOCKED: ATOM     22  C   UNL d   1     -12.945   7.305 -14.689 -0.01 -0.00    -0.021 A 
DOCKED: ATOM     23  C   UNL d   1     -12.254   6.560 -13.711 -0.03 +0.01    +0.066 A 
DOCKED: ATOM     24  C   UNL d   1     -12.572   9.614 -15.829 +0.00 +0.00    +0.051 C 
DOCKED: ATOM     25  N   UNL d   1     -10.897   5.101 -11.502 -0.08 -0.07    -0.248 N 
DOCKED: ATOM     26  N   UNL d   1      -8.546   6.098 -10.400 -0.10 -0.05    -0.248 N 
DOCKED: ATOM     27  N   UNL d   1      -8.706   8.416 -12.226 -0.05 -0.02    -0.248 N 
DOCKED: ATOM     28  N   UNL d   1     -11.150   7.203 -13.311 -0.02 -0.04    -0.248 N 
DOCKED: ATOM     29 FE   UNL d   1      -9.739   6.857 -11.888 -0.02 +0.00    +0.000 Fe
DOCKED: ENDROOT
DOCKED: BRANCH   6  30
DOCKED: ATOM     30  C   UNL d   1     -13.947   2.895 -11.792 -0.05 +0.02    +0.052 C 
DOCKED: BRANCH  30  31
DOCKED: ATOM     31  C   UNL d   1     -14.121   2.778 -13.306 -0.07 +0.06    +0.115 C 
DOCKED: BRANCH  31  32
DOCKED: ATOM     32  C   UNL d   1     -12.921   2.147 -13.978 -0.07 +0.15    +0.139 C 
DOCKED: ATOM     33  O   UNL d   1     -12.567   1.025 -13.646 -0.54 -0.74    -0.650 OA
DOCKED: BRANCH  32  34
DOCKED: ATOM     34  O   UNL d   1     -12.248   2.767 -14.975 +0.03 -1.12    -0.776 OA
DOCKED: ATOM     35  H   UNL d   1     -12.481   3.637 -15.329 +0.02 +0.17    +0.167 HD
DOCKED: ENDBRANCH  32  34
DOCKED: ENDBRANCH  31  32
DOCKED: ENDBRANCH  30  31
DOCKED: ENDBRANCH   6  30
DOCKED: BRANCH  29  36
DOCKED: ATOM     36  C   UNL d   1     -10.921   7.818 -10.449 -0.02 +0.04    +0.190 C 
DOCKED: BRANCH  36  37
DOCKED: ATOM     37  O   UNL d   1     -12.029   7.635  -9.614 +0.01 -0.13    -0.399 OA
DOCKED: ATOM     38  H   UNL d   1     -12.666   7.085 -10.150 +0.01 +0.06    +0.209 HD
DOCKED: ENDBRANCH  36  37
DOCKED: ENDBRANCH  29  36
DOCKED: BRANCH  22  39
DOCKED: ATOM     39  C   UNL d   1     -14.264   6.968 -15.359 -0.01 +0.01    +0.052 C 
DOCKED: BRANCH  39  40
DOCKED: ATOM     40  C   UNL d   1     -14.052   5.951 -16.493 -0.02 +0.03    +0.115 C 
DOCKED: BRANCH  40  41
DOCKED: ATOM     41  C   UNL d   1     -14.608   4.572 -16.207 -0.04 +0.06    +0.139 C 
DOCKED: ATOM     42  O   UNL d   1     -15.668   4.467 -15.606 +0.01 -0.21    -0.650 OA
DOCKED: BRANCH  41  43
DOCKED: ATOM     43  O   UNL d   1     -14.010   3.454 -16.675 -0.53 -0.88    -0.776 OA
DOCKED: ATOM     44  H   UNL d   1     -13.483   2.872 -16.112 +0.03 +0.36    +0.167 HD
DOCKED: ENDBRANCH  41  43
DOCKED: ENDBRANCH  40  41
DOCKED: ENDBRANCH  39  40
DOCKED: ENDBRANCH  22  39
DOCKED: BRANCH  12  45
DOCKED: ATOM     45  C   UNL d   1      -5.359   6.597  -8.528 -0.38 +0.00    +0.004 C 
DOCKED: ATOM     46  C   UNL d   1      -4.166   6.635  -9.115 -0.54 -0.00    +0.012 C 
DOCKED: ENDBRANCH  12  45
DOCKED: BRANCH  17  47
DOCKED: ATOM     47  C   UNL d   1      -8.228  11.748 -13.657 -0.12 +0.00    +0.004 C 
DOCKED: ATOM     48  C   UNL d   1      -7.173  12.393 -14.160 -0.17 -0.00    +0.012 C 
DOCKED: ENDBRANCH  17  47
DOCKED: TORSDOF 12
DOCKED: TER
DOCKED: ENDMDL
________________________________________________________________________________


	BEGINNING GENETIC ALGORITHM DOCKING 33 of 100
Run: 33 Seed: 2098941920 480814522 [ Run 33 of 100 GA/GALS ]
Beginning LAMARCKIAN GENETIC ALGORITHM (LGA), with a maximum of 25000000 energy evaluations.

Final-Value: -9.552


	FINAL GENETIC ALGORITHM DOCKED STATE
	_______________________________________________


Detailed state:  trans 6.790 15.653 -12.128 quatxyzw -0.642190 -0.355540 -0.141552 -0.664189 center 8.781 34.984 -0.736 ntor 12 -68.8143 116.6979 -50.3392 118.0688 135.8724 134.7707 59.8189 -149.1954 -130.4806 60.1929 177.4385 128.8296
State:	  6.790  15.653 -12.128  -0.859 -0.476 -0.189 -96.760    -68.81  116.70  -50.34  118.07  135.87  134.77   59.82 -149.20 -130.48   60.19  177.44  128.83

DOCKED: MODEL       33
DOCKED: USER    Run = 33
DOCKED: USER    DPF = D:/Protein_go_brrr/autodock/final/mut_K82N/heme_Co/dock.dpf
DOCKED: USER  
DOCKED: USER    Estimated Free Energy of Binding    =   -3.24 kcal/mol  [=(1)+(2)+(3)-(4)]
DOCKED: USER    Estimated Inhibition Constant, Ki   =    4.19 mM (millimolar)  [Temperature = 298.15 K]
DOCKED: USER    
DOCKED: USER    (1) Final Intermolecular Energy     =   -6.82 kcal/mol
DOCKED: USER        vdW + Hbond + desolv Energy     =   -6.44 kcal/mol
DOCKED: USER        Electrostatic Energy            =   -0.38 kcal/mol
DOCKED: USER    (2) Final Total Internal Energy     =   -2.73 kcal/mol
DOCKED: USER    (3) Torsional Free Energy           =   +3.58 kcal/mol
DOCKED: USER    (4) Unbound System's Energy  [=(2)] =   -2.73 kcal/mol
DOCKED: USER    
DOCKED: USER    
DOCKED: USER    NEWDPF move heme_Co_opt.pdbqt
DOCKED: USER    NEWDPF about 8.781000 34.984000 -0.736000
DOCKED: USER    NEWDPF tran0 6.790082 15.653021 -12.128039
DOCKED: USER    NEWDPF quaternion0 -0.642190 -0.355540 -0.141552 -0.664189
DOCKED: USER    NEWDPF axisangle0 -0.859042 -0.475597 -0.189351 -96.759768
DOCKED: USER    NEWDPF quat0 -0.859042 -0.475597 -0.189351 -96.759768
DOCKED: USER    NEWDPF dihe0 -68.81 116.70 -50.34 118.07 135.87 134.77 59.82 -149.20 -130.48 60.19 177.44 128.83 
DOCKED: USER  keepresnum = 1 
DOCKED: USER  
DOCKED: REMARK  12 active torsions:
DOCKED: REMARK  status: ('A' for Active; 'I' for Inactive)
DOCKED: REMARK    1  A    between atoms: C_6  and  C_10 
DOCKED: REMARK    2  A    between atoms: C_10  and  C_11 
DOCKED: REMARK    3  A    between atoms: C_11  and  C_12 
DOCKED: REMARK    4  A    between atoms: C_12  and  O_14 
DOCKED: REMARK    5  A    between atoms: C_17  and  C_20 
DOCKED: REMARK    6  A    between atoms: C_24  and  C_27 
DOCKED: REMARK    7  A    between atoms: C_31  and  C_34 
DOCKED: REMARK    8  A    between atoms: C_34  and  C_35 
DOCKED: REMARK    9  A    between atoms: C_35  and  C_36 
DOCKED: REMARK   10  A    between atoms: C_36  and  O_38 
DOCKED: REMARK   11  A    between atoms: FE_43  and  C_44 
DOCKED: REMARK   12  A    between atoms: C_44  and  O_45 
DOCKED: USER                              x       y       z     vdW  Elec       q    Type
DOCKED: USER                           _______ _______ _______ _____ _____    ______ ____
DOCKED: ROOT
DOCKED: ATOM      1  C   UNL d   1       5.990  14.390 -13.703 -0.23 +0.00    +0.064 A 
DOCKED: ATOM      2  C   UNL d   1       4.081  17.931 -11.168 -0.18 -0.02    +0.064 C 
DOCKED: ATOM      3  C   UNL d   1       8.041  18.214  -8.510 -0.13 -0.01    +0.064 A 
DOCKED: ATOM      4  C   UNL d   1      10.158  14.864 -11.331 -0.22 +0.00    +0.064 A 
DOCKED: ATOM      5  C   UNL d   1       5.164  15.312 -13.182 -0.22 -0.01    +0.066 A 
DOCKED: ATOM      6  C   UNL d   1       3.902  15.588 -13.745 -0.19 +0.00    -0.021 A 
DOCKED: ATOM      7  C   UNL d   1       3.362  16.631 -13.019 -0.19 +0.01    -0.025 A 
DOCKED: ATOM      8  C   UNL d   1       4.309  16.937 -12.036 -0.17 -0.01    +0.066 A 
DOCKED: ATOM      9  C   UNL d   1       2.008  17.326 -13.232 -0.20 -0.02    +0.051 C 
DOCKED: ATOM     10  C   UNL d   1       4.984  18.300 -10.107 -0.14 -0.02    +0.066 A 
DOCKED: ATOM     11  C   UNL d   1       4.741  19.237  -9.080 -0.17 +0.01    -0.021 A 
DOCKED: ATOM     12  C   UNL d   1       5.911  19.297  -8.317 -0.24 -0.00    +0.000 A 
DOCKED: ATOM     13  C   UNL d   1       6.774  18.385  -8.926 -0.19 -0.02    +0.070 A 
DOCKED: ATOM     14  C   UNL d   1       3.439  19.945  -8.808 -0.31 -0.02    +0.052 C 
DOCKED: ATOM     15  C   UNL d   1       9.079  17.359  -9.051 -0.09 -0.00    +0.066 A 
DOCKED: ATOM     16  C   UNL d   1      10.411  17.336  -8.665 -0.06 +0.00    -0.021 A 
DOCKED: ATOM     17  C   UNL d   1      11.027  16.373  -9.477 -0.11 -0.00    +0.000 A 
DOCKED: ATOM     18  C   UNL d   1      10.013  15.870 -10.287 -0.20 +0.00    +0.070 A 
DOCKED: ATOM     19  C   UNL d   1      11.025  18.196  -7.583 -0.10 -0.00    +0.052 C 
DOCKED: ATOM     20  C   UNL d   1       9.207  14.422 -12.188 -0.16 +0.00    +0.066 A 
DOCKED: ATOM     21  C   UNL d   1       9.476  13.476 -13.175 -0.13 -0.00    -0.025 A 
DOCKED: ATOM     22  C   UNL d   1       8.286  13.298 -13.856 -0.19 -0.00    -0.021 A 
DOCKED: ATOM     23  C   UNL d   1       7.345  14.161 -13.254 -0.21 +0.01    +0.066 A 
DOCKED: ATOM     24  C   UNL d   1      10.807  12.789 -13.468 -0.14 +0.00    +0.051 C 
DOCKED: ATOM     25  N   UNL d   1       5.433  16.131 -12.110 -0.13 +0.03    -0.248 N 
DOCKED: ATOM     26  N   UNL d   1       6.193  17.742  -9.974 -0.14 +0.06    -0.248 N 
DOCKED: ATOM     27  N   UNL d   1       8.874  16.502 -10.027 -0.15 +0.01    -0.248 N 
DOCKED: ATOM     28  N   UNL d   1       7.899  14.845 -12.246 -0.15 -0.01    -0.248 N 
DOCKED: ATOM     29 FE   UNL d   1       7.257  16.325 -11.008 -0.05 -0.00    +0.000 Fe
DOCKED: ENDROOT
DOCKED: BRANCH   6  30
DOCKED: ATOM     30  C   UNL d   1       3.291  14.926 -14.975 -0.04 -0.02    +0.052 C 
DOCKED: BRANCH  30  31
DOCKED: ATOM     31  C   UNL d   1       3.492  15.801 -16.212 -0.10 -0.05    +0.115 C 
DOCKED: BRANCH  31  32
DOCKED: ATOM     32  C   UNL d   1       4.917  16.295 -16.343 -0.03 -0.02    +0.139 C 
DOCKED: ATOM     33  O   UNL d   1       5.341  17.123 -15.551 +0.02 +0.10    -0.650 OA
DOCKED: BRANCH  32  34
DOCKED: ATOM     34  O   UNL d   1       5.760  15.813 -17.286 +0.03 +0.08    -0.776 OA
DOCKED: ATOM     35  H   UNL d   1       6.163  14.935 -17.257 +0.02 -0.01    +0.167 HD
DOCKED: ENDBRANCH  32  34
DOCKED: ENDBRANCH  31  32
DOCKED: ENDBRANCH  30  31
DOCKED: ENDBRANCH   6  30
DOCKED: BRANCH  29  36
DOCKED: ATOM     36  C   UNL d   1       7.820  17.775 -12.413 -0.03 -0.02    +0.190 C 
DOCKED: BRANCH  36  37
DOCKED: ATOM     37  O   UNL d   1       7.550  18.240 -13.704 +0.00 +0.04    -0.399 OA
DOCKED: ATOM     38  H   UNL d   1       6.788  17.680 -14.024 +0.02 -0.02    +0.209 HD
DOCKED: ENDBRANCH  36  37
DOCKED: ENDBRANCH  29  36
DOCKED: BRANCH  22  39
DOCKED: ATOM     39  C   UNL d   1       8.087  12.397 -15.060 -0.18 +0.02    +0.052 C 
DOCKED: BRANCH  39  40
DOCKED: ATOM     40  C   UNL d   1       7.392  13.159 -16.200 -0.09 +0.02    +0.115 C 
DOCKED: BRANCH  40  41
DOCKED: ATOM     41  C   UNL d   1       6.132  12.497 -16.717 -0.11 +0.04    +0.139 C 
DOCKED: ATOM     42  O   UNL d   1       5.870  11.355 -16.368 -0.27 -0.50    -0.650 OA
DOCKED: BRANCH  41  43
DOCKED: ATOM     43  O   UNL d   1       5.243  13.165 -17.485 +0.03 -0.03    -0.776 OA
DOCKED: ATOM     44  H   UNL d   1       4.960  14.067 -17.286 +0.03 -0.01    +0.167 HD
DOCKED: ENDBRANCH  41  43
DOCKED: ENDBRANCH  40  41
DOCKED: ENDBRANCH  39  40
DOCKED: ENDBRANCH  22  39
DOCKED: BRANCH  12  45
DOCKED: ATOM     45  C   UNL d   1       6.304  20.092  -7.079 -0.31 -0.00    +0.004 C 
DOCKED: ATOM     46  C   UNL d   1       6.507  19.697  -5.825 -0.36 -0.00    +0.012 C 
DOCKED: ENDBRANCH  12  45
DOCKED: BRANCH  17  47
DOCKED: ATOM     47  C   UNL d   1      12.461  15.965  -9.553 -0.13 -0.00    +0.004 C 
DOCKED: ATOM     48  C   UNL d   1      12.902  14.753  -9.208 -0.18 -0.00    +0.012 C 
DOCKED: ENDBRANCH  17  47
DOCKED: TORSDOF 12
DOCKED: TER
DOCKED: ENDMDL
________________________________________________________________________________


	BEGINNING GENETIC ALGORITHM DOCKING 34 of 100
Run: 34 Seed: 295783437 313633902 [ Run 34 of 100 GA/GALS ]
Beginning LAMARCKIAN GENETIC ALGORITHM (LGA), with a maximum of 25000000 energy evaluations.

Final-Value: -10.487


	FINAL GENETIC ALGORITHM DOCKED STATE
	_______________________________________________


Detailed state:  trans 3.965 6.264 18.824 quatxyzw -0.171749 0.659630 0.710759 0.173818 center 8.781 34.984 -0.736 ntor 12 -151.4603 102.6379 48.1563 161.6122 90.5053 129.1000 46.0884 -180.0000 146.5114 -57.7131 -147.4680 166.7912
State:	  3.965   6.264  18.824  -0.174  0.670  0.722 159.980   -151.46  102.64   48.16  161.61   90.51  129.10   46.09 -180.00  146.51  -57.71 -147.47  166.79

DOCKED: MODEL       34
DOCKED: USER    Run = 34
DOCKED: USER    DPF = D:/Protein_go_brrr/autodock/final/mut_K82N/heme_Co/dock.dpf
DOCKED: USER  
DOCKED: USER    Estimated Free Energy of Binding    =   -4.73 kcal/mol  [=(1)+(2)+(3)-(4)]
DOCKED: USER    Estimated Inhibition Constant, Ki   =  343.73 uM (micromolar)  [Temperature = 298.15 K]
DOCKED: USER    
DOCKED: USER    (1) Final Intermolecular Energy     =   -8.31 kcal/mol
DOCKED: USER        vdW + Hbond + desolv Energy     =   -7.57 kcal/mol
DOCKED: USER        Electrostatic Energy            =   -0.73 kcal/mol
DOCKED: USER    (2) Final Total Internal Energy     =   -2.18 kcal/mol
DOCKED: USER    (3) Torsional Free Energy           =   +3.58 kcal/mol
DOCKED: USER    (4) Unbound System's Energy  [=(2)] =   -2.18 kcal/mol
DOCKED: USER    
DOCKED: USER    
DOCKED: USER    NEWDPF move heme_Co_opt.pdbqt
DOCKED: USER    NEWDPF about 8.781000 34.984000 -0.736000
DOCKED: USER    NEWDPF tran0 3.965199 6.264241 18.823845
DOCKED: USER    NEWDPF quaternion0 -0.171749 0.659630 0.710759 0.173818
DOCKED: USER    NEWDPF axisangle0 -0.174404 0.669826 0.721746 159.980285
DOCKED: USER    NEWDPF quat0 -0.174404 0.669826 0.721746 159.980285
DOCKED: USER    NEWDPF dihe0 -151.46 102.64 48.16 161.61 90.51 129.10 46.09 -180.00 146.51 -57.71 -147.47 166.79 
DOCKED: USER  keepresnum = 1 
DOCKED: USER  
DOCKED: REMARK  12 active torsions:
DOCKED: REMARK  status: ('A' for Active; 'I' for Inactive)
DOCKED: REMARK    1  A    between atoms: C_6  and  C_10 
DOCKED: REMARK    2  A    between atoms: C_10  and  C_11 
DOCKED: REMARK    3  A    between atoms: C_11  and  C_12 
DOCKED: REMARK    4  A    between atoms: C_12  and  O_14 
DOCKED: REMARK    5  A    between atoms: C_17  and  C_20 
DOCKED: REMARK    6  A    between atoms: C_24  and  C_27 
DOCKED: REMARK    7  A    between atoms: C_31  and  C_34 
DOCKED: REMARK    8  A    between atoms: C_34  and  C_35 
DOCKED: REMARK    9  A    between atoms: C_35  and  C_36 
DOCKED: REMARK   10  A    between atoms: C_36  and  O_38 
DOCKED: REMARK   11  A    between atoms: FE_43  and  C_44 
DOCKED: REMARK   12  A    between atoms: C_44  and  O_45 
DOCKED: USER                              x       y       z     vdW  Elec       q    Type
DOCKED: USER                           _______ _______ _______ _____ _____    ______ ____
DOCKED: ROOT
DOCKED: ATOM      1  C   UNL d   1       6.082   6.400  19.290 -0.21 -0.01    +0.064 A 
DOCKED: ATOM      2  C   UNL d   1       3.150   9.267  16.883 -0.23 -0.02    +0.064 C 
DOCKED: ATOM      3  C   UNL d   1      -0.387   6.086  17.327 -0.20 -0.02    +0.064 A 
DOCKED: ATOM      4  C   UNL d   1       2.475   3.314  20.118 -0.25 -0.04    +0.064 A 
DOCKED: ATOM      5  C   UNL d   1       5.551   7.401  18.568 -0.19 -0.02    +0.066 A 
DOCKED: ATOM      6  C   UNL d   1       6.269   8.578  18.282 -0.13 +0.00    -0.021 A 
DOCKED: ATOM      7  C   UNL d   1       5.407   9.416  17.603 -0.16 +0.01    -0.025 A 
DOCKED: ATOM      8  C   UNL d   1       4.205   8.708  17.490 -0.20 -0.02    +0.066 A 
DOCKED: ATOM      9  C   UNL d   1       5.688  10.831  17.075 -0.13 -0.01    +0.051 C 
DOCKED: ATOM     10  C   UNL d   1       1.883   8.607  16.696 -0.22 -0.03    +0.066 A 
DOCKED: ATOM     11  C   UNL d   1       0.785   9.083  15.947 -0.22 +0.01    -0.021 A 
DOCKED: ATOM     12  C   UNL d   1      -0.231   8.134  16.090 -0.18 -0.00    +0.000 A 
DOCKED: ATOM     13  C   UNL d   1       0.324   7.146  16.904 -0.21 -0.03    +0.070 A 
DOCKED: ATOM     14  C   UNL d   1       0.764  10.317  15.082 -0.20 -0.04    +0.052 C 
DOCKED: ATOM     15  C   UNL d   1       0.010   5.004  18.207 -0.19 -0.02    +0.066 A 
DOCKED: ATOM     16  C   UNL d   1      -0.818   4.017  18.722 -0.18 +0.01    -0.021 A 
DOCKED: ATOM     17  C   UNL d   1       0.002   3.216  19.530 -0.22 -0.00    +0.000 A 
DOCKED: ATOM     18  C   UNL d   1       1.274   3.771  19.430 -0.24 -0.04    +0.070 A 
DOCKED: ATOM     19  C   UNL d   1      -2.297   3.877  18.440 -0.18 -0.01    +0.052 C 
DOCKED: ATOM     20  C   UNL d   1       3.701   3.888  20.105 -0.28 -0.03    +0.066 A 
DOCKED: ATOM     21  C   UNL d   1       4.770   3.375  20.837 -0.31 +0.01    -0.025 A 
DOCKED: ATOM     22  C   UNL d   1       5.831   4.228  20.595 -0.31 +0.00    -0.021 A 
DOCKED: ATOM     23  C   UNL d   1       5.351   5.233  19.729 -0.25 -0.01    +0.066 A 
DOCKED: ATOM     24  C   UNL d   1       4.775   2.145  21.740 -0.33 -0.02    +0.051 C 
DOCKED: ATOM     25  N   UNL d   1       4.268   7.455  18.074 -0.15 +0.10    -0.248 N 
DOCKED: ATOM     26  N   UNL d   1       1.620   7.406  17.223 -0.13 +0.12    -0.248 N 
DOCKED: ATOM     27  N   UNL d   1       1.235   4.852  18.658 -0.10 +0.13    -0.248 N 
DOCKED: ATOM     28  N   UNL d   1       4.061   5.032  19.432 -0.17 +0.10    -0.248 N 
DOCKED: ATOM     29 FE   UNL d   1       2.663   6.074  18.385 -0.05 -0.00    +0.000 Fe
DOCKED: ENDROOT
DOCKED: BRANCH   6  30
DOCKED: ATOM     30  C   UNL d   1       7.694   8.903  18.718 -0.07 -0.01    +0.052 C 
DOCKED: BRANCH  30  31
DOCKED: ATOM     31  C   UNL d   1       7.784   8.981  20.242 -0.02 -0.00    +0.115 C 
DOCKED: BRANCH  31  32
DOCKED: ATOM     32  C   UNL d   1       6.534   9.564  20.865 -0.00 -0.01    +0.139 C 
DOCKED: ATOM     33  O   UNL d   1       6.404  10.777  20.928 +0.01 +0.04    -0.650 OA
DOCKED: BRANCH  32  34
DOCKED: ATOM     34  O   UNL d   1       5.525   8.782  21.315 +0.03 +0.05    -0.776 OA
DOCKED: ATOM     35  H   UNL d   1       4.608   9.075  21.401 +0.01 -0.01    +0.167 HD
DOCKED: ENDBRANCH  32  34
DOCKED: ENDBRANCH  31  32
DOCKED: ENDBRANCH  30  31
DOCKED: ENDBRANCH   6  30
DOCKED: BRANCH  29  36
DOCKED: ATOM     36  C   UNL d   1       2.183   7.191  20.093 -0.05 -0.05    +0.190 C 
DOCKED: BRANCH  36  37
DOCKED: ATOM     37  O   UNL d   1       2.730   8.043  21.057 +0.00 +0.06    -0.399 OA
DOCKED: ATOM     38  H   UNL d   1       3.717   7.986  20.920 +0.02 -0.03    +0.209 HD
DOCKED: ENDBRANCH  36  37
DOCKED: ENDBRANCH  29  36
DOCKED: BRANCH  22  39
DOCKED: ATOM     39  C   UNL d   1       7.211   4.114  21.216 -0.25 +0.02    +0.052 C 
DOCKED: BRANCH  39  40
DOCKED: ATOM     40  C   UNL d   1       7.294   4.943  22.509 -0.16 +0.03    +0.115 C 
DOCKED: BRANCH  40  41
DOCKED: ATOM     41  C   UNL d   1       7.543   4.126  23.760 -0.10 +0.08    +0.139 C 
DOCKED: ATOM     42  O   UNL d   1       6.952   3.066  23.910 -0.03 -0.25    -0.650 OA
DOCKED: BRANCH  41  43
DOCKED: ATOM     43  O   UNL d   1       8.467   4.493  24.675 -0.15 -0.86    -0.776 OA
DOCKED: ATOM     44  H   UNL d   1       8.471   5.366  25.088 +0.01 +0.14    +0.167 HD
DOCKED: ENDBRANCH  41  43
DOCKED: ENDBRANCH  40  41
DOCKED: ENDBRANCH  39  40
DOCKED: ENDBRANCH  22  39
DOCKED: BRANCH  12  45
DOCKED: ATOM     45  C   UNL d   1      -1.648   8.039  15.540 -0.16 -0.00    +0.004 C 
DOCKED: ATOM     46  C   UNL d   1      -2.410   6.977  15.291 -0.31 -0.01    +0.012 C 
DOCKED: ENDBRANCH  12  45
DOCKED: BRANCH  17  47
DOCKED: ATOM     47  C   UNL d   1      -0.353   2.044  20.385 -0.23 -0.00    +0.004 C 
DOCKED: ATOM     48  C   UNL d   1      -0.740   0.864  19.895 -0.26 -0.00    +0.012 C 
DOCKED: ENDBRANCH  17  47
DOCKED: TORSDOF 12
DOCKED: TER
DOCKED: ENDMDL
________________________________________________________________________________


	BEGINNING GENETIC ALGORITHM DOCKING 35 of 100
Run: 35 Seed: 1968129541 640834088 [ Run 35 of 100 GA/GALS ]
Beginning LAMARCKIAN GENETIC ALGORITHM (LGA), with a maximum of 25000000 energy evaluations.

Final-Value: -12.045


	FINAL GENETIC ALGORITHM DOCKED STATE
	_______________________________________________


Detailed state:  trans -7.922 10.377 -12.071 quatxyzw -0.098098 -0.570529 -0.124996 0.805760 center 8.781 34.984 -0.736 ntor 12 33.8616 17.1435 -134.0210 -66.7316 -89.7728 172.7615 7.2466 -163.6739 -51.8962 111.1196 -0.6257 -179.1879
State:	 -7.922  10.377 -12.071  -0.166 -0.963 -0.211 72.633     33.86   17.14 -134.02  -66.73  -89.77  172.76    7.25 -163.67  -51.90  111.12   -0.63 -179.19

DOCKED: MODEL       35
DOCKED: USER    Run = 35
DOCKED: USER    DPF = D:/Protein_go_brrr/autodock/final/mut_K82N/heme_Co/dock.dpf
DOCKED: USER  
DOCKED: USER    Estimated Free Energy of Binding    =   -7.60 kcal/mol  [=(1)+(2)+(3)-(4)]
DOCKED: USER    Estimated Inhibition Constant, Ki   =    2.70 uM (micromolar)  [Temperature = 298.15 K]
DOCKED: USER    
DOCKED: USER    (1) Final Intermolecular Energy     =  -11.18 kcal/mol
DOCKED: USER        vdW + Hbond + desolv Energy     =   -8.80 kcal/mol
DOCKED: USER        Electrostatic Energy            =   -2.38 kcal/mol
DOCKED: USER    (2) Final Total Internal Energy     =   -0.87 kcal/mol
DOCKED: USER    (3) Torsional Free Energy           =   +3.58 kcal/mol
DOCKED: USER    (4) Unbound System's Energy  [=(2)] =   -0.87 kcal/mol
DOCKED: USER    
DOCKED: USER    
DOCKED: USER    NEWDPF move heme_Co_opt.pdbqt
DOCKED: USER    NEWDPF about 8.781000 34.984000 -0.736000
DOCKED: USER    NEWDPF tran0 -7.921905 10.377005 -12.071090
DOCKED: USER    NEWDPF quaternion0 -0.098098 -0.570529 -0.124996 0.805760
DOCKED: USER    NEWDPF axisangle0 -0.165638 -0.963338 -0.211056 72.632532
DOCKED: USER    NEWDPF quat0 -0.165638 -0.963338 -0.211056 72.632532
DOCKED: USER    NEWDPF dihe0 33.86 17.14 -134.02 -66.73 -89.77 172.76 7.25 -163.67 -51.90 111.12 -0.63 -179.19 
DOCKED: USER  keepresnum = 1 
DOCKED: USER  
DOCKED: REMARK  12 active torsions:
DOCKED: REMARK  status: ('A' for Active; 'I' for Inactive)
DOCKED: REMARK    1  A    between atoms: C_6  and  C_10 
DOCKED: REMARK    2  A    between atoms: C_10  and  C_11 
DOCKED: REMARK    3  A    between atoms: C_11  and  C_12 
DOCKED: REMARK    4  A    between atoms: C_12  and  O_14 
DOCKED: REMARK    5  A    between atoms: C_17  and  C_20 
DOCKED: REMARK    6  A    between atoms: C_24  and  C_27 
DOCKED: REMARK    7  A    between atoms: C_31  and  C_34 
DOCKED: REMARK    8  A    between atoms: C_34  and  C_35 
DOCKED: REMARK    9  A    between atoms: C_35  and  C_36 
DOCKED: REMARK   10  A    between atoms: C_36  and  O_38 
DOCKED: REMARK   11  A    between atoms: FE_43  and  C_44 
DOCKED: REMARK   12  A    between atoms: C_44  and  O_45 
DOCKED: USER                              x       y       z     vdW  Elec       q    Type
DOCKED: USER                           _______ _______ _______ _____ _____    ______ ____
DOCKED: ROOT
DOCKED: ATOM      1  C   UNL d   1      -9.384  10.258 -10.470 -0.10 +0.01    +0.064 A 
DOCKED: ATOM      2  C   UNL d   1      -5.220   8.069 -11.165 -0.27 -0.01    +0.064 C 
DOCKED: ATOM      3  C   UNL d   1      -4.833  10.093 -15.475 -0.11 -0.02    +0.064 A 
DOCKED: ATOM      4  C   UNL d   1      -8.890  12.639 -14.630 -0.06 +0.00    +0.064 A 
DOCKED: ATOM      5  C   UNL d   1      -8.292   9.483 -10.358 -0.14 +0.01    +0.066 A 
DOCKED: ATOM      6  C   UNL d   1      -8.002   8.765  -9.181 -0.21 -0.00    -0.021 A 
DOCKED: ATOM      7  C   UNL d   1      -6.782   8.150  -9.380 -0.29 -0.00    -0.025 A 
DOCKED: ATOM      8  C   UNL d   1      -6.387   8.505 -10.674 -0.24 -0.00    +0.066 A 
DOCKED: ATOM      9  C   UNL d   1      -6.004   7.261  -8.398 -0.26 +0.00    +0.051 C 
DOCKED: ATOM     10  C   UNL d   1      -4.744   8.360 -12.494 -0.13 -0.02    +0.066 A 
DOCKED: ATOM     11  C   UNL d   1      -3.597   7.819 -13.116 -0.43 +0.00    -0.021 A 
DOCKED: ATOM     12  C   UNL d   1      -3.511   8.424 -14.374 -0.42 -0.00    +0.000 A 
DOCKED: ATOM     13  C   UNL d   1      -4.614   9.276 -14.430 -0.23 -0.02    +0.070 A 
DOCKED: ATOM     14  C   UNL d   1      -2.714   6.729 -12.567 -0.47 -0.01    +0.052 C 
DOCKED: ATOM     15  C   UNL d   1      -5.886  11.069 -15.675 -0.06 -0.01    +0.066 A 
DOCKED: ATOM     16  C   UNL d   1      -5.973  11.985 -16.714 -0.04 +0.01    -0.021 A 
DOCKED: ATOM     17  C   UNL d   1      -7.140  12.723 -16.473 -0.03 -0.00    +0.000 A 
DOCKED: ATOM     18  C   UNL d   1      -7.684  12.186 -15.311 -0.04 -0.01    +0.070 A 
DOCKED: ATOM     19  C   UNL d   1      -4.983  12.120 -17.849 -0.04 -0.02    +0.052 C 
DOCKED: ATOM     20  C   UNL d   1      -9.391  12.190 -13.454 -0.06 +0.01    +0.066 A 
DOCKED: ATOM     21  C   UNL d   1     -10.540  12.730 -12.881 -0.06 -0.00    -0.025 A 
DOCKED: ATOM     22  C   UNL d   1     -10.723  12.043 -11.695 -0.08 -0.01    -0.021 A 
DOCKED: ATOM     23  C   UNL d   1      -9.661  11.119 -11.596 -0.02 +0.02    +0.066 A 
DOCKED: ATOM     24  C   UNL d   1     -11.411  13.859 -13.426 -0.04 +0.01    +0.051 C 
DOCKED: ATOM     25  N   UNL d   1      -7.307   9.325 -11.306 -0.09 -0.00    -0.248 N 
DOCKED: ATOM     26  N   UNL d   1      -5.389   9.194 -13.316 -0.14 +0.05    -0.248 N 
DOCKED: ATOM     27  N   UNL d   1      -6.895  11.224 -14.847 -0.03 +0.03    -0.248 N 
DOCKED: ATOM     28  N   UNL d   1      -8.852  11.206 -12.658 -0.06 -0.04    -0.248 N 
DOCKED: ATOM     29 FE   UNL d   1      -7.092  10.332 -13.181 -0.03 -0.00    +0.000 Fe
DOCKED: ENDROOT
DOCKED: BRANCH   6  30
DOCKED: ATOM     30  C   UNL d   1      -8.829   8.747  -7.900 -0.24 +0.01    +0.052 C 
DOCKED: BRANCH  30  31
DOCKED: ATOM     31  C   UNL d   1      -9.964   7.729  -8.007 -0.13 +0.05    +0.115 C 
DOCKED: BRANCH  31  32
DOCKED: ATOM     32  C   UNL d   1      -9.966   6.742  -6.860 -0.18 +0.14    +0.139 C 
DOCKED: ATOM     33  O   UNL d   1      -9.887   5.546  -7.095 -0.33 -1.21    -0.650 OA
DOCKED: BRANCH  32  34
DOCKED: ATOM     34  O   UNL d   1     -10.003   7.145  -5.568 -0.42 -0.77    -0.776 OA
DOCKED: ATOM     35  H   UNL d   1     -10.425   7.960  -5.264 +0.06 +0.11    +0.167 HD
DOCKED: ENDBRANCH  32  34
DOCKED: ENDBRANCH  31  32
DOCKED: ENDBRANCH  30  31
DOCKED: ENDBRANCH   6  30
DOCKED: BRANCH  29  36
DOCKED: ATOM     36  C   UNL d   1      -6.024  11.805 -12.140 -0.26 -0.01    +0.190 C 
DOCKED: BRANCH  36  37
DOCKED: ATOM     37  O   UNL d   1      -5.337  12.048 -10.946 -0.66 +0.03    -0.399 OA
DOCKED: ATOM     38  H   UNL d   1      -6.005  12.491 -10.351 -0.46 -0.06    +0.209 HD
DOCKED: ENDBRANCH  36  37
DOCKED: ENDBRANCH  29  36
DOCKED: BRANCH  22  39
DOCKED: ATOM     39  C   UNL d   1     -11.823  12.310 -10.684 -0.06 +0.01    +0.052 C 
DOCKED: BRANCH  39  40
DOCKED: ATOM     40  C   UNL d   1     -11.495  13.553  -9.840 -0.14 +0.05    +0.115 C 
DOCKED: BRANCH  40  41
DOCKED: ATOM     41  C   UNL d   1     -10.418  13.334  -8.798 -0.21 +0.07    +0.139 C 
DOCKED: ATOM     42  O   UNL d   1     -10.229  12.208  -8.360 -0.02 -0.21    -0.650 OA
DOCKED: BRANCH  41  43
DOCKED: ATOM     43  O   UNL d   1      -9.600  14.334  -8.402 -0.24 -0.63    -0.776 OA
DOCKED: ATOM     44  H   UNL d   1      -8.637  14.249  -8.402 -0.40 +0.06    +0.167 HD
DOCKED: ENDBRANCH  41  43
DOCKED: ENDBRANCH  40  41
DOCKED: ENDBRANCH  39  40
DOCKED: ENDBRANCH  22  39
DOCKED: BRANCH  12  45
DOCKED: ATOM     45  C   UNL d   1      -2.529   8.281 -15.529 -0.41 -0.00    +0.004 C 
DOCKED: ATOM     46  C   UNL d   1      -1.287   8.736 -15.671 -0.43 -0.00    +0.012 C 
DOCKED: ENDBRANCH  12  45
DOCKED: BRANCH  17  47
DOCKED: ATOM     47  C   UNL d   1      -7.707  13.884 -17.223 -0.03 -0.00    +0.004 C 
DOCKED: ATOM     48  C   UNL d   1      -7.758  15.124 -16.733 -0.04 -0.00    +0.012 C 
DOCKED: ENDBRANCH  17  47
DOCKED: TORSDOF 12
DOCKED: TER
DOCKED: ENDMDL
________________________________________________________________________________


	BEGINNING GENETIC ALGORITHM DOCKING 36 of 100
Run: 36 Seed: 1331566077 1813632927 [ Run 36 of 100 GA/GALS ]
Beginning LAMARCKIAN GENETIC ALGORITHM (LGA), with a maximum of 25000000 energy evaluations.

Final-Value: -10.104


	FINAL GENETIC ALGORITHM DOCKED STATE
	_______________________________________________


Detailed state:  trans -12.535 10.002 -1.317 quatxyzw 0.337169 0.443464 -0.585943 0.588496 center 8.781 34.984 -0.736 ntor 12 -64.7004 58.5680 -23.3839 -94.2816 58.0205 176.3258 28.4814 -179.3856 -102.2274 42.5656 161.0758 168.1605
State:	-12.535  10.002  -1.317   0.417  0.549 -0.725 107.899    -64.70   58.57  -23.38  -94.28   58.02  176.33   28.48 -179.39 -102.23   42.57  161.08  168.16

DOCKED: MODEL       36
DOCKED: USER    Run = 36
DOCKED: USER    DPF = D:/Protein_go_brrr/autodock/final/mut_K82N/heme_Co/dock.dpf
DOCKED: USER  
DOCKED: USER    Estimated Free Energy of Binding    =   -4.78 kcal/mol  [=(1)+(2)+(3)-(4)]
DOCKED: USER    Estimated Inhibition Constant, Ki   =  313.00 uM (micromolar)  [Temperature = 298.15 K]
DOCKED: USER    
DOCKED: USER    (1) Final Intermolecular Energy     =   -8.36 kcal/mol
DOCKED: USER        vdW + Hbond + desolv Energy     =   -5.90 kcal/mol
DOCKED: USER        Electrostatic Energy            =   -2.46 kcal/mol
DOCKED: USER    (2) Final Total Internal Energy     =   -1.74 kcal/mol
DOCKED: USER    (3) Torsional Free Energy           =   +3.58 kcal/mol
DOCKED: USER    (4) Unbound System's Energy  [=(2)] =   -1.74 kcal/mol
DOCKED: USER    
DOCKED: USER    
DOCKED: USER    NEWDPF move heme_Co_opt.pdbqt
DOCKED: USER    NEWDPF about 8.781000 34.984000 -0.736000
DOCKED: USER    NEWDPF tran0 -12.535302 10.002245 -1.316758
DOCKED: USER    NEWDPF quaternion0 0.337169 0.443464 -0.585943 0.588496
DOCKED: USER    NEWDPF axisangle0 0.417030 0.548502 -0.724729 107.899361
DOCKED: USER    NEWDPF quat0 0.417030 0.548502 -0.724729 107.899361
DOCKED: USER    NEWDPF dihe0 -64.70 58.57 -23.38 -94.28 58.02 176.33 28.48 -179.39 -102.23 42.57 161.08 168.16 
DOCKED: USER  keepresnum = 1 
DOCKED: USER  
DOCKED: REMARK  12 active torsions:
DOCKED: REMARK  status: ('A' for Active; 'I' for Inactive)
DOCKED: REMARK    1  A    between atoms: C_6  and  C_10 
DOCKED: REMARK    2  A    between atoms: C_10  and  C_11 
DOCKED: REMARK    3  A    between atoms: C_11  and  C_12 
DOCKED: REMARK    4  A    between atoms: C_12  and  O_14 
DOCKED: REMARK    5  A    between atoms: C_17  and  C_20 
DOCKED: REMARK    6  A    between atoms: C_24  and  C_27 
DOCKED: REMARK    7  A    between atoms: C_31  and  C_34 
DOCKED: REMARK    8  A    between atoms: C_34  and  C_35 
DOCKED: REMARK    9  A    between atoms: C_35  and  C_36 
DOCKED: REMARK   10  A    between atoms: C_36  and  O_38 
DOCKED: REMARK   11  A    between atoms: FE_43  and  C_44 
DOCKED: REMARK   12  A    between atoms: C_44  and  O_45 
DOCKED: USER                              x       y       z     vdW  Elec       q    Type
DOCKED: USER                           _______ _______ _______ _____ _____    ______ ____
DOCKED: ROOT
DOCKED: ATOM      1  C   UNL d   1     -11.796   8.236  -2.342 -0.27 +0.02    +0.064 A 
DOCKED: ATOM      2  C   UNL d   1     -14.283   8.794   1.672 -0.11 +0.01    +0.064 C 
DOCKED: ATOM      3  C   UNL d   1     -13.886  13.541   1.304 -0.07 +0.01    +0.064 A 
DOCKED: ATOM      4  C   UNL d   1     -11.678  13.009  -2.998 -0.24 +0.02    +0.064 A 
DOCKED: ATOM      5  C   UNL d   1     -12.473   8.039  -1.199 -0.22 +0.01    +0.066 A 
DOCKED: ATOM      6  C   UNL d   1     -12.858   6.753  -0.771 -0.23 -0.00    -0.021 A 
DOCKED: ATOM      7  C   UNL d   1     -13.599   6.923   0.383 -0.16 -0.00    -0.025 A 
DOCKED: ATOM      8  C   UNL d   1     -13.621   8.302   0.617 -0.14 +0.01    +0.066 A 
DOCKED: ATOM      9  C   UNL d   1     -14.267   5.838   1.241 -0.12 +0.01    +0.051 C 
DOCKED: ATOM     10  C   UNL d   1     -14.339  10.194   2.009 -0.06 +0.01    +0.066 A 
DOCKED: ATOM     11  C   UNL d   1     -14.897  10.760   3.176 -0.03 -0.00    -0.021 A 
DOCKED: ATOM     12  C   UNL d   1     -14.764  12.145   3.044 -0.03 +0.00    +0.000 A 
DOCKED: ATOM     13  C   UNL d   1     -14.126  12.321   1.816 -0.06 +0.01    +0.070 A 
DOCKED: ATOM     14  C   UNL d   1     -15.429  10.005   4.367 -0.04 +0.01    +0.052 C 
DOCKED: ATOM     15  C   UNL d   1     -13.288  13.904   0.034 -0.13 +0.01    +0.066 A 
DOCKED: ATOM     16  C   UNL d   1     -13.201  15.182  -0.499 -0.16 -0.00    -0.021 A 
DOCKED: ATOM     17  C   UNL d   1     -12.567  15.033  -1.741 -0.24 +0.00    +0.000 A 
DOCKED: ATOM     18  C   UNL d   1     -12.301  13.673  -1.860 -0.23 +0.01    +0.070 A 
DOCKED: ATOM     19  C   UNL d   1     -13.704  16.445   0.163 -0.11 +0.01    +0.052 C 
DOCKED: ATOM     20  C   UNL d   1     -11.488  11.679  -3.174 -0.25 +0.02    +0.066 A 
DOCKED: ATOM     21  C   UNL d   1     -10.910  11.157  -4.329 -0.29 -0.01    -0.025 A 
DOCKED: ATOM     22  C   UNL d   1     -10.904   9.785  -4.155 -0.28 -0.01    -0.021 A 
DOCKED: ATOM     23  C   UNL d   1     -11.495   9.536  -2.898 -0.23 +0.02    +0.066 A 
DOCKED: ATOM     24  C   UNL d   1     -10.406  11.926  -5.547 -0.33 +0.02    +0.051 C 
DOCKED: ATOM     25  N   UNL d   1     -12.927   9.017  -0.343 -0.09 -0.04    -0.248 N 
DOCKED: ATOM     26  N   UNL d   1     -13.819  11.139   1.218 -0.05 -0.04    -0.248 N 
DOCKED: ATOM     27  N   UNL d   1     -12.771  13.028  -0.798 -0.06 -0.04    -0.248 N 
DOCKED: ATOM     28  N   UNL d   1     -11.851  10.680  -2.302 +0.18 -0.05    -0.248 N 
DOCKED: ATOM     29 FE   UNL d   1     -12.842  11.141  -0.587 -0.04 +0.00    +0.000 Fe
DOCKED: ENDROOT
DOCKED: BRANCH   6  30
DOCKED: ATOM     30  C   UNL d   1     -12.589   5.436  -1.491 -0.01 +0.02    +0.052 C 
DOCKED: BRANCH  30  31
DOCKED: ATOM     31  C   UNL d   1     -13.899   4.800  -1.953 -0.14 +0.05    +0.115 C 
DOCKED: BRANCH  31  32
DOCKED: ATOM     32  C   UNL d   1     -14.475   5.485  -3.174 -0.10 +0.07    +0.139 C 
DOCKED: ATOM     33  O   UNL d   1     -15.395   6.278  -3.040 +0.01 -0.19    -0.650 OA
DOCKED: BRANCH  32  34
DOCKED: ATOM     34  O   UNL d   1     -13.970   5.285  -4.414 -0.29 -0.81    -0.776 OA
DOCKED: ATOM     35  H   UNL d   1     -13.101   5.595  -4.703 +0.03 +0.30    +0.167 HD
DOCKED: ENDBRANCH  32  34
DOCKED: ENDBRANCH  31  32
DOCKED: ENDBRANCH  30  31
DOCKED: ENDBRANCH   6  30
DOCKED: BRANCH  29  36
DOCKED: ATOM     36  C   UNL d   1     -14.681  10.987  -1.581 -0.03 +0.02    +0.190 C 
DOCKED: BRANCH  36  37
DOCKED: ATOM     37  O   UNL d   1     -15.802  10.164  -1.729 -0.00 -0.05    -0.399 OA
DOCKED: ATOM     38  H   UNL d   1     -15.434   9.275  -1.992 +0.01 +0.03    +0.209 HD
DOCKED: ENDBRANCH  36  37
DOCKED: ENDBRANCH  29  36
DOCKED: BRANCH  22  39
DOCKED: ATOM     39  C   UNL d   1     -10.417   8.772  -5.174 -0.24 +0.02    +0.052 C 
DOCKED: BRANCH  39  40
DOCKED: ATOM     40  C   UNL d   1     -11.568   8.329  -6.092 -0.12 +0.06    +0.115 C 
DOCKED: BRANCH  40  41
DOCKED: ATOM     41  C   UNL d   1     -11.528   6.866  -6.482 -0.08 +0.17    +0.139 C 
DOCKED: ATOM     42  O   UNL d   1     -10.456   6.352  -6.769 -0.23 -0.96    -0.650 OA
DOCKED: BRANCH  41  43
DOCKED: ATOM     43  O   UNL d   1     -12.633   6.089  -6.439 -0.26 -1.40    -0.776 OA
DOCKED: ATOM     44  H   UNL d   1     -13.425   6.340  -5.946 +0.01 +0.20    +0.167 HD
DOCKED: ENDBRANCH  41  43
DOCKED: ENDBRANCH  40  41
DOCKED: ENDBRANCH  39  40
DOCKED: ENDBRANCH  22  39
DOCKED: BRANCH  12  45
DOCKED: ATOM     45  C   UNL d   1     -15.148  13.315   3.940 -0.01 +0.00    +0.004 C 
DOCKED: ATOM     46  C   UNL d   1     -16.167  14.167   3.864 -0.00 +0.00    +0.012 C 
DOCKED: ENDBRANCH  12  45
DOCKED: BRANCH  17  47
DOCKED: ATOM     47  C   UNL d   1     -12.264  16.057  -2.786 -0.11 +0.00    +0.004 C 
DOCKED: ATOM     48  C   UNL d   1     -11.901  17.311  -2.506 -0.27 +0.00    +0.012 C 
DOCKED: ENDBRANCH  17  47
DOCKED: TORSDOF 12
DOCKED: TER
DOCKED: ENDMDL
________________________________________________________________________________


	BEGINNING GENETIC ALGORITHM DOCKING 37 of 100
Run: 37 Seed: 251448595 746394173 [ Run 37 of 100 GA/GALS ]
Beginning LAMARCKIAN GENETIC ALGORITHM (LGA), with a maximum of 25000000 energy evaluations.

Final-Value: -9.765


	FINAL GENETIC ALGORITHM DOCKED STATE
	_______________________________________________


Detailed state:  trans 12.495 2.668 13.071 quatxyzw -0.481288 -0.725297 -0.491579 0.025612 center 8.781 34.984 -0.736 ntor 12 70.7581 93.2594 131.5702 61.7689 -100.4882 121.4223 30.2641 -51.5573 176.6500 132.3787 -169.1674 176.2245
State:	 12.495   2.668  13.071  -0.481 -0.726 -0.492 177.065     70.76   93.26  131.57   61.77 -100.49  121.42   30.26  -51.56  176.65  132.38 -169.17  176.22

DOCKED: MODEL       37
DOCKED: USER    Run = 37
DOCKED: USER    DPF = D:/Protein_go_brrr/autodock/final/mut_K82N/heme_Co/dock.dpf
DOCKED: USER  
DOCKED: USER    Estimated Free Energy of Binding    =   -2.84 kcal/mol  [=(1)+(2)+(3)-(4)]
DOCKED: USER    Estimated Inhibition Constant, Ki   =    8.35 mM (millimolar)  [Temperature = 298.15 K]
DOCKED: USER    
DOCKED: USER    (1) Final Intermolecular Energy     =   -6.42 kcal/mol
DOCKED: USER        vdW + Hbond + desolv Energy     =   -6.49 kcal/mol
DOCKED: USER        Electrostatic Energy            =   +0.07 kcal/mol
DOCKED: USER    (2) Final Total Internal Energy     =   -3.35 kcal/mol
DOCKED: USER    (3) Torsional Free Energy           =   +3.58 kcal/mol
DOCKED: USER    (4) Unbound System's Energy  [=(2)] =   -3.35 kcal/mol
DOCKED: USER    
DOCKED: USER    
DOCKED: USER    NEWDPF move heme_Co_opt.pdbqt
DOCKED: USER    NEWDPF about 8.781000 34.984000 -0.736000
DOCKED: USER    NEWDPF tran0 12.495435 2.668096 13.070710
DOCKED: USER    NEWDPF quaternion0 -0.481288 -0.725297 -0.491579 0.025612
DOCKED: USER    NEWDPF axisangle0 -0.481446 -0.725535 -0.491740 177.064746
DOCKED: USER    NEWDPF quat0 -0.481446 -0.725535 -0.491740 177.064746
DOCKED: USER    NEWDPF dihe0 70.76 93.26 131.57 61.77 -100.49 121.42 30.26 -51.56 176.65 132.38 -169.17 176.22 
DOCKED: USER  keepresnum = 1 
DOCKED: USER  
DOCKED: REMARK  12 active torsions:
DOCKED: REMARK  status: ('A' for Active; 'I' for Inactive)
DOCKED: REMARK    1  A    between atoms: C_6  and  C_10 
DOCKED: REMARK    2  A    between atoms: C_10  and  C_11 
DOCKED: REMARK    3  A    between atoms: C_11  and  C_12 
DOCKED: REMARK    4  A    between atoms: C_12  and  O_14 
DOCKED: REMARK    5  A    between atoms: C_17  and  C_20 
DOCKED: REMARK    6  A    between atoms: C_24  and  C_27 
DOCKED: REMARK    7  A    between atoms: C_31  and  C_34 
DOCKED: REMARK    8  A    between atoms: C_34  and  C_35 
DOCKED: REMARK    9  A    between atoms: C_35  and  C_36 
DOCKED: REMARK   10  A    between atoms: C_36  and  O_38 
DOCKED: REMARK   11  A    between atoms: FE_43  and  C_44 
DOCKED: REMARK   12  A    between atoms: C_44  and  O_45 
DOCKED: USER                              x       y       z     vdW  Elec       q    Type
DOCKED: USER                           _______ _______ _______ _____ _____    ______ ____
DOCKED: ROOT
DOCKED: ATOM      1  C   UNL d   1      13.433   0.710  13.033 -0.17 -0.01    +0.064 A 
DOCKED: ATOM      2  C   UNL d   1      12.875   4.050   9.695 -0.12 -0.00    +0.064 C 
DOCKED: ATOM      3  C   UNL d   1      10.247   6.671  12.703 -0.20 -0.00    +0.064 A 
DOCKED: ATOM      4  C   UNL d   1      11.126   3.459  16.249 -0.20 -0.00    +0.064 A 
DOCKED: ATOM      5  C   UNL d   1      13.444   1.413  11.889 -0.14 -0.01    +0.066 A 
DOCKED: ATOM      6  C   UNL d   1      14.185   0.999  10.764 -0.11 +0.00    -0.021 A 
DOCKED: ATOM      7  C   UNL d   1      14.037   1.984   9.807 -0.12 +0.00    -0.025 A 
DOCKED: ATOM      8  C   UNL d   1      13.201   2.947  10.381 -0.11 -0.00    +0.066 A 
DOCKED: ATOM      9  C   UNL d   1      14.655   2.030   8.401 -0.09 +0.00    +0.051 C 
DOCKED: ATOM     10  C   UNL d   1      12.001   5.082  10.193 -0.15 -0.00    +0.066 A 
DOCKED: ATOM     11  C   UNL d   1      11.509   6.192   9.473 -0.18 -0.00    -0.021 A 
DOCKED: ATOM     12  C   UNL d   1      10.743   6.937  10.373 -0.24 +0.00    +0.000 A 
DOCKED: ATOM     13  C   UNL d   1      10.812   6.222  11.569 -0.23 -0.00    +0.070 A 
DOCKED: ATOM     14  C   UNL d   1      11.693   6.452   7.999 -0.12 +0.00    +0.052 C 
DOCKED: ATOM     15  C   UNL d   1      10.265   6.091  14.032 -0.22 -0.01    +0.066 A 
DOCKED: ATOM     16  C   UNL d   1       9.785   6.679  15.193 -0.29 +0.00    -0.021 A 
DOCKED: ATOM     17  C   UNL d   1      10.038   5.757  16.219 -0.21 -0.00    +0.000 A 
DOCKED: ATOM     18  C   UNL d   1      10.640   4.668  15.597 -0.21 -0.01    +0.070 A 
DOCKED: ATOM     19  C   UNL d   1       9.131   8.040  15.282 -0.25 -0.00    +0.052 C 
DOCKED: ATOM     20  C   UNL d   1      11.791   2.425  15.679 -0.22 -0.01    +0.066 A 
DOCKED: ATOM     21  C   UNL d   1      12.239   1.332  16.417 -0.25 +0.00    -0.025 A 
DOCKED: ATOM     22  C   UNL d   1      12.883   0.509  15.511 -0.23 +0.00    -0.021 A 
DOCKED: ATOM     23  C   UNL d   1      12.805   1.152  14.257 -0.17 -0.01    +0.066 A 
DOCKED: ATOM     24  C   UNL d   1      12.080   1.092  17.916 -0.30 -0.00    +0.051 C 
DOCKED: ATOM     25  N   UNL d   1      12.813   2.616  11.668 -0.07 +0.02    -0.248 N 
DOCKED: ATOM     26  N   UNL d   1      11.527   5.072  11.444 -0.11 +0.01    -0.248 N 
DOCKED: ATOM     27  N   UNL d   1      10.787   4.915  14.300 -0.16 +0.03    -0.248 N 
DOCKED: ATOM     28  N   UNL d   1      12.147   2.313  14.355 -0.10 +0.03    -0.248 N 
DOCKED: ATOM     29 FE   UNL d   1      11.740   3.831  13.065 -0.04 -0.00    +0.000 Fe
DOCKED: ENDROOT
DOCKED: BRANCH   6  30
DOCKED: ATOM     30  C   UNL d   1      15.057  -0.247  10.658 -0.08 -0.01    +0.052 C 
DOCKED: BRANCH  30  31
DOCKED: ATOM     31  C   UNL d   1      16.456   0.028  11.207 -0.06 -0.01    +0.115 C 
DOCKED: BRANCH  31  32
DOCKED: ATOM     32  C   UNL d   1      16.651   1.480  11.590 -0.02 -0.01    +0.139 C 
DOCKED: ATOM     33  O   UNL d   1      17.229   2.232  10.821 +0.01 +0.02    -0.650 OA
DOCKED: BRANCH  32  34
DOCKED: ATOM     34  O   UNL d   1      16.161   1.989  12.744 +0.02 +0.03    -0.776 OA
DOCKED: ATOM     35  H   UNL d   1      16.469   1.735  13.625 +0.01 -0.01    +0.167 HD
DOCKED: ENDBRANCH  32  34
DOCKED: ENDBRANCH  31  32
DOCKED: ENDBRANCH  30  31
DOCKED: ENDBRANCH   6  30
DOCKED: BRANCH  29  36
DOCKED: ATOM     36  C   UNL d   1      13.576   4.737  13.515 -0.02 -0.01    +0.190 C 
DOCKED: BRANCH  36  37
DOCKED: ATOM     37  O   UNL d   1      14.948   4.485  13.616 +0.00 +0.01    -0.399 OA
DOCKED: ATOM     38  H   UNL d   1      15.019   3.495  13.717 +0.01 -0.01    +0.209 HD
DOCKED: ENDBRANCH  36  37
DOCKED: ENDBRANCH  29  36
DOCKED: BRANCH  22  39
DOCKED: ATOM     39  C   UNL d   1      13.589  -0.790  15.850 -0.28 -0.00    +0.052 C 
DOCKED: BRANCH  39  40
DOCKED: ATOM     40  C   UNL d   1      15.009  -0.516  16.373 -0.12 +0.00    +0.115 C 
DOCKED: BRANCH  40  41
DOCKED: ATOM     41  C   UNL d   1      15.854   0.351  15.462 -0.05 -0.00    +0.139 C 
DOCKED: ATOM     42  O   UNL d   1      15.786   1.568  15.562 +0.02 +0.01    -0.650 OA
DOCKED: BRANCH  41  43
DOCKED: ATOM     43  O   UNL d   1      16.746  -0.185  14.600 +0.03 +0.01    -0.776 OA
DOCKED: ATOM     44  H   UNL d   1      16.852   0.138  13.696 +0.02 -0.00    +0.167 HD
DOCKED: ENDBRANCH  41  43
DOCKED: ENDBRANCH  40  41
DOCKED: ENDBRANCH  39  40
DOCKED: ENDBRANCH  22  39
DOCKED: BRANCH  12  45
DOCKED: ATOM     45  C   UNL d   1       9.941   8.225  10.236 -0.31 +0.00    +0.004 C 
DOCKED: ATOM     46  C   UNL d   1       8.987   8.564   9.373 -0.41 +0.00    +0.012 C 
DOCKED: ENDBRANCH  12  45
DOCKED: BRANCH  17  47
DOCKED: ATOM     47  C   UNL d   1       9.796   5.875  17.688 -0.07 +0.00    +0.004 C 
DOCKED: ATOM     48  C   UNL d   1      10.758   5.755  18.606 -0.16 +0.00    +0.012 C 
DOCKED: ENDBRANCH  17  47
DOCKED: TORSDOF 12
DOCKED: TER
DOCKED: ENDMDL
________________________________________________________________________________


	BEGINNING GENETIC ALGORITHM DOCKING 38 of 100
Run: 38 Seed: 1967193011 184617117 [ Run 38 of 100 GA/GALS ]
Beginning LAMARCKIAN GENETIC ALGORITHM (LGA), with a maximum of 25000000 energy evaluations.

Final-Value: -9.655


	FINAL GENETIC ALGORITHM DOCKED STATE
	_______________________________________________


Detailed state:  trans 11.847 3.871 16.932 quatxyzw -0.117047 0.511971 -0.451943 -0.721064 center 8.781 34.984 -0.736 ntor 12 180.0000 106.2052 -13.0069 65.8317 -94.0368 133.4936 36.5409 -117.3708 157.7645 -79.4750 -157.4275 -7.5135
State:	 11.847   3.871  16.932  -0.169  0.739 -0.652 -87.715    180.00  106.21  -13.01   65.83  -94.04  133.49   36.54 -117.37  157.76  -79.47 -157.43   -7.51

DOCKED: MODEL       38
DOCKED: USER    Run = 38
DOCKED: USER    DPF = D:/Protein_go_brrr/autodock/final/mut_K82N/heme_Co/dock.dpf
DOCKED: USER  
DOCKED: USER    Estimated Free Energy of Binding    =   -3.78 kcal/mol  [=(1)+(2)+(3)-(4)]
DOCKED: USER    Estimated Inhibition Constant, Ki   =    1.70 mM (millimolar)  [Temperature = 298.15 K]
DOCKED: USER    
DOCKED: USER    (1) Final Intermolecular Energy     =   -7.36 kcal/mol
DOCKED: USER        vdW + Hbond + desolv Energy     =   -7.50 kcal/mol
DOCKED: USER        Electrostatic Energy            =   +0.14 kcal/mol
DOCKED: USER    (2) Final Total Internal Energy     =   -2.30 kcal/mol
DOCKED: USER    (3) Torsional Free Energy           =   +3.58 kcal/mol
DOCKED: USER    (4) Unbound System's Energy  [=(2)] =   -2.30 kcal/mol
DOCKED: USER    
DOCKED: USER    
DOCKED: USER    NEWDPF move heme_Co_opt.pdbqt
DOCKED: USER    NEWDPF about 8.781000 34.984000 -0.736000
DOCKED: USER    NEWDPF tran0 11.847367 3.870731 16.932217
DOCKED: USER    NEWDPF quaternion0 -0.117047 0.511971 -0.451943 -0.721064
DOCKED: USER    NEWDPF axisangle0 -0.168930 0.738915 -0.652278 -87.715240
DOCKED: USER    NEWDPF quat0 -0.168930 0.738915 -0.652278 -87.715240
DOCKED: USER    NEWDPF dihe0 180.00 106.21 -13.01 65.83 -94.04 133.49 36.54 -117.37 157.76 -79.47 -157.43 -7.51 
DOCKED: USER  keepresnum = 1 
DOCKED: USER  
DOCKED: REMARK  12 active torsions:
DOCKED: REMARK  status: ('A' for Active; 'I' for Inactive)
DOCKED: REMARK    1  A    between atoms: C_6  and  C_10 
DOCKED: REMARK    2  A    between atoms: C_10  and  C_11 
DOCKED: REMARK    3  A    between atoms: C_11  and  C_12 
DOCKED: REMARK    4  A    between atoms: C_12  and  O_14 
DOCKED: REMARK    5  A    between atoms: C_17  and  C_20 
DOCKED: REMARK    6  A    between atoms: C_24  and  C_27 
DOCKED: REMARK    7  A    between atoms: C_31  and  C_34 
DOCKED: REMARK    8  A    between atoms: C_34  and  C_35 
DOCKED: REMARK    9  A    between atoms: C_35  and  C_36 
DOCKED: REMARK   10  A    between atoms: C_36  and  O_38 
DOCKED: REMARK   11  A    between atoms: FE_43  and  C_44 
DOCKED: REMARK   12  A    between atoms: C_44  and  O_45 
DOCKED: USER                              x       y       z     vdW  Elec       q    Type
DOCKED: USER                           _______ _______ _______ _____ _____    ______ ____
DOCKED: ROOT
DOCKED: ATOM      1  C   UNL d   1      11.265   5.895  17.460 -0.09 +0.00    +0.064 A 
DOCKED: ATOM      2  C   UNL d   1      13.088   2.325  20.018 -0.17 +0.01    +0.064 C 
DOCKED: ATOM      3  C   UNL d   1      12.795  -0.583  16.238 -0.30 -0.01    +0.064 A 
DOCKED: ATOM      4  C   UNL d   1      11.294   3.148  13.501 -0.15 -0.01    +0.064 A 
DOCKED: ATOM      5  C   UNL d   1      11.751   5.124  18.446 -0.11 +0.01    +0.066 A 
DOCKED: ATOM      6  C   UNL d   1      12.051   5.642  19.721 -0.09 -0.00    -0.021 A 
DOCKED: ATOM      7  C   UNL d   1      12.601   4.607  20.452 -0.12 -0.01    -0.025 A 
DOCKED: ATOM      8  C   UNL d   1      12.597   3.499  19.599 -0.16 +0.01    +0.066 A 
DOCKED: ATOM      9  C   UNL d   1      13.115   4.645  21.900 +0.01 +0.03    +0.051 C 
DOCKED: ATOM     10  C   UNL d   1      13.102   1.125  19.220 -0.17 +0.01    +0.066 A 
DOCKED: ATOM     11  C   UNL d   1      13.472  -0.169  19.649 -0.16 -0.00    -0.021 A 
DOCKED: ATOM     12  C   UNL d   1      13.374  -0.998  18.528 -0.22 +0.00    +0.000 A 
DOCKED: ATOM     13  C   UNL d   1      12.940  -0.154  17.505 -0.24 -0.00    +0.070 A 
DOCKED: ATOM     14  C   UNL d   1      13.801  -0.581  21.060 -0.12 +0.01    +0.052 C 
DOCKED: ATOM     15  C   UNL d   1      12.409   0.160  15.055 -0.27 -0.02    +0.066 A 
DOCKED: ATOM     16  C   UNL d   1      12.419  -0.310  13.749 -0.34 +0.01    -0.021 A 
DOCKED: ATOM     17  C   UNL d   1      11.989   0.763  12.955 -0.35 -0.00    +0.000 A 
DOCKED: ATOM     18  C   UNL d   1      11.734   1.801  13.845 -0.26 -0.01    +0.070 A 
DOCKED: ATOM     19  C   UNL d   1      12.821  -1.704  13.321 -0.46 -0.02    +0.052 C 
DOCKED: ATOM     20  C   UNL d   1      11.122   4.198  14.339 -0.22 -0.01    +0.066 A 
DOCKED: ATOM     21  C   UNL d   1      10.731   5.455  13.884 -0.23 +0.00    -0.025 A 
DOCKED: ATOM     22  C   UNL d   1      10.686   6.261  15.008 -0.20 +0.00    -0.021 A 
DOCKED: ATOM     23  C   UNL d   1      11.067   5.451  16.099 -0.15 -0.00    +0.066 A 
DOCKED: ATOM     24  C   UNL d   1      10.433   5.875  12.447 -0.29 -0.00    +0.051 C 
DOCKED: ATOM     25  N   UNL d   1      12.071   3.788  18.351 -0.12 -0.02    -0.248 N 
DOCKED: ATOM     26  N   UNL d   1      12.722   1.116  17.938 -0.14 +0.00    -0.248 N 
DOCKED: ATOM     27  N   UNL d   1      12.023   1.416  15.083 -0.15 +0.05    -0.248 N 
DOCKED: ATOM     28  N   UNL d   1      11.334   4.203  15.698 -0.13 +0.02    -0.248 N 
DOCKED: ATOM     29 FE   UNL d   1      12.044   2.534  16.618 -0.05 -0.00    +0.000 Fe
DOCKED: ENDROOT
DOCKED: BRANCH   6  30
DOCKED: ATOM     30  C   UNL d   1      11.889   7.088  20.177 -0.04 +0.01    +0.052 C 
DOCKED: BRANCH  30  31
DOCKED: ATOM     31  C   UNL d   1      12.965   7.973  19.548 -0.01 +0.01    +0.115 C 
DOCKED: BRANCH  31  32
DOCKED: ATOM     32  C   UNL d   1      14.198   7.190  19.152 -0.01 +0.01    +0.139 C 
DOCKED: ATOM     33  O   UNL d   1      15.130   7.099  19.936 +0.01 -0.05    -0.650 OA
DOCKED: BRANCH  32  34
DOCKED: ATOM     34  O   UNL d   1      14.285   6.540  17.967 +0.02 -0.03    -0.776 OA
DOCKED: ATOM     35  H   UNL d   1      15.077   6.079  17.657 +0.00 +0.00    +0.167 HD
DOCKED: ENDBRANCH  32  34
DOCKED: ENDBRANCH  31  32
DOCKED: ENDBRANCH  30  31
DOCKED: ENDBRANCH   6  30
DOCKED: BRANCH  29  36
DOCKED: ATOM     36  C   UNL d   1      14.017   3.156  16.276 -0.03 -0.00    +0.190 C 
DOCKED: BRANCH  36  37
DOCKED: ATOM     37  O   UNL d   1      14.932   4.172  16.572 +0.00 -0.00    -0.399 OA
DOCKED: ATOM     38  H   UNL d   1      14.400   4.863  17.057 +0.01 +0.00    +0.209 HD
DOCKED: ENDBRANCH  36  37
DOCKED: ENDBRANCH  29  36
DOCKED: BRANCH  22  39
DOCKED: ATOM     39  C   UNL d   1      10.358   7.742  15.015 -0.20 -0.00    +0.052 C 
DOCKED: BRANCH  39  40
DOCKED: ATOM     40  C   UNL d   1       8.860   7.965  15.286 -0.13 -0.01    +0.115 C 
DOCKED: BRANCH  40  41
DOCKED: ATOM     41  C   UNL d   1       8.519   8.221  16.739 -0.20 -0.02    +0.139 C 
DOCKED: ATOM     42  O   UNL d   1       9.394   8.611  17.499 +0.04 +0.04    -0.650 OA
DOCKED: BRANCH  41  43
DOCKED: ATOM     43  O   UNL d   1       7.254   8.114  17.201 +0.04 +0.25    -0.776 OA
DOCKED: ATOM     44  H   UNL d   1       6.499   7.963  16.617 -0.49 -0.11    +0.167 HD
DOCKED: ENDBRANCH  41  43
DOCKED: ENDBRANCH  40  41
DOCKED: ENDBRANCH  39  40
DOCKED: ENDBRANCH  22  39
DOCKED: BRANCH  12  45
DOCKED: ATOM     45  C   UNL d   1      13.620  -2.485  18.311 -0.23 +0.00    +0.004 C 
DOCKED: ATOM     46  C   UNL d   1      13.083  -3.547  18.905 -0.24 +0.00    +0.012 C 
DOCKED: ENDBRANCH  12  45
DOCKED: BRANCH  17  47
DOCKED: ATOM     47  C   UNL d   1      11.864   0.861  11.470 -0.32 -0.00    +0.004 C 
DOCKED: ATOM     48  C   UNL d   1      12.591   1.696  10.723 -0.26 -0.00    +0.012 C 
DOCKED: ENDBRANCH  17  47
DOCKED: TORSDOF 12
DOCKED: TER
DOCKED: ENDMDL
________________________________________________________________________________


	BEGINNING GENETIC ALGORITHM DOCKING 39 of 100
Run: 39 Seed: 278469081 625334417 [ Run 39 of 100 GA/GALS ]
Beginning LAMARCKIAN GENETIC ALGORITHM (LGA), with a maximum of 25000000 energy evaluations.

Final-Value: -10.558


	FINAL GENETIC ALGORITHM DOCKED STATE
	_______________________________________________


Detailed state:  trans -10.452 11.616 -8.032 quatxyzw -0.577691 -0.066080 0.775474 -0.246061 center 8.781 34.984 -0.736 ntor 12 98.6661 134.7537 158.8200 115.7299 136.3823 78.5300 -164.1584 -37.5699 -66.0527 112.0659 168.8247 -177.7322
State:	-10.452  11.616  -8.032  -0.596 -0.068  0.800 -151.511     98.67  134.75  158.82  115.73  136.38   78.53 -164.16  -37.57  -66.05  112.07  168.82 -177.73

DOCKED: MODEL       39
DOCKED: USER    Run = 39
DOCKED: USER    DPF = D:/Protein_go_brrr/autodock/final/mut_K82N/heme_Co/dock.dpf
DOCKED: USER  
DOCKED: USER    Estimated Free Energy of Binding    =   -4.27 kcal/mol  [=(1)+(2)+(3)-(4)]
DOCKED: USER    Estimated Inhibition Constant, Ki   =  739.02 uM (micromolar)  [Temperature = 298.15 K]
DOCKED: USER    
DOCKED: USER    (1) Final Intermolecular Energy     =   -7.85 kcal/mol
DOCKED: USER        vdW + Hbond + desolv Energy     =   -5.67 kcal/mol
DOCKED: USER        Electrostatic Energy            =   -2.18 kcal/mol
DOCKED: USER    (2) Final Total Internal Energy     =   -2.71 kcal/mol
DOCKED: USER    (3) Torsional Free Energy           =   +3.58 kcal/mol
DOCKED: USER    (4) Unbound System's Energy  [=(2)] =   -2.71 kcal/mol
DOCKED: USER    
DOCKED: USER    
DOCKED: USER    NEWDPF move heme_Co_opt.pdbqt
DOCKED: USER    NEWDPF about 8.781000 34.984000 -0.736000
DOCKED: USER    NEWDPF tran0 -10.452412 11.616454 -8.032063
DOCKED: USER    NEWDPF quaternion0 -0.577691 -0.066080 0.775474 -0.246061
DOCKED: USER    NEWDPF axisangle0 -0.596016 -0.068176 0.800073 -151.510959
DOCKED: USER    NEWDPF quat0 -0.596016 -0.068176 0.800073 -151.510959
DOCKED: USER    NEWDPF dihe0 98.67 134.75 158.82 115.73 136.38 78.53 -164.16 -37.57 -66.05 112.07 168.82 -177.73 
DOCKED: USER  keepresnum = 1 
DOCKED: USER  
DOCKED: REMARK  12 active torsions:
DOCKED: REMARK  status: ('A' for Active; 'I' for Inactive)
DOCKED: REMARK    1  A    between atoms: C_6  and  C_10 
DOCKED: REMARK    2  A    between atoms: C_10  and  C_11 
DOCKED: REMARK    3  A    between atoms: C_11  and  C_12 
DOCKED: REMARK    4  A    between atoms: C_12  and  O_14 
DOCKED: REMARK    5  A    between atoms: C_17  and  C_20 
DOCKED: REMARK    6  A    between atoms: C_24  and  C_27 
DOCKED: REMARK    7  A    between atoms: C_31  and  C_34 
DOCKED: REMARK    8  A    between atoms: C_34  and  C_35 
DOCKED: REMARK    9  A    between atoms: C_35  and  C_36 
DOCKED: REMARK   10  A    between atoms: C_36  and  O_38 
DOCKED: REMARK   11  A    between atoms: FE_43  and  C_44 
DOCKED: REMARK   12  A    between atoms: C_44  and  O_45 
DOCKED: USER                              x       y       z     vdW  Elec       q    Type
DOCKED: USER                           _______ _______ _______ _____ _____    ______ ____
DOCKED: ROOT
DOCKED: ATOM      1  C   UNL d   1      -9.406  10.142  -6.830 -0.19 +0.02    +0.064 A 
DOCKED: ATOM      2  C   UNL d   1     -12.328  13.712  -5.678 -0.16 +0.03    +0.064 C 
DOCKED: ATOM      3  C   UNL d   1     -12.475  15.113 -10.244 -0.08 +0.03    +0.064 A 
DOCKED: ATOM      4  C   UNL d   1      -9.804  11.248 -11.503 -0.01 +0.02    +0.064 A 
DOCKED: ATOM      5  C   UNL d   1     -10.165  11.036  -6.174 -0.23 +0.02    +0.066 A 
DOCKED: ATOM      6  C   UNL d   1     -10.431  10.922  -4.796 -0.32 -0.01    -0.021 A 
DOCKED: ATOM      7  C   UNL d   1     -11.298  11.947  -4.472 -0.25 -0.01    -0.025 A 
DOCKED: ATOM      8  C   UNL d   1     -11.510  12.652  -5.661 -0.19 +0.02    +0.066 A 
DOCKED: ATOM      9  C   UNL d   1     -11.912  12.264  -3.099 -0.26 +0.01    +0.051 C 
DOCKED: ATOM     10  C   UNL d   1     -12.587  14.513  -6.848 -0.11 +0.04    +0.066 A 
DOCKED: ATOM     11  C   UNL d   1     -13.323  15.717  -6.900 -0.07 -0.01    -0.021 A 
DOCKED: ATOM     12  C   UNL d   1     -13.346  16.106  -8.243 -0.09 +0.00    +0.000 A 
DOCKED: ATOM     13  C   UNL d   1     -12.615  15.121  -8.906 -0.11 +0.05    +0.070 A 
DOCKED: ATOM     14  C   UNL d   1     -13.874  16.478  -5.722 -0.08 +0.03    +0.052 C 
DOCKED: ATOM     15  C   UNL d   1     -11.802  14.150 -11.093 -0.08 +0.02    +0.066 A 
DOCKED: ATOM     16  C   UNL d   1     -11.819  14.124 -12.480 -0.05 -0.00    -0.021 A 
DOCKED: ATOM     17  C   UNL d   1     -11.052  13.009 -12.848 -0.06 +0.00    +0.000 A 
DOCKED: ATOM     18  C   UNL d   1     -10.612  12.452 -11.652 -0.07 +0.02    +0.070 A 
DOCKED: ATOM     19  C   UNL d   1     -12.535  15.117 -13.368 -0.02 +0.01    +0.052 C 
DOCKED: ATOM     20  C   UNL d   1      -9.437  10.639 -10.350 -0.10 +0.02    +0.066 A 
DOCKED: ATOM     21  C   UNL d   1      -8.688   9.464 -10.335 -0.13 -0.00    -0.025 A 
DOCKED: ATOM     22  C   UNL d   1      -8.533   9.137  -9.000 -0.19 -0.00    -0.021 A 
DOCKED: ATOM     23  C   UNL d   1      -9.211  10.130  -8.261 -0.17 +0.01    +0.066 A 
DOCKED: ATOM     24  C   UNL d   1      -8.163   8.680 -11.534 -0.13 +0.00    +0.051 C 
DOCKED: ATOM     25  N   UNL d   1     -10.816  12.113  -6.731 -0.13 -0.08    -0.248 N 
DOCKED: ATOM     26  N   UNL d   1     -12.109  14.189  -8.055 -0.10 -0.16    -0.248 N 
DOCKED: ATOM     27  N   UNL d   1     -11.103  13.140 -10.627 -0.07 -0.08    -0.248 N 
DOCKED: ATOM     28  N   UNL d   1      -9.761  11.040  -9.075 -0.11 -0.07    -0.248 N 
DOCKED: ATOM     29 FE   UNL d   1     -10.966  12.654  -8.796 -0.03 +0.00    +0.000 Fe
DOCKED: ENDROOT
DOCKED: BRANCH   6  30
DOCKED: ATOM     30  C   UNL d   1      -9.934   9.824  -3.861 -0.46 +0.01    +0.052 C 
DOCKED: BRANCH  30  31
DOCKED: ATOM     31  C   UNL d   1     -11.075   8.876  -3.492 -0.31 +0.04    +0.115 C 
DOCKED: BRANCH  31  32
DOCKED: ATOM     32  C   UNL d   1     -10.889   7.494  -4.080 -0.27 +0.09    +0.139 C 
DOCKED: ATOM     33  O   UNL d   1      -9.962   6.797  -3.696 +0.15 -0.47    -0.650 OA
DOCKED: BRANCH  32  34
DOCKED: ATOM     34  O   UNL d   1     -11.750   6.980  -4.990 -0.10 -0.84    -0.776 OA
DOCKED: ATOM     35  H   UNL d   1     -11.623   7.030  -5.947 +0.03 +0.19    +0.167 HD
DOCKED: ENDBRANCH  32  34
DOCKED: ENDBRANCH  31  32
DOCKED: ENDBRANCH  30  31
DOCKED: ENDBRANCH   6  30
DOCKED: BRANCH  29  36
DOCKED: ATOM     36  C   UNL d   1     -12.665  11.430  -8.877 -0.01 +0.04    +0.190 C 
DOCKED: BRANCH  36  37
DOCKED: ATOM     37  O   UNL d   1     -13.074  10.093  -8.928 +0.01 -0.08    -0.399 OA
DOCKED: ATOM     38  H   UNL d   1     -12.301   9.574  -8.569 +0.02 +0.05    +0.209 HD
DOCKED: ENDBRANCH  36  37
DOCKED: ENDBRANCH  29  36
DOCKED: BRANCH  22  39
DOCKED: ATOM     39  C   UNL d   1      -7.828   7.902  -8.474 -0.25 +0.01    +0.052 C 
DOCKED: BRANCH  39  40
DOCKED: ATOM     40  C   UNL d   1      -8.716   6.657  -8.640 -0.17 +0.04    +0.115 C 
DOCKED: BRANCH  40  41
DOCKED: ATOM     41  C   UNL d   1      -9.878   6.585  -7.672 -0.16 +0.11    +0.139 C 
DOCKED: ATOM     42  O   UNL d   1     -10.995   6.908  -8.053 +0.00 -0.47    -0.650 OA
DOCKED: BRANCH  41  43
DOCKED: ATOM     43  O   UNL d   1      -9.733   6.091  -6.423 -0.41 -1.14    -0.776 OA
DOCKED: ATOM     44  H   UNL d   1     -10.394   6.225  -5.731 +0.03 +0.30    +0.167 HD
DOCKED: ENDBRANCH  41  43
DOCKED: ENDBRANCH  40  41
DOCKED: ENDBRANCH  39  40
DOCKED: ENDBRANCH  22  39
DOCKED: BRANCH  12  45
DOCKED: ATOM     45  C   UNL d   1     -13.956  17.299  -8.968 -0.06 +0.00    +0.004 C 
DOCKED: ATOM     46  C   UNL d   1     -13.381  18.369  -9.510 -0.06 +0.01    +0.012 C 
DOCKED: ENDBRANCH  12  45
DOCKED: BRANCH  17  47
DOCKED: ATOM     47  C   UNL d   1     -10.773  12.448 -14.204 -0.03 +0.00    +0.004 C 
DOCKED: ATOM     48  C   UNL d   1      -9.556  12.420 -14.754 -0.05 +0.00    +0.012 C 
DOCKED: ENDBRANCH  17  47
DOCKED: TORSDOF 12
DOCKED: TER
DOCKED: ENDMDL
________________________________________________________________________________


	BEGINNING GENETIC ALGORITHM DOCKING 40 of 100
Run: 40 Seed: 228298 1274748910 [ Run 40 of 100 GA/GALS ]
Beginning LAMARCKIAN GENETIC ALGORITHM (LGA), with a maximum of 25000000 energy evaluations.

Final-Value: -10.294


	FINAL GENETIC ALGORITHM DOCKED STATE
	_______________________________________________


Detailed state:  trans -11.644 13.646 -6.512 quatxyzw 0.138443 0.326632 -0.814275 0.459458 center 8.781 34.984 -0.736 ntor 12 9.7958 88.4932 -155.6588 108.7656 -89.6196 91.1017 163.9037 119.2178 67.5084 149.3021 -169.7992 169.1361
State:	-11.644  13.646  -6.512   0.156  0.368 -0.917 125.296      9.80   88.49 -155.66  108.77  -89.62   91.10  163.90  119.22   67.51  149.30 -169.80  169.14

DOCKED: MODEL       40
DOCKED: USER    Run = 40
DOCKED: USER    DPF = D:/Protein_go_brrr/autodock/final/mut_K82N/heme_Co/dock.dpf
DOCKED: USER  
DOCKED: USER    Estimated Free Energy of Binding    =   -4.57 kcal/mol  [=(1)+(2)+(3)-(4)]
DOCKED: USER    Estimated Inhibition Constant, Ki   =  450.22 uM (micromolar)  [Temperature = 298.15 K]
DOCKED: USER    
DOCKED: USER    (1) Final Intermolecular Energy     =   -8.15 kcal/mol
DOCKED: USER        vdW + Hbond + desolv Energy     =   -6.20 kcal/mol
DOCKED: USER        Electrostatic Energy            =   -1.94 kcal/mol
DOCKED: USER    (2) Final Total Internal Energy     =   -2.15 kcal/mol
DOCKED: USER    (3) Torsional Free Energy           =   +3.58 kcal/mol
DOCKED: USER    (4) Unbound System's Energy  [=(2)] =   -2.15 kcal/mol
DOCKED: USER    
DOCKED: USER    
DOCKED: USER    NEWDPF move heme_Co_opt.pdbqt
DOCKED: USER    NEWDPF about 8.781000 34.984000 -0.736000
DOCKED: USER    NEWDPF tran0 -11.643580 13.646046 -6.511787
DOCKED: USER    NEWDPF quaternion0 0.138443 0.326632 -0.814275 0.459458
DOCKED: USER    NEWDPF axisangle0 0.155869 0.367746 -0.916770 125.295753
DOCKED: USER    NEWDPF quat0 0.155869 0.367746 -0.916770 125.295753
DOCKED: USER    NEWDPF dihe0 9.80 88.49 -155.66 108.77 -89.62 91.10 163.90 119.22 67.51 149.30 -169.80 169.14 
DOCKED: USER  keepresnum = 1 
DOCKED: USER  
DOCKED: REMARK  12 active torsions:
DOCKED: REMARK  status: ('A' for Active; 'I' for Inactive)
DOCKED: REMARK    1  A    between atoms: C_6  and  C_10 
DOCKED: REMARK    2  A    between atoms: C_10  and  C_11 
DOCKED: REMARK    3  A    between atoms: C_11  and  C_12 
DOCKED: REMARK    4  A    between atoms: C_12  and  O_14 
DOCKED: REMARK    5  A    between atoms: C_17  and  C_20 
DOCKED: REMARK    6  A    between atoms: C_24  and  C_27 
DOCKED: REMARK    7  A    between atoms: C_31  and  C_34 
DOCKED: REMARK    8  A    between atoms: C_34  and  C_35 
DOCKED: REMARK    9  A    between atoms: C_35  and  C_36 
DOCKED: REMARK   10  A    between atoms: C_36  and  O_38 
DOCKED: REMARK   11  A    between atoms: FE_43  and  C_44 
DOCKED: REMARK   12  A    between atoms: C_44  and  O_45 
DOCKED: USER                              x       y       z     vdW  Elec       q    Type
DOCKED: USER                           _______ _______ _______ _____ _____    ______ ____
DOCKED: ROOT
DOCKED: ATOM      1  C   UNL d   1     -10.481  12.185  -7.621 -0.22 +0.02    +0.064 A 
DOCKED: ATOM      2  C   UNL d   1     -11.374  12.699  -2.979 -0.32 +0.02    +0.064 C 
DOCKED: ATOM      3  C   UNL d   1     -13.681  16.794  -3.837 -0.09 +0.02    +0.064 A 
DOCKED: ATOM      4  C   UNL d   1     -13.117  16.095  -8.618 -0.08 +0.05    +0.064 A 
DOCKED: ATOM      5  C   UNL d   1     -10.524  12.044  -6.286 -0.24 +0.02    +0.066 A 
DOCKED: ATOM      6  C   UNL d   1     -10.006  10.905  -5.639 -0.31 -0.01    -0.021 A 
DOCKED: ATOM      7  C   UNL d   1     -10.288  11.049  -4.294 -0.39 -0.01    -0.025 A 
DOCKED: ATOM      8  C   UNL d   1     -10.951  12.275  -4.177 -0.27 +0.02    +0.066 A 
DOCKED: ATOM      9  C   UNL d   1      -9.953  10.077  -3.152 -0.47 +0.01    +0.051 C 
DOCKED: ATOM     10  C   UNL d   1     -12.041  13.958  -2.757 -0.22 +0.02    +0.066 A 
DOCKED: ATOM     11  C   UNL d   1     -12.383  14.523  -1.510 -0.26 -0.00    -0.021 A 
DOCKED: ATOM     12  C   UNL d   1     -13.051  15.718  -1.789 -0.18 +0.00    +0.000 A 
DOCKED: ATOM     13  C   UNL d   1     -13.056  15.800  -3.182 -0.13 +0.02    +0.070 A 
DOCKED: ATOM     14  C   UNL d   1     -12.003  13.987  -0.153 -0.29 +0.01    +0.052 C 
DOCKED: ATOM     15  C   UNL d   1     -13.829  17.005  -5.264 -0.06 +0.03    +0.066 A 
DOCKED: ATOM     16  C   UNL d   1     -14.611  17.974  -5.876 -0.04 -0.01    -0.021 A 
DOCKED: ATOM     17  C   UNL d   1     -14.454  17.775  -7.255 -0.05 +0.00    +0.000 A 
DOCKED: ATOM     18  C   UNL d   1     -13.571  16.706  -7.376 -0.05 +0.05    +0.070 A 
DOCKED: ATOM     19  C   UNL d   1     -15.447  19.009  -5.157 -0.01 +0.01    +0.052 C 
DOCKED: ATOM     20  C   UNL d   1     -12.328  15.003  -8.759 -0.12 +0.05    +0.066 A 
DOCKED: ATOM     21  C   UNL d   1     -11.989  14.487 -10.008 -0.13 -0.01    -0.025 A 
DOCKED: ATOM     22  C   UNL d   1     -11.205  13.376  -9.752 -0.15 -0.01    -0.021 A 
DOCKED: ATOM     23  C   UNL d   1     -11.115  13.262  -8.349 -0.21 +0.03    +0.066 A 
DOCKED: ATOM     24  C   UNL d   1     -12.406  15.014 -11.378 -0.06 +0.01    +0.051 C 
DOCKED: ATOM     25  N   UNL d   1     -11.106  12.916  -5.395 -0.15 -0.10    -0.248 N 
DOCKED: ATOM     26  N   UNL d   1     -12.395  14.764  -3.764 -0.06 -0.10    -0.248 N 
DOCKED: ATOM     27  N   UNL d   1     -13.244  16.254  -6.170 -0.03 -0.19    -0.248 N 
DOCKED: ATOM     28  N   UNL d   1     -11.795  14.243  -7.744 -0.12 -0.18    -0.248 N 
DOCKED: ATOM     29 FE   UNL d   1     -12.237  14.684  -5.809 -0.05 +0.00    +0.000 Fe
DOCKED: ENDROOT
DOCKED: BRANCH   6  30
DOCKED: ATOM     30  C   UNL d   1      -9.345   9.702  -6.303 -0.30 +0.02    +0.052 C 
DOCKED: BRANCH  30  31
DOCKED: ATOM     31  C   UNL d   1     -10.399   8.687  -6.746 -0.16 +0.05    +0.115 C 
DOCKED: BRANCH  31  32
DOCKED: ATOM     32  C   UNL d   1     -10.297   7.381  -5.987 -0.04 +0.12    +0.139 C 
DOCKED: ATOM     33  O   UNL d   1      -9.954   7.393  -4.814 -0.50 -0.56    -0.650 OA
DOCKED: BRANCH  32  34
DOCKED: ATOM     34  O   UNL d   1     -10.620   6.195  -6.554 -0.09 -1.41    -0.776 OA
DOCKED: ATOM     35  H   UNL d   1     -10.857   6.084  -7.485 +0.02 +0.23    +0.167 HD
DOCKED: ENDBRANCH  32  34
DOCKED: ENDBRANCH  31  32
DOCKED: ENDBRANCH  30  31
DOCKED: ENDBRANCH   6  30
DOCKED: BRANCH  29  36
DOCKED: ATOM     36  C   UNL d   1     -13.928  13.447  -5.889 -0.04 +0.05    +0.190 C 
DOCKED: BRANCH  36  37
DOCKED: ATOM     37  O   UNL d   1     -14.501  12.388  -6.601 +0.00 -0.08    -0.399 OA
DOCKED: ATOM     38  H   UNL d   1     -14.091  12.438  -7.509 +0.02 +0.05    +0.209 HD
DOCKED: ENDBRANCH  36  37
DOCKED: ENDBRANCH  29  36
DOCKED: BRANCH  22  39
DOCKED: ATOM     39  C   UNL d   1     -10.633  12.443 -10.803 -0.09 +0.02    +0.052 C 
DOCKED: BRANCH  39  40
DOCKED: ATOM     40  C   UNL d   1     -11.618  11.303 -11.111 -0.04 +0.02    +0.115 C 
DOCKED: BRANCH  40  41
DOCKED: ATOM     41  C   UNL d   1     -12.396  10.807  -9.910 -0.01 +0.03    +0.139 C 
DOCKED: ATOM     42  O   UNL d   1     -12.067   9.758  -9.376 +0.03 -0.14    -0.650 OA
DOCKED: BRANCH  41  43
DOCKED: ATOM     43  O   UNL d   1     -13.390  11.537  -9.357 +0.03 -0.15    -0.776 OA
DOCKED: ATOM     44  H   UNL d   1     -13.601  11.497  -8.415 +0.01 +0.03    +0.167 HD
DOCKED: ENDBRANCH  41  43
DOCKED: ENDBRANCH  40  41
DOCKED: ENDBRANCH  39  40
DOCKED: ENDBRANCH  22  39
DOCKED: BRANCH  12  45
DOCKED: ATOM     45  C   UNL d   1     -13.666  16.796  -0.906 -0.12 +0.00    +0.004 C 
DOCKED: ATOM     46  C   UNL d   1     -13.198  17.986  -0.540 -0.13 +0.00    +0.012 C 
DOCKED: ENDBRANCH  12  45
DOCKED: BRANCH  17  47
DOCKED: ATOM     47  C   UNL d   1     -15.104  18.478  -8.401 -0.02 +0.00    +0.004 C 
DOCKED: ATOM     48  C   UNL d   1     -15.995  17.900  -9.211 -0.00 +0.00    +0.012 C 
DOCKED: ENDBRANCH  17  47
DOCKED: TORSDOF 12
DOCKED: TER
DOCKED: ENDMDL
________________________________________________________________________________


	BEGINNING GENETIC ALGORITHM DOCKING 41 of 100
Run: 41 Seed: 1554462370 2096630262 [ Run 41 of 100 GA/GALS ]
Beginning LAMARCKIAN GENETIC ALGORITHM (LGA), with a maximum of 25000000 energy evaluations.

Final-Value: -10.799


	FINAL GENETIC ALGORITHM DOCKED STATE
	_______________________________________________


Detailed state:  trans -12.487 9.848 -1.111 quatxyzw -0.315288 -0.396136 0.609820 -0.609746 center 8.781 34.984 -0.736 ntor 12 150.4084 108.6950 -63.4273 116.2879 -75.2758 120.0594 -116.6573 174.2612 -81.5675 37.7950 -180.0000 178.2668
State:	-12.487   9.848  -1.111  -0.398 -0.500  0.769 -104.858    150.41  108.69  -63.43  116.29  -75.28  120.06 -116.66  174.26  -81.57   37.80 -180.00  178.27

DOCKED: MODEL       41
DOCKED: USER    Run = 41
DOCKED: USER    DPF = D:/Protein_go_brrr/autodock/final/mut_K82N/heme_Co/dock.dpf
DOCKED: USER  
DOCKED: USER    Estimated Free Energy of Binding    =   -4.90 kcal/mol  [=(1)+(2)+(3)-(4)]
DOCKED: USER    Estimated Inhibition Constant, Ki   =  257.24 uM (micromolar)  [Temperature = 298.15 K]
DOCKED: USER    
DOCKED: USER    (1) Final Intermolecular Energy     =   -8.48 kcal/mol
DOCKED: USER        vdW + Hbond + desolv Energy     =   -5.93 kcal/mol
DOCKED: USER        Electrostatic Energy            =   -2.55 kcal/mol
DOCKED: USER    (2) Final Total Internal Energy     =   -2.32 kcal/mol
DOCKED: USER    (3) Torsional Free Energy           =   +3.58 kcal/mol
DOCKED: USER    (4) Unbound System's Energy  [=(2)] =   -2.32 kcal/mol
DOCKED: USER    
DOCKED: USER    
DOCKED: USER    NEWDPF move heme_Co_opt.pdbqt
DOCKED: USER    NEWDPF about 8.781000 34.984000 -0.736000
DOCKED: USER    NEWDPF tran0 -12.486733 9.848402 -1.110717
DOCKED: USER    NEWDPF quaternion0 -0.315288 -0.396136 0.609820 -0.609746
DOCKED: USER    NEWDPF axisangle0 -0.397791 -0.499795 0.769394 -104.857738
DOCKED: USER    NEWDPF quat0 -0.397791 -0.499795 0.769394 -104.857738
DOCKED: USER    NEWDPF dihe0 150.41 108.69 -63.43 116.29 -75.28 120.06 -116.66 174.26 -81.57 37.80 -180.00 178.27 
DOCKED: USER  keepresnum = 1 
DOCKED: USER  
DOCKED: REMARK  12 active torsions:
DOCKED: REMARK  status: ('A' for Active; 'I' for Inactive)
DOCKED: REMARK    1  A    between atoms: C_6  and  C_10 
DOCKED: REMARK    2  A    between atoms: C_10  and  C_11 
DOCKED: REMARK    3  A    between atoms: C_11  and  C_12 
DOCKED: REMARK    4  A    between atoms: C_12  and  O_14 
DOCKED: REMARK    5  A    between atoms: C_17  and  C_20 
DOCKED: REMARK    6  A    between atoms: C_24  and  C_27 
DOCKED: REMARK    7  A    between atoms: C_31  and  C_34 
DOCKED: REMARK    8  A    between atoms: C_34  and  C_35 
DOCKED: REMARK    9  A    between atoms: C_35  and  C_36 
DOCKED: REMARK   10  A    between atoms: C_36  and  O_38 
DOCKED: REMARK   11  A    between atoms: FE_43  and  C_44 
DOCKED: REMARK   12  A    between atoms: C_44  and  O_45 
DOCKED: USER                              x       y       z     vdW  Elec       q    Type
DOCKED: USER                           _______ _______ _______ _____ _____    ______ ____
DOCKED: ROOT
DOCKED: ATOM      1  C   UNL d   1     -11.884   8.039  -2.149 -0.27 +0.02    +0.064 A 
DOCKED: ATOM      2  C   UNL d   1     -13.884   8.768   2.104 -0.15 +0.02    +0.064 C 
DOCKED: ATOM      3  C   UNL d   1     -13.498  13.494   1.516 -0.09 +0.01    +0.064 A 
DOCKED: ATOM      4  C   UNL d   1     -11.810  12.783  -2.990 -0.24 +0.02    +0.064 A 
DOCKED: ATOM      5  C   UNL d   1     -12.426   7.890  -0.928 -0.22 +0.01    +0.066 A 
DOCKED: ATOM      6  C   UNL d   1     -12.767   6.625  -0.411 -0.25 -0.00    -0.021 A 
DOCKED: ATOM      7  C   UNL d   1     -13.367   6.844   0.813 -0.19 -0.00    -0.025 A 
DOCKED: ATOM      8  C   UNL d   1     -13.352   8.231   0.998 -0.17 +0.01    +0.066 A 
DOCKED: ATOM      9  C   UNL d   1     -13.939   5.799   1.783 -0.16 +0.01    +0.051 C 
DOCKED: ATOM     10  C   UNL d   1     -13.890  10.181   2.392 -0.09 +0.01    +0.066 A 
DOCKED: ATOM     11  C   UNL d   1     -14.305  10.794   3.594 -0.06 -0.00    -0.021 A 
DOCKED: ATOM     12  C   UNL d   1     -14.178  12.172   3.397 -0.04 +0.00    +0.000 A 
DOCKED: ATOM     13  C   UNL d   1     -13.685  12.296   2.098 -0.07 +0.01    +0.070 A 
DOCKED: ATOM     14  C   UNL d   1     -14.700  10.088   4.866 -0.08 +0.02    +0.052 C 
DOCKED: ATOM     15  C   UNL d   1     -13.049  13.804   0.173 -0.14 +0.01    +0.066 A 
DOCKED: ATOM     16  C   UNL d   1     -13.015  15.061  -0.414 -0.18 -0.00    -0.021 A 
DOCKED: ATOM     17  C   UNL d   1     -12.532  14.861  -1.715 -0.25 +0.00    +0.000 A 
DOCKED: ATOM     18  C   UNL d   1     -12.291  13.495  -1.813 -0.22 +0.01    +0.070 A 
DOCKED: ATOM     19  C   UNL d   1     -13.430  16.353   0.255 -0.13 +0.01    +0.052 C 
DOCKED: ATOM     20  C   UNL d   1     -11.650  11.446  -3.137 -0.23 +0.01    +0.066 A 
DOCKED: ATOM     21  C   UNL d   1     -11.214  10.876  -4.331 -0.23 -0.01    -0.025 A 
DOCKED: ATOM     22  C   UNL d   1     -11.198   9.511  -4.109 -0.24 -0.01    -0.021 A 
DOCKED: ATOM     23  C   UNL d   1     -11.640   9.314  -2.784 -0.23 +0.02    +0.066 A 
DOCKED: ATOM     24  C   UNL d   1     -10.850  11.594  -5.628 -0.26 +0.01    +0.051 C 
DOCKED: ATOM     25  N   UNL d   1     -12.769   8.904  -0.063 -0.10 -0.04    -0.248 N 
DOCKED: ATOM     26  N   UNL d   1     -13.459  11.090   1.512 -0.05 -0.04    -0.248 N 
DOCKED: ATOM     27  N   UNL d   1     -12.639  12.893  -0.681 -0.00 -0.04    -0.248 N 
DOCKED: ATOM     28  N   UNL d   1     -11.917  10.482  -2.193 +0.14 -0.05    -0.248 N 
DOCKED: ATOM     29 FE   UNL d   1     -12.698  11.016  -0.393 -0.05 +0.00    +0.000 Fe
DOCKED: ENDROOT
DOCKED: BRANCH   6  30
DOCKED: ATOM     30  C   UNL d   1     -12.593   5.280  -1.108 -0.10 +0.02    +0.052 C 
DOCKED: BRANCH  30  31
DOCKED: ATOM     31  C   UNL d   1     -13.889   4.863  -1.802 -0.14 +0.04    +0.115 C 
DOCKED: BRANCH  31  32
DOCKED: ATOM     32  C   UNL d   1     -13.900   5.225  -3.272 -0.11 +0.10    +0.139 C 
DOCKED: ATOM     33  O   UNL d   1     -13.903   4.335  -4.109 -0.12 -0.72    -0.650 OA
DOCKED: BRANCH  32  34
DOCKED: ATOM     34  O   UNL d   1     -13.954   6.509  -3.695 -0.00 -0.43    -0.776 OA
DOCKED: ATOM     35  H   UNL d   1     -13.521   6.837  -4.495 +0.02 +0.12    +0.167 HD
DOCKED: ENDBRANCH  32  34
DOCKED: ENDBRANCH  31  32
DOCKED: ENDBRANCH  30  31
DOCKED: ENDBRANCH   6  30
DOCKED: BRANCH  29  36
DOCKED: ATOM     36  C   UNL d   1     -14.642  10.848  -1.161 -0.04 +0.02    +0.190 C 
DOCKED: BRANCH  36  37
DOCKED: ATOM     37  O   UNL d   1     -15.483   9.999  -1.887 -0.00 -0.05    -0.399 OA
DOCKED: ATOM     38  H   UNL d   1     -14.902   9.235  -2.161 +0.02 +0.03    +0.209 HD
DOCKED: ENDBRANCH  36  37
DOCKED: ENDBRANCH  29  36
DOCKED: BRANCH  22  39
DOCKED: ATOM     39  C   UNL d   1     -10.840   8.456  -5.139 -0.25 +0.03    +0.052 C 
DOCKED: BRANCH  39  40
DOCKED: ATOM     40  C   UNL d   1     -12.033   8.176  -6.067 -0.10 +0.06    +0.115 C 
DOCKED: BRANCH  40  41
DOCKED: ATOM     41  C   UNL d   1     -12.114   6.749  -6.567 -0.06 +0.17    +0.139 C 
DOCKED: ATOM     42  O   UNL d   1     -11.111   6.216  -7.021 -0.07 -1.06    -0.650 OA
DOCKED: BRANCH  41  43
DOCKED: ATOM     43  O   UNL d   1     -13.244   6.016  -6.446 -0.41 -1.12    -0.776 OA
DOCKED: ATOM     44  H   UNL d   1     -13.667   5.852  -5.594 +0.01 +0.23    +0.167 HD
DOCKED: ENDBRANCH  41  43
DOCKED: ENDBRANCH  40  41
DOCKED: ENDBRANCH  39  40
DOCKED: ENDBRANCH  22  39
DOCKED: BRANCH  12  45
DOCKED: ATOM     45  C   UNL d   1     -14.447  13.378   4.287 -0.02 +0.00    +0.004 C 
DOCKED: ATOM     46  C   UNL d   1     -13.605  14.214   4.889 -0.03 +0.00    +0.012 C 
DOCKED: ENDBRANCH  12  45
DOCKED: BRANCH  17  47
DOCKED: ATOM     47  C   UNL d   1     -12.344  15.843  -2.825 -0.12 +0.00    +0.004 C 
DOCKED: ATOM     48  C   UNL d   1     -13.236  16.031  -3.801 -0.15 +0.00    +0.012 C 
DOCKED: ENDBRANCH  17  47
DOCKED: TORSDOF 12
DOCKED: TER
DOCKED: ENDMDL
________________________________________________________________________________


	BEGINNING GENETIC ALGORITHM DOCKING 42 of 100
Run: 42 Seed: 1220415246 892516294 [ Run 42 of 100 GA/GALS ]
Beginning LAMARCKIAN GENETIC ALGORITHM (LGA), with a maximum of 25000000 energy evaluations.

Final-Value: -9.781


	FINAL GENETIC ALGORITHM DOCKED STATE
	_______________________________________________


Detailed state:  trans 11.785 -13.507 3.324 quatxyzw -0.664794 -0.730468 0.149484 0.046033 center 8.781 34.984 -0.736 ntor 12 -159.1593 114.9408 151.4375 -4.4974 134.9986 126.6632 53.5219 156.6061 158.8246 156.9365 -152.9242 8.7835
State:	 11.785 -13.507   3.324  -0.665 -0.731  0.150 174.723   -159.16  114.94  151.44   -4.50  135.00  126.66   53.52  156.61  158.82  156.94 -152.92    8.78

DOCKED: MODEL       42
DOCKED: USER    Run = 42
DOCKED: USER    DPF = D:/Protein_go_brrr/autodock/final/mut_K82N/heme_Co/dock.dpf
DOCKED: USER  
DOCKED: USER    Estimated Free Energy of Binding    =   -3.88 kcal/mol  [=(1)+(2)+(3)-(4)]
DOCKED: USER    Estimated Inhibition Constant, Ki   =    1.44 mM (millimolar)  [Temperature = 298.15 K]
DOCKED: USER    
DOCKED: USER    (1) Final Intermolecular Energy     =   -7.46 kcal/mol
DOCKED: USER        vdW + Hbond + desolv Energy     =   -6.81 kcal/mol
DOCKED: USER        Electrostatic Energy            =   -0.65 kcal/mol
DOCKED: USER    (2) Final Total Internal Energy     =   -2.33 kcal/mol
DOCKED: USER    (3) Torsional Free Energy           =   +3.58 kcal/mol
DOCKED: USER    (4) Unbound System's Energy  [=(2)] =   -2.33 kcal/mol
DOCKED: USER    
DOCKED: USER    
DOCKED: USER    NEWDPF move heme_Co_opt.pdbqt
DOCKED: USER    NEWDPF about 8.781000 34.984000 -0.736000
DOCKED: USER    NEWDPF tran0 11.784843 -13.507229 3.324181
DOCKED: USER    NEWDPF quaternion0 -0.664794 -0.730468 0.149484 0.046033
DOCKED: USER    NEWDPF axisangle0 -0.665500 -0.731244 0.149643 174.723160
DOCKED: USER    NEWDPF quat0 -0.665500 -0.731244 0.149643 174.723160
DOCKED: USER    NEWDPF dihe0 -159.16 114.94 151.44 -4.50 135.00 126.66 53.52 156.61 158.82 156.94 -152.92 8.78 
DOCKED: USER  keepresnum = 1 
DOCKED: USER  
DOCKED: REMARK  12 active torsions:
DOCKED: REMARK  status: ('A' for Active; 'I' for Inactive)
DOCKED: REMARK    1  A    between atoms: C_6  and  C_10 
DOCKED: REMARK    2  A    between atoms: C_10  and  C_11 
DOCKED: REMARK    3  A    between atoms: C_11  and  C_12 
DOCKED: REMARK    4  A    between atoms: C_12  and  O_14 
DOCKED: REMARK    5  A    between atoms: C_17  and  C_20 
DOCKED: REMARK    6  A    between atoms: C_24  and  C_27 
DOCKED: REMARK    7  A    between atoms: C_31  and  C_34 
DOCKED: REMARK    8  A    between atoms: C_34  and  C_35 
DOCKED: REMARK    9  A    between atoms: C_35  and  C_36 
DOCKED: REMARK   10  A    between atoms: C_36  and  O_38 
DOCKED: REMARK   11  A    between atoms: FE_43  and  C_44 
DOCKED: REMARK   12  A    between atoms: C_44  and  O_45 
DOCKED: USER                              x       y       z     vdW  Elec       q    Type
DOCKED: USER                           _______ _______ _______ _____ _____    ______ ____
DOCKED: ROOT
DOCKED: ATOM      1  C   UNL d   1      12.605 -15.087   4.569 -0.07 +0.03    +0.064 A 
DOCKED: ATOM      2  C   UNL d   1       9.353 -15.115   1.100 -0.25 +0.01    +0.064 C 
DOCKED: ATOM      3  C   UNL d   1       9.561 -10.351   0.813 -0.23 +0.01    +0.064 A 
DOCKED: ATOM      4  C   UNL d   1      13.163 -10.325   4.083 -0.13 +0.01    +0.064 A 
DOCKED: ATOM      5  C   UNL d   1      11.674 -15.442   3.667 -0.09 +0.03    +0.066 A 
DOCKED: ATOM      6  C   UNL d   1      11.371 -16.791   3.398 -0.09 -0.01    -0.021 A 
DOCKED: ATOM      7  C   UNL d   1      10.443 -16.794   2.375 -0.14 -0.01    -0.025 A 
DOCKED: ATOM      8  C   UNL d   1      10.208 -15.447   2.075 -0.18 +0.02    +0.066 A 
DOCKED: ATOM      9  C   UNL d   1       9.794 -18.009   1.695 -0.16 +0.01    +0.051 C 
DOCKED: ATOM     10  C   UNL d   1       9.028 -13.758   0.738 -0.22 +0.01    +0.066 A 
DOCKED: ATOM     11  C   UNL d   1       8.036 -13.343  -0.177 -0.28 -0.00    -0.021 A 
DOCKED: ATOM     12  C   UNL d   1       8.117 -11.949  -0.238 -0.31 +0.00    +0.000 A 
DOCKED: ATOM     13  C   UNL d   1       9.139 -11.617   0.651 -0.23 +0.01    +0.070 A 
DOCKED: ATOM     14  C   UNL d   1       7.028 -14.229  -0.862 -0.31 +0.01    +0.052 C 
DOCKED: ATOM     15  C   UNL d   1      10.633  -9.838   1.645 -0.20 +0.01    +0.066 A 
DOCKED: ATOM     16  C   UNL d   1      11.114  -8.536   1.657 -0.30 -0.00    -0.021 A 
DOCKED: ATOM     17  C   UNL d   1      12.154  -8.524   2.597 -0.23 +0.00    +0.000 A 
DOCKED: ATOM     18  C   UNL d   1      12.214  -9.821   3.098 -0.18 +0.01    +0.070 A 
DOCKED: ATOM     19  C   UNL d   1      10.589  -7.399   0.809 -0.32 -0.00    +0.052 C 
DOCKED: ATOM     20  C   UNL d   1      13.297 -11.599   4.522 -0.10 +0.01    +0.066 A 
DOCKED: ATOM     21  C   UNL d   1      14.271 -11.969   5.446 -0.06 -0.00    -0.025 A 
DOCKED: ATOM     22  C   UNL d   1      14.115 -13.331   5.627 -0.06 -0.00    -0.021 A 
DOCKED: ATOM     23  C   UNL d   1      13.053 -13.730   4.788 -0.05 +0.03    +0.066 A 
DOCKED: ATOM     24  C   UNL d   1      15.313 -11.073   6.110 -0.04 +0.00    +0.051 C 
DOCKED: ATOM     25  N   UNL d   1      10.953 -14.588   2.864 -0.09 -0.11    -0.248 N 
DOCKED: ATOM     26  N   UNL d   1       9.651 -12.707   1.282 -0.13 -0.06    -0.248 N 
DOCKED: ATOM     27  N   UNL d   1      11.314 -10.582   2.486 -0.09 -0.04    -0.248 N 
DOCKED: ATOM     28  N   UNL d   1      12.556 -12.685   4.116 -0.03 -0.10    -0.248 N 
DOCKED: ATOM     29 FE   UNL d   1      11.147 -12.466   2.667 -0.05 +0.00    +0.000 Fe
DOCKED: ENDROOT
DOCKED: BRANCH   6  30
DOCKED: ATOM     30  C   UNL d   1      12.011 -18.014   4.046 -0.04 +0.01    +0.052 C 
DOCKED: BRANCH  30  31
DOCKED: ATOM     31  C   UNL d   1      13.469 -18.151   3.608 -0.00 +0.01    +0.115 C 
DOCKED: BRANCH  31  32
DOCKED: ATOM     32  C   UNL d   1      13.747 -17.451   2.295 -0.00 +0.01    +0.139 C 
DOCKED: ATOM     33  O   UNL d   1      13.377 -17.965   1.250 +0.01 -0.03    -0.650 OA
DOCKED: BRANCH  32  34
DOCKED: ATOM     34  O   UNL d   1      14.353 -16.242   2.241 +0.01 -0.05    -0.776 OA
DOCKED: ATOM     35  H   UNL d   1      14.343 -15.663   1.466 +0.00 +0.01    +0.167 HD
DOCKED: ENDBRANCH  32  34
DOCKED: ENDBRANCH  31  32
DOCKED: ENDBRANCH  30  31
DOCKED: ENDBRANCH   6  30
DOCKED: BRANCH  29  36
DOCKED: ATOM     36  C   UNL d   1      12.578 -12.848   1.184 -0.04 +0.02    +0.190 C 
DOCKED: BRANCH  36  37
DOCKED: ATOM     37  O   UNL d   1      13.531 -13.784   0.769 +0.00 -0.03    -0.399 OA
DOCKED: ATOM     38  H   UNL d   1      13.461 -14.530   1.429 +0.01 +0.02    +0.209 HD
DOCKED: ENDBRANCH  36  37
DOCKED: ENDBRANCH  29  36
DOCKED: BRANCH  22  39
DOCKED: ATOM     39  C   UNL d   1      14.986 -14.207   6.510 -0.02 +0.01    +0.052 C 
DOCKED: BRANCH  39  40
DOCKED: ATOM     40  C   UNL d   1      14.200 -14.687   7.741 -0.03 +0.01    +0.115 C 
DOCKED: BRANCH  40  41
DOCKED: ATOM     41  C   UNL d   1      13.104 -13.743   8.190 -0.11 +0.03    +0.139 C 
DOCKED: ATOM     42  O   UNL d   1      13.404 -12.636   8.614 +0.02 -0.03    -0.650 OA
DOCKED: BRANCH  41  43
DOCKED: ATOM     43  O   UNL d   1      11.797 -14.058   8.054 -0.28 -0.46    -0.776 OA
DOCKED: ATOM     44  H   UNL d   1      11.105 -13.647   8.590 -0.45 -0.05    +0.167 HD
DOCKED: ENDBRANCH  41  43
DOCKED: ENDBRANCH  40  41
DOCKED: ENDBRANCH  39  40
DOCKED: ENDBRANCH  22  39
DOCKED: BRANCH  12  45
DOCKED: ATOM     45  C   UNL d   1       7.336 -10.897  -1.016 -0.43 +0.00    +0.004 C 
DOCKED: ATOM     46  C   UNL d   1       6.495 -11.024  -2.039 -0.44 +0.00    +0.012 C 
DOCKED: ENDBRANCH  12  45
DOCKED: BRANCH  17  47
DOCKED: ATOM     47  C   UNL d   1      13.077  -7.416   2.985 -0.19 +0.00    +0.004 C 
DOCKED: ATOM     48  C   UNL d   1      13.077  -6.845   4.191 -0.23 +0.00    +0.012 C 
DOCKED: ENDBRANCH  17  47
DOCKED: TORSDOF 12
DOCKED: TER
DOCKED: ENDMDL
________________________________________________________________________________


	BEGINNING GENETIC ALGORITHM DOCKING 43 of 100
Run: 43 Seed: 1198651443 282508823 [ Run 43 of 100 GA/GALS ]
Beginning LAMARCKIAN GENETIC ALGORITHM (LGA), with a maximum of 25000000 energy evaluations.

Final-Value: -9.170


	FINAL GENETIC ALGORITHM DOCKED STATE
	_______________________________________________


Detailed state:  trans 13.020 12.568 -0.367 quatxyzw 0.355961 0.800091 0.223917 -0.427794 center 8.781 34.984 -0.736 ntor 12 166.1164 105.1051 -60.8380 18.9774 80.8484 145.4565 -135.6813 -144.4646 -141.7186 118.7497 -174.1073 9.2653
State:	 13.020  12.568  -0.367   0.394  0.885  0.248 -129.345    166.12  105.11  -60.84   18.98   80.85  145.46 -135.68 -144.46 -141.72  118.75 -174.11    9.27

DOCKED: MODEL       43
DOCKED: USER    Run = 43
DOCKED: USER    DPF = D:/Protein_go_brrr/autodock/final/mut_K82N/heme_Co/dock.dpf
DOCKED: USER  
DOCKED: USER    Estimated Free Energy of Binding    =   -3.39 kcal/mol  [=(1)+(2)+(3)-(4)]
DOCKED: USER    Estimated Inhibition Constant, Ki   =    3.27 mM (millimolar)  [Temperature = 298.15 K]
DOCKED: USER    
DOCKED: USER    (1) Final Intermolecular Energy     =   -6.97 kcal/mol
DOCKED: USER        vdW + Hbond + desolv Energy     =   -6.55 kcal/mol
DOCKED: USER        Electrostatic Energy            =   -0.42 kcal/mol
DOCKED: USER    (2) Final Total Internal Energy     =   -2.20 kcal/mol
DOCKED: USER    (3) Torsional Free Energy           =   +3.58 kcal/mol
DOCKED: USER    (4) Unbound System's Energy  [=(2)] =   -2.20 kcal/mol
DOCKED: USER    
DOCKED: USER    
DOCKED: USER    NEWDPF move heme_Co_opt.pdbqt
DOCKED: USER    NEWDPF about 8.781000 34.984000 -0.736000
DOCKED: USER    NEWDPF tran0 13.020003 12.567969 -0.367010
DOCKED: USER    NEWDPF quaternion0 0.355961 0.800091 0.223917 -0.427794
DOCKED: USER    NEWDPF axisangle0 0.393816 0.885178 0.247730 -129.344688
DOCKED: USER    NEWDPF quat0 0.393816 0.885178 0.247730 -129.344688
DOCKED: USER    NEWDPF dihe0 166.12 105.11 -60.84 18.98 80.85 145.46 -135.68 -144.46 -141.72 118.75 -174.11 9.27 
DOCKED: USER  keepresnum = 1 
DOCKED: USER  
DOCKED: REMARK  12 active torsions:
DOCKED: REMARK  status: ('A' for Active; 'I' for Inactive)
DOCKED: REMARK    1  A    between atoms: C_6  and  C_10 
DOCKED: REMARK    2  A    between atoms: C_10  and  C_11 
DOCKED: REMARK    3  A    between atoms: C_11  and  C_12 
DOCKED: REMARK    4  A    between atoms: C_12  and  O_14 
DOCKED: REMARK    5  A    between atoms: C_17  and  C_20 
DOCKED: REMARK    6  A    between atoms: C_24  and  C_27 
DOCKED: REMARK    7  A    between atoms: C_31  and  C_34 
DOCKED: REMARK    8  A    between atoms: C_34  and  C_35 
DOCKED: REMARK    9  A    between atoms: C_35  and  C_36 
DOCKED: REMARK   10  A    between atoms: C_36  and  O_38 
DOCKED: REMARK   11  A    between atoms: FE_43  and  C_44 
DOCKED: REMARK   12  A    between atoms: C_44  and  O_45 
DOCKED: USER                              x       y       z     vdW  Elec       q    Type
DOCKED: USER                           _______ _______ _______ _____ _____    ______ ____
DOCKED: ROOT
DOCKED: ATOM      1  C   UNL d   1      13.228  11.372   1.434 -0.09 -0.00    +0.064 A 
DOCKED: ATOM      2  C   UNL d   1      14.895  10.812  -2.984 -0.18 -0.01    +0.064 C 
DOCKED: ATOM      3  C   UNL d   1      12.445  14.648  -4.436 -0.24 -0.01    +0.064 A 
DOCKED: ATOM      4  C   UNL d   1      11.036  15.467   0.148 -0.24 -0.01    +0.064 A 
DOCKED: ATOM      5  C   UNL d   1      13.834  10.916   0.325 -0.06 -0.00    +0.066 A 
DOCKED: ATOM      6  C   UNL d   1      14.720   9.821   0.355 -0.10 +0.00    -0.021 A 
DOCKED: ATOM      7  C   UNL d   1      15.219   9.677  -0.925 -0.11 +0.00    -0.025 A 
DOCKED: ATOM      8  C   UNL d   1      14.604  10.679  -1.684 -0.17 -0.01    +0.066 A 
DOCKED: ATOM      9  C   UNL d   1      16.236   8.642  -1.430 -0.06 -0.00    +0.051 C 
DOCKED: ATOM     10  C   UNL d   1      14.293  11.795  -3.850 -0.19 -0.01    +0.066 A 
DOCKED: ATOM     11  C   UNL d   1      14.451  11.896  -5.249 -0.21 +0.00    -0.021 A 
DOCKED: ATOM     12  C   UNL d   1      13.722  13.021  -5.647 -0.26 -0.00    +0.000 A 
DOCKED: ATOM     13  C   UNL d   1      13.166  13.514  -4.466 -0.23 -0.01    +0.070 A 
DOCKED: ATOM     14  C   UNL d   1      15.173  10.917  -6.139 -0.16 -0.00    +0.052 C 
DOCKED: ATOM     15  C   UNL d   1      11.844  15.326  -3.304 -0.27 -0.02    +0.066 A 
DOCKED: ATOM     16  C   UNL d   1      11.234  16.572  -3.319 -0.23 +0.00    -0.021 A 
DOCKED: ATOM     17  C   UNL d   1      10.829  16.814  -1.999 -0.19 -0.00    +0.000 A 
DOCKED: ATOM     18  C   UNL d   1      11.209  15.684  -1.283 -0.19 -0.02    +0.070 A 
DOCKED: ATOM     19  C   UNL d   1      11.069  17.452  -4.538 -0.17 -0.01    +0.052 C 
DOCKED: ATOM     20  C   UNL d   1      11.475  14.415   0.881 -0.23 -0.00    +0.066 A 
DOCKED: ATOM     21  C   UNL d   1      11.279  14.336   2.258 -0.16 +0.00    -0.025 A 
DOCKED: ATOM     22  C   UNL d   1      11.875  13.152   2.652 -0.11 -0.00    -0.021 A 
DOCKED: ATOM     23  C   UNL d   1      12.419  12.569   1.488 -0.11 -0.00    +0.066 A 
DOCKED: ATOM     24  C   UNL d   1      10.577  15.349   3.159 -0.14 +0.00    +0.051 C 
DOCKED: ATOM     25  N   UNL d   1      13.737  11.458  -0.936 -0.14 +0.02    -0.248 N 
DOCKED: ATOM     26  N   UNL d   1      13.466  12.739  -3.390 -0.02 +0.07    -0.248 N 
DOCKED: ATOM     27  N   UNL d   1      11.837  14.832  -2.086 -0.22 +0.06    -0.248 N 
DOCKED: ATOM     28  N   UNL d   1      12.181  13.331   0.414 -0.16 +0.01    -0.248 N 
DOCKED: ATOM     29 FE   UNL d   1      12.729  13.245  -1.542 -0.06 -0.00    +0.000 Fe
DOCKED: ENDROOT
DOCKED: BRANCH   6  30
DOCKED: ATOM     30  C   UNL d   1      15.124   9.011   1.582 -0.06 -0.00    +0.052 C 
DOCKED: BRANCH  30  31
DOCKED: ATOM     31  C   UNL d   1      16.357   9.621   2.247 -0.01 -0.00    +0.115 C 
DOCKED: BRANCH  31  32
DOCKED: ATOM     32  C   UNL d   1      16.356  11.133   2.188 -0.01 -0.00    +0.139 C 
DOCKED: ATOM     33  O   UNL d   1      15.916  11.771   3.133 +0.00 +0.01    -0.650 OA
DOCKED: BRANCH  32  34
DOCKED: ATOM     34  O   UNL d   1      16.874  11.811   1.137 +0.01 +0.03    -0.776 OA
DOCKED: ATOM     35  H   UNL d   1      16.678  12.737   0.938 +0.01 -0.01    +0.167 HD
DOCKED: ENDBRANCH  32  34
DOCKED: ENDBRANCH  31  32
DOCKED: ENDBRANCH  30  31
DOCKED: ENDBRANCH   6  30
DOCKED: BRANCH  29  36
DOCKED: ATOM     36  C   UNL d   1      14.512  14.261  -1.111 -0.06 -0.02    +0.190 C 
DOCKED: BRANCH  36  37
DOCKED: ATOM     37  O   UNL d   1      15.772  14.101  -0.526 -0.00 +0.03    -0.399 OA
DOCKED: ATOM     38  H   UNL d   1      15.743  13.201  -0.097 +0.02 -0.01    +0.209 HD
DOCKED: ENDBRANCH  36  37
DOCKED: ENDBRANCH  29  36
DOCKED: BRANCH  22  39
DOCKED: ATOM     39  C   UNL d   1      11.970  12.647   4.080 -0.08 +0.00    +0.052 C 
DOCKED: BRANCH  39  40
DOCKED: ATOM     40  C   UNL d   1      11.079  11.410   4.278 -0.13 +0.02    +0.115 C 
DOCKED: BRANCH  40  41
DOCKED: ATOM     41  C   UNL d   1       9.594  11.686   4.169 -0.17 +0.05    +0.139 C 
DOCKED: ATOM     42  O   UNL d   1       9.206  12.841   4.057 -0.01 -0.17    -0.650 OA
DOCKED: BRANCH  41  43
DOCKED: ATOM     43  O   UNL d   1       8.688  10.685   4.105 -0.41 -0.48    -0.776 OA
DOCKED: ATOM     44  H   UNL d   1       8.738   9.981   3.445 +0.09 +0.06    +0.167 HD
DOCKED: ENDBRANCH  41  43
DOCKED: ENDBRANCH  40  41
DOCKED: ENDBRANCH  39  40
DOCKED: ENDBRANCH  22  39
DOCKED: BRANCH  12  45
DOCKED: ATOM     45  C   UNL d   1      13.474  13.671  -7.001 -0.25 -0.00    +0.004 C 
DOCKED: ATOM     46  C   UNL d   1      13.740  13.240  -8.231 -0.21 -0.00    +0.012 C 
DOCKED: ENDBRANCH  12  45
DOCKED: BRANCH  17  47
DOCKED: ATOM     47  C   UNL d   1      10.179  18.021  -1.407 -0.25 -0.00    +0.004 C 
DOCKED: ATOM     48  C   UNL d   1       9.003  18.502  -1.819 -0.32 -0.00    +0.012 C 
DOCKED: ENDBRANCH  17  47
DOCKED: TORSDOF 12
DOCKED: TER
DOCKED: ENDMDL
________________________________________________________________________________


	BEGINNING GENETIC ALGORITHM DOCKING 44 of 100
Run: 44 Seed: 959044622 1773100772 [ Run 44 of 100 GA/GALS ]
Beginning LAMARCKIAN GENETIC ALGORITHM (LGA), with a maximum of 25000000 energy evaluations.

Final-Value: -8.887


	FINAL GENETIC ALGORITHM DOCKED STATE
	_______________________________________________


Detailed state:  trans 13.603 3.582 19.689 quatxyzw 0.664301 0.687602 -0.146124 -0.254078 center 8.781 34.984 -0.736 ntor 12 -88.8836 116.0673 -31.0144 -92.3823 -88.4282 83.2065 87.7998 106.5863 57.9132 -83.8061 -13.8754 -48.2896
State:	 13.603   3.582  19.689   0.687  0.711 -0.151 -150.562    -88.88  116.07  -31.01  -92.38  -88.43   83.21   87.80  106.59   57.91  -83.81  -13.88  -48.29

DOCKED: MODEL       44
DOCKED: USER    Run = 44
DOCKED: USER    DPF = D:/Protein_go_brrr/autodock/final/mut_K82N/heme_Co/dock.dpf
DOCKED: USER  
DOCKED: USER    Estimated Free Energy of Binding    =   -3.60 kcal/mol  [=(1)+(2)+(3)-(4)]
DOCKED: USER    Estimated Inhibition Constant, Ki   =    2.30 mM (millimolar)  [Temperature = 298.15 K]
DOCKED: USER    
DOCKED: USER    (1) Final Intermolecular Energy     =   -7.18 kcal/mol
DOCKED: USER        vdW + Hbond + desolv Energy     =   -4.77 kcal/mol
DOCKED: USER        Electrostatic Energy            =   -2.41 kcal/mol
DOCKED: USER    (2) Final Total Internal Energy     =   -1.71 kcal/mol
DOCKED: USER    (3) Torsional Free Energy           =   +3.58 kcal/mol
DOCKED: USER    (4) Unbound System's Energy  [=(2)] =   -1.71 kcal/mol
DOCKED: USER    
DOCKED: USER    
DOCKED: USER    NEWDPF move heme_Co_opt.pdbqt
DOCKED: USER    NEWDPF about 8.781000 34.984000 -0.736000
DOCKED: USER    NEWDPF tran0 13.603189 3.582263 19.689024
DOCKED: USER    NEWDPF quaternion0 0.664301 0.687602 -0.146124 -0.254078
DOCKED: USER    NEWDPF axisangle0 0.686841 0.710932 -0.151082 -150.562025
DOCKED: USER    NEWDPF quat0 0.686841 0.710932 -0.151082 -150.562025
DOCKED: USER    NEWDPF dihe0 -88.88 116.07 -31.01 -92.38 -88.43 83.21 87.80 106.59 57.91 -83.81 -13.88 -48.29 
DOCKED: USER  keepresnum = 1 
DOCKED: USER  
DOCKED: REMARK  12 active torsions:
DOCKED: REMARK  status: ('A' for Active; 'I' for Inactive)
DOCKED: REMARK    1  A    between atoms: C_6  and  C_10 
DOCKED: REMARK    2  A    between atoms: C_10  and  C_11 
DOCKED: REMARK    3  A    between atoms: C_11  and  C_12 
DOCKED: REMARK    4  A    between atoms: C_12  and  O_14 
DOCKED: REMARK    5  A    between atoms: C_17  and  C_20 
DOCKED: REMARK    6  A    between atoms: C_24  and  C_27 
DOCKED: REMARK    7  A    between atoms: C_31  and  C_34 
DOCKED: REMARK    8  A    between atoms: C_34  and  C_35 
DOCKED: REMARK    9  A    between atoms: C_35  and  C_36 
DOCKED: REMARK   10  A    between atoms: C_36  and  O_38 
DOCKED: REMARK   11  A    between atoms: FE_43  and  C_44 
DOCKED: REMARK   12  A    between atoms: C_44  and  O_45 
DOCKED: USER                              x       y       z     vdW  Elec       q    Type
DOCKED: USER                           _______ _______ _______ _____ _____    ______ ____
DOCKED: ROOT
DOCKED: ATOM      1  C   UNL d   1      13.941   2.453  21.513 -0.10 +0.02    +0.064 A 
DOCKED: ATOM      2  C   UNL d   1      11.909   1.300  17.372 -0.28 -0.01    +0.064 C 
DOCKED: ATOM      3  C   UNL d   1      12.378   5.803  15.844 -0.04 -0.00    +0.064 A 
DOCKED: ATOM      4  C   UNL d   1      14.803   6.916  19.911 -0.01 +0.01    +0.064 A 
DOCKED: ATOM      5  C   UNL d   1      13.319   1.816  20.508 -0.13 +0.02    +0.066 A 
DOCKED: ATOM      6  C   UNL d   1      13.061   0.432  20.547 -0.18 -0.00    -0.021 A 
DOCKED: ATOM      7  C   UNL d   1      12.491   0.098  19.334 -0.26 -0.00    -0.025 A 
DOCKED: ATOM      8  C   UNL d   1      12.412   1.295  18.613 -0.24 +0.00    +0.066 A 
DOCKED: ATOM      9  C   UNL d   1      12.036  -1.289  18.856 -0.39 -0.00    +0.051 C 
DOCKED: ATOM     10  C   UNL d   1      11.762   2.486  16.565 -0.21 -0.01    +0.066 A 
DOCKED: ATOM     11  C   UNL d   1      11.115   2.580  15.314 -0.32 +0.00    -0.021 A 
DOCKED: ATOM     12  C   UNL d   1      11.264   3.905  14.893 -0.25 -0.00    +0.000 A 
DOCKED: ATOM     13  C   UNL d   1      11.977   4.521  15.921 -0.11 -0.00    +0.070 A 
DOCKED: ATOM     14  C   UNL d   1      10.332   1.489  14.630 -0.48 -0.02    +0.052 C 
DOCKED: ATOM     15  C   UNL d   1      13.162   6.579  16.784 -0.01 +0.00    +0.066 A 
DOCKED: ATOM     16  C   UNL d   1      13.666   7.856  16.579 -0.00 -0.00    -0.021 A 
DOCKED: ATOM     17  C   UNL d   1      14.368   8.180  17.748 +0.00 +0.00    +0.000 A 
DOCKED: ATOM     18  C   UNL d   1      14.222   7.079  18.585 -0.00 +0.00    +0.070 A 
DOCKED: ATOM     19  C   UNL d   1      13.470   8.685  15.329 -0.01 -0.00    +0.052 C 
DOCKED: ATOM     20  C   UNL d   1      14.748   5.821  20.707 -0.02 +0.01    +0.066 A 
DOCKED: ATOM     21  C   UNL d   1      15.378   5.772  21.949 -0.02 -0.00    -0.025 A 
DOCKED: ATOM     22  C   UNL d   1      15.122   4.507  22.447 -0.05 -0.01    -0.021 A 
DOCKED: ATOM     23  C   UNL d   1      14.353   3.838  21.471 -0.07 +0.02    +0.066 A 
DOCKED: ATOM     24  C   UNL d   1      16.200   6.868  22.620 -0.00 +0.01    +0.051 C 
DOCKED: ATOM     25  N   UNL d   1      12.911   2.376  19.318 -0.12 -0.04    -0.248 N 
DOCKED: ATOM     26  N   UNL d   1      12.229   3.676  16.957 -0.08 +0.00    -0.248 N 
DOCKED: ATOM     27  N   UNL d   1      13.524   6.133  17.966 -0.00 -0.01    -0.248 N 
DOCKED: ATOM     28  N   UNL d   1      14.126   4.629  20.415 -0.03 -0.05    -0.248 N 
DOCKED: ATOM     29 FE   UNL d   1      13.237   4.367  18.606 -0.02 +0.00    +0.000 Fe
DOCKED: ENDROOT
DOCKED: BRANCH   6  30
DOCKED: ATOM     30  C   UNL d   1      13.425  -0.530  21.673 -0.15 +0.01    +0.052 C 
DOCKED: BRANCH  30  31
DOCKED: ATOM     31  C   UNL d   1      12.558  -0.269  22.904 -0.09 +0.05    +0.115 C 
DOCKED: BRANCH  31  32
DOCKED: ATOM     32  C   UNL d   1      13.383   0.010  24.142 -0.11 +0.07    +0.139 C 
DOCKED: ATOM     33  O   UNL d   1      14.382  -0.657  24.362 +0.01 -0.18    -0.650 OA
DOCKED: BRANCH  32  34
DOCKED: ATOM     34  O   UNL d   1      13.076   1.014  24.997 -0.10 -0.87    -0.776 OA
DOCKED: ATOM     35  H   UNL d   1      13.448   1.905  24.945 +0.00 +0.23    +0.167 HD
DOCKED: ENDBRANCH  32  34
DOCKED: ENDBRANCH  31  32
DOCKED: ENDBRANCH  30  31
DOCKED: ENDBRANCH   6  30
DOCKED: BRANCH  29  36
DOCKED: ATOM     36  C   UNL d   1      15.038   3.662  17.797 -0.01 +0.01    +0.190 C 
DOCKED: BRANCH  36  37
DOCKED: ATOM     37  O   UNL d   1      16.321   3.226  18.145 +0.00 -0.01    -0.399 OA
DOCKED: ATOM     38  H   UNL d   1      16.335   3.240  19.143 +0.01 +0.01    +0.209 HD
DOCKED: ENDBRANCH  36  37
DOCKED: ENDBRANCH  29  36
DOCKED: BRANCH  22  39
DOCKED: ATOM     39  C   UNL d   1      15.646   3.956  23.759 -0.04 +0.02    +0.052 C 
DOCKED: BRANCH  39  40
DOCKED: ATOM     40  C   UNL d   1      15.305   4.904  24.921 -0.04 +0.05    +0.115 C 
DOCKED: BRANCH  40  41
DOCKED: ATOM     41  C   UNL d   1      13.982   4.613  25.598 +0.19 +0.16    +0.139 C 
DOCKED: ATOM     42  O   UNL d   1      13.083   5.440  25.535 -0.53 -0.96    -0.650 OA
DOCKED: BRANCH  41  43
DOCKED: ATOM     43  O   UNL d   1      13.736   3.426  26.196 -0.05 -1.10    -0.776 OA
DOCKED: ATOM     44  H   UNL d   1      14.197   2.614  25.947 +0.00 +0.17    +0.167 HD
DOCKED: ENDBRANCH  41  43
DOCKED: ENDBRANCH  40  41
DOCKED: ENDBRANCH  39  40
DOCKED: ENDBRANCH  22  39
DOCKED: BRANCH  12  45
DOCKED: ATOM     45  C   UNL d   1      10.800   4.659  13.654 -0.21 -0.00    +0.004 C 
DOCKED: ATOM     46  C   UNL d   1      11.462   5.006  12.553 -0.22 -0.00    +0.012 C 
DOCKED: ENDBRANCH  12  45
DOCKED: BRANCH  17  47
DOCKED: ATOM     47  C   UNL d   1      15.170   9.398  18.073 +0.00 +0.00    +0.004 C 
DOCKED: ATOM     48  C   UNL d   1      16.500   9.396  18.187 +0.00 +0.00    +0.012 C 
DOCKED: ENDBRANCH  17  47
DOCKED: TORSDOF 12
DOCKED: TER
DOCKED: ENDMDL
________________________________________________________________________________


	BEGINNING GENETIC ALGORITHM DOCKING 45 of 100
Run: 45 Seed: 86623440 199760282 [ Run 45 of 100 GA/GALS ]
Beginning LAMARCKIAN GENETIC ALGORITHM (LGA), with a maximum of 25000000 energy evaluations.

Final-Value: -10.583


	FINAL GENETIC ALGORITHM DOCKED STATE
	_______________________________________________


Detailed state:  trans -8.178 10.210 -11.786 quatxyzw 0.920147 -0.341051 0.057309 -0.183654 center 8.781 34.984 -0.736 ntor 12 55.6923 127.9992 -156.8507 97.6732 -68.2112 98.3636 39.8349 112.8909 151.3985 146.4096 -155.6504 167.5395
State:	 -8.178  10.210 -11.786   0.936 -0.347  0.058 -158.835     55.69  128.00 -156.85   97.67  -68.21   98.36   39.83  112.89  151.40  146.41 -155.65  167.54

DOCKED: MODEL       45
DOCKED: USER    Run = 45
DOCKED: USER    DPF = D:/Protein_go_brrr/autodock/final/mut_K82N/heme_Co/dock.dpf
DOCKED: USER  
DOCKED: USER    Estimated Free Energy of Binding    =   -2.90 kcal/mol  [=(1)+(2)+(3)-(4)]
DOCKED: USER    Estimated Inhibition Constant, Ki   =    7.51 mM (millimolar)  [Temperature = 298.15 K]
DOCKED: USER    
DOCKED: USER    (1) Final Intermolecular Energy     =   -6.48 kcal/mol
DOCKED: USER        vdW + Hbond + desolv Energy     =   -6.28 kcal/mol
DOCKED: USER        Electrostatic Energy            =   -0.20 kcal/mol
DOCKED: USER    (2) Final Total Internal Energy     =   -4.10 kcal/mol
DOCKED: USER    (3) Torsional Free Energy           =   +3.58 kcal/mol
DOCKED: USER    (4) Unbound System's Energy  [=(2)] =   -4.10 kcal/mol
DOCKED: USER    
DOCKED: USER    
DOCKED: USER    NEWDPF move heme_Co_opt.pdbqt
DOCKED: USER    NEWDPF about 8.781000 34.984000 -0.736000
DOCKED: USER    NEWDPF tran0 -8.177803 10.209861 -11.785695
DOCKED: USER    NEWDPF quaternion0 0.920147 -0.341051 0.057309 -0.183654
DOCKED: USER    NEWDPF axisangle0 0.936069 -0.346953 0.058300 -158.834681
DOCKED: USER    NEWDPF quat0 0.936069 -0.346953 0.058300 -158.834681
DOCKED: USER    NEWDPF dihe0 55.69 128.00 -156.85 97.67 -68.21 98.36 39.83 112.89 151.40 146.41 -155.65 167.54 
DOCKED: USER  keepresnum = 1 
DOCKED: USER  
DOCKED: REMARK  12 active torsions:
DOCKED: REMARK  status: ('A' for Active; 'I' for Inactive)
DOCKED: REMARK    1  A    between atoms: C_6  and  C_10 
DOCKED: REMARK    2  A    between atoms: C_10  and  C_11 
DOCKED: REMARK    3  A    between atoms: C_11  and  C_12 
DOCKED: REMARK    4  A    between atoms: C_12  and  O_14 
DOCKED: REMARK    5  A    between atoms: C_17  and  C_20 
DOCKED: REMARK    6  A    between atoms: C_24  and  C_27 
DOCKED: REMARK    7  A    between atoms: C_31  and  C_34 
DOCKED: REMARK    8  A    between atoms: C_34  and  C_35 
DOCKED: REMARK    9  A    between atoms: C_35  and  C_36 
DOCKED: REMARK   10  A    between atoms: C_36  and  O_38 
DOCKED: REMARK   11  A    between atoms: FE_43  and  C_44 
DOCKED: REMARK   12  A    between atoms: C_44  and  O_45 
DOCKED: USER                              x       y       z     vdW  Elec       q    Type
DOCKED: USER                           _______ _______ _______ _____ _____    ______ ____
DOCKED: ROOT
DOCKED: ATOM      1  C   UNL d   1      -9.957  11.355 -11.296 -0.06 +0.02    +0.064 A 
DOCKED: ATOM      2  C   UNL d   1      -7.347  11.045 -15.259 -0.05 -0.01    +0.064 C 
DOCKED: ATOM      3  C   UNL d   1      -4.198   8.241 -13.011 -0.31 -0.01    +0.064 A 
DOCKED: ATOM      4  C   UNL d   1      -7.045   8.228  -9.067 -0.27 +0.00    +0.064 A 
DOCKED: ATOM      5  C   UNL d   1      -9.456  11.506 -12.533 -0.06 +0.01    +0.066 A 
DOCKED: ATOM      6  C   UNL d   1     -10.143  12.218 -13.536 -0.06 -0.00    -0.021 A 
DOCKED: ATOM      7  C   UNL d   1      -9.392  12.106 -14.689 -0.04 -0.00    -0.025 A 
DOCKED: ATOM      8  C   UNL d   1      -8.273  11.344 -14.338 -0.06 -0.00    +0.066 A 
DOCKED: ATOM      9  C   UNL d   1      -9.704  12.687 -16.077 -0.01 -0.00    +0.051 C 
DOCKED: ATOM     10  C   UNL d   1      -6.150  10.289 -14.985 -0.08 -0.01    +0.066 A 
DOCKED: ATOM     11  C   UNL d   1      -5.075  10.062 -15.871 -0.09 +0.01    -0.021 A 
DOCKED: ATOM     12  C   UNL d   1      -4.169   9.245 -15.188 -0.24 -0.00    +0.000 A 
DOCKED: ATOM     13  C   UNL d   1      -4.751   9.046 -13.936 -0.25 -0.01    +0.070 A 
DOCKED: ATOM     14  C   UNL d   1      -4.901  10.672 -17.238 -0.05 -0.01    +0.052 C 
DOCKED: ATOM     15  C   UNL d   1      -4.686   7.883 -11.694 -0.17 -0.01    +0.066 A 
DOCKED: ATOM     16  C   UNL d   1      -4.139   6.932 -10.844 -0.41 +0.00    -0.021 A 
DOCKED: ATOM     17  C   UNL d   1      -4.959   6.923  -9.706 -0.42 -0.00    +0.000 A 
DOCKED: ATOM     18  C   UNL d   1      -5.934   7.885  -9.945 -0.31 -0.00    +0.070 A 
DOCKED: ATOM     19  C   UNL d   1      -2.910   6.100 -11.134 -0.36 -0.00    +0.052 C 
DOCKED: ATOM     20  C   UNL d   1      -8.054   9.097  -9.315 -0.19 +0.01    +0.066 A 
DOCKED: ATOM     21  C   UNL d   1      -9.087   9.317  -8.406 -0.18 -0.01    -0.025 A 
DOCKED: ATOM     22  C   UNL d   1      -9.926  10.235  -9.009 -0.13 -0.00    -0.021 A 
DOCKED: ATOM     23  C   UNL d   1      -9.366  10.524 -10.272 -0.11 +0.02    +0.066 A 
DOCKED: ATOM     24  C   UNL d   1      -9.276   8.668  -7.037 -0.23 +0.02    +0.051 C 
DOCKED: ATOM     25  N   UNL d   1      -8.283  10.963 -13.007 -0.07 -0.02    -0.248 N 
DOCKED: ATOM     26  N   UNL d   1      -5.921   9.724 -13.795 -0.09 +0.04    -0.248 N 
DOCKED: ATOM     27  N   UNL d   1      -5.759   8.415 -11.151 -0.16 +0.04    -0.248 N 
DOCKED: ATOM     28  N   UNL d   1      -8.234   9.836 -10.461 -0.09 -0.03    -0.248 N 
DOCKED: ATOM     29 FE   UNL d   1      -6.948   9.614 -12.021 -0.04 -0.00    +0.000 Fe
DOCKED: ENDROOT
DOCKED: BRANCH   6  30
DOCKED: ATOM     30  C   UNL d   1     -11.499  12.902 -13.398 -0.04 +0.01    +0.052 C 
DOCKED: BRANCH  30  31
DOCKED: ATOM     31  C   UNL d   1     -12.617  11.864 -13.304 -0.00 +0.01    +0.115 C 
DOCKED: BRANCH  31  32
DOCKED: ATOM     32  C   UNL d   1     -12.292  10.595 -14.062 -0.00 +0.01    +0.139 C 
DOCKED: ATOM     33  O   UNL d   1     -12.611  10.500 -15.238 +0.00 -0.03    -0.650 OA
DOCKED: BRANCH  32  34
DOCKED: ATOM     34  O   UNL d   1     -11.614   9.572 -13.492 +0.01 -0.07    -0.776 OA
DOCKED: ATOM     35  H   UNL d   1     -11.851   9.166 -12.647 +0.01 +0.02    +0.167 HD
DOCKED: ENDBRANCH  32  34
DOCKED: ENDBRANCH  31  32
DOCKED: ENDBRANCH  30  31
DOCKED: ENDBRANCH   6  30
DOCKED: BRANCH  29  36
DOCKED: ATOM     36  C   UNL d   1      -8.122   8.061 -12.799 -0.03 +0.01    +0.190 C 
DOCKED: BRANCH  36  37
DOCKED: ATOM     37  O   UNL d   1      -9.430   7.569 -12.844 -0.04 -0.04    -0.399 OA
DOCKED: ATOM     38  H   UNL d   1      -9.999   8.322 -12.521 +0.03 +0.02    +0.209 HD
DOCKED: ENDBRANCH  36  37
DOCKED: ENDBRANCH  29  36
DOCKED: BRANCH  22  39
DOCKED: ATOM     39  C   UNL d   1     -11.228  10.753  -8.427 -0.08 +0.01    +0.052 C 
DOCKED: BRANCH  39  40
DOCKED: ATOM     40  C   UNL d   1     -12.410   9.879  -8.877 -0.01 +0.03    +0.115 C 
DOCKED: BRANCH  40  41
DOCKED: ATOM     41  C   UNL d   1     -12.330   9.413 -10.315 +0.00 +0.03    +0.139 C 
DOCKED: ATOM     42  O   UNL d   1     -13.098   9.886 -11.141 +0.01 -0.09    -0.650 OA
DOCKED: BRANCH  41  43
DOCKED: ATOM     43  O   UNL d   1     -11.375   8.551 -10.731 +0.03 -0.15    -0.776 OA
DOCKED: ATOM     44  H   UNL d   1     -11.032   8.552 -11.634 +0.01 +0.03    +0.167 HD
DOCKED: ENDBRANCH  41  43
DOCKED: ENDBRANCH  40  41
DOCKED: ENDBRANCH  39  40
DOCKED: ENDBRANCH  22  39
DOCKED: BRANCH  12  45
DOCKED: ATOM     45  C   UNL d   1      -2.820   8.649 -15.566 -0.38 -0.00    +0.004 C 
DOCKED: ATOM     46  C   UNL d   1      -1.589   9.136 -15.430 -0.42 -0.00    +0.012 C 
DOCKED: ENDBRANCH  12  45
DOCKED: BRANCH  17  47
DOCKED: ATOM     47  C   UNL d   1      -4.894   6.057  -8.491 -0.44 +0.00    +0.004 C 
DOCKED: ATOM     48  C   UNL d   1      -5.529   4.887  -8.384 -0.37 +0.00    +0.012 C 
DOCKED: ENDBRANCH  17  47
DOCKED: TORSDOF 12
DOCKED: TER
DOCKED: ENDMDL
________________________________________________________________________________


	BEGINNING GENETIC ALGORITHM DOCKING 46 of 100
Run: 46 Seed: 510173078 472261929 [ Run 46 of 100 GA/GALS ]
Beginning LAMARCKIAN GENETIC ALGORITHM (LGA), with a maximum of 25000000 energy evaluations.

Final-Value: -9.381


	FINAL GENETIC ALGORITHM DOCKED STATE
	_______________________________________________


Detailed state:  trans -12.845 15.606 -4.749 quatxyzw -0.840342 0.434378 0.200995 0.254443 center 8.781 34.984 -0.736 ntor 12 79.7015 136.6835 108.6140 -108.7595 -47.9957 100.7247 17.3155 -54.6240 -180.0000 -147.5476 179.9041 143.7535
State:	-12.845  15.606  -4.749  -0.869  0.449  0.208 150.519     79.70  136.68  108.61 -108.76  -48.00  100.72   17.32  -54.62 -180.00 -147.55  179.90  143.75

DOCKED: MODEL       46
DOCKED: USER    Run = 46
DOCKED: USER    DPF = D:/Protein_go_brrr/autodock/final/mut_K82N/heme_Co/dock.dpf
DOCKED: USER  
DOCKED: USER    Estimated Free Energy of Binding    =   -2.56 kcal/mol  [=(1)+(2)+(3)-(4)]
DOCKED: USER    Estimated Inhibition Constant, Ki   =   13.35 mM (millimolar)  [Temperature = 298.15 K]
DOCKED: USER    
DOCKED: USER    (1) Final Intermolecular Energy     =   -6.14 kcal/mol
DOCKED: USER        vdW + Hbond + desolv Energy     =   -5.74 kcal/mol
DOCKED: USER        Electrostatic Energy            =   -0.39 kcal/mol
DOCKED: USER    (2) Final Total Internal Energy     =   -3.24 kcal/mol
DOCKED: USER    (3) Torsional Free Energy           =   +3.58 kcal/mol
DOCKED: USER    (4) Unbound System's Energy  [=(2)] =   -3.24 kcal/mol
DOCKED: USER    
DOCKED: USER    
DOCKED: USER    NEWDPF move heme_Co_opt.pdbqt
DOCKED: USER    NEWDPF about 8.781000 34.984000 -0.736000
DOCKED: USER    NEWDPF tran0 -12.845276 15.605800 -4.748547
DOCKED: USER    NEWDPF quaternion0 -0.840342 0.434378 0.200995 0.254443
DOCKED: USER    NEWDPF axisangle0 -0.868941 0.449161 0.207835 150.518869
DOCKED: USER    NEWDPF quat0 -0.868941 0.449161 0.207835 150.518869
DOCKED: USER    NEWDPF dihe0 79.70 136.68 108.61 -108.76 -48.00 100.72 17.32 -54.62 -180.00 -147.55 179.90 143.75 
DOCKED: USER  keepresnum = 1 
DOCKED: USER  
DOCKED: REMARK  12 active torsions:
DOCKED: REMARK  status: ('A' for Active; 'I' for Inactive)
DOCKED: REMARK    1  A    between atoms: C_6  and  C_10 
DOCKED: REMARK    2  A    between atoms: C_10  and  C_11 
DOCKED: REMARK    3  A    between atoms: C_11  and  C_12 
DOCKED: REMARK    4  A    between atoms: C_12  and  O_14 
DOCKED: REMARK    5  A    between atoms: C_17  and  C_20 
DOCKED: REMARK    6  A    between atoms: C_24  and  C_27 
DOCKED: REMARK    7  A    between atoms: C_31  and  C_34 
DOCKED: REMARK    8  A    between atoms: C_34  and  C_35 
DOCKED: REMARK    9  A    between atoms: C_35  and  C_36 
DOCKED: REMARK   10  A    between atoms: C_36  and  O_38 
DOCKED: REMARK   11  A    between atoms: FE_43  and  C_44 
DOCKED: REMARK   12  A    between atoms: C_44  and  O_45 
DOCKED: USER                              x       y       z     vdW  Elec       q    Type
DOCKED: USER                           _______ _______ _______ _____ _____    ______ ____
DOCKED: ROOT
DOCKED: ATOM      1  C   UNL d   1     -13.732  17.185  -3.551 -0.08 +0.02    +0.064 A 
DOCKED: ATOM      2  C   UNL d   1     -13.467  16.504  -8.249 -0.09 +0.05    +0.064 C 
DOCKED: ATOM      3  C   UNL d   1     -10.730  12.647  -7.574 -0.23 +0.03    +0.064 A 
DOCKED: ATOM      4  C   UNL d   1     -11.305  13.097  -2.764 -0.25 +0.02    +0.064 A 
DOCKED: ATOM      5  C   UNL d   1     -13.831  17.304  -4.885 -0.07 +0.03    +0.066 A 
DOCKED: ATOM      6  C   UNL d   1     -14.628  18.294  -5.491 -0.04 -0.01    -0.021 A 
DOCKED: ATOM      7  C   UNL d   1     -14.565  18.078  -6.853 -0.04 -0.01    -0.025 A 
DOCKED: ATOM      8  C   UNL d   1     -13.721  16.976  -7.022 -0.05 +0.05    +0.066 A 
DOCKED: ATOM      9  C   UNL d   1     -15.269  18.869  -7.967 -0.01 +0.01    +0.051 C 
DOCKED: ATOM     10  C   UNL d   1     -12.591  15.392  -8.522 -0.11 +0.05    +0.066 A 
DOCKED: ATOM     11  C   UNL d   1     -12.174  14.939  -9.792 -0.13 -0.01    -0.021 A 
DOCKED: ATOM     12  C   UNL d   1     -11.374  13.815  -9.566 -0.19 +0.00    +0.000 A 
DOCKED: ATOM     13  C   UNL d   1     -11.351  13.675  -8.178 -0.20 +0.04    +0.070 A 
DOCKED: ATOM     14  C   UNL d   1     -12.455  15.606 -11.114 -0.07 +0.02    +0.052 C 
DOCKED: ATOM     15  C   UNL d   1     -10.651  12.320  -6.164 -0.25 +0.02    +0.066 A 
DOCKED: ATOM     16  C   UNL d   1     -10.117  11.163  -5.616 -0.30 -0.01    -0.021 A 
DOCKED: ATOM     17  C   UNL d   1     -10.282  11.287  -4.229 -0.41 +0.00    +0.000 A 
DOCKED: ATOM     18  C   UNL d   1     -10.892  12.522  -4.039 -0.26 +0.02    +0.070 A 
DOCKED: ATOM     19  C   UNL d   1      -9.495  10.028  -6.398 -0.29 +0.01    +0.052 C 
DOCKED: ATOM     20  C   UNL d   1     -11.976  14.256  -2.562 -0.22 +0.02    +0.066 A 
DOCKED: ATOM     21  C   UNL d   1     -12.350  14.686  -1.291 -0.27 -0.00    -0.025 A 
DOCKED: ATOM     22  C   UNL d   1     -13.026  15.877  -1.484 -0.17 -0.00    -0.021 A 
DOCKED: ATOM     23  C   UNL d   1     -13.042  16.110  -2.875 -0.14 +0.02    +0.066 A 
DOCKED: ATOM     24  C   UNL d   1     -12.093  13.988   0.042 -0.27 +0.01    +0.051 C 
DOCKED: ATOM     25  N   UNL d   1     -13.246  16.479  -5.820 -0.01 -0.19    -0.248 N 
DOCKED: ATOM     26  N   UNL d   1     -12.041  14.662  -7.546 -0.10 -0.21    -0.248 N 
DOCKED: ATOM     27  N   UNL d   1     -11.124  13.096  -5.214 -0.14 -0.11    -0.248 N 
DOCKED: ATOM     28  N   UNL d   1     -12.410  15.130  -3.532 -0.05 -0.10    -0.248 N 
DOCKED: ATOM     29 FE   UNL d   1     -12.122  14.688  -5.495 -0.05 +0.00    +0.000 Fe
DOCKED: ENDROOT
DOCKED: BRANCH   6  30
DOCKED: ATOM     30  C   UNL d   1     -15.472  19.345  -4.777 -0.01 +0.01    +0.052 C 
DOCKED: BRANCH  30  31
DOCKED: ATOM     31  C   UNL d   1     -16.921  18.875  -4.651 -0.00 +0.01    +0.115 C 
DOCKED: BRANCH  31  32
DOCKED: ATOM     32  C   UNL d   1     -17.149  17.527  -5.301 +0.00 +0.01    +0.139 C 
DOCKED: ATOM     33  O   UNL d   1     -17.846  17.452  -6.301 +0.00 -0.06    -0.650 OA
DOCKED: BRANCH  32  34
DOCKED: ATOM     34  O   UNL d   1     -16.564  16.398  -4.836 +0.01 -0.10    -0.776 OA
DOCKED: ATOM     35  H   UNL d   1     -16.846  15.928  -4.039 +0.00 +0.02    +0.167 HD
DOCKED: ENDBRANCH  32  34
DOCKED: ENDBRANCH  31  32
DOCKED: ENDBRANCH  30  31
DOCKED: ENDBRANCH   6  30
DOCKED: BRANCH  29  36
DOCKED: ATOM     36  C   UNL d   1     -13.950  13.664  -5.556 -0.04 +0.05    +0.190 C 
DOCKED: BRANCH  36  37
DOCKED: ATOM     37  O   UNL d   1     -15.227  13.629  -4.987 -0.00 -0.07    -0.399 OA
DOCKED: ATOM     38  H   UNL d   1     -15.377  14.550  -4.635 +0.01 +0.04    +0.209 HD
DOCKED: ENDBRANCH  36  37
DOCKED: ENDBRANCH  29  36
DOCKED: BRANCH  22  39
DOCKED: ATOM     39  C   UNL d   1     -13.676  16.707  -0.392 -0.11 +0.01    +0.052 C 
DOCKED: BRANCH  39  40
DOCKED: ATOM     40  C   UNL d   1     -15.202  16.744  -0.574 -0.03 +0.01    +0.115 C 
DOCKED: BRANCH  40  41
DOCKED: ATOM     41  C   UNL d   1     -15.775  15.542  -1.295 -0.02 +0.01    +0.139 C 
DOCKED: ATOM     42  O   UNL d   1     -16.013  14.523  -0.662 +0.01 -0.05    -0.650 OA
DOCKED: BRANCH  41  43
DOCKED: ATOM     43  O   UNL d   1     -16.112  15.592  -2.602 +0.02 -0.08    -0.776 OA
DOCKED: ATOM     44  H   UNL d   1     -15.660  15.067  -3.276 +0.01 +0.02    +0.167 HD
DOCKED: ENDBRANCH  41  43
DOCKED: ENDBRANCH  40  41
DOCKED: ENDBRANCH  39  40
DOCKED: ENDBRANCH  22  39
DOCKED: BRANCH  12  45
DOCKED: ATOM     45  C   UNL d   1     -10.617  12.875 -10.494 -0.09 +0.00    +0.004 C 
DOCKED: ATOM     46  C   UNL d   1     -10.762  11.571 -10.713 -0.10 +0.00    +0.012 C 
DOCKED: ENDBRANCH  12  45
DOCKED: BRANCH  17  47
DOCKED: ATOM     47  C   UNL d   1      -9.954  10.320  -3.139 -0.52 +0.00    +0.004 C 
DOCKED: ATOM     48  C   UNL d   1     -10.615   9.177  -2.943 -0.40 +0.00    +0.012 C 
DOCKED: ENDBRANCH  17  47
DOCKED: TORSDOF 12
DOCKED: TER
DOCKED: ENDMDL
________________________________________________________________________________


	BEGINNING GENETIC ALGORITHM DOCKING 47 of 100
Run: 47 Seed: 621847061 318692137 [ Run 47 of 100 GA/GALS ]
Beginning LAMARCKIAN GENETIC ALGORITHM (LGA), with a maximum of 25000000 energy evaluations.

Final-Value: -9.256


	FINAL GENETIC ALGORITHM DOCKED STATE
	_______________________________________________


Detailed state:  trans 11.693 -7.770 1.809 quatxyzw 0.738853 0.003573 0.567717 0.363017 center 8.781 34.984 -0.736 ntor 12 -160.1108 102.6891 28.4817 115.5408 63.9505 129.6869 28.5175 -171.3824 -175.8026 66.9067 179.6615 -0.1885
State:	 11.693  -7.770   1.809   0.793  0.004  0.609 137.429   -160.11  102.69   28.48  115.54   63.95  129.69   28.52 -171.38 -175.80   66.91  179.66   -0.19

DOCKED: MODEL       47
DOCKED: USER    Run = 47
DOCKED: USER    DPF = D:/Protein_go_brrr/autodock/final/mut_K82N/heme_Co/dock.dpf
DOCKED: USER  
DOCKED: USER    Estimated Free Energy of Binding    =   -3.52 kcal/mol  [=(1)+(2)+(3)-(4)]
DOCKED: USER    Estimated Inhibition Constant, Ki   =    2.64 mM (millimolar)  [Temperature = 298.15 K]
DOCKED: USER    
DOCKED: USER    (1) Final Intermolecular Energy     =   -7.10 kcal/mol
DOCKED: USER        vdW + Hbond + desolv Energy     =   -6.84 kcal/mol
DOCKED: USER        Electrostatic Energy            =   -0.26 kcal/mol
DOCKED: USER    (2) Final Total Internal Energy     =   -2.16 kcal/mol
DOCKED: USER    (3) Torsional Free Energy           =   +3.58 kcal/mol
DOCKED: USER    (4) Unbound System's Energy  [=(2)] =   -2.16 kcal/mol
DOCKED: USER    
DOCKED: USER    
DOCKED: USER    NEWDPF move heme_Co_opt.pdbqt
DOCKED: USER    NEWDPF about 8.781000 34.984000 -0.736000
DOCKED: USER    NEWDPF tran0 11.693439 -7.770454 1.809215
DOCKED: USER    NEWDPF quaternion0 0.738853 0.003573 0.567717 0.363017
DOCKED: USER    NEWDPF axisangle0 0.792946 0.003835 0.609280 137.428841
DOCKED: USER    NEWDPF quat0 0.792946 0.003835 0.609280 137.428841
DOCKED: USER    NEWDPF dihe0 -160.11 102.69 28.48 115.54 63.95 129.69 28.52 -171.38 -175.80 66.91 179.66 -0.19 
DOCKED: USER  keepresnum = 1 
DOCKED: USER  
DOCKED: REMARK  12 active torsions:
DOCKED: REMARK  status: ('A' for Active; 'I' for Inactive)
DOCKED: REMARK    1  A    between atoms: C_6  and  C_10 
DOCKED: REMARK    2  A    between atoms: C_10  and  C_11 
DOCKED: REMARK    3  A    between atoms: C_11  and  C_12 
DOCKED: REMARK    4  A    between atoms: C_12  and  O_14 
DOCKED: REMARK    5  A    between atoms: C_17  and  C_20 
DOCKED: REMARK    6  A    between atoms: C_24  and  C_27 
DOCKED: REMARK    7  A    between atoms: C_31  and  C_34 
DOCKED: REMARK    8  A    between atoms: C_34  and  C_35 
DOCKED: REMARK    9  A    between atoms: C_35  and  C_36 
DOCKED: REMARK   10  A    between atoms: C_36  and  O_38 
DOCKED: REMARK   11  A    between atoms: FE_43  and  C_44 
DOCKED: REMARK   12  A    between atoms: C_44  and  O_45 
DOCKED: USER                              x       y       z     vdW  Elec       q    Type
DOCKED: USER                           _______ _______ _______ _____ _____    ______ ____
DOCKED: ROOT
DOCKED: ATOM      1  C   UNL d   1      10.503  -7.810  -0.007 -0.11 -0.00    +0.064 A 
DOCKED: ATOM      2  C   UNL d   1      12.964  -4.345   2.126 -0.12 -0.00    +0.064 C 
DOCKED: ATOM      3  C   UNL d   1      13.942  -7.245   5.795 -0.17 +0.00    +0.064 A 
DOCKED: ATOM      4  C   UNL d   1      11.762 -10.913   3.458 -0.10 +0.02    +0.064 A 
DOCKED: ATOM      5  C   UNL d   1      11.073  -6.639   0.323 -0.23 -0.00    +0.066 A 
DOCKED: ATOM      6  C   UNL d   1      11.067  -5.533  -0.548 -0.22 +0.00    -0.021 A 
DOCKED: ATOM      7  C   UNL d   1      11.802  -4.538   0.066 -0.22 +0.00    -0.025 A 
DOCKED: ATOM      8  C   UNL d   1      12.211  -5.073   1.292 -0.18 -0.00    +0.066 A 
DOCKED: ATOM      9  C   UNL d   1      12.117  -3.132  -0.469 -0.27 +0.01    +0.051 C 
DOCKED: ATOM     10  C   UNL d   1      13.409  -4.801   3.419 -0.05 +0.00    +0.066 A 
DOCKED: ATOM     11  C   UNL d   1      14.081  -4.038   4.398 -0.15 -0.00    -0.021 A 
DOCKED: ATOM     12  C   UNL d   1      14.351  -4.907   5.458 -0.17 +0.00    +0.000 A 
DOCKED: ATOM     13  C   UNL d   1      13.814  -6.130   5.055 -0.17 +0.01    +0.070 A 
DOCKED: ATOM     14  C   UNL d   1      14.352  -2.556   4.343 -0.15 +0.00    +0.052 C 
DOCKED: ATOM     15  C   UNL d   1      13.497  -8.595   5.508 -0.17 +0.01    +0.066 A 
DOCKED: ATOM     16  C   UNL d   1      13.788  -9.732   6.248 -0.13 -0.00    -0.021 A 
DOCKED: ATOM     17  C   UNL d   1      13.164 -10.793   5.577 -0.18 +0.00    +0.000 A 
DOCKED: ATOM     18  C   UNL d   1      12.524 -10.215   4.486 -0.20 +0.01    +0.070 A 
DOCKED: ATOM     19  C   UNL d   1      14.617  -9.767   7.513 -0.08 +0.00    +0.052 C 
DOCKED: ATOM     20  C   UNL d   1      11.204 -10.385   2.343 -0.09 +0.01    +0.066 A 
DOCKED: ATOM     21  C   UNL d   1      10.525 -11.165   1.410 -0.17 -0.00    -0.025 A 
DOCKED: ATOM     22  C   UNL d   1      10.126 -10.293   0.414 -0.23 -0.00    -0.021 A 
DOCKED: ATOM     23  C   UNL d   1      10.595  -9.015   0.786 -0.26 +0.00    +0.066 A 
DOCKED: ATOM     24  C   UNL d   1      10.286 -12.672   1.454 -0.19 +0.01    +0.051 C 
DOCKED: ATOM     25  N   UNL d   1      11.768  -6.372   1.481 -0.18 +0.00    -0.248 N 
DOCKED: ATOM     26  N   UNL d   1      13.196  -6.050   3.846 -0.11 -0.02    -0.248 N 
DOCKED: ATOM     27  N   UNL d   1      12.769  -8.909   4.459 -0.14 -0.02    -0.248 N 
DOCKED: ATOM     28  N   UNL d   1      11.251  -9.067   1.952 -0.18 -0.02    -0.248 N 
DOCKED: ATOM     29 FE   UNL d   1      12.296  -7.718   3.057 -0.05 +0.00    +0.000 Fe
DOCKED: ENDROOT
DOCKED: BRANCH   6  30
DOCKED: ATOM     30  C   UNL d   1      10.449  -5.476  -1.942 -0.22 +0.00    +0.052 C 
DOCKED: BRANCH  30  31
DOCKED: ATOM     31  C   UNL d   1      11.507  -5.752  -3.010 -0.12 +0.01    +0.115 C 
DOCKED: BRANCH  31  32
DOCKED: ATOM     32  C   UNL d   1      12.863  -6.061  -2.413 -0.04 +0.01    +0.139 C 
DOCKED: ATOM     33  O   UNL d   1      13.721  -5.191  -2.386 +0.03 -0.08    -0.650 OA
DOCKED: BRANCH  32  34
DOCKED: ATOM     34  O   UNL d   1      13.146  -7.264  -1.860 +0.05 -0.02    -0.776 OA
DOCKED: ATOM     35  H   UNL d   1      13.905  -7.432  -1.284 +0.01 +0.00    +0.167 HD
DOCKED: ENDBRANCH  32  34
DOCKED: ENDBRANCH  31  32
DOCKED: ENDBRANCH  30  31
DOCKED: ENDBRANCH   6  30
DOCKED: BRANCH  29  36
DOCKED: ATOM     36  C   UNL d   1      14.036  -8.137   1.964 -0.04 +0.01    +0.190 C 
DOCKED: BRANCH  36  37
DOCKED: ATOM     37  O   UNL d   1      14.567  -8.134   0.670 +0.00 -0.01    -0.399 OA
DOCKED: ATOM     38  H   UNL d   1      13.783  -7.983   0.072 +0.02 +0.00    +0.209 HD
DOCKED: ENDBRANCH  36  37
DOCKED: ENDBRANCH  29  36
DOCKED: BRANCH  22  39
DOCKED: ATOM     39  C   UNL d   1       9.391 -10.683  -0.855 -0.21 +0.00    +0.052 C 
DOCKED: BRANCH  39  40
DOCKED: ATOM     40  C   UNL d   1       7.892 -10.365  -0.733 -0.29 +0.01    +0.115 C 
DOCKED: BRANCH  40  41
DOCKED: ATOM     41  C   UNL d   1       6.986 -11.573  -0.841 -0.39 +0.02    +0.139 C 
DOCKED: ATOM     42  O   UNL d   1       7.310 -12.501  -1.569 +0.04 -0.12    -0.650 OA
DOCKED: BRANCH  41  43
DOCKED: ATOM     43  O   UNL d   1       5.870 -11.694  -0.088 +0.03 -0.10    -0.776 OA
DOCKED: ATOM     44  H   UNL d   1       5.324 -10.936   0.156 -0.33 -0.02    +0.167 HD
DOCKED: ENDBRANCH  41  43
DOCKED: ENDBRANCH  40  41
DOCKED: ENDBRANCH  39  40
DOCKED: ENDBRANCH  22  39
DOCKED: BRANCH  12  45
DOCKED: ATOM     45  C   UNL d   1      15.033  -4.720   6.807 -0.16 +0.00    +0.004 C 
DOCKED: ATOM     46  C   UNL d   1      14.525  -4.675   8.036 -0.29 +0.00    +0.012 C 
DOCKED: ENDBRANCH  12  45
DOCKED: BRANCH  17  47
DOCKED: ATOM     47  C   UNL d   1      13.186 -12.256   5.876 -0.13 +0.00    +0.004 C 
DOCKED: ATOM     48  C   UNL d   1      13.074 -12.758   7.109 -0.15 +0.00    +0.012 C 
DOCKED: ENDBRANCH  17  47
DOCKED: TORSDOF 12
DOCKED: TER
DOCKED: ENDMDL
________________________________________________________________________________


	BEGINNING GENETIC ALGORITHM DOCKING 48 of 100
Run: 48 Seed: 1595433607 1782646228 [ Run 48 of 100 GA/GALS ]
Beginning LAMARCKIAN GENETIC ALGORITHM (LGA), with a maximum of 25000000 energy evaluations.

Final-Value: -10.070


	FINAL GENETIC ALGORITHM DOCKED STATE
	_______________________________________________


Detailed state:  trans 12.520 -6.414 2.549 quatxyzw -0.719841 -0.002532 -0.586782 -0.370821 center 8.781 34.984 -0.736 ntor 12 63.5460 110.6965 -138.2488 129.0546 116.5739 102.6649 40.2108 110.9319 156.4823 139.6813 -152.7706 -179.8179
State:	 12.520  -6.414   2.549  -0.775 -0.003 -0.632 -136.467     63.55  110.70 -138.25  129.05  116.57  102.66   40.21  110.93  156.48  139.68 -152.77 -179.82

DOCKED: MODEL       48
DOCKED: USER    Run = 48
DOCKED: USER    DPF = D:/Protein_go_brrr/autodock/final/mut_K82N/heme_Co/dock.dpf
DOCKED: USER  
DOCKED: USER    Estimated Free Energy of Binding    =   -2.52 kcal/mol  [=(1)+(2)+(3)-(4)]
DOCKED: USER    Estimated Inhibition Constant, Ki   =   14.13 mM (millimolar)  [Temperature = 298.15 K]
DOCKED: USER    
DOCKED: USER    (1) Final Intermolecular Energy     =   -6.10 kcal/mol
DOCKED: USER        vdW + Hbond + desolv Energy     =   -6.00 kcal/mol
DOCKED: USER        Electrostatic Energy            =   -0.10 kcal/mol
DOCKED: USER    (2) Final Total Internal Energy     =   -3.97 kcal/mol
DOCKED: USER    (3) Torsional Free Energy           =   +3.58 kcal/mol
DOCKED: USER    (4) Unbound System's Energy  [=(2)] =   -3.97 kcal/mol
DOCKED: USER    
DOCKED: USER    
DOCKED: USER    NEWDPF move heme_Co_opt.pdbqt
DOCKED: USER    NEWDPF about 8.781000 34.984000 -0.736000
DOCKED: USER    NEWDPF tran0 12.520029 -6.414053 2.549055
DOCKED: USER    NEWDPF quaternion0 -0.719841 -0.002532 -0.586782 -0.370821
DOCKED: USER    NEWDPF axisangle0 -0.775103 -0.002727 -0.631829 -136.467430
DOCKED: USER    NEWDPF quat0 -0.775103 -0.002727 -0.631829 -136.467430
DOCKED: USER    NEWDPF dihe0 63.55 110.70 -138.25 129.05 116.57 102.66 40.21 110.93 156.48 139.68 -152.77 -179.82 
DOCKED: USER  keepresnum = 1 
DOCKED: USER  
DOCKED: REMARK  12 active torsions:
DOCKED: REMARK  status: ('A' for Active; 'I' for Inactive)
DOCKED: REMARK    1  A    between atoms: C_6  and  C_10 
DOCKED: REMARK    2  A    between atoms: C_10  and  C_11 
DOCKED: REMARK    3  A    between atoms: C_11  and  C_12 
DOCKED: REMARK    4  A    between atoms: C_12  and  O_14 
DOCKED: REMARK    5  A    between atoms: C_17  and  C_20 
DOCKED: REMARK    6  A    between atoms: C_24  and  C_27 
DOCKED: REMARK    7  A    between atoms: C_31  and  C_34 
DOCKED: REMARK    8  A    between atoms: C_34  and  C_35 
DOCKED: REMARK    9  A    between atoms: C_35  and  C_36 
DOCKED: REMARK   10  A    between atoms: C_36  and  O_38 
DOCKED: REMARK   11  A    between atoms: FE_43  and  C_44 
DOCKED: REMARK   12  A    between atoms: C_44  and  O_45 
DOCKED: USER                              x       y       z     vdW  Elec       q    Type
DOCKED: USER                           _______ _______ _______ _____ _____    ______ ____
DOCKED: ROOT
DOCKED: ATOM      1  C   UNL d   1      11.420  -6.397   0.677 -0.23 -0.00    +0.064 A 
DOCKED: ATOM      2  C   UNL d   1      13.793  -3.007   3.019 -0.13 +0.00    +0.064 C 
DOCKED: ATOM      3  C   UNL d   1      14.573  -6.010   6.652 -0.15 +0.00    +0.064 A 
DOCKED: ATOM      4  C   UNL d   1      12.489  -9.600   4.115 -0.22 +0.01    +0.064 A 
DOCKED: ATOM      5  C   UNL d   1      11.980  -5.240   1.066 -0.19 -0.00    +0.066 A 
DOCKED: ATOM      6  C   UNL d   1      12.023  -4.111   0.224 -0.22 +0.00    -0.021 A 
DOCKED: ATOM      7  C   UNL d   1      12.732  -3.137   0.900 -0.20 +0.00    -0.025 A 
DOCKED: ATOM      8  C   UNL d   1      13.077  -3.708   2.130 -0.12 -0.00    +0.066 A 
DOCKED: ATOM      9  C   UNL d   1      13.081  -1.720   0.419 -0.22 +0.01    +0.051 C 
DOCKED: ATOM     10  C   UNL d   1      14.172  -3.501   4.319 -0.12 +0.01    +0.066 A 
DOCKED: ATOM     11  C   UNL d   1      14.800  -2.768   5.350 -0.14 -0.00    -0.021 A 
DOCKED: ATOM     12  C   UNL d   1      15.012  -3.667   6.399 -0.15 +0.00    +0.000 A 
DOCKED: ATOM     13  C   UNL d   1      14.488  -4.875   5.937 -0.15 +0.01    +0.070 A 
DOCKED: ATOM     14  C   UNL d   1      15.081  -1.287   5.348 -0.11 +0.00    +0.052 C 
DOCKED: ATOM     15  C   UNL d   1      14.135  -7.349   6.308 -0.15 +0.00    +0.066 A 
DOCKED: ATOM     16  C   UNL d   1      14.383  -8.507   7.031 -0.09 -0.00    -0.021 A 
DOCKED: ATOM     17  C   UNL d   1      13.787  -9.546   6.302 -0.13 +0.00    +0.000 A 
DOCKED: ATOM     18  C   UNL d   1      13.205  -8.934   5.196 -0.19 +0.01    +0.070 A 
DOCKED: ATOM     19  C   UNL d   1      15.149  -8.581   8.333 -0.12 +0.00    +0.052 C 
DOCKED: ATOM     20  C   UNL d   1      11.990  -9.038   2.988 -0.24 +0.01    +0.066 A 
DOCKED: ATOM     21  C   UNL d   1      11.354  -9.789   2.002 -0.23 -0.00    -0.025 A 
DOCKED: ATOM     22  C   UNL d   1      11.008  -8.887   1.012 -0.25 -0.00    -0.021 A 
DOCKED: ATOM     23  C   UNL d   1      11.466  -7.623   1.440 -0.24 +0.00    +0.066 A 
DOCKED: ATOM     24  C   UNL d   1      11.103 -11.294   1.994 -0.15 +0.01    +0.051 C 
DOCKED: ATOM     25  N   UNL d   1      12.619  -5.007   2.262 -0.10 +0.00    -0.248 N 
DOCKED: ATOM     26  N   UNL d   1      13.930  -4.759   4.702 -0.11 -0.02    -0.248 N 
DOCKED: ATOM     27  N   UNL d   1      13.458  -7.630   5.217 -0.13 -0.02    -0.248 N 
DOCKED: ATOM     28  N   UNL d   1      12.063  -7.711   2.635 -0.15 -0.01    -0.248 N 
DOCKED: ATOM     29 FE   UNL d   1      13.061  -6.399   3.826 -0.05 +0.00    +0.000 Fe
DOCKED: ENDROOT
DOCKED: BRANCH   6  30
DOCKED: ATOM     30  C   UNL d   1      11.474  -4.013  -1.195 -0.27 +0.01    +0.052 C 
DOCKED: BRANCH  30  31
DOCKED: ATOM     31  C   UNL d   1      12.294  -4.882  -2.149 -0.13 +0.02    +0.115 C 
DOCKED: BRANCH  31  32
DOCKED: ATOM     32  C   UNL d   1      13.708  -5.102  -1.657 -0.04 +0.01    +0.139 C 
DOCKED: ATOM     33  O   UNL d   1      14.585  -4.312  -1.974 +0.03 -0.10    -0.650 OA
DOCKED: BRANCH  32  34
DOCKED: ATOM     34  O   UNL d   1      14.030  -6.126  -0.833 +0.05 -0.03    -0.776 OA
DOCKED: ATOM     35  H   UNL d   1      13.898  -7.060  -1.049 +0.02 +0.00    +0.167 HD
DOCKED: ENDBRANCH  32  34
DOCKED: ENDBRANCH  31  32
DOCKED: ENDBRANCH  30  31
DOCKED: ENDBRANCH   6  30
DOCKED: BRANCH  29  36
DOCKED: ATOM     36  C   UNL d   1      14.850  -6.801   2.809 -0.03 +0.01    +0.190 C 
DOCKED: BRANCH  36  37
DOCKED: ATOM     37  O   UNL d   1      15.365  -7.154   1.557 +0.00 -0.01    -0.399 OA
DOCKED: ATOM     38  H   UNL d   1      14.564  -7.275   0.975 +0.02 +0.00    +0.209 HD
DOCKED: ENDBRANCH  36  37
DOCKED: ENDBRANCH  29  36
DOCKED: BRANCH  22  39
DOCKED: ATOM     39  C   UNL d   1      10.334  -9.239  -0.301 -0.18 +0.00    +0.052 C 
DOCKED: BRANCH  39  40
DOCKED: ATOM     40  C   UNL d   1      11.352  -9.824  -1.294 -0.07 +0.00    +0.115 C 
DOCKED: BRANCH  40  41
DOCKED: ATOM     41  C   UNL d   1      12.652  -9.052  -1.385 -0.03 +0.00    +0.139 C 
DOCKED: ATOM     42  O   UNL d   1      12.909  -8.432  -2.407 +0.02 -0.01    -0.650 OA
DOCKED: BRANCH  41  43
DOCKED: ATOM     43  O   UNL d   1      13.496  -8.957  -0.335 +0.03 -0.02    -0.776 OA
DOCKED: ATOM     44  H   UNL d   1      13.874  -8.116  -0.046 +0.02 +0.00    +0.167 HD
DOCKED: ENDBRANCH  41  43
DOCKED: ENDBRANCH  40  41
DOCKED: ENDBRANCH  39  40
DOCKED: ENDBRANCH  22  39
DOCKED: BRANCH  12  45
DOCKED: ATOM     45  C   UNL d   1      15.628  -3.520   7.784 -0.15 +0.00    +0.004 C 
DOCKED: ATOM     46  C   UNL d   1      15.110  -3.737   8.990 -0.24 -0.00    +0.012 C 
DOCKED: ENDBRANCH  12  45
DOCKED: BRANCH  17  47
DOCKED: ATOM     47  C   UNL d   1      13.785 -11.016   6.562 -0.15 +0.00    +0.004 C 
DOCKED: ATOM     48  C   UNL d   1      12.805 -11.649   7.212 -0.21 +0.00    +0.012 C 
DOCKED: ENDBRANCH  17  47
DOCKED: TORSDOF 12
DOCKED: TER
DOCKED: ENDMDL
________________________________________________________________________________


	BEGINNING GENETIC ALGORITHM DOCKING 49 of 100
Run: 49 Seed: 697615091 963859784 [ Run 49 of 100 GA/GALS ]
Beginning LAMARCKIAN GENETIC ALGORITHM (LGA), with a maximum of 25000000 energy evaluations.

Final-Value: -11.000


	FINAL GENETIC ALGORITHM DOCKED STATE
	_______________________________________________


Detailed state:  trans -8.488 7.563 -12.850 quatxyzw -0.512117 0.599873 0.321357 -0.524041 center 8.781 34.984 -0.736 ntor 12 158.6439 120.8498 -66.9532 115.3846 65.5189 141.6246 -125.7115 80.3704 -140.9262 -67.2540 176.2140 2.2303
State:	 -8.488   7.563 -12.850  -0.601  0.704  0.377 -116.793    158.64  120.85  -66.95  115.38   65.52  141.62 -125.71   80.37 -140.93  -67.25  176.21    2.23

DOCKED: MODEL       49
DOCKED: USER    Run = 49
DOCKED: USER    DPF = D:/Protein_go_brrr/autodock/final/mut_K82N/heme_Co/dock.dpf
DOCKED: USER  
DOCKED: USER    Estimated Free Energy of Binding    =   -5.32 kcal/mol  [=(1)+(2)+(3)-(4)]
DOCKED: USER    Estimated Inhibition Constant, Ki   =  125.79 uM (micromolar)  [Temperature = 298.15 K]
DOCKED: USER    
DOCKED: USER    (1) Final Intermolecular Energy     =   -8.90 kcal/mol
DOCKED: USER        vdW + Hbond + desolv Energy     =   -7.06 kcal/mol
DOCKED: USER        Electrostatic Energy            =   -1.84 kcal/mol
DOCKED: USER    (2) Final Total Internal Energy     =   -2.10 kcal/mol
DOCKED: USER    (3) Torsional Free Energy           =   +3.58 kcal/mol
DOCKED: USER    (4) Unbound System's Energy  [=(2)] =   -2.10 kcal/mol
DOCKED: USER    
DOCKED: USER    
DOCKED: USER    NEWDPF move heme_Co_opt.pdbqt
DOCKED: USER    NEWDPF about 8.781000 34.984000 -0.736000
DOCKED: USER    NEWDPF tran0 -8.487825 7.563431 -12.849537
DOCKED: USER    NEWDPF quaternion0 -0.512117 0.599873 0.321357 -0.524041
DOCKED: USER    NEWDPF axisangle0 -0.601293 0.704329 0.377315 -116.792641
DOCKED: USER    NEWDPF quat0 -0.601293 0.704329 0.377315 -116.792641
DOCKED: USER    NEWDPF dihe0 158.64 120.85 -66.95 115.38 65.52 141.62 -125.71 80.37 -140.93 -67.25 176.21 2.23 
DOCKED: USER  keepresnum = 1 
DOCKED: USER  
DOCKED: REMARK  12 active torsions:
DOCKED: REMARK  status: ('A' for Active; 'I' for Inactive)
DOCKED: REMARK    1  A    between atoms: C_6  and  C_10 
DOCKED: REMARK    2  A    between atoms: C_10  and  C_11 
DOCKED: REMARK    3  A    between atoms: C_11  and  C_12 
DOCKED: REMARK    4  A    between atoms: C_12  and  O_14 
DOCKED: REMARK    5  A    between atoms: C_17  and  C_20 
DOCKED: REMARK    6  A    between atoms: C_24  and  C_27 
DOCKED: REMARK    7  A    between atoms: C_31  and  C_34 
DOCKED: REMARK    8  A    between atoms: C_34  and  C_35 
DOCKED: REMARK    9  A    between atoms: C_35  and  C_36 
DOCKED: REMARK   10  A    between atoms: C_36  and  O_38 
DOCKED: REMARK   11  A    between atoms: FE_43  and  C_44 
DOCKED: REMARK   12  A    between atoms: C_44  and  O_45 
DOCKED: USER                              x       y       z     vdW  Elec       q    Type
DOCKED: USER                           _______ _______ _______ _____ _____    ______ ____
DOCKED: ROOT
DOCKED: ATOM      1  C   UNL d   1      -9.360   7.451 -10.864 -0.08 +0.01    +0.064 A 
DOCKED: ATOM      2  C   UNL d   1      -5.618   9.831 -12.580 -0.21 -0.01    +0.064 C 
DOCKED: ATOM      3  C   UNL d   1      -6.165   7.706 -16.824 -0.17 -0.02    +0.064 A 
DOCKED: ATOM      4  C   UNL d   1     -10.220   5.557 -15.211 -0.20 +0.01    +0.064 A 
DOCKED: ATOM      5  C   UNL d   1      -8.275   8.230 -11.010 -0.11 +0.01    +0.066 A 
DOCKED: ATOM      6  C   UNL d   1      -7.825   9.085  -9.985 -0.19 -0.00    -0.021 A 
DOCKED: ATOM      7  C   UNL d   1      -6.753   9.790 -10.496 -0.30 +0.00    -0.025 A 
DOCKED: ATOM      8  C   UNL d   1      -6.585   9.323 -11.805 -0.20 -0.01    +0.066 A 
DOCKED: ATOM      9  C   UNL d   1      -5.911  10.864  -9.793 -0.44 -0.01    +0.051 C 
DOCKED: ATOM     10  C   UNL d   1      -5.352   9.395 -13.928 -0.19 -0.01    +0.066 A 
DOCKED: ATOM     11  C   UNL d   1      -4.268   9.787 -14.743 -0.23 +0.01    -0.021 A 
DOCKED: ATOM     12  C   UNL d   1      -4.450   9.149 -15.974 -0.17 -0.00    +0.000 A 
DOCKED: ATOM     13  C   UNL d   1      -5.621   8.408 -15.815 -0.17 -0.01    +0.070 A 
DOCKED: ATOM     14  C   UNL d   1      -3.097  10.637 -14.322 -0.36 -0.02    +0.052 C 
DOCKED: ATOM     15  C   UNL d   1      -7.390   6.931 -16.851 -0.15 -0.01    +0.066 A 
DOCKED: ATOM     16  C   UNL d   1      -7.972   6.348 -17.968 -0.15 +0.00    -0.021 A 
DOCKED: ATOM     17  C   UNL d   1      -9.143   5.729 -17.508 -0.22 +0.00    +0.000 A 
DOCKED: ATOM     18  C   UNL d   1      -9.175   5.970 -16.138 -0.22 +0.01    +0.070 A 
DOCKED: ATOM     19  C   UNL d   1      -7.416   6.401 -19.374 -0.15 -0.01    +0.052 C 
DOCKED: ATOM     20  C   UNL d   1     -10.316   5.853 -13.892 -0.15 +0.01    +0.066 A 
DOCKED: ATOM     21  C   UNL d   1     -11.389   5.428 -13.112 -0.11 -0.01    -0.025 A 
DOCKED: ATOM     22  C   UNL d   1     -11.154   5.934 -11.847 -0.08 -0.01    -0.021 A 
DOCKED: ATOM     23  C   UNL d   1      -9.945   6.659 -11.922 -0.09 +0.01    +0.066 A 
DOCKED: ATOM     24  C   UNL d   1     -12.591   4.596 -13.553 -0.10 +0.02    +0.051 C 
DOCKED: ATOM     25  N   UNL d   1      -7.510   8.352 -12.148 -0.06 -0.00    -0.248 N 
DOCKED: ATOM     26  N   UNL d   1      -6.135   8.514 -14.560 -0.05 +0.03    -0.248 N 
DOCKED: ATOM     27  N   UNL d   1      -8.132   6.714 -15.787 -0.13 +0.01    -0.248 N 
DOCKED: ATOM     28  N   UNL d   1      -9.437   6.614 -13.159 -0.07 -0.03    -0.248 N 
DOCKED: ATOM     29 FE   UNL d   1      -7.842   7.483 -14.074 -0.04 -0.00    +0.000 Fe
DOCKED: ENDROOT
DOCKED: BRANCH   6  30
DOCKED: ATOM     30  C   UNL d   1      -8.458   9.266  -8.609 -0.24 +0.01    +0.052 C 
DOCKED: BRANCH  30  31
DOCKED: ATOM     31  C   UNL d   1      -9.325  10.524  -8.578 -0.19 +0.03    +0.115 C 
DOCKED: BRANCH  31  32
DOCKED: ATOM     32  C   UNL d   1     -10.066  10.747  -9.880 -0.10 +0.03    +0.139 C 
DOCKED: ATOM     33  O   UNL d   1     -11.262  10.505  -9.939 +0.03 -0.14    -0.650 OA
DOCKED: BRANCH  32  34
DOCKED: ATOM     34  O   UNL d   1      -9.454  11.254 -10.975 -0.47 -0.30    -0.776 OA
DOCKED: ATOM     35  H   UNL d   1      -9.747  11.095 -11.884 +0.03 +0.04    +0.167 HD
DOCKED: ENDBRANCH  32  34
DOCKED: ENDBRANCH  31  32
DOCKED: ENDBRANCH  30  31
DOCKED: ENDBRANCH   6  30
DOCKED: BRANCH  29  36
DOCKED: ATOM     36  C   UNL d   1      -8.991   9.179 -14.517 -0.04 +0.00    +0.190 C 
DOCKED: BRANCH  36  37
DOCKED: ATOM     37  O   UNL d   1      -9.606  10.292 -13.934 -0.00 -0.02    -0.399 OA
DOCKED: ATOM     38  H   UNL d   1      -9.299  10.286 -12.985 +0.03 +0.02    +0.209 HD
DOCKED: ENDBRANCH  36  37
DOCKED: ENDBRANCH  29  36
DOCKED: BRANCH  22  39
DOCKED: ATOM     39  C   UNL d   1     -12.076   5.782 -10.652 -0.05 +0.02    +0.052 C 
DOCKED: BRANCH  39  40
DOCKED: ATOM     40  C   UNL d   1     -11.533   4.722  -9.679 -0.11 +0.07    +0.115 C 
DOCKED: BRANCH  40  41
DOCKED: ATOM     41  C   UNL d   1     -10.957   5.288  -8.398 -0.05 +0.16    +0.139 C 
DOCKED: ATOM     42  O   UNL d   1      -9.952   4.781  -7.919 -0.29 -1.02    -0.650 OA
DOCKED: BRANCH  41  43
DOCKED: ATOM     43  O   UNL d   1     -11.471   6.393  -7.815 -0.01 -0.81    -0.776 OA
DOCKED: ATOM     44  H   UNL d   1     -11.499   7.250  -8.260 +0.03 +0.10    +0.167 HD
DOCKED: ENDBRANCH  41  43
DOCKED: ENDBRANCH  40  41
DOCKED: ENDBRANCH  39  40
DOCKED: ENDBRANCH  22  39
DOCKED: BRANCH  12  45
DOCKED: ATOM     45  C   UNL d   1      -3.647   9.140 -17.267 -0.16 -0.00    +0.004 C 
DOCKED: ATOM     46  C   UNL d   1      -2.881   8.194 -17.805 -0.25 -0.00    +0.012 C 
DOCKED: ENDBRANCH  12  45
DOCKED: BRANCH  17  47
DOCKED: ATOM     47  C   UNL d   1     -10.201   5.003 -18.272 -0.20 +0.00    +0.004 C 
DOCKED: ATOM     48  C   UNL d   1      -9.938   4.117 -19.235 -0.19 +0.00    +0.012 C 
DOCKED: ENDBRANCH  17  47
DOCKED: TORSDOF 12
DOCKED: TER
DOCKED: ENDMDL
________________________________________________________________________________


	BEGINNING GENETIC ALGORITHM DOCKING 50 of 100
Run: 50 Seed: 562501326 464339078 [ Run 50 of 100 GA/GALS ]
Beginning LAMARCKIAN GENETIC ALGORITHM (LGA), with a maximum of 25000000 energy evaluations.

Final-Value: -9.444


	FINAL GENETIC ALGORITHM DOCKED STATE
	_______________________________________________


Detailed state:  trans -11.638 13.389 -5.772 quatxyzw -0.733805 0.069852 0.667062 -0.108070 center 8.781 34.984 -0.736 ntor 12 -100.0570 94.0654 -77.0370 114.0621 -93.3856 119.3919 37.7145 -26.6978 179.9681 -157.5036 -171.2578 160.8821
State:	-11.638  13.389  -5.772  -0.738  0.070  0.671 -167.592   -100.06   94.07  -77.04  114.06  -93.39  119.39   37.71  -26.70  179.97 -157.50 -171.26  160.88

DOCKED: MODEL       50
DOCKED: USER    Run = 50
DOCKED: USER    DPF = D:/Protein_go_brrr/autodock/final/mut_K82N/heme_Co/dock.dpf
DOCKED: USER  
DOCKED: USER    Estimated Free Energy of Binding    =   -2.25 kcal/mol  [=(1)+(2)+(3)-(4)]
DOCKED: USER    Estimated Inhibition Constant, Ki   =   22.27 mM (millimolar)  [Temperature = 298.15 K]
DOCKED: USER    
DOCKED: USER    (1) Final Intermolecular Energy     =   -5.83 kcal/mol
DOCKED: USER        vdW + Hbond + desolv Energy     =   -5.02 kcal/mol
DOCKED: USER        Electrostatic Energy            =   -0.81 kcal/mol
DOCKED: USER    (2) Final Total Internal Energy     =   -3.61 kcal/mol
DOCKED: USER    (3) Torsional Free Energy           =   +3.58 kcal/mol
DOCKED: USER    (4) Unbound System's Energy  [=(2)] =   -3.61 kcal/mol
DOCKED: USER    
DOCKED: USER    
DOCKED: USER    NEWDPF move heme_Co_opt.pdbqt
DOCKED: USER    NEWDPF about 8.781000 34.984000 -0.736000
DOCKED: USER    NEWDPF tran0 -11.637511 13.388669 -5.772138
DOCKED: USER    NEWDPF quaternion0 -0.733805 0.069852 0.667062 -0.108070
DOCKED: USER    NEWDPF axisangle0 -0.738128 0.070264 0.670992 -167.591825
DOCKED: USER    NEWDPF quat0 -0.738128 0.070264 0.670992 -167.591825
DOCKED: USER    NEWDPF dihe0 -100.06 94.07 -77.04 114.06 -93.39 119.39 37.71 -26.70 179.97 -157.50 -171.26 160.88 
DOCKED: USER  keepresnum = 1 
DOCKED: USER  
DOCKED: REMARK  12 active torsions:
DOCKED: REMARK  status: ('A' for Active; 'I' for Inactive)
DOCKED: REMARK    1  A    between atoms: C_6  and  C_10 
DOCKED: REMARK    2  A    between atoms: C_10  and  C_11 
DOCKED: REMARK    3  A    between atoms: C_11  and  C_12 
DOCKED: REMARK    4  A    between atoms: C_12  and  O_14 
DOCKED: REMARK    5  A    between atoms: C_17  and  C_20 
DOCKED: REMARK    6  A    between atoms: C_24  and  C_27 
DOCKED: REMARK    7  A    between atoms: C_31  and  C_34 
DOCKED: REMARK    8  A    between atoms: C_34  and  C_35 
DOCKED: REMARK    9  A    between atoms: C_35  and  C_36 
DOCKED: REMARK   10  A    between atoms: C_36  and  O_38 
DOCKED: REMARK   11  A    between atoms: FE_43  and  C_44 
DOCKED: REMARK   12  A    between atoms: C_44  and  O_45 
DOCKED: USER                              x       y       z     vdW  Elec       q    Type
DOCKED: USER                           _______ _______ _______ _____ _____    ______ ____
DOCKED: ROOT
DOCKED: ATOM      1  C   UNL d   1     -11.135  12.612  -3.808 -0.26 +0.02    +0.064 A 
DOCKED: ATOM      2  C   UNL d   1     -13.953  16.176  -5.209 -0.09 +0.03    +0.064 C 
DOCKED: ATOM      3  C   UNL d   1     -12.588  15.524  -9.741 -0.09 +0.04    +0.064 A 
DOCKED: ATOM      4  C   UNL d   1     -10.001  11.633  -8.388 -0.20 +0.02    +0.064 A 
DOCKED: ATOM      5  C   UNL d   1     -11.978  13.657  -3.853 -0.15 +0.02    +0.066 A 
DOCKED: ATOM      6  C   UNL d   1     -12.658  14.118  -2.709 -0.20 -0.01    -0.021 A 
DOCKED: ATOM      7  C   UNL d   1     -13.491  15.138  -3.126 -0.12 -0.01    -0.025 A 
DOCKED: ATOM      8  C   UNL d   1     -13.272  15.266  -4.501 -0.11 +0.03    +0.066 A 
DOCKED: ATOM      9  C   UNL d   1     -14.463  15.968  -2.273 -0.06 +0.01    +0.051 C 
DOCKED: ATOM     10  C   UNL d   1     -13.775  16.398  -6.622 -0.05 +0.04    +0.066 A 
DOCKED: ATOM     11  C   UNL d   1     -14.355  17.429  -7.394 -0.05 -0.01    -0.021 A 
DOCKED: ATOM     12  C   UNL d   1     -13.937  17.217  -8.711 -0.06 +0.00    +0.000 A 
DOCKED: ATOM     13  C   UNL d   1     -13.126  16.084  -8.643 -0.08 +0.05    +0.070 A 
DOCKED: ATOM     14  C   UNL d   1     -15.171  18.583  -6.872 -0.02 +0.01    +0.052 C 
DOCKED: ATOM     15  C   UNL d   1     -11.774  14.330  -9.860 -0.14 +0.03    +0.066 A 
DOCKED: ATOM     16  C   UNL d   1     -11.371  13.723 -11.041 -0.10 -0.01    -0.021 A 
DOCKED: ATOM     17  C   UNL d   1     -10.627  12.599 -10.656 -0.09 +0.00    +0.000 A 
DOCKED: ATOM     18  C   UNL d   1     -10.620  12.619  -9.265 -0.17 +0.03    +0.070 A 
DOCKED: ATOM     19  C   UNL d   1     -11.697  14.212 -12.434 -0.06 +0.01    +0.052 C 
DOCKED: ATOM     20  C   UNL d   1     -10.054  11.584  -7.035 -0.21 +0.02    +0.066 A 
DOCKED: ATOM     21  C   UNL d   1      -9.448  10.565  -6.303 -0.15 -0.01    -0.025 A 
DOCKED: ATOM     22  C   UNL d   1      -9.734  10.837  -4.978 -0.39 -0.01    -0.021 A 
DOCKED: ATOM     23  C   UNL d   1     -10.517  12.011  -4.967 -0.31 +0.02    +0.066 A 
DOCKED: ATOM     24  C   UNL d   1      -8.653   9.378  -6.841 -0.26 +0.01    +0.051 C 
DOCKED: ATOM     25  N   UNL d   1     -12.335  14.365  -4.978 -0.06 -0.13    -0.248 N 
DOCKED: ATOM     26  N   UNL d   1     -12.984  15.623  -7.372 -0.03 -0.20    -0.248 N 
DOCKED: ATOM     27  N   UNL d   1     -11.338  13.646  -8.825 -0.14 -0.13    -0.248 N 
DOCKED: ATOM     28  N   UNL d   1     -10.715  12.465  -6.211 -0.17 -0.09    -0.248 N 
DOCKED: ATOM     29 FE   UNL d   1     -11.804  13.982  -7.015 -0.04 +0.00    +0.000 Fe
DOCKED: ENDROOT
DOCKED: BRANCH   6  30
DOCKED: ATOM     30  C   UNL d   1     -12.564  13.542  -1.300 -0.23 +0.01    +0.052 C 
DOCKED: BRANCH  30  31
DOCKED: ATOM     31  C   UNL d   1     -13.566  12.402  -1.118 -0.09 +0.02    +0.115 C 
DOCKED: BRANCH  31  32
DOCKED: ATOM     32  C   UNL d   1     -14.413  12.175  -2.352 -0.04 +0.02    +0.139 C 
DOCKED: ATOM     33  O   UNL d   1     -15.485  12.751  -2.459 +0.01 -0.07    -0.650 OA
DOCKED: BRANCH  32  34
DOCKED: ATOM     34  O   UNL d   1     -13.999  11.388  -3.372 +0.05 -0.13    -0.776 OA
DOCKED: ATOM     35  H   UNL d   1     -13.669  11.722  -4.217 +0.03 +0.03    +0.167 HD
DOCKED: ENDBRANCH  32  34
DOCKED: ENDBRANCH  31  32
DOCKED: ENDBRANCH  30  31
DOCKED: ENDBRANCH   6  30
DOCKED: BRANCH  29  36
DOCKED: ATOM     36  C   UNL d   1     -13.497  12.748  -7.105 -0.03 +0.05    +0.190 C 
DOCKED: BRANCH  36  37
DOCKED: ATOM     37  O   UNL d   1     -14.268  11.856  -6.352 +0.00 -0.08    -0.399 OA
DOCKED: ATOM     38  H   UNL d   1     -13.673  11.574  -5.602 +0.03 +0.04    +0.209 HD
DOCKED: ENDBRANCH  36  37
DOCKED: ENDBRANCH  29  36
DOCKED: BRANCH  22  39
DOCKED: ATOM     39  C   UNL d   1      -9.330   9.975  -3.796 -0.33 +0.01    +0.052 C 
DOCKED: BRANCH  39  40
DOCKED: ATOM     40  C   UNL d   1     -10.490   9.060  -3.370 -0.36 +0.04    +0.115 C 
DOCKED: BRANCH  40  41
DOCKED: ATOM     41  C   UNL d   1     -11.581   8.909  -4.409 -0.17 +0.05    +0.139 C 
DOCKED: ATOM     42  O   UNL d   1     -11.732   7.831  -4.965 -0.01 -0.42    -0.650 OA
DOCKED: BRANCH  41  43
DOCKED: ATOM     43  O   UNL d   1     -12.450   9.909  -4.676 +0.09 -0.21    -0.776 OA
DOCKED: ATOM     44  H   UNL d   1     -13.139  10.178  -4.055 +0.04 +0.04    +0.167 HD
DOCKED: ENDBRANCH  41  43
DOCKED: ENDBRANCH  40  41
DOCKED: ENDBRANCH  39  40
DOCKED: ENDBRANCH  22  39
DOCKED: BRANCH  12  45
DOCKED: ATOM     45  C   UNL d   1     -14.194  17.961 -10.014 -0.02 +0.00    +0.004 C 
DOCKED: ATOM     46  C   UNL d   1     -13.401  18.757 -10.728 -0.02 +0.00    +0.012 C 
DOCKED: ENDBRANCH  12  45
DOCKED: BRANCH  17  47
DOCKED: ATOM     47  C   UNL d   1      -9.998  11.536 -11.497 -0.05 +0.00    +0.004 C 
DOCKED: ATOM     48  C   UNL d   1     -10.379  10.257 -11.474 -0.06 +0.00    +0.012 C 
DOCKED: ENDBRANCH  17  47
DOCKED: TORSDOF 12
DOCKED: TER
DOCKED: ENDMDL
________________________________________________________________________________


	BEGINNING GENETIC ALGORITHM DOCKING 51 of 100
Run: 51 Seed: 99931865 2096998782 [ Run 51 of 100 GA/GALS ]
Beginning LAMARCKIAN GENETIC ALGORITHM (LGA), with a maximum of 25000000 energy evaluations.

Final-Value: -11.855


	FINAL GENETIC ALGORITHM DOCKED STATE
	_______________________________________________


Detailed state:  trans -8.596 7.229 -13.002 quatxyzw -0.536634 0.519017 0.378445 -0.547197 center 8.781 34.984 -0.736 ntor 12 -132.4738 109.3080 -47.9792 97.8547 85.3943 132.0850 84.7131 18.1914 63.8330 -22.8605 -7.1146 -10.0268
State:	 -8.596   7.229 -13.002  -0.641  0.620  0.452 -113.650   -132.47  109.31  -47.98   97.85   85.39  132.09   84.71   18.19   63.83  -22.86   -7.11  -10.03

DOCKED: MODEL       51
DOCKED: USER    Run = 51
DOCKED: USER    DPF = D:/Protein_go_brrr/autodock/final/mut_K82N/heme_Co/dock.dpf
DOCKED: USER  
DOCKED: USER    Estimated Free Energy of Binding    =   -6.11 kcal/mol  [=(1)+(2)+(3)-(4)]
DOCKED: USER    Estimated Inhibition Constant, Ki   =   33.35 uM (micromolar)  [Temperature = 298.15 K]
DOCKED: USER    
DOCKED: USER    (1) Final Intermolecular Energy     =   -9.69 kcal/mol
DOCKED: USER        vdW + Hbond + desolv Energy     =   -6.96 kcal/mol
DOCKED: USER        Electrostatic Energy            =   -2.72 kcal/mol
DOCKED: USER    (2) Final Total Internal Energy     =   -2.17 kcal/mol
DOCKED: USER    (3) Torsional Free Energy           =   +3.58 kcal/mol
DOCKED: USER    (4) Unbound System's Energy  [=(2)] =   -2.17 kcal/mol
DOCKED: USER    
DOCKED: USER    
DOCKED: USER    NEWDPF move heme_Co_opt.pdbqt
DOCKED: USER    NEWDPF about 8.781000 34.984000 -0.736000
DOCKED: USER    NEWDPF tran0 -8.595896 7.229230 -13.002019
DOCKED: USER    NEWDPF quaternion0 -0.536634 0.519017 0.378445 -0.547197
DOCKED: USER    NEWDPF axisangle0 -0.641137 0.620089 0.452143 -113.650093
DOCKED: USER    NEWDPF quat0 -0.641137 0.620089 0.452143 -113.650093
DOCKED: USER    NEWDPF dihe0 -132.47 109.31 -47.98 97.85 85.39 132.09 84.71 18.19 63.83 -22.86 -7.11 -10.03 
DOCKED: USER  keepresnum = 1 
DOCKED: USER  
DOCKED: REMARK  12 active torsions:
DOCKED: REMARK  status: ('A' for Active; 'I' for Inactive)
DOCKED: REMARK    1  A    between atoms: C_6  and  C_10 
DOCKED: REMARK    2  A    between atoms: C_10  and  C_11 
DOCKED: REMARK    3  A    between atoms: C_11  and  C_12 
DOCKED: REMARK    4  A    between atoms: C_12  and  O_14 
DOCKED: REMARK    5  A    between atoms: C_17  and  C_20 
DOCKED: REMARK    6  A    between atoms: C_24  and  C_27 
DOCKED: REMARK    7  A    between atoms: C_31  and  C_34 
DOCKED: REMARK    8  A    between atoms: C_34  and  C_35 
DOCKED: REMARK    9  A    between atoms: C_35  and  C_36 
DOCKED: REMARK   10  A    between atoms: C_36  and  O_38 
DOCKED: REMARK   11  A    between atoms: FE_43  and  C_44 
DOCKED: REMARK   12  A    between atoms: C_44  and  O_45 
DOCKED: USER                              x       y       z     vdW  Elec       q    Type
DOCKED: USER                           _______ _______ _______ _____ _____    ______ ____
DOCKED: ROOT
DOCKED: ATOM      1  C   UNL d   1      -9.556   6.741 -11.117 -0.10 +0.01    +0.064 A 
DOCKED: ATOM      2  C   UNL d   1      -6.148   9.856 -12.254 -0.26 -0.01    +0.064 C 
DOCKED: ATOM      3  C   UNL d   1      -6.092   8.213 -16.740 -0.16 -0.01    +0.064 A 
DOCKED: ATOM      4  C   UNL d   1      -9.839   5.289 -15.703 -0.23 +0.01    +0.064 A 
DOCKED: ATOM      5  C   UNL d   1      -8.604   7.688 -11.089 -0.10 +0.01    +0.066 A 
DOCKED: ATOM      6  C   UNL d   1      -8.360   8.469  -9.942 -0.14 -0.00    -0.021 A 
DOCKED: ATOM      7  C   UNL d   1      -7.386   9.386 -10.284 -0.23 -0.00    -0.025 A 
DOCKED: ATOM      8  C   UNL d   1      -7.066   9.116 -11.619 -0.17 -0.00    +0.066 A 
DOCKED: ATOM      9  C   UNL d   1      -6.770  10.481  -9.401 -0.18 -0.00    +0.051 C 
DOCKED: ATOM     10  C   UNL d   1      -5.736   9.636 -13.618 -0.18 -0.01    +0.066 A 
DOCKED: ATOM     11  C   UNL d   1      -4.681  10.285 -14.296 -0.23 +0.01    -0.021 A 
DOCKED: ATOM     12  C   UNL d   1      -4.684   9.784 -15.600 -0.14 -0.00    +0.000 A 
DOCKED: ATOM     13  C   UNL d   1      -5.729   8.860 -15.618 -0.14 -0.01    +0.070 A 
DOCKED: ATOM     14  C   UNL d   1      -3.689  11.245 -13.691 -0.39 -0.02    +0.052 C 
DOCKED: ATOM     15  C   UNL d   1      -7.173   7.270 -16.950 -0.14 -0.01    +0.066 A 
DOCKED: ATOM     16  C   UNL d   1      -7.585   6.747 -18.168 -0.13 +0.00    -0.021 A 
DOCKED: ATOM     17  C   UNL d   1      -8.667   5.906 -17.874 -0.22 -0.00    +0.000 A 
DOCKED: ATOM     18  C   UNL d   1      -8.819   5.968 -16.493 -0.23 +0.00    +0.070 A 
DOCKED: ATOM     19  C   UNL d   1      -6.961   7.057 -19.511 -0.14 -0.01    +0.052 C 
DOCKED: ATOM     20  C   UNL d   1     -10.060   5.402 -14.371 -0.21 +0.01    +0.066 A 
DOCKED: ATOM     21  C   UNL d   1     -11.096   4.726 -13.730 -0.18 -0.01    -0.025 A 
DOCKED: ATOM     22  C   UNL d   1     -11.021   5.102 -12.402 -0.14 -0.01    -0.021 A 
DOCKED: ATOM     23  C   UNL d   1      -9.943   6.006 -12.300 -0.14 +0.01    +0.066 A 
DOCKED: ATOM     24  C   UNL d   1     -12.120   3.782 -14.355 -0.19 +0.03    +0.051 C 
DOCKED: ATOM     25  N   UNL d   1      -7.801   8.065 -12.141 -0.06 -0.01    -0.248 N 
DOCKED: ATOM     26  N   UNL d   1      -6.327   8.730 -14.404 -0.08 +0.03    -0.248 N 
DOCKED: ATOM     27  N   UNL d   1      -7.932   6.813 -15.979 -0.14 +0.02    -0.248 N 
DOCKED: ATOM     28  N   UNL d   1      -9.360   6.192 -13.490 -0.08 -0.03    -0.248 N 
DOCKED: ATOM     29 FE   UNL d   1      -7.873   7.399 -14.173 -0.04 -0.00    +0.000 Fe
DOCKED: ENDROOT
DOCKED: BRANCH   6  30
DOCKED: ATOM     30  C   UNL d   1      -9.094   8.381  -8.608 -0.17 +0.01    +0.052 C 
DOCKED: BRANCH  30  31
DOCKED: ATOM     31  C   UNL d   1      -8.610   7.172  -7.807 -0.07 +0.05    +0.115 C 
DOCKED: BRANCH  31  32
DOCKED: ATOM     32  C   UNL d   1      -9.717   6.173  -7.546 -0.13 +0.14    +0.139 C 
DOCKED: ATOM     33  O   UNL d   1     -10.811   6.571  -7.177 -0.13 -0.77    -0.650 OA
DOCKED: BRANCH  32  34
DOCKED: ATOM     34  O   UNL d   1      -9.549   4.846  -7.754 -0.38 -1.08    -0.776 OA
DOCKED: ATOM     35  H   UNL d   1     -10.203   4.275  -8.180 +0.03 +0.26    +0.167 HD
DOCKED: ENDBRANCH  32  34
DOCKED: ENDBRANCH  31  32
DOCKED: ENDBRANCH  30  31
DOCKED: ENDBRANCH   6  30
DOCKED: BRANCH  29  36
DOCKED: ATOM     36  C   UNL d   1      -9.250   8.943 -14.512 -0.04 +0.00    +0.190 C 
DOCKED: BRANCH  36  37
DOCKED: ATOM     37  O   UNL d   1     -10.173   9.774 -13.869 -0.00 -0.02    -0.399 OA
DOCKED: ATOM     38  H   UNL d   1     -10.181   9.463 -12.921 +0.02 +0.02    +0.209 HD
DOCKED: ENDBRANCH  36  37
DOCKED: ENDBRANCH  29  36
DOCKED: BRANCH  22  39
DOCKED: ATOM     39  C   UNL d   1     -11.978   4.665 -11.308 -0.10 +0.02    +0.052 C 
DOCKED: BRANCH  39  40
DOCKED: ATOM     40  C   UNL d   1     -11.464   3.392 -10.615 -0.08 +0.05    +0.115 C 
DOCKED: BRANCH  40  41
DOCKED: ATOM     41  C   UNL d   1     -11.897   3.248  -9.171 -0.12 +0.12    +0.139 C 
DOCKED: ATOM     42  O   UNL d   1     -11.935   2.135  -8.666 -0.33 -0.64    -0.650 OA
DOCKED: BRANCH  41  43
DOCKED: ATOM     43  O   UNL d   1     -12.160   4.325  -8.398 +0.02 -1.09    -0.776 OA
DOCKED: ATOM     44  H   UNL d   1     -11.613   5.120  -8.412 +0.02 +0.21    +0.167 HD
DOCKED: ENDBRANCH  41  43
DOCKED: ENDBRANCH  40  41
DOCKED: ENDBRANCH  39  40
DOCKED: ENDBRANCH  22  39
DOCKED: BRANCH  12  45
DOCKED: ATOM     45  C   UNL d   1      -3.814  10.057 -16.820 -0.13 -0.00    +0.004 C 
DOCKED: ATOM     46  C   UNL d   1      -2.685   9.480 -17.224 -0.16 -0.00    +0.012 C 
DOCKED: ENDBRANCH  12  45
DOCKED: BRANCH  17  47
DOCKED: ATOM     47  C   UNL d   1      -9.547   5.127 -18.795 -0.22 +0.00    +0.004 C 
DOCKED: ATOM     48  C   UNL d   1      -9.107   4.133 -19.571 -0.24 +0.00    +0.012 C 
DOCKED: ENDBRANCH  17  47
DOCKED: TORSDOF 12
DOCKED: TER
DOCKED: ENDMDL
________________________________________________________________________________


	BEGINNING GENETIC ALGORITHM DOCKING 52 of 100
Run: 52 Seed: 138877768 615251470 [ Run 52 of 100 GA/GALS ]
Beginning LAMARCKIAN GENETIC ALGORITHM (LGA), with a maximum of 25000000 energy evaluations.

Final-Value: -10.768


	FINAL GENETIC ALGORITHM DOCKED STATE
	_______________________________________________


Detailed state:  trans -8.533 6.799 -12.401 quatxyzw 0.501939 -0.539659 -0.467307 0.488313 center 8.781 34.984 -0.736 ntor 12 -20.7961 116.0081 148.5530 116.2101 -98.7996 100.3888 -151.0811 -79.9676 -14.8099 93.4395 -159.5976 -179.2130
State:	 -8.533   6.799 -12.401   0.575 -0.618 -0.535 121.540    -20.80  116.01  148.55  116.21  -98.80  100.39 -151.08  -79.97  -14.81   93.44 -159.60 -179.21

DOCKED: MODEL       52
DOCKED: USER    Run = 52
DOCKED: USER    DPF = D:/Protein_go_brrr/autodock/final/mut_K82N/heme_Co/dock.dpf
DOCKED: USER  
DOCKED: USER    Estimated Free Energy of Binding    =   -4.81 kcal/mol  [=(1)+(2)+(3)-(4)]
DOCKED: USER    Estimated Inhibition Constant, Ki   =  299.72 uM (micromolar)  [Temperature = 298.15 K]
DOCKED: USER    
DOCKED: USER    (1) Final Intermolecular Energy     =   -8.39 kcal/mol
DOCKED: USER        vdW + Hbond + desolv Energy     =   -6.67 kcal/mol
DOCKED: USER        Electrostatic Energy            =   -1.72 kcal/mol
DOCKED: USER    (2) Final Total Internal Energy     =   -2.38 kcal/mol
DOCKED: USER    (3) Torsional Free Energy           =   +3.58 kcal/mol
DOCKED: USER    (4) Unbound System's Energy  [=(2)] =   -2.38 kcal/mol
DOCKED: USER    
DOCKED: USER    
DOCKED: USER    NEWDPF move heme_Co_opt.pdbqt
DOCKED: USER    NEWDPF about 8.781000 34.984000 -0.736000
DOCKED: USER    NEWDPF tran0 -8.533483 6.798950 -12.401288
DOCKED: USER    NEWDPF quaternion0 0.501939 -0.539659 -0.467307 0.488313
DOCKED: USER    NEWDPF axisangle0 0.575177 -0.618401 -0.535492 121.540449
DOCKED: USER    NEWDPF quat0 0.575177 -0.618401 -0.535492 121.540449
DOCKED: USER    NEWDPF dihe0 -20.80 116.01 148.55 116.21 -98.80 100.39 -151.08 -79.97 -14.81 93.44 -159.60 -179.21 
DOCKED: USER  keepresnum = 1 
DOCKED: USER  
DOCKED: REMARK  12 active torsions:
DOCKED: REMARK  status: ('A' for Active; 'I' for Inactive)
DOCKED: REMARK    1  A    between atoms: C_6  and  C_10 
DOCKED: REMARK    2  A    between atoms: C_10  and  C_11 
DOCKED: REMARK    3  A    between atoms: C_11  and  C_12 
DOCKED: REMARK    4  A    between atoms: C_12  and  O_14 
DOCKED: REMARK    5  A    between atoms: C_17  and  C_20 
DOCKED: REMARK    6  A    between atoms: C_24  and  C_27 
DOCKED: REMARK    7  A    between atoms: C_31  and  C_34 
DOCKED: REMARK    8  A    between atoms: C_34  and  C_35 
DOCKED: REMARK    9  A    between atoms: C_35  and  C_36 
DOCKED: REMARK   10  A    between atoms: C_36  and  O_38 
DOCKED: REMARK   11  A    between atoms: FE_43  and  C_44 
DOCKED: REMARK   12  A    between atoms: C_44  and  O_45 
DOCKED: USER                              x       y       z     vdW  Elec       q    Type
DOCKED: USER                           _______ _______ _______ _____ _____    ______ ____
DOCKED: ROOT
DOCKED: ATOM      1  C   UNL d   1      -9.044   6.148 -10.393 -0.14 +0.02    +0.064 A 
DOCKED: ATOM      2  C   UNL d   1      -6.196   9.598 -12.008 -0.26 -0.01    +0.064 C 
DOCKED: ATOM      3  C   UNL d   1      -6.938   8.158 -16.503 -0.14 -0.01    +0.064 A 
DOCKED: ATOM      4  C   UNL d   1     -10.151   4.873 -14.906 -0.25 +0.02    +0.064 A 
DOCKED: ATOM      5  C   UNL d   1      -8.183   7.174 -10.502 -0.13 +0.01    +0.066 A 
DOCKED: ATOM      6  C   UNL d   1      -7.769   7.923  -9.383 -0.20 -0.00    -0.021 A 
DOCKED: ATOM      7  C   UNL d   1      -6.961   8.937  -9.860 -0.27 -0.00    -0.025 A 
DOCKED: ATOM      8  C   UNL d   1      -6.903   8.753 -11.246 -0.19 -0.00    +0.066 A 
DOCKED: ATOM      9  C   UNL d   1      -6.263  10.044  -9.055 -0.40 -0.00    +0.051 C 
DOCKED: ATOM     10  C   UNL d   1      -6.058   9.473 -13.437 -0.17 -0.01    +0.066 A 
DOCKED: ATOM     11  C   UNL d   1      -5.220  10.241 -14.274 -0.19 +0.00    -0.021 A 
DOCKED: ATOM     12  C   UNL d   1      -5.453   9.797 -15.579 -0.11 -0.00    +0.000 A 
DOCKED: ATOM     13  C   UNL d   1      -6.404   8.786 -15.440 -0.12 -0.01    +0.070 A 
DOCKED: ATOM     14  C   UNL d   1      -4.202  11.258 -13.826 -0.40 -0.02    +0.052 C 
DOCKED: ATOM     15  C   UNL d   1      -7.962   7.133 -16.546 -0.18 -0.01    +0.066 A 
DOCKED: ATOM     16  C   UNL d   1      -8.575   6.628 -17.684 -0.18 +0.00    -0.021 A 
DOCKED: ATOM     17  C   UNL d   1      -9.504   5.682 -17.229 -0.22 +0.00    +0.000 A 
DOCKED: ATOM     18  C   UNL d   1      -9.373   5.672 -15.844 -0.24 +0.01    +0.070 A 
DOCKED: ATOM     19  C   UNL d   1      -8.267   7.048 -19.104 -0.12 -0.00    +0.052 C 
DOCKED: ATOM     20  C   UNL d   1     -10.102   4.909 -13.553 -0.22 +0.02    +0.066 A 
DOCKED: ATOM     21  C   UNL d   1     -10.927   4.117 -12.758 -0.09 -0.01    -0.025 A 
DOCKED: ATOM     22  C   UNL d   1     -10.610   4.442 -11.452 -0.15 -0.01    -0.021 A 
DOCKED: ATOM     23  C   UNL d   1      -9.607   5.433 -11.516 -0.17 +0.02    +0.066 A 
DOCKED: ATOM     24  C   UNL d   1     -11.981   3.114 -13.219 -0.10 +0.03    +0.051 C 
DOCKED: ATOM     25  N   UNL d   1      -7.646   7.664 -11.670 -0.02 -0.01    -0.248 N 
DOCKED: ATOM     26  N   UNL d   1      -6.727   8.553 -14.140 -0.00 +0.02    -0.248 N 
DOCKED: ATOM     27  N   UNL d   1      -8.467   6.570 -15.471 -0.06 -0.00    -0.248 N 
DOCKED: ATOM     28  N   UNL d   1      -9.298   5.720 -12.786 -0.10 -0.04    -0.248 N 
DOCKED: ATOM     29 FE   UNL d   1      -8.083   7.082 -13.682 -0.04 +0.00    +0.000 Fe
DOCKED: ENDROOT
DOCKED: BRANCH   6  30
DOCKED: ATOM     30  C   UNL d   1      -8.203   7.714  -7.937 -0.06 +0.01    +0.052 C 
DOCKED: BRANCH  30  31
DOCKED: ATOM     31  C   UNL d   1      -9.625   8.233  -7.723 -0.16 +0.04    +0.115 C 
DOCKED: BRANCH  31  32
DOCKED: ATOM     32  C   UNL d   1     -10.249   7.700  -6.451 -0.17 +0.10    +0.139 C 
DOCKED: ATOM     33  O   UNL d   1      -9.953   8.207  -5.379 -0.60 -0.43    -0.650 OA
DOCKED: BRANCH  32  34
DOCKED: ATOM     34  O   UNL d   1     -11.166   6.705  -6.463 -0.06 -1.04    -0.776 OA
DOCKED: ATOM     35  H   UNL d   1     -11.737   6.502  -7.217 +0.02 +0.21    +0.167 HD
DOCKED: ENDBRANCH  32  34
DOCKED: ENDBRANCH  31  32
DOCKED: ENDBRANCH  30  31
DOCKED: ENDBRANCH   6  30
DOCKED: BRANCH  29  36
DOCKED: ATOM     36  C   UNL d   1      -9.616   8.511 -13.643 -0.05 +0.01    +0.190 C 
DOCKED: BRANCH  36  37
DOCKED: ATOM     37  O   UNL d   1     -10.749   8.911 -12.927 -0.00 -0.04    -0.399 OA
DOCKED: ATOM     38  H   UNL d   1     -10.792   8.289 -12.148 +0.02 +0.03    +0.209 HD
DOCKED: ENDBRANCH  36  37
DOCKED: ENDBRANCH  29  36
DOCKED: BRANCH  22  39
DOCKED: ATOM     39  C   UNL d   1     -11.283   3.876 -10.216 -0.14 +0.03    +0.052 C 
DOCKED: BRANCH  39  40
DOCKED: ATOM     40  C   UNL d   1     -12.647   4.548  -9.984 -0.06 +0.06    +0.115 C 
DOCKED: BRANCH  40  41
DOCKED: ATOM     41  C   UNL d   1     -12.601   5.758  -9.075 -0.05 +0.09    +0.139 C 
DOCKED: ATOM     42  O   UNL d   1     -11.885   6.704  -9.373 +0.03 -0.30    -0.650 OA
DOCKED: BRANCH  41  43
DOCKED: ATOM     43  O   UNL d   1     -13.395   5.859  -7.986 -0.01 -0.65    -0.776 OA
DOCKED: ATOM     44  H   UNL d   1     -13.163   6.404  -7.223 +0.01 +0.16    +0.167 HD
DOCKED: ENDBRANCH  41  43
DOCKED: ENDBRANCH  40  41
DOCKED: ENDBRANCH  39  40
DOCKED: ENDBRANCH  22  39
DOCKED: BRANCH  12  45
DOCKED: ATOM     45  C   UNL d   1      -4.876  10.197 -16.930 -0.08 -0.00    +0.004 C 
DOCKED: ATOM     46  C   UNL d   1      -4.033   9.557 -17.736 -0.10 -0.00    +0.012 C 
DOCKED: ENDBRANCH  12  45
DOCKED: BRANCH  17  47
DOCKED: ATOM     47  C   UNL d   1     -10.492   4.869 -17.998 -0.19 +0.00    +0.004 C 
DOCKED: ATOM     48  C   UNL d   1     -11.811   4.925 -17.795 -0.14 +0.01    +0.012 C 
DOCKED: ENDBRANCH  17  47
DOCKED: TORSDOF 12
DOCKED: TER
DOCKED: ENDMDL
________________________________________________________________________________


	BEGINNING GENETIC ALGORITHM DOCKING 53 of 100
Run: 53 Seed: 1220227762 700321094 [ Run 53 of 100 GA/GALS ]
Beginning LAMARCKIAN GENETIC ALGORITHM (LGA), with a maximum of 25000000 energy evaluations.

Final-Value: -9.617


	FINAL GENETIC ALGORITHM DOCKED STATE
	_______________________________________________


Detailed state:  trans 12.883 5.081 19.297 quatxyzw -0.602037 0.611386 0.404817 0.316041 center 8.781 34.984 -0.736 ntor 12 -167.7819 122.1215 49.3107 111.4180 -40.1997 126.7482 39.4056 68.2699 180.0000 -90.9984 -166.1695 165.7360
State:	 12.883   5.081  19.297  -0.635  0.644  0.427 143.153   -167.78  122.12   49.31  111.42  -40.20  126.75   39.41   68.27  180.00  -91.00 -166.17  165.74

DOCKED: MODEL       53
DOCKED: USER    Run = 53
DOCKED: USER    DPF = D:/Protein_go_brrr/autodock/final/mut_K82N/heme_Co/dock.dpf
DOCKED: USER  
DOCKED: USER    Estimated Free Energy of Binding    =   -3.85 kcal/mol  [=(1)+(2)+(3)-(4)]
DOCKED: USER    Estimated Inhibition Constant, Ki   =    1.50 mM (millimolar)  [Temperature = 298.15 K]
DOCKED: USER    
DOCKED: USER    (1) Final Intermolecular Energy     =   -7.43 kcal/mol
DOCKED: USER        vdW + Hbond + desolv Energy     =   -5.90 kcal/mol
DOCKED: USER        Electrostatic Energy            =   -1.54 kcal/mol
DOCKED: USER    (2) Final Total Internal Energy     =   -2.19 kcal/mol
DOCKED: USER    (3) Torsional Free Energy           =   +3.58 kcal/mol
DOCKED: USER    (4) Unbound System's Energy  [=(2)] =   -2.19 kcal/mol
DOCKED: USER    
DOCKED: USER    
DOCKED: USER    NEWDPF move heme_Co_opt.pdbqt
DOCKED: USER    NEWDPF about 8.781000 34.984000 -0.736000
DOCKED: USER    NEWDPF tran0 12.882902 5.080802 19.296623
DOCKED: USER    NEWDPF quaternion0 -0.602037 0.611386 0.404817 0.316041
DOCKED: USER    NEWDPF axisangle0 -0.634561 0.644415 0.426686 143.152634
DOCKED: USER    NEWDPF quat0 -0.634561 0.644415 0.426686 143.152634
DOCKED: USER    NEWDPF dihe0 -167.78 122.12 49.31 111.42 -40.20 126.75 39.41 68.27 180.00 -91.00 -166.17 165.74 
DOCKED: USER  keepresnum = 1 
DOCKED: USER  
DOCKED: REMARK  12 active torsions:
DOCKED: REMARK  status: ('A' for Active; 'I' for Inactive)
DOCKED: REMARK    1  A    between atoms: C_6  and  C_10 
DOCKED: REMARK    2  A    between atoms: C_10  and  C_11 
DOCKED: REMARK    3  A    between atoms: C_11  and  C_12 
DOCKED: REMARK    4  A    between atoms: C_12  and  O_14 
DOCKED: REMARK    5  A    between atoms: C_17  and  C_20 
DOCKED: REMARK    6  A    between atoms: C_24  and  C_27 
DOCKED: REMARK    7  A    between atoms: C_31  and  C_34 
DOCKED: REMARK    8  A    between atoms: C_34  and  C_35 
DOCKED: REMARK    9  A    between atoms: C_35  and  C_36 
DOCKED: REMARK   10  A    between atoms: C_36  and  O_38 
DOCKED: REMARK   11  A    between atoms: FE_43  and  C_44 
DOCKED: REMARK   12  A    between atoms: C_44  and  O_45 
DOCKED: USER                              x       y       z     vdW  Elec       q    Type
DOCKED: USER                           _______ _______ _______ _____ _____    ______ ____
DOCKED: ROOT
DOCKED: ATOM      1  C   UNL d   1      13.532   6.877  20.331 -0.02 +0.01    +0.064 A 
DOCKED: ATOM      2  C   UNL d   1      11.451   6.195  16.110 -0.10 -0.00    +0.064 C 
DOCKED: ATOM      3  C   UNL d   1      11.769   1.462  16.675 -0.25 -0.01    +0.064 A 
DOCKED: ATOM      4  C   UNL d   1      13.543   2.129  21.155 -0.09 +0.02    +0.064 A 
DOCKED: ATOM      5  C   UNL d   1      12.973   7.038  19.120 -0.01 +0.00    +0.066 A 
DOCKED: ATOM      6  C   UNL d   1      12.644   8.311  18.613 -0.00 -0.00    -0.021 A 
DOCKED: ATOM      7  C   UNL d   1      12.019   8.106  17.398 -0.01 -0.00    -0.025 A 
DOCKED: ATOM      8  C   UNL d   1      12.009   6.720  17.208 -0.03 +0.00    +0.066 A 
DOCKED: ATOM      9  C   UNL d   1      11.448   9.164  16.441 -0.04 -0.00    +0.051 C 
DOCKED: ATOM     10  C   UNL d   1      11.416   4.784  15.816 -0.15 -0.00    +0.066 A 
DOCKED: ATOM     11  C   UNL d   1      10.972   4.182  14.619 -0.23 +0.00    -0.021 A 
DOCKED: ATOM     12  C   UNL d   1      11.079   2.802  14.810 -0.33 -0.00    +0.000 A 
DOCKED: ATOM     13  C   UNL d   1      11.592   2.665  16.100 -0.19 -0.01    +0.070 A 
DOCKED: ATOM     14  C   UNL d   1      10.568   4.899  13.357 -0.17 -0.01    +0.052 C 
DOCKED: ATOM     15  C   UNL d   1      12.236   1.139  18.009 -0.24 -0.00    +0.066 A 
DOCKED: ATOM     16  C   UNL d   1      12.258  -0.120  18.591 -0.31 +0.00    -0.021 A 
DOCKED: ATOM     17  C   UNL d   1      12.767   0.067  19.884 -0.23 +0.00    +0.000 A 
DOCKED: ATOM     18  C   UNL d   1      13.031   1.429  19.983 -0.16 +0.01    +0.070 A 
DOCKED: ATOM     19  C   UNL d   1      11.812  -1.403  17.924 -0.46 -0.00    +0.052 C 
DOCKED: ATOM     20  C   UNL d   1      13.727   3.463  21.304 -0.10 +0.03    +0.066 A 
DOCKED: ATOM     21  C   UNL d   1      14.192   4.021  22.492 -0.04 -0.01    -0.025 A 
DOCKED: ATOM     22  C   UNL d   1      14.226   5.386  22.275 -0.06 -0.01    -0.021 A 
DOCKED: ATOM     23  C   UNL d   1      13.766   5.596  20.957 -0.05 +0.02    +0.066 A 
DOCKED: ATOM     24  C   UNL d   1      14.566   3.292  23.780 -0.07 +0.03    +0.051 C 
DOCKED: ATOM     25  N   UNL d   1      12.598   6.034  18.257 -0.01 -0.02    -0.248 N 
DOCKED: ATOM     26  N   UNL d   1      11.847   3.865  16.686 -0.10 +0.01    -0.248 N 
DOCKED: ATOM     27  N   UNL d   1      12.674   2.040  18.859 -0.14 -0.02    -0.248 N 
DOCKED: ATOM     28  N   UNL d   1      13.460   4.434  20.367 -0.06 -0.06    -0.248 N 
DOCKED: ATOM     29 FE   UNL d   1      12.641   3.919  18.579 -0.02 +0.00    +0.000 Fe
DOCKED: ENDROOT
DOCKED: BRANCH   6  30
DOCKED: ATOM     30  C   UNL d   1      12.851   9.650  19.312 +0.00 +0.00    +0.052 C 
DOCKED: BRANCH  30  31
DOCKED: ATOM     31  C   UNL d   1      11.715   9.923  20.297 +0.00 +0.00    +0.115 C 
DOCKED: BRANCH  31  32
DOCKED: ATOM     32  C   UNL d   1      10.669   8.829  20.290 -0.01 +0.01    +0.139 C 
DOCKED: ATOM     33  O   UNL d   1       9.717   8.913  19.529 +0.03 -0.01    -0.650 OA
DOCKED: BRANCH  32  34
DOCKED: ATOM     34  O   UNL d   1      10.777   7.728  21.069 +0.03 -0.12    -0.776 OA
DOCKED: ATOM     35  H   UNL d   1      10.191   6.961  21.011 +0.03 +0.03    +0.167 HD
DOCKED: ENDBRANCH  32  34
DOCKED: ENDBRANCH  31  32
DOCKED: ENDBRANCH  30  31
DOCKED: ENDBRANCH   6  30
DOCKED: BRANCH  29  36
DOCKED: ATOM     36  C   UNL d   1      10.713   4.116  19.379 -0.05 +0.05    +0.190 C 
DOCKED: BRANCH  36  37
DOCKED: ATOM     37  O   UNL d   1       9.866   5.014  20.037 -0.16 -0.12    -0.399 OA
DOCKED: ATOM     38  H   UNL d   1      10.350   5.886  20.015 +0.05 +0.04    +0.209 HD
DOCKED: ENDBRANCH  36  37
DOCKED: ENDBRANCH  29  36
DOCKED: BRANCH  22  39
DOCKED: ATOM     39  C   UNL d   1      14.619   6.431  23.302 -0.03 +0.02    +0.052 C 
DOCKED: BRANCH  39  40
DOCKED: ATOM     40  C   UNL d   1      13.379   6.955  24.045 -0.05 +0.05    +0.115 C 
DOCKED: BRANCH  40  41
DOCKED: ATOM     41  C   UNL d   1      12.932   6.089  25.203 -0.00 +0.14    +0.139 C 
DOCKED: ATOM     42  O   UNL d   1      11.757   6.105  25.544 -0.28 -0.88    -0.650 OA
DOCKED: BRANCH  41  43
DOCKED: ATOM     43  O   UNL d   1      13.778   5.232  25.817 -0.44 -0.82    -0.776 OA
DOCKED: ATOM     44  H   UNL d   1      14.618   5.517  26.200 +0.01 +0.09    +0.167 HD
DOCKED: ENDBRANCH  41  43
DOCKED: ENDBRANCH  40  41
DOCKED: ENDBRANCH  39  40
DOCKED: ENDBRANCH  22  39
DOCKED: BRANCH  12  45
DOCKED: ATOM     45  C   UNL d   1      10.777   1.604  13.920 -0.45 -0.00    +0.004 C 
DOCKED: ATOM     46  C   UNL d   1      11.592   0.808  13.233 -0.43 -0.00    +0.012 C 
DOCKED: ENDBRANCH  12  45
DOCKED: BRANCH  17  47
DOCKED: ATOM     47  C   UNL d   1      12.956  -0.921  20.987 -0.21 +0.00    +0.004 C 
DOCKED: ATOM     48  C   UNL d   1      11.953  -1.600  21.550 -0.24 +0.00    +0.012 C 
DOCKED: ENDBRANCH  17  47
DOCKED: TORSDOF 12
DOCKED: TER
DOCKED: ENDMDL
________________________________________________________________________________


	BEGINNING GENETIC ALGORITHM DOCKING 54 of 100
Run: 54 Seed: 4515944 54429272 [ Run 54 of 100 GA/GALS ]
Beginning LAMARCKIAN GENETIC ALGORITHM (LGA), with a maximum of 25000000 energy evaluations.

Final-Value: -10.177


	FINAL GENETIC ALGORITHM DOCKED STATE
	_______________________________________________


Detailed state:  trans 12.361 13.963 -1.268 quatxyzw 0.107729 0.585469 -0.193917 -0.779754 center 8.781 34.984 -0.736 ntor 12 131.3182 97.8890 -69.6178 124.9160 83.9304 113.3076 -124.8770 -29.3121 -128.4362 -153.2326 -173.0474 159.8953
State:	 12.361  13.963  -1.268   0.172  0.935 -0.310 -77.524    131.32   97.89  -69.62  124.92   83.93  113.31 -124.88  -29.31 -128.44 -153.23 -173.05  159.90

DOCKED: MODEL       54
DOCKED: USER    Run = 54
DOCKED: USER    DPF = D:/Protein_go_brrr/autodock/final/mut_K82N/heme_Co/dock.dpf
DOCKED: USER  
DOCKED: USER    Estimated Free Energy of Binding    =   -2.48 kcal/mol  [=(1)+(2)+(3)-(4)]
DOCKED: USER    Estimated Inhibition Constant, Ki   =   15.24 mM (millimolar)  [Temperature = 298.15 K]
DOCKED: USER    
DOCKED: USER    (1) Final Intermolecular Energy     =   -6.06 kcal/mol
DOCKED: USER        vdW + Hbond + desolv Energy     =   -6.28 kcal/mol
DOCKED: USER        Electrostatic Energy            =   +0.22 kcal/mol
DOCKED: USER    (2) Final Total Internal Energy     =   -4.12 kcal/mol
DOCKED: USER    (3) Torsional Free Energy           =   +3.58 kcal/mol
DOCKED: USER    (4) Unbound System's Energy  [=(2)] =   -4.12 kcal/mol
DOCKED: USER    
DOCKED: USER    
DOCKED: USER    NEWDPF move heme_Co_opt.pdbqt
DOCKED: USER    NEWDPF about 8.781000 34.984000 -0.736000
DOCKED: USER    NEWDPF tran0 12.360603 13.962649 -1.268156
DOCKED: USER    NEWDPF quaternion0 0.107729 0.585469 -0.193917 -0.779754
DOCKED: USER    NEWDPF axisangle0 0.172067 0.935126 -0.309729 -77.523893
DOCKED: USER    NEWDPF quat0 0.172067 0.935126 -0.309729 -77.523893
DOCKED: USER    NEWDPF dihe0 131.32 97.89 -69.62 124.92 83.93 113.31 -124.88 -29.31 -128.44 -153.23 -173.05 159.90 
DOCKED: USER  keepresnum = 1 
DOCKED: USER  
DOCKED: REMARK  12 active torsions:
DOCKED: REMARK  status: ('A' for Active; 'I' for Inactive)
DOCKED: REMARK    1  A    between atoms: C_6  and  C_10 
DOCKED: REMARK    2  A    between atoms: C_10  and  C_11 
DOCKED: REMARK    3  A    between atoms: C_11  and  C_12 
DOCKED: REMARK    4  A    between atoms: C_12  and  O_14 
DOCKED: REMARK    5  A    between atoms: C_17  and  C_20 
DOCKED: REMARK    6  A    between atoms: C_24  and  C_27 
DOCKED: REMARK    7  A    between atoms: C_31  and  C_34 
DOCKED: REMARK    8  A    between atoms: C_34  and  C_35 
DOCKED: REMARK    9  A    between atoms: C_35  and  C_36 
DOCKED: REMARK   10  A    between atoms: C_36  and  O_38 
DOCKED: REMARK   11  A    between atoms: FE_43  and  C_44 
DOCKED: REMARK   12  A    between atoms: C_44  and  O_45 
DOCKED: USER                              x       y       z     vdW  Elec       q    Type
DOCKED: USER                           _______ _______ _______ _____ _____    ______ ____
DOCKED: ROOT
DOCKED: ATOM      1  C   UNL d   1      11.371  15.089   0.302 -0.25 -0.01    +0.064 A 
DOCKED: ATOM      2  C   UNL d   1      13.786  10.994   0.345 -0.09 -0.00    +0.064 C 
DOCKED: ATOM      3  C   UNL d   1      14.197  11.142  -4.413 -0.25 -0.01    +0.064 A 
DOCKED: ATOM      4  C   UNL d   1      12.070  15.517  -4.446 -0.17 -0.01    +0.064 A 
DOCKED: ATOM      5  C   UNL d   1      11.969  13.941   0.660 -0.22 -0.00    +0.066 A 
DOCKED: ATOM      6  C   UNL d   1      12.120  13.566   2.009 -0.14 +0.00    -0.021 A 
DOCKED: ATOM      7  C   UNL d   1      12.842  12.388   2.017 -0.12 +0.00    -0.025 A 
DOCKED: ATOM      8  C   UNL d   1      13.086  12.087   0.673 -0.11 -0.00    +0.066 A 
DOCKED: ATOM      9  C   UNL d   1      13.293  11.567   3.235 -0.08 +0.00    +0.051 C 
DOCKED: ATOM     10  C   UNL d   1      14.064  10.589  -1.010 -0.08 -0.00    +0.066 A 
DOCKED: ATOM     11  C   UNL d   1      14.671   9.383  -1.423 -0.18 +0.00    -0.021 A 
DOCKED: ATOM     12  C   UNL d   1      14.774   9.451  -2.815 -0.21 -0.00    +0.000 A 
DOCKED: ATOM     13  C   UNL d   1      14.213  10.684  -3.149 -0.24 -0.01    +0.070 A 
DOCKED: ATOM     14  C   UNL d   1      15.031   8.217  -0.539 -0.14 +0.00    +0.052 C 
DOCKED: ATOM     15  C   UNL d   1      13.708  12.407  -4.926 -0.25 -0.01    +0.066 A 
DOCKED: ATOM     16  C   UNL d   1      13.852  12.880  -6.222 -0.23 +0.00    -0.021 A 
DOCKED: ATOM     17  C   UNL d   1      13.242  14.143  -6.236 -0.22 -0.00    +0.000 A 
DOCKED: ATOM     18  C   UNL d   1      12.758  14.334  -4.947 -0.17 -0.01    +0.070 A 
DOCKED: ATOM     19  C   UNL d   1      14.537  12.146  -7.353 -0.14 -0.00    +0.052 C 
DOCKED: ATOM     20  C   UNL d   1      11.667  15.761  -3.176 -0.23 -0.02    +0.066 A 
DOCKED: ATOM     21  C   UNL d   1      11.047  16.954  -2.809 -0.20 +0.01    -0.025 A 
DOCKED: ATOM     22  C   UNL d   1      10.808  16.847  -1.451 -0.20 +0.00    -0.021 A 
DOCKED: ATOM     23  C   UNL d   1      11.308  15.590  -1.052 -0.22 -0.01    +0.066 A 
DOCKED: ATOM     24  C   UNL d   1      10.717  18.146  -3.704 -0.15 -0.01    +0.051 C 
DOCKED: ATOM     25  N   UNL d   1      12.551  13.029  -0.190 -0.16 +0.02    -0.248 N 
DOCKED: ATOM     26  N   UNL d   1      13.734  11.346  -2.062 -0.18 +0.04    -0.248 N 
DOCKED: ATOM     27  N   UNL d   1      13.080  13.293  -4.186 -0.17 +0.06    -0.248 N 
DOCKED: ATOM     28  N   UNL d   1      11.831  14.930  -2.093 -0.22 +0.06    -0.248 N 
DOCKED: ATOM     29 FE   UNL d   1      12.829  13.172  -2.307 -0.06 -0.00    +0.000 Fe
DOCKED: ENDROOT
DOCKED: BRANCH   6  30
DOCKED: ATOM     30  C   UNL d   1      11.659  14.355   3.230 -0.10 +0.00    +0.052 C 
DOCKED: BRANCH  30  31
DOCKED: ATOM     31  C   UNL d   1      12.749  15.326   3.685 -0.03 -0.00    +0.115 C 
DOCKED: BRANCH  31  32
DOCKED: ATOM     32  C   UNL d   1      13.291  16.161   2.545 -0.03 -0.01    +0.139 C 
DOCKED: ATOM     33  O   UNL d   1      12.972  17.337   2.456 +0.01 +0.04    -0.650 OA
DOCKED: BRANCH  32  34
DOCKED: ATOM     34  O   UNL d   1      14.163  15.658   1.639 +0.02 +0.04    -0.776 OA
DOCKED: ATOM     35  H   UNL d   1      14.036  15.698   0.682 +0.02 -0.01    +0.167 HD
DOCKED: ENDBRANCH  32  34
DOCKED: ENDBRANCH  31  32
DOCKED: ENDBRANCH  30  31
DOCKED: ENDBRANCH   6  30
DOCKED: BRANCH  29  36
DOCKED: ATOM     36  C   UNL d   1      14.648  14.127  -1.890 -0.06 -0.02    +0.190 C 
DOCKED: BRANCH  36  37
DOCKED: ATOM     37  O   UNL d   1      15.243  15.072  -1.048 -0.00 +0.03    -0.399 OA
DOCKED: ATOM     38  H   UNL d   1      14.479  15.557  -0.627 +0.02 -0.02    +0.209 HD
DOCKED: ENDBRANCH  36  37
DOCKED: ENDBRANCH  29  36
DOCKED: BRANCH  22  39
DOCKED: ATOM     39  C   UNL d   1      10.191  17.925  -0.580 -0.22 -0.01    +0.052 C 
DOCKED: BRANCH  39  40
DOCKED: ATOM     40  C   UNL d   1      11.282  18.706   0.172 -0.10 -0.01    +0.115 C 
DOCKED: BRANCH  40  41
DOCKED: ATOM     41  C   UNL d   1      12.658  18.615  -0.454 -0.04 -0.01    +0.139 C 
DOCKED: ATOM     42  O   UNL d   1      13.128  19.598  -1.011 +0.01 +0.05    -0.650 OA
DOCKED: BRANCH  41  43
DOCKED: ATOM     43  O   UNL d   1      13.419  17.505  -0.340 +0.03 +0.06    -0.776 OA
DOCKED: ATOM     44  H   UNL d   1      13.743  17.182   0.511 +0.01 -0.01    +0.167 HD
DOCKED: ENDBRANCH  41  43
DOCKED: ENDBRANCH  40  41
DOCKED: ENDBRANCH  39  40
DOCKED: ENDBRANCH  22  39
DOCKED: BRANCH  12  45
DOCKED: ATOM     45  C   UNL d   1      15.318   8.490  -3.864 -0.18 -0.00    +0.004 C 
DOCKED: ATOM     46  C   UNL d   1      14.705   7.861  -4.863 -0.23 -0.00    +0.012 C 
DOCKED: ENDBRANCH  12  45
DOCKED: BRANCH  17  47
DOCKED: ATOM     47  C   UNL d   1      13.147  15.144  -7.341 -0.17 -0.00    +0.004 C 
DOCKED: ATOM     48  C   UNL d   1      12.517  14.911  -8.495 -0.19 +0.00    +0.012 C 
DOCKED: ENDBRANCH  17  47
DOCKED: TORSDOF 12
DOCKED: TER
DOCKED: ENDMDL
________________________________________________________________________________


	BEGINNING GENETIC ALGORITHM DOCKING 55 of 100
Run: 55 Seed: 169597713 1197385294 [ Run 55 of 100 GA/GALS ]
Beginning LAMARCKIAN GENETIC ALGORITHM (LGA), with a maximum of 25000000 energy evaluations.

Final-Value: -9.986


	FINAL GENETIC ALGORITHM DOCKED STATE
	_______________________________________________


Detailed state:  trans -11.643 13.816 -6.398 quatxyzw -0.131654 -0.337692 0.810646 -0.459874 center 8.781 34.984 -0.736 ntor 12 166.8141 110.8256 -70.5138 111.3123 137.8881 105.4786 -113.6418 -10.5641 -128.9851 -180.0000 -175.3921 -180.0000
State:	-11.643  13.816  -6.398  -0.148 -0.380  0.913 -125.242    166.81  110.83  -70.51  111.31  137.89  105.48 -113.64  -10.56 -128.99 -180.00 -175.39 -180.00

DOCKED: MODEL       55
DOCKED: USER    Run = 55
DOCKED: USER    DPF = D:/Protein_go_brrr/autodock/final/mut_K82N/heme_Co/dock.dpf
DOCKED: USER  
DOCKED: USER    Estimated Free Energy of Binding    =   -2.58 kcal/mol  [=(1)+(2)+(3)-(4)]
DOCKED: USER    Estimated Inhibition Constant, Ki   =   12.94 mM (millimolar)  [Temperature = 298.15 K]
DOCKED: USER    
DOCKED: USER    (1) Final Intermolecular Energy     =   -6.16 kcal/mol
DOCKED: USER        vdW + Hbond + desolv Energy     =   -5.56 kcal/mol
DOCKED: USER        Electrostatic Energy            =   -0.60 kcal/mol
DOCKED: USER    (2) Final Total Internal Energy     =   -3.83 kcal/mol
DOCKED: USER    (3) Torsional Free Energy           =   +3.58 kcal/mol
DOCKED: USER    (4) Unbound System's Energy  [=(2)] =   -3.83 kcal/mol
DOCKED: USER    
DOCKED: USER    
DOCKED: USER    NEWDPF move heme_Co_opt.pdbqt
DOCKED: USER    NEWDPF about 8.781000 34.984000 -0.736000
DOCKED: USER    NEWDPF tran0 -11.643452 13.816015 -6.397601
DOCKED: USER    NEWDPF quaternion0 -0.131654 -0.337692 0.810646 -0.459874
DOCKED: USER    NEWDPF axisangle0 -0.148261 -0.380290 0.912906 -125.242047
DOCKED: USER    NEWDPF quat0 -0.148261 -0.380290 0.912906 -125.242047
DOCKED: USER    NEWDPF dihe0 166.81 110.83 -70.51 111.31 137.89 105.48 -113.64 -10.56 -128.99 -180.00 -175.39 -180.00 
DOCKED: USER  keepresnum = 1 
DOCKED: USER  
DOCKED: REMARK  12 active torsions:
DOCKED: REMARK  status: ('A' for Active; 'I' for Inactive)
DOCKED: REMARK    1  A    between atoms: C_6  and  C_10 
DOCKED: REMARK    2  A    between atoms: C_10  and  C_11 
DOCKED: REMARK    3  A    between atoms: C_11  and  C_12 
DOCKED: REMARK    4  A    between atoms: C_12  and  O_14 
DOCKED: REMARK    5  A    between atoms: C_17  and  C_20 
DOCKED: REMARK    6  A    between atoms: C_24  and  C_27 
DOCKED: REMARK    7  A    between atoms: C_31  and  C_34 
DOCKED: REMARK    8  A    between atoms: C_34  and  C_35 
DOCKED: REMARK    9  A    between atoms: C_35  and  C_36 
DOCKED: REMARK   10  A    between atoms: C_36  and  O_38 
DOCKED: REMARK   11  A    between atoms: FE_43  and  C_44 
DOCKED: REMARK   12  A    between atoms: C_44  and  O_45 
DOCKED: USER                              x       y       z     vdW  Elec       q    Type
DOCKED: USER                           _______ _______ _______ _____ _____    ______ ____
DOCKED: ROOT
DOCKED: ATOM      1  C   UNL d   1     -10.476  12.390  -7.546 -0.24 +0.02    +0.064 A 
DOCKED: ATOM      2  C   UNL d   1     -11.370  12.776  -2.891 -0.31 +0.02    +0.064 C 
DOCKED: ATOM      3  C   UNL d   1     -13.691  16.884  -3.640 -0.09 +0.02    +0.064 A 
DOCKED: ATOM      4  C   UNL d   1     -13.125  16.315  -8.438 -0.07 +0.05    +0.064 A 
DOCKED: ATOM      5  C   UNL d   1     -10.518  12.212  -6.215 -0.25 +0.02    +0.066 A 
DOCKED: ATOM      6  C   UNL d   1      -9.996  11.058  -5.598 -0.32 -0.01    -0.021 A 
DOCKED: ATOM      7  C   UNL d   1     -10.278  11.165  -4.250 -0.40 -0.01    -0.025 A 
DOCKED: ATOM      8  C   UNL d   1     -10.946  12.386  -4.100 -0.27 +0.02    +0.066 A 
DOCKED: ATOM      9  C   UNL d   1      -9.940  10.165  -3.135 -0.46 +0.01    +0.051 C 
DOCKED: ATOM     10  C   UNL d   1     -12.041  14.026  -2.636 -0.23 +0.02    +0.066 A 
DOCKED: ATOM     11  C   UNL d   1     -12.385  14.556  -1.374 -0.26 -0.00    -0.021 A 
DOCKED: ATOM     12  C   UNL d   1     -13.057  15.756  -1.621 -0.18 +0.00    +0.000 A 
DOCKED: ATOM     13  C   UNL d   1     -13.062  15.875  -3.011 -0.14 +0.02    +0.070 A 
DOCKED: ATOM     14  C   UNL d   1     -12.003  13.986  -0.032 -0.28 +0.01    +0.052 C 
DOCKED: ATOM     15  C   UNL d   1     -13.840  17.133  -5.060 -0.07 +0.03    +0.066 A 
DOCKED: ATOM     16  C   UNL d   1     -14.626  18.115  -5.646 -0.04 -0.01    -0.021 A 
DOCKED: ATOM     17  C   UNL d   1     -14.468  17.953  -7.030 -0.05 +0.00    +0.000 A 
DOCKED: ATOM     18  C   UNL d   1     -13.582  16.892  -7.179 -0.04 +0.05    +0.070 A 
DOCKED: ATOM     19  C   UNL d   1     -15.465  19.128  -4.899 -0.01 +0.01    +0.052 C 
DOCKED: ATOM     20  C   UNL d   1     -12.333  15.230  -8.608 -0.11 +0.05    +0.066 A 
DOCKED: ATOM     21  C   UNL d   1     -11.992  14.749  -9.870 -0.14 -0.01    -0.025 A 
DOCKED: ATOM     22  C   UNL d   1     -11.205  13.634  -9.644 -0.17 -0.01    -0.021 A 
DOCKED: ATOM     23  C   UNL d   1     -11.114  13.483  -8.244 -0.23 +0.04    +0.066 A 
DOCKED: ATOM     24  C   UNL d   1     -12.412  15.311 -11.226 -0.07 +0.02    +0.051 C 
DOCKED: ATOM     25  N   UNL d   1     -11.103  13.058  -5.300 -0.14 -0.11    -0.248 N 
DOCKED: ATOM     26  N   UNL d   1     -12.398  14.857  -3.621 -0.06 -0.10    -0.248 N 
DOCKED: ATOM     27  N   UNL d   1     -13.252  16.408  -5.986 -0.02 -0.19    -0.248 N 
DOCKED: ATOM     28  N   UNL d   1     -11.797  14.445  -7.613 -0.11 -0.21    -0.248 N 
DOCKED: ATOM     29 FE   UNL d   1     -12.241  14.832  -5.667 -0.05 +0.00    +0.000 Fe
DOCKED: ENDROOT
DOCKED: BRANCH   6  30
DOCKED: ATOM     30  C   UNL d   1      -9.331   9.876  -6.295 -0.30 +0.01    +0.052 C 
DOCKED: BRANCH  30  31
DOCKED: ATOM     31  C   UNL d   1     -10.366   8.806  -6.641 -0.17 +0.05    +0.115 C 
DOCKED: BRANCH  31  32
DOCKED: ATOM     32  C   UNL d   1     -11.579   9.380  -7.341 -0.05 +0.04    +0.139 C 
DOCKED: ATOM     33  O   UNL d   1     -11.832   9.034  -8.485 +0.03 -0.19    -0.650 OA
DOCKED: BRANCH  32  34
DOCKED: ATOM     34  O   UNL d   1     -12.427  10.233  -6.722 +0.07 -0.21    -0.776 OA
DOCKED: ATOM     35  H   UNL d   1     -13.060  10.801  -7.183 +0.02 +0.04    +0.167 HD
DOCKED: ENDBRANCH  32  34
DOCKED: ENDBRANCH  31  32
DOCKED: ENDBRANCH  30  31
DOCKED: ENDBRANCH   6  30
DOCKED: BRANCH  29  36
DOCKED: ATOM     36  C   UNL d   1     -13.927  13.593  -5.780 -0.04 +0.05    +0.190 C 
DOCKED: BRANCH  36  37
DOCKED: ATOM     37  O   UNL d   1     -14.412  12.423  -6.374 +0.00 -0.08    -0.399 OA
DOCKED: ATOM     38  H   UNL d   1     -13.673  12.111  -6.967 +0.02 +0.05    +0.209 HD
DOCKED: ENDBRANCH  36  37
DOCKED: ENDBRANCH  29  36
DOCKED: BRANCH  22  39
DOCKED: ATOM     39  C   UNL d   1     -10.629  12.731 -10.719 -0.08 +0.02    +0.052 C 
DOCKED: BRANCH  39  40
DOCKED: ATOM     40  C   UNL d   1     -11.703  11.767 -11.250 -0.04 +0.02    +0.115 C 
DOCKED: BRANCH  40  41
DOCKED: ATOM     41  C   UNL d   1     -13.023  11.834 -10.511 -0.01 +0.02    +0.139 C 
DOCKED: ATOM     42  O   UNL d   1     -14.056  11.995 -11.145 +0.01 -0.08    -0.650 OA
DOCKED: BRANCH  41  43
DOCKED: ATOM     43  O   UNL d   1     -13.101  11.633  -9.176 +0.04 -0.16    -0.776 OA
DOCKED: ATOM     44  H   UNL d   1     -12.879  10.787  -8.765 +0.01 +0.03    +0.167 HD
DOCKED: ENDBRANCH  41  43
DOCKED: ENDBRANCH  40  41
DOCKED: ENDBRANCH  39  40
DOCKED: ENDBRANCH  22  39
DOCKED: BRANCH  12  45
DOCKED: ATOM     45  C   UNL d   1     -13.675  16.808  -0.709 -0.12 +0.00    +0.004 C 
DOCKED: ATOM     46  C   UNL d   1     -13.232  18.009  -0.347 -0.13 +0.00    +0.012 C 
DOCKED: ENDBRANCH  12  45
DOCKED: BRANCH  17  47
DOCKED: ATOM     47  C   UNL d   1     -15.121  18.684  -8.156 -0.02 +0.00    +0.004 C 
DOCKED: ATOM     48  C   UNL d   1     -14.453  19.438  -9.032 -0.01 +0.00    +0.012 C 
DOCKED: ENDBRANCH  17  47
DOCKED: TORSDOF 12
DOCKED: TER
DOCKED: ENDMDL
________________________________________________________________________________


	BEGINNING GENETIC ALGORITHM DOCKING 56 of 100
Run: 56 Seed: 64513220 558636817 [ Run 56 of 100 GA/GALS ]
Beginning LAMARCKIAN GENETIC ALGORITHM (LGA), with a maximum of 25000000 energy evaluations.

Final-Value: -9.564


	FINAL GENETIC ALGORITHM DOCKED STATE
	_______________________________________________


Detailed state:  trans 7.749 15.427 -11.668 quatxyzw -0.463279 -0.788331 -0.052895 -0.401383 center 8.781 34.984 -0.736 ntor 12 42.7823 107.4416 -26.2750 81.0173 100.0157 90.8719 171.2961 -13.5804 -67.0802 178.2749 -155.6707 178.5509
State:	  7.749  15.427 -11.668  -0.506 -0.861 -0.058 -132.671     42.78  107.44  -26.28   81.02  100.02   90.87  171.30  -13.58  -67.08  178.27 -155.67  178.55

DOCKED: MODEL       56
DOCKED: USER    Run = 56
DOCKED: USER    DPF = D:/Protein_go_brrr/autodock/final/mut_K82N/heme_Co/dock.dpf
DOCKED: USER  
DOCKED: USER    Estimated Free Energy of Binding    =   -3.26 kcal/mol  [=(1)+(2)+(3)-(4)]
DOCKED: USER    Estimated Inhibition Constant, Ki   =    4.08 mM (millimolar)  [Temperature = 298.15 K]
DOCKED: USER    
DOCKED: USER    (1) Final Intermolecular Energy     =   -6.84 kcal/mol
DOCKED: USER        vdW + Hbond + desolv Energy     =   -6.85 kcal/mol
DOCKED: USER        Electrostatic Energy            =   +0.01 kcal/mol
DOCKED: USER    (2) Final Total Internal Energy     =   -2.72 kcal/mol
DOCKED: USER    (3) Torsional Free Energy           =   +3.58 kcal/mol
DOCKED: USER    (4) Unbound System's Energy  [=(2)] =   -2.72 kcal/mol
DOCKED: USER    
DOCKED: USER    
DOCKED: USER    NEWDPF move heme_Co_opt.pdbqt
DOCKED: USER    NEWDPF about 8.781000 34.984000 -0.736000
DOCKED: USER    NEWDPF tran0 7.749280 15.427318 -11.668456
DOCKED: USER    NEWDPF quaternion0 -0.463279 -0.788331 -0.052895 -0.401383
DOCKED: USER    NEWDPF axisangle0 -0.505813 -0.860708 -0.057752 -132.670645
DOCKED: USER    NEWDPF quat0 -0.505813 -0.860708 -0.057752 -132.670645
DOCKED: USER    NEWDPF dihe0 42.78 107.44 -26.28 81.02 100.02 90.87 171.30 -13.58 -67.08 178.27 -155.67 178.55 
DOCKED: USER  keepresnum = 1 
DOCKED: USER  
DOCKED: REMARK  12 active torsions:
DOCKED: REMARK  status: ('A' for Active; 'I' for Inactive)
DOCKED: REMARK    1  A    between atoms: C_6  and  C_10 
DOCKED: REMARK    2  A    between atoms: C_10  and  C_11 
DOCKED: REMARK    3  A    between atoms: C_11  and  C_12 
DOCKED: REMARK    4  A    between atoms: C_12  and  O_14 
DOCKED: REMARK    5  A    between atoms: C_17  and  C_20 
DOCKED: REMARK    6  A    between atoms: C_24  and  C_27 
DOCKED: REMARK    7  A    between atoms: C_31  and  C_34 
DOCKED: REMARK    8  A    between atoms: C_34  and  C_35 
DOCKED: REMARK    9  A    between atoms: C_35  and  C_36 
DOCKED: REMARK   10  A    between atoms: C_36  and  O_38 
DOCKED: REMARK   11  A    between atoms: FE_43  and  C_44 
DOCKED: REMARK   12  A    between atoms: C_44  and  O_45 
DOCKED: USER                              x       y       z     vdW  Elec       q    Type
DOCKED: USER                           _______ _______ _______ _____ _____    ______ ____
DOCKED: ROOT
DOCKED: ATOM      1  C   UNL d   1       9.112  13.991 -12.560 -0.15 +0.01    +0.064 A 
DOCKED: ATOM      2  C   UNL d   1       4.563  15.055 -13.445 -0.22 -0.01    +0.064 C 
DOCKED: ATOM      3  C   UNL d   1       4.507  18.069  -9.738 +0.03 -0.03    +0.064 A 
DOCKED: ATOM      4  C   UNL d   1       9.260  17.290  -9.051 -0.09 -0.00    +0.064 A 
DOCKED: ATOM      5  C   UNL d   1       7.863  14.033 -13.052 -0.20 +0.01    +0.066 A 
DOCKED: ATOM      6  C   UNL d   1       7.492  13.324 -14.211 -0.22 -0.00    -0.021 A 
DOCKED: ATOM      7  C   UNL d   1       6.177  13.654 -14.477 -0.22 -0.00    -0.025 A 
DOCKED: ATOM      8  C   UNL d   1       5.798  14.537 -13.460 -0.25 +0.00    +0.066 A 
DOCKED: ATOM      9  C   UNL d   1       5.299  13.166 -15.639 -0.10 +0.01    +0.051 C 
DOCKED: ATOM     10  C   UNL d   1       4.074  15.949 -12.426 -0.25 -0.01    +0.066 A 
DOCKED: ATOM     11  C   UNL d   1       2.750  16.416 -12.276 -0.29 +0.01    -0.021 A 
DOCKED: ATOM     12  C   UNL d   1       2.762  17.289 -11.185 -0.28 -0.00    +0.000 A 
DOCKED: ATOM     13  C   UNL d   1       4.085  17.282 -10.744 -0.22 -0.02    +0.070 A 
DOCKED: ATOM     14  C   UNL d   1       1.552  15.969 -13.073 -0.31 -0.03    +0.052 C 
DOCKED: ATOM     15  C   UNL d   1       5.840  18.225  -9.191 -0.20 -0.02    +0.066 A 
DOCKED: ATOM     16  C   UNL d   1       6.238  19.163  -8.248 -0.22 +0.01    -0.021 A 
DOCKED: ATOM     17  C   UNL d   1       7.608  18.944  -8.048 -0.17 -0.00    +0.000 A 
DOCKED: ATOM     18  C   UNL d   1       7.936  17.875  -8.875 -0.13 -0.01    +0.070 A 
DOCKED: ATOM     19  C   UNL d   1       5.337  20.191  -7.600 -0.28 -0.02    +0.052 C 
DOCKED: ATOM     20  C   UNL d   1       9.620  16.309  -9.912 -0.17 -0.00    +0.066 A 
DOCKED: ATOM     21  C   UNL d   1      10.933  15.855 -10.015 -0.17 -0.00    -0.025 A 
DOCKED: ATOM     22  C   UNL d   1      10.915  14.883 -10.999 -0.21 -0.00    -0.021 A 
DOCKED: ATOM     23  C   UNL d   1       9.584  14.800 -11.460 -0.23 +0.00    +0.066 A 
DOCKED: ATOM     24  C   UNL d   1      12.149  16.337  -9.230 -0.12 -0.00    +0.051 C 
DOCKED: ATOM     25  N   UNL d   1       6.820  14.785 -12.560 -0.17 -0.00    -0.248 N 
DOCKED: ATOM     26  N   UNL d   1       4.865  16.428 -11.459 -0.17 +0.05    -0.248 N 
DOCKED: ATOM     27  N   UNL d   1       6.866  17.493  -9.563 -0.17 +0.05    -0.248 N 
DOCKED: ATOM     28  N   UNL d   1       8.797  15.663 -10.806 -0.19 +0.00    -0.248 N 
DOCKED: ATOM     29 FE   UNL d   1       6.848  16.218 -10.972 -0.05 -0.00    +0.000 Fe
DOCKED: ENDROOT
DOCKED: BRANCH   6  30
DOCKED: ATOM     30  C   UNL d   1       8.394  12.437 -15.063 -0.17 +0.01    +0.052 C 
DOCKED: BRANCH  30  31
DOCKED: ATOM     31  C   UNL d   1       9.397  13.285 -15.845 -0.04 +0.01    +0.115 C 
DOCKED: BRANCH  31  32
DOCKED: ATOM     32  C   UNL d   1      10.817  13.100 -15.354 -0.03 +0.01    +0.139 C 
DOCKED: ATOM     33  O   UNL d   1      11.214  11.979 -15.072 +0.03 -0.05    -0.650 OA
DOCKED: BRANCH  32  34
DOCKED: ATOM     34  O   UNL d   1      11.684  14.135 -15.259 +0.02 +0.00    -0.776 OA
DOCKED: ATOM     35  H   UNL d   1      11.440  15.023 -14.965 +0.01 -0.00    +0.167 HD
DOCKED: ENDBRANCH  32  34
DOCKED: ENDBRANCH  31  32
DOCKED: ENDBRANCH  30  31
DOCKED: ENDBRANCH   6  30
DOCKED: BRANCH  29  36
DOCKED: ATOM     36  C   UNL d   1       7.353  17.646 -12.421 -0.03 -0.02    +0.190 C 
DOCKED: BRANCH  36  37
DOCKED: ATOM     37  O   UNL d   1       8.349  17.999 -13.337 +0.00 +0.03    -0.399 OA
DOCKED: ATOM     38  H   UNL d   1       9.092  17.355 -13.169 +0.02 -0.01    +0.209 HD
DOCKED: ENDBRANCH  36  37
DOCKED: ENDBRANCH  29  36
DOCKED: BRANCH  22  39
DOCKED: ATOM     39  C   UNL d   1      12.127  14.126 -11.510 -0.15 +0.00    +0.052 C 
DOCKED: BRANCH  39  40
DOCKED: ATOM     40  C   UNL d   1      12.914  14.978 -12.519 -0.03 -0.00    +0.115 C 
DOCKED: BRANCH  40  41
DOCKED: ATOM     41  C   UNL d   1      12.234  16.275 -12.906 -0.02 -0.00    +0.139 C 
DOCKED: ATOM     42  O   UNL d   1      12.833  17.331 -12.762 +0.01 +0.03    -0.650 OA
DOCKED: BRANCH  41  43
DOCKED: ATOM     43  O   UNL d   1      11.015  16.290 -13.489 +0.03 +0.02    -0.776 OA
DOCKED: ATOM     44  H   UNL d   1      10.643  15.519 -13.937 +0.02 -0.00    +0.167 HD
DOCKED: ENDBRANCH  41  43
DOCKED: ENDBRANCH  40  41
DOCKED: ENDBRANCH  39  40
DOCKED: ENDBRANCH  22  39
DOCKED: BRANCH  12  45
DOCKED: ATOM     45  C   UNL d   1       1.677  18.111 -10.502 -0.32 -0.00    +0.004 C 
DOCKED: ATOM     46  C   UNL d   1       0.670  17.735  -9.718 -0.49 -0.00    +0.012 C 
DOCKED: ENDBRANCH  12  45
DOCKED: BRANCH  17  47
DOCKED: ATOM     47  C   UNL d   1       8.579  19.692  -7.195 -0.12 -0.00    +0.004 C 
DOCKED: ATOM     48  C   UNL d   1       8.670  19.537  -5.872 -0.17 -0.00    +0.012 C 
DOCKED: ENDBRANCH  17  47
DOCKED: TORSDOF 12
DOCKED: TER
DOCKED: ENDMDL
________________________________________________________________________________


	BEGINNING GENETIC ALGORITHM DOCKING 57 of 100
Run: 57 Seed: 698732939 1128794328 [ Run 57 of 100 GA/GALS ]
Beginning LAMARCKIAN GENETIC ALGORITHM (LGA), with a maximum of 25000000 energy evaluations.

Final-Value: -9.789


	FINAL GENETIC ALGORITHM DOCKED STATE
	_______________________________________________


Detailed state:  trans -11.628 13.699 -6.466 quatxyzw -0.134557 -0.329661 0.814699 -0.457694 center 8.781 34.984 -0.736 ntor 12 -71.3743 100.7659 -80.4209 111.0653 137.6674 112.3200 55.3621 -14.8117 147.9642 -173.9027 -147.8987 173.1787
State:	-11.628  13.699  -6.466  -0.151 -0.371  0.916 -125.523    -71.37  100.77  -80.42  111.07  137.67  112.32   55.36  -14.81  147.96 -173.90 -147.90  173.18

DOCKED: MODEL       57
DOCKED: USER    Run = 57
DOCKED: USER    DPF = D:/Protein_go_brrr/autodock/final/mut_K82N/heme_Co/dock.dpf
DOCKED: USER  
DOCKED: USER    Estimated Free Energy of Binding    =   -2.71 kcal/mol  [=(1)+(2)+(3)-(4)]
DOCKED: USER    Estimated Inhibition Constant, Ki   =   10.27 mM (millimolar)  [Temperature = 298.15 K]
DOCKED: USER    
DOCKED: USER    (1) Final Intermolecular Energy     =   -6.29 kcal/mol
DOCKED: USER        vdW + Hbond + desolv Energy     =   -5.55 kcal/mol
DOCKED: USER        Electrostatic Energy            =   -0.74 kcal/mol
DOCKED: USER    (2) Final Total Internal Energy     =   -3.50 kcal/mol
DOCKED: USER    (3) Torsional Free Energy           =   +3.58 kcal/mol
DOCKED: USER    (4) Unbound System's Energy  [=(2)] =   -3.50 kcal/mol
DOCKED: USER    
DOCKED: USER    
DOCKED: USER    NEWDPF move heme_Co_opt.pdbqt
DOCKED: USER    NEWDPF about 8.781000 34.984000 -0.736000
DOCKED: USER    NEWDPF tran0 -11.627564 13.699350 -6.465917
DOCKED: USER    NEWDPF quaternion0 -0.134557 -0.329661 0.814699 -0.457694
DOCKED: USER    NEWDPF axisangle0 -0.151339 -0.370777 0.916308 -125.523206
DOCKED: USER    NEWDPF quat0 -0.151339 -0.370777 0.916308 -125.523206
DOCKED: USER    NEWDPF dihe0 -71.37 100.77 -80.42 111.07 137.67 112.32 55.36 -14.81 147.96 -173.90 -147.90 173.18 
DOCKED: USER  keepresnum = 1 
DOCKED: USER  
DOCKED: REMARK  12 active torsions:
DOCKED: REMARK  status: ('A' for Active; 'I' for Inactive)
DOCKED: REMARK    1  A    between atoms: C_6  and  C_10 
DOCKED: REMARK    2  A    between atoms: C_10  and  C_11 
DOCKED: REMARK    3  A    between atoms: C_11  and  C_12 
DOCKED: REMARK    4  A    between atoms: C_12  and  O_14 
DOCKED: REMARK    5  A    between atoms: C_17  and  C_20 
DOCKED: REMARK    6  A    between atoms: C_24  and  C_27 
DOCKED: REMARK    7  A    between atoms: C_31  and  C_34 
DOCKED: REMARK    8  A    between atoms: C_34  and  C_35 
DOCKED: REMARK    9  A    between atoms: C_35  and  C_36 
DOCKED: REMARK   10  A    between atoms: C_36  and  O_38 
DOCKED: REMARK   11  A    between atoms: FE_43  and  C_44 
DOCKED: REMARK   12  A    between atoms: C_44  and  O_45 
DOCKED: USER                              x       y       z     vdW  Elec       q    Type
DOCKED: USER                           _______ _______ _______ _____ _____    ______ ____
DOCKED: ROOT
DOCKED: ATOM      1  C   UNL d   1     -10.458  12.255  -7.590 -0.23 +0.02    +0.064 A 
DOCKED: ATOM      2  C   UNL d   1     -11.343  12.727  -2.941 -0.32 +0.02    +0.064 C 
DOCKED: ATOM      3  C   UNL d   1     -13.679  16.813  -3.762 -0.09 +0.02    +0.064 A 
DOCKED: ATOM      4  C   UNL d   1     -13.122  16.154  -8.550 -0.07 +0.05    +0.064 A 
DOCKED: ATOM      5  C   UNL d   1     -10.497  12.103  -6.256 -0.25 +0.02    +0.066 A 
DOCKED: ATOM      6  C   UNL d   1      -9.970  10.963  -5.618 -0.32 -0.01    -0.021 A 
DOCKED: ATOM      7  C   UNL d   1     -10.249  11.094  -4.272 -0.40 -0.01    -0.025 A 
DOCKED: ATOM      8  C   UNL d   1     -10.920  12.315  -4.143 -0.27 +0.02    +0.066 A 
DOCKED: ATOM      9  C   UNL d   1      -9.905  10.116  -3.138 -0.42 +0.01    +0.051 C 
DOCKED: ATOM     10  C   UNL d   1     -12.017  13.979  -2.708 -0.23 +0.02    +0.066 A 
DOCKED: ATOM     11  C   UNL d   1     -12.360  14.532  -1.455 -0.26 -0.00    -0.021 A 
DOCKED: ATOM     12  C   UNL d   1     -13.037  15.726  -1.724 -0.18 +0.00    +0.000 A 
DOCKED: ATOM     13  C   UNL d   1     -13.045  15.818  -3.116 -0.14 +0.02    +0.070 A 
DOCKED: ATOM     14  C   UNL d   1     -11.973  13.989  -0.104 -0.29 +0.01    +0.052 C 
DOCKED: ATOM     15  C   UNL d   1     -13.832  17.034  -5.187 -0.06 +0.03    +0.066 A 
DOCKED: ATOM     16  C   UNL d   1     -14.622  18.002  -5.789 -0.04 -0.01    -0.021 A 
DOCKED: ATOM     17  C   UNL d   1     -14.467  17.815  -7.170 -0.05 +0.00    +0.000 A 
DOCKED: ATOM     18  C   UNL d   1     -13.577  16.753  -7.301 -0.05 +0.05    +0.070 A 
DOCKED: ATOM     19  C   UNL d   1     -15.463  19.027  -5.060 -0.01 +0.01    +0.052 C 
DOCKED: ATOM     20  C   UNL d   1     -12.326  15.069  -8.701 -0.12 +0.05    +0.066 A 
DOCKED: ATOM     21  C   UNL d   1     -11.987  14.565  -9.955 -0.13 -0.01    -0.025 A 
DOCKED: ATOM     22  C   UNL d   1     -11.196  13.457  -9.710 -0.16 -0.01    -0.021 A 
DOCKED: ATOM     23  C   UNL d   1     -11.101  13.333  -8.307 -0.22 +0.03    +0.066 A 
DOCKED: ATOM     24  C   UNL d   1     -12.412  15.099 -11.320 -0.06 +0.02    +0.051 C 
DOCKED: ATOM     25  N   UNL d   1     -11.082  12.964  -5.356 -0.15 -0.11    -0.248 N 
DOCKED: ATOM     26  N   UNL d   1     -12.380  14.791  -3.708 -0.06 -0.10    -0.248 N 
DOCKED: ATOM     27  N   UNL d   1     -13.244  16.294  -6.100 -0.03 -0.19    -0.248 N 
DOCKED: ATOM     28  N   UNL d   1     -11.786  14.305  -7.693 -0.12 -0.19    -0.248 N 
DOCKED: ATOM     29 FE   UNL d   1     -12.226  14.728  -5.754 -0.05 +0.00    +0.000 Fe
DOCKED: ENDROOT
DOCKED: BRANCH   6  30
DOCKED: ATOM     30  C   UNL d   1      -9.303   9.769  -6.294 -0.30 +0.02    +0.052 C 
DOCKED: BRANCH  30  31
DOCKED: ATOM     31  C   UNL d   1     -10.296   9.040  -7.198 -0.15 +0.04    +0.115 C 
DOCKED: BRANCH  31  32
DOCKED: ATOM     32  C   UNL d   1     -11.706   9.071  -6.650 -0.06 +0.05    +0.139 C 
DOCKED: ATOM     33  O   UNL d   1     -11.996   8.364  -5.697 +0.03 -0.33    -0.650 OA
DOCKED: BRANCH  32  34
DOCKED: ATOM     34  O   UNL d   1     -12.653   9.897  -7.153 +0.06 -0.21    -0.776 OA
DOCKED: ATOM     35  H   UNL d   1     -12.693  10.848  -6.980 +0.03 +0.04    +0.167 HD
DOCKED: ENDBRANCH  32  34
DOCKED: ENDBRANCH  31  32
DOCKED: ENDBRANCH  30  31
DOCKED: ENDBRANCH   6  30
DOCKED: BRANCH  29  36
DOCKED: ATOM     36  C   UNL d   1     -13.909  13.480  -5.839 -0.04 +0.05    +0.190 C 
DOCKED: BRANCH  36  37
DOCKED: ATOM     37  O   UNL d   1     -14.360  12.250  -6.327 +0.00 -0.08    -0.399 OA
DOCKED: ATOM     38  H   UNL d   1     -13.651  11.950  -6.963 +0.02 +0.05    +0.209 HD
DOCKED: ENDBRANCH  36  37
DOCKED: ENDBRANCH  29  36
DOCKED: BRANCH  22  39
DOCKED: ATOM     39  C   UNL d   1     -10.620  12.536 -10.768 -0.09 +0.02    +0.052 C 
DOCKED: BRANCH  39  40
DOCKED: ATOM     40  C   UNL d   1     -11.638  11.451 -11.156 -0.04 +0.02    +0.115 C 
DOCKED: BRANCH  40  41
DOCKED: ATOM     41  C   UNL d   1     -12.961  11.546 -10.424 -0.01 +0.02    +0.139 C 
DOCKED: ATOM     42  O   UNL d   1     -13.995  11.641 -11.069 +0.01 -0.08    -0.650 OA
DOCKED: BRANCH  41  43
DOCKED: ATOM     43  O   UNL d   1     -13.037  11.440  -9.079 +0.04 -0.16    -0.776 OA
DOCKED: ATOM     44  H   UNL d   1     -12.937  10.597  -8.618 +0.01 +0.03    +0.167 HD
DOCKED: ENDBRANCH  41  43
DOCKED: ENDBRANCH  40  41
DOCKED: ENDBRANCH  39  40
DOCKED: ENDBRANCH  22  39
DOCKED: BRANCH  12  45
DOCKED: ATOM     45  C   UNL d   1     -13.656  16.792  -0.831 -0.12 +0.00    +0.004 C 
DOCKED: ATOM     46  C   UNL d   1     -13.214  17.999  -0.489 -0.13 +0.00    +0.012 C 
DOCKED: ENDBRANCH  12  45
DOCKED: BRANCH  17  47
DOCKED: ATOM     47  C   UNL d   1     -15.125  18.522  -8.309 -0.02 +0.00    +0.004 C 
DOCKED: ATOM     48  C   UNL d   1     -14.461  19.265  -9.198 -0.01 +0.00    +0.012 C 
DOCKED: ENDBRANCH  17  47
DOCKED: TORSDOF 12
DOCKED: TER
DOCKED: ENDMDL
________________________________________________________________________________


	BEGINNING GENETIC ALGORITHM DOCKING 58 of 100
Run: 58 Seed: 41817048 652227843 [ Run 58 of 100 GA/GALS ]
Beginning LAMARCKIAN GENETIC ALGORITHM (LGA), with a maximum of 25000000 energy evaluations.

Final-Value: -9.921


	FINAL GENETIC ALGORITHM DOCKED STATE
	_______________________________________________


Detailed state:  trans 11.449 4.209 16.873 quatxyzw 0.435383 0.759882 0.060215 -0.478952 center 8.781 34.984 -0.736 ntor 12 130.4759 109.5314 -59.7536 35.9230 -89.2756 105.8356 -132.6691 -22.8526 -126.5826 -159.1199 -170.8699 165.9475
State:	 11.449   4.209  16.873   0.496  0.866  0.069 -122.766    130.48  109.53  -59.75   35.92  -89.28  105.84 -132.67  -22.85 -126.58 -159.12 -170.87  165.95

DOCKED: MODEL       58
DOCKED: USER    Run = 58
DOCKED: USER    DPF = D:/Protein_go_brrr/autodock/final/mut_K82N/heme_Co/dock.dpf
DOCKED: USER  
DOCKED: USER    Estimated Free Energy of Binding    =   -2.34 kcal/mol  [=(1)+(2)+(3)-(4)]
DOCKED: USER    Estimated Inhibition Constant, Ki   =   19.35 mM (millimolar)  [Temperature = 298.15 K]
DOCKED: USER    
DOCKED: USER    (1) Final Intermolecular Energy     =   -5.92 kcal/mol
DOCKED: USER        vdW + Hbond + desolv Energy     =   -5.65 kcal/mol
DOCKED: USER        Electrostatic Energy            =   -0.27 kcal/mol
DOCKED: USER    (2) Final Total Internal Energy     =   -4.00 kcal/mol
DOCKED: USER    (3) Torsional Free Energy           =   +3.58 kcal/mol
DOCKED: USER    (4) Unbound System's Energy  [=(2)] =   -4.00 kcal/mol
DOCKED: USER    
DOCKED: USER    
DOCKED: USER    NEWDPF move heme_Co_opt.pdbqt
DOCKED: USER    NEWDPF about 8.781000 34.984000 -0.736000
DOCKED: USER    NEWDPF tran0 11.449248 4.208879 16.872720
DOCKED: USER    NEWDPF quaternion0 0.435383 0.759882 0.060215 -0.478952
DOCKED: USER    NEWDPF axisangle0 0.495971 0.865626 0.068594 -122.766021
DOCKED: USER    NEWDPF quat0 0.495971 0.865626 0.068594 -122.766021
DOCKED: USER    NEWDPF dihe0 130.48 109.53 -59.75 35.92 -89.28 105.84 -132.67 -22.85 -126.58 -159.12 -170.87 165.95 
DOCKED: USER  keepresnum = 1 
DOCKED: USER  
DOCKED: REMARK  12 active torsions:
DOCKED: REMARK  status: ('A' for Active; 'I' for Inactive)
DOCKED: REMARK    1  A    between atoms: C_6  and  C_10 
DOCKED: REMARK    2  A    between atoms: C_10  and  C_11 
DOCKED: REMARK    3  A    between atoms: C_11  and  C_12 
DOCKED: REMARK    4  A    between atoms: C_12  and  O_14 
DOCKED: REMARK    5  A    between atoms: C_17  and  C_20 
DOCKED: REMARK    6  A    between atoms: C_24  and  C_27 
DOCKED: REMARK    7  A    between atoms: C_31  and  C_34 
DOCKED: REMARK    8  A    between atoms: C_34  and  C_35 
DOCKED: REMARK    9  A    between atoms: C_35  and  C_36 
DOCKED: REMARK   10  A    between atoms: C_36  and  O_38 
DOCKED: REMARK   11  A    between atoms: FE_43  and  C_44 
DOCKED: REMARK   12  A    between atoms: C_44  and  O_45 
DOCKED: USER                              x       y       z     vdW  Elec       q    Type
DOCKED: USER                           _______ _______ _______ _____ _____    ______ ____
DOCKED: ROOT
DOCKED: ATOM      1  C   UNL d   1      11.401   3.400  18.887 -0.10 +0.01    +0.064 A 
DOCKED: ATOM      2  C   UNL d   1      12.505   1.457  14.690 -0.22 -0.01    +0.064 C 
DOCKED: ATOM      3  C   UNL d   1      11.266   5.494  12.454 -0.20 -0.00    +0.064 A 
DOCKED: ATOM      4  C   UNL d   1      10.499   7.627  16.757 -0.08 -0.00    +0.064 A 
DOCKED: ATOM      5  C   UNL d   1      11.759   2.561  17.902 -0.20 +0.00    +0.066 A 
DOCKED: ATOM      6  C   UNL d   1      12.263   1.272  18.164 -0.25 +0.00    -0.021 A 
DOCKED: ATOM      7  C   UNL d   1      12.603   0.721  16.944 -0.25 +0.00    -0.025 A 
DOCKED: ATOM      8  C   UNL d   1      12.277   1.690  15.989 -0.21 -0.01    +0.066 A 
DOCKED: ATOM      9  C   UNL d   1      13.213  -0.662  16.671 -0.30 -0.00    +0.051 C 
DOCKED: ATOM     10  C   UNL d   1      12.178   2.383  13.634 -0.17 -0.01    +0.066 A 
DOCKED: ATOM     11  C   UNL d   1      12.262   2.143  12.246 -0.18 +0.00    -0.021 A 
DOCKED: ATOM     12  C   UNL d   1      11.891   3.336  11.617 -0.05 -0.00    +0.000 A 
DOCKED: ATOM     13  C   UNL d   1      11.597   4.208  12.666 -0.12 -0.00    +0.070 A 
DOCKED: ATOM     14  C   UNL d   1      12.583   0.827  11.585 -0.19 -0.01    +0.052 C 
DOCKED: ATOM     15  C   UNL d   1      10.983   6.541  13.415 -0.19 -0.00    +0.066 A 
DOCKED: ATOM     16  C   UNL d   1      10.789   7.886  13.134 -0.18 -0.00    -0.021 A 
DOCKED: ATOM     17  C   UNL d   1      10.570   8.506  14.372 -0.15 +0.00    +0.000 A 
DOCKED: ATOM     18  C   UNL d   1      10.631   7.484  15.313 -0.14 -0.00    +0.070 A 
DOCKED: ATOM     19  C   UNL d   1      10.819   8.507  11.755 -0.17 +0.00    +0.052 C 
DOCKED: ATOM     20  C   UNL d   1      10.640   6.663  17.698 -0.09 +0.00    +0.066 A 
DOCKED: ATOM     21  C   UNL d   1      10.526   6.931  19.060 -0.07 -0.00    -0.025 A 
DOCKED: ATOM     22  C   UNL d   1      10.752   5.725  19.698 -0.15 -0.00    -0.021 A 
DOCKED: ATOM     23  C   UNL d   1      11.008   4.776  18.685 -0.17 +0.01    +0.066 A 
DOCKED: ATOM     24  C   UNL d   1      10.234   8.274  19.724 -0.03 +0.00    +0.051 C 
DOCKED: ATOM     25  N   UNL d   1      11.747   2.838  16.554 -0.13 +0.02    -0.248 N 
DOCKED: ATOM     26  N   UNL d   1      11.717   3.614  13.883 -0.11 +0.02    -0.248 N 
DOCKED: ATOM     27  N   UNL d   1      10.908   6.333  14.711 -0.11 +0.02    -0.248 N 
DOCKED: ATOM     28  N   UNL d   1      10.943   5.340  17.474 -0.09 -0.01    -0.248 N 
DOCKED: ATOM     29 FE   UNL d   1      11.302   4.690  15.581 -0.04 -0.00    +0.000 Fe
DOCKED: ENDROOT
DOCKED: BRANCH   6  30
DOCKED: ATOM     30  C   UNL d   1      12.480   0.642  19.536 -0.25 +0.01    +0.052 C 
DOCKED: BRANCH  30  31
DOCKED: ATOM     31  C   UNL d   1      13.855   1.018  20.088 -0.12 +0.02    +0.115 C 
DOCKED: BRANCH  31  32
DOCKED: ATOM     32  C   UNL d   1      14.102   2.510  20.054 -0.09 +0.03    +0.139 C 
DOCKED: ATOM     33  O   UNL d   1      13.917   3.173  21.064 -0.02 -0.21    -0.650 OA
DOCKED: BRANCH  32  34
DOCKED: ATOM     34  O   UNL d   1      14.570   3.136  18.949 +0.04 -0.07    -0.776 OA
DOCKED: ATOM     35  H   UNL d   1      14.143   3.896  18.533 +0.02 +0.01    +0.167 HD
DOCKED: ENDBRANCH  32  34
DOCKED: ENDBRANCH  31  32
DOCKED: ENDBRANCH  30  31
DOCKED: ENDBRANCH   6  30
DOCKED: BRANCH  29  36
DOCKED: ATOM     36  C   UNL d   1      13.336   5.155  15.781 -0.02 -0.00    +0.190 C 
DOCKED: BRANCH  36  37
DOCKED: ATOM     37  O   UNL d   1      14.387   5.183  16.704 +0.00 -0.00    -0.399 OA
DOCKED: ATOM     38  H   UNL d   1      13.973   4.918  17.572 +0.02 +0.01    +0.209 HD
DOCKED: ENDBRANCH  36  37
DOCKED: ENDBRANCH  29  36
DOCKED: BRANCH  22  39
DOCKED: ATOM     39  C   UNL d   1      10.785   5.516  21.201 -0.15 +0.02    +0.052 C 
DOCKED: BRANCH  39  40
DOCKED: ATOM     40  C   UNL d   1      12.220   5.650  21.736 -0.06 +0.05    +0.115 C 
DOCKED: BRANCH  40  41
DOCKED: ATOM     41  C   UNL d   1      13.189   6.300  20.771 -0.04 +0.03    +0.139 C 
DOCKED: ATOM     42  O   UNL d   1      13.689   7.378  21.060 +0.01 -0.09    -0.650 OA
DOCKED: BRANCH  41  43
DOCKED: ATOM     43  O   UNL d   1      13.584   5.681  19.636 +0.03 -0.10    -0.776 OA
DOCKED: ATOM     44  H   UNL d   1      13.959   4.791  19.634 +0.02 +0.02    +0.167 HD
DOCKED: ENDBRANCH  41  43
DOCKED: ENDBRANCH  40  41
DOCKED: ENDBRANCH  39  40
DOCKED: ENDBRANCH  22  39
DOCKED: BRANCH  12  45
DOCKED: ATOM     45  C   UNL d   1      11.763   3.743  10.156 -0.23 -0.00    +0.004 C 
DOCKED: ATOM     46  C   UNL d   1      11.501   3.014   9.073 -0.33 -0.00    +0.012 C 
DOCKED: ENDBRANCH  12  45
DOCKED: BRANCH  17  47
DOCKED: ATOM     47  C   UNL d   1      10.367   9.951  14.693 -0.10 +0.00    +0.004 C 
DOCKED: ATOM     48  C   UNL d   1      11.259  10.691  15.356 -0.06 -0.00    +0.012 C 
DOCKED: ENDBRANCH  17  47
DOCKED: TORSDOF 12
DOCKED: TER
DOCKED: ENDMDL
________________________________________________________________________________


	BEGINNING GENETIC ALGORITHM DOCKING 59 of 100
Run: 59 Seed: 1879407223 914805561 [ Run 59 of 100 GA/GALS ]
Beginning LAMARCKIAN GENETIC ALGORITHM (LGA), with a maximum of 25000000 energy evaluations.

Final-Value: -9.228


	FINAL GENETIC ALGORITHM DOCKED STATE
	_______________________________________________


Detailed state:  trans -14.055 3.096 -3.344 quatxyzw 0.379261 -0.450737 0.319809 -0.742105 center 8.781 34.984 -0.736 ntor 12 169.5036 121.3928 0.6484 -94.3337 158.0424 136.1692 -133.4406 138.0500 -139.6593 -150.3309 -175.8036 -2.0006
State:	-14.055   3.096  -3.344   0.566 -0.672  0.477 -84.178    169.50  121.39    0.65  -94.33  158.04  136.17 -133.44  138.05 -139.66 -150.33 -175.80   -2.00

DOCKED: MODEL       59
DOCKED: USER    Run = 59
DOCKED: USER    DPF = D:/Protein_go_brrr/autodock/final/mut_K82N/heme_Co/dock.dpf
DOCKED: USER  
DOCKED: USER    Estimated Free Energy of Binding    =   -3.45 kcal/mol  [=(1)+(2)+(3)-(4)]
DOCKED: USER    Estimated Inhibition Constant, Ki   =    2.94 mM (millimolar)  [Temperature = 298.15 K]
DOCKED: USER    
DOCKED: USER    (1) Final Intermolecular Energy     =   -7.03 kcal/mol
DOCKED: USER        vdW + Hbond + desolv Energy     =   -5.12 kcal/mol
DOCKED: USER        Electrostatic Energy            =   -1.91 kcal/mol
DOCKED: USER    (2) Final Total Internal Energy     =   -2.20 kcal/mol
DOCKED: USER    (3) Torsional Free Energy           =   +3.58 kcal/mol
DOCKED: USER    (4) Unbound System's Energy  [=(2)] =   -2.20 kcal/mol
DOCKED: USER    
DOCKED: USER    
DOCKED: USER    NEWDPF move heme_Co_opt.pdbqt
DOCKED: USER    NEWDPF about 8.781000 34.984000 -0.736000
DOCKED: USER    NEWDPF tran0 -14.054548 3.096373 -3.343634
DOCKED: USER    NEWDPF quaternion0 0.379261 -0.450737 0.319809 -0.742105
DOCKED: USER    NEWDPF axisangle0 0.565821 -0.672457 0.477125 -84.177999
DOCKED: USER    NEWDPF quat0 0.565821 -0.672457 0.477125 -84.177999
DOCKED: USER    NEWDPF dihe0 169.50 121.39 0.65 -94.33 158.04 136.17 -133.44 138.05 -139.66 -150.33 -175.80 -2.00 
DOCKED: USER  keepresnum = 1 
DOCKED: USER  
DOCKED: REMARK  12 active torsions:
DOCKED: REMARK  status: ('A' for Active; 'I' for Inactive)
DOCKED: REMARK    1  A    between atoms: C_6  and  C_10 
DOCKED: REMARK    2  A    between atoms: C_10  and  C_11 
DOCKED: REMARK    3  A    between atoms: C_11  and  C_12 
DOCKED: REMARK    4  A    between atoms: C_12  and  O_14 
DOCKED: REMARK    5  A    between atoms: C_17  and  C_20 
DOCKED: REMARK    6  A    between atoms: C_24  and  C_27 
DOCKED: REMARK    7  A    between atoms: C_31  and  C_34 
DOCKED: REMARK    8  A    between atoms: C_34  and  C_35 
DOCKED: REMARK    9  A    between atoms: C_35  and  C_36 
DOCKED: REMARK   10  A    between atoms: C_36  and  O_38 
DOCKED: REMARK   11  A    between atoms: FE_43  and  C_44 
DOCKED: REMARK   12  A    between atoms: C_44  and  O_45 
DOCKED: USER                              x       y       z     vdW  Elec       q    Type
DOCKED: USER                           _______ _______ _______ _____ _____    ______ ____
DOCKED: ROOT
DOCKED: ATOM      1  C   UNL d   1     -14.853   3.816  -5.231 -0.07 +0.05    +0.064 A 
DOCKED: ATOM      2  C   UNL d   1     -13.783  -0.546  -3.670 -0.06 +0.01    +0.064 C 
DOCKED: ATOM      3  C   UNL d   1     -12.007   1.292   0.366 -0.25 -0.00    +0.064 A 
DOCKED: ATOM      4  C   UNL d   1     -13.439   5.724  -1.037 -0.16 +0.02    +0.064 A 
DOCKED: ATOM      5  C   UNL d   1     -14.658   2.492  -5.116 -0.08 +0.05    +0.066 A 
DOCKED: ATOM      6  C   UNL d   1     -15.118   1.583  -6.089 -0.05 -0.01    -0.021 A 
DOCKED: ATOM      7  C   UNL d   1     -14.825   0.317  -5.620 -0.04 -0.01    -0.025 A 
DOCKED: ATOM      8  C   UNL d   1     -14.185   0.509  -4.391 -0.06 +0.02    +0.066 A 
DOCKED: ATOM      9  C   UNL d   1     -15.131  -1.031  -6.291 -0.02 +0.01    +0.051 C 
DOCKED: ATOM     10  C   UNL d   1     -13.093  -0.447  -2.409 -0.08 +0.00    +0.066 A 
DOCKED: ATOM     11  C   UNL d   1     -12.522  -1.508  -1.673 -0.12 +0.01    -0.021 A 
DOCKED: ATOM     12  C   UNL d   1     -12.008  -0.943  -0.502 -0.23 -0.00    +0.000 A 
DOCKED: ATOM     13  C   UNL d   1     -12.291   0.418  -0.616 -0.18 -0.00    +0.070 A 
DOCKED: ATOM     14  C   UNL d   1     -12.403  -2.941  -2.122 -0.12 -0.03    +0.052 C 
DOCKED: ATOM     15  C   UNL d   1     -12.274   2.715   0.438 -0.20 +0.01    +0.066 A 
DOCKED: ATOM     16  C   UNL d   1     -12.086   3.533   1.542 -0.32 -0.00    -0.021 A 
DOCKED: ATOM     17  C   UNL d   1     -12.500   4.812   1.144 -0.31 +0.00    +0.000 A 
DOCKED: ATOM     18  C   UNL d   1     -12.894   4.675  -0.183 -0.17 +0.02    +0.070 A 
DOCKED: ATOM     19  C   UNL d   1     -11.543   3.087   2.882 -0.37 +0.00    +0.052 C 
DOCKED: ATOM     20  C   UNL d   1     -13.909   5.596  -2.301 -0.12 +0.03    +0.066 A 
DOCKED: ATOM     21  C   UNL d   1     -14.443   6.672  -3.007 -0.07 -0.01    -0.025 A 
DOCKED: ATOM     22  C   UNL d   1     -14.832   6.158  -4.231 -0.07 -0.01    -0.021 A 
DOCKED: ATOM     23  C   UNL d   1     -14.525   4.781  -4.205 -0.08 +0.05    +0.066 A 
DOCKED: ATOM     24  C   UNL d   1     -14.594   8.115  -2.533 -0.04 +0.01    +0.051 C 
DOCKED: ATOM     25  N   UNL d   1     -14.062   1.847  -4.057 -0.07 -0.15    -0.248 N 
DOCKED: ATOM     26  N   UNL d   1     -12.897   0.725  -1.794 -0.08 -0.03    -0.248 N 
DOCKED: ATOM     27  N   UNL d   1     -12.775   3.407  -0.561 -0.11 -0.07    -0.248 N 
DOCKED: ATOM     28  N   UNL d   1     -13.968   4.437  -3.038 -0.10 -0.16    -0.248 N 
DOCKED: ATOM     29 FE   UNL d   1     -13.381   2.677  -2.206 -0.04 +0.00    +0.000 Fe
DOCKED: ENDROOT
DOCKED: BRANCH   6  30
DOCKED: ATOM     30  C   UNL d   1     -15.877   1.924  -7.367 -0.01 +0.02    +0.052 C 
DOCKED: BRANCH  30  31
DOCKED: ATOM     31  C   UNL d   1     -17.385   1.885  -7.122 +0.00 +0.02    +0.115 C 
DOCKED: BRANCH  31  32
DOCKED: ATOM     32  C   UNL d   1     -17.765   2.440  -5.767 +0.00 +0.02    +0.139 C 
DOCKED: ATOM     33  O   UNL d   1     -18.134   3.601  -5.675 +0.01 -0.09    -0.650 OA
DOCKED: BRANCH  32  34
DOCKED: ATOM     34  O   UNL d   1     -17.757   1.675  -4.650 +0.01 -0.08    -0.776 OA
DOCKED: ATOM     35  H   UNL d   1     -17.792   2.027  -3.750 +0.00 +0.02    +0.167 HD
DOCKED: ENDBRANCH  32  34
DOCKED: ENDBRANCH  31  32
DOCKED: ENDBRANCH  30  31
DOCKED: ENDBRANCH   6  30
DOCKED: BRANCH  29  36
DOCKED: ATOM     36  C   UNL d   1     -15.318   2.349  -1.475 -0.03 +0.03    +0.190 C 
DOCKED: BRANCH  36  37
DOCKED: ATOM     37  O   UNL d   1     -16.637   2.115  -1.879 +0.00 -0.04    -0.399 OA
DOCKED: ATOM     38  H   UNL d   1     -16.582   1.975  -2.866 +0.01 +0.03    +0.209 HD
DOCKED: ENDBRANCH  36  37
DOCKED: ENDBRANCH  29  36
DOCKED: BRANCH  22  39
DOCKED: ATOM     39  C   UNL d   1     -15.521   6.939  -5.334 -0.02 +0.02    +0.052 C 
DOCKED: BRANCH  39  40
DOCKED: ATOM     40  C   UNL d   1     -14.509   7.365  -6.411 -0.02 +0.05    +0.115 C 
DOCKED: BRANCH  40  41
DOCKED: ATOM     41  C   UNL d   1     -13.270   6.497  -6.482 +0.01 +0.15    +0.139 C 
DOCKED: ATOM     42  O   UNL d   1     -12.339   6.720  -5.722 -0.36 -0.84    -0.650 OA
DOCKED: BRANCH  41  43
DOCKED: ATOM     43  O   UNL d   1     -13.199   5.425  -7.303 -0.10 -1.12    -0.776 OA
DOCKED: ATOM     44  H   UNL d   1     -13.887   5.221  -7.950 +0.01 +0.14    +0.167 HD
DOCKED: ENDBRANCH  41  43
DOCKED: ENDBRANCH  40  41
DOCKED: ENDBRANCH  39  40
DOCKED: ENDBRANCH  22  39
DOCKED: BRANCH  12  45
DOCKED: ATOM     45  C   UNL d   1     -11.269  -1.527   0.694 -0.23 -0.00    +0.004 C 
DOCKED: ATOM     46  C   UNL d   1     -11.697  -1.811   1.921 -0.17 -0.01    +0.012 C 
DOCKED: ENDBRANCH  12  45
DOCKED: BRANCH  17  47
DOCKED: ATOM     47  C   UNL d   1     -12.583   6.077   1.933 -0.23 +0.00    +0.004 C 
DOCKED: ATOM     48  C   UNL d   1     -12.179   7.262   1.470 -0.38 +0.00    +0.012 C 
DOCKED: ENDBRANCH  17  47
DOCKED: TORSDOF 12
DOCKED: TER
DOCKED: ENDMDL
________________________________________________________________________________


	BEGINNING GENETIC ALGORITHM DOCKING 60 of 100
Run: 60 Seed: 1113555023 1710158106 [ Run 60 of 100 GA/GALS ]
Beginning LAMARCKIAN GENETIC ALGORITHM (LGA), with a maximum of 25000000 energy evaluations.

Final-Value: -11.020


	FINAL GENETIC ALGORITHM DOCKED STATE
	_______________________________________________


Detailed state:  trans -8.779 6.459 -14.672 quatxyzw -0.358363 -0.137812 0.389186 -0.837328 center 8.781 34.984 -0.736 ntor 12 -15.4616 98.6965 -142.9522 -114.9768 130.6131 122.6507 -147.4447 -28.4346 -3.4975 86.6083 -172.7670 162.9819
State:	 -8.779   6.459 -14.672  -0.656 -0.252  0.712 -66.282    -15.46   98.70 -142.95 -114.98  130.61  122.65 -147.44  -28.43   -3.50   86.61 -172.77  162.98

DOCKED: MODEL       60
DOCKED: USER    Run = 60
DOCKED: USER    DPF = D:/Protein_go_brrr/autodock/final/mut_K82N/heme_Co/dock.dpf
DOCKED: USER  
DOCKED: USER    Estimated Free Energy of Binding    =   -5.19 kcal/mol  [=(1)+(2)+(3)-(4)]
DOCKED: USER    Estimated Inhibition Constant, Ki   =  155.67 uM (micromolar)  [Temperature = 298.15 K]
DOCKED: USER    
DOCKED: USER    (1) Final Intermolecular Energy     =   -8.77 kcal/mol
DOCKED: USER        vdW + Hbond + desolv Energy     =   -6.71 kcal/mol
DOCKED: USER        Electrostatic Energy            =   -2.06 kcal/mol
DOCKED: USER    (2) Final Total Internal Energy     =   -2.25 kcal/mol
DOCKED: USER    (3) Torsional Free Energy           =   +3.58 kcal/mol
DOCKED: USER    (4) Unbound System's Energy  [=(2)] =   -2.25 kcal/mol
DOCKED: USER    
DOCKED: USER    
DOCKED: USER    NEWDPF move heme_Co_opt.pdbqt
DOCKED: USER    NEWDPF about 8.781000 34.984000 -0.736000
DOCKED: USER    NEWDPF tran0 -8.778616 6.458633 -14.671817
DOCKED: USER    NEWDPF quaternion0 -0.358363 -0.137812 0.389186 -0.837328
DOCKED: USER    NEWDPF axisangle0 -0.655501 -0.252080 0.711881 -66.281982
DOCKED: USER    NEWDPF quat0 -0.655501 -0.252080 0.711881 -66.281982
DOCKED: USER    NEWDPF dihe0 -15.46 98.70 -142.95 -114.98 130.61 122.65 -147.44 -28.43 -3.50 86.61 -172.77 162.98 
DOCKED: USER  keepresnum = 1 
DOCKED: USER  
DOCKED: REMARK  12 active torsions:
DOCKED: REMARK  status: ('A' for Active; 'I' for Inactive)
DOCKED: REMARK    1  A    between atoms: C_6  and  C_10 
DOCKED: REMARK    2  A    between atoms: C_10  and  C_11 
DOCKED: REMARK    3  A    between atoms: C_11  and  C_12 
DOCKED: REMARK    4  A    between atoms: C_12  and  O_14 
DOCKED: REMARK    5  A    between atoms: C_17  and  C_20 
DOCKED: REMARK    6  A    between atoms: C_24  and  C_27 
DOCKED: REMARK    7  A    between atoms: C_31  and  C_34 
DOCKED: REMARK    8  A    between atoms: C_34  and  C_35 
DOCKED: REMARK    9  A    between atoms: C_35  and  C_36 
DOCKED: REMARK   10  A    between atoms: C_36  and  O_38 
DOCKED: REMARK   11  A    between atoms: FE_43  and  C_44 
DOCKED: REMARK   12  A    between atoms: C_44  and  O_45 
DOCKED: USER                              x       y       z     vdW  Elec       q    Type
DOCKED: USER                           _______ _______ _______ _____ _____    ______ ____
DOCKED: ROOT
DOCKED: ATOM      1  C   UNL d   1      -9.897   4.807 -15.531 -0.23 +0.02    +0.064 A 
DOCKED: ATOM      2  C   UNL d   1      -9.500   6.422 -11.076 -0.14 +0.01    +0.064 C 
DOCKED: ATOM      3  C   UNL d   1      -6.231   9.610 -12.483 -0.20 -0.01    +0.064 A 
DOCKED: ATOM      4  C   UNL d   1      -6.901   8.240 -17.102 -0.12 -0.01    +0.064 A 
DOCKED: ATOM      5  C   UNL d   1     -10.002   4.990 -14.204 -0.24 +0.02    +0.066 A 
DOCKED: ATOM      6  C   UNL d   1     -10.931   4.276 -13.423 -0.13 -0.01    -0.021 A 
DOCKED: ATOM      7  C   UNL d   1     -10.828   4.765 -12.135 -0.16 -0.01    -0.025 A 
DOCKED: ATOM      8  C   UNL d   1      -9.829   5.743 -12.183 -0.15 +0.01    +0.066 A 
DOCKED: ATOM      9  C   UNL d   1     -11.631   4.337 -10.898 -0.13 +0.02    +0.051 C 
DOCKED: ATOM     10  C   UNL d   1      -8.468   7.427 -11.023 -0.11 +0.01    +0.066 A 
DOCKED: ATOM     11  C   UNL d   1      -7.979   8.074  -9.867 -0.16 -0.00    -0.021 A 
DOCKED: ATOM     12  C   UNL d   1      -7.024   8.995 -10.306 -0.25 +0.00    +0.000 A 
DOCKED: ATOM     13  C   UNL d   1      -6.992   8.834 -11.691 -0.17 -0.00    +0.070 A 
DOCKED: ATOM     14  C   UNL d   1      -8.345   7.750  -8.441 -0.22 +0.01    +0.052 C 
DOCKED: ATOM     15  C   UNL d   1      -6.115   9.616 -13.928 -0.14 -0.01    +0.066 A 
DOCKED: ATOM     16  C   UNL d   1      -5.420  10.541 -14.695 -0.14 +0.00    -0.021 A 
DOCKED: ATOM     17  C   UNL d   1      -5.613  10.151 -16.028 -0.08 -0.00    +0.000 A 
DOCKED: ATOM     18  C   UNL d   1      -6.399   9.005 -15.968 -0.10 -0.01    +0.070 A 
DOCKED: ATOM     19  C   UNL d   1      -4.633  11.713 -14.154 -0.36 -0.02    +0.052 C 
DOCKED: ATOM     20  C   UNL d   1      -7.737   7.174 -17.072 -0.16 -0.01    +0.066 A 
DOCKED: ATOM     21  C   UNL d   1      -8.179   6.543 -18.233 -0.17 +0.00    -0.025 A 
DOCKED: ATOM     22  C   UNL d   1      -9.022   5.531 -17.810 -0.21 -0.00    -0.021 A 
DOCKED: ATOM     23  C   UNL d   1      -9.061   5.603 -16.401 -0.23 +0.01    +0.066 A 
DOCKED: ATOM     24  C   UNL d   1      -7.833   6.899 -19.676 -0.12 -0.01    +0.051 C 
DOCKED: ATOM     25  N   UNL d   1      -9.296   5.900 -13.451 -0.09 -0.03    -0.248 N 
DOCKED: ATOM     26  N   UNL d   1      -7.824   7.847 -12.117 +0.04 -0.01    -0.248 N 
DOCKED: ATOM     27  N   UNL d   1      -6.704   8.733 -14.704 -0.07 +0.02    -0.248 N 
DOCKED: ATOM     28  N   UNL d   1      -8.287   6.598 -15.951 -0.14 +0.01    -0.248 N 
DOCKED: ATOM     29 FE   UNL d   1      -7.923   7.399 -14.118 -0.04 +0.00    +0.000 Fe
DOCKED: ENDROOT
DOCKED: BRANCH   6  30
DOCKED: ATOM     30  C   UNL d   1     -11.926   3.232 -13.920 -0.16 +0.04    +0.052 C 
DOCKED: BRANCH  30  31
DOCKED: ATOM     31  C   UNL d   1     -13.234   3.897 -14.348 -0.11 +0.07    +0.115 C 
DOCKED: BRANCH  31  32
DOCKED: ATOM     32  C   UNL d   1     -14.204   2.916 -14.970 -0.07 +0.14    +0.139 C 
DOCKED: ATOM     33  O   UNL d   1     -14.914   2.233 -14.247 -0.01 -0.45    -0.650 OA
DOCKED: BRANCH  32  34
DOCKED: ATOM     34  O   UNL d   1     -14.347   2.801 -16.311 -0.36 -1.16    -0.776 OA
DOCKED: ATOM     35  H   UNL d   1     -14.077   3.478 -16.947 +0.00 +0.18    +0.167 HD
DOCKED: ENDBRANCH  32  34
DOCKED: ENDBRANCH  31  32
DOCKED: ENDBRANCH  30  31
DOCKED: ENDBRANCH   6  30
DOCKED: BRANCH  29  36
DOCKED: ATOM     36  C   UNL d   1      -9.580   8.667 -14.318 -0.04 +0.01    +0.190 C 
DOCKED: BRANCH  36  37
DOCKED: ATOM     37  O   UNL d   1     -10.946   8.677 -14.621 -0.00 -0.03    -0.399 OA
DOCKED: ATOM     38  H   UNL d   1     -11.124   7.784 -15.029 +0.02 +0.02    +0.209 HD
DOCKED: ENDBRANCH  36  37
DOCKED: ENDBRANCH  29  36
DOCKED: BRANCH  22  39
DOCKED: ATOM     39  C   UNL d   1      -9.794   4.593 -18.718 -0.14 +0.01    +0.052 C 
DOCKED: BRANCH  39  40
DOCKED: ATOM     40  C   UNL d   1     -11.225   5.109 -18.941 -0.11 +0.03    +0.115 C 
DOCKED: BRANCH  40  41
DOCKED: ATOM     41  C   UNL d   1     -12.271   4.446 -18.070 -0.11 +0.08    +0.139 C 
DOCKED: ATOM     42  O   UNL d   1     -12.797   5.088 -17.171 -0.02 -0.29    -0.650 OA
DOCKED: BRANCH  41  43
DOCKED: ATOM     43  O   UNL d   1     -12.705   3.189 -18.312 -0.10 -0.92    -0.776 OA
DOCKED: ATOM     44  H   UNL d   1     -13.639   2.945 -18.271 +0.00 +0.20    +0.167 HD
DOCKED: ENDBRANCH  41  43
DOCKED: ENDBRANCH  40  41
DOCKED: ENDBRANCH  39  40
DOCKED: ENDBRANCH  22  39
DOCKED: BRANCH  12  45
DOCKED: ATOM     45  C   UNL d   1      -6.130   9.991  -9.578 -0.49 -0.00    +0.004 C 
DOCKED: ATOM     46  C   UNL d   1      -6.005  11.307  -9.720 -0.48 -0.00    +0.012 C 
DOCKED: ENDBRANCH  12  45
DOCKED: BRANCH  17  47
DOCKED: ATOM     47  C   UNL d   1      -5.154  10.806 -17.289 -0.05 -0.00    +0.004 C 
DOCKED: ATOM     48  C   UNL d   1      -4.195  10.307 -18.073 -0.06 -0.00    +0.012 C 
DOCKED: ENDBRANCH  17  47
DOCKED: TORSDOF 12
DOCKED: TER
DOCKED: ENDMDL
________________________________________________________________________________


	BEGINNING GENETIC ALGORITHM DOCKING 61 of 100
Run: 61 Seed: 1823762255 641513208 [ Run 61 of 100 GA/GALS ]
Beginning LAMARCKIAN GENETIC ALGORITHM (LGA), with a maximum of 25000000 energy evaluations.

Final-Value: -10.273


	FINAL GENETIC ALGORITHM DOCKED STATE
	_______________________________________________


Detailed state:  trans -6.701 12.781 10.301 quatxyzw 0.018224 -0.982315 -0.154081 -0.104804 center 8.781 34.984 -0.736 ntor 12 128.4247 85.3437 -67.3740 -7.4892 -89.1358 122.0404 -123.6414 -24.6703 -125.9698 -163.0647 -177.0973 165.8169
State:	 -6.701  12.781  10.301   0.018 -0.988 -0.155 -167.968    128.42   85.34  -67.37   -7.49  -89.14  122.04 -123.64  -24.67 -125.97 -163.06 -177.10  165.82

DOCKED: MODEL       61
DOCKED: USER    Run = 61
DOCKED: USER    DPF = D:/Protein_go_brrr/autodock/final/mut_K82N/heme_Co/dock.dpf
DOCKED: USER  
DOCKED: USER    Estimated Free Energy of Binding    =   -2.65 kcal/mol  [=(1)+(2)+(3)-(4)]
DOCKED: USER    Estimated Inhibition Constant, Ki   =   11.41 mM (millimolar)  [Temperature = 298.15 K]
DOCKED: USER    
DOCKED: USER    (1) Final Intermolecular Energy     =   -6.23 kcal/mol
DOCKED: USER        vdW + Hbond + desolv Energy     =   -5.34 kcal/mol
DOCKED: USER        Electrostatic Energy            =   -0.89 kcal/mol
DOCKED: USER    (2) Final Total Internal Energy     =   -4.04 kcal/mol
DOCKED: USER    (3) Torsional Free Energy           =   +3.58 kcal/mol
DOCKED: USER    (4) Unbound System's Energy  [=(2)] =   -4.04 kcal/mol
DOCKED: USER    
DOCKED: USER    
DOCKED: USER    NEWDPF move heme_Co_opt.pdbqt
DOCKED: USER    NEWDPF about 8.781000 34.984000 -0.736000
DOCKED: USER    NEWDPF tran0 -6.700623 12.781429 10.301168
DOCKED: USER    NEWDPF quaternion0 0.018224 -0.982315 -0.154081 -0.104804
DOCKED: USER    NEWDPF axisangle0 0.018325 -0.987755 -0.154934 -167.968195
DOCKED: USER    NEWDPF quat0 0.018325 -0.987755 -0.154934 -167.968195
DOCKED: USER    NEWDPF dihe0 128.42 85.34 -67.37 -7.49 -89.14 122.04 -123.64 -24.67 -125.97 -163.06 -177.10 165.82 
DOCKED: USER  keepresnum = 1 
DOCKED: USER  
DOCKED: REMARK  12 active torsions:
DOCKED: REMARK  status: ('A' for Active; 'I' for Inactive)
DOCKED: REMARK    1  A    between atoms: C_6  and  C_10 
DOCKED: REMARK    2  A    between atoms: C_10  and  C_11 
DOCKED: REMARK    3  A    between atoms: C_11  and  C_12 
DOCKED: REMARK    4  A    between atoms: C_12  and  O_14 
DOCKED: REMARK    5  A    between atoms: C_17  and  C_20 
DOCKED: REMARK    6  A    between atoms: C_24  and  C_27 
DOCKED: REMARK    7  A    between atoms: C_31  and  C_34 
DOCKED: REMARK    8  A    between atoms: C_34  and  C_35 
DOCKED: REMARK    9  A    between atoms: C_35  and  C_36 
DOCKED: REMARK   10  A    between atoms: C_36  and  O_38 
DOCKED: REMARK   11  A    between atoms: FE_43  and  C_44 
DOCKED: REMARK   12  A    between atoms: C_44  and  O_45 
DOCKED: USER                              x       y       z     vdW  Elec       q    Type
DOCKED: USER                           _______ _______ _______ _____ _____    ______ ____
DOCKED: ROOT
DOCKED: ATOM      1  C   UNL d   1      -4.631  13.134  10.858 -0.12 -0.02    +0.064 A 
DOCKED: ATOM      2  C   UNL d   1      -6.643  11.633   6.819 -0.37 +0.00    +0.064 C 
DOCKED: ATOM      3  C   UNL d   1     -10.925  11.556   8.936 -0.08 -0.01    +0.064 A 
DOCKED: ATOM      4  C   UNL d   1      -8.957  13.457  12.958 -0.00 -0.01    +0.064 A 
DOCKED: ATOM      5  C   UNL d   1      -4.861  12.695   9.609 -0.20 -0.01    +0.066 A 
DOCKED: ATOM      6  C   UNL d   1      -3.843  12.641   8.637 -0.31 +0.00    -0.021 A 
DOCKED: ATOM      7  C   UNL d   1      -4.436  12.226   7.461 -0.43 -0.00    -0.025 A 
DOCKED: ATOM      8  C   UNL d   1      -5.787  12.030   7.769 -0.34 +0.00    +0.066 A 
DOCKED: ATOM      9  C   UNL d   1      -3.772  12.019   6.091 -0.23 +0.01    +0.051 C 
DOCKED: ATOM     10  C   UNL d   1      -8.043  11.379   7.048 -0.31 -0.00    +0.066 A 
DOCKED: ATOM     11  C   UNL d   1      -8.962  10.828   6.129 -0.38 +0.00    -0.021 A 
DOCKED: ATOM     12  C   UNL d   1     -10.202  10.814   6.774 -0.25 -0.00    +0.000 A 
DOCKED: ATOM     13  C   UNL d   1      -9.946  11.343   8.039 -0.15 -0.01    +0.070 A 
DOCKED: ATOM     14  C   UNL d   1      -8.637  10.271   4.767 -0.41 -0.00    +0.052 C 
DOCKED: ATOM     15  C   UNL d   1     -10.848  12.139  10.261 -0.03 -0.01    +0.066 A 
DOCKED: ATOM     16  C   UNL d   1     -11.919  12.465  11.081 -0.00 +0.00    -0.021 A 
DOCKED: ATOM     17  C   UNL d   1     -11.356  13.016  12.241 -0.00 -0.00    +0.000 A 
DOCKED: ATOM     18  C   UNL d   1      -9.981  12.967  12.043 -0.00 -0.01    +0.070 A 
DOCKED: ATOM     19  C   UNL d   1     -13.378  12.251  10.744 -0.00 -0.00    +0.052 C 
DOCKED: ATOM     20  C   UNL d   1      -7.619  13.499  12.751 -0.02 -0.01    +0.066 A 
DOCKED: ATOM     21  C   UNL d   1      -6.737  14.027  13.692 -0.01 +0.01    -0.025 A 
DOCKED: ATOM     22  C   UNL d   1      -5.480  13.921  13.126 -0.05 +0.01    -0.021 A 
DOCKED: ATOM     23  C   UNL d   1      -5.659  13.339  11.852 -0.09 -0.02    +0.066 A 
DOCKED: ATOM     24  C   UNL d   1      -7.077  14.622  15.055 -0.00 -0.01    +0.051 C 
DOCKED: ATOM     25  N   UNL d   1      -6.077  12.307   9.095 -0.16 +0.00    -0.248 N 
DOCKED: ATOM     26  N   UNL d   1      -8.630  11.632   8.223 -0.13 +0.02    -0.248 N 
DOCKED: ATOM     27  N   UNL d   1      -9.715  12.467  10.841 -0.01 +0.03    -0.248 N 
DOCKED: ATOM     28  N   UNL d   1      -6.953  13.085  11.621 -0.03 +0.05    -0.248 N 
DOCKED: ATOM     29 FE   UNL d   1      -8.002  12.392  10.023 -0.03 -0.00    +0.000 Fe
DOCKED: ENDROOT
DOCKED: BRANCH   6  30
DOCKED: ATOM     30  C   UNL d   1      -2.386  13.051   8.822 -0.29 -0.01    +0.052 C 
DOCKED: BRANCH  30  31
DOCKED: ATOM     31  C   UNL d   1      -2.181  14.509   8.411 -0.18 +0.01    +0.115 C 
DOCKED: BRANCH  31  32
DOCKED: ATOM     32  C   UNL d   1      -3.160  15.443   9.090 -0.11 +0.05    +0.139 C 
DOCKED: ATOM     33  O   UNL d   1      -2.767  16.178   9.984 +0.03 -0.10    -0.650 OA
DOCKED: BRANCH  32  34
DOCKED: ATOM     34  O   UNL d   1      -4.455  15.527   8.707 +0.01 -0.79    -0.776 OA
DOCKED: ATOM     35  H   UNL d   1      -5.207  15.394   9.300 +0.03 +0.12    +0.167 HD
DOCKED: ENDBRANCH  32  34
DOCKED: ENDBRANCH  31  32
DOCKED: ENDBRANCH  30  31
DOCKED: ENDBRANCH   6  30
DOCKED: BRANCH  29  36
DOCKED: ATOM     36  C   UNL d   1      -8.161  14.337   9.255 -0.05 +0.04    +0.190 C 
DOCKED: BRANCH  36  37
DOCKED: ATOM     37  O   UNL d   1      -7.411  15.472   8.933 -0.25 -0.25    -0.399 OA
DOCKED: ATOM     38  H   UNL d   1      -6.625  15.444   9.548 +0.03 +0.11    +0.209 HD
DOCKED: ENDBRANCH  36  37
DOCKED: ENDBRANCH  29  36
DOCKED: BRANCH  22  39
DOCKED: ATOM     39  C   UNL d   1      -4.189  14.413  13.752 -0.05 -0.02    +0.052 C 
DOCKED: BRANCH  39  40
DOCKED: ATOM     40  C   UNL d   1      -3.872  15.844  13.289 -0.01 -0.02    +0.115 C 
DOCKED: BRANCH  40  41
DOCKED: ATOM     41  C   UNL d   1      -5.008  16.531  12.560 +0.00 -0.01    +0.139 C 
DOCKED: ATOM     42  O   UNL d   1      -5.551  17.499  13.075 +0.01 +0.02    -0.650 OA
DOCKED: BRANCH  41  43
DOCKED: ATOM     43  O   UNL d   1      -5.382  16.159  11.316 +0.03 -0.08    -0.776 OA
DOCKED: ATOM     44  H   UNL d   1      -4.784  16.204  10.559 +0.02 +0.04    +0.167 HD
DOCKED: ENDBRANCH  41  43
DOCKED: ENDBRANCH  40  41
DOCKED: ENDBRANCH  39  40
DOCKED: ENDBRANCH  22  39
DOCKED: BRANCH  12  45
DOCKED: ATOM     45  C   UNL d   1     -11.588  10.345   6.349 -0.17 -0.00    +0.004 C 
DOCKED: ATOM     46  C   UNL d   1     -12.077  10.069   5.143 -0.26 +0.00    +0.012 C 
DOCKED: ENDBRANCH  12  45
DOCKED: BRANCH  17  47
DOCKED: ATOM     47  C   UNL d   1     -12.026  13.601  13.441 +0.00 -0.00    +0.004 C 
DOCKED: ATOM     48  C   UNL d   1     -11.996  14.902  13.741 +0.00 -0.00    +0.012 C 
DOCKED: ENDBRANCH  17  47
DOCKED: TORSDOF 12
DOCKED: TER
DOCKED: ENDMDL
________________________________________________________________________________


	BEGINNING GENETIC ALGORITHM DOCKING 62 of 100
Run: 62 Seed: 1885056737 135015696 [ Run 62 of 100 GA/GALS ]
Beginning LAMARCKIAN GENETIC ALGORITHM (LGA), with a maximum of 25000000 energy evaluations.

Final-Value: -9.157


	FINAL GENETIC ALGORITHM DOCKED STATE
	_______________________________________________


Detailed state:  trans -8.740 -11.771 8.069 quatxyzw -0.431171 -0.107399 -0.449310 0.775034 center 8.781 34.984 -0.736 ntor 12 -57.7298 107.1299 27.1526 157.1736 142.7295 133.6794 50.9405 153.5705 -126.8687 15.1807 -177.4710 163.5512
State:	 -8.740 -11.771   8.069  -0.682 -0.170 -0.711 78.384    -57.73  107.13   27.15  157.17  142.73  133.68   50.94  153.57 -126.87   15.18 -177.47  163.55

DOCKED: MODEL       62
DOCKED: USER    Run = 62
DOCKED: USER    DPF = D:/Protein_go_brrr/autodock/final/mut_K82N/heme_Co/dock.dpf
DOCKED: USER  
DOCKED: USER    Estimated Free Energy of Binding    =   -2.95 kcal/mol  [=(1)+(2)+(3)-(4)]
DOCKED: USER    Estimated Inhibition Constant, Ki   =    6.86 mM (millimolar)  [Temperature = 298.15 K]
DOCKED: USER    
DOCKED: USER    (1) Final Intermolecular Energy     =   -6.53 kcal/mol
DOCKED: USER        vdW + Hbond + desolv Energy     =   -6.70 kcal/mol
DOCKED: USER        Electrostatic Energy            =   +0.17 kcal/mol
DOCKED: USER    (2) Final Total Internal Energy     =   -2.62 kcal/mol
DOCKED: USER    (3) Torsional Free Energy           =   +3.58 kcal/mol
DOCKED: USER    (4) Unbound System's Energy  [=(2)] =   -2.62 kcal/mol
DOCKED: USER    
DOCKED: USER    
DOCKED: USER    NEWDPF move heme_Co_opt.pdbqt
DOCKED: USER    NEWDPF about 8.781000 34.984000 -0.736000
DOCKED: USER    NEWDPF tran0 -8.740499 -11.770833 8.068546
DOCKED: USER    NEWDPF quaternion0 -0.431171 -0.107399 -0.449310 0.775034
DOCKED: USER    NEWDPF axisangle0 -0.682320 -0.169957 -0.711024 78.383811
DOCKED: USER    NEWDPF quat0 -0.682320 -0.169957 -0.711024 78.383811
DOCKED: USER    NEWDPF dihe0 -57.73 107.13 27.15 157.17 142.73 133.68 50.94 153.57 -126.87 15.18 -177.47 163.55 
DOCKED: USER  keepresnum = 1 
DOCKED: USER  
DOCKED: REMARK  12 active torsions:
DOCKED: REMARK  status: ('A' for Active; 'I' for Inactive)
DOCKED: REMARK    1  A    between atoms: C_6  and  C_10 
DOCKED: REMARK    2  A    between atoms: C_10  and  C_11 
DOCKED: REMARK    3  A    between atoms: C_11  and  C_12 
DOCKED: REMARK    4  A    between atoms: C_12  and  O_14 
DOCKED: REMARK    5  A    between atoms: C_17  and  C_20 
DOCKED: REMARK    6  A    between atoms: C_24  and  C_27 
DOCKED: REMARK    7  A    between atoms: C_31  and  C_34 
DOCKED: REMARK    8  A    between atoms: C_34  and  C_35 
DOCKED: REMARK    9  A    between atoms: C_35  and  C_36 
DOCKED: REMARK   10  A    between atoms: C_36  and  O_38 
DOCKED: REMARK   11  A    between atoms: FE_43  and  C_44 
DOCKED: REMARK   12  A    between atoms: C_44  and  O_45 
DOCKED: USER                              x       y       z     vdW  Elec       q    Type
DOCKED: USER                           _______ _______ _______ _____ _____    ______ ____
DOCKED: ROOT
DOCKED: ATOM      1  C   UNL d   1     -10.622 -12.700   7.508 -0.10 -0.01    +0.064 A 
DOCKED: ATOM      2  C   UNL d   1      -6.225 -14.439   8.012 -0.15 -0.01    +0.064 C 
DOCKED: ATOM      3  C   UNL d   1      -4.539 -10.043   8.826 -0.29 -0.02    +0.064 A 
DOCKED: ATOM      4  C   UNL d   1      -9.076  -8.293   8.699 -0.12 -0.01    +0.064 A 
DOCKED: ATOM      5  C   UNL d   1      -9.539 -13.493   7.550 -0.11 -0.01    +0.066 A 
DOCKED: ATOM      6  C   UNL d   1      -9.633 -14.893   7.425 -0.07 +0.00    -0.021 A 
DOCKED: ATOM      7  C   UNL d   1      -8.357 -15.394   7.595 -0.06 +0.00    -0.025 A 
DOCKED: ATOM      8  C   UNL d   1      -7.537 -14.279   7.800 -0.11 -0.01    +0.066 A 
DOCKED: ATOM      9  C   UNL d   1      -7.911 -16.864   7.569 -0.03 -0.01    +0.051 C 
DOCKED: ATOM     10  C   UNL d   1      -5.300 -13.350   8.206 -0.22 -0.01    +0.066 A 
DOCKED: ATOM     11  C   UNL d   1      -3.894 -13.443   8.293 -0.31 +0.00    -0.021 A 
DOCKED: ATOM     12  C   UNL d   1      -3.428 -12.146   8.527 -0.36 -0.00    +0.000 A 
DOCKED: ATOM     13  C   UNL d   1      -4.579 -11.359   8.552 -0.11 -0.02    +0.070 A 
DOCKED: ATOM     14  C   UNL d   1      -3.066 -14.683   8.070 -0.27 +0.01    +0.052 C 
DOCKED: ATOM     15  C   UNL d   1      -5.629  -9.094   8.944 -0.38 -0.01    +0.066 A 
DOCKED: ATOM     16  C   UNL d   1      -5.531  -7.778   9.373 -0.46 +0.00    -0.021 A 
DOCKED: ATOM     17  C   UNL d   1      -6.838  -7.270   9.341 -0.33 -0.00    +0.000 A 
DOCKED: ATOM     18  C   UNL d   1      -7.629  -8.315   8.876 -0.22 -0.01    +0.070 A 
DOCKED: ATOM     19  C   UNL d   1      -4.253  -7.082   9.783 -0.29 -0.00    +0.052 C 
DOCKED: ATOM     20  C   UNL d   1      -9.877  -9.322   8.331 -0.07 -0.01    +0.066 A 
DOCKED: ATOM     21  C   UNL d   1     -11.260  -9.188   8.230 -0.06 +0.00    -0.025 A 
DOCKED: ATOM     22  C   UNL d   1     -11.730 -10.435   7.861 -0.06 +0.00    -0.021 A 
DOCKED: ATOM     23  C   UNL d   1     -10.602 -11.278   7.765 -0.07 -0.01    +0.066 A 
DOCKED: ATOM     24  C   UNL d   1     -12.096  -7.938   8.493 -0.03 -0.01    +0.051 C 
DOCKED: ATOM     25  N   UNL d   1      -8.242 -13.087   7.771 -0.11 +0.05    -0.248 N 
DOCKED: ATOM     26  N   UNL d   1      -5.705 -12.079   8.302 -0.19 +0.05    -0.248 N 
DOCKED: ATOM     27  N   UNL d   1      -6.880  -9.395   8.679 -0.20 +0.04    -0.248 N 
DOCKED: ATOM     28  N   UNL d   1      -9.479 -10.609   8.052 -0.05 +0.03    -0.248 N 
DOCKED: ATOM     29 FE   UNL d   1      -7.524 -11.130   8.251 -0.05 -0.00    +0.000 Fe
DOCKED: ENDROOT
DOCKED: BRANCH   6  30
DOCKED: ATOM     30  C   UNL d   1     -10.909 -15.706   7.234 -0.03 -0.01    +0.052 C 
DOCKED: BRANCH  30  31
DOCKED: ATOM     31  C   UNL d   1     -11.454 -16.175   8.583 -0.00 -0.01    +0.115 C 
DOCKED: BRANCH  31  32
DOCKED: ATOM     32  C   UNL d   1     -11.587 -15.042   9.577 -0.00 -0.01    +0.139 C 
DOCKED: ATOM     33  O   UNL d   1     -10.594 -14.634  10.161 +0.01 +0.05    -0.650 OA
DOCKED: BRANCH  32  34
DOCKED: ATOM     34  O   UNL d   1     -12.770 -14.426   9.810 +0.00 +0.06    -0.776 OA
DOCKED: ATOM     35  H   UNL d   1     -13.270 -13.939   9.141 +0.00 -0.01    +0.167 HD
DOCKED: ENDBRANCH  32  34
DOCKED: ENDBRANCH  31  32
DOCKED: ENDBRANCH  30  31
DOCKED: ENDBRANCH   6  30
DOCKED: BRANCH  29  36
DOCKED: ATOM     36  C   UNL d   1      -7.839 -11.631  10.262 -0.07 -0.02    +0.190 C 
DOCKED: BRANCH  36  37
DOCKED: ATOM     37  O   UNL d   1      -8.549 -12.501  11.096 -0.01 +0.03    -0.399 OA
DOCKED: ATOM     38  H   UNL d   1      -9.159 -13.001  10.485 +0.02 -0.02    +0.209 HD
DOCKED: ENDBRANCH  36  37
DOCKED: ENDBRANCH  29  36
DOCKED: BRANCH  22  39
DOCKED: ATOM     39  C   UNL d   1     -13.189 -10.805   7.675 -0.02 -0.01    +0.052 C 
DOCKED: BRANCH  39  40
DOCKED: ATOM     40  C   UNL d   1     -13.758 -11.431   8.959 -0.01 -0.01    +0.115 C 
DOCKED: BRANCH  40  41
DOCKED: ATOM     41  C   UNL d   1     -15.135 -12.040   8.800 -0.00 -0.01    +0.139 C 
DOCKED: ATOM     42  O   UNL d   1     -16.094 -11.308   8.598 +0.00 +0.05    -0.650 OA
DOCKED: BRANCH  41  43
DOCKED: ATOM     43  O   UNL d   1     -15.323 -13.378   8.789 +0.00 +0.06    -0.776 OA
DOCKED: ATOM     44  H   UNL d   1     -14.781 -13.983   9.311 +0.00 -0.01    +0.167 HD
DOCKED: ENDBRANCH  41  43
DOCKED: ENDBRANCH  40  41
DOCKED: ENDBRANCH  39  40
DOCKED: ENDBRANCH  22  39
DOCKED: BRANCH  12  45
DOCKED: ATOM     45  C   UNL d   1      -2.034 -11.561   8.709 -0.54 -0.00    +0.004 C 
DOCKED: ATOM     46  C   UNL d   1      -1.550 -10.362   8.395 -0.57 -0.00    +0.012 C 
DOCKED: ENDBRANCH  12  45
DOCKED: BRANCH  17  47
DOCKED: ATOM     47  C   UNL d   1      -7.351  -5.930   9.754 -0.25 -0.00    +0.004 C 
DOCKED: ATOM     48  C   UNL d   1      -7.989  -5.098   8.928 -0.32 -0.00    +0.012 C 
DOCKED: ENDBRANCH  17  47
DOCKED: TORSDOF 12
DOCKED: TER
DOCKED: ENDMDL
________________________________________________________________________________


	BEGINNING GENETIC ALGORITHM DOCKING 63 of 100
Run: 63 Seed: 1265711571 1778971285 [ Run 63 of 100 GA/GALS ]
Beginning LAMARCKIAN GENETIC ALGORITHM (LGA), with a maximum of 25000000 energy evaluations.

Final-Value: -10.822


	FINAL GENETIC ALGORITHM DOCKED STATE
	_______________________________________________


Detailed state:  trans 3.621 6.165 18.806 quatxyzw -0.220107 0.637000 0.712000 0.197080 center 8.781 34.984 -0.736 ntor 12 174.3344 122.4813 50.4783 138.5728 -64.2202 135.9943 -128.1658 86.8880 -140.1422 41.9909 -176.5065 -162.9184
State:	  3.621   6.165  18.806  -0.225  0.650  0.726 157.267    174.33  122.48   50.48  138.57  -64.22  135.99 -128.17   86.89 -140.14   41.99 -176.51 -162.92

DOCKED: MODEL       63
DOCKED: USER    Run = 63
DOCKED: USER    DPF = D:/Protein_go_brrr/autodock/final/mut_K82N/heme_Co/dock.dpf
DOCKED: USER  
DOCKED: USER    Estimated Free Energy of Binding    =   -4.72 kcal/mol  [=(1)+(2)+(3)-(4)]
DOCKED: USER    Estimated Inhibition Constant, Ki   =  349.00 uM (micromolar)  [Temperature = 298.15 K]
DOCKED: USER    
DOCKED: USER    (1) Final Intermolecular Energy     =   -8.30 kcal/mol
DOCKED: USER        vdW + Hbond + desolv Energy     =   -7.62 kcal/mol
DOCKED: USER        Electrostatic Energy            =   -0.68 kcal/mol
DOCKED: USER    (2) Final Total Internal Energy     =   -2.53 kcal/mol
DOCKED: USER    (3) Torsional Free Energy           =   +3.58 kcal/mol
DOCKED: USER    (4) Unbound System's Energy  [=(2)] =   -2.53 kcal/mol
DOCKED: USER    
DOCKED: USER    
DOCKED: USER    NEWDPF move heme_Co_opt.pdbqt
DOCKED: USER    NEWDPF about 8.781000 34.984000 -0.736000
DOCKED: USER    NEWDPF tran0 3.620830 6.164563 18.805677
DOCKED: USER    NEWDPF quaternion0 -0.220107 0.637000 0.712000 0.197080
DOCKED: USER    NEWDPF axisangle0 -0.224510 0.649743 0.726244 157.267464
DOCKED: USER    NEWDPF quat0 -0.224510 0.649743 0.726244 157.267464
DOCKED: USER    NEWDPF dihe0 174.33 122.48 50.48 138.57 -64.22 135.99 -128.17 86.89 -140.14 41.99 -176.51 -162.92 
DOCKED: USER  keepresnum = 1 
DOCKED: USER  
DOCKED: REMARK  12 active torsions:
DOCKED: REMARK  status: ('A' for Active; 'I' for Inactive)
DOCKED: REMARK    1  A    between atoms: C_6  and  C_10 
DOCKED: REMARK    2  A    between atoms: C_10  and  C_11 
DOCKED: REMARK    3  A    between atoms: C_11  and  C_12 
DOCKED: REMARK    4  A    between atoms: C_12  and  O_14 
DOCKED: REMARK    5  A    between atoms: C_17  and  C_20 
DOCKED: REMARK    6  A    between atoms: C_24  and  C_27 
DOCKED: REMARK    7  A    between atoms: C_31  and  C_34 
DOCKED: REMARK    8  A    between atoms: C_34  and  C_35 
DOCKED: REMARK    9  A    between atoms: C_35  and  C_36 
DOCKED: REMARK   10  A    between atoms: C_36  and  O_38 
DOCKED: REMARK   11  A    between atoms: FE_43  and  C_44 
DOCKED: REMARK   12  A    between atoms: C_44  and  O_45 
DOCKED: USER                              x       y       z     vdW  Elec       q    Type
DOCKED: USER                           _______ _______ _______ _____ _____    ______ ____
DOCKED: ROOT
DOCKED: ATOM      1  C   UNL d   1       5.698   6.498  19.344 -0.20 -0.01    +0.064 A 
DOCKED: ATOM      2  C   UNL d   1       2.550   9.150  16.964 -0.20 -0.02    +0.064 C 
DOCKED: ATOM      3  C   UNL d   1      -0.646   5.603  17.164 -0.23 -0.02    +0.064 A 
DOCKED: ATOM      4  C   UNL d   1       2.412   3.022  19.930 -0.25 -0.05    +0.064 A 
DOCKED: ATOM      5  C   UNL d   1       5.085   7.469  18.648 -0.18 -0.02    +0.066 A 
DOCKED: ATOM      6  C   UNL d   1       5.684   8.726  18.433 -0.12 +0.00    -0.021 A 
DOCKED: ATOM      7  C   UNL d   1       4.758   9.499  17.761 -0.14 +0.01    -0.025 A 
DOCKED: ATOM      8  C   UNL d   1       3.640   8.677  17.581 -0.18 -0.02    +0.066 A 
DOCKED: ATOM      9  C   UNL d   1       4.903  10.958  17.301 -0.12 -0.01    +0.051 C 
DOCKED: ATOM     10  C   UNL d   1       1.364   8.371  16.711 -0.22 -0.03    +0.066 A 
DOCKED: ATOM     11  C   UNL d   1       0.243   8.764  15.947 -0.22 +0.01    -0.021 A 
DOCKED: ATOM     12  C   UNL d   1      -0.671   7.709  16.019 -0.14 -0.00    +0.000 A 
DOCKED: ATOM     13  C   UNL d   1      -0.038   6.749  16.808 -0.22 -0.03    +0.070 A 
DOCKED: ATOM     14  C   UNL d   1       0.117  10.026  15.133 -0.15 -0.05    +0.052 C 
DOCKED: ATOM     15  C   UNL d   1      -0.163   4.531  18.012 -0.24 -0.02    +0.066 A 
DOCKED: ATOM     16  C   UNL d   1      -0.896   3.441  18.459 -0.23 +0.01    -0.021 A 
DOCKED: ATOM     17  C   UNL d   1      -0.019   2.695  19.259 -0.28 -0.00    +0.000 A 
DOCKED: ATOM     18  C   UNL d   1       1.190   3.382  19.223 -0.28 -0.04    +0.070 A 
DOCKED: ATOM     19  C   UNL d   1      -2.344   3.162  18.124 -0.27 -0.01    +0.052 C 
DOCKED: ATOM     20  C   UNL d   1       3.572   3.719  19.979 -0.30 -0.03    +0.066 A 
DOCKED: ATOM     21  C   UNL d   1       4.668   3.288  20.724 -0.31 +0.01    -0.025 A 
DOCKED: ATOM     22  C   UNL d   1       5.640   4.256  20.551 -0.31 +0.00    -0.021 A 
DOCKED: ATOM     23  C   UNL d   1       5.081   5.243  19.712 -0.25 -0.02    +0.066 A 
DOCKED: ATOM     24  C   UNL d   1       4.777   2.026  21.575 -0.26 -0.02    +0.051 C 
DOCKED: ATOM     25  N   UNL d   1       3.817   7.412  18.116 -0.13 +0.11    -0.248 N 
DOCKED: ATOM     26  N   UNL d   1       1.214   7.127  17.179 -0.12 +0.12    -0.248 N 
DOCKED: ATOM     27  N   UNL d   1       1.059   4.486  18.495 -0.10 +0.12    -0.248 N 
DOCKED: ATOM     28  N   UNL d   1       3.828   4.924  19.366 -0.16 +0.11    -0.248 N 
DOCKED: ATOM     29 FE   UNL d   1       2.359   5.860  18.318 -0.03 -0.00    +0.000 Fe
DOCKED: ENDROOT
DOCKED: BRANCH   6  30
DOCKED: ATOM     30  C   UNL d   1       7.055   9.177  18.927 -0.06 -0.01    +0.052 C 
DOCKED: BRANCH  30  31
DOCKED: ATOM     31  C   UNL d   1       6.934   9.874  20.282 -0.01 -0.01    +0.115 C 
DOCKED: BRANCH  31  32
DOCKED: ATOM     32  C   UNL d   1       5.902   9.222  21.177 -0.01 -0.01    +0.139 C 
DOCKED: ATOM     33  O   UNL d   1       6.269   8.488  22.082 +0.02 +0.00    -0.650 OA
DOCKED: BRANCH  32  34
DOCKED: ATOM     34  O   UNL d   1       4.577   9.464  21.039 +0.02 +0.08    -0.776 OA
DOCKED: ATOM     35  H   UNL d   1       3.884   8.968  21.496 +0.01 -0.02    +0.167 HD
DOCKED: ENDBRANCH  32  34
DOCKED: ENDBRANCH  31  32
DOCKED: ENDBRANCH  30  31
DOCKED: ENDBRANCH   6  30
DOCKED: BRANCH  29  36
DOCKED: ATOM     36  C   UNL d   1       1.717   6.845  20.054 -0.05 -0.05    +0.190 C 
DOCKED: BRANCH  36  37
DOCKED: ATOM     37  O   UNL d   1       2.111   7.783  21.013 +0.00 +0.07    -0.399 OA
DOCKED: ATOM     38  H   UNL d   1       2.959   8.172  20.658 +0.02 -0.04    +0.209 HD
DOCKED: ENDBRANCH  36  37
DOCKED: ENDBRANCH  29  36
DOCKED: BRANCH  22  39
DOCKED: ATOM     39  C   UNL d   1       7.007   4.258  21.211 -0.28 +0.01    +0.052 C 
DOCKED: BRANCH  39  40
DOCKED: ATOM     40  C   UNL d   1       6.870   4.315  22.741 -0.17 +0.03    +0.115 C 
DOCKED: BRANCH  40  41
DOCKED: ATOM     41  C   UNL d   1       7.933   5.143  23.433 -0.12 +0.07    +0.139 C 
DOCKED: ATOM     42  O   UNL d   1       8.476   4.702  24.436 -0.11 -0.64    -0.650 OA
DOCKED: BRANCH  41  43
DOCKED: ATOM     43  O   UNL d   1       8.361   6.319  22.923 +0.02 -0.26    -0.776 OA
DOCKED: ATOM     44  H   UNL d   1       7.762   7.052  22.735 +0.02 +0.03    +0.167 HD
DOCKED: ENDBRANCH  41  43
DOCKED: ENDBRANCH  40  41
DOCKED: ENDBRANCH  39  40
DOCKED: ENDBRANCH  22  39
DOCKED: BRANCH  12  45
DOCKED: ATOM     45  C   UNL d   1      -2.055   7.492  15.420 -0.27 -0.00    +0.004 C 
DOCKED: ATOM     46  C   UNL d   1      -2.551   6.464  14.738 -0.38 -0.01    +0.012 C 
DOCKED: ENDBRANCH  12  45
DOCKED: BRANCH  17  47
DOCKED: ATOM     47  C   UNL d   1      -0.273   1.456  20.054 -0.26 -0.00    +0.004 C 
DOCKED: ATOM     48  C   UNL d   1      -0.753   1.465  21.300 -0.20 -0.00    +0.012 C 
DOCKED: ENDBRANCH  17  47
DOCKED: TORSDOF 12
DOCKED: TER
DOCKED: ENDMDL
________________________________________________________________________________


	BEGINNING GENETIC ALGORITHM DOCKING 64 of 100
Run: 64 Seed: 1108558003 1530770385 [ Run 64 of 100 GA/GALS ]
Beginning LAMARCKIAN GENETIC ALGORITHM (LGA), with a maximum of 25000000 energy evaluations.

Final-Value: -10.629


	FINAL GENETIC ALGORITHM DOCKED STATE
	_______________________________________________


Detailed state:  trans 7.999 14.996 -11.995 quatxyzw -0.477624 -0.758372 -0.068003 -0.438318 center 8.781 34.984 -0.736 ntor 12 83.6106 102.8386 -137.4768 66.4673 123.3652 108.1950 38.9827 111.3099 146.9551 143.9604 -146.9948 173.1596
State:	  7.999  14.996 -11.995  -0.531 -0.844 -0.076 -128.007     83.61  102.84 -137.48   66.47  123.37  108.19   38.98  111.31  146.96  143.96 -146.99  173.16

DOCKED: MODEL       64
DOCKED: USER    Run = 64
DOCKED: USER    DPF = D:/Protein_go_brrr/autodock/final/mut_K82N/heme_Co/dock.dpf
DOCKED: USER  
DOCKED: USER    Estimated Free Energy of Binding    =   -3.04 kcal/mol  [=(1)+(2)+(3)-(4)]
DOCKED: USER    Estimated Inhibition Constant, Ki   =    5.89 mM (millimolar)  [Temperature = 298.15 K]
DOCKED: USER    
DOCKED: USER    (1) Final Intermolecular Energy     =   -6.62 kcal/mol
DOCKED: USER        vdW + Hbond + desolv Energy     =   -6.66 kcal/mol
DOCKED: USER        Electrostatic Energy            =   +0.04 kcal/mol
DOCKED: USER    (2) Final Total Internal Energy     =   -4.01 kcal/mol
DOCKED: USER    (3) Torsional Free Energy           =   +3.58 kcal/mol
DOCKED: USER    (4) Unbound System's Energy  [=(2)] =   -4.01 kcal/mol
DOCKED: USER    
DOCKED: USER    
DOCKED: USER    NEWDPF move heme_Co_opt.pdbqt
DOCKED: USER    NEWDPF about 8.781000 34.984000 -0.736000
DOCKED: USER    NEWDPF tran0 7.999349 14.996137 -11.995324
DOCKED: USER    NEWDPF quaternion0 -0.477624 -0.758372 -0.068003 -0.438318
DOCKED: USER    NEWDPF axisangle0 -0.531390 -0.843742 -0.075658 -128.006750
DOCKED: USER    NEWDPF quat0 -0.531390 -0.843742 -0.075658 -128.006750
DOCKED: USER    NEWDPF dihe0 83.61 102.84 -137.48 66.47 123.37 108.19 38.98 111.31 146.96 143.96 -146.99 173.16 
DOCKED: USER  keepresnum = 1 
DOCKED: USER  
DOCKED: REMARK  12 active torsions:
DOCKED: REMARK  status: ('A' for Active; 'I' for Inactive)
DOCKED: REMARK    1  A    between atoms: C_6  and  C_10 
DOCKED: REMARK    2  A    between atoms: C_10  and  C_11 
DOCKED: REMARK    3  A    between atoms: C_11  and  C_12 
DOCKED: REMARK    4  A    between atoms: C_12  and  O_14 
DOCKED: REMARK    5  A    between atoms: C_17  and  C_20 
DOCKED: REMARK    6  A    between atoms: C_24  and  C_27 
DOCKED: REMARK    7  A    between atoms: C_31  and  C_34 
DOCKED: REMARK    8  A    between atoms: C_34  and  C_35 
DOCKED: REMARK    9  A    between atoms: C_35  and  C_36 
DOCKED: REMARK   10  A    between atoms: C_36  and  O_38 
DOCKED: REMARK   11  A    between atoms: FE_43  and  C_44 
DOCKED: REMARK   12  A    between atoms: C_44  and  O_45 
DOCKED: USER                              x       y       z     vdW  Elec       q    Type
DOCKED: USER                           _______ _______ _______ _____ _____    ______ ____
DOCKED: ROOT
DOCKED: ATOM      1  C   UNL d   1       9.209  13.533 -13.049 -0.10 +0.01    +0.064 A 
DOCKED: ATOM      2  C   UNL d   1       4.682  14.897 -13.556 -0.20 -0.00    +0.064 C 
DOCKED: ATOM      3  C   UNL d   1       5.062  17.714  -9.716 -0.11 -0.02    +0.064 A 
DOCKED: ATOM      4  C   UNL d   1       9.794  16.633  -9.406 -0.03 -0.00    +0.064 A 
DOCKED: ATOM      5  C   UNL d   1       7.934  13.671 -13.448 -0.16 +0.01    +0.066 A 
DOCKED: ATOM      6  C   UNL d   1       7.443  13.045 -14.611 -0.21 -0.01    -0.021 A 
DOCKED: ATOM      7  C   UNL d   1       6.135  13.462 -14.766 -0.21 -0.00    -0.025 A 
DOCKED: ATOM      8  C   UNL d   1       5.880  14.312 -13.683 -0.24 +0.00    +0.066 A 
DOCKED: ATOM      9  C   UNL d   1       5.152  13.086 -15.885 -0.07 +0.01    +0.051 C 
DOCKED: ATOM     10  C   UNL d   1       4.319  15.764 -12.463 -0.26 -0.01    +0.066 A 
DOCKED: ATOM     11  C   UNL d   1       3.039  16.297 -12.198 -0.29 +0.01    -0.021 A 
DOCKED: ATOM     12  C   UNL d   1       3.178  17.111 -11.070 -0.28 -0.00    +0.000 A 
DOCKED: ATOM     13  C   UNL d   1       4.525  17.005 -10.725 -0.24 -0.02    +0.070 A 
DOCKED: ATOM     14  C   UNL d   1       1.764  15.960 -12.928 -0.35 -0.02    +0.052 C 
DOCKED: ATOM     15  C   UNL d   1       6.436  17.766  -9.258 -0.24 -0.02    +0.066 A 
DOCKED: ATOM     16  C   UNL d   1       6.953  18.630  -8.302 -0.22 +0.00    -0.021 A 
DOCKED: ATOM     17  C   UNL d   1       8.318  18.323  -8.211 -0.12 -0.00    +0.000 A 
DOCKED: ATOM     18  C   UNL d   1       8.524  17.282  -9.109 -0.07 -0.00    +0.070 A 
DOCKED: ATOM     19  C   UNL d   1       6.162  19.672  -7.543 -0.29 -0.02    +0.052 C 
DOCKED: ATOM     20  C   UNL d   1      10.035  15.678 -10.337 -0.22 +0.00    +0.066 A 
DOCKED: ATOM     21  C   UNL d   1      11.308  15.156 -10.555 -0.19 -0.00    -0.025 A 
DOCKED: ATOM     22  C   UNL d   1      11.165  14.239 -11.580 -0.19 -0.00    -0.021 A 
DOCKED: ATOM     23  C   UNL d   1       9.803  14.256 -11.948 -0.19 +0.00    +0.066 A 
DOCKED: ATOM     24  C   UNL d   1      12.602  15.527  -9.835 -0.12 -0.00    +0.051 C 
DOCKED: ATOM     25  N   UNL d   1       6.975  14.454 -12.848 -0.16 -0.01    -0.248 N 
DOCKED: ATOM     26  N   UNL d   1       5.202  16.147 -11.534 -0.18 +0.04    -0.248 N 
DOCKED: ATOM     27  N   UNL d   1       7.388  16.997  -9.737 -0.18 +0.03    -0.248 N 
DOCKED: ATOM     28  N   UNL d   1       9.116  15.127 -11.199 -0.19 -0.01    -0.248 N 
DOCKED: ATOM     29 FE   UNL d   1       7.197  15.800 -11.199 -0.06 -0.00    +0.000 Fe
DOCKED: ENDROOT
DOCKED: BRANCH   6  30
DOCKED: ATOM     30  C   UNL d   1       8.230  12.154 -15.566 -0.15 +0.02    +0.052 C 
DOCKED: BRANCH  30  31
DOCKED: ATOM     31  C   UNL d   1       9.368  12.938 -16.218 -0.04 +0.01    +0.115 C 
DOCKED: BRANCH  31  32
DOCKED: ATOM     32  C   UNL d   1       8.997  14.382 -16.480 -0.01 +0.00    +0.139 C 
DOCKED: ATOM     33  O   UNL d   1       8.494  14.689 -17.550 +0.02 +0.01    -0.650 OA
DOCKED: BRANCH  32  34
DOCKED: ATOM     34  O   UNL d   1       9.161  15.346 -15.544 +0.03 +0.01    -0.776 OA
DOCKED: ATOM     35  H   UNL d   1      10.006  15.772 -15.344 +0.01 -0.00    +0.167 HD
DOCKED: ENDBRANCH  32  34
DOCKED: ENDBRANCH  31  32
DOCKED: ENDBRANCH  30  31
DOCKED: ENDBRANCH   6  30
DOCKED: BRANCH  29  36
DOCKED: ATOM     36  C   UNL d   1       7.687  17.270 -12.611 -0.04 -0.02    +0.190 C 
DOCKED: BRANCH  36  37
DOCKED: ATOM     37  O   UNL d   1       8.473  17.509 -13.743 +0.00 +0.03    -0.399 OA
DOCKED: ATOM     38  H   UNL d   1       9.082  16.721 -13.804 +0.02 -0.01    +0.209 HD
DOCKED: ENDBRANCH  36  37
DOCKED: ENDBRANCH  29  36
DOCKED: BRANCH  22  39
DOCKED: ATOM     39  C   UNL d   1      12.291  13.442 -12.211 -0.13 +0.00    +0.052 C 
DOCKED: BRANCH  39  40
DOCKED: ATOM     40  C   UNL d   1      12.972  14.253 -13.325 -0.03 -0.00    +0.115 C 
DOCKED: BRANCH  40  41
DOCKED: ATOM     41  C   UNL d   1      12.015  15.020 -14.213 -0.01 -0.00    +0.139 C 
DOCKED: ATOM     42  O   UNL d   1      11.863  14.667 -15.374 +0.01 +0.01    -0.650 OA
DOCKED: BRANCH  41  43
DOCKED: ATOM     43  O   UNL d   1      11.258  16.032 -13.734 +0.03 +0.02    -0.776 OA
DOCKED: ATOM     44  H   UNL d   1      10.308  16.093 -13.900 +0.02 -0.00    +0.167 HD
DOCKED: ENDBRANCH  41  43
DOCKED: ENDBRANCH  40  41
DOCKED: ENDBRANCH  39  40
DOCKED: ENDBRANCH  22  39
DOCKED: BRANCH  12  45
DOCKED: ATOM     45  C   UNL d   1       2.194  17.957 -10.273 -0.32 -0.00    +0.004 C 
DOCKED: ATOM     46  C   UNL d   1       1.071  17.617  -9.644 -0.46 -0.00    +0.012 C 
DOCKED: ENDBRANCH  12  45
DOCKED: BRANCH  17  47
DOCKED: ATOM     47  C   UNL d   1       9.388  18.970  -7.394 -0.12 -0.00    +0.004 C 
DOCKED: ATOM     48  C   UNL d   1       9.862  18.453  -6.258 -0.13 -0.00    +0.012 C 
DOCKED: ENDBRANCH  17  47
DOCKED: TORSDOF 12
DOCKED: TER
DOCKED: ENDMDL
________________________________________________________________________________


	BEGINNING GENETIC ALGORITHM DOCKING 65 of 100
Run: 65 Seed: 394400506 938830386 [ Run 65 of 100 GA/GALS ]
Beginning LAMARCKIAN GENETIC ALGORITHM (LGA), with a maximum of 25000000 energy evaluations.

Final-Value: -9.632


	FINAL GENETIC ALGORITHM DOCKED STATE
	_______________________________________________


Detailed state:  trans -13.675 1.427 -4.710 quatxyzw 0.568173 -0.483337 0.309593 -0.589675 center 8.781 34.984 -0.736 ntor 12 -166.7255 109.7575 14.7621 11.1742 101.7728 138.7387 31.4955 135.0369 180.0000 -143.6768 -174.5819 -9.7952
State:	-13.675   1.427  -4.710   0.703 -0.598  0.383 -107.732   -166.73  109.76   14.76   11.17  101.77  138.74   31.50  135.04  180.00 -143.68 -174.58   -9.80

DOCKED: MODEL       65
DOCKED: USER    Run = 65
DOCKED: USER    DPF = D:/Protein_go_brrr/autodock/final/mut_K82N/heme_Co/dock.dpf
DOCKED: USER  
DOCKED: USER    Estimated Free Energy of Binding    =   -3.85 kcal/mol  [=(1)+(2)+(3)-(4)]
DOCKED: USER    Estimated Inhibition Constant, Ki   =    1.51 mM (millimolar)  [Temperature = 298.15 K]
DOCKED: USER    
DOCKED: USER    (1) Final Intermolecular Energy     =   -7.43 kcal/mol
DOCKED: USER        vdW + Hbond + desolv Energy     =   -5.40 kcal/mol
DOCKED: USER        Electrostatic Energy            =   -2.03 kcal/mol
DOCKED: USER    (2) Final Total Internal Energy     =   -2.20 kcal/mol
DOCKED: USER    (3) Torsional Free Energy           =   +3.58 kcal/mol
DOCKED: USER    (4) Unbound System's Energy  [=(2)] =   -2.20 kcal/mol
DOCKED: USER    
DOCKED: USER    
DOCKED: USER    NEWDPF move heme_Co_opt.pdbqt
DOCKED: USER    NEWDPF about 8.781000 34.984000 -0.736000
DOCKED: USER    NEWDPF tran0 -13.675322 1.427202 -4.709825
DOCKED: USER    NEWDPF quaternion0 0.568173 -0.483337 0.309593 -0.589675
DOCKED: USER    NEWDPF axisangle0 0.703498 -0.598456 0.383330 -107.732117
DOCKED: USER    NEWDPF quat0 0.703498 -0.598456 0.383330 -107.732117
DOCKED: USER    NEWDPF dihe0 -166.73 109.76 14.76 11.17 101.77 138.74 31.50 135.04 180.00 -143.68 -174.58 -9.80 
DOCKED: USER  keepresnum = 1 
DOCKED: USER  
DOCKED: REMARK  12 active torsions:
DOCKED: REMARK  status: ('A' for Active; 'I' for Inactive)
DOCKED: REMARK    1  A    between atoms: C_6  and  C_10 
DOCKED: REMARK    2  A    between atoms: C_10  and  C_11 
DOCKED: REMARK    3  A    between atoms: C_11  and  C_12 
DOCKED: REMARK    4  A    between atoms: C_12  and  O_14 
DOCKED: REMARK    5  A    between atoms: C_17  and  C_20 
DOCKED: REMARK    6  A    between atoms: C_24  and  C_27 
DOCKED: REMARK    7  A    between atoms: C_31  and  C_34 
DOCKED: REMARK    8  A    between atoms: C_34  and  C_35 
DOCKED: REMARK    9  A    between atoms: C_35  and  C_36 
DOCKED: REMARK   10  A    between atoms: C_36  and  O_38 
DOCKED: REMARK   11  A    between atoms: FE_43  and  C_44 
DOCKED: REMARK   12  A    between atoms: C_44  and  O_45 
DOCKED: USER                              x       y       z     vdW  Elec       q    Type
DOCKED: USER                           _______ _______ _______ _____ _____    ______ ____
DOCKED: ROOT
DOCKED: ATOM      1  C   UNL d   1     -14.606   2.689  -6.213 -0.07 +0.05    +0.064 A 
DOCKED: ATOM      2  C   UNL d   1     -12.560  -1.596  -6.460 -0.13 +0.01    +0.064 C 
DOCKED: ATOM      3  C   UNL d   1     -11.289  -1.296  -1.864 -0.22 -0.02    +0.064 A 
DOCKED: ATOM      4  C   UNL d   1     -13.706   2.908  -1.484 -0.12 +0.02    +0.064 A 
DOCKED: ATOM      5  C   UNL d   1     -14.109   1.512  -6.627 -0.07 +0.05    +0.066 A 
DOCKED: ATOM      6  C   UNL d   1     -14.337   1.020  -7.927 -0.05 -0.01    -0.021 A 
DOCKED: ATOM      7  C   UNL d   1     -13.761  -0.233  -7.987 -0.06 -0.01    -0.025 A 
DOCKED: ATOM      8  C   UNL d   1     -13.191  -0.446  -6.726 -0.08 +0.02    +0.066 A 
DOCKED: ATOM      9  C   UNL d   1     -13.739  -1.205  -9.176 -0.09 +0.01    +0.051 C 
DOCKED: ATOM     10  C   UNL d   1     -11.921  -1.894  -5.202 -0.13 +0.01    +0.066 A 
DOCKED: ATOM     11  C   UNL d   1     -11.123  -3.021  -4.907 -0.16 +0.00    -0.021 A 
DOCKED: ATOM     12  C   UNL d   1     -10.763  -2.906  -3.561 -0.23 -0.00    +0.000 A 
DOCKED: ATOM     13  C   UNL d   1     -11.355  -1.715  -3.140 -0.17 -0.01    +0.070 A 
DOCKED: ATOM     14  C   UNL d   1     -10.669  -4.074  -5.885 -0.25 -0.00    +0.052 C 
DOCKED: ATOM     15  C   UNL d   1     -11.882  -0.126  -1.248 -0.21 -0.01    +0.066 A 
DOCKED: ATOM     16  C   UNL d   1     -11.897   0.173   0.107 -0.26 +0.00    -0.021 A 
DOCKED: ATOM     17  C   UNL d   1     -12.595   1.383   0.222 -0.20 +0.00    +0.000 A 
DOCKED: ATOM     18  C   UNL d   1     -12.937   1.738  -1.079 -0.14 +0.01    +0.070 A 
DOCKED: ATOM     19  C   UNL d   1     -11.274  -0.670   1.198 -0.08 -0.02    +0.052 C 
DOCKED: ATOM     20  C   UNL d   1     -14.124   3.228  -2.731 -0.09 +0.03    +0.066 A 
DOCKED: ATOM     21  C   UNL d   1     -14.889   4.363  -2.991 -0.09 -0.01    -0.025 A 
DOCKED: ATOM     22  C   UNL d   1     -15.140   4.342  -4.351 -0.08 -0.01    -0.021 A 
DOCKED: ATOM     23  C   UNL d   1     -14.520   3.179  -4.856 -0.05 +0.06    +0.066 A 
DOCKED: ATOM     24  C   UNL d   1     -15.376   5.407  -1.989 -0.05 +0.01    +0.051 C 
DOCKED: ATOM     25  N   UNL d   1     -13.387   0.621  -5.866 -0.07 -0.15    -0.248 N 
DOCKED: ATOM     26  N   UNL d   1     -12.007  -1.076  -4.148 -0.07 -0.03    -0.248 N 
DOCKED: ATOM     27  N   UNL d   1     -12.523   0.801  -1.925 -0.10 -0.04    -0.248 N 
DOCKED: ATOM     28  N   UNL d   1     -13.906   2.501  -3.878 -0.05 -0.19    -0.248 N 
DOCKED: ATOM     29 FE   UNL d   1     -12.930   0.720  -3.778 -0.03 +0.00    +0.000 Fe
DOCKED: ENDROOT
DOCKED: BRANCH   6  30
DOCKED: ATOM     30  C   UNL d   1     -15.146   1.700  -9.028 -0.02 +0.02    +0.052 C 
DOCKED: BRANCH  30  31
DOCKED: ATOM     31  C   UNL d   1     -16.611   1.271  -8.960 +0.00 +0.02    +0.115 C 
DOCKED: BRANCH  31  32
DOCKED: ATOM     32  C   UNL d   1     -16.867   0.261  -7.862 +0.00 +0.02    +0.139 C 
DOCKED: ATOM     33  O   UNL d   1     -16.915  -0.928  -8.139 +0.01 -0.06    -0.650 OA
DOCKED: BRANCH  32  34
DOCKED: ATOM     34  O   UNL d   1     -16.998   0.627  -6.566 +0.01 -0.11    -0.776 OA
DOCKED: ATOM     35  H   UNL d   1     -17.036   0.006  -5.826 +0.00 +0.02    +0.167 HD
DOCKED: ENDBRANCH  32  34
DOCKED: ENDBRANCH  31  32
DOCKED: ENDBRANCH  30  31
DOCKED: ENDBRANCH   6  30
DOCKED: BRANCH  29  36
DOCKED: ATOM     36  C   UNL d   1     -14.743  -0.281  -3.450 -0.02 +0.02    +0.190 C 
DOCKED: BRANCH  36  37
DOCKED: ATOM     37  O   UNL d   1     -15.952  -0.625  -4.062 +0.00 -0.03    -0.399 OA
DOCKED: ATOM     38  H   UNL d   1     -15.918  -0.191  -4.959 +0.01 +0.03    +0.209 HD
DOCKED: ENDBRANCH  36  37
DOCKED: ENDBRANCH  29  36
DOCKED: BRANCH  22  39
DOCKED: ATOM     39  C   UNL d   1     -15.984   5.351  -5.106 -0.03 +0.02    +0.052 C 
DOCKED: BRANCH  39  40
DOCKED: ATOM     40  C   UNL d   1     -15.109   6.497  -5.642 -0.03 +0.05    +0.115 C 
DOCKED: BRANCH  40  41
DOCKED: ATOM     41  C   UNL d   1     -13.690   6.093  -5.983 +0.09 +0.16    +0.139 C 
DOCKED: ATOM     42  O   UNL d   1     -12.837   6.111  -5.107 -0.47 -1.08    -0.650 OA
DOCKED: BRANCH  41  43
DOCKED: ATOM     43  O   UNL d   1     -13.358   5.629  -7.208 -0.15 -1.00    -0.776 OA
DOCKED: ATOM     44  H   UNL d   1     -13.895   5.803  -7.992 +0.01 +0.12    +0.167 HD
DOCKED: ENDBRANCH  41  43
DOCKED: ENDBRANCH  40  41
DOCKED: ENDBRANCH  39  40
DOCKED: ENDBRANCH  22  39
DOCKED: BRANCH  12  45
DOCKED: ATOM     45  C   UNL d   1      -9.917  -3.769  -2.636 -0.37 -0.00    +0.004 C 
DOCKED: ATOM     46  C   UNL d   1      -9.230  -4.883  -2.877 -0.50 -0.01    +0.012 C 
DOCKED: ENDBRANCH  12  45
DOCKED: BRANCH  17  47
DOCKED: ATOM     47  C   UNL d   1     -12.977   2.152   1.444 -0.19 +0.00    +0.004 C 
DOCKED: ATOM     48  C   UNL d   1     -12.136   2.954   2.103 -0.36 +0.00    +0.012 C 
DOCKED: ENDBRANCH  17  47
DOCKED: TORSDOF 12
DOCKED: TER
DOCKED: ENDMDL
________________________________________________________________________________


	BEGINNING GENETIC ALGORITHM DOCKING 66 of 100
Run: 66 Seed: 1248903118 1320814987 [ Run 66 of 100 GA/GALS ]
Beginning LAMARCKIAN GENETIC ALGORITHM (LGA), with a maximum of 25000000 energy evaluations.

Final-Value: -10.598


	FINAL GENETIC ALGORITHM DOCKED STATE
	_______________________________________________


Detailed state:  trans -7.689 10.792 -13.013 quatxyzw 0.074908 -0.253102 0.158298 0.951457 center 8.781 34.984 -0.736 ntor 12 -4.3635 89.5992 8.4578 -34.1381 -70.6999 -168.0214 54.8338 -37.5961 68.4530 125.8615 -150.8460 -164.7738
State:	 -7.689  10.792 -13.013   0.243 -0.822  0.514 35.851     -4.36   89.60    8.46  -34.14  -70.70 -168.02   54.83  -37.60   68.45  125.86 -150.85 -164.77

DOCKED: MODEL       66
DOCKED: USER    Run = 66
DOCKED: USER    DPF = D:/Protein_go_brrr/autodock/final/mut_K82N/heme_Co/dock.dpf
DOCKED: USER  
DOCKED: USER    Estimated Free Energy of Binding    =   -6.24 kcal/mol  [=(1)+(2)+(3)-(4)]
DOCKED: USER    Estimated Inhibition Constant, Ki   =   26.51 uM (micromolar)  [Temperature = 298.15 K]
DOCKED: USER    
DOCKED: USER    (1) Final Intermolecular Energy     =   -9.82 kcal/mol
DOCKED: USER        vdW + Hbond + desolv Energy     =   -8.60 kcal/mol
DOCKED: USER        Electrostatic Energy            =   -1.22 kcal/mol
DOCKED: USER    (2) Final Total Internal Energy     =   -0.78 kcal/mol
DOCKED: USER    (3) Torsional Free Energy           =   +3.58 kcal/mol
DOCKED: USER    (4) Unbound System's Energy  [=(2)] =   -0.78 kcal/mol
DOCKED: USER    
DOCKED: USER    
DOCKED: USER    NEWDPF move heme_Co_opt.pdbqt
DOCKED: USER    NEWDPF about 8.781000 34.984000 -0.736000
DOCKED: USER    NEWDPF tran0 -7.689177 10.792103 -13.013049
DOCKED: USER    NEWDPF quaternion0 0.074908 -0.253102 0.158298 0.951457
DOCKED: USER    NEWDPF axisangle0 0.243381 -0.822339 0.514319 35.851287
DOCKED: USER    NEWDPF quat0 0.243381 -0.822339 0.514319 35.851287
DOCKED: USER    NEWDPF dihe0 -4.36 89.60 8.46 -34.14 -70.70 -168.02 54.83 -37.60 68.45 125.86 -150.85 -164.77 
DOCKED: USER  keepresnum = 1 
DOCKED: USER  
DOCKED: REMARK  12 active torsions:
DOCKED: REMARK  status: ('A' for Active; 'I' for Inactive)
DOCKED: REMARK    1  A    between atoms: C_6  and  C_10 
DOCKED: REMARK    2  A    between atoms: C_10  and  C_11 
DOCKED: REMARK    3  A    between atoms: C_11  and  C_12 
DOCKED: REMARK    4  A    between atoms: C_12  and  O_14 
DOCKED: REMARK    5  A    between atoms: C_17  and  C_20 
DOCKED: REMARK    6  A    between atoms: C_24  and  C_27 
DOCKED: REMARK    7  A    between atoms: C_31  and  C_34 
DOCKED: REMARK    8  A    between atoms: C_34  and  C_35 
DOCKED: REMARK    9  A    between atoms: C_35  and  C_36 
DOCKED: REMARK   10  A    between atoms: C_36  and  O_38 
DOCKED: REMARK   11  A    between atoms: FE_43  and  C_44 
DOCKED: REMARK   12  A    between atoms: C_44  and  O_45 
DOCKED: USER                              x       y       z     vdW  Elec       q    Type
DOCKED: USER                           _______ _______ _______ _____ _____    ______ ____
DOCKED: ROOT
DOCKED: ATOM      1  C   UNL d   1      -9.577  11.864 -12.970 -0.07 +0.01    +0.064 A 
DOCKED: ATOM      2  C   UNL d   1      -7.356   9.173  -9.739 -0.27 +0.00    +0.064 C 
DOCKED: ATOM      3  C   UNL d   1      -3.957   8.095 -12.920 -0.32 -0.01    +0.064 A 
DOCKED: ATOM      4  C   UNL d   1      -5.998  11.143 -16.115 -0.04 -0.01    +0.064 A 
DOCKED: ATOM      5  C   UNL d   1      -9.240  11.179 -11.865 +0.00 +0.02    +0.066 A 
DOCKED: ATOM      6  C   UNL d   1      -9.967  11.292 -10.664 -0.06 -0.01    -0.021 A 
DOCKED: ATOM      7  C   UNL d   1      -9.305  10.527  -9.724 -0.15 -0.01    -0.025 A 
DOCKED: ATOM      8  C   UNL d   1      -8.212   9.967 -10.394 -0.16 +0.01    +0.066 A 
DOCKED: ATOM      9  C   UNL d   1      -9.674  10.321  -8.246 -0.19 +0.01    +0.051 C 
DOCKED: ATOM     10  C   UNL d   1      -6.219   8.532 -10.352 -0.27 -0.00    +0.066 A 
DOCKED: ATOM     11  C   UNL d   1      -5.365   7.578  -9.756 -0.39 +0.00    -0.021 A 
DOCKED: ATOM     12  C   UNL d   1      -4.386   7.278 -10.707 -0.41 -0.00    +0.000 A 
DOCKED: ATOM     13  C   UNL d   1      -4.721   8.059 -11.813 -0.17 -0.02    +0.070 A 
DOCKED: ATOM     14  C   UNL d   1      -5.548   6.940  -8.403 -0.30 +0.00    +0.052 C 
DOCKED: ATOM     15  C   UNL d   1      -4.124   8.879 -14.128 -0.31 -0.02    +0.066 A 
DOCKED: ATOM     16  C   UNL d   1      -3.220   8.979 -15.176 -0.33 +0.01    -0.021 A 
DOCKED: ATOM     17  C   UNL d   1      -3.803   9.859 -16.099 -0.16 -0.00    +0.000 A 
DOCKED: ATOM     18  C   UNL d   1      -5.029  10.214 -15.546 -0.09 -0.02    +0.070 A 
DOCKED: ATOM     19  C   UNL d   1      -1.889   8.264 -15.257 -0.33 -0.02    +0.052 C 
DOCKED: ATOM     20  C   UNL d   1      -7.156  11.570 -15.556 -0.04 -0.01    +0.066 A 
DOCKED: ATOM     21  C   UNL d   1      -7.988  12.494 -16.185 -0.02 +0.00    -0.025 A 
DOCKED: ATOM     22  C   UNL d   1      -9.043  12.699 -15.315 -0.04 +0.00    -0.021 A 
DOCKED: ATOM     23  C   UNL d   1      -8.794  11.893 -14.184 -0.06 +0.00    +0.066 A 
DOCKED: ATOM     24  C   UNL d   1      -7.779  13.164 -17.541 -0.01 -0.01    +0.051 C 
DOCKED: ATOM     25  N   UNL d   1      -8.150  10.349 -11.724 -0.08 -0.03    -0.248 N 
DOCKED: ATOM     26  N   UNL d   1      -5.861   8.774 -11.618 -0.14 +0.04    -0.248 N 
DOCKED: ATOM     27  N   UNL d   1      -5.173   9.636 -14.359 -0.10 +0.05    -0.248 N 
DOCKED: ATOM     28  N   UNL d   1      -7.652  11.210 -14.325 -0.03 +0.01    -0.248 N 
DOCKED: ATOM     29 FE   UNL d   1      -6.575   9.973 -13.122 -0.04 -0.00    +0.000 Fe
DOCKED: ENDROOT
DOCKED: BRANCH   6  30
DOCKED: ATOM     30  C   UNL d   1     -11.194  12.164 -10.422 -0.10 +0.01    +0.052 C 
DOCKED: BRANCH  30  31
DOCKED: ATOM     31  C   UNL d   1     -10.824  13.645 -10.499 +0.01 +0.05    +0.115 C 
DOCKED: BRANCH  31  32
DOCKED: ATOM     32  C   UNL d   1     -10.964  14.344  -9.164 -0.22 +0.10    +0.139 C 
DOCKED: ATOM     33  O   UNL d   1     -12.078  14.614  -8.740 -0.04 -0.44    -0.650 OA
DOCKED: BRANCH  32  34
DOCKED: ATOM     34  O   UNL d   1      -9.891  14.641  -8.394 -0.49 -0.85    -0.776 OA
DOCKED: ATOM     35  H   UNL d   1      -8.992  14.333  -8.572 -0.26 +0.09    +0.167 HD
DOCKED: ENDBRANCH  32  34
DOCKED: ENDBRANCH  31  32
DOCKED: ENDBRANCH  30  31
DOCKED: ENDBRANCH   6  30
DOCKED: BRANCH  29  36
DOCKED: ATOM     36  C   UNL d   1      -5.586  11.618 -12.278 -0.34 -0.02    +0.190 C 
DOCKED: BRANCH  36  37
DOCKED: ATOM     37  O   UNL d   1      -5.347  12.272 -11.065 -0.73 +0.01    -0.399 OA
DOCKED: ATOM     38  H   UNL d   1      -6.109  12.008 -10.477 -0.37 -0.04    +0.209 HD
DOCKED: ENDBRANCH  36  37
DOCKED: ENDBRANCH  29  36
DOCKED: BRANCH  22  39
DOCKED: ATOM     39  C   UNL d   1     -10.190  13.667 -15.535 -0.02 +0.00    +0.052 C 
DOCKED: BRANCH  39  40
DOCKED: ATOM     40  C   UNL d   1      -9.675  15.115 -15.592 -0.03 -0.00    +0.115 C 
DOCKED: BRANCH  40  41
DOCKED: ATOM     41  C   UNL d   1      -8.960  15.573 -14.339 -0.09 +0.01    +0.139 C 
DOCKED: ATOM     42  O   UNL d   1      -7.737  15.590 -14.319 -0.03 +0.00    -0.650 OA
DOCKED: BRANCH  41  43
DOCKED: ATOM     43  O   UNL d   1      -9.635  16.048 -13.269 +0.06 -0.17    -0.776 OA
DOCKED: ATOM     44  H   UNL d   1     -10.588  15.928 -13.161 +0.02 +0.03    +0.167 HD
DOCKED: ENDBRANCH  41  43
DOCKED: ENDBRANCH  40  41
DOCKED: ENDBRANCH  39  40
DOCKED: ENDBRANCH  22  39
DOCKED: BRANCH  12  45
DOCKED: ATOM     45  C   UNL d   1      -3.190   6.335 -10.704 -0.55 -0.00    +0.004 C 
DOCKED: ATOM     46  C   UNL d   1      -2.284   6.089  -9.761 -0.57 +0.00    +0.012 C 
DOCKED: ENDBRANCH  12  45
DOCKED: BRANCH  17  47
DOCKED: ATOM     47  C   UNL d   1      -3.261  10.389 -17.385 -0.11 -0.00    +0.004 C 
DOCKED: ATOM     48  C   UNL d   1      -2.584  11.536 -17.483 -0.14 -0.01    +0.012 C 
DOCKED: ENDBRANCH  17  47
DOCKED: TORSDOF 12
DOCKED: TER
DOCKED: ENDMDL
________________________________________________________________________________


	BEGINNING GENETIC ALGORITHM DOCKING 67 of 100
Run: 67 Seed: 1441738573 1813350384 [ Run 67 of 100 GA/GALS ]
Beginning LAMARCKIAN GENETIC ALGORITHM (LGA), with a maximum of 25000000 energy evaluations.

Final-Value: -9.248


	FINAL GENETIC ALGORITHM DOCKED STATE
	_______________________________________________


Detailed state:  trans 13.897 2.566 21.043 quatxyzw -0.029700 0.732431 -0.346725 -0.585187 center 8.781 34.984 -0.736 ntor 12 -163.8109 96.4632 -128.3964 104.5348 65.6991 166.6483 -59.8846 103.5547 86.7911 -70.2054 27.2985 -14.1113
State:	 13.897   2.566  21.043  -0.037  0.903 -0.428 -108.368   -163.81   96.46 -128.40  104.53   65.70  166.65  -59.88  103.55   86.79  -70.21   27.30  -14.11

DOCKED: MODEL       67
DOCKED: USER    Run = 67
DOCKED: USER    DPF = D:/Protein_go_brrr/autodock/final/mut_K82N/heme_Co/dock.dpf
DOCKED: USER  
DOCKED: USER    Estimated Free Energy of Binding    =   -3.66 kcal/mol  [=(1)+(2)+(3)-(4)]
DOCKED: USER    Estimated Inhibition Constant, Ki   =    2.08 mM (millimolar)  [Temperature = 298.15 K]
DOCKED: USER    
DOCKED: USER    (1) Final Intermolecular Energy     =   -7.24 kcal/mol
DOCKED: USER        vdW + Hbond + desolv Energy     =   -4.98 kcal/mol
DOCKED: USER        Electrostatic Energy            =   -2.26 kcal/mol
DOCKED: USER    (2) Final Total Internal Energy     =   -2.01 kcal/mol
DOCKED: USER    (3) Torsional Free Energy           =   +3.58 kcal/mol
DOCKED: USER    (4) Unbound System's Energy  [=(2)] =   -2.01 kcal/mol
DOCKED: USER    
DOCKED: USER    
DOCKED: USER    NEWDPF move heme_Co_opt.pdbqt
DOCKED: USER    NEWDPF about 8.781000 34.984000 -0.736000
DOCKED: USER    NEWDPF tran0 13.897275 2.565648 21.043133
DOCKED: USER    NEWDPF quaternion0 -0.029700 0.732431 -0.346725 -0.585187
DOCKED: USER    NEWDPF axisangle0 -0.036627 0.903234 -0.427582 -108.367539
DOCKED: USER    NEWDPF quat0 -0.036627 0.903234 -0.427582 -108.367539
DOCKED: USER    NEWDPF dihe0 -163.81 96.46 -128.40 104.53 65.70 166.65 -59.88 103.55 86.79 -70.21 27.30 -14.11 
DOCKED: USER  keepresnum = 1 
DOCKED: USER  
DOCKED: REMARK  12 active torsions:
DOCKED: REMARK  status: ('A' for Active; 'I' for Inactive)
DOCKED: REMARK    1  A    between atoms: C_6  and  C_10 
DOCKED: REMARK    2  A    between atoms: C_10  and  C_11 
DOCKED: REMARK    3  A    between atoms: C_11  and  C_12 
DOCKED: REMARK    4  A    between atoms: C_12  and  O_14 
DOCKED: REMARK    5  A    between atoms: C_17  and  C_20 
DOCKED: REMARK    6  A    between atoms: C_24  and  C_27 
DOCKED: REMARK    7  A    between atoms: C_31  and  C_34 
DOCKED: REMARK    8  A    between atoms: C_34  and  C_35 
DOCKED: REMARK    9  A    between atoms: C_35  and  C_36 
DOCKED: REMARK   10  A    between atoms: C_36  and  O_38 
DOCKED: REMARK   11  A    between atoms: FE_43  and  C_44 
DOCKED: REMARK   12  A    between atoms: C_44  and  O_45 
DOCKED: USER                              x       y       z     vdW  Elec       q    Type
DOCKED: USER                           _______ _______ _______ _____ _____    ______ ____
DOCKED: ROOT
DOCKED: ATOM      1  C   UNL d   1      13.938   4.215  22.455 -0.01 +0.04    +0.064 A 
DOCKED: ATOM      2  C   UNL d   1      15.859  -0.133  22.566 -0.02 +0.01    +0.064 C 
DOCKED: ATOM      3  C   UNL d   1      13.673  -1.245  18.465 -0.18 +0.00    +0.064 A 
DOCKED: ATOM      4  C   UNL d   1      12.011   3.315  18.131 -0.18 +0.00    +0.064 A 
DOCKED: ATOM      5  C   UNL d   1      14.594   3.097  22.805 -0.08 +0.03    +0.066 A 
DOCKED: ATOM      6  C   UNL d   1      15.429   3.044  23.938 -0.06 -0.01    -0.021 A 
DOCKED: ATOM      7  C   UNL d   1      16.001   1.787  23.953 -0.03 -0.01    -0.025 A 
DOCKED: ATOM      8  C   UNL d   1      15.480   1.122  22.838 -0.04 +0.02    +0.066 A 
DOCKED: ATOM      9  C   UNL d   1      17.003   1.220  24.970 -0.00 +0.01    +0.051 C 
DOCKED: ATOM     10  C   UNL d   1      15.356  -0.906  21.457 -0.03 +0.01    +0.066 A 
DOCKED: ATOM     11  C   UNL d   1      15.606  -2.271  21.198 -0.03 -0.00    -0.021 A 
DOCKED: ATOM     12  C   UNL d   1      14.954  -2.570  19.999 -0.08 +0.00    +0.000 A 
DOCKED: ATOM     13  C   UNL d   1      14.345  -1.372  19.623 -0.08 +0.01    +0.070 A 
DOCKED: ATOM     14  C   UNL d   1      16.342  -3.230  22.099 -0.01 +0.00    +0.052 C 
DOCKED: ATOM     15  C   UNL d   1      13.030  -0.075  17.899 -0.22 -0.00    +0.066 A 
DOCKED: ATOM     16  C   UNL d   1      12.477   0.026  16.630 -0.32 +0.00    -0.021 A 
DOCKED: ATOM     17  C   UNL d   1      11.998   1.341  16.528 -0.28 -0.00    +0.000 A 
DOCKED: ATOM     18  C   UNL d   1      12.284   1.934  17.753 -0.21 -0.00    +0.070 A 
DOCKED: ATOM     19  C   UNL d   1      12.427  -1.083  15.604 -0.18 -0.01    +0.052 C 
DOCKED: ATOM     20  C   UNL d   1      12.356   3.938  19.283 -0.16 +0.01    +0.066 A 
DOCKED: ATOM     21  C   UNL d   1      12.070   5.282  19.516 -0.11 -0.00    -0.025 A 
DOCKED: ATOM     22  C   UNL d   1      12.588   5.562  20.767 -0.09 -0.01    -0.021 A 
DOCKED: ATOM     23  C   UNL d   1      13.180   4.369  21.234 -0.09 +0.03    +0.066 A 
DOCKED: ATOM     24  C   UNL d   1      11.356   6.257  18.584 -0.09 +0.00    +0.051 C 
DOCKED: ATOM     25  N   UNL d   1      14.601   1.908  22.112 -0.06 -0.09    -0.248 N 
DOCKED: ATOM     26  N   UNL d   1      14.542  -0.382  20.534 -0.03 -0.03    -0.248 N 
DOCKED: ATOM     27  N   UNL d   1      12.925   1.071  18.533 -0.12 -0.01    -0.248 N 
DOCKED: ATOM     28  N   UNL d   1      13.044   3.384  20.338 -0.10 -0.07    -0.248 N 
DOCKED: ATOM     29 FE   UNL d   1      13.711   1.468  20.217 -0.03 +0.00    +0.000 Fe
DOCKED: ENDROOT
DOCKED: BRANCH   6  30
DOCKED: ATOM     30  C   UNL d   1      15.718   4.184  24.909 -0.04 +0.02    +0.052 C 
DOCKED: BRANCH  30  31
DOCKED: ATOM     31  C   UNL d   1      15.099   3.896  26.276 -0.05 +0.06    +0.115 C 
DOCKED: BRANCH  31  32
DOCKED: ATOM     32  C   UNL d   1      13.735   4.531  26.438 +0.10 +0.17    +0.139 C 
DOCKED: ATOM     33  O   UNL d   1      13.048   4.243  27.407 -0.16 -0.82    -0.650 OA
DOCKED: BRANCH  32  34
DOCKED: ATOM     34  O   UNL d   1      13.264   5.452  25.564 -0.49 -1.03    -0.776 OA
DOCKED: ATOM     35  H   UNL d   1      12.481   5.998  25.719 -0.00 +0.22    +0.167 HD
DOCKED: ENDBRANCH  32  34
DOCKED: ENDBRANCH  31  32
DOCKED: ENDBRANCH  30  31
DOCKED: ENDBRANCH   6  30
DOCKED: BRANCH  29  36
DOCKED: ATOM     36  C   UNL d   1      15.504   2.122  19.350 -0.02 +0.02    +0.190 C 
DOCKED: BRANCH  36  37
DOCKED: ATOM     37  O   UNL d   1      16.827   2.465  19.650 +0.00 -0.03    -0.399 OA
DOCKED: ATOM     38  H   UNL d   1      16.836   2.612  20.637 +0.01 +0.02    +0.209 HD
DOCKED: ENDBRANCH  36  37
DOCKED: ENDBRANCH  29  36
DOCKED: BRANCH  22  39
DOCKED: ATOM     39  C   UNL d   1      12.570   6.920  21.443 -0.05 +0.01    +0.052 C 
DOCKED: BRANCH  39  40
DOCKED: ATOM     40  C   UNL d   1      11.264   7.117  22.230 -0.06 +0.04    +0.115 C 
DOCKED: BRANCH  40  41
DOCKED: ATOM     41  C   UNL d   1      11.411   6.973  23.730 -0.07 +0.08    +0.139 C 
DOCKED: ATOM     42  O   UNL d   1      10.794   6.090  24.310 -0.00 -0.71    -0.650 OA
DOCKED: BRANCH  41  43
DOCKED: ATOM     43  O   UNL d   1      12.274   7.737  24.436 +0.01 -0.30    -0.776 OA
DOCKED: ATOM     44  H   UNL d   1      12.980   7.359  24.977 +0.01 +0.07    +0.167 HD
DOCKED: ENDBRANCH  41  43
DOCKED: ENDBRANCH  40  41
DOCKED: ENDBRANCH  39  40
DOCKED: ENDBRANCH  22  39
DOCKED: BRANCH  12  45
DOCKED: ATOM     45  C   UNL d   1      14.820  -3.846  19.179 -0.16 +0.00    +0.004 C 
DOCKED: ATOM     46  C   UNL d   1      13.856  -4.762  19.154 -0.22 +0.00    +0.012 C 
DOCKED: ENDBRANCH  12  45
DOCKED: BRANCH  17  47
DOCKED: ATOM     47  C   UNL d   1      11.364   2.037  15.369 -0.36 -0.00    +0.004 C 
DOCKED: ATOM     48  C   UNL d   1      10.423   1.483  14.601 -0.53 -0.00    +0.012 C 
DOCKED: ENDBRANCH  17  47
DOCKED: TORSDOF 12
DOCKED: TER
DOCKED: ENDMDL
________________________________________________________________________________


	BEGINNING GENETIC ALGORITHM DOCKING 68 of 100
Run: 68 Seed: 175718773 43439456 [ Run 68 of 100 GA/GALS ]
Beginning LAMARCKIAN GENETIC ALGORITHM (LGA), with a maximum of 25000000 energy evaluations.

Final-Value: -9.575


	FINAL GENETIC ALGORITHM DOCKED STATE
	_______________________________________________


Detailed state:  trans -7.873 7.300 -16.966 quatxyzw 0.473551 -0.418094 -0.152855 0.759988 center 8.781 34.984 -0.736 ntor 12 -166.7016 118.5417 -25.3524 82.9714 128.5021 136.2780 35.7458 -3.7669 179.1058 93.7605 -170.5134 40.9840
State:	 -7.873   7.300 -16.966   0.729 -0.643 -0.235 81.074   -166.70  118.54  -25.35   82.97  128.50  136.28   35.75   -3.77  179.11   93.76 -170.51   40.98

DOCKED: MODEL       68
DOCKED: USER    Run = 68
DOCKED: USER    DPF = D:/Protein_go_brrr/autodock/final/mut_K82N/heme_Co/dock.dpf
DOCKED: USER  
DOCKED: USER    Estimated Free Energy of Binding    =   -3.78 kcal/mol  [=(1)+(2)+(3)-(4)]
DOCKED: USER    Estimated Inhibition Constant, Ki   =    1.71 mM (millimolar)  [Temperature = 298.15 K]
DOCKED: USER    
DOCKED: USER    (1) Final Intermolecular Energy     =   -7.35 kcal/mol
DOCKED: USER        vdW + Hbond + desolv Energy     =   -5.95 kcal/mol
DOCKED: USER        Electrostatic Energy            =   -1.41 kcal/mol
DOCKED: USER    (2) Final Total Internal Energy     =   -2.22 kcal/mol
DOCKED: USER    (3) Torsional Free Energy           =   +3.58 kcal/mol
DOCKED: USER    (4) Unbound System's Energy  [=(2)] =   -2.22 kcal/mol
DOCKED: USER    
DOCKED: USER    
DOCKED: USER    NEWDPF move heme_Co_opt.pdbqt
DOCKED: USER    NEWDPF about 8.781000 34.984000 -0.736000
DOCKED: USER    NEWDPF tran0 -7.872923 7.300231 -16.965545
DOCKED: USER    NEWDPF quaternion0 0.473551 -0.418094 -0.152855 0.759988
DOCKED: USER    NEWDPF axisangle0 0.728611 -0.643284 -0.235184 81.073681
DOCKED: USER    NEWDPF quat0 0.728611 -0.643284 -0.235184 81.073681
DOCKED: USER    NEWDPF dihe0 -166.70 118.54 -25.35 82.97 128.50 136.28 35.75 -3.77 179.11 93.76 -170.51 40.98 
DOCKED: USER  keepresnum = 1 
DOCKED: USER  
DOCKED: REMARK  12 active torsions:
DOCKED: REMARK  status: ('A' for Active; 'I' for Inactive)
DOCKED: REMARK    1  A    between atoms: C_6  and  C_10 
DOCKED: REMARK    2  A    between atoms: C_10  and  C_11 
DOCKED: REMARK    3  A    between atoms: C_11  and  C_12 
DOCKED: REMARK    4  A    between atoms: C_12  and  O_14 
DOCKED: REMARK    5  A    between atoms: C_17  and  C_20 
DOCKED: REMARK    6  A    between atoms: C_24  and  C_27 
DOCKED: REMARK    7  A    between atoms: C_31  and  C_34 
DOCKED: REMARK    8  A    between atoms: C_34  and  C_35 
DOCKED: REMARK    9  A    between atoms: C_35  and  C_36 
DOCKED: REMARK   10  A    between atoms: C_36  and  O_38 
DOCKED: REMARK   11  A    between atoms: FE_43  and  C_44 
DOCKED: REMARK   12  A    between atoms: C_44  and  O_45 
DOCKED: USER                              x       y       z     vdW  Elec       q    Type
DOCKED: USER                           _______ _______ _______ _____ _____    ______ ____
DOCKED: ROOT
DOCKED: ATOM      1  C   UNL d   1      -9.772   7.148 -15.923 -0.10 +0.00    +0.064 A 
DOCKED: ATOM      2  C   UNL d   1      -5.507   8.765 -14.576 -0.21 -0.01    +0.064 C 
DOCKED: ATOM      3  C   UNL d   1      -3.626   7.387 -18.747 -0.22 -0.02    +0.064 A 
DOCKED: ATOM      4  C   UNL d   1      -8.049   6.080 -20.294 -0.11 -0.01    +0.064 A 
DOCKED: ATOM      5  C   UNL d   1      -8.737   7.658 -15.234 -0.10 +0.00    +0.066 A 
DOCKED: ATOM      6  C   UNL d   1      -8.901   8.245 -13.964 -0.08 -0.00    -0.021 A 
DOCKED: ATOM      7  C   UNL d   1      -7.665   8.733 -13.588 -0.10 +0.00    -0.025 A 
DOCKED: ATOM      8  C   UNL d   1      -6.797   8.409 -14.637 +0.04 -0.01    +0.066 A 
DOCKED: ATOM      9  C   UNL d   1      -7.299   9.478 -12.295 -0.17 -0.00    +0.051 C 
DOCKED: ATOM     10  C   UNL d   1      -4.535   8.453 -15.594 -0.23 -0.01    +0.066 A 
DOCKED: ATOM     11  C   UNL d   1      -3.143   8.675 -15.527 -0.31 +0.01    -0.021 A 
DOCKED: ATOM     12  C   UNL d   1      -2.618   8.260 -16.754 -0.28 -0.00    +0.000 A 
DOCKED: ATOM     13  C   UNL d   1      -3.725   7.806 -17.473 -0.24 -0.02    +0.070 A 
DOCKED: ATOM     14  C   UNL d   1      -2.374   9.161 -14.325 -0.36 -0.01    +0.052 C 
DOCKED: ATOM     15  C   UNL d   1      -4.667   6.937 -19.650 -0.18 -0.02    +0.066 A 
DOCKED: ATOM     16  C   UNL d   1      -4.520   6.655 -21.000 -0.11 +0.00    -0.021 A 
DOCKED: ATOM     17  C   UNL d   1      -5.793   6.280 -21.452 -0.14 -0.00    +0.000 A 
DOCKED: ATOM     18  C   UNL d   1      -6.616   6.346 -20.333 -0.15 -0.01    +0.070 A 
DOCKED: ATOM     19  C   UNL d   1      -3.227   6.751 -21.780 -0.10 -0.01    +0.052 C 
DOCKED: ATOM     20  C   UNL d   1      -8.886   6.221 -19.239 -0.12 -0.00    +0.066 A 
DOCKED: ATOM     21  C   UNL d   1     -10.252   5.968 -19.335 -0.08 -0.00    -0.025 A 
DOCKED: ATOM     22  C   UNL d   1     -10.771   6.240 -18.081 -0.08 -0.00    -0.021 A 
DOCKED: ATOM     23  C   UNL d   1      -9.687   6.660 -17.280 -0.12 +0.00    +0.066 A 
DOCKED: ATOM     24  C   UNL d   1     -11.031   5.510 -20.565 -0.05 +0.00    +0.051 C 
DOCKED: ATOM     25  N   UNL d   1      -7.433   7.738 -15.667 -0.10 +0.02    -0.248 N 
DOCKED: ATOM     26  N   UNL d   1      -4.874   7.871 -16.749 -0.17 +0.07    -0.248 N 
DOCKED: ATOM     27  N   UNL d   1      -5.919   6.770 -19.285 -0.09 +0.08    -0.248 N 
DOCKED: ATOM     28  N   UNL d   1      -8.545   6.652 -17.978 -0.11 +0.02    -0.248 N 
DOCKED: ATOM     29 FE   UNL d   1      -6.634   7.223 -17.584 -0.04 -0.00    +0.000 Fe
DOCKED: ENDROOT
DOCKED: BRANCH   6  30
DOCKED: ATOM     30  C   UNL d   1     -10.209   8.396 -13.194 -0.05 +0.00    +0.052 C 
DOCKED: BRANCH  30  31
DOCKED: ATOM     31  C   UNL d   1     -10.931   9.677 -13.609 -0.01 +0.01    +0.115 C 
DOCKED: BRANCH  31  32
DOCKED: ATOM     32  C   UNL d   1     -10.139  10.487 -14.613 -0.01 +0.00    +0.139 C 
DOCKED: ATOM     33  O   UNL d   1      -9.405  11.381 -14.218 +0.02 -0.03    -0.650 OA
DOCKED: BRANCH  32  34
DOCKED: ATOM     34  O   UNL d   1     -10.180  10.224 -15.939 +0.01 -0.00    -0.776 OA
DOCKED: ATOM     35  H   UNL d   1      -9.596  10.632 -16.593 +0.01 -0.01    +0.167 HD
DOCKED: ENDBRANCH  32  34
DOCKED: ENDBRANCH  31  32
DOCKED: ENDBRANCH  30  31
DOCKED: ENDBRANCH   6  30
DOCKED: BRANCH  29  36
DOCKED: ATOM     36  C   UNL d   1      -7.076   9.187 -18.170 -0.03 -0.03    +0.190 C 
DOCKED: BRANCH  36  37
DOCKED: ATOM     37  O   UNL d   1      -7.846  10.305 -17.831 +0.00 +0.04    -0.399 OA
DOCKED: ATOM     38  H   UNL d   1      -8.280  10.063 -16.965 +0.02 -0.02    +0.209 HD
DOCKED: ENDBRANCH  36  37
DOCKED: ENDBRANCH  29  36
DOCKED: BRANCH  22  39
DOCKED: ATOM     39  C   UNL d   1     -12.237   6.162 -17.700 -0.05 +0.01    +0.052 C 
DOCKED: BRANCH  39  40
DOCKED: ATOM     40  C   UNL d   1     -12.398   5.612 -16.273 -0.08 +0.04    +0.115 C 
DOCKED: BRANCH  40  41
DOCKED: ATOM     41  C   UNL d   1     -12.569   4.109 -16.197 -0.12 +0.12    +0.139 C 
DOCKED: ATOM     42  O   UNL d   1     -11.928   3.475 -15.372 -0.07 -0.69    -0.650 OA
DOCKED: BRANCH  41  43
DOCKED: ATOM     43  O   UNL d   1     -13.476   3.459 -16.959 -0.59 -1.06    -0.776 OA
DOCKED: ATOM     44  H   UNL d   1     -14.223   3.908 -17.375 +0.01 +0.12    +0.167 HD
DOCKED: ENDBRANCH  41  43
DOCKED: ENDBRANCH  40  41
DOCKED: ENDBRANCH  39  40
DOCKED: ENDBRANCH  22  39
DOCKED: BRANCH  12  45
DOCKED: ATOM     45  C   UNL d   1      -1.205   8.224 -17.321 -0.31 -0.00    +0.004 C 
DOCKED: ATOM     46  C   UNL d   1      -0.188   7.408 -17.057 -0.42 -0.00    +0.012 C 
DOCKED: ENDBRANCH  12  45
DOCKED: BRANCH  17  47
DOCKED: ATOM     47  C   UNL d   1      -6.252   5.930 -22.829 -0.08 -0.00    +0.004 C 
DOCKED: ATOM     48  C   UNL d   1      -6.544   4.685 -23.215 -0.09 -0.00    +0.012 C 
DOCKED: ENDBRANCH  17  47
DOCKED: TORSDOF 12
DOCKED: TER
DOCKED: ENDMDL
________________________________________________________________________________


	BEGINNING GENETIC ALGORITHM DOCKING 69 of 100
Run: 69 Seed: 899967614 2146504326 [ Run 69 of 100 GA/GALS ]
Beginning LAMARCKIAN GENETIC ALGORITHM (LGA), with a maximum of 25000000 energy evaluations.

Final-Value: -9.877


	FINAL GENETIC ALGORITHM DOCKED STATE
	_______________________________________________


Detailed state:  trans 11.135 4.848 13.040 quatxyzw 0.123990 -0.274441 0.388850 0.870692 center 8.781 34.984 -0.736 ntor 12 -147.8405 121.4828 23.5979 25.9189 147.8701 114.5919 57.1644 -177.7360 -102.5932 1.1337 179.6869 131.4673
State:	 11.135   4.848  13.040   0.252 -0.558  0.791 58.922   -147.84  121.48   23.60   25.92  147.87  114.59   57.16 -177.74 -102.59    1.13  179.69  131.47

DOCKED: MODEL       69
DOCKED: USER    Run = 69
DOCKED: USER    DPF = D:/Protein_go_brrr/autodock/final/mut_K82N/heme_Co/dock.dpf
DOCKED: USER  
DOCKED: USER    Estimated Free Energy of Binding    =   -4.14 kcal/mol  [=(1)+(2)+(3)-(4)]
DOCKED: USER    Estimated Inhibition Constant, Ki   =  919.41 uM (micromolar)  [Temperature = 298.15 K]
DOCKED: USER    
DOCKED: USER    (1) Final Intermolecular Energy     =   -7.72 kcal/mol
DOCKED: USER        vdW + Hbond + desolv Energy     =   -7.24 kcal/mol
DOCKED: USER        Electrostatic Energy            =   -0.48 kcal/mol
DOCKED: USER    (2) Final Total Internal Energy     =   -2.16 kcal/mol
DOCKED: USER    (3) Torsional Free Energy           =   +3.58 kcal/mol
DOCKED: USER    (4) Unbound System's Energy  [=(2)] =   -2.16 kcal/mol
DOCKED: USER    
DOCKED: USER    
DOCKED: USER    NEWDPF move heme_Co_opt.pdbqt
DOCKED: USER    NEWDPF about 8.781000 34.984000 -0.736000
DOCKED: USER    NEWDPF tran0 11.134742 4.848391 13.040090
DOCKED: USER    NEWDPF quaternion0 0.123990 -0.274441 0.388850 0.870692
DOCKED: USER    NEWDPF axisangle0 0.252099 -0.558001 0.790620 58.921768
DOCKED: USER    NEWDPF quat0 0.252099 -0.558001 0.790620 58.921768
DOCKED: USER    NEWDPF dihe0 -147.84 121.48 23.60 25.92 147.87 114.59 57.16 -177.74 -102.59 1.13 179.69 131.47 
DOCKED: USER  keepresnum = 1 
DOCKED: USER  
DOCKED: REMARK  12 active torsions:
DOCKED: REMARK  status: ('A' for Active; 'I' for Inactive)
DOCKED: REMARK    1  A    between atoms: C_6  and  C_10 
DOCKED: REMARK    2  A    between atoms: C_10  and  C_11 
DOCKED: REMARK    3  A    between atoms: C_11  and  C_12 
DOCKED: REMARK    4  A    between atoms: C_12  and  O_14 
DOCKED: REMARK    5  A    between atoms: C_17  and  C_20 
DOCKED: REMARK    6  A    between atoms: C_24  and  C_27 
DOCKED: REMARK    7  A    between atoms: C_31  and  C_34 
DOCKED: REMARK    8  A    between atoms: C_34  and  C_35 
DOCKED: REMARK    9  A    between atoms: C_35  and  C_36 
DOCKED: REMARK   10  A    between atoms: C_36  and  O_38 
DOCKED: REMARK   11  A    between atoms: FE_43  and  C_44 
DOCKED: REMARK   12  A    between atoms: C_44  and  O_45 
DOCKED: USER                              x       y       z     vdW  Elec       q    Type
DOCKED: USER                           _______ _______ _______ _____ _____    ______ ____
DOCKED: ROOT
DOCKED: ATOM      1  C   UNL d   1       9.892   6.621  12.868 -0.10 -0.00    +0.064 A 
DOCKED: ATOM      2  C   UNL d   1      11.106   3.918  16.587 -0.22 -0.00    +0.064 C 
DOCKED: ATOM      3  C   UNL d   1      13.366   0.871  13.683 -0.15 -0.01    +0.064 A 
DOCKED: ATOM      4  C   UNL d   1      12.469   3.816   9.917 -0.14 -0.00    +0.064 A 
DOCKED: ATOM      5  C   UNL d   1      10.027   6.087  14.093 -0.19 -0.01    +0.066 A 
DOCKED: ATOM      6  C   UNL d   1       9.550   6.737  15.248 -0.29 +0.00    -0.021 A 
DOCKED: ATOM      7  C   UNL d   1       9.924   5.960  16.327 -0.21 +0.00    -0.025 A 
DOCKED: ATOM      8  C   UNL d   1      10.599   4.862  15.783 -0.21 -0.01    +0.066 A 
DOCKED: ATOM      9  C   UNL d   1       9.665   6.228  17.817 -0.15 +0.00    +0.051 C 
DOCKED: ATOM     10  C   UNL d   1      11.792   2.740  16.118 -0.20 -0.01    +0.066 A 
DOCKED: ATOM     11  C   UNL d   1      12.222   1.647  16.901 -0.23 +0.00    -0.021 A 
DOCKED: ATOM     12  C   UNL d   1      12.874   0.771  16.028 -0.22 -0.00    +0.000 A 
DOCKED: ATOM     13  C   UNL d   1      12.783   1.387  14.780 -0.16 -0.01    +0.070 A 
DOCKED: ATOM     14  C   UNL d   1      11.935   1.429  18.364 -0.24 +0.00    +0.052 C 
DOCKED: ATOM     15  C   UNL d   1      13.416   1.397  12.334 -0.14 -0.01    +0.066 A 
DOCKED: ATOM     16  C   UNL d   1      14.158   0.887  11.278 -0.13 +0.00    -0.021 A 
DOCKED: ATOM     17  C   UNL d   1      13.905   1.734  10.190 -0.14 -0.00    +0.000 A 
DOCKED: ATOM     18  C   UNL d   1      13.011   2.688  10.665 -0.13 -0.00    +0.070 A 
DOCKED: ATOM     19  C   UNL d   1      15.045  -0.337  11.341 -0.13 -0.01    +0.052 C 
DOCKED: ATOM     20  C   UNL d   1      11.668   4.804  10.381 -0.18 -0.00    +0.066 A 
DOCKED: ATOM     21  C   UNL d   1      11.241   5.856   9.573 -0.23 -0.00    -0.025 A 
DOCKED: ATOM     22  C   UNL d   1      10.472   6.665  10.389 -0.28 +0.00    -0.021 A 
DOCKED: ATOM     23  C   UNL d   1      10.478   6.069  11.668 -0.28 -0.00    +0.066 A 
DOCKED: ATOM     24  C   UNL d   1      11.565   6.090   8.100 -0.11 +0.00    +0.051 C 
DOCKED: ATOM     25  N   UNL d   1      10.673   4.911  14.401 -0.17 +0.04    -0.248 N 
DOCKED: ATOM     26  N   UNL d   1      12.079   2.550  14.826 -0.10 +0.03    -0.248 N 
DOCKED: ATOM     27  N   UNL d   1      12.766   2.474  11.953 -0.08 +0.02    -0.248 N 
DOCKED: ATOM     28  N   UNL d   1      11.203   4.943  11.668 -0.13 +0.01    -0.248 N 
DOCKED: ATOM     29 FE   UNL d   1      11.780   3.622  13.102 -0.04 -0.00    +0.000 Fe
DOCKED: ENDROOT
DOCKED: BRANCH   6  30
DOCKED: ATOM     30  C   UNL d   1       8.839   8.086  15.305 -0.14 -0.01    +0.052 C 
DOCKED: BRANCH  30  31
DOCKED: ATOM     31  C   UNL d   1       9.832   9.203  15.623 -0.13 -0.00    +0.115 C 
DOCKED: BRANCH  31  32
DOCKED: ATOM     32  C   UNL d   1      10.693   9.566  14.432 -0.09 +0.01    +0.139 C 
DOCKED: ATOM     33  O   UNL d   1      11.570   8.797  14.068 -0.00 -0.01    -0.650 OA
DOCKED: BRANCH  32  34
DOCKED: ATOM     34  O   UNL d   1      10.493  10.700  13.721 -0.05 -0.03    -0.776 OA
DOCKED: ATOM     35  H   UNL d   1      10.716  10.801  12.785 +0.02 +0.01    +0.167 HD
DOCKED: ENDBRANCH  32  34
DOCKED: ENDBRANCH  31  32
DOCKED: ENDBRANCH  30  31
DOCKED: ENDBRANCH   6  30
DOCKED: BRANCH  29  36
DOCKED: ATOM     36  C   UNL d   1      13.456   4.801  13.546 -0.02 -0.01    +0.190 C 
DOCKED: BRANCH  36  37
DOCKED: ATOM     37  O   UNL d   1      13.867   6.123  13.745 +0.00 +0.01    -0.399 OA
DOCKED: ATOM     38  H   UNL d   1      13.023   6.654  13.763 +0.03 -0.00    +0.209 HD
DOCKED: ENDBRANCH  36  37
DOCKED: ENDBRANCH  29  36
DOCKED: BRANCH  22  39
DOCKED: ATOM     39  C   UNL d   1       9.825   7.973   9.974 -0.32 +0.01    +0.052 C 
DOCKED: BRANCH  39  40
DOCKED: ATOM     40  C   UNL d   1      10.210   9.102  10.944 -0.18 +0.01    +0.115 C 
DOCKED: BRANCH  40  41
DOCKED: ATOM     41  C   UNL d   1       9.695  10.469  10.547 -0.19 +0.04    +0.139 C 
DOCKED: ATOM     42  O   UNL d   1       9.707  10.795   9.368 -0.37 -0.42    -0.650 OA
DOCKED: BRANCH  41  43
DOCKED: ATOM     43  O   UNL d   1       9.140  11.308  11.450 -0.04 -0.13    -0.776 OA
DOCKED: ATOM     44  H   UNL d   1       9.396  11.313  12.381 +0.02 +0.01    +0.167 HD
DOCKED: ENDBRANCH  41  43
DOCKED: ENDBRANCH  40  41
DOCKED: ENDBRANCH  39  40
DOCKED: ENDBRANCH  22  39
DOCKED: BRANCH  12  45
DOCKED: ATOM     45  C   UNL d   1      13.553  -0.578  16.225 -0.29 -0.00    +0.004 C 
DOCKED: ATOM     46  C   UNL d   1      13.463  -1.455  17.221 -0.28 +0.00    +0.012 C 
DOCKED: ENDBRANCH  12  45
DOCKED: BRANCH  17  47
DOCKED: ATOM     47  C   UNL d   1      14.477   1.713   8.811 -0.11 +0.00    +0.004 C 
DOCKED: ATOM     48  C   UNL d   1      13.732   1.690   7.703 -0.12 +0.00    +0.012 C 
DOCKED: ENDBRANCH  17  47
DOCKED: TORSDOF 12
DOCKED: TER
DOCKED: ENDMDL
________________________________________________________________________________


	BEGINNING GENETIC ALGORITHM DOCKING 70 of 100
Run: 70 Seed: 1298779889 363799940 [ Run 70 of 100 GA/GALS ]
Beginning LAMARCKIAN GENETIC ALGORITHM (LGA), with a maximum of 25000000 energy evaluations.

Final-Value: -10.420


	FINAL GENETIC ALGORITHM DOCKED STATE
	_______________________________________________


Detailed state:  trans -11.639 13.493 -6.593 quatxyzw 0.145009 0.317698 -0.818283 0.456567 center 8.781 34.984 -0.736 ntor 12 23.6638 141.0242 124.4581 104.5964 137.8042 83.2950 175.9051 -40.6241 54.5410 -137.9295 -165.3290 141.9061
State:	-11.639  13.493  -6.593   0.163  0.357 -0.920 125.668     23.66  141.02  124.46  104.60  137.80   83.30  175.91  -40.62   54.54 -137.93 -165.33  141.91

DOCKED: MODEL       70
DOCKED: USER    Run = 70
DOCKED: USER    DPF = D:/Protein_go_brrr/autodock/final/mut_K82N/heme_Co/dock.dpf
DOCKED: USER  
DOCKED: USER    Estimated Free Energy of Binding    =   -4.65 kcal/mol  [=(1)+(2)+(3)-(4)]
DOCKED: USER    Estimated Inhibition Constant, Ki   =  388.13 uM (micromolar)  [Temperature = 298.15 K]
DOCKED: USER    
DOCKED: USER    (1) Final Intermolecular Energy     =   -8.23 kcal/mol
DOCKED: USER        vdW + Hbond + desolv Energy     =   -6.44 kcal/mol
DOCKED: USER        Electrostatic Energy            =   -1.80 kcal/mol
DOCKED: USER    (2) Final Total Internal Energy     =   -2.19 kcal/mol
DOCKED: USER    (3) Torsional Free Energy           =   +3.58 kcal/mol
DOCKED: USER    (4) Unbound System's Energy  [=(2)] =   -2.19 kcal/mol
DOCKED: USER    
DOCKED: USER    
DOCKED: USER    NEWDPF move heme_Co_opt.pdbqt
DOCKED: USER    NEWDPF about 8.781000 34.984000 -0.736000
DOCKED: USER    NEWDPF tran0 -11.639486 13.492858 -6.592534
DOCKED: USER    NEWDPF quaternion0 0.145009 0.317698 -0.818283 0.456567
DOCKED: USER    NEWDPF axisangle0 0.162988 0.357089 -0.919740 125.668347
DOCKED: USER    NEWDPF quat0 0.162988 0.357089 -0.919740 125.668347
DOCKED: USER    NEWDPF dihe0 23.66 141.02 124.46 104.60 137.80 83.30 175.91 -40.62 54.54 -137.93 -165.33 141.91 
DOCKED: USER  keepresnum = 1 
DOCKED: USER  
DOCKED: REMARK  12 active torsions:
DOCKED: REMARK  status: ('A' for Active; 'I' for Inactive)
DOCKED: REMARK    1  A    between atoms: C_6  and  C_10 
DOCKED: REMARK    2  A    between atoms: C_10  and  C_11 
DOCKED: REMARK    3  A    between atoms: C_11  and  C_12 
DOCKED: REMARK    4  A    between atoms: C_12  and  O_14 
DOCKED: REMARK    5  A    between atoms: C_17  and  C_20 
DOCKED: REMARK    6  A    between atoms: C_24  and  C_27 
DOCKED: REMARK    7  A    between atoms: C_31  and  C_34 
DOCKED: REMARK    8  A    between atoms: C_34  and  C_35 
DOCKED: REMARK    9  A    between atoms: C_35  and  C_36 
DOCKED: REMARK   10  A    between atoms: C_36  and  O_38 
DOCKED: REMARK   11  A    between atoms: FE_43  and  C_44 
DOCKED: REMARK   12  A    between atoms: C_44  and  O_45 
DOCKED: USER                              x       y       z     vdW  Elec       q    Type
DOCKED: USER                           _______ _______ _______ _____ _____    ______ ____
DOCKED: ROOT
DOCKED: ATOM      1  C   UNL d   1     -10.471  12.008  -7.663 -0.20 +0.02    +0.064 A 
DOCKED: ATOM      2  C   UNL d   1     -11.380  12.631  -3.037 -0.33 +0.02    +0.064 C 
DOCKED: ATOM      3  C   UNL d   1     -13.690  16.701  -4.001 -0.09 +0.02    +0.064 A 
DOCKED: ATOM      4  C   UNL d   1     -13.109  15.888  -8.762 -0.08 +0.04    +0.064 A 
DOCKED: ATOM      5  C   UNL d   1     -10.518  11.898  -6.325 -0.23 +0.02    +0.066 A 
DOCKED: ATOM      6  C   UNL d   1     -10.000  10.776  -5.648 -0.30 -0.01    -0.021 A 
DOCKED: ATOM      7  C   UNL d   1     -10.287  10.952  -4.309 -0.39 -0.01    -0.025 A 
DOCKED: ATOM      8  C   UNL d   1     -10.952  12.180  -4.223 -0.28 +0.02    +0.066 A 
DOCKED: ATOM      9  C   UNL d   1      -9.955  10.009  -3.143 -0.46 +0.01    +0.051 C 
DOCKED: ATOM     10  C   UNL d   1     -12.049  13.894  -2.848 -0.21 +0.02    +0.066 A 
DOCKED: ATOM     11  C   UNL d   1     -12.397  14.488  -1.615 -0.26 -0.00    -0.021 A 
DOCKED: ATOM     12  C   UNL d   1     -13.066  15.675  -1.926 -0.17 +0.00    +0.000 A 
DOCKED: ATOM     13  C   UNL d   1     -13.066  15.724  -3.320 -0.13 +0.02    +0.070 A 
DOCKED: ATOM     14  C   UNL d   1     -12.021  13.986  -0.245 -0.29 +0.01    +0.052 C 
DOCKED: ATOM     15  C   UNL d   1     -13.834  16.877  -5.433 -0.06 +0.03    +0.066 A 
DOCKED: ATOM     16  C   UNL d   1     -14.616  17.830  -6.071 -0.05 -0.01    -0.021 A 
DOCKED: ATOM     17  C   UNL d   1     -14.454  17.598  -7.444 -0.05 +0.00    +0.000 A 
DOCKED: ATOM     18  C   UNL d   1     -13.569  16.528  -7.536 -0.06 +0.05    +0.070 A 
DOCKED: ATOM     19  C   UNL d   1     -15.455  18.881  -5.379 -0.01 +0.01    +0.052 C 
DOCKED: ATOM     20  C   UNL d   1     -12.318  14.794  -8.874 -0.13 +0.04    +0.066 A 
DOCKED: ATOM     21  C   UNL d   1     -11.974  14.249 -10.109 -0.12 -0.01    -0.025 A 
DOCKED: ATOM     22  C   UNL d   1     -11.190  13.146  -9.824 -0.14 -0.01    -0.021 A 
DOCKED: ATOM     23  C   UNL d   1     -11.104  13.065  -8.418 -0.20 +0.03    +0.066 A 
DOCKED: ATOM     24  C   UNL d   1     -12.388  14.742 -11.493 -0.06 +0.01    +0.051 C 
DOCKED: ATOM     25  N   UNL d   1     -11.104  12.791  -5.456 -0.16 -0.10    -0.248 N 
DOCKED: ATOM     26  N   UNL d   1     -12.402  14.675  -3.875 -0.07 -0.10    -0.248 N 
DOCKED: ATOM     27  N   UNL d   1     -13.245  16.106  -6.319 -0.04 -0.19    -0.248 N 
DOCKED: ATOM     28  N   UNL d   1     -11.787  14.060  -7.839 -0.12 -0.16    -0.248 N 
DOCKED: ATOM     29 FE   UNL d   1     -12.237  14.546  -5.917 -0.05 +0.00    +0.000 Fe
DOCKED: ENDROOT
DOCKED: BRANCH   6  30
DOCKED: ATOM     30  C   UNL d   1      -9.336   9.559  -6.282 -0.30 +0.02    +0.052 C 
DOCKED: BRANCH  30  31
DOCKED: ATOM     31  C   UNL d   1     -10.389   8.582  -6.803 -0.16 +0.05    +0.115 C 
DOCKED: BRANCH  31  32
DOCKED: ATOM     32  C   UNL d   1     -10.180   7.176  -6.283 -0.12 +0.13    +0.139 C 
DOCKED: ATOM     33  O   UNL d   1      -9.954   7.002  -5.095 -0.43 -0.67    -0.650 OA
DOCKED: BRANCH  32  34
DOCKED: ATOM     34  O   UNL d   1     -10.283   6.091  -7.086 -0.35 -1.15    -0.776 OA
DOCKED: ATOM     35  H   UNL d   1     -10.223   6.121  -8.051 +0.03 +0.16    +0.167 HD
DOCKED: ENDBRANCH  32  34
DOCKED: ENDBRANCH  31  32
DOCKED: ENDBRANCH  30  31
DOCKED: ENDBRANCH   6  30
DOCKED: BRANCH  29  36
DOCKED: ATOM     36  C   UNL d   1     -13.926  13.305  -5.973 -0.04 +0.05    +0.190 C 
DOCKED: BRANCH  36  37
DOCKED: ATOM     37  O   UNL d   1     -14.549  12.306  -6.727 +0.00 -0.08    -0.399 OA
DOCKED: ATOM     38  H   UNL d   1     -13.805  11.840  -7.201 +0.02 +0.04    +0.209 HD
DOCKED: ENDBRANCH  36  37
DOCKED: ENDBRANCH  29  36
DOCKED: BRANCH  22  39
DOCKED: ATOM     39  C   UNL d   1     -10.613  12.189 -10.850 -0.10 +0.02    +0.052 C 
DOCKED: BRANCH  39  40
DOCKED: ATOM     40  C   UNL d   1     -11.190  10.776 -10.660 -0.04 +0.02    +0.115 C 
DOCKED: BRANCH  40  41
DOCKED: ATOM     41  C   UNL d   1     -12.646  10.747 -10.243 -0.00 +0.02    +0.139 C 
DOCKED: ATOM     42  O   UNL d   1     -13.508  10.579 -11.094 +0.01 -0.09    -0.650 OA
DOCKED: BRANCH  41  43
DOCKED: ATOM     43  O   UNL d   1     -13.015  10.816  -8.945 +0.03 -0.15    -0.776 OA
DOCKED: ATOM     44  H   UNL d   1     -13.692  11.428  -8.629 +0.01 +0.03    +0.167 HD
DOCKED: ENDBRANCH  41  43
DOCKED: ENDBRANCH  40  41
DOCKED: ENDBRANCH  39  40
DOCKED: ENDBRANCH  22  39
DOCKED: BRANCH  12  45
DOCKED: ATOM     45  C   UNL d   1     -13.685  16.773  -1.070 -0.12 +0.00    +0.004 C 
DOCKED: ATOM     46  C   UNL d   1     -13.191  17.942  -0.672 -0.13 +0.00    +0.012 C 
DOCKED: ENDBRANCH  12  45
DOCKED: BRANCH  17  47
DOCKED: ATOM     47  C   UNL d   1     -15.102  18.272  -8.608 -0.01 +0.00    +0.004 C 
DOCKED: ATOM     48  C   UNL d   1     -14.429  18.981  -9.518 -0.01 +0.00    +0.012 C 
DOCKED: ENDBRANCH  17  47
DOCKED: TORSDOF 12
DOCKED: TER
DOCKED: ENDMDL
________________________________________________________________________________


	BEGINNING GENETIC ALGORITHM DOCKING 71 of 100
Run: 71 Seed: 1450517721 1774187321 [ Run 71 of 100 GA/GALS ]
Beginning LAMARCKIAN GENETIC ALGORITHM (LGA), with a maximum of 25000000 energy evaluations.

Final-Value: -9.215


	FINAL GENETIC ALGORITHM DOCKED STATE
	_______________________________________________


Detailed state:  trans -10.270 21.002 0.980 quatxyzw -0.365632 0.532692 0.229550 -0.727915 center 8.781 34.984 -0.736 ntor 12 147.4576 93.6951 -54.1953 -69.0051 -88.3703 119.4138 -124.3976 -29.2515 -128.1481 -157.0232 -175.6131 162.3401
State:	-10.270  21.002   0.980  -0.533  0.777  0.335 -86.576    147.46   93.70  -54.20  -69.01  -88.37  119.41 -124.40  -29.25 -128.15 -157.02 -175.61  162.34

DOCKED: MODEL       71
DOCKED: USER    Run = 71
DOCKED: USER    DPF = D:/Protein_go_brrr/autodock/final/mut_K82N/heme_Co/dock.dpf
DOCKED: USER  
DOCKED: USER    Estimated Free Energy of Binding    =   -1.50 kcal/mol  [=(1)+(2)+(3)-(4)]
DOCKED: USER    Estimated Inhibition Constant, Ki   =   78.87 mM (millimolar)  [Temperature = 298.15 K]
DOCKED: USER    
DOCKED: USER    (1) Final Intermolecular Energy     =   -5.08 kcal/mol
DOCKED: USER        vdW + Hbond + desolv Energy     =   -5.03 kcal/mol
DOCKED: USER        Electrostatic Energy            =   -0.06 kcal/mol
DOCKED: USER    (2) Final Total Internal Energy     =   -4.13 kcal/mol
DOCKED: USER    (3) Torsional Free Energy           =   +3.58 kcal/mol
DOCKED: USER    (4) Unbound System's Energy  [=(2)] =   -4.13 kcal/mol
DOCKED: USER    
DOCKED: USER    
DOCKED: USER    NEWDPF move heme_Co_opt.pdbqt
DOCKED: USER    NEWDPF about 8.781000 34.984000 -0.736000
DOCKED: USER    NEWDPF tran0 -10.269507 21.002330 0.980443
DOCKED: USER    NEWDPF quaternion0 -0.365632 0.532692 0.229550 -0.727915
DOCKED: USER    NEWDPF axisangle0 -0.533250 0.776894 0.334783 -86.576312
DOCKED: USER    NEWDPF quat0 -0.533250 0.776894 0.334783 -86.576312
DOCKED: USER    NEWDPF dihe0 147.46 93.70 -54.20 -69.01 -88.37 119.41 -124.40 -29.25 -128.15 -157.02 -175.61 162.34 
DOCKED: USER  keepresnum = 1 
DOCKED: USER  
DOCKED: REMARK  12 active torsions:
DOCKED: REMARK  status: ('A' for Active; 'I' for Inactive)
DOCKED: REMARK    1  A    between atoms: C_6  and  C_10 
DOCKED: REMARK    2  A    between atoms: C_10  and  C_11 
DOCKED: REMARK    3  A    between atoms: C_11  and  C_12 
DOCKED: REMARK    4  A    between atoms: C_12  and  O_14 
DOCKED: REMARK    5  A    between atoms: C_17  and  C_20 
DOCKED: REMARK    6  A    between atoms: C_24  and  C_27 
DOCKED: REMARK    7  A    between atoms: C_31  and  C_34 
DOCKED: REMARK    8  A    between atoms: C_34  and  C_35 
DOCKED: REMARK    9  A    between atoms: C_35  and  C_36 
DOCKED: REMARK   10  A    between atoms: C_36  and  O_38 
DOCKED: REMARK   11  A    between atoms: FE_43  and  C_44 
DOCKED: REMARK   12  A    between atoms: C_44  and  O_45 
DOCKED: USER                              x       y       z     vdW  Elec       q    Type
DOCKED: USER                           _______ _______ _______ _____ _____    ______ ____
DOCKED: ROOT
DOCKED: ATOM      1  C   UNL d   1     -11.780  20.762   2.522 -0.07 +0.01    +0.064 A 
DOCKED: ATOM      2  C   UNL d   1      -7.174  21.926   2.716 -0.17 -0.00    +0.064 C 
DOCKED: ATOM      3  C   UNL d   1      -6.752  21.196  -1.987 -0.27 +0.00    +0.064 A 
DOCKED: ATOM      4  C   UNL d   1     -11.539  20.379  -2.276 -0.10 +0.01    +0.064 A 
DOCKED: ATOM      5  C   UNL d   1     -10.544  21.098   2.927 -0.09 +0.01    +0.066 A 
DOCKED: ATOM      6  C   UNL d   1     -10.268  21.465   4.258 -0.05 -0.00    -0.021 A 
DOCKED: ATOM      7  C   UNL d   1      -8.935  21.824   4.304 -0.06 -0.00    -0.025 A 
DOCKED: ATOM      8  C   UNL d   1      -8.451  21.645   3.003 -0.13 +0.00    +0.066 A 
DOCKED: ATOM      9  C   UNL d   1      -8.133  22.319   5.517 -0.03 +0.00    +0.051 C 
DOCKED: ATOM     10  C   UNL d   1      -6.581  21.748   1.414 -0.20 -0.00    +0.066 A 
DOCKED: ATOM     11  C   UNL d   1      -5.216  21.890   1.082 -0.28 +0.00    -0.021 A 
DOCKED: ATOM     12  C   UNL d   1      -5.121  21.668  -0.294 -0.35 -0.00    +0.000 A 
DOCKED: ATOM     13  C   UNL d   1      -6.428  21.395  -0.697 -0.23 -0.00    +0.070 A 
DOCKED: ATOM     14  C   UNL d   1      -4.083  22.127   2.047 -0.27 -0.01    +0.052 C 
DOCKED: ATOM     15  C   UNL d   1      -8.052  20.956  -2.582 -0.21 +0.01    +0.066 A 
DOCKED: ATOM     16  C   UNL d   1      -8.339  20.903  -3.939 -0.23 -0.00    -0.021 A 
DOCKED: ATOM     17  C   UNL d   1      -9.719  20.670  -4.028 -0.17 +0.00    +0.000 A 
DOCKED: ATOM     18  C   UNL d   1     -10.163  20.582  -2.713 -0.13 +0.02    +0.070 A 
DOCKED: ATOM     19  C   UNL d   1      -7.332  21.071  -5.055 -0.27 +0.01    +0.052 C 
DOCKED: ATOM     20  C   UNL d   1     -12.008  20.376  -1.005 -0.08 +0.01    +0.066 A 
DOCKED: ATOM     21  C   UNL d   1     -13.360  20.207  -0.712 -0.06 -0.00    -0.025 A 
DOCKED: ATOM     22  C   UNL d   1     -13.456  20.284   0.665 -0.05 -0.00    -0.021 A 
DOCKED: ATOM     23  C   UNL d   1     -12.149  20.510   1.147 -0.08 +0.01    +0.066 A 
DOCKED: ATOM     24  C   UNL d   1     -14.508  20.003  -1.697 -0.03 +0.01    +0.051 C 
DOCKED: ATOM     25  N   UNL d   1      -9.425  21.190   2.130 -0.10 -0.02    -0.248 N 
DOCKED: ATOM     26  N   UNL d   1      -7.301  21.388   0.346 -0.02 -0.01    -0.248 N 
DOCKED: ATOM     27  N   UNL d   1      -9.149  20.787  -1.879 -0.08 -0.04    -0.248 N 
DOCKED: ATOM     28  N   UNL d   1     -11.270  20.568   0.140 -0.04 -0.04    -0.248 N 
DOCKED: ATOM     29 FE   UNL d   1      -9.283  20.975   0.007 -0.05 +0.00    +0.000 Fe
DOCKED: ENDROOT
DOCKED: BRANCH   6  30
DOCKED: ATOM     30  C   UNL d   1     -11.268  21.543   5.407 -0.02 +0.00    +0.052 C 
DOCKED: BRANCH  30  31
DOCKED: ATOM     31  C   UNL d   1     -11.861  22.948   5.508 -0.00 +0.00    +0.115 C 
DOCKED: BRANCH  31  32
DOCKED: ATOM     32  C   UNL d   1     -12.374  23.455   4.178 -0.01 +0.00    +0.139 C 
DOCKED: ATOM     33  O   UNL d   1     -13.579  23.506   3.978 +0.00 -0.00    -0.650 OA
DOCKED: BRANCH  32  34
DOCKED: ATOM     34  O   UNL d   1     -11.540  23.904   3.211 +0.01 -0.00    -0.776 OA
DOCKED: ATOM     35  H   UNL d   1     -11.679  23.764   2.265 +0.01 +0.00    +0.167 HD
DOCKED: ENDBRANCH  32  34
DOCKED: ENDBRANCH  31  32
DOCKED: ENDBRANCH  30  31
DOCKED: ENDBRANCH   6  30
DOCKED: BRANCH  29  36
DOCKED: ATOM     36  C   UNL d   1      -9.687  23.029  -0.115 -0.04 +0.01    +0.190 C 
DOCKED: BRANCH  36  37
DOCKED: ATOM     37  O   UNL d   1     -10.421  24.057   0.485 -0.00 -0.00    -0.399 OA
DOCKED: ATOM     38  H   UNL d   1     -11.139  23.594   0.999 +0.01 +0.00    +0.209 HD
DOCKED: ENDBRANCH  36  37
DOCKED: ENDBRANCH  29  36
DOCKED: BRANCH  22  39
DOCKED: ATOM     39  C   UNL d   1     -14.744  20.210   1.463 -0.02 +0.00    +0.052 C 
DOCKED: BRANCH  39  40
DOCKED: ATOM     40  C   UNL d   1     -15.263  21.620   1.789 -0.01 +0.00    +0.115 C 
DOCKED: BRANCH  40  41
DOCKED: ATOM     41  C   UNL d   1     -14.664  22.718   0.936 -0.01 +0.00    +0.139 C 
DOCKED: ATOM     42  O   UNL d   1     -15.359  23.269   0.094 +0.00 -0.01    -0.650 OA
DOCKED: BRANCH  41  43
DOCKED: ATOM     43  O   UNL d   1     -13.406  23.169   1.139 +0.01 -0.02    -0.776 OA
DOCKED: ATOM     44  H   UNL d   1     -13.072  23.402   2.015 +0.00 +0.00    +0.167 HD
DOCKED: ENDBRANCH  41  43
DOCKED: ENDBRANCH  40  41
DOCKED: ENDBRANCH  39  40
DOCKED: ENDBRANCH  22  39
DOCKED: BRANCH  12  45
DOCKED: ATOM     45  C   UNL d   1      -3.949  21.663  -1.267 -0.47 -0.00    +0.004 C 
DOCKED: ATOM     46  C   UNL d   1      -3.279  22.671  -1.821 -0.36 -0.01    +0.012 C 
DOCKED: ENDBRANCH  12  45
DOCKED: BRANCH  17  47
DOCKED: ATOM     47  C   UNL d   1     -10.596  20.583  -5.233 -0.15 +0.00    +0.004 C 
DOCKED: ATOM     48  C   UNL d   1     -11.505  21.508  -5.552 -0.06 +0.00    +0.012 C 
DOCKED: ENDBRANCH  17  47
DOCKED: TORSDOF 12
DOCKED: TER
DOCKED: ENDMDL
________________________________________________________________________________


	BEGINNING GENETIC ALGORITHM DOCKING 72 of 100
Run: 72 Seed: 928462967 201125103 [ Run 72 of 100 GA/GALS ]
Beginning LAMARCKIAN GENETIC ALGORITHM (LGA), with a maximum of 25000000 energy evaluations.

Final-Value: -10.156


	FINAL GENETIC ALGORITHM DOCKED STATE
	_______________________________________________


Detailed state:  trans 11.437 4.562 16.731 quatxyzw 0.103283 -0.482812 0.469564 0.731939 center 8.781 34.984 -0.736 ntor 12 -94.2208 101.5010 -155.4769 51.8967 -88.6022 144.8161 60.1987 155.5831 -116.4574 109.9717 159.8634 167.8936
State:	 11.437   4.562  16.731   0.152 -0.709  0.689 85.902    -94.22  101.50 -155.48   51.90  -88.60  144.82   60.20  155.58 -116.46  109.97  159.86  167.89

DOCKED: MODEL       72
DOCKED: USER    Run = 72
DOCKED: USER    DPF = D:/Protein_go_brrr/autodock/final/mut_K82N/heme_Co/dock.dpf
DOCKED: USER  
DOCKED: USER    Estimated Free Energy of Binding    =   -3.37 kcal/mol  [=(1)+(2)+(3)-(4)]
DOCKED: USER    Estimated Inhibition Constant, Ki   =    3.38 mM (millimolar)  [Temperature = 298.15 K]
DOCKED: USER    
DOCKED: USER    (1) Final Intermolecular Energy     =   -6.95 kcal/mol
DOCKED: USER        vdW + Hbond + desolv Energy     =   -6.99 kcal/mol
DOCKED: USER        Electrostatic Energy            =   +0.04 kcal/mol
DOCKED: USER    (2) Final Total Internal Energy     =   -3.20 kcal/mol
DOCKED: USER    (3) Torsional Free Energy           =   +3.58 kcal/mol
DOCKED: USER    (4) Unbound System's Energy  [=(2)] =   -3.20 kcal/mol
DOCKED: USER    
DOCKED: USER    
DOCKED: USER    NEWDPF move heme_Co_opt.pdbqt
DOCKED: USER    NEWDPF about 8.781000 34.984000 -0.736000
DOCKED: USER    NEWDPF tran0 11.437332 4.562385 16.730873
DOCKED: USER    NEWDPF quaternion0 0.103283 -0.482812 0.469564 0.731939
DOCKED: USER    NEWDPF axisangle0 0.151581 -0.708590 0.689147 85.901627
DOCKED: USER    NEWDPF quat0 0.151581 -0.708590 0.689147 85.901627
DOCKED: USER    NEWDPF dihe0 -94.22 101.50 -155.48 51.90 -88.60 144.82 60.20 155.58 -116.46 109.97 159.86 167.89 
DOCKED: USER  keepresnum = 1 
DOCKED: USER  
DOCKED: REMARK  12 active torsions:
DOCKED: REMARK  status: ('A' for Active; 'I' for Inactive)
DOCKED: REMARK    1  A    between atoms: C_6  and  C_10 
DOCKED: REMARK    2  A    between atoms: C_10  and  C_11 
DOCKED: REMARK    3  A    between atoms: C_11  and  C_12 
DOCKED: REMARK    4  A    between atoms: C_12  and  O_14 
DOCKED: REMARK    5  A    between atoms: C_17  and  C_20 
DOCKED: REMARK    6  A    between atoms: C_24  and  C_27 
DOCKED: REMARK    7  A    between atoms: C_31  and  C_34 
DOCKED: REMARK    8  A    between atoms: C_34  and  C_35 
DOCKED: REMARK    9  A    between atoms: C_35  and  C_36 
DOCKED: REMARK   10  A    between atoms: C_36  and  O_38 
DOCKED: REMARK   11  A    between atoms: FE_43  and  C_44 
DOCKED: REMARK   12  A    between atoms: C_44  and  O_45 
DOCKED: USER                              x       y       z     vdW  Elec       q    Type
DOCKED: USER                           _______ _______ _______ _____ _____    ______ ____
DOCKED: ROOT
DOCKED: ATOM      1  C   UNL d   1      10.868   6.611  17.174 -0.09 -0.00    +0.064 A 
DOCKED: ATOM      2  C   UNL d   1      12.424   3.061  19.928 -0.14 +0.02    +0.064 C 
DOCKED: ATOM      3  C   UNL d   1      12.325   0.074  16.200 -0.29 -0.01    +0.064 A 
DOCKED: ATOM      4  C   UNL d   1      11.107   3.774  13.285 -0.13 -0.01    +0.064 A 
DOCKED: ATOM      5  C   UNL d   1      11.265   5.851  18.208 -0.09 +0.00    +0.066 A 
DOCKED: ATOM      6  C   UNL d   1      11.489   6.392  19.489 -0.07 -0.00    -0.021 A 
DOCKED: ATOM      7  C   UNL d   1      11.962   5.362  20.279 -0.12 -0.01    -0.025 A 
DOCKED: ATOM      8  C   UNL d   1      11.991   4.235  19.450 -0.17 +0.01    +0.066 A 
DOCKED: ATOM      9  C   UNL d   1      12.375   5.421  21.757 -0.07 +0.03    +0.051 C 
DOCKED: ATOM     10  C   UNL d   1      12.465   1.842  19.159 -0.21 +0.01    +0.066 A 
DOCKED: ATOM     11  C   UNL d   1      12.774   0.551  19.639 -0.21 -0.00    -0.021 A 
DOCKED: ATOM     12  C   UNL d   1      12.734  -0.301  18.532 -0.28 +0.00    +0.000 A 
DOCKED: ATOM     13  C   UNL d   1      12.392   0.528  17.464 -0.27 -0.01    +0.070 A 
DOCKED: ATOM     14  C   UNL d   1      12.994   0.164  21.079 -0.18 +0.01    +0.052 C 
DOCKED: ATOM     15  C   UNL d   1      12.040   0.798  14.976 -0.26 -0.02    +0.066 A 
DOCKED: ATOM     16  C   UNL d   1      12.130   0.298  13.685 -0.30 +0.01    -0.021 A 
DOCKED: ATOM     17  C   UNL d   1      11.781   1.363  12.840 -0.32 -0.00    +0.000 A 
DOCKED: ATOM     18  C   UNL d   1      11.489   2.426  13.688 -0.22 -0.01    +0.070 A 
DOCKED: ATOM     19  C   UNL d   1      12.528  -1.113  13.316 -0.47 -0.02    +0.052 C 
DOCKED: ATOM     20  C   UNL d   1      10.902   4.847  14.087 -0.18 -0.01    +0.066 A 
DOCKED: ATOM     21  C   UNL d   1      10.573   6.102  13.579 -0.26 +0.00    -0.025 A 
DOCKED: ATOM     22  C   UNL d   1      10.469   6.933  14.679 -0.22 +0.00    -0.021 A 
DOCKED: ATOM     23  C   UNL d   1      10.754   6.141  15.812 -0.16 -0.00    +0.066 A 
DOCKED: ATOM     24  C   UNL d   1      10.386   6.495  12.117 -0.30 -0.00    +0.051 C 
DOCKED: ATOM     25  N   UNL d   1      11.560   4.507  18.164 -0.11 -0.02    -0.248 N 
DOCKED: ATOM     26  N   UNL d   1      12.175   1.813  17.854 -0.17 +0.01    -0.248 N 
DOCKED: ATOM     27  N   UNL d   1      11.683   2.063  14.951 -0.16 +0.04    -0.248 N 
DOCKED: ATOM     28  N   UNL d   1      11.019   4.877  15.457 -0.13 +0.02    -0.248 N 
DOCKED: ATOM     29 FE   UNL d   1      11.624   3.215  16.460 -0.05 -0.00    +0.000 Fe
DOCKED: ENDROOT
DOCKED: BRANCH   6  30
DOCKED: ATOM     30  C   UNL d   1      11.329   7.851  19.901 -0.02 +0.00    +0.052 C 
DOCKED: BRANCH  30  31
DOCKED: ATOM     31  C   UNL d   1      12.676   8.441  20.319 -0.01 +0.01    +0.115 C 
DOCKED: BRANCH  31  32
DOCKED: ATOM     32  C   UNL d   1      13.685   8.432  19.191 -0.00 +0.01    +0.139 C 
DOCKED: ATOM     33  O   UNL d   1      14.140   7.368  18.801 +0.01 -0.03    -0.650 OA
DOCKED: BRANCH  32  34
DOCKED: ATOM     34  O   UNL d   1      14.069   9.568  18.563 +0.00 -0.01    -0.776 OA
DOCKED: ATOM     35  H   UNL d   1      13.708   9.870  17.718 +0.00 +0.00    +0.167 HD
DOCKED: ENDBRANCH  32  34
DOCKED: ENDBRANCH  31  32
DOCKED: ENDBRANCH  30  31
DOCKED: ENDBRANCH   6  30
DOCKED: BRANCH  29  36
DOCKED: ATOM     36  C   UNL d   1      13.629   3.786  16.244 -0.03 -0.00    +0.190 C 
DOCKED: BRANCH  36  37
DOCKED: ATOM     37  O   UNL d   1      14.587   4.691  16.712 +0.00 -0.00    -0.399 OA
DOCKED: ATOM     38  H   UNL d   1      14.069   5.365  17.235 +0.01 +0.00    +0.209 HD
DOCKED: ENDBRANCH  36  37
DOCKED: ENDBRANCH  29  36
DOCKED: BRANCH  22  39
DOCKED: ATOM     39  C   UNL d   1      10.176   8.421  14.633 -0.13 +0.00    +0.052 C 
DOCKED: BRANCH  39  40
DOCKED: ATOM     40  C   UNL d   1      11.482   9.229  14.554 -0.07 +0.00    +0.115 C 
DOCKED: BRANCH  40  41
DOCKED: ATOM     41  C   UNL d   1      12.242   9.317  15.861 -0.02 -0.00    +0.139 C 
DOCKED: ATOM     42  O   UNL d   1      11.750   9.930  16.799 +0.02 +0.01    -0.650 OA
DOCKED: BRANCH  41  43
DOCKED: ATOM     43  O   UNL d   1      13.410   8.665  16.049 +0.02 +0.01    -0.776 OA
DOCKED: ATOM     44  H   UNL d   1      13.688   8.337  16.915 +0.00 +0.00    +0.167 HD
DOCKED: ENDBRANCH  41  43
DOCKED: ENDBRANCH  40  41
DOCKED: ENDBRANCH  39  40
DOCKED: ENDBRANCH  22  39
DOCKED: BRANCH  12  45
DOCKED: ATOM     45  C   UNL d   1      12.960  -1.798  18.365 -0.35 +0.00    +0.004 C 
DOCKED: ATOM     46  C   UNL d   1      12.543  -2.824  19.102 -0.28 +0.00    +0.012 C 
DOCKED: ENDBRANCH  12  45
DOCKED: BRANCH  17  47
DOCKED: ATOM     47  C   UNL d   1      11.763   1.430  11.349 -0.29 -0.00    +0.004 C 
DOCKED: ATOM     48  C   UNL d   1      12.628   2.151  10.632 -0.24 -0.00    +0.012 C 
DOCKED: ENDBRANCH  17  47
DOCKED: TORSDOF 12
DOCKED: TER
DOCKED: ENDMDL
________________________________________________________________________________


	BEGINNING GENETIC ALGORITHM DOCKING 73 of 100
Run: 73 Seed: 43234383 747061541 [ Run 73 of 100 GA/GALS ]
Beginning LAMARCKIAN GENETIC ALGORITHM (LGA), with a maximum of 25000000 energy evaluations.

Final-Value: -10.108


	FINAL GENETIC ALGORITHM DOCKED STATE
	_______________________________________________


Detailed state:  trans 11.057 4.903 13.181 quatxyzw -0.122995 0.284891 -0.380521 -0.871157 center 8.781 34.984 -0.736 ntor 12 133.4456 99.9905 38.0719 28.1110 153.2905 128.1136 -85.8352 128.9052 -82.1889 26.1279 179.9574 175.4150
State:	 11.057   4.903  13.181  -0.250  0.580 -0.775 -58.813    133.45   99.99   38.07   28.11  153.29  128.11  -85.84  128.91  -82.19   26.13  179.96  175.41

DOCKED: MODEL       73
DOCKED: USER    Run = 73
DOCKED: USER    DPF = D:/Protein_go_brrr/autodock/final/mut_K82N/heme_Co/dock.dpf
DOCKED: USER  
DOCKED: USER    Estimated Free Energy of Binding    =   -4.40 kcal/mol  [=(1)+(2)+(3)-(4)]
DOCKED: USER    Estimated Inhibition Constant, Ki   =  594.13 uM (micromolar)  [Temperature = 298.15 K]
DOCKED: USER    
DOCKED: USER    (1) Final Intermolecular Energy     =   -7.98 kcal/mol
DOCKED: USER        vdW + Hbond + desolv Energy     =   -7.51 kcal/mol
DOCKED: USER        Electrostatic Energy            =   -0.47 kcal/mol
DOCKED: USER    (2) Final Total Internal Energy     =   -2.13 kcal/mol
DOCKED: USER    (3) Torsional Free Energy           =   +3.58 kcal/mol
DOCKED: USER    (4) Unbound System's Energy  [=(2)] =   -2.13 kcal/mol
DOCKED: USER    
DOCKED: USER    
DOCKED: USER    NEWDPF move heme_Co_opt.pdbqt
DOCKED: USER    NEWDPF about 8.781000 34.984000 -0.736000
DOCKED: USER    NEWDPF tran0 11.057487 4.903218 13.180517
DOCKED: USER    NEWDPF quaternion0 -0.122995 0.284891 -0.380521 -0.871157
DOCKED: USER    NEWDPF axisangle0 -0.250496 0.580219 -0.774982 -58.813372
DOCKED: USER    NEWDPF quat0 -0.250496 0.580219 -0.774982 -58.813372
DOCKED: USER    NEWDPF dihe0 133.45 99.99 38.07 28.11 153.29 128.11 -85.84 128.91 -82.19 26.13 179.96 175.41 
DOCKED: USER  keepresnum = 1 
DOCKED: USER  
DOCKED: REMARK  12 active torsions:
DOCKED: REMARK  status: ('A' for Active; 'I' for Inactive)
DOCKED: REMARK    1  A    between atoms: C_6  and  C_10 
DOCKED: REMARK    2  A    between atoms: C_10  and  C_11 
DOCKED: REMARK    3  A    between atoms: C_11  and  C_12 
DOCKED: REMARK    4  A    between atoms: C_12  and  O_14 
DOCKED: REMARK    5  A    between atoms: C_17  and  C_20 
DOCKED: REMARK    6  A    between atoms: C_24  and  C_27 
DOCKED: REMARK    7  A    between atoms: C_31  and  C_34 
DOCKED: REMARK    8  A    between atoms: C_34  and  C_35 
DOCKED: REMARK    9  A    between atoms: C_35  and  C_36 
DOCKED: REMARK   10  A    between atoms: C_36  and  O_38 
DOCKED: REMARK   11  A    between atoms: FE_43  and  C_44 
DOCKED: REMARK   12  A    between atoms: C_44  and  O_45 
DOCKED: USER                              x       y       z     vdW  Elec       q    Type
DOCKED: USER                           _______ _______ _______ _____ _____    ______ ____
DOCKED: ROOT
DOCKED: ATOM      1  C   UNL d   1       9.791   6.663  13.058 -0.09 -0.00    +0.064 A 
DOCKED: ATOM      2  C   UNL d   1      11.108   3.922  16.714 -0.21 -0.00    +0.064 C 
DOCKED: ATOM      3  C   UNL d   1      13.346   0.943  13.723 -0.15 -0.01    +0.064 A 
DOCKED: ATOM      4  C   UNL d   1      12.343   3.931  10.017 -0.14 -0.00    +0.064 A 
DOCKED: ATOM      5  C   UNL d   1       9.956   6.113  14.273 -0.21 -0.01    +0.066 A 
DOCKED: ATOM      6  C   UNL d   1       9.494   6.741  15.446 -0.29 +0.00    -0.021 A 
DOCKED: ATOM      7  C   UNL d   1       9.898   5.953  16.505 -0.19 +0.00    -0.025 A 
DOCKED: ATOM      8  C   UNL d   1      10.575   4.870  15.933 -0.21 -0.01    +0.066 A 
DOCKED: ATOM      9  C   UNL d   1       9.665   6.196  18.004 -0.15 +0.00    +0.051 C 
DOCKED: ATOM     10  C   UNL d   1      11.798   2.759  16.214 -0.20 -0.01    +0.066 A 
DOCKED: ATOM     11  C   UNL d   1      12.257   1.659  16.972 -0.23 +0.00    -0.021 A 
DOCKED: ATOM     12  C   UNL d   1      12.902   0.804  16.074 -0.21 -0.00    +0.000 A 
DOCKED: ATOM     13  C   UNL d   1      12.779   1.437  14.837 -0.16 -0.01    +0.070 A 
DOCKED: ATOM     14  C   UNL d   1      12.000   1.417  18.437 -0.24 +0.00    +0.052 C 
DOCKED: ATOM     15  C   UNL d   1      13.364   1.490  12.380 -0.14 -0.01    +0.066 A 
DOCKED: ATOM     16  C   UNL d   1      14.092   1.003  11.303 -0.13 +0.00    -0.021 A 
DOCKED: ATOM     17  C   UNL d   1      13.808   1.863  10.233 -0.14 -0.00    +0.000 A 
DOCKED: ATOM     18  C   UNL d   1      12.912   2.800  10.739 -0.12 -0.00    +0.070 A 
DOCKED: ATOM     19  C   UNL d   1      14.994  -0.210  11.331 -0.09 -0.01    +0.052 C 
DOCKED: ATOM     20  C   UNL d   1      11.540   4.904  10.511 -0.18 -0.00    +0.066 A 
DOCKED: ATOM     21  C   UNL d   1      11.085   5.962   9.727 -0.24 -0.00    -0.025 A 
DOCKED: ATOM     22  C   UNL d   1      10.323   6.750  10.570 -0.29 +0.00    -0.021 A 
DOCKED: ATOM     23  C   UNL d   1      10.361   6.135  11.839 -0.26 -0.00    +0.066 A 
DOCKED: ATOM     24  C   UNL d   1      11.378   6.221   8.252 -0.12 +0.00    +0.051 C 
DOCKED: ATOM     25  N   UNL d   1      10.621   4.941  14.551 -0.17 +0.04    -0.248 N 
DOCKED: ATOM     26  N   UNL d   1      12.063   2.591  14.914 -0.10 +0.03    -0.248 N 
DOCKED: ATOM     27  N   UNL d   1      12.695   2.565  12.028 -0.08 +0.02    -0.248 N 
DOCKED: ATOM     28  N   UNL d   1      11.098   5.019  11.809 -0.14 +0.01    -0.248 N 
DOCKED: ATOM     29 FE   UNL d   1      11.718   3.684  13.212 -0.04 -0.00    +0.000 Fe
DOCKED: ENDROOT
DOCKED: BRANCH   6  30
DOCKED: ATOM     30  C   UNL d   1       8.769   8.080  15.536 -0.18 -0.01    +0.052 C 
DOCKED: BRANCH  30  31
DOCKED: ATOM     31  C   UNL d   1       9.756   9.205  15.845 -0.13 -0.00    +0.115 C 
DOCKED: BRANCH  31  32
DOCKED: ATOM     32  C   UNL d   1      10.219   9.925  14.597 +0.02 +0.01    +0.139 C 
DOCKED: ATOM     33  O   UNL d   1      10.430  11.128  14.640 -0.03 +0.00    -0.650 OA
DOCKED: BRANCH  32  34
DOCKED: ATOM     34  O   UNL d   1      10.455   9.270  13.436 -0.47 -0.09    -0.776 OA
DOCKED: ATOM     35  H   UNL d   1      10.089   9.531  12.580 +0.03 +0.03    +0.167 HD
DOCKED: ENDBRANCH  32  34
DOCKED: ENDBRANCH  31  32
DOCKED: ENDBRANCH  30  31
DOCKED: ENDBRANCH   6  30
DOCKED: BRANCH  29  36
DOCKED: ATOM     36  C   UNL d   1      13.388   4.876  13.641 -0.02 -0.01    +0.190 C 
DOCKED: BRANCH  36  37
DOCKED: ATOM     37  O   UNL d   1      13.766   6.160  14.046 +0.00 +0.01    -0.399 OA
DOCKED: ATOM     38  H   UNL d   1      12.941   6.713  13.950 +0.03 -0.00    +0.209 HD
DOCKED: ENDBRANCH  36  37
DOCKED: ENDBRANCH  29  36
DOCKED: BRANCH  22  39
DOCKED: ATOM     39  C   UNL d   1       9.652   8.056  10.186 -0.30 +0.01    +0.052 C 
DOCKED: BRANCH  39  40
DOCKED: ATOM     40  C   UNL d   1      10.648   9.224  10.275 -0.14 +0.02    +0.115 C 
DOCKED: BRANCH  40  41
DOCKED: ATOM     41  C   UNL d   1      10.001  10.588  10.396 -0.16 +0.04    +0.139 C 
DOCKED: ATOM     42  O   UNL d   1       9.787  11.240   9.384 -0.47 -0.42    -0.650 OA
DOCKED: BRANCH  41  43
DOCKED: ATOM     43  O   UNL d   1       9.575  11.069  11.584 +0.02 -0.10    -0.776 OA
DOCKED: ATOM     44  H   UNL d   1      10.102  11.002  12.391 +0.02 +0.01    +0.167 HD
DOCKED: ENDBRANCH  41  43
DOCKED: ENDBRANCH  40  41
DOCKED: ENDBRANCH  39  40
DOCKED: ENDBRANCH  22  39
DOCKED: BRANCH  12  45
DOCKED: ATOM     45  C   UNL d   1      13.600  -0.539  16.239 -0.28 -0.00    +0.004 C 
DOCKED: ATOM     46  C   UNL d   1      13.509  -1.449  17.205 -0.27 +0.00    +0.012 C 
DOCKED: ENDBRANCH  12  45
DOCKED: BRANCH  17  47
DOCKED: ATOM     47  C   UNL d   1      14.354   1.869   8.843 -0.12 +0.00    +0.004 C 
DOCKED: ATOM     48  C   UNL d   1      13.590   1.958   7.751 -0.15 +0.00    +0.012 C 
DOCKED: ENDBRANCH  17  47
DOCKED: TORSDOF 12
DOCKED: TER
DOCKED: ENDMDL
________________________________________________________________________________


	BEGINNING GENETIC ALGORITHM DOCKING 74 of 100
Run: 74 Seed: 136728071 1603719057 [ Run 74 of 100 GA/GALS ]
Beginning LAMARCKIAN GENETIC ALGORITHM (LGA), with a maximum of 25000000 energy evaluations.

Final-Value: -9.945


	FINAL GENETIC ALGORITHM DOCKED STATE
	_______________________________________________


Detailed state:  trans -12.471 10.078 -1.252 quatxyzw 0.287772 0.378388 -0.617214 0.626942 center 8.781 34.984 -0.736 ntor 12 18.3081 81.9131 175.5171 116.6533 63.4416 154.3981 22.1619 159.3909 -173.9317 99.7471 175.2369 167.7441
State:	-12.471  10.078  -1.252   0.369  0.486 -0.792 102.350     18.31   81.91  175.52  116.65   63.44  154.40   22.16  159.39 -173.93   99.75  175.24  167.74

DOCKED: MODEL       74
DOCKED: USER    Run = 74
DOCKED: USER    DPF = D:/Protein_go_brrr/autodock/final/mut_K82N/heme_Co/dock.dpf
DOCKED: USER  
DOCKED: USER    Estimated Free Energy of Binding    =   -3.64 kcal/mol  [=(1)+(2)+(3)-(4)]
DOCKED: USER    Estimated Inhibition Constant, Ki   =    2.15 mM (millimolar)  [Temperature = 298.15 K]
DOCKED: USER    
DOCKED: USER    (1) Final Intermolecular Energy     =   -7.22 kcal/mol
DOCKED: USER        vdW + Hbond + desolv Energy     =   -5.80 kcal/mol
DOCKED: USER        Electrostatic Energy            =   -1.42 kcal/mol
DOCKED: USER    (2) Final Total Internal Energy     =   -2.73 kcal/mol
DOCKED: USER    (3) Torsional Free Energy           =   +3.58 kcal/mol
DOCKED: USER    (4) Unbound System's Energy  [=(2)] =   -2.73 kcal/mol
DOCKED: USER    
DOCKED: USER    
DOCKED: USER    NEWDPF move heme_Co_opt.pdbqt
DOCKED: USER    NEWDPF about 8.781000 34.984000 -0.736000
DOCKED: USER    NEWDPF tran0 -12.470596 10.078102 -1.252059
DOCKED: USER    NEWDPF quaternion0 0.287772 0.378388 -0.617214 0.626942
DOCKED: USER    NEWDPF axisangle0 0.369381 0.485695 -0.792249 102.350203
DOCKED: USER    NEWDPF quat0 0.369381 0.485695 -0.792249 102.350203
DOCKED: USER    NEWDPF dihe0 18.31 81.91 175.52 116.65 63.44 154.40 22.16 159.39 -173.93 99.75 175.24 167.74 
DOCKED: USER  keepresnum = 1 
DOCKED: USER  
DOCKED: REMARK  12 active torsions:
DOCKED: REMARK  status: ('A' for Active; 'I' for Inactive)
DOCKED: REMARK    1  A    between atoms: C_6  and  C_10 
DOCKED: REMARK    2  A    between atoms: C_10  and  C_11 
DOCKED: REMARK    3  A    between atoms: C_11  and  C_12 
DOCKED: REMARK    4  A    between atoms: C_12  and  O_14 
DOCKED: REMARK    5  A    between atoms: C_17  and  C_20 
DOCKED: REMARK    6  A    between atoms: C_24  and  C_27 
DOCKED: REMARK    7  A    between atoms: C_31  and  C_34 
DOCKED: REMARK    8  A    between atoms: C_34  and  C_35 
DOCKED: REMARK    9  A    between atoms: C_35  and  C_36 
DOCKED: REMARK   10  A    between atoms: C_36  and  O_38 
DOCKED: REMARK   11  A    between atoms: FE_43  and  C_44 
DOCKED: REMARK   12  A    between atoms: C_44  and  O_45 
DOCKED: USER                              x       y       z     vdW  Elec       q    Type
DOCKED: USER                           _______ _______ _______ _____ _____    ______ ____
DOCKED: ROOT
DOCKED: ATOM      1  C   UNL d   1     -11.949   8.286  -2.362 -0.25 +0.02    +0.064 A 
DOCKED: ATOM      2  C   UNL d   1     -13.630   8.945   2.038 -0.17 +0.02    +0.064 C 
DOCKED: ATOM      3  C   UNL d   1     -13.279  13.680   1.503 -0.11 +0.01    +0.064 A 
DOCKED: ATOM      4  C   UNL d   1     -11.928  13.043  -3.127 -0.23 +0.02    +0.064 A 
DOCKED: ATOM      5  C   UNL d   1     -12.400   8.117  -1.108 -0.22 +0.01    +0.066 A 
DOCKED: ATOM      6  C   UNL d   1     -12.705   6.844  -0.588 -0.25 -0.00    -0.021 A 
DOCKED: ATOM      7  C   UNL d   1     -13.213   7.043   0.681 -0.21 -0.00    -0.025 A 
DOCKED: ATOM      8  C   UNL d   1     -13.182   8.426   0.887 -0.18 +0.01    +0.066 A 
DOCKED: ATOM      9  C   UNL d   1     -13.715   5.981   1.672 -0.18 +0.01    +0.051 C 
DOCKED: ATOM     10  C   UNL d   1     -13.612  10.352   2.350 -0.10 +0.01    +0.066 A 
DOCKED: ATOM     11  C   UNL d   1     -13.936  10.945   3.589 -0.07 -0.00    -0.021 A 
DOCKED: ATOM     12  C   UNL d   1     -13.822  12.326   3.406 -0.06 +0.00    +0.000 A 
DOCKED: ATOM     13  C   UNL d   1     -13.426  12.472   2.076 -0.09 +0.01    +0.070 A 
DOCKED: ATOM     14  C   UNL d   1     -14.238  10.219   4.874 -0.10 +0.02    +0.052 C 
DOCKED: ATOM     15  C   UNL d   1     -12.929  14.012   0.136 -0.17 +0.01    +0.066 A 
DOCKED: ATOM     16  C   UNL d   1     -12.936  15.279  -0.431 -0.19 -0.00    -0.021 A 
DOCKED: ATOM     17  C   UNL d   1     -12.550  15.100  -1.767 -0.24 +0.00    +0.000 A 
DOCKED: ATOM     18  C   UNL d   1     -12.320  13.736  -1.905 -0.23 +0.01    +0.070 A 
DOCKED: ATOM     19  C   UNL d   1     -13.298  16.559   0.289 -0.14 +0.01    +0.052 C 
DOCKED: ATOM     20  C   UNL d   1     -11.782  11.709  -3.307 -0.21 +0.02    +0.066 A 
DOCKED: ATOM     21  C   UNL d   1     -11.436  11.159  -4.540 -0.19 -0.01    -0.025 A 
DOCKED: ATOM     22  C   UNL d   1     -11.406   9.791  -4.343 -0.19 -0.01    -0.021 A 
DOCKED: ATOM     23  C   UNL d   1     -11.750   9.571  -2.992 -0.20 +0.02    +0.066 A 
DOCKED: ATOM     24  C   UNL d   1     -11.166  11.899  -5.847 -0.22 +0.02    +0.051 C 
DOCKED: ATOM     25  N   UNL d   1     -12.677   9.116  -0.202 -0.06 -0.04    -0.248 N 
DOCKED: ATOM     26  N   UNL d   1     -13.245  11.276   1.455 -0.05 -0.04    -0.248 N 
DOCKED: ATOM     27  N   UNL d   1     -12.585  13.115  -0.761 -0.07 -0.04    -0.248 N 
DOCKED: ATOM     28  N   UNL d   1     -11.981  10.730  -2.362 +0.01 -0.05    -0.248 N 
DOCKED: ATOM     29 FE   UNL d   1     -12.627  11.234  -0.501 -0.05 +0.00    +0.000 Fe
DOCKED: ENDROOT
DOCKED: BRANCH   6  30
DOCKED: ATOM     30  C   UNL d   1     -12.585   5.511  -1.319 -0.10 +0.02    +0.052 C 
DOCKED: BRANCH  30  31
DOCKED: ATOM     31  C   UNL d   1     -13.953   5.049  -1.821 -0.14 +0.04    +0.115 C 
DOCKED: BRANCH  31  32
DOCKED: ATOM     32  C   UNL d   1     -15.040   6.069  -1.556 -0.05 +0.03    +0.139 C 
DOCKED: ATOM     33  O   UNL d   1     -15.870   5.850  -0.687 +0.02 -0.10    -0.650 OA
DOCKED: BRANCH  32  34
DOCKED: ATOM     34  O   UNL d   1     -15.096   7.246  -2.221 +0.04 -0.17    -0.776 OA
DOCKED: ATOM     35  H   UNL d   1     -14.594   7.441  -3.025 +0.02 +0.05    +0.167 HD
DOCKED: ENDBRANCH  32  34
DOCKED: ENDBRANCH  31  32
DOCKED: ENDBRANCH  30  31
DOCKED: ENDBRANCH   6  30
DOCKED: BRANCH  29  36
DOCKED: ATOM     36  C   UNL d   1     -14.622  11.080  -1.127 -0.04 +0.02    +0.190 C 
DOCKED: BRANCH  36  37
DOCKED: ATOM     37  O   UNL d   1     -15.657  10.162  -1.332 -0.00 -0.05    -0.399 OA
DOCKED: ATOM     38  H   UNL d   1     -15.201   9.315  -1.595 +0.02 +0.03    +0.209 HD
DOCKED: ENDBRANCH  36  37
DOCKED: ENDBRANCH  29  36
DOCKED: BRANCH  22  39
DOCKED: ATOM     39  C   UNL d   1     -11.127   8.753  -5.414 -0.20 +0.02    +0.052 C 
DOCKED: BRANCH  39  40
DOCKED: ATOM     40  C   UNL d   1     -12.434   8.297  -6.082 -0.07 +0.06    +0.115 C 
DOCKED: BRANCH  40  41
DOCKED: ATOM     41  C   UNL d   1     -13.146   7.172  -5.359 -0.09 +0.11    +0.139 C 
DOCKED: ATOM     42  O   UNL d   1     -12.590   6.089  -5.242 -0.37 -1.24    -0.650 OA
DOCKED: BRANCH  41  43
DOCKED: ATOM     43  O   UNL d   1     -14.344   7.358  -4.762 +0.02 -0.34    -0.776 OA
DOCKED: ATOM     44  H   UNL d   1     -14.796   6.657  -4.275 +0.02 +0.07    +0.167 HD
DOCKED: ENDBRANCH  41  43
DOCKED: ENDBRANCH  40  41
DOCKED: ENDBRANCH  39  40
DOCKED: ENDBRANCH  22  39
DOCKED: BRANCH  12  45
DOCKED: ATOM     45  C   UNL d   1     -14.022  13.517   4.334 -0.03 +0.00    +0.004 C 
DOCKED: ATOM     46  C   UNL d   1     -13.137  14.346   4.881 -0.04 +0.00    +0.012 C 
DOCKED: ENDBRANCH  12  45
DOCKED: BRANCH  17  47
DOCKED: ATOM     47  C   UNL d   1     -12.443  16.100  -2.871 -0.16 +0.00    +0.004 C 
DOCKED: ATOM     48  C   UNL d   1     -11.928  17.322  -2.711 -0.24 +0.01    +0.012 C 
DOCKED: ENDBRANCH  17  47
DOCKED: TORSDOF 12
DOCKED: TER
DOCKED: ENDMDL
________________________________________________________________________________


	BEGINNING GENETIC ALGORITHM DOCKING 75 of 100
Run: 75 Seed: 189252932 760188414 [ Run 75 of 100 GA/GALS ]
Beginning LAMARCKIAN GENETIC ALGORITHM (LGA), with a maximum of 25000000 energy evaluations.

Final-Value: -10.023


	FINAL GENETIC ALGORITHM DOCKED STATE
	_______________________________________________


Detailed state:  trans -9.473 10.958 -11.227 quatxyzw -0.936348 -0.142245 0.315156 -0.060786 center 8.781 34.984 -0.736 ntor 12 -151.6668 106.7134 -29.7873 120.9666 -69.9748 132.0659 14.4392 178.5648 -75.1081 28.3536 -179.9941 169.0913
State:	 -9.473  10.958 -11.227  -0.938 -0.143  0.316 -173.030   -151.67  106.71  -29.79  120.97  -69.97  132.07   14.44  178.56  -75.11   28.35 -179.99  169.09

DOCKED: MODEL       75
DOCKED: USER    Run = 75
DOCKED: USER    DPF = D:/Protein_go_brrr/autodock/final/mut_K82N/heme_Co/dock.dpf
DOCKED: USER  
DOCKED: USER    Estimated Free Energy of Binding    =   -4.07 kcal/mol  [=(1)+(2)+(3)-(4)]
DOCKED: USER    Estimated Inhibition Constant, Ki   =    1.04 mM (millimolar)  [Temperature = 298.15 K]
DOCKED: USER    
DOCKED: USER    (1) Final Intermolecular Energy     =   -7.65 kcal/mol
DOCKED: USER        vdW + Hbond + desolv Energy     =   -5.25 kcal/mol
DOCKED: USER        Electrostatic Energy            =   -2.40 kcal/mol
DOCKED: USER    (2) Final Total Internal Energy     =   -2.37 kcal/mol
DOCKED: USER    (3) Torsional Free Energy           =   +3.58 kcal/mol
DOCKED: USER    (4) Unbound System's Energy  [=(2)] =   -2.37 kcal/mol
DOCKED: USER    
DOCKED: USER    
DOCKED: USER    NEWDPF move heme_Co_opt.pdbqt
DOCKED: USER    NEWDPF about 8.781000 34.984000 -0.736000
DOCKED: USER    NEWDPF tran0 -9.472764 10.957513 -11.227220
DOCKED: USER    NEWDPF quaternion0 -0.936348 -0.142245 0.315156 -0.060786
DOCKED: USER    NEWDPF axisangle0 -0.938083 -0.142509 0.315740 -173.030129
DOCKED: USER    NEWDPF quat0 -0.938083 -0.142509 0.315740 -173.030129
DOCKED: USER    NEWDPF dihe0 -151.67 106.71 -29.79 120.97 -69.97 132.07 14.44 178.56 -75.11 28.35 -179.99 169.09 
DOCKED: USER  keepresnum = 1 
DOCKED: USER  
DOCKED: REMARK  12 active torsions:
DOCKED: REMARK  status: ('A' for Active; 'I' for Inactive)
DOCKED: REMARK    1  A    between atoms: C_6  and  C_10 
DOCKED: REMARK    2  A    between atoms: C_10  and  C_11 
DOCKED: REMARK    3  A    between atoms: C_11  and  C_12 
DOCKED: REMARK    4  A    between atoms: C_12  and  O_14 
DOCKED: REMARK    5  A    between atoms: C_17  and  C_20 
DOCKED: REMARK    6  A    between atoms: C_24  and  C_27 
DOCKED: REMARK    7  A    between atoms: C_31  and  C_34 
DOCKED: REMARK    8  A    between atoms: C_34  and  C_35 
DOCKED: REMARK    9  A    between atoms: C_35  and  C_36 
DOCKED: REMARK   10  A    between atoms: C_36  and  O_38 
DOCKED: REMARK   11  A    between atoms: FE_43  and  C_44 
DOCKED: REMARK   12  A    between atoms: C_44  and  O_45 
DOCKED: USER                              x       y       z     vdW  Elec       q    Type
DOCKED: USER                           _______ _______ _______ _____ _____    ______ ____
DOCKED: ROOT
DOCKED: ATOM      1  C   UNL d   1     -10.315   9.872  -9.545 -0.06 +0.01    +0.064 A 
DOCKED: ATOM      2  C   UNL d   1     -12.233  12.879 -12.691 -0.02 +0.01    +0.064 C 
DOCKED: ATOM      3  C   UNL d   1      -7.926  13.696 -14.592 -0.10 -0.00    +0.064 A 
DOCKED: ATOM      4  C   UNL d   1      -6.002  10.339 -11.643 -0.28 -0.01    +0.064 A 
DOCKED: ATOM      5  C   UNL d   1     -11.150  10.661 -10.242 -0.04 +0.01    +0.066 A 
DOCKED: ATOM      6  C   UNL d   1     -12.542  10.652 -10.025 -0.01 -0.00    -0.021 A 
DOCKED: ATOM      7  C   UNL d   1     -13.095  11.509 -10.955 -0.01 -0.00    -0.025 A 
DOCKED: ATOM      8  C   UNL d   1     -12.017  12.017 -11.689 -0.03 +0.01    +0.066 A 
DOCKED: ATOM      9  C   UNL d   1     -14.580  11.847 -11.159 +0.00 +0.01    +0.051 C 
DOCKED: ATOM     10  C   UNL d   1     -11.185  13.473 -13.483 -0.04 +0.01    +0.066 A 
DOCKED: ATOM     11  C   UNL d   1     -11.334  14.489 -14.453 -0.02 -0.00    -0.021 A 
DOCKED: ATOM     12  C   UNL d   1     -10.062  14.710 -14.989 -0.04 +0.00    +0.000 A 
DOCKED: ATOM     13  C   UNL d   1      -9.232  13.826 -14.299 -0.06 +0.01    +0.070 A 
DOCKED: ATOM     14  C   UNL d   1     -12.598  15.249 -14.762 -0.01 +0.00    +0.052 C 
DOCKED: ATOM     15  C   UNL d   1      -6.940  12.801 -14.020 -0.15 -0.00    +0.066 A 
DOCKED: ATOM     16  C   UNL d   1      -5.639  12.614 -14.468 -0.25 +0.01    -0.021 A 
DOCKED: ATOM     17  C   UNL d   1      -5.081  11.645 -13.622 -0.36 -0.00    +0.000 A 
DOCKED: ATOM     18  C   UNL d   1      -6.083  11.328 -12.711 -0.29 -0.01    +0.070 A 
DOCKED: ATOM     19  C   UNL d   1      -5.003  13.334 -15.636 -0.18 -0.04    +0.052 C 
DOCKED: ATOM     20  C   UNL d   1      -6.990   9.952 -10.801 -0.25 -0.00    +0.066 A 
DOCKED: ATOM     21  C   UNL d   1      -6.800   8.964  -9.838 -0.29 +0.00    -0.025 A 
DOCKED: ATOM     22  C   UNL d   1      -8.019   8.828  -9.198 -0.21 -0.00    -0.021 A 
DOCKED: ATOM     23  C   UNL d   1      -8.901   9.739  -9.816 -0.13 +0.01    +0.066 A 
DOCKED: ATOM     24  C   UNL d   1      -5.526   8.173  -9.553 -0.42 -0.00    +0.051 C 
DOCKED: ATOM     25  N   UNL d   1     -10.800  11.513 -11.264 -0.05 -0.06    -0.248 N 
DOCKED: ATOM     26  N   UNL d   1      -9.902  13.119 -13.350 -0.04 -0.04    -0.248 N 
DOCKED: ATOM     27  N   UNL d   1      -7.185  12.013 -12.997 -0.13 -0.01    -0.248 N 
DOCKED: ATOM     28  N   UNL d   1      -8.283  10.420 -10.789 -0.09 -0.05    -0.248 N 
DOCKED: ATOM     29 FE   UNL d   1      -8.884  11.776 -12.179 -0.04 +0.00    +0.000 Fe
DOCKED: ENDROOT
DOCKED: BRANCH   6  30
DOCKED: ATOM     30  C   UNL d   1     -13.300   9.792  -9.020 +0.00 +0.01    +0.052 C 
DOCKED: BRANCH  30  31
DOCKED: ATOM     31  C   UNL d   1     -13.835   8.527  -9.691 +0.01 +0.02    +0.115 C 
DOCKED: BRANCH  31  32
DOCKED: ATOM     32  C   UNL d   1     -13.008   7.304  -9.360 -0.00 +0.05    +0.139 C 
DOCKED: ATOM     33  O   UNL d   1     -12.394   6.734 -10.250 +0.02 -0.21    -0.650 OA
DOCKED: BRANCH  32  34
DOCKED: ATOM     34  O   UNL d   1     -12.885   6.842  -8.094 +0.01 -0.49    -0.776 OA
DOCKED: ATOM     35  H   UNL d   1     -12.144   6.306  -7.780 +0.02 +0.17    +0.167 HD
DOCKED: ENDBRANCH  32  34
DOCKED: ENDBRANCH  31  32
DOCKED: ENDBRANCH  30  31
DOCKED: ENDBRANCH   6  30
DOCKED: BRANCH  29  36
DOCKED: ATOM     36  C   UNL d   1      -9.422  10.229 -13.488 -0.03 +0.01    +0.190 C 
DOCKED: BRANCH  36  37
DOCKED: ATOM     37  O   UNL d   1     -10.269   9.124 -13.618 -0.00 -0.03    -0.399 OA
DOCKED: ATOM     38  H   UNL d   1     -10.705   9.028 -12.726 +0.02 +0.02    +0.209 HD
DOCKED: ENDBRANCH  36  37
DOCKED: ENDBRANCH  29  36
DOCKED: BRANCH  22  39
DOCKED: ATOM     39  C   UNL d   1      -8.329   7.830  -8.098 -0.16 +0.01    +0.052 C 
DOCKED: BRANCH  39  40
DOCKED: ATOM     40  C   UNL d   1      -8.836   6.506  -8.694 -0.17 +0.05    +0.115 C 
DOCKED: BRANCH  40  41
DOCKED: ATOM     41  C   UNL d   1      -9.663   5.669  -7.741 -0.07 +0.16    +0.139 C 
DOCKED: ATOM     42  O   UNL d   1      -9.293   5.540  -6.583 -0.54 -0.98    -0.650 OA
DOCKED: BRANCH  41  43
DOCKED: ATOM     43  O   UNL d   1     -10.845   5.129  -8.113 +0.08 -1.21    -0.776 OA
DOCKED: ATOM     44  H   UNL d   1     -11.377   5.491  -8.834 +0.02 +0.15    +0.167 HD
DOCKED: ENDBRANCH  41  43
DOCKED: ENDBRANCH  40  41
DOCKED: ENDBRANCH  39  40
DOCKED: ENDBRANCH  22  39
DOCKED: BRANCH  12  45
DOCKED: ATOM     45  C   UNL d   1      -9.535  15.663 -16.053 -0.03 -0.00    +0.004 C 
DOCKED: ATOM     46  C   UNL d   1      -8.716  16.707 -15.952 -0.04 -0.00    +0.012 C 
DOCKED: ENDBRANCH  12  45
DOCKED: BRANCH  17  47
DOCKED: ATOM     47  C   UNL d   1      -3.733  11.004 -13.665 -0.38 -0.00    +0.004 C 
DOCKED: ATOM     48  C   UNL d   1      -3.478   9.868 -14.320 -0.39 -0.00    +0.012 C 
DOCKED: ENDBRANCH  17  47
DOCKED: TORSDOF 12
DOCKED: TER
DOCKED: ENDMDL
________________________________________________________________________________


	BEGINNING GENETIC ALGORITHM DOCKING 76 of 100
Run: 76 Seed: 1467915302 1989201197 [ Run 76 of 100 GA/GALS ]
Beginning LAMARCKIAN GENETIC ALGORITHM (LGA), with a maximum of 25000000 energy evaluations.

Final-Value: -10.708


	FINAL GENETIC ALGORITHM DOCKED STATE
	_______________________________________________


Detailed state:  trans -12.384 10.454 -1.466 quatxyzw 0.270244 0.420112 -0.582804 0.640947 center 8.781 34.984 -0.736 ntor 12 -12.7853 117.7819 -54.5039 115.9163 -78.9517 152.1812 -156.9257 -139.9360 10.5852 61.4873 178.1672 132.9417
State:	-12.384  10.454  -1.466   0.352  0.547 -0.759 100.275    -12.79  117.78  -54.50  115.92  -78.95  152.18 -156.93 -139.94   10.59   61.49  178.17  132.94

DOCKED: MODEL       76
DOCKED: USER    Run = 76
DOCKED: USER    DPF = D:/Protein_go_brrr/autodock/final/mut_K82N/heme_Co/dock.dpf
DOCKED: USER  
DOCKED: USER    Estimated Free Energy of Binding    =   -5.44 kcal/mol  [=(1)+(2)+(3)-(4)]
DOCKED: USER    Estimated Inhibition Constant, Ki   =  103.14 uM (micromolar)  [Temperature = 298.15 K]
DOCKED: USER    
DOCKED: USER    (1) Final Intermolecular Energy     =   -9.02 kcal/mol
DOCKED: USER        vdW + Hbond + desolv Energy     =   -6.11 kcal/mol
DOCKED: USER        Electrostatic Energy            =   -2.91 kcal/mol
DOCKED: USER    (2) Final Total Internal Energy     =   -1.69 kcal/mol
DOCKED: USER    (3) Torsional Free Energy           =   +3.58 kcal/mol
DOCKED: USER    (4) Unbound System's Energy  [=(2)] =   -1.69 kcal/mol
DOCKED: USER    
DOCKED: USER    
DOCKED: USER    NEWDPF move heme_Co_opt.pdbqt
DOCKED: USER    NEWDPF about 8.781000 34.984000 -0.736000
DOCKED: USER    NEWDPF tran0 -12.384432 10.454125 -1.465956
DOCKED: USER    NEWDPF quaternion0 0.270244 0.420112 -0.582804 0.640947
DOCKED: USER    NEWDPF axisangle0 0.352070 0.547317 -0.759270 100.275072
DOCKED: USER    NEWDPF quat0 0.352070 0.547317 -0.759270 100.275072
DOCKED: USER    NEWDPF dihe0 -12.79 117.78 -54.50 115.92 -78.95 152.18 -156.93 -139.94 10.59 61.49 178.17 132.94 
DOCKED: USER  keepresnum = 1 
DOCKED: USER  
DOCKED: REMARK  12 active torsions:
DOCKED: REMARK  status: ('A' for Active; 'I' for Inactive)
DOCKED: REMARK    1  A    between atoms: C_6  and  C_10 
DOCKED: REMARK    2  A    between atoms: C_10  and  C_11 
DOCKED: REMARK    3  A    between atoms: C_11  and  C_12 
DOCKED: REMARK    4  A    between atoms: C_12  and  O_14 
DOCKED: REMARK    5  A    between atoms: C_17  and  C_20 
DOCKED: REMARK    6  A    between atoms: C_24  and  C_27 
DOCKED: REMARK    7  A    between atoms: C_31  and  C_34 
DOCKED: REMARK    8  A    between atoms: C_34  and  C_35 
DOCKED: REMARK    9  A    between atoms: C_35  and  C_36 
DOCKED: REMARK   10  A    between atoms: C_36  and  O_38 
DOCKED: REMARK   11  A    between atoms: FE_43  and  C_44 
DOCKED: REMARK   12  A    between atoms: C_44  and  O_45 
DOCKED: USER                              x       y       z     vdW  Elec       q    Type
DOCKED: USER                           _______ _______ _______ _____ _____    ______ ____
DOCKED: ROOT
DOCKED: ATOM      1  C   UNL d   1     -11.856   8.778  -2.742 -0.23 +0.02    +0.064 A 
DOCKED: ATOM      2  C   UNL d   1     -13.701   9.005   1.635 -0.15 +0.01    +0.064 C 
DOCKED: ATOM      3  C   UNL d   1     -13.230  13.760   1.628 -0.11 +0.01    +0.064 A 
DOCKED: ATOM      4  C   UNL d   1     -11.703  13.588  -2.988 -0.12 +0.02    +0.064 A 
DOCKED: ATOM      5  C   UNL d   1     -12.361   8.488  -1.531 -0.20 +0.01    +0.066 A 
DOCKED: ATOM      6  C   UNL d   1     -12.714   7.174  -1.164 -0.24 -0.00    -0.021 A 
DOCKED: ATOM      7  C   UNL d   1     -13.269   7.249   0.098 -0.19 -0.00    -0.025 A 
DOCKED: ATOM      8  C   UNL d   1     -13.218   8.601   0.453 -0.16 +0.01    +0.066 A 
DOCKED: ATOM      9  C   UNL d   1     -13.833   6.101   0.949 -0.16 +0.01    +0.051 C 
DOCKED: ATOM     10  C   UNL d   1     -13.667  10.370   2.097 -0.10 +0.01    +0.066 A 
DOCKED: ATOM     11  C   UNL d   1     -14.029  10.836   3.380 -0.07 -0.00    -0.021 A 
DOCKED: ATOM     12  C   UNL d   1     -13.878  12.225   3.352 -0.06 +0.00    +0.000 A 
DOCKED: ATOM     13  C   UNL d   1     -13.425  12.502   2.062 -0.09 +0.01    +0.070 A 
DOCKED: ATOM     14  C   UNL d   1     -14.399   9.983   4.567 -0.10 +0.02    +0.052 C 
DOCKED: ATOM     15  C   UNL d   1     -12.817  14.228   0.319 -0.18 +0.01    +0.066 A 
DOCKED: ATOM     16  C   UNL d   1     -12.774  15.547  -0.107 -0.20 -0.00    -0.021 A 
DOCKED: ATOM     17  C   UNL d   1     -12.337  15.503  -1.438 -0.27 +0.00    +0.000 A 
DOCKED: ATOM     18  C   UNL d   1     -12.130  14.156  -1.715 -0.27 +0.01    +0.070 A 
DOCKED: ATOM     19  C   UNL d   1     -13.138  16.752   0.732 -0.13 +0.01    +0.052 C 
DOCKED: ATOM     20  C   UNL d   1     -11.578  12.277  -3.305 -0.25 +0.02    +0.066 A 
DOCKED: ATOM     21  C   UNL d   1     -11.193  11.854  -4.576 -0.25 -0.01    -0.025 A 
DOCKED: ATOM     22  C   UNL d   1     -11.201  10.472  -4.526 -0.21 -0.01    -0.021 A 
DOCKED: ATOM     23  C   UNL d   1     -11.604  10.118  -3.221 -0.21 +0.02    +0.066 A 
DOCKED: ATOM     24  C   UNL d   1     -10.855  12.722  -5.784 -0.29 +0.02    +0.051 C 
DOCKED: ATOM     25  N   UNL d   1     -12.654   9.391  -0.535 -0.03 -0.05    -0.248 N 
DOCKED: ATOM     26  N   UNL d   1     -13.244  11.375   1.323 -0.04 -0.04    -0.248 N 
DOCKED: ATOM     27  N   UNL d   1     -12.455  13.423  -0.655 -0.11 -0.04    -0.248 N 
DOCKED: ATOM     28  N   UNL d   1     -11.836  11.208  -2.480 -0.08 -0.05    -0.248 N 
DOCKED: ATOM     29 FE   UNL d   1     -12.547  11.526  -0.602 -0.04 +0.00    +0.000 Fe
DOCKED: ENDROOT
DOCKED: BRANCH   6  30
DOCKED: ATOM     30  C   UNL d   1     -12.592   5.924  -2.029 +0.02 +0.03    +0.052 C 
DOCKED: BRANCH  30  31
DOCKED: ATOM     31  C   UNL d   1     -13.931   5.595  -2.689 -0.13 +0.06    +0.115 C 
DOCKED: BRANCH  31  32
DOCKED: ATOM     32  C   UNL d   1     -13.917   4.252  -3.386 -0.05 +0.11    +0.139 C 
DOCKED: ATOM     33  O   UNL d   1     -13.937   3.228  -2.718 -0.04 -0.36    -0.650 OA
DOCKED: BRANCH  32  34
DOCKED: ATOM     34  O   UNL d   1     -13.931   4.143  -4.735 -0.07 -1.08    -0.776 OA
DOCKED: ATOM     35  H   UNL d   1     -14.183   4.858  -5.335 +0.00 +0.22    +0.167 HD
DOCKED: ENDBRANCH  32  34
DOCKED: ENDBRANCH  31  32
DOCKED: ENDBRANCH  30  31
DOCKED: ENDBRANCH   6  30
DOCKED: BRANCH  29  36
DOCKED: ATOM     36  C   UNL d   1     -14.517  11.491  -1.316 -0.04 +0.02    +0.190 C 
DOCKED: BRANCH  36  37
DOCKED: ATOM     37  O   UNL d   1     -15.551  10.626  -1.690 -0.00 -0.05    -0.399 OA
DOCKED: ATOM     38  H   UNL d   1     -15.209   9.712  -1.483 +0.02 +0.03    +0.209 HD
DOCKED: ENDBRANCH  36  37
DOCKED: ENDBRANCH  29  36
DOCKED: BRANCH  22  39
DOCKED: ATOM     39  C   UNL d   1     -10.899   9.548  -5.691 -0.19 +0.02    +0.052 C 
DOCKED: BRANCH  39  40
DOCKED: ATOM     40  C   UNL d   1     -12.049   8.551  -5.905 -0.09 +0.05    +0.115 C 
DOCKED: BRANCH  40  41
DOCKED: ATOM     41  C   UNL d   1     -11.630   7.096  -5.873 -0.09 +0.15    +0.139 C 
DOCKED: ATOM     42  O   UNL d   1     -10.449   6.818  -5.720 -0.29 -0.78    -0.650 OA
DOCKED: BRANCH  41  43
DOCKED: ATOM     43  O   UNL d   1     -12.535   6.095  -5.921 -0.18 -1.58    -0.776 OA
DOCKED: ATOM     44  H   UNL d   1     -13.322   6.078  -5.360 +0.01 +0.23    +0.167 HD
DOCKED: ENDBRANCH  41  43
DOCKED: ENDBRANCH  40  41
DOCKED: ENDBRANCH  39  40
DOCKED: ENDBRANCH  22  39
DOCKED: BRANCH  12  45
DOCKED: ATOM     45  C   UNL d   1     -14.091  13.314   4.394 -0.03 +0.00    +0.004 C 
DOCKED: ATOM     46  C   UNL d   1     -13.213  14.049   5.071 -0.04 +0.00    +0.012 C 
DOCKED: ENDBRANCH  12  45
DOCKED: BRANCH  17  47
DOCKED: ATOM     47  C   UNL d   1     -12.164  16.612  -2.423 -0.25 +0.00    +0.004 C 
DOCKED: ATOM     48  C   UNL d   1     -13.050  16.892  -3.382 -0.15 +0.00    +0.012 C 
DOCKED: ENDBRANCH  17  47
DOCKED: TORSDOF 12
DOCKED: TER
DOCKED: ENDMDL
________________________________________________________________________________


	BEGINNING GENETIC ALGORITHM DOCKING 77 of 100
Run: 77 Seed: 2105460433 1309556076 [ Run 77 of 100 GA/GALS ]
Beginning LAMARCKIAN GENETIC ALGORITHM (LGA), with a maximum of 25000000 energy evaluations.

Final-Value: -9.328


	FINAL GENETIC ALGORITHM DOCKED STATE
	_______________________________________________


Detailed state:  trans 11.700 4.369 12.621 quatxyzw -0.363912 0.037442 -0.615612 -0.697989 center 8.781 34.984 -0.736 ntor 12 55.3409 91.7882 -161.6655 -111.0112 -60.7241 85.7827 -125.1046 118.6275 19.3004 152.0955 -3.7020 167.3266
State:	 11.700   4.369  12.621  -0.508  0.052 -0.860 -91.468     55.34   91.79 -161.67 -111.01  -60.72   85.78 -125.10  118.63   19.30  152.10   -3.70  167.33

DOCKED: MODEL       77
DOCKED: USER    Run = 77
DOCKED: USER    DPF = D:/Protein_go_brrr/autodock/final/mut_K82N/heme_Co/dock.dpf
DOCKED: USER  
DOCKED: USER    Estimated Free Energy of Binding    =   -3.74 kcal/mol  [=(1)+(2)+(3)-(4)]
DOCKED: USER    Estimated Inhibition Constant, Ki   =    1.82 mM (millimolar)  [Temperature = 298.15 K]
DOCKED: USER    
DOCKED: USER    (1) Final Intermolecular Energy     =   -7.32 kcal/mol
DOCKED: USER        vdW + Hbond + desolv Energy     =   -6.51 kcal/mol
DOCKED: USER        Electrostatic Energy            =   -0.80 kcal/mol
DOCKED: USER    (2) Final Total Internal Energy     =   -2.01 kcal/mol
DOCKED: USER    (3) Torsional Free Energy           =   +3.58 kcal/mol
DOCKED: USER    (4) Unbound System's Energy  [=(2)] =   -2.01 kcal/mol
DOCKED: USER    
DOCKED: USER    
DOCKED: USER    NEWDPF move heme_Co_opt.pdbqt
DOCKED: USER    NEWDPF about 8.781000 34.984000 -0.736000
DOCKED: USER    NEWDPF tran0 11.699681 4.368749 12.620786
DOCKED: USER    NEWDPF quaternion0 -0.363912 0.037442 -0.615612 -0.697989
DOCKED: USER    NEWDPF axisangle0 -0.508179 0.052286 -0.859663 -91.468268
DOCKED: USER    NEWDPF quat0 -0.508179 0.052286 -0.859663 -91.468268
DOCKED: USER    NEWDPF dihe0 55.34 91.79 -161.67 -111.01 -60.72 85.78 -125.10 118.63 19.30 152.10 -3.70 167.33 
DOCKED: USER  keepresnum = 1 
DOCKED: USER  
DOCKED: REMARK  12 active torsions:
DOCKED: REMARK  status: ('A' for Active; 'I' for Inactive)
DOCKED: REMARK    1  A    between atoms: C_6  and  C_10 
DOCKED: REMARK    2  A    between atoms: C_10  and  C_11 
DOCKED: REMARK    3  A    between atoms: C_11  and  C_12 
DOCKED: REMARK    4  A    between atoms: C_12  and  O_14 
DOCKED: REMARK    5  A    between atoms: C_17  and  C_20 
DOCKED: REMARK    6  A    between atoms: C_24  and  C_27 
DOCKED: REMARK    7  A    between atoms: C_31  and  C_34 
DOCKED: REMARK    8  A    between atoms: C_34  and  C_35 
DOCKED: REMARK    9  A    between atoms: C_35  and  C_36 
DOCKED: REMARK   10  A    between atoms: C_36  and  O_38 
DOCKED: REMARK   11  A    between atoms: FE_43  and  C_44 
DOCKED: REMARK   12  A    between atoms: C_44  and  O_45 
DOCKED: USER                              x       y       z     vdW  Elec       q    Type
DOCKED: USER                           _______ _______ _______ _____ _____    ______ ____
DOCKED: ROOT
DOCKED: ATOM      1  C   UNL d   1      11.227   5.680  10.956 -0.21 -0.00    +0.064 A 
DOCKED: ATOM      2  C   UNL d   1      11.183   6.350  15.663 -0.13 -0.00    +0.064 C 
DOCKED: ATOM      3  C   UNL d   1      12.235   1.743  16.366 -0.21 -0.01    +0.064 A 
DOCKED: ATOM      4  C   UNL d   1      12.665   1.121  11.561 -0.17 -0.01    +0.064 A 
DOCKED: ATOM      5  C   UNL d   1      11.102   6.193  12.191 -0.20 -0.00    +0.066 A 
DOCKED: ATOM      6  C   UNL d   1      10.861   7.564  12.410 -0.19 -0.00    -0.021 A 
DOCKED: ATOM      7  C   UNL d   1      10.872   7.757  13.778 -0.16 -0.00    -0.025 A 
DOCKED: ATOM      8  C   UNL d   1      11.103   6.494  14.335 -0.15 -0.00    +0.066 A 
DOCKED: ATOM      9  C   UNL d   1      10.676   9.073  14.545 -0.13 +0.00    +0.051 C 
DOCKED: ATOM     10  C   UNL d   1      11.391   5.087  16.327 -0.13 -0.00    +0.066 A 
DOCKED: ATOM     11  C   UNL d   1      11.346   4.848  17.718 -0.16 -0.00    -0.021 A 
DOCKED: ATOM     12  C   UNL d   1      11.652   3.496  17.895 -0.18 +0.00    +0.000 A 
DOCKED: ATOM     13  C   UNL d   1      11.849   3.009  16.602 -0.18 -0.00    +0.070 A 
DOCKED: ATOM     14  C   UNL d   1      10.940   5.836  18.781 -0.13 +0.01    +0.052 C 
DOCKED: ATOM     15  C   UNL d   1      12.533   1.091  15.106 -0.21 -0.01    +0.066 A 
DOCKED: ATOM     16  C   UNL d   1      13.068  -0.179  14.942 -0.28 +0.00    -0.021 A 
DOCKED: ATOM     17  C   UNL d   1      13.196  -0.362  13.558 -0.32 -0.00    +0.000 A 
DOCKED: ATOM     18  C   UNL d   1      12.712   0.809  12.984 -0.23 -0.01    +0.070 A 
DOCKED: ATOM     19  C   UNL d   1      13.424  -1.131  16.062 -0.31 -0.00    +0.052 C 
DOCKED: ATOM     20  C   UNL d   1      12.280   2.285  10.984 -0.15 -0.01    +0.066 A 
DOCKED: ATOM     21  C   UNL d   1      12.313   2.478   9.605 -0.23 +0.00    -0.025 A 
DOCKED: ATOM     22  C   UNL d   1      11.877   3.773   9.399 -0.23 +0.00    -0.021 A 
DOCKED: ATOM     23  C   UNL d   1      11.607   4.315  10.674 -0.07 -0.00    +0.066 A 
DOCKED: ATOM     24  C   UNL d   1      12.759   1.483   8.536 -0.08 +0.00    +0.051 C 
DOCKED: ATOM     25  N   UNL d   1      11.243   5.506  13.375 -0.13 +0.02    -0.248 N 
DOCKED: ATOM     26  N   UNL d   1      11.636   3.959  15.653 -0.11 +0.02    -0.248 N 
DOCKED: ATOM     27  N   UNL d   1      12.354   1.663  13.936 -0.11 +0.04    -0.248 N 
DOCKED: ATOM     28  N   UNL d   1      11.852   3.418  11.636 -0.06 +0.01    -0.248 N 
DOCKED: ATOM     29 FE   UNL d   1      11.831   3.470  13.669 -0.04 -0.00    +0.000 Fe
DOCKED: ENDROOT
DOCKED: BRANCH   6  30
DOCKED: ATOM     30  C   UNL d   1      10.711   8.643  11.343 -0.17 +0.00    +0.052 C 
DOCKED: BRANCH  30  31
DOCKED: ATOM     31  C   UNL d   1       9.300   8.626  10.756 -0.08 +0.02    +0.115 C 
DOCKED: BRANCH  31  32
DOCKED: ATOM     32  C   UNL d   1       9.214   9.362   9.437 -0.24 +0.06    +0.139 C 
DOCKED: ATOM     33  O   UNL d   1       9.124   8.725   8.398 -0.02 -0.31    -0.650 OA
DOCKED: BRANCH  32  34
DOCKED: ATOM     34  O   UNL d   1       9.186  10.714   9.369 -0.18 -0.68    -0.776 OA
DOCKED: ATOM     35  H   UNL d   1       9.824  11.294   9.808 +0.03 +0.08    +0.167 HD
DOCKED: ENDBRANCH  32  34
DOCKED: ENDBRANCH  31  32
DOCKED: ENDBRANCH  30  31
DOCKED: ENDBRANCH   6  30
DOCKED: BRANCH  29  36
DOCKED: ATOM     36  C   UNL d   1      13.809   4.163  13.695 -0.02 -0.01    +0.190 C 
DOCKED: BRANCH  36  37
DOCKED: ATOM     37  O   UNL d   1      14.807   4.715  12.885 +0.00 +0.01    -0.399 OA
DOCKED: ATOM     38  H   UNL d   1      14.547   4.469  11.954 +0.02 -0.01    +0.209 HD
DOCKED: ENDBRANCH  36  37
DOCKED: ENDBRANCH  29  36
DOCKED: BRANCH  22  39
DOCKED: ATOM     39  C   UNL d   1      11.788   4.468   8.053 -0.01 +0.00    +0.052 C 
DOCKED: BRANCH  39  40
DOCKED: ATOM     40  C   UNL d   1      13.093   5.219   7.743 -0.08 -0.00    +0.115 C 
DOCKED: BRANCH  40  41
DOCKED: ATOM     41  C   UNL d   1      13.787   5.795   8.959 -0.04 -0.00    +0.139 C 
DOCKED: ATOM     42  O   UNL d   1      13.704   6.994   9.183 +0.02 -0.00    -0.650 OA
DOCKED: BRANCH  41  43
DOCKED: ATOM     43  O   UNL d   1      14.424   5.007   9.853 +0.03 +0.01    -0.776 OA
DOCKED: ATOM     44  H   UNL d   1      14.564   5.271  10.772 +0.01 -0.00    +0.167 HD
DOCKED: ENDBRANCH  41  43
DOCKED: ENDBRANCH  40  41
DOCKED: ENDBRANCH  39  40
DOCKED: ENDBRANCH  22  39
DOCKED: BRANCH  12  45
DOCKED: ATOM     45  C   UNL d   1      11.762   2.608  19.127 -0.21 +0.00    +0.004 C 
DOCKED: ATOM     46  C   UNL d   1      12.793   1.918  19.608 -0.20 +0.00    +0.012 C 
DOCKED: ENDBRANCH  12  45
DOCKED: BRANCH  17  47
DOCKED: ATOM     47  C   UNL d   1      13.772  -1.510  12.797 -0.24 -0.00    +0.004 C 
DOCKED: ATOM     48  C   UNL d   1      15.080  -1.670  12.581 -0.26 -0.00    +0.012 C 
DOCKED: ENDBRANCH  17  47
DOCKED: TORSDOF 12
DOCKED: TER
DOCKED: ENDMDL
________________________________________________________________________________


	BEGINNING GENETIC ALGORITHM DOCKING 78 of 100
Run: 78 Seed: 1713941921 727154646 [ Run 78 of 100 GA/GALS ]
Beginning LAMARCKIAN GENETIC ALGORITHM (LGA), with a maximum of 25000000 energy evaluations.

Final-Value: -9.562


	FINAL GENETIC ALGORITHM DOCKED STATE
	_______________________________________________


Detailed state:  trans -13.377 1.155 -6.812 quatxyzw 0.472560 -0.629721 0.408910 -0.461445 center 8.781 34.984 -0.736 ntor 12 1.2340 117.1035 -48.4273 65.1287 134.0399 130.6102 81.5307 -11.7097 49.1658 179.6080 154.2936 -6.4643
State:	-13.377   1.155  -6.812   0.533 -0.710  0.461 -125.039      1.23  117.10  -48.43   65.13  134.04  130.61   81.53  -11.71   49.17  179.61  154.29   -6.46

DOCKED: MODEL       78
DOCKED: USER    Run = 78
DOCKED: USER    DPF = D:/Protein_go_brrr/autodock/final/mut_K82N/heme_Co/dock.dpf
DOCKED: USER  
DOCKED: USER    Estimated Free Energy of Binding    =   -5.28 kcal/mol  [=(1)+(2)+(3)-(4)]
DOCKED: USER    Estimated Inhibition Constant, Ki   =  133.86 uM (micromolar)  [Temperature = 298.15 K]
DOCKED: USER    
DOCKED: USER    (1) Final Intermolecular Energy     =   -8.86 kcal/mol
DOCKED: USER        vdW + Hbond + desolv Energy     =   -5.00 kcal/mol
DOCKED: USER        Electrostatic Energy            =   -3.86 kcal/mol
DOCKED: USER    (2) Final Total Internal Energy     =   -0.70 kcal/mol
DOCKED: USER    (3) Torsional Free Energy           =   +3.58 kcal/mol
DOCKED: USER    (4) Unbound System's Energy  [=(2)] =   -0.70 kcal/mol
DOCKED: USER    
DOCKED: USER    
DOCKED: USER    NEWDPF move heme_Co_opt.pdbqt
DOCKED: USER    NEWDPF about 8.781000 34.984000 -0.736000
DOCKED: USER    NEWDPF tran0 -13.376616 1.154644 -6.811890
DOCKED: USER    NEWDPF quaternion0 0.472560 -0.629721 0.408910 -0.461445
DOCKED: USER    NEWDPF axisangle0 0.532661 -0.709810 0.460915 -125.039276
DOCKED: USER    NEWDPF quat0 0.532661 -0.709810 0.460915 -125.039276
DOCKED: USER    NEWDPF dihe0 1.23 117.10 -48.43 65.13 134.04 130.61 81.53 -11.71 49.17 179.61 154.29 -6.46 
DOCKED: USER  keepresnum = 1 
DOCKED: USER  
DOCKED: REMARK  12 active torsions:
DOCKED: REMARK  status: ('A' for Active; 'I' for Inactive)
DOCKED: REMARK    1  A    between atoms: C_6  and  C_10 
DOCKED: REMARK    2  A    between atoms: C_10  and  C_11 
DOCKED: REMARK    3  A    between atoms: C_11  and  C_12 
DOCKED: REMARK    4  A    between atoms: C_12  and  O_14 
DOCKED: REMARK    5  A    between atoms: C_17  and  C_20 
DOCKED: REMARK    6  A    between atoms: C_24  and  C_27 
DOCKED: REMARK    7  A    between atoms: C_31  and  C_34 
DOCKED: REMARK    8  A    between atoms: C_34  and  C_35 
DOCKED: REMARK    9  A    between atoms: C_35  and  C_36 
DOCKED: REMARK   10  A    between atoms: C_36  and  O_38 
DOCKED: REMARK   11  A    between atoms: FE_43  and  C_44 
DOCKED: REMARK   12  A    between atoms: C_44  and  O_45 
DOCKED: USER                              x       y       z     vdW  Elec       q    Type
DOCKED: USER                           _______ _______ _______ _____ _____    ______ ____
DOCKED: ROOT
DOCKED: ATOM      1  C   UNL d   1     -13.450   2.494  -8.520 -0.07 +0.05    +0.064 A 
DOCKED: ATOM      2  C   UNL d   1     -11.750  -1.915  -7.987 -0.25 +0.01    +0.064 C 
DOCKED: ATOM      3  C   UNL d   1     -12.702  -1.757  -3.308 -0.07 -0.01    +0.064 A 
DOCKED: ATOM      4  C   UNL d   1     -14.795   2.595  -3.894 -0.08 +0.03    +0.064 A 
DOCKED: ATOM      5  C   UNL d   1     -12.882   1.291  -8.712 -0.11 +0.04    +0.066 A 
DOCKED: ATOM      6  C   UNL d   1     -12.519   0.832  -9.993 -0.12 -0.01    -0.021 A 
DOCKED: ATOM      7  C   UNL d   1     -12.047  -0.456  -9.835 -0.20 -0.01    -0.025 A 
DOCKED: ATOM      8  C   UNL d   1     -12.128  -0.722  -8.464 -0.17 +0.02    +0.066 A 
DOCKED: ATOM      9  C   UNL d   1     -11.538  -1.413 -10.924 -0.28 +0.01    +0.051 C 
DOCKED: ATOM     10  C   UNL d   1     -11.773  -2.270  -6.590 -0.16 +0.01    +0.066 A 
DOCKED: ATOM     11  C   UNL d   1     -11.260  -3.451  -6.011 -0.22 -0.00    -0.021 A 
DOCKED: ATOM     12  C   UNL d   1     -11.548  -3.377  -4.646 -0.16 -0.00    +0.000 A 
DOCKED: ATOM     13  C   UNL d   1     -12.201  -2.154  -4.491 -0.10 -0.00    +0.070 A 
DOCKED: ATOM     14  C   UNL d   1     -10.468  -4.520  -6.719 -0.26 +0.00    +0.052 C 
DOCKED: ATOM     15  C   UNL d   1     -13.446  -0.557  -2.981 -0.06 +0.00    +0.066 A 
DOCKED: ATOM     16  C   UNL d   1     -14.062  -0.275  -1.769 -0.04 +0.00    -0.021 A 
DOCKED: ATOM     17  C   UNL d   1     -14.669   0.978  -1.934 -0.05 +0.00    +0.000 A 
DOCKED: ATOM     18  C   UNL d   1     -14.361   1.371  -3.232 -0.07 +0.02    +0.070 A 
DOCKED: ATOM     19  C   UNL d   1     -14.052  -1.170  -0.551 -0.05 -0.01    +0.052 C 
DOCKED: ATOM     20  C   UNL d   1     -14.581   2.957  -5.181 -0.07 +0.06    +0.066 A 
DOCKED: ATOM     21  C   UNL d   1     -15.081   4.144  -5.713 -0.06 -0.02    -0.025 A 
DOCKED: ATOM     22  C   UNL d   1     -14.684   4.156  -7.037 -0.06 -0.02    -0.021 A 
DOCKED: ATOM     23  C   UNL d   1     -13.966   2.960  -7.253 +0.03 +0.08    +0.066 A 
DOCKED: ATOM     24  C   UNL d   1     -15.913   5.206  -4.999 -0.03 +0.02    +0.051 C 
DOCKED: ATOM     25  N   UNL d   1     -12.636   0.345  -7.743 -0.08 -0.13    -0.248 N 
DOCKED: ATOM     26  N   UNL d   1     -12.287  -1.461  -5.657 -0.07 -0.04    -0.248 N 
DOCKED: ATOM     27  N   UNL d   1     -13.657   0.419  -3.836 -0.05 -0.08    -0.248 N 
DOCKED: ATOM     28  N   UNL d   1     -13.903   2.231  -6.133 -0.05 -0.28    -0.248 N 
DOCKED: ATOM     29 FE   UNL d   1     -13.178   0.388  -5.674 -0.02 +0.00    +0.000 Fe
DOCKED: ENDROOT
DOCKED: BRANCH   6  30
DOCKED: ATOM     30  C   UNL d   1     -12.698   1.578 -11.311 -0.14 +0.02    +0.052 C 
DOCKED: BRANCH  30  31
DOCKED: ATOM     31  C   UNL d   1     -13.563   0.765 -12.274 -0.11 +0.05    +0.115 C 
DOCKED: BRANCH  31  32
DOCKED: ATOM     32  C   UNL d   1     -12.964   0.688 -13.662 -0.10 +0.15    +0.139 C 
DOCKED: ATOM     33  O   UNL d   1     -12.565   1.709 -14.202 -0.27 -1.02    -0.650 OA
DOCKED: BRANCH  32  34
DOCKED: ATOM     34  O   UNL d   1     -12.810  -0.489 -14.313 -0.39 -1.12    -0.776 OA
DOCKED: ATOM     35  H   UNL d   1     -13.026  -1.352 -13.934 +0.04 +0.12    +0.167 HD
DOCKED: ENDBRANCH  32  34
DOCKED: ENDBRANCH  31  32
DOCKED: ENDBRANCH  30  31
DOCKED: ENDBRANCH   6  30
DOCKED: BRANCH  29  36
DOCKED: ATOM     36  C   UNL d   1     -14.992  -0.494  -6.247 -0.01 +0.04    +0.190 C 
DOCKED: BRANCH  36  37
DOCKED: ATOM     37  O   UNL d   1     -15.863  -0.647  -7.330 +0.00 -0.05    -0.399 OA
DOCKED: ATOM     38  H   UNL d   1     -15.404  -0.198  -8.094 +0.01 +0.04    +0.209 HD
DOCKED: ENDBRANCH  36  37
DOCKED: ENDBRANCH  29  36
DOCKED: BRANCH  22  39
DOCKED: ATOM     39  C   UNL d   1     -15.034   5.229  -8.051 -0.02 +0.02    +0.052 C 
DOCKED: BRANCH  39  40
DOCKED: ATOM     40  C   UNL d   1     -13.912   6.276  -8.143 -0.03 +0.07    +0.115 C 
DOCKED: BRANCH  40  41
DOCKED: ATOM     41  C   UNL d   1     -12.803   6.094  -7.128 +0.09 +0.18    +0.139 C 
DOCKED: ATOM     42  O   UNL d   1     -11.645   6.028  -7.514 +0.03 -0.95    -0.650 OA
DOCKED: BRANCH  41  43
DOCKED: ATOM     43  O   UNL d   1     -13.050   6.091  -5.800 -0.46 -1.29    -0.776 OA
DOCKED: ATOM     44  H   UNL d   1     -13.660   6.713  -5.383 +0.02 +0.14    +0.167 HD
DOCKED: ENDBRANCH  41  43
DOCKED: ENDBRANCH  40  41
DOCKED: ENDBRANCH  39  40
DOCKED: ENDBRANCH  22  39
DOCKED: BRANCH  12  45
DOCKED: ATOM     45  C   UNL d   1     -11.265  -4.307  -3.473 -0.22 -0.00    +0.004 C 
DOCKED: ATOM     46  C   UNL d   1     -10.117  -4.800  -3.016 -0.37 -0.01    +0.012 C 
DOCKED: ENDBRANCH  12  45
DOCKED: BRANCH  17  47
DOCKED: ATOM     47  C   UNL d   1     -15.524   1.756  -0.988 -0.03 +0.00    +0.004 C 
DOCKED: ATOM     48  C   UNL d   1     -15.146   2.908  -0.430 -0.05 +0.00    +0.012 C 
DOCKED: ENDBRANCH  17  47
DOCKED: TORSDOF 12
DOCKED: TER
DOCKED: ENDMDL
________________________________________________________________________________


	BEGINNING GENETIC ALGORITHM DOCKING 79 of 100
Run: 79 Seed: 537548751 883249711 [ Run 79 of 100 GA/GALS ]
Beginning LAMARCKIAN GENETIC ALGORITHM (LGA), with a maximum of 25000000 energy evaluations.

Final-Value: -10.251


	FINAL GENETIC ALGORITHM DOCKED STATE
	_______________________________________________


Detailed state:  trans 7.852 15.337 -11.768 quatxyzw 0.436625 0.832438 0.053447 0.336970 center 8.781 34.984 -0.736 ntor 12 46.3801 110.9524 142.4492 102.8472 90.8251 109.7740 42.4645 -49.6897 159.0611 133.9986 -158.3502 177.6248
State:	  7.852  15.337 -11.768   0.464  0.884  0.057 140.615     46.38  110.95  142.45  102.85   90.83  109.77   42.46  -49.69  159.06  134.00 -158.35  177.62

DOCKED: MODEL       79
DOCKED: USER    Run = 79
DOCKED: USER    DPF = D:/Protein_go_brrr/autodock/final/mut_K82N/heme_Co/dock.dpf
DOCKED: USER  
DOCKED: USER    Estimated Free Energy of Binding    =   -3.17 kcal/mol  [=(1)+(2)+(3)-(4)]
DOCKED: USER    Estimated Inhibition Constant, Ki   =    4.78 mM (millimolar)  [Temperature = 298.15 K]
DOCKED: USER    
DOCKED: USER    (1) Final Intermolecular Energy     =   -6.75 kcal/mol
DOCKED: USER        vdW + Hbond + desolv Energy     =   -6.78 kcal/mol
DOCKED: USER        Electrostatic Energy            =   +0.04 kcal/mol
DOCKED: USER    (2) Final Total Internal Energy     =   -3.51 kcal/mol
DOCKED: USER    (3) Torsional Free Energy           =   +3.58 kcal/mol
DOCKED: USER    (4) Unbound System's Energy  [=(2)] =   -3.51 kcal/mol
DOCKED: USER    
DOCKED: USER    
DOCKED: USER    NEWDPF move heme_Co_opt.pdbqt
DOCKED: USER    NEWDPF about 8.781000 34.984000 -0.736000
DOCKED: USER    NEWDPF tran0 7.852277 15.336858 -11.767524
DOCKED: USER    NEWDPF quaternion0 0.436625 0.832438 0.053447 0.336970
DOCKED: USER    NEWDPF axisangle0 0.463747 0.884147 0.056767 140.615207
DOCKED: USER    NEWDPF quat0 0.463747 0.884147 0.056767 140.615207
DOCKED: USER    NEWDPF dihe0 46.38 110.95 142.45 102.85 90.83 109.77 42.46 -49.69 159.06 134.00 -158.35 177.62 
DOCKED: USER  keepresnum = 1 
DOCKED: USER  
DOCKED: REMARK  12 active torsions:
DOCKED: REMARK  status: ('A' for Active; 'I' for Inactive)
DOCKED: REMARK    1  A    between atoms: C_6  and  C_10 
DOCKED: REMARK    2  A    between atoms: C_10  and  C_11 
DOCKED: REMARK    3  A    between atoms: C_11  and  C_12 
DOCKED: REMARK    4  A    between atoms: C_12  and  O_14 
DOCKED: REMARK    5  A    between atoms: C_17  and  C_20 
DOCKED: REMARK    6  A    between atoms: C_24  and  C_27 
DOCKED: REMARK    7  A    between atoms: C_31  and  C_34 
DOCKED: REMARK    8  A    between atoms: C_34  and  C_35 
DOCKED: REMARK    9  A    between atoms: C_35  and  C_36 
DOCKED: REMARK   10  A    between atoms: C_36  and  O_38 
DOCKED: REMARK   11  A    between atoms: FE_43  and  C_44 
DOCKED: REMARK   12  A    between atoms: C_44  and  O_45 
DOCKED: USER                              x       y       z     vdW  Elec       q    Type
DOCKED: USER                           _______ _______ _______ _____ _____    ______ ____
DOCKED: ROOT
DOCKED: ATOM      1  C   UNL d   1       9.428  13.980 -12.394 -0.15 +0.01    +0.064 A 
DOCKED: ATOM      2  C   UNL d   1       4.984  14.651 -13.948 -0.20 -0.00    +0.064 C 
DOCKED: ATOM      3  C   UNL d   1       4.187  17.785 -10.431 -0.19 -0.02    +0.064 A 
DOCKED: ATOM      4  C   UNL d   1       8.838  17.407  -9.057 -0.09 -0.00    +0.064 A 
DOCKED: ATOM      5  C   UNL d   1       8.261  13.906 -13.055 -0.16 +0.01    +0.066 A 
DOCKED: ATOM      6  C   UNL d   1       8.110  13.128 -14.219 -0.19 -0.00    -0.021 A 
DOCKED: ATOM      7  C   UNL d   1       6.826  13.344 -14.679 -0.21 -0.00    -0.025 A 
DOCKED: ATOM      8  C   UNL d   1       6.243  14.231 -13.767 -0.23 +0.00    +0.066 A 
DOCKED: ATOM      9  C   UNL d   1       6.159  12.747 -15.927 -0.16 +0.01    +0.051 C 
DOCKED: ATOM     10  C   UNL d   1       4.293  15.541 -13.049 -0.22 -0.01    +0.066 A 
DOCKED: ATOM     11  C   UNL d   1       2.931  15.908 -13.106 -0.25 +0.01    -0.021 A 
DOCKED: ATOM     12  C   UNL d   1       2.725  16.819 -12.067 -0.27 -0.00    +0.000 A 
DOCKED: ATOM     13  C   UNL d   1       3.969  16.931 -11.447 -0.23 -0.02    +0.070 A 
DOCKED: ATOM     14  C   UNL d   1       1.893  15.339 -14.039 -0.06 -0.04    +0.052 C 
DOCKED: ATOM     15  C   UNL d   1       5.414  18.066  -9.712 -0.18 -0.02    +0.066 A 
DOCKED: ATOM     16  C   UNL d   1       5.606  19.065  -8.769 -0.15 +0.01    -0.021 A 
DOCKED: ATOM     17  C   UNL d   1       6.946  18.962  -8.372 -0.19 -0.00    +0.000 A 
DOCKED: ATOM     18  C   UNL d   1       7.465  17.892  -9.094 -0.19 -0.01    +0.070 A 
DOCKED: ATOM     19  C   UNL d   1       4.551  20.043  -8.301 -0.30 -0.02    +0.052 C 
DOCKED: ATOM     20  C   UNL d   1       9.387  16.426  -9.813 -0.17 -0.00    +0.066 A 
DOCKED: ATOM     21  C   UNL d   1      10.730  16.073  -9.712 -0.17 -0.00    -0.025 A 
DOCKED: ATOM     22  C   UNL d   1      10.923  15.067 -10.642 -0.22 -0.00    -0.021 A 
DOCKED: ATOM     23  C   UNL d   1       9.679  14.863 -11.278 -0.24 +0.00    +0.066 A 
DOCKED: ATOM     24  C   UNL d   1      11.786  16.677  -8.790 -0.11 -0.00    +0.051 C 
DOCKED: ATOM     25  N   UNL d   1       7.108  14.591 -12.747 -0.16 -0.01    -0.248 N 
DOCKED: ATOM     26  N   UNL d   1       4.903  16.116 -12.007 -0.16 +0.04    -0.248 N 
DOCKED: ATOM     27  N   UNL d   1       6.533  17.402  -9.904 -0.17 +0.05    -0.248 N 
DOCKED: ATOM     28  N   UNL d   1       8.747  15.685 -10.781 -0.19 +0.00    -0.248 N 
DOCKED: ATOM     29 FE   UNL d   1       6.806  16.079 -11.240 -0.05 -0.00    +0.000 Fe
DOCKED: ENDROOT
DOCKED: BRANCH   6  30
DOCKED: ATOM     30  C   UNL d   1       9.186  12.284 -14.895 -0.14 +0.01    +0.052 C 
DOCKED: BRANCH  30  31
DOCKED: ATOM     31  C   UNL d   1      10.188  13.177 -15.626 -0.03 +0.01    +0.115 C 
DOCKED: BRANCH  31  32
DOCKED: ATOM     32  C   UNL d   1       9.610  14.532 -15.973 -0.01 +0.00    +0.139 C 
DOCKED: ATOM     33  O   UNL d   1       8.995  14.673 -17.019 +0.02 +0.00    -0.650 OA
DOCKED: BRANCH  32  34
DOCKED: ATOM     34  O   UNL d   1       9.709  15.590 -15.134 +0.03 +0.01    -0.776 OA
DOCKED: ATOM     35  H   UNL d   1      10.508  15.819 -14.640 +0.01 -0.00    +0.167 HD
DOCKED: ENDBRANCH  32  34
DOCKED: ENDBRANCH  31  32
DOCKED: ENDBRANCH  30  31
DOCKED: ENDBRANCH   6  30
DOCKED: BRANCH  29  36
DOCKED: ATOM     36  C   UNL d   1       7.407  17.489 -12.671 -0.03 -0.02    +0.190 C 
DOCKED: BRANCH  36  37
DOCKED: ATOM     37  O   UNL d   1       8.369  17.737 -13.656 +0.00 +0.03    -0.399 OA
DOCKED: ATOM     38  H   UNL d   1       8.984  16.952 -13.616 +0.02 -0.01    +0.209 HD
DOCKED: ENDBRANCH  36  37
DOCKED: ENDBRANCH  29  36
DOCKED: BRANCH  22  39
DOCKED: ATOM     39  C   UNL d   1      12.246  14.389 -10.944 -0.16 +0.00    +0.052 C 
DOCKED: BRANCH  39  40
DOCKED: ATOM     40  C   UNL d   1      13.094  15.253 -11.892 -0.04 -0.00    +0.115 C 
DOCKED: BRANCH  40  41
DOCKED: ATOM     41  C   UNL d   1      12.372  15.700 -13.145 -0.02 -0.00    +0.139 C 
DOCKED: ATOM     42  O   UNL d   1      11.731  16.742 -13.126 +0.01 +0.03    -0.650 OA
DOCKED: BRANCH  41  43
DOCKED: ATOM     43  O   UNL d   1      12.485  15.025 -14.310 +0.02 +0.02    -0.776 OA
DOCKED: ATOM     44  H   UNL d   1      11.771  14.984 -14.959 +0.01 -0.00    +0.167 HD
DOCKED: ENDBRANCH  41  43
DOCKED: ENDBRANCH  40  41
DOCKED: ENDBRANCH  39  40
DOCKED: ENDBRANCH  22  39
DOCKED: BRANCH  12  45
DOCKED: ATOM     45  C   UNL d   1       1.498  17.578 -11.580 -0.30 -0.00    +0.004 C 
DOCKED: ATOM     46  C   UNL d   1       0.619  17.282 -10.626 -0.47 -0.00    +0.012 C 
DOCKED: ENDBRANCH  12  45
DOCKED: BRANCH  17  47
DOCKED: ATOM     47  C   UNL d   1       7.730  19.814  -7.429 -0.17 -0.00    +0.004 C 
DOCKED: ATOM     48  C   UNL d   1       7.519  19.842  -6.111 -0.25 -0.00    +0.012 C 
DOCKED: ENDBRANCH  17  47
DOCKED: TORSDOF 12
DOCKED: TER
DOCKED: ENDMDL
________________________________________________________________________________


	BEGINNING GENETIC ALGORITHM DOCKING 80 of 100
Run: 80 Seed: 2016535019 2034897355 [ Run 80 of 100 GA/GALS ]
Beginning LAMARCKIAN GENETIC ALGORITHM (LGA), with a maximum of 25000000 energy evaluations.

Final-Value: -9.678


	FINAL GENETIC ALGORITHM DOCKED STATE
	_______________________________________________


Detailed state:  trans -7.965 -10.657 8.376 quatxyzw 0.529824 -0.138271 -0.302338 -0.780231 center 8.781 34.984 -0.736 ntor 12 -124.9438 112.1691 133.2911 121.7179 178.3275 134.6147 65.8226 0.5911 -122.9365 95.9926 170.4464 -174.0726
State:	 -7.965 -10.657   8.376   0.847 -0.221 -0.483 -77.437   -124.94  112.17  133.29  121.72  178.33  134.61   65.82    0.59 -122.94   95.99  170.45 -174.07

DOCKED: MODEL       80
DOCKED: USER    Run = 80
DOCKED: USER    DPF = D:/Protein_go_brrr/autodock/final/mut_K82N/heme_Co/dock.dpf
DOCKED: USER  
DOCKED: USER    Estimated Free Energy of Binding    =   -3.27 kcal/mol  [=(1)+(2)+(3)-(4)]
DOCKED: USER    Estimated Inhibition Constant, Ki   =    4.04 mM (millimolar)  [Temperature = 298.15 K]
DOCKED: USER    
DOCKED: USER    (1) Final Intermolecular Energy     =   -6.84 kcal/mol
DOCKED: USER        vdW + Hbond + desolv Energy     =   -7.04 kcal/mol
DOCKED: USER        Electrostatic Energy            =   +0.20 kcal/mol
DOCKED: USER    (2) Final Total Internal Energy     =   -2.83 kcal/mol
DOCKED: USER    (3) Torsional Free Energy           =   +3.58 kcal/mol
DOCKED: USER    (4) Unbound System's Energy  [=(2)] =   -2.83 kcal/mol
DOCKED: USER    
DOCKED: USER    
DOCKED: USER    NEWDPF move heme_Co_opt.pdbqt
DOCKED: USER    NEWDPF about 8.781000 34.984000 -0.736000
DOCKED: USER    NEWDPF tran0 -7.964778 -10.656605 8.376187
DOCKED: USER    NEWDPF quaternion0 0.529824 -0.138271 -0.302338 -0.780231
DOCKED: USER    NEWDPF axisangle0 0.847051 -0.221059 -0.483360 -77.436618
DOCKED: USER    NEWDPF quat0 0.847051 -0.221059 -0.483360 -77.436618
DOCKED: USER    NEWDPF dihe0 -124.94 112.17 133.29 121.72 178.33 134.61 65.82 0.59 -122.94 95.99 170.45 -174.07 
DOCKED: USER  keepresnum = 1 
DOCKED: USER  
DOCKED: REMARK  12 active torsions:
DOCKED: REMARK  status: ('A' for Active; 'I' for Inactive)
DOCKED: REMARK    1  A    between atoms: C_6  and  C_10 
DOCKED: REMARK    2  A    between atoms: C_10  and  C_11 
DOCKED: REMARK    3  A    between atoms: C_11  and  C_12 
DOCKED: REMARK    4  A    between atoms: C_12  and  O_14 
DOCKED: REMARK    5  A    between atoms: C_17  and  C_20 
DOCKED: REMARK    6  A    between atoms: C_24  and  C_27 
DOCKED: REMARK    7  A    between atoms: C_31  and  C_34 
DOCKED: REMARK    8  A    between atoms: C_34  and  C_35 
DOCKED: REMARK    9  A    between atoms: C_35  and  C_36 
DOCKED: REMARK   10  A    between atoms: C_36  and  O_38 
DOCKED: REMARK   11  A    between atoms: FE_43  and  C_44 
DOCKED: REMARK   12  A    between atoms: C_44  and  O_45 
DOCKED: USER                              x       y       z     vdW  Elec       q    Type
DOCKED: USER                           _______ _______ _______ _____ _____    ______ ____
DOCKED: ROOT
DOCKED: ATOM      1  C   UNL d   1      -8.854  -8.701   8.693 -0.13 -0.01    +0.064 A 
DOCKED: ATOM      2  C   UNL d   1     -10.741 -12.935   7.635 -0.10 -0.01    +0.064 C 
DOCKED: ATOM      3  C   UNL d   1      -6.371 -14.830   7.255 -0.14 -0.01    +0.064 A 
DOCKED: ATOM      4  C   UNL d   1      -4.431 -10.613   8.711 -0.33 -0.02    +0.064 A 
DOCKED: ATOM      5  C   UNL d   1      -9.690  -9.710   8.396 -0.06 -0.01    +0.066 A 
DOCKED: ATOM      6  C   UNL d   1     -11.089  -9.567   8.468 -0.06 +0.00    -0.021 A 
DOCKED: ATOM      7  C   UNL d   1     -11.631 -10.805   8.182 -0.05 +0.00    -0.025 A 
DOCKED: ATOM      8  C   UNL d   1     -10.541 -11.645   7.932 -0.08 -0.01    +0.066 A 
DOCKED: ATOM      9  C   UNL d   1     -13.116 -11.197   8.143 -0.02 -0.01    +0.051 C 
DOCKED: ATOM     10  C   UNL d   1      -9.683 -13.868   7.336 -0.11 -0.01    +0.066 A 
DOCKED: ATOM     11  C   UNL d   1      -9.833 -15.196   6.881 -0.07 +0.00    -0.021 A 
DOCKED: ATOM     12  C   UNL d   1      -8.543 -15.724   6.775 -0.08 -0.00    +0.000 A 
DOCKED: ATOM     13  C   UNL d   1      -7.704 -14.678   7.160 -0.06 -0.02    +0.070 A 
DOCKED: ATOM     14  C   UNL d   1     -11.126 -15.864   6.488 -0.04 -0.01    +0.052 C 
DOCKED: ATOM     15  C   UNL d   1      -5.365 -13.878   7.683 -0.22 -0.01    +0.066 A 
DOCKED: ATOM     16  C   UNL d   1      -4.020 -14.142   7.898 -0.27 +0.00    -0.021 A 
DOCKED: ATOM     17  C   UNL d   1      -3.457 -12.930   8.320 -0.38 -0.00    +0.000 A 
DOCKED: ATOM     18  C   UNL d   1      -4.503 -12.014   8.314 -0.15 -0.02    +0.070 A 
DOCKED: ATOM     19  C   UNL d   1      -3.348 -15.483   7.703 -0.25 +0.02    +0.052 C 
DOCKED: ATOM     20  C   UNL d   1      -5.451  -9.727   8.795 -0.37 -0.01    +0.066 A 
DOCKED: ATOM     21  C   UNL d   1      -5.263  -8.415   9.225 -0.46 +0.00    -0.025 A 
DOCKED: ATOM     22  C   UNL d   1      -6.516  -7.831   9.202 -0.35 +0.00    -0.021 A 
DOCKED: ATOM     23  C   UNL d   1      -7.416  -8.827   8.768 -0.24 -0.01    +0.066 A 
DOCKED: ATOM     24  C   UNL d   1      -3.955  -7.755   9.656 -0.51 -0.01    +0.051 C 
DOCKED: ATOM     25  N   UNL d   1      -9.326 -10.992   8.052 -0.07 +0.03    -0.248 N 
DOCKED: ATOM     26  N   UNL d   1      -8.391 -13.540   7.445 -0.11 +0.06    -0.248 N 
DOCKED: ATOM     27  N   UNL d   1      -5.631 -12.620   7.959 -0.17 +0.06    -0.248 N 
DOCKED: ATOM     28  N   UNL d   1      -6.776  -9.976   8.523 -0.19 +0.04    -0.248 N 
DOCKED: ATOM     29 FE   UNL d   1      -7.367 -11.851   8.003 -0.05 -0.00    +0.000 Fe
DOCKED: ENDROOT
DOCKED: BRANCH   6  30
DOCKED: ATOM     30  C   UNL d   1     -11.856  -8.313   8.875 -0.03 -0.01    +0.052 C 
DOCKED: BRANCH  30  31
DOCKED: ATOM     31  C   UNL d   1     -12.424  -8.465  10.286 -0.01 -0.01    +0.115 C 
DOCKED: BRANCH  31  32
DOCKED: ATOM     32  C   UNL d   1     -11.358  -8.807  11.304 -0.01 -0.01    +0.139 C 
DOCKED: ATOM     33  O   UNL d   1     -10.755  -9.865  11.210 +0.01 +0.06    -0.650 OA
DOCKED: BRANCH  32  34
DOCKED: ATOM     34  O   UNL d   1     -11.013  -7.953  12.296 +0.01 +0.07    -0.776 OA
DOCKED: ATOM     35  H   UNL d   1     -10.104  -7.691  12.496 +0.02 -0.01    +0.167 HD
DOCKED: ENDBRANCH  32  34
DOCKED: ENDBRANCH  31  32
DOCKED: ENDBRANCH  30  31
DOCKED: ENDBRANCH   6  30
DOCKED: BRANCH  29  36
DOCKED: ATOM     36  C   UNL d   1      -7.656 -12.345  10.020 -0.07 -0.02    +0.190 C 
DOCKED: BRANCH  36  37
DOCKED: ATOM     37  O   UNL d   1      -8.417 -12.022  11.148 -0.01 +0.03    -0.399 OA
DOCKED: ATOM     38  H   UNL d   1      -9.017 -11.281  10.850 +0.02 -0.02    +0.209 HD
DOCKED: ENDBRANCH  36  37
DOCKED: ENDBRANCH  29  36
DOCKED: BRANCH  22  39
DOCKED: ATOM     39  C   UNL d   1      -6.834  -6.413   9.638 -0.24 -0.01    +0.052 C 
DOCKED: BRANCH  39  40
DOCKED: ATOM     40  C   UNL d   1      -6.761  -6.286  11.169 -0.31 -0.01    +0.115 C 
DOCKED: BRANCH  40  41
DOCKED: ATOM     41  C   UNL d   1      -8.065  -6.572  11.882 -0.14 -0.01    +0.139 C 
DOCKED: ATOM     42  O   UNL d   1      -8.051  -7.224  12.917 +0.02 +0.05    -0.650 OA
DOCKED: BRANCH  41  43
DOCKED: ATOM     43  O   UNL d   1      -9.237  -6.052  11.455 +0.07 +0.09    -0.776 OA
DOCKED: ATOM     44  H   UNL d   1     -10.059  -6.560  11.450 +0.03 -0.02    +0.167 HD
DOCKED: ENDBRANCH  41  43
DOCKED: ENDBRANCH  40  41
DOCKED: ENDBRANCH  39  40
DOCKED: ENDBRANCH  22  39
DOCKED: BRANCH  12  45
DOCKED: ATOM     45  C   UNL d   1      -8.009 -17.082   6.338 -0.06 -0.00    +0.004 C 
DOCKED: ATOM     46  C   UNL d   1      -7.283 -17.426   5.279 -0.11 -0.00    +0.012 C 
DOCKED: ENDBRANCH  12  45
DOCKED: BRANCH  17  47
DOCKED: ATOM     47  C   UNL d   1      -2.060 -12.627   8.754 -0.50 -0.00    +0.004 C 
DOCKED: ATOM     48  C   UNL d   1      -1.523 -11.405   8.710 -0.61 -0.00    +0.012 C 
DOCKED: ENDBRANCH  17  47
DOCKED: TORSDOF 12
DOCKED: TER
DOCKED: ENDMDL
________________________________________________________________________________


	BEGINNING GENETIC ALGORITHM DOCKING 81 of 100
Run: 81 Seed: 1286205764 667081557 [ Run 81 of 100 GA/GALS ]
Beginning LAMARCKIAN GENETIC ALGORITHM (LGA), with a maximum of 25000000 energy evaluations.

Final-Value: -9.762


	FINAL GENETIC ALGORITHM DOCKED STATE
	_______________________________________________


Detailed state:  trans -8.400 7.257 -14.875 quatxyzw 0.152326 0.453407 -0.262726 0.837970 center 8.781 34.984 -0.736 ntor 12 -52.7587 118.9904 137.2578 -88.7840 158.7193 88.5468 -126.9140 -25.9769 73.5714 -173.0214 160.3230 171.4494
State:	 -8.400   7.257 -14.875   0.279  0.831 -0.481 66.147    -52.76  118.99  137.26  -88.78  158.72   88.55 -126.91  -25.98   73.57 -173.02  160.32  171.45

DOCKED: MODEL       81
DOCKED: USER    Run = 81
DOCKED: USER    DPF = D:/Protein_go_brrr/autodock/final/mut_K82N/heme_Co/dock.dpf
DOCKED: USER  
DOCKED: USER    Estimated Free Energy of Binding    =   -4.18 kcal/mol  [=(1)+(2)+(3)-(4)]
DOCKED: USER    Estimated Inhibition Constant, Ki   =  859.41 uM (micromolar)  [Temperature = 298.15 K]
DOCKED: USER    
DOCKED: USER    (1) Final Intermolecular Energy     =   -7.76 kcal/mol
DOCKED: USER        vdW + Hbond + desolv Energy     =   -6.58 kcal/mol
DOCKED: USER        Electrostatic Energy            =   -1.18 kcal/mol
DOCKED: USER    (2) Final Total Internal Energy     =   -2.00 kcal/mol
DOCKED: USER    (3) Torsional Free Energy           =   +3.58 kcal/mol
DOCKED: USER    (4) Unbound System's Energy  [=(2)] =   -2.00 kcal/mol
DOCKED: USER    
DOCKED: USER    
DOCKED: USER    NEWDPF move heme_Co_opt.pdbqt
DOCKED: USER    NEWDPF about 8.781000 34.984000 -0.736000
DOCKED: USER    NEWDPF tran0 -8.399552 7.256694 -14.875032
DOCKED: USER    NEWDPF quaternion0 0.152326 0.453407 -0.262726 0.837970
DOCKED: USER    NEWDPF axisangle0 0.279130 0.830848 -0.481434 66.147217
DOCKED: USER    NEWDPF quat0 0.279130 0.830848 -0.481434 66.147217
DOCKED: USER    NEWDPF dihe0 -52.76 118.99 137.26 -88.78 158.72 88.55 -126.91 -25.98 73.57 -173.02 160.32 171.45 
DOCKED: USER  keepresnum = 1 
DOCKED: USER  
DOCKED: REMARK  12 active torsions:
DOCKED: REMARK  status: ('A' for Active; 'I' for Inactive)
DOCKED: REMARK    1  A    between atoms: C_6  and  C_10 
DOCKED: REMARK    2  A    between atoms: C_10  and  C_11 
DOCKED: REMARK    3  A    between atoms: C_11  and  C_12 
DOCKED: REMARK    4  A    between atoms: C_12  and  O_14 
DOCKED: REMARK    5  A    between atoms: C_17  and  C_20 
DOCKED: REMARK    6  A    between atoms: C_24  and  C_27 
DOCKED: REMARK    7  A    between atoms: C_31  and  C_34 
DOCKED: REMARK    8  A    between atoms: C_34  and  C_35 
DOCKED: REMARK    9  A    between atoms: C_35  and  C_36 
DOCKED: REMARK   10  A    between atoms: C_36  and  O_38 
DOCKED: REMARK   11  A    between atoms: FE_43  and  C_44 
DOCKED: REMARK   12  A    between atoms: C_44  and  O_45 
DOCKED: USER                              x       y       z     vdW  Elec       q    Type
DOCKED: USER                           _______ _______ _______ _____ _____    ______ ____
DOCKED: ROOT
DOCKED: ATOM      1  C   UNL d   1      -8.709   6.530 -16.898 -0.20 -0.00    +0.064 A 
DOCKED: ATOM      2  C   UNL d   1     -10.474   5.152 -12.703 -0.19 +0.02    +0.064 C 
DOCKED: ATOM      3  C   UNL d   1      -7.660   8.285 -10.447 -0.15 +0.00    +0.064 A 
DOCKED: ATOM      4  C   UNL d   1      -6.123   9.977 -14.741 -0.09 -0.01    +0.064 A 
DOCKED: ATOM      5  C   UNL d   1      -9.371   5.898 -15.915 -0.22 +0.01    +0.066 A 
DOCKED: ATOM      6  C   UNL d   1     -10.365   4.936 -16.182 -0.19 -0.01    -0.021 A 
DOCKED: ATOM      7  C   UNL d   1     -10.890   4.556 -14.962 -0.20 -0.01    -0.025 A 
DOCKED: ATOM      8  C   UNL d   1     -10.184   5.290 -14.003 -0.20 +0.01    +0.066 A 
DOCKED: ATOM      9  C   UNL d   1     -12.013   3.543 -14.694 -0.16 +0.04    +0.051 C 
DOCKED: ATOM     10  C   UNL d   1      -9.785   5.846 -11.644 -0.14 +0.01    +0.066 A 
DOCKED: ATOM     11  C   UNL d   1      -9.946   5.641 -10.256 -0.13 -0.01    -0.021 A 
DOCKED: ATOM     12  C   UNL d   1      -9.111   6.564  -9.622 -0.14 +0.00    +0.000 A 
DOCKED: ATOM     13  C   UNL d   1      -8.494   7.254 -10.666 -0.12 +0.01    +0.070 A 
DOCKED: ATOM     14  C   UNL d   1     -10.776   4.564  -9.604 -0.16 +0.03    +0.052 C 
DOCKED: ATOM     15  C   UNL d   1      -6.979   9.138 -11.402 -0.19 -0.00    +0.066 A 
DOCKED: ATOM     16  C   UNL d   1      -6.246  10.279 -11.111 -0.31 +0.00    -0.021 A 
DOCKED: ATOM     17  C   UNL d   1      -5.802  10.772 -12.347 -0.30 -0.00    +0.000 A 
DOCKED: ATOM     18  C   UNL d   1      -6.289   9.880 -13.296 -0.16 -0.01    +0.070 A 
DOCKED: ATOM     19  C   UNL d   1      -6.004  10.836  -9.726 -0.51 -0.01    +0.052 C 
DOCKED: ATOM     20  C   UNL d   1      -6.659   9.171 -15.689 -0.09 -0.01    +0.066 A 
DOCKED: ATOM     21  C   UNL d   1      -6.457   9.388 -17.050 -0.06 +0.00    -0.025 A 
DOCKED: ATOM     22  C   UNL d   1      -7.167   8.393 -17.696 -0.09 +0.00    -0.021 A 
DOCKED: ATOM     23  C   UNL d   1      -7.781   7.618 -16.689 -0.15 -0.01    +0.066 A 
DOCKED: ATOM     24  C   UNL d   1      -5.644  10.502 -17.705 -0.03 -0.01    +0.051 C 
DOCKED: ATOM     25  N   UNL d   1      -9.233   6.125 -14.565 -0.08 -0.03    -0.248 N 
DOCKED: ATOM     26  N   UNL d   1      -8.860   6.780 -11.887 -0.05 -0.03    -0.248 N 
DOCKED: ATOM     27  N   UNL d   1      -7.010   8.936 -12.701 -0.08 +0.01    -0.248 N 
DOCKED: ATOM     28  N   UNL d   1      -7.478   8.088 -15.472 -0.08 +0.02    -0.248 N 
DOCKED: ATOM     29 FE   UNL d   1      -8.054   7.615 -13.581 -0.04 +0.00    +0.000 Fe
DOCKED: ENDROOT
DOCKED: BRANCH   6  30
DOCKED: ATOM     30  C   UNL d   1     -10.835   4.472 -17.556 +0.14 +0.02    +0.052 C 
DOCKED: BRANCH  30  31
DOCKED: ATOM     31  C   UNL d   1     -12.298   4.855 -17.781 -0.11 +0.05    +0.115 C 
DOCKED: BRANCH  31  32
DOCKED: ATOM     32  C   UNL d   1     -13.221   3.657 -17.742 +0.05 +0.15    +0.139 C 
DOCKED: ATOM     33  O   UNL d   1     -13.906   3.457 -16.749 -0.61 -0.77    -0.650 OA
DOCKED: BRANCH  32  34
DOCKED: ATOM     34  O   UNL d   1     -13.353   2.817 -18.795 -0.11 -0.80    -0.776 OA
DOCKED: ATOM     35  H   UNL d   1     -13.617   3.096 -19.683 +0.01 +0.09    +0.167 HD
DOCKED: ENDBRANCH  32  34
DOCKED: ENDBRANCH  31  32
DOCKED: ENDBRANCH  30  31
DOCKED: ENDBRANCH   6  30
DOCKED: BRANCH  29  36
DOCKED: ATOM     36  C   UNL d   1      -9.718   8.880 -13.746 -0.04 +0.01    +0.190 C 
DOCKED: BRANCH  36  37
DOCKED: ATOM     37  O   UNL d   1     -10.518   9.552 -14.676 -0.00 -0.02    -0.399 OA
DOCKED: ATOM     38  H   UNL d   1     -10.187   9.249 -15.567 +0.02 +0.00    +0.209 HD
DOCKED: ENDBRANCH  36  37
DOCKED: ENDBRANCH  29  36
DOCKED: BRANCH  22  39
DOCKED: ATOM     39  C   UNL d   1      -7.297   8.239 -19.200 -0.07 -0.01    +0.052 C 
DOCKED: BRANCH  39  40
DOCKED: ATOM     40  C   UNL d   1      -8.475   9.072 -19.730 -0.01 -0.01    +0.115 C 
DOCKED: BRANCH  40  41
DOCKED: ATOM     41  C   UNL d   1      -9.206   9.868 -18.669 -0.01 -0.01    +0.139 C 
DOCKED: ATOM     42  O   UNL d   1      -9.136  11.089 -18.683 +0.00 +0.05    -0.650 OA
DOCKED: BRANCH  41  43
DOCKED: ATOM     43  O   UNL d   1     -10.005   9.271 -17.758 +0.01 +0.01    -0.776 OA
DOCKED: ATOM     44  H   UNL d   1     -10.067   9.575 -16.843 +0.01 -0.00    +0.167 HD
DOCKED: ENDBRANCH  41  43
DOCKED: ENDBRANCH  40  41
DOCKED: ENDBRANCH  39  40
DOCKED: ENDBRANCH  22  39
DOCKED: BRANCH  12  45
DOCKED: ATOM     45  C   UNL d   1      -8.812   6.861  -8.159 -0.18 +0.00    +0.004 C 
DOCKED: ATOM     46  C   UNL d   1      -9.310   7.787  -7.343 -0.19 +0.01    +0.012 C 
DOCKED: ENDBRANCH  12  45
DOCKED: BRANCH  17  47
DOCKED: ATOM     47  C   UNL d   1      -5.025  12.009 -12.657 -0.50 -0.00    +0.004 C 
DOCKED: ATOM     48  C   UNL d   1      -4.014  12.045 -13.529 -0.49 -0.00    +0.012 C 
DOCKED: ENDBRANCH  17  47
DOCKED: TORSDOF 12
DOCKED: TER
DOCKED: ENDMDL
________________________________________________________________________________


	BEGINNING GENETIC ALGORITHM DOCKING 82 of 100
Run: 82 Seed: 1914229468 1025168974 [ Run 82 of 100 GA/GALS ]
Beginning LAMARCKIAN GENETIC ALGORITHM (LGA), with a maximum of 25000000 energy evaluations.

Final-Value: -10.353


	FINAL GENETIC ALGORITHM DOCKED STATE
	_______________________________________________


Detailed state:  trans -9.053 11.364 -11.252 quatxyzw -0.948316 0.135902 0.286734 -0.003175 center 8.781 34.984 -0.736 ntor 12 -145.3095 116.7616 20.3585 116.2627 37.1853 152.9566 47.1385 -91.0025 163.1219 -61.4191 15.8934 168.2154
State:	 -9.053  11.364 -11.252  -0.948  0.136  0.287 -179.636   -145.31  116.76   20.36  116.26   37.19  152.96   47.14  -91.00  163.12  -61.42   15.89  168.22

DOCKED: MODEL       82
DOCKED: USER    Run = 82
DOCKED: USER    DPF = D:/Protein_go_brrr/autodock/final/mut_K82N/heme_Co/dock.dpf
DOCKED: USER  
DOCKED: USER    Estimated Free Energy of Binding    =   -5.90 kcal/mol  [=(1)+(2)+(3)-(4)]
DOCKED: USER    Estimated Inhibition Constant, Ki   =   47.33 uM (micromolar)  [Temperature = 298.15 K]
DOCKED: USER    
DOCKED: USER    (1) Final Intermolecular Energy     =   -9.48 kcal/mol
DOCKED: USER        vdW + Hbond + desolv Energy     =   -6.40 kcal/mol
DOCKED: USER        Electrostatic Energy            =   -3.08 kcal/mol
DOCKED: USER    (2) Final Total Internal Energy     =   -0.87 kcal/mol
DOCKED: USER    (3) Torsional Free Energy           =   +3.58 kcal/mol
DOCKED: USER    (4) Unbound System's Energy  [=(2)] =   -0.87 kcal/mol
DOCKED: USER    
DOCKED: USER    
DOCKED: USER    NEWDPF move heme_Co_opt.pdbqt
DOCKED: USER    NEWDPF about 8.781000 34.984000 -0.736000
DOCKED: USER    NEWDPF tran0 -9.053432 11.364025 -11.251641
DOCKED: USER    NEWDPF quaternion0 -0.948316 0.135902 0.286734 -0.003175
DOCKED: USER    NEWDPF axisangle0 -0.948321 0.135903 0.286736 -179.636140
DOCKED: USER    NEWDPF quat0 -0.948321 0.135903 0.286736 -179.636140
DOCKED: USER    NEWDPF dihe0 -145.31 116.76 20.36 116.26 37.19 152.96 47.14 -91.00 163.12 -61.42 15.89 168.22 
DOCKED: USER  keepresnum = 1 
DOCKED: USER  
DOCKED: REMARK  12 active torsions:
DOCKED: REMARK  status: ('A' for Active; 'I' for Inactive)
DOCKED: REMARK    1  A    between atoms: C_6  and  C_10 
DOCKED: REMARK    2  A    between atoms: C_10  and  C_11 
DOCKED: REMARK    3  A    between atoms: C_11  and  C_12 
DOCKED: REMARK    4  A    between atoms: C_12  and  O_14 
DOCKED: REMARK    5  A    between atoms: C_17  and  C_20 
DOCKED: REMARK    6  A    between atoms: C_24  and  C_27 
DOCKED: REMARK    7  A    between atoms: C_31  and  C_34 
DOCKED: REMARK    8  A    between atoms: C_34  and  C_35 
DOCKED: REMARK    9  A    between atoms: C_35  and  C_36 
DOCKED: REMARK   10  A    between atoms: C_36  and  O_38 
DOCKED: REMARK   11  A    between atoms: FE_43  and  C_44 
DOCKED: REMARK   12  A    between atoms: C_44  and  O_45 
DOCKED: USER                              x       y       z     vdW  Elec       q    Type
DOCKED: USER                           _______ _______ _______ _____ _____    ______ ____
DOCKED: ROOT
DOCKED: ATOM      1  C   UNL d   1     -10.267  11.307  -9.452 -0.12 +0.02    +0.064 A 
DOCKED: ATOM      2  C   UNL d   1     -10.599  13.860 -13.449 -0.06 +0.01    +0.064 C 
DOCKED: ATOM      3  C   UNL d   1      -6.476  12.019 -15.012 -0.09 -0.01    +0.064 A 
DOCKED: ATOM      4  C   UNL d   1      -6.311   9.114 -11.114 -0.24 -0.01    +0.064 A 
DOCKED: ATOM      5  C   UNL d   1     -10.642  12.167 -10.413 -0.09 +0.02    +0.066 A 
DOCKED: ATOM      6  C   UNL d   1     -11.863  12.867 -10.355 -0.08 -0.01    -0.021 A 
DOCKED: ATOM      7  C   UNL d   1     -11.964  13.589 -11.528 -0.06 -0.01    -0.025 A 
DOCKED: ATOM      8  C   UNL d   1     -10.795  13.312 -12.244 -0.04 +0.02    +0.066 A 
DOCKED: ATOM      9  C   UNL d   1     -13.113  14.508 -11.972 -0.02 +0.01    +0.051 C 
DOCKED: ATOM     10  C   UNL d   1      -9.416  13.654 -14.247 -0.05 +0.01    +0.066 A 
DOCKED: ATOM     11  C   UNL d   1      -9.087  14.310 -15.454 -0.05 +0.00    -0.021 A 
DOCKED: ATOM     12  C   UNL d   1      -7.879  13.756 -15.886 -0.06 -0.00    +0.000 A 
DOCKED: ATOM     13  C   UNL d   1      -7.554  12.817 -14.907 -0.08 -0.01    +0.070 A 
DOCKED: ATOM     14  C   UNL d   1      -9.843  15.452 -16.083 -0.02 -0.00    +0.052 C 
DOCKED: ATOM     15  C   UNL d   1      -6.022  10.965 -14.127 -0.14 -0.01    +0.066 A 
DOCKED: ATOM     16  C   UNL d   1      -4.981  10.079 -14.367 -0.20 +0.00    -0.021 A 
DOCKED: ATOM     17  C   UNL d   1      -4.931   9.238 -13.247 -0.24 -0.00    +0.000 A 
DOCKED: ATOM     18  C   UNL d   1      -5.939   9.689 -12.400 -0.21 -0.01    +0.070 A 
DOCKED: ATOM     19  C   UNL d   1      -4.109  10.066 -15.603 -0.18 -0.02    +0.052 C 
DOCKED: ATOM     20  C   UNL d   1      -7.341   9.480 -10.314 -0.22 +0.00    +0.066 A 
DOCKED: ATOM     21  C   UNL d   1      -7.621   8.827  -9.116 -0.25 -0.00    -0.025 A 
DOCKED: ATOM     22  C   UNL d   1      -8.739   9.457  -8.600 -0.20 -0.00    -0.021 A 
DOCKED: ATOM     23  C   UNL d   1      -9.096  10.463  -9.523 -0.15 +0.01    +0.066 A 
DOCKED: ATOM     24  C   UNL d   1      -6.873   7.647  -8.502 -0.26 +0.00    +0.051 C 
DOCKED: ATOM     25  N   UNL d   1      -9.955  12.438 -11.574 +0.10 -0.10    -0.248 N 
DOCKED: ATOM     26  N   UNL d   1      -8.455  12.796 -13.889 -0.06 -0.02    -0.248 N 
DOCKED: ATOM     27  N   UNL d   1      -6.587  10.699 -12.970 -0.11 +0.02    -0.248 N 
DOCKED: ATOM     28  N   UNL d   1      -8.254  10.479 -10.563 -0.10 -0.05    -0.248 N 
DOCKED: ATOM     29 FE   UNL d   1      -8.171  11.515 -12.310 -0.04 +0.00    +0.000 Fe
DOCKED: ENDROOT
DOCKED: BRANCH   6  30
DOCKED: ATOM     30  C   UNL d   1     -12.913  12.774  -9.253 -0.04 +0.01    +0.052 C 
DOCKED: BRANCH  30  31
DOCKED: ATOM     31  C   UNL d   1     -12.793  13.958  -8.295 -0.09 +0.05    +0.115 C 
DOCKED: BRANCH  31  32
DOCKED: ATOM     32  C   UNL d   1     -11.447  14.643  -8.388 -0.19 +0.13    +0.139 C 
DOCKED: ATOM     33  O   UNL d   1     -10.494  14.182  -7.778 -0.20 -0.61    -0.650 OA
DOCKED: BRANCH  32  34
DOCKED: ATOM     34  O   UNL d   1     -11.248  15.730  -9.169 -0.13 -1.06    -0.776 OA
DOCKED: ATOM     35  H   UNL d   1     -10.407  15.947  -9.596 -0.24 +0.22    +0.167 HD
DOCKED: ENDBRANCH  32  34
DOCKED: ENDBRANCH  31  32
DOCKED: ENDBRANCH  30  31
DOCKED: ENDBRANCH   6  30
DOCKED: BRANCH  29  36
DOCKED: ATOM     36  C   UNL d   1      -9.416  10.104 -13.233 -0.04 +0.01    +0.190 C 
DOCKED: BRANCH  36  37
DOCKED: ATOM     37  O   UNL d   1     -10.756   9.734 -13.391 -0.00 -0.03    -0.399 OA
DOCKED: ATOM     38  H   UNL d   1     -11.274  10.438 -12.910 +0.01 +0.02    +0.209 HD
DOCKED: ENDBRANCH  36  37
DOCKED: ENDBRANCH  29  36
DOCKED: BRANCH  22  39
DOCKED: ATOM     39  C   UNL d   1      -9.459   9.065  -7.324 -0.23 +0.02    +0.052 C 
DOCKED: BRANCH  39  40
DOCKED: ATOM     40  C   UNL d   1     -10.566   8.039  -7.618 -0.11 +0.05    +0.115 C 
DOCKED: BRANCH  40  41
DOCKED: ATOM     41  C   UNL d   1     -10.314   6.664  -7.037 -0.11 +0.15    +0.139 C 
DOCKED: ATOM     42  O   UNL d   1      -9.955   6.563  -5.872 -0.42 -0.83    -0.650 OA
DOCKED: BRANCH  41  43
DOCKED: ATOM     43  O   UNL d   1     -10.560   5.538  -7.743 -0.20 -1.23    -0.776 OA
DOCKED: ATOM     44  H   UNL d   1     -10.535   5.516  -8.709 +0.03 +0.15    +0.167 HD
DOCKED: ENDBRANCH  41  43
DOCKED: ENDBRANCH  40  41
DOCKED: ENDBRANCH  39  40
DOCKED: ENDBRANCH  22  39
DOCKED: BRANCH  12  45
DOCKED: ATOM     45  C   UNL d   1      -6.989  14.019 -17.093 -0.05 -0.00    +0.004 C 
DOCKED: ATOM     46  C   UNL d   1      -5.804  14.617 -17.182 -0.09 -0.01    +0.012 C 
DOCKED: ENDBRANCH  12  45
DOCKED: BRANCH  17  47
DOCKED: ATOM     47  C   UNL d   1      -4.054   8.059 -12.977 -0.46 -0.00    +0.004 C 
DOCKED: ATOM     48  C   UNL d   1      -2.944   7.793 -13.669 -0.53 -0.00    +0.012 C 
DOCKED: ENDBRANCH  17  47
DOCKED: TORSDOF 12
DOCKED: TER
DOCKED: ENDMDL
________________________________________________________________________________


	BEGINNING GENETIC ALGORITHM DOCKING 83 of 100
Run: 83 Seed: 2115611038 2068422072 [ Run 83 of 100 GA/GALS ]
Beginning LAMARCKIAN GENETIC ALGORITHM (LGA), with a maximum of 25000000 energy evaluations.

Final-Value: -10.121


	FINAL GENETIC ALGORITHM DOCKED STATE
	_______________________________________________


Detailed state:  trans 7.734 15.425 -11.659 quatxyzw 0.463773 0.787178 0.050388 0.403395 center 8.781 34.984 -0.736 ntor 12 29.9346 94.4430 -141.3009 77.1599 100.2372 142.0594 26.5844 163.5889 -172.4237 113.6827 -176.4347 180.0000
State:	  7.734  15.425 -11.659   0.507  0.860  0.055 132.419     29.93   94.44 -141.30   77.16  100.24  142.06   26.58  163.59 -172.42  113.68 -176.43  180.00

DOCKED: MODEL       83
DOCKED: USER    Run = 83
DOCKED: USER    DPF = D:/Protein_go_brrr/autodock/final/mut_K82N/heme_Co/dock.dpf
DOCKED: USER  
DOCKED: USER    Estimated Free Energy of Binding    =   -3.23 kcal/mol  [=(1)+(2)+(3)-(4)]
DOCKED: USER    Estimated Inhibition Constant, Ki   =    4.31 mM (millimolar)  [Temperature = 298.15 K]
DOCKED: USER    
DOCKED: USER    (1) Final Intermolecular Energy     =   -6.81 kcal/mol
DOCKED: USER        vdW + Hbond + desolv Energy     =   -6.86 kcal/mol
DOCKED: USER        Electrostatic Energy            =   +0.05 kcal/mol
DOCKED: USER    (2) Final Total Internal Energy     =   -3.31 kcal/mol
DOCKED: USER    (3) Torsional Free Energy           =   +3.58 kcal/mol
DOCKED: USER    (4) Unbound System's Energy  [=(2)] =   -3.31 kcal/mol
DOCKED: USER    
DOCKED: USER    
DOCKED: USER    NEWDPF move heme_Co_opt.pdbqt
DOCKED: USER    NEWDPF about 8.781000 34.984000 -0.736000
DOCKED: USER    NEWDPF tran0 7.734267 15.424699 -11.659112
DOCKED: USER    NEWDPF quaternion0 0.463773 0.787178 0.050388 0.403395
DOCKED: USER    NEWDPF axisangle0 0.506841 0.860279 0.055067 132.418883
DOCKED: USER    NEWDPF quat0 0.506841 0.860279 0.055067 132.418883
DOCKED: USER    NEWDPF dihe0 29.93 94.44 -141.30 77.16 100.24 142.06 26.58 163.59 -172.42 113.68 -176.43 180.00 
DOCKED: USER  keepresnum = 1 
DOCKED: USER  
DOCKED: REMARK  12 active torsions:
DOCKED: REMARK  status: ('A' for Active; 'I' for Inactive)
DOCKED: REMARK    1  A    between atoms: C_6  and  C_10 
DOCKED: REMARK    2  A    between atoms: C_10  and  C_11 
DOCKED: REMARK    3  A    between atoms: C_11  and  C_12 
DOCKED: REMARK    4  A    between atoms: C_12  and  O_14 
DOCKED: REMARK    5  A    between atoms: C_17  and  C_20 
DOCKED: REMARK    6  A    between atoms: C_24  and  C_27 
DOCKED: REMARK    7  A    between atoms: C_31  and  C_34 
DOCKED: REMARK    8  A    between atoms: C_34  and  C_35 
DOCKED: REMARK    9  A    between atoms: C_35  and  C_36 
DOCKED: REMARK   10  A    between atoms: C_36  and  O_38 
DOCKED: REMARK   11  A    between atoms: FE_43  and  C_44 
DOCKED: REMARK   12  A    between atoms: C_44  and  O_45 
DOCKED: USER                              x       y       z     vdW  Elec       q    Type
DOCKED: USER                           _______ _______ _______ _____ _____    ______ ____
DOCKED: ROOT
DOCKED: ATOM      1  C   UNL d   1       9.092  13.987 -12.557 -0.14 +0.01    +0.064 A 
DOCKED: ATOM      2  C   UNL d   1       4.536  15.047 -13.414 -0.22 -0.01    +0.064 C 
DOCKED: ATOM      3  C   UNL d   1       4.504  18.069  -9.714 +0.04 -0.03    +0.064 A 
DOCKED: ATOM      4  C   UNL d   1       9.261  17.294  -9.056 -0.10 -0.00    +0.064 A 
DOCKED: ATOM      5  C   UNL d   1       7.839  14.027 -13.040 -0.20 +0.01    +0.066 A 
DOCKED: ATOM      6  C   UNL d   1       7.461  13.315 -14.195 -0.22 -0.00    -0.021 A 
DOCKED: ATOM      7  C   UNL d   1       6.145  13.644 -14.453 -0.22 -0.00    -0.025 A 
DOCKED: ATOM      8  C   UNL d   1       5.771  14.529 -13.436 -0.25 +0.00    +0.066 A 
DOCKED: ATOM      9  C   UNL d   1       5.259  13.153 -15.608 -0.07 +0.01    +0.051 C 
DOCKED: ATOM     10  C   UNL d   1       4.054  15.943 -12.394 -0.25 -0.01    +0.066 A 
DOCKED: ATOM     11  C   UNL d   1       2.731  16.410 -12.237 -0.29 +0.01    -0.021 A 
DOCKED: ATOM     12  C   UNL d   1       2.749  17.286 -11.148 -0.28 -0.00    +0.000 A 
DOCKED: ATOM     13  C   UNL d   1       4.075  17.280 -10.715 -0.22 -0.02    +0.070 A 
DOCKED: ATOM     14  C   UNL d   1       1.527  15.960 -13.025 -0.32 -0.03    +0.052 C 
DOCKED: ATOM     15  C   UNL d   1       5.840  18.228  -9.176 -0.20 -0.02    +0.066 A 
DOCKED: ATOM     16  C   UNL d   1       6.243  19.168  -8.238 -0.22 +0.01    -0.021 A 
DOCKED: ATOM     17  C   UNL d   1       7.615  18.950  -8.046 -0.17 -0.00    +0.000 A 
DOCKED: ATOM     18  C   UNL d   1       7.938  17.879  -8.873 -0.13 -0.01    +0.070 A 
DOCKED: ATOM     19  C   UNL d   1       5.347  20.197  -7.586 -0.28 -0.02    +0.052 C 
DOCKED: ATOM     20  C   UNL d   1       9.615  16.311  -9.917 -0.17 -0.00    +0.066 A 
DOCKED: ATOM     21  C   UNL d   1      10.928  15.857 -10.028 -0.17 -0.00    -0.025 A 
DOCKED: ATOM     22  C   UNL d   1      10.904  14.883 -11.009 -0.21 -0.00    -0.021 A 
DOCKED: ATOM     23  C   UNL d   1       9.570  14.799 -11.461 -0.23 +0.00    +0.066 A 
DOCKED: ATOM     24  C   UNL d   1      12.149  16.341  -9.251 -0.12 -0.00    +0.051 C 
DOCKED: ATOM     25  N   UNL d   1       6.800  14.780 -12.543 -0.18 -0.00    -0.248 N 
DOCKED: ATOM     26  N   UNL d   1       4.851  16.425 -11.434 -0.17 +0.05    -0.248 N 
DOCKED: ATOM     27  N   UNL d   1       6.864  17.495  -9.553 -0.17 +0.05    -0.248 N 
DOCKED: ATOM     28  N   UNL d   1       8.787  15.663 -10.804 -0.19 +0.00    -0.248 N 
DOCKED: ATOM     29 FE   UNL d   1       6.837  16.217 -10.958 -0.05 -0.00    +0.000 Fe
DOCKED: ENDROOT
DOCKED: BRANCH   6  30
DOCKED: ATOM     30  C   UNL d   1       8.358  12.427 -15.051 -0.17 +0.02    +0.052 C 
DOCKED: BRANCH  30  31
DOCKED: ATOM     31  C   UNL d   1       8.980  13.231 -16.192 -0.04 +0.01    +0.115 C 
DOCKED: BRANCH  31  32
DOCKED: ATOM     32  C   UNL d   1       8.661  14.708 -16.098 -0.02 +0.00    +0.139 C 
DOCKED: ATOM     33  O   UNL d   1       7.807  15.186 -16.830 +0.02 +0.01    -0.650 OA
DOCKED: BRANCH  32  34
DOCKED: ATOM     34  O   UNL d   1       9.259  15.515 -15.192 +0.03 +0.01    -0.776 OA
DOCKED: ATOM     35  H   UNL d   1      10.131  15.349 -14.807 +0.01 -0.00    +0.167 HD
DOCKED: ENDBRANCH  32  34
DOCKED: ENDBRANCH  31  32
DOCKED: ENDBRANCH  30  31
DOCKED: ENDBRANCH   6  30
DOCKED: BRANCH  29  36
DOCKED: ATOM     36  C   UNL d   1       7.333  17.642 -12.414 -0.04 -0.02    +0.190 C 
DOCKED: BRANCH  36  37
DOCKED: ATOM     37  O   UNL d   1       7.752  17.779 -13.741 +0.00 +0.03    -0.399 OA
DOCKED: ATOM     38  H   UNL d   1       8.128  16.888 -13.985 +0.02 -0.01    +0.209 HD
DOCKED: ENDBRANCH  36  37
DOCKED: ENDBRANCH  29  36
DOCKED: BRANCH  22  39
DOCKED: ATOM     39  C   UNL d   1      12.113  14.125 -11.526 -0.15 +0.00    +0.052 C 
DOCKED: BRANCH  39  40
DOCKED: ATOM     40  C   UNL d   1      12.914  14.989 -12.514 -0.03 -0.00    +0.115 C 
DOCKED: BRANCH  40  41
DOCKED: ATOM     41  C   UNL d   1      12.240  15.190 -13.855 -0.02 -0.00    +0.139 C 
DOCKED: ATOM     42  O   UNL d   1      11.951  14.213 -14.532 +0.02 +0.00    -0.650 OA
DOCKED: BRANCH  41  43
DOCKED: ATOM     43  O   UNL d   1      11.870  16.416 -14.288 +0.01 +0.03    -0.776 OA
DOCKED: ATOM     44  H   UNL d   1      11.008  16.586 -14.690 +0.00 -0.01    +0.167 HD
DOCKED: ENDBRANCH  41  43
DOCKED: ENDBRANCH  40  41
DOCKED: ENDBRANCH  39  40
DOCKED: ENDBRANCH  22  39
DOCKED: BRANCH  12  45
DOCKED: ATOM     45  C   UNL d   1       1.669  18.109 -10.460 -0.32 -0.00    +0.004 C 
DOCKED: ATOM     46  C   UNL d   1       0.628  17.729  -9.724 -0.49 -0.00    +0.012 C 
DOCKED: ENDBRANCH  12  45
DOCKED: BRANCH  17  47
DOCKED: ATOM     47  C   UNL d   1       8.592  19.700  -7.201 -0.12 -0.00    +0.004 C 
DOCKED: ATOM     48  C   UNL d   1       8.694  19.545  -5.879 -0.17 -0.00    +0.012 C 
DOCKED: ENDBRANCH  17  47
DOCKED: TORSDOF 12
DOCKED: TER
DOCKED: ENDMDL
________________________________________________________________________________


	BEGINNING GENETIC ALGORITHM DOCKING 84 of 100
Run: 84 Seed: 20854745 71369326 [ Run 84 of 100 GA/GALS ]
Beginning LAMARCKIAN GENETIC ALGORITHM (LGA), with a maximum of 25000000 energy evaluations.

Final-Value: -9.798


	FINAL GENETIC ALGORITHM DOCKED STATE
	_______________________________________________


Detailed state:  trans -8.661 10.095 -11.241 quatxyzw 0.920640 0.098219 -0.357919 0.121116 center 8.781 34.984 -0.736 ntor 12 139.1196 120.1559 -80.6894 120.8508 -107.6457 115.9764 -93.0099 -178.8384 -90.9253 47.8181 168.6922 170.2553
State:	 -8.661  10.095 -11.241   0.927  0.099 -0.361 166.087    139.12  120.16  -80.69  120.85 -107.65  115.98  -93.01 -178.84  -90.93   47.82  168.69  170.26

DOCKED: MODEL       84
DOCKED: USER    Run = 84
DOCKED: USER    DPF = D:/Protein_go_brrr/autodock/final/mut_K82N/heme_Co/dock.dpf
DOCKED: USER  
DOCKED: USER    Estimated Free Energy of Binding    =   -3.82 kcal/mol  [=(1)+(2)+(3)-(4)]
DOCKED: USER    Estimated Inhibition Constant, Ki   =    1.59 mM (millimolar)  [Temperature = 298.15 K]
DOCKED: USER    
DOCKED: USER    (1) Final Intermolecular Energy     =   -7.40 kcal/mol
DOCKED: USER        vdW + Hbond + desolv Energy     =   -5.34 kcal/mol
DOCKED: USER        Electrostatic Energy            =   -2.06 kcal/mol
DOCKED: USER    (2) Final Total Internal Energy     =   -2.40 kcal/mol
DOCKED: USER    (3) Torsional Free Energy           =   +3.58 kcal/mol
DOCKED: USER    (4) Unbound System's Energy  [=(2)] =   -2.40 kcal/mol
DOCKED: USER    
DOCKED: USER    
DOCKED: USER    NEWDPF move heme_Co_opt.pdbqt
DOCKED: USER    NEWDPF about 8.781000 34.984000 -0.736000
DOCKED: USER    NEWDPF tran0 -8.661282 10.095257 -11.241373
DOCKED: USER    NEWDPF quaternion0 0.920640 0.098219 -0.357919 0.121116
DOCKED: USER    NEWDPF axisangle0 0.927467 0.098948 -0.360574 166.086978
DOCKED: USER    NEWDPF quat0 0.927467 0.098948 -0.360574 166.086978
DOCKED: USER    NEWDPF dihe0 139.12 120.16 -80.69 120.85 -107.65 115.98 -93.01 -178.84 -90.93 47.82 168.69 170.26 
DOCKED: USER  keepresnum = 1 
DOCKED: USER  
DOCKED: REMARK  12 active torsions:
DOCKED: REMARK  status: ('A' for Active; 'I' for Inactive)
DOCKED: REMARK    1  A    between atoms: C_6  and  C_10 
DOCKED: REMARK    2  A    between atoms: C_10  and  C_11 
DOCKED: REMARK    3  A    between atoms: C_11  and  C_12 
DOCKED: REMARK    4  A    between atoms: C_12  and  O_14 
DOCKED: REMARK    5  A    between atoms: C_17  and  C_20 
DOCKED: REMARK    6  A    between atoms: C_24  and  C_27 
DOCKED: REMARK    7  A    between atoms: C_31  and  C_34 
DOCKED: REMARK    8  A    between atoms: C_34  and  C_35 
DOCKED: REMARK    9  A    between atoms: C_35  and  C_36 
DOCKED: REMARK   10  A    between atoms: C_36  and  O_38 
DOCKED: REMARK   11  A    between atoms: FE_43  and  C_44 
DOCKED: REMARK   12  A    between atoms: C_44  and  O_45 
DOCKED: USER                              x       y       z     vdW  Elec       q    Type
DOCKED: USER                           _______ _______ _______ _____ _____    ______ ____
DOCKED: ROOT
DOCKED: ATOM      1  C   UNL d   1      -9.436   8.973  -9.551 -0.08 +0.01    +0.064 A 
DOCKED: ATOM      2  C   UNL d   1     -11.324  12.411 -12.239 -0.06 +0.01    +0.064 C 
DOCKED: ATOM      3  C   UNL d   1      -7.183  12.917 -14.568 -0.13 -0.01    +0.064 A 
DOCKED: ATOM      4  C   UNL d   1      -5.349   9.148 -12.099 -0.02 -0.02    +0.064 A 
DOCKED: ATOM      5  C   UNL d   1     -10.245   9.900 -10.090 -0.06 +0.01    +0.066 A 
DOCKED: ATOM      6  C   UNL d   1     -11.597  10.021  -9.714 -0.02 -0.00    -0.021 A 
DOCKED: ATOM      7  C   UNL d   1     -12.146  11.005 -10.513 -0.02 -0.00    -0.025 A 
DOCKED: ATOM      8  C   UNL d   1     -11.103  11.453 -11.331 -0.05 +0.01    +0.066 A 
DOCKED: ATOM      9  C   UNL d   1     -13.596  11.514 -10.519 -0.00 +0.01    +0.051 C 
DOCKED: ATOM     10  C   UNL d   1     -10.307  12.953 -13.105 -0.04 +0.01    +0.066 A 
DOCKED: ATOM     11  C   UNL d   1     -10.442  14.053 -13.980 -0.05 -0.00    -0.021 A 
DOCKED: ATOM     12  C   UNL d   1      -9.219  14.181 -14.643 -0.07 +0.00    +0.000 A 
DOCKED: ATOM     13  C   UNL d   1      -8.426  13.161 -14.117 -0.02 +0.00    +0.070 A 
DOCKED: ATOM     14  C   UNL d   1     -11.637  14.966 -14.087 -0.03 +0.00    +0.052 C 
DOCKED: ATOM     15  C   UNL d   1      -6.250  11.879 -14.177 -0.17 -0.01    +0.066 A 
DOCKED: ATOM     16  C   UNL d   1      -5.035  11.593 -14.784 -0.20 +0.01    -0.021 A 
DOCKED: ATOM     17  C   UNL d   1      -4.504  10.504 -14.077 -0.28 -0.00    +0.000 A 
DOCKED: ATOM     18  C   UNL d   1      -5.432  10.223 -13.080 -0.23 -0.01    +0.070 A 
DOCKED: ATOM     19  C   UNL d   1      -4.450  12.332 -15.966 -0.18 -0.03    +0.052 C 
DOCKED: ATOM     20  C   UNL d   1      -6.278   8.801 -11.177 -0.23 -0.01    +0.066 A 
DOCKED: ATOM     21  C   UNL d   1      -6.101   7.723 -10.312 -0.29 +0.00    -0.025 A 
DOCKED: ATOM     22  C   UNL d   1      -7.250   7.667  -9.545 -0.23 -0.00    -0.021 A 
DOCKED: ATOM     23  C   UNL d   1      -8.084   8.713  -9.993 -0.14 +0.01    +0.066 A 
DOCKED: ATOM     24  C   UNL d   1      -4.903   6.781 -10.232 -0.38 -0.00    +0.051 C 
DOCKED: ATOM     25  N   UNL d   1      -9.912  10.790 -11.086 -0.06 -0.06    -0.248 N 
DOCKED: ATOM     26  N   UNL d   1      -9.067  12.455 -13.147 -0.02 -0.04    -0.248 N 
DOCKED: ATOM     27  N   UNL d   1      -6.472  11.042 -13.189 -0.12 +0.02    -0.248 N 
DOCKED: ATOM     28  N   UNL d   1      -7.501   9.401 -10.982 -0.09 -0.01    -0.248 N 
DOCKED: ATOM     29 FE   UNL d   1      -8.089  10.921 -12.197 -0.04 +0.00    +0.000 Fe
DOCKED: ENDROOT
DOCKED: BRANCH   6  30
DOCKED: ATOM     30  C   UNL d   1     -12.336   9.167  -8.689 -0.01 +0.01    +0.052 C 
DOCKED: BRANCH  30  31
DOCKED: ATOM     31  C   UNL d   1     -13.299   8.206  -9.385 +0.01 +0.03    +0.115 C 
DOCKED: BRANCH  31  32
DOCKED: ATOM     32  C   UNL d   1     -12.631   6.906  -9.780 -0.01 +0.05    +0.139 C 
DOCKED: ATOM     33  O   UNL d   1     -13.219   5.850  -9.601 +0.02 -0.29    -0.650 OA
DOCKED: BRANCH  32  34
DOCKED: ATOM     34  O   UNL d   1     -11.416   6.875 -10.374 +0.04 -0.24    -0.776 OA
DOCKED: ATOM     35  H   UNL d   1     -10.703   6.271 -10.123 +0.03 +0.06    +0.167 HD
DOCKED: ENDBRANCH  32  34
DOCKED: ENDBRANCH  31  32
DOCKED: ENDBRANCH  30  31
DOCKED: ENDBRANCH   6  30
DOCKED: BRANCH  29  36
DOCKED: ATOM     36  C   UNL d   1      -8.939   9.551 -13.538 -0.04 +0.01    +0.190 C 
DOCKED: BRANCH  36  37
DOCKED: ATOM     37  O   UNL d   1      -9.738   8.405 -13.602 -0.02 -0.03    -0.399 OA
DOCKED: ATOM     38  H   UNL d   1     -10.059   8.263 -12.668 +0.03 +0.02    +0.209 HD
DOCKED: ENDBRANCH  36  37
DOCKED: ENDBRANCH  29  36
DOCKED: BRANCH  22  39
DOCKED: ATOM     39  C   UNL d   1      -7.552   6.621  -8.488 -0.11 +0.01    +0.052 C 
DOCKED: BRANCH  39  40
DOCKED: ATOM     40  C   UNL d   1      -8.243   5.399  -9.115 -0.22 +0.04    +0.115 C 
DOCKED: BRANCH  40  41
DOCKED: ATOM     41  C   UNL d   1      -9.395   4.847  -8.302 -0.15 +0.13    +0.139 C 
DOCKED: ATOM     42  O   UNL d   1      -9.290   4.779  -7.085 -0.51 -1.12    -0.650 OA
DOCKED: BRANCH  41  43
DOCKED: ATOM     43  O   UNL d   1     -10.570   4.507  -8.875 -0.01 -0.77    -0.776 OA
DOCKED: ATOM     44  H   UNL d   1     -11.211   5.164  -9.177 +0.03 +0.13    +0.167 HD
DOCKED: ENDBRANCH  41  43
DOCKED: ENDBRANCH  40  41
DOCKED: ENDBRANCH  39  40
DOCKED: ENDBRANCH  22  39
DOCKED: BRANCH  12  45
DOCKED: ATOM     45  C   UNL d   1      -8.704  15.156 -15.693 -0.06 -0.00    +0.004 C 
DOCKED: ATOM     46  C   UNL d   1      -7.766  16.096 -15.617 -0.10 -0.00    +0.012 C 
DOCKED: ENDBRANCH  12  45
DOCKED: BRANCH  17  47
DOCKED: ATOM     47  C   UNL d   1      -3.251   9.729 -14.321 -0.42 -0.00    +0.004 C 
DOCKED: ATOM     48  C   UNL d   1      -3.212   8.397 -14.397 -0.49 -0.00    +0.012 C 
DOCKED: ENDBRANCH  17  47
DOCKED: TORSDOF 12
DOCKED: TER
DOCKED: ENDMDL
________________________________________________________________________________


	BEGINNING GENETIC ALGORITHM DOCKING 85 of 100
Run: 85 Seed: 2007342877 1245249533 [ Run 85 of 100 GA/GALS ]
Beginning LAMARCKIAN GENETIC ALGORITHM (LGA), with a maximum of 25000000 energy evaluations.

Final-Value: -11.110


	FINAL GENETIC ALGORITHM DOCKED STATE
	_______________________________________________


Detailed state:  trans -8.477 6.928 -12.599 quatxyzw -0.467017 0.536433 0.479730 -0.513802 center 8.781 34.984 -0.736 ntor 12 -74.8625 103.6176 -23.0639 111.2769 109.3075 141.2319 -117.0669 -159.8937 -10.9444 17.7539 -164.3082 147.2366
State:	 -8.477   6.928 -12.599  -0.544  0.625  0.559 -118.165    -74.86  103.62  -23.06  111.28  109.31  141.23 -117.07 -159.89  -10.94   17.75 -164.31  147.24

DOCKED: MODEL       85
DOCKED: USER    Run = 85
DOCKED: USER    DPF = D:/Protein_go_brrr/autodock/final/mut_K82N/heme_Co/dock.dpf
DOCKED: USER  
DOCKED: USER    Estimated Free Energy of Binding    =   -5.86 kcal/mol  [=(1)+(2)+(3)-(4)]
DOCKED: USER    Estimated Inhibition Constant, Ki   =   50.47 uM (micromolar)  [Temperature = 298.15 K]
DOCKED: USER    
DOCKED: USER    (1) Final Intermolecular Energy     =   -9.44 kcal/mol
DOCKED: USER        vdW + Hbond + desolv Energy     =   -6.46 kcal/mol
DOCKED: USER        Electrostatic Energy            =   -2.98 kcal/mol
DOCKED: USER    (2) Final Total Internal Energy     =   -1.67 kcal/mol
DOCKED: USER    (3) Torsional Free Energy           =   +3.58 kcal/mol
DOCKED: USER    (4) Unbound System's Energy  [=(2)] =   -1.67 kcal/mol
DOCKED: USER    
DOCKED: USER    
DOCKED: USER    NEWDPF move heme_Co_opt.pdbqt
DOCKED: USER    NEWDPF about 8.781000 34.984000 -0.736000
DOCKED: USER    NEWDPF tran0 -8.476685 6.928420 -12.599498
DOCKED: USER    NEWDPF quaternion0 -0.467017 0.536433 0.479730 -0.513802
DOCKED: USER    NEWDPF axisangle0 -0.544367 0.625280 0.559186 -118.165125
DOCKED: USER    NEWDPF quat0 -0.544367 0.625280 0.559186 -118.165125
DOCKED: USER    NEWDPF dihe0 -74.86 103.62 -23.06 111.28 109.31 141.23 -117.07 -159.89 -10.94 17.75 -164.31 147.24 
DOCKED: USER  keepresnum = 1 
DOCKED: USER  
DOCKED: REMARK  12 active torsions:
DOCKED: REMARK  status: ('A' for Active; 'I' for Inactive)
DOCKED: REMARK    1  A    between atoms: C_6  and  C_10 
DOCKED: REMARK    2  A    between atoms: C_10  and  C_11 
DOCKED: REMARK    3  A    between atoms: C_11  and  C_12 
DOCKED: REMARK    4  A    between atoms: C_12  and  O_14 
DOCKED: REMARK    5  A    between atoms: C_17  and  C_20 
DOCKED: REMARK    6  A    between atoms: C_24  and  C_27 
DOCKED: REMARK    7  A    between atoms: C_31  and  C_34 
DOCKED: REMARK    8  A    between atoms: C_34  and  C_35 
DOCKED: REMARK    9  A    between atoms: C_35  and  C_36 
DOCKED: REMARK   10  A    between atoms: C_36  and  O_38 
DOCKED: REMARK   11  A    between atoms: FE_43  and  C_44 
DOCKED: REMARK   12  A    between atoms: C_44  and  O_45 
DOCKED: USER                              x       y       z     vdW  Elec       q    Type
DOCKED: USER                           _______ _______ _______ _____ _____    ______ ____
DOCKED: ROOT
DOCKED: ATOM      1  C   UNL d   1      -8.991   6.150 -10.638 -0.14 +0.01    +0.064 A 
DOCKED: ATOM      2  C   UNL d   1      -6.007   9.580 -12.033 -0.27 -0.01    +0.064 C 
DOCKED: ATOM      3  C   UNL d   1      -6.872   8.522 -16.612 -0.11 -0.01    +0.064 A 
DOCKED: ATOM      4  C   UNL d   1     -10.214   5.275 -15.217 -0.21 +0.02    +0.064 A 
DOCKED: ATOM      5  C   UNL d   1      -8.085   7.141 -10.683 -0.13 +0.01    +0.066 A 
DOCKED: ATOM      6  C   UNL d   1      -7.622   7.783  -9.518 -0.21 -0.00    -0.021 A 
DOCKED: ATOM      7  C   UNL d   1      -6.774   8.792  -9.930 -0.28 +0.00    -0.025 A 
DOCKED: ATOM      8  C   UNL d   1      -6.742   8.712 -11.326 -0.19 -0.00    +0.066 A 
DOCKED: ATOM      9  C   UNL d   1      -6.015   9.802  -9.054 -0.46 -0.00    +0.051 C 
DOCKED: ATOM     10  C   UNL d   1      -5.892   9.558 -13.470 -0.17 -0.01    +0.066 A 
DOCKED: ATOM     11  C   UNL d   1      -5.030  10.349 -14.260 -0.21 +0.00    -0.021 A 
DOCKED: ATOM     12  C   UNL d   1      -5.300  10.017 -15.590 -0.10 -0.00    +0.000 A 
DOCKED: ATOM     13  C   UNL d   1      -6.295   9.043 -15.514 -0.10 -0.01    +0.070 A 
DOCKED: ATOM     14  C   UNL d   1      -3.960  11.282 -13.752 -0.42 -0.02    +0.052 C 
DOCKED: ATOM     15  C   UNL d   1      -7.943   7.551 -16.715 -0.15 -0.01    +0.066 A 
DOCKED: ATOM     16  C   UNL d   1      -8.593   7.164 -17.879 -0.13 +0.00    -0.021 A 
DOCKED: ATOM     17  C   UNL d   1      -9.559   6.229 -17.481 -0.17 +0.00    +0.000 A 
DOCKED: ATOM     18  C   UNL d   1      -9.411   6.107 -16.104 -0.20 +0.01    +0.070 A 
DOCKED: ATOM     19  C   UNL d   1      -8.284   7.676 -19.268 -0.07 -0.00    +0.052 C 
DOCKED: ATOM     20  C   UNL d   1     -10.146   5.205 -13.866 -0.21 +0.01    +0.066 A 
DOCKED: ATOM     21  C   UNL d   1     -10.997   4.394 -13.119 -0.13 -0.01    -0.025 A 
DOCKED: ATOM     22  C   UNL d   1     -10.648   4.603 -11.797 -0.16 -0.01    -0.021 A 
DOCKED: ATOM     23  C   UNL d   1      -9.601   5.549 -11.803 -0.16 +0.01    +0.066 A 
DOCKED: ATOM     24  C   UNL d   1     -12.103   3.478 -13.638 -0.18 +0.03    +0.051 C 
DOCKED: ATOM     25  N   UNL d   1      -7.541   7.694 -11.820 +0.09 -0.01    -0.248 N 
DOCKED: ATOM     26  N   UNL d   1      -6.612   8.726 -14.230 -0.07 +0.02    -0.248 N 
DOCKED: ATOM     27  N   UNL d   1      -8.460   6.932 -15.678 -0.12 +0.00    -0.248 N 
DOCKED: ATOM     28  N   UNL d   1      -9.296   5.918 -13.052 -0.09 -0.03    -0.248 N 
DOCKED: ATOM     29 FE   UNL d   1      -8.030   7.287 -13.862 -0.04 +0.00    +0.000 Fe
DOCKED: ENDROOT
DOCKED: BRANCH   6  30
DOCKED: ATOM     30  C   UNL d   1      -8.048   7.484  -8.084 -0.00 +0.01    +0.052 C 
DOCKED: BRANCH  30  31
DOCKED: ATOM     31  C   UNL d   1      -9.388   8.148  -7.773 -0.17 +0.04    +0.115 C 
DOCKED: BRANCH  31  32
DOCKED: ATOM     32  C   UNL d   1     -10.001   7.636  -6.487 -0.16 +0.10    +0.139 C 
DOCKED: ATOM     33  O   UNL d   1     -10.111   8.390  -5.532 -0.49 -0.39    -0.650 OA
DOCKED: BRANCH  32  34
DOCKED: ATOM     34  O   UNL d   1     -10.479   6.375  -6.372 -0.14 -1.25    -0.776 OA
DOCKED: ATOM     35  H   UNL d   1     -11.338   6.087  -6.709 +0.02 +0.33    +0.167 HD
DOCKED: ENDBRANCH  32  34
DOCKED: ENDBRANCH  31  32
DOCKED: ENDBRANCH  30  31
DOCKED: ENDBRANCH   6  30
DOCKED: BRANCH  29  36
DOCKED: ATOM     36  C   UNL d   1      -9.494   8.778 -13.691 -0.04 +0.01    +0.190 C 
DOCKED: BRANCH  36  37
DOCKED: ATOM     37  O   UNL d   1     -10.185   9.559 -12.759 -0.00 -0.04    -0.399 OA
DOCKED: ATOM     38  H   UNL d   1      -9.946   9.171 -11.871 +0.03 +0.03    +0.209 HD
DOCKED: ENDBRANCH  36  37
DOCKED: ENDBRANCH  29  36
DOCKED: BRANCH  22  39
DOCKED: ATOM     39  C   UNL d   1     -11.332   3.975 -10.597 -0.14 +0.02    +0.052 C 
DOCKED: BRANCH  39  40
DOCKED: ATOM     40  C   UNL d   1     -12.097   5.038  -9.791 -0.07 +0.06    +0.115 C 
DOCKED: BRANCH  40  41
DOCKED: ATOM     41  C   UNL d   1     -12.567   4.571  -8.430 +0.00 +0.17    +0.139 C 
DOCKED: ATOM     42  O   UNL d   1     -12.690   3.373  -8.218 -0.07 -0.99    -0.650 OA
DOCKED: BRANCH  41  43
DOCKED: ATOM     43  O   UNL d   1     -12.770   5.438  -7.413 +0.09 -1.28    -0.776 OA
DOCKED: ATOM     44  H   UNL d   1     -12.415   6.336  -7.417 +0.01 +0.19    +0.167 HD
DOCKED: ENDBRANCH  41  43
DOCKED: ENDBRANCH  40  41
DOCKED: ENDBRANCH  39  40
DOCKED: ENDBRANCH  22  39
DOCKED: BRANCH  12  45
DOCKED: ATOM     45  C   UNL d   1      -4.722  10.493 -16.917 -0.08 -0.00    +0.004 C 
DOCKED: ATOM     46  C   UNL d   1      -3.853   9.913 -17.740 -0.08 -0.00    +0.012 C 
DOCKED: ENDBRANCH  12  45
DOCKED: BRANCH  17  47
DOCKED: ATOM     47  C   UNL d   1     -10.594   5.522 -18.294 -0.15 +0.00    +0.004 C 
DOCKED: ATOM     48  C   UNL d   1     -10.373   4.367 -18.925 -0.18 +0.00    +0.012 C 
DOCKED: ENDBRANCH  17  47
DOCKED: TORSDOF 12
DOCKED: TER
DOCKED: ENDMDL
________________________________________________________________________________


	BEGINNING GENETIC ALGORITHM DOCKING 86 of 100
Run: 86 Seed: 1196334070 211870838 [ Run 86 of 100 GA/GALS ]
Beginning LAMARCKIAN GENETIC ALGORITHM (LGA), with a maximum of 25000000 energy evaluations.

Final-Value: -11.068


	FINAL GENETIC ALGORITHM DOCKED STATE
	_______________________________________________


Detailed state:  trans 2.566 7.163 17.696 quatxyzw -0.227554 0.428348 0.313993 0.816178 center 8.781 34.984 -0.736 ntor 12 59.8355 123.2086 -136.2082 -37.6222 -18.9943 99.7898 39.5569 114.5936 155.8795 141.5016 -154.9242 173.9894
State:	  2.566   7.163  17.696  -0.394  0.741  0.543 70.592     59.84  123.21 -136.21  -37.62  -18.99   99.79   39.56  114.59  155.88  141.50 -154.92  173.99

DOCKED: MODEL       86
DOCKED: USER    Run = 86
DOCKED: USER    DPF = D:/Protein_go_brrr/autodock/final/mut_K82N/heme_Co/dock.dpf
DOCKED: USER  
DOCKED: USER    Estimated Free Energy of Binding    =   -3.44 kcal/mol  [=(1)+(2)+(3)-(4)]
DOCKED: USER    Estimated Inhibition Constant, Ki   =    3.02 mM (millimolar)  [Temperature = 298.15 K]
DOCKED: USER    
DOCKED: USER    (1) Final Intermolecular Energy     =   -7.02 kcal/mol
DOCKED: USER        vdW + Hbond + desolv Energy     =   -7.53 kcal/mol
DOCKED: USER        Electrostatic Energy            =   +0.51 kcal/mol
DOCKED: USER    (2) Final Total Internal Energy     =   -4.05 kcal/mol
DOCKED: USER    (3) Torsional Free Energy           =   +3.58 kcal/mol
DOCKED: USER    (4) Unbound System's Energy  [=(2)] =   -4.05 kcal/mol
DOCKED: USER    
DOCKED: USER    
DOCKED: USER    NEWDPF move heme_Co_opt.pdbqt
DOCKED: USER    NEWDPF about 8.781000 34.984000 -0.736000
DOCKED: USER    NEWDPF tran0 2.566232 7.162850 17.695816
DOCKED: USER    NEWDPF quaternion0 -0.227554 0.428348 0.313993 0.816178
DOCKED: USER    NEWDPF axisangle0 -0.393827 0.741342 0.543427 70.592046
DOCKED: USER    NEWDPF quat0 -0.393827 0.741342 0.543427 70.592046
DOCKED: USER    NEWDPF dihe0 59.84 123.21 -136.21 -37.62 -18.99 99.79 39.56 114.59 155.88 141.50 -154.92 173.99 
DOCKED: USER  keepresnum = 1 
DOCKED: USER  
DOCKED: REMARK  12 active torsions:
DOCKED: REMARK  status: ('A' for Active; 'I' for Inactive)
DOCKED: REMARK    1  A    between atoms: C_6  and  C_10 
DOCKED: REMARK    2  A    between atoms: C_10  and  C_11 
DOCKED: REMARK    3  A    between atoms: C_11  and  C_12 
DOCKED: REMARK    4  A    between atoms: C_12  and  O_14 
DOCKED: REMARK    5  A    between atoms: C_17  and  C_20 
DOCKED: REMARK    6  A    between atoms: C_24  and  C_27 
DOCKED: REMARK    7  A    between atoms: C_31  and  C_34 
DOCKED: REMARK    8  A    between atoms: C_34  and  C_35 
DOCKED: REMARK    9  A    between atoms: C_35  and  C_36 
DOCKED: REMARK   10  A    between atoms: C_36  and  O_38 
DOCKED: REMARK   11  A    between atoms: FE_43  and  C_44 
DOCKED: REMARK   12  A    between atoms: C_44  and  O_45 
DOCKED: USER                              x       y       z     vdW  Elec       q    Type
DOCKED: USER                           _______ _______ _______ _____ _____    ______ ____
DOCKED: ROOT
DOCKED: ATOM      1  C   UNL d   1       2.597   8.968  16.489 -0.25 -0.03    +0.064 A 
DOCKED: ATOM      2  C   UNL d   1      -0.844   5.834  17.463 -0.20 -0.02    +0.064 C 
DOCKED: ATOM      3  C   UNL d   1       2.270   3.094  19.834 -0.26 -0.05    +0.064 A 
DOCKED: ATOM      4  C   UNL d   1       5.714   6.467  19.182 -0.22 -0.01    +0.064 A 
DOCKED: ATOM      5  C   UNL d   1       1.436   8.295  16.550 -0.23 -0.03    +0.066 A 
DOCKED: ATOM      6  C   UNL d   1       0.240   8.818  16.021 -0.21 +0.01    -0.021 A 
DOCKED: ATOM      7  C   UNL d   1      -0.759   7.916  16.326 -0.17 +0.01    -0.025 A 
DOCKED: ATOM      8  C   UNL d   1      -0.129   6.873  17.014 -0.20 -0.03    +0.066 A 
DOCKED: ATOM      9  C   UNL d   1      -2.255   8.017  15.991 -0.21 -0.05    +0.051 C 
DOCKED: ATOM     10  C   UNL d   1      -0.279   4.705  18.157 -0.21 -0.02    +0.066 A 
DOCKED: ATOM     11  C   UNL d   1      -0.951   3.520  18.530 -0.22 +0.01    -0.021 A 
DOCKED: ATOM     12  C   UNL d   1      -0.019   2.737  19.216 -0.27 -0.00    +0.000 A 
DOCKED: ATOM     13  C   UNL d   1       1.154   3.494  19.200 -0.28 -0.04    +0.070 A 
DOCKED: ATOM     14  C   UNL d   1      -2.363   3.142  18.161 -0.27 -0.01    +0.052 C 
DOCKED: ATOM     15  C   UNL d   1       3.546   3.770  19.963 -0.29 -0.03    +0.066 A 
DOCKED: ATOM     16  C   UNL d   1       4.614   3.369  20.754 -0.31 +0.01    -0.021 A 
DOCKED: ATOM     17  C   UNL d   1       5.608   4.340  20.572 -0.31 -0.00    +0.000 A 
DOCKED: ATOM     18  C   UNL d   1       5.074   5.251  19.667 -0.25 -0.02    +0.070 A 
DOCKED: ATOM     19  C   UNL d   1       4.646   2.129  21.620 -0.31 -0.03    +0.052 C 
DOCKED: ATOM     20  C   UNL d   1       5.182   7.412  18.370 -0.20 -0.02    +0.066 A 
DOCKED: ATOM     21  C   UNL d   1       5.884   8.557  18.002 -0.16 +0.01    -0.025 A 
DOCKED: ATOM     22  C   UNL d   1       5.021   9.283  17.202 -0.21 +0.01    -0.021 A 
DOCKED: ATOM     23  C   UNL d   1       3.821   8.545  17.131 -0.23 -0.03    +0.066 A 
DOCKED: ATOM     24  C   UNL d   1       7.302   8.951  18.408 -0.10 -0.01    +0.051 C 
DOCKED: ATOM     25  N   UNL d   1       1.233   7.079  17.162 -0.11 +0.12    -0.248 N 
DOCKED: ATOM     26  N   UNL d   1       1.010   4.657  18.511 -0.09 +0.12    -0.248 N 
DOCKED: ATOM     27  N   UNL d   1       3.833   4.896  19.350 -0.16 +0.11    -0.248 N 
DOCKED: ATOM     28  N   UNL d   1       3.913   7.413  17.839 -0.14 +0.12    -0.248 N 
DOCKED: ATOM     29 FE   UNL d   1       2.613   5.925  18.320 -0.03 -0.00    +0.000 Fe
DOCKED: ENDROOT
DOCKED: BRANCH   6  30
DOCKED: ATOM     30  C   UNL d   1       0.066  10.165  15.327 -0.20 -0.05    +0.052 C 
DOCKED: BRANCH  30  31
DOCKED: ATOM     31  C   UNL d   1       0.192  11.308  16.333 -0.07 -0.07    +0.115 C 
DOCKED: BRANCH  31  32
DOCKED: ATOM     32  C   UNL d   1      -0.170  10.882  17.740 -0.02 -0.05    +0.139 C 
DOCKED: ATOM     33  O   UNL d   1      -1.328  10.984  18.119 +0.02 +0.25    -0.650 OA
DOCKED: BRANCH  32  34
DOCKED: ATOM     34  O   UNL d   1       0.740  10.343  18.584 +0.05 +0.22    -0.776 OA
DOCKED: ATOM     35  H   UNL d   1       1.574  10.767  18.826 +0.02 -0.04    +0.167 HD
DOCKED: ENDBRANCH  32  34
DOCKED: ENDBRANCH  31  32
DOCKED: ENDBRANCH  30  31
DOCKED: ENDBRANCH   6  30
DOCKED: BRANCH  29  36
DOCKED: ATOM     36  C   UNL d   1       1.950   7.012  19.986 -0.05 -0.05    +0.190 C 
DOCKED: BRANCH  36  37
DOCKED: ATOM     37  O   UNL d   1       1.784   8.312  20.474 +0.00 +0.08    -0.399 OA
DOCKED: ATOM     38  H   UNL d   1       1.947   8.904  19.687 +0.02 -0.05    +0.209 HD
DOCKED: ENDBRANCH  36  37
DOCKED: ENDBRANCH  29  36
DOCKED: BRANCH  22  39
DOCKED: ATOM     39  C   UNL d   1       5.316  10.642  16.596 -0.16 -0.01    +0.052 C 
DOCKED: BRANCH  39  40
DOCKED: ATOM     40  C   UNL d   1       5.006  11.764  17.601 -0.06 -0.02    +0.115 C 
DOCKED: BRANCH  40  41
DOCKED: ATOM     41  C   UNL d   1       3.699  11.592  18.346 -0.02 -0.03    +0.139 C 
DOCKED: ATOM     42  O   UNL d   1       2.752  12.313  18.067 +0.03 +0.13    -0.650 OA
DOCKED: BRANCH  41  43
DOCKED: ATOM     43  O   UNL d   1       3.522  10.603  19.250 +0.04 +0.13    -0.776 OA
DOCKED: ATOM     44  H   UNL d   1       2.759  10.012  19.230 +0.02 -0.03    +0.167 HD
DOCKED: ENDBRANCH  41  43
DOCKED: ENDBRANCH  40  41
DOCKED: ENDBRANCH  39  40
DOCKED: ENDBRANCH  22  39
DOCKED: BRANCH  12  45
DOCKED: ATOM     45  C   UNL d   1      -0.094   1.361  19.864 -0.25 -0.00    +0.004 C 
DOCKED: ATOM     46  C   UNL d   1      -1.012   0.833  20.669 -0.27 -0.00    +0.012 C 
DOCKED: ENDBRANCH  12  45
DOCKED: BRANCH  17  47
DOCKED: ATOM     47  C   UNL d   1       6.949   4.465  21.217 -0.29 +0.00    +0.004 C 
DOCKED: ATOM     48  C   UNL d   1       7.170   4.221  22.511 -0.23 +0.00    +0.012 C 
DOCKED: ENDBRANCH  17  47
DOCKED: TORSDOF 12
DOCKED: TER
DOCKED: ENDMDL
________________________________________________________________________________


	BEGINNING GENETIC ALGORITHM DOCKING 87 of 100
Run: 87 Seed: 1791010308 1992343764 [ Run 87 of 100 GA/GALS ]
Beginning LAMARCKIAN GENETIC ALGORITHM (LGA), with a maximum of 25000000 energy evaluations.

Final-Value: -10.123


	FINAL GENETIC ALGORITHM DOCKED STATE
	_______________________________________________


Detailed state:  trans 13.004 -4.368 2.423 quatxyzw 0.439173 -0.243100 0.715200 0.486332 center 8.781 34.984 -0.736 ntor 12 119.3486 109.6130 -13.3935 18.3396 176.6240 93.5997 -178.5524 -46.1558 -72.3696 -154.0412 -177.8367 157.3808
State:	 13.004  -4.368   2.423   0.503 -0.278  0.819 121.800    119.35  109.61  -13.39   18.34  176.62   93.60 -178.55  -46.16  -72.37 -154.04 -177.84  157.38

DOCKED: MODEL       87
DOCKED: USER    Run = 87
DOCKED: USER    DPF = D:/Protein_go_brrr/autodock/final/mut_K82N/heme_Co/dock.dpf
DOCKED: USER  
DOCKED: USER    Estimated Free Energy of Binding    =   -3.84 kcal/mol  [=(1)+(2)+(3)-(4)]
DOCKED: USER    Estimated Inhibition Constant, Ki   =    1.53 mM (millimolar)  [Temperature = 298.15 K]
DOCKED: USER    
DOCKED: USER    (1) Final Intermolecular Energy     =   -7.42 kcal/mol
DOCKED: USER        vdW + Hbond + desolv Energy     =   -6.84 kcal/mol
DOCKED: USER        Electrostatic Energy            =   -0.58 kcal/mol
DOCKED: USER    (2) Final Total Internal Energy     =   -2.70 kcal/mol
DOCKED: USER    (3) Torsional Free Energy           =   +3.58 kcal/mol
DOCKED: USER    (4) Unbound System's Energy  [=(2)] =   -2.70 kcal/mol
DOCKED: USER    
DOCKED: USER    
DOCKED: USER    NEWDPF move heme_Co_opt.pdbqt
DOCKED: USER    NEWDPF about 8.781000 34.984000 -0.736000
DOCKED: USER    NEWDPF tran0 13.004350 -4.367578 2.422937
DOCKED: USER    NEWDPF quaternion0 0.439173 -0.243100 0.715200 0.486332
DOCKED: USER    NEWDPF axisangle0 0.502616 -0.278218 0.818518 121.800437
DOCKED: USER    NEWDPF quat0 0.502616 -0.278218 0.818518 121.800437
DOCKED: USER    NEWDPF dihe0 119.35 109.61 -13.39 18.34 176.62 93.60 -178.55 -46.16 -72.37 -154.04 -177.84 157.38 
DOCKED: USER  keepresnum = 1 
DOCKED: USER  
DOCKED: REMARK  12 active torsions:
DOCKED: REMARK  status: ('A' for Active; 'I' for Inactive)
DOCKED: REMARK    1  A    between atoms: C_6  and  C_10 
DOCKED: REMARK    2  A    between atoms: C_10  and  C_11 
DOCKED: REMARK    3  A    between atoms: C_11  and  C_12 
DOCKED: REMARK    4  A    between atoms: C_12  and  O_14 
DOCKED: REMARK    5  A    between atoms: C_17  and  C_20 
DOCKED: REMARK    6  A    between atoms: C_24  and  C_27 
DOCKED: REMARK    7  A    between atoms: C_31  and  C_34 
DOCKED: REMARK    8  A    between atoms: C_34  and  C_35 
DOCKED: REMARK    9  A    between atoms: C_35  and  C_36 
DOCKED: REMARK   10  A    between atoms: C_36  and  O_38 
DOCKED: REMARK   11  A    between atoms: FE_43  and  C_44 
DOCKED: REMARK   12  A    between atoms: C_44  and  O_45 
DOCKED: USER                              x       y       z     vdW  Elec       q    Type
DOCKED: USER                           _______ _______ _______ _____ _____    ______ ____
DOCKED: ROOT
DOCKED: ATOM      1  C   UNL d   1      12.783  -2.880   0.857 -0.19 -0.00    +0.064 A 
DOCKED: ATOM      2  C   UNL d   1      14.552  -2.640   5.264 -0.17 +0.01    +0.064 C 
DOCKED: ATOM      3  C   UNL d   1      13.246  -7.164   6.074 -0.23 +0.01    +0.064 A 
DOCKED: ATOM      4  C   UNL d   1      11.780  -7.555   1.452 -0.21 +0.00    +0.064 A 
DOCKED: ATOM      5  C   UNL d   1      13.330  -2.471   2.013 -0.13 -0.00    +0.066 A 
DOCKED: ATOM      6  C   UNL d   1      13.909  -1.195   2.156 -0.14 -0.00    -0.021 A 
DOCKED: ATOM      7  C   UNL d   1      14.441  -1.139   3.429 -0.10 -0.00    -0.025 A 
DOCKED: ATOM      8  C   UNL d   1      14.150  -2.376   4.014 -0.06 +0.00    +0.066 A 
DOCKED: ATOM      9  C   UNL d   1      15.198   0.027   4.084 -0.05 +0.00    +0.051 C 
DOCKED: ATOM     10  C   UNL d   1      14.276  -3.874   5.957 -0.20 +0.01    +0.066 A 
DOCKED: ATOM     11  C   UNL d   1      14.548  -4.159   7.313 -0.21 -0.00    -0.021 A 
DOCKED: ATOM     12  C   UNL d   1      14.154  -5.483   7.523 -0.28 +0.00    +0.000 A 
DOCKED: ATOM     13  C   UNL d   1      13.660  -5.903   6.287 -0.24 +0.01    +0.070 A 
DOCKED: ATOM     14  C   UNL d   1      15.061  -3.186   8.343 -0.16 -0.00    +0.052 C 
DOCKED: ATOM     15  C   UNL d   1      12.758  -7.779   4.855 -0.23 +0.01    +0.066 A 
DOCKED: ATOM     16  C   UNL d   1      12.483  -9.126   4.666 -0.28 -0.00    -0.021 A 
DOCKED: ATOM     17  C   UNL d   1      12.063  -9.244   3.333 -0.26 +0.00    +0.000 A 
DOCKED: ATOM     18  C   UNL d   1      12.098  -7.952   2.818 -0.21 +0.00    +0.070 A 
DOCKED: ATOM     19  C   UNL d   1      12.626 -10.206   5.714 -0.25 +0.01    +0.052 C 
DOCKED: ATOM     20  C   UNL d   1      11.890  -6.321   0.906 -0.20 -0.00    +0.066 A 
DOCKED: ATOM     21  C   UNL d   1      11.589  -6.070  -0.431 -0.16 -0.00    -0.025 A 
DOCKED: ATOM     22  C   UNL d   1      11.841  -4.724  -0.624 -0.18 -0.00    -0.021 A 
DOCKED: ATOM     23  C   UNL d   1      12.299  -4.219   0.611 -0.18 -0.00    +0.066 A 
DOCKED: ATOM     24  C   UNL d   1      11.103  -7.068  -1.479 -0.13 +0.00    +0.051 C 
DOCKED: ATOM     25  N   UNL d   1      13.457  -3.219   3.162 +0.07 -0.00    -0.248 N 
DOCKED: ATOM     26  N   UNL d   1      13.683  -4.911   5.357 -0.13 -0.03    -0.248 N 
DOCKED: ATOM     27  N   UNL d   1      12.546  -7.111   3.744 -0.10 -0.02    -0.248 N 
DOCKED: ATOM     28  N   UNL d   1      12.332  -5.183   1.539 -0.14 +0.01    -0.248 N 
DOCKED: ATOM     29 FE   UNL d   1      12.973  -5.280   3.467 -0.06 +0.00    +0.000 Fe
DOCKED: ENDROOT
DOCKED: BRANCH   6  30
DOCKED: ATOM     30  C   UNL d   1      14.013  -0.117   1.082 -0.14 +0.01    +0.052 C 
DOCKED: BRANCH  30  31
DOCKED: ATOM     31  C   UNL d   1      15.352  -0.213   0.352 -0.03 +0.01    +0.115 C 
DOCKED: BRANCH  31  32
DOCKED: ATOM     32  C   UNL d   1      15.212  -0.795  -1.038 -0.07 +0.04    +0.139 C 
DOCKED: ATOM     33  O   UNL d   1      14.395  -0.318  -1.810 -0.40 -0.50    -0.650 OA
DOCKED: BRANCH  32  34
DOCKED: ATOM     34  O   UNL d   1      16.001  -1.804  -1.476 +0.04 -0.15    -0.776 OA
DOCKED: ATOM     35  H   UNL d   1      15.679  -2.688  -1.701 +0.02 +0.03    +0.167 HD
DOCKED: ENDBRANCH  32  34
DOCKED: ENDBRANCH  31  32
DOCKED: ENDBRANCH  30  31
DOCKED: ENDBRANCH   6  30
DOCKED: BRANCH  29  36
DOCKED: ATOM     36  C   UNL d   1      14.920  -5.716   2.822 -0.04 +0.01    +0.190 C 
DOCKED: BRANCH  36  37
DOCKED: ATOM     37  O   UNL d   1      15.785  -5.596   1.730 +0.00 -0.01    -0.399 OA
DOCKED: ATOM     38  H   UNL d   1      15.230  -5.188   1.007 +0.02 +0.01    +0.209 HD
DOCKED: ENDBRANCH  36  37
DOCKED: ENDBRANCH  29  36
DOCKED: BRANCH  22  39
DOCKED: ATOM     39  C   UNL d   1      11.709  -3.985  -1.943 -0.22 +0.02    +0.052 C 
DOCKED: BRANCH  39  40
DOCKED: ATOM     40  C   UNL d   1      13.089  -3.783  -2.591 -0.12 +0.05    +0.115 C 
DOCKED: BRANCH  40  41
DOCKED: ATOM     41  C   UNL d   1      14.160  -4.728  -2.090 -0.04 +0.02    +0.139 C 
DOCKED: ATOM     42  O   UNL d   1      14.350  -5.783  -2.679 +0.03 -0.05    -0.650 OA
DOCKED: BRANCH  41  43
DOCKED: ATOM     43  O   UNL d   1      14.972  -4.400  -1.061 +0.05 -0.07    -0.776 OA
DOCKED: ATOM     44  H   UNL d   1      14.976  -3.520  -0.663 +0.02 +0.02    +0.167 HD
DOCKED: ENDBRANCH  41  43
DOCKED: ENDBRANCH  40  41
DOCKED: ENDBRANCH  39  40
DOCKED: ENDBRANCH  22  39
DOCKED: BRANCH  12  45
DOCKED: ATOM     45  C   UNL d   1      14.168  -6.389   8.747 -0.31 +0.00    +0.004 C 
DOCKED: ATOM     46  C   UNL d   1      14.412  -6.113  10.026 -0.38 -0.00    +0.012 C 
DOCKED: ENDBRANCH  12  45
DOCKED: BRANCH  17  47
DOCKED: ATOM     47  C   UNL d   1      11.697 -10.464   2.553 -0.20 +0.00    +0.004 C 
DOCKED: ATOM     48  C   UNL d   1      10.884 -10.445   1.494 -0.24 +0.00    +0.012 C 
DOCKED: ENDBRANCH  17  47
DOCKED: TORSDOF 12
DOCKED: TER
DOCKED: ENDMDL
________________________________________________________________________________


	BEGINNING GENETIC ALGORITHM DOCKING 88 of 100
Run: 88 Seed: 430647625 363249163 [ Run 88 of 100 GA/GALS ]
Beginning LAMARCKIAN GENETIC ALGORITHM (LGA), with a maximum of 25000000 energy evaluations.

Final-Value: -9.326


	FINAL GENETIC ALGORITHM DOCKED STATE
	_______________________________________________


Detailed state:  trans 7.827 15.419 -11.745 quatxyzw -0.432808 -0.837724 -0.047047 -0.329671 center 8.781 34.984 -0.736 ntor 12 170.6490 103.0670 -40.8171 100.4705 97.1562 141.3401 -130.2910 -15.0779 -152.8802 98.6058 -169.6260 -11.0153
State:	  7.827  15.419 -11.745  -0.458 -0.887 -0.050 -141.502    170.65  103.07  -40.82  100.47   97.16  141.34 -130.29  -15.08 -152.88   98.61 -169.63  -11.02

DOCKED: MODEL       88
DOCKED: USER    Run = 88
DOCKED: USER    DPF = D:/Protein_go_brrr/autodock/final/mut_K82N/heme_Co/dock.dpf
DOCKED: USER  
DOCKED: USER    Estimated Free Energy of Binding    =   -3.51 kcal/mol  [=(1)+(2)+(3)-(4)]
DOCKED: USER    Estimated Inhibition Constant, Ki   =    2.69 mM (millimolar)  [Temperature = 298.15 K]
DOCKED: USER    
DOCKED: USER    (1) Final Intermolecular Energy     =   -7.09 kcal/mol
DOCKED: USER        vdW + Hbond + desolv Energy     =   -7.11 kcal/mol
DOCKED: USER        Electrostatic Energy            =   +0.02 kcal/mol
DOCKED: USER    (2) Final Total Internal Energy     =   -2.24 kcal/mol
DOCKED: USER    (3) Torsional Free Energy           =   +3.58 kcal/mol
DOCKED: USER    (4) Unbound System's Energy  [=(2)] =   -2.24 kcal/mol
DOCKED: USER    
DOCKED: USER    
DOCKED: USER    NEWDPF move heme_Co_opt.pdbqt
DOCKED: USER    NEWDPF about 8.781000 34.984000 -0.736000
DOCKED: USER    NEWDPF tran0 7.826966 15.419150 -11.744644
DOCKED: USER    NEWDPF quaternion0 -0.432808 -0.837724 -0.047047 -0.329671
DOCKED: USER    NEWDPF axisangle0 -0.458436 -0.887329 -0.049833 -141.502357
DOCKED: USER    NEWDPF quat0 -0.458436 -0.887329 -0.049833 -141.502357
DOCKED: USER    NEWDPF dihe0 170.65 103.07 -40.82 100.47 97.16 141.34 -130.29 -15.08 -152.88 98.61 -169.63 -11.02 
DOCKED: USER  keepresnum = 1 
DOCKED: USER  
DOCKED: REMARK  12 active torsions:
DOCKED: REMARK  status: ('A' for Active; 'I' for Inactive)
DOCKED: REMARK    1  A    between atoms: C_6  and  C_10 
DOCKED: REMARK    2  A    between atoms: C_10  and  C_11 
DOCKED: REMARK    3  A    between atoms: C_11  and  C_12 
DOCKED: REMARK    4  A    between atoms: C_12  and  O_14 
DOCKED: REMARK    5  A    between atoms: C_17  and  C_20 
DOCKED: REMARK    6  A    between atoms: C_24  and  C_27 
DOCKED: REMARK    7  A    between atoms: C_31  and  C_34 
DOCKED: REMARK    8  A    between atoms: C_34  and  C_35 
DOCKED: REMARK    9  A    between atoms: C_35  and  C_36 
DOCKED: REMARK   10  A    between atoms: C_36  and  O_38 
DOCKED: REMARK   11  A    between atoms: FE_43  and  C_44 
DOCKED: REMARK   12  A    between atoms: C_44  and  O_45 
DOCKED: USER                              x       y       z     vdW  Elec       q    Type
DOCKED: USER                           _______ _______ _______ _____ _____    ______ ____
DOCKED: ROOT
DOCKED: ATOM      1  C   UNL d   1       9.429  14.076 -12.334 -0.16 +0.01    +0.064 A 
DOCKED: ATOM      2  C   UNL d   1       4.993  14.659 -13.944 -0.21 -0.00    +0.064 C 
DOCKED: ATOM      3  C   UNL d   1       4.113  17.833 -10.483 -0.19 -0.02    +0.064 A 
DOCKED: ATOM      4  C   UNL d   1       8.754  17.544  -9.056 -0.10 -0.00    +0.064 A 
DOCKED: ATOM      5  C   UNL d   1       8.270  13.975 -13.006 -0.18 +0.01    +0.066 A 
DOCKED: ATOM      6  C   UNL d   1       8.143  13.178 -14.160 -0.19 -0.00    -0.021 A 
DOCKED: ATOM      7  C   UNL d   1       6.860  13.368 -14.636 -0.21 -0.00    -0.025 A 
DOCKED: ATOM      8  C   UNL d   1       6.255  14.260 -13.744 -0.22 +0.00    +0.066 A 
DOCKED: ATOM      9  C   UNL d   1       6.215  12.743 -15.882 -0.16 +0.02    +0.051 C 
DOCKED: ATOM     10  C   UNL d   1       4.279  15.552 -13.066 -0.22 -0.01    +0.066 A 
DOCKED: ATOM     11  C   UNL d   1       2.913  15.898 -13.143 -0.25 +0.01    -0.021 A 
DOCKED: ATOM     12  C   UNL d   1       2.682  16.822 -12.120 -0.27 -0.00    +0.000 A 
DOCKED: ATOM     13  C   UNL d   1       3.918  16.961 -11.488 -0.22 -0.02    +0.070 A 
DOCKED: ATOM     14  C   UNL d   1       1.893  15.301 -14.078 -0.05 -0.04    +0.052 C 
DOCKED: ATOM     15  C   UNL d   1       5.328  18.143  -9.756 -0.17 -0.02    +0.066 A 
DOCKED: ATOM     16  C   UNL d   1       5.495  19.159  -8.826 -0.17 +0.01    -0.021 A 
DOCKED: ATOM     17  C   UNL d   1       6.833  19.081  -8.414 -0.19 -0.00    +0.000 A 
DOCKED: ATOM     18  C   UNL d   1       7.374  18.008  -9.115 -0.19 -0.01    +0.070 A 
DOCKED: ATOM     19  C   UNL d   1       4.421  20.128  -8.384 -0.30 -0.02    +0.052 C 
DOCKED: ATOM     20  C   UNL d   1       9.325  16.559  -9.791 -0.17 -0.00    +0.066 A 
DOCKED: ATOM     21  C   UNL d   1      10.672  16.227  -9.671 -0.14 +0.00    -0.025 A 
DOCKED: ATOM     22  C   UNL d   1      10.889  15.211 -10.583 -0.22 -0.00    -0.021 A 
DOCKED: ATOM     23  C   UNL d   1       9.655  14.980 -11.229 -0.24 +0.00    +0.066 A 
DOCKED: ATOM     24  C   UNL d   1      11.709  16.861  -8.747 -0.10 -0.00    +0.051 C 
DOCKED: ATOM     25  N   UNL d   1       7.104  14.648 -12.721 -0.16 -0.01    -0.248 N 
DOCKED: ATOM     26  N   UNL d   1       4.869  16.151 -12.026 -0.15 +0.04    -0.248 N 
DOCKED: ATOM     27  N   UNL d   1       6.458  17.493  -9.927 -0.16 +0.05    -0.248 N 
DOCKED: ATOM     28  N   UNL d   1       8.706  15.795 -10.754 -0.18 +0.01    -0.248 N 
DOCKED: ATOM     29 FE   UNL d   1       6.765  16.154 -11.240 -0.05 -0.00    +0.000 Fe
DOCKED: ENDROOT
DOCKED: BRANCH   6  30
DOCKED: ATOM     30  C   UNL d   1       9.237  12.340 -14.812 -0.14 +0.01    +0.052 C 
DOCKED: BRANCH  30  31
DOCKED: ATOM     31  C   UNL d   1      10.069  13.193 -15.769 -0.03 +0.01    +0.115 C 
DOCKED: BRANCH  31  32
DOCKED: ATOM     32  C   UNL d   1      10.043  14.662 -15.404 -0.01 +0.00    +0.139 C 
DOCKED: ATOM     33  O   UNL d   1      10.985  15.147 -14.795 +0.02 +0.01    -0.650 OA
DOCKED: BRANCH  32  34
DOCKED: ATOM     34  O   UNL d   1       9.026  15.475 -15.773 +0.03 +0.01    -0.776 OA
DOCKED: ATOM     35  H   UNL d   1       8.876  16.359 -15.410 +0.01 -0.01    +0.167 HD
DOCKED: ENDBRANCH  32  34
DOCKED: ENDBRANCH  31  32
DOCKED: ENDBRANCH  30  31
DOCKED: ENDBRANCH   6  30
DOCKED: BRANCH  29  36
DOCKED: ATOM     36  C   UNL d   1       7.360  17.551 -12.685 -0.03 -0.02    +0.190 C 
DOCKED: BRANCH  36  37
DOCKED: ATOM     37  O   UNL d   1       7.981  17.667 -13.933 +0.00 +0.03    -0.399 OA
DOCKED: ATOM     38  H   UNL d   1       8.354  16.760 -14.119 +0.02 -0.01    +0.209 HD
DOCKED: ENDBRANCH  36  37
DOCKED: ENDBRANCH  29  36
DOCKED: BRANCH  22  39
DOCKED: ATOM     39  C   UNL d   1      12.225  14.548 -10.861 -0.16 +0.00    +0.052 C 
DOCKED: BRANCH  39  40
DOCKED: ATOM     40  C   UNL d   1      12.425  13.327  -9.948 -0.22 +0.00    +0.115 C 
DOCKED: BRANCH  40  41
DOCKED: ATOM     41  C   UNL d   1      13.038  13.648  -8.601 -0.19 -0.00    +0.139 C 
DOCKED: ATOM     42  O   UNL d   1      12.439  13.334  -7.581 -0.04 -0.01    -0.650 OA
DOCKED: BRANCH  41  43
DOCKED: ATOM     43  O   UNL d   1      14.269  14.194  -8.492 +0.04 +0.03    -0.776 OA
DOCKED: ATOM     44  H   UNL d   1      14.986  13.983  -9.104 +0.02 -0.01    +0.167 HD
DOCKED: ENDBRANCH  41  43
DOCKED: ENDBRANCH  40  41
DOCKED: ENDBRANCH  39  40
DOCKED: ENDBRANCH  22  39
DOCKED: BRANCH  12  45
DOCKED: ATOM     45  C   UNL d   1       1.439  17.570 -11.657 -0.30 -0.00    +0.004 C 
DOCKED: ATOM     46  C   UNL d   1       0.532  17.255 -10.736 -0.47 -0.00    +0.012 C 
DOCKED: ENDBRANCH  12  45
DOCKED: BRANCH  17  47
DOCKED: ATOM     47  C   UNL d   1       7.594  19.959  -7.475 -0.17 -0.00    +0.004 C 
DOCKED: ATOM     48  C   UNL d   1       7.455  19.916  -6.148 -0.25 -0.00    +0.012 C 
DOCKED: ENDBRANCH  17  47
DOCKED: TORSDOF 12
DOCKED: TER
DOCKED: ENDMDL
________________________________________________________________________________


	BEGINNING GENETIC ALGORITHM DOCKING 89 of 100
Run: 89 Seed: 1626790651 2091822891 [ Run 89 of 100 GA/GALS ]
Beginning LAMARCKIAN GENETIC ALGORITHM (LGA), with a maximum of 25000000 energy evaluations.

Final-Value: -8.858


	FINAL GENETIC ALGORITHM DOCKED STATE
	_______________________________________________


Detailed state:  trans 12.333 13.893 -1.069 quatxyzw 0.115691 0.587013 -0.178080 -0.781229 center 8.781 34.984 -0.736 ntor 12 27.3496 137.4596 133.7876 121.7201 70.2330 86.0803 -74.6244 -35.8482 100.0468 -153.7216 55.9914 157.6406
State:	 12.333  13.893  -1.069   0.185  0.940 -0.285 -77.254     27.35  137.46  133.79  121.72   70.23   86.08  -74.62  -35.85  100.05 -153.72   55.99  157.64

DOCKED: MODEL       89
DOCKED: USER    Run = 89
DOCKED: USER    DPF = D:/Protein_go_brrr/autodock/final/mut_K82N/heme_Co/dock.dpf
DOCKED: USER  
DOCKED: USER    Estimated Free Energy of Binding    =   -3.18 kcal/mol  [=(1)+(2)+(3)-(4)]
DOCKED: USER    Estimated Inhibition Constant, Ki   =    4.63 mM (millimolar)  [Temperature = 298.15 K]
DOCKED: USER    
DOCKED: USER    (1) Final Intermolecular Energy     =   -6.76 kcal/mol
DOCKED: USER        vdW + Hbond + desolv Energy     =   -6.49 kcal/mol
DOCKED: USER        Electrostatic Energy            =   -0.27 kcal/mol
DOCKED: USER    (2) Final Total Internal Energy     =   -2.09 kcal/mol
DOCKED: USER    (3) Torsional Free Energy           =   +3.58 kcal/mol
DOCKED: USER    (4) Unbound System's Energy  [=(2)] =   -2.09 kcal/mol
DOCKED: USER    
DOCKED: USER    
DOCKED: USER    NEWDPF move heme_Co_opt.pdbqt
DOCKED: USER    NEWDPF about 8.781000 34.984000 -0.736000
DOCKED: USER    NEWDPF tran0 12.332742 13.893391 -1.068788
DOCKED: USER    NEWDPF quaternion0 0.115691 0.587013 -0.178080 -0.781229
DOCKED: USER    NEWDPF axisangle0 0.185330 0.940357 -0.285273 -77.253561
DOCKED: USER    NEWDPF quat0 0.185330 0.940357 -0.285273 -77.253561
DOCKED: USER    NEWDPF dihe0 27.35 137.46 133.79 121.72 70.23 86.08 -74.62 -35.85 100.05 -153.72 55.99 157.64 
DOCKED: USER  keepresnum = 1 
DOCKED: USER  
DOCKED: REMARK  12 active torsions:
DOCKED: REMARK  status: ('A' for Active; 'I' for Inactive)
DOCKED: REMARK    1  A    between atoms: C_6  and  C_10 
DOCKED: REMARK    2  A    between atoms: C_10  and  C_11 
DOCKED: REMARK    3  A    between atoms: C_11  and  C_12 
DOCKED: REMARK    4  A    between atoms: C_12  and  O_14 
DOCKED: REMARK    5  A    between atoms: C_17  and  C_20 
DOCKED: REMARK    6  A    between atoms: C_24  and  C_27 
DOCKED: REMARK    7  A    between atoms: C_31  and  C_34 
DOCKED: REMARK    8  A    between atoms: C_34  and  C_35 
DOCKED: REMARK    9  A    between atoms: C_35  and  C_36 
DOCKED: REMARK   10  A    between atoms: C_36  and  O_38 
DOCKED: REMARK   11  A    between atoms: FE_43  and  C_44 
DOCKED: REMARK   12  A    between atoms: C_44  and  O_45 
DOCKED: USER                              x       y       z     vdW  Elec       q    Type
DOCKED: USER                           _______ _______ _______ _____ _____    ______ ____
DOCKED: ROOT
DOCKED: ATOM      1  C   UNL d   1      11.316  14.954   0.530 -0.25 -0.01    +0.064 A 
DOCKED: ATOM      2  C   UNL d   1      13.798  10.899   0.460 -0.09 -0.00    +0.064 C 
DOCKED: ATOM      3  C   UNL d   1      14.232  11.203  -4.289 -0.24 -0.01    +0.064 A 
DOCKED: ATOM      4  C   UNL d   1      12.034  15.542  -4.199 -0.19 -0.01    +0.064 A 
DOCKED: ATOM      5  C   UNL d   1      11.931  13.805   0.855 -0.19 -0.00    +0.066 A 
DOCKED: ATOM      6  C   UNL d   1      12.081  13.391   2.193 -0.13 -0.00    -0.021 A 
DOCKED: ATOM      7  C   UNL d   1      12.821  12.225   2.168 -0.12 -0.00    -0.025 A 
DOCKED: ATOM      8  C   UNL d   1      13.078  11.970   0.817 -0.10 -0.00    +0.066 A 
DOCKED: ATOM      9  C   UNL d   1      13.279  11.374   3.363 -0.07 +0.00    +0.051 C 
DOCKED: ATOM     10  C   UNL d   1      14.090  10.541  -0.906 -0.07 -0.00    +0.066 A 
DOCKED: ATOM     11  C   UNL d   1      14.718   9.359  -1.353 -0.18 +0.00    -0.021 A 
DOCKED: ATOM     12  C   UNL d   1      14.829   9.472  -2.741 -0.20 -0.00    +0.000 A 
DOCKED: ATOM     13  C   UNL d   1      14.249  10.705  -3.040 -0.23 -0.01    +0.070 A 
DOCKED: ATOM     14  C   UNL d   1      15.093   8.172  -0.503 -0.13 +0.00    +0.052 C 
DOCKED: ATOM     15  C   UNL d   1      13.726  12.475  -4.765 -0.25 -0.01    +0.066 A 
DOCKED: ATOM     16  C   UNL d   1      13.869  12.991  -6.045 -0.23 +0.00    -0.021 A 
DOCKED: ATOM     17  C   UNL d   1      13.239  14.243  -6.024 -0.22 -0.00    +0.000 A 
DOCKED: ATOM     18  C   UNL d   1      12.744  14.386  -4.732 -0.19 -0.01    +0.070 A 
DOCKED: ATOM     19  C   UNL d   1      14.573  12.303  -7.194 -0.15 -0.00    +0.052 C 
DOCKED: ATOM     20  C   UNL d   1      11.620  15.739  -2.924 -0.21 -0.02    +0.066 A 
DOCKED: ATOM     21  C   UNL d   1      10.979  16.910  -2.524 -0.19 +0.01    -0.025 A 
DOCKED: ATOM     22  C   UNL d   1      10.734  16.757  -1.171 -0.21 +0.00    -0.021 A 
DOCKED: ATOM     23  C   UNL d   1      11.252  15.496  -0.808 -0.24 -0.01    +0.066 A 
DOCKED: ATOM     24  C   UNL d   1      10.634  18.124  -3.383 -0.16 -0.01    +0.051 C 
DOCKED: ATOM     25  N   UNL d   1      12.533  12.929  -0.019 -0.15 +0.01    -0.248 N 
DOCKED: ATOM     26  N   UNL d   1      13.753  11.325  -1.936 -0.17 +0.04    -0.248 N 
DOCKED: ATOM     27  N   UNL d   1      13.079  13.327  -4.002 -0.16 +0.07    -0.248 N 
DOCKED: ATOM     28  N   UNL d   1      11.792  14.878  -1.866 -0.22 +0.06    -0.248 N 
DOCKED: ATOM     29 FE   UNL d   1      12.820  13.143  -2.129 -0.06 -0.00    +0.000 Fe
DOCKED: ENDROOT
DOCKED: BRANCH   6  30
DOCKED: ATOM     30  C   UNL d   1      11.600  14.134   3.435 -0.10 +0.00    +0.052 C 
DOCKED: BRANCH  30  31
DOCKED: ATOM     31  C   UNL d   1      11.036  13.154   4.463 -0.09 +0.01    +0.115 C 
DOCKED: BRANCH  31  32
DOCKED: ATOM     32  C   UNL d   1       9.604  12.764   4.163 -0.19 +0.04    +0.139 C 
DOCKED: ATOM     33  O   UNL d   1       9.168  11.704   4.588 -0.15 -0.37    -0.650 OA
DOCKED: BRANCH  32  34
DOCKED: ATOM     34  O   UNL d   1       8.768  13.576   3.476 +0.04 -0.12    -0.776 OA
DOCKED: ATOM     35  H   UNL d   1       9.061  14.269   2.868 +0.06 +0.01    +0.167 HD
DOCKED: ENDBRANCH  32  34
DOCKED: ENDBRANCH  31  32
DOCKED: ENDBRANCH  30  31
DOCKED: ENDBRANCH   6  30
DOCKED: BRANCH  29  36
DOCKED: ATOM     36  C   UNL d   1      14.621  14.114  -1.671 -0.06 -0.02    +0.190 C 
DOCKED: BRANCH  36  37
DOCKED: ATOM     37  O   UNL d   1      15.145  15.283  -1.110 -0.00 +0.03    -0.399 OA
DOCKED: ATOM     38  H   UNL d   1      14.428  15.619  -0.502 +0.02 -0.02    +0.209 HD
DOCKED: ENDBRANCH  36  37
DOCKED: ENDBRANCH  29  36
DOCKED: BRANCH  22  39
DOCKED: ATOM     39  C   UNL d   1      10.095  17.797  -0.270 -0.18 -0.00    +0.052 C 
DOCKED: BRANCH  39  40
DOCKED: ATOM     40  C   UNL d   1      11.165  18.532   0.553 -0.11 -0.01    +0.115 C 
DOCKED: BRANCH  40  41
DOCKED: ATOM     41  C   UNL d   1      12.563  18.452  -0.025 -0.04 -0.01    +0.139 C 
DOCKED: ATOM     42  O   UNL d   1      13.017  19.414  -0.628 +0.01 +0.05    -0.650 OA
DOCKED: BRANCH  41  43
DOCKED: ATOM     43  O   UNL d   1      13.356  17.378   0.183 +0.03 +0.06    -0.776 OA
DOCKED: ATOM     44  H   UNL d   1      13.922  17.009  -0.508 +0.02 -0.01    +0.167 HD
DOCKED: ENDBRANCH  41  43
DOCKED: ENDBRANCH  40  41
DOCKED: ENDBRANCH  39  40
DOCKED: ENDBRANCH  22  39
DOCKED: BRANCH  12  45
DOCKED: ATOM     45  C   UNL d   1      15.394   8.553  -3.816 -0.17 -0.00    +0.004 C 
DOCKED: ATOM     46  C   UNL d   1      14.788   7.901  -4.805 -0.22 -0.00    +0.012 C 
DOCKED: ENDBRANCH  12  45
DOCKED: BRANCH  17  47
DOCKED: ATOM     47  C   UNL d   1      13.134  15.277  -7.097 -0.17 -0.00    +0.004 C 
DOCKED: ATOM     48  C   UNL d   1      12.756  15.004  -8.348 -0.17 -0.00    +0.012 C 
DOCKED: ENDBRANCH  17  47
DOCKED: TORSDOF 12
DOCKED: TER
DOCKED: ENDMDL
________________________________________________________________________________


	BEGINNING GENETIC ALGORITHM DOCKING 90 of 100
Run: 90 Seed: 802156588 1639881931 [ Run 90 of 100 GA/GALS ]
Beginning LAMARCKIAN GENETIC ALGORITHM (LGA), with a maximum of 25000000 energy evaluations.

Final-Value: -10.419


	FINAL GENETIC ALGORITHM DOCKED STATE
	_______________________________________________


Detailed state:  trans 10.936 5.455 12.815 quatxyzw 0.000784 -0.365215 0.363388 0.857068 center 8.781 34.984 -0.736 ntor 12 172.5602 112.7915 -75.3158 122.1978 85.4826 134.7580 -133.6358 -102.0834 -142.2115 -26.1533 -172.8684 -139.1509
State:	 10.936   5.455  12.815   0.002 -0.709  0.705 62.022    172.56  112.79  -75.32  122.20   85.48  134.76 -133.64 -102.08 -142.21  -26.15 -172.87 -139.15

DOCKED: MODEL       90
DOCKED: USER    Run = 90
DOCKED: USER    DPF = D:/Protein_go_brrr/autodock/final/mut_K82N/heme_Co/dock.dpf
DOCKED: USER  
DOCKED: USER    Estimated Free Energy of Binding    =   -4.90 kcal/mol  [=(1)+(2)+(3)-(4)]
DOCKED: USER    Estimated Inhibition Constant, Ki   =  254.60 uM (micromolar)  [Temperature = 298.15 K]
DOCKED: USER    
DOCKED: USER    (1) Final Intermolecular Energy     =   -8.48 kcal/mol
DOCKED: USER        vdW + Hbond + desolv Energy     =   -7.66 kcal/mol
DOCKED: USER        Electrostatic Energy            =   -0.83 kcal/mol
DOCKED: USER    (2) Final Total Internal Energy     =   -1.94 kcal/mol
DOCKED: USER    (3) Torsional Free Energy           =   +3.58 kcal/mol
DOCKED: USER    (4) Unbound System's Energy  [=(2)] =   -1.94 kcal/mol
DOCKED: USER    
DOCKED: USER    
DOCKED: USER    NEWDPF move heme_Co_opt.pdbqt
DOCKED: USER    NEWDPF about 8.781000 34.984000 -0.736000
DOCKED: USER    NEWDPF tran0 10.935766 5.455019 12.815268
DOCKED: USER    NEWDPF quaternion0 0.000784 -0.365215 0.363388 0.857068
DOCKED: USER    NEWDPF axisangle0 0.001522 -0.708877 0.705331 62.021984
DOCKED: USER    NEWDPF quat0 0.001522 -0.708877 0.705331 62.021984
DOCKED: USER    NEWDPF dihe0 172.56 112.79 -75.32 122.20 85.48 134.76 -133.64 -102.08 -142.21 -26.15 -172.87 -139.15 
DOCKED: USER  keepresnum = 1 
DOCKED: USER  
DOCKED: REMARK  12 active torsions:
DOCKED: REMARK  status: ('A' for Active; 'I' for Inactive)
DOCKED: REMARK    1  A    between atoms: C_6  and  C_10 
DOCKED: REMARK    2  A    between atoms: C_10  and  C_11 
DOCKED: REMARK    3  A    between atoms: C_11  and  C_12 
DOCKED: REMARK    4  A    between atoms: C_12  and  O_14 
DOCKED: REMARK    5  A    between atoms: C_17  and  C_20 
DOCKED: REMARK    6  A    between atoms: C_24  and  C_27 
DOCKED: REMARK    7  A    between atoms: C_31  and  C_34 
DOCKED: REMARK    8  A    between atoms: C_34  and  C_35 
DOCKED: REMARK    9  A    between atoms: C_35  and  C_36 
DOCKED: REMARK   10  A    between atoms: C_36  and  O_38 
DOCKED: REMARK   11  A    between atoms: FE_43  and  C_44 
DOCKED: REMARK   12  A    between atoms: C_44  and  O_45 
DOCKED: USER                              x       y       z     vdW  Elec       q    Type
DOCKED: USER                           _______ _______ _______ _____ _____    ______ ____
DOCKED: ROOT
DOCKED: ATOM      1  C   UNL d   1       9.806   7.253  13.269 -0.15 +0.00    +0.064 A 
DOCKED: ATOM      2  C   UNL d   1      11.082   3.524  15.930 -0.26 -0.01    +0.064 C 
DOCKED: ATOM      3  C   UNL d   1      12.933   1.369  12.089 -0.18 -0.01    +0.064 A 
DOCKED: ATOM      4  C   UNL d   1      11.986   5.329   9.427 -0.16 +0.00    +0.064 A 
DOCKED: ATOM      5  C   UNL d   1       9.986   6.377  14.271 -0.22 -0.01    +0.066 A 
DOCKED: ATOM      6  C   UNL d   1       9.632   6.679  15.601 -0.28 +0.00    -0.021 A 
DOCKED: ATOM      7  C   UNL d   1      10.025   5.603  16.372 -0.15 +0.00    -0.025 A 
DOCKED: ATOM      8  C   UNL d   1      10.587   4.684  15.479 -0.22 -0.01    +0.066 A 
DOCKED: ATOM      9  C   UNL d   1       9.884   5.432  17.892 +0.14 +0.01    +0.051 C 
DOCKED: ATOM     10  C   UNL d   1      11.654   2.508  15.084 -0.24 -0.01    +0.066 A 
DOCKED: ATOM     11  C   UNL d   1      12.062   1.214  15.477 -0.28 +0.00    -0.021 A 
DOCKED: ATOM     12  C   UNL d   1      12.594   0.606  14.336 -0.27 -0.00    +0.000 A 
DOCKED: ATOM     13  C   UNL d   1      12.461   1.566  13.332 -0.19 -0.01    +0.070 A 
DOCKED: ATOM     14  C   UNL d   1      11.859   0.588  16.832 -0.37 -0.01    +0.052 C 
DOCKED: ATOM     15  C   UNL d   1      12.928   2.267  10.950 -0.16 -0.01    +0.066 A 
DOCKED: ATOM     16  C   UNL d   1      13.562   2.057   9.734 -0.14 +0.00    -0.021 A 
DOCKED: ATOM     17  C   UNL d   1      13.294   3.197   8.964 -0.13 -0.00    +0.000 A 
DOCKED: ATOM     18  C   UNL d   1      12.500   4.008   9.768 -0.13 -0.00    +0.070 A 
DOCKED: ATOM     19  C   UNL d   1      14.368   0.831   9.365 +0.03 +0.00    +0.052 C 
DOCKED: ATOM     20  C   UNL d   1      11.286   6.172  10.223 -0.19 -0.00    +0.066 A 
DOCKED: ATOM     21  C   UNL d   1      10.877   7.432   9.793 -0.18 -0.00    -0.025 A 
DOCKED: ATOM     22  C   UNL d   1      10.221   7.999  10.870 -0.23 -0.00    -0.021 A 
DOCKED: ATOM     23  C   UNL d   1      10.272   7.053  11.916 -0.23 +0.00    +0.066 A 
DOCKED: ATOM     24  C   UNL d   1      11.117   8.075   8.429 -0.16 +0.01    +0.051 C 
DOCKED: ATOM     25  N   UNL d   1      10.571   5.135  14.170 -0.17 +0.04    -0.248 N 
DOCKED: ATOM     26  N   UNL d   1      11.842   2.693  13.773 -0.12 +0.03    -0.248 N 
DOCKED: ATOM     27  N   UNL d   1      12.328   3.436  10.954 -0.07 +0.01    -0.248 N 
DOCKED: ATOM     28  N   UNL d   1      10.918   5.947  11.529 -0.16 +0.01    -0.248 N 
DOCKED: ATOM     29 FE   UNL d   1      11.500   4.238  12.465 -0.05 -0.00    +0.000 Fe
DOCKED: ENDROOT
DOCKED: BRANCH   6  30
DOCKED: ATOM     30  C   UNL d   1       9.019   7.981  16.105 -0.26 -0.01    +0.052 C 
DOCKED: BRANCH  30  31
DOCKED: ATOM     31  C   UNL d   1      10.113   8.981  16.478 -0.09 -0.00    +0.115 C 
DOCKED: BRANCH  31  32
DOCKED: ATOM     32  C   UNL d   1      11.310   8.897  15.556 -0.05 -0.00    +0.139 C 
DOCKED: ATOM     33  O   UNL d   1      11.402   9.674  14.618 -0.00 -0.01    -0.650 OA
DOCKED: BRANCH  32  34
DOCKED: ATOM     34  O   UNL d   1      12.315   8.015  15.763 +0.05 +0.01    -0.776 OA
DOCKED: ATOM     35  H   UNL d   1      13.009   7.820  15.119 +0.02 -0.00    +0.167 HD
DOCKED: ENDBRANCH  32  34
DOCKED: ENDBRANCH  31  32
DOCKED: ENDBRANCH  30  31
DOCKED: ENDBRANCH   6  30
DOCKED: BRANCH  29  36
DOCKED: ATOM     36  C   UNL d   1      13.277   5.158  13.090 -0.03 -0.01    +0.190 C 
DOCKED: BRANCH  36  37
DOCKED: ATOM     37  O   UNL d   1      13.775   6.195  13.885 +0.00 +0.01    -0.399 OA
DOCKED: ATOM     38  H   UNL d   1      12.966   6.632  14.273 +0.03 -0.00    +0.209 HD
DOCKED: ENDBRANCH  36  37
DOCKED: ENDBRANCH  29  36
DOCKED: BRANCH  22  39
DOCKED: ATOM     39  C   UNL d   1       9.636   9.398  10.907 -0.17 +0.01    +0.052 C 
DOCKED: BRANCH  39  40
DOCKED: ATOM     40  C   UNL d   1      10.541  10.385  10.151 -0.12 +0.03    +0.115 C 
DOCKED: BRANCH  40  41
DOCKED: ATOM     41  C   UNL d   1       9.801  11.523   9.479 -0.05 +0.08    +0.139 C 
DOCKED: ATOM     42  O   UNL d   1       8.819  12.003  10.026 -0.54 -0.50    -0.650 OA
DOCKED: BRANCH  41  43
DOCKED: ATOM     43  O   UNL d   1      10.247  12.081   8.332 -0.39 -0.52    -0.776 OA
DOCKED: ATOM     44  H   UNL d   1      11.053  12.612   8.292 +0.02 +0.05    +0.167 HD
DOCKED: ENDBRANCH  41  43
DOCKED: ENDBRANCH  40  41
DOCKED: ENDBRANCH  39  40
DOCKED: ENDBRANCH  22  39
DOCKED: BRANCH  12  45
DOCKED: ATOM     45  C   UNL d   1      13.193  -0.770  14.077 -0.40 -0.00    +0.004 C 
DOCKED: ATOM     46  C   UNL d   1      12.757  -1.775  13.322 -0.49 -0.00    +0.012 C 
DOCKED: ENDBRANCH  12  45
DOCKED: BRANCH  17  47
DOCKED: ATOM     47  C   UNL d   1      13.771   3.558   7.595 -0.10 -0.00    +0.004 C 
DOCKED: ATOM     48  C   UNL d   1      13.459   2.862   6.499 -0.13 -0.00    +0.012 C 
DOCKED: ENDBRANCH  17  47
DOCKED: TORSDOF 12
DOCKED: TER
DOCKED: ENDMDL
________________________________________________________________________________


	BEGINNING GENETIC ALGORITHM DOCKING 91 of 100
Run: 91 Seed: 12507871 1706782170 [ Run 91 of 100 GA/GALS ]
Beginning LAMARCKIAN GENETIC ALGORITHM (LGA), with a maximum of 25000000 energy evaluations.

Final-Value: -9.229


	FINAL GENETIC ALGORITHM DOCKED STATE
	_______________________________________________


Detailed state:  trans 13.428 11.980 -0.408 quatxyzw -0.362070 -0.808240 -0.233200 0.401585 center 8.781 34.984 -0.736 ntor 12 172.2126 114.3720 4.4741 -108.0349 76.9165 142.2307 -128.3777 -10.9968 -140.2999 80.4740 -177.6809 5.6570
State:	 13.428  11.980  -0.408  -0.395 -0.883 -0.255 132.645    172.21  114.37    4.47 -108.03   76.92  142.23 -128.38  -11.00 -140.30   80.47 -177.68    5.66

DOCKED: MODEL       91
DOCKED: USER    Run = 91
DOCKED: USER    DPF = D:/Protein_go_brrr/autodock/final/mut_K82N/heme_Co/dock.dpf
DOCKED: USER  
DOCKED: USER    Estimated Free Energy of Binding    =   -3.42 kcal/mol  [=(1)+(2)+(3)-(4)]
DOCKED: USER    Estimated Inhibition Constant, Ki   =    3.13 mM (millimolar)  [Temperature = 298.15 K]
DOCKED: USER    
DOCKED: USER    (1) Final Intermolecular Energy     =   -7.00 kcal/mol
DOCKED: USER        vdW + Hbond + desolv Energy     =   -6.32 kcal/mol
DOCKED: USER        Electrostatic Energy            =   -0.68 kcal/mol
DOCKED: USER    (2) Final Total Internal Energy     =   -2.23 kcal/mol
DOCKED: USER    (3) Torsional Free Energy           =   +3.58 kcal/mol
DOCKED: USER    (4) Unbound System's Energy  [=(2)] =   -2.23 kcal/mol
DOCKED: USER    
DOCKED: USER    
DOCKED: USER    NEWDPF move heme_Co_opt.pdbqt
DOCKED: USER    NEWDPF about 8.781000 34.984000 -0.736000
DOCKED: USER    NEWDPF tran0 13.428277 11.979627 -0.407807
DOCKED: USER    NEWDPF quaternion0 -0.362070 -0.808240 -0.233200 0.401585
DOCKED: USER    NEWDPF axisangle0 -0.395350 -0.882530 -0.254634 132.645365
DOCKED: USER    NEWDPF quat0 -0.395350 -0.882530 -0.254634 132.645365
DOCKED: USER    NEWDPF dihe0 172.21 114.37 4.47 -108.03 76.92 142.23 -128.38 -11.00 -140.30 80.47 -177.68 5.66 
DOCKED: USER  keepresnum = 1 
DOCKED: USER  
DOCKED: REMARK  12 active torsions:
DOCKED: REMARK  status: ('A' for Active; 'I' for Inactive)
DOCKED: REMARK    1  A    between atoms: C_6  and  C_10 
DOCKED: REMARK    2  A    between atoms: C_10  and  C_11 
DOCKED: REMARK    3  A    between atoms: C_11  and  C_12 
DOCKED: REMARK    4  A    between atoms: C_12  and  O_14 
DOCKED: REMARK    5  A    between atoms: C_17  and  C_20 
DOCKED: REMARK    6  A    between atoms: C_24  and  C_27 
DOCKED: REMARK    7  A    between atoms: C_31  and  C_34 
DOCKED: REMARK    8  A    between atoms: C_34  and  C_35 
DOCKED: REMARK    9  A    between atoms: C_35  and  C_36 
DOCKED: REMARK   10  A    between atoms: C_36  and  O_38 
DOCKED: REMARK   11  A    between atoms: FE_43  and  C_44 
DOCKED: REMARK   12  A    between atoms: C_44  and  O_45 
DOCKED: USER                              x       y       z     vdW  Elec       q    Type
DOCKED: USER                           _______ _______ _______ _____ _____    ______ ____
DOCKED: ROOT
DOCKED: ATOM      1  C   UNL d   1      13.735  10.725   1.338 -0.10 -0.00    +0.064 A 
DOCKED: ATOM      2  C   UNL d   1      15.209  10.347  -3.167 -0.16 -0.01    +0.064 C 
DOCKED: ATOM      3  C   UNL d   1      12.639  14.190  -4.371 -0.23 -0.01    +0.064 A 
DOCKED: ATOM      4  C   UNL d   1      11.427  14.826   0.298 -0.26 -0.01    +0.064 A 
DOCKED: ATOM      5  C   UNL d   1      14.298  10.318   0.188 -0.09 -0.00    +0.066 A 
DOCKED: ATOM      6  C   UNL d   1      15.200   9.238   0.140 -0.08 +0.00    -0.021 A 
DOCKED: ATOM      7  C   UNL d   1      15.642   9.147  -1.166 -0.09 +0.00    -0.025 A 
DOCKED: ATOM      8  C   UNL d   1      14.979  10.164  -1.860 -0.14 -0.00    +0.066 A 
DOCKED: ATOM      9  C   UNL d   1      16.651   8.147  -1.752 -0.04 -0.00    +0.051 C 
DOCKED: ATOM     10  C   UNL d   1      14.554  11.349  -3.969 -0.19 -0.01    +0.066 A 
DOCKED: ATOM     11  C   UNL d   1      14.646  11.501  -5.370 -0.20 +0.00    -0.021 A 
DOCKED: ATOM     12  C   UNL d   1      13.884  12.627  -5.695 -0.26 -0.00    +0.000 A 
DOCKED: ATOM     13  C   UNL d   1      13.374  13.069  -4.474 -0.18 -0.02    +0.070 A 
DOCKED: ATOM     14  C   UNL d   1      15.342  10.566  -6.325 -0.15 -0.00    +0.052 C 
DOCKED: ATOM     15  C   UNL d   1      12.079  14.818  -3.190 -0.28 -0.02    +0.066 A 
DOCKED: ATOM     16  C   UNL d   1      11.451  16.054  -3.134 -0.23 +0.01    -0.021 A 
DOCKED: ATOM     17  C   UNL d   1      11.102  16.243  -1.789 -0.21 -0.00    +0.000 A 
DOCKED: ATOM     18  C   UNL d   1      11.531  15.095  -1.131 -0.22 -0.01    +0.070 A 
DOCKED: ATOM     19  C   UNL d   1      11.217  16.973  -4.312 -0.20 -0.01    +0.052 C 
DOCKED: ATOM     20  C   UNL d   1      11.914  13.757   0.973 -0.18 -0.00    +0.066 A 
DOCKED: ATOM     21  C   UNL d   1      11.782  13.627   2.354 -0.14 -0.00    -0.025 A 
DOCKED: ATOM     22  C   UNL d   1      12.413  12.440   2.678 -0.11 -0.00    -0.021 A 
DOCKED: ATOM     23  C   UNL d   1      12.912  11.906   1.471 -0.08 -0.00    +0.066 A 
DOCKED: ATOM     24  C   UNL d   1      11.106  14.596   3.320 -0.12 +0.00    +0.051 C 
DOCKED: ATOM     25  N   UNL d   1      14.135  10.902  -1.048 -0.11 +0.02    -0.248 N 
DOCKED: ATOM     26  N   UNL d   1      13.735  12.263  -3.439 -0.15 +0.06    -0.248 N 
DOCKED: ATOM     27  N   UNL d   1      12.135  14.282  -1.991 -0.21 +0.06    -0.248 N 
DOCKED: ATOM     28  N   UNL d   1      12.614  12.701   0.437 -0.14 +0.01    -0.248 N 
DOCKED: ATOM     29 FE   UNL d   1      13.075  12.692  -1.544 -0.06 -0.00    +0.000 Fe
DOCKED: ENDROOT
DOCKED: BRANCH   6  30
DOCKED: ATOM     30  C   UNL d   1      15.671   8.392   1.318 -0.04 -0.00    +0.052 C 
DOCKED: BRANCH  30  31
DOCKED: ATOM     31  C   UNL d   1      16.973   8.949   1.893 -0.01 -0.00    +0.115 C 
DOCKED: BRANCH  31  32
DOCKED: ATOM     32  C   UNL d   1      17.005  10.462   1.890 -0.01 -0.00    +0.139 C 
DOCKED: ATOM     33  O   UNL d   1      16.796  11.069   2.929 +0.00 +0.02    -0.650 OA
DOCKED: BRANCH  32  34
DOCKED: ATOM     34  O   UNL d   1      17.306  11.171   0.777 +0.01 +0.03    -0.776 OA
DOCKED: ATOM     35  H   UNL d   1      17.177  12.126   0.690 +0.00 -0.01    +0.167 HD
DOCKED: ENDBRANCH  32  34
DOCKED: ENDBRANCH  31  32
DOCKED: ENDBRANCH  30  31
DOCKED: ENDBRANCH   6  30
DOCKED: BRANCH  29  36
DOCKED: ATOM     36  C   UNL d   1      14.859  13.722  -1.157 -0.05 -0.02    +0.190 C 
DOCKED: BRANCH  36  37
DOCKED: ATOM     37  O   UNL d   1      16.130  13.576  -0.593 -0.00 +0.02    -0.399 OA
DOCKED: ATOM     38  H   UNL d   1      16.168  12.626  -0.288 +0.01 -0.01    +0.209 HD
DOCKED: ENDBRANCH  36  37
DOCKED: ENDBRANCH  29  36
DOCKED: BRANCH  22  39
DOCKED: ATOM     39  C   UNL d   1      12.580  11.887   4.081 -0.07 +0.00    +0.052 C 
DOCKED: BRANCH  39  40
DOCKED: ATOM     40  C   UNL d   1      11.650  10.683   4.305 -0.11 +0.02    +0.115 C 
DOCKED: BRANCH  40  41
DOCKED: ATOM     41  C   UNL d   1      10.441  10.979   5.167 -0.13 +0.06    +0.139 C 
DOCKED: ATOM     42  O   UNL d   1       9.326  10.699   4.751 -0.32 -0.47    -0.650 OA
DOCKED: BRANCH  41  43
DOCKED: ATOM     43  O   UNL d   1      10.566  11.465   6.422 -0.03 -0.42    -0.776 OA
DOCKED: ATOM     44  H   UNL d   1      11.405  11.789   6.773 +0.02 +0.05    +0.167 HD
DOCKED: ENDBRANCH  41  43
DOCKED: ENDBRANCH  40  41
DOCKED: ENDBRANCH  39  40
DOCKED: ENDBRANCH  22  39
DOCKED: BRANCH  12  45
DOCKED: ATOM     45  C   UNL d   1      13.565  13.320  -7.012 -0.26 -0.00    +0.004 C 
DOCKED: ATOM     46  C   UNL d   1      13.865  14.542  -7.443 -0.16 -0.00    +0.012 C 
DOCKED: ENDBRANCH  12  45
DOCKED: BRANCH  17  47
DOCKED: ATOM     47  C   UNL d   1      10.462  17.418  -1.125 -0.26 -0.00    +0.004 C 
DOCKED: ATOM     48  C   UNL d   1       9.297  17.940  -1.516 -0.31 -0.00    +0.012 C 
DOCKED: ENDBRANCH  17  47
DOCKED: TORSDOF 12
DOCKED: TER
DOCKED: ENDMDL
________________________________________________________________________________


	BEGINNING GENETIC ALGORITHM DOCKING 92 of 100
Run: 92 Seed: 1778920348 1259956837 [ Run 92 of 100 GA/GALS ]
Beginning LAMARCKIAN GENETIC ALGORITHM (LGA), with a maximum of 25000000 energy evaluations.

Final-Value: -9.403


	FINAL GENETIC ALGORITHM DOCKED STATE
	_______________________________________________


Detailed state:  trans 13.417 12.769 -2.875 quatxyzw -0.506084 -0.629162 -0.539650 -0.238351 center 8.781 34.984 -0.736 ntor 12 117.7212 109.0878 78.8032 101.8954 132.2912 111.6562 18.5197 -55.9968 160.7326 -139.1911 -163.2553 139.5722
State:	 13.417  12.769  -2.875  -0.521 -0.648 -0.556 -152.421    117.72  109.09   78.80  101.90  132.29  111.66   18.52  -56.00  160.73 -139.19 -163.26  139.57

DOCKED: MODEL       92
DOCKED: USER    Run = 92
DOCKED: USER    DPF = D:/Protein_go_brrr/autodock/final/mut_K82N/heme_Co/dock.dpf
DOCKED: USER  
DOCKED: USER    Estimated Free Energy of Binding    =   -2.40 kcal/mol  [=(1)+(2)+(3)-(4)]
DOCKED: USER    Estimated Inhibition Constant, Ki   =   17.30 mM (millimolar)  [Temperature = 298.15 K]
DOCKED: USER    
DOCKED: USER    (1) Final Intermolecular Energy     =   -5.98 kcal/mol
DOCKED: USER        vdW + Hbond + desolv Energy     =   -6.18 kcal/mol
DOCKED: USER        Electrostatic Energy            =   +0.19 kcal/mol
DOCKED: USER    (2) Final Total Internal Energy     =   -3.42 kcal/mol
DOCKED: USER    (3) Torsional Free Energy           =   +3.58 kcal/mol
DOCKED: USER    (4) Unbound System's Energy  [=(2)] =   -3.42 kcal/mol
DOCKED: USER    
DOCKED: USER    
DOCKED: USER    NEWDPF move heme_Co_opt.pdbqt
DOCKED: USER    NEWDPF about 8.781000 34.984000 -0.736000
DOCKED: USER    NEWDPF tran0 13.416941 12.769434 -2.874552
DOCKED: USER    NEWDPF quaternion0 -0.506084 -0.629162 -0.539650 -0.238351
DOCKED: USER    NEWDPF axisangle0 -0.521103 -0.647834 -0.555665 -152.421480
DOCKED: USER    NEWDPF quat0 -0.521103 -0.647834 -0.555665 -152.421480
DOCKED: USER    NEWDPF dihe0 117.72 109.09 78.80 101.90 132.29 111.66 18.52 -56.00 160.73 -139.19 -163.26 139.57 
DOCKED: USER  keepresnum = 1 
DOCKED: USER  
DOCKED: REMARK  12 active torsions:
DOCKED: REMARK  status: ('A' for Active; 'I' for Inactive)
DOCKED: REMARK    1  A    between atoms: C_6  and  C_10 
DOCKED: REMARK    2  A    between atoms: C_10  and  C_11 
DOCKED: REMARK    3  A    between atoms: C_11  and  C_12 
DOCKED: REMARK    4  A    between atoms: C_12  and  O_14 
DOCKED: REMARK    5  A    between atoms: C_17  and  C_20 
DOCKED: REMARK    6  A    between atoms: C_24  and  C_27 
DOCKED: REMARK    7  A    between atoms: C_31  and  C_34 
DOCKED: REMARK    8  A    between atoms: C_34  and  C_35 
DOCKED: REMARK    9  A    between atoms: C_35  and  C_36 
DOCKED: REMARK   10  A    between atoms: C_36  and  O_38 
DOCKED: REMARK   11  A    between atoms: FE_43  and  C_44 
DOCKED: REMARK   12  A    between atoms: C_44  and  O_45 
DOCKED: USER                              x       y       z     vdW  Elec       q    Type
DOCKED: USER                           _______ _______ _______ _____ _____    ______ ____
DOCKED: ROOT
DOCKED: ATOM      1  C   UNL d   1      14.378  11.205  -4.035 -0.22 -0.01    +0.064 A 
DOCKED: ATOM      2  C   UNL d   1      12.448  15.373  -5.269 -0.13 -0.01    +0.064 C 
DOCKED: ATOM      3  C   UNL d   1      10.982  16.068  -0.775 -0.19 -0.01    +0.064 A 
DOCKED: ATOM      4  C   UNL d   1      13.278  12.002   0.589 -0.10 -0.00    +0.064 A 
DOCKED: ATOM      5  C   UNL d   1      13.927  12.276  -4.710 -0.24 -0.01    +0.066 A 
DOCKED: ATOM      6  C   UNL d   1      14.221  12.478  -6.072 -0.19 +0.00    -0.021 A 
DOCKED: ATOM      7  C   UNL d   1      13.678  13.700  -6.420 -0.21 +0.00    -0.025 A 
DOCKED: ATOM      8  C   UNL d   1      13.062  14.183  -5.260 -0.22 -0.01    +0.066 A 
DOCKED: ATOM      9  C   UNL d   1      13.729  14.400  -7.786 -0.17 -0.00    +0.051 C 
DOCKED: ATOM     10  C   UNL d   1      11.766  15.938  -4.133 -0.21 -0.01    +0.066 A 
DOCKED: ATOM     11  C   UNL d   1      10.985  17.114  -4.117 -0.19 +0.00    -0.021 A 
DOCKED: ATOM     12  C   UNL d   1      10.566  17.291  -2.795 -0.22 -0.00    +0.000 A 
DOCKED: ATOM     13  C   UNL d   1      11.111  16.207  -2.107 -0.18 -0.02    +0.070 A 
DOCKED: ATOM     14  C   UNL d   1      10.597  17.944  -5.314 -0.15 -0.01    +0.052 C 
DOCKED: ATOM     15  C   UNL d   1      11.521  15.045   0.099 -0.25 -0.01    +0.066 A 
DOCKED: ATOM     16  C   UNL d   1      11.473  15.038   1.486 -0.18 +0.00    -0.021 A 
DOCKED: ATOM     17  C   UNL d   1      12.136  13.869   1.884 -0.15 -0.00    +0.000 A 
DOCKED: ATOM     18  C   UNL d   1      12.523  13.243   0.704 -0.18 -0.00    +0.070 A 
DOCKED: ATOM     19  C   UNL d   1      10.827  16.102   2.346 -0.14 -0.00    +0.052 C 
DOCKED: ATOM     20  C   UNL d   1      13.740  11.420  -0.544 -0.11 -0.00    +0.066 A 
DOCKED: ATOM     21  C   UNL d   1      14.487  10.244  -0.524 -0.14 +0.00    -0.025 A 
DOCKED: ATOM     22  C   UNL d   1      14.794   9.974  -1.845 -0.17 +0.00    -0.021 A 
DOCKED: ATOM     23  C   UNL d   1      14.224  11.014  -2.611 -0.21 -0.01    +0.066 A 
DOCKED: ATOM     24  C   UNL d   1      14.906   9.427   0.695 -0.09 -0.00    +0.051 C 
DOCKED: ATOM     25  N   UNL d   1      13.196  13.318  -4.186 -0.16 +0.06    -0.248 N 
DOCKED: ATOM     26  N   UNL d   1      11.789  15.360  -2.927 -0.20 +0.06    -0.248 N 
DOCKED: ATOM     27  N   UNL d   1      12.166  13.986  -0.338 -0.20 +0.03    -0.248 N 
DOCKED: ATOM     28  N   UNL d   1      13.587  11.892  -1.827 -0.14 +0.05    -0.248 N 
DOCKED: ATOM     29 FE   UNL d   1      12.652  13.669  -2.147 -0.06 -0.00    +0.000 Fe
DOCKED: ENDROOT
DOCKED: BRANCH   6  30
DOCKED: ATOM     30  C   UNL d   1      15.057  11.570  -6.967 -0.16 -0.00    +0.052 C 
DOCKED: BRANCH  30  31
DOCKED: ATOM     31  C   UNL d   1      16.548  11.793  -6.716 -0.05 -0.01    +0.115 C 
DOCKED: BRANCH  31  32
DOCKED: ATOM     32  C   UNL d   1      16.831  13.136  -6.078 -0.02 -0.01    +0.139 C 
DOCKED: ATOM     33  O   UNL d   1      17.409  13.998  -6.724 +0.01 +0.04    -0.650 OA
DOCKED: BRANCH  32  34
DOCKED: ATOM     34  O   UNL d   1      16.422  13.436  -4.824 +0.03 +0.05    -0.776 OA
DOCKED: ATOM     35  H   UNL d   1      17.019  13.587  -4.078 +0.01 -0.01    +0.167 HD
DOCKED: ENDBRANCH  32  34
DOCKED: ENDBRANCH  31  32
DOCKED: ENDBRANCH  30  31
DOCKED: ENDBRANCH   6  30
DOCKED: BRANCH  29  36
DOCKED: ATOM     36  C   UNL d   1      14.473  14.689  -1.955 -0.05 -0.02    +0.190 C 
DOCKED: BRANCH  36  37
DOCKED: ATOM     37  O   UNL d   1      15.829  14.621  -2.290 -0.00 +0.03    -0.399 OA
DOCKED: ATOM     38  H   UNL d   1      15.937  13.739  -2.743 +0.02 -0.02    +0.209 HD
DOCKED: ENDBRANCH  36  37
DOCKED: ENDBRANCH  29  36
DOCKED: BRANCH  22  39
DOCKED: ATOM     39  C   UNL d   1      15.643   8.816  -2.333 -0.12 -0.00    +0.052 C 
DOCKED: BRANCH  39  40
DOCKED: ATOM     40  C   UNL d   1      16.891   9.330  -3.069 -0.03 -0.00    +0.115 C 
DOCKED: BRANCH  40  41
DOCKED: ATOM     41  C   UNL d   1      17.471  10.607  -2.499 -0.01 -0.01    +0.139 C 
DOCKED: ATOM     42  O   UNL d   1      18.210  10.547  -1.527 +0.01 +0.03    -0.650 OA
DOCKED: BRANCH  41  43
DOCKED: ATOM     43  O   UNL d   1      17.265  11.806  -3.089 +0.02 +0.04    -0.776 OA
DOCKED: ATOM     44  H   UNL d   1      16.479  12.341  -2.916 +0.02 -0.01    +0.167 HD
DOCKED: ENDBRANCH  41  43
DOCKED: ENDBRANCH  40  41
DOCKED: ENDBRANCH  39  40
DOCKED: ENDBRANCH  22  39
DOCKED: BRANCH  12  45
DOCKED: ATOM     45  C   UNL d   1       9.704  18.343  -2.111 -0.27 -0.00    +0.004 C 
DOCKED: ATOM     46  C   UNL d   1       8.398  18.361  -1.856 -0.35 -0.00    +0.012 C 
DOCKED: ENDBRANCH  12  45
DOCKED: BRANCH  17  47
DOCKED: ATOM     47  C   UNL d   1      12.448  13.369   3.257 -0.09 +0.00    +0.004 C 
DOCKED: ATOM     48  C   UNL d   1      11.869  12.296   3.799 -0.11 +0.00    +0.012 C 
DOCKED: ENDBRANCH  17  47
DOCKED: TORSDOF 12
DOCKED: TER
DOCKED: ENDMDL
________________________________________________________________________________


	BEGINNING GENETIC ALGORITHM DOCKING 93 of 100
Run: 93 Seed: 2131478347 178689667 [ Run 93 of 100 GA/GALS ]
Beginning LAMARCKIAN GENETIC ALGORITHM (LGA), with a maximum of 25000000 energy evaluations.

Final-Value: -10.716


	FINAL GENETIC ALGORITHM DOCKED STATE
	_______________________________________________


Detailed state:  trans -9.813 17.771 5.791 quatxyzw -0.083043 0.719000 -0.481091 -0.494666 center 8.781 34.984 -0.736 ntor 12 114.3258 63.2021 119.2640 -62.1050 -57.6231 134.1035 32.3089 -40.4823 151.8147 174.7952 -151.9441 -180.0000
State:	 -9.813  17.771   5.791  -0.096  0.827 -0.554 -120.705    114.33   63.20  119.26  -62.11  -57.62  134.10   32.31  -40.48  151.81  174.80 -151.94 -180.00

DOCKED: MODEL       93
DOCKED: USER    Run = 93
DOCKED: USER    DPF = D:/Protein_go_brrr/autodock/final/mut_K82N/heme_Co/dock.dpf
DOCKED: USER  
DOCKED: USER    Estimated Free Energy of Binding    =   -4.24 kcal/mol  [=(1)+(2)+(3)-(4)]
DOCKED: USER    Estimated Inhibition Constant, Ki   =  779.11 uM (micromolar)  [Temperature = 298.15 K]
DOCKED: USER    
DOCKED: USER    (1) Final Intermolecular Energy     =   -7.82 kcal/mol
DOCKED: USER        vdW + Hbond + desolv Energy     =   -6.25 kcal/mol
DOCKED: USER        Electrostatic Energy            =   -1.57 kcal/mol
DOCKED: USER    (2) Final Total Internal Energy     =   -2.90 kcal/mol
DOCKED: USER    (3) Torsional Free Energy           =   +3.58 kcal/mol
DOCKED: USER    (4) Unbound System's Energy  [=(2)] =   -2.90 kcal/mol
DOCKED: USER    
DOCKED: USER    
DOCKED: USER    NEWDPF move heme_Co_opt.pdbqt
DOCKED: USER    NEWDPF about 8.781000 34.984000 -0.736000
DOCKED: USER    NEWDPF tran0 -9.812826 17.770936 5.791440
DOCKED: USER    NEWDPF quaternion0 -0.083043 0.719000 -0.481091 -0.494666
DOCKED: USER    NEWDPF axisangle0 -0.095552 0.827308 -0.553562 -120.704516
DOCKED: USER    NEWDPF quat0 -0.095552 0.827308 -0.553562 -120.704516
DOCKED: USER    NEWDPF dihe0 114.33 63.20 119.26 -62.11 -57.62 134.10 32.31 -40.48 151.81 174.80 -151.94 -180.00 
DOCKED: USER  keepresnum = 1 
DOCKED: USER  
DOCKED: REMARK  12 active torsions:
DOCKED: REMARK  status: ('A' for Active; 'I' for Inactive)
DOCKED: REMARK    1  A    between atoms: C_6  and  C_10 
DOCKED: REMARK    2  A    between atoms: C_10  and  C_11 
DOCKED: REMARK    3  A    between atoms: C_11  and  C_12 
DOCKED: REMARK    4  A    between atoms: C_12  and  O_14 
DOCKED: REMARK    5  A    between atoms: C_17  and  C_20 
DOCKED: REMARK    6  A    between atoms: C_24  and  C_27 
DOCKED: REMARK    7  A    between atoms: C_31  and  C_34 
DOCKED: REMARK    8  A    between atoms: C_34  and  C_35 
DOCKED: REMARK    9  A    between atoms: C_35  and  C_36 
DOCKED: REMARK   10  A    between atoms: C_36  and  O_38 
DOCKED: REMARK   11  A    between atoms: FE_43  and  C_44 
DOCKED: REMARK   12  A    between atoms: C_44  and  O_45 
DOCKED: USER                              x       y       z     vdW  Elec       q    Type
DOCKED: USER                           _______ _______ _______ _____ _____    ______ ____
DOCKED: ROOT
DOCKED: ATOM      1  C   UNL d   1      -9.346  19.702   6.668 -0.03 +0.02    +0.064 A 
DOCKED: ATOM      2  C   UNL d   1      -7.965  15.284   7.753 -0.10 +0.05    +0.064 C 
DOCKED: ATOM      3  C   UNL d   1     -10.907  13.508   4.434 -0.19 +0.01    +0.064 A 
DOCKED: ATOM      4  C   UNL d   1     -12.046  18.029   3.044 -0.03 +0.01    +0.064 A 
DOCKED: ATOM      5  C   UNL d   1      -8.780  18.623   7.233 -0.07 +0.03    +0.066 A 
DOCKED: ATOM      6  C   UNL d   1      -7.784  18.735   8.223 -0.06 -0.01    -0.021 A 
DOCKED: ATOM      7  C   UNL d   1      -7.370  17.450   8.518 +0.00 -0.02    -0.025 A 
DOCKED: ATOM      8  C   UNL d   1      -8.142  16.610   7.708 -0.06 +0.06    +0.066 A 
DOCKED: ATOM      9  C   UNL d   1      -6.291  17.015   9.520 -0.06 +0.04    +0.051 C 
DOCKED: ATOM     10  C   UNL d   1      -8.730  14.340   6.977 -0.12 +0.03    +0.066 A 
DOCKED: ATOM     11  C   UNL d   1      -8.690  12.932   7.082 -0.18 -0.00    -0.021 A 
DOCKED: ATOM     12  C   UNL d   1      -9.560  12.440   6.105 -0.21 +0.00    +0.000 A 
DOCKED: ATOM     13  C   UNL d   1     -10.075  13.580   5.487 -0.16 +0.01    +0.070 A 
DOCKED: ATOM     14  C   UNL d   1      -7.937  12.136   8.116 -0.25 +0.00    +0.052 C 
DOCKED: ATOM     15  C   UNL d   1     -11.489  14.577   3.646 -0.18 +0.01    +0.066 A 
DOCKED: ATOM     16  C   UNL d   1     -12.226  14.432   2.479 -0.19 -0.00    -0.021 A 
DOCKED: ATOM     17  C   UNL d   1     -12.555  15.734   2.073 -0.14 +0.00    +0.000 A 
DOCKED: ATOM     18  C   UNL d   1     -12.005  16.572   3.038 -0.01 +0.01    +0.070 A 
DOCKED: ATOM     19  C   UNL d   1     -12.574  13.117   1.819 -0.16 +0.01    +0.052 C 
DOCKED: ATOM     20  C   UNL d   1     -11.446  18.866   3.923 -0.09 +0.01    +0.066 A 
DOCKED: ATOM     21  C   UNL d   1     -11.528  20.252   3.804 -0.07 -0.00    -0.025 A 
DOCKED: ATOM     22  C   UNL d   1     -10.783  20.761   4.852 -0.04 -0.00    -0.021 A 
DOCKED: ATOM     23  C   UNL d   1     -10.270  19.652   5.557 -0.05 +0.01    +0.066 A 
DOCKED: ATOM     24  C   UNL d   1     -12.264  21.053   2.733 -0.06 +0.00    +0.051 C 
DOCKED: ATOM     25  N   UNL d   1      -9.028  17.310   6.906 -0.07 -0.14    -0.248 N 
DOCKED: ATOM     26  N   UNL d   1      -9.615  14.728   6.053 -0.09 -0.08    -0.248 N 
DOCKED: ATOM     27  N   UNL d   1     -11.352  15.850   3.942 -0.09 -0.04    -0.248 N 
DOCKED: ATOM     28  N   UNL d   1     -10.667  18.503   4.997 -0.05 -0.05    -0.248 N 
DOCKED: ATOM     29 FE   UNL d   1     -10.260  16.540   5.336 -0.03 +0.00    +0.000 Fe
DOCKED: ENDROOT
DOCKED: BRANCH   6  30
DOCKED: ATOM     30  C   UNL d   1      -7.206  20.027   8.791 -0.03 +0.02    +0.052 C 
DOCKED: BRANCH  30  31
DOCKED: ATOM     31  C   UNL d   1      -6.397  20.767   7.727 -0.04 +0.04    +0.115 C 
DOCKED: BRANCH  31  32
DOCKED: ATOM     32  C   UNL d   1      -5.763  19.826   6.725 -0.07 +0.12    +0.139 C 
DOCKED: ATOM     33  O   UNL d   1      -4.597  19.490   6.870 -0.08 -0.75    -0.650 OA
DOCKED: BRANCH  32  34
DOCKED: ATOM     34  O   UNL d   1      -6.462  19.301   5.692 -0.34 -0.85    -0.776 OA
DOCKED: ATOM     35  H   UNL d   1      -6.325  19.541   4.765 -0.47 +0.08    +0.167 HD
DOCKED: ENDBRANCH  32  34
DOCKED: ENDBRANCH  31  32
DOCKED: ENDBRANCH  30  31
DOCKED: ENDBRANCH   6  30
DOCKED: BRANCH  29  36
DOCKED: ATOM     36  C   UNL d   1      -8.568  16.653   4.104 -0.12 +0.11    +0.190 C 
DOCKED: BRANCH  36  37
DOCKED: ATOM     37  O   UNL d   1      -7.321  17.275   3.979 -0.48 -0.32    -0.399 OA
DOCKED: ATOM     38  H   UNL d   1      -7.505  18.247   4.105 -0.18 +0.11    +0.209 HD
DOCKED: ENDBRANCH  36  37
DOCKED: ENDBRANCH  29  36
DOCKED: BRANCH  22  39
DOCKED: ATOM     39  C   UNL d   1     -10.529  22.233   5.117 -0.02 +0.00    +0.052 C 
DOCKED: BRANCH  39  40
DOCKED: ATOM     40  C   UNL d   1      -9.434  22.772   4.181 -0.03 +0.00    +0.115 C 
DOCKED: BRANCH  40  41
DOCKED: ATOM     41  C   UNL d   1      -8.688  21.702   3.412 -0.11 +0.01    +0.139 C 
DOCKED: ATOM     42  O   UNL d   1      -9.019  21.451   2.262 -0.02 -0.05    -0.650 OA
DOCKED: BRANCH  41  43
DOCKED: ATOM     43  O   UNL d   1      -7.608  21.076   3.931 +0.02 -0.06    -0.776 OA
DOCKED: ATOM     44  H   UNL d   1      -7.547  20.114   3.996 -0.15 +0.02    +0.167 HD
DOCKED: ENDBRANCH  41  43
DOCKED: ENDBRANCH  40  41
DOCKED: ENDBRANCH  39  40
DOCKED: ENDBRANCH  22  39
DOCKED: BRANCH  12  45
DOCKED: ATOM     45  C   UNL d   1      -9.976  11.033   5.699 -0.37 -0.00    +0.004 C 
DOCKED: ATOM     46  C   UNL d   1      -9.294  10.072   5.081 -0.56 -0.00    +0.012 C 
DOCKED: ENDBRANCH  12  45
DOCKED: BRANCH  17  47
DOCKED: ATOM     47  C   UNL d   1     -13.282  16.197   0.854 -0.15 +0.00    +0.004 C 
DOCKED: ATOM     48  C   UNL d   1     -12.714  16.297  -0.350 -0.21 +0.00    +0.012 C 
DOCKED: ENDBRANCH  17  47
DOCKED: TORSDOF 12
DOCKED: TER
DOCKED: ENDMDL
________________________________________________________________________________


	BEGINNING GENETIC ALGORITHM DOCKING 94 of 100
Run: 94 Seed: 2046459743 1856939662 [ Run 94 of 100 GA/GALS ]
Beginning LAMARCKIAN GENETIC ALGORITHM (LGA), with a maximum of 25000000 energy evaluations.

Final-Value: -9.631


	FINAL GENETIC ALGORITHM DOCKED STATE
	_______________________________________________


Detailed state:  trans -11.372 6.038 -9.409 quatxyzw -0.529399 -0.145691 0.262136 -0.793596 center 8.781 34.984 -0.736 ntor 12 31.9271 111.7939 -166.8611 -18.9092 -22.4952 93.8026 43.0650 -82.2847 -174.7977 70.9885 6.3905 -137.0588
State:	-11.372   6.038  -9.409  -0.870 -0.239  0.431 -74.954     31.93  111.79 -166.86  -18.91  -22.50   93.80   43.07  -82.28 -174.80   70.99    6.39 -137.06

DOCKED: MODEL       94
DOCKED: USER    Run = 94
DOCKED: USER    DPF = D:/Protein_go_brrr/autodock/final/mut_K82N/heme_Co/dock.dpf
DOCKED: USER  
DOCKED: USER    Estimated Free Energy of Binding    =   -5.46 kcal/mol  [=(1)+(2)+(3)-(4)]
DOCKED: USER    Estimated Inhibition Constant, Ki   =   98.78 uM (micromolar)  [Temperature = 298.15 K]
DOCKED: USER    
DOCKED: USER    (1) Final Intermolecular Energy     =   -9.04 kcal/mol
DOCKED: USER        vdW + Hbond + desolv Energy     =   -6.55 kcal/mol
DOCKED: USER        Electrostatic Energy            =   -2.49 kcal/mol
DOCKED: USER    (2) Final Total Internal Energy     =   -0.59 kcal/mol
DOCKED: USER    (3) Torsional Free Energy           =   +3.58 kcal/mol
DOCKED: USER    (4) Unbound System's Energy  [=(2)] =   -0.59 kcal/mol
DOCKED: USER    
DOCKED: USER    
DOCKED: USER    NEWDPF move heme_Co_opt.pdbqt
DOCKED: USER    NEWDPF about 8.781000 34.984000 -0.736000
DOCKED: USER    NEWDPF tran0 -11.371903 6.037639 -9.408919
DOCKED: USER    NEWDPF quaternion0 -0.529399 -0.145691 0.262136 -0.793596
DOCKED: USER    NEWDPF axisangle0 -0.870086 -0.239448 0.430830 -74.954246
DOCKED: USER    NEWDPF quat0 -0.870086 -0.239448 0.430830 -74.954246
DOCKED: USER    NEWDPF dihe0 31.93 111.79 -166.86 -18.91 -22.50 93.80 43.07 -82.28 -174.80 70.99 6.39 -137.06 
DOCKED: USER  keepresnum = 1 
DOCKED: USER  
DOCKED: REMARK  12 active torsions:
DOCKED: REMARK  status: ('A' for Active; 'I' for Inactive)
DOCKED: REMARK    1  A    between atoms: C_6  and  C_10 
DOCKED: REMARK    2  A    between atoms: C_10  and  C_11 
DOCKED: REMARK    3  A    between atoms: C_11  and  C_12 
DOCKED: REMARK    4  A    between atoms: C_12  and  O_14 
DOCKED: REMARK    5  A    between atoms: C_17  and  C_20 
DOCKED: REMARK    6  A    between atoms: C_24  and  C_27 
DOCKED: REMARK    7  A    between atoms: C_31  and  C_34 
DOCKED: REMARK    8  A    between atoms: C_34  and  C_35 
DOCKED: REMARK    9  A    between atoms: C_35  and  C_36 
DOCKED: REMARK   10  A    between atoms: C_36  and  O_38 
DOCKED: REMARK   11  A    between atoms: FE_43  and  C_44 
DOCKED: REMARK   12  A    between atoms: C_44  and  O_45 
DOCKED: USER                              x       y       z     vdW  Elec       q    Type
DOCKED: USER                           _______ _______ _______ _____ _____    ______ ____
DOCKED: ROOT
DOCKED: ATOM      1  C   UNL d   1     -12.657   4.435 -10.114 -0.06 +0.03    +0.064 A 
DOCKED: ATOM      2  C   UNL d   1     -12.828   7.203  -6.251 -0.08 +0.05    +0.064 C 
DOCKED: ATOM      3  C   UNL d   1      -8.645   9.183  -7.438 -0.23 +0.01    +0.064 A 
DOCKED: ATOM      4  C   UNL d   1      -8.636   6.645 -11.588 -0.06 +0.01    +0.064 A 
DOCKED: ATOM      5  C   UNL d   1     -12.993   5.020  -8.953 -0.05 +0.05    +0.066 A 
DOCKED: ATOM      6  C   UNL d   1     -14.216   4.751  -8.307 -0.05 -0.01    -0.021 A 
DOCKED: ATOM      7  C   UNL d   1     -14.271   5.574  -7.199 -0.05 -0.02    -0.025 A 
DOCKED: ATOM      8  C   UNL d   1     -13.073   6.297  -7.207 -0.02 +0.07    +0.066 A 
DOCKED: ATOM      9  C   UNL d   1     -15.400   5.687  -6.164 -0.04 +0.03    +0.051 C 
DOCKED: ATOM     10  C   UNL d   1     -11.614   7.975  -6.163 -0.12 +0.04    +0.066 A 
DOCKED: ATOM     11  C   UNL d   1     -11.237   8.837  -5.110 -0.18 -0.01    -0.021 A 
DOCKED: ATOM     12  C   UNL d   1     -10.012   9.398  -5.480 -0.30 +0.00    +0.000 A 
DOCKED: ATOM     13  C   UNL d   1      -9.726   8.829  -6.722 -0.17 +0.03    +0.070 A 
DOCKED: ATOM     14  C   UNL d   1     -11.968   9.024  -3.805 -0.19 +0.02    +0.052 C 
DOCKED: ATOM     15  C   UNL d   1      -8.227   8.738  -8.753 -0.20 +0.01    +0.066 A 
DOCKED: ATOM     16  C   UNL d   1      -7.176   9.251  -9.500 -0.29 -0.00    -0.021 A 
DOCKED: ATOM     17  C   UNL d   1      -7.171   8.524 -10.699 -0.21 +0.00    +0.000 A 
DOCKED: ATOM     18  C   UNL d   1      -8.212   7.610 -10.581 -0.12 +0.01    +0.070 A 
DOCKED: ATOM     19  C   UNL d   1      -6.255  10.370  -9.065 -0.19 -0.00    +0.052 C 
DOCKED: ATOM     20  C   UNL d   1      -9.698   5.806 -11.531 -0.15 +0.01    +0.066 A 
DOCKED: ATOM     21  C   UNL d   1     -10.026   4.949 -12.579 -0.21 -0.01    -0.025 A 
DOCKED: ATOM     22  C   UNL d   1     -11.164   4.279 -12.171 -0.14 -0.01    -0.021 A 
DOCKED: ATOM     23  C   UNL d   1     -11.484   4.772 -10.888 -0.10 +0.03    +0.066 A 
DOCKED: ATOM     24  C   UNL d   1      -9.302   4.791 -13.914 -0.24 +0.01    +0.051 C 
DOCKED: ATOM     25  N   UNL d   1     -12.260   5.970  -8.279 -0.05 -0.23    -0.248 N 
DOCKED: ATOM     26  N   UNL d   1     -10.668   7.927  -7.107 -0.08 -0.14    -0.248 N 
DOCKED: ATOM     27  N   UNL d   1      -8.838   7.786  -9.422 -0.06 -0.05    -0.248 N 
DOCKED: ATOM     28  N   UNL d   1     -10.600   5.699 -10.498 -0.05 -0.09    -0.248 N 
DOCKED: ATOM     29 FE   UNL d   1     -10.447   6.930  -8.887 -0.02 +0.00    +0.000 Fe
DOCKED: ENDROOT
DOCKED: BRANCH   6  30
DOCKED: ATOM     30  C   UNL d   1     -15.310   3.804  -8.789 -0.02 +0.02    +0.052 C 
DOCKED: BRANCH  30  31
DOCKED: ATOM     31  C   UNL d   1     -15.090   2.400  -8.227 -0.03 +0.05    +0.115 C 
DOCKED: BRANCH  31  32
DOCKED: ATOM     32  C   UNL d   1     -13.907   2.333  -7.286 -0.04 +0.14    +0.139 C 
DOCKED: ATOM     33  O   UNL d   1     -12.788   2.142  -7.740 -0.56 -0.91    -0.650 OA
DOCKED: BRANCH  32  34
DOCKED: ATOM     34  O   UNL d   1     -14.038   2.527  -5.953 -0.04 -0.90    -0.776 OA
DOCKED: ATOM     35  H   UNL d   1     -14.844   2.340  -5.453 +0.01 +0.11    +0.167 HD
DOCKED: ENDBRANCH  32  34
DOCKED: ENDBRANCH  31  32
DOCKED: ENDBRANCH  30  31
DOCKED: ENDBRANCH   6  30
DOCKED: BRANCH  29  36
DOCKED: ATOM     36  C   UNL d   1     -11.654   8.358  -9.835 -0.00 +0.05    +0.190 C 
DOCKED: BRANCH  36  37
DOCKED: ATOM     37  O   UNL d   1     -12.624   8.514 -10.830 +0.01 -0.07    -0.399 OA
DOCKED: ATOM     38  H   UNL d   1     -12.748   7.600 -11.212 +0.01 +0.04    +0.209 HD
DOCKED: ENDBRANCH  36  37
DOCKED: ENDBRANCH  29  36
DOCKED: BRANCH  22  39
DOCKED: ATOM     39  C   UNL d   1     -11.935   3.268 -12.999 -0.11 +0.03    +0.052 C 
DOCKED: BRANCH  39  40
DOCKED: ATOM     40  C   UNL d   1     -11.923   3.663 -14.486 -0.17 +0.08    +0.115 C 
DOCKED: BRANCH  40  41
DOCKED: ATOM     41  C   UNL d   1     -13.283   4.022 -15.047 -0.11 +0.10    +0.139 C 
DOCKED: ATOM     42  O   UNL d   1     -13.939   4.903 -14.509 +0.01 -0.24    -0.650 OA
DOCKED: BRANCH  41  43
DOCKED: ATOM     43  O   UNL d   1     -13.756   3.457 -16.180 -0.53 -0.93    -0.776 OA
DOCKED: ATOM     44  H   UNL d   1     -14.468   3.851 -16.699 +0.01 +0.12    +0.167 HD
DOCKED: ENDBRANCH  41  43
DOCKED: ENDBRANCH  40  41
DOCKED: ENDBRANCH  39  40
DOCKED: ENDBRANCH  22  39
DOCKED: BRANCH  12  45
DOCKED: ATOM     45  C   UNL d   1      -9.074  10.386  -4.800 -0.24 +0.00    +0.004 C 
DOCKED: ATOM     46  C   UNL d   1      -9.325  11.352  -3.919 -0.53 +0.00    +0.012 C 
DOCKED: ENDBRANCH  12  45
DOCKED: BRANCH  17  47
DOCKED: ATOM     47  C   UNL d   1      -6.306   8.681 -11.906 -0.26 -0.00    +0.004 C 
DOCKED: ATOM     48  C   UNL d   1      -6.007   9.863 -12.451 -0.29 -0.00    +0.012 C 
DOCKED: ENDBRANCH  17  47
DOCKED: TORSDOF 12
DOCKED: TER
DOCKED: ENDMDL
________________________________________________________________________________


	BEGINNING GENETIC ALGORITHM DOCKING 95 of 100
Run: 95 Seed: 904378591 738200554 [ Run 95 of 100 GA/GALS ]
Beginning LAMARCKIAN GENETIC ALGORITHM (LGA), with a maximum of 25000000 energy evaluations.

Final-Value: -9.551


	FINAL GENETIC ALGORITHM DOCKED STATE
	_______________________________________________


Detailed state:  trans 12.701 11.472 1.257 quatxyzw 0.303543 0.640021 -0.063141 -0.703028 center 8.781 34.984 -0.736 ntor 12 65.3298 102.9850 -140.9672 122.1730 135.8171 151.8397 -126.1005 74.3280 136.7487 -78.2094 22.6082 -5.6666
State:	 12.701  11.472   1.257   0.427  0.900 -0.089 -90.659     65.33  102.99 -140.97  122.17  135.82  151.84 -126.10   74.33  136.75  -78.21   22.61   -5.67

DOCKED: MODEL       95
DOCKED: USER    Run = 95
DOCKED: USER    DPF = D:/Protein_go_brrr/autodock/final/mut_K82N/heme_Co/dock.dpf
DOCKED: USER  
DOCKED: USER    Estimated Free Energy of Binding    =   -3.67 kcal/mol  [=(1)+(2)+(3)-(4)]
DOCKED: USER    Estimated Inhibition Constant, Ki   =    2.03 mM (millimolar)  [Temperature = 298.15 K]
DOCKED: USER    
DOCKED: USER    (1) Final Intermolecular Energy     =   -7.25 kcal/mol
DOCKED: USER        vdW + Hbond + desolv Energy     =   -6.17 kcal/mol
DOCKED: USER        Electrostatic Energy            =   -1.08 kcal/mol
DOCKED: USER    (2) Final Total Internal Energy     =   -2.30 kcal/mol
DOCKED: USER    (3) Torsional Free Energy           =   +3.58 kcal/mol
DOCKED: USER    (4) Unbound System's Energy  [=(2)] =   -2.30 kcal/mol
DOCKED: USER    
DOCKED: USER    
DOCKED: USER    NEWDPF move heme_Co_opt.pdbqt
DOCKED: USER    NEWDPF about 8.781000 34.984000 -0.736000
DOCKED: USER    NEWDPF tran0 12.701292 11.472257 1.256898
DOCKED: USER    NEWDPF quaternion0 0.303543 0.640021 -0.063141 -0.703028
DOCKED: USER    NEWDPF axisangle0 0.426826 0.899965 -0.088785 -90.659091
DOCKED: USER    NEWDPF quat0 0.426826 0.899965 -0.088785 -90.659091
DOCKED: USER    NEWDPF dihe0 65.33 102.99 -140.97 122.17 135.82 151.84 -126.10 74.33 136.75 -78.21 22.61 -5.67 
DOCKED: USER  keepresnum = 1 
DOCKED: USER  
DOCKED: REMARK  12 active torsions:
DOCKED: REMARK  status: ('A' for Active; 'I' for Inactive)
DOCKED: REMARK    1  A    between atoms: C_6  and  C_10 
DOCKED: REMARK    2  A    between atoms: C_10  and  C_11 
DOCKED: REMARK    3  A    between atoms: C_11  and  C_12 
DOCKED: REMARK    4  A    between atoms: C_12  and  O_14 
DOCKED: REMARK    5  A    between atoms: C_17  and  C_20 
DOCKED: REMARK    6  A    between atoms: C_24  and  C_27 
DOCKED: REMARK    7  A    between atoms: C_31  and  C_34 
DOCKED: REMARK    8  A    between atoms: C_34  and  C_35 
DOCKED: REMARK    9  A    between atoms: C_35  and  C_36 
DOCKED: REMARK   10  A    between atoms: C_36  and  O_38 
DOCKED: REMARK   11  A    between atoms: FE_43  and  C_44 
DOCKED: REMARK   12  A    between atoms: C_44  and  O_45 
DOCKED: USER                              x       y       z     vdW  Elec       q    Type
DOCKED: USER                           _______ _______ _______ _____ _____    ______ ____
DOCKED: ROOT
DOCKED: ATOM      1  C   UNL d   1      11.873  11.727   3.248 -0.07 +0.00    +0.064 A 
DOCKED: ATOM      2  C   UNL d   1      14.039   8.060   1.133 -0.14 -0.00    +0.064 C 
DOCKED: ATOM      3  C   UNL d   1      14.182  10.472  -2.988 -0.24 -0.01    +0.064 A 
DOCKED: ATOM      4  C   UNL d   1      12.321  14.372  -0.755 -0.24 -0.01    +0.064 A 
DOCKED: ATOM      5  C   UNL d   1      12.421  10.534   2.964 -0.11 +0.00    +0.066 A 
DOCKED: ATOM      6  C   UNL d   1      12.628   9.552   3.952 -0.08 -0.00    -0.021 A 
DOCKED: ATOM      7  C   UNL d   1      13.277   8.499   3.338 -0.08 -0.00    -0.025 A 
DOCKED: ATOM      8  C   UNL d   1      13.424   8.877   1.999 -0.11 -0.00    +0.066 A 
DOCKED: ATOM      9  C   UNL d   1      13.748   7.182   3.973 -0.06 -0.00    +0.051 C 
DOCKED: ATOM     10  C   UNL d   1      14.213   8.351  -0.268 -0.16 -0.00    +0.066 A 
DOCKED: ATOM     11  C   UNL d   1      14.722   7.479  -1.254 -0.16 -0.00    -0.021 A 
DOCKED: ATOM     12  C   UNL d   1      14.749   8.207  -2.447 -0.16 +0.00    +0.000 A 
DOCKED: ATOM     13  C   UNL d   1      14.244   9.461  -2.104 -0.21 -0.00    +0.070 A 
DOCKED: ATOM     14  C   UNL d   1      15.063   6.023  -1.067 -0.12 +0.01    +0.052 C 
DOCKED: ATOM     15  C   UNL d   1      13.740  11.839  -2.793 -0.19 -0.02    +0.066 A 
DOCKED: ATOM     16  C   UNL d   1      13.837  12.875  -3.711 -0.21 +0.00    -0.021 A 
DOCKED: ATOM     17  C   UNL d   1      13.304  14.002  -3.071 -0.22 -0.00    +0.000 A 
DOCKED: ATOM     18  C   UNL d   1      12.907  13.560  -1.813 -0.20 -0.01    +0.070 A 
DOCKED: ATOM     19  C   UNL d   1      14.411  12.759  -5.106 -0.20 -0.01    +0.052 C 
DOCKED: ATOM     20  C   UNL d   1      12.007  13.984   0.504 -0.23 -0.00    +0.066 A 
DOCKED: ATOM     21  C   UNL d   1      11.481  14.867   1.445 -0.19 +0.00    -0.025 A 
DOCKED: ATOM     22  C   UNL d   1      11.315  14.125   2.601 -0.15 -0.00    -0.021 A 
DOCKED: ATOM     23  C   UNL d   1      11.762  12.819   2.308 -0.00 +0.00    +0.066 A 
DOCKED: ATOM     24  C   UNL d   1      11.172  16.350   1.260 -0.16 -0.00    +0.051 C 
DOCKED: ATOM     25  N   UNL d   1      12.898  10.130   1.737 +0.01 -0.00    -0.248 N 
DOCKED: ATOM     26  N   UNL d   1      13.868   9.529  -0.799 -0.10 +0.01    -0.248 N 
DOCKED: ATOM     27  N   UNL d   1      13.209  12.274  -1.672 -0.14 +0.05    -0.248 N 
DOCKED: ATOM     28  N   UNL d   1      12.183  12.730   1.041 -0.03 +0.00    -0.248 N 
DOCKED: ATOM     29 FE   UNL d   1      13.061  11.268  -0.067 -0.05 -0.00    +0.000 Fe
DOCKED: ENDROOT
DOCKED: BRANCH   6  30
DOCKED: ATOM     30  C   UNL d   1      12.286   9.666   5.434 -0.07 +0.01    +0.052 C 
DOCKED: BRANCH  30  31
DOCKED: ATOM     31  C   UNL d   1      11.066   8.810   5.771 -0.15 +0.03    +0.115 C 
DOCKED: BRANCH  31  32
DOCKED: ATOM     32  C   UNL d   1       9.951   8.969   4.760 -0.24 +0.05    +0.139 C 
DOCKED: ATOM     33  O   UNL d   1       9.753   8.084   3.940 -0.01 -0.12    -0.650 OA
DOCKED: BRANCH  32  34
DOCKED: ATOM     34  O   UNL d   1       9.128  10.043   4.761 -0.42 -0.58    -0.776 OA
DOCKED: ATOM     35  H   UNL d   1       9.425  10.955   4.636 +0.05 +0.10    +0.167 HD
DOCKED: ENDBRANCH  32  34
DOCKED: ENDBRANCH  31  32
DOCKED: ENDBRANCH  30  31
DOCKED: ENDBRANCH   6  30
DOCKED: BRANCH  29  36
DOCKED: ATOM     36  C   UNL d   1      14.955  11.860   0.610 -0.06 -0.01    +0.190 C 
DOCKED: BRANCH  36  37
DOCKED: ATOM     37  O   UNL d   1      15.838  11.746   1.689 -0.00 +0.01    -0.399 OA
DOCKED: ATOM     38  H   UNL d   1      15.303  11.319   2.415 +0.01 -0.00    +0.209 HD
DOCKED: ENDBRANCH  36  37
DOCKED: ENDBRANCH  29  36
DOCKED: BRANCH  22  39
DOCKED: ATOM     39  C   UNL d   1      10.815  14.664   3.928 -0.10 +0.00    +0.052 C 
DOCKED: BRANCH  39  40
DOCKED: ATOM     40  C   UNL d   1       9.304  14.424   4.077 -0.16 +0.01    +0.115 C 
DOCKED: BRANCH  40  41
DOCKED: ATOM     41  C   UNL d   1       8.943  13.178   4.859 -0.18 +0.05    +0.139 C 
DOCKED: ATOM     42  O   UNL d   1       7.927  12.562   4.568 -0.06 -0.36    -0.650 OA
DOCKED: BRANCH  41  43
DOCKED: ATOM     43  O   UNL d   1       9.759  12.677   5.813 +0.03 -0.38    -0.776 OA
DOCKED: ATOM     44  H   UNL d   1       9.965  11.736   5.878 +0.03 +0.11    +0.167 HD
DOCKED: ENDBRANCH  41  43
DOCKED: ENDBRANCH  40  41
DOCKED: ENDBRANCH  39  40
DOCKED: ENDBRANCH  22  39
DOCKED: BRANCH  12  45
DOCKED: ATOM     45  C   UNL d   1      15.173   7.857  -3.867 -0.19 -0.00    +0.004 C 
DOCKED: ATOM     46  C   UNL d   1      14.458   7.755  -4.984 -0.25 -0.00    +0.012 C 
DOCKED: ENDBRANCH  12  45
DOCKED: BRANCH  17  47
DOCKED: ATOM     47  C   UNL d   1      13.205  15.414  -3.550 -0.18 -0.00    +0.004 C 
DOCKED: ATOM     48  C   UNL d   1      12.045  16.030  -3.794 -0.24 -0.00    +0.012 C 
DOCKED: ENDBRANCH  17  47
DOCKED: TORSDOF 12
DOCKED: TER
DOCKED: ENDMDL
________________________________________________________________________________


	BEGINNING GENETIC ALGORITHM DOCKING 96 of 100
Run: 96 Seed: 617733495 368719614 [ Run 96 of 100 GA/GALS ]
Beginning LAMARCKIAN GENETIC ALGORITHM (LGA), with a maximum of 25000000 energy evaluations.

Final-Value: -8.311


	FINAL GENETIC ALGORITHM DOCKED STATE
	_______________________________________________


Detailed state:  trans 11.776 -8.241 1.125 quatxyzw -0.384711 0.350673 0.593997 -0.613346 center 8.781 34.984 -0.736 ntor 12 -4.7143 -23.1893 138.3507 -100.2006 -66.6305 -55.2221 -124.8160 -33.5696 163.9261 -111.1859 14.5515 -6.2524
State:	 11.776  -8.241   1.125  -0.487  0.444  0.752 -104.336     -4.71  -23.19  138.35 -100.20  -66.63  -55.22 -124.82  -33.57  163.93 -111.19   14.55   -6.25

DOCKED: MODEL       96
DOCKED: USER    Run = 96
DOCKED: USER    DPF = D:/Protein_go_brrr/autodock/final/mut_K82N/heme_Co/dock.dpf
DOCKED: USER  
DOCKED: USER    Estimated Free Energy of Binding    =   -2.34 kcal/mol  [=(1)+(2)+(3)-(4)]
DOCKED: USER    Estimated Inhibition Constant, Ki   =   19.23 mM (millimolar)  [Temperature = 298.15 K]
DOCKED: USER    
DOCKED: USER    (1) Final Intermolecular Energy     =   -5.92 kcal/mol
DOCKED: USER        vdW + Hbond + desolv Energy     =   -5.58 kcal/mol
DOCKED: USER        Electrostatic Energy            =   -0.34 kcal/mol
DOCKED: USER    (2) Final Total Internal Energy     =   -2.39 kcal/mol
DOCKED: USER    (3) Torsional Free Energy           =   +3.58 kcal/mol
DOCKED: USER    (4) Unbound System's Energy  [=(2)] =   -2.39 kcal/mol
DOCKED: USER    
DOCKED: USER    
DOCKED: USER    NEWDPF move heme_Co_opt.pdbqt
DOCKED: USER    NEWDPF about 8.781000 34.984000 -0.736000
DOCKED: USER    NEWDPF tran0 11.775996 -8.240647 1.125030
DOCKED: USER    NEWDPF quaternion0 -0.384711 0.350673 0.593997 -0.613346
DOCKED: USER    NEWDPF axisangle0 -0.487090 0.443994 0.752072 -104.336288
DOCKED: USER    NEWDPF quat0 -0.487090 0.443994 0.752072 -104.336288
DOCKED: USER    NEWDPF dihe0 -4.71 -23.19 138.35 -100.20 -66.63 -55.22 -124.82 -33.57 163.93 -111.19 14.55 -6.25 
DOCKED: USER  keepresnum = 1 
DOCKED: USER  
DOCKED: REMARK  12 active torsions:
DOCKED: REMARK  status: ('A' for Active; 'I' for Inactive)
DOCKED: REMARK    1  A    between atoms: C_6  and  C_10 
DOCKED: REMARK    2  A    between atoms: C_10  and  C_11 
DOCKED: REMARK    3  A    between atoms: C_11  and  C_12 
DOCKED: REMARK    4  A    between atoms: C_12  and  O_14 
DOCKED: REMARK    5  A    between atoms: C_17  and  C_20 
DOCKED: REMARK    6  A    between atoms: C_24  and  C_27 
DOCKED: REMARK    7  A    between atoms: C_31  and  C_34 
DOCKED: REMARK    8  A    between atoms: C_34  and  C_35 
DOCKED: REMARK    9  A    between atoms: C_35  and  C_36 
DOCKED: REMARK   10  A    between atoms: C_36  and  O_38 
DOCKED: REMARK   11  A    between atoms: FE_43  and  C_44 
DOCKED: REMARK   12  A    between atoms: C_44  and  O_45 
DOCKED: USER                              x       y       z     vdW  Elec       q    Type
DOCKED: USER                           _______ _______ _______ _____ _____    ______ ____
DOCKED: ROOT
DOCKED: ATOM      1  C   UNL d   1      11.207  -9.885   2.425 -0.17 +0.01    +0.064 A 
DOCKED: ATOM      2  C   UNL d   1      13.823  -5.984   3.166 -0.14 +0.00    +0.064 C 
DOCKED: ATOM      3  C   UNL d   1      13.486  -4.833  -1.459 -0.05 +0.01    +0.064 A 
DOCKED: ATOM      4  C   UNL d   1      10.492  -8.601  -2.165 -0.05 +0.00    +0.064 A 
DOCKED: ATOM      5  C   UNL d   1      11.977  -8.923   2.960 -0.24 +0.00    +0.066 A 
DOCKED: ATOM      6  C   UNL d   1      12.254  -8.868   4.340 -0.30 -0.00    -0.021 A 
DOCKED: ATOM      7  C   UNL d   1      12.994  -7.722   4.553 -0.23 -0.00    -0.025 A 
DOCKED: ATOM      8  C   UNL d   1      13.151  -7.135   3.292 -0.15 +0.00    +0.066 A 
DOCKED: ATOM      9  C   UNL d   1      13.540  -7.186   5.885 -0.25 +0.00    +0.051 C 
DOCKED: ATOM     10  C   UNL d   1      14.058  -5.320   1.908 -0.08 +0.00    +0.066 A 
DOCKED: ATOM     11  C   UNL d   1      14.873  -4.188   1.690 -0.04 -0.00    -0.021 A 
DOCKED: ATOM     12  C   UNL d   1      14.759  -3.876   0.333 -0.03 +0.00    +0.000 A 
DOCKED: ATOM     13  C   UNL d   1      13.897  -4.846  -0.179 -0.04 +0.00    +0.070 A 
DOCKED: ATOM     14  C   UNL d   1      15.766  -3.523   2.706 -0.03 +0.00    +0.052 C 
DOCKED: ATOM     15  C   UNL d   1      12.563  -5.721  -2.138 -0.06 +0.01    +0.066 A 
DOCKED: ATOM     16  C   UNL d   1      12.068  -5.566  -3.425 -0.10 -0.00    -0.021 A 
DOCKED: ATOM     17  C   UNL d   1      11.202  -6.650  -3.632 -0.11 +0.00    +0.000 A 
DOCKED: ATOM     18  C   UNL d   1      11.250  -7.391  -2.457 -0.08 +0.00    +0.070 A 
DOCKED: ATOM     19  C   UNL d   1      12.421  -4.440  -4.371 +0.08 +0.02    +0.052 C 
DOCKED: ATOM     20  C   UNL d   1      10.456  -9.291  -0.999 -0.11 +0.00    +0.066 A 
DOCKED: ATOM     21  C   UNL d   1       9.659 -10.421  -0.828 -0.18 -0.00    -0.025 A 
DOCKED: ATOM     22  C   UNL d   1       9.867 -10.830   0.477 -0.23 -0.00    -0.021 A 
DOCKED: ATOM     23  C   UNL d   1      10.779  -9.914   1.045 -0.21 +0.01    +0.066 A 
DOCKED: ATOM     24  C   UNL d   1       8.730 -11.069  -1.851 -0.21 +0.01    +0.051 C 
DOCKED: ATOM     25  N   UNL d   1      12.536  -7.861   2.286 -0.10 -0.01    -0.248 N 
DOCKED: ATOM     26  N   UNL d   1      13.519  -5.751   0.763 -0.03 -0.00    -0.248 N 
DOCKED: ATOM     27  N   UNL d   1      12.047  -6.793  -1.578 -0.03 -0.01    -0.248 N 
DOCKED: ATOM     28  N   UNL d   1      11.136  -8.980   0.155 -0.09 -0.01    -0.248 N 
DOCKED: ATOM     29 FE   UNL d   1      12.275  -7.298   0.239 -0.03 +0.00    +0.000 Fe
DOCKED: ENDROOT
DOCKED: BRANCH   6  30
DOCKED: ATOM     30  C   UNL d   1      11.754  -9.836   5.407 -0.31 +0.01    +0.052 C 
DOCKED: BRANCH  30  31
DOCKED: ATOM     31  C   UNL d   1      12.829 -10.871   5.740 -0.18 +0.03    +0.115 C 
DOCKED: BRANCH  31  32
DOCKED: ATOM     32  C   UNL d   1      13.898 -10.957   4.672 -0.08 +0.02    +0.139 C 
DOCKED: ATOM     33  O   UNL d   1      15.000 -10.473   4.885 +0.03 -0.04    -0.650 OA
DOCKED: BRANCH  32  34
DOCKED: ATOM     34  O   UNL d   1      13.690 -11.598   3.499 +0.04 -0.11    -0.776 OA
DOCKED: ATOM     35  H   UNL d   1      12.914 -12.142   3.306 +0.03 +0.04    +0.167 HD
DOCKED: ENDBRANCH  32  34
DOCKED: ENDBRANCH  31  32
DOCKED: ENDBRANCH  30  31
DOCKED: ENDBRANCH   6  30
DOCKED: BRANCH  29  36
DOCKED: ATOM     36  C   UNL d   1      10.620  -6.180   0.874 -0.25 -0.02    +0.190 C 
DOCKED: BRANCH  36  37
DOCKED: ATOM     37  O   UNL d   1       9.869  -5.037   0.583 -0.24 +0.11    -0.399 OA
DOCKED: ATOM     38  H   UNL d   1       9.708  -4.603   1.467 -0.39 -0.14    +0.209 HD
DOCKED: ENDBRANCH  36  37
DOCKED: ENDBRANCH  29  36
DOCKED: BRANCH  22  39
DOCKED: ATOM     39  C   UNL d   1       9.175 -11.997   1.154 -0.11 +0.01    +0.052 C 
DOCKED: BRANCH  39  40
DOCKED: ATOM     40  C   UNL d   1      10.040 -13.266   1.068 -0.17 +0.02    +0.115 C 
DOCKED: BRANCH  40  41
DOCKED: ATOM     41  C   UNL d   1      11.368 -13.166   1.789 -0.11 +0.03    +0.139 C 
DOCKED: ATOM     42  O   UNL d   1      11.510 -13.737   2.861 +0.00 -0.26    -0.650 OA
DOCKED: BRANCH  41  43
DOCKED: ATOM     43  O   UNL d   1      12.429 -12.536   1.239 +0.03 -0.10    -0.776 OA
DOCKED: ATOM     44  H   UNL d   1      13.062 -12.030   1.765 +0.02 +0.02    +0.167 HD
DOCKED: ENDBRANCH  41  43
DOCKED: ENDBRANCH  40  41
DOCKED: ENDBRANCH  39  40
DOCKED: ENDBRANCH  22  39
DOCKED: BRANCH  12  45
DOCKED: ATOM     45  C   UNL d   1      15.377  -2.791  -0.539 -0.04 +0.00    +0.004 C 
DOCKED: ATOM     46  C   UNL d   1      14.832  -1.714  -1.098 -0.10 +0.00    +0.012 C 
DOCKED: ENDBRANCH  12  45
DOCKED: BRANCH  17  47
DOCKED: ATOM     47  C   UNL d   1      10.339  -6.970  -4.809 -0.17 -0.00    +0.004 C 
DOCKED: ATOM     48  C   UNL d   1       9.091  -6.516  -4.953 -0.31 -0.00    +0.012 C 
DOCKED: ENDBRANCH  17  47
DOCKED: TORSDOF 12
DOCKED: TER
DOCKED: ENDMDL
________________________________________________________________________________


	BEGINNING GENETIC ALGORITHM DOCKING 97 of 100
Run: 97 Seed: 394568434 813919148 [ Run 97 of 100 GA/GALS ]
Beginning LAMARCKIAN GENETIC ALGORITHM (LGA), with a maximum of 25000000 energy evaluations.

Final-Value: -10.074


	FINAL GENETIC ALGORITHM DOCKED STATE
	_______________________________________________


Detailed state:  trans 6.380 15.343 -12.722 quatxyzw -0.532948 -0.662163 -0.130519 -0.510364 center 8.781 34.984 -0.736 ntor 12 150.0507 104.1608 -56.0618 66.5198 56.8457 115.0080 -114.2252 -14.6052 -124.8189 177.7854 179.9139 -179.9626
State:	  6.380  15.343 -12.722  -0.620 -0.770 -0.152 -118.624    150.05  104.16  -56.06   66.52   56.85  115.01 -114.23  -14.61 -124.82  177.79  179.91 -179.96

DOCKED: MODEL       97
DOCKED: USER    Run = 97
DOCKED: USER    DPF = D:/Protein_go_brrr/autodock/final/mut_K82N/heme_Co/dock.dpf
DOCKED: USER  
DOCKED: USER    Estimated Free Energy of Binding    =   -2.77 kcal/mol  [=(1)+(2)+(3)-(4)]
DOCKED: USER    Estimated Inhibition Constant, Ki   =    9.28 mM (millimolar)  [Temperature = 298.15 K]
DOCKED: USER    
DOCKED: USER    (1) Final Intermolecular Energy     =   -6.35 kcal/mol
DOCKED: USER        vdW + Hbond + desolv Energy     =   -6.39 kcal/mol
DOCKED: USER        Electrostatic Energy            =   +0.04 kcal/mol
DOCKED: USER    (2) Final Total Internal Energy     =   -3.72 kcal/mol
DOCKED: USER    (3) Torsional Free Energy           =   +3.58 kcal/mol
DOCKED: USER    (4) Unbound System's Energy  [=(2)] =   -3.72 kcal/mol
DOCKED: USER    
DOCKED: USER    
DOCKED: USER    NEWDPF move heme_Co_opt.pdbqt
DOCKED: USER    NEWDPF about 8.781000 34.984000 -0.736000
DOCKED: USER    NEWDPF tran0 6.379516 15.342519 -12.722073
DOCKED: USER    NEWDPF quaternion0 -0.532948 -0.662163 -0.130519 -0.510364
DOCKED: USER    NEWDPF axisangle0 -0.619737 -0.769994 -0.151773 -118.623818
DOCKED: USER    NEWDPF quat0 -0.619737 -0.769994 -0.151773 -118.623818
DOCKED: USER    NEWDPF dihe0 150.05 104.16 -56.06 66.52 56.85 115.01 -114.23 -14.61 -124.82 177.79 179.91 -179.96 
DOCKED: USER  keepresnum = 1 
DOCKED: USER  
DOCKED: REMARK  12 active torsions:
DOCKED: REMARK  status: ('A' for Active; 'I' for Inactive)
DOCKED: REMARK    1  A    between atoms: C_6  and  C_10 
DOCKED: REMARK    2  A    between atoms: C_10  and  C_11 
DOCKED: REMARK    3  A    between atoms: C_11  and  C_12 
DOCKED: REMARK    4  A    between atoms: C_12  and  O_14 
DOCKED: REMARK    5  A    between atoms: C_17  and  C_20 
DOCKED: REMARK    6  A    between atoms: C_24  and  C_27 
DOCKED: REMARK    7  A    between atoms: C_31  and  C_34 
DOCKED: REMARK    8  A    between atoms: C_34  and  C_35 
DOCKED: REMARK    9  A    between atoms: C_35  and  C_36 
DOCKED: REMARK   10  A    between atoms: C_36  and  O_38 
DOCKED: REMARK   11  A    between atoms: FE_43  and  C_44 
DOCKED: REMARK   12  A    between atoms: C_44  and  O_45 
DOCKED: USER                              x       y       z     vdW  Elec       q    Type
DOCKED: USER                           _______ _______ _______ _____ _____    ______ ____
DOCKED: ROOT
DOCKED: ATOM      1  C   UNL d   1       7.082  13.824 -14.106 -0.19 +0.01    +0.064 A 
DOCKED: ATOM      2  C   UNL d   1       2.958  16.164 -13.755 -0.24 -0.02    +0.064 C 
DOCKED: ATOM      3  C   UNL d   1       4.448  18.262  -9.729 -0.01 -0.03    +0.064 A 
DOCKED: ATOM      4  C   UNL d   1       8.811  16.181 -10.275 -0.21 -0.00    +0.064 A 
DOCKED: ATOM      5  C   UNL d   1       5.832  14.281 -14.286 -0.19 +0.00    +0.066 A 
DOCKED: ATOM      6  C   UNL d   1       5.069  13.944 -15.421 -0.12 -0.00    -0.021 A 
DOCKED: ATOM      7  C   UNL d   1       3.882  14.644 -15.325 -0.10 +0.01    -0.025 A 
DOCKED: ATOM      8  C   UNL d   1       3.965  15.365 -14.129 -0.16 -0.01    +0.066 A 
DOCKED: ATOM      9  C   UNL d   1       2.707  14.645 -16.314 -0.18 -0.03    +0.051 C 
DOCKED: ATOM     10  C   UNL d   1       2.942  16.923 -12.529 -0.19 -0.02    +0.066 A 
DOCKED: ATOM     11  C   UNL d   1       1.860  17.668 -12.012 -0.20 +0.01    -0.021 A 
DOCKED: ATOM     12  C   UNL d   1       2.321  18.266 -10.836 -0.21 -0.00    +0.000 A 
DOCKED: ATOM     13  C   UNL d   1       3.642  17.833 -10.716 -0.18 -0.02    +0.070 A 
DOCKED: ATOM     14  C   UNL d   1       0.461  17.714 -12.570 -0.22 -0.02    +0.052 C 
DOCKED: ATOM     15  C   UNL d   1       5.844  17.960  -9.485 -0.21 -0.02    +0.066 A 
DOCKED: ATOM     16  C   UNL d   1       6.660  18.551  -8.531 -0.22 +0.01    -0.021 A 
DOCKED: ATOM     17  C   UNL d   1       7.920  17.955  -8.686 -0.17 -0.00    +0.000 A 
DOCKED: ATOM     18  C   UNL d   1       7.769  17.033  -9.715 -0.20 -0.01    +0.070 A 
DOCKED: ATOM     19  C   UNL d   1       6.229  19.617  -7.548 -0.29 -0.02    +0.052 C 
DOCKED: ATOM     20  C   UNL d   1       8.709  15.340 -11.332 -0.24 -0.00    +0.066 A 
DOCKED: ATOM     21  C   UNL d   1       9.792  14.599 -11.800 -0.22 -0.00    -0.025 A 
DOCKED: ATOM     22  C   UNL d   1       9.316  13.888 -12.886 -0.14 -0.00    -0.021 A 
DOCKED: ATOM     23  C   UNL d   1       7.958  14.242 -13.035 -0.19 +0.01    +0.066 A 
DOCKED: ATOM     24  C   UNL d   1      11.216  14.585 -11.252 -0.21 +0.00    +0.051 C 
DOCKED: ATOM     25  N   UNL d   1       5.160  15.154 -13.462 -0.13 +0.02    -0.248 N 
DOCKED: ATOM     26  N   UNL d   1       3.998  16.976 -11.710 -0.12 +0.05    -0.248 N 
DOCKED: ATOM     27  N   UNL d   1       6.528  17.084 -10.188 -0.17 +0.05    -0.248 N 
DOCKED: ATOM     28  N   UNL d   1       7.587  15.122 -12.098 -0.15 +0.00    -0.248 N 
DOCKED: ATOM     29 FE   UNL d   1       5.887  16.174 -11.728 -0.05 -0.00    +0.000 Fe
DOCKED: ENDROOT
DOCKED: BRANCH   6  30
DOCKED: ATOM     30  C   UNL d   1       5.506  13.053 -16.579 -0.14 +0.01    +0.052 C 
DOCKED: BRANCH  30  31
DOCKED: ATOM     31  C   UNL d   1       6.046  13.898 -17.733 -0.03 -0.00    +0.115 C 
DOCKED: BRANCH  31  32
DOCKED: ATOM     32  C   UNL d   1       7.136  14.851 -17.290 -0.01 -0.00    +0.139 C 
DOCKED: ATOM     33  O   UNL d   1       8.266  14.720 -17.737 +0.01 +0.01    -0.650 OA
DOCKED: BRANCH  32  34
DOCKED: ATOM     34  O   UNL d   1       6.890  15.880 -16.448 +0.03 +0.05    -0.776 OA
DOCKED: ATOM     35  H   UNL d   1       7.519  16.205 -15.788 +0.01 -0.01    +0.167 HD
DOCKED: ENDBRANCH  32  34
DOCKED: ENDBRANCH  31  32
DOCKED: ENDBRANCH  30  31
DOCKED: ENDBRANCH   6  30
DOCKED: BRANCH  29  36
DOCKED: ATOM     36  C   UNL d   1       6.518  17.695 -13.026 -0.02 -0.02    +0.190 C 
DOCKED: BRANCH  36  37
DOCKED: ATOM     37  O   UNL d   1       7.100  17.922 -14.277 +0.00 +0.04    -0.399 OA
DOCKED: ATOM     38  H   UNL d   1       7.392  17.020 -14.591 +0.02 -0.02    +0.209 HD
DOCKED: ENDBRANCH  36  37
DOCKED: ENDBRANCH  29  36
DOCKED: BRANCH  22  39
DOCKED: ATOM     39  C   UNL d   1      10.143  12.971 -13.768 -0.14 +0.01    +0.052 C 
DOCKED: BRANCH  39  40
DOCKED: ATOM     40  C   UNL d   1      10.978  13.787 -14.768 -0.03 +0.00    +0.115 C 
DOCKED: BRANCH  40  41
DOCKED: ATOM     41  C   UNL d   1      10.661  15.268 -14.785 -0.01 -0.00    +0.139 C 
DOCKED: ATOM     42  O   UNL d   1      11.558  16.074 -14.582 +0.01 +0.02    -0.650 OA
DOCKED: BRANCH  41  43
DOCKED: ATOM     43  O   UNL d   1       9.431  15.727 -15.104 +0.03 +0.01    -0.776 OA
DOCKED: ATOM     44  H   UNL d   1       8.957  15.437 -15.894 +0.01 -0.00    +0.167 HD
DOCKED: ENDBRANCH  41  43
DOCKED: ENDBRANCH  40  41
DOCKED: ENDBRANCH  39  40
DOCKED: ENDBRANCH  22  39
DOCKED: BRANCH  12  45
DOCKED: ATOM     45  C   UNL d   1       1.664  19.177  -9.808 -0.32 -0.00    +0.004 C 
DOCKED: ATOM     46  C   UNL d   1       0.582  18.994  -9.054 -0.44 -0.00    +0.012 C 
DOCKED: ENDBRANCH  12  45
DOCKED: BRANCH  17  47
DOCKED: ATOM     47  C   UNL d   1       9.203  18.240  -7.977 -0.10 -0.00    +0.004 C 
DOCKED: ATOM     48  C   UNL d   1       9.273  18.588  -6.689 -0.16 -0.00    +0.012 C 
DOCKED: ENDBRANCH  17  47
DOCKED: TORSDOF 12
DOCKED: TER
DOCKED: ENDMDL
________________________________________________________________________________


	BEGINNING GENETIC ALGORITHM DOCKING 98 of 100
Run: 98 Seed: 1029633215 1887927367 [ Run 98 of 100 GA/GALS ]
Beginning LAMARCKIAN GENETIC ALGORITHM (LGA), with a maximum of 25000000 energy evaluations.

Final-Value: -11.494


	FINAL GENETIC ALGORITHM DOCKED STATE
	_______________________________________________


Detailed state:  trans -7.774 10.462 -12.417 quatxyzw 0.171660 0.462679 0.155697 -0.855698 center 8.781 34.984 -0.736 ntor 12 -34.0280 -179.3466 111.7220 113.0629 -83.9859 171.1441 -7.1184 -100.2335 33.0107 -86.3129 136.9792 159.8039
State:	 -7.774  10.462 -12.417   0.332  0.894  0.301 -62.326    -34.03 -179.35  111.72  113.06  -83.99  171.14   -7.12 -100.23   33.01  -86.31  136.98  159.80

DOCKED: MODEL       98
DOCKED: USER    Run = 98
DOCKED: USER    DPF = D:/Protein_go_brrr/autodock/final/mut_K82N/heme_Co/dock.dpf
DOCKED: USER  
DOCKED: USER    Estimated Free Energy of Binding    =   -7.24 kcal/mol  [=(1)+(2)+(3)-(4)]
DOCKED: USER    Estimated Inhibition Constant, Ki   =    4.92 uM (micromolar)  [Temperature = 298.15 K]
DOCKED: USER    
DOCKED: USER    (1) Final Intermolecular Energy     =  -10.82 kcal/mol
DOCKED: USER        vdW + Hbond + desolv Energy     =   -8.44 kcal/mol
DOCKED: USER        Electrostatic Energy            =   -2.38 kcal/mol
DOCKED: USER    (2) Final Total Internal Energy     =   -0.67 kcal/mol
DOCKED: USER    (3) Torsional Free Energy           =   +3.58 kcal/mol
DOCKED: USER    (4) Unbound System's Energy  [=(2)] =   -0.67 kcal/mol
DOCKED: USER    
DOCKED: USER    
DOCKED: USER    NEWDPF move heme_Co_opt.pdbqt
DOCKED: USER    NEWDPF about 8.781000 34.984000 -0.736000
DOCKED: USER    NEWDPF tran0 -7.774032 10.462170 -12.416564
DOCKED: USER    NEWDPF quaternion0 0.171660 0.462679 0.155697 -0.855698
DOCKED: USER    NEWDPF axisangle0 0.331726 0.894108 0.300879 -62.326037
DOCKED: USER    NEWDPF quat0 0.331726 0.894108 0.300879 -62.326037
DOCKED: USER    NEWDPF dihe0 -34.03 -179.35 111.72 113.06 -83.99 171.14 -7.12 -100.23 33.01 -86.31 136.98 159.80 
DOCKED: USER  keepresnum = 1 
DOCKED: USER  
DOCKED: REMARK  12 active torsions:
DOCKED: REMARK  status: ('A' for Active; 'I' for Inactive)
DOCKED: REMARK    1  A    between atoms: C_6  and  C_10 
DOCKED: REMARK    2  A    between atoms: C_10  and  C_11 
DOCKED: REMARK    3  A    between atoms: C_11  and  C_12 
DOCKED: REMARK    4  A    between atoms: C_12  and  O_14 
DOCKED: REMARK    5  A    between atoms: C_17  and  C_20 
DOCKED: REMARK    6  A    between atoms: C_24  and  C_27 
DOCKED: REMARK    7  A    between atoms: C_31  and  C_34 
DOCKED: REMARK    8  A    between atoms: C_34  and  C_35 
DOCKED: REMARK    9  A    between atoms: C_35  and  C_36 
DOCKED: REMARK   10  A    between atoms: C_36  and  O_38 
DOCKED: REMARK   11  A    between atoms: FE_43  and  C_44 
DOCKED: REMARK   12  A    between atoms: C_44  and  O_45 
DOCKED: USER                              x       y       z     vdW  Elec       q    Type
DOCKED: USER                           _______ _______ _______ _____ _____    ______ ____
DOCKED: ROOT
DOCKED: ATOM      1  C   UNL d   1      -9.559  10.212 -11.205 -0.08 +0.01    +0.064 A 
DOCKED: ATOM      2  C   UNL d   1      -5.457   7.814 -11.384 -0.19 -0.01    +0.064 C 
DOCKED: ATOM      3  C   UNL d   1      -4.024  10.467 -15.090 -0.20 -0.02    +0.064 A 
DOCKED: ATOM      4  C   UNL d   1      -8.039  13.183 -14.682 -0.09 -0.00    +0.064 A 
DOCKED: ATOM      5  C   UNL d   1      -8.559   9.338 -11.005 -0.10 +0.01    +0.066 A 
DOCKED: ATOM      6  C   UNL d   1      -8.573   8.418  -9.939 -0.12 -0.00    -0.021 A 
DOCKED: ATOM      7  C   UNL d   1      -7.370   7.740  -9.982 -0.20 -0.00    -0.025 A 
DOCKED: ATOM      8  C   UNL d   1      -6.681   8.264 -11.081 -0.20 -0.00    +0.066 A 
DOCKED: ATOM      9  C   UNL d   1      -6.873   6.640  -9.031 -0.28 +0.01    +0.051 C 
DOCKED: ATOM     10  C   UNL d   1      -4.683   8.274 -12.510 -0.16 -0.01    +0.066 A 
DOCKED: ATOM     11  C   UNL d   1      -3.455   7.744 -12.963 -0.44 +0.00    -0.021 A 
DOCKED: ATOM     12  C   UNL d   1      -3.062   8.534 -14.047 -0.43 -0.00    +0.000 A 
DOCKED: ATOM     13  C   UNL d   1      -4.082   9.476 -14.183 -0.27 -0.02    +0.070 A 
DOCKED: ATOM     14  C   UNL d   1      -2.770   6.508 -12.441 -0.21 -0.00    +0.052 C 
DOCKED: ATOM     15  C   UNL d   1      -4.957  11.549 -15.332 -0.14 -0.02    +0.066 A 
DOCKED: ATOM     16  C   UNL d   1      -4.767  12.625 -16.187 -0.14 +0.01    -0.021 A 
DOCKED: ATOM     17  C   UNL d   1      -5.921  13.413 -16.071 -0.12 -0.00    +0.000 A 
DOCKED: ATOM     18  C   UNL d   1      -6.735  12.744 -15.163 -0.10 -0.01    +0.070 A 
DOCKED: ATOM     19  C   UNL d   1      -3.544  12.856 -17.047 +0.08 -0.06    +0.052 C 
DOCKED: ATOM     20  C   UNL d   1      -8.809  12.594 -13.736 -0.07 +0.01    +0.066 A 
DOCKED: ATOM     21  C   UNL d   1     -10.029  13.132 -13.331 -0.03 -0.00    -0.025 A 
DOCKED: ATOM     22  C   UNL d   1     -10.505  12.280 -12.350 -0.06 -0.00    -0.021 A 
DOCKED: ATOM     23  C   UNL d   1      -9.537  11.265 -12.195 -0.06 +0.01    +0.066 A 
DOCKED: ATOM     24  C   UNL d   1     -10.701  14.404 -13.839 -0.06 +0.01    +0.051 C 
DOCKED: ATOM     25  N   UNL d   1      -7.396   9.251 -11.737 -0.08 -0.00    -0.248 N 
DOCKED: ATOM     26  N   UNL d   1      -5.089   9.282 -13.289 -0.15 +0.05    -0.248 N 
DOCKED: ATOM     27  N   UNL d   1      -6.116  11.654 -14.721 -0.06 +0.05    -0.248 N 
DOCKED: ATOM     28  N   UNL d   1      -8.509  11.452 -13.031 -0.07 -0.03    -0.248 N 
DOCKED: ATOM     29 FE   UNL d   1      -6.722  10.526 -13.317 -0.04 -0.00    +0.000 Fe
DOCKED: ENDROOT
DOCKED: BRANCH   6  30
DOCKED: ATOM     30  C   UNL d   1      -9.663   8.264  -8.884 -0.11 +0.01    +0.052 C 
DOCKED: BRANCH  30  31
DOCKED: ATOM     31  C   UNL d   1      -9.048   8.045  -7.502 -0.12 +0.04    +0.115 C 
DOCKED: BRANCH  31  32
DOCKED: ATOM     32  C   UNL d   1      -9.917   7.183  -6.613 -0.11 +0.12    +0.139 C 
DOCKED: ATOM     33  O   UNL d   1     -10.081   7.500  -5.444 -0.50 -0.56    -0.650 OA
DOCKED: BRANCH  32  34
DOCKED: ATOM     34  O   UNL d   1     -10.564   6.091  -7.082 -0.25 -1.25    -0.776 OA
DOCKED: ATOM     35  H   UNL d   1     -10.977   6.037  -7.955 +0.02 +0.19    +0.167 HD
DOCKED: ENDBRANCH  32  34
DOCKED: ENDBRANCH  31  32
DOCKED: ENDBRANCH  30  31
DOCKED: ENDBRANCH   6  30
DOCKED: BRANCH  29  36
DOCKED: ATOM     36  C   UNL d   1      -5.841  11.713 -11.831 -0.26 -0.02    +0.190 C 
DOCKED: BRANCH  36  37
DOCKED: ATOM     37  O   UNL d   1      -5.446  11.709 -10.490 -0.38 +0.06    -0.399 OA
DOCKED: ATOM     38  H   UNL d   1      -4.689  11.060 -10.447 -0.43 -0.10    +0.209 HD
DOCKED: ENDBRANCH  36  37
DOCKED: ENDBRANCH  29  36
DOCKED: BRANCH  22  39
DOCKED: ATOM     39  C   UNL d   1     -11.787  12.475 -11.562 -0.06 +0.01    +0.052 C 
DOCKED: BRANCH  39  40
DOCKED: ATOM     40  C   UNL d   1     -11.491  13.097 -10.188 -0.11 +0.04    +0.115 C 
DOCKED: BRANCH  40  41
DOCKED: ATOM     41  C   UNL d   1     -11.467  14.611 -10.180 -0.16 +0.07    +0.139 C 
DOCKED: ATOM     42  O   UNL d   1     -12.270  15.226 -10.867 +0.01 -0.24    -0.650 OA
DOCKED: BRANCH  41  43
DOCKED: ATOM     43  O   UNL d   1     -10.639  15.304  -9.367 -0.43 -0.90    -0.776 OA
DOCKED: ATOM     44  H   UNL d   1      -9.953  15.895  -9.705 -0.49 +0.19    +0.167 HD
DOCKED: ENDBRANCH  41  43
DOCKED: ENDBRANCH  40  41
DOCKED: ENDBRANCH  39  40
DOCKED: ENDBRANCH  22  39
DOCKED: BRANCH  12  45
DOCKED: ATOM     45  C   UNL d   1      -1.857   8.496 -14.977 -0.37 -0.00    +0.004 C 
DOCKED: ATOM     46  C   UNL d   1      -1.748   8.085 -16.237 -0.38 -0.00    +0.012 C 
DOCKED: ENDBRANCH  12  45
DOCKED: BRANCH  17  47
DOCKED: ATOM     47  C   UNL d   1      -6.250  14.723 -16.707 -0.11 -0.00    +0.004 C 
DOCKED: ATOM     48  C   UNL d   1      -6.239  15.885 -16.049 -0.15 -0.01    +0.012 C 
DOCKED: ENDBRANCH  17  47
DOCKED: TORSDOF 12
DOCKED: TER
DOCKED: ENDMDL
________________________________________________________________________________


	BEGINNING GENETIC ALGORITHM DOCKING 99 of 100
Run: 99 Seed: 305916339 1037993555 [ Run 99 of 100 GA/GALS ]
Beginning LAMARCKIAN GENETIC ALGORITHM (LGA), with a maximum of 25000000 energy evaluations.

Final-Value: -9.961


	FINAL GENETIC ALGORITHM DOCKED STATE
	_______________________________________________


Detailed state:  trans 3.657 6.178 18.780 quatxyzw -0.203113 0.644685 0.709431 0.199584 center 8.781 34.984 -0.736 ntor 12 -52.9239 106.4802 -58.1084 135.5651 -65.0251 152.5033 69.5368 -111.5909 88.1763 27.0502 43.9733 -159.7380
State:	  3.657   6.178  18.780  -0.207  0.658  0.724 156.975    -52.92  106.48  -58.11  135.57  -65.03  152.50   69.54 -111.59   88.18   27.05   43.97 -159.74

DOCKED: MODEL       99
DOCKED: USER    Run = 99
DOCKED: USER    DPF = D:/Protein_go_brrr/autodock/final/mut_K82N/heme_Co/dock.dpf
DOCKED: USER  
DOCKED: USER    Estimated Free Energy of Binding    =   -5.76 kcal/mol  [=(1)+(2)+(3)-(4)]
DOCKED: USER    Estimated Inhibition Constant, Ki   =   59.75 uM (micromolar)  [Temperature = 298.15 K]
DOCKED: USER    
DOCKED: USER    (1) Final Intermolecular Energy     =   -9.34 kcal/mol
DOCKED: USER        vdW + Hbond + desolv Energy     =   -8.45 kcal/mol
DOCKED: USER        Electrostatic Energy            =   -0.89 kcal/mol
DOCKED: USER    (2) Final Total Internal Energy     =   -0.62 kcal/mol
DOCKED: USER    (3) Torsional Free Energy           =   +3.58 kcal/mol
DOCKED: USER    (4) Unbound System's Energy  [=(2)] =   -0.62 kcal/mol
DOCKED: USER    
DOCKED: USER    
DOCKED: USER    NEWDPF move heme_Co_opt.pdbqt
DOCKED: USER    NEWDPF about 8.781000 34.984000 -0.736000
DOCKED: USER    NEWDPF tran0 3.656857 6.177980 18.780236
DOCKED: USER    NEWDPF quaternion0 -0.203113 0.644685 0.709431 0.199584
DOCKED: USER    NEWDPF axisangle0 -0.207284 0.657922 0.723997 156.974691
DOCKED: USER    NEWDPF quat0 -0.207284 0.657922 0.723997 156.974691
DOCKED: USER    NEWDPF dihe0 -52.92 106.48 -58.11 135.57 -65.03 152.50 69.54 -111.59 88.18 27.05 43.97 -159.74 
DOCKED: USER  keepresnum = 1 
DOCKED: USER  
DOCKED: REMARK  12 active torsions:
DOCKED: REMARK  status: ('A' for Active; 'I' for Inactive)
DOCKED: REMARK    1  A    between atoms: C_6  and  C_10 
DOCKED: REMARK    2  A    between atoms: C_10  and  C_11 
DOCKED: REMARK    3  A    between atoms: C_11  and  C_12 
DOCKED: REMARK    4  A    between atoms: C_12  and  O_14 
DOCKED: REMARK    5  A    between atoms: C_17  and  C_20 
DOCKED: REMARK    6  A    between atoms: C_24  and  C_27 
DOCKED: REMARK    7  A    between atoms: C_31  and  C_34 
DOCKED: REMARK    8  A    between atoms: C_34  and  C_35 
DOCKED: REMARK    9  A    between atoms: C_35  and  C_36 
DOCKED: REMARK   10  A    between atoms: C_36  and  O_38 
DOCKED: REMARK   11  A    between atoms: FE_43  and  C_44 
DOCKED: REMARK   12  A    between atoms: C_44  and  O_45 
DOCKED: USER                              x       y       z     vdW  Elec       q    Type
DOCKED: USER                           _______ _______ _______ _____ _____    ______ ____
DOCKED: ROOT
DOCKED: ATOM      1  C   UNL d   1       5.752   6.480  19.264 -0.21 -0.01    +0.064 A 
DOCKED: ATOM      2  C   UNL d   1       2.603   9.144  16.898 -0.21 -0.02    +0.064 C 
DOCKED: ATOM      3  C   UNL d   1      -0.658   5.670  17.250 -0.21 -0.02    +0.064 A 
DOCKED: ATOM      4  C   UNL d   1       2.412   3.086  20.001 -0.24 -0.05    +0.064 A 
DOCKED: ATOM      5  C   UNL d   1       5.143   7.448  18.560 -0.19 -0.02    +0.066 A 
DOCKED: ATOM      6  C   UNL d   1       5.762   8.687  18.303 -0.13 +0.01    -0.021 A 
DOCKED: ATOM      7  C   UNL d   1       4.836   9.465  17.636 -0.15 +0.01    -0.025 A 
DOCKED: ATOM      8  C   UNL d   1       3.698   8.662  17.500 -0.19 -0.02    +0.066 A 
DOCKED: ATOM      9  C   UNL d   1       5.000  10.909  17.140 -0.13 -0.01    +0.051 C 
DOCKED: ATOM     10  C   UNL d   1       1.396   8.384  16.689 -0.22 -0.03    +0.066 A 
DOCKED: ATOM     11  C   UNL d   1       0.266   8.784  15.943 -0.21 +0.01    -0.021 A 
DOCKED: ATOM     12  C   UNL d   1      -0.667   7.750  16.059 -0.15 -0.00    +0.000 A 
DOCKED: ATOM     13  C   UNL d   1      -0.035   6.794  16.855 -0.22 -0.03    +0.070 A 
DOCKED: ATOM     14  C   UNL d   1       0.146  10.030  15.104 -0.14 -0.05    +0.052 C 
DOCKED: ATOM     15  C   UNL d   1      -0.176   4.606  18.110 -0.22 -0.02    +0.066 A 
DOCKED: ATOM     16  C   UNL d   1      -0.921   3.542  18.598 -0.22 +0.01    -0.021 A 
DOCKED: ATOM     17  C   UNL d   1      -0.041   2.795  19.394 -0.26 -0.00    +0.000 A 
DOCKED: ATOM     18  C   UNL d   1       1.180   3.456  19.315 -0.27 -0.04    +0.070 A 
DOCKED: ATOM     19  C   UNL d   1      -2.382   3.285  18.303 -0.25 -0.01    +0.052 C 
DOCKED: ATOM     20  C   UNL d   1       3.586   3.760  20.009 -0.29 -0.03    +0.066 A 
DOCKED: ATOM     21  C   UNL d   1       4.690   3.323  20.737 -0.31 +0.01    -0.025 A 
DOCKED: ATOM     22  C   UNL d   1       5.678   4.266  20.520 -0.30 +0.00    -0.021 A 
DOCKED: ATOM     23  C   UNL d   1       5.119   5.247  19.673 -0.25 -0.02    +0.066 A 
DOCKED: ATOM     24  C   UNL d   1       4.794   2.078  21.614 -0.30 -0.02    +0.051 C 
DOCKED: ATOM     25  N   UNL d   1       3.862   7.406  18.058 -0.14 +0.11    -0.248 N 
DOCKED: ATOM     26  N   UNL d   1       1.233   7.154  17.188 -0.12 +0.12    -0.248 N 
DOCKED: ATOM     27  N   UNL d   1       1.055   4.546  18.566 -0.13 +0.12    -0.248 N 
DOCKED: ATOM     28  N   UNL d   1       3.852   4.945  19.363 -0.16 +0.11    -0.248 N 
DOCKED: ATOM     29 FE   UNL d   1       2.378   5.889  18.329 -0.03 -0.00    +0.000 Fe
DOCKED: ENDROOT
DOCKED: BRANCH   6  30
DOCKED: ATOM     30  C   UNL d   1       7.153   9.121  18.756 -0.07 -0.01    +0.052 C 
DOCKED: BRANCH  30  31
DOCKED: ATOM     31  C   UNL d   1       7.965   9.643  17.571 -0.11 -0.02    +0.115 C 
DOCKED: BRANCH  31  32
DOCKED: ATOM     32  C   UNL d   1       8.822   8.567  16.939 -0.15 -0.02    +0.139 C 
DOCKED: ATOM     33  O   UNL d   1       9.672   8.004  17.612 +0.04 +0.03    -0.650 OA
DOCKED: BRANCH  32  34
DOCKED: ATOM     34  O   UNL d   1       8.645   8.170  15.658 -0.08 +0.12    -0.776 OA
DOCKED: ATOM     35  H   UNL d   1       7.813   7.827  15.304 -0.46 -0.07    +0.167 HD
DOCKED: ENDBRANCH  32  34
DOCKED: ENDBRANCH  31  32
DOCKED: ENDBRANCH  30  31
DOCKED: ENDBRANCH   6  30
DOCKED: BRANCH  29  36
DOCKED: ATOM     36  C   UNL d   1       1.797   6.924  20.057 -0.05 -0.05    +0.190 C 
DOCKED: BRANCH  36  37
DOCKED: ATOM     37  O   UNL d   1       2.109   8.034  20.849 +0.00 +0.07    -0.399 OA
DOCKED: ATOM     38  H   UNL d   1       2.958   8.393  20.465 +0.02 -0.04    +0.209 HD
DOCKED: ENDBRANCH  36  37
DOCKED: ENDBRANCH  29  36
DOCKED: BRANCH  22  39
DOCKED: ATOM     39  C   UNL d   1       7.059   4.255  21.148 -0.25 +0.01    +0.052 C 
DOCKED: BRANCH  39  40
DOCKED: ATOM     40  C   UNL d   1       6.957   4.268  22.683 -0.18 +0.03    +0.115 C 
DOCKED: BRANCH  40  41
DOCKED: ATOM     41  C   UNL d   1       8.203   4.764  23.387 -0.06 +0.09    +0.139 C 
DOCKED: ATOM     42  O   UNL d   1       8.952   5.537  22.806 -0.03 -0.37    -0.650 OA
DOCKED: BRANCH  41  43
DOCKED: ATOM     43  O   UNL d   1       8.467   4.444  24.673 -0.15 -0.87    -0.776 OA
DOCKED: ATOM     44  H   UNL d   1       7.824   4.573  25.383 +0.01 +0.12    +0.167 HD
DOCKED: ENDBRANCH  41  43
DOCKED: ENDBRANCH  40  41
DOCKED: ENDBRANCH  39  40
DOCKED: ENDBRANCH  22  39
DOCKED: BRANCH  12  45
DOCKED: ATOM     45  C   UNL d   1      -2.069   7.549  15.497 -0.26 -0.00    +0.004 C 
DOCKED: ATOM     46  C   UNL d   1      -2.587   6.538  14.804 -0.37 -0.01    +0.012 C 
DOCKED: ENDBRANCH  12  45
DOCKED: BRANCH  17  47
DOCKED: ATOM     47  C   UNL d   1      -0.301   1.580  20.222 -0.24 -0.00    +0.004 C 
DOCKED: ATOM     48  C   UNL d   1      -0.737   1.626  21.483 -0.18 -0.00    +0.012 C 
DOCKED: ENDBRANCH  17  47
DOCKED: TORSDOF 12
DOCKED: TER
DOCKED: ENDMDL
________________________________________________________________________________


	BEGINNING GENETIC ALGORITHM DOCKING 100 of 100
Run: 100 Seed: 1395909815 10250461 [ Run 100 of 100 GA/GALS ]
Beginning LAMARCKIAN GENETIC ALGORITHM (LGA), with a maximum of 25000000 energy evaluations.

Final-Value: -8.907


	FINAL GENETIC ALGORITHM DOCKED STATE
	_______________________________________________


Detailed state:  trans -12.493 -2.389 -3.776 quatxyzw 0.520324 -0.771033 0.155459 -0.332572 center 8.781 34.984 -0.736 ntor 12 -84.6791 120.3546 93.1882 136.2723 135.7288 82.5978 -104.7110 -64.8225 -23.1927 138.2388 169.8580 174.8651
State:	-12.493  -2.389  -3.776   0.552 -0.818  0.165 -141.150    -84.68  120.35   93.19  136.27  135.73   82.60 -104.71  -64.82  -23.19  138.24  169.86  174.87

DOCKED: MODEL      100
DOCKED: USER    Run = 100
DOCKED: USER    DPF = D:/Protein_go_brrr/autodock/final/mut_K82N/heme_Co/dock.dpf
DOCKED: USER  
DOCKED: USER    Estimated Free Energy of Binding    =   -2.88 kcal/mol  [=(1)+(2)+(3)-(4)]
DOCKED: USER    Estimated Inhibition Constant, Ki   =    7.69 mM (millimolar)  [Temperature = 298.15 K]
DOCKED: USER    
DOCKED: USER    (1) Final Intermolecular Energy     =   -6.46 kcal/mol
DOCKED: USER        vdW + Hbond + desolv Energy     =   -4.95 kcal/mol
DOCKED: USER        Electrostatic Energy            =   -1.51 kcal/mol
DOCKED: USER    (2) Final Total Internal Energy     =   -2.44 kcal/mol
DOCKED: USER    (3) Torsional Free Energy           =   +3.58 kcal/mol
DOCKED: USER    (4) Unbound System's Energy  [=(2)] =   -2.44 kcal/mol
DOCKED: USER    
DOCKED: USER    
DOCKED: USER    NEWDPF move heme_Co_opt.pdbqt
DOCKED: USER    NEWDPF about 8.781000 34.984000 -0.736000
DOCKED: USER    NEWDPF tran0 -12.492672 -2.388507 -3.775508
DOCKED: USER    NEWDPF quaternion0 0.520324 -0.771033 0.155459 -0.332572
DOCKED: USER    NEWDPF axisangle0 0.551729 -0.817571 0.164842 -141.150107
DOCKED: USER    NEWDPF quat0 0.551729 -0.817571 0.164842 -141.150107
DOCKED: USER    NEWDPF dihe0 -84.68 120.35 93.19 136.27 135.73 82.60 -104.71 -64.82 -23.19 138.24 169.86 174.87 
DOCKED: USER  keepresnum = 1 
DOCKED: USER  
DOCKED: REMARK  12 active torsions:
DOCKED: REMARK  status: ('A' for Active; 'I' for Inactive)
DOCKED: REMARK    1  A    between atoms: C_6  and  C_10 
DOCKED: REMARK    2  A    between atoms: C_10  and  C_11 
DOCKED: REMARK    3  A    between atoms: C_11  and  C_12 
DOCKED: REMARK    4  A    between atoms: C_12  and  O_14 
DOCKED: REMARK    5  A    between atoms: C_17  and  C_20 
DOCKED: REMARK    6  A    between atoms: C_24  and  C_27 
DOCKED: REMARK    7  A    between atoms: C_31  and  C_34 
DOCKED: REMARK    8  A    between atoms: C_34  and  C_35 
DOCKED: REMARK    9  A    between atoms: C_35  and  C_36 
DOCKED: REMARK   10  A    between atoms: C_36  and  O_38 
DOCKED: REMARK   11  A    between atoms: FE_43  and  C_44 
DOCKED: REMARK   12  A    between atoms: C_44  and  O_45 
DOCKED: USER                              x       y       z     vdW  Elec       q    Type
DOCKED: USER                           _______ _______ _______ _____ _____    ______ ____
DOCKED: ROOT
DOCKED: ATOM      1  C   UNL d   1     -12.187  -0.333  -4.407 -0.12 +0.02    +0.064 A 
DOCKED: ATOM      2  C   UNL d   1     -11.388  -4.493  -6.569 -0.30 +0.00    +0.064 C 
DOCKED: ATOM      3  C   UNL d   1     -12.637  -6.839  -2.599 -0.09 -0.03    +0.064 A 
DOCKED: ATOM      4  C   UNL d   1     -13.829  -2.618  -0.495 -0.06 -0.03    +0.064 A 
DOCKED: ATOM      5  C   UNL d   1     -11.842  -1.296  -5.277 -0.14 +0.01    +0.066 A 
DOCKED: ATOM      6  C   UNL d   1     -11.477  -1.006  -6.607 -0.14 -0.01    -0.021 A 
DOCKED: ATOM      7  C   UNL d   1     -11.268  -2.218  -7.236 -0.21 -0.00    -0.025 A 
DOCKED: ATOM      8  C   UNL d   1     -11.499  -3.194  -6.260 -0.20 +0.00    +0.066 A 
DOCKED: ATOM      9  C   UNL d   1     -10.868  -2.464  -8.699 -0.23 +0.01    +0.051 C 
DOCKED: ATOM     10  C   UNL d   1     -11.580  -5.566  -5.625 -0.20 -0.01    +0.066 A 
DOCKED: ATOM     11  C   UNL d   1     -11.341  -6.939  -5.850 -0.25 +0.00    -0.021 A 
DOCKED: ATOM     12  C   UNL d   1     -11.710  -7.600  -4.675 -0.17 -0.00    +0.000 A 
DOCKED: ATOM     13  C   UNL d   1     -12.133  -6.583  -3.819 -0.10 -0.02    +0.070 A 
DOCKED: ATOM     14  C   UNL d   1     -10.713  -7.546  -7.078 -0.42 -0.01    +0.052 C 
DOCKED: ATOM     15  C   UNL d   1     -13.165  -5.920  -1.610 -0.07 -0.05    +0.066 A 
DOCKED: ATOM     16  C   UNL d   1     -13.805  -6.262  -0.427 -0.08 +0.02    -0.021 A 
DOCKED: ATOM     17  C   UNL d   1     -14.153  -5.048   0.182 -0.08 -0.00    +0.000 A 
DOCKED: ATOM     18  C   UNL d   1     -13.681  -4.057  -0.672 -0.01 -0.06    +0.070 A 
DOCKED: ATOM     19  C   UNL d   1     -14.053  -7.673   0.060 -0.09 -0.03    +0.052 C 
DOCKED: ATOM     20  C   UNL d   1     -13.455  -1.639  -1.353 -0.06 -0.02    +0.066 A 
DOCKED: ATOM     21  C   UNL d   1     -13.683  -0.291  -1.087 -0.06 +0.00    -0.025 A 
DOCKED: ATOM     22  C   UNL d   1     -13.194   0.394  -2.184 -0.11 -0.00    -0.021 A 
DOCKED: ATOM     23  C   UNL d   1     -12.699  -0.579  -3.078 -0.09 +0.01    +0.066 A 
DOCKED: ATOM     24  C   UNL d   1     -14.353   0.316   0.144 -0.04 -0.00    +0.051 C 
DOCKED: ATOM     25  N   UNL d   1     -11.850  -2.651  -5.036 -0.08 +0.00    -0.248 N 
DOCKED: ATOM     26  N   UNL d   1     -12.000  -5.349  -4.375 -0.05 +0.06    -0.248 N 
DOCKED: ATOM     27  N   UNL d   1     -13.126  -4.613  -1.743 -0.05 +0.19    -0.248 N 
DOCKED: ATOM     28  N   UNL d   1     -12.857  -1.811  -2.579 -0.03 +0.05    -0.248 N 
DOCKED: ATOM     29 FE   UNL d   1     -12.526  -3.687  -3.290 -0.02 -0.00    +0.000 Fe
DOCKED: ENDROOT
DOCKED: BRANCH   6  30
DOCKED: ATOM     30  C   UNL d   1     -11.416   0.374  -7.253 -0.21 +0.03    +0.052 C 
DOCKED: BRANCH  30  31
DOCKED: ATOM     31  C   UNL d   1     -12.596   0.574  -8.204 -0.13 +0.06    +0.115 C 
DOCKED: BRANCH  31  32
DOCKED: ATOM     32  C   UNL d   1     -12.941   2.035  -8.395 -0.09 +0.12    +0.139 C 
DOCKED: ATOM     33  O   UNL d   1     -12.993   2.498  -9.524 -0.02 -0.38    -0.650 OA
DOCKED: BRANCH  32  34
DOCKED: ATOM     34  O   UNL d   1     -13.245   2.843  -7.352 -0.12 -1.37    -0.776 OA
DOCKED: ATOM     35  H   UNL d   1     -14.137   2.963  -6.998 +0.00 +0.19    +0.167 HD
DOCKED: ENDBRANCH  32  34
DOCKED: ENDBRANCH  31  32
DOCKED: ENDBRANCH  30  31
DOCKED: ENDBRANCH   6  30
DOCKED: BRANCH  29  36
DOCKED: ATOM     36  C   UNL d   1     -14.425  -3.711  -4.178 -0.01 -0.02    +0.190 C 
DOCKED: BRANCH  36  37
DOCKED: ATOM     37  O   UNL d   1     -15.513  -2.895  -4.504 +0.00 +0.02    -0.399 OA
DOCKED: ATOM     38  H   UNL d   1     -15.209  -1.968  -4.295 +0.01 -0.00    +0.209 HD
DOCKED: ENDBRANCH  36  37
DOCKED: ENDBRANCH  29  36
DOCKED: BRANCH  22  39
DOCKED: ATOM     39  C   UNL d   1     -13.262   1.896  -2.386 -0.12 +0.02    +0.052 C 
DOCKED: BRANCH  39  40
DOCKED: ATOM     40  C   UNL d   1     -14.625   2.305  -2.969 -0.08 +0.04    +0.115 C 
DOCKED: BRANCH  40  41
DOCKED: ATOM     41  C   UNL d   1     -15.077   1.466  -4.146 -0.05 +0.05    +0.139 C 
DOCKED: ATOM     42  O   UNL d   1     -15.467   0.323  -3.951 +0.01 -0.10    -0.650 OA
DOCKED: BRANCH  41  43
DOCKED: ATOM     43  O   UNL d   1     -15.146   1.974  -5.396 +0.00 -0.37    -0.776 OA
DOCKED: ATOM     44  H   UNL d   1     -14.456   1.826  -6.056 +0.01 +0.12    +0.167 HD
DOCKED: ENDBRANCH  41  43
DOCKED: ENDBRANCH  40  41
DOCKED: ENDBRANCH  39  40
DOCKED: ENDBRANCH  22  39
DOCKED: BRANCH  12  45
DOCKED: ATOM     45  C   UNL d   1     -11.694  -9.064  -4.258 -0.22 -0.00    +0.004 C 
DOCKED: ATOM     46  C   UNL d   1     -11.172  -9.654  -3.186 -0.26 -0.00    +0.012 C 
DOCKED: ENDBRANCH  12  45
DOCKED: BRANCH  17  47
DOCKED: ATOM     47  C   UNL d   1     -14.915  -4.797   1.442 -0.07 -0.00    +0.004 C 
DOCKED: ATOM     48  C   UNL d   1     -14.378  -4.237   2.529 -0.08 -0.01    +0.012 C 
DOCKED: ENDBRANCH  17  47
DOCKED: TORSDOF 12
DOCKED: TER
DOCKED: ENDMDL
________________________________________________________________________________

DPF> analysis                             # perform a ranked cluster analysis


		CLUSTER ANALYSIS OF CONFORMATIONS
		_________________________________

Number of conformations = 100

RMSD cluster analysis will be performed using the ligand atoms only (48 / 48 total atoms).

Outputting structurally similar clusters, ranked in order of increasing energy.


________________________________________________________________________________

Number of distinct conformational clusters found = 47,  out of 100 runs,
Using an rmsd-tolerance of 2.0 A


	CLUSTERING HISTOGRAM
	____________________

________________________________________________________________________________
     |           |     |           |     |                                    
Clus | Lowest    | Run | Mean      | Num | Histogram                          
-ter | Binding   |     | Binding   | in  |                                    
Rank | Energy    |     | Energy    | Clus|    5    10   15   20   25   30   35
_____|___________|_____|___________|_____|____:____|____:____|____:____|____:___
   1 |     -7.60 |  35 |     -7.21 |   5 |#####
   2 |     -6.27 |  29 |     -5.15 |   4 |####
   3 |     -6.11 |  51 |     -5.60 |   5 |#####
   4 |     -5.90 |  82 |     -4.60 |   3 |###
   5 |     -5.76 |  99 |     -4.60 |   2 |##
   6 |     -5.46 |  94 |     -5.46 |   1 |#
   7 |     -5.44 |  76 |     -4.83 |   5 |#####
   8 |     -5.28 |  78 |     -5.28 |   1 |#
   9 |     -5.19 |  60 |     -4.69 |   2 |##
  10 |     -5.10 |  17 |     -4.67 |   5 |#####
  11 |     -5.09 |  15 |     -4.17 |   3 |###
  12 |     -5.01 |  24 |     -3.63 |   2 |##
  13 |     -4.85 |   9 |     -4.85 |   1 |#
  14 |     -4.67 |   7 |     -3.77 |   7 |#######
  15 |     -4.49 |  12 |     -4.04 |   2 |##
  16 |     -4.45 |  32 |     -4.45 |   1 |#
  17 |     -4.27 |  39 |     -4.26 |   2 |##
  18 |     -4.24 |  93 |     -4.24 |   1 |#
  19 |     -4.16 |  27 |     -4.16 |   1 |#
  20 |     -4.09 |  11 |     -3.88 |   2 |##
  21 |     -3.95 |  31 |     -3.92 |   2 |##
  22 |     -3.85 |  53 |     -3.85 |   1 |#
  23 |     -3.84 |  87 |     -3.18 |   2 |##
  24 |     -3.78 |  38 |     -3.16 |   3 |###
  25 |     -3.78 |  68 |     -3.78 |   1 |#
  26 |     -3.74 |  77 |     -3.74 |   1 |#
  27 |     -3.66 |  67 |     -3.66 |   1 |#
  28 |     -3.54 |   1 |     -3.22 |   7 |#######
  29 |     -3.52 |  47 |     -3.30 |   2 |##
  30 |     -3.51 |  13 |     -3.51 |   1 |#
  31 |     -3.45 |  59 |     -3.45 |   1 |#
  32 |     -3.44 |  16 |     -3.44 |   1 |#
  33 |     -3.43 |  18 |     -3.43 |   1 |#
  34 |     -3.42 |  91 |     -3.07 |   3 |###
  35 |     -3.27 |  80 |     -3.27 |   1 |#
  36 |     -3.24 |  33 |     -3.24 |   1 |#
  37 |     -3.18 |  89 |     -2.66 |   4 |####
  38 |     -3.15 |  25 |     -3.15 |   1 |#
  39 |     -3.05 |   2 |     -2.80 |   2 |##
  40 |     -3.04 |  22 |     -2.94 |   2 |##
  41 |     -2.95 |  62 |     -2.95 |   1 |#
  42 |     -2.90 |  45 |     -2.90 |   1 |#
  43 |     -2.88 | 100 |     -2.88 |   1 |#
  44 |     -2.65 |  61 |     -2.65 |   1 |#
  45 |     -2.56 |  46 |     -2.56 |   1 |#
  46 |     -2.34 |  96 |     -2.34 |   1 |#
  47 |     -1.50 |  71 |     -1.50 |   1 |#
_____|___________|_____|___________|_____|______________________________________


Number of multi-member conformational clusters found = 23, out of 100 runs.

	RMSD TABLE
	__________

_____________________________________________________________________
     |      |      |           |         |                 |
Rank | Sub- | Run  | Binding   | Cluster | Reference       | Grep
     | Rank |      | Energy    | RMSD    | RMSD            | Pattern
_____|______|______|___________|_________|_________________|___________
   1      1     35       -7.60      0.00     29.26           RANKING
   1      2     19       -7.54      0.94     29.28           RANKING
   1      3     28       -7.40      1.25     29.15           RANKING
   1      4     98       -7.24      1.24     29.14           RANKING
   1      5     66       -6.24      1.90     28.79           RANKING
   2      1     29       -6.27      0.00     33.06           RANKING
   2      2      5       -4.90      1.35     32.11           RANKING
   2      3     34       -4.73      1.51     31.96           RANKING
   2      4     63       -4.72      1.49     32.01           RANKING
   3      1     51       -6.11      0.00     32.92           RANKING
   3      2     10       -5.92      1.79     32.81           RANKING
   3      3     85       -5.86      1.06     32.68           RANKING
   3      4     49       -5.32      1.29     32.22           RANKING
   3      5     52       -4.81      1.27     32.73           RANKING
   4      1     82       -5.90      0.00     29.07           RANKING
   4      2     75       -4.07      1.76     29.95           RANKING
   4      3     84       -3.82      1.74     30.28           RANKING
   5      1     99       -5.76      0.00     31.90           RANKING
   5      2     86       -3.44      1.61     30.97           RANKING
   6      1     94       -5.46      0.00     33.42           RANKING
   7      1     76       -5.44      0.00     29.79           RANKING
   7      2      8       -5.41      0.75     29.55           RANKING
   7      3     41       -4.90      0.85     30.09           RANKING
   7      4     36       -4.78      0.92     30.07           RANKING
   7      5     74       -3.64      1.14     29.88           RANKING
   8      1     78       -5.28      0.00     38.45           RANKING
   9      1     60       -5.19      0.00     33.95           RANKING
   9      2     81       -4.18      1.57     33.14           RANKING
  10      1     17       -5.10      0.00     28.96           RANKING
  10      2     90       -4.90      1.12     29.03           RANKING
  10      3     30       -4.80      1.28     29.18           RANKING
  10      4     73       -4.40      1.35     29.54           RANKING
  10      5     69       -4.14      1.28     29.56           RANKING
  11      1     15       -5.09      0.00     38.09           RANKING
  11      2     65       -3.85      1.10     38.04           RANKING
  11      3     14       -3.58      1.82     38.63           RANKING
  12      1     24       -5.01      0.00     29.01           RANKING
  12      2     50       -2.25      1.94     27.75           RANKING
  13      1      9       -4.85      0.00     48.42           RANKING
  14      1      7       -4.67      0.00     27.74           RANKING
  14      2     70       -4.65      0.34     27.73           RANKING
  14      3     26       -4.61      0.31     27.76           RANKING
  14      4     40       -4.57      0.29     27.63           RANKING
  14      5     57       -2.71      0.75     27.41           RANKING
  14      6     20       -2.60      0.76     27.37           RANKING
  14      7     55       -2.58      0.78     27.32           RANKING
  15      1     12       -4.49      0.00     35.04           RANKING
  15      2     44       -3.60      1.74     33.83           RANKING
  16      1     32       -4.45      0.00     34.12           RANKING
  17      1     39       -4.27      0.00     28.97           RANKING
  17      2      4       -4.25      0.30     28.88           RANKING
  18      1     93       -4.24      0.00     22.75           RANKING
  19      1     27       -4.16      0.00     20.11           RANKING
  20      1     11       -4.09      0.00     23.31           RANKING
  20      2     95       -3.67      1.70     21.92           RANKING
  21      1     31       -3.95      0.00     45.53           RANKING
  21      2     42       -3.88      0.35     45.76           RANKING
  22      1     53       -3.85      0.00     32.85           RANKING
  23      1     87       -3.84      0.00     37.56           RANKING
  23      2     48       -2.52      1.72     39.29           RANKING
  24      1     38       -3.78      0.00     32.42           RANKING
  24      2     72       -3.37      1.36     31.65           RANKING
  24      3     58       -2.34      1.99     31.46           RANKING
  25      1     68       -3.78      0.00     33.99           RANKING
  26      1     77       -3.74      0.00     30.13           RANKING
  27      1     67       -3.66      0.00     35.68           RANKING
  28      1      1       -3.54      0.00     22.29           RANKING
  28      2     88       -3.51      1.89     21.92           RANKING
  28      3     56       -3.26      1.05     21.84           RANKING
  28      4     83       -3.23      1.24     21.79           RANKING
  28      5     79       -3.17      1.39     21.99           RANKING
  28      6     64       -3.04      1.42     22.20           RANKING
  28      7     97       -2.77      1.90     22.18           RANKING
  29      1     47       -3.52      0.00     40.54           RANKING
  29      2      3       -3.08      1.34     39.93           RANKING
  30      1     13       -3.51      0.00     39.07           RANKING
  31      1     59       -3.45      0.00     36.51           RANKING
  32      1     16       -3.44      0.00     24.92           RANKING
  33      1     18       -3.43      0.00     32.74           RANKING
  34      1     91       -3.42      0.00     21.19           RANKING
  34      2     43       -3.39      1.05     20.66           RANKING
  34      3     92       -2.40      1.95     20.67           RANKING
  35      1     80       -3.27      0.00     47.09           RANKING
  36      1     33       -3.24      0.00     21.88           RANKING
  37      1     89       -3.18      0.00     19.90           RANKING
  37      2     23       -2.51      1.04     19.88           RANKING
  37      3     54       -2.48      0.75     19.71           RANKING
  37      4     21       -2.47      0.91     19.73           RANKING
  38      1     25       -3.15      0.00     33.65           RANKING
  39      1      2       -3.05      0.00     44.31           RANKING
  39      2      6       -2.55      1.84     44.40           RANKING
  40      1     22       -3.04      0.00     32.92           RANKING
  40      2     37       -2.84      1.57     31.45           RANKING
  41      1     62       -2.95      0.00     47.92           RANKING
  42      1     45       -2.90      0.00     30.28           RANKING
  43      1    100       -2.88      0.00     40.94           RANKING
  44      1     61       -2.65      0.00     25.96           RANKING
  45      1     46       -2.56      0.00     26.80           RANKING
  46      1     96       -2.34      0.00     40.76           RANKING
  47      1     71       -1.50      0.00     19.58           RANKING
_______________________________________________________________________



	INFORMATION ENTROPY ANALYSIS FOR THIS CLUSTERING
	________________________________________________


Information entropy for this clustering = 0.79  (rmstol = 2.00 Angstrom)

_______________________________________________________________________


	STATISTICAL MECHANICAL ANALYSIS
	_______________________________


Partition function, Q =   100.68            at Temperature, T = 298.15 K
Free energy,        A ~ -2732.52 kcal/mol   at Temperature, T = 298.15 K
Internal energy,    U =    -4.04 kcal/mol   at Temperature, T = 298.15 K
Entropy,            S =     9.15 kcal/mol/K at Temperature, T = 298.15 K

_______________________________________________________________________


	LOWEST ENERGY DOCKED CONFORMATION from EACH CLUSTER
	___________________________________________________



Keeping original residue number (specified in the input PDBQ file) for outputting.

MODEL       35
USER    Run = 35
USER    Cluster Rank = 1
USER    Number of conformations in this cluster = 5
USER  
USER    RMSD from reference structure       = 29.255 A
USER  
USER    Estimated Free Energy of Binding    =   -7.60 kcal/mol  [=(1)+(2)+(3)-(4)]
USER    Estimated Inhibition Constant, Ki   =    2.70 uM (micromolar)  [Temperature = 298.15 K]
USER    
USER    (1) Final Intermolecular Energy     =  -11.18 kcal/mol
USER        vdW + Hbond + desolv Energy     =   -8.80 kcal/mol
USER        Electrostatic Energy            =   -2.38 kcal/mol
USER    (2) Final Total Internal Energy     =   -0.87 kcal/mol
USER    (3) Torsional Free Energy           =   +3.58 kcal/mol
USER    (4) Unbound System's Energy  [=(2)] =   -0.87 kcal/mol
USER    
USER    
USER  
USER    DPF = D:/Protein_go_brrr/autodock/final/mut_K82N/heme_Co/dock.dpf
USER    NEWDPF move	heme_Co_opt.pdbqt
USER    NEWDPF about	8.781000 34.984000 -0.736000
USER    NEWDPF tran0	-7.921905 10.377005 -12.071090
USER    NEWDPF axisangle0	-0.165638 -0.963338 -0.211056 72.632532
USER    NEWDPF quaternion0	-0.098098 -0.570529 -0.124996 0.805760
USER    NEWDPF dihe0	33.86 17.14 -134.02 -66.73 -89.77 172.76 7.25 -163.67 -51.90 111.12 -0.63 -179.19 
USER  
USER                              x       y       z    vdW   Elec        q     RMS 
ATOM      1  C   UNL d   1      -9.384  10.258 -10.470 -0.10 +0.01    +0.064    29.255
ATOM      2  C   UNL d   1      -5.220   8.069 -11.165 -0.27 -0.01    +0.064    29.255
ATOM      3  C   UNL d   1      -4.833  10.093 -15.475 -0.11 -0.02    +0.064    29.255
ATOM      4  C   UNL d   1      -8.890  12.639 -14.630 -0.06 +0.00    +0.064    29.255
ATOM      5  C   UNL d   1      -8.292   9.483 -10.358 -0.14 +0.01    +0.066    29.255
ATOM      6  C   UNL d   1      -8.002   8.765  -9.181 -0.21 -0.00    -0.021    29.255
ATOM      7  C   UNL d   1      -6.782   8.150  -9.380 -0.29 -0.00    -0.025    29.255
ATOM      8  C   UNL d   1      -6.387   8.505 -10.674 -0.24 -0.00    +0.066    29.255
ATOM      9  C   UNL d   1      -6.004   7.261  -8.398 -0.26 +0.00    +0.051    29.255
ATOM     10  C   UNL d   1      -4.744   8.360 -12.494 -0.13 -0.02    +0.066    29.255
ATOM     11  C   UNL d   1      -3.597   7.819 -13.116 -0.43 +0.00    -0.021    29.255
ATOM     12  C   UNL d   1      -3.511   8.424 -14.374 -0.42 -0.00    +0.000    29.255
ATOM     13  C   UNL d   1      -4.614   9.276 -14.430 -0.23 -0.02    +0.070    29.255
ATOM     14  C   UNL d   1      -2.714   6.729 -12.567 -0.47 -0.01    +0.052    29.255
ATOM     15  C   UNL d   1      -5.886  11.069 -15.675 -0.06 -0.01    +0.066    29.255
ATOM     16  C   UNL d   1      -5.973  11.985 -16.714 -0.04 +0.01    -0.021    29.255
ATOM     17  C   UNL d   1      -7.140  12.723 -16.473 -0.03 -0.00    +0.000    29.255
ATOM     18  C   UNL d   1      -7.684  12.186 -15.311 -0.04 -0.01    +0.070    29.255
ATOM     19  C   UNL d   1      -4.983  12.120 -17.849 -0.04 -0.02    +0.052    29.255
ATOM     20  C   UNL d   1      -9.391  12.190 -13.454 -0.06 +0.01    +0.066    29.255
ATOM     21  C   UNL d   1     -10.540  12.730 -12.881 -0.06 -0.00    -0.025    29.255
ATOM     22  C   UNL d   1     -10.723  12.043 -11.695 -0.08 -0.01    -0.021    29.255
ATOM     23  C   UNL d   1      -9.661  11.119 -11.596 -0.02 +0.02    +0.066    29.255
ATOM     24  C   UNL d   1     -11.411  13.859 -13.426 -0.04 +0.01    +0.051    29.255
ATOM     25  N   UNL d   1      -7.307   9.325 -11.306 -0.09 -0.00    -0.248    29.255
ATOM     26  N   UNL d   1      -5.389   9.194 -13.316 -0.14 +0.05    -0.248    29.255
ATOM     27  N   UNL d   1      -6.895  11.224 -14.847 -0.03 +0.03    -0.248    29.255
ATOM     28  N   UNL d   1      -8.852  11.206 -12.658 -0.06 -0.04    -0.248    29.255
ATOM     29 FE   UNL d   1      -7.092  10.332 -13.181 -0.03 -0.00    +0.000    29.255
ATOM     30  C   UNL d   1      -8.829   8.747  -7.900 -0.24 +0.01    +0.052    29.255
ATOM     31  C   UNL d   1      -9.964   7.729  -8.007 -0.13 +0.05    +0.115    29.255
ATOM     32  C   UNL d   1      -9.966   6.742  -6.860 -0.18 +0.14    +0.139    29.255
ATOM     33  O   UNL d   1      -9.887   5.546  -7.095 -0.33 -1.21    -0.650    29.255
ATOM     34  O   UNL d   1     -10.003   7.145  -5.568 -0.42 -0.77    -0.776    29.255
ATOM     35  H   UNL d   1     -10.425   7.960  -5.264 +0.06 +0.11    +0.167    29.255
ATOM     36  C   UNL d   1      -6.024  11.805 -12.140 -0.26 -0.01    +0.190    29.255
ATOM     37  O   UNL d   1      -5.337  12.048 -10.946 -0.66 +0.03    -0.399    29.255
ATOM     38  H   UNL d   1      -6.005  12.491 -10.351 -0.46 -0.06    +0.209    29.255
ATOM     39  C   UNL d   1     -11.823  12.310 -10.684 -0.06 +0.01    +0.052    29.255
ATOM     40  C   UNL d   1     -11.495  13.553  -9.840 -0.14 +0.05    +0.115    29.255
ATOM     41  C   UNL d   1     -10.418  13.334  -8.798 -0.21 +0.07    +0.139    29.255
ATOM     42  O   UNL d   1     -10.229  12.208  -8.360 -0.02 -0.21    -0.650    29.255
ATOM     43  O   UNL d   1      -9.600  14.334  -8.402 -0.24 -0.63    -0.776    29.255
ATOM     44  H   UNL d   1      -8.637  14.249  -8.402 -0.40 +0.06    +0.167    29.255
ATOM     45  C   UNL d   1      -2.529   8.281 -15.529 -0.41 -0.00    +0.004    29.255
ATOM     46  C   UNL d   1      -1.287   8.736 -15.671 -0.43 -0.00    +0.012    29.255
ATOM     47  C   UNL d   1      -7.707  13.884 -17.223 -0.03 -0.00    +0.004    29.255
ATOM     48  C   UNL d   1      -7.758  15.124 -16.733 -0.04 -0.00    +0.012    29.255
TER
ENDMDL
MODEL       29
USER    Run = 29
USER    Cluster Rank = 2
USER    Number of conformations in this cluster = 4
USER  
USER    RMSD from reference structure       = 33.060 A
USER  
USER    Estimated Free Energy of Binding    =   -6.27 kcal/mol  [=(1)+(2)+(3)-(4)]
USER    Estimated Inhibition Constant, Ki   =   25.50 uM (micromolar)  [Temperature = 298.15 K]
USER    
USER    (1) Final Intermolecular Energy     =   -9.85 kcal/mol
USER        vdW + Hbond + desolv Energy     =   -9.11 kcal/mol
USER        Electrostatic Energy            =   -0.74 kcal/mol
USER    (2) Final Total Internal Energy     =   -0.73 kcal/mol
USER    (3) Torsional Free Energy           =   +3.58 kcal/mol
USER    (4) Unbound System's Energy  [=(2)] =   -0.73 kcal/mol
USER    
USER    
USER  
USER    DPF = D:/Protein_go_brrr/autodock/final/mut_K82N/heme_Co/dock.dpf
USER    NEWDPF move	heme_Co_opt.pdbqt
USER    NEWDPF about	8.781000 34.984000 -0.736000
USER    NEWDPF tran0	2.440845 4.873891 18.851425
USER    NEWDPF axisangle0	-0.052988 0.561273 0.825933 -118.129321
USER    NEWDPF quaternion0	-0.045450 0.481430 0.708442 -0.514070
USER    NEWDPF dihe0	29.71 105.55 -22.45 -99.29 145.96 166.12 65.29 88.70 71.24 17.87 162.96 -166.24 
USER  
USER                              x       y       z    vdW   Elec        q     RMS 
ATOM      1  C   UNL d   1       2.594   2.926  19.798 -0.27 -0.05    +0.064    33.060
ATOM      2  C   UNL d   1       5.668   6.531  19.392 -0.22 -0.01    +0.064    33.060
ATOM      3  C   UNL d   1       2.586   8.894  16.608 -0.24 -0.03    +0.064    33.060
ATOM      4  C   UNL d   1      -0.720   5.398  17.323 -0.22 -0.02    +0.064    33.060
ATOM      5  C   UNL d   1       3.674   3.721  19.862 -0.29 -0.03    +0.066    33.060
ATOM      6  C   UNL d   1       4.791   3.403  20.660 -0.32 +0.01    -0.021    33.060
ATOM      7  C   UNL d   1       5.670   4.463  20.556 -0.29 +0.00    -0.025    33.060
ATOM      8  C   UNL d   1       5.060   5.375  19.688 -0.25 -0.02    +0.066    33.060
ATOM      9  C   UNL d   1       7.035   4.626  21.242 -0.27 +0.01    +0.051    33.060
ATOM     10  C   UNL d   1       5.130   7.518  18.489 -0.19 -0.02    +0.066    33.060
ATOM     11  C   UNL d   1       5.779   8.684  18.030 -0.16 +0.01    -0.021    33.060
ATOM     12  C   UNL d   1       4.860   9.352  17.216 -0.21 -0.00    +0.000    33.060
ATOM     13  C   UNL d   1       3.725   8.540  17.230 -0.22 -0.03    +0.070    33.060
ATOM     14  C   UNL d   1       7.215   9.065  18.285 -0.11 -0.01    +0.052    33.060
ATOM     15  C   UNL d   1       1.311   8.205  16.562 -0.23 -0.03    +0.066    33.060
ATOM     16  C   UNL d   1       0.131   8.695  16.022 -0.21 +0.01    -0.021    33.060
ATOM     17  C   UNL d   1      -0.827   7.691  16.228 -0.17 -0.00    +0.000    33.060
ATOM     18  C   UNL d   1      -0.147   6.658  16.865 -0.22 -0.03    +0.070    33.060
ATOM     19  C   UNL d   1      -0.038  10.044  15.359 -0.20 -0.05    +0.052    33.060
ATOM     20  C   UNL d   1      -0.100   4.416  18.020 -0.25 -0.02    +0.066    33.060
ATOM     21  C   UNL d   1      -0.766   3.265  18.436 -0.21 +0.01    -0.025    33.060
ATOM     22  C   UNL d   1       0.171   2.520  19.127 -0.23 +0.01    -0.021    33.060
ATOM     23  C   UNL d   1       1.370   3.265  19.109 -0.29 -0.04    +0.066    33.060
ATOM     24  C   UNL d   1      -2.231   2.901  18.204 -0.29 -0.01    +0.051    33.060
ATOM     25  N   UNL d   1       3.825   4.939  19.238 -0.16 +0.12    -0.248    33.060
ATOM     26  N   UNL d   1       3.909   7.404  17.954 -0.14 +0.11    -0.248    33.060
ATOM     27  N   UNL d   1       1.116   7.011  17.074 -0.11 +0.12    -0.248    33.060
ATOM     28  N   UNL d   1       1.209   4.414  18.441 -0.07 +0.13    -0.248    33.060
ATOM     29 FE   UNL d   1       2.388   6.033  18.092 -0.04 -0.00    +0.000    33.060
ATOM     30  C   UNL d   1       4.957   2.169  21.541 -0.36 -0.02    +0.052    33.060
ATOM     31  C   UNL d   1       4.978   2.564  23.018 -0.16 -0.02    +0.115    33.060
ATOM     32  C   UNL d   1       6.342   2.374  23.646 -0.17 +0.03    +0.139    33.060
ATOM     33  O   UNL d   1       6.812   1.250  23.735 -0.02 -0.16    -0.650    33.060
ATOM     34  O   UNL d   1       7.087   3.420  24.073 -0.00 -0.35    -0.776    33.060
ATOM     35  H   UNL d   1       6.721   4.273  24.346 +0.03 +0.06    +0.167    33.060
ATOM     36  C   UNL d   1       1.774   6.899  19.900 -0.06 -0.05    +0.190    33.060
ATOM     37  O   UNL d   1       2.128   7.039  21.245 +0.00 +0.07    -0.399    33.060
ATOM     38  H   UNL d   1       2.910   6.431  21.369 +0.03 -0.04    +0.209    33.060
ATOM     39  C   UNL d   1      -0.094   1.197  19.821 -0.19 -0.04    +0.052    33.060
ATOM     40  C   UNL d   1      -1.080   1.383  20.985 -0.19 -0.03    +0.115    33.060
ATOM     41  C   UNL d   1      -1.182   0.192  21.914 -0.17 +0.00    +0.139    33.060
ATOM     42  O   UNL d   1      -2.286  -0.214  22.248 -0.05 -0.14    -0.650    33.060
ATOM     43  O   UNL d   1      -0.087  -0.490  22.317 -0.53 +0.06    -0.776    33.060
ATOM     44  H   UNL d   1       0.767  -0.410  21.874 -0.38 -0.24    +0.167    33.060
ATOM     45  C   UNL d   1       4.928  10.647  16.418 -0.12 -0.00    +0.004    33.060
ATOM     46  C   UNL d   1       4.356  11.828  16.632 -0.11 -0.00    +0.012    33.060
ATOM     47  C   UNL d   1      -2.287   7.686  15.913 -0.24 -0.00    +0.004    33.060
ATOM     48  C   UNL d   1      -2.874   6.755  15.158 -0.35 -0.01    +0.012    33.060
TER
ENDMDL
MODEL       51
USER    Run = 51
USER    Cluster Rank = 3
USER    Number of conformations in this cluster = 5
USER  
USER    RMSD from reference structure       = 32.920 A
USER  
USER    Estimated Free Energy of Binding    =   -6.11 kcal/mol  [=(1)+(2)+(3)-(4)]
USER    Estimated Inhibition Constant, Ki   =   33.35 uM (micromolar)  [Temperature = 298.15 K]
USER    
USER    (1) Final Intermolecular Energy     =   -9.69 kcal/mol
USER        vdW + Hbond + desolv Energy     =   -6.96 kcal/mol
USER        Electrostatic Energy            =   -2.72 kcal/mol
USER    (2) Final Total Internal Energy     =   -2.17 kcal/mol
USER    (3) Torsional Free Energy           =   +3.58 kcal/mol
USER    (4) Unbound System's Energy  [=(2)] =   -2.17 kcal/mol
USER    
USER    
USER  
USER    DPF = D:/Protein_go_brrr/autodock/final/mut_K82N/heme_Co/dock.dpf
USER    NEWDPF move	heme_Co_opt.pdbqt
USER    NEWDPF about	8.781000 34.984000 -0.736000
USER    NEWDPF tran0	-8.595896 7.229230 -13.002019
USER    NEWDPF axisangle0	-0.641137 0.620089 0.452143 -113.650093
USER    NEWDPF quaternion0	-0.536634 0.519017 0.378445 -0.547197
USER    NEWDPF dihe0	-132.47 109.31 -47.98 97.85 85.39 132.09 84.71 18.19 63.83 -22.86 -7.11 -10.03 
USER  
USER                              x       y       z    vdW   Elec        q     RMS 
ATOM      1  C   UNL d   1      -9.556   6.741 -11.117 -0.10 +0.01    +0.064    32.920
ATOM      2  C   UNL d   1      -6.148   9.856 -12.254 -0.26 -0.01    +0.064    32.920
ATOM      3  C   UNL d   1      -6.092   8.213 -16.740 -0.16 -0.01    +0.064    32.920
ATOM      4  C   UNL d   1      -9.839   5.289 -15.703 -0.23 +0.01    +0.064    32.920
ATOM      5  C   UNL d   1      -8.604   7.688 -11.089 -0.10 +0.01    +0.066    32.920
ATOM      6  C   UNL d   1      -8.360   8.469  -9.942 -0.14 -0.00    -0.021    32.920
ATOM      7  C   UNL d   1      -7.386   9.386 -10.284 -0.23 -0.00    -0.025    32.920
ATOM      8  C   UNL d   1      -7.066   9.116 -11.619 -0.17 -0.00    +0.066    32.920
ATOM      9  C   UNL d   1      -6.770  10.481  -9.401 -0.18 -0.00    +0.051    32.920
ATOM     10  C   UNL d   1      -5.736   9.636 -13.618 -0.18 -0.01    +0.066    32.920
ATOM     11  C   UNL d   1      -4.681  10.285 -14.296 -0.23 +0.01    -0.021    32.920
ATOM     12  C   UNL d   1      -4.684   9.784 -15.600 -0.14 -0.00    +0.000    32.920
ATOM     13  C   UNL d   1      -5.729   8.860 -15.618 -0.14 -0.01    +0.070    32.920
ATOM     14  C   UNL d   1      -3.689  11.245 -13.691 -0.39 -0.02    +0.052    32.920
ATOM     15  C   UNL d   1      -7.173   7.270 -16.950 -0.14 -0.01    +0.066    32.920
ATOM     16  C   UNL d   1      -7.585   6.747 -18.168 -0.13 +0.00    -0.021    32.920
ATOM     17  C   UNL d   1      -8.667   5.906 -17.874 -0.22 -0.00    +0.000    32.920
ATOM     18  C   UNL d   1      -8.819   5.968 -16.493 -0.23 +0.00    +0.070    32.920
ATOM     19  C   UNL d   1      -6.961   7.057 -19.511 -0.14 -0.01    +0.052    32.920
ATOM     20  C   UNL d   1     -10.060   5.402 -14.371 -0.21 +0.01    +0.066    32.920
ATOM     21  C   UNL d   1     -11.096   4.726 -13.730 -0.18 -0.01    -0.025    32.920
ATOM     22  C   UNL d   1     -11.021   5.102 -12.402 -0.14 -0.01    -0.021    32.920
ATOM     23  C   UNL d   1      -9.943   6.006 -12.300 -0.14 +0.01    +0.066    32.920
ATOM     24  C   UNL d   1     -12.120   3.782 -14.355 -0.19 +0.03    +0.051    32.920
ATOM     25  N   UNL d   1      -7.801   8.065 -12.141 -0.06 -0.01    -0.248    32.920
ATOM     26  N   UNL d   1      -6.327   8.730 -14.404 -0.08 +0.03    -0.248    32.920
ATOM     27  N   UNL d   1      -7.932   6.813 -15.979 -0.14 +0.02    -0.248    32.920
ATOM     28  N   UNL d   1      -9.360   6.192 -13.490 -0.08 -0.03    -0.248    32.920
ATOM     29 FE   UNL d   1      -7.873   7.399 -14.173 -0.04 -0.00    +0.000    32.920
ATOM     30  C   UNL d   1      -9.094   8.381  -8.608 -0.17 +0.01    +0.052    32.920
ATOM     31  C   UNL d   1      -8.610   7.172  -7.807 -0.07 +0.05    +0.115    32.920
ATOM     32  C   UNL d   1      -9.717   6.173  -7.546 -0.13 +0.14    +0.139    32.920
ATOM     33  O   UNL d   1     -10.811   6.571  -7.177 -0.13 -0.77    -0.650    32.920
ATOM     34  O   UNL d   1      -9.549   4.846  -7.754 -0.38 -1.08    -0.776    32.920
ATOM     35  H   UNL d   1     -10.203   4.275  -8.180 +0.03 +0.26    +0.167    32.920
ATOM     36  C   UNL d   1      -9.250   8.943 -14.512 -0.04 +0.00    +0.190    32.920
ATOM     37  O   UNL d   1     -10.173   9.774 -13.869 -0.00 -0.02    -0.399    32.920
ATOM     38  H   UNL d   1     -10.181   9.463 -12.921 +0.02 +0.02    +0.209    32.920
ATOM     39  C   UNL d   1     -11.978   4.665 -11.308 -0.10 +0.02    +0.052    32.920
ATOM     40  C   UNL d   1     -11.464   3.392 -10.615 -0.08 +0.05    +0.115    32.920
ATOM     41  C   UNL d   1     -11.897   3.248  -9.171 -0.12 +0.12    +0.139    32.920
ATOM     42  O   UNL d   1     -11.935   2.135  -8.666 -0.33 -0.64    -0.650    32.920
ATOM     43  O   UNL d   1     -12.160   4.325  -8.398 +0.02 -1.09    -0.776    32.920
ATOM     44  H   UNL d   1     -11.613   5.120  -8.412 +0.02 +0.21    +0.167    32.920
ATOM     45  C   UNL d   1      -3.814  10.057 -16.820 -0.13 -0.00    +0.004    32.920
ATOM     46  C   UNL d   1      -2.685   9.480 -17.224 -0.16 -0.00    +0.012    32.920
ATOM     47  C   UNL d   1      -9.547   5.127 -18.795 -0.22 +0.00    +0.004    32.920
ATOM     48  C   UNL d   1      -9.107   4.133 -19.571 -0.24 +0.00    +0.012    32.920
TER
ENDMDL
MODEL       82
USER    Run = 82
USER    Cluster Rank = 4
USER    Number of conformations in this cluster = 3
USER  
USER    RMSD from reference structure       = 29.066 A
USER  
USER    Estimated Free Energy of Binding    =   -5.90 kcal/mol  [=(1)+(2)+(3)-(4)]
USER    Estimated Inhibition Constant, Ki   =   47.33 uM (micromolar)  [Temperature = 298.15 K]
USER    
USER    (1) Final Intermolecular Energy     =   -9.48 kcal/mol
USER        vdW + Hbond + desolv Energy     =   -6.40 kcal/mol
USER        Electrostatic Energy            =   -3.08 kcal/mol
USER    (2) Final Total Internal Energy     =   -0.87 kcal/mol
USER    (3) Torsional Free Energy           =   +3.58 kcal/mol
USER    (4) Unbound System's Energy  [=(2)] =   -0.87 kcal/mol
USER    
USER    
USER  
USER    DPF = D:/Protein_go_brrr/autodock/final/mut_K82N/heme_Co/dock.dpf
USER    NEWDPF move	heme_Co_opt.pdbqt
USER    NEWDPF about	8.781000 34.984000 -0.736000
USER    NEWDPF tran0	-9.053432 11.364025 -11.251641
USER    NEWDPF axisangle0	-0.948321 0.135903 0.286736 -179.636140
USER    NEWDPF quaternion0	-0.948316 0.135902 0.286734 -0.003175
USER    NEWDPF dihe0	-145.31 116.76 20.36 116.26 37.19 152.96 47.14 -91.00 163.12 -61.42 15.89 168.22 
USER  
USER                              x       y       z    vdW   Elec        q     RMS 
ATOM      1  C   UNL d   1     -10.267  11.307  -9.452 -0.12 +0.02    +0.064    29.066
ATOM      2  C   UNL d   1     -10.599  13.860 -13.449 -0.06 +0.01    +0.064    29.066
ATOM      3  C   UNL d   1      -6.476  12.019 -15.012 -0.09 -0.01    +0.064    29.066
ATOM      4  C   UNL d   1      -6.311   9.114 -11.114 -0.24 -0.01    +0.064    29.066
ATOM      5  C   UNL d   1     -10.642  12.167 -10.413 -0.09 +0.02    +0.066    29.066
ATOM      6  C   UNL d   1     -11.863  12.867 -10.355 -0.08 -0.01    -0.021    29.066
ATOM      7  C   UNL d   1     -11.964  13.589 -11.528 -0.06 -0.01    -0.025    29.066
ATOM      8  C   UNL d   1     -10.795  13.312 -12.244 -0.04 +0.02    +0.066    29.066
ATOM      9  C   UNL d   1     -13.113  14.508 -11.972 -0.02 +0.01    +0.051    29.066
ATOM     10  C   UNL d   1      -9.416  13.654 -14.247 -0.05 +0.01    +0.066    29.066
ATOM     11  C   UNL d   1      -9.087  14.310 -15.454 -0.05 +0.00    -0.021    29.066
ATOM     12  C   UNL d   1      -7.879  13.756 -15.886 -0.06 -0.00    +0.000    29.066
ATOM     13  C   UNL d   1      -7.554  12.817 -14.907 -0.08 -0.01    +0.070    29.066
ATOM     14  C   UNL d   1      -9.843  15.452 -16.083 -0.02 -0.00    +0.052    29.066
ATOM     15  C   UNL d   1      -6.022  10.965 -14.127 -0.14 -0.01    +0.066    29.066
ATOM     16  C   UNL d   1      -4.981  10.079 -14.367 -0.20 +0.00    -0.021    29.066
ATOM     17  C   UNL d   1      -4.931   9.238 -13.247 -0.24 -0.00    +0.000    29.066
ATOM     18  C   UNL d   1      -5.939   9.689 -12.400 -0.21 -0.01    +0.070    29.066
ATOM     19  C   UNL d   1      -4.109  10.066 -15.603 -0.18 -0.02    +0.052    29.066
ATOM     20  C   UNL d   1      -7.341   9.480 -10.314 -0.22 +0.00    +0.066    29.066
ATOM     21  C   UNL d   1      -7.621   8.827  -9.116 -0.25 -0.00    -0.025    29.066
ATOM     22  C   UNL d   1      -8.739   9.457  -8.600 -0.20 -0.00    -0.021    29.066
ATOM     23  C   UNL d   1      -9.096  10.463  -9.523 -0.15 +0.01    +0.066    29.066
ATOM     24  C   UNL d   1      -6.873   7.647  -8.502 -0.26 +0.00    +0.051    29.066
ATOM     25  N   UNL d   1      -9.955  12.438 -11.574 +0.10 -0.10    -0.248    29.066
ATOM     26  N   UNL d   1      -8.455  12.796 -13.889 -0.06 -0.02    -0.248    29.066
ATOM     27  N   UNL d   1      -6.587  10.699 -12.970 -0.11 +0.02    -0.248    29.066
ATOM     28  N   UNL d   1      -8.254  10.479 -10.563 -0.10 -0.05    -0.248    29.066
ATOM     29 FE   UNL d   1      -8.171  11.515 -12.310 -0.04 +0.00    +0.000    29.066
ATOM     30  C   UNL d   1     -12.913  12.774  -9.253 -0.04 +0.01    +0.052    29.066
ATOM     31  C   UNL d   1     -12.793  13.958  -8.295 -0.09 +0.05    +0.115    29.066
ATOM     32  C   UNL d   1     -11.447  14.643  -8.388 -0.19 +0.13    +0.139    29.066
ATOM     33  O   UNL d   1     -10.494  14.182  -7.778 -0.20 -0.61    -0.650    29.066
ATOM     34  O   UNL d   1     -11.248  15.730  -9.169 -0.13 -1.06    -0.776    29.066
ATOM     35  H   UNL d   1     -10.407  15.947  -9.596 -0.24 +0.22    +0.167    29.066
ATOM     36  C   UNL d   1      -9.416  10.104 -13.233 -0.04 +0.01    +0.190    29.066
ATOM     37  O   UNL d   1     -10.756   9.734 -13.391 -0.00 -0.03    -0.399    29.066
ATOM     38  H   UNL d   1     -11.274  10.438 -12.910 +0.01 +0.02    +0.209    29.066
ATOM     39  C   UNL d   1      -9.459   9.065  -7.324 -0.23 +0.02    +0.052    29.066
ATOM     40  C   UNL d   1     -10.566   8.039  -7.618 -0.11 +0.05    +0.115    29.066
ATOM     41  C   UNL d   1     -10.314   6.664  -7.037 -0.11 +0.15    +0.139    29.066
ATOM     42  O   UNL d   1      -9.955   6.563  -5.872 -0.42 -0.83    -0.650    29.066
ATOM     43  O   UNL d   1     -10.560   5.538  -7.743 -0.20 -1.23    -0.776    29.066
ATOM     44  H   UNL d   1     -10.535   5.516  -8.709 +0.03 +0.15    +0.167    29.066
ATOM     45  C   UNL d   1      -6.989  14.019 -17.093 -0.05 -0.00    +0.004    29.066
ATOM     46  C   UNL d   1      -5.804  14.617 -17.182 -0.09 -0.01    +0.012    29.066
ATOM     47  C   UNL d   1      -4.054   8.059 -12.977 -0.46 -0.00    +0.004    29.066
ATOM     48  C   UNL d   1      -2.944   7.793 -13.669 -0.53 -0.00    +0.012    29.066
TER
ENDMDL
MODEL       99
USER    Run = 99
USER    Cluster Rank = 5
USER    Number of conformations in this cluster = 2
USER  
USER    RMSD from reference structure       = 31.901 A
USER  
USER    Estimated Free Energy of Binding    =   -5.76 kcal/mol  [=(1)+(2)+(3)-(4)]
USER    Estimated Inhibition Constant, Ki   =   59.75 uM (micromolar)  [Temperature = 298.15 K]
USER    
USER    (1) Final Intermolecular Energy     =   -9.34 kcal/mol
USER        vdW + Hbond + desolv Energy     =   -8.45 kcal/mol
USER        Electrostatic Energy            =   -0.89 kcal/mol
USER    (2) Final Total Internal Energy     =   -0.62 kcal/mol
USER    (3) Torsional Free Energy           =   +3.58 kcal/mol
USER    (4) Unbound System's Energy  [=(2)] =   -0.62 kcal/mol
USER    
USER    
USER  
USER    DPF = D:/Protein_go_brrr/autodock/final/mut_K82N/heme_Co/dock.dpf
USER    NEWDPF move	heme_Co_opt.pdbqt
USER    NEWDPF about	8.781000 34.984000 -0.736000
USER    NEWDPF tran0	3.656857 6.177980 18.780236
USER    NEWDPF axisangle0	-0.207284 0.657922 0.723997 156.974691
USER    NEWDPF quaternion0	-0.203113 0.644685 0.709431 0.199584
USER    NEWDPF dihe0	-52.92 106.48 -58.11 135.57 -65.03 152.50 69.54 -111.59 88.18 27.05 43.97 -159.74 
USER  
USER                              x       y       z    vdW   Elec        q     RMS 
ATOM      1  C   UNL d   1       5.752   6.480  19.264 -0.21 -0.01    +0.064    31.901
ATOM      2  C   UNL d   1       2.603   9.144  16.898 -0.21 -0.02    +0.064    31.901
ATOM      3  C   UNL d   1      -0.658   5.670  17.250 -0.21 -0.02    +0.064    31.901
ATOM      4  C   UNL d   1       2.412   3.086  20.001 -0.24 -0.05    +0.064    31.901
ATOM      5  C   UNL d   1       5.143   7.448  18.560 -0.19 -0.02    +0.066    31.901
ATOM      6  C   UNL d   1       5.762   8.687  18.303 -0.13 +0.01    -0.021    31.901
ATOM      7  C   UNL d   1       4.836   9.465  17.636 -0.15 +0.01    -0.025    31.901
ATOM      8  C   UNL d   1       3.698   8.662  17.500 -0.19 -0.02    +0.066    31.901
ATOM      9  C   UNL d   1       5.000  10.909  17.140 -0.13 -0.01    +0.051    31.901
ATOM     10  C   UNL d   1       1.396   8.384  16.689 -0.22 -0.03    +0.066    31.901
ATOM     11  C   UNL d   1       0.266   8.784  15.943 -0.21 +0.01    -0.021    31.901
ATOM     12  C   UNL d   1      -0.667   7.750  16.059 -0.15 -0.00    +0.000    31.901
ATOM     13  C   UNL d   1      -0.035   6.794  16.855 -0.22 -0.03    +0.070    31.901
ATOM     14  C   UNL d   1       0.146  10.030  15.104 -0.14 -0.05    +0.052    31.901
ATOM     15  C   UNL d   1      -0.176   4.606  18.110 -0.22 -0.02    +0.066    31.901
ATOM     16  C   UNL d   1      -0.921   3.542  18.598 -0.22 +0.01    -0.021    31.901
ATOM     17  C   UNL d   1      -0.041   2.795  19.394 -0.26 -0.00    +0.000    31.901
ATOM     18  C   UNL d   1       1.180   3.456  19.315 -0.27 -0.04    +0.070    31.901
ATOM     19  C   UNL d   1      -2.382   3.285  18.303 -0.25 -0.01    +0.052    31.901
ATOM     20  C   UNL d   1       3.586   3.760  20.009 -0.29 -0.03    +0.066    31.901
ATOM     21  C   UNL d   1       4.690   3.323  20.737 -0.31 +0.01    -0.025    31.901
ATOM     22  C   UNL d   1       5.678   4.266  20.520 -0.30 +0.00    -0.021    31.901
ATOM     23  C   UNL d   1       5.119   5.247  19.673 -0.25 -0.02    +0.066    31.901
ATOM     24  C   UNL d   1       4.794   2.078  21.614 -0.30 -0.02    +0.051    31.901
ATOM     25  N   UNL d   1       3.862   7.406  18.058 -0.14 +0.11    -0.248    31.901
ATOM     26  N   UNL d   1       1.233   7.154  17.188 -0.12 +0.12    -0.248    31.901
ATOM     27  N   UNL d   1       1.055   4.546  18.566 -0.13 +0.12    -0.248    31.901
ATOM     28  N   UNL d   1       3.852   4.945  19.363 -0.16 +0.11    -0.248    31.901
ATOM     29 FE   UNL d   1       2.378   5.889  18.329 -0.03 -0.00    +0.000    31.901
ATOM     30  C   UNL d   1       7.153   9.121  18.756 -0.07 -0.01    +0.052    31.901
ATOM     31  C   UNL d   1       7.965   9.643  17.571 -0.11 -0.02    +0.115    31.901
ATOM     32  C   UNL d   1       8.822   8.567  16.939 -0.15 -0.02    +0.139    31.901
ATOM     33  O   UNL d   1       9.672   8.004  17.612 +0.04 +0.03    -0.650    31.901
ATOM     34  O   UNL d   1       8.645   8.170  15.658 -0.08 +0.12    -0.776    31.901
ATOM     35  H   UNL d   1       7.813   7.827  15.304 -0.46 -0.07    +0.167    31.901
ATOM     36  C   UNL d   1       1.797   6.924  20.057 -0.05 -0.05    +0.190    31.901
ATOM     37  O   UNL d   1       2.109   8.034  20.849 +0.00 +0.07    -0.399    31.901
ATOM     38  H   UNL d   1       2.958   8.393  20.465 +0.02 -0.04    +0.209    31.901
ATOM     39  C   UNL d   1       7.059   4.255  21.148 -0.25 +0.01    +0.052    31.901
ATOM     40  C   UNL d   1       6.957   4.268  22.683 -0.18 +0.03    +0.115    31.901
ATOM     41  C   UNL d   1       8.203   4.764  23.387 -0.06 +0.09    +0.139    31.901
ATOM     42  O   UNL d   1       8.952   5.537  22.806 -0.03 -0.37    -0.650    31.901
ATOM     43  O   UNL d   1       8.467   4.444  24.673 -0.15 -0.87    -0.776    31.901
ATOM     44  H   UNL d   1       7.824   4.573  25.383 +0.01 +0.12    +0.167    31.901
ATOM     45  C   UNL d   1      -2.069   7.549  15.497 -0.26 -0.00    +0.004    31.901
ATOM     46  C   UNL d   1      -2.587   6.538  14.804 -0.37 -0.01    +0.012    31.901
ATOM     47  C   UNL d   1      -0.301   1.580  20.222 -0.24 -0.00    +0.004    31.901
ATOM     48  C   UNL d   1      -0.737   1.626  21.483 -0.18 -0.00    +0.012    31.901
TER
ENDMDL
MODEL       94
USER    Run = 94
USER    Cluster Rank = 6
USER    Number of conformations in this cluster = 1
USER  
USER    RMSD from reference structure       = 33.415 A
USER  
USER    Estimated Free Energy of Binding    =   -5.46 kcal/mol  [=(1)+(2)+(3)-(4)]
USER    Estimated Inhibition Constant, Ki   =   98.78 uM (micromolar)  [Temperature = 298.15 K]
USER    
USER    (1) Final Intermolecular Energy     =   -9.04 kcal/mol
USER        vdW + Hbond + desolv Energy     =   -6.55 kcal/mol
USER        Electrostatic Energy            =   -2.49 kcal/mol
USER    (2) Final Total Internal Energy     =   -0.59 kcal/mol
USER    (3) Torsional Free Energy           =   +3.58 kcal/mol
USER    (4) Unbound System's Energy  [=(2)] =   -0.59 kcal/mol
USER    
USER    
USER  
USER    DPF = D:/Protein_go_brrr/autodock/final/mut_K82N/heme_Co/dock.dpf
USER    NEWDPF move	heme_Co_opt.pdbqt
USER    NEWDPF about	8.781000 34.984000 -0.736000
USER    NEWDPF tran0	-11.371903 6.037639 -9.408919
USER    NEWDPF axisangle0	-0.870086 -0.239448 0.430830 -74.954246
USER    NEWDPF quaternion0	-0.529399 -0.145691 0.262136 -0.793596
USER    NEWDPF dihe0	31.93 111.79 -166.86 -18.91 -22.50 93.80 43.07 -82.28 -174.80 70.99 6.39 -137.06 
USER  
USER                              x       y       z    vdW   Elec        q     RMS 
ATOM      1  C   UNL d   1     -12.657   4.435 -10.114 -0.06 +0.03    +0.064    33.415
ATOM      2  C   UNL d   1     -12.828   7.203  -6.251 -0.08 +0.05    +0.064    33.415
ATOM      3  C   UNL d   1      -8.645   9.183  -7.438 -0.23 +0.01    +0.064    33.415
ATOM      4  C   UNL d   1      -8.636   6.645 -11.588 -0.06 +0.01    +0.064    33.415
ATOM      5  C   UNL d   1     -12.993   5.020  -8.953 -0.05 +0.05    +0.066    33.415
ATOM      6  C   UNL d   1     -14.216   4.751  -8.307 -0.05 -0.01    -0.021    33.415
ATOM      7  C   UNL d   1     -14.271   5.574  -7.199 -0.05 -0.02    -0.025    33.415
ATOM      8  C   UNL d   1     -13.073   6.297  -7.207 -0.02 +0.07    +0.066    33.415
ATOM      9  C   UNL d   1     -15.400   5.687  -6.164 -0.04 +0.03    +0.051    33.415
ATOM     10  C   UNL d   1     -11.614   7.975  -6.163 -0.12 +0.04    +0.066    33.415
ATOM     11  C   UNL d   1     -11.237   8.837  -5.110 -0.18 -0.01    -0.021    33.415
ATOM     12  C   UNL d   1     -10.012   9.398  -5.480 -0.30 +0.00    +0.000    33.415
ATOM     13  C   UNL d   1      -9.726   8.829  -6.722 -0.17 +0.03    +0.070    33.415
ATOM     14  C   UNL d   1     -11.968   9.024  -3.805 -0.19 +0.02    +0.052    33.415
ATOM     15  C   UNL d   1      -8.227   8.738  -8.753 -0.20 +0.01    +0.066    33.415
ATOM     16  C   UNL d   1      -7.176   9.251  -9.500 -0.29 -0.00    -0.021    33.415
ATOM     17  C   UNL d   1      -7.171   8.524 -10.699 -0.21 +0.00    +0.000    33.415
ATOM     18  C   UNL d   1      -8.212   7.610 -10.581 -0.12 +0.01    +0.070    33.415
ATOM     19  C   UNL d   1      -6.255  10.370  -9.065 -0.19 -0.00    +0.052    33.415
ATOM     20  C   UNL d   1      -9.698   5.806 -11.531 -0.15 +0.01    +0.066    33.415
ATOM     21  C   UNL d   1     -10.026   4.949 -12.579 -0.21 -0.01    -0.025    33.415
ATOM     22  C   UNL d   1     -11.164   4.279 -12.171 -0.14 -0.01    -0.021    33.415
ATOM     23  C   UNL d   1     -11.484   4.772 -10.888 -0.10 +0.03    +0.066    33.415
ATOM     24  C   UNL d   1      -9.302   4.791 -13.914 -0.24 +0.01    +0.051    33.415
ATOM     25  N   UNL d   1     -12.260   5.970  -8.279 -0.05 -0.23    -0.248    33.415
ATOM     26  N   UNL d   1     -10.668   7.927  -7.107 -0.08 -0.14    -0.248    33.415
ATOM     27  N   UNL d   1      -8.838   7.786  -9.422 -0.06 -0.05    -0.248    33.415
ATOM     28  N   UNL d   1     -10.600   5.699 -10.498 -0.05 -0.09    -0.248    33.415
ATOM     29 FE   UNL d   1     -10.447   6.930  -8.887 -0.02 +0.00    +0.000    33.415
ATOM     30  C   UNL d   1     -15.310   3.804  -8.789 -0.02 +0.02    +0.052    33.415
ATOM     31  C   UNL d   1     -15.090   2.400  -8.227 -0.03 +0.05    +0.115    33.415
ATOM     32  C   UNL d   1     -13.907   2.333  -7.286 -0.04 +0.14    +0.139    33.415
ATOM     33  O   UNL d   1     -12.788   2.142  -7.740 -0.56 -0.91    -0.650    33.415
ATOM     34  O   UNL d   1     -14.038   2.527  -5.953 -0.04 -0.90    -0.776    33.415
ATOM     35  H   UNL d   1     -14.844   2.340  -5.453 +0.01 +0.11    +0.167    33.415
ATOM     36  C   UNL d   1     -11.654   8.358  -9.835 -0.00 +0.05    +0.190    33.415
ATOM     37  O   UNL d   1     -12.624   8.514 -10.830 +0.01 -0.07    -0.399    33.415
ATOM     38  H   UNL d   1     -12.748   7.600 -11.212 +0.01 +0.04    +0.209    33.415
ATOM     39  C   UNL d   1     -11.935   3.268 -12.999 -0.11 +0.03    +0.052    33.415
ATOM     40  C   UNL d   1     -11.923   3.663 -14.486 -0.17 +0.08    +0.115    33.415
ATOM     41  C   UNL d   1     -13.283   4.022 -15.047 -0.11 +0.10    +0.139    33.415
ATOM     42  O   UNL d   1     -13.939   4.903 -14.509 +0.01 -0.24    -0.650    33.415
ATOM     43  O   UNL d   1     -13.756   3.457 -16.180 -0.53 -0.93    -0.776    33.415
ATOM     44  H   UNL d   1     -14.468   3.851 -16.699 +0.01 +0.12    +0.167    33.415
ATOM     45  C   UNL d   1      -9.074  10.386  -4.800 -0.24 +0.00    +0.004    33.415
ATOM     46  C   UNL d   1      -9.325  11.352  -3.919 -0.53 +0.00    +0.012    33.415
ATOM     47  C   UNL d   1      -6.306   8.681 -11.906 -0.26 -0.00    +0.004    33.415
ATOM     48  C   UNL d   1      -6.007   9.863 -12.451 -0.29 -0.00    +0.012    33.415
TER
ENDMDL
MODEL       76
USER    Run = 76
USER    Cluster Rank = 7
USER    Number of conformations in this cluster = 5
USER  
USER    RMSD from reference structure       = 29.792 A
USER  
USER    Estimated Free Energy of Binding    =   -5.44 kcal/mol  [=(1)+(2)+(3)-(4)]
USER    Estimated Inhibition Constant, Ki   =  103.14 uM (micromolar)  [Temperature = 298.15 K]
USER    
USER    (1) Final Intermolecular Energy     =   -9.02 kcal/mol
USER        vdW + Hbond + desolv Energy     =   -6.11 kcal/mol
USER        Electrostatic Energy            =   -2.91 kcal/mol
USER    (2) Final Total Internal Energy     =   -1.69 kcal/mol
USER    (3) Torsional Free Energy           =   +3.58 kcal/mol
USER    (4) Unbound System's Energy  [=(2)] =   -1.69 kcal/mol
USER    
USER    
USER  
USER    DPF = D:/Protein_go_brrr/autodock/final/mut_K82N/heme_Co/dock.dpf
USER    NEWDPF move	heme_Co_opt.pdbqt
USER    NEWDPF about	8.781000 34.984000 -0.736000
USER    NEWDPF tran0	-12.384432 10.454125 -1.465956
USER    NEWDPF axisangle0	0.352070 0.547317 -0.759270 100.275072
USER    NEWDPF quaternion0	0.270244 0.420112 -0.582804 0.640947
USER    NEWDPF dihe0	-12.79 117.78 -54.50 115.92 -78.95 152.18 -156.93 -139.94 10.59 61.49 178.17 132.94 
USER  
USER                              x       y       z    vdW   Elec        q     RMS 
ATOM      1  C   UNL d   1     -11.856   8.778  -2.742 -0.23 +0.02    +0.064    29.792
ATOM      2  C   UNL d   1     -13.701   9.005   1.635 -0.15 +0.01    +0.064    29.792
ATOM      3  C   UNL d   1     -13.230  13.760   1.628 -0.11 +0.01    +0.064    29.792
ATOM      4  C   UNL d   1     -11.703  13.588  -2.988 -0.12 +0.02    +0.064    29.792
ATOM      5  C   UNL d   1     -12.361   8.488  -1.531 -0.20 +0.01    +0.066    29.792
ATOM      6  C   UNL d   1     -12.714   7.174  -1.164 -0.24 -0.00    -0.021    29.792
ATOM      7  C   UNL d   1     -13.269   7.249   0.098 -0.19 -0.00    -0.025    29.792
ATOM      8  C   UNL d   1     -13.218   8.601   0.453 -0.16 +0.01    +0.066    29.792
ATOM      9  C   UNL d   1     -13.833   6.101   0.949 -0.16 +0.01    +0.051    29.792
ATOM     10  C   UNL d   1     -13.667  10.370   2.097 -0.10 +0.01    +0.066    29.792
ATOM     11  C   UNL d   1     -14.029  10.836   3.380 -0.07 -0.00    -0.021    29.792
ATOM     12  C   UNL d   1     -13.878  12.225   3.352 -0.06 +0.00    +0.000    29.792
ATOM     13  C   UNL d   1     -13.425  12.502   2.062 -0.09 +0.01    +0.070    29.792
ATOM     14  C   UNL d   1     -14.399   9.983   4.567 -0.10 +0.02    +0.052    29.792
ATOM     15  C   UNL d   1     -12.817  14.228   0.319 -0.18 +0.01    +0.066    29.792
ATOM     16  C   UNL d   1     -12.774  15.547  -0.107 -0.20 -0.00    -0.021    29.792
ATOM     17  C   UNL d   1     -12.337  15.503  -1.438 -0.27 +0.00    +0.000    29.792
ATOM     18  C   UNL d   1     -12.130  14.156  -1.715 -0.27 +0.01    +0.070    29.792
ATOM     19  C   UNL d   1     -13.138  16.752   0.732 -0.13 +0.01    +0.052    29.792
ATOM     20  C   UNL d   1     -11.578  12.277  -3.305 -0.25 +0.02    +0.066    29.792
ATOM     21  C   UNL d   1     -11.193  11.854  -4.576 -0.25 -0.01    -0.025    29.792
ATOM     22  C   UNL d   1     -11.201  10.472  -4.526 -0.21 -0.01    -0.021    29.792
ATOM     23  C   UNL d   1     -11.604  10.118  -3.221 -0.21 +0.02    +0.066    29.792
ATOM     24  C   UNL d   1     -10.855  12.722  -5.784 -0.29 +0.02    +0.051    29.792
ATOM     25  N   UNL d   1     -12.654   9.391  -0.535 -0.03 -0.05    -0.248    29.792
ATOM     26  N   UNL d   1     -13.244  11.375   1.323 -0.04 -0.04    -0.248    29.792
ATOM     27  N   UNL d   1     -12.455  13.423  -0.655 -0.11 -0.04    -0.248    29.792
ATOM     28  N   UNL d   1     -11.836  11.208  -2.480 -0.08 -0.05    -0.248    29.792
ATOM     29 FE   UNL d   1     -12.547  11.526  -0.602 -0.04 +0.00    +0.000    29.792
ATOM     30  C   UNL d   1     -12.592   5.924  -2.029 +0.02 +0.03    +0.052    29.792
ATOM     31  C   UNL d   1     -13.931   5.595  -2.689 -0.13 +0.06    +0.115    29.792
ATOM     32  C   UNL d   1     -13.917   4.252  -3.386 -0.05 +0.11    +0.139    29.792
ATOM     33  O   UNL d   1     -13.937   3.228  -2.718 -0.04 -0.36    -0.650    29.792
ATOM     34  O   UNL d   1     -13.931   4.143  -4.735 -0.07 -1.08    -0.776    29.792
ATOM     35  H   UNL d   1     -14.183   4.858  -5.335 +0.00 +0.22    +0.167    29.792
ATOM     36  C   UNL d   1     -14.517  11.491  -1.316 -0.04 +0.02    +0.190    29.792
ATOM     37  O   UNL d   1     -15.551  10.626  -1.690 -0.00 -0.05    -0.399    29.792
ATOM     38  H   UNL d   1     -15.209   9.712  -1.483 +0.02 +0.03    +0.209    29.792
ATOM     39  C   UNL d   1     -10.899   9.548  -5.691 -0.19 +0.02    +0.052    29.792
ATOM     40  C   UNL d   1     -12.049   8.551  -5.905 -0.09 +0.05    +0.115    29.792
ATOM     41  C   UNL d   1     -11.630   7.096  -5.873 -0.09 +0.15    +0.139    29.792
ATOM     42  O   UNL d   1     -10.449   6.818  -5.720 -0.29 -0.78    -0.650    29.792
ATOM     43  O   UNL d   1     -12.535   6.095  -5.921 -0.18 -1.58    -0.776    29.792
ATOM     44  H   UNL d   1     -13.322   6.078  -5.360 +0.01 +0.23    +0.167    29.792
ATOM     45  C   UNL d   1     -14.091  13.314   4.394 -0.03 +0.00    +0.004    29.792
ATOM     46  C   UNL d   1     -13.213  14.049   5.071 -0.04 +0.00    +0.012    29.792
ATOM     47  C   UNL d   1     -12.164  16.612  -2.423 -0.25 +0.00    +0.004    29.792
ATOM     48  C   UNL d   1     -13.050  16.892  -3.382 -0.15 +0.00    +0.012    29.792
TER
ENDMDL
MODEL       78
USER    Run = 78
USER    Cluster Rank = 8
USER    Number of conformations in this cluster = 1
USER  
USER    RMSD from reference structure       = 38.447 A
USER  
USER    Estimated Free Energy of Binding    =   -5.28 kcal/mol  [=(1)+(2)+(3)-(4)]
USER    Estimated Inhibition Constant, Ki   =  133.86 uM (micromolar)  [Temperature = 298.15 K]
USER    
USER    (1) Final Intermolecular Energy     =   -8.86 kcal/mol
USER        vdW + Hbond + desolv Energy     =   -5.00 kcal/mol
USER        Electrostatic Energy            =   -3.86 kcal/mol
USER    (2) Final Total Internal Energy     =   -0.70 kcal/mol
USER    (3) Torsional Free Energy           =   +3.58 kcal/mol
USER    (4) Unbound System's Energy  [=(2)] =   -0.70 kcal/mol
USER    
USER    
USER  
USER    DPF = D:/Protein_go_brrr/autodock/final/mut_K82N/heme_Co/dock.dpf
USER    NEWDPF move	heme_Co_opt.pdbqt
USER    NEWDPF about	8.781000 34.984000 -0.736000
USER    NEWDPF tran0	-13.376616 1.154644 -6.811890
USER    NEWDPF axisangle0	0.532661 -0.709810 0.460915 -125.039276
USER    NEWDPF quaternion0	0.472560 -0.629721 0.408910 -0.461445
USER    NEWDPF dihe0	1.23 117.10 -48.43 65.13 134.04 130.61 81.53 -11.71 49.17 179.61 154.29 -6.46 
USER  
USER                              x       y       z    vdW   Elec        q     RMS 
ATOM      1  C   UNL d   1     -13.450   2.494  -8.520 -0.07 +0.05    +0.064    38.447
ATOM      2  C   UNL d   1     -11.750  -1.915  -7.987 -0.25 +0.01    +0.064    38.447
ATOM      3  C   UNL d   1     -12.702  -1.757  -3.308 -0.07 -0.01    +0.064    38.447
ATOM      4  C   UNL d   1     -14.795   2.595  -3.894 -0.08 +0.03    +0.064    38.447
ATOM      5  C   UNL d   1     -12.882   1.291  -8.712 -0.11 +0.04    +0.066    38.447
ATOM      6  C   UNL d   1     -12.519   0.832  -9.993 -0.12 -0.01    -0.021    38.447
ATOM      7  C   UNL d   1     -12.047  -0.456  -9.835 -0.20 -0.01    -0.025    38.447
ATOM      8  C   UNL d   1     -12.128  -0.722  -8.464 -0.17 +0.02    +0.066    38.447
ATOM      9  C   UNL d   1     -11.538  -1.413 -10.924 -0.28 +0.01    +0.051    38.447
ATOM     10  C   UNL d   1     -11.773  -2.270  -6.590 -0.16 +0.01    +0.066    38.447
ATOM     11  C   UNL d   1     -11.260  -3.451  -6.011 -0.22 -0.00    -0.021    38.447
ATOM     12  C   UNL d   1     -11.548  -3.377  -4.646 -0.16 -0.00    +0.000    38.447
ATOM     13  C   UNL d   1     -12.201  -2.154  -4.491 -0.10 -0.00    +0.070    38.447
ATOM     14  C   UNL d   1     -10.468  -4.520  -6.719 -0.26 +0.00    +0.052    38.447
ATOM     15  C   UNL d   1     -13.446  -0.557  -2.981 -0.06 +0.00    +0.066    38.447
ATOM     16  C   UNL d   1     -14.062  -0.275  -1.769 -0.04 +0.00    -0.021    38.447
ATOM     17  C   UNL d   1     -14.669   0.978  -1.934 -0.05 +0.00    +0.000    38.447
ATOM     18  C   UNL d   1     -14.361   1.371  -3.232 -0.07 +0.02    +0.070    38.447
ATOM     19  C   UNL d   1     -14.052  -1.170  -0.551 -0.05 -0.01    +0.052    38.447
ATOM     20  C   UNL d   1     -14.581   2.957  -5.181 -0.07 +0.06    +0.066    38.447
ATOM     21  C   UNL d   1     -15.081   4.144  -5.713 -0.06 -0.02    -0.025    38.447
ATOM     22  C   UNL d   1     -14.684   4.156  -7.037 -0.06 -0.02    -0.021    38.447
ATOM     23  C   UNL d   1     -13.966   2.960  -7.253 +0.03 +0.08    +0.066    38.447
ATOM     24  C   UNL d   1     -15.913   5.206  -4.999 -0.03 +0.02    +0.051    38.447
ATOM     25  N   UNL d   1     -12.636   0.345  -7.743 -0.08 -0.13    -0.248    38.447
ATOM     26  N   UNL d   1     -12.287  -1.461  -5.657 -0.07 -0.04    -0.248    38.447
ATOM     27  N   UNL d   1     -13.657   0.419  -3.836 -0.05 -0.08    -0.248    38.447
ATOM     28  N   UNL d   1     -13.903   2.231  -6.133 -0.05 -0.28    -0.248    38.447
ATOM     29 FE   UNL d   1     -13.178   0.388  -5.674 -0.02 +0.00    +0.000    38.447
ATOM     30  C   UNL d   1     -12.698   1.578 -11.311 -0.14 +0.02    +0.052    38.447
ATOM     31  C   UNL d   1     -13.563   0.765 -12.274 -0.11 +0.05    +0.115    38.447
ATOM     32  C   UNL d   1     -12.964   0.688 -13.662 -0.10 +0.15    +0.139    38.447
ATOM     33  O   UNL d   1     -12.565   1.709 -14.202 -0.27 -1.02    -0.650    38.447
ATOM     34  O   UNL d   1     -12.810  -0.489 -14.313 -0.39 -1.12    -0.776    38.447
ATOM     35  H   UNL d   1     -13.026  -1.352 -13.934 +0.04 +0.12    +0.167    38.447
ATOM     36  C   UNL d   1     -14.992  -0.494  -6.247 -0.01 +0.04    +0.190    38.447
ATOM     37  O   UNL d   1     -15.863  -0.647  -7.330 +0.00 -0.05    -0.399    38.447
ATOM     38  H   UNL d   1     -15.404  -0.198  -8.094 +0.01 +0.04    +0.209    38.447
ATOM     39  C   UNL d   1     -15.034   5.229  -8.051 -0.02 +0.02    +0.052    38.447
ATOM     40  C   UNL d   1     -13.912   6.276  -8.143 -0.03 +0.07    +0.115    38.447
ATOM     41  C   UNL d   1     -12.803   6.094  -7.128 +0.09 +0.18    +0.139    38.447
ATOM     42  O   UNL d   1     -11.645   6.028  -7.514 +0.03 -0.95    -0.650    38.447
ATOM     43  O   UNL d   1     -13.050   6.091  -5.800 -0.46 -1.29    -0.776    38.447
ATOM     44  H   UNL d   1     -13.660   6.713  -5.383 +0.02 +0.14    +0.167    38.447
ATOM     45  C   UNL d   1     -11.265  -4.307  -3.473 -0.22 -0.00    +0.004    38.447
ATOM     46  C   UNL d   1     -10.117  -4.800  -3.016 -0.37 -0.01    +0.012    38.447
ATOM     47  C   UNL d   1     -15.524   1.756  -0.988 -0.03 +0.00    +0.004    38.447
ATOM     48  C   UNL d   1     -15.146   2.908  -0.430 -0.05 +0.00    +0.012    38.447
TER
ENDMDL
MODEL       60
USER    Run = 60
USER    Cluster Rank = 9
USER    Number of conformations in this cluster = 2
USER  
USER    RMSD from reference structure       = 33.952 A
USER  
USER    Estimated Free Energy of Binding    =   -5.19 kcal/mol  [=(1)+(2)+(3)-(4)]
USER    Estimated Inhibition Constant, Ki   =  155.67 uM (micromolar)  [Temperature = 298.15 K]
USER    
USER    (1) Final Intermolecular Energy     =   -8.77 kcal/mol
USER        vdW + Hbond + desolv Energy     =   -6.71 kcal/mol
USER        Electrostatic Energy            =   -2.06 kcal/mol
USER    (2) Final Total Internal Energy     =   -2.25 kcal/mol
USER    (3) Torsional Free Energy           =   +3.58 kcal/mol
USER    (4) Unbound System's Energy  [=(2)] =   -2.25 kcal/mol
USER    
USER    
USER  
USER    DPF = D:/Protein_go_brrr/autodock/final/mut_K82N/heme_Co/dock.dpf
USER    NEWDPF move	heme_Co_opt.pdbqt
USER    NEWDPF about	8.781000 34.984000 -0.736000
USER    NEWDPF tran0	-8.778616 6.458633 -14.671817
USER    NEWDPF axisangle0	-0.655501 -0.252080 0.711881 -66.281982
USER    NEWDPF quaternion0	-0.358363 -0.137812 0.389186 -0.837328
USER    NEWDPF dihe0	-15.46 98.70 -142.95 -114.98 130.61 122.65 -147.44 -28.43 -3.50 86.61 -172.77 162.98 
USER  
USER                              x       y       z    vdW   Elec        q     RMS 
ATOM      1  C   UNL d   1      -9.897   4.807 -15.531 -0.23 +0.02    +0.064    33.952
ATOM      2  C   UNL d   1      -9.500   6.422 -11.076 -0.14 +0.01    +0.064    33.952
ATOM      3  C   UNL d   1      -6.231   9.610 -12.483 -0.20 -0.01    +0.064    33.952
ATOM      4  C   UNL d   1      -6.901   8.240 -17.102 -0.12 -0.01    +0.064    33.952
ATOM      5  C   UNL d   1     -10.002   4.990 -14.204 -0.24 +0.02    +0.066    33.952
ATOM      6  C   UNL d   1     -10.931   4.276 -13.423 -0.13 -0.01    -0.021    33.952
ATOM      7  C   UNL d   1     -10.828   4.765 -12.135 -0.16 -0.01    -0.025    33.952
ATOM      8  C   UNL d   1      -9.829   5.743 -12.183 -0.15 +0.01    +0.066    33.952
ATOM      9  C   UNL d   1     -11.631   4.337 -10.898 -0.13 +0.02    +0.051    33.952
ATOM     10  C   UNL d   1      -8.468   7.427 -11.023 -0.11 +0.01    +0.066    33.952
ATOM     11  C   UNL d   1      -7.979   8.074  -9.867 -0.16 -0.00    -0.021    33.952
ATOM     12  C   UNL d   1      -7.024   8.995 -10.306 -0.25 +0.00    +0.000    33.952
ATOM     13  C   UNL d   1      -6.992   8.834 -11.691 -0.17 -0.00    +0.070    33.952
ATOM     14  C   UNL d   1      -8.345   7.750  -8.441 -0.22 +0.01    +0.052    33.952
ATOM     15  C   UNL d   1      -6.115   9.616 -13.928 -0.14 -0.01    +0.066    33.952
ATOM     16  C   UNL d   1      -5.420  10.541 -14.695 -0.14 +0.00    -0.021    33.952
ATOM     17  C   UNL d   1      -5.613  10.151 -16.028 -0.08 -0.00    +0.000    33.952
ATOM     18  C   UNL d   1      -6.399   9.005 -15.968 -0.10 -0.01    +0.070    33.952
ATOM     19  C   UNL d   1      -4.633  11.713 -14.154 -0.36 -0.02    +0.052    33.952
ATOM     20  C   UNL d   1      -7.737   7.174 -17.072 -0.16 -0.01    +0.066    33.952
ATOM     21  C   UNL d   1      -8.179   6.543 -18.233 -0.17 +0.00    -0.025    33.952
ATOM     22  C   UNL d   1      -9.022   5.531 -17.810 -0.21 -0.00    -0.021    33.952
ATOM     23  C   UNL d   1      -9.061   5.603 -16.401 -0.23 +0.01    +0.066    33.952
ATOM     24  C   UNL d   1      -7.833   6.899 -19.676 -0.12 -0.01    +0.051    33.952
ATOM     25  N   UNL d   1      -9.296   5.900 -13.451 -0.09 -0.03    -0.248    33.952
ATOM     26  N   UNL d   1      -7.824   7.847 -12.117 +0.04 -0.01    -0.248    33.952
ATOM     27  N   UNL d   1      -6.704   8.733 -14.704 -0.07 +0.02    -0.248    33.952
ATOM     28  N   UNL d   1      -8.287   6.598 -15.951 -0.14 +0.01    -0.248    33.952
ATOM     29 FE   UNL d   1      -7.923   7.399 -14.118 -0.04 +0.00    +0.000    33.952
ATOM     30  C   UNL d   1     -11.926   3.232 -13.920 -0.16 +0.04    +0.052    33.952
ATOM     31  C   UNL d   1     -13.234   3.897 -14.348 -0.11 +0.07    +0.115    33.952
ATOM     32  C   UNL d   1     -14.204   2.916 -14.970 -0.07 +0.14    +0.139    33.952
ATOM     33  O   UNL d   1     -14.914   2.233 -14.247 -0.01 -0.45    -0.650    33.952
ATOM     34  O   UNL d   1     -14.347   2.801 -16.311 -0.36 -1.16    -0.776    33.952
ATOM     35  H   UNL d   1     -14.077   3.478 -16.947 +0.00 +0.18    +0.167    33.952
ATOM     36  C   UNL d   1      -9.580   8.667 -14.318 -0.04 +0.01    +0.190    33.952
ATOM     37  O   UNL d   1     -10.946   8.677 -14.621 -0.00 -0.03    -0.399    33.952
ATOM     38  H   UNL d   1     -11.124   7.784 -15.029 +0.02 +0.02    +0.209    33.952
ATOM     39  C   UNL d   1      -9.794   4.593 -18.718 -0.14 +0.01    +0.052    33.952
ATOM     40  C   UNL d   1     -11.225   5.109 -18.941 -0.11 +0.03    +0.115    33.952
ATOM     41  C   UNL d   1     -12.271   4.446 -18.070 -0.11 +0.08    +0.139    33.952
ATOM     42  O   UNL d   1     -12.797   5.088 -17.171 -0.02 -0.29    -0.650    33.952
ATOM     43  O   UNL d   1     -12.705   3.189 -18.312 -0.10 -0.92    -0.776    33.952
ATOM     44  H   UNL d   1     -13.639   2.945 -18.271 +0.00 +0.20    +0.167    33.952
ATOM     45  C   UNL d   1      -6.130   9.991  -9.578 -0.49 -0.00    +0.004    33.952
ATOM     46  C   UNL d   1      -6.005  11.307  -9.720 -0.48 -0.00    +0.012    33.952
ATOM     47  C   UNL d   1      -5.154  10.806 -17.289 -0.05 -0.00    +0.004    33.952
ATOM     48  C   UNL d   1      -4.195  10.307 -18.073 -0.06 -0.00    +0.012    33.952
TER
ENDMDL
MODEL       17
USER    Run = 17
USER    Cluster Rank = 10
USER    Number of conformations in this cluster = 5
USER  
USER    RMSD from reference structure       = 28.962 A
USER  
USER    Estimated Free Energy of Binding    =   -5.10 kcal/mol  [=(1)+(2)+(3)-(4)]
USER    Estimated Inhibition Constant, Ki   =  182.71 uM (micromolar)  [Temperature = 298.15 K]
USER    
USER    (1) Final Intermolecular Energy     =   -8.68 kcal/mol
USER        vdW + Hbond + desolv Energy     =   -7.74 kcal/mol
USER        Electrostatic Energy            =   -0.94 kcal/mol
USER    (2) Final Total Internal Energy     =   -2.01 kcal/mol
USER    (3) Torsional Free Energy           =   +3.58 kcal/mol
USER    (4) Unbound System's Energy  [=(2)] =   -2.01 kcal/mol
USER    
USER    
USER  
USER    DPF = D:/Protein_go_brrr/autodock/final/mut_K82N/heme_Co/dock.dpf
USER    NEWDPF move	heme_Co_opt.pdbqt
USER    NEWDPF about	8.781000 34.984000 -0.736000
USER    NEWDPF tran0	11.146622 5.166301 12.134667
USER    NEWDPF axisangle0	0.150652 -0.764927 0.626251 59.623919
USER    NEWDPF quaternion0	0.074897 -0.380287 0.311344 0.867662
USER    NEWDPF dihe0	131.79 132.83 31.01 104.07 98.87 124.27 -140.66 119.77 -126.39 -19.68 -170.56 171.87 
USER  
USER                              x       y       z    vdW   Elec        q     RMS 
ATOM      1  C   UNL d   1       9.787   6.809  12.544 -0.11 -0.00    +0.064    28.962
ATOM      2  C   UNL d   1      11.791   3.544  15.360 -0.20 -0.01    +0.064    28.962
ATOM      3  C   UNL d   1      13.694   1.374  11.553 -0.13 -0.01    +0.064    28.962
ATOM      4  C   UNL d   1      11.979   4.915   8.693 -0.16 +0.00    +0.064    28.962
ATOM      5  C   UNL d   1      10.165   6.056  13.590 -0.15 -0.01    +0.066    28.962
ATOM      6  C   UNL d   1       9.857   6.412  14.917 -0.28 +0.00    -0.021    28.962
ATOM      7  C   UNL d   1      10.460   5.473  15.731 -0.24 +0.00    -0.025    28.962
ATOM      8  C   UNL d   1      11.096   4.577  14.866 -0.21 -0.01    +0.066    28.962
ATOM      9  C   UNL d   1      10.448   5.410  17.266 -0.17 +0.00    +0.051    28.962
ATOM     10  C   UNL d   1      12.456   2.556  14.548 -0.13 -0.01    +0.066    28.962
ATOM     11  C   UNL d   1      13.082   1.374  15.000 -0.15 +0.00    -0.021    28.962
ATOM     12  C   UNL d   1      13.625   0.759  13.869 -0.16 -0.00    +0.000    28.962
ATOM     13  C   UNL d   1      13.280   1.601  12.812 -0.13 -0.01    +0.070    28.962
ATOM     14  C   UNL d   1      13.067   0.840  16.409 -0.20 -0.00    +0.052    28.962
ATOM     15  C   UNL d   1      13.477   2.163  10.356 -0.13 -0.00    +0.066    28.962
ATOM     16  C   UNL d   1      14.054   1.949   9.113 -0.11 +0.00    -0.021    28.962
ATOM     17  C   UNL d   1      13.564   2.969   8.285 -0.12 -0.00    +0.000    28.962
ATOM     18  C   UNL d   1      12.710   3.718   9.088 -0.14 -0.00    +0.070    28.962
ATOM     19  C   UNL d   1      15.012   0.829   8.772 -0.05 +0.00    +0.052    28.962
ATOM     20  C   UNL d   1      11.211   5.709   9.478 -0.22 +0.00    +0.066    28.962
ATOM     21  C   UNL d   1      10.587   6.855   8.991 -0.23 -0.00    -0.025    28.962
ATOM     22  C   UNL d   1       9.924   7.406  10.072 -0.31 -0.00    -0.021    28.962
ATOM     23  C   UNL d   1      10.189   6.568  11.176 -0.28 -0.00    +0.066    28.962
ATOM     24  C   UNL d   1      10.636   7.410   7.570 -0.14 +0.01    +0.051    28.962
ATOM     25  N   UNL d   1      10.925   4.910  13.533 -0.15 +0.03    -0.248    28.962
ATOM     26  N   UNL d   1      12.526   2.658  13.216 -0.07 +0.02    -0.248    28.962
ATOM     27  N   UNL d   1      12.706   3.227  10.322 -0.07 +0.01    -0.248    28.962
ATOM     28  N   UNL d   1      10.969   5.541  10.821 -0.17 +0.01    -0.248    28.962
ATOM     29 FE   UNL d   1      11.866   4.021  11.830 -0.04 -0.00    +0.000    28.962
ATOM     30  C   UNL d   1       9.086   7.646  15.372 -0.28 -0.01    +0.052    28.962
ATOM     31  C   UNL d   1      10.028   8.840  15.531 -0.14 -0.00    +0.115    28.962
ATOM     32  C   UNL d   1      10.877   9.072  14.300 -0.10 +0.01    +0.139    28.962
ATOM     33  O   UNL d   1      10.463   9.805  13.414 -0.36 -0.06    -0.650    28.962
ATOM     34  O   UNL d   1      12.110   8.530  14.166 +0.04 +0.00    -0.776    28.962
ATOM     35  H   UNL d   1      12.396   8.011  13.401 +0.02 -0.00    +0.167    28.962
ATOM     36  C   UNL d   1      13.519   5.242  12.248 -0.02 -0.01    +0.190    28.962
ATOM     37  O   UNL d   1      13.882   6.478  12.791 +0.00 +0.01    -0.399    28.962
ATOM     38  H   UNL d   1      13.101   6.751  13.350 +0.02 -0.00    +0.209    28.962
ATOM     39  C   UNL d   1       9.135   8.702  10.053 -0.34 +0.01    +0.052    28.962
ATOM     40  C   UNL d   1      10.058   9.903  10.319 -0.19 +0.03    +0.115    28.962
ATOM     41  C   UNL d   1       9.557  11.214   9.751 +0.04 +0.08    +0.139    28.962
ATOM     42  O   UNL d   1      10.047  11.644   8.716 -0.52 -0.49    -0.650    28.962
ATOM     43  O   UNL d   1       8.522  11.880  10.309 -0.50 -0.57    -0.776    28.962
ATOM     44  H   UNL d   1       8.385  11.922  11.264 +0.02 +0.04    +0.167    28.962
ATOM     45  C   UNL d   1      14.409  -0.531  13.664 -0.24 -0.00    +0.004    28.962
ATOM     46  C   UNL d   1      13.999  -1.746  13.311 -0.33 -0.00    +0.012    28.962
ATOM     47  C   UNL d   1      13.889   3.281   6.861 -0.10 -0.00    +0.004    28.962
ATOM     48  C   UNL d   1      13.397   2.596   5.826 -0.13 -0.00    +0.012    28.962
TER
ENDMDL
MODEL       15
USER    Run = 15
USER    Cluster Rank = 11
USER    Number of conformations in this cluster = 3
USER  
USER    RMSD from reference structure       = 38.088 A
USER  
USER    Estimated Free Energy of Binding    =   -5.09 kcal/mol  [=(1)+(2)+(3)-(4)]
USER    Estimated Inhibition Constant, Ki   =  185.73 uM (micromolar)  [Temperature = 298.15 K]
USER    
USER    (1) Final Intermolecular Energy     =   -8.67 kcal/mol
USER        vdW + Hbond + desolv Energy     =   -5.74 kcal/mol
USER        Electrostatic Energy            =   -2.93 kcal/mol
USER    (2) Final Total Internal Energy     =   -2.23 kcal/mol
USER    (3) Torsional Free Energy           =   +3.58 kcal/mol
USER    (4) Unbound System's Energy  [=(2)] =   -2.23 kcal/mol
USER    
USER    
USER  
USER    DPF = D:/Protein_go_brrr/autodock/final/mut_K82N/heme_Co/dock.dpf
USER    NEWDPF move	heme_Co_opt.pdbqt
USER    NEWDPF about	8.781000 34.984000 -0.736000
USER    NEWDPF tran0	-13.687878 0.767178 -4.676767
USER    NEWDPF axisangle0	0.705878 -0.580492 0.405911 -108.807712
USER    NEWDPF quaternion0	0.573978 -0.472022 0.330063 -0.582068
USER    NEWDPF dihe0	-171.25 115.76 -75.54 29.22 108.01 133.90 -141.42 138.14 123.93 -149.94 0.83 -19.97 
USER  
USER                              x       y       z    vdW   Elec        q     RMS 
ATOM      1  C   UNL d   1     -14.656   1.966  -6.206 -0.06 +0.04    +0.064    38.088
ATOM      2  C   UNL d   1     -12.406  -2.219  -6.376 -0.14 +0.01    +0.064    38.088
ATOM      3  C   UNL d   1     -11.215  -1.809  -1.768 -0.22 -0.03    +0.064    38.088
ATOM      4  C   UNL d   1     -13.833   2.280  -1.469 -0.11 +0.02    +0.064    38.088
ATOM      5  C   UNL d   1     -14.098   0.810  -6.601 -0.06 +0.03    +0.066    38.088
ATOM      6  C   UNL d   1     -14.285   0.294  -7.898 -0.05 -0.01    -0.021    38.088
ATOM      7  C   UNL d   1     -13.649  -0.931  -7.935 -0.07 -0.01    -0.025    38.088
ATOM      8  C   UNL d   1     -13.088  -1.103  -6.665 -0.08 +0.02    +0.066    38.088
ATOM      9  C   UNL d   1     -13.565  -1.914  -9.112 -0.11 +0.01    +0.051    38.088
ATOM     10  C   UNL d   1     -11.772  -2.472  -5.107 -0.13 +0.00    +0.066    38.088
ATOM     11  C   UNL d   1     -10.926  -3.557  -4.788 -0.18 +0.00    -0.021    38.088
ATOM     12  C   UNL d   1     -10.590  -3.410  -3.439 -0.25 -0.00    +0.000    38.088
ATOM     13  C   UNL d   1     -11.243  -2.244  -3.040 -0.18 -0.02    +0.070    38.088
ATOM     14  C   UNL d   1     -10.409  -4.598  -5.747 -0.27 -0.00    +0.052    38.088
ATOM     15  C   UNL d   1     -11.871  -0.661  -1.173 -0.20 -0.01    +0.066    38.088
ATOM     16  C   UNL d   1     -11.919  -0.348   0.178 -0.24 +0.01    -0.021    38.088
ATOM     17  C   UNL d   1     -12.676   0.829   0.270 -0.17 -0.00    +0.000    38.088
ATOM     18  C   UNL d   1     -13.016   1.152  -1.040 -0.13 +0.01    +0.070    38.088
ATOM     19  C   UNL d   1     -11.273  -1.149   1.287 -0.02 -0.03    +0.052    38.088
ATOM     20  C   UNL d   1     -14.249   2.566  -2.726 -0.09 +0.03    +0.066    38.088
ATOM     21  C   UNL d   1     -15.063   3.661  -3.008 -0.08 -0.01    -0.025    38.088
ATOM     22  C   UNL d   1     -15.293   3.613  -4.371 -0.07 -0.01    -0.021    38.088
ATOM     23  C   UNL d   1     -14.612   2.475  -4.854 -0.08 +0.05    +0.066    38.088
ATOM     24  C   UNL d   1     -15.612   4.692  -2.026 -0.04 +0.01    +0.051    38.088
ATOM     25  N   UNL d   1     -13.345  -0.037  -5.820 -0.06 -0.10    -0.248    38.088
ATOM     26  N   UNL d   1     -11.911  -1.648  -4.063 -0.07 -0.00    -0.248    38.088
ATOM     27  N   UNL d   1     -12.546   0.227  -1.869 -0.08 -0.02    -0.248    38.088
ATOM     28  N   UNL d   1     -13.981   1.838  -3.861 -0.07 -0.15    -0.248    38.088
ATOM     29 FE   UNL d   1     -12.923   0.106  -3.727 -0.02 +0.00    +0.000    38.088
ATOM     30  C   UNL d   1     -15.109   0.922  -9.017 -0.02 +0.01    +0.052    38.088
ATOM     31  C   UNL d   1     -14.277   1.947  -9.787 -0.03 +0.04    +0.115    38.088
ATOM     32  C   UNL d   1     -13.742   3.045  -8.894 -0.06 +0.09    +0.139    38.088
ATOM     33  O   UNL d   1     -12.661   2.898  -8.342 -0.34 -0.84    -0.650    38.088
ATOM     34  O   UNL d   1     -14.401   4.214  -8.720 +0.01 -0.44    -0.776    38.088
ATOM     35  H   UNL d   1     -14.059   4.961  -8.210 +0.01 +0.12    +0.167    38.088
ATOM     36  C   UNL d   1     -14.691  -0.976  -3.412 -0.01 +0.01    +0.190    38.088
ATOM     37  O   UNL d   1     -15.906  -1.325  -4.010 +0.00 -0.01    -0.399    38.088
ATOM     38  H   UNL d   1     -15.869  -0.917  -4.920 +0.01 +0.02    +0.209    38.088
ATOM     39  C   UNL d   1     -16.173   4.573  -5.149 -0.03 +0.02    +0.052    38.088
ATOM     40  C   UNL d   1     -15.411   5.869  -5.470 -0.04 +0.05    +0.115    38.088
ATOM     41  C   UNL d   1     -13.905   5.718  -5.501 +0.09 +0.17    +0.139    38.088
ATOM     42  O   UNL d   1     -13.277   5.774  -4.453 -0.41 -0.85    -0.650    38.088
ATOM     43  O   UNL d   1     -13.243   5.434  -6.644 -0.15 -1.47    -0.776    38.088
ATOM     44  H   UNL d   1     -13.312   4.578  -7.085 +0.00 +0.33    +0.167    38.088
ATOM     45  C   UNL d   1      -9.717  -4.222  -2.492 -0.40 -0.00    +0.004    38.088
ATOM     46  C   UNL d   1      -8.743  -5.093  -2.744 -0.58 -0.01    +0.012    38.088
ATOM     47  C   UNL d   1     -13.110   1.592   1.477 -0.16 -0.00    +0.004    38.088
ATOM     48  C   UNL d   1     -12.361   2.527   2.067 -0.29 +0.00    +0.012    38.088
TER
ENDMDL
MODEL       24
USER    Run = 24
USER    Cluster Rank = 12
USER    Number of conformations in this cluster = 2
USER  
USER    RMSD from reference structure       = 29.010 A
USER  
USER    Estimated Free Energy of Binding    =   -5.01 kcal/mol  [=(1)+(2)+(3)-(4)]
USER    Estimated Inhibition Constant, Ki   =  212.82 uM (micromolar)  [Temperature = 298.15 K]
USER    
USER    (1) Final Intermolecular Energy     =   -8.59 kcal/mol
USER        vdW + Hbond + desolv Energy     =   -5.72 kcal/mol
USER        Electrostatic Energy            =   -2.86 kcal/mol
USER    (2) Final Total Internal Energy     =   -2.92 kcal/mol
USER    (3) Torsional Free Energy           =   +3.58 kcal/mol
USER    (4) Unbound System's Energy  [=(2)] =   -2.92 kcal/mol
USER    
USER    
USER  
USER    DPF = D:/Protein_go_brrr/autodock/final/mut_K82N/heme_Co/dock.dpf
USER    NEWDPF move	heme_Co_opt.pdbqt
USER    NEWDPF about	8.781000 34.984000 -0.736000
USER    NEWDPF tran0	-11.311723 11.337248 -5.714752
USER    NEWDPF axisangle0	-0.557228 -0.285331 0.779797 -136.210587
USER    NEWDPF quaternion0	-0.517035 -0.264750 0.723551 -0.372902
USER    NEWDPF dihe0	-75.45 122.39 -109.62 116.31 64.97 133.02 65.48 -153.17 -133.60 80.21 173.55 179.08 
USER  
USER                              x       y       z    vdW   Elec        q     RMS 
ATOM      1  C   UNL d   1     -10.278   9.471  -5.309 -0.25 +0.02    +0.064    29.010
ATOM      2  C   UNL d   1     -13.339  12.052  -2.743 -0.10 +0.01    +0.064    29.010
ATOM      3  C   UNL d   1     -13.332  15.459  -6.093 -0.06 +0.04    +0.064    29.010
ATOM      4  C   UNL d   1     -10.509  12.669  -8.906 -0.18 +0.02    +0.064    29.010
ATOM      5  C   UNL d   1     -11.087   9.942  -4.345 -0.22 +0.02    +0.066    29.010
ATOM      6  C   UNL d   1     -11.407   9.185  -3.202 -0.28 -0.01    -0.021    29.010
ATOM      7  C   UNL d   1     -12.313   9.929  -2.472 -0.16 -0.01    -0.025    29.010
ATOM      8  C   UNL d   1     -12.494  11.114  -3.192 -0.12 +0.01    +0.066    29.010
ATOM      9  C   UNL d   1     -12.992   9.551  -1.147 -0.09 +0.01    +0.051    29.010
ATOM     10  C   UNL d   1     -13.569  13.313  -3.402 -0.08 +0.01    +0.066    29.010
ATOM     11  C   UNL d   1     -14.334  14.394  -2.911 -0.06 -0.00    -0.021    29.010
ATOM     12  C   UNL d   1     -14.312  15.375  -3.906 -0.07 +0.00    +0.000    29.010
ATOM     13  C   UNL d   1     -13.528  14.828  -4.922 -0.10 +0.03    +0.070    29.010
ATOM     14  C   UNL d   1     -14.954  14.499  -1.541 -0.04 +0.01    +0.052    29.010
ATOM     15  C   UNL d   1     -12.599  15.019  -7.264 -0.04 +0.05    +0.066    29.010
ATOM     16  C   UNL d   1     -12.557  15.657  -8.495 -0.09 -0.02    -0.021    29.010
ATOM     17  C   UNL d   1     -11.746  14.855  -9.311 -0.18 +0.00    +0.000    29.010
ATOM     18  C   UNL d   1     -11.342  13.796  -8.504 -0.21 +0.04    +0.070    29.010
ATOM     19  C   UNL d   1     -13.261  16.951  -8.838 -0.09 +0.04    +0.052    29.010
ATOM     20  C   UNL d   1     -10.175  11.586  -8.165 -0.19 +0.02    +0.066    29.010
ATOM     21  C   UNL d   1      -9.397  10.548  -8.674 -0.18 -0.01    -0.025    29.010
ATOM     22  C   UNL d   1      -9.289   9.625  -7.650 -0.21 -0.01    -0.021    29.010
ATOM     23  C   UNL d   1     -10.023  10.144  -6.562 -0.20 +0.02    +0.066    29.010
ATOM     24  C   UNL d   1      -8.801  10.432 -10.075 -0.15 +0.01    +0.051    29.010
ATOM     25  N   UNL d   1     -11.742  11.153  -4.354 -0.08 -0.06    -0.248    29.010
ATOM     26  N   UNL d   1     -13.034  13.604  -4.592 -0.07 -0.08    -0.248    29.010
ATOM     27  N   UNL d   1     -11.894  13.911  -7.301 -0.12 -0.15    -0.248    29.010
ATOM     28  N   UNL d   1     -10.563  11.329  -6.871 -0.10 -0.07    -0.248    29.010
ATOM     29 FE   UNL d   1     -11.820  12.612  -5.917 -0.04 +0.00    +0.000    29.010
ATOM     30  C   UNL d   1     -10.921   7.776  -2.879 -0.39 +0.02    +0.052    29.010
ATOM     31  C   UNL d   1     -12.015   6.749  -3.174 +0.08 +0.07    +0.115    29.010
ATOM     32  C   UNL d   1     -12.699   7.001  -4.500 -0.12 +0.12    +0.139    29.010
ATOM     33  O   UNL d   1     -13.340   8.028  -4.661 +0.03 -0.29    -0.650    29.010
ATOM     34  O   UNL d   1     -12.586   6.142  -5.541 -0.28 -1.50    -0.776    29.010
ATOM     35  H   UNL d   1     -11.821   6.102  -6.132 +0.02 +0.38    +0.167    29.010
ATOM     36  C   UNL d   1     -13.482  11.568  -6.655 -0.01 +0.04    +0.190    29.010
ATOM     37  O   UNL d   1     -14.114  10.321  -6.633 +0.01 -0.08    -0.399    29.010
ATOM     38  H   UNL d   1     -13.630   9.800  -5.932 +0.02 +0.05    +0.209    29.010
ATOM     39  C   UNL d   1      -8.574   8.290  -7.741 -0.24 +0.01    +0.052    29.010
ATOM     40  C   UNL d   1      -9.455   7.250  -8.453 -0.14 +0.05    +0.115    29.010
ATOM     41  C   UNL d   1     -10.071   6.218  -7.533 -0.09 +0.15    +0.139    29.010
ATOM     42  O   UNL d   1      -9.637   6.094  -6.397 -0.46 -0.91    -0.650    29.010
ATOM     43  O   UNL d   1     -11.148   5.489  -7.904 +0.01 -1.23    -0.776    29.010
ATOM     44  H   UNL d   1     -12.038   5.677  -7.580 +0.01 +0.27    +0.167    29.010
ATOM     45  C   UNL d   1     -14.922  16.767  -4.005 -0.05 +0.00    +0.004    29.010
ATOM     46  C   UNL d   1     -14.351  17.968  -3.954 -0.06 +0.00    +0.012    29.010
ATOM     47  C   UNL d   1     -11.396  15.009 -10.755 -0.17 +0.00    +0.004    29.010
ATOM     48  C   UNL d   1     -11.062  16.175 -11.312 -0.15 +0.01    +0.012    29.010
TER
ENDMDL
MODEL        9
USER    Run = 9
USER    Cluster Rank = 13
USER    Number of conformations in this cluster = 1
USER  
USER    RMSD from reference structure       = 48.424 A
USER  
USER    Estimated Free Energy of Binding    =   -4.85 kcal/mol  [=(1)+(2)+(3)-(4)]
USER    Estimated Inhibition Constant, Ki   =  276.40 uM (micromolar)  [Temperature = 298.15 K]
USER    
USER    (1) Final Intermolecular Energy     =   -8.43 kcal/mol
USER        vdW + Hbond + desolv Energy     =   -8.03 kcal/mol
USER        Electrostatic Energy            =   -0.40 kcal/mol
USER    (2) Final Total Internal Energy     =   -0.84 kcal/mol
USER    (3) Torsional Free Energy           =   +3.58 kcal/mol
USER    (4) Unbound System's Energy  [=(2)] =   -0.84 kcal/mol
USER    
USER    
USER  
USER    DPF = D:/Protein_go_brrr/autodock/final/mut_K82N/heme_Co/dock.dpf
USER    NEWDPF move	heme_Co_opt.pdbqt
USER    NEWDPF about	8.781000 34.984000 -0.736000
USER    NEWDPF tran0	-6.896770 -12.927217 7.802039
USER    NEWDPF axisangle0	-0.127838 -0.299198 -0.945589 153.291677
USER    NEWDPF quaternion0	-0.124382 -0.291108 -0.920021 0.230970
USER    NEWDPF dihe0	-171.05 77.08 -44.55 89.58 135.98 158.55 -66.86 140.70 -52.67 120.36 -131.41 18.57 
USER  
USER                              x       y       z    vdW   Elec        q     RMS 
ATOM      1  C   UNL d   1      -5.713 -14.657   7.236 -0.18 -0.01    +0.064    48.424
ATOM      2  C   UNL d   1      -4.504 -10.320   8.763 -0.35 -0.02    +0.064    48.424
ATOM      3  C   UNL d   1      -9.087  -8.972   8.680 -0.12 -0.01    +0.064    48.424
ATOM      4  C   UNL d   1     -10.385 -13.506   7.491 -0.09 -0.01    +0.064    48.424
ATOM      5  C   UNL d   1      -5.042 -13.560   7.624 -0.25 -0.01    +0.066    48.424
ATOM      6  C   UNL d   1      -3.650 -13.573   7.841 -0.33 +0.00    -0.021    48.424
ATOM      7  C   UNL d   1      -3.308 -12.318   8.306 -0.37 +0.00    -0.025    48.424
ATOM      8  C   UNL d   1      -4.502 -11.589   8.338 +0.00 -0.02    +0.066    48.424
ATOM      9  C   UNL d   1      -1.916 -11.810   8.710 -0.51 -0.01    +0.051    48.424
ATOM     10  C   UNL d   1      -5.677  -9.484   8.806 -0.37 -0.01    +0.066    48.424
ATOM     11  C   UNL d   1      -5.721  -8.105   9.108 -0.43 +0.00    -0.021    48.424
ATOM     12  C   UNL d   1      -7.069  -7.738   9.073 -0.31 -0.00    +0.000    48.424
ATOM     13  C   UNL d   1      -7.745  -8.912   8.740 -0.21 -0.01    +0.070    48.424
ATOM     14  C   UNL d   1      -4.535  -7.200   9.318 -0.38 -0.01    +0.052    48.424
ATOM     15  C   UNL d   1      -9.946 -10.107   8.405 -0.07 -0.01    +0.066    48.424
ATOM     16  C   UNL d   1     -11.330 -10.134   8.501 -0.05 +0.00    -0.021    48.424
ATOM     17  C   UNL d   1     -11.709 -11.441   8.162 -0.05 -0.00    +0.000    48.424
ATOM     18  C   UNL d   1     -10.523 -12.105   7.867 -0.09 -0.01    +0.070    48.424
ATOM     19  C   UNL d   1     -12.204  -8.966   8.898 -0.02 -0.01    +0.052    48.424
ATOM     20  C   UNL d   1      -9.238 -14.196   7.285 -0.10 -0.01    +0.066    48.424
ATOM     21  C   UNL d   1      -9.233 -15.551   6.962 -0.07 +0.00    -0.025    48.424
ATOM     22  C   UNL d   1      -7.900 -15.904   6.854 -0.08 +0.00    -0.021    48.424
ATOM     23  C   UNL d   1      -7.152 -14.740   7.130 -0.08 -0.02    +0.066    48.424
ATOM     24  C   UNL d   1     -10.438 -16.471   6.786 -0.03 -0.01    +0.051    48.424
ATOM     25  N   UNL d   1      -5.591 -12.332   7.915 -0.16 +0.07    -0.248    48.424
ATOM     26  N   UNL d   1      -6.898  -9.953   8.524 -0.18 +0.04    -0.248    48.424
ATOM     27  N   UNL d   1      -9.491 -11.289   8.052 -0.08 +0.03    -0.248    48.424
ATOM     28  N   UNL d   1      -7.958 -13.704   7.393 -0.11 +0.06    -0.248    48.424
ATOM     29 FE   UNL d   1      -7.658 -11.783   7.986 -0.05 -0.00    +0.000    48.424
ATOM     30  C   UNL d   1      -2.716 -14.768   7.683 -0.25 +0.02    +0.052    48.424
ATOM     31  C   UNL d   1      -3.302 -16.002   8.369 -0.08 +0.04    +0.115    48.424
ATOM     32  C   UNL d   1      -3.405 -17.188   7.434 +0.00 +0.09    +0.139    48.424
ATOM     33  O   UNL d   1      -3.564 -18.307   7.899 -0.08 -0.30    -0.650    48.424
ATOM     34  O   UNL d   1      -3.376 -17.045   6.089 -0.48 -0.25    -0.776    48.424
ATOM     35  H   UNL d   1      -3.506 -17.770   5.462 -0.50 -0.21    +0.167    48.424
ATOM     36  C   UNL d   1      -7.632 -12.382   9.995 -0.07 -0.02    +0.190    48.424
ATOM     37  O   UNL d   1      -6.788 -12.853  11.006 -0.04 +0.01    -0.399    48.424
ATOM     38  H   UNL d   1      -6.139 -13.452  10.541 +0.05 -0.00    +0.209    48.424
ATOM     39  C   UNL d   1      -7.380 -17.300   6.566 -0.05 -0.01    +0.052    48.424
ATOM     40  C   UNL d   1      -6.551 -17.313   5.270 -0.12 -0.05    +0.115    48.424
ATOM     41  C   UNL d   1      -7.344 -17.002   4.018 -0.16 -0.04    +0.139    48.424
ATOM     42  O   UNL d   1      -8.002 -17.888   3.491 +0.05 +0.15    -0.650    48.424
ATOM     43  O   UNL d   1      -7.415 -15.750   3.516 +0.01 +0.24    -0.776    48.424
ATOM     44  H   UNL d   1      -7.477 -14.967   4.079 -0.52 -0.10    +0.167    48.424
ATOM     45  C   UNL d   1      -7.791  -6.415   9.295 -0.29 -0.00    +0.004    48.424
ATOM     46  C   UNL d   1      -7.981  -5.384   8.476 -0.34 -0.00    +0.012    48.424
ATOM     47  C   UNL d   1     -13.064 -12.069   8.153 -0.02 -0.00    +0.004    48.424
ATOM     48  C   UNL d   1     -13.673 -12.491   7.042 -0.03 -0.00    +0.012    48.424
TER
ENDMDL
MODEL        7
USER    Run = 7
USER    Cluster Rank = 14
USER    Number of conformations in this cluster = 7
USER  
USER    RMSD from reference structure       = 27.736 A
USER  
USER    Estimated Free Energy of Binding    =   -4.67 kcal/mol  [=(1)+(2)+(3)-(4)]
USER    Estimated Inhibition Constant, Ki   =  375.00 uM (micromolar)  [Temperature = 298.15 K]
USER    
USER    (1) Final Intermolecular Energy     =   -8.25 kcal/mol
USER        vdW + Hbond + desolv Energy     =   -6.33 kcal/mol
USER        Electrostatic Energy            =   -1.92 kcal/mol
USER    (2) Final Total Internal Energy     =   -2.10 kcal/mol
USER    (3) Torsional Free Energy           =   +3.58 kcal/mol
USER    (4) Unbound System's Energy  [=(2)] =   -2.10 kcal/mol
USER    
USER    
USER  
USER    DPF = D:/Protein_go_brrr/autodock/final/mut_K82N/heme_Co/dock.dpf
USER    NEWDPF move	heme_Co_opt.pdbqt
USER    NEWDPF about	8.781000 34.984000 -0.736000
USER    NEWDPF tran0	-11.640194 13.477962 -6.591453
USER    NEWDPF axisangle0	0.162421 0.355518 -0.920449 125.601418
USER    NEWDPF quaternion0	0.144461 0.316205 -0.818668 0.457087
USER    NEWDPF dihe0	10.66 102.49 -150.37 102.22 136.43 82.26 165.93 120.40 57.91 147.71 -162.69 171.85 
USER  
USER                              x       y       z    vdW   Elec        q     RMS 
ATOM      1  C   UNL d   1     -10.476  11.990  -7.662 -0.20 +0.02    +0.064    27.736
ATOM      2  C   UNL d   1     -11.371  12.623  -3.035 -0.33 +0.02    +0.064    27.736
ATOM      3  C   UNL d   1     -13.682  16.692  -4.001 -0.09 +0.02    +0.064    27.736
ATOM      4  C   UNL d   1     -13.115  15.869  -8.762 -0.08 +0.04    +0.064    27.736
ATOM      5  C   UNL d   1     -10.519  11.883  -6.324 -0.23 +0.02    +0.066    27.736
ATOM      6  C   UNL d   1     -10.000  10.762  -5.646 -0.30 -0.01    -0.021    27.736
ATOM      7  C   UNL d   1     -10.283  10.941  -4.306 -0.39 -0.01    -0.025    27.736
ATOM      8  C   UNL d   1     -10.948  12.169  -4.221 -0.28 +0.02    +0.066    27.736
ATOM      9  C   UNL d   1      -9.948  10.000  -3.139 -0.45 +0.01    +0.051    27.736
ATOM     10  C   UNL d   1     -12.040  13.887  -2.847 -0.21 +0.02    +0.066    27.736
ATOM     11  C   UNL d   1     -12.384  14.484  -1.614 -0.26 -0.00    -0.021    27.736
ATOM     12  C   UNL d   1     -13.053  15.671  -1.925 -0.17 +0.00    +0.000    27.736
ATOM     13  C   UNL d   1     -13.056  15.716  -3.320 -0.13 +0.02    +0.070    27.736
ATOM     14  C   UNL d   1     -12.004  13.984  -0.244 -0.29 +0.01    +0.052    27.736
ATOM     15  C   UNL d   1     -13.830  16.866  -5.433 -0.06 +0.03    +0.066    27.736
ATOM     16  C   UNL d   1     -14.613  17.818  -6.070 -0.05 -0.01    -0.021    27.736
ATOM     17  C   UNL d   1     -14.454  17.583  -7.443 -0.05 +0.00    +0.000    27.736
ATOM     18  C   UNL d   1     -13.570  16.513  -7.536 -0.06 +0.05    +0.070    27.736
ATOM     19  C   UNL d   1     -15.450  18.871  -5.379 -0.01 +0.01    +0.052    27.736
ATOM     20  C   UNL d   1     -12.325  14.775  -8.874 -0.13 +0.04    +0.066    27.736
ATOM     21  C   UNL d   1     -11.984  14.227 -10.108 -0.11 -0.01    -0.025    27.736
ATOM     22  C   UNL d   1     -11.200  13.124  -9.824 -0.14 -0.01    -0.021    27.736
ATOM     23  C   UNL d   1     -11.110  13.046  -8.417 -0.20 +0.03    +0.066    27.736
ATOM     24  C   UNL d   1     -12.402  14.718 -11.492 -0.06 +0.01    +0.051    27.736
ATOM     25  N   UNL d   1     -11.102  12.778  -5.455 -0.16 -0.10    -0.248    27.736
ATOM     26  N   UNL d   1     -12.395  14.666  -3.874 -0.07 -0.10    -0.248    27.736
ATOM     27  N   UNL d   1     -13.243  16.092  -6.319 -0.05 -0.19    -0.248    27.736
ATOM     28  N   UNL d   1     -11.791  14.042  -7.839 -0.12 -0.16    -0.248    27.736
ATOM     29 FE   UNL d   1     -12.235  14.533  -5.916 -0.05 +0.00    +0.000    27.736
ATOM     30  C   UNL d   1      -9.338   9.543  -6.279 -0.30 +0.02    +0.052    27.736
ATOM     31  C   UNL d   1     -10.392   8.597  -6.853 -0.16 +0.05    +0.115    27.736
ATOM     32  C   UNL d   1     -10.278   7.197  -6.290 -0.13 +0.13    +0.139    27.736
ATOM     33  O   UNL d   1      -9.962   7.043  -5.120 -0.44 -0.66    -0.650    27.736
ATOM     34  O   UNL d   1     -10.564   6.100  -7.030 -0.24 -1.26    -0.776    27.736
ATOM     35  H   UNL d   1     -10.767   6.120  -7.976 +0.03 +0.18    +0.167    27.736
ATOM     36  C   UNL d   1     -13.925  13.293  -5.965 -0.04 +0.05    +0.190    27.736
ATOM     37  O   UNL d   1     -14.559  12.303  -6.723 +0.00 -0.08    -0.399    27.736
ATOM     38  H   UNL d   1     -14.067  12.291  -7.592 +0.02 +0.04    +0.209    27.736
ATOM     39  C   UNL d   1     -10.626  12.164 -10.849 -0.10 +0.02    +0.052    27.736
ATOM     40  C   UNL d   1     -11.637  11.054 -11.178 -0.03 +0.02    +0.115    27.736
ATOM     41  C   UNL d   1     -12.439  10.566  -9.990 -0.01 +0.03    +0.139    27.736
ATOM     42  O   UNL d   1     -12.128   9.514  -9.450 +0.02 -0.14    -0.650    27.736
ATOM     43  O   UNL d   1     -13.435  11.305  -9.454 +0.03 -0.14    -0.776    27.736
ATOM     44  H   UNL d   1     -13.614  11.325  -8.505 +0.01 +0.03    +0.167    27.736
ATOM     45  C   UNL d   1     -13.669  16.770  -1.070 -0.12 +0.00    +0.004    27.736
ATOM     46  C   UNL d   1     -13.159  17.922  -0.641 -0.14 +0.00    +0.012    27.736
ATOM     47  C   UNL d   1     -15.105  18.255  -8.608 -0.01 +0.00    +0.004    27.736
ATOM     48  C   UNL d   1     -14.438  18.983  -9.506 -0.01 +0.00    +0.012    27.736
TER
ENDMDL
MODEL       12
USER    Run = 12
USER    Cluster Rank = 15
USER    Number of conformations in this cluster = 2
USER  
USER    RMSD from reference structure       = 35.043 A
USER  
USER    Estimated Free Energy of Binding    =   -4.49 kcal/mol  [=(1)+(2)+(3)-(4)]
USER    Estimated Inhibition Constant, Ki   =  511.06 uM (micromolar)  [Temperature = 298.15 K]
USER    
USER    (1) Final Intermolecular Energy     =   -8.07 kcal/mol
USER        vdW + Hbond + desolv Energy     =   -5.26 kcal/mol
USER        Electrostatic Energy            =   -2.81 kcal/mol
USER    (2) Final Total Internal Energy     =   -0.73 kcal/mol
USER    (3) Torsional Free Energy           =   +3.58 kcal/mol
USER    (4) Unbound System's Energy  [=(2)] =   -0.73 kcal/mol
USER    
USER    
USER  
USER    DPF = D:/Protein_go_brrr/autodock/final/mut_K82N/heme_Co/dock.dpf
USER    NEWDPF move	heme_Co_opt.pdbqt
USER    NEWDPF about	8.781000 34.984000 -0.736000
USER    NEWDPF tran0	14.139689 3.071675 20.987899
USER    NEWDPF axisangle0	0.615093 0.729132 -0.300046 -134.323894
USER    NEWDPF quaternion0	0.566873 0.671972 -0.276524 -0.388128
USER    NEWDPF dihe0	-132.08 112.66 1.46 117.46 -88.18 133.23 151.90 153.29 -90.91 -119.61 -19.21 -16.49 
USER  
USER                              x       y       z    vdW   Elec        q     RMS 
ATOM      1  C   UNL d   1      14.558   2.805  23.102 -0.07 +0.03    +0.064    35.043
ATOM      2  C   UNL d   1      12.668  -0.082  19.830 -0.24 +0.01    +0.064    35.043
ATOM      3  C   UNL d   1      12.760   3.447  16.610 -0.10 -0.00    +0.064    35.043
ATOM      4  C   UNL d   1      15.046   6.299  19.819 -0.01 +0.01    +0.064    35.043
ATOM      5  C   UNL d   1      14.002   1.768  22.455 -0.08 +0.03    +0.066    35.043
ATOM      6  C   UNL d   1      13.863   0.500  23.054 -0.11 -0.01    -0.021    35.043
ATOM      7  C   UNL d   1      13.335  -0.339  22.093 -0.14 -0.01    -0.025    35.043
ATOM      8  C   UNL d   1      13.159   0.455  20.954 -0.15 +0.02    +0.066    35.043
ATOM      9  C   UNL d   1      13.005  -1.834  22.225 -0.12 +0.01    +0.051    35.043
ATOM     10  C   UNL d   1      12.427   0.662  18.619 -0.26 +0.00    +0.066    35.043
ATOM     11  C   UNL d   1      11.785   0.191  17.453 -0.39 +0.00    -0.021    35.043
ATOM     12  C   UNL d   1      11.822   1.242  16.532 -0.30 -0.00    +0.000    35.043
ATOM     13  C   UNL d   1      12.471   2.277  17.206 -0.17 -0.00    +0.070    35.043
ATOM     14  C   UNL d   1      11.104  -1.143  17.287 -0.27 -0.01    +0.052    35.043
ATOM     15  C   UNL d   1      13.466   4.598  17.137 -0.03 +0.00    +0.066    35.043
ATOM     16  C   UNL d   1      13.860   5.720  16.422 -0.01 -0.00    -0.021    35.043
ATOM     17  C   UNL d   1      14.522   6.545  17.343 -0.00 +0.00    +0.000    35.043
ATOM     18  C   UNL d   1      14.465   5.865  18.555 -0.01 +0.00    +0.070    35.043
ATOM     19  C   UNL d   1      13.604   5.957  14.950 -0.02 -0.00    +0.052    35.043
ATOM     20  C   UNL d   1      15.079   5.617  20.989 -0.02 +0.01    +0.066    35.043
ATOM     21  C   UNL d   1      15.700   6.124  22.129 -0.01 -0.00    -0.025    35.043
ATOM     22  C   UNL d   1      15.550   5.150  23.099 -0.03 -0.01    -0.021    35.043
ATOM     23  C   UNL d   1      14.849   4.084  22.496 -0.06 +0.03    +0.066    35.043
ATOM     24  C   UNL d   1      16.419   7.461  22.280 +0.00 +0.00    +0.051    35.043
ATOM     25  N   UNL d   1      13.558   1.766  21.152 -0.09 -0.08    -0.248    35.043
ATOM     26  N   UNL d   1      12.786   1.944  18.486 -0.12 -0.01    -0.248    35.043
ATOM     27  N   UNL d   1      13.856   4.696  18.388 -0.01 -0.02    -0.248    35.043
ATOM     28  N   UNL d   1      14.564   4.361  21.218 -0.03 -0.06    -0.248    35.043
ATOM     29 FE   UNL d   1      13.717   3.320  19.691 -0.02 +0.00    +0.000    35.043
ATOM     30  C   UNL d   1      14.300   0.107  24.461 -0.08 +0.02    +0.052    35.043
ATOM     31  C   UNL d   1      13.489   0.871  25.508 -0.06 +0.10    +0.115    35.043
ATOM     32  C   UNL d   1      12.197   0.168  25.863 -0.09 +0.12    +0.139    35.043
ATOM     33  O   UNL d   1      12.092  -1.033  25.664 -0.02 -0.28    -0.650    35.043
ATOM     34  O   UNL d   1      11.161   0.819  26.442 -0.51 -1.18    -0.776    35.043
ATOM     35  H   UNL d   1      10.643   0.469  27.180 +0.01 +0.14    +0.167    35.043
ATOM     36  C   UNL d   1      15.579   2.500  19.185 -0.01 +0.01    +0.190    35.043
ATOM     37  O   UNL d   1      16.610   1.692  19.674 +0.00 -0.03    -0.399    35.043
ATOM     38  H   UNL d   1      16.323   1.440  20.597 +0.01 +0.02    +0.209    35.043
ATOM     39  C   UNL d   1      16.108   5.219  24.508 -0.02 +0.01    +0.052    35.043
ATOM     40  C   UNL d   1      15.150   5.987  25.435 -0.02 +0.04    +0.115    35.043
ATOM     41  C   UNL d   1      13.736   5.445  25.458 -0.03 +0.14    +0.139    35.043
ATOM     42  O   UNL d   1      13.036   5.557  24.462 -0.22 -0.78    -0.650    35.043
ATOM     43  O   UNL d   1      13.255   4.762  26.521 -0.41 -1.23    -0.776    35.043
ATOM     44  H   UNL d   1      13.742   4.683  27.351 +0.00 +0.14    +0.167    35.043
ATOM     45  C   UNL d   1      11.306   1.392  15.107 -0.41 -0.00    +0.004    35.043
ATOM     46  C   UNL d   1      10.294   2.109  14.624 -0.50 -0.00    +0.012    35.043
ATOM     47  C   UNL d   1      15.213   7.851  17.129 +0.00 +0.00    +0.004    35.043
ATOM     48  C   UNL d   1      16.538   8.004  17.194 +0.00 +0.00    +0.012    35.043
TER
ENDMDL
MODEL       32
USER    Run = 32
USER    Cluster Rank = 16
USER    Number of conformations in this cluster = 1
USER  
USER    RMSD from reference structure       = 34.118 A
USER  
USER    Estimated Free Energy of Binding    =   -4.45 kcal/mol  [=(1)+(2)+(3)-(4)]
USER    Estimated Inhibition Constant, Ki   =  550.69 uM (micromolar)  [Temperature = 298.15 K]
USER    
USER    (1) Final Intermolecular Energy     =   -8.03 kcal/mol
USER        vdW + Hbond + desolv Energy     =   -5.91 kcal/mol
USER        Electrostatic Energy            =   -2.11 kcal/mol
USER    (2) Final Total Internal Energy     =   -1.70 kcal/mol
USER    (3) Torsional Free Energy           =   +3.58 kcal/mol
USER    (4) Unbound System's Energy  [=(2)] =   -1.70 kcal/mol
USER    
USER    
USER  
USER    DPF = D:/Protein_go_brrr/autodock/final/mut_K82N/heme_Co/dock.dpf
USER    NEWDPF move	heme_Co_opt.pdbqt
USER    NEWDPF about	8.781000 34.984000 -0.736000
USER    NEWDPF tran0	-10.949438 6.308141 -12.283079
USER    NEWDPF axisangle0	-0.088709 -0.026108 -0.995715 45.739728
USER    NEWDPF quaternion0	-0.034476 -0.010147 -0.386974 0.921390
USER    NEWDPF dihe0	3.72 76.11 97.71 118.13 64.65 149.81 -171.79 -100.25 -126.50 -64.29 -41.58 1.49 
USER  
USER                              x       y       z    vdW   Elec        q     RMS 
ATOM      1  C   UNL d   1     -12.699   5.323 -13.111 -0.05 +0.02    +0.064    34.118
ATOM      2  C   UNL d   1      -9.752   4.156  -9.565 -0.18 +0.04    +0.064    34.118
ATOM      3  C   UNL d   1      -6.991   7.924 -10.570 -0.19 +0.00    +0.064    34.118
ATOM      4  C   UNL d   1     -10.190   9.352 -13.945 -0.02 +0.00    +0.064    34.118
ATOM      5  C   UNL d   1     -12.077   4.707 -12.092 -0.08 +0.02    +0.066    34.118
ATOM      6  C   UNL d   1     -12.625   3.576 -11.455 -0.10 -0.01    -0.021    34.118
ATOM      7  C   UNL d   1     -11.778   3.256 -10.413 -0.09 -0.01    -0.025    34.118
ATOM      8  C   UNL d   1     -10.741   4.194 -10.468 -0.13 +0.03    +0.066    34.118
ATOM      9  C   UNL d   1     -11.926   2.115  -9.395 -0.14 +0.03    +0.051    34.118
ATOM     10  C   UNL d   1      -8.631   5.062  -9.559 -0.21 +0.02    +0.066    34.118
ATOM     11  C   UNL d   1      -7.492   4.989  -8.727 -0.25 -0.01    -0.021    34.118
ATOM     12  C   UNL d   1      -6.702   6.097  -9.044 -0.28 +0.00    +0.000    34.118
ATOM     13  C   UNL d   1      -7.408   6.756 -10.051 -0.18 +0.01    +0.070    34.118
ATOM     14  C   UNL d   1      -7.157   3.874  -7.770 -0.34 +0.02    +0.052    34.118
ATOM     15  C   UNL d   1      -7.619   8.761 -11.573 -0.13 +0.00    +0.066    34.118
ATOM     16  C   UNL d   1      -7.209  10.029 -11.961 -0.19 +0.00    -0.021    34.118
ATOM     17  C   UNL d   1      -8.130  10.446 -12.932 -0.11 +0.00    +0.000    34.118
ATOM     18  C   UNL d   1      -9.023   9.389 -13.073 -0.05 +0.00    +0.070    34.118
ATOM     19  C   UNL d   1      -6.007  10.767 -11.415 -0.39 -0.01    +0.052    34.118
ATOM     20  C   UNL d   1     -11.120   8.371 -14.036 -0.02 +0.01    +0.066    34.118
ATOM     21  C   UNL d   1     -12.219   8.466 -14.887 -0.01 -0.00    -0.025    34.118
ATOM     22  C   UNL d   1     -12.945   7.305 -14.689 -0.01 -0.00    -0.021    34.118
ATOM     23  C   UNL d   1     -12.254   6.560 -13.711 -0.03 +0.01    +0.066    34.118
ATOM     24  C   UNL d   1     -12.572   9.614 -15.829 +0.00 +0.00    +0.051    34.118
ATOM     25  N   UNL d   1     -10.897   5.101 -11.502 -0.08 -0.07    -0.248    34.118
ATOM     26  N   UNL d   1      -8.546   6.098 -10.400 -0.10 -0.05    -0.248    34.118
ATOM     27  N   UNL d   1      -8.706   8.416 -12.226 -0.05 -0.02    -0.248    34.118
ATOM     28  N   UNL d   1     -11.150   7.203 -13.311 -0.02 -0.04    -0.248    34.118
ATOM     29 FE   UNL d   1      -9.739   6.857 -11.888 -0.02 +0.00    +0.000    34.118
ATOM     30  C   UNL d   1     -13.947   2.895 -11.792 -0.05 +0.02    +0.052    34.118
ATOM     31  C   UNL d   1     -14.121   2.778 -13.306 -0.07 +0.06    +0.115    34.118
ATOM     32  C   UNL d   1     -12.921   2.147 -13.978 -0.07 +0.15    +0.139    34.118
ATOM     33  O   UNL d   1     -12.567   1.025 -13.646 -0.54 -0.74    -0.650    34.118
ATOM     34  O   UNL d   1     -12.248   2.767 -14.975 +0.03 -1.12    -0.776    34.118
ATOM     35  H   UNL d   1     -12.481   3.637 -15.329 +0.02 +0.17    +0.167    34.118
ATOM     36  C   UNL d   1     -10.921   7.818 -10.449 -0.02 +0.04    +0.190    34.118
ATOM     37  O   UNL d   1     -12.029   7.635  -9.614 +0.01 -0.13    -0.399    34.118
ATOM     38  H   UNL d   1     -12.666   7.085 -10.150 +0.01 +0.06    +0.209    34.118
ATOM     39  C   UNL d   1     -14.264   6.968 -15.359 -0.01 +0.01    +0.052    34.118
ATOM     40  C   UNL d   1     -14.052   5.951 -16.493 -0.02 +0.03    +0.115    34.118
ATOM     41  C   UNL d   1     -14.608   4.572 -16.207 -0.04 +0.06    +0.139    34.118
ATOM     42  O   UNL d   1     -15.668   4.467 -15.606 +0.01 -0.21    -0.650    34.118
ATOM     43  O   UNL d   1     -14.010   3.454 -16.675 -0.53 -0.88    -0.776    34.118
ATOM     44  H   UNL d   1     -13.483   2.872 -16.112 +0.03 +0.36    +0.167    34.118
ATOM     45  C   UNL d   1      -5.359   6.597  -8.528 -0.38 +0.00    +0.004    34.118
ATOM     46  C   UNL d   1      -4.166   6.635  -9.115 -0.54 -0.00    +0.012    34.118
ATOM     47  C   UNL d   1      -8.228  11.748 -13.657 -0.12 +0.00    +0.004    34.118
ATOM     48  C   UNL d   1      -7.173  12.393 -14.160 -0.17 -0.00    +0.012    34.118
TER
ENDMDL
MODEL       39
USER    Run = 39
USER    Cluster Rank = 17
USER    Number of conformations in this cluster = 2
USER  
USER    RMSD from reference structure       = 28.972 A
USER  
USER    Estimated Free Energy of Binding    =   -4.27 kcal/mol  [=(1)+(2)+(3)-(4)]
USER    Estimated Inhibition Constant, Ki   =  739.02 uM (micromolar)  [Temperature = 298.15 K]
USER    
USER    (1) Final Intermolecular Energy     =   -7.85 kcal/mol
USER        vdW + Hbond + desolv Energy     =   -5.67 kcal/mol
USER        Electrostatic Energy            =   -2.18 kcal/mol
USER    (2) Final Total Internal Energy     =   -2.71 kcal/mol
USER    (3) Torsional Free Energy           =   +3.58 kcal/mol
USER    (4) Unbound System's Energy  [=(2)] =   -2.71 kcal/mol
USER    
USER    
USER  
USER    DPF = D:/Protein_go_brrr/autodock/final/mut_K82N/heme_Co/dock.dpf
USER    NEWDPF move	heme_Co_opt.pdbqt
USER    NEWDPF about	8.781000 34.984000 -0.736000
USER    NEWDPF tran0	-10.452412 11.616454 -8.032063
USER    NEWDPF axisangle0	-0.596016 -0.068176 0.800073 -151.510959
USER    NEWDPF quaternion0	-0.577691 -0.066080 0.775474 -0.246061
USER    NEWDPF dihe0	98.67 134.75 158.82 115.73 136.38 78.53 -164.16 -37.57 -66.05 112.07 168.82 -177.73 
USER  
USER                              x       y       z    vdW   Elec        q     RMS 
ATOM      1  C   UNL d   1      -9.406  10.142  -6.830 -0.19 +0.02    +0.064    28.972
ATOM      2  C   UNL d   1     -12.328  13.712  -5.678 -0.16 +0.03    +0.064    28.972
ATOM      3  C   UNL d   1     -12.475  15.113 -10.244 -0.08 +0.03    +0.064    28.972
ATOM      4  C   UNL d   1      -9.804  11.248 -11.503 -0.01 +0.02    +0.064    28.972
ATOM      5  C   UNL d   1     -10.165  11.036  -6.174 -0.23 +0.02    +0.066    28.972
ATOM      6  C   UNL d   1     -10.431  10.922  -4.796 -0.32 -0.01    -0.021    28.972
ATOM      7  C   UNL d   1     -11.298  11.947  -4.472 -0.25 -0.01    -0.025    28.972
ATOM      8  C   UNL d   1     -11.510  12.652  -5.661 -0.19 +0.02    +0.066    28.972
ATOM      9  C   UNL d   1     -11.912  12.264  -3.099 -0.26 +0.01    +0.051    28.972
ATOM     10  C   UNL d   1     -12.587  14.513  -6.848 -0.11 +0.04    +0.066    28.972
ATOM     11  C   UNL d   1     -13.323  15.717  -6.900 -0.07 -0.01    -0.021    28.972
ATOM     12  C   UNL d   1     -13.346  16.106  -8.243 -0.09 +0.00    +0.000    28.972
ATOM     13  C   UNL d   1     -12.615  15.121  -8.906 -0.11 +0.05    +0.070    28.972
ATOM     14  C   UNL d   1     -13.874  16.478  -5.722 -0.08 +0.03    +0.052    28.972
ATOM     15  C   UNL d   1     -11.802  14.150 -11.093 -0.08 +0.02    +0.066    28.972
ATOM     16  C   UNL d   1     -11.819  14.124 -12.480 -0.05 -0.00    -0.021    28.972
ATOM     17  C   UNL d   1     -11.052  13.009 -12.848 -0.06 +0.00    +0.000    28.972
ATOM     18  C   UNL d   1     -10.612  12.452 -11.652 -0.07 +0.02    +0.070    28.972
ATOM     19  C   UNL d   1     -12.535  15.117 -13.368 -0.02 +0.01    +0.052    28.972
ATOM     20  C   UNL d   1      -9.437  10.639 -10.350 -0.10 +0.02    +0.066    28.972
ATOM     21  C   UNL d   1      -8.688   9.464 -10.335 -0.13 -0.00    -0.025    28.972
ATOM     22  C   UNL d   1      -8.533   9.137  -9.000 -0.19 -0.00    -0.021    28.972
ATOM     23  C   UNL d   1      -9.211  10.130  -8.261 -0.17 +0.01    +0.066    28.972
ATOM     24  C   UNL d   1      -8.163   8.680 -11.534 -0.13 +0.00    +0.051    28.972
ATOM     25  N   UNL d   1     -10.816  12.113  -6.731 -0.13 -0.08    -0.248    28.972
ATOM     26  N   UNL d   1     -12.109  14.189  -8.055 -0.10 -0.16    -0.248    28.972
ATOM     27  N   UNL d   1     -11.103  13.140 -10.627 -0.07 -0.08    -0.248    28.972
ATOM     28  N   UNL d   1      -9.761  11.040  -9.075 -0.11 -0.07    -0.248    28.972
ATOM     29 FE   UNL d   1     -10.966  12.654  -8.796 -0.03 +0.00    +0.000    28.972
ATOM     30  C   UNL d   1      -9.934   9.824  -3.861 -0.46 +0.01    +0.052    28.972
ATOM     31  C   UNL d   1     -11.075   8.876  -3.492 -0.31 +0.04    +0.115    28.972
ATOM     32  C   UNL d   1     -10.889   7.494  -4.080 -0.27 +0.09    +0.139    28.972
ATOM     33  O   UNL d   1      -9.962   6.797  -3.696 +0.15 -0.47    -0.650    28.972
ATOM     34  O   UNL d   1     -11.750   6.980  -4.990 -0.10 -0.84    -0.776    28.972
ATOM     35  H   UNL d   1     -11.623   7.030  -5.947 +0.03 +0.19    +0.167    28.972
ATOM     36  C   UNL d   1     -12.665  11.430  -8.877 -0.01 +0.04    +0.190    28.972
ATOM     37  O   UNL d   1     -13.074  10.093  -8.928 +0.01 -0.08    -0.399    28.972
ATOM     38  H   UNL d   1     -12.301   9.574  -8.569 +0.02 +0.05    +0.209    28.972
ATOM     39  C   UNL d   1      -7.828   7.902  -8.474 -0.25 +0.01    +0.052    28.972
ATOM     40  C   UNL d   1      -8.716   6.657  -8.640 -0.17 +0.04    +0.115    28.972
ATOM     41  C   UNL d   1      -9.878   6.585  -7.672 -0.16 +0.11    +0.139    28.972
ATOM     42  O   UNL d   1     -10.995   6.908  -8.053 +0.00 -0.47    -0.650    28.972
ATOM     43  O   UNL d   1      -9.733   6.091  -6.423 -0.41 -1.14    -0.776    28.972
ATOM     44  H   UNL d   1     -10.394   6.225  -5.731 +0.03 +0.30    +0.167    28.972
ATOM     45  C   UNL d   1     -13.956  17.299  -8.968 -0.06 +0.00    +0.004    28.972
ATOM     46  C   UNL d   1     -13.381  18.369  -9.510 -0.06 +0.01    +0.012    28.972
ATOM     47  C   UNL d   1     -10.773  12.448 -14.204 -0.03 +0.00    +0.004    28.972
ATOM     48  C   UNL d   1      -9.556  12.420 -14.754 -0.05 +0.00    +0.012    28.972
TER
ENDMDL
MODEL       93
USER    Run = 93
USER    Cluster Rank = 18
USER    Number of conformations in this cluster = 1
USER  
USER    RMSD from reference structure       = 22.753 A
USER  
USER    Estimated Free Energy of Binding    =   -4.24 kcal/mol  [=(1)+(2)+(3)-(4)]
USER    Estimated Inhibition Constant, Ki   =  779.11 uM (micromolar)  [Temperature = 298.15 K]
USER    
USER    (1) Final Intermolecular Energy     =   -7.82 kcal/mol
USER        vdW + Hbond + desolv Energy     =   -6.25 kcal/mol
USER        Electrostatic Energy            =   -1.57 kcal/mol
USER    (2) Final Total Internal Energy     =   -2.90 kcal/mol
USER    (3) Torsional Free Energy           =   +3.58 kcal/mol
USER    (4) Unbound System's Energy  [=(2)] =   -2.90 kcal/mol
USER    
USER    
USER  
USER    DPF = D:/Protein_go_brrr/autodock/final/mut_K82N/heme_Co/dock.dpf
USER    NEWDPF move	heme_Co_opt.pdbqt
USER    NEWDPF about	8.781000 34.984000 -0.736000
USER    NEWDPF tran0	-9.812826 17.770936 5.791440
USER    NEWDPF axisangle0	-0.095552 0.827308 -0.553562 -120.704516
USER    NEWDPF quaternion0	-0.083043 0.719000 -0.481091 -0.494666
USER    NEWDPF dihe0	114.33 63.20 119.26 -62.11 -57.62 134.10 32.31 -40.48 151.81 174.80 -151.94 -180.00 
USER  
USER                              x       y       z    vdW   Elec        q     RMS 
ATOM      1  C   UNL d   1      -9.346  19.702   6.668 -0.03 +0.02    +0.064    22.753
ATOM      2  C   UNL d   1      -7.965  15.284   7.753 -0.10 +0.05    +0.064    22.753
ATOM      3  C   UNL d   1     -10.907  13.508   4.434 -0.19 +0.01    +0.064    22.753
ATOM      4  C   UNL d   1     -12.046  18.029   3.044 -0.03 +0.01    +0.064    22.753
ATOM      5  C   UNL d   1      -8.780  18.623   7.233 -0.07 +0.03    +0.066    22.753
ATOM      6  C   UNL d   1      -7.784  18.735   8.223 -0.06 -0.01    -0.021    22.753
ATOM      7  C   UNL d   1      -7.370  17.450   8.518 +0.00 -0.02    -0.025    22.753
ATOM      8  C   UNL d   1      -8.142  16.610   7.708 -0.06 +0.06    +0.066    22.753
ATOM      9  C   UNL d   1      -6.291  17.015   9.520 -0.06 +0.04    +0.051    22.753
ATOM     10  C   UNL d   1      -8.730  14.340   6.977 -0.12 +0.03    +0.066    22.753
ATOM     11  C   UNL d   1      -8.690  12.932   7.082 -0.18 -0.00    -0.021    22.753
ATOM     12  C   UNL d   1      -9.560  12.440   6.105 -0.21 +0.00    +0.000    22.753
ATOM     13  C   UNL d   1     -10.075  13.580   5.487 -0.16 +0.01    +0.070    22.753
ATOM     14  C   UNL d   1      -7.937  12.136   8.116 -0.25 +0.00    +0.052    22.753
ATOM     15  C   UNL d   1     -11.489  14.577   3.646 -0.18 +0.01    +0.066    22.753
ATOM     16  C   UNL d   1     -12.226  14.432   2.479 -0.19 -0.00    -0.021    22.753
ATOM     17  C   UNL d   1     -12.555  15.734   2.073 -0.14 +0.00    +0.000    22.753
ATOM     18  C   UNL d   1     -12.005  16.572   3.038 -0.01 +0.01    +0.070    22.753
ATOM     19  C   UNL d   1     -12.574  13.117   1.819 -0.16 +0.01    +0.052    22.753
ATOM     20  C   UNL d   1     -11.446  18.866   3.923 -0.09 +0.01    +0.066    22.753
ATOM     21  C   UNL d   1     -11.528  20.252   3.804 -0.07 -0.00    -0.025    22.753
ATOM     22  C   UNL d   1     -10.783  20.761   4.852 -0.04 -0.00    -0.021    22.753
ATOM     23  C   UNL d   1     -10.270  19.652   5.557 -0.05 +0.01    +0.066    22.753
ATOM     24  C   UNL d   1     -12.264  21.053   2.733 -0.06 +0.00    +0.051    22.753
ATOM     25  N   UNL d   1      -9.028  17.310   6.906 -0.07 -0.14    -0.248    22.753
ATOM     26  N   UNL d   1      -9.615  14.728   6.053 -0.09 -0.08    -0.248    22.753
ATOM     27  N   UNL d   1     -11.352  15.850   3.942 -0.09 -0.04    -0.248    22.753
ATOM     28  N   UNL d   1     -10.667  18.503   4.997 -0.05 -0.05    -0.248    22.753
ATOM     29 FE   UNL d   1     -10.260  16.540   5.336 -0.03 +0.00    +0.000    22.753
ATOM     30  C   UNL d   1      -7.206  20.027   8.791 -0.03 +0.02    +0.052    22.753
ATOM     31  C   UNL d   1      -6.397  20.767   7.727 -0.04 +0.04    +0.115    22.753
ATOM     32  C   UNL d   1      -5.763  19.826   6.725 -0.07 +0.12    +0.139    22.753
ATOM     33  O   UNL d   1      -4.597  19.490   6.870 -0.08 -0.75    -0.650    22.753
ATOM     34  O   UNL d   1      -6.462  19.301   5.692 -0.34 -0.85    -0.776    22.753
ATOM     35  H   UNL d   1      -6.325  19.541   4.765 -0.47 +0.08    +0.167    22.753
ATOM     36  C   UNL d   1      -8.568  16.653   4.104 -0.12 +0.11    +0.190    22.753
ATOM     37  O   UNL d   1      -7.321  17.275   3.979 -0.48 -0.32    -0.399    22.753
ATOM     38  H   UNL d   1      -7.505  18.247   4.105 -0.18 +0.11    +0.209    22.753
ATOM     39  C   UNL d   1     -10.529  22.233   5.117 -0.02 +0.00    +0.052    22.753
ATOM     40  C   UNL d   1      -9.434  22.772   4.181 -0.03 +0.00    +0.115    22.753
ATOM     41  C   UNL d   1      -8.688  21.702   3.412 -0.11 +0.01    +0.139    22.753
ATOM     42  O   UNL d   1      -9.019  21.451   2.262 -0.02 -0.05    -0.650    22.753
ATOM     43  O   UNL d   1      -7.608  21.076   3.931 +0.02 -0.06    -0.776    22.753
ATOM     44  H   UNL d   1      -7.547  20.114   3.996 -0.15 +0.02    +0.167    22.753
ATOM     45  C   UNL d   1      -9.976  11.033   5.699 -0.37 -0.00    +0.004    22.753
ATOM     46  C   UNL d   1      -9.294  10.072   5.081 -0.56 -0.00    +0.012    22.753
ATOM     47  C   UNL d   1     -13.282  16.197   0.854 -0.15 +0.00    +0.004    22.753
ATOM     48  C   UNL d   1     -12.714  16.297  -0.350 -0.21 +0.00    +0.012    22.753
TER
ENDMDL
MODEL       27
USER    Run = 27
USER    Cluster Rank = 19
USER    Number of conformations in this cluster = 1
USER  
USER    RMSD from reference structure       = 20.110 A
USER  
USER    Estimated Free Energy of Binding    =   -4.16 kcal/mol  [=(1)+(2)+(3)-(4)]
USER    Estimated Inhibition Constant, Ki   =  892.88 uM (micromolar)  [Temperature = 298.15 K]
USER    
USER    (1) Final Intermolecular Energy     =   -7.74 kcal/mol
USER        vdW + Hbond + desolv Energy     =   -4.96 kcal/mol
USER        Electrostatic Energy            =   -2.77 kcal/mol
USER    (2) Final Total Internal Energy     =   -1.57 kcal/mol
USER    (3) Torsional Free Energy           =   +3.58 kcal/mol
USER    (4) Unbound System's Energy  [=(2)] =   -1.57 kcal/mol
USER    
USER    
USER  
USER    DPF = D:/Protein_go_brrr/autodock/final/mut_K82N/heme_Co/dock.dpf
USER    NEWDPF move	heme_Co_opt.pdbqt
USER    NEWDPF about	8.781000 34.984000 -0.736000
USER    NEWDPF tran0	-3.541956 17.603077 8.900049
USER    NEWDPF axisangle0	-0.627478 -0.715588 -0.306928 44.126806
USER    NEWDPF quaternion0	-0.235701 -0.268798 -0.115292 0.926769
USER    NEWDPF dihe0	3.85 120.68 28.36 -34.00 170.29 150.84 -154.63 138.93 -169.84 -174.90 -14.71 -11.17 
USER  
USER                              x       y       z    vdW   Elec        q     RMS 
ATOM      1  C   UNL d   1      -5.659  17.693   9.375 -0.05 +0.05    +0.064    20.110
ATOM      2  C   UNL d   1      -2.320  14.428  10.270 -0.10 -0.01    +0.064    20.110
ATOM      3  C   UNL d   1       0.853  16.916   7.707 -0.15 -0.00    +0.064    20.110
ATOM      4  C   UNL d   1      -2.430  20.455   7.102 -0.13 +0.01    +0.064    20.110
ATOM      5  C   UNL d   1      -4.990  16.600   9.777 -0.05 +0.04    +0.066    20.110
ATOM      6  C   UNL d   1      -5.570  15.640  10.629 -0.04 -0.00    -0.021    20.110
ATOM      7  C   UNL d   1      -4.590  14.707  10.903 -0.06 +0.00    -0.025    20.110
ATOM      8  C   UNL d   1      -3.459  15.128  10.196 -0.06 +0.01    +0.066    20.110
ATOM      9  C   UNL d   1      -4.698  13.461  11.797 -0.12 -0.02    +0.051    20.110
ATOM     10  C   UNL d   1      -1.115  14.770   9.556 -0.08 -0.01    +0.066    20.110
ATOM     11  C   UNL d   1       0.067  14.001   9.481 -0.15 +0.01    -0.021    20.110
ATOM     12  C   UNL d   1       0.974  14.749   8.724 -0.16 -0.00    +0.000    20.110
ATOM     13  C   UNL d   1       0.277  15.908   8.385 -0.12 -0.00    +0.070    20.110
ATOM     14  C   UNL d   1       0.262  12.608  10.021 -0.23 -0.05    +0.052    20.110
ATOM     15  C   UNL d   1       0.300  18.199   7.319 -0.16 -0.00    +0.066    20.110
ATOM     16  C   UNL d   1       0.994  19.255   6.747 -0.25 +0.01    -0.021    20.110
ATOM     17  C   UNL d   1       0.052  20.279   6.573 -0.27 -0.00    +0.000    20.110
ATOM     18  C   UNL d   1      -1.151  19.758   7.039 -0.18 +0.00    +0.070    20.110
ATOM     19  C   UNL d   1       2.466  19.253   6.402 -0.29 -0.03    +0.052    20.110
ATOM     20  C   UNL d   1      -3.591  19.999   7.630 -0.11 +0.03    +0.066    20.110
ATOM     21  C   UNL d   1      -4.747  20.777   7.665 -0.07 -0.01    -0.025    20.110
ATOM     22  C   UNL d   1      -5.702  19.996   8.289 -0.06 -0.01    -0.021    20.110
ATOM     23  C   UNL d   1      -5.074  18.776   8.617 +0.03 +0.06    +0.066    20.110
ATOM     24  C   UNL d   1      -4.927  22.201   7.147 -0.03 +0.01    +0.051    20.110
ATOM     25  N   UNL d   1      -3.680  16.295   9.485 -0.06 -0.12    -0.248    20.110
ATOM     26  N   UNL d   1      -1.004  15.894   8.841 -0.05 -0.01    -0.248    20.110
ATOM     27  N   UNL d   1      -0.959  18.529   7.504 -0.13 -0.03    -0.248    20.110
ATOM     28  N   UNL d   1      -3.795  18.775   8.222 -0.04 -0.23    -0.248    20.110
ATOM     29 FE   UNL d   1      -2.241  17.481   8.434 -0.03 +0.00    +0.000    20.110
ATOM     30  C   UNL d   1      -6.980  15.674  11.211 -0.02 +0.01    +0.052    20.110
ATOM     31  C   UNL d   1      -8.019  15.446  10.114 -0.03 +0.02    +0.115    20.110
ATOM     32  C   UNL d   1      -7.390  15.052   8.795 -0.10 +0.08    +0.139    20.110
ATOM     33  O   UNL d   1      -6.968  13.915   8.647 -0.01 -0.24    -0.650    20.110
ATOM     34  O   UNL d   1      -7.322  15.907   7.748 -0.34 -1.18    -0.776    20.110
ATOM     35  H   UNL d   1      -7.666  16.811   7.762 +0.02 +0.22    +0.167    20.110
ATOM     36  C   UNL d   1      -1.756  18.331  10.288 -0.01 +0.01    +0.190    20.110
ATOM     37  O   UNL d   1      -2.117  18.338  11.639 +0.01 +0.01    -0.399    20.110
ATOM     38  H   UNL d   1      -2.793  17.610  11.728 +0.01 -0.00    +0.209    20.110
ATOM     39  C   UNL d   1      -7.121  20.429   8.607 -0.02 +0.01    +0.052    20.110
ATOM     40  C   UNL d   1      -8.067  20.086   7.445 -0.04 +0.04    +0.115    20.110
ATOM     41  C   UNL d   1      -7.392  19.421   6.265 -0.14 +0.10    +0.139    20.110
ATOM     42  O   UNL d   1      -6.825  20.113   5.431 -0.10 -0.31    -0.650    20.110
ATOM     43  O   UNL d   1      -7.321  18.076   6.152 -0.08 -1.42    -0.776    20.110
ATOM     44  H   UNL d   1      -8.027  17.491   6.457 +0.03 +0.20    +0.167    20.110
ATOM     45  C   UNL d   1       2.405  14.494   8.270 -0.15 -0.00    +0.004    20.110
ATOM     46  C   UNL d   1       3.444  13.982   8.925 -0.27 -0.00    +0.012    20.110
ATOM     47  C   UNL d   1       0.238  21.670   6.060 -0.27 -0.00    +0.004    20.110
ATOM     48  C   UNL d   1      -0.702  22.340   5.389 -0.25 -0.00    +0.012    20.110
TER
ENDMDL
MODEL       11
USER    Run = 11
USER    Cluster Rank = 20
USER    Number of conformations in this cluster = 2
USER  
USER    RMSD from reference structure       = 23.314 A
USER  
USER    Estimated Free Energy of Binding    =   -4.09 kcal/mol  [=(1)+(2)+(3)-(4)]
USER    Estimated Inhibition Constant, Ki   =    1.00 mM (millimolar)  [Temperature = 298.15 K]
USER    
USER    (1) Final Intermolecular Energy     =   -7.67 kcal/mol
USER        vdW + Hbond + desolv Energy     =   -6.72 kcal/mol
USER        Electrostatic Energy            =   -0.95 kcal/mol
USER    (2) Final Total Internal Energy     =   -0.94 kcal/mol
USER    (3) Torsional Free Energy           =   +3.58 kcal/mol
USER    (4) Unbound System's Energy  [=(2)] =   -0.94 kcal/mol
USER    
USER    
USER  
USER    DPF = D:/Protein_go_brrr/autodock/final/mut_K82N/heme_Co/dock.dpf
USER    NEWDPF move	heme_Co_opt.pdbqt
USER    NEWDPF about	8.781000 34.984000 -0.736000
USER    NEWDPF tran0	13.459070 9.911530 0.393155
USER    NEWDPF axisangle0	0.581395 0.757286 0.297487 -137.883092
USER    NEWDPF quaternion0	0.542566 0.706710 0.277619 -0.359320
USER    NEWDPF dihe0	22.61 113.20 3.37 93.68 125.42 145.71 179.81 -9.05 -87.18 113.67 2.35 -12.66 
USER  
USER                              x       y       z    vdW   Elec        q     RMS 
ATOM      1  C   UNL d   1      13.351   8.168   1.683 -0.14 -0.00    +0.064    23.314
ATOM      2  C   UNL d   1      14.671   8.710  -2.853 -0.20 -0.00    +0.064    23.314
ATOM      3  C   UNL d   1      13.420  13.319  -2.705 -0.16 -0.01    +0.064    23.314
ATOM      4  C   UNL d   1      12.428  12.884   2.037 -0.13 +0.00    +0.064    23.314
ATOM      5  C   UNL d   1      13.769   7.969   0.422 -0.17 -0.00    +0.066    23.314
ATOM      6  C   UNL d   1      14.295   6.733  -0.004 -0.07 -0.00    -0.021    23.314
ATOM      7  C   UNL d   1      14.697   6.903  -1.315 -0.08 -0.00    -0.025    23.314
ATOM      8  C   UNL d   1      14.385   8.228  -1.636 -0.18 +0.00    +0.066    23.314
ATOM      9  C   UNL d   1      15.353   5.867  -2.241 -0.12 +0.00    +0.051    23.314
ATOM     10  C   UNL d   1      14.363  10.051  -3.283 -0.24 -0.01    +0.066    23.314
ATOM     11  C   UNL d   1      14.509  10.573  -4.587 -0.25 +0.00    -0.021    23.314
ATOM     12  C   UNL d   1      14.133  11.918  -4.516 -0.25 -0.00    +0.000    23.314
ATOM     13  C   UNL d   1      13.775  12.112  -3.181 -0.17 -0.02    +0.070    23.314
ATOM     14  C   UNL d   1      14.890   9.798  -5.821 -0.18 -0.00    +0.052    23.314
ATOM     15  C   UNL d   1      13.073  13.708  -1.353 -0.22 -0.01    +0.066    23.314
ATOM     16  C   UNL d   1      12.856  15.001  -0.899 -0.16 +0.00    -0.021    23.314
ATOM     17  C   UNL d   1      12.572  14.882   0.469 -0.15 -0.00    +0.000    23.314
ATOM     18  C   UNL d   1      12.621  13.518   0.739 -0.17 -0.00    +0.070    23.314
ATOM     19  C   UNL d   1      12.926  16.252  -1.747 -0.11 -0.01    +0.052    23.314
ATOM     20  C   UNL d   1      12.556  11.570   2.340 -0.09 +0.00    +0.066    23.314
ATOM     21  C   UNL d   1      12.380  11.086   3.634 -0.10 -0.00    -0.025    23.314
ATOM     22  C   UNL d   1      12.611   9.724   3.557 -0.10 -0.00    -0.021    23.314
ATOM     23  C   UNL d   1      12.931   9.446   2.211 -0.11 +0.00    +0.066    23.314
ATOM     24  C   UNL d   1      12.028  11.882   4.888 -0.07 +0.01    +0.051    23.314
ATOM     25  N   UNL d   1      13.804   8.910  -0.581 -0.14 +0.01    -0.248    23.314
ATOM     26  N   UNL d   1      13.861  10.969  -2.450 -0.19 +0.04    -0.248    23.314
ATOM     27  N   UNL d   1      12.952  12.853  -0.363 -0.16 +0.02    -0.248    23.314
ATOM     28  N   UNL d   1      12.901  10.561   1.472 +0.04 -0.00    -0.248    23.314
ATOM     29 FE   UNL d   1      13.351  10.998  -0.462 -0.05 -0.00    +0.000    23.314
ATOM     30  C   UNL d   1      14.472   5.479   0.844 -0.10 +0.00    +0.052    23.314
ATOM     31  C   UNL d   1      13.192   4.644   0.843 -0.15 +0.00    +0.115    23.314
ATOM     32  C   UNL d   1      13.173   3.617  -0.268 -0.16 +0.02    +0.139    23.314
ATOM     33  O   UNL d   1      14.133   2.876  -0.419 +0.03 -0.10    -0.650    23.314
ATOM     34  O   UNL d   1      12.101   3.456  -1.078 -0.23 -0.15    -0.776    23.314
ATOM     35  H   UNL d   1      11.401   4.114  -1.191 -0.46 -0.03    +0.167    23.314
ATOM     36  C   UNL d   1      15.363  11.290   0.048 -0.05 -0.01    +0.190    23.314
ATOM     37  O   UNL d   1      16.536  10.609   0.391 -0.00 +0.01    -0.399    23.314
ATOM     38  H   UNL d   1      16.286   9.644   0.377 +0.02 -0.01    +0.209    23.314
ATOM     39  C   UNL d   1      12.589   8.760   4.729 -0.08 +0.00    +0.052    23.314
ATOM     40  C   UNL d   1      11.170   8.210   4.951 -0.15 +0.02    +0.115    23.314
ATOM     41  C   UNL d   1      10.193   9.214   5.526 -0.16 +0.06    +0.139    23.314
ATOM     42  O   UNL d   1       9.112   9.377   4.978 -0.40 -0.44    -0.650    23.314
ATOM     43  O   UNL d   1      10.446   9.872   6.678 +0.05 -0.40    -0.776    23.314
ATOM     44  H   UNL d   1      11.308   9.842   7.115 +0.03 +0.05    +0.167    23.314
ATOM     45  C   UNL d   1      14.053  13.030  -5.553 -0.24 -0.00    +0.004    23.314
ATOM     46  C   UNL d   1      13.083  13.352  -6.404 -0.33 -0.00    +0.012    23.314
ATOM     47  C   UNL d   1      12.320  15.944   1.488 -0.10 -0.00    +0.004    23.314
ATOM     48  C   UNL d   1      11.106  16.243   1.957 -0.15 -0.00    +0.012    23.314
TER
ENDMDL
MODEL       31
USER    Run = 31
USER    Cluster Rank = 21
USER    Number of conformations in this cluster = 2
USER  
USER    RMSD from reference structure       = 45.526 A
USER  
USER    Estimated Free Energy of Binding    =   -3.95 kcal/mol  [=(1)+(2)+(3)-(4)]
USER    Estimated Inhibition Constant, Ki   =    1.26 mM (millimolar)  [Temperature = 298.15 K]
USER    
USER    (1) Final Intermolecular Energy     =   -7.53 kcal/mol
USER        vdW + Hbond + desolv Energy     =   -6.84 kcal/mol
USER        Electrostatic Energy            =   -0.69 kcal/mol
USER    (2) Final Total Internal Energy     =   -2.32 kcal/mol
USER    (3) Torsional Free Energy           =   +3.58 kcal/mol
USER    (4) Unbound System's Energy  [=(2)] =   -2.32 kcal/mol
USER    
USER    
USER  
USER    DPF = D:/Protein_go_brrr/autodock/final/mut_K82N/heme_Co/dock.dpf
USER    NEWDPF move	heme_Co_opt.pdbqt
USER    NEWDPF about	8.781000 34.984000 -0.736000
USER    NEWDPF tran0	11.762544 -13.224235 3.200297
USER    NEWDPF axisangle0	-0.661134 -0.734417 0.153408 175.330806
USER    NEWDPF quaternion0	-0.660585 -0.733807 0.153281 0.040735
USER    NEWDPF dihe0	179.78 110.95 158.86 -59.97 139.97 127.34 39.02 176.62 154.89 147.75 -152.82 21.63 
USER  
USER                              x       y       z    vdW   Elec        q     RMS 
ATOM      1  C   UNL d   1      12.614 -14.799   4.430 -0.06 +0.03    +0.064    45.526
ATOM      2  C   UNL d   1       9.313 -14.849   1.008 -0.25 +0.01    +0.064    45.526
ATOM      3  C   UNL d   1       9.476 -10.082   0.728 -0.19 +0.01    +0.064    45.526
ATOM      4  C   UNL d   1      13.124 -10.032   3.947 -0.13 +0.01    +0.064    45.526
ATOM      5  C   UNL d   1      11.674 -15.160   3.541 -0.09 +0.03    +0.066    45.526
ATOM      6  C   UNL d   1      11.378 -16.511   3.273 -0.10 -0.01    -0.021    45.526
ATOM      7  C   UNL d   1      10.436 -16.520   2.263 -0.15 -0.01    -0.025    45.526
ATOM      8  C   UNL d   1      10.185 -15.175   1.969 -0.18 +0.02    +0.066    45.526
ATOM      9  C   UNL d   1       9.788 -17.740   1.590 -0.16 +0.01    +0.051    45.526
ATOM     10  C   UNL d   1       8.971 -13.494   0.654 -0.22 +0.01    +0.066    45.526
ATOM     11  C   UNL d   1       7.963 -13.085  -0.247 -0.28 -0.00    -0.021    45.526
ATOM     12  C   UNL d   1       8.030 -11.691  -0.306 -0.33 +0.00    +0.000    45.526
ATOM     13  C   UNL d   1       9.062 -11.351   0.569 -0.23 +0.01    +0.070    45.526
ATOM     14  C   UNL d   1       6.952 -13.978  -0.919 -0.30 +0.01    +0.052    45.526
ATOM     15  C   UNL d   1      10.555  -9.562   1.545 -0.25 +0.01    +0.066    45.526
ATOM     16  C   UNL d   1      11.025  -8.256   1.554 -0.30 -0.00    -0.021    45.526
ATOM     17  C   UNL d   1      12.078  -8.237   2.479 -0.24 +0.00    +0.000    45.526
ATOM     18  C   UNL d   1      12.157  -9.534   2.976 -0.20 +0.01    +0.070    45.526
ATOM     19  C   UNL d   1      10.478  -7.122   0.715 -0.30 -0.00    +0.052    45.526
ATOM     20  C   UNL d   1      13.275 -11.306   4.380 -0.10 +0.01    +0.066    45.526
ATOM     21  C   UNL d   1      14.265 -11.669   5.290 -0.06 -0.00    -0.025    45.526
ATOM     22  C   UNL d   1      14.124 -13.033   5.470 -0.06 -0.00    -0.021    45.526
ATOM     23  C   UNL d   1      13.053 -13.439   4.646 -0.05 +0.03    +0.066    45.526
ATOM     24  C   UNL d   1      15.309 -10.765   5.940 -0.04 +0.00    +0.051    45.526
ATOM     25  N   UNL d   1      10.934 -14.311   2.750 -0.11 -0.10    -0.248    45.526
ATOM     26  N   UNL d   1       9.592 -12.438   1.191 -0.13 -0.05    -0.248    45.526
ATOM     27  N   UNL d   1      11.255 -10.302   2.376 -0.12 -0.04    -0.248    45.526
ATOM     28  N   UNL d   1      12.538 -12.397   3.982 -0.05 -0.09    -0.248    45.526
ATOM     29 FE   UNL d   1      11.106 -12.187   2.554 -0.05 +0.00    +0.000    45.526
ATOM     30  C   UNL d   1      12.038 -17.730   3.909 -0.04 +0.01    +0.052    45.526
ATOM     31  C   UNL d   1      13.492 -17.852   3.452 -0.00 +0.01    +0.115    45.526
ATOM     32  C   UNL d   1      13.725 -17.228   2.093 -0.00 +0.01    +0.139    45.526
ATOM     33  O   UNL d   1      13.603 -17.913   1.089 +0.01 -0.03    -0.650    45.526
ATOM     34  O   UNL d   1      14.019 -15.916   1.947 +0.02 -0.06    -0.776    45.526
ATOM     35  H   UNL d   1      14.233 -15.497   1.102 +0.00 +0.01    +0.167    45.526
ATOM     36  C   UNL d   1      12.519 -12.554   1.050 -0.04 +0.02    +0.190    45.526
ATOM     37  O   UNL d   1      13.467 -13.486   0.615 +0.00 -0.03    -0.399    45.526
ATOM     38  H   UNL d   1      13.453 -14.207   1.304 +0.01 +0.02    +0.209    45.526
ATOM     39  C   UNL d   1      15.015 -13.902   6.338 -0.02 +0.01    +0.052    45.526
ATOM     40  C   UNL d   1      14.182 -14.646   7.395 -0.04 +0.02    +0.115    45.526
ATOM     41  C   UNL d   1      13.044 -13.836   7.979 -0.10 +0.03    +0.139    45.526
ATOM     42  O   UNL d   1      13.246 -12.678   8.317 +0.01 -0.06    -0.650    45.526
ATOM     43  O   UNL d   1      11.788 -14.328   8.056 -0.35 -0.52    -0.776    45.526
ATOM     44  H   UNL d   1      11.103 -13.920   8.602 -0.40 -0.03    +0.167    45.526
ATOM     45  C   UNL d   1       7.230 -10.644  -1.070 -0.40 +0.00    +0.004    45.526
ATOM     46  C   UNL d   1       7.175 -10.377  -2.372 -0.34 +0.00    +0.012    45.526
ATOM     47  C   UNL d   1      12.997  -7.121   2.855 -0.20 +0.00    +0.004    45.526
ATOM     48  C   UNL d   1      13.076  -6.617   4.089 -0.21 +0.00    +0.012    45.526
TER
ENDMDL
MODEL       53
USER    Run = 53
USER    Cluster Rank = 22
USER    Number of conformations in this cluster = 1
USER  
USER    RMSD from reference structure       = 32.850 A
USER  
USER    Estimated Free Energy of Binding    =   -3.85 kcal/mol  [=(1)+(2)+(3)-(4)]
USER    Estimated Inhibition Constant, Ki   =    1.50 mM (millimolar)  [Temperature = 298.15 K]
USER    
USER    (1) Final Intermolecular Energy     =   -7.43 kcal/mol
USER        vdW + Hbond + desolv Energy     =   -5.90 kcal/mol
USER        Electrostatic Energy            =   -1.54 kcal/mol
USER    (2) Final Total Internal Energy     =   -2.19 kcal/mol
USER    (3) Torsional Free Energy           =   +3.58 kcal/mol
USER    (4) Unbound System's Energy  [=(2)] =   -2.19 kcal/mol
USER    
USER    
USER  
USER    DPF = D:/Protein_go_brrr/autodock/final/mut_K82N/heme_Co/dock.dpf
USER    NEWDPF move	heme_Co_opt.pdbqt
USER    NEWDPF about	8.781000 34.984000 -0.736000
USER    NEWDPF tran0	12.882902 5.080802 19.296623
USER    NEWDPF axisangle0	-0.634561 0.644415 0.426686 143.152634
USER    NEWDPF quaternion0	-0.602037 0.611386 0.404817 0.316041
USER    NEWDPF dihe0	-167.78 122.12 49.31 111.42 -40.20 126.75 39.41 68.27 180.00 -91.00 -166.17 165.74 
USER  
USER                              x       y       z    vdW   Elec        q     RMS 
ATOM      1  C   UNL d   1      13.532   6.877  20.331 -0.02 +0.01    +0.064    32.850
ATOM      2  C   UNL d   1      11.451   6.195  16.110 -0.10 -0.00    +0.064    32.850
ATOM      3  C   UNL d   1      11.769   1.462  16.675 -0.25 -0.01    +0.064    32.850
ATOM      4  C   UNL d   1      13.543   2.129  21.155 -0.09 +0.02    +0.064    32.850
ATOM      5  C   UNL d   1      12.973   7.038  19.120 -0.01 +0.00    +0.066    32.850
ATOM      6  C   UNL d   1      12.644   8.311  18.613 -0.00 -0.00    -0.021    32.850
ATOM      7  C   UNL d   1      12.019   8.106  17.398 -0.01 -0.00    -0.025    32.850
ATOM      8  C   UNL d   1      12.009   6.720  17.208 -0.03 +0.00    +0.066    32.850
ATOM      9  C   UNL d   1      11.448   9.164  16.441 -0.04 -0.00    +0.051    32.850
ATOM     10  C   UNL d   1      11.416   4.784  15.816 -0.15 -0.00    +0.066    32.850
ATOM     11  C   UNL d   1      10.972   4.182  14.619 -0.23 +0.00    -0.021    32.850
ATOM     12  C   UNL d   1      11.079   2.802  14.810 -0.33 -0.00    +0.000    32.850
ATOM     13  C   UNL d   1      11.592   2.665  16.100 -0.19 -0.01    +0.070    32.850
ATOM     14  C   UNL d   1      10.568   4.899  13.357 -0.17 -0.01    +0.052    32.850
ATOM     15  C   UNL d   1      12.236   1.139  18.009 -0.24 -0.00    +0.066    32.850
ATOM     16  C   UNL d   1      12.258  -0.120  18.591 -0.31 +0.00    -0.021    32.850
ATOM     17  C   UNL d   1      12.767   0.067  19.884 -0.23 +0.00    +0.000    32.850
ATOM     18  C   UNL d   1      13.031   1.429  19.983 -0.16 +0.01    +0.070    32.850
ATOM     19  C   UNL d   1      11.812  -1.403  17.924 -0.46 -0.00    +0.052    32.850
ATOM     20  C   UNL d   1      13.727   3.463  21.304 -0.10 +0.03    +0.066    32.850
ATOM     21  C   UNL d   1      14.192   4.021  22.492 -0.04 -0.01    -0.025    32.850
ATOM     22  C   UNL d   1      14.226   5.386  22.275 -0.06 -0.01    -0.021    32.850
ATOM     23  C   UNL d   1      13.766   5.596  20.957 -0.05 +0.02    +0.066    32.850
ATOM     24  C   UNL d   1      14.566   3.292  23.780 -0.07 +0.03    +0.051    32.850
ATOM     25  N   UNL d   1      12.598   6.034  18.257 -0.01 -0.02    -0.248    32.850
ATOM     26  N   UNL d   1      11.847   3.865  16.686 -0.10 +0.01    -0.248    32.850
ATOM     27  N   UNL d   1      12.674   2.040  18.859 -0.14 -0.02    -0.248    32.850
ATOM     28  N   UNL d   1      13.460   4.434  20.367 -0.06 -0.06    -0.248    32.850
ATOM     29 FE   UNL d   1      12.641   3.919  18.579 -0.02 +0.00    +0.000    32.850
ATOM     30  C   UNL d   1      12.851   9.650  19.312 +0.00 +0.00    +0.052    32.850
ATOM     31  C   UNL d   1      11.715   9.923  20.297 +0.00 +0.00    +0.115    32.850
ATOM     32  C   UNL d   1      10.669   8.829  20.290 -0.01 +0.01    +0.139    32.850
ATOM     33  O   UNL d   1       9.717   8.913  19.529 +0.03 -0.01    -0.650    32.850
ATOM     34  O   UNL d   1      10.777   7.728  21.069 +0.03 -0.12    -0.776    32.850
ATOM     35  H   UNL d   1      10.191   6.961  21.011 +0.03 +0.03    +0.167    32.850
ATOM     36  C   UNL d   1      10.713   4.116  19.379 -0.05 +0.05    +0.190    32.850
ATOM     37  O   UNL d   1       9.866   5.014  20.037 -0.16 -0.12    -0.399    32.850
ATOM     38  H   UNL d   1      10.350   5.886  20.015 +0.05 +0.04    +0.209    32.850
ATOM     39  C   UNL d   1      14.619   6.431  23.302 -0.03 +0.02    +0.052    32.850
ATOM     40  C   UNL d   1      13.379   6.955  24.045 -0.05 +0.05    +0.115    32.850
ATOM     41  C   UNL d   1      12.932   6.089  25.203 -0.00 +0.14    +0.139    32.850
ATOM     42  O   UNL d   1      11.757   6.105  25.544 -0.28 -0.88    -0.650    32.850
ATOM     43  O   UNL d   1      13.778   5.232  25.817 -0.44 -0.82    -0.776    32.850
ATOM     44  H   UNL d   1      14.618   5.517  26.200 +0.01 +0.09    +0.167    32.850
ATOM     45  C   UNL d   1      10.777   1.604  13.920 -0.45 -0.00    +0.004    32.850
ATOM     46  C   UNL d   1      11.592   0.808  13.233 -0.43 -0.00    +0.012    32.850
ATOM     47  C   UNL d   1      12.956  -0.921  20.987 -0.21 +0.00    +0.004    32.850
ATOM     48  C   UNL d   1      11.953  -1.600  21.550 -0.24 +0.00    +0.012    32.850
TER
ENDMDL
MODEL       87
USER    Run = 87
USER    Cluster Rank = 23
USER    Number of conformations in this cluster = 2
USER  
USER    RMSD from reference structure       = 37.560 A
USER  
USER    Estimated Free Energy of Binding    =   -3.84 kcal/mol  [=(1)+(2)+(3)-(4)]
USER    Estimated Inhibition Constant, Ki   =    1.53 mM (millimolar)  [Temperature = 298.15 K]
USER    
USER    (1) Final Intermolecular Energy     =   -7.42 kcal/mol
USER        vdW + Hbond + desolv Energy     =   -6.84 kcal/mol
USER        Electrostatic Energy            =   -0.58 kcal/mol
USER    (2) Final Total Internal Energy     =   -2.70 kcal/mol
USER    (3) Torsional Free Energy           =   +3.58 kcal/mol
USER    (4) Unbound System's Energy  [=(2)] =   -2.70 kcal/mol
USER    
USER    
USER  
USER    DPF = D:/Protein_go_brrr/autodock/final/mut_K82N/heme_Co/dock.dpf
USER    NEWDPF move	heme_Co_opt.pdbqt
USER    NEWDPF about	8.781000 34.984000 -0.736000
USER    NEWDPF tran0	13.004350 -4.367578 2.422937
USER    NEWDPF axisangle0	0.502616 -0.278218 0.818518 121.800437
USER    NEWDPF quaternion0	0.439173 -0.243100 0.715200 0.486332
USER    NEWDPF dihe0	119.35 109.61 -13.39 18.34 176.62 93.60 -178.55 -46.16 -72.37 -154.04 -177.84 157.38 
USER  
USER                              x       y       z    vdW   Elec        q     RMS 
ATOM      1  C   UNL d   1      12.783  -2.880   0.857 -0.19 -0.00    +0.064    37.560
ATOM      2  C   UNL d   1      14.552  -2.640   5.264 -0.17 +0.01    +0.064    37.560
ATOM      3  C   UNL d   1      13.246  -7.164   6.074 -0.23 +0.01    +0.064    37.560
ATOM      4  C   UNL d   1      11.780  -7.555   1.452 -0.21 +0.00    +0.064    37.560
ATOM      5  C   UNL d   1      13.330  -2.471   2.013 -0.13 -0.00    +0.066    37.560
ATOM      6  C   UNL d   1      13.909  -1.195   2.156 -0.14 -0.00    -0.021    37.560
ATOM      7  C   UNL d   1      14.441  -1.139   3.429 -0.10 -0.00    -0.025    37.560
ATOM      8  C   UNL d   1      14.150  -2.376   4.014 -0.06 +0.00    +0.066    37.560
ATOM      9  C   UNL d   1      15.198   0.027   4.084 -0.05 +0.00    +0.051    37.560
ATOM     10  C   UNL d   1      14.276  -3.874   5.957 -0.20 +0.01    +0.066    37.560
ATOM     11  C   UNL d   1      14.548  -4.159   7.313 -0.21 -0.00    -0.021    37.560
ATOM     12  C   UNL d   1      14.154  -5.483   7.523 -0.28 +0.00    +0.000    37.560
ATOM     13  C   UNL d   1      13.660  -5.903   6.287 -0.24 +0.01    +0.070    37.560
ATOM     14  C   UNL d   1      15.061  -3.186   8.343 -0.16 -0.00    +0.052    37.560
ATOM     15  C   UNL d   1      12.758  -7.779   4.855 -0.23 +0.01    +0.066    37.560
ATOM     16  C   UNL d   1      12.483  -9.126   4.666 -0.28 -0.00    -0.021    37.560
ATOM     17  C   UNL d   1      12.063  -9.244   3.333 -0.26 +0.00    +0.000    37.560
ATOM     18  C   UNL d   1      12.098  -7.952   2.818 -0.21 +0.00    +0.070    37.560
ATOM     19  C   UNL d   1      12.626 -10.206   5.714 -0.25 +0.01    +0.052    37.560
ATOM     20  C   UNL d   1      11.890  -6.321   0.906 -0.20 -0.00    +0.066    37.560
ATOM     21  C   UNL d   1      11.589  -6.070  -0.431 -0.16 -0.00    -0.025    37.560
ATOM     22  C   UNL d   1      11.841  -4.724  -0.624 -0.18 -0.00    -0.021    37.560
ATOM     23  C   UNL d   1      12.299  -4.219   0.611 -0.18 -0.00    +0.066    37.560
ATOM     24  C   UNL d   1      11.103  -7.068  -1.479 -0.13 +0.00    +0.051    37.560
ATOM     25  N   UNL d   1      13.457  -3.219   3.162 +0.07 -0.00    -0.248    37.560
ATOM     26  N   UNL d   1      13.683  -4.911   5.357 -0.13 -0.03    -0.248    37.560
ATOM     27  N   UNL d   1      12.546  -7.111   3.744 -0.10 -0.02    -0.248    37.560
ATOM     28  N   UNL d   1      12.332  -5.183   1.539 -0.14 +0.01    -0.248    37.560
ATOM     29 FE   UNL d   1      12.973  -5.280   3.467 -0.06 +0.00    +0.000    37.560
ATOM     30  C   UNL d   1      14.013  -0.117   1.082 -0.14 +0.01    +0.052    37.560
ATOM     31  C   UNL d   1      15.352  -0.213   0.352 -0.03 +0.01    +0.115    37.560
ATOM     32  C   UNL d   1      15.212  -0.795  -1.038 -0.07 +0.04    +0.139    37.560
ATOM     33  O   UNL d   1      14.395  -0.318  -1.810 -0.40 -0.50    -0.650    37.560
ATOM     34  O   UNL d   1      16.001  -1.804  -1.476 +0.04 -0.15    -0.776    37.560
ATOM     35  H   UNL d   1      15.679  -2.688  -1.701 +0.02 +0.03    +0.167    37.560
ATOM     36  C   UNL d   1      14.920  -5.716   2.822 -0.04 +0.01    +0.190    37.560
ATOM     37  O   UNL d   1      15.785  -5.596   1.730 +0.00 -0.01    -0.399    37.560
ATOM     38  H   UNL d   1      15.230  -5.188   1.007 +0.02 +0.01    +0.209    37.560
ATOM     39  C   UNL d   1      11.709  -3.985  -1.943 -0.22 +0.02    +0.052    37.560
ATOM     40  C   UNL d   1      13.089  -3.783  -2.591 -0.12 +0.05    +0.115    37.560
ATOM     41  C   UNL d   1      14.160  -4.728  -2.090 -0.04 +0.02    +0.139    37.560
ATOM     42  O   UNL d   1      14.350  -5.783  -2.679 +0.03 -0.05    -0.650    37.560
ATOM     43  O   UNL d   1      14.972  -4.400  -1.061 +0.05 -0.07    -0.776    37.560
ATOM     44  H   UNL d   1      14.976  -3.520  -0.663 +0.02 +0.02    +0.167    37.560
ATOM     45  C   UNL d   1      14.168  -6.389   8.747 -0.31 +0.00    +0.004    37.560
ATOM     46  C   UNL d   1      14.412  -6.113  10.026 -0.38 -0.00    +0.012    37.560
ATOM     47  C   UNL d   1      11.697 -10.464   2.553 -0.20 +0.00    +0.004    37.560
ATOM     48  C   UNL d   1      10.884 -10.445   1.494 -0.24 +0.00    +0.012    37.560
TER
ENDMDL
MODEL       38
USER    Run = 38
USER    Cluster Rank = 24
USER    Number of conformations in this cluster = 3
USER  
USER    RMSD from reference structure       = 32.418 A
USER  
USER    Estimated Free Energy of Binding    =   -3.78 kcal/mol  [=(1)+(2)+(3)-(4)]
USER    Estimated Inhibition Constant, Ki   =    1.70 mM (millimolar)  [Temperature = 298.15 K]
USER    
USER    (1) Final Intermolecular Energy     =   -7.36 kcal/mol
USER        vdW + Hbond + desolv Energy     =   -7.50 kcal/mol
USER        Electrostatic Energy            =   +0.14 kcal/mol
USER    (2) Final Total Internal Energy     =   -2.30 kcal/mol
USER    (3) Torsional Free Energy           =   +3.58 kcal/mol
USER    (4) Unbound System's Energy  [=(2)] =   -2.30 kcal/mol
USER    
USER    
USER  
USER    DPF = D:/Protein_go_brrr/autodock/final/mut_K82N/heme_Co/dock.dpf
USER    NEWDPF move	heme_Co_opt.pdbqt
USER    NEWDPF about	8.781000 34.984000 -0.736000
USER    NEWDPF tran0	11.847367 3.870731 16.932217
USER    NEWDPF axisangle0	-0.168930 0.738915 -0.652278 -87.715240
USER    NEWDPF quaternion0	-0.117047 0.511971 -0.451943 -0.721064
USER    NEWDPF dihe0	180.00 106.21 -13.01 65.83 -94.04 133.49 36.54 -117.37 157.76 -79.47 -157.43 -7.51 
USER  
USER                              x       y       z    vdW   Elec        q     RMS 
ATOM      1  C   UNL d   1      11.265   5.895  17.460 -0.09 +0.00    +0.064    32.418
ATOM      2  C   UNL d   1      13.088   2.325  20.018 -0.17 +0.01    +0.064    32.418
ATOM      3  C   UNL d   1      12.795  -0.583  16.238 -0.30 -0.01    +0.064    32.418
ATOM      4  C   UNL d   1      11.294   3.148  13.501 -0.15 -0.01    +0.064    32.418
ATOM      5  C   UNL d   1      11.751   5.124  18.446 -0.11 +0.01    +0.066    32.418
ATOM      6  C   UNL d   1      12.051   5.642  19.721 -0.09 -0.00    -0.021    32.418
ATOM      7  C   UNL d   1      12.601   4.607  20.452 -0.12 -0.01    -0.025    32.418
ATOM      8  C   UNL d   1      12.597   3.499  19.599 -0.16 +0.01    +0.066    32.418
ATOM      9  C   UNL d   1      13.115   4.645  21.900 +0.01 +0.03    +0.051    32.418
ATOM     10  C   UNL d   1      13.102   1.125  19.220 -0.17 +0.01    +0.066    32.418
ATOM     11  C   UNL d   1      13.472  -0.169  19.649 -0.16 -0.00    -0.021    32.418
ATOM     12  C   UNL d   1      13.374  -0.998  18.528 -0.22 +0.00    +0.000    32.418
ATOM     13  C   UNL d   1      12.940  -0.154  17.505 -0.24 -0.00    +0.070    32.418
ATOM     14  C   UNL d   1      13.801  -0.581  21.060 -0.12 +0.01    +0.052    32.418
ATOM     15  C   UNL d   1      12.409   0.160  15.055 -0.27 -0.02    +0.066    32.418
ATOM     16  C   UNL d   1      12.419  -0.310  13.749 -0.34 +0.01    -0.021    32.418
ATOM     17  C   UNL d   1      11.989   0.763  12.955 -0.35 -0.00    +0.000    32.418
ATOM     18  C   UNL d   1      11.734   1.801  13.845 -0.26 -0.01    +0.070    32.418
ATOM     19  C   UNL d   1      12.821  -1.704  13.321 -0.46 -0.02    +0.052    32.418
ATOM     20  C   UNL d   1      11.122   4.198  14.339 -0.22 -0.01    +0.066    32.418
ATOM     21  C   UNL d   1      10.731   5.455  13.884 -0.23 +0.00    -0.025    32.418
ATOM     22  C   UNL d   1      10.686   6.261  15.008 -0.20 +0.00    -0.021    32.418
ATOM     23  C   UNL d   1      11.067   5.451  16.099 -0.15 -0.00    +0.066    32.418
ATOM     24  C   UNL d   1      10.433   5.875  12.447 -0.29 -0.00    +0.051    32.418
ATOM     25  N   UNL d   1      12.071   3.788  18.351 -0.12 -0.02    -0.248    32.418
ATOM     26  N   UNL d   1      12.722   1.116  17.938 -0.14 +0.00    -0.248    32.418
ATOM     27  N   UNL d   1      12.023   1.416  15.083 -0.15 +0.05    -0.248    32.418
ATOM     28  N   UNL d   1      11.334   4.203  15.698 -0.13 +0.02    -0.248    32.418
ATOM     29 FE   UNL d   1      12.044   2.534  16.618 -0.05 -0.00    +0.000    32.418
ATOM     30  C   UNL d   1      11.889   7.088  20.177 -0.04 +0.01    +0.052    32.418
ATOM     31  C   UNL d   1      12.965   7.973  19.548 -0.01 +0.01    +0.115    32.418
ATOM     32  C   UNL d   1      14.198   7.190  19.152 -0.01 +0.01    +0.139    32.418
ATOM     33  O   UNL d   1      15.130   7.099  19.936 +0.01 -0.05    -0.650    32.418
ATOM     34  O   UNL d   1      14.285   6.540  17.967 +0.02 -0.03    -0.776    32.418
ATOM     35  H   UNL d   1      15.077   6.079  17.657 +0.00 +0.00    +0.167    32.418
ATOM     36  C   UNL d   1      14.017   3.156  16.276 -0.03 -0.00    +0.190    32.418
ATOM     37  O   UNL d   1      14.932   4.172  16.572 +0.00 -0.00    -0.399    32.418
ATOM     38  H   UNL d   1      14.400   4.863  17.057 +0.01 +0.00    +0.209    32.418
ATOM     39  C   UNL d   1      10.358   7.742  15.015 -0.20 -0.00    +0.052    32.418
ATOM     40  C   UNL d   1       8.860   7.965  15.286 -0.13 -0.01    +0.115    32.418
ATOM     41  C   UNL d   1       8.519   8.221  16.739 -0.20 -0.02    +0.139    32.418
ATOM     42  O   UNL d   1       9.394   8.611  17.499 +0.04 +0.04    -0.650    32.418
ATOM     43  O   UNL d   1       7.254   8.114  17.201 +0.04 +0.25    -0.776    32.418
ATOM     44  H   UNL d   1       6.499   7.963  16.617 -0.49 -0.11    +0.167    32.418
ATOM     45  C   UNL d   1      13.620  -2.485  18.311 -0.23 +0.00    +0.004    32.418
ATOM     46  C   UNL d   1      13.083  -3.547  18.905 -0.24 +0.00    +0.012    32.418
ATOM     47  C   UNL d   1      11.864   0.861  11.470 -0.32 -0.00    +0.004    32.418
ATOM     48  C   UNL d   1      12.591   1.696  10.723 -0.26 -0.00    +0.012    32.418
TER
ENDMDL
MODEL       68
USER    Run = 68
USER    Cluster Rank = 25
USER    Number of conformations in this cluster = 1
USER  
USER    RMSD from reference structure       = 33.987 A
USER  
USER    Estimated Free Energy of Binding    =   -3.78 kcal/mol  [=(1)+(2)+(3)-(4)]
USER    Estimated Inhibition Constant, Ki   =    1.71 mM (millimolar)  [Temperature = 298.15 K]
USER    
USER    (1) Final Intermolecular Energy     =   -7.35 kcal/mol
USER        vdW + Hbond + desolv Energy     =   -5.95 kcal/mol
USER        Electrostatic Energy            =   -1.41 kcal/mol
USER    (2) Final Total Internal Energy     =   -2.22 kcal/mol
USER    (3) Torsional Free Energy           =   +3.58 kcal/mol
USER    (4) Unbound System's Energy  [=(2)] =   -2.22 kcal/mol
USER    
USER    
USER  
USER    DPF = D:/Protein_go_brrr/autodock/final/mut_K82N/heme_Co/dock.dpf
USER    NEWDPF move	heme_Co_opt.pdbqt
USER    NEWDPF about	8.781000 34.984000 -0.736000
USER    NEWDPF tran0	-7.872923 7.300231 -16.965545
USER    NEWDPF axisangle0	0.728611 -0.643284 -0.235184 81.073681
USER    NEWDPF quaternion0	0.473551 -0.418094 -0.152855 0.759988
USER    NEWDPF dihe0	-166.70 118.54 -25.35 82.97 128.50 136.28 35.75 -3.77 179.11 93.76 -170.51 40.98 
USER  
USER                              x       y       z    vdW   Elec        q     RMS 
ATOM      1  C   UNL d   1      -9.772   7.148 -15.923 -0.10 +0.00    +0.064    33.987
ATOM      2  C   UNL d   1      -5.507   8.765 -14.576 -0.21 -0.01    +0.064    33.987
ATOM      3  C   UNL d   1      -3.626   7.387 -18.747 -0.22 -0.02    +0.064    33.987
ATOM      4  C   UNL d   1      -8.049   6.080 -20.294 -0.11 -0.01    +0.064    33.987
ATOM      5  C   UNL d   1      -8.737   7.658 -15.234 -0.10 +0.00    +0.066    33.987
ATOM      6  C   UNL d   1      -8.901   8.245 -13.964 -0.08 -0.00    -0.021    33.987
ATOM      7  C   UNL d   1      -7.665   8.733 -13.588 -0.10 +0.00    -0.025    33.987
ATOM      8  C   UNL d   1      -6.797   8.409 -14.637 +0.04 -0.01    +0.066    33.987
ATOM      9  C   UNL d   1      -7.299   9.478 -12.295 -0.17 -0.00    +0.051    33.987
ATOM     10  C   UNL d   1      -4.535   8.453 -15.594 -0.23 -0.01    +0.066    33.987
ATOM     11  C   UNL d   1      -3.143   8.675 -15.527 -0.31 +0.01    -0.021    33.987
ATOM     12  C   UNL d   1      -2.618   8.260 -16.754 -0.28 -0.00    +0.000    33.987
ATOM     13  C   UNL d   1      -3.725   7.806 -17.473 -0.24 -0.02    +0.070    33.987
ATOM     14  C   UNL d   1      -2.374   9.161 -14.325 -0.36 -0.01    +0.052    33.987
ATOM     15  C   UNL d   1      -4.667   6.937 -19.650 -0.18 -0.02    +0.066    33.987
ATOM     16  C   UNL d   1      -4.520   6.655 -21.000 -0.11 +0.00    -0.021    33.987
ATOM     17  C   UNL d   1      -5.793   6.280 -21.452 -0.14 -0.00    +0.000    33.987
ATOM     18  C   UNL d   1      -6.616   6.346 -20.333 -0.15 -0.01    +0.070    33.987
ATOM     19  C   UNL d   1      -3.227   6.751 -21.780 -0.10 -0.01    +0.052    33.987
ATOM     20  C   UNL d   1      -8.886   6.221 -19.239 -0.12 -0.00    +0.066    33.987
ATOM     21  C   UNL d   1     -10.252   5.968 -19.335 -0.08 -0.00    -0.025    33.987
ATOM     22  C   UNL d   1     -10.771   6.240 -18.081 -0.08 -0.00    -0.021    33.987
ATOM     23  C   UNL d   1      -9.687   6.660 -17.280 -0.12 +0.00    +0.066    33.987
ATOM     24  C   UNL d   1     -11.031   5.510 -20.565 -0.05 +0.00    +0.051    33.987
ATOM     25  N   UNL d   1      -7.433   7.738 -15.667 -0.10 +0.02    -0.248    33.987
ATOM     26  N   UNL d   1      -4.874   7.871 -16.749 -0.17 +0.07    -0.248    33.987
ATOM     27  N   UNL d   1      -5.919   6.770 -19.285 -0.09 +0.08    -0.248    33.987
ATOM     28  N   UNL d   1      -8.545   6.652 -17.978 -0.11 +0.02    -0.248    33.987
ATOM     29 FE   UNL d   1      -6.634   7.223 -17.584 -0.04 -0.00    +0.000    33.987
ATOM     30  C   UNL d   1     -10.209   8.396 -13.194 -0.05 +0.00    +0.052    33.987
ATOM     31  C   UNL d   1     -10.931   9.677 -13.609 -0.01 +0.01    +0.115    33.987
ATOM     32  C   UNL d   1     -10.139  10.487 -14.613 -0.01 +0.00    +0.139    33.987
ATOM     33  O   UNL d   1      -9.405  11.381 -14.218 +0.02 -0.03    -0.650    33.987
ATOM     34  O   UNL d   1     -10.180  10.224 -15.939 +0.01 -0.00    -0.776    33.987
ATOM     35  H   UNL d   1      -9.596  10.632 -16.593 +0.01 -0.01    +0.167    33.987
ATOM     36  C   UNL d   1      -7.076   9.187 -18.170 -0.03 -0.03    +0.190    33.987
ATOM     37  O   UNL d   1      -7.846  10.305 -17.831 +0.00 +0.04    -0.399    33.987
ATOM     38  H   UNL d   1      -8.280  10.063 -16.965 +0.02 -0.02    +0.209    33.987
ATOM     39  C   UNL d   1     -12.237   6.162 -17.700 -0.05 +0.01    +0.052    33.987
ATOM     40  C   UNL d   1     -12.398   5.612 -16.273 -0.08 +0.04    +0.115    33.987
ATOM     41  C   UNL d   1     -12.569   4.109 -16.197 -0.12 +0.12    +0.139    33.987
ATOM     42  O   UNL d   1     -11.928   3.475 -15.372 -0.07 -0.69    -0.650    33.987
ATOM     43  O   UNL d   1     -13.476   3.459 -16.959 -0.59 -1.06    -0.776    33.987
ATOM     44  H   UNL d   1     -14.223   3.908 -17.375 +0.01 +0.12    +0.167    33.987
ATOM     45  C   UNL d   1      -1.205   8.224 -17.321 -0.31 -0.00    +0.004    33.987
ATOM     46  C   UNL d   1      -0.188   7.408 -17.057 -0.42 -0.00    +0.012    33.987
ATOM     47  C   UNL d   1      -6.252   5.930 -22.829 -0.08 -0.00    +0.004    33.987
ATOM     48  C   UNL d   1      -6.544   4.685 -23.215 -0.09 -0.00    +0.012    33.987
TER
ENDMDL
MODEL       77
USER    Run = 77
USER    Cluster Rank = 26
USER    Number of conformations in this cluster = 1
USER  
USER    RMSD from reference structure       = 30.130 A
USER  
USER    Estimated Free Energy of Binding    =   -3.74 kcal/mol  [=(1)+(2)+(3)-(4)]
USER    Estimated Inhibition Constant, Ki   =    1.82 mM (millimolar)  [Temperature = 298.15 K]
USER    
USER    (1) Final Intermolecular Energy     =   -7.32 kcal/mol
USER        vdW + Hbond + desolv Energy     =   -6.51 kcal/mol
USER        Electrostatic Energy            =   -0.80 kcal/mol
USER    (2) Final Total Internal Energy     =   -2.01 kcal/mol
USER    (3) Torsional Free Energy           =   +3.58 kcal/mol
USER    (4) Unbound System's Energy  [=(2)] =   -2.01 kcal/mol
USER    
USER    
USER  
USER    DPF = D:/Protein_go_brrr/autodock/final/mut_K82N/heme_Co/dock.dpf
USER    NEWDPF move	heme_Co_opt.pdbqt
USER    NEWDPF about	8.781000 34.984000 -0.736000
USER    NEWDPF tran0	11.699681 4.368749 12.620786
USER    NEWDPF axisangle0	-0.508179 0.052286 -0.859663 -91.468268
USER    NEWDPF quaternion0	-0.363912 0.037442 -0.615612 -0.697989
USER    NEWDPF dihe0	55.34 91.79 -161.67 -111.01 -60.72 85.78 -125.10 118.63 19.30 152.10 -3.70 167.33 
USER  
USER                              x       y       z    vdW   Elec        q     RMS 
ATOM      1  C   UNL d   1      11.227   5.680  10.956 -0.21 -0.00    +0.064    30.130
ATOM      2  C   UNL d   1      11.183   6.350  15.663 -0.13 -0.00    +0.064    30.130
ATOM      3  C   UNL d   1      12.235   1.743  16.366 -0.21 -0.01    +0.064    30.130
ATOM      4  C   UNL d   1      12.665   1.121  11.561 -0.17 -0.01    +0.064    30.130
ATOM      5  C   UNL d   1      11.102   6.193  12.191 -0.20 -0.00    +0.066    30.130
ATOM      6  C   UNL d   1      10.861   7.564  12.410 -0.19 -0.00    -0.021    30.130
ATOM      7  C   UNL d   1      10.872   7.757  13.778 -0.16 -0.00    -0.025    30.130
ATOM      8  C   UNL d   1      11.103   6.494  14.335 -0.15 -0.00    +0.066    30.130
ATOM      9  C   UNL d   1      10.676   9.073  14.545 -0.13 +0.00    +0.051    30.130
ATOM     10  C   UNL d   1      11.391   5.087  16.327 -0.13 -0.00    +0.066    30.130
ATOM     11  C   UNL d   1      11.346   4.848  17.718 -0.16 -0.00    -0.021    30.130
ATOM     12  C   UNL d   1      11.652   3.496  17.895 -0.18 +0.00    +0.000    30.130
ATOM     13  C   UNL d   1      11.849   3.009  16.602 -0.18 -0.00    +0.070    30.130
ATOM     14  C   UNL d   1      10.940   5.836  18.781 -0.13 +0.01    +0.052    30.130
ATOM     15  C   UNL d   1      12.533   1.091  15.106 -0.21 -0.01    +0.066    30.130
ATOM     16  C   UNL d   1      13.068  -0.179  14.942 -0.28 +0.00    -0.021    30.130
ATOM     17  C   UNL d   1      13.196  -0.362  13.558 -0.32 -0.00    +0.000    30.130
ATOM     18  C   UNL d   1      12.712   0.809  12.984 -0.23 -0.01    +0.070    30.130
ATOM     19  C   UNL d   1      13.424  -1.131  16.062 -0.31 -0.00    +0.052    30.130
ATOM     20  C   UNL d   1      12.280   2.285  10.984 -0.15 -0.01    +0.066    30.130
ATOM     21  C   UNL d   1      12.313   2.478   9.605 -0.23 +0.00    -0.025    30.130
ATOM     22  C   UNL d   1      11.877   3.773   9.399 -0.23 +0.00    -0.021    30.130
ATOM     23  C   UNL d   1      11.607   4.315  10.674 -0.07 -0.00    +0.066    30.130
ATOM     24  C   UNL d   1      12.759   1.483   8.536 -0.08 +0.00    +0.051    30.130
ATOM     25  N   UNL d   1      11.243   5.506  13.375 -0.13 +0.02    -0.248    30.130
ATOM     26  N   UNL d   1      11.636   3.959  15.653 -0.11 +0.02    -0.248    30.130
ATOM     27  N   UNL d   1      12.354   1.663  13.936 -0.11 +0.04    -0.248    30.130
ATOM     28  N   UNL d   1      11.852   3.418  11.636 -0.06 +0.01    -0.248    30.130
ATOM     29 FE   UNL d   1      11.831   3.470  13.669 -0.04 -0.00    +0.000    30.130
ATOM     30  C   UNL d   1      10.711   8.643  11.343 -0.17 +0.00    +0.052    30.130
ATOM     31  C   UNL d   1       9.300   8.626  10.756 -0.08 +0.02    +0.115    30.130
ATOM     32  C   UNL d   1       9.214   9.362   9.437 -0.24 +0.06    +0.139    30.130
ATOM     33  O   UNL d   1       9.124   8.725   8.398 -0.02 -0.31    -0.650    30.130
ATOM     34  O   UNL d   1       9.186  10.714   9.369 -0.18 -0.68    -0.776    30.130
ATOM     35  H   UNL d   1       9.824  11.294   9.808 +0.03 +0.08    +0.167    30.130
ATOM     36  C   UNL d   1      13.809   4.163  13.695 -0.02 -0.01    +0.190    30.130
ATOM     37  O   UNL d   1      14.807   4.715  12.885 +0.00 +0.01    -0.399    30.130
ATOM     38  H   UNL d   1      14.547   4.469  11.954 +0.02 -0.01    +0.209    30.130
ATOM     39  C   UNL d   1      11.788   4.468   8.053 -0.01 +0.00    +0.052    30.130
ATOM     40  C   UNL d   1      13.093   5.219   7.743 -0.08 -0.00    +0.115    30.130
ATOM     41  C   UNL d   1      13.787   5.795   8.959 -0.04 -0.00    +0.139    30.130
ATOM     42  O   UNL d   1      13.704   6.994   9.183 +0.02 -0.00    -0.650    30.130
ATOM     43  O   UNL d   1      14.424   5.007   9.853 +0.03 +0.01    -0.776    30.130
ATOM     44  H   UNL d   1      14.564   5.271  10.772 +0.01 -0.00    +0.167    30.130
ATOM     45  C   UNL d   1      11.762   2.608  19.127 -0.21 +0.00    +0.004    30.130
ATOM     46  C   UNL d   1      12.793   1.918  19.608 -0.20 +0.00    +0.012    30.130
ATOM     47  C   UNL d   1      13.772  -1.510  12.797 -0.24 -0.00    +0.004    30.130
ATOM     48  C   UNL d   1      15.080  -1.670  12.581 -0.26 -0.00    +0.012    30.130
TER
ENDMDL
MODEL       67
USER    Run = 67
USER    Cluster Rank = 27
USER    Number of conformations in this cluster = 1
USER  
USER    RMSD from reference structure       = 35.680 A
USER  
USER    Estimated Free Energy of Binding    =   -3.66 kcal/mol  [=(1)+(2)+(3)-(4)]
USER    Estimated Inhibition Constant, Ki   =    2.08 mM (millimolar)  [Temperature = 298.15 K]
USER    
USER    (1) Final Intermolecular Energy     =   -7.24 kcal/mol
USER        vdW + Hbond + desolv Energy     =   -4.98 kcal/mol
USER        Electrostatic Energy            =   -2.26 kcal/mol
USER    (2) Final Total Internal Energy     =   -2.01 kcal/mol
USER    (3) Torsional Free Energy           =   +3.58 kcal/mol
USER    (4) Unbound System's Energy  [=(2)] =   -2.01 kcal/mol
USER    
USER    
USER  
USER    DPF = D:/Protein_go_brrr/autodock/final/mut_K82N/heme_Co/dock.dpf
USER    NEWDPF move	heme_Co_opt.pdbqt
USER    NEWDPF about	8.781000 34.984000 -0.736000
USER    NEWDPF tran0	13.897275 2.565648 21.043133
USER    NEWDPF axisangle0	-0.036627 0.903234 -0.427582 -108.367539
USER    NEWDPF quaternion0	-0.029700 0.732431 -0.346725 -0.585187
USER    NEWDPF dihe0	-163.81 96.46 -128.40 104.53 65.70 166.65 -59.88 103.55 86.79 -70.21 27.30 -14.11 
USER  
USER                              x       y       z    vdW   Elec        q     RMS 
ATOM      1  C   UNL d   1      13.938   4.215  22.455 -0.01 +0.04    +0.064    35.680
ATOM      2  C   UNL d   1      15.859  -0.133  22.566 -0.02 +0.01    +0.064    35.680
ATOM      3  C   UNL d   1      13.673  -1.245  18.465 -0.18 +0.00    +0.064    35.680
ATOM      4  C   UNL d   1      12.011   3.315  18.131 -0.18 +0.00    +0.064    35.680
ATOM      5  C   UNL d   1      14.594   3.097  22.805 -0.08 +0.03    +0.066    35.680
ATOM      6  C   UNL d   1      15.429   3.044  23.938 -0.06 -0.01    -0.021    35.680
ATOM      7  C   UNL d   1      16.001   1.787  23.953 -0.03 -0.01    -0.025    35.680
ATOM      8  C   UNL d   1      15.480   1.122  22.838 -0.04 +0.02    +0.066    35.680
ATOM      9  C   UNL d   1      17.003   1.220  24.970 -0.00 +0.01    +0.051    35.680
ATOM     10  C   UNL d   1      15.356  -0.906  21.457 -0.03 +0.01    +0.066    35.680
ATOM     11  C   UNL d   1      15.606  -2.271  21.198 -0.03 -0.00    -0.021    35.680
ATOM     12  C   UNL d   1      14.954  -2.570  19.999 -0.08 +0.00    +0.000    35.680
ATOM     13  C   UNL d   1      14.345  -1.372  19.623 -0.08 +0.01    +0.070    35.680
ATOM     14  C   UNL d   1      16.342  -3.230  22.099 -0.01 +0.00    +0.052    35.680
ATOM     15  C   UNL d   1      13.030  -0.075  17.899 -0.22 -0.00    +0.066    35.680
ATOM     16  C   UNL d   1      12.477   0.026  16.630 -0.32 +0.00    -0.021    35.680
ATOM     17  C   UNL d   1      11.998   1.341  16.528 -0.28 -0.00    +0.000    35.680
ATOM     18  C   UNL d   1      12.284   1.934  17.753 -0.21 -0.00    +0.070    35.680
ATOM     19  C   UNL d   1      12.427  -1.083  15.604 -0.18 -0.01    +0.052    35.680
ATOM     20  C   UNL d   1      12.356   3.938  19.283 -0.16 +0.01    +0.066    35.680
ATOM     21  C   UNL d   1      12.070   5.282  19.516 -0.11 -0.00    -0.025    35.680
ATOM     22  C   UNL d   1      12.588   5.562  20.767 -0.09 -0.01    -0.021    35.680
ATOM     23  C   UNL d   1      13.180   4.369  21.234 -0.09 +0.03    +0.066    35.680
ATOM     24  C   UNL d   1      11.356   6.257  18.584 -0.09 +0.00    +0.051    35.680
ATOM     25  N   UNL d   1      14.601   1.908  22.112 -0.06 -0.09    -0.248    35.680
ATOM     26  N   UNL d   1      14.542  -0.382  20.534 -0.03 -0.03    -0.248    35.680
ATOM     27  N   UNL d   1      12.925   1.071  18.533 -0.12 -0.01    -0.248    35.680
ATOM     28  N   UNL d   1      13.044   3.384  20.338 -0.10 -0.07    -0.248    35.680
ATOM     29 FE   UNL d   1      13.711   1.468  20.217 -0.03 +0.00    +0.000    35.680
ATOM     30  C   UNL d   1      15.718   4.184  24.909 -0.04 +0.02    +0.052    35.680
ATOM     31  C   UNL d   1      15.099   3.896  26.276 -0.05 +0.06    +0.115    35.680
ATOM     32  C   UNL d   1      13.735   4.531  26.438 +0.10 +0.17    +0.139    35.680
ATOM     33  O   UNL d   1      13.048   4.243  27.407 -0.16 -0.82    -0.650    35.680
ATOM     34  O   UNL d   1      13.264   5.452  25.564 -0.49 -1.03    -0.776    35.680
ATOM     35  H   UNL d   1      12.481   5.998  25.719 -0.00 +0.22    +0.167    35.680
ATOM     36  C   UNL d   1      15.504   2.122  19.350 -0.02 +0.02    +0.190    35.680
ATOM     37  O   UNL d   1      16.827   2.465  19.650 +0.00 -0.03    -0.399    35.680
ATOM     38  H   UNL d   1      16.836   2.612  20.637 +0.01 +0.02    +0.209    35.680
ATOM     39  C   UNL d   1      12.570   6.920  21.443 -0.05 +0.01    +0.052    35.680
ATOM     40  C   UNL d   1      11.264   7.117  22.230 -0.06 +0.04    +0.115    35.680
ATOM     41  C   UNL d   1      11.411   6.973  23.730 -0.07 +0.08    +0.139    35.680
ATOM     42  O   UNL d   1      10.794   6.090  24.310 -0.00 -0.71    -0.650    35.680
ATOM     43  O   UNL d   1      12.274   7.737  24.436 +0.01 -0.30    -0.776    35.680
ATOM     44  H   UNL d   1      12.980   7.359  24.977 +0.01 +0.07    +0.167    35.680
ATOM     45  C   UNL d   1      14.820  -3.846  19.179 -0.16 +0.00    +0.004    35.680
ATOM     46  C   UNL d   1      13.856  -4.762  19.154 -0.22 +0.00    +0.012    35.680
ATOM     47  C   UNL d   1      11.364   2.037  15.369 -0.36 -0.00    +0.004    35.680
ATOM     48  C   UNL d   1      10.423   1.483  14.601 -0.53 -0.00    +0.012    35.680
TER
ENDMDL
MODEL        1
USER    Run = 1
USER    Cluster Rank = 28
USER    Number of conformations in this cluster = 7
USER  
USER    RMSD from reference structure       = 22.291 A
USER  
USER    Estimated Free Energy of Binding    =   -3.54 kcal/mol  [=(1)+(2)+(3)-(4)]
USER    Estimated Inhibition Constant, Ki   =    2.53 mM (millimolar)  [Temperature = 298.15 K]
USER    
USER    (1) Final Intermolecular Energy     =   -7.12 kcal/mol
USER        vdW + Hbond + desolv Energy     =   -7.07 kcal/mol
USER        Electrostatic Energy            =   -0.05 kcal/mol
USER    (2) Final Total Internal Energy     =   -2.37 kcal/mol
USER    (3) Torsional Free Energy           =   +3.58 kcal/mol
USER    (4) Unbound System's Energy  [=(2)] =   -2.37 kcal/mol
USER    
USER    
USER  
USER    DPF = D:/Protein_go_brrr/autodock/final/mut_K82N/heme_Co/dock.dpf
USER    NEWDPF move	heme_Co_opt.pdbqt
USER    NEWDPF about	8.781000 34.984000 -0.736000
USER    NEWDPF tran0	7.722957 15.460155 -11.699309
USER    NEWDPF axisangle0	-0.505133 -0.860688 -0.063699 -132.005571
USER    NEWDPF quaternion0	-0.461472 -0.786294 -0.058193 -0.406692
USER    NEWDPF dihe0	160.17 116.48 31.80 77.46 104.94 91.73 -90.62 73.43 71.16 19.63 -24.25 160.36 
USER  
USER                              x       y       z    vdW   Elec        q     RMS 
ATOM      1  C   UNL d   1       9.077  14.034 -12.619 -0.15 +0.01    +0.064    22.291
ATOM      2  C   UNL d   1       4.527  15.123 -13.466 -0.22 -0.01    +0.064    22.291
ATOM      3  C   UNL d   1       4.498  18.081  -9.714 +0.04 -0.03    +0.064    22.291
ATOM      4  C   UNL d   1       9.251  17.280  -9.062 -0.09 -0.00    +0.064    22.291
ATOM      5  C   UNL d   1       7.826  14.086 -13.104 -0.19 +0.01    +0.066    22.291
ATOM      6  C   UNL d   1       7.447  13.396 -14.272 -0.21 -0.00    -0.021    22.291
ATOM      7  C   UNL d   1       6.132  13.733 -14.526 -0.21 -0.00    -0.025    22.291
ATOM      8  C   UNL d   1       5.760  14.602 -13.494 -0.24 +0.00    +0.066    22.291
ATOM      9  C   UNL d   1       5.247  13.265 -15.691 -0.14 +0.01    +0.051    22.291
ATOM     10  C   UNL d   1       4.046  16.003 -12.430 -0.25 -0.01    +0.066    22.291
ATOM     11  C   UNL d   1       2.724  16.471 -12.267 -0.29 +0.01    -0.021    22.291
ATOM     12  C   UNL d   1       2.743  17.328 -11.164 -0.27 -0.00    +0.000    22.291
ATOM     13  C   UNL d   1       4.068  17.310 -10.729 -0.21 -0.02    +0.070    22.291
ATOM     14  C   UNL d   1       1.520  16.039 -13.065 -0.31 -0.03    +0.052    22.291
ATOM     15  C   UNL d   1       5.834  18.226  -9.171 -0.19 -0.02    +0.066    22.291
ATOM     16  C   UNL d   1       6.238  19.148  -8.216 -0.22 +0.01    -0.021    22.291
ATOM     17  C   UNL d   1       7.609  18.923  -8.026 -0.18 -0.00    +0.000    22.291
ATOM     18  C   UNL d   1       7.930  17.865  -8.871 -0.12 -0.01    +0.070    22.291
ATOM     19  C   UNL d   1       5.344  20.169  -7.548 -0.28 -0.02    +0.052    22.291
ATOM     20  C   UNL d   1       9.604  16.310  -9.939 -0.17 -0.00    +0.066    22.291
ATOM     21  C   UNL d   1      10.915  15.854 -10.056 -0.17 -0.00    -0.025    22.291
ATOM     22  C   UNL d   1      10.890  14.897 -11.054 -0.21 -0.00    -0.021    22.291
ATOM     23  C   UNL d   1       9.557  14.825 -11.509 -0.23 +0.00    +0.066    22.291
ATOM     24  C   UNL d   1      12.137  16.321  -9.269 -0.12 -0.00    +0.051    22.291
ATOM     25  N   UNL d   1       6.788  14.833 -12.596 -0.17 -0.00    -0.248    22.291
ATOM     26  N   UNL d   1       4.843  16.465 -11.461 -0.17 +0.05    -0.248    22.291
ATOM     27  N   UNL d   1       6.855  17.496  -9.559 -0.17 +0.05    -0.248    22.291
ATOM     28  N   UNL d   1       8.775  15.680 -10.839 -0.19 +0.00    -0.248    22.291
ATOM     29 FE   UNL d   1       6.827  16.243 -10.986 -0.05 -0.00    +0.000    22.291
ATOM     30  C   UNL d   1       8.343  12.519 -15.141 -0.16 +0.01    +0.052    22.291
ATOM     31  C   UNL d   1       8.904  11.353 -14.329 -0.20 +0.05    +0.115    22.291
ATOM     32  C   UNL d   1      10.394  11.479 -14.091 -0.13 +0.02    +0.139    22.291
ATOM     33  O   UNL d   1      10.856  11.176 -13.001 -0.01 -0.09    -0.650    22.291
ATOM     34  O   UNL d   1      11.245  11.874 -15.066 +0.05 -0.06    -0.776    22.291
ATOM     35  H   UNL d   1      12.107  12.281 -14.903 +0.02 +0.00    +0.167    22.291
ATOM     36  C   UNL d   1       7.330  17.691 -12.416 -0.03 -0.02    +0.190    22.291
ATOM     37  O   UNL d   1       8.316  18.048 -13.341 +0.00 +0.03    -0.399    22.291
ATOM     38  H   UNL d   1       8.984  17.308 -13.303 +0.02 -0.01    +0.209    22.291
ATOM     39  C   UNL d   1      12.098  14.145 -11.582 -0.15 +0.00    +0.052    22.291
ATOM     40  C   UNL d   1      12.616  14.790 -12.877 -0.03 -0.00    +0.115    22.291
ATOM     41  C   UNL d   1      13.592  13.933 -13.655 -0.01 -0.00    +0.139    22.291
ATOM     42  O   UNL d   1      14.473  14.474 -14.309 +0.00 +0.02    -0.650    22.291
ATOM     43  O   UNL d   1      13.572  12.584 -13.578 +0.03 +0.01    -0.776    22.291
ATOM     44  H   UNL d   1      12.750  12.080 -13.525 +0.03 +0.00    +0.167    22.291
ATOM     45  C   UNL d   1       1.664  18.143 -10.463 -0.32 -0.00    +0.004    22.291
ATOM     46  C   UNL d   1       0.624  17.753  -9.731 -0.49 -0.00    +0.012    22.291
ATOM     47  C   UNL d   1       8.587  19.655  -7.167 -0.13 -0.00    +0.004    22.291
ATOM     48  C   UNL d   1       8.749  19.412  -5.864 -0.17 -0.00    +0.012    22.291
TER
ENDMDL
MODEL       47
USER    Run = 47
USER    Cluster Rank = 29
USER    Number of conformations in this cluster = 2
USER  
USER    RMSD from reference structure       = 40.536 A
USER  
USER    Estimated Free Energy of Binding    =   -3.52 kcal/mol  [=(1)+(2)+(3)-(4)]
USER    Estimated Inhibition Constant, Ki   =    2.64 mM (millimolar)  [Temperature = 298.15 K]
USER    
USER    (1) Final Intermolecular Energy     =   -7.10 kcal/mol
USER        vdW + Hbond + desolv Energy     =   -6.84 kcal/mol
USER        Electrostatic Energy            =   -0.26 kcal/mol
USER    (2) Final Total Internal Energy     =   -2.16 kcal/mol
USER    (3) Torsional Free Energy           =   +3.58 kcal/mol
USER    (4) Unbound System's Energy  [=(2)] =   -2.16 kcal/mol
USER    
USER    
USER  
USER    DPF = D:/Protein_go_brrr/autodock/final/mut_K82N/heme_Co/dock.dpf
USER    NEWDPF move	heme_Co_opt.pdbqt
USER    NEWDPF about	8.781000 34.984000 -0.736000
USER    NEWDPF tran0	11.693439 -7.770454 1.809215
USER    NEWDPF axisangle0	0.792946 0.003835 0.609280 137.428841
USER    NEWDPF quaternion0	0.738853 0.003573 0.567717 0.363017
USER    NEWDPF dihe0	-160.11 102.69 28.48 115.54 63.95 129.69 28.52 -171.38 -175.80 66.91 179.66 -0.19 
USER  
USER                              x       y       z    vdW   Elec        q     RMS 
ATOM      1  C   UNL d   1      10.503  -7.810  -0.007 -0.11 -0.00    +0.064    40.536
ATOM      2  C   UNL d   1      12.964  -4.345   2.126 -0.12 -0.00    +0.064    40.536
ATOM      3  C   UNL d   1      13.942  -7.245   5.795 -0.17 +0.00    +0.064    40.536
ATOM      4  C   UNL d   1      11.762 -10.913   3.458 -0.10 +0.02    +0.064    40.536
ATOM      5  C   UNL d   1      11.073  -6.639   0.323 -0.23 -0.00    +0.066    40.536
ATOM      6  C   UNL d   1      11.067  -5.533  -0.548 -0.22 +0.00    -0.021    40.536
ATOM      7  C   UNL d   1      11.802  -4.538   0.066 -0.22 +0.00    -0.025    40.536
ATOM      8  C   UNL d   1      12.211  -5.073   1.292 -0.18 -0.00    +0.066    40.536
ATOM      9  C   UNL d   1      12.117  -3.132  -0.469 -0.27 +0.01    +0.051    40.536
ATOM     10  C   UNL d   1      13.409  -4.801   3.419 -0.05 +0.00    +0.066    40.536
ATOM     11  C   UNL d   1      14.081  -4.038   4.398 -0.15 -0.00    -0.021    40.536
ATOM     12  C   UNL d   1      14.351  -4.907   5.458 -0.17 +0.00    +0.000    40.536
ATOM     13  C   UNL d   1      13.814  -6.130   5.055 -0.17 +0.01    +0.070    40.536
ATOM     14  C   UNL d   1      14.352  -2.556   4.343 -0.15 +0.00    +0.052    40.536
ATOM     15  C   UNL d   1      13.497  -8.595   5.508 -0.17 +0.01    +0.066    40.536
ATOM     16  C   UNL d   1      13.788  -9.732   6.248 -0.13 -0.00    -0.021    40.536
ATOM     17  C   UNL d   1      13.164 -10.793   5.577 -0.18 +0.00    +0.000    40.536
ATOM     18  C   UNL d   1      12.524 -10.215   4.486 -0.20 +0.01    +0.070    40.536
ATOM     19  C   UNL d   1      14.617  -9.767   7.513 -0.08 +0.00    +0.052    40.536
ATOM     20  C   UNL d   1      11.204 -10.385   2.343 -0.09 +0.01    +0.066    40.536
ATOM     21  C   UNL d   1      10.525 -11.165   1.410 -0.17 -0.00    -0.025    40.536
ATOM     22  C   UNL d   1      10.126 -10.293   0.414 -0.23 -0.00    -0.021    40.536
ATOM     23  C   UNL d   1      10.595  -9.015   0.786 -0.26 +0.00    +0.066    40.536
ATOM     24  C   UNL d   1      10.286 -12.672   1.454 -0.19 +0.01    +0.051    40.536
ATOM     25  N   UNL d   1      11.768  -6.372   1.481 -0.18 +0.00    -0.248    40.536
ATOM     26  N   UNL d   1      13.196  -6.050   3.846 -0.11 -0.02    -0.248    40.536
ATOM     27  N   UNL d   1      12.769  -8.909   4.459 -0.14 -0.02    -0.248    40.536
ATOM     28  N   UNL d   1      11.251  -9.067   1.952 -0.18 -0.02    -0.248    40.536
ATOM     29 FE   UNL d   1      12.296  -7.718   3.057 -0.05 +0.00    +0.000    40.536
ATOM     30  C   UNL d   1      10.449  -5.476  -1.942 -0.22 +0.00    +0.052    40.536
ATOM     31  C   UNL d   1      11.507  -5.752  -3.010 -0.12 +0.01    +0.115    40.536
ATOM     32  C   UNL d   1      12.863  -6.061  -2.413 -0.04 +0.01    +0.139    40.536
ATOM     33  O   UNL d   1      13.721  -5.191  -2.386 +0.03 -0.08    -0.650    40.536
ATOM     34  O   UNL d   1      13.146  -7.264  -1.860 +0.05 -0.02    -0.776    40.536
ATOM     35  H   UNL d   1      13.905  -7.432  -1.284 +0.01 +0.00    +0.167    40.536
ATOM     36  C   UNL d   1      14.036  -8.137   1.964 -0.04 +0.01    +0.190    40.536
ATOM     37  O   UNL d   1      14.567  -8.134   0.670 +0.00 -0.01    -0.399    40.536
ATOM     38  H   UNL d   1      13.783  -7.983   0.072 +0.02 +0.00    +0.209    40.536
ATOM     39  C   UNL d   1       9.391 -10.683  -0.855 -0.21 +0.00    +0.052    40.536
ATOM     40  C   UNL d   1       7.892 -10.365  -0.733 -0.29 +0.01    +0.115    40.536
ATOM     41  C   UNL d   1       6.986 -11.573  -0.841 -0.39 +0.02    +0.139    40.536
ATOM     42  O   UNL d   1       7.310 -12.501  -1.569 +0.04 -0.12    -0.650    40.536
ATOM     43  O   UNL d   1       5.870 -11.694  -0.088 +0.03 -0.10    -0.776    40.536
ATOM     44  H   UNL d   1       5.324 -10.936   0.156 -0.33 -0.02    +0.167    40.536
ATOM     45  C   UNL d   1      15.033  -4.720   6.807 -0.16 +0.00    +0.004    40.536
ATOM     46  C   UNL d   1      14.525  -4.675   8.036 -0.29 +0.00    +0.012    40.536
ATOM     47  C   UNL d   1      13.186 -12.256   5.876 -0.13 +0.00    +0.004    40.536
ATOM     48  C   UNL d   1      13.074 -12.758   7.109 -0.15 +0.00    +0.012    40.536
TER
ENDMDL
MODEL       13
USER    Run = 13
USER    Cluster Rank = 30
USER    Number of conformations in this cluster = 1
USER  
USER    RMSD from reference structure       = 39.070 A
USER  
USER    Estimated Free Energy of Binding    =   -3.51 kcal/mol  [=(1)+(2)+(3)-(4)]
USER    Estimated Inhibition Constant, Ki   =    2.68 mM (millimolar)  [Temperature = 298.15 K]
USER    
USER    (1) Final Intermolecular Energy     =   -7.09 kcal/mol
USER        vdW + Hbond + desolv Energy     =   -5.91 kcal/mol
USER        Electrostatic Energy            =   -1.17 kcal/mol
USER    (2) Final Total Internal Energy     =   -1.97 kcal/mol
USER    (3) Torsional Free Energy           =   +3.58 kcal/mol
USER    (4) Unbound System's Energy  [=(2)] =   -1.97 kcal/mol
USER    
USER    
USER  
USER    DPF = D:/Protein_go_brrr/autodock/final/mut_K82N/heme_Co/dock.dpf
USER    NEWDPF move	heme_Co_opt.pdbqt
USER    NEWDPF about	8.781000 34.984000 -0.736000
USER    NEWDPF tran0	-3.494384 0.137264 20.978388
USER    NEWDPF axisangle0	0.119180 -0.657756 -0.743743 110.757306
USER    NEWDPF quaternion0	0.098076 -0.541283 -0.612045 0.568150
USER    NEWDPF dihe0	41.81 112.11 142.30 126.20 105.97 88.18 100.50 -13.87 110.55 -179.45 41.18 179.73 
USER  
USER                              x       y       z    vdW   Elec        q     RMS 
ATOM      1  C   UNL d   1      -3.667  -1.545  22.340 -0.09 +0.02    +0.064    39.070
ATOM      2  C   UNL d   1      -0.107   1.472  21.423 -0.07 -0.04    +0.064    39.070
ATOM      3  C   UNL d   1      -2.666   3.487  17.927 -0.21 -0.02    +0.064    39.070
ATOM      4  C   UNL d   1      -6.458   0.674  19.100 -0.15 -0.01    +0.064    39.070
ATOM      5  C   UNL d   1      -2.493  -0.893  22.322 -0.08 +0.02    +0.066    39.070
ATOM      6  C   UNL d   1      -1.479  -1.153  23.265 -0.11 -0.01    -0.021    39.070
ATOM      7  C   UNL d   1      -0.458  -0.259  23.009 -0.13 +0.00    -0.025    39.070
ATOM      8  C   UNL d   1      -0.884   0.496  21.911 -0.16 -0.01    +0.066    39.070
ATOM      9  C   UNL d   1       0.874  -0.109  23.760 -0.09 -0.02    +0.051    39.070
ATOM     10  C   UNL d   1      -0.451   2.282  20.282 -0.18 -0.03    +0.066    39.070
ATOM     11  C   UNL d   1       0.379   3.225  19.636 -0.22 +0.01    -0.021    39.070
ATOM     12  C   UNL d   1      -0.391   3.794  18.618 -0.24 -0.00    +0.000    39.070
ATOM     13  C   UNL d   1      -1.625   3.151  18.710 -0.20 -0.02    +0.070    39.070
ATOM     14  C   UNL d   1       1.836   3.478  19.927 -0.29 -0.03    +0.052    39.070
ATOM     15  C   UNL d   1      -4.019   2.965  17.922 -0.15 -0.02    +0.066    39.070
ATOM     16  C   UNL d   1      -5.088   3.457  17.186 -0.09 +0.01    -0.021    39.070
ATOM     17  C   UNL d   1      -6.184   2.651  17.523 -0.18 -0.00    +0.000    39.070
ATOM     18  C   UNL d   1      -5.692   1.717  18.428 -0.18 -0.01    +0.070    39.070
ATOM     19  C   UNL d   1      -5.029   4.628  16.231 -0.25 -0.02    +0.052    39.070
ATOM     20  C   UNL d   1      -6.021  -0.189  20.047 -0.13 -0.00    +0.066    39.070
ATOM     21  C   UNL d   1      -6.863  -1.124  20.646 -0.07 +0.00    -0.025    39.070
ATOM     22  C   UNL d   1      -6.078  -1.798  21.564 -0.06 -0.00    -0.021    39.070
ATOM     23  C   UNL d   1      -4.790  -1.228  21.488 -0.10 +0.01    +0.066    39.070
ATOM     24  C   UNL d   1      -8.347  -1.352  20.372 -0.04 -0.00    +0.051    39.070
ATOM     25  N   UNL d   1      -2.139   0.121  21.461 -0.12 -0.05    -0.248    39.070
ATOM     26  N   UNL d   1      -1.642   2.198  19.679 -0.13 +0.05    -0.248    39.070
ATOM     27  N   UNL d   1      -4.406   1.953  18.666 -0.15 +0.04    -0.248    39.070
ATOM     28  N   UNL d   1      -4.752  -0.252  20.573 -0.11 -0.02    -0.248    39.070
ATOM     29 FE   UNL d   1      -3.343   1.089  19.981 -0.04 +0.00    +0.000    39.070
ATOM     30  C   UNL d   1      -1.536  -2.161  24.408 -0.05 +0.01    +0.052    39.070
ATOM     31  C   UNL d   1      -0.346  -3.118  24.340 -0.06 +0.03    +0.115    39.070
ATOM     32  C   UNL d   1      -0.452  -4.092  23.187 +0.04 +0.11    +0.139    39.070
ATOM     33  O   UNL d   1      -1.556  -4.429  22.785 -0.22 -0.55    -0.650    39.070
ATOM     34  O   UNL d   1       0.641  -4.568  22.547 -0.37 -0.70    -0.776    39.070
ATOM     35  H   UNL d   1       1.473  -4.793  22.986 +0.02 +0.05    +0.167    39.070
ATOM     36  C   UNL d   1      -3.936   2.415  21.493 -0.03 -0.01    +0.190    39.070
ATOM     37  O   UNL d   1      -4.651   2.488  22.693 +0.00 +0.02    -0.399    39.070
ATOM     38  H   UNL d   1      -4.995   1.564  22.843 +0.01 -0.01    +0.209    39.070
ATOM     39  C   UNL d   1      -6.563  -2.885  22.506 -0.03 +0.00    +0.052    39.070
ATOM     40  C   UNL d   1      -7.296  -2.271  23.710 -0.00 -0.00    +0.115    39.070
ATOM     41  C   UNL d   1      -7.268  -0.758  23.755 -0.00 -0.00    +0.139    39.070
ATOM     42  O   UNL d   1      -8.322  -0.141  23.812 +0.00 +0.02    -0.650    39.070
ATOM     43  O   UNL d   1      -6.106  -0.071  23.821 +0.01 +0.01    -0.776    39.070
ATOM     44  H   UNL d   1      -5.996   0.804  23.427 +0.01 -0.00    +0.167    39.070
ATOM     45  C   UNL d   1      -0.098   4.853  17.563 -0.33 -0.00    +0.004    39.070
ATOM     46  C   UNL d   1      -0.095   4.774  16.235 -0.47 -0.00    +0.012    39.070
ATOM     47  C   UNL d   1      -7.610   2.750  17.090 -0.15 -0.00    +0.004    39.070
ATOM     48  C   UNL d   1      -8.073   2.227  15.952 -0.22 -0.00    +0.012    39.070
TER
ENDMDL
MODEL       59
USER    Run = 59
USER    Cluster Rank = 31
USER    Number of conformations in this cluster = 1
USER  
USER    RMSD from reference structure       = 36.507 A
USER  
USER    Estimated Free Energy of Binding    =   -3.45 kcal/mol  [=(1)+(2)+(3)-(4)]
USER    Estimated Inhibition Constant, Ki   =    2.94 mM (millimolar)  [Temperature = 298.15 K]
USER    
USER    (1) Final Intermolecular Energy     =   -7.03 kcal/mol
USER        vdW + Hbond + desolv Energy     =   -5.12 kcal/mol
USER        Electrostatic Energy            =   -1.91 kcal/mol
USER    (2) Final Total Internal Energy     =   -2.20 kcal/mol
USER    (3) Torsional Free Energy           =   +3.58 kcal/mol
USER    (4) Unbound System's Energy  [=(2)] =   -2.20 kcal/mol
USER    
USER    
USER  
USER    DPF = D:/Protein_go_brrr/autodock/final/mut_K82N/heme_Co/dock.dpf
USER    NEWDPF move	heme_Co_opt.pdbqt
USER    NEWDPF about	8.781000 34.984000 -0.736000
USER    NEWDPF tran0	-14.054548 3.096373 -3.343634
USER    NEWDPF axisangle0	0.565821 -0.672457 0.477125 -84.177999
USER    NEWDPF quaternion0	0.379261 -0.450737 0.319809 -0.742105
USER    NEWDPF dihe0	169.50 121.39 0.65 -94.33 158.04 136.17 -133.44 138.05 -139.66 -150.33 -175.80 -2.00 
USER  
USER                              x       y       z    vdW   Elec        q     RMS 
ATOM      1  C   UNL d   1     -14.853   3.816  -5.231 -0.07 +0.05    +0.064    36.507
ATOM      2  C   UNL d   1     -13.783  -0.546  -3.670 -0.06 +0.01    +0.064    36.507
ATOM      3  C   UNL d   1     -12.007   1.292   0.366 -0.25 -0.00    +0.064    36.507
ATOM      4  C   UNL d   1     -13.439   5.724  -1.037 -0.16 +0.02    +0.064    36.507
ATOM      5  C   UNL d   1     -14.658   2.492  -5.116 -0.08 +0.05    +0.066    36.507
ATOM      6  C   UNL d   1     -15.118   1.583  -6.089 -0.05 -0.01    -0.021    36.507
ATOM      7  C   UNL d   1     -14.825   0.317  -5.620 -0.04 -0.01    -0.025    36.507
ATOM      8  C   UNL d   1     -14.185   0.509  -4.391 -0.06 +0.02    +0.066    36.507
ATOM      9  C   UNL d   1     -15.131  -1.031  -6.291 -0.02 +0.01    +0.051    36.507
ATOM     10  C   UNL d   1     -13.093  -0.447  -2.409 -0.08 +0.00    +0.066    36.507
ATOM     11  C   UNL d   1     -12.522  -1.508  -1.673 -0.12 +0.01    -0.021    36.507
ATOM     12  C   UNL d   1     -12.008  -0.943  -0.502 -0.23 -0.00    +0.000    36.507
ATOM     13  C   UNL d   1     -12.291   0.418  -0.616 -0.18 -0.00    +0.070    36.507
ATOM     14  C   UNL d   1     -12.403  -2.941  -2.122 -0.12 -0.03    +0.052    36.507
ATOM     15  C   UNL d   1     -12.274   2.715   0.438 -0.20 +0.01    +0.066    36.507
ATOM     16  C   UNL d   1     -12.086   3.533   1.542 -0.32 -0.00    -0.021    36.507
ATOM     17  C   UNL d   1     -12.500   4.812   1.144 -0.31 +0.00    +0.000    36.507
ATOM     18  C   UNL d   1     -12.894   4.675  -0.183 -0.17 +0.02    +0.070    36.507
ATOM     19  C   UNL d   1     -11.543   3.087   2.882 -0.37 +0.00    +0.052    36.507
ATOM     20  C   UNL d   1     -13.909   5.596  -2.301 -0.12 +0.03    +0.066    36.507
ATOM     21  C   UNL d   1     -14.443   6.672  -3.007 -0.07 -0.01    -0.025    36.507
ATOM     22  C   UNL d   1     -14.832   6.158  -4.231 -0.07 -0.01    -0.021    36.507
ATOM     23  C   UNL d   1     -14.525   4.781  -4.205 -0.08 +0.05    +0.066    36.507
ATOM     24  C   UNL d   1     -14.594   8.115  -2.533 -0.04 +0.01    +0.051    36.507
ATOM     25  N   UNL d   1     -14.062   1.847  -4.057 -0.07 -0.15    -0.248    36.507
ATOM     26  N   UNL d   1     -12.897   0.725  -1.794 -0.08 -0.03    -0.248    36.507
ATOM     27  N   UNL d   1     -12.775   3.407  -0.561 -0.11 -0.07    -0.248    36.507
ATOM     28  N   UNL d   1     -13.968   4.437  -3.038 -0.10 -0.16    -0.248    36.507
ATOM     29 FE   UNL d   1     -13.381   2.677  -2.206 -0.04 +0.00    +0.000    36.507
ATOM     30  C   UNL d   1     -15.877   1.924  -7.367 -0.01 +0.02    +0.052    36.507
ATOM     31  C   UNL d   1     -17.385   1.885  -7.122 +0.00 +0.02    +0.115    36.507
ATOM     32  C   UNL d   1     -17.765   2.440  -5.767 +0.00 +0.02    +0.139    36.507
ATOM     33  O   UNL d   1     -18.134   3.601  -5.675 +0.01 -0.09    -0.650    36.507
ATOM     34  O   UNL d   1     -17.757   1.675  -4.650 +0.01 -0.08    -0.776    36.507
ATOM     35  H   UNL d   1     -17.792   2.027  -3.750 +0.00 +0.02    +0.167    36.507
ATOM     36  C   UNL d   1     -15.318   2.349  -1.475 -0.03 +0.03    +0.190    36.507
ATOM     37  O   UNL d   1     -16.637   2.115  -1.879 +0.00 -0.04    -0.399    36.507
ATOM     38  H   UNL d   1     -16.582   1.975  -2.866 +0.01 +0.03    +0.209    36.507
ATOM     39  C   UNL d   1     -15.521   6.939  -5.334 -0.02 +0.02    +0.052    36.507
ATOM     40  C   UNL d   1     -14.509   7.365  -6.411 -0.02 +0.05    +0.115    36.507
ATOM     41  C   UNL d   1     -13.270   6.497  -6.482 +0.01 +0.15    +0.139    36.507
ATOM     42  O   UNL d   1     -12.339   6.720  -5.722 -0.36 -0.84    -0.650    36.507
ATOM     43  O   UNL d   1     -13.199   5.425  -7.303 -0.10 -1.12    -0.776    36.507
ATOM     44  H   UNL d   1     -13.887   5.221  -7.950 +0.01 +0.14    +0.167    36.507
ATOM     45  C   UNL d   1     -11.269  -1.527   0.694 -0.23 -0.00    +0.004    36.507
ATOM     46  C   UNL d   1     -11.697  -1.811   1.921 -0.17 -0.01    +0.012    36.507
ATOM     47  C   UNL d   1     -12.583   6.077   1.933 -0.23 +0.00    +0.004    36.507
ATOM     48  C   UNL d   1     -12.179   7.262   1.470 -0.38 +0.00    +0.012    36.507
TER
ENDMDL
MODEL       16
USER    Run = 16
USER    Cluster Rank = 32
USER    Number of conformations in this cluster = 1
USER  
USER    RMSD from reference structure       = 24.925 A
USER  
USER    Estimated Free Energy of Binding    =   -3.44 kcal/mol  [=(1)+(2)+(3)-(4)]
USER    Estimated Inhibition Constant, Ki   =    3.01 mM (millimolar)  [Temperature = 298.15 K]
USER    
USER    (1) Final Intermolecular Energy     =   -7.02 kcal/mol
USER        vdW + Hbond + desolv Energy     =   -6.28 kcal/mol
USER        Electrostatic Energy            =   -0.74 kcal/mol
USER    (2) Final Total Internal Energy     =   -2.22 kcal/mol
USER    (3) Torsional Free Energy           =   +3.58 kcal/mol
USER    (4) Unbound System's Energy  [=(2)] =   -2.22 kcal/mol
USER    
USER    
USER  
USER    DPF = D:/Protein_go_brrr/autodock/final/mut_K82N/heme_Co/dock.dpf
USER    NEWDPF move	heme_Co_opt.pdbqt
USER    NEWDPF about	8.781000 34.984000 -0.736000
USER    NEWDPF tran0	9.242800 12.897887 -13.445091
USER    NEWDPF axisangle0	-0.777861 -0.596144 -0.198858 -110.337663
USER    NEWDPF quaternion0	-0.638498 -0.489338 -0.163230 -0.571160
USER    NEWDPF dihe0	164.13 131.55 10.62 98.84 132.61 133.54 -128.45 110.95 -136.05 -92.07 -179.70 -12.25 
USER  
USER                              x       y       z    vdW   Elec        q     RMS 
ATOM      1  C   UNL d   1       9.040  11.359 -14.964 -0.14 +0.02    +0.064    24.925
ATOM      2  C   UNL d   1       6.162  14.883 -13.582 -0.22 -0.00    +0.064    24.925
ATOM      3  C   UNL d   1       9.181  16.017 -10.057 -0.18 -0.00    +0.064    24.925
ATOM      4  C   UNL d   1      12.319  12.676 -11.687 -0.17 +0.00    +0.064    24.925
ATOM      5  C   UNL d   1       8.015  12.215 -14.823 -0.18 +0.03    +0.066    24.925
ATOM      6  C   UNL d   1       6.938  12.247 -15.730 -0.09 -0.01    -0.021    24.925
ATOM      7  C   UNL d   1       6.117  13.287 -15.337 -0.17 -0.00    -0.025    24.925
ATOM      8  C   UNL d   1       6.719  13.833 -14.199 -0.20 +0.01    +0.066    24.925
ATOM      9  C   UNL d   1       4.813  13.759 -15.999 -0.13 +0.00    +0.051    24.925
ATOM     10  C   UNL d   1       6.695  15.495 -12.390 -0.21 -0.00    +0.066    24.925
ATOM     11  C   UNL d   1       6.085  16.506 -11.616 -0.21 +0.00    -0.021    24.925
ATOM     12  C   UNL d   1       6.985  16.815 -10.593 -0.25 -0.00    +0.000    24.925
ATOM     13  C   UNL d   1       8.069  15.964 -10.810 -0.24 -0.00    +0.070    24.925
ATOM     14  C   UNL d   1       4.694  17.057 -11.804 -0.20 -0.01    +0.052    24.925
ATOM     15  C   UNL d   1      10.408  15.253 -10.173 -0.23 +0.00    +0.066    24.925
ATOM     16  C   UNL d   1      11.577  15.459  -9.453 -0.12 -0.00    -0.021    24.925
ATOM     17  C   UNL d   1      12.485  14.499  -9.921 -0.18 +0.00    +0.000    24.925
ATOM     18  C   UNL d   1      11.791  13.770 -10.882 -0.21 +0.00    +0.070    24.925
ATOM     19  C   UNL d   1      11.778  16.517  -8.392 -0.06 -0.00    +0.052    24.925
ATOM     20  C   UNL d   1      11.691  12.010 -12.685 -0.16 +0.00    +0.066    24.925
ATOM     21  C   UNL d   1      12.315  10.999 -13.412 -0.10 -0.00    -0.025    24.925
ATOM     22  C   UNL d   1      11.384  10.581 -14.345 -0.09 -0.00    -0.021    24.925
ATOM     23  C   UNL d   1      10.233  11.372 -14.148 -0.13 +0.01    +0.066    24.925
ATOM     24  C   UNL d   1      13.737  10.470 -13.241 -0.06 -0.00    +0.051    24.925
ATOM     25  N   UNL d   1       7.894  13.185 -13.854 -0.14 -0.05    -0.248    24.925
ATOM     26  N   UNL d   1       7.867  15.127 -11.863 -0.16 +0.00    -0.248    24.925
ATOM     27  N   UNL d   1      10.568  14.267 -11.026 -0.19 -0.01    -0.248    24.925
ATOM     28  N   UNL d   1      10.415  12.240 -13.145 -0.08 -0.04    -0.248    24.925
ATOM     29 FE   UNL d   1       9.312  13.755 -12.357 -0.06 +0.00    +0.000    24.925
ATOM     30  C   UNL d   1       6.760  11.367 -16.962 -0.06 +0.03    +0.052    24.925
ATOM     31  C   UNL d   1       7.274  12.081 -18.212 -0.04 +0.02    +0.115    24.925
ATOM     32  C   UNL d   1       8.580  12.806 -17.966 -0.01 +0.01    +0.139    24.925
ATOM     33  O   UNL d   1       9.627  12.306 -18.351 +0.02 -0.03    -0.650    24.925
ATOM     34  O   UNL d   1       8.625  14.022 -17.372 +0.03 -0.02    -0.776    24.925
ATOM     35  H   UNL d   1       9.413  14.392 -16.951 +0.01 +0.00    +0.167    24.925
ATOM     36  C   UNL d   1      10.096  15.092 -13.769 -0.04 +0.00    +0.190    24.925
ATOM     37  O   UNL d   1      10.165  15.348 -15.143 +0.00 +0.00    -0.399    24.925
ATOM     38  H   UNL d   1       9.419  14.818 -15.540 +0.02 +0.00    +0.209    24.925
ATOM     39  C   UNL d   1      11.618   9.524 -15.408 -0.04 +0.00    +0.052    24.925
ATOM     40  C   UNL d   1      11.261   8.127 -14.872 -0.06 +0.01    +0.115    24.925
ATOM     41  C   UNL d   1       9.786   7.793 -14.933 -0.10 +0.05    +0.139    24.925
ATOM     42  O   UNL d   1       9.150   7.700 -13.893 -0.13 -0.32    -0.650    24.925
ATOM     43  O   UNL d   1       9.131   7.679 -16.110 -0.53 -0.49    -0.776    24.925
ATOM     44  H   UNL d   1       9.591   7.564 -16.951 +0.02 +0.04    +0.167    24.925
ATOM     45  C   UNL d   1       6.938  17.798  -9.430 -0.26 -0.00    +0.004    24.925
ATOM     46  C   UNL d   1       6.497  17.645  -8.185 -0.25 -0.00    +0.012    24.925
ATOM     47  C   UNL d   1      13.918  14.284  -9.558 -0.12 -0.00    +0.004    24.925
ATOM     48  C   UNL d   1      14.354  13.223  -8.874 -0.15 -0.00    +0.012    24.925
TER
ENDMDL
MODEL       18
USER    Run = 18
USER    Cluster Rank = 33
USER    Number of conformations in this cluster = 1
USER  
USER    RMSD from reference structure       = 32.740 A
USER  
USER    Estimated Free Energy of Binding    =   -3.43 kcal/mol  [=(1)+(2)+(3)-(4)]
USER    Estimated Inhibition Constant, Ki   =    3.04 mM (millimolar)  [Temperature = 298.15 K]
USER    
USER    (1) Final Intermolecular Energy     =   -7.01 kcal/mol
USER        vdW + Hbond + desolv Energy     =   -4.67 kcal/mol
USER        Electrostatic Energy            =   -2.34 kcal/mol
USER    (2) Final Total Internal Energy     =   -3.85 kcal/mol
USER    (3) Torsional Free Energy           =   +3.58 kcal/mol
USER    (4) Unbound System's Energy  [=(2)] =   -3.85 kcal/mol
USER    
USER    
USER  
USER    DPF = D:/Protein_go_brrr/autodock/final/mut_K82N/heme_Co/dock.dpf
USER    NEWDPF move	heme_Co_opt.pdbqt
USER    NEWDPF about	8.781000 34.984000 -0.736000
USER    NEWDPF tran0	-13.330458 7.528015 -7.627382
USER    NEWDPF axisangle0	-0.761970 -0.188388 -0.619605 102.742958
USER    NEWDPF quaternion0	-0.595259 -0.147171 -0.484042 0.624269
USER    NEWDPF dihe0	55.12 105.77 -135.08 73.28 -24.77 111.32 18.57 121.77 178.08 141.82 -176.81 164.73 
USER  
USER                              x       y       z    vdW   Elec        q     RMS 
ATOM      1  C   UNL d   1     -15.135   6.442  -8.156 -0.00 +0.02    +0.064    32.740
ATOM      2  C   UNL d   1     -10.540   5.651  -9.091 -0.12 +0.04    +0.064    32.740
ATOM      3  C   UNL d   1      -9.368   9.797  -7.026 -0.22 +0.02    +0.064    32.740
ATOM      4  C   UNL d   1     -14.008  10.443  -5.718 -0.01 +0.01    +0.064    32.740
ATOM      5  C   UNL d   1     -13.970   5.938  -8.595 -0.03 +0.03    +0.066    32.740
ATOM      6  C   UNL d   1     -13.886   4.672  -9.206 -0.04 -0.01    -0.021    32.740
ATOM      7  C   UNL d   1     -12.547   4.438  -9.455 -0.08 -0.02    -0.025    32.740
ATOM      8  C   UNL d   1     -11.874   5.577  -9.000 -0.07 +0.05    +0.066    32.740
ATOM      9  C   UNL d   1     -11.911   3.194 -10.095 -0.14 +0.03    +0.051    32.740
ATOM     10  C   UNL d   1      -9.765   6.793  -8.674 -0.12 +0.03    +0.066    32.740
ATOM     11  C   UNL d   1      -8.381   6.989  -8.871 -0.17 -0.01    -0.021    32.740
ATOM     12  C   UNL d   1      -8.066   8.208  -8.262 -0.23 +0.00    +0.000    32.740
ATOM     13  C   UNL d   1      -9.280   8.669  -7.752 -0.18 +0.02    +0.070    32.740
ATOM     14  C   UNL d   1      -7.459   6.107  -9.673 -0.24 +0.01    +0.052    32.740
ATOM     15  C   UNL d   1     -10.524  10.389  -6.382 -0.17 +0.02    +0.066    32.740
ATOM     16  C   UNL d   1     -10.520  11.480  -5.524 -0.28 -0.01    -0.021    32.740
ATOM     17  C   UNL d   1     -11.856  11.668  -5.142 -0.15 +0.00    +0.000    32.740
ATOM     18  C   UNL d   1     -12.574  10.685  -5.814 -0.04 +0.02    +0.070    32.740
ATOM     19  C   UNL d   1      -9.296  12.268  -5.114 -0.15 +0.02    +0.052    32.740
ATOM     20  C   UNL d   1     -14.716   9.441  -6.293 +0.00 +0.01    +0.066    32.740
ATOM     21  C   UNL d   1     -16.087   9.292  -6.098 +0.00 -0.00    -0.025    32.740
ATOM     22  C   UNL d   1     -16.445   8.163  -6.812 +0.00 -0.00    -0.021    32.740
ATOM     23  C   UNL d   1     -15.262   7.669  -7.403 +0.00 +0.02    +0.066    32.740
ATOM     24  C   UNL d   1     -17.009  10.170  -5.255 +0.00 +0.01    +0.051    32.740
ATOM     25  N   UNL d   1     -12.731   6.526  -8.468 -0.03 -0.16    -0.248    32.740
ATOM     26  N   UNL d   1     -10.316   7.840  -8.051 -0.06 -0.11    -0.248    32.740
ATOM     27  N   UNL d   1     -11.745   9.923  -6.519 -0.02 -0.07    -0.248    32.740
ATOM     28  N   UNL d   1     -14.213   8.438  -7.089 +0.00 -0.08    -0.248    32.740
ATOM     29 FE   UNL d   1     -12.213   8.326  -7.435 -0.01 +0.00    +0.000    32.740
ATOM     30  C   UNL d   1     -15.038   3.706  -9.459 -0.01 +0.02    +0.052    32.740
ATOM     31  C   UNL d   1     -15.180   2.724  -8.297 -0.02 +0.05    +0.115    32.740
ATOM     32  C   UNL d   1     -14.098   2.903  -7.254 +0.00 +0.15    +0.139    32.740
ATOM     33  O   UNL d   1     -13.247   2.036  -7.117 -0.42 -0.90    -0.650    32.740
ATOM     34  O   UNL d   1     -14.010   4.019  -6.495 +0.03 -1.18    -0.776    32.740
ATOM     35  H   UNL d   1     -14.747   4.397  -5.995 +0.00 +0.15    +0.167    32.740
ATOM     36  C   UNL d   1     -11.960   7.139  -5.726 -0.07 +0.20    +0.190    32.740
ATOM     37  O   UNL d   1     -12.537   6.091  -5.002 -0.40 -0.72    -0.399    32.740
ATOM     38  H   UNL d   1     -13.420   5.932  -5.440 +0.02 +0.31    +0.209    32.740
ATOM     39  C   UNL d   1     -17.836   7.560  -6.866 +0.00 +0.01    +0.052    32.740
ATOM     40  C   UNL d   1     -17.993   6.460  -5.804 +0.00 +0.02    +0.115    32.740
ATOM     41  C   UNL d   1     -16.812   5.517  -5.703 -0.00 +0.03    +0.139    32.740
ATOM     42  O   UNL d   1     -16.874   4.421  -6.243 +0.01 -0.17    -0.650    32.740
ATOM     43  O   UNL d   1     -15.657   5.886  -5.106 +0.01 -0.31    -0.776    32.740
ATOM     44  H   UNL d   1     -14.797   5.783  -5.532 +0.01 +0.11    +0.167    32.740
ATOM     45  C   UNL d   1      -6.770   8.994  -8.122 -0.33 +0.00    +0.004    32.740
ATOM     46  C   UNL d   1      -6.003   9.572  -9.043 -0.49 -0.00    +0.012    32.740
ATOM     47  C   UNL d   1     -12.444  12.651  -4.184 -0.19 +0.00    +0.004    32.740
ATOM     48  C   UNL d   1     -11.935  12.896  -2.974 -0.29 +0.00    +0.012    32.740
TER
ENDMDL
MODEL       91
USER    Run = 91
USER    Cluster Rank = 34
USER    Number of conformations in this cluster = 3
USER  
USER    RMSD from reference structure       = 21.190 A
USER  
USER    Estimated Free Energy of Binding    =   -3.42 kcal/mol  [=(1)+(2)+(3)-(4)]
USER    Estimated Inhibition Constant, Ki   =    3.13 mM (millimolar)  [Temperature = 298.15 K]
USER    
USER    (1) Final Intermolecular Energy     =   -7.00 kcal/mol
USER        vdW + Hbond + desolv Energy     =   -6.32 kcal/mol
USER        Electrostatic Energy            =   -0.68 kcal/mol
USER    (2) Final Total Internal Energy     =   -2.23 kcal/mol
USER    (3) Torsional Free Energy           =   +3.58 kcal/mol
USER    (4) Unbound System's Energy  [=(2)] =   -2.23 kcal/mol
USER    
USER    
USER  
USER    DPF = D:/Protein_go_brrr/autodock/final/mut_K82N/heme_Co/dock.dpf
USER    NEWDPF move	heme_Co_opt.pdbqt
USER    NEWDPF about	8.781000 34.984000 -0.736000
USER    NEWDPF tran0	13.428277 11.979627 -0.407807
USER    NEWDPF axisangle0	-0.395350 -0.882530 -0.254634 132.645365
USER    NEWDPF quaternion0	-0.362070 -0.808240 -0.233200 0.401585
USER    NEWDPF dihe0	172.21 114.37 4.47 -108.03 76.92 142.23 -128.38 -11.00 -140.30 80.47 -177.68 5.66 
USER  
USER                              x       y       z    vdW   Elec        q     RMS 
ATOM      1  C   UNL d   1      13.735  10.725   1.338 -0.10 -0.00    +0.064    21.190
ATOM      2  C   UNL d   1      15.209  10.347  -3.167 -0.16 -0.01    +0.064    21.190
ATOM      3  C   UNL d   1      12.639  14.190  -4.371 -0.23 -0.01    +0.064    21.190
ATOM      4  C   UNL d   1      11.427  14.826   0.298 -0.26 -0.01    +0.064    21.190
ATOM      5  C   UNL d   1      14.298  10.318   0.188 -0.09 -0.00    +0.066    21.190
ATOM      6  C   UNL d   1      15.200   9.238   0.140 -0.08 +0.00    -0.021    21.190
ATOM      7  C   UNL d   1      15.642   9.147  -1.166 -0.09 +0.00    -0.025    21.190
ATOM      8  C   UNL d   1      14.979  10.164  -1.860 -0.14 -0.00    +0.066    21.190
ATOM      9  C   UNL d   1      16.651   8.147  -1.752 -0.04 -0.00    +0.051    21.190
ATOM     10  C   UNL d   1      14.554  11.349  -3.969 -0.19 -0.01    +0.066    21.190
ATOM     11  C   UNL d   1      14.646  11.501  -5.370 -0.20 +0.00    -0.021    21.190
ATOM     12  C   UNL d   1      13.884  12.627  -5.695 -0.26 -0.00    +0.000    21.190
ATOM     13  C   UNL d   1      13.374  13.069  -4.474 -0.18 -0.02    +0.070    21.190
ATOM     14  C   UNL d   1      15.342  10.566  -6.325 -0.15 -0.00    +0.052    21.190
ATOM     15  C   UNL d   1      12.079  14.818  -3.190 -0.28 -0.02    +0.066    21.190
ATOM     16  C   UNL d   1      11.451  16.054  -3.134 -0.23 +0.01    -0.021    21.190
ATOM     17  C   UNL d   1      11.102  16.243  -1.789 -0.21 -0.00    +0.000    21.190
ATOM     18  C   UNL d   1      11.531  15.095  -1.131 -0.22 -0.01    +0.070    21.190
ATOM     19  C   UNL d   1      11.217  16.973  -4.312 -0.20 -0.01    +0.052    21.190
ATOM     20  C   UNL d   1      11.914  13.757   0.973 -0.18 -0.00    +0.066    21.190
ATOM     21  C   UNL d   1      11.782  13.627   2.354 -0.14 -0.00    -0.025    21.190
ATOM     22  C   UNL d   1      12.413  12.440   2.678 -0.11 -0.00    -0.021    21.190
ATOM     23  C   UNL d   1      12.912  11.906   1.471 -0.08 -0.00    +0.066    21.190
ATOM     24  C   UNL d   1      11.106  14.596   3.320 -0.12 +0.00    +0.051    21.190
ATOM     25  N   UNL d   1      14.135  10.902  -1.048 -0.11 +0.02    -0.248    21.190
ATOM     26  N   UNL d   1      13.735  12.263  -3.439 -0.15 +0.06    -0.248    21.190
ATOM     27  N   UNL d   1      12.135  14.282  -1.991 -0.21 +0.06    -0.248    21.190
ATOM     28  N   UNL d   1      12.614  12.701   0.437 -0.14 +0.01    -0.248    21.190
ATOM     29 FE   UNL d   1      13.075  12.692  -1.544 -0.06 -0.00    +0.000    21.190
ATOM     30  C   UNL d   1      15.671   8.392   1.318 -0.04 -0.00    +0.052    21.190
ATOM     31  C   UNL d   1      16.973   8.949   1.893 -0.01 -0.00    +0.115    21.190
ATOM     32  C   UNL d   1      17.005  10.462   1.890 -0.01 -0.00    +0.139    21.190
ATOM     33  O   UNL d   1      16.796  11.069   2.929 +0.00 +0.02    -0.650    21.190
ATOM     34  O   UNL d   1      17.306  11.171   0.777 +0.01 +0.03    -0.776    21.190
ATOM     35  H   UNL d   1      17.177  12.126   0.690 +0.00 -0.01    +0.167    21.190
ATOM     36  C   UNL d   1      14.859  13.722  -1.157 -0.05 -0.02    +0.190    21.190
ATOM     37  O   UNL d   1      16.130  13.576  -0.593 -0.00 +0.02    -0.399    21.190
ATOM     38  H   UNL d   1      16.168  12.626  -0.288 +0.01 -0.01    +0.209    21.190
ATOM     39  C   UNL d   1      12.580  11.887   4.081 -0.07 +0.00    +0.052    21.190
ATOM     40  C   UNL d   1      11.650  10.683   4.305 -0.11 +0.02    +0.115    21.190
ATOM     41  C   UNL d   1      10.441  10.979   5.167 -0.13 +0.06    +0.139    21.190
ATOM     42  O   UNL d   1       9.326  10.699   4.751 -0.32 -0.47    -0.650    21.190
ATOM     43  O   UNL d   1      10.566  11.465   6.422 -0.03 -0.42    -0.776    21.190
ATOM     44  H   UNL d   1      11.405  11.789   6.773 +0.02 +0.05    +0.167    21.190
ATOM     45  C   UNL d   1      13.565  13.320  -7.012 -0.26 -0.00    +0.004    21.190
ATOM     46  C   UNL d   1      13.865  14.542  -7.443 -0.16 -0.00    +0.012    21.190
ATOM     47  C   UNL d   1      10.462  17.418  -1.125 -0.26 -0.00    +0.004    21.190
ATOM     48  C   UNL d   1       9.297  17.940  -1.516 -0.31 -0.00    +0.012    21.190
TER
ENDMDL
MODEL       80
USER    Run = 80
USER    Cluster Rank = 35
USER    Number of conformations in this cluster = 1
USER  
USER    RMSD from reference structure       = 47.087 A
USER  
USER    Estimated Free Energy of Binding    =   -3.27 kcal/mol  [=(1)+(2)+(3)-(4)]
USER    Estimated Inhibition Constant, Ki   =    4.04 mM (millimolar)  [Temperature = 298.15 K]
USER    
USER    (1) Final Intermolecular Energy     =   -6.84 kcal/mol
USER        vdW + Hbond + desolv Energy     =   -7.04 kcal/mol
USER        Electrostatic Energy            =   +0.20 kcal/mol
USER    (2) Final Total Internal Energy     =   -2.83 kcal/mol
USER    (3) Torsional Free Energy           =   +3.58 kcal/mol
USER    (4) Unbound System's Energy  [=(2)] =   -2.83 kcal/mol
USER    
USER    
USER  
USER    DPF = D:/Protein_go_brrr/autodock/final/mut_K82N/heme_Co/dock.dpf
USER    NEWDPF move	heme_Co_opt.pdbqt
USER    NEWDPF about	8.781000 34.984000 -0.736000
USER    NEWDPF tran0	-7.964778 -10.656605 8.376187
USER    NEWDPF axisangle0	0.847051 -0.221059 -0.483360 -77.436618
USER    NEWDPF quaternion0	0.529824 -0.138271 -0.302338 -0.780231
USER    NEWDPF dihe0	-124.94 112.17 133.29 121.72 178.33 134.61 65.82 0.59 -122.94 95.99 170.45 -174.07 
USER  
USER                              x       y       z    vdW   Elec        q     RMS 
ATOM      1  C   UNL d   1      -8.854  -8.701   8.693 -0.13 -0.01    +0.064    47.087
ATOM      2  C   UNL d   1     -10.741 -12.935   7.635 -0.10 -0.01    +0.064    47.087
ATOM      3  C   UNL d   1      -6.371 -14.830   7.255 -0.14 -0.01    +0.064    47.087
ATOM      4  C   UNL d   1      -4.431 -10.613   8.711 -0.33 -0.02    +0.064    47.087
ATOM      5  C   UNL d   1      -9.690  -9.710   8.396 -0.06 -0.01    +0.066    47.087
ATOM      6  C   UNL d   1     -11.089  -9.567   8.468 -0.06 +0.00    -0.021    47.087
ATOM      7  C   UNL d   1     -11.631 -10.805   8.182 -0.05 +0.00    -0.025    47.087
ATOM      8  C   UNL d   1     -10.541 -11.645   7.932 -0.08 -0.01    +0.066    47.087
ATOM      9  C   UNL d   1     -13.116 -11.197   8.143 -0.02 -0.01    +0.051    47.087
ATOM     10  C   UNL d   1      -9.683 -13.868   7.336 -0.11 -0.01    +0.066    47.087
ATOM     11  C   UNL d   1      -9.833 -15.196   6.881 -0.07 +0.00    -0.021    47.087
ATOM     12  C   UNL d   1      -8.543 -15.724   6.775 -0.08 -0.00    +0.000    47.087
ATOM     13  C   UNL d   1      -7.704 -14.678   7.160 -0.06 -0.02    +0.070    47.087
ATOM     14  C   UNL d   1     -11.126 -15.864   6.488 -0.04 -0.01    +0.052    47.087
ATOM     15  C   UNL d   1      -5.365 -13.878   7.683 -0.22 -0.01    +0.066    47.087
ATOM     16  C   UNL d   1      -4.020 -14.142   7.898 -0.27 +0.00    -0.021    47.087
ATOM     17  C   UNL d   1      -3.457 -12.930   8.320 -0.38 -0.00    +0.000    47.087
ATOM     18  C   UNL d   1      -4.503 -12.014   8.314 -0.15 -0.02    +0.070    47.087
ATOM     19  C   UNL d   1      -3.348 -15.483   7.703 -0.25 +0.02    +0.052    47.087
ATOM     20  C   UNL d   1      -5.451  -9.727   8.795 -0.37 -0.01    +0.066    47.087
ATOM     21  C   UNL d   1      -5.263  -8.415   9.225 -0.46 +0.00    -0.025    47.087
ATOM     22  C   UNL d   1      -6.516  -7.831   9.202 -0.35 +0.00    -0.021    47.087
ATOM     23  C   UNL d   1      -7.416  -8.827   8.768 -0.24 -0.01    +0.066    47.087
ATOM     24  C   UNL d   1      -3.955  -7.755   9.656 -0.51 -0.01    +0.051    47.087
ATOM     25  N   UNL d   1      -9.326 -10.992   8.052 -0.07 +0.03    -0.248    47.087
ATOM     26  N   UNL d   1      -8.391 -13.540   7.445 -0.11 +0.06    -0.248    47.087
ATOM     27  N   UNL d   1      -5.631 -12.620   7.959 -0.17 +0.06    -0.248    47.087
ATOM     28  N   UNL d   1      -6.776  -9.976   8.523 -0.19 +0.04    -0.248    47.087
ATOM     29 FE   UNL d   1      -7.367 -11.851   8.003 -0.05 -0.00    +0.000    47.087
ATOM     30  C   UNL d   1     -11.856  -8.313   8.875 -0.03 -0.01    +0.052    47.087
ATOM     31  C   UNL d   1     -12.424  -8.465  10.286 -0.01 -0.01    +0.115    47.087
ATOM     32  C   UNL d   1     -11.358  -8.807  11.304 -0.01 -0.01    +0.139    47.087
ATOM     33  O   UNL d   1     -10.755  -9.865  11.210 +0.01 +0.06    -0.650    47.087
ATOM     34  O   UNL d   1     -11.013  -7.953  12.296 +0.01 +0.07    -0.776    47.087
ATOM     35  H   UNL d   1     -10.104  -7.691  12.496 +0.02 -0.01    +0.167    47.087
ATOM     36  C   UNL d   1      -7.656 -12.345  10.020 -0.07 -0.02    +0.190    47.087
ATOM     37  O   UNL d   1      -8.417 -12.022  11.148 -0.01 +0.03    -0.399    47.087
ATOM     38  H   UNL d   1      -9.017 -11.281  10.850 +0.02 -0.02    +0.209    47.087
ATOM     39  C   UNL d   1      -6.834  -6.413   9.638 -0.24 -0.01    +0.052    47.087
ATOM     40  C   UNL d   1      -6.761  -6.286  11.169 -0.31 -0.01    +0.115    47.087
ATOM     41  C   UNL d   1      -8.065  -6.572  11.882 -0.14 -0.01    +0.139    47.087
ATOM     42  O   UNL d   1      -8.051  -7.224  12.917 +0.02 +0.05    -0.650    47.087
ATOM     43  O   UNL d   1      -9.237  -6.052  11.455 +0.07 +0.09    -0.776    47.087
ATOM     44  H   UNL d   1     -10.059  -6.560  11.450 +0.03 -0.02    +0.167    47.087
ATOM     45  C   UNL d   1      -8.009 -17.082   6.338 -0.06 -0.00    +0.004    47.087
ATOM     46  C   UNL d   1      -7.283 -17.426   5.279 -0.11 -0.00    +0.012    47.087
ATOM     47  C   UNL d   1      -2.060 -12.627   8.754 -0.50 -0.00    +0.004    47.087
ATOM     48  C   UNL d   1      -1.523 -11.405   8.710 -0.61 -0.00    +0.012    47.087
TER
ENDMDL
MODEL       33
USER    Run = 33
USER    Cluster Rank = 36
USER    Number of conformations in this cluster = 1
USER  
USER    RMSD from reference structure       = 21.879 A
USER  
USER    Estimated Free Energy of Binding    =   -3.24 kcal/mol  [=(1)+(2)+(3)-(4)]
USER    Estimated Inhibition Constant, Ki   =    4.19 mM (millimolar)  [Temperature = 298.15 K]
USER    
USER    (1) Final Intermolecular Energy     =   -6.82 kcal/mol
USER        vdW + Hbond + desolv Energy     =   -6.44 kcal/mol
USER        Electrostatic Energy            =   -0.38 kcal/mol
USER    (2) Final Total Internal Energy     =   -2.73 kcal/mol
USER    (3) Torsional Free Energy           =   +3.58 kcal/mol
USER    (4) Unbound System's Energy  [=(2)] =   -2.73 kcal/mol
USER    
USER    
USER  
USER    DPF = D:/Protein_go_brrr/autodock/final/mut_K82N/heme_Co/dock.dpf
USER    NEWDPF move	heme_Co_opt.pdbqt
USER    NEWDPF about	8.781000 34.984000 -0.736000
USER    NEWDPF tran0	6.790082 15.653021 -12.128039
USER    NEWDPF axisangle0	-0.859042 -0.475597 -0.189351 -96.759768
USER    NEWDPF quaternion0	-0.642190 -0.355540 -0.141552 -0.664189
USER    NEWDPF dihe0	-68.81 116.70 -50.34 118.07 135.87 134.77 59.82 -149.20 -130.48 60.19 177.44 128.83 
USER  
USER                              x       y       z    vdW   Elec        q     RMS 
ATOM      1  C   UNL d   1       5.990  14.390 -13.703 -0.23 +0.00    +0.064    21.879
ATOM      2  C   UNL d   1       4.081  17.931 -11.168 -0.18 -0.02    +0.064    21.879
ATOM      3  C   UNL d   1       8.041  18.214  -8.510 -0.13 -0.01    +0.064    21.879
ATOM      4  C   UNL d   1      10.158  14.864 -11.331 -0.22 +0.00    +0.064    21.879
ATOM      5  C   UNL d   1       5.164  15.312 -13.182 -0.22 -0.01    +0.066    21.879
ATOM      6  C   UNL d   1       3.902  15.588 -13.745 -0.19 +0.00    -0.021    21.879
ATOM      7  C   UNL d   1       3.362  16.631 -13.019 -0.19 +0.01    -0.025    21.879
ATOM      8  C   UNL d   1       4.309  16.937 -12.036 -0.17 -0.01    +0.066    21.879
ATOM      9  C   UNL d   1       2.008  17.326 -13.232 -0.20 -0.02    +0.051    21.879
ATOM     10  C   UNL d   1       4.984  18.300 -10.107 -0.14 -0.02    +0.066    21.879
ATOM     11  C   UNL d   1       4.741  19.237  -9.080 -0.17 +0.01    -0.021    21.879
ATOM     12  C   UNL d   1       5.911  19.297  -8.317 -0.24 -0.00    +0.000    21.879
ATOM     13  C   UNL d   1       6.774  18.385  -8.926 -0.19 -0.02    +0.070    21.879
ATOM     14  C   UNL d   1       3.439  19.945  -8.808 -0.31 -0.02    +0.052    21.879
ATOM     15  C   UNL d   1       9.079  17.359  -9.051 -0.09 -0.00    +0.066    21.879
ATOM     16  C   UNL d   1      10.411  17.336  -8.665 -0.06 +0.00    -0.021    21.879
ATOM     17  C   UNL d   1      11.027  16.373  -9.477 -0.11 -0.00    +0.000    21.879
ATOM     18  C   UNL d   1      10.013  15.870 -10.287 -0.20 +0.00    +0.070    21.879
ATOM     19  C   UNL d   1      11.025  18.196  -7.583 -0.10 -0.00    +0.052    21.879
ATOM     20  C   UNL d   1       9.207  14.422 -12.188 -0.16 +0.00    +0.066    21.879
ATOM     21  C   UNL d   1       9.476  13.476 -13.175 -0.13 -0.00    -0.025    21.879
ATOM     22  C   UNL d   1       8.286  13.298 -13.856 -0.19 -0.00    -0.021    21.879
ATOM     23  C   UNL d   1       7.345  14.161 -13.254 -0.21 +0.01    +0.066    21.879
ATOM     24  C   UNL d   1      10.807  12.789 -13.468 -0.14 +0.00    +0.051    21.879
ATOM     25  N   UNL d   1       5.433  16.131 -12.110 -0.13 +0.03    -0.248    21.879
ATOM     26  N   UNL d   1       6.193  17.742  -9.974 -0.14 +0.06    -0.248    21.879
ATOM     27  N   UNL d   1       8.874  16.502 -10.027 -0.15 +0.01    -0.248    21.879
ATOM     28  N   UNL d   1       7.899  14.845 -12.246 -0.15 -0.01    -0.248    21.879
ATOM     29 FE   UNL d   1       7.257  16.325 -11.008 -0.05 -0.00    +0.000    21.879
ATOM     30  C   UNL d   1       3.291  14.926 -14.975 -0.04 -0.02    +0.052    21.879
ATOM     31  C   UNL d   1       3.492  15.801 -16.212 -0.10 -0.05    +0.115    21.879
ATOM     32  C   UNL d   1       4.917  16.295 -16.343 -0.03 -0.02    +0.139    21.879
ATOM     33  O   UNL d   1       5.341  17.123 -15.551 +0.02 +0.10    -0.650    21.879
ATOM     34  O   UNL d   1       5.760  15.813 -17.286 +0.03 +0.08    -0.776    21.879
ATOM     35  H   UNL d   1       6.163  14.935 -17.257 +0.02 -0.01    +0.167    21.879
ATOM     36  C   UNL d   1       7.820  17.775 -12.413 -0.03 -0.02    +0.190    21.879
ATOM     37  O   UNL d   1       7.550  18.240 -13.704 +0.00 +0.04    -0.399    21.879
ATOM     38  H   UNL d   1       6.788  17.680 -14.024 +0.02 -0.02    +0.209    21.879
ATOM     39  C   UNL d   1       8.087  12.397 -15.060 -0.18 +0.02    +0.052    21.879
ATOM     40  C   UNL d   1       7.392  13.159 -16.200 -0.09 +0.02    +0.115    21.879
ATOM     41  C   UNL d   1       6.132  12.497 -16.717 -0.11 +0.04    +0.139    21.879
ATOM     42  O   UNL d   1       5.870  11.355 -16.368 -0.27 -0.50    -0.650    21.879
ATOM     43  O   UNL d   1       5.243  13.165 -17.485 +0.03 -0.03    -0.776    21.879
ATOM     44  H   UNL d   1       4.960  14.067 -17.286 +0.03 -0.01    +0.167    21.879
ATOM     45  C   UNL d   1       6.304  20.092  -7.079 -0.31 -0.00    +0.004    21.879
ATOM     46  C   UNL d   1       6.507  19.697  -5.825 -0.36 -0.00    +0.012    21.879
ATOM     47  C   UNL d   1      12.461  15.965  -9.553 -0.13 -0.00    +0.004    21.879
ATOM     48  C   UNL d   1      12.902  14.753  -9.208 -0.18 -0.00    +0.012    21.879
TER
ENDMDL
MODEL       89
USER    Run = 89
USER    Cluster Rank = 37
USER    Number of conformations in this cluster = 4
USER  
USER    RMSD from reference structure       = 19.903 A
USER  
USER    Estimated Free Energy of Binding    =   -3.18 kcal/mol  [=(1)+(2)+(3)-(4)]
USER    Estimated Inhibition Constant, Ki   =    4.63 mM (millimolar)  [Temperature = 298.15 K]
USER    
USER    (1) Final Intermolecular Energy     =   -6.76 kcal/mol
USER        vdW + Hbond + desolv Energy     =   -6.49 kcal/mol
USER        Electrostatic Energy            =   -0.27 kcal/mol
USER    (2) Final Total Internal Energy     =   -2.09 kcal/mol
USER    (3) Torsional Free Energy           =   +3.58 kcal/mol
USER    (4) Unbound System's Energy  [=(2)] =   -2.09 kcal/mol
USER    
USER    
USER  
USER    DPF = D:/Protein_go_brrr/autodock/final/mut_K82N/heme_Co/dock.dpf
USER    NEWDPF move	heme_Co_opt.pdbqt
USER    NEWDPF about	8.781000 34.984000 -0.736000
USER    NEWDPF tran0	12.332742 13.893391 -1.068788
USER    NEWDPF axisangle0	0.185330 0.940357 -0.285273 -77.253561
USER    NEWDPF quaternion0	0.115691 0.587013 -0.178080 -0.781229
USER    NEWDPF dihe0	27.35 137.46 133.79 121.72 70.23 86.08 -74.62 -35.85 100.05 -153.72 55.99 157.64 
USER  
USER                              x       y       z    vdW   Elec        q     RMS 
ATOM      1  C   UNL d   1      11.316  14.954   0.530 -0.25 -0.01    +0.064    19.903
ATOM      2  C   UNL d   1      13.798  10.899   0.460 -0.09 -0.00    +0.064    19.903
ATOM      3  C   UNL d   1      14.232  11.203  -4.289 -0.24 -0.01    +0.064    19.903
ATOM      4  C   UNL d   1      12.034  15.542  -4.199 -0.19 -0.01    +0.064    19.903
ATOM      5  C   UNL d   1      11.931  13.805   0.855 -0.19 -0.00    +0.066    19.903
ATOM      6  C   UNL d   1      12.081  13.391   2.193 -0.13 -0.00    -0.021    19.903
ATOM      7  C   UNL d   1      12.821  12.225   2.168 -0.12 -0.00    -0.025    19.903
ATOM      8  C   UNL d   1      13.078  11.970   0.817 -0.10 -0.00    +0.066    19.903
ATOM      9  C   UNL d   1      13.279  11.374   3.363 -0.07 +0.00    +0.051    19.903
ATOM     10  C   UNL d   1      14.090  10.541  -0.906 -0.07 -0.00    +0.066    19.903
ATOM     11  C   UNL d   1      14.718   9.359  -1.353 -0.18 +0.00    -0.021    19.903
ATOM     12  C   UNL d   1      14.829   9.472  -2.741 -0.20 -0.00    +0.000    19.903
ATOM     13  C   UNL d   1      14.249  10.705  -3.040 -0.23 -0.01    +0.070    19.903
ATOM     14  C   UNL d   1      15.093   8.172  -0.503 -0.13 +0.00    +0.052    19.903
ATOM     15  C   UNL d   1      13.726  12.475  -4.765 -0.25 -0.01    +0.066    19.903
ATOM     16  C   UNL d   1      13.869  12.991  -6.045 -0.23 +0.00    -0.021    19.903
ATOM     17  C   UNL d   1      13.239  14.243  -6.024 -0.22 -0.00    +0.000    19.903
ATOM     18  C   UNL d   1      12.744  14.386  -4.732 -0.19 -0.01    +0.070    19.903
ATOM     19  C   UNL d   1      14.573  12.303  -7.194 -0.15 -0.00    +0.052    19.903
ATOM     20  C   UNL d   1      11.620  15.739  -2.924 -0.21 -0.02    +0.066    19.903
ATOM     21  C   UNL d   1      10.979  16.910  -2.524 -0.19 +0.01    -0.025    19.903
ATOM     22  C   UNL d   1      10.734  16.757  -1.171 -0.21 +0.00    -0.021    19.903
ATOM     23  C   UNL d   1      11.252  15.496  -0.808 -0.24 -0.01    +0.066    19.903
ATOM     24  C   UNL d   1      10.634  18.124  -3.383 -0.16 -0.01    +0.051    19.903
ATOM     25  N   UNL d   1      12.533  12.929  -0.019 -0.15 +0.01    -0.248    19.903
ATOM     26  N   UNL d   1      13.753  11.325  -1.936 -0.17 +0.04    -0.248    19.903
ATOM     27  N   UNL d   1      13.079  13.327  -4.002 -0.16 +0.07    -0.248    19.903
ATOM     28  N   UNL d   1      11.792  14.878  -1.866 -0.22 +0.06    -0.248    19.903
ATOM     29 FE   UNL d   1      12.820  13.143  -2.129 -0.06 -0.00    +0.000    19.903
ATOM     30  C   UNL d   1      11.600  14.134   3.435 -0.10 +0.00    +0.052    19.903
ATOM     31  C   UNL d   1      11.036  13.154   4.463 -0.09 +0.01    +0.115    19.903
ATOM     32  C   UNL d   1       9.604  12.764   4.163 -0.19 +0.04    +0.139    19.903
ATOM     33  O   UNL d   1       9.168  11.704   4.588 -0.15 -0.37    -0.650    19.903
ATOM     34  O   UNL d   1       8.768  13.576   3.476 +0.04 -0.12    -0.776    19.903
ATOM     35  H   UNL d   1       9.061  14.269   2.868 +0.06 +0.01    +0.167    19.903
ATOM     36  C   UNL d   1      14.621  14.114  -1.671 -0.06 -0.02    +0.190    19.903
ATOM     37  O   UNL d   1      15.145  15.283  -1.110 -0.00 +0.03    -0.399    19.903
ATOM     38  H   UNL d   1      14.428  15.619  -0.502 +0.02 -0.02    +0.209    19.903
ATOM     39  C   UNL d   1      10.095  17.797  -0.270 -0.18 -0.00    +0.052    19.903
ATOM     40  C   UNL d   1      11.165  18.532   0.553 -0.11 -0.01    +0.115    19.903
ATOM     41  C   UNL d   1      12.563  18.452  -0.025 -0.04 -0.01    +0.139    19.903
ATOM     42  O   UNL d   1      13.017  19.414  -0.628 +0.01 +0.05    -0.650    19.903
ATOM     43  O   UNL d   1      13.356  17.378   0.183 +0.03 +0.06    -0.776    19.903
ATOM     44  H   UNL d   1      13.922  17.009  -0.508 +0.02 -0.01    +0.167    19.903
ATOM     45  C   UNL d   1      15.394   8.553  -3.816 -0.17 -0.00    +0.004    19.903
ATOM     46  C   UNL d   1      14.788   7.901  -4.805 -0.22 -0.00    +0.012    19.903
ATOM     47  C   UNL d   1      13.134  15.277  -7.097 -0.17 -0.00    +0.004    19.903
ATOM     48  C   UNL d   1      12.756  15.004  -8.348 -0.17 -0.00    +0.012    19.903
TER
ENDMDL
MODEL       25
USER    Run = 25
USER    Cluster Rank = 38
USER    Number of conformations in this cluster = 1
USER  
USER    RMSD from reference structure       = 33.647 A
USER  
USER    Estimated Free Energy of Binding    =   -3.15 kcal/mol  [=(1)+(2)+(3)-(4)]
USER    Estimated Inhibition Constant, Ki   =    4.93 mM (millimolar)  [Temperature = 298.15 K]
USER    
USER    (1) Final Intermolecular Energy     =   -6.73 kcal/mol
USER        vdW + Hbond + desolv Energy     =   -3.99 kcal/mol
USER        Electrostatic Energy            =   -2.74 kcal/mol
USER    (2) Final Total Internal Energy     =   -3.31 kcal/mol
USER    (3) Torsional Free Energy           =   +3.58 kcal/mol
USER    (4) Unbound System's Energy  [=(2)] =   -3.31 kcal/mol
USER    
USER    
USER  
USER    DPF = D:/Protein_go_brrr/autodock/final/mut_K82N/heme_Co/dock.dpf
USER    NEWDPF move	heme_Co_opt.pdbqt
USER    NEWDPF about	8.781000 34.984000 -0.736000
USER    NEWDPF tran0	-11.207631 7.269812 -11.453667
USER    NEWDPF axisangle0	-0.904340 -0.334493 0.265112 116.484207
USER    NEWDPF quaternion0	-0.768942 -0.284412 0.225419 0.526331
USER    NEWDPF dihe0	7.57 133.81 -107.43 -107.14 -26.75 112.23 28.05 160.84 -171.07 117.25 180.00 175.21 
USER  
USER                              x       y       z    vdW   Elec        q     RMS 
ATOM      1  C   UNL d   1     -12.256   7.538  -9.571 -0.01 +0.02    +0.064    33.647
ATOM      2  C   UNL d   1     -13.300   5.043 -13.482 -0.05 +0.02    +0.064    33.647
ATOM      3  C   UNL d   1      -9.450   6.818 -15.687 -0.14 +0.00    +0.064    33.647
ATOM      4  C   UNL d   1      -8.152   9.073 -11.577 -0.11 +0.00    +0.064    33.647
ATOM      5  C   UNL d   1     -12.844   6.754 -10.490 -0.01 +0.02    +0.066    33.647
ATOM      6  C   UNL d   1     -13.987   5.986 -10.196 -0.00 -0.01    -0.021    33.647
ATOM      7  C   UNL d   1     -14.273   5.247 -11.327 -0.00 -0.01    -0.025    33.647
ATOM      8  C   UNL d   1     -13.302   5.608 -12.268 -0.02 +0.02    +0.066    33.647
ATOM      9  C   UNL d   1     -15.411   4.236 -11.530 -0.00 +0.01    +0.051    33.647
ATOM     10  C   UNL d   1     -12.357   5.371 -14.523 -0.08 +0.02    +0.066    33.647
ATOM     11  C   UNL d   1     -12.387   4.919 -15.861 -0.12 -0.01    -0.021    33.647
ATOM     12  C   UNL d   1     -11.256   5.455 -16.482 -0.15 +0.00    +0.000    33.647
ATOM     13  C   UNL d   1     -10.628   6.202 -15.484 -0.12 +0.01    +0.070    33.647
ATOM     14  C   UNL d   1     -13.484   4.111 -16.505 -0.10 +0.04    +0.052    33.647
ATOM     15  C   UNL d   1      -8.641   7.583 -14.759 -0.09 +0.00    +0.066    33.647
ATOM     16  C   UNL d   1      -7.363   8.072 -14.991 -0.08 +0.00    -0.021    33.647
ATOM     17  C   UNL d   1      -6.983   8.721 -13.808 -0.11 -0.00    +0.000    33.647
ATOM     18  C   UNL d   1      -8.070   8.591 -12.950 -0.08 +0.00    +0.070    33.647
ATOM     19  C   UNL d   1      -6.582   7.910 -16.276 -0.20 -0.01    +0.052    33.647
ATOM     20  C   UNL d   1      -9.163   8.884 -10.696 -0.07 +0.01    +0.066    33.647
ATOM     21  C   UNL d   1      -9.111   9.366  -9.389 -0.13 -0.00    -0.025    33.647
ATOM     22  C   UNL d   1     -10.294   8.963  -8.796 -0.07 -0.01    -0.021    33.647
ATOM     23  C   UNL d   1     -11.009   8.239  -9.774 -0.02 +0.02    +0.066    33.647
ATOM     24  C   UNL d   1      -7.982  10.154  -8.732 -0.01 +0.01    +0.051    33.647
ATOM     25  N   UNL d   1     -12.407   6.544 -11.778 -0.01 -0.06    -0.248    33.647
ATOM     26  N   UNL d   1     -11.325   6.195 -14.316 -0.04 -0.05    -0.248    33.647
ATOM     27  N   UNL d   1      -9.027   7.882 -13.539 -0.05 -0.01    -0.248    33.647
ATOM     28  N   UNL d   1     -10.327   8.187 -10.924 -0.01 -0.04    -0.248    33.647
ATOM     29 FE   UNL d   1     -10.616   7.255 -12.708 -0.02 +0.00    +0.000    33.647
ATOM     30  C   UNL d   1     -14.715   5.913  -8.857 -0.01 +0.02    +0.052    33.647
ATOM     31  C   UNL d   1     -14.232   4.709  -8.049 -0.05 +0.09    +0.115    33.647
ATOM     32  C   UNL d   1     -13.056   4.012  -8.698 -0.04 +0.13    +0.139    33.647
ATOM     33  O   UNL d   1     -13.241   2.978  -9.323 -0.02 -0.41    -0.650    33.647
ATOM     34  O   UNL d   1     -11.804   4.523  -8.651 +0.03 -0.96    -0.776    33.647
ATOM     35  H   UNL d   1     -11.562   5.326  -8.171 +0.02 +0.23    +0.167    33.647
ATOM     36  C   UNL d   1      -9.685   5.523 -11.980 -0.15 +0.04    +0.190    33.647
ATOM     37  O   UNL d   1      -9.588   4.700 -10.853 -0.12 -0.12    -0.399    33.647
ATOM     38  H   UNL d   1     -10.409   4.895 -10.322 +0.05 +0.09    +0.209    33.647
ATOM     39  C   UNL d   1     -10.679   9.207  -7.349 -0.13 +0.02    +0.052    33.647
ATOM     40  C   UNL d   1     -10.062   8.137  -6.434 -0.18 +0.07    +0.115    33.647
ATOM     41  C   UNL d   1     -10.636   6.748  -6.622 -0.15 +0.16    +0.139    33.647
ATOM     42  O   UNL d   1     -11.826   6.560  -6.413 -0.07 -1.00    -0.650    33.647
ATOM     43  O   UNL d   1      -9.888   5.728  -7.097 -0.34 -1.30    -0.776    33.647
ATOM     44  H   UNL d   1      -9.938   5.430  -8.014 +0.04 +0.20    +0.167    33.647
ATOM     45  C   UNL d   1     -10.709   5.364 -17.900 -0.17 +0.00    +0.004    33.647
ATOM     46  C   UNL d   1      -9.582   4.826 -18.361 -0.21 +0.00    +0.012    33.647
ATOM     47  C   UNL d   1      -5.690   9.379 -13.453 -0.25 -0.00    +0.004    33.647
ATOM     48  C   UNL d   1      -4.497   8.810 -13.643 -0.37 -0.00    +0.012    33.647
TER
ENDMDL
MODEL        2
USER    Run = 2
USER    Cluster Rank = 39
USER    Number of conformations in this cluster = 2
USER  
USER    RMSD from reference structure       = 44.305 A
USER  
USER    Estimated Free Energy of Binding    =   -3.05 kcal/mol  [=(1)+(2)+(3)-(4)]
USER    Estimated Inhibition Constant, Ki   =    5.79 mM (millimolar)  [Temperature = 298.15 K]
USER    
USER    (1) Final Intermolecular Energy     =   -6.63 kcal/mol
USER        vdW + Hbond + desolv Energy     =   -6.42 kcal/mol
USER        Electrostatic Energy            =   -0.21 kcal/mol
USER    (2) Final Total Internal Energy     =   -2.98 kcal/mol
USER    (3) Torsional Free Energy           =   +3.58 kcal/mol
USER    (4) Unbound System's Energy  [=(2)] =   -2.98 kcal/mol
USER    
USER    
USER  
USER    DPF = D:/Protein_go_brrr/autodock/final/mut_K82N/heme_Co/dock.dpf
USER    NEWDPF move	heme_Co_opt.pdbqt
USER    NEWDPF about	8.781000 34.984000 -0.736000
USER    NEWDPF tran0	10.536809 -11.484241 1.914179
USER    NEWDPF axisangle0	-0.669221 0.407533 -0.621337 -125.968871
USER    NEWDPF quaternion0	-0.596198 0.363064 -0.553539 -0.454233
USER    NEWDPF dihe0	5.72 128.07 -167.22 116.99 -99.22 124.19 33.51 100.81 154.90 108.43 -165.50 -177.83 
USER  
USER                              x       y       z    vdW   Elec        q     RMS 
ATOM      1  C   UNL d   1       9.491  -9.954   0.783 -0.17 +0.01    +0.064    44.305
ATOM      2  C   UNL d   1      13.158  -9.749   3.803 -0.15 +0.01    +0.064    44.305
ATOM      3  C   UNL d   1      12.693 -14.411   4.742 -0.02 +0.03    +0.064    44.305
ATOM      4  C   UNL d   1       9.197 -14.727   1.375 -0.26 +0.02    +0.064    44.305
ATOM      5  C   UNL d   1      10.504  -9.548   1.566 -0.25 +0.01    +0.066    44.305
ATOM      6  C   UNL d   1      10.999  -8.230   1.525 -0.30 -0.00    -0.021    44.305
ATOM      7  C   UNL d   1      12.077  -8.182   2.387 -0.22 -0.00    -0.025    44.305
ATOM      8  C   UNL d   1      12.184  -9.467   2.929 -0.19 +0.01    +0.066    44.305
ATOM      9  C   UNL d   1      12.982  -6.980   2.697 -0.18 +0.00    +0.051    44.305
ATOM     10  C   UNL d   1      13.330 -11.034   4.433 -0.11 +0.01    +0.066    44.305
ATOM     11  C   UNL d   1      14.243 -11.355   5.462 -0.07 -0.00    -0.021    44.305
ATOM     12  C   UNL d   1      14.083 -12.719   5.719 -0.07 +0.00    +0.000    44.305
ATOM     13  C   UNL d   1      13.079 -13.126   4.840 -0.07 +0.03    +0.070    44.305
ATOM     14  C   UNL d   1      15.130 -10.386   6.201 -0.05 +0.00    +0.052    44.305
ATOM     15  C   UNL d   1      11.715 -15.013   3.857 -0.06 +0.04    +0.066    44.305
ATOM     16  C   UNL d   1      11.467 -16.369   3.706 -0.11 -0.01    -0.021    44.305
ATOM     17  C   UNL d   1      10.461 -16.466   2.734 -0.17 +0.00    +0.000    44.305
ATOM     18  C   UNL d   1      10.162 -15.154   2.380 -0.20 +0.02    +0.070    44.305
ATOM     19  C   UNL d   1      12.168 -17.479   4.458 -0.05 +0.01    +0.052    44.305
ATOM     20  C   UNL d   1       8.951 -13.464   0.953 -0.24 +0.02    +0.066    44.305
ATOM     21  C   UNL d   1       8.023 -13.182  -0.048 -0.29 -0.01    -0.025    44.305
ATOM     22  C   UNL d   1       8.066 -11.810  -0.220 -0.32 -0.00    -0.021    44.305
ATOM     23  C   UNL d   1       9.033 -11.321   0.684 -0.23 +0.01    +0.066    44.305
ATOM     24  C   UNL d   1       7.154 -14.172  -0.818 -0.37 +0.01    +0.051    44.305
ATOM     25  N   UNL d   1      11.218 -10.332   2.443 -0.11 -0.04    -0.248    44.305
ATOM     26  N   UNL d   1      12.586 -12.096   4.103 -0.06 -0.09    -0.248    44.305
ATOM     27  N   UNL d   1      10.949 -14.317   3.047 -0.04 -0.13    -0.248    44.305
ATOM     28  N   UNL d   1       9.573 -12.319   1.394 -0.12 -0.06    -0.248    44.305
ATOM     29 FE   UNL d   1      11.073 -12.443   2.761 -0.05 +0.00    +0.000    44.305
ATOM     30  C   UNL d   1      10.501  -7.099   0.632 -0.29 -0.00    +0.052    44.305
ATOM     31  C   UNL d   1      11.103  -7.215  -0.768 -0.14 +0.00    +0.115    44.305
ATOM     32  C   UNL d   1      12.440  -7.923  -0.764 -0.05 +0.00    +0.139    44.305
ATOM     33  O   UNL d   1      13.469  -7.263  -0.741 +0.03 -0.02    -0.650    44.305
ATOM     34  O   UNL d   1      12.538  -9.272  -0.738 +0.05 -0.02    -0.776    44.305
ATOM     35  H   UNL d   1      11.780  -9.873  -0.742 +0.03 +0.01    +0.167    44.305
ATOM     36  C   UNL d   1      12.485 -12.658   1.227 -0.04 +0.02    +0.190    44.305
ATOM     37  O   UNL d   1      12.942 -12.071   0.042 -0.00 -0.02    -0.399    44.305
ATOM     38  H   UNL d   1      12.549 -11.154   0.043 +0.03 +0.01    +0.209    44.305
ATOM     39  C   UNL d   1       7.265 -11.027  -1.243 -0.42 +0.01    +0.052    44.305
ATOM     40  C   UNL d   1       7.875 -11.185  -2.646 -0.22 +0.02    +0.115    44.305
ATOM     41  C   UNL d   1       9.118 -10.354  -2.884 -0.16 +0.01    +0.139    44.305
ATOM     42  O   UNL d   1       9.126  -9.536  -3.793 -0.38 -0.09    -0.650    44.305
ATOM     43  O   UNL d   1      10.190 -10.429  -2.064 +0.06 -0.05    -0.776    44.305
ATOM     44  H   UNL d   1      10.866  -9.739  -2.028 +0.03 +0.01    +0.167    44.305
ATOM     45  C   UNL d   1      14.747 -13.675   6.701 -0.04 +0.00    +0.004    44.305
ATOM     46  C   UNL d   1      14.270 -14.257   7.799 -0.04 +0.00    +0.012    44.305
ATOM     47  C   UNL d   1       9.840 -17.678   2.121 -0.17 +0.00    +0.004    44.305
ATOM     48  C   UNL d   1       9.865 -17.937   0.811 -0.15 +0.00    +0.012    44.305
TER
ENDMDL
MODEL       22
USER    Run = 22
USER    Cluster Rank = 40
USER    Number of conformations in this cluster = 2
USER  
USER    RMSD from reference structure       = 32.917 A
USER  
USER    Estimated Free Energy of Binding    =   -3.04 kcal/mol  [=(1)+(2)+(3)-(4)]
USER    Estimated Inhibition Constant, Ki   =    5.94 mM (millimolar)  [Temperature = 298.15 K]
USER    
USER    (1) Final Intermolecular Energy     =   -6.62 kcal/mol
USER        vdW + Hbond + desolv Energy     =   -6.63 kcal/mol
USER        Electrostatic Energy            =   +0.02 kcal/mol
USER    (2) Final Total Internal Energy     =   -2.64 kcal/mol
USER    (3) Torsional Free Energy           =   +3.58 kcal/mol
USER    (4) Unbound System's Energy  [=(2)] =   -2.64 kcal/mol
USER    
USER    
USER  
USER    DPF = D:/Protein_go_brrr/autodock/final/mut_K82N/heme_Co/dock.dpf
USER    NEWDPF move	heme_Co_opt.pdbqt
USER    NEWDPF about	8.781000 34.984000 -0.736000
USER    NEWDPF tran0	13.084525 1.360564 13.433207
USER    NEWDPF axisangle0	-0.461840 -0.777099 -0.427576 160.046305
USER    NEWDPF quaternion0	-0.454856 -0.765347 -0.421110 0.173250
USER    NEWDPF dihe0	-46.64 118.87 -144.29 161.64 53.17 139.85 53.40 173.78 -129.78 93.74 165.84 -179.30 
USER  
USER                              x       y       z    vdW   Elec        q     RMS 
ATOM      1  C   UNL d   1      13.826  -0.567  14.103 -0.25 -0.01    +0.064    32.917
ATOM      2  C   UNL d   1      14.121   1.696   9.931 -0.13 -0.00    +0.064    32.917
ATOM      3  C   UNL d   1      11.313   5.190  11.586 -0.17 -0.00    +0.064    32.917
ATOM      4  C   UNL d   1      11.312   3.093  15.975 -0.22 -0.01    +0.064    32.917
ATOM      5  C   UNL d   1      14.083  -0.224  12.830 -0.18 -0.01    +0.066    32.917
ATOM      6  C   UNL d   1      14.949  -0.977  12.013 -0.14 +0.00    -0.021    32.917
ATOM      7  C   UNL d   1      15.049  -0.303  10.812 -0.07 +0.00    -0.025    32.917
ATOM      8  C   UNL d   1      14.228   0.822  10.941 -0.11 -0.01    +0.066    32.917
ATOM      9  C   UNL d   1      15.882  -0.691   9.580 -0.11 -0.00    +0.051    32.917
ATOM     10  C   UNL d   1      13.281   2.867   9.963 -0.11 -0.00    +0.066    32.917
ATOM     11  C   UNL d   1      13.017   3.745   8.889 -0.12 +0.00    -0.021    32.917
ATOM     12  C   UNL d   1      12.193   4.752   9.399 -0.18 -0.00    +0.000    32.917
ATOM     13  C   UNL d   1      12.005   4.408  10.738 -0.14 -0.00    +0.070    32.917
ATOM     14  C   UNL d   1      13.455   3.562   7.459 -0.11 -0.00    +0.052    32.917
ATOM     15  C   UNL d   1      11.067   5.015  13.004 -0.20 -0.00    +0.066    32.917
ATOM     16  C   UNL d   1      10.467   5.934  13.854 -0.26 +0.00    -0.021    32.917
ATOM     17  C   UNL d   1      10.467   5.334  15.122 -0.26 -0.00    +0.000    32.917
ATOM     18  C   UNL d   1      11.053   4.086  14.940 -0.22 -0.01    +0.070    32.917
ATOM     19  C   UNL d   1       9.940   7.292  13.447 -0.23 +0.00    +0.052    32.917
ATOM     20  C   UNL d   1      11.958   1.910  15.839 -0.23 -0.01    +0.066    32.917
ATOM     21  C   UNL d   1      12.179   1.055  16.917 -0.27 +0.00    -0.025    32.917
ATOM     22  C   UNL d   1      12.876  -0.022  16.401 -0.27 +0.00    -0.021    32.917
ATOM     23  C   UNL d   1      13.058   0.236  15.026 -0.22 -0.01    +0.066    32.917
ATOM     24  C   UNL d   1      11.763   1.263  18.371 -0.24 -0.00    +0.051    32.917
ATOM     25  N   UNL d   1      13.612   0.893  12.179 -0.10 +0.04    -0.248    32.917
ATOM     26  N   UNL d   1      12.617   3.239  11.063 -0.07 +0.01    -0.248    32.917
ATOM     27  N   UNL d   1      11.425   3.943  13.673 -0.12 +0.02    -0.248    32.917
ATOM     28  N   UNL d   1      12.506   1.406  14.682 -0.10 +0.04    -0.248    32.917
ATOM     29 FE   UNL d   1      12.453   2.507  12.973 -0.04 -0.00    +0.000    32.917
ATOM     30  C   UNL d   1      15.705  -2.240  12.410 -0.18 -0.00    +0.052    32.917
ATOM     31  C   UNL d   1      17.204  -1.959  12.516 -0.09 -0.00    +0.115    32.917
ATOM     32  C   UNL d   1      17.502  -0.719  13.330 -0.04 -0.00    +0.139    32.917
ATOM     33  O   UNL d   1      17.325   0.384  12.833 +0.02 +0.02    -0.650    32.917
ATOM     34  O   UNL d   1      17.917  -0.787  14.617 +0.02 +0.00    -0.776    32.917
ATOM     35  H   UNL d   1      17.474  -1.303  15.304 +0.02 +0.00    +0.167    32.917
ATOM     36  C   UNL d   1      14.273   3.418  13.476 -0.02 -0.01    +0.190    32.917
ATOM     37  O   UNL d   1      15.641   3.167  13.623 +0.00 +0.01    -0.399    32.917
ATOM     38  H   UNL d   1      15.765   2.228  13.311 +0.01 -0.01    +0.209    32.917
ATOM     39  C   UNL d   1      13.393  -1.201  17.205 -0.29 +0.00    +0.052    32.917
ATOM     40  C   UNL d   1      14.674  -0.820  17.965 -0.11 +0.00    +0.115    32.917
ATOM     41  C   UNL d   1      15.956  -1.107  17.213 -0.08 +0.00    +0.139    32.917
ATOM     42  O   UNL d   1      16.110  -2.202  16.690 -0.00 -0.04    -0.650    32.917
ATOM     43  O   UNL d   1      16.900  -0.157  17.029 +0.02 -0.01    -0.776    32.917
ATOM     44  H   UNL d   1      17.363  -0.041  16.189 +0.01 +0.00    +0.167    32.917
ATOM     45  C   UNL d   1      11.549   5.983   8.773 -0.21 +0.00    +0.004    32.917
ATOM     46  C   UNL d   1      10.443   6.644   9.104 -0.29 +0.00    +0.012    32.917
ATOM     47  C   UNL d   1      10.009   5.879  16.434 -0.23 -0.00    +0.004    32.917
ATOM     48  C   UNL d   1       9.004   6.750  16.561 -0.32 -0.00    +0.012    32.917
TER
ENDMDL
MODEL       62
USER    Run = 62
USER    Cluster Rank = 41
USER    Number of conformations in this cluster = 1
USER  
USER    RMSD from reference structure       = 47.919 A
USER  
USER    Estimated Free Energy of Binding    =   -2.95 kcal/mol  [=(1)+(2)+(3)-(4)]
USER    Estimated Inhibition Constant, Ki   =    6.86 mM (millimolar)  [Temperature = 298.15 K]
USER    
USER    (1) Final Intermolecular Energy     =   -6.53 kcal/mol
USER        vdW + Hbond + desolv Energy     =   -6.70 kcal/mol
USER        Electrostatic Energy            =   +0.17 kcal/mol
USER    (2) Final Total Internal Energy     =   -2.62 kcal/mol
USER    (3) Torsional Free Energy           =   +3.58 kcal/mol
USER    (4) Unbound System's Energy  [=(2)] =   -2.62 kcal/mol
USER    
USER    
USER  
USER    DPF = D:/Protein_go_brrr/autodock/final/mut_K82N/heme_Co/dock.dpf
USER    NEWDPF move	heme_Co_opt.pdbqt
USER    NEWDPF about	8.781000 34.984000 -0.736000
USER    NEWDPF tran0	-8.740499 -11.770833 8.068546
USER    NEWDPF axisangle0	-0.682320 -0.169957 -0.711024 78.383811
USER    NEWDPF quaternion0	-0.431171 -0.107399 -0.449310 0.775034
USER    NEWDPF dihe0	-57.73 107.13 27.15 157.17 142.73 133.68 50.94 153.57 -126.87 15.18 -177.47 163.55 
USER  
USER                              x       y       z    vdW   Elec        q     RMS 
ATOM      1  C   UNL d   1     -10.622 -12.700   7.508 -0.10 -0.01    +0.064    47.919
ATOM      2  C   UNL d   1      -6.225 -14.439   8.012 -0.15 -0.01    +0.064    47.919
ATOM      3  C   UNL d   1      -4.539 -10.043   8.826 -0.29 -0.02    +0.064    47.919
ATOM      4  C   UNL d   1      -9.076  -8.293   8.699 -0.12 -0.01    +0.064    47.919
ATOM      5  C   UNL d   1      -9.539 -13.493   7.550 -0.11 -0.01    +0.066    47.919
ATOM      6  C   UNL d   1      -9.633 -14.893   7.425 -0.07 +0.00    -0.021    47.919
ATOM      7  C   UNL d   1      -8.357 -15.394   7.595 -0.06 +0.00    -0.025    47.919
ATOM      8  C   UNL d   1      -7.537 -14.279   7.800 -0.11 -0.01    +0.066    47.919
ATOM      9  C   UNL d   1      -7.911 -16.864   7.569 -0.03 -0.01    +0.051    47.919
ATOM     10  C   UNL d   1      -5.300 -13.350   8.206 -0.22 -0.01    +0.066    47.919
ATOM     11  C   UNL d   1      -3.894 -13.443   8.293 -0.31 +0.00    -0.021    47.919
ATOM     12  C   UNL d   1      -3.428 -12.146   8.527 -0.36 -0.00    +0.000    47.919
ATOM     13  C   UNL d   1      -4.579 -11.359   8.552 -0.11 -0.02    +0.070    47.919
ATOM     14  C   UNL d   1      -3.066 -14.683   8.070 -0.27 +0.01    +0.052    47.919
ATOM     15  C   UNL d   1      -5.629  -9.094   8.944 -0.38 -0.01    +0.066    47.919
ATOM     16  C   UNL d   1      -5.531  -7.778   9.373 -0.46 +0.00    -0.021    47.919
ATOM     17  C   UNL d   1      -6.838  -7.270   9.341 -0.33 -0.00    +0.000    47.919
ATOM     18  C   UNL d   1      -7.629  -8.315   8.876 -0.22 -0.01    +0.070    47.919
ATOM     19  C   UNL d   1      -4.253  -7.082   9.783 -0.29 -0.00    +0.052    47.919
ATOM     20  C   UNL d   1      -9.877  -9.322   8.331 -0.07 -0.01    +0.066    47.919
ATOM     21  C   UNL d   1     -11.260  -9.188   8.230 -0.06 +0.00    -0.025    47.919
ATOM     22  C   UNL d   1     -11.730 -10.435   7.861 -0.06 +0.00    -0.021    47.919
ATOM     23  C   UNL d   1     -10.602 -11.278   7.765 -0.07 -0.01    +0.066    47.919
ATOM     24  C   UNL d   1     -12.096  -7.938   8.493 -0.03 -0.01    +0.051    47.919
ATOM     25  N   UNL d   1      -8.242 -13.087   7.771 -0.11 +0.05    -0.248    47.919
ATOM     26  N   UNL d   1      -5.705 -12.079   8.302 -0.19 +0.05    -0.248    47.919
ATOM     27  N   UNL d   1      -6.880  -9.395   8.679 -0.20 +0.04    -0.248    47.919
ATOM     28  N   UNL d   1      -9.479 -10.609   8.052 -0.05 +0.03    -0.248    47.919
ATOM     29 FE   UNL d   1      -7.524 -11.130   8.251 -0.05 -0.00    +0.000    47.919
ATOM     30  C   UNL d   1     -10.909 -15.706   7.234 -0.03 -0.01    +0.052    47.919
ATOM     31  C   UNL d   1     -11.454 -16.175   8.583 -0.00 -0.01    +0.115    47.919
ATOM     32  C   UNL d   1     -11.587 -15.042   9.577 -0.00 -0.01    +0.139    47.919
ATOM     33  O   UNL d   1     -10.594 -14.634  10.161 +0.01 +0.05    -0.650    47.919
ATOM     34  O   UNL d   1     -12.770 -14.426   9.810 +0.00 +0.06    -0.776    47.919
ATOM     35  H   UNL d   1     -13.270 -13.939   9.141 +0.00 -0.01    +0.167    47.919
ATOM     36  C   UNL d   1      -7.839 -11.631  10.262 -0.07 -0.02    +0.190    47.919
ATOM     37  O   UNL d   1      -8.549 -12.501  11.096 -0.01 +0.03    -0.399    47.919
ATOM     38  H   UNL d   1      -9.159 -13.001  10.485 +0.02 -0.02    +0.209    47.919
ATOM     39  C   UNL d   1     -13.189 -10.805   7.675 -0.02 -0.01    +0.052    47.919
ATOM     40  C   UNL d   1     -13.758 -11.431   8.959 -0.01 -0.01    +0.115    47.919
ATOM     41  C   UNL d   1     -15.135 -12.040   8.800 -0.00 -0.01    +0.139    47.919
ATOM     42  O   UNL d   1     -16.094 -11.308   8.598 +0.00 +0.05    -0.650    47.919
ATOM     43  O   UNL d   1     -15.323 -13.378   8.789 +0.00 +0.06    -0.776    47.919
ATOM     44  H   UNL d   1     -14.781 -13.983   9.311 +0.00 -0.01    +0.167    47.919
ATOM     45  C   UNL d   1      -2.034 -11.561   8.709 -0.54 -0.00    +0.004    47.919
ATOM     46  C   UNL d   1      -1.550 -10.362   8.395 -0.57 -0.00    +0.012    47.919
ATOM     47  C   UNL d   1      -7.351  -5.930   9.754 -0.25 -0.00    +0.004    47.919
ATOM     48  C   UNL d   1      -7.989  -5.098   8.928 -0.32 -0.00    +0.012    47.919
TER
ENDMDL
MODEL       45
USER    Run = 45
USER    Cluster Rank = 42
USER    Number of conformations in this cluster = 1
USER  
USER    RMSD from reference structure       = 30.283 A
USER  
USER    Estimated Free Energy of Binding    =   -2.90 kcal/mol  [=(1)+(2)+(3)-(4)]
USER    Estimated Inhibition Constant, Ki   =    7.51 mM (millimolar)  [Temperature = 298.15 K]
USER    
USER    (1) Final Intermolecular Energy     =   -6.48 kcal/mol
USER        vdW + Hbond + desolv Energy     =   -6.28 kcal/mol
USER        Electrostatic Energy            =   -0.20 kcal/mol
USER    (2) Final Total Internal Energy     =   -4.10 kcal/mol
USER    (3) Torsional Free Energy           =   +3.58 kcal/mol
USER    (4) Unbound System's Energy  [=(2)] =   -4.10 kcal/mol
USER    
USER    
USER  
USER    DPF = D:/Protein_go_brrr/autodock/final/mut_K82N/heme_Co/dock.dpf
USER    NEWDPF move	heme_Co_opt.pdbqt
USER    NEWDPF about	8.781000 34.984000 -0.736000
USER    NEWDPF tran0	-8.177803 10.209861 -11.785695
USER    NEWDPF axisangle0	0.936069 -0.346953 0.058300 -158.834681
USER    NEWDPF quaternion0	0.920147 -0.341051 0.057309 -0.183654
USER    NEWDPF dihe0	55.69 128.00 -156.85 97.67 -68.21 98.36 39.83 112.89 151.40 146.41 -155.65 167.54 
USER  
USER                              x       y       z    vdW   Elec        q     RMS 
ATOM      1  C   UNL d   1      -9.957  11.355 -11.296 -0.06 +0.02    +0.064    30.283
ATOM      2  C   UNL d   1      -7.347  11.045 -15.259 -0.05 -0.01    +0.064    30.283
ATOM      3  C   UNL d   1      -4.198   8.241 -13.011 -0.31 -0.01    +0.064    30.283
ATOM      4  C   UNL d   1      -7.045   8.228  -9.067 -0.27 +0.00    +0.064    30.283
ATOM      5  C   UNL d   1      -9.456  11.506 -12.533 -0.06 +0.01    +0.066    30.283
ATOM      6  C   UNL d   1     -10.143  12.218 -13.536 -0.06 -0.00    -0.021    30.283
ATOM      7  C   UNL d   1      -9.392  12.106 -14.689 -0.04 -0.00    -0.025    30.283
ATOM      8  C   UNL d   1      -8.273  11.344 -14.338 -0.06 -0.00    +0.066    30.283
ATOM      9  C   UNL d   1      -9.704  12.687 -16.077 -0.01 -0.00    +0.051    30.283
ATOM     10  C   UNL d   1      -6.150  10.289 -14.985 -0.08 -0.01    +0.066    30.283
ATOM     11  C   UNL d   1      -5.075  10.062 -15.871 -0.09 +0.01    -0.021    30.283
ATOM     12  C   UNL d   1      -4.169   9.245 -15.188 -0.24 -0.00    +0.000    30.283
ATOM     13  C   UNL d   1      -4.751   9.046 -13.936 -0.25 -0.01    +0.070    30.283
ATOM     14  C   UNL d   1      -4.901  10.672 -17.238 -0.05 -0.01    +0.052    30.283
ATOM     15  C   UNL d   1      -4.686   7.883 -11.694 -0.17 -0.01    +0.066    30.283
ATOM     16  C   UNL d   1      -4.139   6.932 -10.844 -0.41 +0.00    -0.021    30.283
ATOM     17  C   UNL d   1      -4.959   6.923  -9.706 -0.42 -0.00    +0.000    30.283
ATOM     18  C   UNL d   1      -5.934   7.885  -9.945 -0.31 -0.00    +0.070    30.283
ATOM     19  C   UNL d   1      -2.910   6.100 -11.134 -0.36 -0.00    +0.052    30.283
ATOM     20  C   UNL d   1      -8.054   9.097  -9.315 -0.19 +0.01    +0.066    30.283
ATOM     21  C   UNL d   1      -9.087   9.317  -8.406 -0.18 -0.01    -0.025    30.283
ATOM     22  C   UNL d   1      -9.926  10.235  -9.009 -0.13 -0.00    -0.021    30.283
ATOM     23  C   UNL d   1      -9.366  10.524 -10.272 -0.11 +0.02    +0.066    30.283
ATOM     24  C   UNL d   1      -9.276   8.668  -7.037 -0.23 +0.02    +0.051    30.283
ATOM     25  N   UNL d   1      -8.283  10.963 -13.007 -0.07 -0.02    -0.248    30.283
ATOM     26  N   UNL d   1      -5.921   9.724 -13.795 -0.09 +0.04    -0.248    30.283
ATOM     27  N   UNL d   1      -5.759   8.415 -11.151 -0.16 +0.04    -0.248    30.283
ATOM     28  N   UNL d   1      -8.234   9.836 -10.461 -0.09 -0.03    -0.248    30.283
ATOM     29 FE   UNL d   1      -6.948   9.614 -12.021 -0.04 -0.00    +0.000    30.283
ATOM     30  C   UNL d   1     -11.499  12.902 -13.398 -0.04 +0.01    +0.052    30.283
ATOM     31  C   UNL d   1     -12.617  11.864 -13.304 -0.00 +0.01    +0.115    30.283
ATOM     32  C   UNL d   1     -12.292  10.595 -14.062 -0.00 +0.01    +0.139    30.283
ATOM     33  O   UNL d   1     -12.611  10.500 -15.238 +0.00 -0.03    -0.650    30.283
ATOM     34  O   UNL d   1     -11.614   9.572 -13.492 +0.01 -0.07    -0.776    30.283
ATOM     35  H   UNL d   1     -11.851   9.166 -12.647 +0.01 +0.02    +0.167    30.283
ATOM     36  C   UNL d   1      -8.122   8.061 -12.799 -0.03 +0.01    +0.190    30.283
ATOM     37  O   UNL d   1      -9.430   7.569 -12.844 -0.04 -0.04    -0.399    30.283
ATOM     38  H   UNL d   1      -9.999   8.322 -12.521 +0.03 +0.02    +0.209    30.283
ATOM     39  C   UNL d   1     -11.228  10.753  -8.427 -0.08 +0.01    +0.052    30.283
ATOM     40  C   UNL d   1     -12.410   9.879  -8.877 -0.01 +0.03    +0.115    30.283
ATOM     41  C   UNL d   1     -12.330   9.413 -10.315 +0.00 +0.03    +0.139    30.283
ATOM     42  O   UNL d   1     -13.098   9.886 -11.141 +0.01 -0.09    -0.650    30.283
ATOM     43  O   UNL d   1     -11.375   8.551 -10.731 +0.03 -0.15    -0.776    30.283
ATOM     44  H   UNL d   1     -11.032   8.552 -11.634 +0.01 +0.03    +0.167    30.283
ATOM     45  C   UNL d   1      -2.820   8.649 -15.566 -0.38 -0.00    +0.004    30.283
ATOM     46  C   UNL d   1      -1.589   9.136 -15.430 -0.42 -0.00    +0.012    30.283
ATOM     47  C   UNL d   1      -4.894   6.057  -8.491 -0.44 +0.00    +0.004    30.283
ATOM     48  C   UNL d   1      -5.529   4.887  -8.384 -0.37 +0.00    +0.012    30.283
TER
ENDMDL
MODEL      100
USER    Run = 100
USER    Cluster Rank = 43
USER    Number of conformations in this cluster = 1
USER  
USER    RMSD from reference structure       = 40.937 A
USER  
USER    Estimated Free Energy of Binding    =   -2.88 kcal/mol  [=(1)+(2)+(3)-(4)]
USER    Estimated Inhibition Constant, Ki   =    7.69 mM (millimolar)  [Temperature = 298.15 K]
USER    
USER    (1) Final Intermolecular Energy     =   -6.46 kcal/mol
USER        vdW + Hbond + desolv Energy     =   -4.95 kcal/mol
USER        Electrostatic Energy            =   -1.51 kcal/mol
USER    (2) Final Total Internal Energy     =   -2.44 kcal/mol
USER    (3) Torsional Free Energy           =   +3.58 kcal/mol
USER    (4) Unbound System's Energy  [=(2)] =   -2.44 kcal/mol
USER    
USER    
USER  
USER    DPF = D:/Protein_go_brrr/autodock/final/mut_K82N/heme_Co/dock.dpf
USER    NEWDPF move	heme_Co_opt.pdbqt
USER    NEWDPF about	8.781000 34.984000 -0.736000
USER    NEWDPF tran0	-12.492672 -2.388507 -3.775508
USER    NEWDPF axisangle0	0.551729 -0.817571 0.164842 -141.150107
USER    NEWDPF quaternion0	0.520324 -0.771033 0.155459 -0.332572
USER    NEWDPF dihe0	-84.68 120.35 93.19 136.27 135.73 82.60 -104.71 -64.82 -23.19 138.24 169.86 174.87 
USER  
USER                              x       y       z    vdW   Elec        q     RMS 
ATOM      1  C   UNL d   1     -12.187  -0.333  -4.407 -0.12 +0.02    +0.064    40.937
ATOM      2  C   UNL d   1     -11.388  -4.493  -6.569 -0.30 +0.00    +0.064    40.937
ATOM      3  C   UNL d   1     -12.637  -6.839  -2.599 -0.09 -0.03    +0.064    40.937
ATOM      4  C   UNL d   1     -13.829  -2.618  -0.495 -0.06 -0.03    +0.064    40.937
ATOM      5  C   UNL d   1     -11.842  -1.296  -5.277 -0.14 +0.01    +0.066    40.937
ATOM      6  C   UNL d   1     -11.477  -1.006  -6.607 -0.14 -0.01    -0.021    40.937
ATOM      7  C   UNL d   1     -11.268  -2.218  -7.236 -0.21 -0.00    -0.025    40.937
ATOM      8  C   UNL d   1     -11.499  -3.194  -6.260 -0.20 +0.00    +0.066    40.937
ATOM      9  C   UNL d   1     -10.868  -2.464  -8.699 -0.23 +0.01    +0.051    40.937
ATOM     10  C   UNL d   1     -11.580  -5.566  -5.625 -0.20 -0.01    +0.066    40.937
ATOM     11  C   UNL d   1     -11.341  -6.939  -5.850 -0.25 +0.00    -0.021    40.937
ATOM     12  C   UNL d   1     -11.710  -7.600  -4.675 -0.17 -0.00    +0.000    40.937
ATOM     13  C   UNL d   1     -12.133  -6.583  -3.819 -0.10 -0.02    +0.070    40.937
ATOM     14  C   UNL d   1     -10.713  -7.546  -7.078 -0.42 -0.01    +0.052    40.937
ATOM     15  C   UNL d   1     -13.165  -5.920  -1.610 -0.07 -0.05    +0.066    40.937
ATOM     16  C   UNL d   1     -13.805  -6.262  -0.427 -0.08 +0.02    -0.021    40.937
ATOM     17  C   UNL d   1     -14.153  -5.048   0.182 -0.08 -0.00    +0.000    40.937
ATOM     18  C   UNL d   1     -13.681  -4.057  -0.672 -0.01 -0.06    +0.070    40.937
ATOM     19  C   UNL d   1     -14.053  -7.673   0.060 -0.09 -0.03    +0.052    40.937
ATOM     20  C   UNL d   1     -13.455  -1.639  -1.353 -0.06 -0.02    +0.066    40.937
ATOM     21  C   UNL d   1     -13.683  -0.291  -1.087 -0.06 +0.00    -0.025    40.937
ATOM     22  C   UNL d   1     -13.194   0.394  -2.184 -0.11 -0.00    -0.021    40.937
ATOM     23  C   UNL d   1     -12.699  -0.579  -3.078 -0.09 +0.01    +0.066    40.937
ATOM     24  C   UNL d   1     -14.353   0.316   0.144 -0.04 -0.00    +0.051    40.937
ATOM     25  N   UNL d   1     -11.850  -2.651  -5.036 -0.08 +0.00    -0.248    40.937
ATOM     26  N   UNL d   1     -12.000  -5.349  -4.375 -0.05 +0.06    -0.248    40.937
ATOM     27  N   UNL d   1     -13.126  -4.613  -1.743 -0.05 +0.19    -0.248    40.937
ATOM     28  N   UNL d   1     -12.857  -1.811  -2.579 -0.03 +0.05    -0.248    40.937
ATOM     29 FE   UNL d   1     -12.526  -3.687  -3.290 -0.02 -0.00    +0.000    40.937
ATOM     30  C   UNL d   1     -11.416   0.374  -7.253 -0.21 +0.03    +0.052    40.937
ATOM     31  C   UNL d   1     -12.596   0.574  -8.204 -0.13 +0.06    +0.115    40.937
ATOM     32  C   UNL d   1     -12.941   2.035  -8.395 -0.09 +0.12    +0.139    40.937
ATOM     33  O   UNL d   1     -12.993   2.498  -9.524 -0.02 -0.38    -0.650    40.937
ATOM     34  O   UNL d   1     -13.245   2.843  -7.352 -0.12 -1.37    -0.776    40.937
ATOM     35  H   UNL d   1     -14.137   2.963  -6.998 +0.00 +0.19    +0.167    40.937
ATOM     36  C   UNL d   1     -14.425  -3.711  -4.178 -0.01 -0.02    +0.190    40.937
ATOM     37  O   UNL d   1     -15.513  -2.895  -4.504 +0.00 +0.02    -0.399    40.937
ATOM     38  H   UNL d   1     -15.209  -1.968  -4.295 +0.01 -0.00    +0.209    40.937
ATOM     39  C   UNL d   1     -13.262   1.896  -2.386 -0.12 +0.02    +0.052    40.937
ATOM     40  C   UNL d   1     -14.625   2.305  -2.969 -0.08 +0.04    +0.115    40.937
ATOM     41  C   UNL d   1     -15.077   1.466  -4.146 -0.05 +0.05    +0.139    40.937
ATOM     42  O   UNL d   1     -15.467   0.323  -3.951 +0.01 -0.10    -0.650    40.937
ATOM     43  O   UNL d   1     -15.146   1.974  -5.396 +0.00 -0.37    -0.776    40.937
ATOM     44  H   UNL d   1     -14.456   1.826  -6.056 +0.01 +0.12    +0.167    40.937
ATOM     45  C   UNL d   1     -11.694  -9.064  -4.258 -0.22 -0.00    +0.004    40.937
ATOM     46  C   UNL d   1     -11.172  -9.654  -3.186 -0.26 -0.00    +0.012    40.937
ATOM     47  C   UNL d   1     -14.915  -4.797   1.442 -0.07 -0.00    +0.004    40.937
ATOM     48  C   UNL d   1     -14.378  -4.237   2.529 -0.08 -0.01    +0.012    40.937
TER
ENDMDL
MODEL       61
USER    Run = 61
USER    Cluster Rank = 44
USER    Number of conformations in this cluster = 1
USER  
USER    RMSD from reference structure       = 25.964 A
USER  
USER    Estimated Free Energy of Binding    =   -2.65 kcal/mol  [=(1)+(2)+(3)-(4)]
USER    Estimated Inhibition Constant, Ki   =   11.41 mM (millimolar)  [Temperature = 298.15 K]
USER    
USER    (1) Final Intermolecular Energy     =   -6.23 kcal/mol
USER        vdW + Hbond + desolv Energy     =   -5.34 kcal/mol
USER        Electrostatic Energy            =   -0.89 kcal/mol
USER    (2) Final Total Internal Energy     =   -4.04 kcal/mol
USER    (3) Torsional Free Energy           =   +3.58 kcal/mol
USER    (4) Unbound System's Energy  [=(2)] =   -4.04 kcal/mol
USER    
USER    
USER  
USER    DPF = D:/Protein_go_brrr/autodock/final/mut_K82N/heme_Co/dock.dpf
USER    NEWDPF move	heme_Co_opt.pdbqt
USER    NEWDPF about	8.781000 34.984000 -0.736000
USER    NEWDPF tran0	-6.700623 12.781429 10.301168
USER    NEWDPF axisangle0	0.018325 -0.987755 -0.154934 -167.968195
USER    NEWDPF quaternion0	0.018224 -0.982315 -0.154081 -0.104804
USER    NEWDPF dihe0	128.42 85.34 -67.37 -7.49 -89.14 122.04 -123.64 -24.67 -125.97 -163.06 -177.10 165.82 
USER  
USER                              x       y       z    vdW   Elec        q     RMS 
ATOM      1  C   UNL d   1      -4.631  13.134  10.858 -0.12 -0.02    +0.064    25.964
ATOM      2  C   UNL d   1      -6.643  11.633   6.819 -0.37 +0.00    +0.064    25.964
ATOM      3  C   UNL d   1     -10.925  11.556   8.936 -0.08 -0.01    +0.064    25.964
ATOM      4  C   UNL d   1      -8.957  13.457  12.958 -0.00 -0.01    +0.064    25.964
ATOM      5  C   UNL d   1      -4.861  12.695   9.609 -0.20 -0.01    +0.066    25.964
ATOM      6  C   UNL d   1      -3.843  12.641   8.637 -0.31 +0.00    -0.021    25.964
ATOM      7  C   UNL d   1      -4.436  12.226   7.461 -0.43 -0.00    -0.025    25.964
ATOM      8  C   UNL d   1      -5.787  12.030   7.769 -0.34 +0.00    +0.066    25.964
ATOM      9  C   UNL d   1      -3.772  12.019   6.091 -0.23 +0.01    +0.051    25.964
ATOM     10  C   UNL d   1      -8.043  11.379   7.048 -0.31 -0.00    +0.066    25.964
ATOM     11  C   UNL d   1      -8.962  10.828   6.129 -0.38 +0.00    -0.021    25.964
ATOM     12  C   UNL d   1     -10.202  10.814   6.774 -0.25 -0.00    +0.000    25.964
ATOM     13  C   UNL d   1      -9.946  11.343   8.039 -0.15 -0.01    +0.070    25.964
ATOM     14  C   UNL d   1      -8.637  10.271   4.767 -0.41 -0.00    +0.052    25.964
ATOM     15  C   UNL d   1     -10.848  12.139  10.261 -0.03 -0.01    +0.066    25.964
ATOM     16  C   UNL d   1     -11.919  12.465  11.081 -0.00 +0.00    -0.021    25.964
ATOM     17  C   UNL d   1     -11.356  13.016  12.241 -0.00 -0.00    +0.000    25.964
ATOM     18  C   UNL d   1      -9.981  12.967  12.043 -0.00 -0.01    +0.070    25.964
ATOM     19  C   UNL d   1     -13.378  12.251  10.744 -0.00 -0.00    +0.052    25.964
ATOM     20  C   UNL d   1      -7.619  13.499  12.751 -0.02 -0.01    +0.066    25.964
ATOM     21  C   UNL d   1      -6.737  14.027  13.692 -0.01 +0.01    -0.025    25.964
ATOM     22  C   UNL d   1      -5.480  13.921  13.126 -0.05 +0.01    -0.021    25.964
ATOM     23  C   UNL d   1      -5.659  13.339  11.852 -0.09 -0.02    +0.066    25.964
ATOM     24  C   UNL d   1      -7.077  14.622  15.055 -0.00 -0.01    +0.051    25.964
ATOM     25  N   UNL d   1      -6.077  12.307   9.095 -0.16 +0.00    -0.248    25.964
ATOM     26  N   UNL d   1      -8.630  11.632   8.223 -0.13 +0.02    -0.248    25.964
ATOM     27  N   UNL d   1      -9.715  12.467  10.841 -0.01 +0.03    -0.248    25.964
ATOM     28  N   UNL d   1      -6.953  13.085  11.621 -0.03 +0.05    -0.248    25.964
ATOM     29 FE   UNL d   1      -8.002  12.392  10.023 -0.03 -0.00    +0.000    25.964
ATOM     30  C   UNL d   1      -2.386  13.051   8.822 -0.29 -0.01    +0.052    25.964
ATOM     31  C   UNL d   1      -2.181  14.509   8.411 -0.18 +0.01    +0.115    25.964
ATOM     32  C   UNL d   1      -3.160  15.443   9.090 -0.11 +0.05    +0.139    25.964
ATOM     33  O   UNL d   1      -2.767  16.178   9.984 +0.03 -0.10    -0.650    25.964
ATOM     34  O   UNL d   1      -4.455  15.527   8.707 +0.01 -0.79    -0.776    25.964
ATOM     35  H   UNL d   1      -5.207  15.394   9.300 +0.03 +0.12    +0.167    25.964
ATOM     36  C   UNL d   1      -8.161  14.337   9.255 -0.05 +0.04    +0.190    25.964
ATOM     37  O   UNL d   1      -7.411  15.472   8.933 -0.25 -0.25    -0.399    25.964
ATOM     38  H   UNL d   1      -6.625  15.444   9.548 +0.03 +0.11    +0.209    25.964
ATOM     39  C   UNL d   1      -4.189  14.413  13.752 -0.05 -0.02    +0.052    25.964
ATOM     40  C   UNL d   1      -3.872  15.844  13.289 -0.01 -0.02    +0.115    25.964
ATOM     41  C   UNL d   1      -5.008  16.531  12.560 +0.00 -0.01    +0.139    25.964
ATOM     42  O   UNL d   1      -5.551  17.499  13.075 +0.01 +0.02    -0.650    25.964
ATOM     43  O   UNL d   1      -5.382  16.159  11.316 +0.03 -0.08    -0.776    25.964
ATOM     44  H   UNL d   1      -4.784  16.204  10.559 +0.02 +0.04    +0.167    25.964
ATOM     45  C   UNL d   1     -11.588  10.345   6.349 -0.17 -0.00    +0.004    25.964
ATOM     46  C   UNL d   1     -12.077  10.069   5.143 -0.26 +0.00    +0.012    25.964
ATOM     47  C   UNL d   1     -12.026  13.601  13.441 +0.00 -0.00    +0.004    25.964
ATOM     48  C   UNL d   1     -11.996  14.902  13.741 +0.00 -0.00    +0.012    25.964
TER
ENDMDL
MODEL       46
USER    Run = 46
USER    Cluster Rank = 45
USER    Number of conformations in this cluster = 1
USER  
USER    RMSD from reference structure       = 26.802 A
USER  
USER    Estimated Free Energy of Binding    =   -2.56 kcal/mol  [=(1)+(2)+(3)-(4)]
USER    Estimated Inhibition Constant, Ki   =   13.35 mM (millimolar)  [Temperature = 298.15 K]
USER    
USER    (1) Final Intermolecular Energy     =   -6.14 kcal/mol
USER        vdW + Hbond + desolv Energy     =   -5.74 kcal/mol
USER        Electrostatic Energy            =   -0.39 kcal/mol
USER    (2) Final Total Internal Energy     =   -3.24 kcal/mol
USER    (3) Torsional Free Energy           =   +3.58 kcal/mol
USER    (4) Unbound System's Energy  [=(2)] =   -3.24 kcal/mol
USER    
USER    
USER  
USER    DPF = D:/Protein_go_brrr/autodock/final/mut_K82N/heme_Co/dock.dpf
USER    NEWDPF move	heme_Co_opt.pdbqt
USER    NEWDPF about	8.781000 34.984000 -0.736000
USER    NEWDPF tran0	-12.845276 15.605800 -4.748547
USER    NEWDPF axisangle0	-0.868941 0.449161 0.207835 150.518869
USER    NEWDPF quaternion0	-0.840342 0.434378 0.200995 0.254443
USER    NEWDPF dihe0	79.70 136.68 108.61 -108.76 -48.00 100.72 17.32 -54.62 -180.00 -147.55 179.90 143.75 
USER  
USER                              x       y       z    vdW   Elec        q     RMS 
ATOM      1  C   UNL d   1     -13.732  17.185  -3.551 -0.08 +0.02    +0.064    26.802
ATOM      2  C   UNL d   1     -13.467  16.504  -8.249 -0.09 +0.05    +0.064    26.802
ATOM      3  C   UNL d   1     -10.730  12.647  -7.574 -0.23 +0.03    +0.064    26.802
ATOM      4  C   UNL d   1     -11.305  13.097  -2.764 -0.25 +0.02    +0.064    26.802
ATOM      5  C   UNL d   1     -13.831  17.304  -4.885 -0.07 +0.03    +0.066    26.802
ATOM      6  C   UNL d   1     -14.628  18.294  -5.491 -0.04 -0.01    -0.021    26.802
ATOM      7  C   UNL d   1     -14.565  18.078  -6.853 -0.04 -0.01    -0.025    26.802
ATOM      8  C   UNL d   1     -13.721  16.976  -7.022 -0.05 +0.05    +0.066    26.802
ATOM      9  C   UNL d   1     -15.269  18.869  -7.967 -0.01 +0.01    +0.051    26.802
ATOM     10  C   UNL d   1     -12.591  15.392  -8.522 -0.11 +0.05    +0.066    26.802
ATOM     11  C   UNL d   1     -12.174  14.939  -9.792 -0.13 -0.01    -0.021    26.802
ATOM     12  C   UNL d   1     -11.374  13.815  -9.566 -0.19 +0.00    +0.000    26.802
ATOM     13  C   UNL d   1     -11.351  13.675  -8.178 -0.20 +0.04    +0.070    26.802
ATOM     14  C   UNL d   1     -12.455  15.606 -11.114 -0.07 +0.02    +0.052    26.802
ATOM     15  C   UNL d   1     -10.651  12.320  -6.164 -0.25 +0.02    +0.066    26.802
ATOM     16  C   UNL d   1     -10.117  11.163  -5.616 -0.30 -0.01    -0.021    26.802
ATOM     17  C   UNL d   1     -10.282  11.287  -4.229 -0.41 +0.00    +0.000    26.802
ATOM     18  C   UNL d   1     -10.892  12.522  -4.039 -0.26 +0.02    +0.070    26.802
ATOM     19  C   UNL d   1      -9.495  10.028  -6.398 -0.29 +0.01    +0.052    26.802
ATOM     20  C   UNL d   1     -11.976  14.256  -2.562 -0.22 +0.02    +0.066    26.802
ATOM     21  C   UNL d   1     -12.350  14.686  -1.291 -0.27 -0.00    -0.025    26.802
ATOM     22  C   UNL d   1     -13.026  15.877  -1.484 -0.17 -0.00    -0.021    26.802
ATOM     23  C   UNL d   1     -13.042  16.110  -2.875 -0.14 +0.02    +0.066    26.802
ATOM     24  C   UNL d   1     -12.093  13.988   0.042 -0.27 +0.01    +0.051    26.802
ATOM     25  N   UNL d   1     -13.246  16.479  -5.820 -0.01 -0.19    -0.248    26.802
ATOM     26  N   UNL d   1     -12.041  14.662  -7.546 -0.10 -0.21    -0.248    26.802
ATOM     27  N   UNL d   1     -11.124  13.096  -5.214 -0.14 -0.11    -0.248    26.802
ATOM     28  N   UNL d   1     -12.410  15.130  -3.532 -0.05 -0.10    -0.248    26.802
ATOM     29 FE   UNL d   1     -12.122  14.688  -5.495 -0.05 +0.00    +0.000    26.802
ATOM     30  C   UNL d   1     -15.472  19.345  -4.777 -0.01 +0.01    +0.052    26.802
ATOM     31  C   UNL d   1     -16.921  18.875  -4.651 -0.00 +0.01    +0.115    26.802
ATOM     32  C   UNL d   1     -17.149  17.527  -5.301 +0.00 +0.01    +0.139    26.802
ATOM     33  O   UNL d   1     -17.846  17.452  -6.301 +0.00 -0.06    -0.650    26.802
ATOM     34  O   UNL d   1     -16.564  16.398  -4.836 +0.01 -0.10    -0.776    26.802
ATOM     35  H   UNL d   1     -16.846  15.928  -4.039 +0.00 +0.02    +0.167    26.802
ATOM     36  C   UNL d   1     -13.950  13.664  -5.556 -0.04 +0.05    +0.190    26.802
ATOM     37  O   UNL d   1     -15.227  13.629  -4.987 -0.00 -0.07    -0.399    26.802
ATOM     38  H   UNL d   1     -15.377  14.550  -4.635 +0.01 +0.04    +0.209    26.802
ATOM     39  C   UNL d   1     -13.676  16.707  -0.392 -0.11 +0.01    +0.052    26.802
ATOM     40  C   UNL d   1     -15.202  16.744  -0.574 -0.03 +0.01    +0.115    26.802
ATOM     41  C   UNL d   1     -15.775  15.542  -1.295 -0.02 +0.01    +0.139    26.802
ATOM     42  O   UNL d   1     -16.013  14.523  -0.662 +0.01 -0.05    -0.650    26.802
ATOM     43  O   UNL d   1     -16.112  15.592  -2.602 +0.02 -0.08    -0.776    26.802
ATOM     44  H   UNL d   1     -15.660  15.067  -3.276 +0.01 +0.02    +0.167    26.802
ATOM     45  C   UNL d   1     -10.617  12.875 -10.494 -0.09 +0.00    +0.004    26.802
ATOM     46  C   UNL d   1     -10.762  11.571 -10.713 -0.10 +0.00    +0.012    26.802
ATOM     47  C   UNL d   1      -9.954  10.320  -3.139 -0.52 +0.00    +0.004    26.802
ATOM     48  C   UNL d   1     -10.615   9.177  -2.943 -0.40 +0.00    +0.012    26.802
TER
ENDMDL
MODEL       96
USER    Run = 96
USER    Cluster Rank = 46
USER    Number of conformations in this cluster = 1
USER  
USER    RMSD from reference structure       = 40.755 A
USER  
USER    Estimated Free Energy of Binding    =   -2.34 kcal/mol  [=(1)+(2)+(3)-(4)]
USER    Estimated Inhibition Constant, Ki   =   19.23 mM (millimolar)  [Temperature = 298.15 K]
USER    
USER    (1) Final Intermolecular Energy     =   -5.92 kcal/mol
USER        vdW + Hbond + desolv Energy     =   -5.58 kcal/mol
USER        Electrostatic Energy            =   -0.34 kcal/mol
USER    (2) Final Total Internal Energy     =   -2.39 kcal/mol
USER    (3) Torsional Free Energy           =   +3.58 kcal/mol
USER    (4) Unbound System's Energy  [=(2)] =   -2.39 kcal/mol
USER    
USER    
USER  
USER    DPF = D:/Protein_go_brrr/autodock/final/mut_K82N/heme_Co/dock.dpf
USER    NEWDPF move	heme_Co_opt.pdbqt
USER    NEWDPF about	8.781000 34.984000 -0.736000
USER    NEWDPF tran0	11.775996 -8.240647 1.125030
USER    NEWDPF axisangle0	-0.487090 0.443994 0.752072 -104.336288
USER    NEWDPF quaternion0	-0.384711 0.350673 0.593997 -0.613346
USER    NEWDPF dihe0	-4.71 -23.19 138.35 -100.20 -66.63 -55.22 -124.82 -33.57 163.93 -111.19 14.55 -6.25 
USER  
USER                              x       y       z    vdW   Elec        q     RMS 
ATOM      1  C   UNL d   1      11.207  -9.885   2.425 -0.17 +0.01    +0.064    40.755
ATOM      2  C   UNL d   1      13.823  -5.984   3.166 -0.14 +0.00    +0.064    40.755
ATOM      3  C   UNL d   1      13.486  -4.833  -1.459 -0.05 +0.01    +0.064    40.755
ATOM      4  C   UNL d   1      10.492  -8.601  -2.165 -0.05 +0.00    +0.064    40.755
ATOM      5  C   UNL d   1      11.977  -8.923   2.960 -0.24 +0.00    +0.066    40.755
ATOM      6  C   UNL d   1      12.254  -8.868   4.340 -0.30 -0.00    -0.021    40.755
ATOM      7  C   UNL d   1      12.994  -7.722   4.553 -0.23 -0.00    -0.025    40.755
ATOM      8  C   UNL d   1      13.151  -7.135   3.292 -0.15 +0.00    +0.066    40.755
ATOM      9  C   UNL d   1      13.540  -7.186   5.885 -0.25 +0.00    +0.051    40.755
ATOM     10  C   UNL d   1      14.058  -5.320   1.908 -0.08 +0.00    +0.066    40.755
ATOM     11  C   UNL d   1      14.873  -4.188   1.690 -0.04 -0.00    -0.021    40.755
ATOM     12  C   UNL d   1      14.759  -3.876   0.333 -0.03 +0.00    +0.000    40.755
ATOM     13  C   UNL d   1      13.897  -4.846  -0.179 -0.04 +0.00    +0.070    40.755
ATOM     14  C   UNL d   1      15.766  -3.523   2.706 -0.03 +0.00    +0.052    40.755
ATOM     15  C   UNL d   1      12.563  -5.721  -2.138 -0.06 +0.01    +0.066    40.755
ATOM     16  C   UNL d   1      12.068  -5.566  -3.425 -0.10 -0.00    -0.021    40.755
ATOM     17  C   UNL d   1      11.202  -6.650  -3.632 -0.11 +0.00    +0.000    40.755
ATOM     18  C   UNL d   1      11.250  -7.391  -2.457 -0.08 +0.00    +0.070    40.755
ATOM     19  C   UNL d   1      12.421  -4.440  -4.371 +0.08 +0.02    +0.052    40.755
ATOM     20  C   UNL d   1      10.456  -9.291  -0.999 -0.11 +0.00    +0.066    40.755
ATOM     21  C   UNL d   1       9.659 -10.421  -0.828 -0.18 -0.00    -0.025    40.755
ATOM     22  C   UNL d   1       9.867 -10.830   0.477 -0.23 -0.00    -0.021    40.755
ATOM     23  C   UNL d   1      10.779  -9.914   1.045 -0.21 +0.01    +0.066    40.755
ATOM     24  C   UNL d   1       8.730 -11.069  -1.851 -0.21 +0.01    +0.051    40.755
ATOM     25  N   UNL d   1      12.536  -7.861   2.286 -0.10 -0.01    -0.248    40.755
ATOM     26  N   UNL d   1      13.519  -5.751   0.763 -0.03 -0.00    -0.248    40.755
ATOM     27  N   UNL d   1      12.047  -6.793  -1.578 -0.03 -0.01    -0.248    40.755
ATOM     28  N   UNL d   1      11.136  -8.980   0.155 -0.09 -0.01    -0.248    40.755
ATOM     29 FE   UNL d   1      12.275  -7.298   0.239 -0.03 +0.00    +0.000    40.755
ATOM     30  C   UNL d   1      11.754  -9.836   5.407 -0.31 +0.01    +0.052    40.755
ATOM     31  C   UNL d   1      12.829 -10.871   5.740 -0.18 +0.03    +0.115    40.755
ATOM     32  C   UNL d   1      13.898 -10.957   4.672 -0.08 +0.02    +0.139    40.755
ATOM     33  O   UNL d   1      15.000 -10.473   4.885 +0.03 -0.04    -0.650    40.755
ATOM     34  O   UNL d   1      13.690 -11.598   3.499 +0.04 -0.11    -0.776    40.755
ATOM     35  H   UNL d   1      12.914 -12.142   3.306 +0.03 +0.04    +0.167    40.755
ATOM     36  C   UNL d   1      10.620  -6.180   0.874 -0.25 -0.02    +0.190    40.755
ATOM     37  O   UNL d   1       9.869  -5.037   0.583 -0.24 +0.11    -0.399    40.755
ATOM     38  H   UNL d   1       9.708  -4.603   1.467 -0.39 -0.14    +0.209    40.755
ATOM     39  C   UNL d   1       9.175 -11.997   1.154 -0.11 +0.01    +0.052    40.755
ATOM     40  C   UNL d   1      10.040 -13.266   1.068 -0.17 +0.02    +0.115    40.755
ATOM     41  C   UNL d   1      11.368 -13.166   1.789 -0.11 +0.03    +0.139    40.755
ATOM     42  O   UNL d   1      11.510 -13.737   2.861 +0.00 -0.26    -0.650    40.755
ATOM     43  O   UNL d   1      12.429 -12.536   1.239 +0.03 -0.10    -0.776    40.755
ATOM     44  H   UNL d   1      13.062 -12.030   1.765 +0.02 +0.02    +0.167    40.755
ATOM     45  C   UNL d   1      15.377  -2.791  -0.539 -0.04 +0.00    +0.004    40.755
ATOM     46  C   UNL d   1      14.832  -1.714  -1.098 -0.10 +0.00    +0.012    40.755
ATOM     47  C   UNL d   1      10.339  -6.970  -4.809 -0.17 -0.00    +0.004    40.755
ATOM     48  C   UNL d   1       9.091  -6.516  -4.953 -0.31 -0.00    +0.012    40.755
TER
ENDMDL
MODEL       71
USER    Run = 71
USER    Cluster Rank = 47
USER    Number of conformations in this cluster = 1
USER  
USER    RMSD from reference structure       = 19.578 A
USER  
USER    Estimated Free Energy of Binding    =   -1.50 kcal/mol  [=(1)+(2)+(3)-(4)]
USER    Estimated Inhibition Constant, Ki   =   78.87 mM (millimolar)  [Temperature = 298.15 K]
USER    
USER    (1) Final Intermolecular Energy     =   -5.08 kcal/mol
USER        vdW + Hbond + desolv Energy     =   -5.03 kcal/mol
USER        Electrostatic Energy            =   -0.06 kcal/mol
USER    (2) Final Total Internal Energy     =   -4.13 kcal/mol
USER    (3) Torsional Free Energy           =   +3.58 kcal/mol
USER    (4) Unbound System's Energy  [=(2)] =   -4.13 kcal/mol
USER    
USER    
USER  
USER    DPF = D:/Protein_go_brrr/autodock/final/mut_K82N/heme_Co/dock.dpf
USER    NEWDPF move	heme_Co_opt.pdbqt
USER    NEWDPF about	8.781000 34.984000 -0.736000
USER    NEWDPF tran0	-10.269507 21.002330 0.980443
USER    NEWDPF axisangle0	-0.533250 0.776894 0.334783 -86.576312
USER    NEWDPF quaternion0	-0.365632 0.532692 0.229550 -0.727915
USER    NEWDPF dihe0	147.46 93.70 -54.20 -69.01 -88.37 119.41 -124.40 -29.25 -128.15 -157.02 -175.61 162.34 
USER  
USER                              x       y       z    vdW   Elec        q     RMS 
ATOM      1  C   UNL d   1     -11.780  20.762   2.522 -0.07 +0.01    +0.064    19.578
ATOM      2  C   UNL d   1      -7.174  21.926   2.716 -0.17 -0.00    +0.064    19.578
ATOM      3  C   UNL d   1      -6.752  21.196  -1.987 -0.27 +0.00    +0.064    19.578
ATOM      4  C   UNL d   1     -11.539  20.379  -2.276 -0.10 +0.01    +0.064    19.578
ATOM      5  C   UNL d   1     -10.544  21.098   2.927 -0.09 +0.01    +0.066    19.578
ATOM      6  C   UNL d   1     -10.268  21.465   4.258 -0.05 -0.00    -0.021    19.578
ATOM      7  C   UNL d   1      -8.935  21.824   4.304 -0.06 -0.00    -0.025    19.578
ATOM      8  C   UNL d   1      -8.451  21.645   3.003 -0.13 +0.00    +0.066    19.578
ATOM      9  C   UNL d   1      -8.133  22.319   5.517 -0.03 +0.00    +0.051    19.578
ATOM     10  C   UNL d   1      -6.581  21.748   1.414 -0.20 -0.00    +0.066    19.578
ATOM     11  C   UNL d   1      -5.216  21.890   1.082 -0.28 +0.00    -0.021    19.578
ATOM     12  C   UNL d   1      -5.121  21.668  -0.294 -0.35 -0.00    +0.000    19.578
ATOM     13  C   UNL d   1      -6.428  21.395  -0.697 -0.23 -0.00    +0.070    19.578
ATOM     14  C   UNL d   1      -4.083  22.127   2.047 -0.27 -0.01    +0.052    19.578
ATOM     15  C   UNL d   1      -8.052  20.956  -2.582 -0.21 +0.01    +0.066    19.578
ATOM     16  C   UNL d   1      -8.339  20.903  -3.939 -0.23 -0.00    -0.021    19.578
ATOM     17  C   UNL d   1      -9.719  20.670  -4.028 -0.17 +0.00    +0.000    19.578
ATOM     18  C   UNL d   1     -10.163  20.582  -2.713 -0.13 +0.02    +0.070    19.578
ATOM     19  C   UNL d   1      -7.332  21.071  -5.055 -0.27 +0.01    +0.052    19.578
ATOM     20  C   UNL d   1     -12.008  20.376  -1.005 -0.08 +0.01    +0.066    19.578
ATOM     21  C   UNL d   1     -13.360  20.207  -0.712 -0.06 -0.00    -0.025    19.578
ATOM     22  C   UNL d   1     -13.456  20.284   0.665 -0.05 -0.00    -0.021    19.578
ATOM     23  C   UNL d   1     -12.149  20.510   1.147 -0.08 +0.01    +0.066    19.578
ATOM     24  C   UNL d   1     -14.508  20.003  -1.697 -0.03 +0.01    +0.051    19.578
ATOM     25  N   UNL d   1      -9.425  21.190   2.130 -0.10 -0.02    -0.248    19.578
ATOM     26  N   UNL d   1      -7.301  21.388   0.346 -0.02 -0.01    -0.248    19.578
ATOM     27  N   UNL d   1      -9.149  20.787  -1.879 -0.08 -0.04    -0.248    19.578
ATOM     28  N   UNL d   1     -11.270  20.568   0.140 -0.04 -0.04    -0.248    19.578
ATOM     29 FE   UNL d   1      -9.283  20.975   0.007 -0.05 +0.00    +0.000    19.578
ATOM     30  C   UNL d   1     -11.268  21.543   5.407 -0.02 +0.00    +0.052    19.578
ATOM     31  C   UNL d   1     -11.861  22.948   5.508 -0.00 +0.00    +0.115    19.578
ATOM     32  C   UNL d   1     -12.374  23.455   4.178 -0.01 +0.00    +0.139    19.578
ATOM     33  O   UNL d   1     -13.579  23.506   3.978 +0.00 -0.00    -0.650    19.578
ATOM     34  O   UNL d   1     -11.540  23.904   3.211 +0.01 -0.00    -0.776    19.578
ATOM     35  H   UNL d   1     -11.679  23.764   2.265 +0.01 +0.00    +0.167    19.578
ATOM     36  C   UNL d   1      -9.687  23.029  -0.115 -0.04 +0.01    +0.190    19.578
ATOM     37  O   UNL d   1     -10.421  24.057   0.485 -0.00 -0.00    -0.399    19.578
ATOM     38  H   UNL d   1     -11.139  23.594   0.999 +0.01 +0.00    +0.209    19.578
ATOM     39  C   UNL d   1     -14.744  20.210   1.463 -0.02 +0.00    +0.052    19.578
ATOM     40  C   UNL d   1     -15.263  21.620   1.789 -0.01 +0.00    +0.115    19.578
ATOM     41  C   UNL d   1     -14.664  22.718   0.936 -0.01 +0.00    +0.139    19.578
ATOM     42  O   UNL d   1     -15.359  23.269   0.094 +0.00 -0.01    -0.650    19.578
ATOM     43  O   UNL d   1     -13.406  23.169   1.139 +0.01 -0.02    -0.776    19.578
ATOM     44  H   UNL d   1     -13.072  23.402   2.015 +0.00 +0.00    +0.167    19.578
ATOM     45  C   UNL d   1      -3.949  21.663  -1.267 -0.47 -0.00    +0.004    19.578
ATOM     46  C   UNL d   1      -3.279  22.671  -1.821 -0.36 -0.01    +0.012    19.578
ATOM     47  C   UNL d   1     -10.596  20.583  -5.233 -0.15 +0.00    +0.004    19.578
ATOM     48  C   UNL d   1     -11.505  21.508  -5.552 -0.06 +0.00    +0.012    19.578
TER
ENDMDL


AVSFLD: # AVS field file
AVSFLD: #
AVSFLD: # Created by AutoDock
AVSFLD: #
AVSFLD: ndim=2           # number of dimensions in the field
AVSFLD: nspace=1         # number of physical coordinates
AVSFLD: veclen=7         # vector size
AVSFLD: dim1=48          # atoms
AVSFLD: dim2=47          # conformations
AVSFLD: data=Real       # data type (byte,integer,Real,double)
AVSFLD: field=uniform    # field coordinate layout
AVSFLD: label= x y z vdW Elec q RMS
AVSFLD: variable 1 file = D:/Protein_go_brrr/autodock/final/mut_K82N/heme_Co/dock.dlg.pdb filetype = ascii offset = 5 stride = 12
AVSFLD: variable 2 file = D:/Protein_go_brrr/autodock/final/mut_K82N/heme_Co/dock.dlg.pdb filetype = ascii offset = 6 stride = 12
AVSFLD: variable 3 file = D:/Protein_go_brrr/autodock/final/mut_K82N/heme_Co/dock.dlg.pdb filetype = ascii offset = 7 stride = 12
AVSFLD: variable 4 file = D:/Protein_go_brrr/autodock/final/mut_K82N/heme_Co/dock.dlg.pdb filetype = ascii offset = 8 stride = 12
AVSFLD: variable 5 file = D:/Protein_go_brrr/autodock/final/mut_K82N/heme_Co/dock.dlg.pdb filetype = ascii offset = 9 stride = 12
AVSFLD: variable 6 file = D:/Protein_go_brrr/autodock/final/mut_K82N/heme_Co/dock.dlg.pdb filetype = ascii offset = 10 stride = 12
AVSFLD: variable 7 file = D:/Protein_go_brrr/autodock/final/mut_K82N/heme_Co/dock.dlg.pdb filetype = ascii offset = 11 stride = 12
AVSFLD: # end of file

>>> Closing the docking parameter file (DPF)...
This docking finished at:			11:48 28" p.m., 10/17/2025


________________________________________________________________________________

D:/autodockScripts/autodock4.exe: Successful Completion on "ACER"

Real= 8h 39m 49.39s,  CPU= 1m 05.88s,  System= 26.69s
________________________________________________________________________________

