REMARK  6 active torsions:
REMARK  status: ('A' for Active; 'I' for Inactive)
REMARK    1  A    between atoms: P_1  and  O_3 
REMARK    2  A    between atoms: P_2  and  O_4 
REMARK    3  A    between atoms: O_3  and  C_13 
REMARK    4  A    between atoms: O_4  and  C_14 
REMARK    5  A    between atoms: C_13  and  C_14 
REMARK    6  A    between atoms: C_13  and  C_15 
ROOT
ATOM      1  C   UNL d   1       2.815 -13.222  -6.625  0.00  0.00     0.193 C 
ENDROOT
BRANCH   1   2
ATOM      2  O   UNL d   1       3.770 -12.404  -5.869  0.00  0.00    -0.356 OA
BRANCH   2   3
ATOM      3  P   UNL d   1       4.034 -12.583  -4.256  0.00  0.00    -0.014 P 
ATOM      4  O   UNL d   1       4.873 -11.356  -3.866  0.00  0.00    -0.577 OA
ATOM      5  O   UNL d   1       4.815 -13.881  -4.067  0.00  0.00    -0.577 OA
ATOM      6  O   UNL d   1       2.680 -12.580  -3.554  0.00  0.00    -0.638 OA
ENDBRANCH   2   3
ENDBRANCH   1   2
BRANCH   1   7
ATOM      7  C   UNL d   1       3.512 -14.578  -7.016  0.00  0.00     0.201 C 
BRANCH   7   8
ATOM      8  O   UNL d   1       2.654 -15.740  -7.052  0.00  0.00    -0.364 OA
BRANCH   8   9
ATOM      9  P   UNL d   1       3.010 -17.062  -6.124  0.00  0.00    -0.015 P 
ATOM     10  O   UNL d   1       4.153 -16.611  -5.208  0.00  0.00    -0.577 OA
ATOM     11  O   UNL d   1       3.448 -18.172  -7.079  0.00  0.00    -0.577 OA
ATOM     12  O   UNL d   1       1.748 -17.414  -5.337  0.00  0.00    -0.638 OA
ENDBRANCH   8   9
ENDBRANCH   7   8
ENDBRANCH   1   7
BRANCH   1  13
ATOM     13  C   UNL d   1       2.390 -12.475  -7.944  0.00  0.00     0.073 C 
ATOM     14  O   UNL d   1       2.367 -13.136  -9.041  0.00  0.00    -0.547 OA
ATOM     15  O   UNL d   1       2.025 -11.250  -7.827  0.00  0.00    -0.547 OA
ENDBRANCH   1  13
TORSDOF 6
