REMARK  6 active torsions:
REMARK  status: ('A' for Active; 'I' for Inactive)
REMARK    1  A    between atoms: P_1  and  O_3 
REMARK    2  A    between atoms: P_2  and  O_4 
REMARK    3  A    between atoms: O_3  and  C_13 
REMARK    4  A    between atoms: O_4  and  C_14 
REMARK    5  A    between atoms: C_13  and  C_14 
REMARK    6  A    between atoms: C_13  and  C_15 
ROOT
ATOM      1  C   UNL d   1       0.585 -17.717  -6.311  0.00  0.00     0.193 C 
ENDROOT
BRANCH   1   2
ATOM      2  O   UNL d   1       1.872 -17.295  -5.744  0.00  0.00    -0.356 OA
BRANCH   2   3
ATOM      3  P   UNL d   1       2.963 -16.380  -6.565  0.00  0.00    -0.014 P 
ATOM      4  O   UNL d   1       2.219 -15.068  -6.859  0.00  0.00    -0.577 OA
ATOM      5  O   UNL d   1       3.308 -17.131  -7.850  0.00  0.00    -0.577 OA
ATOM      6  O   UNL d   1       4.165 -16.150  -5.655  0.00  0.00    -0.638 OA
ENDBRANCH   2   3
ENDBRANCH   1   2
BRANCH   1   7
ATOM      7  C   UNL d   1      -0.574 -17.033  -5.496  0.00  0.00     0.201 C 
BRANCH   7   8
ATOM      8  O   UNL d   1      -0.171 -16.309  -4.312  0.00  0.00    -0.364 OA
BRANCH   8   9
ATOM      9  P   UNL d   1      -0.867 -14.852  -3.953  0.00  0.00    -0.015 P 
ATOM     10  O   UNL d   1      -2.171 -14.824  -4.760  0.00  0.00    -0.577 OA
ATOM     11  O   UNL d   1       0.109 -13.768  -4.407  0.00  0.00    -0.577 OA
ATOM     12  O   UNL d   1      -1.124 -14.834  -2.447  0.00  0.00    -0.638 OA
ENDBRANCH   8   9
ENDBRANCH   7   8
ENDBRANCH   1   7
BRANCH   1  13
ATOM     13  C   UNL d   1       0.430 -19.279  -6.194  0.00  0.00     0.073 C 
ATOM     14  O   UNL d   1      -0.216 -19.900  -7.109  0.00  0.00    -0.547 OA
ATOM     15  O   UNL d   1       1.022 -19.851  -5.208  0.00  0.00    -0.547 OA
ENDBRANCH   1  13
TORSDOF 6
