REMARK  6 active torsions:
REMARK  status: ('A' for Active; 'I' for Inactive)
REMARK    1  A    between atoms: P_1  and  O_3 
REMARK    2  A    between atoms: P_2  and  O_4 
REMARK    3  A    between atoms: O_3  and  C_13 
REMARK    4  A    between atoms: O_4  and  C_14 
REMARK    5  A    between atoms: C_13  and  C_14 
REMARK    6  A    between atoms: C_13  and  C_15 
ROOT
ATOM      1  C   UNL d   1       0.489 -16.608  -6.768  0.00  0.00     0.193 C 
ENDROOT
BRANCH   1   2
ATOM      2  O   UNL d   1       1.844 -16.842  -6.258  0.00  0.00    -0.356 OA
BRANCH   2   3
ATOM      3  P   UNL d   1       3.138 -15.917  -6.675  0.00  0.00    -0.014 P 
ATOM      4  O   UNL d   1       2.617 -14.473  -6.601  0.00  0.00    -0.577 OA
ATOM      5  O   UNL d   1       3.528 -16.301  -8.101  0.00  0.00    -0.577 OA
ATOM      6  O   UNL d   1       4.244 -16.165  -5.655  0.00  0.00    -0.638 OA
ENDBRANCH   2   3
ENDBRANCH   1   2
BRANCH   1   7
ATOM      7  C   UNL d   1      -0.545 -16.978  -5.641  0.00  0.00     0.201 C 
BRANCH   7   8
ATOM      8  O   UNL d   1      -0.312 -16.377  -4.349  0.00  0.00    -0.364 OA
BRANCH   8   9
ATOM      9  P   UNL d   1      -0.999 -14.919  -3.975  0.00  0.00    -0.015 P 
ATOM     10  O   UNL d   1       0.023 -13.869  -4.425  0.00  0.00    -0.577 OA
ATOM     11  O   UNL d   1      -1.209 -14.900  -2.461  0.00  0.00    -0.577 OA
ATOM     12  O   UNL d   1      -2.306 -14.822  -4.762  0.00  0.00    -0.638 OA
ENDBRANCH   8   9
ENDBRANCH   7   8
ENDBRANCH   1   7
BRANCH   1  13
ATOM     13  C   UNL d   1       0.219 -17.522  -8.020  0.00  0.00     0.073 C 
ATOM     14  O   UNL d   1       0.724 -18.699  -8.039  0.00  0.00    -0.547 OA
ATOM     15  O   UNL d   1      -0.554 -17.050  -8.930  0.00  0.00    -0.547 OA
ENDBRANCH   1  13
TORSDOF 6
