REMARK  6 active torsions:
REMARK  status: ('A' for Active; 'I' for Inactive)
REMARK    1  A    between atoms: P_1  and  O_3 
REMARK    2  A    between atoms: P_2  and  O_4 
REMARK    3  A    between atoms: O_3  and  C_13 
REMARK    4  A    between atoms: O_4  and  C_14 
REMARK    5  A    between atoms: C_13  and  C_14 
REMARK    6  A    between atoms: C_13  and  C_15 
ROOT
ATOM      1  C   UNL d   1       0.729 -16.583  -7.072  0.00  0.00     0.193 C 
ENDROOT
BRANCH   1   2
ATOM      2  O   UNL d   1       1.988 -17.118  -6.541  0.00  0.00    -0.356 OA
BRANCH   2   3
ATOM      3  P   UNL d   1       3.401 -16.276  -6.548  0.00  0.00    -0.014 P 
ATOM      4  O   UNL d   1       2.968 -14.802  -6.583  0.00  0.00    -0.577 OA
ATOM      5  O   UNL d   1       4.156 -16.670  -7.816  0.00  0.00    -0.577 OA
ATOM      6  O   UNL d   1       4.154 -16.608  -5.264  0.00  0.00    -0.638 OA
ENDBRANCH   2   3
ENDBRANCH   1   2
BRANCH   1   7
ATOM      7  C   UNL d   1      -0.364 -16.650  -5.943  0.00  0.00     0.201 C 
BRANCH   7   8
ATOM      8  O   UNL d   1       0.004 -16.068  -4.673  0.00  0.00    -0.364 OA
BRANCH   8   9
ATOM      9  P   UNL d   1      -0.884 -14.822  -4.044  0.00  0.00    -0.015 P 
ATOM     10  O   UNL d   1      -0.069 -13.559  -4.345  0.00  0.00    -0.577 OA
ATOM     11  O   UNL d   1      -1.007 -15.078  -2.542  0.00  0.00    -0.577 OA
ATOM     12  O   UNL d   1      -2.232 -14.821  -4.763  0.00  0.00    -0.638 OA
ENDBRANCH   8   9
ENDBRANCH   7   8
ENDBRANCH   1   7
BRANCH   1  13
ATOM     13  C   UNL d   1       0.247 -17.451  -8.294  0.00  0.00     0.073 C 
ATOM     14  O   UNL d   1       0.614 -18.676  -8.356  0.00  0.00    -0.547 OA
ATOM     15  O   UNL d   1      -0.547 -16.888  -9.131  0.00  0.00    -0.547 OA
ENDBRANCH   1  13
TORSDOF 6
