REMARK  6 active torsions:
REMARK  status: ('A' for Active; 'I' for Inactive)
REMARK    1  A    between atoms: P_1  and  O_3 
REMARK    2  A    between atoms: P_2  and  O_4 
REMARK    3  A    between atoms: O_3  and  C_13 
REMARK    4  A    between atoms: O_4  and  C_14 
REMARK    5  A    between atoms: C_13  and  C_14 
REMARK    6  A    between atoms: C_13  and  C_15 
ROOT
ATOM      1  C   UNL d   1       4.083 -15.783  -6.433  0.00  0.00     0.193 C 
ENDROOT
BRANCH   1   2
ATOM      2  O   UNL d   1       4.152 -16.612  -5.224  0.00  0.00    -0.356 OA
BRANCH   2   3
ATOM      3  P   UNL d   1       5.547 -17.284  -4.669  0.00  0.00    -0.014 P 
ATOM      4  O   UNL d   1       6.164 -16.199  -3.772  0.00  0.00    -0.577 OA
ATOM      5  O   UNL d   1       6.424 -17.575  -5.884  0.00  0.00    -0.577 OA
ATOM      6  O   UNL d   1       5.183 -18.531  -3.869  0.00  0.00    -0.638 OA
ENDBRANCH   2   3
ENDBRANCH   1   2
BRANCH   1   7
ATOM      7  C   UNL d   1       4.656 -14.356  -6.100  0.00  0.00     0.201 C 
BRANCH   7   8
ATOM      8  O   UNL d   1       4.467 -13.902  -4.741  0.00  0.00    -0.364 OA
BRANCH   8   9
ATOM      9  P   UNL d   1       3.888 -12.381  -4.447  0.00  0.00    -0.015 P 
ATOM     10  O   UNL d   1       3.444 -11.852  -5.816  0.00  0.00    -0.577 OA
ATOM     11  O   UNL d   1       5.046 -11.567  -3.869  0.00  0.00    -0.577 OA
ATOM     12  O   UNL d   1       2.715 -12.524  -3.478  0.00  0.00    -0.638 OA
ENDBRANCH   8   9
ENDBRANCH   7   8
ENDBRANCH   1   7
BRANCH   1  13
ATOM     13  C   UNL d   1       2.587 -15.630  -6.898  0.00  0.00     0.073 C 
ATOM     14  O   UNL d   1       1.667 -16.158  -6.180  0.00  0.00    -0.547 OA
ATOM     15  O   UNL d   1       2.373 -14.923  -7.947  0.00  0.00    -0.547 OA
ENDBRANCH   1  13
TORSDOF 6
