REMARK  6 active torsions:
REMARK  status: ('A' for Active; 'I' for Inactive)
REMARK    1  A    between atoms: P_1  and  O_3 
REMARK    2  A    between atoms: P_2  and  O_4 
REMARK    3  A    between atoms: O_3  and  C_13 
REMARK    4  A    between atoms: O_4  and  C_14 
REMARK    5  A    between atoms: C_13  and  C_14 
REMARK    6  A    between atoms: C_13  and  C_15 
ROOT
ATOM      1  C   UNL d   1       3.190 -13.329  -7.538  0.00  0.00     0.193 C 
ENDROOT
BRANCH   1   2
ATOM      2  O   UNL d   1       2.365 -14.488  -7.897  0.00  0.00    -0.356 OA
BRANCH   2   3
ATOM      3  P   UNL d   1       2.298 -15.863  -6.996  0.00  0.00    -0.014 P 
ATOM      4  O   UNL d   1       3.594 -15.842  -6.169  0.00  0.00    -0.577 OA
ATOM      5  O   UNL d   1       2.270 -17.040  -7.968  0.00  0.00    -0.577 OA
ATOM      6  O   UNL d   1       1.064 -15.781  -6.104  0.00  0.00    -0.638 OA
ENDBRANCH   2   3
ENDBRANCH   1   2
BRANCH   1   7
ATOM      7  C   UNL d   1       2.748 -12.815  -6.119  0.00  0.00     0.201 C 
BRANCH   7   8
ATOM      8  O   UNL d   1       3.734 -12.054  -5.388  0.00  0.00    -0.364 OA
BRANCH   8   9
ATOM      9  P   UNL d   1       4.216 -12.547  -3.884  0.00  0.00    -0.015 P 
ATOM     10  O   UNL d   1       5.220 -11.485  -3.419  0.00  0.00    -0.577 OA
ATOM     11  O   UNL d   1       4.871 -13.917  -4.053  0.00  0.00    -0.577 OA
ATOM     12  O   UNL d   1       2.969 -12.584  -3.001  0.00  0.00    -0.638 OA
ENDBRANCH   8   9
ENDBRANCH   7   8
ENDBRANCH   1   7
BRANCH   1  13
ATOM     13  C   UNL d   1       2.978 -12.171  -8.583  0.00  0.00     0.073 C 
ATOM     14  O   UNL d   1       4.000 -11.718  -9.209  0.00  0.00    -0.547 OA
ATOM     15  O   UNL d   1       1.770 -11.791  -8.793  0.00  0.00    -0.547 OA
ENDBRANCH   1  13
TORSDOF 6
