REMARK  6 active torsions:
REMARK  status: ('A' for Active; 'I' for Inactive)
REMARK    1  A    between atoms: P_1  and  O_3 
REMARK    2  A    between atoms: P_2  and  O_4 
REMARK    3  A    between atoms: O_3  and  C_13 
REMARK    4  A    between atoms: O_4  and  C_14 
REMARK    5  A    between atoms: C_13  and  C_14 
REMARK    6  A    between atoms: C_13  and  C_15 
ROOT
ATOM      1  C   UNL d   1       3.158 -13.442  -7.556  0.00  0.00     0.193 C 
ENDROOT
BRANCH   1   2
ATOM      2  O   UNL d   1       2.363 -14.608  -7.956  0.00  0.00    -0.356 OA
BRANCH   2   3
ATOM      3  P   UNL d   1       2.147 -15.926  -6.996  0.00  0.00    -0.014 P 
ATOM      4  O   UNL d   1       3.444 -16.019  -6.177  0.00  0.00    -0.577 OA
ATOM      5  O   UNL d   1       1.976 -17.133  -7.916  0.00  0.00    -0.577 OA
ATOM      6  O   UNL d   1       0.938 -15.666  -6.103  0.00  0.00    -0.638 OA
ENDBRANCH   2   3
ENDBRANCH   1   2
BRANCH   1   7
ATOM      7  C   UNL d   1       2.763 -13.041  -6.087  0.00  0.00     0.201 C 
BRANCH   7   8
ATOM      8  O   UNL d   1       3.698 -12.185  -5.394  0.00  0.00    -0.364 OA
BRANCH   8   9
ATOM      9  P   UNL d   1       4.151 -12.535  -3.842  0.00  0.00    -0.015 P 
ATOM     10  O   UNL d   1       5.071 -11.382  -3.425  0.00  0.00    -0.577 OA
ATOM     11  O   UNL d   1       4.893 -13.871  -3.885  0.00  0.00    -0.577 OA
ATOM     12  O   UNL d   1       2.876 -12.585  -3.000  0.00  0.00    -0.638 OA
ENDBRANCH   8   9
ENDBRANCH   7   8
ENDBRANCH   1   7
BRANCH   1  13
ATOM     13  C   UNL d   1       2.852 -12.227  -8.509  0.00  0.00     0.073 C 
ATOM     14  O   UNL d   1       3.838 -11.577  -9.007  0.00  0.00    -0.547 OA
ATOM     15  O   UNL d   1       1.619 -11.998  -8.784  0.00  0.00    -0.547 OA
ENDBRANCH   1  13
TORSDOF 6
