          AutoDock 4.2 Release 4.2.6   
         (C) 1989-2012 The Scripps Research Institute
        AutoDock comes with ABSOLUTELY NO WARRANTY.
        AutoDock is free software, and you are welcome
        to redistribute it under certain conditions;
        for details type 'autodock4 -C'

                     main.cc  $Revision: 1.213 $

                   Compiled on Jul 18 2014 at 15:34:58


This file was created at:			6:25 46" p.m., 10/04/2025
                   on host:		"ACER"
Current Working Directory = "D:\Protein_go_brrr\autodock\final\mut_N102T\2_3_BPG"

      ________________________________________________________________

                   SETTING UP DEFAULT PARAMETER LIBRARY
      ________________________________________________________________


Random number generator was seeded with values 174060, 1759595146.
Docking parameter file (DPF) used for this docking:		D:/Protein_go_brrr/autodock/final/mut_N102T/2_3_BPG/dock.dpf
DPF> autodock_parameter_version 4.2       # used by autodock to validate parameter set

	Autodock parameter version 4.2.
DPF> outlev 1                             # diagnostic output level

Output Level = 1  ADT-COMPATIBLE OUTPUT DURING DOCKING.
DPF> intelec                              # calculate internal electrostatics

Electrostatic energies will be calculated for all non-bonds between moving atoms.
DPF> seed pid time                        # seeds for random generator

Random number generator was seeded with values 174060, 1759595146.
DPF> ligand_types P C OA                  # atoms types in ligand

DPF> fld mut_N102T_m0.maps.fld            # grid_data_file

Opening Grid Map Dimensions file:		mut_N102T_m0.maps.fld
Grid Point Spacing =				0.447 Angstroms

Even Number of User-specified Grid Points =	126 x-points
						126 y-points
						126 z-points

Coordinates of Central Grid Point of Maps =	(1.333, -0.428, -0.352)
Macromolecule file used to create Grid Maps =	mut_N102T_m0.pdbqt
Grid Parameter file used to create Grid Maps =	D:/Protein_go_brrr/autodock/final/mut_N102T/2_3_BPG/grid.gpf
Minimum coordinates in grid = (-26.828, -28.589, -28.513)
Maximum coordinates in grid = (29.494, 27.733, 27.809)

DPF> map mut_N102T_m0.P.map               # atom-specific affinity map

DPF> map mut_N102T_m0.C.map               # atom-specific affinity map

DPF> map mut_N102T_m0.OA.map              # atom-specific affinity map

DPF> elecmap mut_N102T_m0.e.map           # electrostatics map

DPF> desolvmap mut_N102T_m0.d.map         # desolvation map

DPF> move 2_3_BPG_opt.pdbqt               # small molecule

1,4-interactions will be _ignored_ in the non-bonded internal energy calculation.

Ligand PDBQT file = "2_3_BPG_opt.pdbqt"

INPUT LIGAND PDBQT FILE:
________________________

INPUT-LIGAND-PDBQT: REMARK  6 active torsions:
INPUT-LIGAND-PDBQT: REMARK  status: ('A' for Active; 'I' for Inactive)
INPUT-LIGAND-PDBQT: REMARK    1  A    between atoms: P_1  and  O_3 
INPUT-LIGAND-PDBQT: REMARK    2  A    between atoms: P_2  and  O_4 
INPUT-LIGAND-PDBQT: REMARK    3  A    between atoms: O_3  and  C_13 
INPUT-LIGAND-PDBQT: REMARK    4  A    between atoms: O_4  and  C_14 
INPUT-LIGAND-PDBQT: REMARK    5  A    between atoms: C_13  and  C_14 
INPUT-LIGAND-PDBQT: REMARK    6  A    between atoms: C_13  and  C_15 
INPUT-LIGAND-PDBQT: ROOT
INPUT-LIGAND-PDBQT: ATOM      1  C   UNL d   1      -0.571  -0.229   0.124  0.00  0.00     0.193 C 
INPUT-LIGAND-PDBQT: ENDROOT
INPUT-LIGAND-PDBQT: BRANCH   1   2
INPUT-LIGAND-PDBQT: ATOM      2  O   UNL d   1      -1.621   0.569  -0.519  0.00  0.00    -0.356 OA
INPUT-LIGAND-PDBQT: BRANCH   2   3
INPUT-LIGAND-PDBQT: ATOM      3  P   UNL d   1      -3.039   0.957   0.218  0.00  0.00    -0.014 P 
INPUT-LIGAND-PDBQT: ATOM      4  O   UNL d   1      -3.756   1.871  -0.788  0.00  0.00    -0.577 OA
INPUT-LIGAND-PDBQT: ATOM      5  O   UNL d   1      -2.691   1.702   1.505  0.00  0.00    -0.577 OA
INPUT-LIGAND-PDBQT: ATOM      6  O   UNL d   1      -3.816  -0.334   0.454  0.00  0.00    -0.638 OA
INPUT-LIGAND-PDBQT: ENDBRANCH   2   3
INPUT-LIGAND-PDBQT: ENDBRANCH   1   2
INPUT-LIGAND-PDBQT: BRANCH   1   7
INPUT-LIGAND-PDBQT: ATOM      7  C   UNL d   1       0.831   0.324  -0.327  0.00  0.00     0.201 C 
INPUT-LIGAND-PDBQT: BRANCH   7   8
INPUT-LIGAND-PDBQT: ATOM      8  O   UNL d   1       1.946  -0.012   0.528  0.00  0.00    -0.364 OA
INPUT-LIGAND-PDBQT: BRANCH   8   9
INPUT-LIGAND-PDBQT: ATOM      9  P   UNL d   1       3.455   0.578   0.194  0.00  0.00    -0.015 P 
INPUT-LIGAND-PDBQT: ATOM     10  O   UNL d   1       4.367  -0.029   1.267  0.00  0.00    -0.577 OA
INPUT-LIGAND-PDBQT: ATOM     11  O   UNL d   1       3.374   2.100   0.308  0.00  0.00    -0.577 OA
INPUT-LIGAND-PDBQT: ATOM     12  O   UNL d   1       3.825   0.102  -1.210  0.00  0.00    -0.638 OA
INPUT-LIGAND-PDBQT: ENDBRANCH   8   9
INPUT-LIGAND-PDBQT: ENDBRANCH   7   8
INPUT-LIGAND-PDBQT: ENDBRANCH   1   7
INPUT-LIGAND-PDBQT: BRANCH   1  13
INPUT-LIGAND-PDBQT: ATOM     13  C   UNL d   1      -0.687  -1.734  -0.323  0.00  0.00     0.073 C 
INPUT-LIGAND-PDBQT: ATOM     14  O   UNL d   1      -0.704  -2.000  -1.576  0.00  0.00    -0.547 OA
INPUT-LIGAND-PDBQT: ATOM     15  O   UNL d   1      -0.694  -2.619   0.607  0.00  0.00    -0.547 OA
INPUT-LIGAND-PDBQT: ENDBRANCH   1  13
INPUT-LIGAND-PDBQT: TORSDOF 6
________________________________________________________________________________

Total charge on ligand                               =	-4.960 e
REMARK  6 active torsions:
REMARK  status: ('A' for Active; 'I' for Inactive)
REMARK    1  A    between atoms: P_1  and  O_3 
REMARK    2  A    between atoms: P_2  and  O_4 
REMARK    3  A    between atoms: O_3  and  C_13 
REMARK    4  A    between atoms: O_4  and  C_14 
REMARK    5  A    between atoms: C_13  and  C_14 
REMARK    6  A    between atoms: C_13  and  C_15 


Number of Rotatable Bonds in Small Molecule =	6 torsions
Number of atoms in ligand:  15

Number of non-hydrogen atoms in ligand:  15

Number of vibrational degrees of freedom of ligand:  39


Number of torsional degrees of freedom = 6
Estimated loss of torsional free energy upon binding = +1.7898 kcal/mol


DPF> about 0.015 0.083 0.031            # small molecule center

Small molecule center of rotation =	(+0.015, +0.083, +0.031)

DPF> tran0 random                         # initial coordinates/A or random

Initial translation =			(-14.549, 13.475, 16.280) Angstroms
DPF> quaternion0 random                   # initial orientation

Each run will begin with a new, random initial orientation.
Initial quaternion,  (x,y,z,w) =	( 0.016, 0.460, -0.438, -0.772 ),
DPF> dihe0 random                         # initial dihedrals (relative) or random

DPF> torsdof 6                            # torsional degrees of freedom

Number of torsional degrees of freedom = 6
Free energy coefficient for torsional degrees of freedom = 0.2983, the factory default value.

Estimated loss of torsional free energy upon binding = +1.7898 kcal/mol

DPF> rmstol 2.0                           # cluster_tolerance/A

Maximum RMS tolerance for conformational cluster analysis = 2.00 Angstroms
DPF> extnrg 1000.0                        # external grid energy

External grid energy (beyond grid map walls) = 1000.00

DPF> e0max 0.0 10000                      # max initial energy; max number of retries

Using user-specified maximum number of retries for simanneal initialization, 10000 retries.
If the simanneal initial energy is greater than e0max, 0.000,
then a new, random initial state will be created.

DPF> ga_pop_size 150                      # number of individuals in population

A population of 150 individuals will be used
DPF> ga_num_evals 25000000                # maximum number of energy evaluations

There will be at most 25000000 function evaluations used.
DPF> ga_num_generations 27000             # maximum number of generations

The GA will run for at most 27000 generations.
DPF> ga_elitism 1                         # number of top individuals to survive to next generation

The 1 best will be preserved each GA generation.
DPF> ga_mutation_rate 0.02                # rate of gene mutation

The mutation rate is 0.020000.
DPF> ga_crossover_rate 0.8                # rate of crossover

The crossover rate is 0.800000.
DPF> ga_window_size 10                    # 

The GA's selection window is 10 generations.
DPF> ga_cauchy_alpha 0.0                  # Alpha parameter of Cauchy distribution

The alpha parameter (for the Cauchy distribution) is being set to 0.000000.
DPF> ga_cauchy_beta 1.0                   # Beta parameter Cauchy distribution

The beta parameter (for the Cauchy distribution) is being set to 1.000000.
DPF> set_ga                               # set the above parameters for GA or LGA

DPF> sw_max_its 300                       # iterations of Solis & Wets local search

Solis & Wets algorithms will perform at most 300 iterations.
DPF> sw_max_succ 4                        # consecutive successes before changing rho

Solis & Wets algorithms expand rho every 4 in a row successes.
DPF> sw_max_fail 4                        # consecutive failures before changing rho

Solis & Wets algorithms contract rho every 4 in a row failures.
DPF> sw_rho 1.0                           # size of local search space to sample

rho is set to 1.000000.
DPF> sw_lb_rho 0.01                       # lower bound on rho

rho will never get smaller than 0.010000.
DPF> ls_search_freq 0.06                  # probability of performing local search on individual

Local search will be performed with frequency 0.060000.
DPF> set_psw1                             # set the above pseudo-Solis & Wets parameters

Creating a new Local Search object using the pseudo-Solis-Wets algorithm (pSW1) with the current settings.

DPF> unbound_model bound                  # state of unbound ligand

DPF> ga_run 100                           # do this many hybrid GA-LS runs

centering ligand on specified point: 0.015 0.083 0.031
Furthest true ligand atom from "about" center is 4.525 Angstroms (maxrad).
Number of requested GA dockings = 100 runs
Unbound model to be used is 'same as bound' [AutoDock 4.2 default].

	BEGINNING GENETIC ALGORITHM DOCKING 1 of 100
Run: 1 Seed: 1940217547 1157879775 [ Run 1 of 100 GA/GALS ]
Beginning LAMARCKIAN GENETIC ALGORITHM (LGA), with a maximum of 25000000 energy evaluations.

Final-Value: -8.586


	FINAL GENETIC ALGORITHM DOCKED STATE
	_______________________________________________


Detailed state:  trans -6.201 -14.786 -4.414 quatxyzw -0.617979 0.285907 0.728808 0.072094 center 0.015 0.083 0.031 ntor 6 17.1960 145.1808 -0.1387 41.6948 52.5528 -157.3473
State:	 -6.201 -14.786  -4.414  -0.620  0.287  0.731 171.731     17.20  145.18   -0.14   41.69   52.55 -157.35

DOCKED: MODEL        1
DOCKED: USER    Run = 1
DOCKED: USER    DPF = D:/Protein_go_brrr/autodock/final/mut_N102T/2_3_BPG/dock.dpf
DOCKED: USER  
DOCKED: USER    Estimated Free Energy of Binding    =   -9.25 kcal/mol  [=(1)+(2)+(3)-(4)]
DOCKED: USER    Estimated Inhibition Constant, Ki   =  165.90 nM (nanomolar)  [Temperature = 298.15 K]
DOCKED: USER    
DOCKED: USER    (1) Final Intermolecular Energy     =  -11.04 kcal/mol
DOCKED: USER        vdW + Hbond + desolv Energy     =   -3.79 kcal/mol
DOCKED: USER        Electrostatic Energy            =   -7.25 kcal/mol
DOCKED: USER    (2) Final Total Internal Energy     =   +2.45 kcal/mol
DOCKED: USER    (3) Torsional Free Energy           =   +1.79 kcal/mol
DOCKED: USER    (4) Unbound System's Energy  [=(2)] =   +2.45 kcal/mol
DOCKED: USER    
DOCKED: USER    
DOCKED: USER    NEWDPF move 2_3_BPG_opt.pdbqt
DOCKED: USER    NEWDPF about 0.015000 0.083000 0.031000
DOCKED: USER    NEWDPF tran0 -6.200691 -14.785889 -4.414423
DOCKED: USER    NEWDPF quaternion0 -0.617979 0.285907 0.728808 0.072094
DOCKED: USER    NEWDPF axisangle0 -0.619591 0.286653 0.730710 171.731496
DOCKED: USER    NEWDPF quat0 -0.619591 0.286653 0.730710 171.731496
DOCKED: USER    NEWDPF dihe0 17.20 145.18 -0.14 41.69 52.55 -157.35 
DOCKED: USER  keepresnum = 1 
DOCKED: USER  
DOCKED: REMARK  6 active torsions:
DOCKED: REMARK  status: ('A' for Active; 'I' for Inactive)
DOCKED: REMARK    1  A    between atoms: P_1  and  O_3 
DOCKED: REMARK    2  A    between atoms: P_2  and  O_4 
DOCKED: REMARK    3  A    between atoms: O_3  and  C_13 
DOCKED: REMARK    4  A    between atoms: O_4  and  C_14 
DOCKED: REMARK    5  A    between atoms: C_13  and  C_14 
DOCKED: REMARK    6  A    between atoms: C_13  and  C_15 
DOCKED: USER                              x       y       z     vdW  Elec       q    Type
DOCKED: USER                           _______ _______ _______ _____ _____    ______ ____
DOCKED: ROOT
DOCKED: ATOM      1  C   UNL d   1      -6.079 -14.229  -4.062 -0.19 +0.22    +0.193 C 
DOCKED: ENDROOT
DOCKED: BRANCH   1   2
DOCKED: ATOM      2  O   UNL d   1      -5.434 -14.618  -2.802 -0.08 -0.43    -0.356 OA
DOCKED: BRANCH   2   3
DOCKED: ATOM      3  P   UNL d   1      -6.269 -14.950  -1.425 -0.27 -0.01    -0.014 P 
DOCKED: ATOM      4  O   UNL d   1      -7.406 -13.915  -1.408 -0.02 -0.28    -0.577 OA
DOCKED: ATOM      5  O   UNL d   1      -5.310 -14.749  -0.254 -0.14 -0.43    -0.577 OA
DOCKED: ATOM      6  O   UNL d   1      -6.809 -16.372  -1.533 -0.32 -1.13    -0.638 OA
DOCKED: ENDBRANCH   2   3
DOCKED: ENDBRANCH   1   2
DOCKED: BRANCH   1   7
DOCKED: ATOM      7  C   UNL d   1      -6.108 -15.476  -5.020 -0.04 +0.33    +0.201 C 
DOCKED: BRANCH   7   8
DOCKED: ATOM      8  O   UNL d   1      -5.568 -16.701  -4.477 -0.08 -0.65    -0.364 OA
DOCKED: BRANCH   8   9
DOCKED: ATOM      9  P   UNL d   1      -4.352 -17.495  -5.269 -0.14 -0.03    -0.015 P 
DOCKED: ATOM     10  O   UNL d   1      -4.086 -18.753  -4.433 -0.24 -1.02    -0.577 OA
DOCKED: ATOM     11  O   UNL d   1      -3.145 -16.557  -5.288 -0.39 -1.20    -0.577 OA
DOCKED: ATOM     12  O   UNL d   1      -4.869 -17.833  -6.666 -0.36 -1.06    -0.638 OA
DOCKED: ENDBRANCH   8   9
DOCKED: ENDBRANCH   7   8
DOCKED: ENDBRANCH   1   7
DOCKED: BRANCH   1  13
DOCKED: ATOM     13  C   UNL d   1      -5.258 -13.079  -4.756 -0.34 +0.09    +0.073 C 
DOCKED: ATOM     14  O   UNL d   1      -4.118 -13.364  -5.268 -0.53 -1.13    -0.547 OA
DOCKED: ATOM     15  O   UNL d   1      -5.815 -11.924  -4.823 -0.64 -0.51    -0.547 OA
DOCKED: ENDBRANCH   1  13
DOCKED: TORSDOF 6
DOCKED: TER
DOCKED: ENDMDL
________________________________________________________________________________


	BEGINNING GENETIC ALGORITHM DOCKING 2 of 100
Run: 2 Seed: 468194577 1603849163 [ Run 2 of 100 GA/GALS ]
Beginning LAMARCKIAN GENETIC ALGORITHM (LGA), with a maximum of 25000000 energy evaluations.

Final-Value: -8.501


	FINAL GENETIC ALGORITHM DOCKED STATE
	_______________________________________________


Detailed state:  trans -5.394 -14.521 -3.843 quatxyzw 0.276181 -0.194778 0.383645 0.859420 center 0.015 0.083 0.031 ntor 6 125.6754 55.0061 -174.7152 105.7766 8.3823 91.9235
State:	 -5.394 -14.521  -3.843   0.540 -0.381  0.750 61.497    125.68   55.01 -174.72  105.78    8.38   91.92

DOCKED: MODEL        2
DOCKED: USER    Run = 2
DOCKED: USER    DPF = D:/Protein_go_brrr/autodock/final/mut_N102T/2_3_BPG/dock.dpf
DOCKED: USER  
DOCKED: USER    Estimated Free Energy of Binding    =   -9.20 kcal/mol  [=(1)+(2)+(3)-(4)]
DOCKED: USER    Estimated Inhibition Constant, Ki   =  178.95 nM (nanomolar)  [Temperature = 298.15 K]
DOCKED: USER    
DOCKED: USER    (1) Final Intermolecular Energy     =  -10.99 kcal/mol
DOCKED: USER        vdW + Hbond + desolv Energy     =   -4.04 kcal/mol
DOCKED: USER        Electrostatic Energy            =   -6.96 kcal/mol
DOCKED: USER    (2) Final Total Internal Energy     =   +2.49 kcal/mol
DOCKED: USER    (3) Torsional Free Energy           =   +1.79 kcal/mol
DOCKED: USER    (4) Unbound System's Energy  [=(2)] =   +2.49 kcal/mol
DOCKED: USER    
DOCKED: USER    
DOCKED: USER    NEWDPF move 2_3_BPG_opt.pdbqt
DOCKED: USER    NEWDPF about 0.015000 0.083000 0.031000
DOCKED: USER    NEWDPF tran0 -5.393897 -14.520673 -3.843050
DOCKED: USER    NEWDPF quaternion0 0.276181 -0.194778 0.383645 0.859420
DOCKED: USER    NEWDPF axisangle0 0.540185 -0.380969 0.750375 61.497059
DOCKED: USER    NEWDPF quat0 0.540185 -0.380969 0.750375 61.497059
DOCKED: USER    NEWDPF dihe0 125.68 55.01 -174.72 105.78 8.38 91.92 
DOCKED: USER  keepresnum = 1 
DOCKED: USER  
DOCKED: REMARK  6 active torsions:
DOCKED: REMARK  status: ('A' for Active; 'I' for Inactive)
DOCKED: REMARK    1  A    between atoms: P_1  and  O_3 
DOCKED: REMARK    2  A    between atoms: P_2  and  O_4 
DOCKED: REMARK    3  A    between atoms: O_3  and  C_13 
DOCKED: REMARK    4  A    between atoms: O_4  and  C_14 
DOCKED: REMARK    5  A    between atoms: C_13  and  C_14 
DOCKED: REMARK    6  A    between atoms: C_13  and  C_15 
DOCKED: USER                              x       y       z     vdW  Elec       q    Type
DOCKED: USER                           _______ _______ _______ _____ _____    ______ ____
DOCKED: ROOT
DOCKED: ATOM      1  C   UNL d   1      -5.884 -14.214  -3.505 -0.20 +0.21    +0.193 C 
DOCKED: ENDROOT
DOCKED: BRANCH   1   2
DOCKED: ATOM      2  O   UNL d   1      -6.457 -13.176  -4.370 -0.25 -0.32    -0.356 OA
DOCKED: BRANCH   2   3
DOCKED: ATOM      3  P   UNL d   1      -5.614 -12.439  -5.574 -0.43 -0.02    -0.014 P 
DOCKED: ATOM      4  O   UNL d   1      -5.820 -10.937  -5.322 -0.59 -0.43    -0.577 OA
DOCKED: ATOM      5  O   UNL d   1      -6.238 -12.877  -6.897 -0.04 -0.70    -0.577 OA
DOCKED: ATOM      6  O   UNL d   1      -4.148 -12.834  -5.433 -0.59 -1.09    -0.638 OA
DOCKED: ENDBRANCH   2   3
DOCKED: ENDBRANCH   1   2
DOCKED: BRANCH   1   7
DOCKED: ATOM      7  C   UNL d   1      -4.943 -15.130  -4.370 -0.06 +0.36    +0.201 C 
DOCKED: BRANCH   7   8
DOCKED: ATOM      8  O   UNL d   1      -5.432 -16.463  -4.637 -0.11 -0.67    -0.364 OA
DOCKED: BRANCH   8   9
DOCKED: ATOM      9  P   UNL d   1      -4.423 -17.602  -5.285 -0.15 -0.03    -0.015 P 
DOCKED: ATOM     10  O   UNL d   1      -3.034 -16.952  -5.285 -0.46 -1.05    -0.577 OA
DOCKED: ATOM     11  O   UNL d   1      -4.921 -17.884  -6.703 -0.36 -0.92    -0.577 OA
DOCKED: ATOM     12  O   UNL d   1      -4.482 -18.828  -4.376 -0.25 -1.17    -0.638 OA
DOCKED: ENDBRANCH   8   9
DOCKED: ENDBRANCH   7   8
DOCKED: ENDBRANCH   1   7
DOCKED: BRANCH   1  13
DOCKED: ATOM     13  C   UNL d   1      -7.032 -15.102  -2.896 -0.15 +0.07    +0.073 C 
DOCKED: ATOM     14  O   UNL d   1      -6.710 -16.071  -2.121 -0.41 -0.90    -0.547 OA
DOCKED: ATOM     15  O   UNL d   1      -8.240 -14.759  -3.166 +0.02 -0.30    -0.547 OA
DOCKED: ENDBRANCH   1  13
DOCKED: TORSDOF 6
DOCKED: TER
DOCKED: ENDMDL
________________________________________________________________________________


	BEGINNING GENETIC ALGORITHM DOCKING 3 of 100
Run: 3 Seed: 1707910300 12204148 [ Run 3 of 100 GA/GALS ]
Beginning LAMARCKIAN GENETIC ALGORITHM (LGA), with a maximum of 25000000 energy evaluations.

Final-Value: -8.718


	FINAL GENETIC ALGORITHM DOCKED STATE
	_______________________________________________


Detailed state:  trans -6.478 -15.301 -4.859 quatxyzw -0.544957 -0.744362 0.372711 -0.100168 center 0.015 0.083 0.031 ntor 6 128.9885 -44.7631 -46.6118 26.2595 -3.3953 -171.2193
State:	 -6.478 -15.301  -4.859  -0.548 -0.748  0.375 -168.502    128.99  -44.76  -46.61   26.26   -3.40 -171.22

DOCKED: MODEL        3
DOCKED: USER    Run = 3
DOCKED: USER    DPF = D:/Protein_go_brrr/autodock/final/mut_N102T/2_3_BPG/dock.dpf
DOCKED: USER  
DOCKED: USER    Estimated Free Energy of Binding    =   -9.04 kcal/mol  [=(1)+(2)+(3)-(4)]
DOCKED: USER    Estimated Inhibition Constant, Ki   =  237.76 nM (nanomolar)  [Temperature = 298.15 K]
DOCKED: USER    
DOCKED: USER    (1) Final Intermolecular Energy     =  -10.83 kcal/mol
DOCKED: USER        vdW + Hbond + desolv Energy     =   -3.80 kcal/mol
DOCKED: USER        Electrostatic Energy            =   -7.03 kcal/mol
DOCKED: USER    (2) Final Total Internal Energy     =   +2.11 kcal/mol
DOCKED: USER    (3) Torsional Free Energy           =   +1.79 kcal/mol
DOCKED: USER    (4) Unbound System's Energy  [=(2)] =   +2.11 kcal/mol
DOCKED: USER    
DOCKED: USER    
DOCKED: USER    NEWDPF move 2_3_BPG_opt.pdbqt
DOCKED: USER    NEWDPF about 0.015000 0.083000 0.031000
DOCKED: USER    NEWDPF tran0 -6.477642 -15.301252 -4.858710
DOCKED: USER    NEWDPF quaternion0 -0.544957 -0.744362 0.372711 -0.100168
DOCKED: USER    NEWDPF axisangle0 -0.547712 -0.748124 0.374595 -168.502343
DOCKED: USER    NEWDPF quat0 -0.547712 -0.748124 0.374595 -168.502343
DOCKED: USER    NEWDPF dihe0 128.99 -44.76 -46.61 26.26 -3.40 -171.22 
DOCKED: USER  keepresnum = 1 
DOCKED: USER  
DOCKED: REMARK  6 active torsions:
DOCKED: REMARK  status: ('A' for Active; 'I' for Inactive)
DOCKED: REMARK    1  A    between atoms: P_1  and  O_3 
DOCKED: REMARK    2  A    between atoms: P_2  and  O_4 
DOCKED: REMARK    3  A    between atoms: O_3  and  C_13 
DOCKED: REMARK    4  A    between atoms: O_4  and  C_14 
DOCKED: REMARK    5  A    between atoms: C_13  and  C_14 
DOCKED: REMARK    6  A    between atoms: C_13  and  C_15 
DOCKED: USER                              x       y       z     vdW  Elec       q    Type
DOCKED: USER                           _______ _______ _______ _____ _____    ______ ____
DOCKED: ROOT
DOCKED: ATOM      1  C   UNL d   1      -6.533 -15.902  -4.566 -0.11 +0.25    +0.193 C 
DOCKED: ENDROOT
DOCKED: BRANCH   1   2
DOCKED: ATOM      2  O   UNL d   1      -5.183 -16.443  -4.375 +0.01 -0.69    -0.356 OA
DOCKED: BRANCH   2   3
DOCKED: ATOM      3  P   UNL d   1      -4.561 -17.663  -5.286 -0.17 -0.02    -0.014 P 
DOCKED: ATOM      4  O   UNL d   1      -3.177 -17.152  -5.716 -0.58 -1.12    -0.577 OA
DOCKED: ATOM      5  O   UNL d   1      -5.488 -17.849  -6.486 -0.15 -0.83    -0.577 OA
DOCKED: ATOM      6  O   UNL d   1      -4.452 -18.902  -4.404 -0.28 -1.13    -0.638 OA
DOCKED: ENDBRANCH   2   3
DOCKED: ENDBRANCH   1   2
DOCKED: BRANCH   1   7
DOCKED: ATOM      7  C   UNL d   1      -6.416 -14.388  -4.977 -0.12 +0.26    +0.201 C 
DOCKED: BRANCH   7   8
DOCKED: ATOM      8  O   UNL d   1      -5.109 -13.792  -4.824 -0.43 -0.61    -0.364 OA
DOCKED: BRANCH   8   9
DOCKED: ATOM      9  P   UNL d   1      -4.866 -12.208  -5.234 -0.55 -0.02    -0.015 P 
DOCKED: ATOM     10  O   UNL d   1      -4.035 -11.622  -4.086 -0.05 -0.36    -0.577 OA
DOCKED: ATOM     11  O   UNL d   1      -6.245 -11.556  -5.330 -0.63 -0.48    -0.577 OA
DOCKED: ATOM     12  O   UNL d   1      -4.105 -12.195  -6.558 -0.36 -0.95    -0.638 OA
DOCKED: ENDBRANCH   8   9
DOCKED: ENDBRANCH   7   8
DOCKED: ENDBRANCH   1   7
DOCKED: BRANCH   1  13
DOCKED: ATOM     13  C   UNL d   1      -7.349 -15.998  -3.223 -0.09 +0.08    +0.073 C 
DOCKED: ATOM     14  O   UNL d   1      -8.571 -15.617  -3.222 +0.02 -0.31    -0.547 OA
DOCKED: ATOM     15  O   UNL d   1      -6.750 -16.519  -2.214 -0.31 -1.11    -0.547 OA
DOCKED: ENDBRANCH   1  13
DOCKED: TORSDOF 6
DOCKED: TER
DOCKED: ENDMDL
________________________________________________________________________________


	BEGINNING GENETIC ALGORITHM DOCKING 4 of 100
Run: 4 Seed: 1691587406 1250042343 [ Run 4 of 100 GA/GALS ]
Beginning LAMARCKIAN GENETIC ALGORITHM (LGA), with a maximum of 25000000 energy evaluations.

Final-Value: -8.823


	FINAL GENETIC ALGORITHM DOCKED STATE
	_______________________________________________


Detailed state:  trans -5.594 -15.024 -3.965 quatxyzw -0.323871 0.449758 -0.469586 -0.687251 center 0.015 0.083 0.031 ntor 6 96.3533 166.9541 -45.9571 79.9541 -25.4152 -37.9871
State:	 -5.594 -15.024  -3.965  -0.446  0.619 -0.646 -93.174     96.35  166.95  -45.96   79.95  -25.42  -37.99

DOCKED: MODEL        4
DOCKED: USER    Run = 4
DOCKED: USER    DPF = D:/Protein_go_brrr/autodock/final/mut_N102T/2_3_BPG/dock.dpf
DOCKED: USER  
DOCKED: USER    Estimated Free Energy of Binding    =   -9.15 kcal/mol  [=(1)+(2)+(3)-(4)]
DOCKED: USER    Estimated Inhibition Constant, Ki   =  195.11 nM (nanomolar)  [Temperature = 298.15 K]
DOCKED: USER    
DOCKED: USER    (1) Final Intermolecular Energy     =  -10.94 kcal/mol
DOCKED: USER        vdW + Hbond + desolv Energy     =   -4.04 kcal/mol
DOCKED: USER        Electrostatic Energy            =   -6.91 kcal/mol
DOCKED: USER    (2) Final Total Internal Energy     =   +2.12 kcal/mol
DOCKED: USER    (3) Torsional Free Energy           =   +1.79 kcal/mol
DOCKED: USER    (4) Unbound System's Energy  [=(2)] =   +2.12 kcal/mol
DOCKED: USER    
DOCKED: USER    
DOCKED: USER    NEWDPF move 2_3_BPG_opt.pdbqt
DOCKED: USER    NEWDPF about 0.015000 0.083000 0.031000
DOCKED: USER    NEWDPF tran0 -5.594380 -15.024235 -3.965472
DOCKED: USER    NEWDPF quaternion0 -0.323871 0.449758 -0.469586 -0.687251
DOCKED: USER    NEWDPF axisangle0 -0.445846 0.619143 -0.646439 -93.174194
DOCKED: USER    NEWDPF quat0 -0.445846 0.619143 -0.646439 -93.174194
DOCKED: USER    NEWDPF dihe0 96.35 166.95 -45.96 79.95 -25.42 -37.99 
DOCKED: USER  keepresnum = 1 
DOCKED: USER  
DOCKED: REMARK  6 active torsions:
DOCKED: REMARK  status: ('A' for Active; 'I' for Inactive)
DOCKED: REMARK    1  A    between atoms: P_1  and  O_3 
DOCKED: REMARK    2  A    between atoms: P_2  and  O_4 
DOCKED: REMARK    3  A    between atoms: O_3  and  C_13 
DOCKED: REMARK    4  A    between atoms: O_4  and  C_14 
DOCKED: REMARK    5  A    between atoms: C_13  and  C_14 
DOCKED: REMARK    6  A    between atoms: C_13  and  C_15 
DOCKED: USER                              x       y       z     vdW  Elec       q    Type
DOCKED: USER                           _______ _______ _______ _____ _____    ______ ____
DOCKED: ROOT
DOCKED: ATOM      1  C   UNL d   1      -5.710 -14.582  -3.475 -0.16 +0.23    +0.193 C 
DOCKED: ENDROOT
DOCKED: BRANCH   1   2
DOCKED: ATOM      2  O   UNL d   1      -6.182 -13.334  -4.085 -0.19 -0.34    -0.356 OA
DOCKED: BRANCH   2   3
DOCKED: ATOM      3  P   UNL d   1      -5.382 -12.563  -5.298 -0.44 -0.02    -0.014 P 
DOCKED: ATOM      4  O   UNL d   1      -3.967 -13.162  -5.265 -0.58 -1.06    -0.577 OA
DOCKED: ATOM      5  O   UNL d   1      -5.370 -11.074  -4.956 -0.54 -0.45    -0.577 OA
DOCKED: ATOM      6  O   UNL d   1      -6.094 -12.880  -6.609 -0.09 -0.86    -0.638 OA
DOCKED: ENDBRANCH   2   3
DOCKED: ENDBRANCH   1   2
DOCKED: BRANCH   1   7
DOCKED: ATOM      7  C   UNL d   1      -5.713 -15.713  -4.569 -0.10 +0.34    +0.201 C 
DOCKED: BRANCH   7   8
DOCKED: ATOM      8  O   UNL d   1      -4.441 -16.349  -4.822 -0.26 -0.80    -0.364 OA
DOCKED: BRANCH   8   9
DOCKED: ATOM      9  P   UNL d   1      -4.388 -17.860  -5.494 -0.20 -0.02    -0.015 P 
DOCKED: ATOM     10  O   UNL d   1      -3.285 -17.785  -6.556 -0.55 -0.93    -0.577 OA
DOCKED: ATOM     11  O   UNL d   1      -5.761 -18.120  -6.115 -0.05 -0.70    -0.577 OA
DOCKED: ATOM     12  O   UNL d   1      -4.042 -18.840  -4.375 -0.27 -1.13    -0.638 OA
DOCKED: ENDBRANCH   8   9
DOCKED: ENDBRANCH   7   8
DOCKED: ENDBRANCH   1   7
DOCKED: BRANCH   1  13
DOCKED: ATOM     13  C   UNL d   1      -6.673 -15.009  -2.305 -0.18 +0.07    +0.073 C 
DOCKED: ATOM     14  O   UNL d   1      -6.805 -16.257  -2.047 -0.39 -0.95    -0.547 OA
DOCKED: ATOM     15  O   UNL d   1      -7.225 -14.066  -1.632 -0.04 -0.31    -0.547 OA
DOCKED: ENDBRANCH   1  13
DOCKED: TORSDOF 6
DOCKED: TER
DOCKED: ENDMDL
________________________________________________________________________________


	BEGINNING GENETIC ALGORITHM DOCKING 5 of 100
Run: 5 Seed: 272095684 360933305 [ Run 5 of 100 GA/GALS ]
Beginning LAMARCKIAN GENETIC ALGORITHM (LGA), with a maximum of 25000000 energy evaluations.

Final-Value: -8.817


	FINAL GENETIC ALGORITHM DOCKED STATE
	_______________________________________________


Detailed state:  trans -5.707 -14.971 -3.963 quatxyzw 0.289801 -0.444960 0.487148 0.693335 center 0.015 0.083 0.031 ntor 6 124.7763 160.5544 -53.5477 87.0320 -28.5229 -39.6475
State:	 -5.707 -14.971  -3.963   0.402 -0.617  0.676 92.211    124.78  160.55  -53.55   87.03  -28.52  -39.65

DOCKED: MODEL        5
DOCKED: USER    Run = 5
DOCKED: USER    DPF = D:/Protein_go_brrr/autodock/final/mut_N102T/2_3_BPG/dock.dpf
DOCKED: USER  
DOCKED: USER    Estimated Free Energy of Binding    =   -9.16 kcal/mol  [=(1)+(2)+(3)-(4)]
DOCKED: USER    Estimated Inhibition Constant, Ki   =  193.66 nM (nanomolar)  [Temperature = 298.15 K]
DOCKED: USER    
DOCKED: USER    (1) Final Intermolecular Energy     =  -10.95 kcal/mol
DOCKED: USER        vdW + Hbond + desolv Energy     =   -4.01 kcal/mol
DOCKED: USER        Electrostatic Energy            =   -6.94 kcal/mol
DOCKED: USER    (2) Final Total Internal Energy     =   +2.13 kcal/mol
DOCKED: USER    (3) Torsional Free Energy           =   +1.79 kcal/mol
DOCKED: USER    (4) Unbound System's Energy  [=(2)] =   +2.13 kcal/mol
DOCKED: USER    
DOCKED: USER    
DOCKED: USER    NEWDPF move 2_3_BPG_opt.pdbqt
DOCKED: USER    NEWDPF about 0.015000 0.083000 0.031000
DOCKED: USER    NEWDPF tran0 -5.706505 -14.970670 -3.962550
DOCKED: USER    NEWDPF quaternion0 0.289801 -0.444960 0.487148 0.693335
DOCKED: USER    NEWDPF axisangle0 0.402158 -0.617472 0.676016 92.210665
DOCKED: USER    NEWDPF quat0 0.402158 -0.617472 0.676016 92.210665
DOCKED: USER    NEWDPF dihe0 124.78 160.55 -53.55 87.03 -28.52 -39.65 
DOCKED: USER  keepresnum = 1 
DOCKED: USER  
DOCKED: REMARK  6 active torsions:
DOCKED: REMARK  status: ('A' for Active; 'I' for Inactive)
DOCKED: REMARK    1  A    between atoms: P_1  and  O_3 
DOCKED: REMARK    2  A    between atoms: P_2  and  O_4 
DOCKED: REMARK    3  A    between atoms: O_3  and  C_13 
DOCKED: REMARK    4  A    between atoms: O_4  and  C_14 
DOCKED: REMARK    5  A    between atoms: C_13  and  C_14 
DOCKED: REMARK    6  A    between atoms: C_13  and  C_15 
DOCKED: USER                              x       y       z     vdW  Elec       q    Type
DOCKED: USER                           _______ _______ _______ _____ _____    ______ ____
DOCKED: ROOT
DOCKED: ATOM      1  C   UNL d   1      -5.829 -14.538  -3.465 -0.18 +0.22    +0.193 C 
DOCKED: ENDROOT
DOCKED: BRANCH   1   2
DOCKED: ATOM      2  O   UNL d   1      -6.210 -13.252  -4.061 -0.22 -0.33    -0.356 OA
DOCKED: BRANCH   2   3
DOCKED: ATOM      3  P   UNL d   1      -5.403 -12.566  -5.318 -0.43 -0.02    -0.014 P 
DOCKED: ATOM      4  O   UNL d   1      -3.996 -13.180  -5.252 -0.57 -1.07    -0.577 OA
DOCKED: ATOM      5  O   UNL d   1      -5.371 -11.059  -5.067 -0.54 -0.44    -0.577 OA
DOCKED: ATOM      6  O   UNL d   1      -6.122 -12.952  -6.607 -0.08 -0.88    -0.638 OA
DOCKED: ENDBRANCH   2   3
DOCKED: ENDBRANCH   1   2
DOCKED: BRANCH   1   7
DOCKED: ATOM      7  C   UNL d   1      -5.822 -15.635  -4.593 -0.12 +0.33    +0.201 C 
DOCKED: BRANCH   7   8
DOCKED: ATOM      8  O   UNL d   1      -4.558 -16.296  -4.822 -0.24 -0.79    -0.364 OA
DOCKED: BRANCH   8   9
DOCKED: ATOM      9  P   UNL d   1      -4.524 -17.819  -5.468 -0.18 -0.03    -0.015 P 
DOCKED: ATOM     10  O   UNL d   1      -3.547 -17.730  -6.647 -0.56 -1.03    -0.577 OA
DOCKED: ATOM     11  O   UNL d   1      -5.945 -18.141  -5.927 -0.03 -0.67    -0.577 OA
DOCKED: ATOM     12  O   UNL d   1      -4.020 -18.761  -4.375 -0.24 -1.15    -0.638 OA
DOCKED: ENDBRANCH   8   9
DOCKED: ENDBRANCH   7   8
DOCKED: ENDBRANCH   1   7
DOCKED: BRANCH   1  13
DOCKED: ATOM     13  C   UNL d   1      -6.875 -14.954  -2.364 -0.18 +0.07    +0.073 C 
DOCKED: ATOM     14  O   UNL d   1      -6.713 -16.071  -1.758 -0.42 -0.88    -0.547 OA
DOCKED: ATOM     15  O   UNL d   1      -7.802 -14.108  -2.093 -0.02 -0.27    -0.547 OA
DOCKED: ENDBRANCH   1  13
DOCKED: TORSDOF 6
DOCKED: TER
DOCKED: ENDMDL
________________________________________________________________________________


	BEGINNING GENETIC ALGORITHM DOCKING 6 of 100
Run: 6 Seed: 2032645135 595530309 [ Run 6 of 100 GA/GALS ]
Beginning LAMARCKIAN GENETIC ALGORITHM (LGA), with a maximum of 25000000 energy evaluations.

Final-Value: -8.804


	FINAL GENETIC ALGORITHM DOCKED STATE
	_______________________________________________


Detailed state:  trans -6.769 -15.530 -4.615 quatxyzw -0.488039 -0.806381 0.286370 -0.171931 center 0.015 0.083 0.031 ntor 6 177.8641 -45.4559 -147.7293 2.8047 49.6732 -116.1808
State:	 -6.769 -15.530  -4.615  -0.495 -0.819  0.291 -160.200    177.86  -45.46 -147.73    2.80   49.67 -116.18

DOCKED: MODEL        6
DOCKED: USER    Run = 6
DOCKED: USER    DPF = D:/Protein_go_brrr/autodock/final/mut_N102T/2_3_BPG/dock.dpf
DOCKED: USER  
DOCKED: USER    Estimated Free Energy of Binding    =   -9.33 kcal/mol  [=(1)+(2)+(3)-(4)]
DOCKED: USER    Estimated Inhibition Constant, Ki   =  143.92 nM (nanomolar)  [Temperature = 298.15 K]
DOCKED: USER    
DOCKED: USER    (1) Final Intermolecular Energy     =  -11.12 kcal/mol
DOCKED: USER        vdW + Hbond + desolv Energy     =   -3.86 kcal/mol
DOCKED: USER        Electrostatic Energy            =   -7.27 kcal/mol
DOCKED: USER    (2) Final Total Internal Energy     =   +2.32 kcal/mol
DOCKED: USER    (3) Torsional Free Energy           =   +1.79 kcal/mol
DOCKED: USER    (4) Unbound System's Energy  [=(2)] =   +2.32 kcal/mol
DOCKED: USER    
DOCKED: USER    
DOCKED: USER    NEWDPF move 2_3_BPG_opt.pdbqt
DOCKED: USER    NEWDPF about 0.015000 0.083000 0.031000
DOCKED: USER    NEWDPF tran0 -6.768583 -15.529968 -4.614953
DOCKED: USER    NEWDPF quaternion0 -0.488039 -0.806381 0.286370 -0.171931
DOCKED: USER    NEWDPF axisangle0 -0.495416 -0.818570 0.290698 -160.199731
DOCKED: USER    NEWDPF quat0 -0.495416 -0.818570 0.290698 -160.199731
DOCKED: USER    NEWDPF dihe0 177.86 -45.46 -147.73 2.80 49.67 -116.18 
DOCKED: USER  keepresnum = 1 
DOCKED: USER  
DOCKED: REMARK  6 active torsions:
DOCKED: REMARK  status: ('A' for Active; 'I' for Inactive)
DOCKED: REMARK    1  A    between atoms: P_1  and  O_3 
DOCKED: REMARK    2  A    between atoms: P_2  and  O_4 
DOCKED: REMARK    3  A    between atoms: O_3  and  C_13 
DOCKED: REMARK    4  A    between atoms: O_4  and  C_14 
DOCKED: REMARK    5  A    between atoms: C_13  and  C_14 
DOCKED: REMARK    6  A    between atoms: C_13  and  C_15 
DOCKED: USER                              x       y       z     vdW  Elec       q    Type
DOCKED: USER                           _______ _______ _______ _____ _____    ______ ____
DOCKED: ROOT
DOCKED: ATOM      1  C   UNL d   1      -6.763 -16.188  -4.489 -0.09 +0.24    +0.193 C 
DOCKED: ENDROOT
DOCKED: BRANCH   1   2
DOCKED: ATOM      2  O   UNL d   1      -5.368 -16.642  -4.490 -0.08 -0.67    -0.356 OA
DOCKED: BRANCH   2   3
DOCKED: ATOM      3  P   UNL d   1      -4.840 -17.936  -5.357 -0.21 -0.02    -0.014 P 
DOCKED: ATOM      4  O   UNL d   1      -3.600 -17.417  -6.103 -0.64 -1.18    -0.577 OA
DOCKED: ATOM      5  O   UNL d   1      -5.958 -18.320  -6.324 -0.02 -0.61    -0.577 OA
DOCKED: ATOM      6  O   UNL d   1      -4.478 -19.045  -4.375 -0.33 -1.10    -0.638 OA
DOCKED: ENDBRANCH   2   3
DOCKED: ENDBRANCH   1   2
DOCKED: BRANCH   1   7
DOCKED: ATOM      7  C   UNL d   1      -6.782 -14.615  -4.490 -0.12 +0.21    +0.201 C 
DOCKED: BRANCH   7   8
DOCKED: ATOM      8  O   UNL d   1      -5.845 -13.974  -5.383 -0.18 -0.65    -0.364 OA
DOCKED: BRANCH   8   9
DOCKED: ATOM      9  P   UNL d   1      -4.809 -12.819  -4.808 -0.50 -0.02    -0.015 P 
DOCKED: ATOM     10  O   UNL d   1      -4.465 -13.266  -3.382 -0.10 -0.55    -0.577 OA
DOCKED: ATOM     11  O   UNL d   1      -5.568 -11.492  -4.823 -0.61 -0.51    -0.577 OA
DOCKED: ATOM     12  O   UNL d   1      -3.584 -12.817  -5.721 -0.54 -1.13    -0.638 OA
DOCKED: ENDBRANCH   8   9
DOCKED: ENDBRANCH   7   8
DOCKED: ENDBRANCH   1   7
DOCKED: BRANCH   1  13
DOCKED: ATOM     13  C   UNL d   1      -7.497 -16.701  -3.194 -0.06 +0.08    +0.073 C 
DOCKED: ATOM     14  O   UNL d   1      -8.610 -17.321  -3.327 +0.00 -0.35    -0.547 OA
DOCKED: ATOM     15  O   UNL d   1      -6.896 -16.520  -2.074 -0.39 -1.02    -0.547 OA
DOCKED: ENDBRANCH   1  13
DOCKED: TORSDOF 6
DOCKED: TER
DOCKED: ENDMDL
________________________________________________________________________________


	BEGINNING GENETIC ALGORITHM DOCKING 7 of 100
Run: 7 Seed: 429233378 782337772 [ Run 7 of 100 GA/GALS ]
Beginning LAMARCKIAN GENETIC ALGORITHM (LGA), with a maximum of 25000000 energy evaluations.

Final-Value: -8.800


	FINAL GENETIC ALGORITHM DOCKED STATE
	_______________________________________________


Detailed state:  trans -6.622 -15.340 -4.466 quatxyzw 0.584490 0.748981 -0.263762 0.166819 center 0.015 0.083 0.031 ntor 6 134.6503 171.5819 -119.7400 16.5218 11.9883 -115.0088
State:	 -6.622 -15.340  -4.466   0.593  0.760 -0.268 160.794    134.65  171.58 -119.74   16.52   11.99 -115.01

DOCKED: MODEL        7
DOCKED: USER    Run = 7
DOCKED: USER    DPF = D:/Protein_go_brrr/autodock/final/mut_N102T/2_3_BPG/dock.dpf
DOCKED: USER  
DOCKED: USER    Estimated Free Energy of Binding    =   -9.15 kcal/mol  [=(1)+(2)+(3)-(4)]
DOCKED: USER    Estimated Inhibition Constant, Ki   =  196.55 nM (nanomolar)  [Temperature = 298.15 K]
DOCKED: USER    
DOCKED: USER    (1) Final Intermolecular Energy     =  -10.94 kcal/mol
DOCKED: USER        vdW + Hbond + desolv Energy     =   -3.88 kcal/mol
DOCKED: USER        Electrostatic Energy            =   -7.06 kcal/mol
DOCKED: USER    (2) Final Total Internal Energy     =   +2.14 kcal/mol
DOCKED: USER    (3) Torsional Free Energy           =   +1.79 kcal/mol
DOCKED: USER    (4) Unbound System's Energy  [=(2)] =   +2.14 kcal/mol
DOCKED: USER    
DOCKED: USER    
DOCKED: USER    NEWDPF move 2_3_BPG_opt.pdbqt
DOCKED: USER    NEWDPF about 0.015000 0.083000 0.031000
DOCKED: USER    NEWDPF tran0 -6.622275 -15.340116 -4.466382
DOCKED: USER    NEWDPF quaternion0 0.584490 0.748981 -0.263762 0.166819
DOCKED: USER    NEWDPF axisangle0 0.592796 0.759626 -0.267510 160.794170
DOCKED: USER    NEWDPF quat0 0.592796 0.759626 -0.267510 160.794170
DOCKED: USER    NEWDPF dihe0 134.65 171.58 -119.74 16.52 11.99 -115.01 
DOCKED: USER  keepresnum = 1 
DOCKED: USER  
DOCKED: REMARK  6 active torsions:
DOCKED: REMARK  status: ('A' for Active; 'I' for Inactive)
DOCKED: REMARK    1  A    between atoms: P_1  and  O_3 
DOCKED: REMARK    2  A    between atoms: P_2  and  O_4 
DOCKED: REMARK    3  A    between atoms: O_3  and  C_13 
DOCKED: REMARK    4  A    between atoms: O_4  and  C_14 
DOCKED: REMARK    5  A    between atoms: C_13  and  C_14 
DOCKED: REMARK    6  A    between atoms: C_13  and  C_15 
DOCKED: USER                              x       y       z     vdW  Elec       q    Type
DOCKED: USER                           _______ _______ _______ _____ _____    ______ ____
DOCKED: ROOT
DOCKED: ATOM      1  C   UNL d   1      -6.767 -15.979  -4.323 -0.09 +0.23    +0.193 C 
DOCKED: ENDROOT
DOCKED: BRANCH   1   2
DOCKED: ATOM      2  O   UNL d   1      -5.505 -16.720  -4.215 +0.08 -0.68    -0.356 OA
DOCKED: BRANCH   2   3
DOCKED: ATOM      3  P   UNL d   1      -5.083 -17.938  -5.236 -0.19 -0.02    -0.014 P 
DOCKED: ATOM      4  O   UNL d   1      -6.376 -18.262  -6.001 +0.00 -0.57    -0.577 OA
DOCKED: ATOM      5  O   UNL d   1      -4.630 -19.114  -4.375 -0.36 -0.97    -0.577 OA
DOCKED: ATOM      6  O   UNL d   1      -3.997 -17.414  -6.170 -0.58 -1.40    -0.638 OA
DOCKED: ENDBRANCH   2   3
DOCKED: ENDBRANCH   1   2
DOCKED: BRANCH   1   7
DOCKED: ATOM      7  C   UNL d   1      -6.446 -14.439  -4.368 -0.15 +0.22    +0.201 C 
DOCKED: BRANCH   7   8
DOCKED: ATOM      8  O   UNL d   1      -5.355 -14.048  -5.231 -0.18 -0.75    -0.364 OA
DOCKED: BRANCH   8   9
DOCKED: ATOM      9  P   UNL d   1      -4.683 -12.543  -5.088 -0.49 -0.02    -0.015 P 
DOCKED: ATOM     10  O   UNL d   1      -4.097 -12.501  -3.672 -0.13 -0.46    -0.577 OA
DOCKED: ATOM     11  O   UNL d   1      -5.814 -11.531  -5.269 -0.68 -0.49    -0.577 OA
DOCKED: ATOM     12  O   UNL d   1      -3.601 -12.429  -6.161 -0.50 -1.00    -0.638 OA
DOCKED: ENDBRANCH   8   9
DOCKED: ENDBRANCH   7   8
DOCKED: ENDBRANCH   1   7
DOCKED: BRANCH   1  13
DOCKED: ATOM     13  C   UNL d   1      -7.672 -16.268  -3.068 -0.08 +0.07    +0.073 C 
DOCKED: ATOM     14  O   UNL d   1      -8.877 -15.834  -3.070 +0.02 -0.27    -0.547 OA
DOCKED: ATOM     15  O   UNL d   1      -7.161 -16.986  -2.134 -0.56 -0.96    -0.547 OA
DOCKED: ENDBRANCH   1  13
DOCKED: TORSDOF 6
DOCKED: TER
DOCKED: ENDMDL
________________________________________________________________________________


	BEGINNING GENETIC ALGORITHM DOCKING 8 of 100
Run: 8 Seed: 1528609404 1679923935 [ Run 8 of 100 GA/GALS ]
Beginning LAMARCKIAN GENETIC ALGORITHM (LGA), with a maximum of 25000000 energy evaluations.

Final-Value: -8.858


	FINAL GENETIC ALGORITHM DOCKED STATE
	_______________________________________________


Detailed state:  trans -6.661 -15.273 -4.683 quatxyzw 0.495775 0.801907 -0.310305 0.121914 center 0.015 0.083 0.031 ntor 6 151.6729 -39.7070 34.6450 13.2266 -45.1916 -164.3743
State:	 -6.661 -15.273  -4.683   0.500  0.808 -0.313 165.995    151.67  -39.71   34.64   13.23  -45.19 -164.37

DOCKED: MODEL        8
DOCKED: USER    Run = 8
DOCKED: USER    DPF = D:/Protein_go_brrr/autodock/final/mut_N102T/2_3_BPG/dock.dpf
DOCKED: USER  
DOCKED: USER    Estimated Free Energy of Binding    =   -9.30 kcal/mol  [=(1)+(2)+(3)-(4)]
DOCKED: USER    Estimated Inhibition Constant, Ki   =  151.61 nM (nanomolar)  [Temperature = 298.15 K]
DOCKED: USER    
DOCKED: USER    (1) Final Intermolecular Energy     =  -11.09 kcal/mol
DOCKED: USER        vdW + Hbond + desolv Energy     =   -3.59 kcal/mol
DOCKED: USER        Electrostatic Energy            =   -7.50 kcal/mol
DOCKED: USER    (2) Final Total Internal Energy     =   +2.23 kcal/mol
DOCKED: USER    (3) Torsional Free Energy           =   +1.79 kcal/mol
DOCKED: USER    (4) Unbound System's Energy  [=(2)] =   +2.23 kcal/mol
DOCKED: USER    
DOCKED: USER    
DOCKED: USER    NEWDPF move 2_3_BPG_opt.pdbqt
DOCKED: USER    NEWDPF about 0.015000 0.083000 0.031000
DOCKED: USER    NEWDPF tran0 -6.661385 -15.272548 -4.683154
DOCKED: USER    NEWDPF quaternion0 0.495775 0.801907 -0.310305 0.121914
DOCKED: USER    NEWDPF axisangle0 0.499501 0.807934 -0.312637 165.994790
DOCKED: USER    NEWDPF quat0 0.499501 0.807934 -0.312637 165.994790
DOCKED: USER    NEWDPF dihe0 151.67 -39.71 34.64 13.23 -45.19 -164.37 
DOCKED: USER  keepresnum = 1 
DOCKED: USER  
DOCKED: REMARK  6 active torsions:
DOCKED: REMARK  status: ('A' for Active; 'I' for Inactive)
DOCKED: REMARK    1  A    between atoms: P_1  and  O_3 
DOCKED: REMARK    2  A    between atoms: P_2  and  O_4 
DOCKED: REMARK    3  A    between atoms: O_3  and  C_13 
DOCKED: REMARK    4  A    between atoms: O_4  and  C_14 
DOCKED: REMARK    5  A    between atoms: C_13  and  C_14 
DOCKED: REMARK    6  A    between atoms: C_13  and  C_15 
DOCKED: USER                              x       y       z     vdW  Elec       q    Type
DOCKED: USER                           _______ _______ _______ _____ _____    ______ ____
DOCKED: ROOT
DOCKED: ATOM      1  C   UNL d   1      -6.652 -15.916  -4.497 -0.10 +0.24    +0.193 C 
DOCKED: ENDROOT
DOCKED: BRANCH   1   2
DOCKED: ATOM      2  O   UNL d   1      -5.252 -16.336  -4.373 -0.03 -0.68    -0.356 OA
DOCKED: BRANCH   2   3
DOCKED: ATOM      3  P   UNL d   1      -4.588 -17.542  -5.272 -0.16 -0.03    -0.014 P 
DOCKED: ATOM      4  O   UNL d   1      -3.221 -16.988  -5.706 -0.55 -1.20    -0.577 OA
DOCKED: ATOM      5  O   UNL d   1      -5.507 -17.771  -6.470 -0.16 -0.86    -0.577 OA
DOCKED: ATOM      6  O   UNL d   1      -4.437 -18.769  -4.379 -0.23 -1.18    -0.638 OA
DOCKED: ENDBRANCH   2   3
DOCKED: ENDBRANCH   1   2
DOCKED: BRANCH   1   7
DOCKED: ATOM      7  C   UNL d   1      -6.698 -14.351  -4.645 -0.13 +0.22    +0.201 C 
DOCKED: BRANCH   7   8
DOCKED: ATOM      8  O   UNL d   1      -5.431 -13.668  -4.520 -0.27 -0.49    -0.364 OA
DOCKED: BRANCH   8   9
DOCKED: ATOM      9  P   UNL d   1      -5.051 -12.431  -5.551 -0.38 -0.02    -0.015 P 
DOCKED: ATOM     10  O   UNL d   1      -3.547 -12.580  -5.814 -0.59 -0.90    -0.577 OA
DOCKED: ATOM     11  O   UNL d   1      -5.376 -11.128  -4.822 -0.56 -0.46    -0.577 OA
DOCKED: ATOM     12  O   UNL d   1      -5.878 -12.630  -6.820 -0.04 -0.80    -0.638 OA
DOCKED: ENDBRANCH   8   9
DOCKED: ENDBRANCH   7   8
DOCKED: ENDBRANCH   1   7
DOCKED: BRANCH   1  13
DOCKED: ATOM     13  C   UNL d   1      -7.454 -16.324  -3.205 -0.08 +0.08    +0.073 C 
DOCKED: ATOM     14  O   UNL d   1      -8.720 -16.501  -3.302 +0.01 -0.32    -0.547 OA
DOCKED: ATOM     15  O   UNL d   1      -6.774 -16.519  -2.134 -0.32 -1.11    -0.547 OA
DOCKED: ENDBRANCH   1  13
DOCKED: TORSDOF 6
DOCKED: TER
DOCKED: ENDMDL
________________________________________________________________________________


	BEGINNING GENETIC ALGORITHM DOCKING 9 of 100
Run: 9 Seed: 1105929279 3639179 [ Run 9 of 100 GA/GALS ]
Beginning LAMARCKIAN GENETIC ALGORITHM (LGA), with a maximum of 25000000 energy evaluations.

Final-Value: -8.885


	FINAL GENETIC ALGORITHM DOCKED STATE
	_______________________________________________


Detailed state:  trans -6.320 -15.226 -4.539 quatxyzw -0.496583 -0.853591 0.087722 -0.130738 center 0.015 0.083 0.031 ntor 6 -3.6697 -48.1535 30.5260 -7.6760 -75.9130 -128.8847
State:	 -6.320 -15.226  -4.539  -0.501 -0.861  0.088 -164.975     -3.67  -48.15   30.53   -7.68  -75.91 -128.88

DOCKED: MODEL        9
DOCKED: USER    Run = 9
DOCKED: USER    DPF = D:/Protein_go_brrr/autodock/final/mut_N102T/2_3_BPG/dock.dpf
DOCKED: USER  
DOCKED: USER    Estimated Free Energy of Binding    =   -9.37 kcal/mol  [=(1)+(2)+(3)-(4)]
DOCKED: USER    Estimated Inhibition Constant, Ki   =  136.46 nM (nanomolar)  [Temperature = 298.15 K]
DOCKED: USER    
DOCKED: USER    (1) Final Intermolecular Energy     =  -11.16 kcal/mol
DOCKED: USER        vdW + Hbond + desolv Energy     =   -3.88 kcal/mol
DOCKED: USER        Electrostatic Energy            =   -7.27 kcal/mol
DOCKED: USER    (2) Final Total Internal Energy     =   +2.27 kcal/mol
DOCKED: USER    (3) Torsional Free Energy           =   +1.79 kcal/mol
DOCKED: USER    (4) Unbound System's Energy  [=(2)] =   +2.27 kcal/mol
DOCKED: USER    
DOCKED: USER    
DOCKED: USER    NEWDPF move 2_3_BPG_opt.pdbqt
DOCKED: USER    NEWDPF about 0.015000 0.083000 0.031000
DOCKED: USER    NEWDPF tran0 -6.320046 -15.225800 -4.538646
DOCKED: USER    NEWDPF quaternion0 -0.496583 -0.853591 0.087722 -0.130738
DOCKED: USER    NEWDPF axisangle0 -0.500882 -0.860981 0.088481 -164.975477
DOCKED: USER    NEWDPF quat0 -0.500882 -0.860981 0.088481 -164.975477
DOCKED: USER    NEWDPF dihe0 -3.67 -48.15 30.53 -7.68 -75.91 -128.88 
DOCKED: USER  keepresnum = 1 
DOCKED: USER  
DOCKED: REMARK  6 active torsions:
DOCKED: REMARK  status: ('A' for Active; 'I' for Inactive)
DOCKED: REMARK    1  A    between atoms: P_1  and  O_3 
DOCKED: REMARK    2  A    between atoms: P_2  and  O_4 
DOCKED: REMARK    3  A    between atoms: O_3  and  C_13 
DOCKED: REMARK    4  A    between atoms: O_4  and  C_14 
DOCKED: REMARK    5  A    between atoms: C_13  and  C_14 
DOCKED: REMARK    6  A    between atoms: C_13  and  C_15 
DOCKED: USER                              x       y       z     vdW  Elec       q    Type
DOCKED: USER                           _______ _______ _______ _____ _____    ______ ____
DOCKED: ROOT
DOCKED: ATOM      1  C   UNL d   1      -6.329 -15.891  -4.620 -0.12 +0.27    +0.193 C 
DOCKED: ENDROOT
DOCKED: BRANCH   1   2
DOCKED: ATOM      2  O   UNL d   1      -4.975 -16.400  -4.374 +0.07 -0.71    -0.356 OA
DOCKED: BRANCH   2   3
DOCKED: ATOM      3  P   UNL d   1      -4.283 -17.593  -5.271 -0.16 -0.03    -0.014 P 
DOCKED: ATOM      4  O   UNL d   1      -2.930 -17.008  -5.707 -0.52 -1.08    -0.577 OA
DOCKED: ATOM      5  O   UNL d   1      -5.197 -17.847  -6.468 -0.26 -0.89    -0.577 OA
DOCKED: ATOM      6  O   UNL d   1      -4.103 -18.813  -4.373 -0.26 -1.15    -0.638 OA
DOCKED: ENDBRANCH   2   3
DOCKED: ENDBRANCH   1   2
DOCKED: BRANCH   1   7
DOCKED: ATOM      7  C   UNL d   1      -6.396 -14.390  -4.155 -0.16 +0.22    +0.201 C 
DOCKED: BRANCH   7   8
DOCKED: ATOM      8  O   UNL d   1      -5.165 -13.641  -4.264 -0.25 -0.46    -0.364 OA
DOCKED: BRANCH   8   9
DOCKED: ATOM      9  P   UNL d   1      -4.995 -12.492  -5.442 -0.40 -0.02    -0.015 P 
DOCKED: ATOM     10  O   UNL d   1      -3.509 -12.524  -5.819 -0.61 -0.85    -0.577 OA
DOCKED: ATOM     11  O   UNL d   1      -5.398 -11.154  -4.822 -0.57 -0.47    -0.577 OA
DOCKED: ATOM     12  O   UNL d   1      -5.892 -12.905  -6.608 -0.10 -0.96    -0.638 OA
DOCKED: ENDBRANCH   8   9
DOCKED: ENDBRANCH   7   8
DOCKED: ENDBRANCH   1   7
DOCKED: BRANCH   1  13
DOCKED: ATOM     13  C   UNL d   1      -7.377 -16.723  -3.790 -0.08 +0.08    +0.073 C 
DOCKED: ATOM     14  O   UNL d   1      -7.162 -16.904  -2.540 -0.50 -0.88    -0.547 OA
DOCKED: ATOM     15  O   UNL d   1      -8.428 -17.121  -4.410 +0.02 -0.35    -0.547 OA
DOCKED: ENDBRANCH   1  13
DOCKED: TORSDOF 6
DOCKED: TER
DOCKED: ENDMDL
________________________________________________________________________________


	BEGINNING GENETIC ALGORITHM DOCKING 10 of 100
Run: 10 Seed: 884824438 994571166 [ Run 10 of 100 GA/GALS ]
Beginning LAMARCKIAN GENETIC ALGORITHM (LGA), with a maximum of 25000000 energy evaluations.

Final-Value: -8.957


	FINAL GENETIC ALGORITHM DOCKED STATE
	_______________________________________________


Detailed state:  trans -5.491 -14.868 -4.050 quatxyzw -0.399524 0.480194 -0.440637 -0.644696 center 0.015 0.083 0.031 ntor 6 71.7679 42.8775 -49.4770 78.8313 -20.3803 -28.2627
State:	 -5.491 -14.868  -4.050  -0.523  0.628 -0.576 -99.714     71.77   42.88  -49.48   78.83  -20.38  -28.26

DOCKED: MODEL       10
DOCKED: USER    Run = 10
DOCKED: USER    DPF = D:/Protein_go_brrr/autodock/final/mut_N102T/2_3_BPG/dock.dpf
DOCKED: USER  
DOCKED: USER    Estimated Free Energy of Binding    =   -9.24 kcal/mol  [=(1)+(2)+(3)-(4)]
DOCKED: USER    Estimated Inhibition Constant, Ki   =  169.98 nM (nanomolar)  [Temperature = 298.15 K]
DOCKED: USER    
DOCKED: USER    (1) Final Intermolecular Energy     =  -11.03 kcal/mol
DOCKED: USER        vdW + Hbond + desolv Energy     =   -4.20 kcal/mol
DOCKED: USER        Electrostatic Energy            =   -6.82 kcal/mol
DOCKED: USER    (2) Final Total Internal Energy     =   +2.07 kcal/mol
DOCKED: USER    (3) Torsional Free Energy           =   +1.79 kcal/mol
DOCKED: USER    (4) Unbound System's Energy  [=(2)] =   +2.07 kcal/mol
DOCKED: USER    
DOCKED: USER    
DOCKED: USER    NEWDPF move 2_3_BPG_opt.pdbqt
DOCKED: USER    NEWDPF about 0.015000 0.083000 0.031000
DOCKED: USER    NEWDPF tran0 -5.490828 -14.867949 -4.050478
DOCKED: USER    NEWDPF quaternion0 -0.399524 0.480194 -0.440637 -0.644696
DOCKED: USER    NEWDPF axisangle0 -0.522637 0.628165 -0.576419 -99.714267
DOCKED: USER    NEWDPF quat0 -0.522637 0.628165 -0.576419 -99.714267
DOCKED: USER    NEWDPF dihe0 71.77 42.88 -49.48 78.83 -20.38 -28.26 
DOCKED: USER  keepresnum = 1 
DOCKED: USER  
DOCKED: REMARK  6 active torsions:
DOCKED: REMARK  status: ('A' for Active; 'I' for Inactive)
DOCKED: REMARK    1  A    between atoms: P_1  and  O_3 
DOCKED: REMARK    2  A    between atoms: P_2  and  O_4 
DOCKED: REMARK    3  A    between atoms: O_3  and  C_13 
DOCKED: REMARK    4  A    between atoms: O_4  and  C_14 
DOCKED: REMARK    5  A    between atoms: C_13  and  C_14 
DOCKED: REMARK    6  A    between atoms: C_13  and  C_15 
DOCKED: USER                              x       y       z     vdW  Elec       q    Type
DOCKED: USER                           _______ _______ _______ _____ _____    ______ ____
DOCKED: ROOT
DOCKED: ATOM      1  C   UNL d   1      -5.546 -14.393  -3.581 -0.19 +0.23    +0.193 C 
DOCKED: ENDROOT
DOCKED: BRANCH   1   2
DOCKED: ATOM      2  O   UNL d   1      -6.182 -13.219  -4.190 -0.23 -0.34    -0.356 OA
DOCKED: BRANCH   2   3
DOCKED: ATOM      3  P   UNL d   1      -5.623 -12.499  -5.559 -0.42 -0.02    -0.014 P 
DOCKED: ATOM      4  O   UNL d   1      -5.812 -10.995  -5.306 -0.60 -0.44    -0.577 OA
DOCKED: ATOM      5  O   UNL d   1      -6.494 -12.988  -6.715 -0.06 -0.67    -0.577 OA
DOCKED: ATOM      6  O   UNL d   1      -4.149 -12.860  -5.714 -0.56 -1.26    -0.638 OA
DOCKED: ENDBRANCH   2   3
DOCKED: ENDBRANCH   1   2
DOCKED: BRANCH   1   7
DOCKED: ATOM      7  C   UNL d   1      -5.671 -15.607  -4.573 -0.09 +0.34    +0.201 C 
DOCKED: BRANCH   7   8
DOCKED: ATOM      8  O   UNL d   1      -4.455 -16.345  -4.823 -0.26 -0.80    -0.364 OA
DOCKED: BRANCH   8   9
DOCKED: ATOM      9  P   UNL d   1      -4.524 -17.861  -5.482 -0.20 -0.02    -0.015 P 
DOCKED: ATOM     10  O   UNL d   1      -3.482 -17.855  -6.607 -0.58 -0.93    -0.577 OA
DOCKED: ATOM     11  O   UNL d   1      -5.943 -18.049  -6.020 -0.03 -0.69    -0.577 OA
DOCKED: ATOM     12  O   UNL d   1      -4.168 -18.852  -4.375 -0.27 -1.14    -0.638 OA
DOCKED: ENDBRANCH   8   9
DOCKED: ENDBRANCH   7   8
DOCKED: ENDBRANCH   1   7
DOCKED: BRANCH   1  13
DOCKED: ATOM     13  C   UNL d   1      -6.275 -14.764  -2.236 -0.22 +0.07    +0.073 C 
DOCKED: ATOM     14  O   UNL d   1      -6.719 -15.957  -2.089 -0.40 -0.84    -0.547 OA
DOCKED: ATOM     15  O   UNL d   1      -6.326 -13.854  -1.331 -0.08 -0.34    -0.547 OA
DOCKED: ENDBRANCH   1  13
DOCKED: TORSDOF 6
DOCKED: TER
DOCKED: ENDMDL
________________________________________________________________________________


	BEGINNING GENETIC ALGORITHM DOCKING 11 of 100
Run: 11 Seed: 291284801 747007382 [ Run 11 of 100 GA/GALS ]
Beginning LAMARCKIAN GENETIC ALGORITHM (LGA), with a maximum of 25000000 energy evaluations.

Final-Value: -8.830


	FINAL GENETIC ALGORITHM DOCKED STATE
	_______________________________________________


Detailed state:  trans -6.403 -15.321 -4.333 quatxyzw -0.512024 -0.784638 0.264624 -0.228361 center 0.015 0.083 0.031 ntor 6 -158.5932 -45.8582 -33.0364 -0.2257 29.7894 -98.4783
State:	 -6.403 -15.321  -4.333  -0.526 -0.806  0.272 -153.599   -158.59  -45.86  -33.04   -0.23   29.79  -98.48

DOCKED: MODEL       11
DOCKED: USER    Run = 11
DOCKED: USER    DPF = D:/Protein_go_brrr/autodock/final/mut_N102T/2_3_BPG/dock.dpf
DOCKED: USER  
DOCKED: USER    Estimated Free Energy of Binding    =   -9.19 kcal/mol  [=(1)+(2)+(3)-(4)]
DOCKED: USER    Estimated Inhibition Constant, Ki   =  183.69 nM (nanomolar)  [Temperature = 298.15 K]
DOCKED: USER    
DOCKED: USER    (1) Final Intermolecular Energy     =  -10.98 kcal/mol
DOCKED: USER        vdW + Hbond + desolv Energy     =   -4.02 kcal/mol
DOCKED: USER        Electrostatic Energy            =   -6.96 kcal/mol
DOCKED: USER    (2) Final Total Internal Energy     =   +2.15 kcal/mol
DOCKED: USER    (3) Torsional Free Energy           =   +1.79 kcal/mol
DOCKED: USER    (4) Unbound System's Energy  [=(2)] =   +2.15 kcal/mol
DOCKED: USER    
DOCKED: USER    
DOCKED: USER    NEWDPF move 2_3_BPG_opt.pdbqt
DOCKED: USER    NEWDPF about 0.015000 0.083000 0.031000
DOCKED: USER    NEWDPF tran0 -6.403039 -15.320624 -4.332744
DOCKED: USER    NEWDPF quaternion0 -0.512024 -0.784638 0.264624 -0.228361
DOCKED: USER    NEWDPF axisangle0 -0.525921 -0.805933 0.271806 -153.598762
DOCKED: USER    NEWDPF quat0 -0.525921 -0.805933 0.271806 -153.598762
DOCKED: USER    NEWDPF dihe0 -158.59 -45.86 -33.04 -0.23 29.79 -98.48 
DOCKED: USER  keepresnum = 1 
DOCKED: USER  
DOCKED: REMARK  6 active torsions:
DOCKED: REMARK  status: ('A' for Active; 'I' for Inactive)
DOCKED: REMARK    1  A    between atoms: P_1  and  O_3 
DOCKED: REMARK    2  A    between atoms: P_2  and  O_4 
DOCKED: REMARK    3  A    between atoms: O_3  and  C_13 
DOCKED: REMARK    4  A    between atoms: O_4  and  C_14 
DOCKED: REMARK    5  A    between atoms: C_13  and  C_14 
DOCKED: REMARK    6  A    between atoms: C_13  and  C_15 
DOCKED: USER                              x       y       z     vdW  Elec       q    Type
DOCKED: USER                           _______ _______ _______ _____ _____    ______ ____
DOCKED: ROOT
DOCKED: ATOM      1  C   UNL d   1      -6.457 -15.984  -4.252 -0.10 +0.26    +0.193 C 
DOCKED: ENDROOT
DOCKED: BRANCH   1   2
DOCKED: ATOM      2  O   UNL d   1      -5.118 -16.570  -4.376 +0.04 -0.70    -0.356 OA
DOCKED: BRANCH   2   3
DOCKED: ATOM      3  P   UNL d   1      -4.791 -17.887  -5.304 -0.21 -0.02    -0.014 P 
DOCKED: ATOM      4  O   UNL d   1      -3.578 -17.469  -6.150 -0.64 -1.16    -0.577 OA
DOCKED: ATOM      5  O   UNL d   1      -6.020 -18.144  -6.173 -0.02 -0.64    -0.577 OA
DOCKED: ATOM      6  O   UNL d   1      -4.451 -19.047  -4.373 -0.33 -1.10    -0.638 OA
DOCKED: ENDBRANCH   2   3
DOCKED: ENDBRANCH   1   2
DOCKED: BRANCH   1   7
DOCKED: ATOM      7  C   UNL d   1      -6.316 -14.421  -4.147 -0.16 +0.22    +0.201 C 
DOCKED: BRANCH   7   8
DOCKED: ATOM      8  O   UNL d   1      -5.702 -13.766  -5.279 -0.29 -0.62    -0.364 OA
DOCKED: BRANCH   8   9
DOCKED: ATOM      9  P   UNL d   1      -4.780 -12.411  -5.055 -0.54 -0.02    -0.015 P 
DOCKED: ATOM     10  O   UNL d   1      -3.727 -12.456  -6.168 -0.56 -0.94    -0.577 OA
DOCKED: ATOM     11  O   UNL d   1      -4.149 -12.526  -3.667 -0.12 -0.46    -0.577 OA
DOCKED: ATOM     12  O   UNL d   1      -5.709 -11.205  -5.192 -0.58 -0.52    -0.638 OA
DOCKED: ENDBRANCH   8   9
DOCKED: ENDBRANCH   7   8
DOCKED: ENDBRANCH   1   7
DOCKED: BRANCH   1  13
DOCKED: ATOM     13  C   UNL d   1      -7.160 -16.515  -2.947 -0.02 +0.10    +0.073 C 
DOCKED: ATOM     14  O   UNL d   1      -8.083 -17.395  -3.065 -0.07 -0.47    -0.547 OA
DOCKED: ATOM     15  O   UNL d   1      -6.716 -16.075  -1.826 -0.42 -0.89    -0.547 OA
DOCKED: ENDBRANCH   1  13
DOCKED: TORSDOF 6
DOCKED: TER
DOCKED: ENDMDL
________________________________________________________________________________


	BEGINNING GENETIC ALGORITHM DOCKING 12 of 100
Run: 12 Seed: 1644294427 2103253392 [ Run 12 of 100 GA/GALS ]
Beginning LAMARCKIAN GENETIC ALGORITHM (LGA), with a maximum of 25000000 energy evaluations.

Final-Value: -8.299


	FINAL GENETIC ALGORITHM DOCKED STATE
	_______________________________________________


Detailed state:  trans -6.924 -15.397 -5.183 quatxyzw 0.129970 -0.506562 -0.472644 -0.709302 center 0.015 0.083 0.031 ntor 6 137.9508 -45.3351 -14.6744 81.5787 68.1345 174.4053
State:	 -6.924 -15.397  -5.183   0.184 -0.719 -0.671 -89.644    137.95  -45.34  -14.67   81.58   68.13  174.41

DOCKED: MODEL       12
DOCKED: USER    Run = 12
DOCKED: USER    DPF = D:/Protein_go_brrr/autodock/final/mut_N102T/2_3_BPG/dock.dpf
DOCKED: USER  
DOCKED: USER    Estimated Free Energy of Binding    =   -9.24 kcal/mol  [=(1)+(2)+(3)-(4)]
DOCKED: USER    Estimated Inhibition Constant, Ki   =  168.67 nM (nanomolar)  [Temperature = 298.15 K]
DOCKED: USER    
DOCKED: USER    (1) Final Intermolecular Energy     =  -11.03 kcal/mol
DOCKED: USER        vdW + Hbond + desolv Energy     =   -3.70 kcal/mol
DOCKED: USER        Electrostatic Energy            =   -7.33 kcal/mol
DOCKED: USER    (2) Final Total Internal Energy     =   +2.73 kcal/mol
DOCKED: USER    (3) Torsional Free Energy           =   +1.79 kcal/mol
DOCKED: USER    (4) Unbound System's Energy  [=(2)] =   +2.73 kcal/mol
DOCKED: USER    
DOCKED: USER    
DOCKED: USER    NEWDPF move 2_3_BPG_opt.pdbqt
DOCKED: USER    NEWDPF about 0.015000 0.083000 0.031000
DOCKED: USER    NEWDPF tran0 -6.924475 -15.396637 -5.182937
DOCKED: USER    NEWDPF quaternion0 0.129970 -0.506562 -0.472644 -0.709302
DOCKED: USER    NEWDPF axisangle0 0.184380 -0.718625 -0.670509 -89.643663
DOCKED: USER    NEWDPF quat0 0.184380 -0.718625 -0.670509 -89.643663
DOCKED: USER    NEWDPF dihe0 137.95 -45.34 -14.67 81.58 68.13 174.41 
DOCKED: USER  keepresnum = 1 
DOCKED: USER  
DOCKED: REMARK  6 active torsions:
DOCKED: REMARK  status: ('A' for Active; 'I' for Inactive)
DOCKED: REMARK    1  A    between atoms: P_1  and  O_3 
DOCKED: REMARK    2  A    between atoms: P_2  and  O_4 
DOCKED: REMARK    3  A    between atoms: O_3  and  C_13 
DOCKED: REMARK    4  A    between atoms: O_4  and  C_14 
DOCKED: REMARK    5  A    between atoms: C_13  and  C_14 
DOCKED: REMARK    6  A    between atoms: C_13  and  C_15 
DOCKED: USER                              x       y       z     vdW  Elec       q    Type
DOCKED: USER                           _______ _______ _______ _____ _____    ______ ____
DOCKED: ROOT
DOCKED: ATOM      1  C   UNL d   1      -7.194 -15.061  -5.697 -0.09 +0.22    +0.193 C 
DOCKED: ENDROOT
DOCKED: BRANCH   1   2
DOCKED: ATOM      2  O   UNL d   1      -6.265 -13.994  -6.084 -0.02 -0.65    -0.356 OA
DOCKED: BRANCH   2   3
DOCKED: ATOM      3  P   UNL d   1      -5.622 -12.924  -5.014 -0.39 -0.02    -0.014 P 
DOCKED: ATOM      4  O   UNL d   1      -4.115 -12.942  -5.313 -0.65 -0.98    -0.577 OA
DOCKED: ATOM      5  O   UNL d   1      -5.922 -13.451  -3.612 -0.06 -0.54    -0.577 OA
DOCKED: ATOM      6  O   UNL d   1      -6.231 -11.554  -5.292 -0.60 -0.54    -0.638 OA
DOCKED: ENDBRANCH   2   3
DOCKED: ENDBRANCH   1   2
DOCKED: BRANCH   1   7
DOCKED: ATOM      7  C   UNL d   1      -6.461 -16.031  -4.699 -0.11 +0.28    +0.201 C 
DOCKED: BRANCH   7   8
DOCKED: ATOM      8  O   UNL d   1      -5.022 -16.085  -4.815 -0.17 -0.76    -0.364 OA
DOCKED: BRANCH   8   9
DOCKED: ATOM      9  P   UNL d   1      -4.288 -17.431  -5.437 +0.03 -0.03    -0.015 P 
DOCKED: ATOM     10  O   UNL d   1      -2.837 -17.009  -5.699 -0.50 -1.04    -0.577 OA
DOCKED: ATOM     11  O   UNL d   1      -5.024 -17.781  -6.730 -0.30 -0.97    -0.577 OA
DOCKED: ATOM     12  O   UNL d   1      -4.385 -18.527  -4.378 -0.11 -1.23    -0.638 OA
DOCKED: ENDBRANCH   8   9
DOCKED: ENDBRANCH   7   8
DOCKED: ENDBRANCH   1   7
DOCKED: BRANCH   1  13
DOCKED: ATOM     13  C   UNL d   1      -7.634 -15.882  -6.967 -0.11 +0.08    +0.073 C 
DOCKED: ATOM     14  O   UNL d   1      -8.610 -16.703  -6.856 +0.02 -0.31    -0.547 OA
DOCKED: ATOM     15  O   UNL d   1      -7.020 -15.628  -8.065 -0.63 -0.85    -0.547 OA
DOCKED: ENDBRANCH   1  13
DOCKED: TORSDOF 6
DOCKED: TER
DOCKED: ENDMDL
________________________________________________________________________________


	BEGINNING GENETIC ALGORITHM DOCKING 13 of 100
Run: 13 Seed: 1891076296 1265220737 [ Run 13 of 100 GA/GALS ]
Beginning LAMARCKIAN GENETIC ALGORITHM (LGA), with a maximum of 25000000 energy evaluations.

Final-Value: -8.722


	FINAL GENETIC ALGORITHM DOCKED STATE
	_______________________________________________


Detailed state:  trans -2.710 -17.610 -5.736 quatxyzw -0.325351 0.159764 0.058103 -0.930186 center 0.015 0.083 0.031 ntor 6 80.1587 -136.8400 -151.2086 15.5236 -90.8710 -83.5859
State:	 -2.710 -17.610  -5.736  -0.886  0.435  0.158 -43.072     80.16 -136.84 -151.21   15.52  -90.87  -83.59

DOCKED: MODEL       13
DOCKED: USER    Run = 13
DOCKED: USER    DPF = D:/Protein_go_brrr/autodock/final/mut_N102T/2_3_BPG/dock.dpf
DOCKED: USER  
DOCKED: USER    Estimated Free Energy of Binding    =   -9.27 kcal/mol  [=(1)+(2)+(3)-(4)]
DOCKED: USER    Estimated Inhibition Constant, Ki   =  161.10 nM (nanomolar)  [Temperature = 298.15 K]
DOCKED: USER    
DOCKED: USER    (1) Final Intermolecular Energy     =  -11.06 kcal/mol
DOCKED: USER        vdW + Hbond + desolv Energy     =   -4.32 kcal/mol
DOCKED: USER        Electrostatic Energy            =   -6.73 kcal/mol
DOCKED: USER    (2) Final Total Internal Energy     =   +2.33 kcal/mol
DOCKED: USER    (3) Torsional Free Energy           =   +1.79 kcal/mol
DOCKED: USER    (4) Unbound System's Energy  [=(2)] =   +2.33 kcal/mol
DOCKED: USER    
DOCKED: USER    
DOCKED: USER    NEWDPF move 2_3_BPG_opt.pdbqt
DOCKED: USER    NEWDPF about 0.015000 0.083000 0.031000
DOCKED: USER    NEWDPF tran0 -2.710162 -17.609649 -5.736347
DOCKED: USER    NEWDPF quaternion0 -0.325351 0.159764 0.058103 -0.930186
DOCKED: USER    NEWDPF axisangle0 -0.886302 0.435220 0.158281 -43.072357
DOCKED: USER    NEWDPF quat0 -0.886302 0.435220 0.158281 -43.072357
DOCKED: USER    NEWDPF dihe0 80.16 -136.84 -151.21 15.52 -90.87 -83.59 
DOCKED: USER  keepresnum = 1 
DOCKED: USER  
DOCKED: REMARK  6 active torsions:
DOCKED: REMARK  status: ('A' for Active; 'I' for Inactive)
DOCKED: REMARK    1  A    between atoms: P_1  and  O_3 
DOCKED: REMARK    2  A    between atoms: P_2  and  O_4 
DOCKED: REMARK    3  A    between atoms: O_3  and  C_13 
DOCKED: REMARK    4  A    between atoms: O_4  and  C_14 
DOCKED: REMARK    5  A    between atoms: C_13  and  C_14 
DOCKED: REMARK    6  A    between atoms: C_13  and  C_15 
DOCKED: USER                              x       y       z     vdW  Elec       q    Type
DOCKED: USER                           _______ _______ _______ _____ _____    ______ ____
DOCKED: ROOT
DOCKED: ATOM      1  C   UNL d   1      -3.172 -17.798  -5.288 -0.15 +0.29    +0.193 C 
DOCKED: ENDROOT
DOCKED: BRANCH   1   2
DOCKED: ATOM      2  O   UNL d   1      -4.497 -17.580  -5.879 -0.56 -0.68    -0.356 OA
DOCKED: BRANCH   2   3
DOCKED: ATOM      3  P   UNL d   1      -5.596 -16.522  -5.264 -0.00 -0.03    -0.014 P 
DOCKED: ATOM      4  O   UNL d   1      -4.758 -15.312  -4.823 +0.02 -1.26    -0.577 OA
DOCKED: ATOM      5  O   UNL d   1      -6.266 -17.206  -4.074 -0.04 -0.95    -0.577 OA
DOCKED: ATOM      6  O   UNL d   1      -6.569 -16.152  -6.379 -0.08 -1.14    -0.638 OA
DOCKED: ENDBRANCH   2   3
DOCKED: ENDBRANCH   1   2
DOCKED: BRANCH   1   7
DOCKED: ATOM      7  C   UNL d   1      -2.085 -17.641  -6.415 -0.24 +0.23    +0.201 C 
DOCKED: BRANCH   7   8
DOCKED: ATOM      8  O   UNL d   1      -1.789 -16.287  -6.822 -0.13 -0.56    -0.364 OA
DOCKED: BRANCH   8   9
DOCKED: ATOM      9  P   UNL d   1      -0.560 -15.452  -6.094 -0.77 -0.01    -0.015 P 
DOCKED: ATOM     10  O   UNL d   1       0.471 -16.519  -5.705 -0.75 -0.34    -0.577 OA
DOCKED: ATOM     11  O   UNL d   1      -1.156 -14.760  -4.869 -0.31 -0.60    -0.577 OA
DOCKED: ATOM     12  O   UNL d   1      -0.008 -14.471  -7.127 -0.64 -0.46    -0.638 OA
DOCKED: ENDBRANCH   8   9
DOCKED: ENDBRANCH   7   8
DOCKED: ENDBRANCH   1   7
DOCKED: BRANCH   1  13
DOCKED: ATOM     13  C   UNL d   1      -3.078 -19.253  -4.696 -0.12 +0.08    +0.073 C 
DOCKED: ATOM     14  O   UNL d   1      -2.035 -19.952  -4.953 -0.01 -0.35    -0.547 OA
DOCKED: ATOM     15  O   UNL d   1      -4.036 -19.633  -3.930 -0.55 -0.95    -0.547 OA
DOCKED: ENDBRANCH   1  13
DOCKED: TORSDOF 6
DOCKED: TER
DOCKED: ENDMDL
________________________________________________________________________________


	BEGINNING GENETIC ALGORITHM DOCKING 14 of 100
Run: 14 Seed: 105046193 1784444345 [ Run 14 of 100 GA/GALS ]
Beginning LAMARCKIAN GENETIC ALGORITHM (LGA), with a maximum of 25000000 energy evaluations.

Final-Value: -8.260


	FINAL GENETIC ALGORITHM DOCKED STATE
	_______________________________________________


Detailed state:  trans -5.436 -15.045 -4.045 quatxyzw 0.449439 -0.314910 0.508919 0.663203 center 0.015 0.083 0.031 ntor 6 -84.8063 -19.1284 25.4387 36.9367 -14.1662 -64.3656
State:	 -5.436 -15.045  -4.045   0.601 -0.421  0.680 96.911    -84.81  -19.13   25.44   36.94  -14.17  -64.37

DOCKED: MODEL       14
DOCKED: USER    Run = 14
DOCKED: USER    DPF = D:/Protein_go_brrr/autodock/final/mut_N102T/2_3_BPG/dock.dpf
DOCKED: USER  
DOCKED: USER    Estimated Free Energy of Binding    =   -8.56 kcal/mol  [=(1)+(2)+(3)-(4)]
DOCKED: USER    Estimated Inhibition Constant, Ki   =  534.61 nM (nanomolar)  [Temperature = 298.15 K]
DOCKED: USER    
DOCKED: USER    (1) Final Intermolecular Energy     =  -10.35 kcal/mol
DOCKED: USER        vdW + Hbond + desolv Energy     =   -3.62 kcal/mol
DOCKED: USER        Electrostatic Energy            =   -6.73 kcal/mol
DOCKED: USER    (2) Final Total Internal Energy     =   +2.09 kcal/mol
DOCKED: USER    (3) Torsional Free Energy           =   +1.79 kcal/mol
DOCKED: USER    (4) Unbound System's Energy  [=(2)] =   +2.09 kcal/mol
DOCKED: USER    
DOCKED: USER    
DOCKED: USER    NEWDPF move 2_3_BPG_opt.pdbqt
DOCKED: USER    NEWDPF about 0.015000 0.083000 0.031000
DOCKED: USER    NEWDPF tran0 -5.436268 -15.044757 -4.045260
DOCKED: USER    NEWDPF quaternion0 0.449439 -0.314910 0.508919 0.663203
DOCKED: USER    NEWDPF axisangle0 0.600502 -0.420755 0.679973 96.910805
DOCKED: USER    NEWDPF quat0 0.600502 -0.420755 0.679973 96.910805
DOCKED: USER    NEWDPF dihe0 -84.81 -19.13 25.44 36.94 -14.17 -64.37 
DOCKED: USER  keepresnum = 1 
DOCKED: USER  
DOCKED: REMARK  6 active torsions:
DOCKED: REMARK  status: ('A' for Active; 'I' for Inactive)
DOCKED: REMARK    1  A    between atoms: P_1  and  O_3 
DOCKED: REMARK    2  A    between atoms: P_2  and  O_4 
DOCKED: REMARK    3  A    between atoms: O_3  and  C_13 
DOCKED: REMARK    4  A    between atoms: O_4  and  C_14 
DOCKED: REMARK    5  A    between atoms: C_13  and  C_14 
DOCKED: REMARK    6  A    between atoms: C_13  and  C_15 
DOCKED: USER                              x       y       z     vdW  Elec       q    Type
DOCKED: USER                           _______ _______ _______ _____ _____    ______ ____
DOCKED: ROOT
DOCKED: ATOM      1  C   UNL d   1      -5.643 -14.482  -3.746 -0.19 +0.24    +0.193 C 
DOCKED: ENDROOT
DOCKED: BRANCH   1   2
DOCKED: ATOM      2  O   UNL d   1      -6.191 -13.591  -4.775 -0.17 -0.41    -0.356 OA
DOCKED: BRANCH   2   3
DOCKED: ATOM      3  P   UNL d   1      -5.316 -12.402  -5.498 -0.44 -0.02    -0.014 P 
DOCKED: ATOM      4  O   UNL d   1      -6.033 -12.157  -6.835 -0.11 -0.52    -0.577 OA
DOCKED: ATOM      5  O   UNL d   1      -3.904 -12.944  -5.709 -0.58 -1.17    -0.577 OA
DOCKED: ATOM      6  O   UNL d   1      -5.366 -11.168  -4.602 -0.41 -0.53    -0.638 OA
DOCKED: ENDBRANCH   2   3
DOCKED: ENDBRANCH   1   2
DOCKED: BRANCH   1   7
DOCKED: ATOM      7  C   UNL d   1      -5.424 -15.906  -4.376 +0.00 +0.36    +0.201 C 
DOCKED: BRANCH   7   8
DOCKED: ATOM      8  O   UNL d   1      -4.095 -16.178  -4.873 -0.22 -0.83    -0.364 OA
DOCKED: BRANCH   8   9
DOCKED: ATOM      9  P   UNL d   1      -3.667 -17.717  -5.303 -0.18 -0.02    -0.015 P 
DOCKED: ATOM     10  O   UNL d   1      -2.150 -17.784  -5.090 -0.02 -0.67    -0.577 OA
DOCKED: ATOM     11  O   UNL d   1      -4.045 -17.891  -6.773 -0.50 -0.98    -0.577 OA
DOCKED: ATOM     12  O   UNL d   1      -4.420 -18.670  -4.375 -0.18 -1.20    -0.638 OA
DOCKED: ENDBRANCH   8   9
DOCKED: ENDBRANCH   7   8
DOCKED: ENDBRANCH   1   7
DOCKED: BRANCH   1  13
DOCKED: ATOM     13  C   UNL d   1      -6.657 -14.611  -2.548 -0.21 +0.07    +0.073 C 
DOCKED: ATOM     14  O   UNL d   1      -7.411 -13.612  -2.274 -0.04 -0.29    -0.547 OA
DOCKED: ATOM     15  O   UNL d   1      -6.713 -15.747  -1.952 -0.37 -0.75    -0.547 OA
DOCKED: ENDBRANCH   1  13
DOCKED: TORSDOF 6
DOCKED: TER
DOCKED: ENDMDL
________________________________________________________________________________


	BEGINNING GENETIC ALGORITHM DOCKING 15 of 100
Run: 15 Seed: 885224879 1687691862 [ Run 15 of 100 GA/GALS ]
Beginning LAMARCKIAN GENETIC ALGORITHM (LGA), with a maximum of 25000000 energy evaluations.

Final-Value: -8.938


	FINAL GENETIC ALGORITHM DOCKED STATE
	_______________________________________________


Detailed state:  trans -5.661 -14.892 -3.931 quatxyzw -0.324896 0.468881 -0.473574 -0.671059 center 0.015 0.083 0.031 ntor 6 104.2353 151.1681 -47.6891 87.3667 -26.1740 -37.2339
State:	 -5.661 -14.892  -3.931  -0.438  0.632 -0.639 -95.702    104.24  151.17  -47.69   87.37  -26.17  -37.23

DOCKED: MODEL       15
DOCKED: USER    Run = 15
DOCKED: USER    DPF = D:/Protein_go_brrr/autodock/final/mut_N102T/2_3_BPG/dock.dpf
DOCKED: USER  
DOCKED: USER    Estimated Free Energy of Binding    =   -9.27 kcal/mol  [=(1)+(2)+(3)-(4)]
DOCKED: USER    Estimated Inhibition Constant, Ki   =  159.72 nM (nanomolar)  [Temperature = 298.15 K]
DOCKED: USER    
DOCKED: USER    (1) Final Intermolecular Energy     =  -11.06 kcal/mol
DOCKED: USER        vdW + Hbond + desolv Energy     =   -4.14 kcal/mol
DOCKED: USER        Electrostatic Energy            =   -6.92 kcal/mol
DOCKED: USER    (2) Final Total Internal Energy     =   +2.12 kcal/mol
DOCKED: USER    (3) Torsional Free Energy           =   +1.79 kcal/mol
DOCKED: USER    (4) Unbound System's Energy  [=(2)] =   +2.12 kcal/mol
DOCKED: USER    
DOCKED: USER    
DOCKED: USER    NEWDPF move 2_3_BPG_opt.pdbqt
DOCKED: USER    NEWDPF about 0.015000 0.083000 0.031000
DOCKED: USER    NEWDPF tran0 -5.661095 -14.892091 -3.930659
DOCKED: USER    NEWDPF quaternion0 -0.324896 0.468881 -0.473574 -0.671059
DOCKED: USER    NEWDPF axisangle0 -0.438218 0.632423 -0.638753 -95.702231
DOCKED: USER    NEWDPF quat0 -0.438218 0.632423 -0.638753 -95.702231
DOCKED: USER    NEWDPF dihe0 104.24 151.17 -47.69 87.37 -26.17 -37.23 
DOCKED: USER  keepresnum = 1 
DOCKED: USER  
DOCKED: REMARK  6 active torsions:
DOCKED: REMARK  status: ('A' for Active; 'I' for Inactive)
DOCKED: REMARK    1  A    between atoms: P_1  and  O_3 
DOCKED: REMARK    2  A    between atoms: P_2  and  O_4 
DOCKED: REMARK    3  A    between atoms: O_3  and  C_13 
DOCKED: REMARK    4  A    between atoms: O_4  and  C_14 
DOCKED: REMARK    5  A    between atoms: C_13  and  C_14 
DOCKED: REMARK    6  A    between atoms: C_13  and  C_15 
DOCKED: USER                              x       y       z     vdW  Elec       q    Type
DOCKED: USER                           _______ _______ _______ _____ _____    ______ ____
DOCKED: ROOT
DOCKED: ATOM      1  C   UNL d   1      -5.743 -14.448  -3.435 -0.18 +0.22    +0.193 C 
DOCKED: ENDROOT
DOCKED: BRANCH   1   2
DOCKED: ATOM      2  O   UNL d   1      -6.198 -13.184  -4.024 -0.24 -0.33    -0.356 OA
DOCKED: BRANCH   2   3
DOCKED: ATOM      3  P   UNL d   1      -5.530 -12.524  -5.375 -0.43 -0.02    -0.014 P 
DOCKED: ATOM      4  O   UNL d   1      -4.048 -12.926  -5.304 -0.65 -0.96    -0.577 OA
DOCKED: ATOM      5  O   UNL d   1      -5.708 -11.011  -5.274 -0.59 -0.44    -0.577 OA
DOCKED: ATOM      6  O   UNL d   1      -6.219 -13.138  -6.589 -0.03 -0.92    -0.638 OA
DOCKED: ENDBRANCH   2   3
DOCKED: ENDBRANCH   1   2
DOCKED: BRANCH   1   7
DOCKED: ATOM      7  C   UNL d   1      -5.826 -15.574  -4.530 -0.12 +0.32    +0.201 C 
DOCKED: BRANCH   7   8
DOCKED: ATOM      8  O   UNL d   1      -4.589 -16.262  -4.822 -0.24 -0.79    -0.364 OA
DOCKED: BRANCH   8   9
DOCKED: ATOM      9  P   UNL d   1      -4.619 -17.779  -5.481 -0.17 -0.03    -0.015 P 
DOCKED: ATOM     10  O   UNL d   1      -3.583 -17.744  -6.611 -0.57 -1.03    -0.577 OA
DOCKED: ATOM     11  O   UNL d   1      -6.034 -18.008  -6.010 -0.03 -0.68    -0.577 OA
DOCKED: ATOM     12  O   UNL d   1      -4.228 -18.759  -4.375 -0.23 -1.17    -0.638 OA
DOCKED: ENDBRANCH   8   9
DOCKED: ENDBRANCH   7   8
DOCKED: ENDBRANCH   1   7
DOCKED: BRANCH   1  13
DOCKED: ATOM     13  C   UNL d   1      -6.673 -14.848  -2.229 -0.20 +0.07    +0.073 C 
DOCKED: ATOM     14  O   UNL d   1      -6.715 -16.077  -1.871 -0.42 -0.89    -0.547 OA
DOCKED: ATOM     15  O   UNL d   1      -7.291 -13.895  -1.630 -0.04 -0.28    -0.547 OA
DOCKED: ENDBRANCH   1  13
DOCKED: TORSDOF 6
DOCKED: TER
DOCKED: ENDMDL
________________________________________________________________________________


	BEGINNING GENETIC ALGORITHM DOCKING 16 of 100
Run: 16 Seed: 516008098 802480442 [ Run 16 of 100 GA/GALS ]
Beginning LAMARCKIAN GENETIC ALGORITHM (LGA), with a maximum of 25000000 energy evaluations.

Final-Value: -7.923


	FINAL GENETIC ALGORITHM DOCKED STATE
	_______________________________________________


Detailed state:  trans -6.243 -15.392 -3.883 quatxyzw 0.249871 0.256929 0.553890 -0.751504 center 0.015 0.083 0.031 ntor 6 173.7021 111.1796 45.8198 16.2970 -59.4461 12.8467
State:	 -6.243 -15.392  -3.883   0.379  0.389  0.840 -82.558    173.70  111.18   45.82   16.30  -59.45   12.85

DOCKED: MODEL       16
DOCKED: USER    Run = 16
DOCKED: USER    DPF = D:/Protein_go_brrr/autodock/final/mut_N102T/2_3_BPG/dock.dpf
DOCKED: USER  
DOCKED: USER    Estimated Free Energy of Binding    =   -8.27 kcal/mol  [=(1)+(2)+(3)-(4)]
DOCKED: USER    Estimated Inhibition Constant, Ki   =  869.50 nM (nanomolar)  [Temperature = 298.15 K]
DOCKED: USER    
DOCKED: USER    (1) Final Intermolecular Energy     =  -10.06 kcal/mol
DOCKED: USER        vdW + Hbond + desolv Energy     =   -2.95 kcal/mol
DOCKED: USER        Electrostatic Energy            =   -7.11 kcal/mol
DOCKED: USER    (2) Final Total Internal Energy     =   +2.14 kcal/mol
DOCKED: USER    (3) Torsional Free Energy           =   +1.79 kcal/mol
DOCKED: USER    (4) Unbound System's Energy  [=(2)] =   +2.14 kcal/mol
DOCKED: USER    
DOCKED: USER    
DOCKED: USER    NEWDPF move 2_3_BPG_opt.pdbqt
DOCKED: USER    NEWDPF about 0.015000 0.083000 0.031000
DOCKED: USER    NEWDPF tran0 -6.243220 -15.391838 -3.882558
DOCKED: USER    NEWDPF quaternion0 0.249871 0.256929 0.553890 -0.751504
DOCKED: USER    NEWDPF axisangle0 0.378747 0.389447 0.839572 -82.558361
DOCKED: USER    NEWDPF quat0 0.378747 0.389447 0.839572 -82.558361
DOCKED: USER    NEWDPF dihe0 173.70 111.18 45.82 16.30 -59.45 12.85 
DOCKED: USER  keepresnum = 1 
DOCKED: USER  
DOCKED: REMARK  6 active torsions:
DOCKED: REMARK  status: ('A' for Active; 'I' for Inactive)
DOCKED: REMARK    1  A    between atoms: P_1  and  O_3 
DOCKED: REMARK    2  A    between atoms: P_2  and  O_4 
DOCKED: REMARK    3  A    between atoms: O_3  and  C_13 
DOCKED: REMARK    4  A    between atoms: O_4  and  C_14 
DOCKED: REMARK    5  A    between atoms: C_13  and  C_14 
DOCKED: REMARK    6  A    between atoms: C_13  and  C_15 
DOCKED: USER                              x       y       z     vdW  Elec       q    Type
DOCKED: USER                           _______ _______ _______ _____ _____    ______ ____
DOCKED: ROOT
DOCKED: ATOM      1  C   UNL d   1      -6.111 -16.045  -3.955 -0.02 +0.30    +0.193 C 
DOCKED: ENDROOT
DOCKED: BRANCH   1   2
DOCKED: ATOM      2  O   UNL d   1      -7.366 -16.787  -3.791 -0.10 -0.39    -0.356 OA
DOCKED: BRANCH   2   3
DOCKED: ATOM      3  P   UNL d   1      -7.631 -17.854  -2.569 +0.04 -0.02    -0.014 P 
DOCKED: ATOM      4  O   UNL d   1      -6.774 -19.076  -2.935 -0.01 -0.89    -0.577 OA
DOCKED: ATOM      5  O   UNL d   1      -9.121 -18.190  -2.576 +0.01 -0.28    -0.577 OA
DOCKED: ATOM      6  O   UNL d   1      -7.160 -17.209  -1.270 -0.46 -1.08    -0.638 OA
DOCKED: ENDBRANCH   2   3
DOCKED: ENDBRANCH   1   2
DOCKED: BRANCH   1   7
DOCKED: ATOM      7  C   UNL d   1      -6.443 -14.512  -4.079 -0.15 +0.22    +0.201 C 
DOCKED: BRANCH   7   8
DOCKED: ATOM      8  O   UNL d   1      -5.307 -13.619  -4.074 -0.21 -0.43    -0.364 OA
DOCKED: BRANCH   8   9
DOCKED: ATOM      9  P   UNL d   1      -5.074 -12.566  -5.328 -0.38 -0.02    -0.015 P 
DOCKED: ATOM     10  O   UNL d   1      -3.599 -12.729  -5.716 -0.61 -0.97    -0.577 OA
DOCKED: ATOM     11  O   UNL d   1      -5.373 -11.165  -4.796 -0.56 -0.47    -0.577 OA
DOCKED: ATOM     12  O   UNL d   1      -6.014 -12.992  -6.455 -0.10 -0.94    -0.638 OA
DOCKED: ENDBRANCH   8   9
DOCKED: ENDBRANCH   7   8
DOCKED: ENDBRANCH   1   7
DOCKED: BRANCH   1  13
DOCKED: ATOM     13  C   UNL d   1      -5.377 -16.509  -5.268 +0.01 +0.15    +0.073 C 
DOCKED: ATOM     14  O   UNL d   1      -4.127 -16.781  -5.206 -0.38 -1.24    -0.547 OA
DOCKED: ATOM     15  O   UNL d   1      -6.099 -16.650  -6.321 -0.02 -1.06    -0.547 OA
DOCKED: ENDBRANCH   1  13
DOCKED: TORSDOF 6
DOCKED: TER
DOCKED: ENDMDL
________________________________________________________________________________


	BEGINNING GENETIC ALGORITHM DOCKING 17 of 100
Run: 17 Seed: 1771339413 477450554 [ Run 17 of 100 GA/GALS ]
Beginning LAMARCKIAN GENETIC ALGORITHM (LGA), with a maximum of 25000000 energy evaluations.

Final-Value: -8.801


	FINAL GENETIC ALGORITHM DOCKED STATE
	_______________________________________________


Detailed state:  trans -6.738 -15.385 -4.535 quatxyzw -0.402772 -0.811154 0.395986 -0.151655 center 0.015 0.083 0.031 ntor 6 -160.4966 -15.5440 49.7047 8.1938 -57.9696 178.8602
State:	 -6.738 -15.385  -4.535  -0.407 -0.821  0.401 -162.554   -160.50  -15.54   49.70    8.19  -57.97  178.86

DOCKED: MODEL       17
DOCKED: USER    Run = 17
DOCKED: USER    DPF = D:/Protein_go_brrr/autodock/final/mut_N102T/2_3_BPG/dock.dpf
DOCKED: USER  
DOCKED: USER    Estimated Free Energy of Binding    =   -9.40 kcal/mol  [=(1)+(2)+(3)-(4)]
DOCKED: USER    Estimated Inhibition Constant, Ki   =  128.65 nM (nanomolar)  [Temperature = 298.15 K]
DOCKED: USER    
DOCKED: USER    (1) Final Intermolecular Energy     =  -11.19 kcal/mol
DOCKED: USER        vdW + Hbond + desolv Energy     =   -3.65 kcal/mol
DOCKED: USER        Electrostatic Energy            =   -7.54 kcal/mol
DOCKED: USER    (2) Final Total Internal Energy     =   +2.39 kcal/mol
DOCKED: USER    (3) Torsional Free Energy           =   +1.79 kcal/mol
DOCKED: USER    (4) Unbound System's Energy  [=(2)] =   +2.39 kcal/mol
DOCKED: USER    
DOCKED: USER    
DOCKED: USER    NEWDPF move 2_3_BPG_opt.pdbqt
DOCKED: USER    NEWDPF about 0.015000 0.083000 0.031000
DOCKED: USER    NEWDPF tran0 -6.737943 -15.385224 -4.534808
DOCKED: USER    NEWDPF quaternion0 -0.402772 -0.811154 0.395986 -0.151655
DOCKED: USER    NEWDPF axisangle0 -0.407485 -0.820646 0.400620 -162.554261
DOCKED: USER    NEWDPF quat0 -0.407485 -0.820646 0.400620 -162.554261
DOCKED: USER    NEWDPF dihe0 -160.50 -15.54 49.70 8.19 -57.97 178.86 
DOCKED: USER  keepresnum = 1 
DOCKED: USER  
DOCKED: REMARK  6 active torsions:
DOCKED: REMARK  status: ('A' for Active; 'I' for Inactive)
DOCKED: REMARK    1  A    between atoms: P_1  and  O_3 
DOCKED: REMARK    2  A    between atoms: P_2  and  O_4 
DOCKED: REMARK    3  A    between atoms: O_3  and  C_13 
DOCKED: REMARK    4  A    between atoms: O_4  and  C_14 
DOCKED: REMARK    5  A    between atoms: C_13  and  C_14 
DOCKED: REMARK    6  A    between atoms: C_13  and  C_15 
DOCKED: USER                              x       y       z     vdW  Elec       q    Type
DOCKED: USER                           _______ _______ _______ _____ _____    ______ ____
DOCKED: ROOT
DOCKED: ATOM      1  C   UNL d   1      -6.588 -16.000  -4.313 -0.10 +0.25    +0.193 C 
DOCKED: ENDROOT
DOCKED: BRANCH   1   2
DOCKED: ATOM      2  O   UNL d   1      -5.138 -16.189  -4.435 -0.03 -0.69    -0.356 OA
DOCKED: BRANCH   2   3
DOCKED: ATOM      3  P   UNL d   1      -4.456 -17.430  -5.270 -0.13 -0.03    -0.014 P 
DOCKED: ATOM      4  O   UNL d   1      -3.020 -16.961  -5.550 -0.50 -1.10    -0.577 OA
DOCKED: ATOM      5  O   UNL d   1      -5.254 -17.599  -6.562 -0.24 -1.02    -0.577 OA
DOCKED: ATOM      6  O   UNL d   1      -4.478 -18.667  -4.377 -0.18 -1.21    -0.638 OA
DOCKED: ENDBRANCH   2   3
DOCKED: ENDBRANCH   1   2
DOCKED: BRANCH   1   7
DOCKED: ATOM      7  C   UNL d   1      -6.921 -14.481  -4.549 -0.11 +0.20    +0.201 C 
DOCKED: BRANCH   7   8
DOCKED: ATOM      8  O   UNL d   1      -5.830 -13.556  -4.342 -0.18 -0.41    -0.364 OA
DOCKED: BRANCH   8   9
DOCKED: ATOM      9  P   UNL d   1      -5.393 -12.506  -5.543 -0.41 -0.02    -0.015 P 
DOCKED: ATOM     10  O   UNL d   1      -3.881 -12.703  -5.714 -0.63 -1.00    -0.577 OA
DOCKED: ATOM     11  O   UNL d   1      -5.733 -11.100  -5.051 -0.53 -0.48    -0.577 OA
DOCKED: ATOM     12  O   UNL d   1      -6.169 -12.905  -6.797 -0.02 -0.82    -0.638 OA
DOCKED: ENDBRANCH   8   9
DOCKED: ENDBRANCH   7   8
DOCKED: ENDBRANCH   1   7
DOCKED: BRANCH   1  13
DOCKED: ATOM     13  C   UNL d   1      -7.065 -16.402  -2.868 +0.12 +0.10    +0.073 C 
DOCKED: ATOM     14  O   UNL d   1      -7.716 -17.495  -2.721 -0.33 -0.62    -0.547 OA
DOCKED: ATOM     15  O   UNL d   1      -6.713 -15.631  -1.903 -0.35 -0.70    -0.547 OA
DOCKED: ENDBRANCH   1  13
DOCKED: TORSDOF 6
DOCKED: TER
DOCKED: ENDMDL
________________________________________________________________________________


	BEGINNING GENETIC ALGORITHM DOCKING 18 of 100
Run: 18 Seed: 1267733875 279257561 [ Run 18 of 100 GA/GALS ]
Beginning LAMARCKIAN GENETIC ALGORITHM (LGA), with a maximum of 25000000 energy evaluations.

Final-Value: -8.754


	FINAL GENETIC ALGORITHM DOCKED STATE
	_______________________________________________


Detailed state:  trans -6.325 -15.253 -4.630 quatxyzw -0.542506 -0.793198 0.236096 -0.144162 center 0.015 0.083 0.031 ntor 6 165.1501 -43.4755 -75.9395 6.4902 -16.3071 -133.7508
State:	 -6.325 -15.253  -4.630  -0.548 -0.802  0.239 -163.422    165.15  -43.48  -75.94    6.49  -16.31 -133.75

DOCKED: MODEL       18
DOCKED: USER    Run = 18
DOCKED: USER    DPF = D:/Protein_go_brrr/autodock/final/mut_N102T/2_3_BPG/dock.dpf
DOCKED: USER  
DOCKED: USER    Estimated Free Energy of Binding    =   -9.02 kcal/mol  [=(1)+(2)+(3)-(4)]
DOCKED: USER    Estimated Inhibition Constant, Ki   =  243.80 nM (nanomolar)  [Temperature = 298.15 K]
DOCKED: USER    
DOCKED: USER    (1) Final Intermolecular Energy     =  -10.81 kcal/mol
DOCKED: USER        vdW + Hbond + desolv Energy     =   -3.96 kcal/mol
DOCKED: USER        Electrostatic Energy            =   -6.85 kcal/mol
DOCKED: USER    (2) Final Total Internal Energy     =   +2.06 kcal/mol
DOCKED: USER    (3) Torsional Free Energy           =   +1.79 kcal/mol
DOCKED: USER    (4) Unbound System's Energy  [=(2)] =   +2.06 kcal/mol
DOCKED: USER    
DOCKED: USER    
DOCKED: USER    NEWDPF move 2_3_BPG_opt.pdbqt
DOCKED: USER    NEWDPF about 0.015000 0.083000 0.031000
DOCKED: USER    NEWDPF tran0 -6.325471 -15.253240 -4.630129
DOCKED: USER    NEWDPF quaternion0 -0.542506 -0.793198 0.236096 -0.144162
DOCKED: USER    NEWDPF axisangle0 -0.548233 -0.801571 0.238589 -163.422453
DOCKED: USER    NEWDPF quat0 -0.548233 -0.801571 0.238589 -163.422453
DOCKED: USER    NEWDPF dihe0 165.15 -43.48 -75.94 6.49 -16.31 -133.75 
DOCKED: USER  keepresnum = 1 
DOCKED: USER  
DOCKED: REMARK  6 active torsions:
DOCKED: REMARK  status: ('A' for Active; 'I' for Inactive)
DOCKED: REMARK    1  A    between atoms: P_1  and  O_3 
DOCKED: REMARK    2  A    between atoms: P_2  and  O_4 
DOCKED: REMARK    3  A    between atoms: O_3  and  C_13 
DOCKED: REMARK    4  A    between atoms: O_4  and  C_14 
DOCKED: REMARK    5  A    between atoms: C_13  and  C_14 
DOCKED: REMARK    6  A    between atoms: C_13  and  C_15 
DOCKED: USER                              x       y       z     vdW  Elec       q    Type
DOCKED: USER                           _______ _______ _______ _____ _____    ______ ____
DOCKED: ROOT
DOCKED: ATOM      1  C   UNL d   1      -6.401 -15.911  -4.527 -0.11 +0.27    +0.193 C 
DOCKED: ENDROOT
DOCKED: BRANCH   1   2
DOCKED: ATOM      2  O   UNL d   1      -5.069 -16.507  -4.377 +0.05 -0.70    -0.356 OA
DOCKED: BRANCH   2   3
DOCKED: ATOM      3  P   UNL d   1      -4.540 -17.775  -5.281 -0.19 -0.02    -0.014 P 
DOCKED: ATOM      4  O   UNL d   1      -3.141 -17.351  -5.754 -0.61 -1.02    -0.577 OA
DOCKED: ATOM      5  O   UNL d   1      -5.507 -17.930  -6.453 -0.13 -0.80    -0.577 OA
DOCKED: ATOM      6  O   UNL d   1      -4.477 -19.003  -4.378 -0.32 -1.11    -0.638 OA
DOCKED: ENDBRANCH   2   3
DOCKED: ENDBRANCH   1   2
DOCKED: BRANCH   1   7
DOCKED: ATOM      7  C   UNL d   1      -6.263 -14.345  -4.477 -0.16 +0.24    +0.201 C 
DOCKED: BRANCH   7   8
DOCKED: ATOM      8  O   UNL d   1      -4.981 -13.812  -4.879 -0.42 -0.65    -0.364 OA
DOCKED: BRANCH   8   9
DOCKED: ATOM      9  P   UNL d   1      -4.813 -12.195  -5.183 -0.56 -0.02    -0.015 P 
DOCKED: ATOM     10  O   UNL d   1      -4.037 -11.642  -3.981 -0.03 -0.35    -0.577 OA
DOCKED: ATOM     11  O   UNL d   1      -6.222 -11.609  -5.271 -0.64 -0.49    -0.577 OA
DOCKED: ATOM     12  O   UNL d   1      -4.027 -12.060  -6.486 -0.44 -0.84    -0.638 OA
DOCKED: ENDBRANCH   8   9
DOCKED: ENDBRANCH   7   8
DOCKED: ENDBRANCH   1   7
DOCKED: BRANCH   1  13
DOCKED: ATOM     13  C   UNL d   1      -7.334 -16.373  -3.346 -0.08 +0.08    +0.073 C 
DOCKED: ATOM     14  O   UNL d   1      -8.561 -16.637  -3.604 +0.01 -0.34    -0.547 OA
DOCKED: ATOM     15  O   UNL d   1      -6.787 -16.519  -2.194 -0.33 -1.08    -0.547 OA
DOCKED: ENDBRANCH   1  13
DOCKED: TORSDOF 6
DOCKED: TER
DOCKED: ENDMDL
________________________________________________________________________________


	BEGINNING GENETIC ALGORITHM DOCKING 19 of 100
Run: 19 Seed: 127268557 256245886 [ Run 19 of 100 GA/GALS ]
Beginning LAMARCKIAN GENETIC ALGORITHM (LGA), with a maximum of 25000000 energy evaluations.

Final-Value: -8.794


	FINAL GENETIC ALGORITHM DOCKED STATE
	_______________________________________________


Detailed state:  trans -6.684 -15.520 -4.545 quatxyzw 0.542011 0.794733 -0.245728 0.119338 center 0.015 0.083 0.031 ntor 6 150.6946 -58.3084 -8.3747 23.7630 31.5525 -110.7854
State:	 -6.684 -15.520  -4.545   0.546  0.800 -0.247 166.292    150.69  -58.31   -8.37   23.76   31.55 -110.79

DOCKED: MODEL       19
DOCKED: USER    Run = 19
DOCKED: USER    DPF = D:/Protein_go_brrr/autodock/final/mut_N102T/2_3_BPG/dock.dpf
DOCKED: USER  
DOCKED: USER    Estimated Free Energy of Binding    =   -9.22 kcal/mol  [=(1)+(2)+(3)-(4)]
DOCKED: USER    Estimated Inhibition Constant, Ki   =  173.43 nM (nanomolar)  [Temperature = 298.15 K]
DOCKED: USER    
DOCKED: USER    (1) Final Intermolecular Energy     =  -11.01 kcal/mol
DOCKED: USER        vdW + Hbond + desolv Energy     =   -3.86 kcal/mol
DOCKED: USER        Electrostatic Energy            =   -7.16 kcal/mol
DOCKED: USER    (2) Final Total Internal Energy     =   +2.22 kcal/mol
DOCKED: USER    (3) Torsional Free Energy           =   +1.79 kcal/mol
DOCKED: USER    (4) Unbound System's Energy  [=(2)] =   +2.22 kcal/mol
DOCKED: USER    
DOCKED: USER    
DOCKED: USER    NEWDPF move 2_3_BPG_opt.pdbqt
DOCKED: USER    NEWDPF about 0.015000 0.083000 0.031000
DOCKED: USER    NEWDPF tran0 -6.683931 -15.520107 -4.544770
DOCKED: USER    NEWDPF quaternion0 0.542011 0.794733 -0.245728 0.119338
DOCKED: USER    NEWDPF axisangle0 0.545913 0.800453 -0.247497 166.292218
DOCKED: USER    NEWDPF quat0 0.545913 0.800453 -0.247497 166.292218
DOCKED: USER    NEWDPF dihe0 150.69 -58.31 -8.37 23.76 31.55 -110.79 
DOCKED: USER  keepresnum = 1 
DOCKED: USER  
DOCKED: REMARK  6 active torsions:
DOCKED: REMARK  status: ('A' for Active; 'I' for Inactive)
DOCKED: REMARK    1  A    between atoms: P_1  and  O_3 
DOCKED: REMARK    2  A    between atoms: P_2  and  O_4 
DOCKED: REMARK    3  A    between atoms: O_3  and  C_13 
DOCKED: REMARK    4  A    between atoms: O_4  and  C_14 
DOCKED: REMARK    5  A    between atoms: C_13  and  C_14 
DOCKED: REMARK    6  A    between atoms: C_13  and  C_15 
DOCKED: USER                              x       y       z     vdW  Elec       q    Type
DOCKED: USER                           _______ _______ _______ _____ _____    ______ ____
DOCKED: ROOT
DOCKED: ATOM      1  C   UNL d   1      -6.752 -16.175  -4.417 -0.09 +0.24    +0.193 C 
DOCKED: ENDROOT
DOCKED: BRANCH   1   2
DOCKED: ATOM      2  O   UNL d   1      -5.415 -16.740  -4.204 +0.13 -0.70    -0.356 OA
DOCKED: BRANCH   2   3
DOCKED: ATOM      3  P   UNL d   1      -4.677 -17.742  -5.279 -0.19 -0.02    -0.014 P 
DOCKED: ATOM      4  O   UNL d   1      -3.419 -16.975  -5.716 -0.54 -1.29    -0.577 OA
DOCKED: ATOM      5  O   UNL d   1      -5.643 -17.946  -6.445 -0.10 -0.76    -0.577 OA
DOCKED: ATOM      6  O   UNL d   1      -4.320 -19.034  -4.552 -0.28 -1.01    -0.638 OA
DOCKED: ENDBRANCH   2   3
DOCKED: ENDBRANCH   1   2
DOCKED: BRANCH   1   7
DOCKED: ATOM      7  C   UNL d   1      -6.640 -14.605  -4.428 -0.13 +0.22    +0.201 C 
DOCKED: BRANCH   7   8
DOCKED: ATOM      8  O   UNL d   1      -5.604 -14.053  -5.269 -0.19 -0.69    -0.364 OA
DOCKED: BRANCH   8   9
DOCKED: ATOM      9  P   UNL d   1      -4.804 -12.681  -4.806 -0.53 -0.02    -0.015 P 
DOCKED: ATOM     10  O   UNL d   1      -3.693 -12.496  -5.848 -0.63 -0.87    -0.577 OA
DOCKED: ATOM     11  O   UNL d   1      -4.239 -12.943  -3.411 -0.12 -0.50    -0.577 OA
DOCKED: ATOM     12  O   UNL d   1      -5.816 -11.536  -4.837 -0.57 -0.58    -0.638 OA
DOCKED: ENDBRANCH   8   9
DOCKED: ENDBRANCH   7   8
DOCKED: ENDBRANCH   1   7
DOCKED: BRANCH   1  13
DOCKED: ATOM     13  C   UNL d   1      -7.712 -16.604  -3.245 -0.07 +0.07    +0.073 C 
DOCKED: ATOM     14  O   UNL d   1      -8.973 -16.627  -3.466 +0.02 -0.28    -0.547 OA
DOCKED: ATOM     15  O   UNL d   1      -7.161 -16.969  -2.145 -0.56 -0.96    -0.547 OA
DOCKED: ENDBRANCH   1  13
DOCKED: TORSDOF 6
DOCKED: TER
DOCKED: ENDMDL
________________________________________________________________________________


	BEGINNING GENETIC ALGORITHM DOCKING 20 of 100
Run: 20 Seed: 849130504 2143471770 [ Run 20 of 100 GA/GALS ]
Beginning LAMARCKIAN GENETIC ALGORITHM (LGA), with a maximum of 25000000 energy evaluations.

Final-Value: -8.673


	FINAL GENETIC ALGORITHM DOCKED STATE
	_______________________________________________


Detailed state:  trans -6.244 -15.316 -4.249 quatxyzw 0.693194 0.622701 -0.161385 0.325086 center 0.015 0.083 0.031 ntor 6 147.0158 178.1490 180.0000 47.2498 -0.4058 -54.9396
State:	 -6.244 -15.316  -4.249   0.733  0.658 -0.171 142.058    147.02  178.15  180.00   47.25   -0.41  -54.94

DOCKED: MODEL       20
DOCKED: USER    Run = 20
DOCKED: USER    DPF = D:/Protein_go_brrr/autodock/final/mut_N102T/2_3_BPG/dock.dpf
DOCKED: USER  
DOCKED: USER    Estimated Free Energy of Binding    =   -8.96 kcal/mol  [=(1)+(2)+(3)-(4)]
DOCKED: USER    Estimated Inhibition Constant, Ki   =  272.75 nM (nanomolar)  [Temperature = 298.15 K]
DOCKED: USER    
DOCKED: USER    (1) Final Intermolecular Energy     =  -10.74 kcal/mol
DOCKED: USER        vdW + Hbond + desolv Energy     =   -3.92 kcal/mol
DOCKED: USER        Electrostatic Energy            =   -6.83 kcal/mol
DOCKED: USER    (2) Final Total Internal Energy     =   +2.07 kcal/mol
DOCKED: USER    (3) Torsional Free Energy           =   +1.79 kcal/mol
DOCKED: USER    (4) Unbound System's Energy  [=(2)] =   +2.07 kcal/mol
DOCKED: USER    
DOCKED: USER    
DOCKED: USER    NEWDPF move 2_3_BPG_opt.pdbqt
DOCKED: USER    NEWDPF about 0.015000 0.083000 0.031000
DOCKED: USER    NEWDPF tran0 -6.243696 -15.315983 -4.249281
DOCKED: USER    NEWDPF quaternion0 0.693194 0.622701 -0.161385 0.325086
DOCKED: USER    NEWDPF axisangle0 0.733007 0.658466 -0.170654 142.058416
DOCKED: USER    NEWDPF quat0 0.733007 0.658466 -0.170654 142.058416
DOCKED: USER    NEWDPF dihe0 147.02 178.15 180.00 47.25 -0.41 -54.94 
DOCKED: USER  keepresnum = 1 
DOCKED: USER  
DOCKED: REMARK  6 active torsions:
DOCKED: REMARK  status: ('A' for Active; 'I' for Inactive)
DOCKED: REMARK    1  A    between atoms: P_1  and  O_3 
DOCKED: REMARK    2  A    between atoms: P_2  and  O_4 
DOCKED: REMARK    3  A    between atoms: O_3  and  C_13 
DOCKED: REMARK    4  A    between atoms: O_4  and  C_14 
DOCKED: REMARK    5  A    between atoms: C_13  and  C_14 
DOCKED: REMARK    6  A    between atoms: C_13  and  C_15 
DOCKED: USER                              x       y       z     vdW  Elec       q    Type
DOCKED: USER                           _______ _______ _______ _____ _____    ______ ____
DOCKED: ROOT
DOCKED: ATOM      1  C   UNL d   1      -6.640 -15.856  -4.221 -0.10 +0.24    +0.193 C 
DOCKED: ENDROOT
DOCKED: BRANCH   1   2
DOCKED: ATOM      2  O   UNL d   1      -5.811 -17.044  -4.457 -0.08 -0.61    -0.356 OA
DOCKED: BRANCH   2   3
DOCKED: ATOM      3  P   UNL d   1      -5.444 -17.604  -5.959 -0.11 -0.02    -0.014 P 
DOCKED: ATOM      4  O   UNL d   1      -6.267 -16.719  -6.909 -0.14 -1.09    -0.577 OA
DOCKED: ATOM      5  O   UNL d   1      -5.892 -19.062  -6.021 +0.01 -0.49    -0.577 OA
DOCKED: ATOM      6  O   UNL d   1      -3.946 -17.418  -6.178 -0.58 -1.39    -0.638 OA
DOCKED: ENDBRANCH   2   3
DOCKED: ENDBRANCH   1   2
DOCKED: BRANCH   1   7
DOCKED: ATOM      7  C   UNL d   1      -5.695 -14.618  -3.995 -0.18 +0.26    +0.201 C 
DOCKED: BRANCH   7   8
DOCKED: ATOM      8  O   UNL d   1      -5.592 -13.694  -5.100 -0.32 -0.59    -0.364 OA
DOCKED: BRANCH   8   9
DOCKED: ATOM      9  P   UNL d   1      -4.577 -12.392  -5.001 -0.56 -0.02    -0.015 P 
DOCKED: ATOM     10  O   UNL d   1      -3.887 -12.527  -3.638 -0.14 -0.44    -0.577 OA
DOCKED: ATOM     11  O   UNL d   1      -5.450 -11.139  -5.076 -0.59 -0.46    -0.577 OA
DOCKED: ATOM     12  O   UNL d   1      -3.587 -12.501  -6.159 -0.51 -1.05    -0.638 OA
DOCKED: ENDBRANCH   8   9
DOCKED: ENDBRANCH   7   8
DOCKED: ENDBRANCH   1   7
DOCKED: BRANCH   1  13
DOCKED: ATOM     13  C   UNL d   1      -7.520 -16.060  -2.932 -0.09 +0.07    +0.073 C 
DOCKED: ATOM     14  O   UNL d   1      -8.570 -15.340  -2.788 +0.02 -0.29    -0.547 OA
DOCKED: ATOM     15  O   UNL d   1      -7.163 -16.992  -2.124 -0.56 -0.96    -0.547 OA
DOCKED: ENDBRANCH   1  13
DOCKED: TORSDOF 6
DOCKED: TER
DOCKED: ENDMDL
________________________________________________________________________________


	BEGINNING GENETIC ALGORITHM DOCKING 21 of 100
Run: 21 Seed: 710251526 16778374 [ Run 21 of 100 GA/GALS ]
Beginning LAMARCKIAN GENETIC ALGORITHM (LGA), with a maximum of 25000000 energy evaluations.

Final-Value: -8.838


	FINAL GENETIC ALGORITHM DOCKED STATE
	_______________________________________________


Detailed state:  trans -1.740 -15.333 -5.300 quatxyzw 0.091295 -0.061653 0.674553 -0.729960 center 0.015 0.083 0.031 ntor 6 -154.1753 -7.9957 173.8886 52.3881 0.3086 -89.8623
State:	 -1.740 -15.333  -5.300   0.134 -0.090  0.987 -86.234   -154.18   -8.00  173.89   52.39    0.31  -89.86

DOCKED: MODEL       21
DOCKED: USER    Run = 21
DOCKED: USER    DPF = D:/Protein_go_brrr/autodock/final/mut_N102T/2_3_BPG/dock.dpf
DOCKED: USER  
DOCKED: USER    Estimated Free Energy of Binding    =   -9.46 kcal/mol  [=(1)+(2)+(3)-(4)]
DOCKED: USER    Estimated Inhibition Constant, Ki   =  117.29 nM (nanomolar)  [Temperature = 298.15 K]
DOCKED: USER    
DOCKED: USER    (1) Final Intermolecular Energy     =  -11.24 kcal/mol
DOCKED: USER        vdW + Hbond + desolv Energy     =   -4.98 kcal/mol
DOCKED: USER        Electrostatic Energy            =   -6.26 kcal/mol
DOCKED: USER    (2) Final Total Internal Energy     =   +2.41 kcal/mol
DOCKED: USER    (3) Torsional Free Energy           =   +1.79 kcal/mol
DOCKED: USER    (4) Unbound System's Energy  [=(2)] =   +2.41 kcal/mol
DOCKED: USER    
DOCKED: USER    
DOCKED: USER    NEWDPF move 2_3_BPG_opt.pdbqt
DOCKED: USER    NEWDPF about 0.015000 0.083000 0.031000
DOCKED: USER    NEWDPF tran0 -1.739748 -15.333385 -5.299590
DOCKED: USER    NEWDPF quaternion0 0.091295 -0.061653 0.674553 -0.729960
DOCKED: USER    NEWDPF axisangle0 0.133573 -0.090203 0.986925 -86.233867
DOCKED: USER    NEWDPF quat0 0.133573 -0.090203 0.986925 -86.233867
DOCKED: USER    NEWDPF dihe0 -154.18 -8.00 173.89 52.39 0.31 -89.86 
DOCKED: USER  keepresnum = 1 
DOCKED: USER  
DOCKED: REMARK  6 active torsions:
DOCKED: REMARK  status: ('A' for Active; 'I' for Inactive)
DOCKED: REMARK    1  A    between atoms: P_1  and  O_3 
DOCKED: REMARK    2  A    between atoms: P_2  and  O_4 
DOCKED: REMARK    3  A    between atoms: O_3  and  C_13 
DOCKED: REMARK    4  A    between atoms: O_4  and  C_14 
DOCKED: REMARK    5  A    between atoms: C_13  and  C_14 
DOCKED: REMARK    6  A    between atoms: C_13  and  C_15 
DOCKED: USER                              x       y       z     vdW  Elec       q    Type
DOCKED: USER                           _______ _______ _______ _____ _____    ______ ____
DOCKED: ROOT
DOCKED: ATOM      1  C   UNL d   1      -1.474 -15.947  -5.349 -0.33 +0.23    +0.193 C 
DOCKED: ENDROOT
DOCKED: BRANCH   1   2
DOCKED: ATOM      2  O   UNL d   1      -2.377 -16.771  -6.161 -0.46 -0.62    -0.356 OA
DOCKED: BRANCH   2   3
DOCKED: ATOM      3  P   UNL d   1      -3.742 -17.469  -5.565 +0.06 -0.03    -0.014 P 
DOCKED: ATOM      4  O   UNL d   1      -4.500 -17.952  -6.812 -0.40 -0.94    -0.577 OA
DOCKED: ATOM      5  O   UNL d   1      -4.517 -16.384  -4.821 -0.17 -1.25    -0.577 OA
DOCKED: ATOM      6  O   UNL d   1      -3.325 -18.637  -4.677 -0.07 -0.92    -0.638 OA
DOCKED: ENDBRANCH   2   3
DOCKED: ENDBRANCH   1   2
DOCKED: BRANCH   1   7
DOCKED: ATOM      7  C   UNL d   1      -1.924 -14.444  -5.463 -0.35 +0.28    +0.201 C 
DOCKED: BRANCH   7   8
DOCKED: ATOM      8  O   UNL d   1      -3.175 -14.110  -4.820 -0.41 -0.61    -0.364 OA
DOCKED: BRANCH   8   9
DOCKED: ATOM      9  P   UNL d   1      -3.789 -12.579  -4.945 -0.61 -0.02    -0.015 P 
DOCKED: ATOM     10  O   UNL d   1      -2.727 -11.785  -5.715 -0.17 -0.48    -0.577 OA
DOCKED: ATOM     11  O   UNL d   1      -3.972 -12.055  -3.521 -0.02 -0.37    -0.577 OA
DOCKED: ATOM     12  O   UNL d   1      -5.102 -12.681  -5.719 -0.51 -0.99    -0.638 OA
DOCKED: ENDBRANCH   8   9
DOCKED: ENDBRANCH   7   8
DOCKED: ENDBRANCH   1   7
DOCKED: BRANCH   1  13
DOCKED: ATOM     13  C   UNL d   1       0.001 -16.073  -5.886 -0.54 +0.05    +0.073 C 
DOCKED: ATOM     14  O   UNL d   1       0.811 -16.851  -5.269 -0.65 -0.30    -0.547 OA
DOCKED: ATOM     15  O   UNL d   1       0.287 -15.430  -6.959 -0.38 -0.31    -0.547 OA
DOCKED: ENDBRANCH   1  13
DOCKED: TORSDOF 6
DOCKED: TER
DOCKED: ENDMDL
________________________________________________________________________________


	BEGINNING GENETIC ALGORITHM DOCKING 22 of 100
Run: 22 Seed: 1057109981 1448111849 [ Run 22 of 100 GA/GALS ]
Beginning LAMARCKIAN GENETIC ALGORITHM (LGA), with a maximum of 25000000 energy evaluations.

Final-Value: -8.837


	FINAL GENETIC ALGORITHM DOCKED STATE
	_______________________________________________


Detailed state:  trans -6.505 -15.222 -4.680 quatxyzw 0.466557 0.745977 -0.421867 0.218796 center 0.015 0.083 0.031 ntor 6 -130.0646 -36.4811 27.5767 6.0608 -30.0899 -176.6929
State:	 -6.505 -15.222  -4.680   0.478  0.764 -0.432 154.723   -130.06  -36.48   27.58    6.06  -30.09 -176.69

DOCKED: MODEL       22
DOCKED: USER    Run = 22
DOCKED: USER    DPF = D:/Protein_go_brrr/autodock/final/mut_N102T/2_3_BPG/dock.dpf
DOCKED: USER  
DOCKED: USER    Estimated Free Energy of Binding    =   -9.28 kcal/mol  [=(1)+(2)+(3)-(4)]
DOCKED: USER    Estimated Inhibition Constant, Ki   =  158.90 nM (nanomolar)  [Temperature = 298.15 K]
DOCKED: USER    
DOCKED: USER    (1) Final Intermolecular Energy     =  -11.07 kcal/mol
DOCKED: USER        vdW + Hbond + desolv Energy     =   -3.89 kcal/mol
DOCKED: USER        Electrostatic Energy            =   -7.18 kcal/mol
DOCKED: USER    (2) Final Total Internal Energy     =   +2.23 kcal/mol
DOCKED: USER    (3) Torsional Free Energy           =   +1.79 kcal/mol
DOCKED: USER    (4) Unbound System's Energy  [=(2)] =   +2.23 kcal/mol
DOCKED: USER    
DOCKED: USER    
DOCKED: USER    NEWDPF move 2_3_BPG_opt.pdbqt
DOCKED: USER    NEWDPF about 0.015000 0.083000 0.031000
DOCKED: USER    NEWDPF tran0 -6.504629 -15.222191 -4.679755
DOCKED: USER    NEWDPF quaternion0 0.466557 0.745977 -0.421867 0.218796
DOCKED: USER    NEWDPF axisangle0 0.478142 0.764500 -0.432342 154.723382
DOCKED: USER    NEWDPF quat0 0.478142 0.764500 -0.432342 154.723382
DOCKED: USER    NEWDPF dihe0 -130.06 -36.48 27.58 6.06 -30.09 -176.69 
DOCKED: USER  keepresnum = 1 
DOCKED: USER  
DOCKED: REMARK  6 active torsions:
DOCKED: REMARK  status: ('A' for Active; 'I' for Inactive)
DOCKED: REMARK    1  A    between atoms: P_1  and  O_3 
DOCKED: REMARK    2  A    between atoms: P_2  and  O_4 
DOCKED: REMARK    3  A    between atoms: O_3  and  C_13 
DOCKED: REMARK    4  A    between atoms: O_4  and  C_14 
DOCKED: REMARK    5  A    between atoms: C_13  and  C_14 
DOCKED: REMARK    6  A    between atoms: C_13  and  C_15 
DOCKED: USER                              x       y       z     vdW  Elec       q    Type
DOCKED: USER                           _______ _______ _______ _____ _____    ______ ____
DOCKED: ROOT
DOCKED: ATOM      1  C   UNL d   1      -6.456 -15.843  -4.431 -0.11 +0.26    +0.193 C 
DOCKED: ENDROOT
DOCKED: BRANCH   1   2
DOCKED: ATOM      2  O   UNL d   1      -5.093 -16.328  -4.673 -0.12 -0.71    -0.356 OA
DOCKED: BRANCH   2   3
DOCKED: ATOM      3  P   UNL d   1      -4.761 -17.746  -5.437 -0.17 -0.02    -0.014 P 
DOCKED: ATOM      4  O   UNL d   1      -3.563 -17.422  -6.343 -0.60 -1.22    -0.577 OA
DOCKED: ATOM      5  O   UNL d   1      -5.997 -18.121  -6.252 -0.03 -0.65    -0.577 OA
DOCKED: ATOM      6  O   UNL d   1      -4.397 -18.778  -4.375 -0.24 -1.18    -0.638 OA
DOCKED: ENDBRANCH   2   3
DOCKED: ENDBRANCH   1   2
DOCKED: BRANCH   1   7
DOCKED: ATOM      7  C   UNL d   1      -6.506 -14.301  -4.739 -0.14 +0.24    +0.201 C 
DOCKED: BRANCH   7   8
DOCKED: ATOM      8  O   UNL d   1      -5.229 -13.628  -4.796 -0.42 -0.56    -0.364 OA
DOCKED: BRANCH   8   9
DOCKED: ATOM      9  P   UNL d   1      -5.049 -12.267  -5.718 -0.41 -0.02    -0.015 P 
DOCKED: ATOM     10  O   UNL d   1      -3.580 -12.275  -6.158 -0.53 -0.82    -0.577 OA
DOCKED: ATOM     11  O   UNL d   1      -5.369 -11.073  -4.819 -0.52 -0.46    -0.577 OA
DOCKED: ATOM     12  O   UNL d   1      -6.004 -12.396  -6.904 -0.05 -0.66    -0.638 OA
DOCKED: ENDBRANCH   8   9
DOCKED: ENDBRANCH   7   8
DOCKED: ENDBRANCH   1   7
DOCKED: BRANCH   1  13
DOCKED: ATOM     13  C   UNL d   1      -6.850 -16.069  -2.924 -0.00 +0.10    +0.073 C 
DOCKED: ATOM     14  O   UNL d   1      -7.161 -17.252  -2.544 -0.46 -0.94    -0.547 OA
DOCKED: ATOM     15  O   UNL d   1      -6.774 -15.053  -2.143 -0.09 -0.54    -0.547 OA
DOCKED: ENDBRANCH   1  13
DOCKED: TORSDOF 6
DOCKED: TER
DOCKED: ENDMDL
________________________________________________________________________________


	BEGINNING GENETIC ALGORITHM DOCKING 23 of 100
Run: 23 Seed: 1550602411 275700154 [ Run 23 of 100 GA/GALS ]
Beginning LAMARCKIAN GENETIC ALGORITHM (LGA), with a maximum of 25000000 energy evaluations.

Final-Value: -8.265


	FINAL GENETIC ALGORITHM DOCKED STATE
	_______________________________________________


Detailed state:  trans -6.812 -15.764 -5.118 quatxyzw 0.217638 -0.401281 -0.761743 -0.459733 center 0.015 0.083 0.031 ntor 6 -152.8289 56.8334 -95.6216 -12.2013 63.2504 -141.3098
State:	 -6.812 -15.764  -5.118   0.245 -0.452 -0.858 -125.260   -152.83   56.83  -95.62  -12.20   63.25 -141.31

DOCKED: MODEL       23
DOCKED: USER    Run = 23
DOCKED: USER    DPF = D:/Protein_go_brrr/autodock/final/mut_N102T/2_3_BPG/dock.dpf
DOCKED: USER  
DOCKED: USER    Estimated Free Energy of Binding    =   -9.07 kcal/mol  [=(1)+(2)+(3)-(4)]
DOCKED: USER    Estimated Inhibition Constant, Ki   =  226.05 nM (nanomolar)  [Temperature = 298.15 K]
DOCKED: USER    
DOCKED: USER    (1) Final Intermolecular Energy     =  -10.86 kcal/mol
DOCKED: USER        vdW + Hbond + desolv Energy     =   -3.38 kcal/mol
DOCKED: USER        Electrostatic Energy            =   -7.48 kcal/mol
DOCKED: USER    (2) Final Total Internal Energy     =   +2.59 kcal/mol
DOCKED: USER    (3) Torsional Free Energy           =   +1.79 kcal/mol
DOCKED: USER    (4) Unbound System's Energy  [=(2)] =   +2.59 kcal/mol
DOCKED: USER    
DOCKED: USER    
DOCKED: USER    NEWDPF move 2_3_BPG_opt.pdbqt
DOCKED: USER    NEWDPF about 0.015000 0.083000 0.031000
DOCKED: USER    NEWDPF tran0 -6.812338 -15.763525 -5.118081
DOCKED: USER    NEWDPF quaternion0 0.217638 -0.401281 -0.761743 -0.459733
DOCKED: USER    NEWDPF axisangle0 0.245072 -0.451864 -0.857764 -125.260204
DOCKED: USER    NEWDPF quat0 0.245072 -0.451864 -0.857764 -125.260204
DOCKED: USER    NEWDPF dihe0 -152.83 56.83 -95.62 -12.20 63.25 -141.31 
DOCKED: USER  keepresnum = 1 
DOCKED: USER  
DOCKED: REMARK  6 active torsions:
DOCKED: REMARK  status: ('A' for Active; 'I' for Inactive)
DOCKED: REMARK    1  A    between atoms: P_1  and  O_3 
DOCKED: REMARK    2  A    between atoms: P_2  and  O_4 
DOCKED: REMARK    3  A    between atoms: O_3  and  C_13 
DOCKED: REMARK    4  A    between atoms: O_4  and  C_14 
DOCKED: REMARK    5  A    between atoms: C_13  and  C_14 
DOCKED: REMARK    6  A    between atoms: C_13  and  C_15 
DOCKED: USER                              x       y       z     vdW  Elec       q    Type
DOCKED: USER                           _______ _______ _______ _____ _____    ______ ____
DOCKED: ROOT
DOCKED: ATOM      1  C   UNL d   1      -6.759 -15.133  -5.339 -0.09 +0.26    +0.193 C 
DOCKED: ENDROOT
DOCKED: BRANCH   1   2
DOCKED: ATOM      2  O   UNL d   1      -5.382 -14.682  -5.106 +0.05 -0.76    -0.356 OA
DOCKED: BRANCH   2   3
DOCKED: ATOM      3  P   UNL d   1      -4.996 -13.139  -4.689 -0.42 -0.02    -0.014 P 
DOCKED: ATOM      4  O   UNL d   1      -3.933 -12.719  -5.717 -0.63 -1.02    -0.577 OA
DOCKED: ATOM      5  O   UNL d   1      -4.422 -13.183  -3.274 -0.09 -0.53    -0.577 OA
DOCKED: ATOM      6  O   UNL d   1      -6.257 -12.289  -4.808 -0.51 -0.59    -0.638 OA
DOCKED: ENDBRANCH   2   3
DOCKED: ENDBRANCH   1   2
DOCKED: BRANCH   1   7
DOCKED: ATOM      7  C   UNL d   1      -6.829 -16.686  -5.101 -0.09 +0.24    +0.201 C 
DOCKED: BRANCH   7   8
DOCKED: ATOM      8  O   UNL d   1      -5.739 -17.258  -4.344 -0.04 -0.65    -0.364 OA
DOCKED: BRANCH   8   9
DOCKED: ATOM      9  P   UNL d   1      -4.685 -18.307  -5.069 -0.13 -0.02    -0.015 P 
DOCKED: ATOM     10  O   UNL d   1      -3.612 -17.417  -5.707 -0.65 -1.10    -0.577 OA
DOCKED: ATOM     11  O   UNL d   1      -5.481 -19.084  -6.118 +0.01 -0.52    -0.577 OA
DOCKED: ATOM     12  O   UNL d   1      -4.111 -19.201  -3.971 -0.32 -1.33    -0.638 OA
DOCKED: ENDBRANCH   8   9
DOCKED: ENDBRANCH   7   8
DOCKED: ENDBRANCH   1   7
DOCKED: BRANCH   1  13
DOCKED: ATOM     13  C   UNL d   1      -7.181 -14.831  -6.825 -0.02 +0.10    +0.073 C 
DOCKED: ATOM     14  O   UNL d   1      -7.885 -13.787  -7.061 -0.03 -0.40    -0.547 OA
DOCKED: ATOM     15  O   UNL d   1      -6.735 -15.625  -7.730 -0.41 -1.14    -0.547 OA
DOCKED: ENDBRANCH   1  13
DOCKED: TORSDOF 6
DOCKED: TER
DOCKED: ENDMDL
________________________________________________________________________________


	BEGINNING GENETIC ALGORITHM DOCKING 24 of 100
Run: 24 Seed: 1262086726 1056963622 [ Run 24 of 100 GA/GALS ]
Beginning LAMARCKIAN GENETIC ALGORITHM (LGA), with a maximum of 25000000 energy evaluations.

Final-Value: -8.852


	FINAL GENETIC ALGORITHM DOCKED STATE
	_______________________________________________


Detailed state:  trans -6.504 -15.328 -4.705 quatxyzw 0.584268 0.750130 -0.273944 0.144538 center 0.015 0.083 0.031 ntor 6 -57.2074 -66.0360 -73.6767 14.6743 -7.1001 -149.0820
State:	 -6.504 -15.328  -4.705   0.590  0.758 -0.277 163.379    -57.21  -66.04  -73.68   14.67   -7.10 -149.08

DOCKED: MODEL       24
DOCKED: USER    Run = 24
DOCKED: USER    DPF = D:/Protein_go_brrr/autodock/final/mut_N102T/2_3_BPG/dock.dpf
DOCKED: USER  
DOCKED: USER    Estimated Free Energy of Binding    =   -9.18 kcal/mol  [=(1)+(2)+(3)-(4)]
DOCKED: USER    Estimated Inhibition Constant, Ki   =  186.26 nM (nanomolar)  [Temperature = 298.15 K]
DOCKED: USER    
DOCKED: USER    (1) Final Intermolecular Energy     =  -10.97 kcal/mol
DOCKED: USER        vdW + Hbond + desolv Energy     =   -4.18 kcal/mol
DOCKED: USER        Electrostatic Energy            =   -6.80 kcal/mol
DOCKED: USER    (2) Final Total Internal Energy     =   +2.12 kcal/mol
DOCKED: USER    (3) Torsional Free Energy           =   +1.79 kcal/mol
DOCKED: USER    (4) Unbound System's Energy  [=(2)] =   +2.12 kcal/mol
DOCKED: USER    
DOCKED: USER    
DOCKED: USER    NEWDPF move 2_3_BPG_opt.pdbqt
DOCKED: USER    NEWDPF about 0.015000 0.083000 0.031000
DOCKED: USER    NEWDPF tran0 -6.503560 -15.328207 -4.705002
DOCKED: USER    NEWDPF quaternion0 0.584268 0.750130 -0.273944 0.144538
DOCKED: USER    NEWDPF axisangle0 0.590468 0.758090 -0.276851 163.378936
DOCKED: USER    NEWDPF quat0 0.590468 0.758090 -0.276851 163.378936
DOCKED: USER    NEWDPF dihe0 -57.21 -66.04 -73.68 14.67 -7.10 -149.08 
DOCKED: USER  keepresnum = 1 
DOCKED: USER  
DOCKED: REMARK  6 active torsions:
DOCKED: REMARK  status: ('A' for Active; 'I' for Inactive)
DOCKED: REMARK    1  A    between atoms: P_1  and  O_3 
DOCKED: REMARK    2  A    between atoms: P_2  and  O_4 
DOCKED: REMARK    3  A    between atoms: O_3  and  C_13 
DOCKED: REMARK    4  A    between atoms: O_4  and  C_14 
DOCKED: REMARK    5  A    between atoms: C_13  and  C_14 
DOCKED: REMARK    6  A    between atoms: C_13  and  C_15 
DOCKED: USER                              x       y       z     vdW  Elec       q    Type
DOCKED: USER                           _______ _______ _______ _____ _____    ______ ____
DOCKED: ROOT
DOCKED: ATOM      1  C   UNL d   1      -6.641 -15.963  -4.539 -0.10 +0.25    +0.193 C 
DOCKED: ENDROOT
DOCKED: BRANCH   1   2
DOCKED: ATOM      2  O   UNL d   1      -5.370 -16.677  -4.373 -0.05 -0.67    -0.356 OA
DOCKED: BRANCH   2   3
DOCKED: ATOM      3  P   UNL d   1      -4.925 -17.956  -5.307 -0.21 -0.02    -0.014 P 
DOCKED: ATOM      4  O   UNL d   1      -3.777 -17.416  -6.174 -0.62 -1.23    -0.577 OA
DOCKED: ATOM      5  O   UNL d   1      -6.136 -18.340  -6.155 -0.00 -0.58    -0.577 OA
DOCKED: ATOM      6  O   UNL d   1      -4.451 -19.072  -4.382 -0.34 -1.09    -0.638 OA
DOCKED: ENDBRANCH   2   3
DOCKED: ENDBRANCH   1   2
DOCKED: BRANCH   1   7
DOCKED: ATOM      7  C   UNL d   1      -6.344 -14.421  -4.640 -0.15 +0.25    +0.201 C 
DOCKED: BRANCH   7   8
DOCKED: ATOM      8  O   UNL d   1      -4.954 -14.055  -4.789 -0.36 -0.66    -0.364 OA
DOCKED: BRANCH   8   9
DOCKED: ATOM      9  P   UNL d   1      -4.532 -12.471  -5.006 -0.56 -0.02    -0.015 P 
DOCKED: ATOM     10  O   UNL d   1      -3.871 -12.050  -3.688 -0.07 -0.37    -0.577 OA
DOCKED: ATOM     11  O   UNL d   1      -5.824 -11.697  -5.268 -0.67 -0.51    -0.577 OA
DOCKED: ATOM     12  O   UNL d   1      -3.556 -12.420  -6.180 -0.48 -0.99    -0.638 OA
DOCKED: ENDBRANCH   8   9
DOCKED: ENDBRANCH   7   8
DOCKED: ENDBRANCH   1   7
DOCKED: BRANCH   1  13
DOCKED: ATOM     13  C   UNL d   1      -7.569 -16.217  -3.293 -0.08 +0.07    +0.073 C 
DOCKED: ATOM     14  O   UNL d   1      -7.162 -17.020  -2.381 -0.52 -0.93    -0.547 OA
DOCKED: ATOM     15  O   UNL d   1      -8.663 -15.548  -3.235 +0.02 -0.29    -0.547 OA
DOCKED: ENDBRANCH   1  13
DOCKED: TORSDOF 6
DOCKED: TER
DOCKED: ENDMDL
________________________________________________________________________________


	BEGINNING GENETIC ALGORITHM DOCKING 25 of 100
Run: 25 Seed: 1067198378 1865452211 [ Run 25 of 100 GA/GALS ]
Beginning LAMARCKIAN GENETIC ALGORITHM (LGA), with a maximum of 25000000 energy evaluations.

Final-Value: -8.664


	FINAL GENETIC ALGORITHM DOCKED STATE
	_______________________________________________


Detailed state:  trans -6.838 -15.432 -4.454 quatxyzw 0.458089 0.701366 -0.507449 0.201831 center 0.015 0.083 0.031 ntor 6 58.2702 -38.3506 -178.0337 24.5413 -48.2081 145.5582
State:	 -6.838 -15.432  -4.454   0.468  0.716 -0.518 156.712     58.27  -38.35 -178.03   24.54  -48.21  145.56

DOCKED: MODEL       25
DOCKED: USER    Run = 25
DOCKED: USER    DPF = D:/Protein_go_brrr/autodock/final/mut_N102T/2_3_BPG/dock.dpf
DOCKED: USER  
DOCKED: USER    Estimated Free Energy of Binding    =   -9.25 kcal/mol  [=(1)+(2)+(3)-(4)]
DOCKED: USER    Estimated Inhibition Constant, Ki   =  167.16 nM (nanomolar)  [Temperature = 298.15 K]
DOCKED: USER    
DOCKED: USER    (1) Final Intermolecular Energy     =  -11.04 kcal/mol
DOCKED: USER        vdW + Hbond + desolv Energy     =   -3.80 kcal/mol
DOCKED: USER        Electrostatic Energy            =   -7.23 kcal/mol
DOCKED: USER    (2) Final Total Internal Energy     =   +2.37 kcal/mol
DOCKED: USER    (3) Torsional Free Energy           =   +1.79 kcal/mol
DOCKED: USER    (4) Unbound System's Energy  [=(2)] =   +2.37 kcal/mol
DOCKED: USER    
DOCKED: USER    
DOCKED: USER    NEWDPF move 2_3_BPG_opt.pdbqt
DOCKED: USER    NEWDPF about 0.015000 0.083000 0.031000
DOCKED: USER    NEWDPF tran0 -6.838047 -15.431725 -4.454125
DOCKED: USER    NEWDPF quaternion0 0.458089 0.701366 -0.507449 0.201831
DOCKED: USER    NEWDPF axisangle0 0.467714 0.716103 -0.518112 156.711940
DOCKED: USER    NEWDPF quat0 0.467714 0.716103 -0.518112 156.711940
DOCKED: USER    NEWDPF dihe0 58.27 -38.35 -178.03 24.54 -48.21 145.56 
DOCKED: USER  keepresnum = 1 
DOCKED: USER  
DOCKED: REMARK  6 active torsions:
DOCKED: REMARK  status: ('A' for Active; 'I' for Inactive)
DOCKED: REMARK    1  A    between atoms: P_1  and  O_3 
DOCKED: REMARK    2  A    between atoms: P_2  and  O_4 
DOCKED: REMARK    3  A    between atoms: O_3  and  C_13 
DOCKED: REMARK    4  A    between atoms: O_4  and  C_14 
DOCKED: REMARK    5  A    between atoms: C_13  and  C_14 
DOCKED: REMARK    6  A    between atoms: C_13  and  C_15 
DOCKED: USER                              x       y       z     vdW  Elec       q    Type
DOCKED: USER                           _______ _______ _______ _____ _____    ______ ____
DOCKED: ROOT
DOCKED: ATOM      1  C   UNL d   1      -6.752 -15.998  -4.105 -0.09 +0.24    +0.193 C 
DOCKED: ENDROOT
DOCKED: BRANCH   1   2
DOCKED: ATOM      2  O   UNL d   1      -5.398 -16.497  -4.371 -0.06 -0.66    -0.356 OA
DOCKED: BRANCH   2   3
DOCKED: ATOM      3  P   UNL d   1      -5.089 -17.823  -5.292 -0.20 -0.02    -0.014 P 
DOCKED: ATOM      4  O   UNL d   1      -3.885 -17.418  -6.157 -0.61 -1.24    -0.577 OA
DOCKED: ATOM      5  O   UNL d   1      -6.330 -18.083  -6.142 -0.00 -0.60    -0.577 OA
DOCKED: ATOM      6  O   UNL d   1      -4.742 -18.976  -4.355 -0.27 -1.12    -0.638 OA
DOCKED: ENDBRANCH   2   3
DOCKED: ENDBRANCH   1   2
DOCKED: BRANCH   1   7
DOCKED: ATOM      7  C   UNL d   1      -6.872 -14.536  -4.674 -0.11 +0.21    +0.201 C 
DOCKED: BRANCH   7   8
DOCKED: ATOM      8  O   UNL d   1      -5.885 -13.593  -4.201 -0.17 -0.39    -0.364 OA
DOCKED: BRANCH   8   9
DOCKED: ATOM      9  P   UNL d   1      -5.129 -12.578  -5.268 -0.43 -0.02    -0.015 P 
DOCKED: ATOM     10  O   UNL d   1      -5.799 -12.851  -6.620 -0.14 -0.88    -0.577 OA
DOCKED: ATOM     11  O   UNL d   1      -3.650 -12.962  -5.276 -0.61 -0.91    -0.577 OA
DOCKED: ATOM     12  O   UNL d   1      -5.374 -11.150  -4.783 -0.51 -0.52    -0.638 OA
DOCKED: ENDBRANCH   8   9
DOCKED: ENDBRANCH   7   8
DOCKED: ENDBRANCH   1   7
DOCKED: BRANCH   1  13
DOCKED: ATOM     13  C   UNL d   1      -7.018 -15.959  -2.554 -0.01 +0.09    +0.073 C 
DOCKED: ATOM     14  O   UNL d   1      -7.142 -14.818  -1.984 -0.04 -0.42    -0.547 OA
DOCKED: ATOM     15  O   UNL d   1      -7.160 -17.087  -1.959 -0.54 -0.98    -0.547 OA
DOCKED: ENDBRANCH   1  13
DOCKED: TORSDOF 6
DOCKED: TER
DOCKED: ENDMDL
________________________________________________________________________________


	BEGINNING GENETIC ALGORITHM DOCKING 26 of 100
Run: 26 Seed: 1189467724 319883064 [ Run 26 of 100 GA/GALS ]
Beginning LAMARCKIAN GENETIC ALGORITHM (LGA), with a maximum of 25000000 energy evaluations.

Final-Value: -8.805


	FINAL GENETIC ALGORITHM DOCKED STATE
	_______________________________________________


Detailed state:  trans -6.459 -15.376 -4.742 quatxyzw -0.574030 -0.742185 0.315241 -0.142389 center 0.015 0.083 0.031 ntor 6 -34.2711 179.3797 -69.6098 21.7148 -2.2493 -156.6881
State:	 -6.459 -15.376  -4.742  -0.580 -0.750  0.318 -163.628    -34.27  179.38  -69.61   21.71   -2.25 -156.69

DOCKED: MODEL       26
DOCKED: USER    Run = 26
DOCKED: USER    DPF = D:/Protein_go_brrr/autodock/final/mut_N102T/2_3_BPG/dock.dpf
DOCKED: USER  
DOCKED: USER    Estimated Free Energy of Binding    =   -9.12 kcal/mol  [=(1)+(2)+(3)-(4)]
DOCKED: USER    Estimated Inhibition Constant, Ki   =  206.15 nM (nanomolar)  [Temperature = 298.15 K]
DOCKED: USER    
DOCKED: USER    (1) Final Intermolecular Energy     =  -10.91 kcal/mol
DOCKED: USER        vdW + Hbond + desolv Energy     =   -3.97 kcal/mol
DOCKED: USER        Electrostatic Energy            =   -6.94 kcal/mol
DOCKED: USER    (2) Final Total Internal Energy     =   +2.11 kcal/mol
DOCKED: USER    (3) Torsional Free Energy           =   +1.79 kcal/mol
DOCKED: USER    (4) Unbound System's Energy  [=(2)] =   +2.11 kcal/mol
DOCKED: USER    
DOCKED: USER    
DOCKED: USER    NEWDPF move 2_3_BPG_opt.pdbqt
DOCKED: USER    NEWDPF about 0.015000 0.083000 0.031000
DOCKED: USER    NEWDPF tran0 -6.459083 -15.376098 -4.742474
DOCKED: USER    NEWDPF quaternion0 -0.574030 -0.742185 0.315241 -0.142389
DOCKED: USER    NEWDPF axisangle0 -0.579939 -0.749825 0.318486 -163.627787
DOCKED: USER    NEWDPF quat0 -0.579939 -0.749825 0.318486 -163.627787
DOCKED: USER    NEWDPF dihe0 -34.27 179.38 -69.61 21.71 -2.25 -156.69 
DOCKED: USER  keepresnum = 1 
DOCKED: USER  
DOCKED: REMARK  6 active torsions:
DOCKED: REMARK  status: ('A' for Active; 'I' for Inactive)
DOCKED: REMARK    1  A    between atoms: P_1  and  O_3 
DOCKED: REMARK    2  A    between atoms: P_2  and  O_4 
DOCKED: REMARK    3  A    between atoms: O_3  and  C_13 
DOCKED: REMARK    4  A    between atoms: O_4  and  C_14 
DOCKED: REMARK    5  A    between atoms: C_13  and  C_14 
DOCKED: REMARK    6  A    between atoms: C_13  and  C_15 
DOCKED: USER                              x       y       z     vdW  Elec       q    Type
DOCKED: USER                           _______ _______ _______ _____ _____    ______ ____
DOCKED: ROOT
DOCKED: ATOM      1  C   UNL d   1      -6.574 -16.001  -4.528 -0.11 +0.25    +0.193 C 
DOCKED: ENDROOT
DOCKED: BRANCH   1   2
DOCKED: ATOM      2  O   UNL d   1      -5.282 -16.680  -4.385 -0.02 -0.68    -0.356 OA
DOCKED: BRANCH   2   3
DOCKED: ATOM      3  P   UNL d   1      -4.791 -17.904  -5.368 -0.21 -0.02    -0.014 P 
DOCKED: ATOM      4  O   UNL d   1      -6.000 -18.173  -6.277 -0.02 -0.64    -0.577 OA
DOCKED: ATOM      5  O   UNL d   1      -4.482 -19.105  -4.476 -0.33 -0.94    -0.577 OA
DOCKED: ATOM      6  O   UNL d   1      -3.588 -17.414  -6.166 -0.61 -1.32    -0.638 OA
DOCKED: ENDBRANCH   2   3
DOCKED: ENDBRANCH   1   2
DOCKED: BRANCH   1   7
DOCKED: ATOM      7  C   UNL d   1      -6.315 -14.464  -4.745 -0.14 +0.26    +0.201 C 
DOCKED: BRANCH   7   8
DOCKED: ATOM      8  O   UNL d   1      -4.930 -14.063  -4.822 -0.36 -0.67    -0.364 OA
DOCKED: BRANCH   8   9
DOCKED: ATOM      9  P   UNL d   1      -4.537 -12.469  -5.029 -0.55 -0.02    -0.015 P 
DOCKED: ATOM     10  O   UNL d   1      -3.865 -12.050  -3.716 -0.07 -0.37    -0.577 OA
DOCKED: ATOM     11  O   UNL d   1      -5.846 -11.715  -5.266 -0.67 -0.51    -0.577 OA
DOCKED: ATOM     12  O   UNL d   1      -3.578 -12.391  -6.215 -0.46 -0.99    -0.638 OA
DOCKED: ENDBRANCH   8   9
DOCKED: ENDBRANCH   7   8
DOCKED: ENDBRANCH   1   7
DOCKED: BRANCH   1  13
DOCKED: ATOM     13  C   UNL d   1      -7.430 -16.188  -3.220 -0.08 +0.08    +0.073 C 
DOCKED: ATOM     14  O   UNL d   1      -6.829 -16.517  -2.138 -0.35 -1.06    -0.547 OA
DOCKED: ATOM     15  O   UNL d   1      -8.686 -15.934  -3.305 +0.02 -0.30    -0.547 OA
DOCKED: ENDBRANCH   1  13
DOCKED: TORSDOF 6
DOCKED: TER
DOCKED: ENDMDL
________________________________________________________________________________


	BEGINNING GENETIC ALGORITHM DOCKING 27 of 100
Run: 27 Seed: 116258458 11681107 [ Run 27 of 100 GA/GALS ]
Beginning LAMARCKIAN GENETIC ALGORITHM (LGA), with a maximum of 25000000 energy evaluations.

Final-Value: -8.403


	FINAL GENETIC ALGORITHM DOCKED STATE
	_______________________________________________


Detailed state:  trans -1.478 -14.879 -5.318 quatxyzw 0.518900 0.038114 0.745656 -0.416278 center 0.015 0.083 0.031 ntor 6 -140.1253 -73.3353 -83.9993 63.1981 30.4054 -171.8531
State:	 -1.478 -14.879  -5.318   0.571  0.042  0.820 -130.800   -140.13  -73.34  -84.00   63.20   30.41 -171.85

DOCKED: MODEL       27
DOCKED: USER    Run = 27
DOCKED: USER    DPF = D:/Protein_go_brrr/autodock/final/mut_N102T/2_3_BPG/dock.dpf
DOCKED: USER  
DOCKED: USER    Estimated Free Energy of Binding    =   -9.07 kcal/mol  [=(1)+(2)+(3)-(4)]
DOCKED: USER    Estimated Inhibition Constant, Ki   =  224.19 nM (nanomolar)  [Temperature = 298.15 K]
DOCKED: USER    
DOCKED: USER    (1) Final Intermolecular Energy     =  -10.86 kcal/mol
DOCKED: USER        vdW + Hbond + desolv Energy     =   -5.02 kcal/mol
DOCKED: USER        Electrostatic Energy            =   -5.84 kcal/mol
DOCKED: USER    (2) Final Total Internal Energy     =   +2.46 kcal/mol
DOCKED: USER    (3) Torsional Free Energy           =   +1.79 kcal/mol
DOCKED: USER    (4) Unbound System's Energy  [=(2)] =   +2.46 kcal/mol
DOCKED: USER    
DOCKED: USER    
DOCKED: USER    NEWDPF move 2_3_BPG_opt.pdbqt
DOCKED: USER    NEWDPF about 0.015000 0.083000 0.031000
DOCKED: USER    NEWDPF tran0 -1.478037 -14.878761 -5.318219
DOCKED: USER    NEWDPF quaternion0 0.518900 0.038114 0.745656 -0.416278
DOCKED: USER    NEWDPF axisangle0 0.570698 0.041919 0.820090 -130.800313
DOCKED: USER    NEWDPF quat0 0.570698 0.041919 0.820090 -130.800313
DOCKED: USER    NEWDPF dihe0 -140.13 -73.34 -84.00 63.20 30.41 -171.85 
DOCKED: USER  keepresnum = 1 
DOCKED: USER  
DOCKED: REMARK  6 active torsions:
DOCKED: REMARK  status: ('A' for Active; 'I' for Inactive)
DOCKED: REMARK    1  A    between atoms: P_1  and  O_3 
DOCKED: REMARK    2  A    between atoms: P_2  and  O_4 
DOCKED: REMARK    3  A    between atoms: O_3  and  C_13 
DOCKED: REMARK    4  A    between atoms: O_4  and  C_14 
DOCKED: REMARK    5  A    between atoms: C_13  and  C_14 
DOCKED: REMARK    6  A    between atoms: C_13  and  C_15 
DOCKED: USER                              x       y       z     vdW  Elec       q    Type
DOCKED: USER                           _______ _______ _______ _____ _____    ______ ____
DOCKED: ROOT
DOCKED: ATOM      1  C   UNL d   1      -1.154 -15.098  -5.863 -0.48 +0.22    +0.193 C 
DOCKED: ENDROOT
DOCKED: BRANCH   1   2
DOCKED: ATOM      2  O   UNL d   1      -2.016 -16.069  -6.547 -0.02 -0.65    -0.356 OA
DOCKED: BRANCH   2   3
DOCKED: ATOM      3  P   UNL d   1      -2.367 -17.554  -5.933 -0.36 -0.02    -0.014 P 
DOCKED: ATOM      4  O   UNL d   1      -3.792 -17.411  -5.376 -0.54 -1.08    -0.577 OA
DOCKED: ATOM      5  O   UNL d   1      -1.356 -17.835  -4.824 +0.00 -0.52    -0.577 OA
DOCKED: ATOM      6  O   UNL d   1      -2.311 -18.561  -7.077 -0.04 -0.52    -0.638 OA
DOCKED: ENDBRANCH   2   3
DOCKED: ENDBRANCH   1   2
DOCKED: BRANCH   1   7
DOCKED: ATOM      7  C   UNL d   1      -2.000 -14.362  -4.759 -0.38 +0.24    +0.201 C 
DOCKED: BRANCH   7   8
DOCKED: ATOM      8  O   UNL d   1      -3.430 -14.559  -4.825 -0.26 -0.71    -0.364 OA
DOCKED: BRANCH   8   9
DOCKED: ATOM      9  P   UNL d   1      -4.457 -13.343  -4.375 -0.53 -0.02    -0.015 P 
DOCKED: ATOM     10  O   UNL d   1      -4.876 -12.669  -5.687 -0.59 -0.93    -0.577 OA
DOCKED: ATOM     11  O   UNL d   1      -3.661 -12.397  -3.476 -0.12 -0.38    -0.577 OA
DOCKED: ATOM     12  O   UNL d   1      -5.640 -13.993  -3.660 -0.01 -0.70    -0.638 OA
DOCKED: ENDBRANCH   8   9
DOCKED: ENDBRANCH   7   8
DOCKED: ENDBRANCH   1   7
DOCKED: BRANCH   1  13
DOCKED: ATOM     13  C   UNL d   1      -0.626 -14.028  -6.890 -0.56 +0.07    +0.073 C 
DOCKED: ATOM     14  O   UNL d   1       0.439 -14.289  -7.552 -0.79 -0.30    -0.547 OA
DOCKED: ATOM     15  O   UNL d   1      -1.339 -12.972  -7.049 -0.33 -0.54    -0.547 OA
DOCKED: ENDBRANCH   1  13
DOCKED: TORSDOF 6
DOCKED: TER
DOCKED: ENDMDL
________________________________________________________________________________


	BEGINNING GENETIC ALGORITHM DOCKING 28 of 100
Run: 28 Seed: 815005792 53848370 [ Run 28 of 100 GA/GALS ]
Beginning LAMARCKIAN GENETIC ALGORITHM (LGA), with a maximum of 25000000 energy evaluations.

Final-Value: -8.804


	FINAL GENETIC ALGORITHM DOCKED STATE
	_______________________________________________


Detailed state:  trans -2.068 -15.954 -5.223 quatxyzw -0.057999 0.122005 -0.610375 0.780508 center 0.015 0.083 0.031 ntor 6 77.5797 32.4696 162.7981 37.6724 26.0289 -65.7321
State:	 -2.068 -15.954  -5.223  -0.093  0.195 -0.976 77.386     77.58   32.47  162.80   37.67   26.03  -65.73

DOCKED: MODEL       28
DOCKED: USER    Run = 28
DOCKED: USER    DPF = D:/Protein_go_brrr/autodock/final/mut_N102T/2_3_BPG/dock.dpf
DOCKED: USER  
DOCKED: USER    Estimated Free Energy of Binding    =   -9.30 kcal/mol  [=(1)+(2)+(3)-(4)]
DOCKED: USER    Estimated Inhibition Constant, Ki   =  151.42 nM (nanomolar)  [Temperature = 298.15 K]
DOCKED: USER    
DOCKED: USER    (1) Final Intermolecular Energy     =  -11.09 kcal/mol
DOCKED: USER        vdW + Hbond + desolv Energy     =   -4.78 kcal/mol
DOCKED: USER        Electrostatic Energy            =   -6.31 kcal/mol
DOCKED: USER    (2) Final Total Internal Energy     =   +2.29 kcal/mol
DOCKED: USER    (3) Torsional Free Energy           =   +1.79 kcal/mol
DOCKED: USER    (4) Unbound System's Energy  [=(2)] =   +2.29 kcal/mol
DOCKED: USER    
DOCKED: USER    
DOCKED: USER    NEWDPF move 2_3_BPG_opt.pdbqt
DOCKED: USER    NEWDPF about 0.015000 0.083000 0.031000
DOCKED: USER    NEWDPF tran0 -2.068061 -15.954186 -5.222962
DOCKED: USER    NEWDPF quaternion0 -0.057999 0.122005 -0.610375 0.780508
DOCKED: USER    NEWDPF axisangle0 -0.092776 0.195162 -0.976373 77.385724
DOCKED: USER    NEWDPF quat0 -0.092776 0.195162 -0.976373 77.385724
DOCKED: USER    NEWDPF dihe0 77.58 32.47 162.80 37.67 26.03 -65.73 
DOCKED: USER  keepresnum = 1 
DOCKED: USER  
DOCKED: REMARK  6 active torsions:
DOCKED: REMARK  status: ('A' for Active; 'I' for Inactive)
DOCKED: REMARK    1  A    between atoms: P_1  and  O_3 
DOCKED: REMARK    2  A    between atoms: P_2  and  O_4 
DOCKED: REMARK    3  A    between atoms: O_3  and  C_13 
DOCKED: REMARK    4  A    between atoms: O_4  and  C_14 
DOCKED: REMARK    5  A    between atoms: C_13  and  C_14 
DOCKED: REMARK    6  A    between atoms: C_13  and  C_15 
DOCKED: USER                              x       y       z     vdW  Elec       q    Type
DOCKED: USER                           _______ _______ _______ _____ _____    ______ ____
DOCKED: ROOT
DOCKED: ATOM      1  C   UNL d   1      -1.909 -16.604  -5.268 -0.22 +0.25    +0.193 C 
DOCKED: ENDROOT
DOCKED: BRANCH   1   2
DOCKED: ATOM      2  O   UNL d   1      -2.840 -17.238  -6.209 -0.60 -0.65    -0.356 OA
DOCKED: BRANCH   2   3
DOCKED: ATOM      3  P   UNL d   1      -4.216 -18.006  -5.738 -0.21 -0.02    -0.014 P 
DOCKED: ATOM      4  O   UNL d   1      -4.452 -19.068  -6.823 -0.04 -0.52    -0.577 OA
DOCKED: ATOM      5  O   UNL d   1      -5.332 -16.965  -5.718 -0.23 -1.17    -0.577 OA
DOCKED: ATOM      6  O   UNL d   1      -3.956 -18.645  -4.377 -0.17 -1.16    -0.638 OA
DOCKED: ENDBRANCH   2   3
DOCKED: ENDBRANCH   1   2
DOCKED: BRANCH   1   7
DOCKED: ATOM      7  C   UNL d   1      -2.075 -15.043  -5.369 -0.25 +0.31    +0.201 C 
DOCKED: BRANCH   7   8
DOCKED: ATOM      8  O   UNL d   1      -2.990 -14.443  -4.425 -0.26 -0.54    -0.364 OA
DOCKED: BRANCH   8   9
DOCKED: ATOM      9  P   UNL d   1      -3.799 -13.056  -4.821 -0.52 -0.02    -0.015 P 
DOCKED: ATOM     10  O   UNL d   1      -3.065 -12.503  -6.048 -0.49 -0.79    -0.577 OA
DOCKED: ATOM     11  O   UNL d   1      -3.688 -12.117  -3.619 -0.07 -0.35    -0.577 OA
DOCKED: ATOM     12  O   UNL d   1      -5.240 -13.449  -5.142 -0.33 -1.09    -0.638 OA
DOCKED: ENDBRANCH   8   9
DOCKED: ENDBRANCH   7   8
DOCKED: ENDBRANCH   1   7
DOCKED: BRANCH   1  13
DOCKED: ATOM     13  C   UNL d   1      -0.427 -16.979  -5.641 -0.50 +0.05    +0.073 C 
DOCKED: ATOM     14  O   UNL d   1       0.441 -16.040  -5.718 -0.81 -0.38    -0.547 OA
DOCKED: ATOM     15  O   UNL d   1      -0.161 -18.227  -5.786 -0.09 -0.24    -0.547 OA
DOCKED: ENDBRANCH   1  13
DOCKED: TORSDOF 6
DOCKED: TER
DOCKED: ENDMDL
________________________________________________________________________________


	BEGINNING GENETIC ALGORITHM DOCKING 29 of 100
Run: 29 Seed: 1175058773 1848829920 [ Run 29 of 100 GA/GALS ]
Beginning LAMARCKIAN GENETIC ALGORITHM (LGA), with a maximum of 25000000 energy evaluations.

Final-Value: -8.835


	FINAL GENETIC ALGORITHM DOCKED STATE
	_______________________________________________


Detailed state:  trans -6.659 -15.589 -4.616 quatxyzw -0.537773 -0.799327 0.232634 -0.133257 center 0.015 0.083 0.031 ntor 6 -22.8599 177.3545 -10.1076 10.8843 30.3004 -112.1073
State:	 -6.659 -15.589  -4.616  -0.543 -0.807  0.235 -164.684    -22.86  177.35  -10.11   10.88   30.30 -112.11

DOCKED: MODEL       29
DOCKED: USER    Run = 29
DOCKED: USER    DPF = D:/Protein_go_brrr/autodock/final/mut_N102T/2_3_BPG/dock.dpf
DOCKED: USER  
DOCKED: USER    Estimated Free Energy of Binding    =   -9.21 kcal/mol  [=(1)+(2)+(3)-(4)]
DOCKED: USER    Estimated Inhibition Constant, Ki   =  176.25 nM (nanomolar)  [Temperature = 298.15 K]
DOCKED: USER    
DOCKED: USER    (1) Final Intermolecular Energy     =  -11.00 kcal/mol
DOCKED: USER        vdW + Hbond + desolv Energy     =   -4.07 kcal/mol
DOCKED: USER        Electrostatic Energy            =   -6.94 kcal/mol
DOCKED: USER    (2) Final Total Internal Energy     =   +2.17 kcal/mol
DOCKED: USER    (3) Torsional Free Energy           =   +1.79 kcal/mol
DOCKED: USER    (4) Unbound System's Energy  [=(2)] =   +2.17 kcal/mol
DOCKED: USER    
DOCKED: USER    
DOCKED: USER    NEWDPF move 2_3_BPG_opt.pdbqt
DOCKED: USER    NEWDPF about 0.015000 0.083000 0.031000
DOCKED: USER    NEWDPF tran0 -6.658511 -15.588960 -4.616114
DOCKED: USER    NEWDPF quaternion0 -0.537773 -0.799327 0.232634 -0.133257
DOCKED: USER    NEWDPF axisangle0 -0.542612 -0.806520 0.234728 -164.684355
DOCKED: USER    NEWDPF quat0 -0.542612 -0.806520 0.234728 -164.684355
DOCKED: USER    NEWDPF dihe0 -22.86 177.35 -10.11 10.88 30.30 -112.11 
DOCKED: USER  keepresnum = 1 
DOCKED: USER  
DOCKED: REMARK  6 active torsions:
DOCKED: REMARK  status: ('A' for Active; 'I' for Inactive)
DOCKED: REMARK    1  A    between atoms: P_1  and  O_3 
DOCKED: REMARK    2  A    between atoms: P_2  and  O_4 
DOCKED: REMARK    3  A    between atoms: O_3  and  C_13 
DOCKED: REMARK    4  A    between atoms: O_4  and  C_14 
DOCKED: REMARK    5  A    between atoms: C_13  and  C_14 
DOCKED: REMARK    6  A    between atoms: C_13  and  C_15 
DOCKED: USER                              x       y       z     vdW  Elec       q    Type
DOCKED: USER                           _______ _______ _______ _____ _____    ______ ____
DOCKED: ROOT
DOCKED: ATOM      1  C   UNL d   1      -6.724 -16.248  -4.513 -0.09 +0.24    +0.193 C 
DOCKED: ENDROOT
DOCKED: BRANCH   1   2
DOCKED: ATOM      2  O   UNL d   1      -5.384 -16.819  -4.335 +0.00 -0.68    -0.356 OA
DOCKED: BRANCH   2   3
DOCKED: ATOM      3  P   UNL d   1      -4.775 -18.009  -5.293 -0.21 -0.02    -0.014 P 
DOCKED: ATOM      4  O   UNL d   1      -5.953 -18.420  -6.189 -0.01 -0.59    -0.577 OA
DOCKED: ATOM      5  O   UNL d   1      -4.342 -19.150  -4.376 -0.39 -0.96    -0.577 OA
DOCKED: ATOM      6  O   UNL d   1      -3.631 -17.417  -6.109 -0.61 -1.32    -0.638 OA
DOCKED: ENDBRANCH   2   3
DOCKED: ENDBRANCH   1   2
DOCKED: BRANCH   1   7
DOCKED: ATOM      7  C   UNL d   1      -6.615 -14.679  -4.464 -0.13 +0.22    +0.201 C 
DOCKED: BRANCH   7   8
DOCKED: ATOM      8  O   UNL d   1      -5.568 -14.095  -5.269 -0.17 -0.71    -0.364 OA
DOCKED: BRANCH   8   9
DOCKED: ATOM      9  P   UNL d   1      -4.798 -12.722  -4.759 -0.52 -0.02    -0.015 P 
DOCKED: ATOM     10  O   UNL d   1      -3.640 -12.524  -5.745 -0.65 -0.86    -0.577 OA
DOCKED: ATOM     11  O   UNL d   1      -4.299 -12.992  -3.339 -0.11 -0.50    -0.577 OA
DOCKED: ATOM     12  O   UNL d   1      -5.813 -11.582  -4.829 -0.59 -0.58    -0.638 OA
DOCKED: ENDBRANCH   8   9
DOCKED: ENDBRANCH   7   8
DOCKED: ENDBRANCH   1   7
DOCKED: BRANCH   1  13
DOCKED: ATOM     13  C   UNL d   1      -7.673 -16.724  -3.351 -0.07 +0.07    +0.073 C 
DOCKED: ATOM     14  O   UNL d   1      -7.160 -16.957  -2.200 -0.55 -0.95    -0.547 OA
DOCKED: ATOM     15  O   UNL d   1      -8.928 -16.791  -3.613 +0.02 -0.29    -0.547 OA
DOCKED: ENDBRANCH   1  13
DOCKED: TORSDOF 6
DOCKED: TER
DOCKED: ENDMDL
________________________________________________________________________________


	BEGINNING GENETIC ALGORITHM DOCKING 30 of 100
Run: 30 Seed: 1398635354 385499290 [ Run 30 of 100 GA/GALS ]
Beginning LAMARCKIAN GENETIC ALGORITHM (LGA), with a maximum of 25000000 energy evaluations.

Final-Value: -8.736


	FINAL GENETIC ALGORITHM DOCKED STATE
	_______________________________________________


Detailed state:  trans -6.378 -15.440 -4.814 quatxyzw -0.584730 -0.773795 0.222931 -0.098150 center 0.015 0.083 0.031 ntor 6 145.4285 -55.7137 62.2400 16.6006 -7.5979 -146.4797
State:	 -6.378 -15.440  -4.814  -0.588 -0.778  0.224 -168.735    145.43  -55.71   62.24   16.60   -7.60 -146.48

DOCKED: MODEL       30
DOCKED: USER    Run = 30
DOCKED: USER    DPF = D:/Protein_go_brrr/autodock/final/mut_N102T/2_3_BPG/dock.dpf
DOCKED: USER  
DOCKED: USER    Estimated Free Energy of Binding    =   -9.04 kcal/mol  [=(1)+(2)+(3)-(4)]
DOCKED: USER    Estimated Inhibition Constant, Ki   =  235.98 nM (nanomolar)  [Temperature = 298.15 K]
DOCKED: USER    
DOCKED: USER    (1) Final Intermolecular Energy     =  -10.83 kcal/mol
DOCKED: USER        vdW + Hbond + desolv Energy     =   -4.27 kcal/mol
DOCKED: USER        Electrostatic Energy            =   -6.57 kcal/mol
DOCKED: USER    (2) Final Total Internal Energy     =   +2.09 kcal/mol
DOCKED: USER    (3) Torsional Free Energy           =   +1.79 kcal/mol
DOCKED: USER    (4) Unbound System's Energy  [=(2)] =   +2.09 kcal/mol
DOCKED: USER    
DOCKED: USER    
DOCKED: USER    NEWDPF move 2_3_BPG_opt.pdbqt
DOCKED: USER    NEWDPF about 0.015000 0.083000 0.031000
DOCKED: USER    NEWDPF tran0 -6.378006 -15.439597 -4.814441
DOCKED: USER    NEWDPF quaternion0 -0.584730 -0.773795 0.222931 -0.098150
DOCKED: USER    NEWDPF axisangle0 -0.587567 -0.777549 0.224012 -168.734680
DOCKED: USER    NEWDPF quat0 -0.587567 -0.777549 0.224012 -168.734680
DOCKED: USER    NEWDPF dihe0 145.43 -55.71 62.24 16.60 -7.60 -146.48 
DOCKED: USER  keepresnum = 1 
DOCKED: USER  
DOCKED: REMARK  6 active torsions:
DOCKED: REMARK  status: ('A' for Active; 'I' for Inactive)
DOCKED: REMARK    1  A    between atoms: P_1  and  O_3 
DOCKED: REMARK    2  A    between atoms: P_2  and  O_4 
DOCKED: REMARK    3  A    between atoms: O_3  and  C_13 
DOCKED: REMARK    4  A    between atoms: O_4  and  C_14 
DOCKED: REMARK    5  A    between atoms: C_13  and  C_14 
DOCKED: REMARK    6  A    between atoms: C_13  and  C_15 
DOCKED: USER                              x       y       z     vdW  Elec       q    Type
DOCKED: USER                           _______ _______ _______ _____ _____    ______ ____
DOCKED: ROOT
DOCKED: ATOM      1  C   UNL d   1      -6.511 -16.085  -4.689 -0.11 +0.26    +0.193 C 
DOCKED: ENDROOT
DOCKED: BRANCH   1   2
DOCKED: ATOM      2  O   UNL d   1      -5.247 -16.760  -4.375 +0.01 -0.69    -0.356 OA
DOCKED: BRANCH   2   3
DOCKED: ATOM      3  P   UNL d   1      -4.606 -17.955  -5.306 -0.21 -0.02    -0.014 P 
DOCKED: ATOM      4  O   UNL d   1      -3.236 -17.410  -5.739 -0.63 -1.02    -0.577 OA
DOCKED: ATOM      5  O   UNL d   1      -5.538 -18.147  -6.500 -0.08 -0.72    -0.577 OA
DOCKED: ATOM      6  O   UNL d   1      -4.464 -19.202  -4.439 -0.37 -1.02    -0.638 OA
DOCKED: ENDBRANCH   2   3
DOCKED: ENDBRANCH   1   2
DOCKED: BRANCH   1   7
DOCKED: ATOM      7  C   UNL d   1      -6.265 -14.531  -4.699 -0.15 +0.26    +0.201 C 
DOCKED: BRANCH   7   8
DOCKED: ATOM      8  O   UNL d   1      -4.883 -14.111  -4.704 -0.33 -0.65    -0.364 OA
DOCKED: BRANCH   8   9
DOCKED: ATOM      9  P   UNL d   1      -4.503 -12.506  -4.827 -0.59 -0.02    -0.015 P 
DOCKED: ATOM     10  O   UNL d   1      -3.762 -12.373  -6.163 -0.56 -0.90    -0.577 OA
DOCKED: ATOM     11  O   UNL d   1      -3.603 -12.168  -3.639 -0.09 -0.35    -0.577 OA
DOCKED: ATOM     12  O   UNL d   1      -5.819 -11.729  -4.821 -0.59 -0.59    -0.638 OA
DOCKED: ENDBRANCH   8   9
DOCKED: ENDBRANCH   7   8
DOCKED: ENDBRANCH   1   7
DOCKED: BRANCH   1  13
DOCKED: ATOM     13  C   UNL d   1      -7.588 -16.418  -3.591 -0.08 +0.07    +0.073 C 
DOCKED: ATOM     14  O   UNL d   1      -8.825 -16.238  -3.872 +0.02 -0.29    -0.547 OA
DOCKED: ATOM     15  O   UNL d   1      -7.160 -16.916  -2.487 -0.51 -0.89    -0.547 OA
DOCKED: ENDBRANCH   1  13
DOCKED: TORSDOF 6
DOCKED: TER
DOCKED: ENDMDL
________________________________________________________________________________


	BEGINNING GENETIC ALGORITHM DOCKING 31 of 100
Run: 31 Seed: 1071257164 707520188 [ Run 31 of 100 GA/GALS ]
Beginning LAMARCKIAN GENETIC ALGORITHM (LGA), with a maximum of 25000000 energy evaluations.

Final-Value: -8.888


	FINAL GENETIC ALGORITHM DOCKED STATE
	_______________________________________________


Detailed state:  trans -6.337 -14.843 -4.434 quatxyzw -0.485018 -0.738111 0.381139 -0.273283 center 0.015 0.083 0.031 ntor 6 -131.5906 -145.6100 -93.0690 1.9474 28.9988 -99.8086
State:	 -6.337 -14.843  -4.434  -0.504 -0.767  0.396 -148.281   -131.59 -145.61  -93.07    1.95   29.00  -99.81

DOCKED: MODEL       31
DOCKED: USER    Run = 31
DOCKED: USER    DPF = D:/Protein_go_brrr/autodock/final/mut_N102T/2_3_BPG/dock.dpf
DOCKED: USER  
DOCKED: USER    Estimated Free Energy of Binding    =   -9.32 kcal/mol  [=(1)+(2)+(3)-(4)]
DOCKED: USER    Estimated Inhibition Constant, Ki   =  147.07 nM (nanomolar)  [Temperature = 298.15 K]
DOCKED: USER    
DOCKED: USER    (1) Final Intermolecular Energy     =  -11.11 kcal/mol
DOCKED: USER        vdW + Hbond + desolv Energy     =   -3.92 kcal/mol
DOCKED: USER        Electrostatic Energy            =   -7.19 kcal/mol
DOCKED: USER    (2) Final Total Internal Energy     =   +2.22 kcal/mol
DOCKED: USER    (3) Torsional Free Energy           =   +1.79 kcal/mol
DOCKED: USER    (4) Unbound System's Energy  [=(2)] =   +2.22 kcal/mol
DOCKED: USER    
DOCKED: USER    
DOCKED: USER    NEWDPF move 2_3_BPG_opt.pdbqt
DOCKED: USER    NEWDPF about 0.015000 0.083000 0.031000
DOCKED: USER    NEWDPF tran0 -6.336798 -14.842582 -4.434102
DOCKED: USER    NEWDPF quaternion0 -0.485018 -0.738111 0.381139 -0.273283
DOCKED: USER    NEWDPF axisangle0 -0.504211 -0.767320 0.396222 -148.280542
DOCKED: USER    NEWDPF quat0 -0.504211 -0.767320 0.396222 -148.280542
DOCKED: USER    NEWDPF dihe0 -131.59 -145.61 -93.07 1.95 29.00 -99.81 
DOCKED: USER  keepresnum = 1 
DOCKED: USER  
DOCKED: REMARK  6 active torsions:
DOCKED: REMARK  status: ('A' for Active; 'I' for Inactive)
DOCKED: REMARK    1  A    between atoms: P_1  and  O_3 
DOCKED: REMARK    2  A    between atoms: P_2  and  O_4 
DOCKED: REMARK    3  A    between atoms: O_3  and  C_13 
DOCKED: REMARK    4  A    between atoms: O_4  and  C_14 
DOCKED: REMARK    5  A    between atoms: C_13  and  C_14 
DOCKED: REMARK    6  A    between atoms: C_13  and  C_15 
DOCKED: USER                              x       y       z     vdW  Elec       q    Type
DOCKED: USER                           _______ _______ _______ _____ _____    ______ ____
DOCKED: ROOT
DOCKED: ATOM      1  C   UNL d   1      -6.344 -15.486  -4.248 -0.12 +0.25    +0.193 C 
DOCKED: ENDROOT
DOCKED: BRANCH   1   2
DOCKED: ATOM      2  O   UNL d   1      -5.043 -16.075  -4.583 -0.09 -0.71    -0.356 OA
DOCKED: BRANCH   2   3
DOCKED: ATOM      3  P   UNL d   1      -4.877 -17.489  -5.406 -0.13 -0.03    -0.014 P 
DOCKED: ATOM      4  O   UNL d   1      -6.112 -17.550  -6.318 -0.06 -0.78    -0.577 OA
DOCKED: ATOM      5  O   UNL d   1      -4.884 -18.616  -4.375 -0.16 -1.07    -0.577 OA
DOCKED: ATOM      6  O   UNL d   1      -3.587 -17.415  -6.216 -0.60 -1.33    -0.638 OA
DOCKED: ENDBRANCH   2   3
DOCKED: ENDBRANCH   1   2
DOCKED: BRANCH   1   7
DOCKED: ATOM      7  C   UNL d   1      -6.248 -13.924  -4.406 -0.18 +0.22    +0.201 C 
DOCKED: BRANCH   7   8
DOCKED: ATOM      8  O   UNL d   1      -5.898 -13.444  -5.722 -0.29 -0.61    -0.364 OA
DOCKED: BRANCH   8   9
DOCKED: ATOM      9  P   UNL d   1      -5.021 -12.052  -5.892 -0.52 -0.02    -0.015 P 
DOCKED: ATOM     10  O   UNL d   1      -3.554 -12.498  -5.863 -0.62 -0.86    -0.577 OA
DOCKED: ATOM     11  O   UNL d   1      -5.369 -11.158  -4.702 -0.51 -0.47    -0.577 OA
DOCKED: ATOM     12  O   UNL d   1      -5.407 -11.436  -7.236 -0.04 -0.44    -0.638 OA
DOCKED: ENDBRANCH   8   9
DOCKED: ENDBRANCH   7   8
DOCKED: ENDBRANCH   1   7
DOCKED: BRANCH   1  13
DOCKED: ATOM     13  C   UNL d   1      -6.719 -15.820  -2.755 -0.01 +0.10    +0.073 C 
DOCKED: ATOM     14  O   UNL d   1      -7.164 -16.990  -2.484 -0.51 -0.91    -0.547 OA
DOCKED: ATOM     15  O   UNL d   1      -6.493 -14.909  -1.880 -0.08 -0.54    -0.547 OA
DOCKED: ENDBRANCH   1  13
DOCKED: TORSDOF 6
DOCKED: TER
DOCKED: ENDMDL
________________________________________________________________________________


	BEGINNING GENETIC ALGORITHM DOCKING 32 of 100
Run: 32 Seed: 738803375 1362541736 [ Run 32 of 100 GA/GALS ]
Beginning LAMARCKIAN GENETIC ALGORITHM (LGA), with a maximum of 25000000 energy evaluations.

Final-Value: -8.488


	FINAL GENETIC ALGORITHM DOCKED STATE
	_______________________________________________


Detailed state:  trans -6.109 -14.593 -4.320 quatxyzw 0.651730 -0.321939 -0.677829 -0.110238 center 0.015 0.083 0.031 ntor 6 -152.8568 115.0925 -71.0160 60.0183 6.6856 171.1581
State:	 -6.109 -14.593  -4.320   0.656 -0.324 -0.682 -167.342   -152.86  115.09  -71.02   60.02    6.69  171.16

DOCKED: MODEL       32
DOCKED: USER    Run = 32
DOCKED: USER    DPF = D:/Protein_go_brrr/autodock/final/mut_N102T/2_3_BPG/dock.dpf
DOCKED: USER  
DOCKED: USER    Estimated Free Energy of Binding    =   -9.03 kcal/mol  [=(1)+(2)+(3)-(4)]
DOCKED: USER    Estimated Inhibition Constant, Ki   =  241.74 nM (nanomolar)  [Temperature = 298.15 K]
DOCKED: USER    
DOCKED: USER    (1) Final Intermolecular Energy     =  -10.82 kcal/mol
DOCKED: USER        vdW + Hbond + desolv Energy     =   -3.96 kcal/mol
DOCKED: USER        Electrostatic Energy            =   -6.86 kcal/mol
DOCKED: USER    (2) Final Total Internal Energy     =   +2.33 kcal/mol
DOCKED: USER    (3) Torsional Free Energy           =   +1.79 kcal/mol
DOCKED: USER    (4) Unbound System's Energy  [=(2)] =   +2.33 kcal/mol
DOCKED: USER    
DOCKED: USER    
DOCKED: USER    NEWDPF move 2_3_BPG_opt.pdbqt
DOCKED: USER    NEWDPF about 0.015000 0.083000 0.031000
DOCKED: USER    NEWDPF tran0 -6.109050 -14.593094 -4.320258
DOCKED: USER    NEWDPF quaternion0 0.651730 -0.321939 -0.677829 -0.110238
DOCKED: USER    NEWDPF axisangle0 0.655726 -0.323913 -0.681985 -167.341901
DOCKED: USER    NEWDPF quat0 0.655726 -0.323913 -0.681985 -167.341901
DOCKED: USER    NEWDPF dihe0 -152.86 115.09 -71.02 60.02 6.69 171.16 
DOCKED: USER  keepresnum = 1 
DOCKED: USER  
DOCKED: REMARK  6 active torsions:
DOCKED: REMARK  status: ('A' for Active; 'I' for Inactive)
DOCKED: REMARK    1  A    between atoms: P_1  and  O_3 
DOCKED: REMARK    2  A    between atoms: P_2  and  O_4 
DOCKED: REMARK    3  A    between atoms: O_3  and  C_13 
DOCKED: REMARK    4  A    between atoms: O_4  and  C_14 
DOCKED: REMARK    5  A    between atoms: C_13  and  C_14 
DOCKED: REMARK    6  A    between atoms: C_13  and  C_15 
DOCKED: USER                              x       y       z     vdW  Elec       q    Type
DOCKED: USER                           _______ _______ _______ _____ _____    ______ ____
DOCKED: ROOT
DOCKED: ATOM      1  C   UNL d   1      -6.040 -13.993  -4.030 -0.20 +0.21    +0.193 C 
DOCKED: ENDROOT
DOCKED: BRANCH   1   2
DOCKED: ATOM      2  O   UNL d   1      -5.509 -14.197  -2.678 -0.17 -0.37    -0.356 OA
DOCKED: BRANCH   2   3
DOCKED: ATOM      3  P   UNL d   1      -6.399 -14.818  -1.443 -0.32 -0.01    -0.014 P 
DOCKED: ATOM      4  O   UNL d   1      -7.434 -13.726  -1.129 -0.03 -0.24    -0.577 OA
DOCKED: ATOM      5  O   UNL d   1      -5.449 -15.046  -0.269 -0.11 -0.51    -0.577 OA
DOCKED: ATOM      6  O   UNL d   1      -7.068 -16.096  -1.940 -0.46 -0.86    -0.638 OA
DOCKED: ENDBRANCH   2   3
DOCKED: ENDBRANCH   1   2
DOCKED: BRANCH   1   7
DOCKED: ATOM      7  C   UNL d   1      -5.935 -15.347  -4.823 -0.11 +0.33    +0.201 C 
DOCKED: BRANCH   7   8
DOCKED: ATOM      8  O   UNL d   1      -4.854 -16.224  -4.435 +0.06 -0.74    -0.364 OA
DOCKED: BRANCH   8   9
DOCKED: ATOM      9  P   UNL d   1      -4.497 -17.556  -5.348 -0.11 -0.03    -0.015 P 
DOCKED: ATOM     10  O   UNL d   1      -3.135 -17.250  -5.984 -0.57 -1.12    -0.577 OA
DOCKED: ATOM     11  O   UNL d   1      -5.601 -17.686  -6.398 -0.14 -0.87    -0.577 OA
DOCKED: ATOM     12  O   UNL d   1      -4.432 -18.750  -4.398 -0.22 -1.18    -0.638 OA
DOCKED: ENDBRANCH   8   9
DOCKED: ENDBRANCH   7   8
DOCKED: ENDBRANCH   1   7
DOCKED: BRANCH   1  13
DOCKED: ATOM     13  C   UNL d   1      -5.192 -12.901  -4.784 -0.36 +0.09    +0.073 C 
DOCKED: ATOM     14  O   UNL d   1      -5.644 -11.704  -4.836 -0.64 -0.50    -0.547 OA
DOCKED: ATOM     15  O   UNL d   1      -4.054 -13.268  -5.252 -0.56 -1.07    -0.547 OA
DOCKED: ENDBRANCH   1  13
DOCKED: TORSDOF 6
DOCKED: TER
DOCKED: ENDMDL
________________________________________________________________________________


	BEGINNING GENETIC ALGORITHM DOCKING 33 of 100
Run: 33 Seed: 729742415 1782820118 [ Run 33 of 100 GA/GALS ]
Beginning LAMARCKIAN GENETIC ALGORITHM (LGA), with a maximum of 25000000 energy evaluations.

Final-Value: -8.945


	FINAL GENETIC ALGORITHM DOCKED STATE
	_______________________________________________


Detailed state:  trans -1.780 -16.009 -5.213 quatxyzw -0.134797 0.100461 -0.594192 0.786558 center 0.015 0.083 0.031 ntor 6 -54.7024 33.1828 179.9354 37.4000 5.4669 -101.8053
State:	 -1.780 -16.009  -5.213  -0.218  0.163 -0.962 76.270    -54.70   33.18  179.94   37.40    5.47 -101.81

DOCKED: MODEL       33
DOCKED: USER    Run = 33
DOCKED: USER    DPF = D:/Protein_go_brrr/autodock/final/mut_N102T/2_3_BPG/dock.dpf
DOCKED: USER  
DOCKED: USER    Estimated Free Energy of Binding    =   -9.39 kcal/mol  [=(1)+(2)+(3)-(4)]
DOCKED: USER    Estimated Inhibition Constant, Ki   =  131.57 nM (nanomolar)  [Temperature = 298.15 K]
DOCKED: USER    
DOCKED: USER    (1) Final Intermolecular Energy     =  -11.18 kcal/mol
DOCKED: USER        vdW + Hbond + desolv Energy     =   -5.04 kcal/mol
DOCKED: USER        Electrostatic Energy            =   -6.14 kcal/mol
DOCKED: USER    (2) Final Total Internal Energy     =   +2.23 kcal/mol
DOCKED: USER    (3) Torsional Free Energy           =   +1.79 kcal/mol
DOCKED: USER    (4) Unbound System's Energy  [=(2)] =   +2.23 kcal/mol
DOCKED: USER    
DOCKED: USER    
DOCKED: USER    NEWDPF move 2_3_BPG_opt.pdbqt
DOCKED: USER    NEWDPF about 0.015000 0.083000 0.031000
DOCKED: USER    NEWDPF tran0 -1.780169 -16.008651 -5.212925
DOCKED: USER    NEWDPF quaternion0 -0.134797 0.100461 -0.594192 0.786558
DOCKED: USER    NEWDPF axisangle0 -0.218289 0.162685 -0.962228 76.269962
DOCKED: USER    NEWDPF quat0 -0.218289 0.162685 -0.962228 76.269962
DOCKED: USER    NEWDPF dihe0 -54.70 33.18 179.94 37.40 5.47 -101.81 
DOCKED: USER  keepresnum = 1 
DOCKED: USER  
DOCKED: REMARK  6 active torsions:
DOCKED: REMARK  status: ('A' for Active; 'I' for Inactive)
DOCKED: REMARK    1  A    between atoms: P_1  and  O_3 
DOCKED: REMARK    2  A    between atoms: P_2  and  O_4 
DOCKED: REMARK    3  A    between atoms: O_3  and  C_13 
DOCKED: REMARK    4  A    between atoms: O_4  and  C_14 
DOCKED: REMARK    5  A    between atoms: C_13  and  C_14 
DOCKED: REMARK    6  A    between atoms: C_13  and  C_15 
DOCKED: USER                              x       y       z     vdW  Elec       q    Type
DOCKED: USER                           _______ _______ _______ _____ _____    ______ ____
DOCKED: ROOT
DOCKED: ATOM      1  C   UNL d   1      -1.640 -16.652  -5.341 -0.26 +0.23    +0.193 C 
DOCKED: ENDROOT
DOCKED: BRANCH   1   2
DOCKED: ATOM      2  O   UNL d   1      -2.697 -17.186  -6.207 -0.59 -0.62    -0.356 OA
DOCKED: BRANCH   2   3
DOCKED: ATOM      3  P   UNL d   1      -4.009 -17.996  -5.637 -0.22 -0.02    -0.014 P 
DOCKED: ATOM      4  O   UNL d   1      -4.391 -18.956  -6.774 -0.05 -0.55    -0.577 OA
DOCKED: ATOM      5  O   UNL d   1      -5.104 -16.961  -5.383 -0.27 -1.16    -0.577 OA
DOCKED: ATOM      6  O   UNL d   1      -3.587 -18.754  -4.382 -0.22 -1.06    -0.638 OA
DOCKED: ENDBRANCH   2   3
DOCKED: ENDBRANCH   1   2
DOCKED: BRANCH   1   7
DOCKED: ATOM      7  C   UNL d   1      -1.789 -15.087  -5.269 -0.39 +0.27    +0.201 C 
DOCKED: BRANCH   7   8
DOCKED: ATOM      8  O   UNL d   1      -3.062 -14.597  -4.792 -0.27 -0.64    -0.364 OA
DOCKED: BRANCH   8   9
DOCKED: ATOM      9  P   UNL d   1      -3.411 -12.981  -4.872 -0.60 -0.02    -0.015 P 
DOCKED: ATOM     10  O   UNL d   1      -2.191 -12.343  -5.547 -0.17 -0.50    -0.577 OA
DOCKED: ATOM     11  O   UNL d   1      -3.590 -12.492  -3.435 -0.15 -0.38    -0.577 OA
DOCKED: ATOM     12  O   UNL d   1      -4.676 -12.834  -5.716 -0.54 -1.20    -0.638 OA
DOCKED: ENDBRANCH   8   9
DOCKED: ENDBRANCH   7   8
DOCKED: ENDBRANCH   1   7
DOCKED: BRANCH   1  13
DOCKED: ATOM     13  C   UNL d   1      -0.225 -16.996  -5.939 -0.53 +0.04    +0.073 C 
DOCKED: ATOM     14  O   UNL d   1      -0.169 -17.674  -7.025 -0.12 -0.19    -0.547 OA
DOCKED: ATOM     15  O   UNL d   1       0.797 -16.518  -5.328 -0.67 -0.35    -0.547 OA
DOCKED: ENDBRANCH   1  13
DOCKED: TORSDOF 6
DOCKED: TER
DOCKED: ENDMDL
________________________________________________________________________________


	BEGINNING GENETIC ALGORITHM DOCKING 34 of 100
Run: 34 Seed: 2118951298 1819019575 [ Run 34 of 100 GA/GALS ]
Beginning LAMARCKIAN GENETIC ALGORITHM (LGA), with a maximum of 25000000 energy evaluations.

Final-Value: -8.932


	FINAL GENETIC ALGORITHM DOCKED STATE
	_______________________________________________


Detailed state:  trans -5.620 -14.907 -4.133 quatxyzw -0.356740 0.523259 -0.449329 -0.630111 center 0.015 0.083 0.031 ntor 6 82.6288 33.7975 -4.7213 83.6440 58.6744 21.1256
State:	 -5.620 -14.907  -4.133  -0.459  0.674 -0.579 -101.883     82.63   33.80   -4.72   83.64   58.67   21.13

DOCKED: MODEL       34
DOCKED: USER    Run = 34
DOCKED: USER    DPF = D:/Protein_go_brrr/autodock/final/mut_N102T/2_3_BPG/dock.dpf
DOCKED: USER  
DOCKED: USER    Estimated Free Energy of Binding    =   -9.39 kcal/mol  [=(1)+(2)+(3)-(4)]
DOCKED: USER    Estimated Inhibition Constant, Ki   =  130.58 nM (nanomolar)  [Temperature = 298.15 K]
DOCKED: USER    
DOCKED: USER    (1) Final Intermolecular Energy     =  -11.18 kcal/mol
DOCKED: USER        vdW + Hbond + desolv Energy     =   -4.13 kcal/mol
DOCKED: USER        Electrostatic Energy            =   -7.05 kcal/mol
DOCKED: USER    (2) Final Total Internal Energy     =   +2.25 kcal/mol
DOCKED: USER    (3) Torsional Free Energy           =   +1.79 kcal/mol
DOCKED: USER    (4) Unbound System's Energy  [=(2)] =   +2.25 kcal/mol
DOCKED: USER    
DOCKED: USER    
DOCKED: USER    NEWDPF move 2_3_BPG_opt.pdbqt
DOCKED: USER    NEWDPF about 0.015000 0.083000 0.031000
DOCKED: USER    NEWDPF tran0 -5.620420 -14.906967 -4.132989
DOCKED: USER    NEWDPF quaternion0 -0.356740 0.523259 -0.449329 -0.630111
DOCKED: USER    NEWDPF axisangle0 -0.459418 0.673864 -0.578656 -101.883346
DOCKED: USER    NEWDPF quat0 -0.459418 0.673864 -0.578656 -101.883346
DOCKED: USER    NEWDPF dihe0 82.63 33.80 -4.72 83.64 58.67 21.13 
DOCKED: USER  keepresnum = 1 
DOCKED: USER  
DOCKED: REMARK  6 active torsions:
DOCKED: REMARK  status: ('A' for Active; 'I' for Inactive)
DOCKED: REMARK    1  A    between atoms: P_1  and  O_3 
DOCKED: REMARK    2  A    between atoms: P_2  and  O_4 
DOCKED: REMARK    3  A    between atoms: O_3  and  C_13 
DOCKED: REMARK    4  A    between atoms: O_4  and  C_14 
DOCKED: REMARK    5  A    between atoms: C_13  and  C_14 
DOCKED: REMARK    6  A    between atoms: C_13  and  C_15 
DOCKED: USER                              x       y       z     vdW  Elec       q    Type
DOCKED: USER                           _______ _______ _______ _____ _____    ______ ____
DOCKED: ROOT
DOCKED: ATOM      1  C   UNL d   1      -5.618 -14.465  -3.629 -0.18 +0.24    +0.193 C 
DOCKED: ENDROOT
DOCKED: BRANCH   1   2
DOCKED: ATOM      2  O   UNL d   1      -6.145 -13.192  -4.135 -0.24 -0.34    -0.356 OA
DOCKED: BRANCH   2   3
DOCKED: ATOM      3  P   UNL d   1      -5.625 -12.489  -5.527 -0.42 -0.02    -0.014 P 
DOCKED: ATOM      4  O   UNL d   1      -5.809 -10.982  -5.287 -0.60 -0.44    -0.577 OA
DOCKED: ATOM      5  O   UNL d   1      -6.525 -12.992  -6.653 -0.07 -0.66    -0.577 OA
DOCKED: ATOM      6  O   UNL d   1      -4.155 -12.850  -5.716 -0.56 -1.25    -0.638 OA
DOCKED: ENDBRANCH   2   3
DOCKED: ENDBRANCH   1   2
DOCKED: BRANCH   1   7
DOCKED: ATOM      7  C   UNL d   1      -5.885 -15.584  -4.702 -0.11 +0.33    +0.201 C 
DOCKED: BRANCH   7   8
DOCKED: ATOM      8  O   UNL d   1      -5.436 -16.912  -4.353 -0.02 -0.69    -0.364 OA
DOCKED: BRANCH   8   9
DOCKED: ATOM      9  P   UNL d   1      -4.290 -17.669  -5.274 -0.17 -0.03    -0.015 P 
DOCKED: ATOM     10  O   UNL d   1      -4.030 -19.006  -4.568 -0.28 -0.90    -0.577 OA
DOCKED: ATOM     11  O   UNL d   1      -3.052 -16.772  -5.272 -0.43 -1.10    -0.577 OA
DOCKED: ATOM     12  O   UNL d   1      -4.886 -17.863  -6.667 -0.36 -1.04    -0.638 OA
DOCKED: ENDBRANCH   8   9
DOCKED: ENDBRANCH   7   8
DOCKED: ENDBRANCH   1   7
DOCKED: BRANCH   1  13
DOCKED: ATOM     13  C   UNL d   1      -6.352 -14.861  -2.294 -0.19 +0.08    +0.073 C 
DOCKED: ATOM     14  O   UNL d   1      -6.724 -16.077  -2.138 -0.42 -0.89    -0.547 OA
DOCKED: ATOM     15  O   UNL d   1      -6.478 -13.944  -1.405 -0.08 -0.35    -0.547 OA
DOCKED: ENDBRANCH   1  13
DOCKED: TORSDOF 6
DOCKED: TER
DOCKED: ENDMDL
________________________________________________________________________________


	BEGINNING GENETIC ALGORITHM DOCKING 35 of 100
Run: 35 Seed: 1033029307 1477063893 [ Run 35 of 100 GA/GALS ]
Beginning LAMARCKIAN GENETIC ALGORITHM (LGA), with a maximum of 25000000 energy evaluations.

Final-Value: -8.702


	FINAL GENETIC ALGORITHM DOCKED STATE
	_______________________________________________


Detailed state:  trans -6.085 -15.629 -4.448 quatxyzw -0.659091 -0.713153 0.126453 -0.202540 center 0.015 0.083 0.031 ntor 6 -14.8438 165.3023 179.7937 47.4532 6.3587 -48.5301
State:	 -6.085 -15.629  -4.448  -0.673 -0.728  0.129 -156.629    -14.84  165.30  179.79   47.45    6.36  -48.53

DOCKED: MODEL       35
DOCKED: USER    Run = 35
DOCKED: USER    DPF = D:/Protein_go_brrr/autodock/final/mut_N102T/2_3_BPG/dock.dpf
DOCKED: USER  
DOCKED: USER    Estimated Free Energy of Binding    =   -8.99 kcal/mol  [=(1)+(2)+(3)-(4)]
DOCKED: USER    Estimated Inhibition Constant, Ki   =  258.19 nM (nanomolar)  [Temperature = 298.15 K]
DOCKED: USER    
DOCKED: USER    (1) Final Intermolecular Energy     =  -10.78 kcal/mol
DOCKED: USER        vdW + Hbond + desolv Energy     =   -3.83 kcal/mol
DOCKED: USER        Electrostatic Energy            =   -6.95 kcal/mol
DOCKED: USER    (2) Final Total Internal Energy     =   +2.08 kcal/mol
DOCKED: USER    (3) Torsional Free Energy           =   +1.79 kcal/mol
DOCKED: USER    (4) Unbound System's Energy  [=(2)] =   +2.08 kcal/mol
DOCKED: USER    
DOCKED: USER    
DOCKED: USER    NEWDPF move 2_3_BPG_opt.pdbqt
DOCKED: USER    NEWDPF about 0.015000 0.083000 0.031000
DOCKED: USER    NEWDPF tran0 -6.085342 -15.628823 -4.447631
DOCKED: USER    NEWDPF quaternion0 -0.659091 -0.713153 0.126453 -0.202540
DOCKED: USER    NEWDPF axisangle0 -0.673040 -0.728246 0.129129 -156.628976
DOCKED: USER    NEWDPF quat0 -0.673040 -0.728246 0.129129 -156.628976
DOCKED: USER    NEWDPF dihe0 -14.84 165.30 179.79 47.45 6.36 -48.53 
DOCKED: USER  keepresnum = 1 
DOCKED: USER  
DOCKED: REMARK  6 active torsions:
DOCKED: REMARK  status: ('A' for Active; 'I' for Inactive)
DOCKED: REMARK    1  A    between atoms: P_1  and  O_3 
DOCKED: REMARK    2  A    between atoms: P_2  and  O_4 
DOCKED: REMARK    3  A    between atoms: O_3  and  C_13 
DOCKED: REMARK    4  A    between atoms: O_4  and  C_14 
DOCKED: REMARK    5  A    between atoms: C_13  and  C_14 
DOCKED: REMARK    6  A    between atoms: C_13  and  C_15 
DOCKED: USER                              x       y       z     vdW  Elec       q    Type
DOCKED: USER                           _______ _______ _______ _____ _____    ______ ____
DOCKED: ROOT
DOCKED: ATOM      1  C   UNL d   1      -6.376 -16.233  -4.462 -0.11 +0.27    +0.193 C 
DOCKED: ENDROOT
DOCKED: BRANCH   1   2
DOCKED: ATOM      2  O   UNL d   1      -5.322 -17.250  -4.378 -0.01 -0.69    -0.356 OA
DOCKED: BRANCH   2   3
DOCKED: ATOM      3  P   UNL d   1      -4.493 -17.802  -5.686 -0.14 -0.02    -0.014 P 
DOCKED: ATOM      4  O   UNL d   1      -5.371 -17.415  -6.887 -0.17 -1.10    -0.577 OA
DOCKED: ATOM      5  O   UNL d   1      -4.375 -19.317  -5.541 -0.03 -0.58    -0.577 OA
DOCKED: ATOM      6  O   UNL d   1      -3.146 -17.088  -5.725 -0.53 -1.26    -0.638 OA
DOCKED: ENDBRANCH   2   3
DOCKED: ENDBRANCH   1   2
DOCKED: BRANCH   1   7
DOCKED: ATOM      7  C   UNL d   1      -5.748 -14.827  -4.139 -0.16 +0.28    +0.201 C 
DOCKED: BRANCH   7   8
DOCKED: ATOM      8  O   UNL d   1      -5.663 -13.904  -5.247 -0.25 -0.65    -0.364 OA
DOCKED: BRANCH   8   9
DOCKED: ATOM      9  P   UNL d   1      -4.816 -12.492  -5.088 -0.52 -0.02    -0.015 P 
DOCKED: ATOM     10  O   UNL d   1      -4.230 -12.536  -3.672 -0.11 -0.47    -0.577 OA
DOCKED: ATOM     11  O   UNL d   1      -5.817 -11.350  -5.257 -0.66 -0.47    -0.577 OA
DOCKED: ATOM     12  O   UNL d   1      -3.727 -12.497  -6.160 -0.52 -1.06    -0.638 OA
DOCKED: ENDBRANCH   8   9
DOCKED: ENDBRANCH   7   8
DOCKED: ENDBRANCH   1   7
DOCKED: BRANCH   1  13
DOCKED: ATOM     13  C   UNL d   1      -7.505 -16.536  -3.407 -0.08 +0.08    +0.073 C 
DOCKED: ATOM     14  O   UNL d   1      -7.161 -16.969  -2.252 -0.54 -0.94    -0.547 OA
DOCKED: ATOM     15  O   UNL d   1      -8.712 -16.267  -3.751 +0.02 -0.31    -0.547 OA
DOCKED: ENDBRANCH   1  13
DOCKED: TORSDOF 6
DOCKED: TER
DOCKED: ENDMDL
________________________________________________________________________________


	BEGINNING GENETIC ALGORITHM DOCKING 36 of 100
Run: 36 Seed: 1714156417 1900971659 [ Run 36 of 100 GA/GALS ]
Beginning LAMARCKIAN GENETIC ALGORITHM (LGA), with a maximum of 25000000 energy evaluations.

Final-Value: -8.693


	FINAL GENETIC ALGORITHM DOCKED STATE
	_______________________________________________


Detailed state:  trans -5.955 -15.650 -4.444 quatxyzw 0.736687 0.599238 -0.176068 0.259243 center 0.015 0.083 0.031 ntor 6 -39.7408 18.5526 166.6427 81.9912 -12.7031 -31.2919
State:	 -5.955 -15.650  -4.444   0.763  0.620 -0.182 149.950    -39.74   18.55  166.64   81.99  -12.70  -31.29

DOCKED: MODEL       36
DOCKED: USER    Run = 36
DOCKED: USER    DPF = D:/Protein_go_brrr/autodock/final/mut_N102T/2_3_BPG/dock.dpf
DOCKED: USER  
DOCKED: USER    Estimated Free Energy of Binding    =   -9.00 kcal/mol  [=(1)+(2)+(3)-(4)]
DOCKED: USER    Estimated Inhibition Constant, Ki   =  254.64 nM (nanomolar)  [Temperature = 298.15 K]
DOCKED: USER    
DOCKED: USER    (1) Final Intermolecular Energy     =  -10.79 kcal/mol
DOCKED: USER        vdW + Hbond + desolv Energy     =   -3.87 kcal/mol
DOCKED: USER        Electrostatic Energy            =   -6.92 kcal/mol
DOCKED: USER    (2) Final Total Internal Energy     =   +2.09 kcal/mol
DOCKED: USER    (3) Torsional Free Energy           =   +1.79 kcal/mol
DOCKED: USER    (4) Unbound System's Energy  [=(2)] =   +2.09 kcal/mol
DOCKED: USER    
DOCKED: USER    
DOCKED: USER    NEWDPF move 2_3_BPG_opt.pdbqt
DOCKED: USER    NEWDPF about 0.015000 0.083000 0.031000
DOCKED: USER    NEWDPF tran0 -5.955256 -15.650161 -4.444456
DOCKED: USER    NEWDPF quaternion0 0.736687 0.599238 -0.176068 0.259243
DOCKED: USER    NEWDPF axisangle0 0.762764 0.620450 -0.182300 149.949725
DOCKED: USER    NEWDPF quat0 0.762764 0.620450 -0.182300 149.949725
DOCKED: USER    NEWDPF dihe0 -39.74 18.55 166.64 81.99 -12.70 -31.29 
DOCKED: USER  keepresnum = 1 
DOCKED: USER  
DOCKED: REMARK  6 active torsions:
DOCKED: REMARK  status: ('A' for Active; 'I' for Inactive)
DOCKED: REMARK    1  A    between atoms: P_1  and  O_3 
DOCKED: REMARK    2  A    between atoms: P_2  and  O_4 
DOCKED: REMARK    3  A    between atoms: O_3  and  C_13 
DOCKED: REMARK    4  A    between atoms: O_4  and  C_14 
DOCKED: REMARK    5  A    between atoms: C_13  and  C_14 
DOCKED: REMARK    6  A    between atoms: C_13  and  C_15 
DOCKED: USER                              x       y       z     vdW  Elec       q    Type
DOCKED: USER                           _______ _______ _______ _____ _____    ______ ____
DOCKED: ROOT
DOCKED: ATOM      1  C   UNL d   1      -6.384 -16.159  -4.364 -0.11 +0.27    +0.193 C 
DOCKED: ENDROOT
DOCKED: BRANCH   1   2
DOCKED: ATOM      2  O   UNL d   1      -5.617 -17.410  -4.375 -0.04 -0.64    -0.356 OA
DOCKED: BRANCH   2   3
DOCKED: ATOM      3  P   UNL d   1      -4.523 -17.788  -5.543 -0.16 -0.02    -0.014 P 
DOCKED: ATOM      4  O   UNL d   1      -4.265 -19.291  -5.354 -0.05 -0.61    -0.577 OA
DOCKED: ATOM      5  O   UNL d   1      -3.266 -16.964  -5.271 -0.51 -1.11    -0.577 OA
DOCKED: ATOM      6  O   UNL d   1      -5.160 -17.495  -6.897 -0.17 -1.24    -0.638 OA
DOCKED: ENDBRANCH   2   3
DOCKED: ENDBRANCH   1   2
DOCKED: BRANCH   1   7
DOCKED: ATOM      7  C   UNL d   1      -5.381 -14.952  -4.258 -0.14 +0.32    +0.201 C 
DOCKED: BRANCH   7   8
DOCKED: ATOM      8  O   UNL d   1      -5.540 -13.911  -5.247 -0.25 -0.68    -0.364 OA
DOCKED: BRANCH   8   9
DOCKED: ATOM      9  P   UNL d   1      -4.709 -12.488  -5.095 -0.53 -0.02    -0.015 P 
DOCKED: ATOM     10  O   UNL d   1      -4.118 -12.521  -3.681 -0.12 -0.46    -0.577 OA
DOCKED: ATOM     11  O   UNL d   1      -5.725 -11.359  -5.264 -0.65 -0.47    -0.577 OA
DOCKED: ATOM     12  O   UNL d   1      -3.624 -12.483  -6.171 -0.50 -1.04    -0.638 OA
DOCKED: ENDBRANCH   8   9
DOCKED: ENDBRANCH   7   8
DOCKED: ENDBRANCH   1   7
DOCKED: BRANCH   1  13
DOCKED: ATOM     13  C   UNL d   1      -7.346 -16.127  -3.119 -0.09 +0.08    +0.073 C 
DOCKED: ATOM     14  O   UNL d   1      -7.160 -16.979  -2.180 -0.55 -0.96    -0.547 OA
DOCKED: ATOM     15  O   UNL d   1      -8.230 -15.196  -3.089 +0.02 -0.33    -0.547 OA
DOCKED: ENDBRANCH   1  13
DOCKED: TORSDOF 6
DOCKED: TER
DOCKED: ENDMDL
________________________________________________________________________________


	BEGINNING GENETIC ALGORITHM DOCKING 37 of 100
Run: 37 Seed: 1087352472 595710172 [ Run 37 of 100 GA/GALS ]
Beginning LAMARCKIAN GENETIC ALGORITHM (LGA), with a maximum of 25000000 energy evaluations.

Final-Value: -8.534


	FINAL GENETIC ALGORITHM DOCKED STATE
	_______________________________________________


Detailed state:  trans -6.099 -15.210 -4.513 quatxyzw -0.564498 -0.794961 0.147009 -0.166636 center 0.015 0.083 0.031 ntor 6 -178.8753 -54.4825 69.7955 -1.8673 27.8523 -61.8102
State:	 -6.099 -15.210  -4.513  -0.573 -0.806  0.149 -160.815   -178.88  -54.48   69.80   -1.87   27.85  -61.81

DOCKED: MODEL       37
DOCKED: USER    Run = 37
DOCKED: USER    DPF = D:/Protein_go_brrr/autodock/final/mut_N102T/2_3_BPG/dock.dpf
DOCKED: USER  
DOCKED: USER    Estimated Free Energy of Binding    =   -8.80 kcal/mol  [=(1)+(2)+(3)-(4)]
DOCKED: USER    Estimated Inhibition Constant, Ki   =  354.59 nM (nanomolar)  [Temperature = 298.15 K]
DOCKED: USER    
DOCKED: USER    (1) Final Intermolecular Energy     =  -10.59 kcal/mol
DOCKED: USER        vdW + Hbond + desolv Energy     =   -3.95 kcal/mol
DOCKED: USER        Electrostatic Energy            =   -6.64 kcal/mol
DOCKED: USER    (2) Final Total Internal Energy     =   +2.06 kcal/mol
DOCKED: USER    (3) Torsional Free Energy           =   +1.79 kcal/mol
DOCKED: USER    (4) Unbound System's Energy  [=(2)] =   +2.06 kcal/mol
DOCKED: USER    
DOCKED: USER    
DOCKED: USER    NEWDPF move 2_3_BPG_opt.pdbqt
DOCKED: USER    NEWDPF about 0.015000 0.083000 0.031000
DOCKED: USER    NEWDPF tran0 -6.099041 -15.210489 -4.512890
DOCKED: USER    NEWDPF quaternion0 -0.564498 -0.794961 0.147009 -0.166636
DOCKED: USER    NEWDPF axisangle0 -0.572502 -0.806234 0.149093 -160.815447
DOCKED: USER    NEWDPF quat0 -0.572502 -0.806234 0.149093 -160.815447
DOCKED: USER    NEWDPF dihe0 -178.88 -54.48 69.80 -1.87 27.85 -61.81 
DOCKED: USER  keepresnum = 1 
DOCKED: USER  
DOCKED: REMARK  6 active torsions:
DOCKED: REMARK  status: ('A' for Active; 'I' for Inactive)
DOCKED: REMARK    1  A    between atoms: P_1  and  O_3 
DOCKED: REMARK    2  A    between atoms: P_2  and  O_4 
DOCKED: REMARK    3  A    between atoms: O_3  and  C_13 
DOCKED: REMARK    4  A    between atoms: O_4  and  C_14 
DOCKED: REMARK    5  A    between atoms: C_13  and  C_14 
DOCKED: REMARK    6  A    between atoms: C_13  and  C_15 
DOCKED: USER                              x       y       z     vdW  Elec       q    Type
DOCKED: USER                           _______ _______ _______ _____ _____    ______ ____
DOCKED: ROOT
DOCKED: ATOM      1  C   UNL d   1      -6.224 -15.869  -4.523 -0.12 +0.28    +0.193 C 
DOCKED: ENDROOT
DOCKED: BRANCH   1   2
DOCKED: ATOM      2  O   UNL d   1      -4.947 -16.579  -4.384 +0.10 -0.72    -0.356 OA
DOCKED: BRANCH   2   3
DOCKED: ATOM      3  P   UNL d   1      -4.519 -17.859  -5.323 -0.21 -0.02    -0.014 P 
DOCKED: ATOM      4  O   UNL d   1      -3.212 -17.417  -6.000 -0.62 -1.05    -0.577 OA
DOCKED: ATOM      5  O   UNL d   1      -5.637 -18.066  -6.343 -0.08 -0.73    -0.577 OA
DOCKED: ATOM      6  O   UNL d   1      -4.298 -19.060  -4.410 -0.33 -1.07    -0.638 OA
DOCKED: ENDBRANCH   2   3
DOCKED: ENDBRANCH   1   2
DOCKED: BRANCH   1   7
DOCKED: ATOM      7  C   UNL d   1      -5.991 -14.345  -4.211 -0.18 +0.25    +0.201 C 
DOCKED: BRANCH   7   8
DOCKED: ATOM      8  O   UNL d   1      -5.811 -13.487  -5.359 -0.34 -0.56    -0.364 OA
DOCKED: BRANCH   8   9
DOCKED: ATOM      9  P   UNL d   1      -4.854 -12.142  -5.248 -0.56 -0.02    -0.015 P 
DOCKED: ATOM     10  O   UNL d   1      -5.828 -10.957  -5.266 -0.59 -0.44    -0.577 OA
DOCKED: ATOM     11  O   UNL d   1      -3.936 -12.145  -6.470 -0.45 -0.81    -0.577 OA
DOCKED: ATOM     12  O   UNL d   1      -4.092 -12.238  -3.927 -0.09 -0.49    -0.638 OA
DOCKED: ENDBRANCH   8   9
DOCKED: ENDBRANCH   7   8
DOCKED: ENDBRANCH   1   7
DOCKED: BRANCH   1  13
DOCKED: ATOM     13  C   UNL d   1      -7.273 -16.439  -3.497 -0.09 +0.08    +0.073 C 
DOCKED: ATOM     14  O   UNL d   1      -8.398 -16.858  -3.942 +0.01 -0.36    -0.547 OA
DOCKED: ATOM     15  O   UNL d   1      -6.907 -16.509  -2.268 -0.41 -0.98    -0.547 OA
DOCKED: ENDBRANCH   1  13
DOCKED: TORSDOF 6
DOCKED: TER
DOCKED: ENDMDL
________________________________________________________________________________


	BEGINNING GENETIC ALGORITHM DOCKING 38 of 100
Run: 38 Seed: 1290693346 1018091078 [ Run 38 of 100 GA/GALS ]
Beginning LAMARCKIAN GENETIC ALGORITHM (LGA), with a maximum of 25000000 energy evaluations.

Final-Value: -8.821


	FINAL GENETIC ALGORITHM DOCKED STATE
	_______________________________________________


Detailed state:  trans -5.664 -14.799 -4.173 quatxyzw -0.301689 0.443441 -0.462928 -0.705721 center 0.015 0.083 0.031 ntor 6 112.5235 150.5932 -60.5239 98.3358 -28.8935 -23.1688
State:	 -5.664 -14.799  -4.173  -0.426  0.626 -0.653 -90.224    112.52  150.59  -60.52   98.34  -28.89  -23.17

DOCKED: MODEL       38
DOCKED: USER    Run = 38
DOCKED: USER    DPF = D:/Protein_go_brrr/autodock/final/mut_N102T/2_3_BPG/dock.dpf
DOCKED: USER  
DOCKED: USER    Estimated Free Energy of Binding    =   -9.16 kcal/mol  [=(1)+(2)+(3)-(4)]
DOCKED: USER    Estimated Inhibition Constant, Ki   =  194.27 nM (nanomolar)  [Temperature = 298.15 K]
DOCKED: USER    
DOCKED: USER    (1) Final Intermolecular Energy     =  -10.95 kcal/mol
DOCKED: USER        vdW + Hbond + desolv Energy     =   -4.06 kcal/mol
DOCKED: USER        Electrostatic Energy            =   -6.89 kcal/mol
DOCKED: USER    (2) Final Total Internal Energy     =   +2.12 kcal/mol
DOCKED: USER    (3) Torsional Free Energy           =   +1.79 kcal/mol
DOCKED: USER    (4) Unbound System's Energy  [=(2)] =   +2.12 kcal/mol
DOCKED: USER    
DOCKED: USER    
DOCKED: USER    NEWDPF move 2_3_BPG_opt.pdbqt
DOCKED: USER    NEWDPF about 0.015000 0.083000 0.031000
DOCKED: USER    NEWDPF tran0 -5.663539 -14.798695 -4.173321
DOCKED: USER    NEWDPF quaternion0 -0.301689 0.443441 -0.462928 -0.705721
DOCKED: USER    NEWDPF axisangle0 -0.425819 0.625895 -0.653401 -90.224399
DOCKED: USER    NEWDPF quat0 -0.425819 0.625895 -0.653401 -90.224399
DOCKED: USER    NEWDPF dihe0 112.52 150.59 -60.52 98.34 -28.89 -23.17 
DOCKED: USER  keepresnum = 1 
DOCKED: USER  
DOCKED: REMARK  6 active torsions:
DOCKED: REMARK  status: ('A' for Active; 'I' for Inactive)
DOCKED: REMARK    1  A    between atoms: P_1  and  O_3 
DOCKED: REMARK    2  A    between atoms: P_2  and  O_4 
DOCKED: REMARK    3  A    between atoms: O_3  and  C_13 
DOCKED: REMARK    4  A    between atoms: O_4  and  C_14 
DOCKED: REMARK    5  A    between atoms: C_13  and  C_14 
DOCKED: REMARK    6  A    between atoms: C_13  and  C_15 
DOCKED: USER                              x       y       z     vdW  Elec       q    Type
DOCKED: USER                           _______ _______ _______ _____ _____    ______ ____
DOCKED: ROOT
DOCKED: ATOM      1  C   UNL d   1      -5.804 -14.379  -3.670 -0.20 +0.22    +0.193 C 
DOCKED: ENDROOT
DOCKED: BRANCH   1   2
DOCKED: ATOM      2  O   UNL d   1      -6.265 -13.111  -4.246 -0.28 -0.33    -0.356 OA
DOCKED: BRANCH   2   3
DOCKED: ATOM      3  P   UNL d   1      -5.691 -12.501  -5.661 -0.41 -0.02    -0.014 P 
DOCKED: ATOM      4  O   UNL d   1      -4.218 -12.940  -5.698 -0.58 -1.19    -0.577 OA
DOCKED: ATOM      5  O   UNL d   1      -5.822 -10.981  -5.585 -0.58 -0.41    -0.577 OA
DOCKED: ATOM      6  O   UNL d   1      -6.489 -13.124  -6.802 -0.01 -0.79    -0.638 OA
DOCKED: ENDBRANCH   2   3
DOCKED: ENDBRANCH   1   2
DOCKED: BRANCH   1   7
DOCKED: ATOM      7  C   UNL d   1      -5.749 -15.462  -4.810 -0.09 +0.35    +0.201 C 
DOCKED: BRANCH   7   8
DOCKED: ATOM      8  O   UNL d   1      -4.576 -16.305  -4.822 -0.24 -0.79    -0.364 OA
DOCKED: BRANCH   8   9
DOCKED: ATOM      9  P   UNL d   1      -4.649 -17.818  -5.488 -0.19 -0.02    -0.015 P 
DOCKED: ATOM     10  O   UNL d   1      -3.587 -17.819  -6.594 -0.58 -0.97    -0.577 OA
DOCKED: ATOM     11  O   UNL d   1      -6.060 -17.990  -6.052 -0.03 -0.68    -0.577 OA
DOCKED: ATOM     12  O   UNL d   1      -4.323 -18.816  -4.378 -0.25 -1.16    -0.638 OA
DOCKED: ENDBRANCH   8   9
DOCKED: ENDBRANCH   7   8
DOCKED: ENDBRANCH   1   7
DOCKED: BRANCH   1  13
DOCKED: ATOM     13  C   UNL d   1      -6.810 -14.865  -2.561 -0.18 +0.07    +0.073 C 
DOCKED: ATOM     14  O   UNL d   1      -6.719 -16.071  -2.139 -0.42 -0.89    -0.547 OA
DOCKED: ATOM     15  O   UNL d   1      -7.630 -13.993  -2.095 -0.03 -0.28    -0.547 OA
DOCKED: ENDBRANCH   1  13
DOCKED: TORSDOF 6
DOCKED: TER
DOCKED: ENDMDL
________________________________________________________________________________


	BEGINNING GENETIC ALGORITHM DOCKING 39 of 100
Run: 39 Seed: 1321499872 1684056460 [ Run 39 of 100 GA/GALS ]
Beginning LAMARCKIAN GENETIC ALGORITHM (LGA), with a maximum of 25000000 energy evaluations.

Final-Value: -8.015


	FINAL GENETIC ALGORITHM DOCKED STATE
	_______________________________________________


Detailed state:  trans -5.999 -14.840 -3.662 quatxyzw 0.508906 -0.039164 0.832816 -0.214241 center 0.015 0.083 0.031 ntor 6 -136.2960 9.3985 -116.3102 34.2503 -73.7474 -73.8987
State:	 -5.999 -14.840  -3.662   0.521 -0.040  0.853 -155.258   -136.30    9.40 -116.31   34.25  -73.75  -73.90

DOCKED: MODEL       39
DOCKED: USER    Run = 39
DOCKED: USER    DPF = D:/Protein_go_brrr/autodock/final/mut_N102T/2_3_BPG/dock.dpf
DOCKED: USER  
DOCKED: USER    Estimated Free Energy of Binding    =   -8.36 kcal/mol  [=(1)+(2)+(3)-(4)]
DOCKED: USER    Estimated Inhibition Constant, Ki   =  748.55 nM (nanomolar)  [Temperature = 298.15 K]
DOCKED: USER    
DOCKED: USER    (1) Final Intermolecular Energy     =  -10.15 kcal/mol
DOCKED: USER        vdW + Hbond + desolv Energy     =   -3.21 kcal/mol
DOCKED: USER        Electrostatic Energy            =   -6.93 kcal/mol
DOCKED: USER    (2) Final Total Internal Energy     =   +2.13 kcal/mol
DOCKED: USER    (3) Torsional Free Energy           =   +1.79 kcal/mol
DOCKED: USER    (4) Unbound System's Energy  [=(2)] =   +2.13 kcal/mol
DOCKED: USER    
DOCKED: USER    
DOCKED: USER    NEWDPF move 2_3_BPG_opt.pdbqt
DOCKED: USER    NEWDPF about 0.015000 0.083000 0.031000
DOCKED: USER    NEWDPF tran0 -5.999211 -14.840405 -3.661715
DOCKED: USER    NEWDPF quaternion0 0.508906 -0.039164 0.832816 -0.214241
DOCKED: USER    NEWDPF axisangle0 0.521003 -0.040095 0.852613 -155.257972
DOCKED: USER    NEWDPF quat0 0.521003 -0.040095 0.852613 -155.257972
DOCKED: USER    NEWDPF dihe0 -136.30 9.40 -116.31 34.25 -73.75 -73.90 
DOCKED: USER  keepresnum = 1 
DOCKED: USER  
DOCKED: REMARK  6 active torsions:
DOCKED: REMARK  status: ('A' for Active; 'I' for Inactive)
DOCKED: REMARK    1  A    between atoms: P_1  and  O_3 
DOCKED: REMARK    2  A    between atoms: P_2  and  O_4 
DOCKED: REMARK    3  A    between atoms: O_3  and  C_13 
DOCKED: REMARK    4  A    between atoms: O_4  and  C_14 
DOCKED: REMARK    5  A    between atoms: C_13  and  C_14 
DOCKED: REMARK    6  A    between atoms: C_13  and  C_15 
DOCKED: USER                              x       y       z     vdW  Elec       q    Type
DOCKED: USER                           _______ _______ _______ _____ _____    ______ ____
DOCKED: ROOT
DOCKED: ATOM      1  C   UNL d   1      -5.569 -14.770  -4.171 -0.17 +0.28    +0.193 C 
DOCKED: ENDROOT
DOCKED: BRANCH   1   2
DOCKED: ATOM      2  O   UNL d   1      -6.011 -15.643  -5.265 -0.06 -0.65    -0.356 OA
DOCKED: BRANCH   2   3
DOCKED: ATOM      3  P   UNL d   1      -5.372 -17.133  -5.545 +0.01 -0.03    -0.014 P 
DOCKED: ATOM      4  O   UNL d   1      -6.039 -17.596  -6.849 -0.08 -0.80    -0.577 OA
DOCKED: ATOM      5  O   UNL d   1      -5.765 -18.022  -4.366 -0.02 -0.97    -0.577 OA
DOCKED: ATOM      6  O   UNL d   1      -3.865 -16.976  -5.711 -0.47 -1.56    -0.638 OA
DOCKED: ENDBRANCH   2   3
DOCKED: ENDBRANCH   1   2
DOCKED: BRANCH   1   7
DOCKED: ATOM      7  C   UNL d   1      -6.711 -14.698  -3.091 -0.14 +0.19    +0.201 C 
DOCKED: BRANCH   7   8
DOCKED: ATOM      8  O   UNL d   1      -6.712 -15.754  -2.104 -0.42 -0.51    -0.364 OA
DOCKED: BRANCH   8   9
DOCKED: ATOM      9  P   UNL d   1      -6.294 -15.425  -0.538 -0.29 -0.01    -0.015 P 
DOCKED: ATOM     10  O   UNL d   1      -7.397 -14.494  -0.018 +0.00 -0.21    -0.577 OA
DOCKED: ATOM     11  O   UNL d   1      -4.933 -14.731  -0.575 -0.09 -0.51    -0.577 OA
DOCKED: ATOM     12  O   UNL d   1      -6.266 -16.756   0.211 -0.06 -0.78    -0.638 OA
DOCKED: ENDBRANCH   8   9
DOCKED: ENDBRANCH   7   8
DOCKED: ENDBRANCH   1   7
DOCKED: BRANCH   1  13
DOCKED: ATOM     13  C   UNL d   1      -5.299 -13.318  -4.716 -0.31 +0.10    +0.073 C 
DOCKED: ATOM     14  O   UNL d   1      -4.169 -13.073  -5.268 -0.63 -0.97    -0.547 OA
DOCKED: ATOM     15  O   UNL d   1      -6.262 -12.474  -4.628 -0.49 -0.51    -0.547 OA
DOCKED: ENDBRANCH   1  13
DOCKED: TORSDOF 6
DOCKED: TER
DOCKED: ENDMDL
________________________________________________________________________________


	BEGINNING GENETIC ALGORITHM DOCKING 40 of 100
Run: 40 Seed: 486658303 666805727 [ Run 40 of 100 GA/GALS ]
Beginning LAMARCKIAN GENETIC ALGORITHM (LGA), with a maximum of 25000000 energy evaluations.

Final-Value: -9.225


	FINAL GENETIC ALGORITHM DOCKED STATE
	_______________________________________________


Detailed state:  trans -2.203 -16.159 -5.639 quatxyzw -0.682859 0.668963 0.280371 0.087084 center 0.015 0.083 0.031 ntor 6 -155.4801 22.2871 51.7130 34.6924 29.7801 -65.3307
State:	 -2.203 -16.159  -5.639  -0.685  0.672  0.281 170.008   -155.48   22.29   51.71   34.69   29.78  -65.33

DOCKED: MODEL       40
DOCKED: USER    Run = 40
DOCKED: USER    DPF = D:/Protein_go_brrr/autodock/final/mut_N102T/2_3_BPG/dock.dpf
DOCKED: USER  
DOCKED: USER    Estimated Free Energy of Binding    =   -9.69 kcal/mol  [=(1)+(2)+(3)-(4)]
DOCKED: USER    Estimated Inhibition Constant, Ki   =   79.19 nM (nanomolar)  [Temperature = 298.15 K]
DOCKED: USER    
DOCKED: USER    (1) Final Intermolecular Energy     =  -11.48 kcal/mol
DOCKED: USER        vdW + Hbond + desolv Energy     =   -5.00 kcal/mol
DOCKED: USER        Electrostatic Energy            =   -6.47 kcal/mol
DOCKED: USER    (2) Final Total Internal Energy     =   +2.25 kcal/mol
DOCKED: USER    (3) Torsional Free Energy           =   +1.79 kcal/mol
DOCKED: USER    (4) Unbound System's Energy  [=(2)] =   +2.25 kcal/mol
DOCKED: USER    
DOCKED: USER    
DOCKED: USER    NEWDPF move 2_3_BPG_opt.pdbqt
DOCKED: USER    NEWDPF about 0.015000 0.083000 0.031000
DOCKED: USER    NEWDPF tran0 -2.203339 -16.159496 -5.639497
DOCKED: USER    NEWDPF quaternion0 -0.682859 0.668963 0.280371 0.087084
DOCKED: USER    NEWDPF axisangle0 -0.685464 0.671514 0.281441 170.008200
DOCKED: USER    NEWDPF quat0 -0.685464 0.671514 0.281441 170.008200
DOCKED: USER    NEWDPF dihe0 -155.48 22.29 51.71 34.69 29.78 -65.33 
DOCKED: USER  keepresnum = 1 
DOCKED: USER  
DOCKED: REMARK  6 active torsions:
DOCKED: REMARK  status: ('A' for Active; 'I' for Inactive)
DOCKED: REMARK    1  A    between atoms: P_1  and  O_3 
DOCKED: REMARK    2  A    between atoms: P_2  and  O_4 
DOCKED: REMARK    3  A    between atoms: O_3  and  C_13 
DOCKED: REMARK    4  A    between atoms: O_4  and  C_14 
DOCKED: REMARK    5  A    between atoms: C_13  and  C_14 
DOCKED: REMARK    6  A    between atoms: C_13  and  C_15 
DOCKED: USER                              x       y       z     vdW  Elec       q    Type
DOCKED: USER                           _______ _______ _______ _____ _____    ______ ____
DOCKED: ROOT
DOCKED: ATOM      1  C   UNL d   1      -1.949 -15.544  -5.715 -0.19 +0.31    +0.193 C 
DOCKED: ENDROOT
DOCKED: BRANCH   1   2
DOCKED: ATOM      2  O   UNL d   1      -2.263 -14.769  -4.508 -0.21 -0.47    -0.356 OA
DOCKED: BRANCH   2   3
DOCKED: ATOM      3  P   UNL d   1      -3.538 -13.736  -4.406 -0.54 -0.02    -0.014 P 
DOCKED: ATOM      4  O   UNL d   1      -3.208 -12.838  -3.203 -0.15 -0.39    -0.577 OA
DOCKED: ATOM      5  O   UNL d   1      -4.786 -14.579  -4.152 -0.07 -0.92    -0.577 OA
DOCKED: ATOM      6  O   UNL d   1      -3.600 -12.934  -5.702 -0.53 -1.20    -0.638 OA
DOCKED: ENDBRANCH   2   3
DOCKED: ENDBRANCH   1   2
DOCKED: BRANCH   1   7
DOCKED: ATOM      7  C   UNL d   1      -2.276 -17.058  -5.442 -0.20 +0.28    +0.201 C 
DOCKED: BRANCH   7   8
DOCKED: ATOM      8  O   UNL d   1      -3.587 -17.504  -5.851 -0.70 -0.68    -0.364 OA
DOCKED: BRANCH   8   9
DOCKED: ATOM      9  P   UNL d   1      -4.370 -18.681  -4.991 -0.13 -0.02    -0.015 P 
DOCKED: ATOM     10  O   UNL d   1      -4.733 -19.755  -6.023 +0.01 -0.44    -0.577 OA
DOCKED: ATOM     11  O   UNL d   1      -5.612 -18.034  -4.379 -0.02 -1.01    -0.577 OA
DOCKED: ATOM     12  O   UNL d   1      -3.388 -19.202  -3.942 -0.28 -1.11    -0.638 OA
DOCKED: ENDBRANCH   8   9
DOCKED: ENDBRANCH   7   8
DOCKED: ENDBRANCH   1   7
DOCKED: BRANCH   1  13
DOCKED: ATOM     13  C   UNL d   1      -0.419 -15.411  -6.057 -0.60 +0.06    +0.073 C 
DOCKED: ATOM     14  O   UNL d   1      -0.069 -14.613  -6.996 -0.64 -0.41    -0.547 OA
DOCKED: ATOM     15  O   UNL d   1       0.402 -16.072  -5.323 -0.74 -0.46    -0.547 OA
DOCKED: ENDBRANCH   1  13
DOCKED: TORSDOF 6
DOCKED: TER
DOCKED: ENDMDL
________________________________________________________________________________


	BEGINNING GENETIC ALGORITHM DOCKING 41 of 100
Run: 41 Seed: 871113267 1036483971 [ Run 41 of 100 GA/GALS ]
Beginning LAMARCKIAN GENETIC ALGORITHM (LGA), with a maximum of 25000000 energy evaluations.

Final-Value: -8.892


	FINAL GENETIC ALGORITHM DOCKED STATE
	_______________________________________________


Detailed state:  trans -6.439 -15.292 -4.447 quatxyzw -0.486595 -0.811290 0.266346 -0.184647 center 0.015 0.083 0.031 ntor 6 -168.7186 -32.5355 -37.2317 1.4649 40.0739 -98.7453
State:	 -6.439 -15.292  -4.447  -0.495 -0.825  0.271 -158.719   -168.72  -32.54  -37.23    1.46   40.07  -98.75

DOCKED: MODEL       41
DOCKED: USER    Run = 41
DOCKED: USER    DPF = D:/Protein_go_brrr/autodock/final/mut_N102T/2_3_BPG/dock.dpf
DOCKED: USER  
DOCKED: USER    Estimated Free Energy of Binding    =   -9.31 kcal/mol  [=(1)+(2)+(3)-(4)]
DOCKED: USER    Estimated Inhibition Constant, Ki   =  151.12 nM (nanomolar)  [Temperature = 298.15 K]
DOCKED: USER    
DOCKED: USER    (1) Final Intermolecular Energy     =  -11.09 kcal/mol
DOCKED: USER        vdW + Hbond + desolv Energy     =   -3.96 kcal/mol
DOCKED: USER        Electrostatic Energy            =   -7.14 kcal/mol
DOCKED: USER    (2) Final Total Internal Energy     =   +2.20 kcal/mol
DOCKED: USER    (3) Torsional Free Energy           =   +1.79 kcal/mol
DOCKED: USER    (4) Unbound System's Energy  [=(2)] =   +2.20 kcal/mol
DOCKED: USER    
DOCKED: USER    
DOCKED: USER    NEWDPF move 2_3_BPG_opt.pdbqt
DOCKED: USER    NEWDPF about 0.015000 0.083000 0.031000
DOCKED: USER    NEWDPF tran0 -6.438675 -15.291706 -4.446950
DOCKED: USER    NEWDPF quaternion0 -0.486595 -0.811290 0.266346 -0.184647
DOCKED: USER    NEWDPF axisangle0 -0.495108 -0.825484 0.271006 -158.718851
DOCKED: USER    NEWDPF quat0 -0.495108 -0.825484 0.271006 -158.718851
DOCKED: USER    NEWDPF dihe0 -168.72 -32.54 -37.23 1.46 40.07 -98.75 
DOCKED: USER  keepresnum = 1 
DOCKED: USER  
DOCKED: REMARK  6 active torsions:
DOCKED: REMARK  status: ('A' for Active; 'I' for Inactive)
DOCKED: REMARK    1  A    between atoms: P_1  and  O_3 
DOCKED: REMARK    2  A    between atoms: P_2  and  O_4 
DOCKED: REMARK    3  A    between atoms: O_3  and  C_13 
DOCKED: REMARK    4  A    between atoms: O_4  and  C_14 
DOCKED: REMARK    5  A    between atoms: C_13  and  C_14 
DOCKED: REMARK    6  A    between atoms: C_13  and  C_15 
DOCKED: USER                              x       y       z     vdW  Elec       q    Type
DOCKED: USER                           _______ _______ _______ _____ _____    ______ ____
DOCKED: ROOT
DOCKED: ATOM      1  C   UNL d   1      -6.438 -15.955  -4.353 -0.11 +0.26    +0.193 C 
DOCKED: ENDROOT
DOCKED: BRANCH   1   2
DOCKED: ATOM      2  O   UNL d   1      -5.046 -16.419  -4.376 +0.05 -0.70    -0.356 OA
DOCKED: BRANCH   2   3
DOCKED: ATOM      3  P   UNL d   1      -4.533 -17.693  -5.280 -0.18 -0.02    -0.014 P 
DOCKED: ATOM      4  O   UNL d   1      -3.130 -17.285  -5.757 -0.59 -1.05    -0.577 OA
DOCKED: ATOM      5  O   UNL d   1      -5.504 -17.838  -6.450 -0.15 -0.83    -0.577 OA
DOCKED: ATOM      6  O   UNL d   1      -4.482 -18.921  -4.377 -0.29 -1.14    -0.638 OA
DOCKED: ENDBRANCH   2   3
DOCKED: ENDBRANCH   1   2
DOCKED: BRANCH   1   7
DOCKED: ATOM      7  C   UNL d   1      -6.446 -14.384  -4.279 -0.15 +0.22    +0.201 C 
DOCKED: BRANCH   7   8
DOCKED: ATOM      8  O   UNL d   1      -5.815 -13.697  -5.382 -0.27 -0.61    -0.364 OA
DOCKED: BRANCH   8   9
DOCKED: ATOM      9  P   UNL d   1      -4.826 -12.402  -5.096 -0.53 -0.02    -0.015 P 
DOCKED: ATOM     10  O   UNL d   1      -3.727 -12.497  -6.162 -0.57 -0.96    -0.577 OA
DOCKED: ATOM     11  O   UNL d   1      -4.267 -12.571  -3.683 -0.11 -0.48    -0.577 OA
DOCKED: ATOM     12  O   UNL d   1      -5.675 -11.142  -5.257 -0.59 -0.50    -0.638 OA
DOCKED: ENDBRANCH   8   9
DOCKED: ENDBRANCH   7   8
DOCKED: ENDBRANCH   1   7
DOCKED: BRANCH   1  13
DOCKED: ATOM     13  C   UNL d   1      -7.175 -16.524  -3.084 -0.05 +0.10    +0.073 C 
DOCKED: ATOM     14  O   UNL d   1      -8.143 -17.345  -3.256 -0.04 -0.45    -0.547 OA
DOCKED: ATOM     15  O   UNL d   1      -6.714 -16.176  -1.937 -0.37 -0.95    -0.547 OA
DOCKED: ENDBRANCH   1  13
DOCKED: TORSDOF 6
DOCKED: TER
DOCKED: ENDMDL
________________________________________________________________________________


	BEGINNING GENETIC ALGORITHM DOCKING 42 of 100
Run: 42 Seed: 675184413 675388765 [ Run 42 of 100 GA/GALS ]
Beginning LAMARCKIAN GENETIC ALGORITHM (LGA), with a maximum of 25000000 energy evaluations.

Final-Value: -8.363


	FINAL GENETIC ALGORITHM DOCKED STATE
	_______________________________________________


Detailed state:  trans -5.682 -14.682 -4.340 quatxyzw 0.461492 -0.658538 0.435418 0.404677 center 0.015 0.083 0.031 ntor 6 41.2916 144.5713 -8.5429 57.1712 93.0330 18.2732
State:	 -5.682 -14.682  -4.340   0.505 -0.720  0.476 132.258     41.29  144.57   -8.54   57.17   93.03   18.27

DOCKED: MODEL       42
DOCKED: USER    Run = 42
DOCKED: USER    DPF = D:/Protein_go_brrr/autodock/final/mut_N102T/2_3_BPG/dock.dpf
DOCKED: USER  
DOCKED: USER    Estimated Free Energy of Binding    =   -8.81 kcal/mol  [=(1)+(2)+(3)-(4)]
DOCKED: USER    Estimated Inhibition Constant, Ki   =  349.03 nM (nanomolar)  [Temperature = 298.15 K]
DOCKED: USER    
DOCKED: USER    (1) Final Intermolecular Energy     =  -10.60 kcal/mol
DOCKED: USER        vdW + Hbond + desolv Energy     =   -3.73 kcal/mol
DOCKED: USER        Electrostatic Energy            =   -6.87 kcal/mol
DOCKED: USER    (2) Final Total Internal Energy     =   +2.24 kcal/mol
DOCKED: USER    (3) Torsional Free Energy           =   +1.79 kcal/mol
DOCKED: USER    (4) Unbound System's Energy  [=(2)] =   +2.24 kcal/mol
DOCKED: USER    
DOCKED: USER    
DOCKED: USER    NEWDPF move 2_3_BPG_opt.pdbqt
DOCKED: USER    NEWDPF about 0.015000 0.083000 0.031000
DOCKED: USER    NEWDPF tran0 -5.682372 -14.681570 -4.340114
DOCKED: USER    NEWDPF quaternion0 0.461492 -0.658538 0.435418 0.404677
DOCKED: USER    NEWDPF axisangle0 0.504661 -0.720139 0.476148 132.258192
DOCKED: USER    NEWDPF quat0 0.504661 -0.720139 0.476148 132.258192
DOCKED: USER    NEWDPF dihe0 41.29 144.57 -8.54 57.17 93.03 18.27 
DOCKED: USER  keepresnum = 1 
DOCKED: USER  
DOCKED: REMARK  6 active torsions:
DOCKED: REMARK  status: ('A' for Active; 'I' for Inactive)
DOCKED: REMARK    1  A    between atoms: P_1  and  O_3 
DOCKED: REMARK    2  A    between atoms: P_2  and  O_4 
DOCKED: REMARK    3  A    between atoms: O_3  and  C_13 
DOCKED: REMARK    4  A    between atoms: O_4  and  C_14 
DOCKED: REMARK    5  A    between atoms: C_13  and  C_14 
DOCKED: REMARK    6  A    between atoms: C_13  and  C_15 
DOCKED: USER                              x       y       z     vdW  Elec       q    Type
DOCKED: USER                           _______ _______ _______ _____ _____    ______ ____
DOCKED: ROOT
DOCKED: ATOM      1  C   UNL d   1      -5.371 -14.198  -3.995 -0.23 +0.25    +0.193 C 
DOCKED: ENDROOT
DOCKED: BRANCH   1   2
DOCKED: ATOM      2  O   UNL d   1      -5.917 -12.906  -4.425 -0.34 -0.35    -0.356 OA
DOCKED: BRANCH   2   3
DOCKED: ATOM      3  P   UNL d   1      -5.539 -12.198  -5.860 -0.45 -0.02    -0.014 P 
DOCKED: ATOM      4  O   UNL d   1      -4.038 -12.475  -6.040 -0.61 -0.96    -0.577 OA
DOCKED: ATOM      5  O   UNL d   1      -5.821 -10.704  -5.716 -0.54 -0.36    -0.577 OA
DOCKED: ATOM      6  O   UNL d   1      -6.367 -12.871  -6.950 -0.01 -0.72    -0.638 OA
DOCKED: ENDBRANCH   2   3
DOCKED: ENDBRANCH   1   2
DOCKED: BRANCH   1   7
DOCKED: ATOM      7  C   UNL d   1      -6.280 -15.347  -4.570 -0.13 +0.28    +0.201 C 
DOCKED: BRANCH   7   8
DOCKED: ATOM      8  O   UNL d   1      -5.850 -16.695  -4.280 -0.07 -0.63    -0.364 OA
DOCKED: BRANCH   8   9
DOCKED: ATOM      9  P   UNL d   1      -4.713 -17.427  -5.233 -0.14 -0.03    -0.015 P 
DOCKED: ATOM     10  O   UNL d   1      -4.401 -18.755  -4.533 -0.23 -1.00    -0.577 OA
DOCKED: ATOM     11  O   UNL d   1      -3.498 -16.501  -5.268 -0.35 -1.32    -0.577 OA
DOCKED: ATOM     12  O   UNL d   1      -5.344 -17.637  -6.609 -0.20 -1.08    -0.638 OA
DOCKED: ENDBRANCH   8   9
DOCKED: ENDBRANCH   7   8
DOCKED: ENDBRANCH   1   7
DOCKED: BRANCH   1  13
DOCKED: ATOM     13  C   UNL d   1      -5.376 -14.291  -2.424 -0.23 +0.08    +0.073 C 
DOCKED: ATOM     14  O   UNL d   1      -6.368 -14.861  -1.848 -0.08 -0.55    -0.547 OA
DOCKED: ATOM     15  O   UNL d   1      -4.343 -13.840  -1.810 -0.14 -0.46    -0.547 OA
DOCKED: ENDBRANCH   1  13
DOCKED: TORSDOF 6
DOCKED: TER
DOCKED: ENDMDL
________________________________________________________________________________


	BEGINNING GENETIC ALGORITHM DOCKING 43 of 100
Run: 43 Seed: 1222266329 1308269199 [ Run 43 of 100 GA/GALS ]
Beginning LAMARCKIAN GENETIC ALGORITHM (LGA), with a maximum of 25000000 energy evaluations.

Final-Value: -8.348


	FINAL GENETIC ALGORITHM DOCKED STATE
	_______________________________________________


Detailed state:  trans -5.927 -15.649 -4.601 quatxyzw 0.587373 0.710049 -0.133682 0.364626 center 0.015 0.083 0.031 ntor 6 -129.6664 -156.2094 -180.0000 19.4917 13.6032 -62.7021
State:	 -5.927 -15.649  -4.601   0.631  0.763 -0.144 137.231   -129.67 -156.21 -180.00   19.49   13.60  -62.70

DOCKED: MODEL       43
DOCKED: USER    Run = 43
DOCKED: USER    DPF = D:/Protein_go_brrr/autodock/final/mut_N102T/2_3_BPG/dock.dpf
DOCKED: USER  
DOCKED: USER    Estimated Free Energy of Binding    =   -8.64 kcal/mol  [=(1)+(2)+(3)-(4)]
DOCKED: USER    Estimated Inhibition Constant, Ki   =  466.67 nM (nanomolar)  [Temperature = 298.15 K]
DOCKED: USER    
DOCKED: USER    (1) Final Intermolecular Energy     =  -10.43 kcal/mol
DOCKED: USER        vdW + Hbond + desolv Energy     =   -3.55 kcal/mol
DOCKED: USER        Electrostatic Energy            =   -6.88 kcal/mol
DOCKED: USER    (2) Final Total Internal Energy     =   +2.08 kcal/mol
DOCKED: USER    (3) Torsional Free Energy           =   +1.79 kcal/mol
DOCKED: USER    (4) Unbound System's Energy  [=(2)] =   +2.08 kcal/mol
DOCKED: USER    
DOCKED: USER    
DOCKED: USER    NEWDPF move 2_3_BPG_opt.pdbqt
DOCKED: USER    NEWDPF about 0.015000 0.083000 0.031000
DOCKED: USER    NEWDPF tran0 -5.927233 -15.648741 -4.601060
DOCKED: USER    NEWDPF quaternion0 0.587373 0.710049 -0.133682 0.364626
DOCKED: USER    NEWDPF axisangle0 0.630801 0.762548 -0.143566 137.230908
DOCKED: USER    NEWDPF quat0 0.630801 0.762548 -0.143566 137.230908
DOCKED: USER    NEWDPF dihe0 -129.67 -156.21 -180.00 19.49 13.60 -62.70 
DOCKED: USER  keepresnum = 1 
DOCKED: USER  
DOCKED: REMARK  6 active torsions:
DOCKED: REMARK  status: ('A' for Active; 'I' for Inactive)
DOCKED: REMARK    1  A    between atoms: P_1  and  O_3 
DOCKED: REMARK    2  A    between atoms: P_2  and  O_4 
DOCKED: REMARK    3  A    between atoms: O_3  and  C_13 
DOCKED: REMARK    4  A    between atoms: O_4  and  C_14 
DOCKED: REMARK    5  A    between atoms: C_13  and  C_14 
DOCKED: REMARK    6  A    between atoms: C_13  and  C_15 
DOCKED: USER                              x       y       z     vdW  Elec       q    Type
DOCKED: USER                           _______ _______ _______ _____ _____    ______ ____
DOCKED: ROOT
DOCKED: ATOM      1  C   UNL d   1      -6.194 -16.258  -4.685 -0.12 +0.29    +0.193 C 
DOCKED: ENDROOT
DOCKED: BRANCH   1   2
DOCKED: ATOM      2  O   UNL d   1      -5.126 -17.171  -5.108 -0.25 -0.66    -0.356 OA
DOCKED: BRANCH   2   3
DOCKED: ATOM      3  P   UNL d   1      -5.066 -17.860  -6.599 -0.07 -0.02    -0.014 P 
DOCKED: ATOM      4  O   UNL d   1      -5.972 -16.973  -7.468 -0.12 -1.13    -0.577 OA
DOCKED: ATOM      5  O   UNL d   1      -5.626 -19.275  -6.467 +0.01 -0.45    -0.577 OA
DOCKED: ATOM      6  O   UNL d   1      -3.618 -17.822  -7.078 -0.43 -1.08    -0.638 OA
DOCKED: ENDBRANCH   2   3
DOCKED: ENDBRANCH   1   2
DOCKED: BRANCH   1   7
DOCKED: ATOM      7  C   UNL d   1      -5.544 -14.908  -4.206 -0.15 +0.30    +0.201 C 
DOCKED: BRANCH   7   8
DOCKED: ATOM      8  O   UNL d   1      -5.502 -13.846  -5.185 -0.29 -0.66    -0.364 OA
DOCKED: BRANCH   8   9
DOCKED: ATOM      9  P   UNL d   1      -4.501 -12.549  -4.959 -0.53 -0.02    -0.015 P 
DOCKED: ATOM     10  O   UNL d   1      -3.748 -12.847  -3.657 -0.15 -0.48    -0.577 OA
DOCKED: ATOM     11  O   UNL d   1      -5.392 -11.314  -4.833 -0.60 -0.48    -0.577 OA
DOCKED: ATOM     12  O   UNL d   1      -3.562 -12.489  -6.164 -0.51 -1.03    -0.638 OA
DOCKED: ENDBRANCH   8   9
DOCKED: ENDBRANCH   7   8
DOCKED: ENDBRANCH   1   7
DOCKED: BRANCH   1  13
DOCKED: ATOM     13  C   UNL d   1      -6.996 -16.885  -3.484 -0.00 +0.10    +0.073 C 
DOCKED: ATOM     14  O   UNL d   1      -7.832 -17.824  -3.731 -0.03 -0.49    -0.547 OA
DOCKED: ATOM     15  O   UNL d   1      -6.714 -16.456  -2.307 -0.32 -1.08    -0.547 OA
DOCKED: ENDBRANCH   1  13
DOCKED: TORSDOF 6
DOCKED: TER
DOCKED: ENDMDL
________________________________________________________________________________


	BEGINNING GENETIC ALGORITHM DOCKING 44 of 100
Run: 44 Seed: 964160721 1753831127 [ Run 44 of 100 GA/GALS ]
Beginning LAMARCKIAN GENETIC ALGORITHM (LGA), with a maximum of 25000000 energy evaluations.

Final-Value: -8.361


	FINAL GENETIC ALGORITHM DOCKED STATE
	_______________________________________________


Detailed state:  trans -6.467 -16.846 -5.666 quatxyzw 0.069283 -0.649381 0.477487 -0.587801 center 0.015 0.083 0.031 ntor 6 -21.9270 -82.6563 178.0245 75.2083 45.0223 176.0581
State:	 -6.467 -16.846  -5.666   0.086 -0.803  0.590 -107.998    -21.93  -82.66  178.02   75.21   45.02  176.06

DOCKED: MODEL       44
DOCKED: USER    Run = 44
DOCKED: USER    DPF = D:/Protein_go_brrr/autodock/final/mut_N102T/2_3_BPG/dock.dpf
DOCKED: USER  
DOCKED: USER    Estimated Free Energy of Binding    =   -9.08 kcal/mol  [=(1)+(2)+(3)-(4)]
DOCKED: USER    Estimated Inhibition Constant, Ki   =  219.18 nM (nanomolar)  [Temperature = 298.15 K]
DOCKED: USER    
DOCKED: USER    (1) Final Intermolecular Energy     =  -10.87 kcal/mol
DOCKED: USER        vdW + Hbond + desolv Energy     =   -3.97 kcal/mol
DOCKED: USER        Electrostatic Energy            =   -6.91 kcal/mol
DOCKED: USER    (2) Final Total Internal Energy     =   +2.51 kcal/mol
DOCKED: USER    (3) Torsional Free Energy           =   +1.79 kcal/mol
DOCKED: USER    (4) Unbound System's Energy  [=(2)] =   +2.51 kcal/mol
DOCKED: USER    
DOCKED: USER    
DOCKED: USER    NEWDPF move 2_3_BPG_opt.pdbqt
DOCKED: USER    NEWDPF about 0.015000 0.083000 0.031000
DOCKED: USER    NEWDPF tran0 -6.466907 -16.846337 -5.666002
DOCKED: USER    NEWDPF quaternion0 0.069283 -0.649381 0.477487 -0.587801
DOCKED: USER    NEWDPF axisangle0 0.085640 -0.802691 0.590214 -107.997768
DOCKED: USER    NEWDPF quat0 0.085640 -0.802691 0.590214 -107.997768
DOCKED: USER    NEWDPF dihe0 -21.93 -82.66 178.02 75.21 45.02 176.06 
DOCKED: USER  keepresnum = 1 
DOCKED: USER  
DOCKED: REMARK  6 active torsions:
DOCKED: REMARK  status: ('A' for Active; 'I' for Inactive)
DOCKED: REMARK    1  A    between atoms: P_1  and  O_3 
DOCKED: REMARK    2  A    between atoms: P_2  and  O_4 
DOCKED: REMARK    3  A    between atoms: O_3  and  C_13 
DOCKED: REMARK    4  A    between atoms: O_4  and  C_14 
DOCKED: REMARK    5  A    between atoms: C_13  and  C_14 
DOCKED: REMARK    6  A    between atoms: C_13  and  C_15 
DOCKED: USER                              x       y       z     vdW  Elec       q    Type
DOCKED: USER                           _______ _______ _______ _____ _____    ______ ____
DOCKED: ROOT
DOCKED: ATOM      1  C   UNL d   1      -6.153 -17.355  -5.970 -0.10 +0.27    +0.193 C 
DOCKED: ENDROOT
DOCKED: BRANCH   1   2
DOCKED: ATOM      2  O   UNL d   1      -5.910 -16.972  -7.366 -0.14 -0.72    -0.356 OA
DOCKED: BRANCH   2   3
DOCKED: ATOM      3  P   UNL d   1      -7.108 -16.527  -8.402 -0.22 -0.02    -0.014 P 
DOCKED: ATOM      4  O   UNL d   1      -7.163 -14.996  -8.288 -0.61 -0.72    -0.577 OA
DOCKED: ATOM      5  O   UNL d   1      -8.399 -17.175  -7.905 +0.02 -0.31    -0.577 OA
DOCKED: ATOM      6  O   UNL d   1      -6.706 -16.970  -9.805 -0.58 -0.53    -0.638 OA
DOCKED: ENDBRANCH   2   3
DOCKED: ENDBRANCH   1   2
DOCKED: BRANCH   1   7
DOCKED: ATOM      7  C   UNL d   1      -6.619 -16.082  -5.172 -0.10 +0.27    +0.201 C 
DOCKED: BRANCH   7   8
DOCKED: ATOM      8  O   UNL d   1      -6.204 -14.809  -5.716 +0.07 -0.71    -0.364 OA
DOCKED: BRANCH   8   9
DOCKED: ATOM      9  P   UNL d   1      -5.524 -13.667  -4.731 -0.30 -0.02    -0.015 P 
DOCKED: ATOM     10  O   UNL d   1      -5.492 -14.309  -3.339 -0.03 -0.66    -0.577 OA
DOCKED: ATOM     11  O   UNL d   1      -6.435 -12.441  -4.774 -0.47 -0.52    -0.577 OA
DOCKED: ATOM     12  O   UNL d   1      -4.120 -13.389  -5.267 -0.46 -1.33    -0.638 OA
DOCKED: ENDBRANCH   8   9
DOCKED: ENDBRANCH   7   8
DOCKED: ENDBRANCH   1   7
DOCKED: BRANCH   1  13
DOCKED: ATOM     13  C   UNL d   1      -4.826 -17.900  -5.322 -0.17 +0.12    +0.073 C 
DOCKED: ATOM     14  O   UNL d   1      -3.708 -17.418  -5.720 -0.65 -1.05    -0.547 OA
DOCKED: ATOM     15  O   UNL d   1      -4.951 -18.760  -4.376 -0.22 -0.99    -0.547 OA
DOCKED: ENDBRANCH   1  13
DOCKED: TORSDOF 6
DOCKED: TER
DOCKED: ENDMDL
________________________________________________________________________________


	BEGINNING GENETIC ALGORITHM DOCKING 45 of 100
Run: 45 Seed: 1435917506 1139581739 [ Run 45 of 100 GA/GALS ]
Beginning LAMARCKIAN GENETIC ALGORITHM (LGA), with a maximum of 25000000 energy evaluations.

Final-Value: -8.707


	FINAL GENETIC ALGORITHM DOCKED STATE
	_______________________________________________


Detailed state:  trans -6.370 -15.290 -4.812 quatxyzw -0.554915 -0.806386 0.187472 -0.081635 center 0.015 0.083 0.031 ntor 6 151.9382 -55.7591 53.6985 15.2607 -18.3363 -133.7140
State:	 -6.370 -15.290  -4.812  -0.557 -0.809  0.188 -170.635    151.94  -55.76   53.70   15.26  -18.34 -133.71

DOCKED: MODEL       45
DOCKED: USER    Run = 45
DOCKED: USER    DPF = D:/Protein_go_brrr/autodock/final/mut_N102T/2_3_BPG/dock.dpf
DOCKED: USER  
DOCKED: USER    Estimated Free Energy of Binding    =   -9.00 kcal/mol  [=(1)+(2)+(3)-(4)]
DOCKED: USER    Estimated Inhibition Constant, Ki   =  251.38 nM (nanomolar)  [Temperature = 298.15 K]
DOCKED: USER    
DOCKED: USER    (1) Final Intermolecular Energy     =  -10.79 kcal/mol
DOCKED: USER        vdW + Hbond + desolv Energy     =   -4.06 kcal/mol
DOCKED: USER        Electrostatic Energy            =   -6.74 kcal/mol
DOCKED: USER    (2) Final Total Internal Energy     =   +2.09 kcal/mol
DOCKED: USER    (3) Torsional Free Energy           =   +1.79 kcal/mol
DOCKED: USER    (4) Unbound System's Energy  [=(2)] =   +2.09 kcal/mol
DOCKED: USER    
DOCKED: USER    
DOCKED: USER    NEWDPF move 2_3_BPG_opt.pdbqt
DOCKED: USER    NEWDPF about 0.015000 0.083000 0.031000
DOCKED: USER    NEWDPF tran0 -6.369582 -15.290237 -4.812384
DOCKED: USER    NEWDPF quaternion0 -0.554915 -0.806386 0.187472 -0.081635
DOCKED: USER    NEWDPF axisangle0 -0.556774 -0.809087 0.188100 -170.634901
DOCKED: USER    NEWDPF quat0 -0.556774 -0.809087 0.188100 -170.634901
DOCKED: USER    NEWDPF dihe0 151.94 -55.76 53.70 15.26 -18.34 -133.71 
DOCKED: USER  keepresnum = 1 
DOCKED: USER  
DOCKED: REMARK  6 active torsions:
DOCKED: REMARK  status: ('A' for Active; 'I' for Inactive)
DOCKED: REMARK    1  A    between atoms: P_1  and  O_3 
DOCKED: REMARK    2  A    between atoms: P_2  and  O_4 
DOCKED: REMARK    3  A    between atoms: O_3  and  C_13 
DOCKED: REMARK    4  A    between atoms: O_4  and  C_14 
DOCKED: REMARK    5  A    between atoms: C_13  and  C_14 
DOCKED: REMARK    6  A    between atoms: C_13  and  C_15 
DOCKED: USER                              x       y       z     vdW  Elec       q    Type
DOCKED: USER                           _______ _______ _______ _____ _____    ______ ____
DOCKED: ROOT
DOCKED: ATOM      1  C   UNL d   1      -6.454 -15.950  -4.730 -0.11 +0.27    +0.193 C 
DOCKED: ENDROOT
DOCKED: BRANCH   1   2
DOCKED: ATOM      2  O   UNL d   1      -5.156 -16.535  -4.374 +0.03 -0.69    -0.356 OA
DOCKED: BRANCH   2   3
DOCKED: ATOM      3  P   UNL d   1      -4.377 -17.641  -5.310 -0.15 -0.02    -0.014 P 
DOCKED: ATOM      4  O   UNL d   1      -3.036 -16.974  -5.655 -0.52 -1.13    -0.577 OA
DOCKED: ATOM      5  O   UNL d   1      -5.232 -17.862  -6.556 -0.25 -0.87    -0.577 OA
DOCKED: ATOM      6  O   UNL d   1      -4.177 -18.904  -4.479 -0.26 -1.07    -0.638 OA
DOCKED: ENDBRANCH   2   3
DOCKED: ENDBRANCH   1   2
DOCKED: BRANCH   1   7
DOCKED: ATOM      7  C   UNL d   1      -6.342 -14.384  -4.641 -0.15 +0.25    +0.201 C 
DOCKED: BRANCH   7   8
DOCKED: ATOM      8  O   UNL d   1      -5.019 -13.834  -4.826 -0.43 -0.63    -0.364 OA
DOCKED: BRANCH   8   9
DOCKED: ATOM      9  P   UNL d   1      -4.826 -12.220  -5.131 -0.55 -0.02    -0.015 P 
DOCKED: ATOM     10  O   UNL d   1      -4.034 -12.153  -6.442 -0.47 -0.82    -0.577 OA
DOCKED: ATOM     11  O   UNL d   1      -4.039 -11.635  -3.958 -0.03 -0.35    -0.577 OA
DOCKED: ATOM     12  O   UNL d   1      -6.223 -11.617  -5.273 -0.61 -0.54    -0.638 OA
DOCKED: ENDBRANCH   8   9
DOCKED: ENDBRANCH   7   8
DOCKED: ENDBRANCH   1   7
DOCKED: BRANCH   1  13
DOCKED: ATOM     13  C   UNL d   1      -7.560 -16.435  -3.720 -0.08 +0.07    +0.073 C 
DOCKED: ATOM     14  O   UNL d   1      -8.778 -16.461  -4.114 +0.02 -0.30    -0.547 OA
DOCKED: ATOM     15  O   UNL d   1      -7.160 -16.840  -2.570 -0.50 -0.86    -0.547 OA
DOCKED: ENDBRANCH   1  13
DOCKED: TORSDOF 6
DOCKED: TER
DOCKED: ENDMDL
________________________________________________________________________________


	BEGINNING GENETIC ALGORITHM DOCKING 46 of 100
Run: 46 Seed: 1891928839 386898215 [ Run 46 of 100 GA/GALS ]
Beginning LAMARCKIAN GENETIC ALGORITHM (LGA), with a maximum of 25000000 energy evaluations.

Final-Value: -9.403


	FINAL GENETIC ALGORITHM DOCKED STATE
	_______________________________________________


Detailed state:  trans -2.043 -16.190 -5.894 quatxyzw 0.673760 -0.673423 -0.277338 -0.125029 center 0.015 0.083 0.031 ntor 6 -155.7810 138.6030 -1.9280 1.0964 73.2429 -44.1949
State:	 -2.043 -16.190  -5.894   0.679 -0.679 -0.280 -165.635   -155.78  138.60   -1.93    1.10   73.24  -44.19

DOCKED: MODEL       46
DOCKED: USER    Run = 46
DOCKED: USER    DPF = D:/Protein_go_brrr/autodock/final/mut_N102T/2_3_BPG/dock.dpf
DOCKED: USER  
DOCKED: USER    Estimated Free Energy of Binding    =  -10.09 kcal/mol  [=(1)+(2)+(3)-(4)]
DOCKED: USER    Estimated Inhibition Constant, Ki   =   40.24 nM (nanomolar)  [Temperature = 298.15 K]
DOCKED: USER    
DOCKED: USER    (1) Final Intermolecular Energy     =  -11.88 kcal/mol
DOCKED: USER        vdW + Hbond + desolv Energy     =   -5.50 kcal/mol
DOCKED: USER        Electrostatic Energy            =   -6.38 kcal/mol
DOCKED: USER    (2) Final Total Internal Energy     =   +2.48 kcal/mol
DOCKED: USER    (3) Torsional Free Energy           =   +1.79 kcal/mol
DOCKED: USER    (4) Unbound System's Energy  [=(2)] =   +2.48 kcal/mol
DOCKED: USER    
DOCKED: USER    
DOCKED: USER    NEWDPF move 2_3_BPG_opt.pdbqt
DOCKED: USER    NEWDPF about 0.015000 0.083000 0.031000
DOCKED: USER    NEWDPF tran0 -2.043466 -16.189879 -5.894311
DOCKED: USER    NEWDPF quaternion0 0.673760 -0.673423 -0.277338 -0.125029
DOCKED: USER    NEWDPF axisangle0 0.679089 -0.678749 -0.279531 -165.635116
DOCKED: USER    NEWDPF quat0 0.679089 -0.678749 -0.279531 -165.635116
DOCKED: USER    NEWDPF dihe0 -155.78 138.60 -1.93 1.10 73.24 -44.19 
DOCKED: USER  keepresnum = 1 
DOCKED: USER  
DOCKED: REMARK  6 active torsions:
DOCKED: REMARK  status: ('A' for Active; 'I' for Inactive)
DOCKED: REMARK    1  A    between atoms: P_1  and  O_3 
DOCKED: REMARK    2  A    between atoms: P_2  and  O_4 
DOCKED: REMARK    3  A    between atoms: O_3  and  C_13 
DOCKED: REMARK    4  A    between atoms: O_4  and  C_14 
DOCKED: REMARK    5  A    between atoms: C_13  and  C_14 
DOCKED: REMARK    6  A    between atoms: C_13  and  C_15 
DOCKED: USER                              x       y       z     vdW  Elec       q    Type
DOCKED: USER                           _______ _______ _______ _____ _____    ______ ____
DOCKED: ROOT
DOCKED: ATOM      1  C   UNL d   1      -1.797 -15.579  -6.019 -0.15 +0.30    +0.193 C 
DOCKED: ENDROOT
DOCKED: BRANCH   1   2
DOCKED: ATOM      2  O   UNL d   1      -2.053 -14.735  -4.847 -0.29 -0.47    -0.356 OA
DOCKED: BRANCH   2   3
DOCKED: ATOM      3  P   UNL d   1      -2.716 -13.233  -4.944 -0.70 -0.02    -0.014 P 
DOCKED: ATOM      4  O   UNL d   1      -1.959 -12.554  -6.097 -0.17 -0.56    -0.577 OA
DOCKED: ATOM      5  O   UNL d   1      -2.452 -12.535  -3.611 -0.14 -0.31    -0.577 OA
DOCKED: ATOM      6  O   UNL d   1      -4.198 -13.392  -5.264 -0.46 -1.33    -0.638 OA
DOCKED: ENDBRANCH   2   3
DOCKED: ENDBRANCH   1   2
DOCKED: BRANCH   1   7
DOCKED: ATOM      7  C   UNL d   1      -2.101 -17.075  -5.639 -0.25 +0.27    +0.201 C 
DOCKED: BRANCH   7   8
DOCKED: ATOM      8  O   UNL d   1      -3.199 -17.694  -6.346 -0.64 -0.60    -0.364 OA
DOCKED: BRANCH   8   9
DOCKED: ATOM      9  P   UNL d   1      -4.656 -17.908  -5.591 -0.21 -0.02    -0.015 P 
DOCKED: ATOM     10  O   UNL d   1      -5.550 -18.587  -6.635 -0.03 -0.58    -0.577 OA
DOCKED: ATOM     11  O   UNL d   1      -5.171 -16.519  -5.215 -0.16 -1.22    -0.577 OA
DOCKED: ATOM     12  O   UNL d   1      -4.408 -18.803  -4.377 -0.25 -1.17    -0.638 OA
DOCKED: ENDBRANCH   8   9
DOCKED: ENDBRANCH   7   8
DOCKED: ENDBRANCH   1   7
DOCKED: BRANCH   1  13
DOCKED: ATOM     13  C   UNL d   1      -0.286 -15.465  -6.447 -0.59 +0.06    +0.073 C 
DOCKED: ATOM     14  O   UNL d   1       0.011 -14.728  -7.452 -0.77 -0.34    -0.547 OA
DOCKED: ATOM     15  O   UNL d   1       0.575 -16.074  -5.714 -0.71 -0.37    -0.547 OA
DOCKED: ENDBRANCH   1  13
DOCKED: TORSDOF 6
DOCKED: TER
DOCKED: ENDMDL
________________________________________________________________________________


	BEGINNING GENETIC ALGORITHM DOCKING 47 of 100
Run: 47 Seed: 774765138 2098239019 [ Run 47 of 100 GA/GALS ]
Beginning LAMARCKIAN GENETIC ALGORITHM (LGA), with a maximum of 25000000 energy evaluations.

Final-Value: -9.227


	FINAL GENETIC ALGORITHM DOCKED STATE
	_______________________________________________


Detailed state:  trans -2.191 -16.012 -5.580 quatxyzw 0.685721 -0.666036 -0.261301 -0.133809 center 0.015 0.083 0.031 ntor 6 41.0826 120.9152 44.7762 31.7792 24.6950 -55.2846
State:	 -2.191 -16.012  -5.580   0.692 -0.672 -0.264 -164.620     41.08  120.92   44.78   31.78   24.70  -55.28

DOCKED: MODEL       47
DOCKED: USER    Run = 47
DOCKED: USER    DPF = D:/Protein_go_brrr/autodock/final/mut_N102T/2_3_BPG/dock.dpf
DOCKED: USER  
DOCKED: USER    Estimated Free Energy of Binding    =   -9.63 kcal/mol  [=(1)+(2)+(3)-(4)]
DOCKED: USER    Estimated Inhibition Constant, Ki   =   87.44 nM (nanomolar)  [Temperature = 298.15 K]
DOCKED: USER    
DOCKED: USER    (1) Final Intermolecular Energy     =  -11.42 kcal/mol
DOCKED: USER        vdW + Hbond + desolv Energy     =   -5.17 kcal/mol
DOCKED: USER        Electrostatic Energy            =   -6.25 kcal/mol
DOCKED: USER    (2) Final Total Internal Energy     =   +2.19 kcal/mol
DOCKED: USER    (3) Torsional Free Energy           =   +1.79 kcal/mol
DOCKED: USER    (4) Unbound System's Energy  [=(2)] =   +2.19 kcal/mol
DOCKED: USER    
DOCKED: USER    
DOCKED: USER    NEWDPF move 2_3_BPG_opt.pdbqt
DOCKED: USER    NEWDPF about 0.015000 0.083000 0.031000
DOCKED: USER    NEWDPF tran0 -2.191122 -16.012032 -5.579832
DOCKED: USER    NEWDPF quaternion0 0.685721 -0.666036 -0.261301 -0.133809
DOCKED: USER    NEWDPF axisangle0 0.691943 -0.672080 -0.263672 -164.620466
DOCKED: USER    NEWDPF quat0 0.691943 -0.672080 -0.263672 -164.620466
DOCKED: USER    NEWDPF dihe0 41.08 120.92 44.78 31.78 24.70 -55.28 
DOCKED: USER  keepresnum = 1 
DOCKED: USER  
DOCKED: REMARK  6 active torsions:
DOCKED: REMARK  status: ('A' for Active; 'I' for Inactive)
DOCKED: REMARK    1  A    between atoms: P_1  and  O_3 
DOCKED: REMARK    2  A    between atoms: P_2  and  O_4 
DOCKED: REMARK    3  A    between atoms: O_3  and  C_13 
DOCKED: REMARK    4  A    between atoms: O_4  and  C_14 
DOCKED: REMARK    5  A    between atoms: C_13  and  C_14 
DOCKED: REMARK    6  A    between atoms: C_13  and  C_15 
DOCKED: USER                              x       y       z     vdW  Elec       q    Type
DOCKED: USER                           _______ _______ _______ _____ _____    ______ ____
DOCKED: ROOT
DOCKED: ATOM      1  C   UNL d   1      -1.964 -15.396  -5.717 -0.16 +0.31    +0.193 C 
DOCKED: ENDROOT
DOCKED: BRANCH   1   2
DOCKED: ATOM      2  O   UNL d   1      -2.267 -14.531  -4.572 -0.26 -0.46    -0.356 OA
DOCKED: BRANCH   2   3
DOCKED: ATOM      3  P   UNL d   1      -3.538 -13.488  -4.540 -0.53 -0.02    -0.014 P 
DOCKED: ATOM      4  O   UNL d   1      -3.240 -12.487  -5.668 -0.54 -0.74    -0.577 OA
DOCKED: ATOM      5  O   UNL d   1      -3.532 -12.810  -3.171 -0.15 -0.41    -0.577 OA
DOCKED: ATOM      6  O   UNL d   1      -4.808 -14.284  -4.818 -0.14 -1.26    -0.638 OA
DOCKED: ENDBRANCH   2   3
DOCKED: ENDBRANCH   1   2
DOCKED: BRANCH   1   7
DOCKED: ATOM      7  C   UNL d   1      -2.222 -16.892  -5.302 -0.19 +0.28    +0.201 C 
DOCKED: BRANCH   7   8
DOCKED: ATOM      8  O   UNL d   1      -3.432 -17.489  -5.817 -0.69 -0.66    -0.364 OA
DOCKED: BRANCH   8   9
DOCKED: ATOM      9  P   UNL d   1      -4.175 -18.710  -4.984 -0.14 -0.02    -0.015 P 
DOCKED: ATOM     10  O   UNL d   1      -4.480 -19.783  -6.035 +0.01 -0.44    -0.577 OA
DOCKED: ATOM     11  O   UNL d   1      -5.451 -18.125  -4.379 -0.04 -1.04    -0.577 OA
DOCKED: ATOM     12  O   UNL d   1      -3.185 -19.204  -3.929 -0.24 -1.04    -0.638 OA
DOCKED: ENDBRANCH   8   9
DOCKED: ENDBRANCH   7   8
DOCKED: ENDBRANCH   1   7
DOCKED: BRANCH   1  13
DOCKED: ATOM     13  C   UNL d   1      -0.452 -15.240  -6.126 -0.63 +0.06    +0.073 C 
DOCKED: ATOM     14  O   UNL d   1       0.399 -16.073  -5.653 -0.81 -0.39    -0.547 OA
DOCKED: ATOM     15  O   UNL d   1      -0.169 -14.314  -6.970 -0.66 -0.43    -0.547 OA
DOCKED: ENDBRANCH   1  13
DOCKED: TORSDOF 6
DOCKED: TER
DOCKED: ENDMDL
________________________________________________________________________________


	BEGINNING GENETIC ALGORITHM DOCKING 48 of 100
Run: 48 Seed: 1158310310 2028806424 [ Run 48 of 100 GA/GALS ]
Beginning LAMARCKIAN GENETIC ALGORITHM (LGA), with a maximum of 25000000 energy evaluations.

Final-Value: -8.997


	FINAL GENETIC ALGORITHM DOCKED STATE
	_______________________________________________


Detailed state:  trans -2.169 -16.024 -5.633 quatxyzw -0.651687 0.667425 0.342522 0.111925 center 0.015 0.083 0.031 ntor 6 -153.0724 96.8191 -135.4930 13.0246 -3.2113 -86.6699
State:	 -2.169 -16.024  -5.633  -0.656  0.672  0.345 167.147   -153.07   96.82 -135.49   13.02   -3.21  -86.67

DOCKED: MODEL       48
DOCKED: USER    Run = 48
DOCKED: USER    DPF = D:/Protein_go_brrr/autodock/final/mut_N102T/2_3_BPG/dock.dpf
DOCKED: USER  
DOCKED: USER    Estimated Free Energy of Binding    =   -9.24 kcal/mol  [=(1)+(2)+(3)-(4)]
DOCKED: USER    Estimated Inhibition Constant, Ki   =  168.45 nM (nanomolar)  [Temperature = 298.15 K]
DOCKED: USER    
DOCKED: USER    (1) Final Intermolecular Energy     =  -11.03 kcal/mol
DOCKED: USER        vdW + Hbond + desolv Energy     =   -5.36 kcal/mol
DOCKED: USER        Electrostatic Energy            =   -5.67 kcal/mol
DOCKED: USER    (2) Final Total Internal Energy     =   +2.03 kcal/mol
DOCKED: USER    (3) Torsional Free Energy           =   +1.79 kcal/mol
DOCKED: USER    (4) Unbound System's Energy  [=(2)] =   +2.03 kcal/mol
DOCKED: USER    
DOCKED: USER    
DOCKED: USER    NEWDPF move 2_3_BPG_opt.pdbqt
DOCKED: USER    NEWDPF about 0.015000 0.083000 0.031000
DOCKED: USER    NEWDPF tran0 -2.169369 -16.024320 -5.633193
DOCKED: USER    NEWDPF quaternion0 -0.651687 0.667425 0.342522 0.111925
DOCKED: USER    NEWDPF axisangle0 -0.655807 0.671645 0.344687 167.147427
DOCKED: USER    NEWDPF quat0 -0.655807 0.671645 0.344687 167.147427
DOCKED: USER    NEWDPF dihe0 -153.07 96.82 -135.49 13.02 -3.21 -86.67 
DOCKED: USER  keepresnum = 1 
DOCKED: USER  
DOCKED: REMARK  6 active torsions:
DOCKED: REMARK  status: ('A' for Active; 'I' for Inactive)
DOCKED: REMARK    1  A    between atoms: P_1  and  O_3 
DOCKED: REMARK    2  A    between atoms: P_2  and  O_4 
DOCKED: REMARK    3  A    between atoms: O_3  and  C_13 
DOCKED: REMARK    4  A    between atoms: O_4  and  C_14 
DOCKED: REMARK    5  A    between atoms: C_13  and  C_14 
DOCKED: REMARK    6  A    between atoms: C_13  and  C_15 
DOCKED: USER                              x       y       z     vdW  Elec       q    Type
DOCKED: USER                           _______ _______ _______ _____ _____    ______ ____
DOCKED: ROOT
DOCKED: ATOM      1  C   UNL d   1      -1.904 -15.414  -5.716 -0.22 +0.30    +0.193 C 
DOCKED: ENDROOT
DOCKED: BRANCH   1   2
DOCKED: ATOM      2  O   UNL d   1      -2.022 -14.688  -4.447 -0.21 -0.43    -0.356 OA
DOCKED: BRANCH   2   3
DOCKED: ATOM      3  P   UNL d   1      -2.866 -13.286  -4.285 -0.74 -0.01    -0.014 P 
DOCKED: ATOM      4  O   UNL d   1      -1.855 -12.186  -4.647 -0.09 -0.32    -0.577 OA
DOCKED: ATOM      5  O   UNL d   1      -3.304 -13.188  -2.825 -0.14 -0.42    -0.577 OA
DOCKED: ATOM      6  O   UNL d   1      -4.031 -13.321  -5.268 -0.48 -1.29    -0.638 OA
DOCKED: ENDBRANCH   2   3
DOCKED: ENDBRANCH   1   2
DOCKED: BRANCH   1   7
DOCKED: ATOM      7  C   UNL d   1      -2.250 -16.928  -5.465 -0.21 +0.29    +0.201 C 
DOCKED: BRANCH   7   8
DOCKED: ATOM      8  O   UNL d   1      -3.645 -17.227  -5.237 -0.57 -0.70    -0.364 OA
DOCKED: BRANCH   8   9
DOCKED: ATOM      9  P   UNL d   1      -4.126 -18.786  -4.966 -0.14 -0.02    -0.015 P 
DOCKED: ATOM     10  O   UNL d   1      -3.137 -19.335  -3.931 -0.30 -0.88    -0.577 OA
DOCKED: ATOM     11  O   UNL d   1      -4.022 -19.524  -6.301 -0.00 -0.46    -0.577 OA
DOCKED: ATOM     12  O   UNL d   1      -5.553 -18.730  -4.423 -0.13 -1.00    -0.638 OA
DOCKED: ENDBRANCH   8   9
DOCKED: ENDBRANCH   7   8
DOCKED: ENDBRANCH   1   7
DOCKED: BRANCH   1  13
DOCKED: ATOM     13  C   UNL d   1      -0.429 -15.317  -6.258 -0.63 +0.06    +0.073 C 
DOCKED: ATOM     14  O   UNL d   1      -0.168 -14.455  -7.169 -0.70 -0.41    -0.547 OA
DOCKED: ATOM     15  O   UNL d   1       0.447 -16.074  -5.703 -0.82 -0.38    -0.547 OA
DOCKED: ENDBRANCH   1  13
DOCKED: TORSDOF 6
DOCKED: TER
DOCKED: ENDMDL
________________________________________________________________________________


	BEGINNING GENETIC ALGORITHM DOCKING 49 of 100
Run: 49 Seed: 1859312400 1401345910 [ Run 49 of 100 GA/GALS ]
Beginning LAMARCKIAN GENETIC ALGORITHM (LGA), with a maximum of 25000000 energy evaluations.

Final-Value: -8.970


	FINAL GENETIC ALGORITHM DOCKED STATE
	_______________________________________________


Detailed state:  trans -5.767 -14.910 -4.113 quatxyzw 0.277798 -0.588123 0.492287 0.578440 center 0.015 0.083 0.031 ntor 6 -74.6123 16.7629 -26.4544 93.6977 83.9632 13.5760
State:	 -5.767 -14.910  -4.113   0.341 -0.721  0.603 109.318    -74.61   16.76  -26.45   93.70   83.96   13.58

DOCKED: MODEL       49
DOCKED: USER    Run = 49
DOCKED: USER    DPF = D:/Protein_go_brrr/autodock/final/mut_N102T/2_3_BPG/dock.dpf
DOCKED: USER  
DOCKED: USER    Estimated Free Energy of Binding    =   -9.54 kcal/mol  [=(1)+(2)+(3)-(4)]
DOCKED: USER    Estimated Inhibition Constant, Ki   =  101.06 nM (nanomolar)  [Temperature = 298.15 K]
DOCKED: USER    
DOCKED: USER    (1) Final Intermolecular Energy     =  -11.33 kcal/mol
DOCKED: USER        vdW + Hbond + desolv Energy     =   -3.96 kcal/mol
DOCKED: USER        Electrostatic Energy            =   -7.37 kcal/mol
DOCKED: USER    (2) Final Total Internal Energy     =   +2.36 kcal/mol
DOCKED: USER    (3) Torsional Free Energy           =   +1.79 kcal/mol
DOCKED: USER    (4) Unbound System's Energy  [=(2)] =   +2.36 kcal/mol
DOCKED: USER    
DOCKED: USER    
DOCKED: USER    NEWDPF move 2_3_BPG_opt.pdbqt
DOCKED: USER    NEWDPF about 0.015000 0.083000 0.031000
DOCKED: USER    NEWDPF tran0 -5.767209 -14.909618 -4.113030
DOCKED: USER    NEWDPF quaternion0 0.277798 -0.588123 0.492287 0.578440
DOCKED: USER    NEWDPF axisangle0 0.340553 -0.720982 0.603496 109.318146
DOCKED: USER    NEWDPF quat0 0.340553 -0.720982 0.603496 109.318146
DOCKED: USER    NEWDPF dihe0 -74.61 16.76 -26.45 93.70 83.96 13.58 
DOCKED: USER  keepresnum = 1 
DOCKED: USER  
DOCKED: REMARK  6 active torsions:
DOCKED: REMARK  status: ('A' for Active; 'I' for Inactive)
DOCKED: REMARK    1  A    between atoms: P_1  and  O_3 
DOCKED: REMARK    2  A    between atoms: P_2  and  O_4 
DOCKED: REMARK    3  A    between atoms: O_3  and  C_13 
DOCKED: REMARK    4  A    between atoms: O_4  and  C_14 
DOCKED: REMARK    5  A    between atoms: C_13  and  C_14 
DOCKED: REMARK    6  A    between atoms: C_13  and  C_15 
DOCKED: USER                              x       y       z     vdW  Elec       q    Type
DOCKED: USER                           _______ _______ _______ _____ _____    ______ ____
DOCKED: ROOT
DOCKED: ATOM      1  C   UNL d   1      -5.651 -14.521  -3.579 -0.17 +0.24    +0.193 C 
DOCKED: ENDROOT
DOCKED: BRANCH   1   2
DOCKED: ATOM      2  O   UNL d   1      -5.885 -13.126  -3.970 -0.24 -0.34    -0.356 OA
DOCKED: BRANCH   2   3
DOCKED: ATOM      3  P   UNL d   1      -5.459 -12.515  -5.436 -0.43 -0.02    -0.014 P 
DOCKED: ATOM      4  O   UNL d   1      -5.590 -10.993  -5.269 -0.57 -0.43    -0.577 OA
DOCKED: ATOM      5  O   UNL d   1      -6.455 -13.057  -6.459 -0.08 -0.70    -0.577 OA
DOCKED: ATOM      6  O   UNL d   1      -4.016 -12.925  -5.715 -0.55 -1.31    -0.638 OA
DOCKED: ENDBRANCH   2   3
DOCKED: ENDBRANCH   1   2
DOCKED: BRANCH   1   7
DOCKED: ATOM      7  C   UNL d   1      -6.194 -15.462  -4.717 -0.12 +0.30    +0.201 C 
DOCKED: BRANCH   7   8
DOCKED: ATOM      8  O   UNL d   1      -5.903 -16.869  -4.565 -0.09 -0.60    -0.364 OA
DOCKED: BRANCH   8   9
DOCKED: ATOM      9  P   UNL d   1      -4.553 -17.517  -5.267 -0.15 -0.03    -0.015 P 
DOCKED: ATOM     10  O   UNL d   1      -4.232 -18.765  -4.436 -0.24 -1.03    -0.577 OA
DOCKED: ATOM     11  O   UNL d   1      -3.449 -16.465  -5.166 -0.29 -1.28    -0.577 OA
DOCKED: ATOM     12  O   UNL d   1      -4.917 -17.866  -6.709 -0.35 -1.03    -0.638 OA
DOCKED: ENDBRANCH   8   9
DOCKED: ENDBRANCH   7   8
DOCKED: ENDBRANCH   1   7
DOCKED: BRANCH   1  13
DOCKED: ATOM     13  C   UNL d   1      -6.422 -14.845  -2.246 -0.20 +0.07    +0.073 C 
DOCKED: ATOM     14  O   UNL d   1      -6.767 -13.872  -1.487 -0.07 -0.32    -0.547 OA
DOCKED: ATOM     15  O   UNL d   1      -6.717 -16.075  -2.028 -0.42 -0.89    -0.547 OA
DOCKED: ENDBRANCH   1  13
DOCKED: TORSDOF 6
DOCKED: TER
DOCKED: ENDMDL
________________________________________________________________________________


	BEGINNING GENETIC ALGORITHM DOCKING 50 of 100
Run: 50 Seed: 1642039219 1113355723 [ Run 50 of 100 GA/GALS ]
Beginning LAMARCKIAN GENETIC ALGORITHM (LGA), with a maximum of 25000000 energy evaluations.

Final-Value: -8.877


	FINAL GENETIC ALGORITHM DOCKED STATE
	_______________________________________________


Detailed state:  trans -6.417 -15.147 -4.367 quatxyzw 0.475613 0.726718 -0.433350 0.240585 center 0.015 0.083 0.031 ntor 6 -135.4871 -153.8342 13.8227 14.5223 -28.3509 -167.3780
State:	 -6.417 -15.147  -4.367   0.490  0.749 -0.446 152.158   -135.49 -153.83   13.82   14.52  -28.35 -167.38

DOCKED: MODEL       50
DOCKED: USER    Run = 50
DOCKED: USER    DPF = D:/Protein_go_brrr/autodock/final/mut_N102T/2_3_BPG/dock.dpf
DOCKED: USER  
DOCKED: USER    Estimated Free Energy of Binding    =   -9.29 kcal/mol  [=(1)+(2)+(3)-(4)]
DOCKED: USER    Estimated Inhibition Constant, Ki   =  155.09 nM (nanomolar)  [Temperature = 298.15 K]
DOCKED: USER    
DOCKED: USER    (1) Final Intermolecular Energy     =  -11.08 kcal/mol
DOCKED: USER        vdW + Hbond + desolv Energy     =   -3.78 kcal/mol
DOCKED: USER        Electrostatic Energy            =   -7.30 kcal/mol
DOCKED: USER    (2) Final Total Internal Energy     =   +2.20 kcal/mol
DOCKED: USER    (3) Torsional Free Energy           =   +1.79 kcal/mol
DOCKED: USER    (4) Unbound System's Energy  [=(2)] =   +2.20 kcal/mol
DOCKED: USER    
DOCKED: USER    
DOCKED: USER    NEWDPF move 2_3_BPG_opt.pdbqt
DOCKED: USER    NEWDPF about 0.015000 0.083000 0.031000
DOCKED: USER    NEWDPF tran0 -6.416688 -15.147024 -4.366786
DOCKED: USER    NEWDPF quaternion0 0.475613 0.726718 -0.433350 0.240585
DOCKED: USER    NEWDPF axisangle0 0.490006 0.748709 -0.446463 152.157894
DOCKED: USER    NEWDPF quat0 0.490006 0.748709 -0.446463 152.157894
DOCKED: USER    NEWDPF dihe0 -135.49 -153.83 13.82 14.52 -28.35 -167.38 
DOCKED: USER  keepresnum = 1 
DOCKED: USER  
DOCKED: REMARK  6 active torsions:
DOCKED: REMARK  status: ('A' for Active; 'I' for Inactive)
DOCKED: REMARK    1  A    between atoms: P_1  and  O_3 
DOCKED: REMARK    2  A    between atoms: P_2  and  O_4 
DOCKED: REMARK    3  A    between atoms: O_3  and  C_13 
DOCKED: REMARK    4  A    between atoms: O_4  and  C_14 
DOCKED: REMARK    5  A    between atoms: C_13  and  C_14 
DOCKED: REMARK    6  A    between atoms: C_13  and  C_15 
DOCKED: USER                              x       y       z     vdW  Elec       q    Type
DOCKED: USER                           _______ _______ _______ _____ _____    ______ ____
DOCKED: ROOT
DOCKED: ATOM      1  C   UNL d   1      -6.385 -15.765  -4.110 -0.11 +0.26    +0.193 C 
DOCKED: ENDROOT
DOCKED: BRANCH   1   2
DOCKED: ATOM      2  O   UNL d   1      -5.057 -16.315  -4.402 +0.02 -0.70    -0.356 OA
DOCKED: BRANCH   2   3
DOCKED: ATOM      3  P   UNL d   1      -4.817 -17.654  -5.327 -0.18 -0.02    -0.014 P 
DOCKED: ATOM      4  O   UNL d   1      -6.090 -17.763  -6.180 -0.04 -0.72    -0.577 OA
DOCKED: ATOM      5  O   UNL d   1      -4.674 -18.840  -4.376 -0.26 -1.04    -0.577 OA
DOCKED: ATOM      6  O   UNL d   1      -3.583 -17.415  -6.191 -0.61 -1.33    -0.638 OA
DOCKED: ENDBRANCH   2   3
DOCKED: ENDBRANCH   1   2
DOCKED: BRANCH   1   7
DOCKED: ATOM      7  C   UNL d   1      -6.380 -14.228  -4.443 -0.16 +0.23    +0.201 C 
DOCKED: BRANCH   7   8
DOCKED: ATOM      8  O   UNL d   1      -5.094 -13.658  -4.773 -0.44 -0.58    -0.364 OA
DOCKED: BRANCH   8   9
DOCKED: ATOM      9  P   UNL d   1      -5.004 -12.301  -5.714 -0.39 -0.02    -0.015 P 
DOCKED: ATOM     10  O   UNL d   1      -3.545 -12.236  -6.182 -0.50 -0.80    -0.577 OA
DOCKED: ATOM     11  O   UNL d   1      -5.371 -11.115  -4.822 -0.55 -0.46    -0.577 OA
DOCKED: ATOM     12  O   UNL d   1      -5.973 -12.495  -6.880 -0.06 -0.70    -0.638 OA
DOCKED: ENDBRANCH   8   9
DOCKED: ENDBRANCH   7   8
DOCKED: ENDBRANCH   1   7
DOCKED: BRANCH   1  13
DOCKED: ATOM     13  C   UNL d   1      -6.721 -15.949  -2.583 +0.12 +0.11    +0.073 C 
DOCKED: ATOM     14  O   UNL d   1      -7.168 -17.083  -2.187 -0.53 -0.97    -0.547 OA
DOCKED: ATOM     15  O   UNL d   1      -6.464 -14.960  -1.806 -0.09 -0.56    -0.547 OA
DOCKED: ENDBRANCH   1  13
DOCKED: TORSDOF 6
DOCKED: TER
DOCKED: ENDMDL
________________________________________________________________________________


	BEGINNING GENETIC ALGORITHM DOCKING 51 of 100
Run: 51 Seed: 118325749 1722958097 [ Run 51 of 100 GA/GALS ]
Beginning LAMARCKIAN GENETIC ALGORITHM (LGA), with a maximum of 25000000 energy evaluations.

Final-Value: -9.458


	FINAL GENETIC ALGORITHM DOCKED STATE
	_______________________________________________


Detailed state:  trans -2.107 -15.712 -5.647 quatxyzw 0.617332 -0.728297 -0.246782 -0.166084 center 0.015 0.083 0.031 ntor 6 34.3861 -122.1436 7.1226 58.8766 47.2214 -14.3892
State:	 -2.107 -15.712  -5.647   0.626 -0.739 -0.250 -160.880     34.39 -122.14    7.12   58.88   47.22  -14.39

DOCKED: MODEL       51
DOCKED: USER    Run = 51
DOCKED: USER    DPF = D:/Protein_go_brrr/autodock/final/mut_N102T/2_3_BPG/dock.dpf
DOCKED: USER  
DOCKED: USER    Estimated Free Energy of Binding    =   -9.98 kcal/mol  [=(1)+(2)+(3)-(4)]
DOCKED: USER    Estimated Inhibition Constant, Ki   =   48.55 nM (nanomolar)  [Temperature = 298.15 K]
DOCKED: USER    
DOCKED: USER    (1) Final Intermolecular Energy     =  -11.77 kcal/mol
DOCKED: USER        vdW + Hbond + desolv Energy     =   -5.71 kcal/mol
DOCKED: USER        Electrostatic Energy            =   -6.06 kcal/mol
DOCKED: USER    (2) Final Total Internal Energy     =   +2.31 kcal/mol
DOCKED: USER    (3) Torsional Free Energy           =   +1.79 kcal/mol
DOCKED: USER    (4) Unbound System's Energy  [=(2)] =   +2.31 kcal/mol
DOCKED: USER    
DOCKED: USER    
DOCKED: USER    NEWDPF move 2_3_BPG_opt.pdbqt
DOCKED: USER    NEWDPF about 0.015000 0.083000 0.031000
DOCKED: USER    NEWDPF tran0 -2.106689 -15.712487 -5.646779
DOCKED: USER    NEWDPF quaternion0 0.617332 -0.728297 -0.246782 -0.166084
DOCKED: USER    NEWDPF axisangle0 0.626026 -0.738554 -0.250257 -160.879621
DOCKED: USER    NEWDPF quat0 0.626026 -0.738554 -0.250257 -160.879621
DOCKED: USER    NEWDPF dihe0 34.39 -122.14 7.12 58.88 47.22 -14.39 
DOCKED: USER  keepresnum = 1 
DOCKED: USER  
DOCKED: REMARK  6 active torsions:
DOCKED: REMARK  status: ('A' for Active; 'I' for Inactive)
DOCKED: REMARK    1  A    between atoms: P_1  and  O_3 
DOCKED: REMARK    2  A    between atoms: P_2  and  O_4 
DOCKED: REMARK    3  A    between atoms: O_3  and  C_13 
DOCKED: REMARK    4  A    between atoms: O_4  and  C_14 
DOCKED: REMARK    5  A    between atoms: C_13  and  C_14 
DOCKED: REMARK    6  A    between atoms: C_13  and  C_15 
DOCKED: USER                              x       y       z     vdW  Elec       q    Type
DOCKED: USER                           _______ _______ _______ _____ _____    ______ ____
DOCKED: ROOT
DOCKED: ATOM      1  C   UNL d   1      -1.796 -15.159  -5.863 -0.20 +0.30    +0.193 C 
DOCKED: ENDROOT
DOCKED: BRANCH   1   2
DOCKED: ATOM      2  O   UNL d   1      -1.904 -14.136  -4.817 -0.34 -0.41    -0.356 OA
DOCKED: BRANCH   2   3
DOCKED: ATOM      3  P   UNL d   1      -3.299 -13.331  -4.484 -0.65 -0.02    -0.014 P 
DOCKED: ATOM      4  O   UNL d   1      -4.334 -14.441  -4.240 -0.13 -0.94    -0.577 OA
DOCKED: ATOM      5  O   UNL d   1      -3.647 -12.499  -5.716 -0.66 -0.83    -0.577 OA
DOCKED: ATOM      6  O   UNL d   1      -3.071 -12.493  -3.230 -0.08 -0.35    -0.638 OA
DOCKED: ENDBRANCH   2   3
DOCKED: ENDBRANCH   1   2
DOCKED: BRANCH   1   7
DOCKED: ATOM      7  C   UNL d   1      -2.257 -16.540  -5.267 -0.20 +0.30    +0.201 C 
DOCKED: BRANCH   7   8
DOCKED: ATOM      8  O   UNL d   1      -2.951 -17.420  -6.179 -0.67 -0.62    -0.364 OA
DOCKED: BRANCH   8   9
DOCKED: ATOM      9  P   UNL d   1      -4.395 -18.098  -5.741 -0.21 -0.02    -0.015 P 
DOCKED: ATOM     10  O   UNL d   1      -4.698 -19.131  -6.834 -0.02 -0.50    -0.577 OA
DOCKED: ATOM     11  O   UNL d   1      -5.428 -16.972  -5.717 -0.21 -1.13    -0.577 OA
DOCKED: ATOM     12  O   UNL d   1      -4.190 -18.752  -4.375 -0.23 -1.17    -0.638 OA
DOCKED: ENDBRANCH   8   9
DOCKED: ENDBRANCH   7   8
DOCKED: ENDBRANCH   1   7
DOCKED: BRANCH   1  13
DOCKED: ATOM     13  C   UNL d   1      -0.300 -15.289  -6.337 -0.56 +0.06    +0.073 C 
DOCKED: ATOM     14  O   UNL d   1       0.472 -16.097  -5.711 -0.80 -0.37    -0.547 OA
DOCKED: ATOM     15  O   UNL d   1       0.042 -14.616  -7.376 -0.75 -0.35    -0.547 OA
DOCKED: ENDBRANCH   1  13
DOCKED: TORSDOF 6
DOCKED: TER
DOCKED: ENDMDL
________________________________________________________________________________


	BEGINNING GENETIC ALGORITHM DOCKING 52 of 100
Run: 52 Seed: 207098626 1448374013 [ Run 52 of 100 GA/GALS ]
Beginning LAMARCKIAN GENETIC ALGORITHM (LGA), with a maximum of 25000000 energy evaluations.

Final-Value: -8.543


	FINAL GENETIC ALGORITHM DOCKED STATE
	_______________________________________________


Detailed state:  trans -2.064 -15.997 -5.204 quatxyzw -0.021288 0.239576 -0.608105 0.756544 center 0.015 0.083 0.031 ntor 6 -130.8249 175.9010 -179.9796 27.2783 0.5058 -80.1875
State:	 -2.064 -15.997  -5.204  -0.033  0.366 -0.930 81.679   -130.82  175.90 -179.98   27.28    0.51  -80.19

DOCKED: MODEL       52
DOCKED: USER    Run = 52
DOCKED: USER    DPF = D:/Protein_go_brrr/autodock/final/mut_N102T/2_3_BPG/dock.dpf
DOCKED: USER  
DOCKED: USER    Estimated Free Energy of Binding    =   -8.85 kcal/mol  [=(1)+(2)+(3)-(4)]
DOCKED: USER    Estimated Inhibition Constant, Ki   =  325.51 nM (nanomolar)  [Temperature = 298.15 K]
DOCKED: USER    
DOCKED: USER    (1) Final Intermolecular Energy     =  -10.64 kcal/mol
DOCKED: USER        vdW + Hbond + desolv Energy     =   -4.67 kcal/mol
DOCKED: USER        Electrostatic Energy            =   -5.97 kcal/mol
DOCKED: USER    (2) Final Total Internal Energy     =   +2.10 kcal/mol
DOCKED: USER    (3) Torsional Free Energy           =   +1.79 kcal/mol
DOCKED: USER    (4) Unbound System's Energy  [=(2)] =   +2.10 kcal/mol
DOCKED: USER    
DOCKED: USER    
DOCKED: USER    NEWDPF move 2_3_BPG_opt.pdbqt
DOCKED: USER    NEWDPF about 0.015000 0.083000 0.031000
DOCKED: USER    NEWDPF tran0 -2.063913 -15.996508 -5.204250
DOCKED: USER    NEWDPF quaternion0 -0.021288 0.239576 -0.608105 0.756544
DOCKED: USER    NEWDPF axisangle0 -0.032553 0.366356 -0.929905 81.679148
DOCKED: USER    NEWDPF quat0 -0.032553 0.366356 -0.929905 81.679148
DOCKED: USER    NEWDPF dihe0 -130.82 175.90 -179.98 27.28 0.51 -80.19 
DOCKED: USER  keepresnum = 1 
DOCKED: USER  
DOCKED: REMARK  6 active torsions:
DOCKED: REMARK  status: ('A' for Active; 'I' for Inactive)
DOCKED: REMARK    1  A    between atoms: P_1  and  O_3 
DOCKED: REMARK    2  A    between atoms: P_2  and  O_4 
DOCKED: REMARK    3  A    between atoms: O_3  and  C_13 
DOCKED: REMARK    4  A    between atoms: O_4  and  C_14 
DOCKED: REMARK    5  A    between atoms: C_13  and  C_14 
DOCKED: REMARK    6  A    between atoms: C_13  and  C_15 
DOCKED: USER                              x       y       z     vdW  Elec       q    Type
DOCKED: USER                           _______ _______ _______ _____ _____    ______ ____
DOCKED: ROOT
DOCKED: ATOM      1  C   UNL d   1      -1.890 -16.641  -5.269 -0.22 +0.25    +0.193 C 
DOCKED: ENDROOT
DOCKED: BRANCH   1   2
DOCKED: ATOM      2  O   UNL d   1      -2.569 -17.181  -6.452 -0.51 -0.60    -0.356 OA
DOCKED: BRANCH   2   3
DOCKED: ATOM      3  P   UNL d   1      -3.868 -18.186  -6.367 -0.18 -0.02    -0.014 P 
DOCKED: ATOM      4  O   UNL d   1      -3.991 -18.529  -4.874 -0.14 -0.88    -0.577 OA
DOCKED: ATOM      5  O   UNL d   1      -3.540 -19.422  -7.202 -0.02 -0.40    -0.577 OA
DOCKED: ATOM      6  O   UNL d   1      -5.089 -17.421  -6.868 -0.17 -1.32    -0.638 OA
DOCKED: ENDBRANCH   2   3
DOCKED: ENDBRANCH   1   2
DOCKED: BRANCH   1   7
DOCKED: ATOM      7  C   UNL d   1      -2.049 -15.076  -5.266 -0.32 +0.30    +0.201 C 
DOCKED: BRANCH   7   8
DOCKED: ATOM      8  O   UNL d   1      -3.320 -14.571  -4.800 -0.27 -0.69    -0.364 OA
DOCKED: BRANCH   8   9
DOCKED: ATOM      9  P   UNL d   1      -3.632 -12.947  -4.836 -0.60 -0.02    -0.015 P 
DOCKED: ATOM     10  O   UNL d   1      -2.386 -12.316  -5.469 -0.20 -0.51    -0.577 OA
DOCKED: ATOM     11  O   UNL d   1      -3.827 -12.498  -3.388 -0.12 -0.41    -0.577 OA
DOCKED: ATOM     12  O   UNL d   1      -4.877 -12.746  -5.698 -0.54 -1.09    -0.638 OA
DOCKED: ENDBRANCH   8   9
DOCKED: ENDBRANCH   7   8
DOCKED: ENDBRANCH   1   7
DOCKED: BRANCH   1  13
DOCKED: ATOM     13  C   UNL d   1      -0.357 -16.992  -5.319 -0.45 +0.05    +0.073 C 
DOCKED: ATOM     14  O   UNL d   1       0.008 -18.183  -5.017 -0.12 -0.26    -0.547 OA
DOCKED: ATOM     15  O   UNL d   1       0.439 -16.071  -5.726 -0.82 -0.38    -0.547 OA
DOCKED: ENDBRANCH   1  13
DOCKED: TORSDOF 6
DOCKED: TER
DOCKED: ENDMDL
________________________________________________________________________________


	BEGINNING GENETIC ALGORITHM DOCKING 53 of 100
Run: 53 Seed: 277692349 673241972 [ Run 53 of 100 GA/GALS ]
Beginning LAMARCKIAN GENETIC ALGORITHM (LGA), with a maximum of 25000000 energy evaluations.

Final-Value: -8.706


	FINAL GENETIC ALGORITHM DOCKED STATE
	_______________________________________________


Detailed state:  trans -5.844 -15.681 -4.547 quatxyzw 0.724881 0.646717 -0.133829 0.195947 center 0.015 0.083 0.031 ntor 6 153.6623 16.4101 159.5787 70.0026 -1.1881 -21.6331
State:	 -5.844 -15.681  -4.547   0.739  0.660 -0.136 157.400    153.66   16.41  159.58   70.00   -1.19  -21.63

DOCKED: MODEL       53
DOCKED: USER    Run = 53
DOCKED: USER    DPF = D:/Protein_go_brrr/autodock/final/mut_N102T/2_3_BPG/dock.dpf
DOCKED: USER  
DOCKED: USER    Estimated Free Energy of Binding    =   -8.95 kcal/mol  [=(1)+(2)+(3)-(4)]
DOCKED: USER    Estimated Inhibition Constant, Ki   =  274.46 nM (nanomolar)  [Temperature = 298.15 K]
DOCKED: USER    
DOCKED: USER    (1) Final Intermolecular Energy     =  -10.74 kcal/mol
DOCKED: USER        vdW + Hbond + desolv Energy     =   -4.04 kcal/mol
DOCKED: USER        Electrostatic Energy            =   -6.70 kcal/mol
DOCKED: USER    (2) Final Total Internal Energy     =   +2.04 kcal/mol
DOCKED: USER    (3) Torsional Free Energy           =   +1.79 kcal/mol
DOCKED: USER    (4) Unbound System's Energy  [=(2)] =   +2.04 kcal/mol
DOCKED: USER    
DOCKED: USER    
DOCKED: USER    NEWDPF move 2_3_BPG_opt.pdbqt
DOCKED: USER    NEWDPF about 0.015000 0.083000 0.031000
DOCKED: USER    NEWDPF tran0 -5.843637 -15.681081 -4.546797
DOCKED: USER    NEWDPF quaternion0 0.724881 0.646717 -0.133829 0.195947
DOCKED: USER    NEWDPF axisangle0 0.739211 0.659501 -0.136474 157.399950
DOCKED: USER    NEWDPF quat0 0.739211 0.659501 -0.136474 157.399950
DOCKED: USER    NEWDPF dihe0 153.66 16.41 159.58 70.00 -1.19 -21.63 
DOCKED: USER  keepresnum = 1 
DOCKED: USER  
DOCKED: REMARK  6 active torsions:
DOCKED: REMARK  status: ('A' for Active; 'I' for Inactive)
DOCKED: REMARK    1  A    between atoms: P_1  and  O_3 
DOCKED: REMARK    2  A    between atoms: P_2  and  O_4 
DOCKED: REMARK    3  A    between atoms: O_3  and  C_13 
DOCKED: REMARK    4  A    between atoms: O_4  and  C_14 
DOCKED: REMARK    5  A    between atoms: C_13  and  C_14 
DOCKED: REMARK    6  A    between atoms: C_13  and  C_15 
DOCKED: USER                              x       y       z     vdW  Elec       q    Type
DOCKED: USER                           _______ _______ _______ _____ _____    ______ ____
DOCKED: ROOT
DOCKED: ATOM      1  C   UNL d   1      -6.236 -16.224  -4.522 -0.11 +0.28    +0.193 C 
DOCKED: ENDROOT
DOCKED: BRANCH   1   2
DOCKED: ATOM      2  O   UNL d   1      -5.376 -17.404  -4.378 -0.02 -0.68    -0.356 OA
DOCKED: BRANCH   2   3
DOCKED: ATOM      3  P   UNL d   1      -4.269 -17.856  -5.506 -0.20 -0.02    -0.014 P 
DOCKED: ATOM      4  O   UNL d   1      -3.855 -19.276  -5.089 -0.11 -0.66    -0.577 OA
DOCKED: ATOM      5  O   UNL d   1      -3.099 -16.879  -5.410 -0.48 -1.13    -0.577 OA
DOCKED: ATOM      6  O   UNL d   1      -4.955 -17.851  -6.869 -0.31 -1.03    -0.638 OA
DOCKED: ENDBRANCH   2   3
DOCKED: ENDBRANCH   1   2
DOCKED: BRANCH   1   7
DOCKED: ATOM      7  C   UNL d   1      -5.366 -14.934  -4.291 -0.14 +0.32    +0.201 C 
DOCKED: BRANCH   7   8
DOCKED: ATOM      8  O   UNL d   1      -5.612 -13.837  -5.198 -0.28 -0.64    -0.364 OA
DOCKED: BRANCH   8   9
DOCKED: ATOM      9  P   UNL d   1      -4.723 -12.447  -5.079 -0.53 -0.02    -0.015 P 
DOCKED: ATOM     10  O   UNL d   1      -4.106 -12.487  -3.676 -0.12 -0.46    -0.577 OA
DOCKED: ATOM     11  O   UNL d   1      -5.697 -11.280  -5.242 -0.64 -0.47    -0.577 OA
DOCKED: ATOM     12  O   UNL d   1      -3.660 -12.496  -6.176 -0.51 -1.06    -0.638 OA
DOCKED: ENDBRANCH   8   9
DOCKED: ENDBRANCH   7   8
DOCKED: ENDBRANCH   1   7
DOCKED: BRANCH   1  13
DOCKED: ATOM     13  C   UNL d   1      -7.383 -16.258  -3.444 -0.08 +0.08    +0.073 C 
DOCKED: ATOM     14  O   UNL d   1      -8.489 -15.667  -3.709 +0.03 -0.32    -0.547 OA
DOCKED: ATOM     15  O   UNL d   1      -7.161 -16.937  -2.377 -0.53 -0.92    -0.547 OA
DOCKED: ENDBRANCH   1  13
DOCKED: TORSDOF 6
DOCKED: TER
DOCKED: ENDMDL
________________________________________________________________________________


	BEGINNING GENETIC ALGORITHM DOCKING 54 of 100
Run: 54 Seed: 1475788912 1108167835 [ Run 54 of 100 GA/GALS ]
Beginning LAMARCKIAN GENETIC ALGORITHM (LGA), with a maximum of 25000000 energy evaluations.

Final-Value: -8.845


	FINAL GENETIC ALGORITHM DOCKED STATE
	_______________________________________________


Detailed state:  trans -6.396 -15.368 -4.718 quatxyzw 0.445461 0.784296 -0.381080 0.203035 center 0.015 0.083 0.031 ntor 6 -136.7118 -28.3068 31.9590 0.1868 -38.0447 -171.8216
State:	 -6.396 -15.368  -4.718   0.455  0.801 -0.389 156.571   -136.71  -28.31   31.96    0.19  -38.04 -171.82

DOCKED: MODEL       54
DOCKED: USER    Run = 54
DOCKED: USER    DPF = D:/Protein_go_brrr/autodock/final/mut_N102T/2_3_BPG/dock.dpf
DOCKED: USER  
DOCKED: USER    Estimated Free Energy of Binding    =   -9.31 kcal/mol  [=(1)+(2)+(3)-(4)]
DOCKED: USER    Estimated Inhibition Constant, Ki   =  149.40 nM (nanomolar)  [Temperature = 298.15 K]
DOCKED: USER    
DOCKED: USER    (1) Final Intermolecular Energy     =  -11.10 kcal/mol
DOCKED: USER        vdW + Hbond + desolv Energy     =   -3.87 kcal/mol
DOCKED: USER        Electrostatic Energy            =   -7.23 kcal/mol
DOCKED: USER    (2) Final Total Internal Energy     =   +2.26 kcal/mol
DOCKED: USER    (3) Torsional Free Energy           =   +1.79 kcal/mol
DOCKED: USER    (4) Unbound System's Energy  [=(2)] =   +2.26 kcal/mol
DOCKED: USER    
DOCKED: USER    
DOCKED: USER    NEWDPF move 2_3_BPG_opt.pdbqt
DOCKED: USER    NEWDPF about 0.015000 0.083000 0.031000
DOCKED: USER    NEWDPF tran0 -6.396460 -15.368002 -4.718472
DOCKED: USER    NEWDPF quaternion0 0.445461 0.784296 -0.381080 0.203035
DOCKED: USER    NEWDPF axisangle0 0.454936 0.800979 -0.389186 156.570992
DOCKED: USER    NEWDPF quat0 0.454936 0.800979 -0.389186 156.570992
DOCKED: USER    NEWDPF dihe0 -136.71 -28.31 31.96 0.19 -38.04 -171.82 
DOCKED: USER  keepresnum = 1 
DOCKED: USER  
DOCKED: REMARK  6 active torsions:
DOCKED: REMARK  status: ('A' for Active; 'I' for Inactive)
DOCKED: REMARK    1  A    between atoms: P_1  and  O_3 
DOCKED: REMARK    2  A    between atoms: P_2  and  O_4 
DOCKED: REMARK    3  A    between atoms: O_3  and  C_13 
DOCKED: REMARK    4  A    between atoms: O_4  and  C_14 
DOCKED: REMARK    5  A    between atoms: C_13  and  C_14 
DOCKED: REMARK    6  A    between atoms: C_13  and  C_15 
DOCKED: USER                              x       y       z     vdW  Elec       q    Type
DOCKED: USER                           _______ _______ _______ _____ _____    ______ ____
DOCKED: ROOT
DOCKED: ATOM      1  C   UNL d   1      -6.322 -16.004  -4.522 -0.12 +0.27    +0.193 C 
DOCKED: ENDROOT
DOCKED: BRANCH   1   2
DOCKED: ATOM      2  O   UNL d   1      -4.918 -16.383  -4.718 -0.15 -0.73    -0.356 OA
DOCKED: BRANCH   2   3
DOCKED: ATOM      3  P   UNL d   1      -4.454 -17.777  -5.456 -0.16 -0.02    -0.014 P 
DOCKED: ATOM      4  O   UNL d   1      -3.137 -17.417  -6.162 -0.61 -1.05    -0.577 OA
DOCKED: ATOM      5  O   UNL d   1      -5.546 -18.144  -6.458 -0.08 -0.72    -0.577 OA
DOCKED: ATOM      6  O   UNL d   1      -4.240 -18.833  -4.377 -0.26 -1.15    -0.638 OA
DOCKED: ENDBRANCH   2   3
DOCKED: ENDBRANCH   1   2
DOCKED: BRANCH   1   7
DOCKED: ATOM      7  C   UNL d   1      -6.455 -14.447  -4.699 -0.14 +0.24    +0.201 C 
DOCKED: BRANCH   7   8
DOCKED: ATOM      8  O   UNL d   1      -5.214 -13.708  -4.726 -0.39 -0.56    -0.364 OA
DOCKED: BRANCH   8   9
DOCKED: ATOM      9  P   UNL d   1      -5.064 -12.374  -5.693 -0.36 -0.02    -0.015 P 
DOCKED: ATOM     10  O   UNL d   1      -3.602 -12.381  -6.158 -0.55 -0.88    -0.577 OA
DOCKED: ATOM     11  O   UNL d   1      -5.380 -11.156  -4.825 -0.58 -0.47    -0.577 OA
DOCKED: ATOM     12  O   UNL d   1      -6.038 -12.548  -6.857 -0.05 -0.71    -0.638 OA
DOCKED: ENDBRANCH   8   9
DOCKED: ENDBRANCH   7   8
DOCKED: ENDBRANCH   1   7
DOCKED: BRANCH   1  13
DOCKED: ATOM     13  C   UNL d   1      -6.786 -16.388  -3.067 +0.18 +0.11    +0.073 C 
DOCKED: ATOM     14  O   UNL d   1      -7.164 -17.591  -2.843 -0.35 -0.89    -0.547 OA
DOCKED: ATOM     15  O   UNL d   1      -6.697 -15.476  -2.168 -0.26 -0.67    -0.547 OA
DOCKED: ENDBRANCH   1  13
DOCKED: TORSDOF 6
DOCKED: TER
DOCKED: ENDMDL
________________________________________________________________________________


	BEGINNING GENETIC ALGORITHM DOCKING 55 of 100
Run: 55 Seed: 353812144 809231273 [ Run 55 of 100 GA/GALS ]
Beginning LAMARCKIAN GENETIC ALGORITHM (LGA), with a maximum of 25000000 energy evaluations.

Final-Value: -8.275


	FINAL GENETIC ALGORITHM DOCKED STATE
	_______________________________________________


Detailed state:  trans -6.888 -15.082 -4.724 quatxyzw 0.066418 -0.453360 -0.758216 -0.463855 center 0.015 0.083 0.031 ntor 6 -27.6891 -76.5485 -73.1719 5.2392 69.6448 -156.5156
State:	 -6.888 -15.082  -4.724   0.075 -0.512 -0.856 -124.728    -27.69  -76.55  -73.17    5.24   69.64 -156.52

DOCKED: MODEL       55
DOCKED: USER    Run = 55
DOCKED: USER    DPF = D:/Protein_go_brrr/autodock/final/mut_N102T/2_3_BPG/dock.dpf
DOCKED: USER  
DOCKED: USER    Estimated Free Energy of Binding    =   -8.93 kcal/mol  [=(1)+(2)+(3)-(4)]
DOCKED: USER    Estimated Inhibition Constant, Ki   =  282.87 nM (nanomolar)  [Temperature = 298.15 K]
DOCKED: USER    
DOCKED: USER    (1) Final Intermolecular Energy     =  -10.72 kcal/mol
DOCKED: USER        vdW + Hbond + desolv Energy     =   -3.38 kcal/mol
DOCKED: USER        Electrostatic Energy            =   -7.34 kcal/mol
DOCKED: USER    (2) Final Total Internal Energy     =   +2.45 kcal/mol
DOCKED: USER    (3) Torsional Free Energy           =   +1.79 kcal/mol
DOCKED: USER    (4) Unbound System's Energy  [=(2)] =   +2.45 kcal/mol
DOCKED: USER    
DOCKED: USER    
DOCKED: USER    NEWDPF move 2_3_BPG_opt.pdbqt
DOCKED: USER    NEWDPF about 0.015000 0.083000 0.031000
DOCKED: USER    NEWDPF tran0 -6.888067 -15.082407 -4.724159
DOCKED: USER    NEWDPF quaternion0 0.066418 -0.453360 -0.758216 -0.463855
DOCKED: USER    NEWDPF axisangle0 0.074972 -0.511745 -0.855860 -124.727722
DOCKED: USER    NEWDPF quat0 0.074972 -0.511745 -0.855860 -124.727722
DOCKED: USER    NEWDPF dihe0 -27.69 -76.55 -73.17 5.24 69.64 -156.52 
DOCKED: USER  keepresnum = 1 
DOCKED: USER  
DOCKED: REMARK  6 active torsions:
DOCKED: REMARK  status: ('A' for Active; 'I' for Inactive)
DOCKED: REMARK    1  A    between atoms: P_1  and  O_3 
DOCKED: REMARK    2  A    between atoms: P_2  and  O_4 
DOCKED: REMARK    3  A    between atoms: O_3  and  C_13 
DOCKED: REMARK    4  A    between atoms: O_4  and  C_14 
DOCKED: REMARK    5  A    between atoms: C_13  and  C_14 
DOCKED: REMARK    6  A    between atoms: C_13  and  C_15 
DOCKED: USER                              x       y       z     vdW  Elec       q    Type
DOCKED: USER                           _______ _______ _______ _____ _____    ______ ____
DOCKED: ROOT
DOCKED: ATOM      1  C   UNL d   1      -6.809 -14.527  -5.091 -0.12 +0.22    +0.193 C 
DOCKED: ENDROOT
DOCKED: BRANCH   1   2
DOCKED: ATOM      2  O   UNL d   1      -5.371 -14.254  -5.202 -0.08 -0.75    -0.356 OA
DOCKED: BRANCH   2   3
DOCKED: ATOM      3  P   UNL d   1      -4.695 -12.806  -4.818 -0.51 -0.02    -0.014 P 
DOCKED: ATOM      4  O   UNL d   1      -4.124 -13.012  -3.406 -0.13 -0.50    -0.577 OA
DOCKED: ATOM      5  O   UNL d   1      -5.815 -11.767  -4.825 -0.63 -0.53    -0.577 OA
DOCKED: ATOM      6  O   UNL d   1      -3.592 -12.517  -5.831 -0.57 -0.96    -0.638 OA
DOCKED: ENDBRANCH   2   3
DOCKED: ENDBRANCH   1   2
DOCKED: BRANCH   1   7
DOCKED: ATOM      7  C   UNL d   1      -7.004 -15.968  -4.490 -0.08 +0.22    +0.201 C 
DOCKED: BRANCH   7   8
DOCKED: ATOM      8  O   UNL d   1      -5.795 -16.667  -4.123 -0.03 -0.66    -0.364 OA
DOCKED: BRANCH   8   9
DOCKED: ATOM      9  P   UNL d   1      -5.259 -17.936  -5.039 -0.14 -0.02    -0.015 P 
DOCKED: ATOM     10  O   UNL d   1      -4.004 -17.413  -5.749 -0.62 -1.16    -0.577 OA
DOCKED: ATOM     11  O   UNL d   1      -6.374 -18.274  -6.028 +0.00 -0.56    -0.577 OA
DOCKED: ATOM     12  O   UNL d   1      -4.941 -19.082  -4.081 -0.17 -1.29    -0.638 OA
DOCKED: ENDBRANCH   8   9
DOCKED: ENDBRANCH   7   8
DOCKED: ENDBRANCH   1   7
DOCKED: BRANCH   1  13
DOCKED: ATOM     13  C   UNL d   1      -7.478 -14.480  -6.515 -0.12 +0.08    +0.073 C 
DOCKED: ATOM     14  O   UNL d   1      -6.753 -14.732  -7.541 -0.19 -1.11    -0.547 OA
DOCKED: ATOM     15  O   UNL d   1      -8.741 -14.250  -6.558 +0.02 -0.29    -0.547 OA
DOCKED: ENDBRANCH   1  13
DOCKED: TORSDOF 6
DOCKED: TER
DOCKED: ENDMDL
________________________________________________________________________________


	BEGINNING GENETIC ALGORITHM DOCKING 56 of 100
Run: 56 Seed: 1704426386 870226588 [ Run 56 of 100 GA/GALS ]
Beginning LAMARCKIAN GENETIC ALGORITHM (LGA), with a maximum of 25000000 energy evaluations.

Final-Value: -8.960


	FINAL GENETIC ALGORITHM DOCKED STATE
	_______________________________________________


Detailed state:  trans -5.786 -14.914 -4.021 quatxyzw -0.273689 0.512922 -0.493576 -0.646830 center 0.015 0.083 0.031 ntor 6 120.3888 136.8311 -16.4020 95.8801 63.3402 13.0971
State:	 -5.786 -14.914  -4.021  -0.359  0.673 -0.647 -99.394    120.39  136.83  -16.40   95.88   63.34   13.10

DOCKED: MODEL       56
DOCKED: USER    Run = 56
DOCKED: USER    DPF = D:/Protein_go_brrr/autodock/final/mut_N102T/2_3_BPG/dock.dpf
DOCKED: USER  
DOCKED: USER    Estimated Free Energy of Binding    =   -9.48 kcal/mol  [=(1)+(2)+(3)-(4)]
DOCKED: USER    Estimated Inhibition Constant, Ki   =  113.24 nM (nanomolar)  [Temperature = 298.15 K]
DOCKED: USER    
DOCKED: USER    (1) Final Intermolecular Energy     =  -11.27 kcal/mol
DOCKED: USER        vdW + Hbond + desolv Energy     =   -4.08 kcal/mol
DOCKED: USER        Electrostatic Energy            =   -7.19 kcal/mol
DOCKED: USER    (2) Final Total Internal Energy     =   +2.31 kcal/mol
DOCKED: USER    (3) Torsional Free Energy           =   +1.79 kcal/mol
DOCKED: USER    (4) Unbound System's Energy  [=(2)] =   +2.31 kcal/mol
DOCKED: USER    
DOCKED: USER    
DOCKED: USER    NEWDPF move 2_3_BPG_opt.pdbqt
DOCKED: USER    NEWDPF about 0.015000 0.083000 0.031000
DOCKED: USER    NEWDPF tran0 -5.785634 -14.913931 -4.020810
DOCKED: USER    NEWDPF quaternion0 -0.273689 0.512922 -0.493576 -0.646830
DOCKED: USER    NEWDPF axisangle0 -0.358873 0.672566 -0.647199 -99.393979
DOCKED: USER    NEWDPF quat0 -0.358873 0.672566 -0.647199 -99.393979
DOCKED: USER    NEWDPF dihe0 120.39 136.83 -16.40 95.88 63.34 13.10 
DOCKED: USER  keepresnum = 1 
DOCKED: USER  
DOCKED: REMARK  6 active torsions:
DOCKED: REMARK  status: ('A' for Active; 'I' for Inactive)
DOCKED: REMARK    1  A    between atoms: P_1  and  O_3 
DOCKED: REMARK    2  A    between atoms: P_2  and  O_4 
DOCKED: REMARK    3  A    between atoms: O_3  and  C_13 
DOCKED: REMARK    4  A    between atoms: O_4  and  C_14 
DOCKED: REMARK    5  A    between atoms: C_13  and  C_14 
DOCKED: REMARK    6  A    between atoms: C_13  and  C_15 
DOCKED: USER                              x       y       z     vdW  Elec       q    Type
DOCKED: USER                           _______ _______ _______ _____ _____    ______ ____
DOCKED: ROOT
DOCKED: ATOM      1  C   UNL d   1      -5.803 -14.503  -3.492 -0.18 +0.22    +0.193 C 
DOCKED: ENDROOT
DOCKED: BRANCH   1   2
DOCKED: ATOM      2  O   UNL d   1      -6.103 -13.150  -3.974 -0.24 -0.33    -0.356 OA
DOCKED: BRANCH   2   3
DOCKED: ATOM      3  P   UNL d   1      -5.534 -12.551  -5.395 -0.41 -0.02    -0.014 P 
DOCKED: ATOM      4  O   UNL d   1      -4.039 -12.904  -5.389 -0.64 -1.00    -0.577 OA
DOCKED: ATOM      5  O   UNL d   1      -5.755 -11.040  -5.370 -0.59 -0.43    -0.577 OA
DOCKED: ATOM      6  O   UNL d   1      -6.271 -13.253  -6.531 -0.04 -0.94    -0.638 OA
DOCKED: ENDBRANCH   2   3
DOCKED: ENDBRANCH   1   2
DOCKED: BRANCH   1   7
DOCKED: ATOM      7  C   UNL d   1      -6.045 -15.522  -4.665 -0.12 +0.31    +0.201 C 
DOCKED: BRANCH   7   8
DOCKED: ATOM      8  O   UNL d   1      -5.636 -16.884  -4.411 -0.07 -0.65    -0.364 OA
DOCKED: BRANCH   8   9
DOCKED: ATOM      9  P   UNL d   1      -4.387 -17.549  -5.268 -0.15 -0.03    -0.015 P 
DOCKED: ATOM     10  O   UNL d   1      -4.010 -18.822  -4.501 -0.25 -0.97    -0.577 OA
DOCKED: ATOM     11  O   UNL d   1      -3.252 -16.525  -5.269 -0.38 -1.23    -0.577 OA
DOCKED: ATOM     12  O   UNL d   1      -4.914 -17.858  -6.668 -0.36 -1.04    -0.638 OA
DOCKED: ENDBRANCH   8   9
DOCKED: ENDBRANCH   7   8
DOCKED: ENDBRANCH   1   7
DOCKED: BRANCH   1  13
DOCKED: ATOM     13  C   UNL d   1      -6.757 -14.874  -2.296 -0.19 +0.07    +0.073 C 
DOCKED: ATOM     14  O   UNL d   1      -6.712 -16.065  -1.826 -0.42 -0.88    -0.547 OA
DOCKED: ATOM     15  O   UNL d   1      -7.486 -13.932  -1.818 -0.03 -0.28    -0.547 OA
DOCKED: ENDBRANCH   1  13
DOCKED: TORSDOF 6
DOCKED: TER
DOCKED: ENDMDL
________________________________________________________________________________


	BEGINNING GENETIC ALGORITHM DOCKING 57 of 100
Run: 57 Seed: 927903257 2129544438 [ Run 57 of 100 GA/GALS ]
Beginning LAMARCKIAN GENETIC ALGORITHM (LGA), with a maximum of 25000000 energy evaluations.

Final-Value: -9.100


	FINAL GENETIC ALGORITHM DOCKED STATE
	_______________________________________________


Detailed state:  trans -2.144 -16.095 -5.514 quatxyzw 0.605030 -0.709122 -0.335551 -0.135981 center 0.015 0.083 0.031 ntor 6 -151.2694 83.6428 44.2357 26.1203 22.8392 -44.6223
State:	 -2.144 -16.095  -5.514   0.611 -0.716 -0.339 -164.369   -151.27   83.64   44.24   26.12   22.84  -44.62

DOCKED: MODEL       57
DOCKED: USER    Run = 57
DOCKED: USER    DPF = D:/Protein_go_brrr/autodock/final/mut_N102T/2_3_BPG/dock.dpf
DOCKED: USER  
DOCKED: USER    Estimated Free Energy of Binding    =   -9.37 kcal/mol  [=(1)+(2)+(3)-(4)]
DOCKED: USER    Estimated Inhibition Constant, Ki   =  134.62 nM (nanomolar)  [Temperature = 298.15 K]
DOCKED: USER    
DOCKED: USER    (1) Final Intermolecular Energy     =  -11.16 kcal/mol
DOCKED: USER        vdW + Hbond + desolv Energy     =   -5.27 kcal/mol
DOCKED: USER        Electrostatic Energy            =   -5.90 kcal/mol
DOCKED: USER    (2) Final Total Internal Energy     =   +2.06 kcal/mol
DOCKED: USER    (3) Torsional Free Energy           =   +1.79 kcal/mol
DOCKED: USER    (4) Unbound System's Energy  [=(2)] =   +2.06 kcal/mol
DOCKED: USER    
DOCKED: USER    
DOCKED: USER    NEWDPF move 2_3_BPG_opt.pdbqt
DOCKED: USER    NEWDPF about 0.015000 0.083000 0.031000
DOCKED: USER    NEWDPF tran0 -2.143923 -16.094718 -5.513710
DOCKED: USER    NEWDPF quaternion0 0.605030 -0.709122 -0.335551 -0.135981
DOCKED: USER    NEWDPF axisangle0 0.610702 -0.715770 -0.338697 -164.369329
DOCKED: USER    NEWDPF quat0 0.610702 -0.715770 -0.338697 -164.369329
DOCKED: USER    NEWDPF dihe0 -151.27 83.64 44.24 26.12 22.84 -44.62 
DOCKED: USER  keepresnum = 1 
DOCKED: USER  
DOCKED: REMARK  6 active torsions:
DOCKED: REMARK  status: ('A' for Active; 'I' for Inactive)
DOCKED: REMARK    1  A    between atoms: P_1  and  O_3 
DOCKED: REMARK    2  A    between atoms: P_2  and  O_4 
DOCKED: REMARK    3  A    between atoms: O_3  and  C_13 
DOCKED: REMARK    4  A    between atoms: O_4  and  C_14 
DOCKED: REMARK    5  A    between atoms: C_13  and  C_14 
DOCKED: REMARK    6  A    between atoms: C_13  and  C_15 
DOCKED: USER                              x       y       z     vdW  Elec       q    Type
DOCKED: USER                           _______ _______ _______ _____ _____    ______ ____
DOCKED: ROOT
DOCKED: ATOM      1  C   UNL d   1      -1.825 -15.523  -5.657 -0.31 +0.29    +0.193 C 
DOCKED: ENDROOT
DOCKED: BRANCH   1   2
DOCKED: ATOM      2  O   UNL d   1      -1.809 -14.692  -4.448 -0.20 -0.41    -0.356 OA
DOCKED: BRANCH   2   3
DOCKED: ATOM      3  P   UNL d   1      -2.754 -13.360  -4.256 -0.74 -0.01    -0.014 P 
DOCKED: ATOM      4  O   UNL d   1      -1.816 -12.179  -4.551 -0.09 -0.30    -0.577 OA
DOCKED: ATOM      5  O   UNL d   1      -3.231 -13.349  -2.805 -0.14 -0.44    -0.577 OA
DOCKED: ATOM      6  O   UNL d   1      -3.891 -13.438  -5.269 -0.39 -1.33    -0.638 OA
DOCKED: ENDBRANCH   2   3
DOCKED: ENDBRANCH   1   2
DOCKED: BRANCH   1   7
DOCKED: ATOM      7  C   UNL d   1      -2.303 -16.971  -5.269 -0.18 +0.29    +0.201 C 
DOCKED: BRANCH   7   8
DOCKED: ATOM      8  O   UNL d   1      -3.563 -17.392  -5.837 -0.70 -0.71    -0.364 OA
DOCKED: BRANCH   8   9
DOCKED: ATOM      9  P   UNL d   1      -4.477 -18.537  -5.069 -0.14 -0.02    -0.015 P 
DOCKED: ATOM     10  O   UNL d   1      -4.894 -19.519  -6.170 +0.01 -0.46    -0.577 OA
DOCKED: ATOM     11  O   UNL d   1      -5.680 -17.814  -4.463 -0.01 -0.98    -0.577 OA
DOCKED: ATOM     12  O   UNL d   1      -3.585 -19.197  -4.018 -0.32 -1.15    -0.638 OA
DOCKED: ENDBRANCH   8   9
DOCKED: ENDBRANCH   7   8
DOCKED: ENDBRANCH   1   7
DOCKED: BRANCH   1  13
DOCKED: ATOM     13  C   UNL d   1      -0.377 -15.616  -6.267 -0.62 +0.06    +0.073 C 
DOCKED: ATOM     14  O   UNL d   1      -0.068 -14.833  -7.232 -0.66 -0.37    -0.547 OA
DOCKED: ATOM     15  O   UNL d   1       0.438 -16.438  -5.710 -0.79 -0.34    -0.547 OA
DOCKED: ENDBRANCH   1  13
DOCKED: TORSDOF 6
DOCKED: TER
DOCKED: ENDMDL
________________________________________________________________________________


	BEGINNING GENETIC ALGORITHM DOCKING 58 of 100
Run: 58 Seed: 1052564199 692640868 [ Run 58 of 100 GA/GALS ]
Beginning LAMARCKIAN GENETIC ALGORITHM (LGA), with a maximum of 25000000 energy evaluations.

Final-Value: -8.529


	FINAL GENETIC ALGORITHM DOCKED STATE
	_______________________________________________


Detailed state:  trans -6.416 -14.881 -4.832 quatxyzw -0.055343 0.418049 0.488580 0.763847 center 0.015 0.083 0.031 ntor 6 144.1635 69.9018 176.9360 86.4829 -54.9391 88.7411
State:	 -6.416 -14.881  -4.832  -0.086  0.648  0.757 80.391    144.16   69.90  176.94   86.48  -54.94   88.74

DOCKED: MODEL       58
DOCKED: USER    Run = 58
DOCKED: USER    DPF = D:/Protein_go_brrr/autodock/final/mut_N102T/2_3_BPG/dock.dpf
DOCKED: USER  
DOCKED: USER    Estimated Free Energy of Binding    =   -9.24 kcal/mol  [=(1)+(2)+(3)-(4)]
DOCKED: USER    Estimated Inhibition Constant, Ki   =  168.03 nM (nanomolar)  [Temperature = 298.15 K]
DOCKED: USER    
DOCKED: USER    (1) Final Intermolecular Energy     =  -11.03 kcal/mol
DOCKED: USER        vdW + Hbond + desolv Energy     =   -3.99 kcal/mol
DOCKED: USER        Electrostatic Energy            =   -7.04 kcal/mol
DOCKED: USER    (2) Final Total Internal Energy     =   +2.50 kcal/mol
DOCKED: USER    (3) Torsional Free Energy           =   +1.79 kcal/mol
DOCKED: USER    (4) Unbound System's Energy  [=(2)] =   +2.50 kcal/mol
DOCKED: USER    
DOCKED: USER    
DOCKED: USER    NEWDPF move 2_3_BPG_opt.pdbqt
DOCKED: USER    NEWDPF about 0.015000 0.083000 0.031000
DOCKED: USER    NEWDPF tran0 -6.415673 -14.881338 -4.832030
DOCKED: USER    NEWDPF quaternion0 -0.055343 0.418049 0.488580 0.763847
DOCKED: USER    NEWDPF axisangle0 -0.085750 0.647738 0.757022 80.390959
DOCKED: USER    NEWDPF quat0 -0.085750 0.647738 0.757022 80.390959
DOCKED: USER    NEWDPF dihe0 144.16 69.90 176.94 86.48 -54.94 88.74 
DOCKED: USER  keepresnum = 1 
DOCKED: USER  
DOCKED: REMARK  6 active torsions:
DOCKED: REMARK  status: ('A' for Active; 'I' for Inactive)
DOCKED: REMARK    1  A    between atoms: P_1  and  O_3 
DOCKED: REMARK    2  A    between atoms: P_2  and  O_4 
DOCKED: REMARK    3  A    between atoms: O_3  and  C_13 
DOCKED: REMARK    4  A    between atoms: O_4  and  C_14 
DOCKED: REMARK    5  A    between atoms: C_13  and  C_14 
DOCKED: REMARK    6  A    between atoms: C_13  and  C_15 
DOCKED: USER                              x       y       z     vdW  Elec       q    Type
DOCKED: USER                           _______ _______ _______ _____ _____    ______ ____
DOCKED: ROOT
DOCKED: ATOM      1  C   UNL d   1      -6.800 -14.548  -5.268 -0.11 +0.24    +0.193 C 
DOCKED: ENDROOT
DOCKED: BRANCH   1   2
DOCKED: ATOM      2  O   UNL d   1      -5.978 -13.512  -5.903 -0.17 -0.62    -0.356 OA
DOCKED: BRANCH   2   3
DOCKED: ATOM      3  P   UNL d   1      -4.972 -12.517  -5.064 -0.50 -0.02    -0.014 P 
DOCKED: ATOM      4  O   UNL d   1      -5.585 -11.119  -5.237 -0.61 -0.45    -0.577 OA
DOCKED: ATOM      5  O   UNL d   1      -3.594 -12.611  -5.716 -0.63 -0.90    -0.577 OA
DOCKED: ATOM      6  O   UNL d   1      -4.985 -12.958  -3.604 -0.04 -0.60    -0.638 OA
DOCKED: ENDBRANCH   2   3
DOCKED: ENDBRANCH   1   2
DOCKED: BRANCH   1   7
DOCKED: ATOM      7  C   UNL d   1      -5.858 -15.520  -4.467 -0.13 +0.32    +0.201 C 
DOCKED: BRANCH   7   8
DOCKED: ATOM      8  O   UNL d   1      -5.745 -16.862  -4.989 -0.12 -0.61    -0.364 OA
DOCKED: BRANCH   8   9
DOCKED: ATOM      9  P   UNL d   1      -4.254 -17.521  -5.270 -0.14 -0.03    -0.015 P 
DOCKED: ATOM     10  O   UNL d   1      -3.254 -16.423  -4.886 -0.17 -1.15    -0.577 OA
DOCKED: ATOM     11  O   UNL d   1      -4.189 -17.857  -6.760 -0.50 -0.99    -0.577 OA
DOCKED: ATOM     12  O   UNL d   1      -4.128 -18.751  -4.373 -0.23 -1.17    -0.638 OA
DOCKED: ENDBRANCH   8   9
DOCKED: ENDBRANCH   7   8
DOCKED: ENDBRANCH   1   7
DOCKED: BRANCH   1  13
DOCKED: ATOM     13  C   UNL d   1      -7.564 -15.378  -6.366 -0.10 +0.08    +0.073 C 
DOCKED: ATOM     14  O   UNL d   1      -8.575 -16.079  -6.009 +0.02 -0.33    -0.547 OA
DOCKED: ATOM     15  O   UNL d   1      -7.161 -15.251  -7.579 -0.56 -0.81    -0.547 OA
DOCKED: ENDBRANCH   1  13
DOCKED: TORSDOF 6
DOCKED: TER
DOCKED: ENDMDL
________________________________________________________________________________


	BEGINNING GENETIC ALGORITHM DOCKING 59 of 100
Run: 59 Seed: 1548612801 473140605 [ Run 59 of 100 GA/GALS ]
Beginning LAMARCKIAN GENETIC ALGORITHM (LGA), with a maximum of 25000000 energy evaluations.

Final-Value: -8.717


	FINAL GENETIC ALGORITHM DOCKED STATE
	_______________________________________________


Detailed state:  trans -1.625 -16.101 -5.393 quatxyzw -0.044402 -0.037579 0.586550 -0.807821 center 0.015 0.083 0.031 ntor 6 85.2373 -16.5218 -166.4559 49.4927 -6.6687 -77.9402
State:	 -1.625 -16.101  -5.393  -0.075 -0.064  0.995 -72.233     85.24  -16.52 -166.46   49.49   -6.67  -77.94

DOCKED: MODEL       59
DOCKED: USER    Run = 59
DOCKED: USER    DPF = D:/Protein_go_brrr/autodock/final/mut_N102T/2_3_BPG/dock.dpf
DOCKED: USER  
DOCKED: USER    Estimated Free Energy of Binding    =   -9.19 kcal/mol  [=(1)+(2)+(3)-(4)]
DOCKED: USER    Estimated Inhibition Constant, Ki   =  183.01 nM (nanomolar)  [Temperature = 298.15 K]
DOCKED: USER    
DOCKED: USER    (1) Final Intermolecular Energy     =  -10.98 kcal/mol
DOCKED: USER        vdW + Hbond + desolv Energy     =   -4.85 kcal/mol
DOCKED: USER        Electrostatic Energy            =   -6.13 kcal/mol
DOCKED: USER    (2) Final Total Internal Energy     =   +2.26 kcal/mol
DOCKED: USER    (3) Torsional Free Energy           =   +1.79 kcal/mol
DOCKED: USER    (4) Unbound System's Energy  [=(2)] =   +2.26 kcal/mol
DOCKED: USER    
DOCKED: USER    
DOCKED: USER    NEWDPF move 2_3_BPG_opt.pdbqt
DOCKED: USER    NEWDPF about 0.015000 0.083000 0.031000
DOCKED: USER    NEWDPF tran0 -1.624646 -16.101090 -5.392875
DOCKED: USER    NEWDPF quaternion0 -0.044402 -0.037579 0.586550 -0.807821
DOCKED: USER    NEWDPF axisangle0 -0.075330 -0.063755 0.995118 -72.232774
DOCKED: USER    NEWDPF quat0 -0.075330 -0.063755 0.995118 -72.232774
DOCKED: USER    NEWDPF dihe0 85.24 -16.52 -166.46 49.49 -6.67 -77.94 
DOCKED: USER  keepresnum = 1 
DOCKED: USER  
DOCKED: REMARK  6 active torsions:
DOCKED: REMARK  status: ('A' for Active; 'I' for Inactive)
DOCKED: REMARK    1  A    between atoms: P_1  and  O_3 
DOCKED: REMARK    2  A    between atoms: P_2  and  O_4 
DOCKED: REMARK    3  A    between atoms: O_3  and  C_13 
DOCKED: REMARK    4  A    between atoms: O_4  and  C_14 
DOCKED: REMARK    5  A    between atoms: C_13  and  C_14 
DOCKED: REMARK    6  A    between atoms: C_13  and  C_15 
DOCKED: USER                              x       y       z     vdW  Elec       q    Type
DOCKED: USER                           _______ _______ _______ _____ _____    ______ ____
DOCKED: ROOT
DOCKED: ATOM      1  C   UNL d   1      -1.522 -16.752  -5.269 -0.25 +0.22    +0.193 C 
DOCKED: ENDROOT
DOCKED: BRANCH   1   2
DOCKED: ATOM      2  O   UNL d   1      -2.527 -17.522  -6.010 -0.45 -0.49    -0.356 OA
DOCKED: BRANCH   2   3
DOCKED: ATOM      3  P   UNL d   1      -4.054 -17.781  -5.456 -0.16 -0.02    -0.014 P 
DOCKED: ATOM      4  O   UNL d   1      -4.863 -18.136  -6.713 -0.24 -0.81    -0.577 OA
DOCKED: ATOM      5  O   UNL d   1      -4.535 -16.475  -4.828 -0.19 -1.24    -0.577 OA
DOCKED: ATOM      6  O   UNL d   1      -4.007 -18.947  -4.473 -0.28 -1.05    -0.638 OA
DOCKED: ENDBRANCH   2   3
DOCKED: ENDBRANCH   1   2
DOCKED: BRANCH   1   7
DOCKED: ATOM      7  C   UNL d   1      -1.560 -15.261  -5.769 -0.38 +0.27    +0.201 C 
DOCKED: BRANCH   7   8
DOCKED: ATOM      8  O   UNL d   1      -2.590 -14.429  -5.193 -0.27 -0.63    -0.364 OA
DOCKED: BRANCH   8   9
DOCKED: ATOM      9  P   UNL d   1      -2.670 -12.821  -5.576 -0.63 -0.02    -0.015 P 
DOCKED: ATOM     10  O   UNL d   1      -1.796 -12.666  -6.826 -0.14 -0.61    -0.577 OA
DOCKED: ATOM     11  O   UNL d   1      -2.104 -12.050  -4.384 -0.04 -0.27    -0.577 OA
DOCKED: ATOM     12  O   UNL d   1      -4.136 -12.497  -5.858 -0.61 -1.02    -0.638 OA
DOCKED: ENDBRANCH   8   9
DOCKED: ENDBRANCH   7   8
DOCKED: ENDBRANCH   1   7
DOCKED: BRANCH   1  13
DOCKED: ATOM     13  C   UNL d   1      -0.086 -17.338  -5.540 -0.48 +0.04    +0.073 C 
DOCKED: ATOM     14  O   UNL d   1       0.885 -16.521  -5.714 -0.67 -0.29    -0.547 OA
DOCKED: ATOM     15  O   UNL d   1       0.038 -18.615  -5.507 -0.07 -0.20    -0.547 OA
DOCKED: ENDBRANCH   1  13
DOCKED: TORSDOF 6
DOCKED: TER
DOCKED: ENDMDL
________________________________________________________________________________


	BEGINNING GENETIC ALGORITHM DOCKING 60 of 100
Run: 60 Seed: 1937094128 1158179989 [ Run 60 of 100 GA/GALS ]
Beginning LAMARCKIAN GENETIC ALGORITHM (LGA), with a maximum of 25000000 energy evaluations.

Final-Value: -8.524


	FINAL GENETIC ALGORITHM DOCKED STATE
	_______________________________________________


Detailed state:  trans -6.401 -14.881 -4.883 quatxyzw -0.037623 0.398880 0.490338 0.773982 center 0.015 0.083 0.031 ntor 6 156.2439 -43.0242 174.4257 82.3787 -48.2368 92.1073
State:	 -6.401 -14.881  -4.883  -0.059  0.630  0.774 78.574    156.24  -43.02  174.43   82.38  -48.24   92.11

DOCKED: MODEL       60
DOCKED: USER    Run = 60
DOCKED: USER    DPF = D:/Protein_go_brrr/autodock/final/mut_N102T/2_3_BPG/dock.dpf
DOCKED: USER  
DOCKED: USER    Estimated Free Energy of Binding    =   -9.19 kcal/mol  [=(1)+(2)+(3)-(4)]
DOCKED: USER    Estimated Inhibition Constant, Ki   =  182.61 nM (nanomolar)  [Temperature = 298.15 K]
DOCKED: USER    
DOCKED: USER    (1) Final Intermolecular Energy     =  -10.98 kcal/mol
DOCKED: USER        vdW + Hbond + desolv Energy     =   -3.96 kcal/mol
DOCKED: USER        Electrostatic Energy            =   -7.03 kcal/mol
DOCKED: USER    (2) Final Total Internal Energy     =   +2.46 kcal/mol
DOCKED: USER    (3) Torsional Free Energy           =   +1.79 kcal/mol
DOCKED: USER    (4) Unbound System's Energy  [=(2)] =   +2.46 kcal/mol
DOCKED: USER    
DOCKED: USER    
DOCKED: USER    NEWDPF move 2_3_BPG_opt.pdbqt
DOCKED: USER    NEWDPF about 0.015000 0.083000 0.031000
DOCKED: USER    NEWDPF tran0 -6.400849 -14.881008 -4.882922
DOCKED: USER    NEWDPF quaternion0 -0.037623 0.398880 0.490338 0.773982
DOCKED: USER    NEWDPF axisangle0 -0.059417 0.629936 0.774371 78.574421
DOCKED: USER    NEWDPF quat0 -0.059417 0.629936 0.774371 78.574421
DOCKED: USER    NEWDPF dihe0 156.24 -43.02 174.43 82.38 -48.24 92.11 
DOCKED: USER  keepresnum = 1 
DOCKED: USER  
DOCKED: REMARK  6 active torsions:
DOCKED: REMARK  status: ('A' for Active; 'I' for Inactive)
DOCKED: REMARK    1  A    between atoms: P_1  and  O_3 
DOCKED: REMARK    2  A    between atoms: P_2  and  O_4 
DOCKED: REMARK    3  A    between atoms: O_3  and  C_13 
DOCKED: REMARK    4  A    between atoms: O_4  and  C_14 
DOCKED: REMARK    5  A    between atoms: C_13  and  C_14 
DOCKED: REMARK    6  A    between atoms: C_13  and  C_15 
DOCKED: USER                              x       y       z     vdW  Elec       q    Type
DOCKED: USER                           _______ _______ _______ _____ _____    ______ ____
DOCKED: ROOT
DOCKED: ATOM      1  C   UNL d   1      -6.807 -14.549  -5.300 -0.11 +0.24    +0.193 C 
DOCKED: ENDROOT
DOCKED: BRANCH   1   2
DOCKED: ATOM      2  O   UNL d   1      -6.015 -13.522  -5.988 -0.13 -0.62    -0.356 OA
DOCKED: BRANCH   2   3
DOCKED: ATOM      3  P   UNL d   1      -5.033 -12.463  -5.202 -0.50 -0.02    -0.014 P 
DOCKED: ATOM      4  O   UNL d   1      -3.719 -12.497  -5.997 -0.60 -0.92    -0.577 OA
DOCKED: ATOM      5  O   UNL d   1      -4.845 -12.989  -3.781 -0.11 -0.56    -0.577 OA
DOCKED: ATOM      6  O   UNL d   1      -5.686 -11.085  -5.258 -0.57 -0.49    -0.638 OA
DOCKED: ENDBRANCH   2   3
DOCKED: ENDBRANCH   1   2
DOCKED: BRANCH   1   7
DOCKED: ATOM      7  C   UNL d   1      -5.827 -15.520  -4.544 -0.12 +0.32    +0.201 C 
DOCKED: BRANCH   7   8
DOCKED: ATOM      8  O   UNL d   1      -5.693 -16.844  -5.106 -0.14 -0.63    -0.364 OA
DOCKED: BRANCH   8   9
DOCKED: ATOM      9  P   UNL d   1      -4.195 -17.524  -5.279 -0.13 -0.03    -0.015 P 
DOCKED: ATOM     10  O   UNL d   1      -3.210 -16.440  -4.826 -0.14 -1.12    -0.577 OA
DOCKED: ATOM     11  O   UNL d   1      -4.029 -17.865  -6.760 -0.52 -0.99    -0.577 OA
DOCKED: ATOM     12  O   UNL d   1      -4.151 -18.754  -4.374 -0.23 -1.17    -0.638 OA
DOCKED: ENDBRANCH   8   9
DOCKED: ENDBRANCH   7   8
DOCKED: ENDBRANCH   1   7
DOCKED: BRANCH   1  13
DOCKED: ATOM     13  C   UNL d   1      -7.635 -15.383  -6.347 -0.10 +0.07    +0.073 C 
DOCKED: ATOM     14  O   UNL d   1      -8.756 -15.883  -5.982 +0.02 -0.31    -0.547 OA
DOCKED: ATOM     15  O   UNL d   1      -7.160 -15.460  -7.538 -0.57 -0.81    -0.547 OA
DOCKED: ENDBRANCH   1  13
DOCKED: TORSDOF 6
DOCKED: TER
DOCKED: ENDMDL
________________________________________________________________________________


	BEGINNING GENETIC ALGORITHM DOCKING 61 of 100
Run: 61 Seed: 1778888985 671204126 [ Run 61 of 100 GA/GALS ]
Beginning LAMARCKIAN GENETIC ALGORITHM (LGA), with a maximum of 25000000 energy evaluations.

Final-Value: -8.698


	FINAL GENETIC ALGORITHM DOCKED STATE
	_______________________________________________


Detailed state:  trans -6.590 -15.324 -4.527 quatxyzw 0.562836 0.775760 -0.260244 0.116981 center 0.015 0.083 0.031 ntor 6 135.0808 71.0077 4.6052 32.2266 -30.9287 -135.7305
State:	 -6.590 -15.324  -4.527   0.567  0.781 -0.262 166.564    135.08   71.01    4.61   32.23  -30.93 -135.73

DOCKED: MODEL       61
DOCKED: USER    Run = 61
DOCKED: USER    DPF = D:/Protein_go_brrr/autodock/final/mut_N102T/2_3_BPG/dock.dpf
DOCKED: USER  
DOCKED: USER    Estimated Free Energy of Binding    =   -9.12 kcal/mol  [=(1)+(2)+(3)-(4)]
DOCKED: USER    Estimated Inhibition Constant, Ki   =  205.53 nM (nanomolar)  [Temperature = 298.15 K]
DOCKED: USER    
DOCKED: USER    (1) Final Intermolecular Energy     =  -10.91 kcal/mol
DOCKED: USER        vdW + Hbond + desolv Energy     =   -3.61 kcal/mol
DOCKED: USER        Electrostatic Energy            =   -7.30 kcal/mol
DOCKED: USER    (2) Final Total Internal Energy     =   +2.21 kcal/mol
DOCKED: USER    (3) Torsional Free Energy           =   +1.79 kcal/mol
DOCKED: USER    (4) Unbound System's Energy  [=(2)] =   +2.21 kcal/mol
DOCKED: USER    
DOCKED: USER    
DOCKED: USER    NEWDPF move 2_3_BPG_opt.pdbqt
DOCKED: USER    NEWDPF about 0.015000 0.083000 0.031000
DOCKED: USER    NEWDPF tran0 -6.589989 -15.323805 -4.526879
DOCKED: USER    NEWDPF quaternion0 0.562836 0.775760 -0.260244 0.116981
DOCKED: USER    NEWDPF axisangle0 0.566727 0.781124 -0.262043 166.564243
DOCKED: USER    NEWDPF quat0 0.566727 0.781124 -0.262043 166.564243
DOCKED: USER    NEWDPF dihe0 135.08 71.01 4.61 32.23 -30.93 -135.73 
DOCKED: USER  keepresnum = 1 
DOCKED: USER  
DOCKED: REMARK  6 active torsions:
DOCKED: REMARK  status: ('A' for Active; 'I' for Inactive)
DOCKED: REMARK    1  A    between atoms: P_1  and  O_3 
DOCKED: REMARK    2  A    between atoms: P_2  and  O_4 
DOCKED: REMARK    3  A    between atoms: O_3  and  C_13 
DOCKED: REMARK    4  A    between atoms: O_4  and  C_14 
DOCKED: REMARK    5  A    between atoms: C_13  and  C_14 
DOCKED: REMARK    6  A    between atoms: C_13  and  C_15 
DOCKED: USER                              x       y       z     vdW  Elec       q    Type
DOCKED: USER                           _______ _______ _______ _____ _____    ______ ____
DOCKED: ROOT
DOCKED: ATOM      1  C   UNL d   1      -6.689 -15.969  -4.372 -0.10 +0.24    +0.193 C 
DOCKED: ENDROOT
DOCKED: BRANCH   1   2
DOCKED: ATOM      2  O   UNL d   1      -5.380 -16.590  -4.144 +0.18 -0.70    -0.356 OA
DOCKED: BRANCH   2   3
DOCKED: ATOM      3  P   UNL d   1      -4.608 -17.509  -5.269 -0.16 -0.03    -0.014 P 
DOCKED: ATOM      4  O   UNL d   1      -4.603 -18.924  -4.670 -0.23 -0.89    -0.577 OA
DOCKED: ATOM      5  O   UNL d   1      -3.192 -16.955  -5.413 -0.51 -1.13    -0.577 OA
DOCKED: ATOM      6  O   UNL d   1      -5.418 -17.451  -6.560 -0.20 -1.16    -0.638 OA
DOCKED: ENDBRANCH   2   3
DOCKED: ENDBRANCH   1   2
DOCKED: BRANCH   1   7
DOCKED: ATOM      7  C   UNL d   1      -6.501 -14.408  -4.447 -0.14 +0.22    +0.201 C 
DOCKED: BRANCH   7   8
DOCKED: ATOM      8  O   UNL d   1      -5.182 -13.949  -4.818 -0.37 -0.62    -0.364 OA
DOCKED: BRANCH   8   9
DOCKED: ATOM      9  P   UNL d   1      -4.996 -12.496  -5.586 -0.33 -0.02    -0.015 P 
DOCKED: ATOM     10  O   UNL d   1      -3.512 -12.434  -5.967 -0.57 -0.85    -0.577 OA
DOCKED: ATOM     11  O   UNL d   1      -5.372 -11.409  -4.579 -0.50 -0.49    -0.577 OA
DOCKED: ATOM     12  O   UNL d   1      -5.904 -12.514  -6.814 -0.08 -0.74    -0.638 OA
DOCKED: ENDBRANCH   8   9
DOCKED: ENDBRANCH   7   8
DOCKED: ENDBRANCH   1   7
DOCKED: BRANCH   1  13
DOCKED: ATOM     13  C   UNL d   1      -7.660 -16.303  -3.179 -0.08 +0.07    +0.073 C 
DOCKED: ATOM     14  O   UNL d   1      -8.896 -15.986  -3.290 +0.02 -0.28    -0.547 OA
DOCKED: ATOM     15  O   UNL d   1      -7.160 -16.938  -2.182 -0.55 -0.94    -0.547 OA
DOCKED: ENDBRANCH   1  13
DOCKED: TORSDOF 6
DOCKED: TER
DOCKED: ENDMDL
________________________________________________________________________________


	BEGINNING GENETIC ALGORITHM DOCKING 62 of 100
Run: 62 Seed: 1881991342 585492864 [ Run 62 of 100 GA/GALS ]
Beginning LAMARCKIAN GENETIC ALGORITHM (LGA), with a maximum of 25000000 energy evaluations.

Final-Value: -8.732


	FINAL GENETIC ALGORITHM DOCKED STATE
	_______________________________________________


Detailed state:  trans -6.931 -15.526 -4.730 quatxyzw -0.347858 -0.818845 0.436110 -0.135263 center 0.015 0.083 0.031 ntor 6 -162.7397 4.8397 -177.4344 -0.2922 -66.8486 168.3415
State:	 -6.931 -15.526  -4.730  -0.351 -0.826  0.440 -164.452   -162.74    4.84 -177.43   -0.29  -66.85  168.34

DOCKED: MODEL       62
DOCKED: USER    Run = 62
DOCKED: USER    DPF = D:/Protein_go_brrr/autodock/final/mut_N102T/2_3_BPG/dock.dpf
DOCKED: USER  
DOCKED: USER    Estimated Free Energy of Binding    =   -9.44 kcal/mol  [=(1)+(2)+(3)-(4)]
DOCKED: USER    Estimated Inhibition Constant, Ki   =  120.19 nM (nanomolar)  [Temperature = 298.15 K]
DOCKED: USER    
DOCKED: USER    (1) Final Intermolecular Energy     =  -11.23 kcal/mol
DOCKED: USER        vdW + Hbond + desolv Energy     =   -3.63 kcal/mol
DOCKED: USER        Electrostatic Energy            =   -7.60 kcal/mol
DOCKED: USER    (2) Final Total Internal Energy     =   +2.50 kcal/mol
DOCKED: USER    (3) Torsional Free Energy           =   +1.79 kcal/mol
DOCKED: USER    (4) Unbound System's Energy  [=(2)] =   +2.50 kcal/mol
DOCKED: USER    
DOCKED: USER    
DOCKED: USER    NEWDPF move 2_3_BPG_opt.pdbqt
DOCKED: USER    NEWDPF about 0.015000 0.083000 0.031000
DOCKED: USER    NEWDPF tran0 -6.931179 -15.525562 -4.729615
DOCKED: USER    NEWDPF quaternion0 -0.347858 -0.818845 0.436110 -0.135263
DOCKED: USER    NEWDPF axisangle0 -0.351084 -0.826440 0.440155 -164.452357
DOCKED: USER    NEWDPF quat0 -0.351084 -0.826440 0.440155 -164.452357
DOCKED: USER    NEWDPF dihe0 -162.74 4.84 -177.43 -0.29 -66.85 168.34 
DOCKED: USER  keepresnum = 1 
DOCKED: USER  
DOCKED: REMARK  6 active torsions:
DOCKED: REMARK  status: ('A' for Active; 'I' for Inactive)
DOCKED: REMARK    1  A    between atoms: P_1  and  O_3 
DOCKED: REMARK    2  A    between atoms: P_2  and  O_4 
DOCKED: REMARK    3  A    between atoms: O_3  and  C_13 
DOCKED: REMARK    4  A    between atoms: O_4  and  C_14 
DOCKED: REMARK    5  A    between atoms: C_13  and  C_14 
DOCKED: REMARK    6  A    between atoms: C_13  and  C_15 
DOCKED: USER                              x       y       z     vdW  Elec       q    Type
DOCKED: USER                           _______ _______ _______ _____ _____    ______ ____
DOCKED: ROOT
DOCKED: ATOM      1  C   UNL d   1      -6.698 -16.104  -4.484 -0.10 +0.24    +0.193 C 
DOCKED: ENDROOT
DOCKED: BRANCH   1   2
DOCKED: ATOM      2  O   UNL d   1      -5.243 -16.126  -4.668 -0.12 -0.69    -0.356 OA
DOCKED: BRANCH   2   3
DOCKED: ATOM      3  P   UNL d   1      -4.431 -17.414  -5.289 -0.11 -0.03    -0.014 P 
DOCKED: ATOM      4  O   UNL d   1      -2.956 -16.983  -5.269 -0.43 -1.01    -0.577 OA
DOCKED: ATOM      5  O   UNL d   1      -4.936 -17.623  -6.715 -0.30 -1.10    -0.577 OA
DOCKED: ATOM      6  O   UNL d   1      -4.676 -18.611  -4.375 -0.15 -1.21    -0.638 OA
DOCKED: ENDBRANCH   2   3
DOCKED: ENDBRANCH   1   2
DOCKED: BRANCH   1   7
DOCKED: ATOM      7  C   UNL d   1      -7.223 -14.651  -4.783 -0.09 +0.19    +0.201 C 
DOCKED: BRANCH   7   8
DOCKED: ATOM      8  O   UNL d   1      -6.319 -13.574  -4.453 -0.15 -0.37    -0.364 OA
DOCKED: BRANCH   8   9
DOCKED: ATOM      9  P   UNL d   1      -5.723 -12.597  -5.647 -0.36 -0.02    -0.015 P 
DOCKED: ATOM     10  O   UNL d   1      -6.434 -13.052  -6.927 -0.02 -0.70    -0.577 OA
DOCKED: ATOM     11  O   UNL d   1      -4.216 -12.842  -5.714 -0.60 -1.13    -0.577 OA
DOCKED: ATOM     12  O   UNL d   1      -6.079 -11.159  -5.273 -0.57 -0.51    -0.638 OA
DOCKED: ENDBRANCH   8   9
DOCKED: ENDBRANCH   7   8
DOCKED: ENDBRANCH   1   7
DOCKED: BRANCH   1  13
DOCKED: ATOM     13  C   UNL d   1      -7.060 -16.475  -2.997 +0.06 +0.10    +0.073 C 
DOCKED: ATOM     14  O   UNL d   1      -7.607 -17.610  -2.766 -0.36 -0.66    -0.547 OA
DOCKED: ATOM     15  O   UNL d   1      -6.722 -15.633  -2.088 -0.34 -0.71    -0.547 OA
DOCKED: ENDBRANCH   1  13
DOCKED: TORSDOF 6
DOCKED: TER
DOCKED: ENDMDL
________________________________________________________________________________


	BEGINNING GENETIC ALGORITHM DOCKING 63 of 100
Run: 63 Seed: 812304589 188572943 [ Run 63 of 100 GA/GALS ]
Beginning LAMARCKIAN GENETIC ALGORITHM (LGA), with a maximum of 25000000 energy evaluations.

Final-Value: -8.723


	FINAL GENETIC ALGORITHM DOCKED STATE
	_______________________________________________


Detailed state:  trans -6.312 -15.289 -4.661 quatxyzw -0.506279 -0.850980 0.098367 -0.099185 center 0.015 0.083 0.031 ntor 6 171.7919 -51.1275 180.0000 -1.2810 48.3899 -65.8083
State:	 -6.312 -15.289  -4.661  -0.509 -0.855  0.099 -168.616    171.79  -51.13  180.00   -1.28   48.39  -65.81

DOCKED: MODEL       63
DOCKED: USER    Run = 63
DOCKED: USER    DPF = D:/Protein_go_brrr/autodock/final/mut_N102T/2_3_BPG/dock.dpf
DOCKED: USER  
DOCKED: USER    Estimated Free Energy of Binding    =   -9.13 kcal/mol  [=(1)+(2)+(3)-(4)]
DOCKED: USER    Estimated Inhibition Constant, Ki   =  201.51 nM (nanomolar)  [Temperature = 298.15 K]
DOCKED: USER    
DOCKED: USER    (1) Final Intermolecular Energy     =  -10.92 kcal/mol
DOCKED: USER        vdW + Hbond + desolv Energy     =   -3.92 kcal/mol
DOCKED: USER        Electrostatic Energy            =   -7.01 kcal/mol
DOCKED: USER    (2) Final Total Internal Energy     =   +2.20 kcal/mol
DOCKED: USER    (3) Torsional Free Energy           =   +1.79 kcal/mol
DOCKED: USER    (4) Unbound System's Energy  [=(2)] =   +2.20 kcal/mol
DOCKED: USER    
DOCKED: USER    
DOCKED: USER    NEWDPF move 2_3_BPG_opt.pdbqt
DOCKED: USER    NEWDPF about 0.015000 0.083000 0.031000
DOCKED: USER    NEWDPF tran0 -6.312411 -15.288844 -4.660733
DOCKED: USER    NEWDPF quaternion0 -0.506279 -0.850980 0.098367 -0.099185
DOCKED: USER    NEWDPF axisangle0 -0.508788 -0.855197 0.098855 -168.615548
DOCKED: USER    NEWDPF quat0 -0.508788 -0.855197 0.098855 -168.615548
DOCKED: USER    NEWDPF dihe0 171.79 -51.13 180.00 -1.28 48.39 -65.81 
DOCKED: USER  keepresnum = 1 
DOCKED: USER  
DOCKED: REMARK  6 active torsions:
DOCKED: REMARK  status: ('A' for Active; 'I' for Inactive)
DOCKED: REMARK    1  A    between atoms: P_1  and  O_3 
DOCKED: REMARK    2  A    between atoms: P_2  and  O_4 
DOCKED: REMARK    3  A    between atoms: O_3  and  C_13 
DOCKED: REMARK    4  A    between atoms: O_4  and  C_14 
DOCKED: REMARK    5  A    between atoms: C_13  and  C_14 
DOCKED: REMARK    6  A    between atoms: C_13  and  C_15 
DOCKED: USER                              x       y       z     vdW  Elec       q    Type
DOCKED: USER                           _______ _______ _______ _____ _____    ______ ____
DOCKED: ROOT
DOCKED: ATOM      1  C   UNL d   1      -6.326 -15.957  -4.707 -0.12 +0.28    +0.193 C 
DOCKED: ENDROOT
DOCKED: BRANCH   1   2
DOCKED: ATOM      2  O   UNL d   1      -4.990 -16.466  -4.376 +0.08 -0.71    -0.356 OA
DOCKED: BRANCH   2   3
DOCKED: ATOM      3  P   UNL d   1      -4.211 -17.606  -5.269 -0.16 -0.02    -0.014 P 
DOCKED: ATOM      4  O   UNL d   1      -2.864 -16.958  -5.626 -0.48 -1.06    -0.577 OA
DOCKED: ATOM      5  O   UNL d   1      -5.058 -17.863  -6.514 -0.32 -0.91    -0.577 OA
DOCKED: ATOM      6  O   UNL d   1      -4.023 -18.842  -4.396 -0.26 -1.12    -0.638 OA
DOCKED: ENDBRANCH   2   3
DOCKED: ENDBRANCH   1   2
DOCKED: BRANCH   1   7
DOCKED: ATOM      7  C   UNL d   1      -6.395 -14.433  -4.325 -0.15 +0.23    +0.201 C 
DOCKED: BRANCH   7   8
DOCKED: ATOM      8  O   UNL d   1      -6.086 -13.502  -5.386 -0.25 -0.51    -0.364 OA
DOCKED: BRANCH   8   9
DOCKED: ATOM      9  P   UNL d   1      -4.965 -12.310  -5.144 -0.53 -0.02    -0.015 P 
DOCKED: ATOM     10  O   UNL d   1      -4.438 -12.541  -3.722 -0.09 -0.49    -0.577 OA
DOCKED: ATOM     11  O   UNL d   1      -5.699 -10.976  -5.271 -0.58 -0.43    -0.577 OA
DOCKED: ATOM     12  O   UNL d   1      -3.874 -12.496  -6.198 -0.50 -1.10    -0.638 OA
DOCKED: ENDBRANCH   8   9
DOCKED: ENDBRANCH   7   8
DOCKED: ENDBRANCH   1   7
DOCKED: BRANCH   1  13
DOCKED: ATOM     13  C   UNL d   1      -7.419 -16.734  -3.882 -0.08 +0.08    +0.073 C 
DOCKED: ATOM     14  O   UNL d   1      -8.469 -17.144  -4.492 +0.02 -0.34    -0.547 OA
DOCKED: ATOM     15  O   UNL d   1      -7.160 -16.967  -2.647 -0.48 -0.88    -0.547 OA
DOCKED: ENDBRANCH   1  13
DOCKED: TORSDOF 6
DOCKED: TER
DOCKED: ENDMDL
________________________________________________________________________________


	BEGINNING GENETIC ALGORITHM DOCKING 64 of 100
Run: 64 Seed: 1138255415 1828319203 [ Run 64 of 100 GA/GALS ]
Beginning LAMARCKIAN GENETIC ALGORITHM (LGA), with a maximum of 25000000 energy evaluations.

Final-Value: -8.712


	FINAL GENETIC ALGORITHM DOCKED STATE
	_______________________________________________


Detailed state:  trans -6.383 -15.352 -4.915 quatxyzw -0.552899 -0.799091 0.228796 -0.058384 center 0.015 0.083 0.031 ntor 6 -41.2401 -52.4000 47.0839 20.0726 -4.0094 -132.7385
State:	 -6.383 -15.352  -4.915  -0.554 -0.800  0.229 -173.306    -41.24  -52.40   47.08   20.07   -4.01 -132.74

DOCKED: MODEL       64
DOCKED: USER    Run = 64
DOCKED: USER    DPF = D:/Protein_go_brrr/autodock/final/mut_N102T/2_3_BPG/dock.dpf
DOCKED: USER  
DOCKED: USER    Estimated Free Energy of Binding    =   -9.02 kcal/mol  [=(1)+(2)+(3)-(4)]
DOCKED: USER    Estimated Inhibition Constant, Ki   =  244.82 nM (nanomolar)  [Temperature = 298.15 K]
DOCKED: USER    
DOCKED: USER    (1) Final Intermolecular Energy     =  -10.81 kcal/mol
DOCKED: USER        vdW + Hbond + desolv Energy     =   -4.00 kcal/mol
DOCKED: USER        Electrostatic Energy            =   -6.81 kcal/mol
DOCKED: USER    (2) Final Total Internal Energy     =   +2.10 kcal/mol
DOCKED: USER    (3) Torsional Free Energy           =   +1.79 kcal/mol
DOCKED: USER    (4) Unbound System's Energy  [=(2)] =   +2.10 kcal/mol
DOCKED: USER    
DOCKED: USER    
DOCKED: USER    NEWDPF move 2_3_BPG_opt.pdbqt
DOCKED: USER    NEWDPF about 0.015000 0.083000 0.031000
DOCKED: USER    NEWDPF tran0 -6.382694 -15.351951 -4.915009
DOCKED: USER    NEWDPF quaternion0 -0.552899 -0.799091 0.228796 -0.058384
DOCKED: USER    NEWDPF axisangle0 -0.553844 -0.800456 0.229187 -173.305850
DOCKED: USER    NEWDPF quat0 -0.553844 -0.800456 0.229187 -173.305850
DOCKED: USER    NEWDPF dihe0 -41.24 -52.40 47.08 20.07 -4.01 -132.74 
DOCKED: USER  keepresnum = 1 
DOCKED: USER  
DOCKED: REMARK  6 active torsions:
DOCKED: REMARK  status: ('A' for Active; 'I' for Inactive)
DOCKED: REMARK    1  A    between atoms: P_1  and  O_3 
DOCKED: REMARK    2  A    between atoms: P_2  and  O_4 
DOCKED: REMARK    3  A    between atoms: O_3  and  C_13 
DOCKED: REMARK    4  A    between atoms: O_4  and  C_14 
DOCKED: REMARK    5  A    between atoms: C_13  and  C_14 
DOCKED: REMARK    6  A    between atoms: C_13  and  C_15 
DOCKED: USER                              x       y       z     vdW  Elec       q    Type
DOCKED: USER                           _______ _______ _______ _____ _____    ______ ____
DOCKED: ROOT
DOCKED: ATOM      1  C   UNL d   1      -6.459 -16.002  -4.770 -0.11 +0.27    +0.193 C 
DOCKED: ENDROOT
DOCKED: BRANCH   1   2
DOCKED: ATOM      2  O   UNL d   1      -5.151 -16.538  -4.374 +0.03 -0.70    -0.356 OA
DOCKED: BRANCH   2   3
DOCKED: ATOM      3  P   UNL d   1      -4.317 -17.636  -5.270 -0.17 -0.02    -0.014 P 
DOCKED: ATOM      4  O   UNL d   1      -2.957 -16.967  -5.527 -0.48 -1.07    -0.577 OA
DOCKED: ATOM      5  O   UNL d   1      -5.094 -17.845  -6.568 -0.30 -0.91    -0.577 OA
DOCKED: ATOM      6  O   UNL d   1      -4.168 -18.906  -4.439 -0.27 -1.09    -0.638 OA
DOCKED: ENDBRANCH   2   3
DOCKED: ENDBRANCH   1   2
DOCKED: BRANCH   1   7
DOCKED: ATOM      7  C   UNL d   1      -6.364 -14.433  -4.831 -0.14 +0.26    +0.201 C 
DOCKED: BRANCH   7   8
DOCKED: ATOM      8  O   UNL d   1      -5.053 -13.891  -5.103 -0.29 -0.75    -0.364 OA
DOCKED: BRANCH   8   9
DOCKED: ATOM      9  P   UNL d   1      -4.838 -12.254  -5.213 -0.54 -0.02    -0.015 P 
DOCKED: ATOM     10  O   UNL d   1      -4.054 -12.042  -6.514 -0.48 -0.75    -0.577 OA
DOCKED: ATOM     11  O   UNL d   1      -4.034 -11.826  -3.986 -0.08 -0.38    -0.577 OA
DOCKED: ATOM     12  O   UNL d   1      -6.227 -11.620  -5.270 -0.61 -0.54    -0.638 OA
DOCKED: ENDBRANCH   8   9
DOCKED: ENDBRANCH   7   8
DOCKED: ENDBRANCH   1   7
DOCKED: BRANCH   1  13
DOCKED: ATOM     13  C   UNL d   1      -7.549 -16.400  -3.707 -0.08 +0.07    +0.073 C 
DOCKED: ATOM     14  O   UNL d   1      -7.162 -16.880  -2.584 -0.50 -0.87    -0.547 OA
DOCKED: ATOM     15  O   UNL d   1      -8.773 -16.158  -4.009 +0.03 -0.30    -0.547 OA
DOCKED: ENDBRANCH   1  13
DOCKED: TORSDOF 6
DOCKED: TER
DOCKED: ENDMDL
________________________________________________________________________________


	BEGINNING GENETIC ALGORITHM DOCKING 65 of 100
Run: 65 Seed: 959987591 1498227817 [ Run 65 of 100 GA/GALS ]
Beginning LAMARCKIAN GENETIC ALGORITHM (LGA), with a maximum of 25000000 energy evaluations.

Final-Value: -8.634


	FINAL GENETIC ALGORITHM DOCKED STATE
	_______________________________________________


Detailed state:  trans -6.418 -15.041 -4.268 quatxyzw -0.533223 -0.753484 0.281562 -0.262026 center 0.015 0.083 0.031 ntor 6 -98.4166 -46.4380 -151.1385 -0.0275 23.8021 -93.9804
State:	 -6.418 -15.041  -4.268  -0.553 -0.781  0.292 -149.619    -98.42  -46.44 -151.14   -0.03   23.80  -93.98

DOCKED: MODEL       65
DOCKED: USER    Run = 65
DOCKED: USER    DPF = D:/Protein_go_brrr/autodock/final/mut_N102T/2_3_BPG/dock.dpf
DOCKED: USER  
DOCKED: USER    Estimated Free Energy of Binding    =   -9.06 kcal/mol  [=(1)+(2)+(3)-(4)]
DOCKED: USER    Estimated Inhibition Constant, Ki   =  228.12 nM (nanomolar)  [Temperature = 298.15 K]
DOCKED: USER    
DOCKED: USER    (1) Final Intermolecular Energy     =  -10.85 kcal/mol
DOCKED: USER        vdW + Hbond + desolv Energy     =   -3.90 kcal/mol
DOCKED: USER        Electrostatic Energy            =   -6.95 kcal/mol
DOCKED: USER    (2) Final Total Internal Energy     =   +2.22 kcal/mol
DOCKED: USER    (3) Torsional Free Energy           =   +1.79 kcal/mol
DOCKED: USER    (4) Unbound System's Energy  [=(2)] =   +2.22 kcal/mol
DOCKED: USER    
DOCKED: USER    
DOCKED: USER    NEWDPF move 2_3_BPG_opt.pdbqt
DOCKED: USER    NEWDPF about 0.015000 0.083000 0.031000
DOCKED: USER    NEWDPF tran0 -6.418131 -15.040874 -4.267982
DOCKED: USER    NEWDPF quaternion0 -0.533223 -0.753484 0.281562 -0.262026
DOCKED: USER    NEWDPF axisangle0 -0.552528 -0.780763 0.291755 -149.619325
DOCKED: USER    NEWDPF quat0 -0.552528 -0.780763 0.291755 -149.619325
DOCKED: USER    NEWDPF dihe0 -98.42 -46.44 -151.14 -0.03 23.80 -93.98 
DOCKED: USER  keepresnum = 1 
DOCKED: USER  
DOCKED: REMARK  6 active torsions:
DOCKED: REMARK  status: ('A' for Active; 'I' for Inactive)
DOCKED: REMARK    1  A    between atoms: P_1  and  O_3 
DOCKED: REMARK    2  A    between atoms: P_2  and  O_4 
DOCKED: REMARK    3  A    between atoms: O_3  and  C_13 
DOCKED: REMARK    4  A    between atoms: O_4  and  C_14 
DOCKED: REMARK    5  A    between atoms: C_13  and  C_14 
DOCKED: REMARK    6  A    between atoms: C_13  and  C_15 
DOCKED: USER                              x       y       z     vdW  Elec       q    Type
DOCKED: USER                           _______ _______ _______ _____ _____    ______ ____
DOCKED: ROOT
DOCKED: ATOM      1  C   UNL d   1      -6.515 -15.697  -4.169 -0.11 +0.25    +0.193 C 
DOCKED: ENDROOT
DOCKED: BRANCH   1   2
DOCKED: ATOM      2  O   UNL d   1      -5.236 -16.385  -4.377 -0.02 -0.68    -0.356 OA
DOCKED: BRANCH   2   3
DOCKED: ATOM      3  P   UNL d   1      -5.077 -17.735  -5.303 -0.20 -0.02    -0.014 P 
DOCKED: ATOM      4  O   UNL d   1      -3.910 -17.414  -6.250 -0.57 -1.27    -0.577 OA
DOCKED: ATOM      5  O   UNL d   1      -6.387 -17.916  -6.067 -0.01 -0.63    -0.577 OA
DOCKED: ATOM      6  O   UNL d   1      -4.745 -18.902  -4.380 -0.26 -1.12    -0.638 OA
DOCKED: ENDBRANCH   2   3
DOCKED: ENDBRANCH   1   2
DOCKED: BRANCH   1   7
DOCKED: ATOM      7  C   UNL d   1      -6.251 -14.147  -4.108 -0.17 +0.22    +0.201 C 
DOCKED: BRANCH   7   8
DOCKED: ATOM      8  O   UNL d   1      -5.770 -13.541  -5.328 -0.33 -0.58    -0.364 OA
DOCKED: BRANCH   8   9
DOCKED: ATOM      9  P   UNL d   1      -4.853 -12.166  -5.266 -0.56 -0.02    -0.015 P 
DOCKED: ATOM     10  O   UNL d   1      -4.078 -12.263  -3.946 -0.15 -0.45    -0.577 OA
DOCKED: ATOM     11  O   UNL d   1      -5.821 -10.983  -5.274 -0.60 -0.44    -0.577 OA
DOCKED: ATOM     12  O   UNL d   1      -3.924 -12.188  -6.480 -0.38 -0.93    -0.638 OA
DOCKED: ENDBRANCH   8   9
DOCKED: ENDBRANCH   7   8
DOCKED: ENDBRANCH   1   7
DOCKED: BRANCH   1  13
DOCKED: ATOM     13  C   UNL d   1      -7.158 -16.153  -2.806 -0.06 +0.09    +0.073 C 
DOCKED: ATOM     14  O   UNL d   1      -7.161 -17.401  -2.520 -0.44 -0.97    -0.547 OA
DOCKED: ATOM     15  O   UNL d   1      -7.588 -15.228  -2.027 -0.03 -0.41    -0.547 OA
DOCKED: ENDBRANCH   1  13
DOCKED: TORSDOF 6
DOCKED: TER
DOCKED: ENDMDL
________________________________________________________________________________


	BEGINNING GENETIC ALGORITHM DOCKING 66 of 100
Run: 66 Seed: 100893611 860885568 [ Run 66 of 100 GA/GALS ]
Beginning LAMARCKIAN GENETIC ALGORITHM (LGA), with a maximum of 25000000 energy evaluations.

Final-Value: -7.847


	FINAL GENETIC ALGORITHM DOCKED STATE
	_______________________________________________


Detailed state:  trans -6.242 -15.170 -4.506 quatxyzw 0.205735 -0.234092 0.761272 0.568629 center 0.015 0.083 0.031 ntor 6 -4.1942 -156.6267 11.8976 0.9131 70.7329 -44.9051
State:	 -6.242 -15.170  -4.506   0.250 -0.285  0.925 110.691     -4.19 -156.63   11.90    0.91   70.73  -44.91

DOCKED: MODEL       66
DOCKED: USER    Run = 66
DOCKED: USER    DPF = D:/Protein_go_brrr/autodock/final/mut_N102T/2_3_BPG/dock.dpf
DOCKED: USER  
DOCKED: USER    Estimated Free Energy of Binding    =   -8.36 kcal/mol  [=(1)+(2)+(3)-(4)]
DOCKED: USER    Estimated Inhibition Constant, Ki   =  750.14 nM (nanomolar)  [Temperature = 298.15 K]
DOCKED: USER    
DOCKED: USER    (1) Final Intermolecular Energy     =  -10.15 kcal/mol
DOCKED: USER        vdW + Hbond + desolv Energy     =   -3.69 kcal/mol
DOCKED: USER        Electrostatic Energy            =   -6.45 kcal/mol
DOCKED: USER    (2) Final Total Internal Energy     =   +2.30 kcal/mol
DOCKED: USER    (3) Torsional Free Energy           =   +1.79 kcal/mol
DOCKED: USER    (4) Unbound System's Energy  [=(2)] =   +2.30 kcal/mol
DOCKED: USER    
DOCKED: USER    
DOCKED: USER    NEWDPF move 2_3_BPG_opt.pdbqt
DOCKED: USER    NEWDPF about 0.015000 0.083000 0.031000
DOCKED: USER    NEWDPF tran0 -6.241907 -15.169905 -4.506405
DOCKED: USER    NEWDPF quaternion0 0.205735 -0.234092 0.761272 0.568629
DOCKED: USER    NEWDPF axisangle0 0.250106 -0.284578 0.925453 110.690644
DOCKED: USER    NEWDPF quat0 0.250106 -0.284578 0.925453 110.690644
DOCKED: USER    NEWDPF dihe0 -4.19 -156.63 11.90 0.91 70.73 -44.91 
DOCKED: USER  keepresnum = 1 
DOCKED: USER  
DOCKED: REMARK  6 active torsions:
DOCKED: REMARK  status: ('A' for Active; 'I' for Inactive)
DOCKED: REMARK    1  A    between atoms: P_1  and  O_3 
DOCKED: REMARK    2  A    between atoms: P_2  and  O_4 
DOCKED: REMARK    3  A    between atoms: O_3  and  C_13 
DOCKED: REMARK    4  A    between atoms: O_4  and  C_14 
DOCKED: REMARK    5  A    between atoms: C_13  and  C_14 
DOCKED: REMARK    6  A    between atoms: C_13  and  C_15 
DOCKED: USER                              x       y       z     vdW  Elec       q    Type
DOCKED: USER                           _______ _______ _______ _____ _____    ______ ____
DOCKED: ROOT
DOCKED: ATOM      1  C   UNL d   1      -6.271 -14.541  -4.275 -0.16 +0.23    +0.193 C 
DOCKED: ENDROOT
DOCKED: BRANCH   1   2
DOCKED: ATOM      2  O   UNL d   1      -5.747 -13.647  -5.313 -0.31 -0.58    -0.356 OA
DOCKED: BRANCH   2   3
DOCKED: ATOM      3  P   UNL d   1      -4.624 -12.482  -5.019 -0.55 -0.02    -0.014 P 
DOCKED: ATOM      4  O   UNL d   1      -3.973 -12.904  -3.693 -0.14 -0.51    -0.577 OA
DOCKED: ATOM      5  O   UNL d   1      -5.372 -11.157  -4.882 -0.58 -0.46    -0.577 OA
DOCKED: ATOM      6  O   UNL d   1      -3.619 -12.496  -6.166 -0.51 -1.05    -0.638 OA
DOCKED: ENDBRANCH   2   3
DOCKED: ENDBRANCH   1   2
DOCKED: BRANCH   1   7
DOCKED: ATOM      7  C   UNL d   1      -6.483 -15.970  -4.899 -0.11 +0.28    +0.201 C 
DOCKED: BRANCH   7   8
DOCKED: ATOM      8  O   UNL d   1      -5.643 -17.020  -4.370 -0.06 -0.65    -0.364 OA
DOCKED: BRANCH   8   9
DOCKED: ATOM      9  P   UNL d   1      -4.386 -17.609  -5.270 -0.16 -0.03    -0.015 P 
DOCKED: ATOM     10  O   UNL d   1      -3.970 -18.908  -4.571 -0.25 -0.91    -0.577 OA
DOCKED: ATOM     11  O   UNL d   1      -3.277 -16.558  -5.229 -0.37 -1.22    -0.577 OA
DOCKED: ATOM     12  O   UNL d   1      -4.919 -17.861  -6.680 -0.35 -1.03    -0.638 OA
DOCKED: ENDBRANCH   8   9
DOCKED: ENDBRANCH   7   8
DOCKED: ENDBRANCH   1   7
DOCKED: BRANCH   1  13
DOCKED: ATOM     13  C   UNL d   1      -7.657 -14.008  -3.752 -0.13 +0.05    +0.073 C 
DOCKED: ATOM     14  O   UNL d   1      -8.555 -13.696  -4.610 +0.01 -0.26    -0.547 OA
DOCKED: ATOM     15  O   UNL d   1      -7.827 -13.978  -2.480 -0.02 -0.28    -0.547 OA
DOCKED: ENDBRANCH   1  13
DOCKED: TORSDOF 6
DOCKED: TER
DOCKED: ENDMDL
________________________________________________________________________________


	BEGINNING GENETIC ALGORITHM DOCKING 67 of 100
Run: 67 Seed: 1583732681 1846568017 [ Run 67 of 100 GA/GALS ]
Beginning LAMARCKIAN GENETIC ALGORITHM (LGA), with a maximum of 25000000 energy evaluations.

Final-Value: -8.915


	FINAL GENETIC ALGORITHM DOCKED STATE
	_______________________________________________


Detailed state:  trans -5.772 -14.881 -4.134 quatxyzw 0.249980 -0.499558 0.487419 0.671100 center 0.015 0.083 0.031 ntor 6 128.4229 143.1319 -143.8191 96.3519 62.6309 19.4432
State:	 -5.772 -14.881  -4.134   0.337 -0.674  0.657 95.696    128.42  143.13 -143.82   96.35   62.63   19.44

DOCKED: MODEL       67
DOCKED: USER    Run = 67
DOCKED: USER    DPF = D:/Protein_go_brrr/autodock/final/mut_N102T/2_3_BPG/dock.dpf
DOCKED: USER  
DOCKED: USER    Estimated Free Energy of Binding    =   -9.39 kcal/mol  [=(1)+(2)+(3)-(4)]
DOCKED: USER    Estimated Inhibition Constant, Ki   =  131.32 nM (nanomolar)  [Temperature = 298.15 K]
DOCKED: USER    
DOCKED: USER    (1) Final Intermolecular Energy     =  -11.18 kcal/mol
DOCKED: USER        vdW + Hbond + desolv Energy     =   -4.07 kcal/mol
DOCKED: USER        Electrostatic Energy            =   -7.11 kcal/mol
DOCKED: USER    (2) Final Total Internal Energy     =   +2.26 kcal/mol
DOCKED: USER    (3) Torsional Free Energy           =   +1.79 kcal/mol
DOCKED: USER    (4) Unbound System's Energy  [=(2)] =   +2.26 kcal/mol
DOCKED: USER    
DOCKED: USER    
DOCKED: USER    NEWDPF move 2_3_BPG_opt.pdbqt
DOCKED: USER    NEWDPF about 0.015000 0.083000 0.031000
DOCKED: USER    NEWDPF tran0 -5.772052 -14.881483 -4.133867
DOCKED: USER    NEWDPF quaternion0 0.249980 -0.499558 0.487419 0.671100
DOCKED: USER    NEWDPF axisangle0 0.337188 -0.673833 0.657459 95.695977
DOCKED: USER    NEWDPF quat0 0.337188 -0.673833 0.657459 95.695977
DOCKED: USER    NEWDPF dihe0 128.42 143.13 -143.82 96.35 62.63 19.44 
DOCKED: USER  keepresnum = 1 
DOCKED: USER  
DOCKED: REMARK  6 active torsions:
DOCKED: REMARK  status: ('A' for Active; 'I' for Inactive)
DOCKED: REMARK    1  A    between atoms: P_1  and  O_3 
DOCKED: REMARK    2  A    between atoms: P_2  and  O_4 
DOCKED: REMARK    3  A    between atoms: O_3  and  C_13 
DOCKED: REMARK    4  A    between atoms: O_4  and  C_14 
DOCKED: REMARK    5  A    between atoms: C_13  and  C_14 
DOCKED: REMARK    6  A    between atoms: C_13  and  C_15 
DOCKED: USER                              x       y       z     vdW  Elec       q    Type
DOCKED: USER                           _______ _______ _______ _____ _____    ______ ____
DOCKED: ROOT
DOCKED: ATOM      1  C   UNL d   1      -5.828 -14.491  -3.592 -0.19 +0.23    +0.193 C 
DOCKED: ENDROOT
DOCKED: BRANCH   1   2
DOCKED: ATOM      2  O   UNL d   1      -6.120 -13.125  -4.042 -0.25 -0.33    -0.356 OA
DOCKED: BRANCH   2   3
DOCKED: ATOM      3  P   UNL d   1      -5.483 -12.469  -5.409 -0.45 -0.02    -0.014 P 
DOCKED: ATOM      4  O   UNL d   1      -4.021 -12.942  -5.415 -0.63 -1.03    -0.577 OA
DOCKED: ATOM      5  O   UNL d   1      -5.581 -10.951  -5.271 -0.55 -0.43    -0.577 OA
DOCKED: ATOM      6  O   UNL d   1      -6.256 -13.022  -6.602 -0.07 -0.85    -0.638 OA
DOCKED: ENDBRANCH   2   3
DOCKED: ENDBRANCH   1   2
DOCKED: BRANCH   1   7
DOCKED: ATOM      7  C   UNL d   1      -5.981 -15.469  -4.815 -0.11 +0.32    +0.201 C 
DOCKED: BRANCH   7   8
DOCKED: ATOM      8  O   UNL d   1      -5.703 -16.861  -4.547 -0.09 -0.63    -0.364 OA
DOCKED: BRANCH   8   9
DOCKED: ATOM      9  P   UNL d   1      -4.409 -17.601  -5.265 -0.16 -0.03    -0.015 P 
DOCKED: ATOM     10  O   UNL d   1      -3.297 -16.545  -5.269 -0.38 -1.24    -0.577 OA
DOCKED: ATOM     11  O   UNL d   1      -4.841 -17.981  -6.681 -0.33 -0.89    -0.577 OA
DOCKED: ATOM     12  O   UNL d   1      -4.048 -18.811  -4.405 -0.25 -1.13    -0.638 OA
DOCKED: ENDBRANCH   8   9
DOCKED: ENDBRANCH   7   8
DOCKED: ENDBRANCH   1   7
DOCKED: BRANCH   1  13
DOCKED: ATOM     13  C   UNL d   1      -6.849 -14.920  -2.473 -0.18 +0.07    +0.073 C 
DOCKED: ATOM     14  O   UNL d   1      -6.715 -16.074  -1.934 -0.42 -0.89    -0.547 OA
DOCKED: ATOM     15  O   UNL d   1      -7.725 -14.051  -2.120 -0.02 -0.28    -0.547 OA
DOCKED: ENDBRANCH   1  13
DOCKED: TORSDOF 6
DOCKED: TER
DOCKED: ENDMDL
________________________________________________________________________________


	BEGINNING GENETIC ALGORITHM DOCKING 68 of 100
Run: 68 Seed: 1333350710 680849973 [ Run 68 of 100 GA/GALS ]
Beginning LAMARCKIAN GENETIC ALGORITHM (LGA), with a maximum of 25000000 energy evaluations.

Final-Value: -8.986


	FINAL GENETIC ALGORITHM DOCKED STATE
	_______________________________________________


Detailed state:  trans -2.023 -15.535 -4.995 quatxyzw 0.243958 -0.146587 0.665230 -0.690265 center 0.015 0.083 0.031 ntor 6 5.1660 64.8515 -110.4380 33.5725 12.7602 -127.7875
State:	 -2.023 -15.535  -4.995   0.337 -0.203  0.919 -92.698      5.17   64.85 -110.44   33.57   12.76 -127.79

DOCKED: MODEL       68
DOCKED: USER    Run = 68
DOCKED: USER    DPF = D:/Protein_go_brrr/autodock/final/mut_N102T/2_3_BPG/dock.dpf
DOCKED: USER  
DOCKED: USER    Estimated Free Energy of Binding    =   -9.39 kcal/mol  [=(1)+(2)+(3)-(4)]
DOCKED: USER    Estimated Inhibition Constant, Ki   =  131.68 nM (nanomolar)  [Temperature = 298.15 K]
DOCKED: USER    
DOCKED: USER    (1) Final Intermolecular Energy     =  -11.18 kcal/mol
DOCKED: USER        vdW + Hbond + desolv Energy     =   -4.83 kcal/mol
DOCKED: USER        Electrostatic Energy            =   -6.35 kcal/mol
DOCKED: USER    (2) Final Total Internal Energy     =   +2.19 kcal/mol
DOCKED: USER    (3) Torsional Free Energy           =   +1.79 kcal/mol
DOCKED: USER    (4) Unbound System's Energy  [=(2)] =   +2.19 kcal/mol
DOCKED: USER    
DOCKED: USER    
DOCKED: USER    NEWDPF move 2_3_BPG_opt.pdbqt
DOCKED: USER    NEWDPF about 0.015000 0.083000 0.031000
DOCKED: USER    NEWDPF tran0 -2.022873 -15.534539 -4.995020
DOCKED: USER    NEWDPF quaternion0 0.243958 -0.146587 0.665230 -0.690265
DOCKED: USER    NEWDPF axisangle0 0.337165 -0.202593 0.919389 -92.697873
DOCKED: USER    NEWDPF quat0 0.337165 -0.202593 0.919389 -92.697873
DOCKED: USER    NEWDPF dihe0 5.17 64.85 -110.44 33.57 12.76 -127.79 
DOCKED: USER  keepresnum = 1 
DOCKED: USER  
DOCKED: REMARK  6 active torsions:
DOCKED: REMARK  status: ('A' for Active; 'I' for Inactive)
DOCKED: REMARK    1  A    between atoms: P_1  and  O_3 
DOCKED: REMARK    2  A    between atoms: P_2  and  O_4 
DOCKED: REMARK    3  A    between atoms: O_3  and  C_13 
DOCKED: REMARK    4  A    between atoms: O_4  and  C_14 
DOCKED: REMARK    5  A    between atoms: C_13  and  C_14 
DOCKED: REMARK    6  A    between atoms: C_13  and  C_15 
DOCKED: USER                              x       y       z     vdW  Elec       q    Type
DOCKED: USER                           _______ _______ _______ _____ _____    ______ ____
DOCKED: ROOT
DOCKED: ATOM      1  C   UNL d   1      -1.745 -16.079  -5.270 -0.28 +0.25    +0.193 C 
DOCKED: ENDROOT
DOCKED: BRANCH   1   2
DOCKED: ATOM      2  O   UNL d   1      -2.689 -16.629  -6.249 -0.29 -0.79    -0.356 OA
DOCKED: BRANCH   2   3
DOCKED: ATOM      3  P   UNL d   1      -3.689 -17.895  -5.927 -0.19 -0.02    -0.014 P 
DOCKED: ATOM      4  O   UNL d   1      -3.278 -18.975  -6.939 -0.05 -0.49    -0.577 OA
DOCKED: ATOM      5  O   UNL d   1      -5.118 -17.414  -6.166 -0.34 -1.11    -0.577 OA
DOCKED: ATOM      6  O   UNL d   1      -3.431 -18.345  -4.492 +0.05 -1.07    -0.638 OA
DOCKED: ENDBRANCH   2   3
DOCKED: ENDBRANCH   1   2
DOCKED: BRANCH   1   7
DOCKED: ATOM      7  C   UNL d   1      -2.246 -14.654  -4.831 -0.34 +0.28    +0.201 C 
DOCKED: BRANCH   7   8
DOCKED: ATOM      8  O   UNL d   1      -3.679 -14.465  -4.823 -0.28 -0.74    -0.364 OA
DOCKED: BRANCH   8   9
DOCKED: ATOM      9  P   UNL d   1      -4.313 -12.938  -4.766 -0.52 -0.02    -0.015 P 
DOCKED: ATOM     10  O   UNL d   1      -4.039 -12.340  -6.151 -0.59 -0.91    -0.577 OA
DOCKED: ATOM     11  O   UNL d   1      -3.569 -12.187  -3.662 -0.09 -0.35    -0.577 OA
DOCKED: ATOM     12  O   UNL d   1      -5.809 -13.082  -4.488 -0.14 -0.68    -0.638 OA
DOCKED: ENDBRANCH   8   9
DOCKED: ENDBRANCH   7   8
DOCKED: ENDBRANCH   1   7
DOCKED: BRANCH   1  13
DOCKED: ATOM     13  C   UNL d   1      -0.318 -15.933  -5.919 -0.57 +0.06    +0.073 C 
DOCKED: ATOM     14  O   UNL d   1      -0.192 -15.197  -6.960 -0.47 -0.40    -0.547 OA
DOCKED: ATOM     15  O   UNL d   1       0.656 -16.518  -5.321 -0.70 -0.36    -0.547 OA
DOCKED: ENDBRANCH   1  13
DOCKED: TORSDOF 6
DOCKED: TER
DOCKED: ENDMDL
________________________________________________________________________________


	BEGINNING GENETIC ALGORITHM DOCKING 69 of 100
Run: 69 Seed: 758705881 1353472394 [ Run 69 of 100 GA/GALS ]
Beginning LAMARCKIAN GENETIC ALGORITHM (LGA), with a maximum of 25000000 energy evaluations.

Final-Value: -8.700


	FINAL GENETIC ALGORITHM DOCKED STATE
	_______________________________________________


Detailed state:  trans -6.409 -15.226 -4.392 quatxyzw 0.585937 0.757764 -0.200028 0.206059 center 0.015 0.083 0.031 ntor 6 171.7928 -61.6962 -156.7195 0.7657 23.1928 -85.6951
State:	 -6.409 -15.226  -4.392   0.599  0.774 -0.204 156.217    171.79  -61.70 -156.72    0.77   23.19  -85.70

DOCKED: MODEL       69
DOCKED: USER    Run = 69
DOCKED: USER    DPF = D:/Protein_go_brrr/autodock/final/mut_N102T/2_3_BPG/dock.dpf
DOCKED: USER  
DOCKED: USER    Estimated Free Energy of Binding    =   -9.00 kcal/mol  [=(1)+(2)+(3)-(4)]
DOCKED: USER    Estimated Inhibition Constant, Ki   =  252.68 nM (nanomolar)  [Temperature = 298.15 K]
DOCKED: USER    
DOCKED: USER    (1) Final Intermolecular Energy     =  -10.79 kcal/mol
DOCKED: USER        vdW + Hbond + desolv Energy     =   -3.98 kcal/mol
DOCKED: USER        Electrostatic Energy            =   -6.81 kcal/mol
DOCKED: USER    (2) Final Total Internal Energy     =   +2.09 kcal/mol
DOCKED: USER    (3) Torsional Free Energy           =   +1.79 kcal/mol
DOCKED: USER    (4) Unbound System's Energy  [=(2)] =   +2.09 kcal/mol
DOCKED: USER    
DOCKED: USER    
DOCKED: USER    NEWDPF move 2_3_BPG_opt.pdbqt
DOCKED: USER    NEWDPF about 0.015000 0.083000 0.031000
DOCKED: USER    NEWDPF tran0 -6.408518 -15.226487 -4.392171
DOCKED: USER    NEWDPF quaternion0 0.585937 0.757764 -0.200028 0.206059
DOCKED: USER    NEWDPF axisangle0 0.598787 0.774383 -0.204415 156.216966
DOCKED: USER    NEWDPF quat0 0.598787 0.774383 -0.204415 156.216966
DOCKED: USER    NEWDPF dihe0 171.79 -61.70 -156.72 0.77 23.19 -85.70 
DOCKED: USER  keepresnum = 1 
DOCKED: USER  
DOCKED: REMARK  6 active torsions:
DOCKED: REMARK  status: ('A' for Active; 'I' for Inactive)
DOCKED: REMARK    1  A    between atoms: P_1  and  O_3 
DOCKED: REMARK    2  A    between atoms: P_2  and  O_4 
DOCKED: REMARK    3  A    between atoms: O_3  and  C_13 
DOCKED: REMARK    4  A    between atoms: O_4  and  C_14 
DOCKED: REMARK    5  A    between atoms: C_13  and  C_14 
DOCKED: REMARK    6  A    between atoms: C_13  and  C_15 
DOCKED: USER                              x       y       z     vdW  Elec       q    Type
DOCKED: USER                           _______ _______ _______ _____ _____    ______ ____
DOCKED: ROOT
DOCKED: ATOM      1  C   UNL d   1      -6.577 -15.874  -4.346 -0.11 +0.25    +0.193 C 
DOCKED: ENDROOT
DOCKED: BRANCH   1   2
DOCKED: ATOM      2  O   UNL d   1      -5.343 -16.667  -4.325 +0.03 -0.68    -0.356 OA
DOCKED: BRANCH   2   3
DOCKED: ATOM      3  P   UNL d   1      -5.102 -17.987  -5.275 -0.20 -0.02    -0.014 P 
DOCKED: ATOM      4  O   UNL d   1      -3.964 -17.575  -6.222 -0.59 -1.16    -0.577 OA
DOCKED: ATOM      5  O   UNL d   1      -6.402 -18.240  -6.036 +0.00 -0.57    -0.577 OA
DOCKED: ATOM      6  O   UNL d   1      -4.689 -19.147  -4.375 -0.35 -1.06    -0.638 OA
DOCKED: ENDBRANCH   2   3
DOCKED: ENDBRANCH   1   2
DOCKED: BRANCH   1   7
DOCKED: ATOM      7  C   UNL d   1      -6.205 -14.356  -4.161 -0.17 +0.23    +0.201 C 
DOCKED: BRANCH   7   8
DOCKED: ATOM      8  O   UNL d   1      -5.603 -13.711  -5.305 -0.30 -0.64    -0.364 OA
DOCKED: BRANCH   8   9
DOCKED: ATOM      9  P   UNL d   1      -4.606 -12.408  -5.093 -0.54 -0.02    -0.015 P 
DOCKED: ATOM     10  O   UNL d   1      -4.041 -12.565  -3.676 -0.13 -0.46    -0.577 OA
DOCKED: ATOM     11  O   UNL d   1      -5.473 -11.157  -5.227 -0.62 -0.45    -0.577 OA
DOCKED: ATOM     12  O   UNL d   1      -3.515 -12.497  -6.159 -0.50 -1.02    -0.638 OA
DOCKED: ENDBRANCH   8   9
DOCKED: ENDBRANCH   7   8
DOCKED: ENDBRANCH   1   7
DOCKED: BRANCH   1  13
DOCKED: ATOM     13  C   UNL d   1      -7.518 -16.310  -3.162 -0.08 +0.08    +0.073 C 
DOCKED: ATOM     14  O   UNL d   1      -8.763 -16.493  -3.406 +0.02 -0.31    -0.547 OA
DOCKED: ATOM     15  O   UNL d   1      -6.964 -16.519  -2.023 -0.43 -0.97    -0.547 OA
DOCKED: ENDBRANCH   1  13
DOCKED: TORSDOF 6
DOCKED: TER
DOCKED: ENDMDL
________________________________________________________________________________


	BEGINNING GENETIC ALGORITHM DOCKING 70 of 100
Run: 70 Seed: 1028428651 1467213417 [ Run 70 of 100 GA/GALS ]
Beginning LAMARCKIAN GENETIC ALGORITHM (LGA), with a maximum of 25000000 energy evaluations.

Final-Value: -7.836


	FINAL GENETIC ALGORITHM DOCKED STATE
	_______________________________________________


Detailed state:  trans -5.312 -14.496 -3.402 quatxyzw -0.343637 -0.218377 -0.913044 0.023977 center 0.015 0.083 0.031 ntor 6 80.2732 -7.4201 -167.4516 179.4397 33.3004 -39.9127
State:	 -5.312 -14.496  -3.402  -0.344 -0.218 -0.913 177.252     80.27   -7.42 -167.45  179.44   33.30  -39.91

DOCKED: MODEL       70
DOCKED: USER    Run = 70
DOCKED: USER    DPF = D:/Protein_go_brrr/autodock/final/mut_N102T/2_3_BPG/dock.dpf
DOCKED: USER  
DOCKED: USER    Estimated Free Energy of Binding    =   -8.65 kcal/mol  [=(1)+(2)+(3)-(4)]
DOCKED: USER    Estimated Inhibition Constant, Ki   =  459.18 nM (nanomolar)  [Temperature = 298.15 K]
DOCKED: USER    
DOCKED: USER    (1) Final Intermolecular Energy     =  -10.44 kcal/mol
DOCKED: USER        vdW + Hbond + desolv Energy     =   -3.07 kcal/mol
DOCKED: USER        Electrostatic Energy            =   -7.37 kcal/mol
DOCKED: USER    (2) Final Total Internal Energy     =   +2.60 kcal/mol
DOCKED: USER    (3) Torsional Free Energy           =   +1.79 kcal/mol
DOCKED: USER    (4) Unbound System's Energy  [=(2)] =   +2.60 kcal/mol
DOCKED: USER    
DOCKED: USER    
DOCKED: USER    NEWDPF move 2_3_BPG_opt.pdbqt
DOCKED: USER    NEWDPF about 0.015000 0.083000 0.031000
DOCKED: USER    NEWDPF tran0 -5.311673 -14.495816 -3.401557
DOCKED: USER    NEWDPF quaternion0 -0.343637 -0.218377 -0.913044 0.023977
DOCKED: USER    NEWDPF axisangle0 -0.343736 -0.218440 -0.913307 177.252193
DOCKED: USER    NEWDPF quat0 -0.343736 -0.218440 -0.913307 177.252193
DOCKED: USER    NEWDPF dihe0 80.27 -7.42 -167.45 179.44 33.30 -39.91 
DOCKED: USER  keepresnum = 1 
DOCKED: USER  
DOCKED: REMARK  6 active torsions:
DOCKED: REMARK  status: ('A' for Active; 'I' for Inactive)
DOCKED: REMARK    1  A    between atoms: P_1  and  O_3 
DOCKED: REMARK    2  A    between atoms: P_2  and  O_4 
DOCKED: REMARK    3  A    between atoms: O_3  and  C_13 
DOCKED: REMARK    4  A    between atoms: O_4  and  C_14 
DOCKED: REMARK    5  A    between atoms: C_13  and  C_14 
DOCKED: REMARK    6  A    between atoms: C_13  and  C_15 
DOCKED: USER                              x       y       z     vdW  Elec       q    Type
DOCKED: USER                           _______ _______ _______ _____ _____    ______ ____
DOCKED: ROOT
DOCKED: ATOM      1  C   UNL d   1      -4.839 -14.292  -3.831 -0.22 +0.26    +0.193 C 
DOCKED: ENDROOT
DOCKED: BRANCH   1   2
DOCKED: ATOM      2  O   UNL d   1      -4.363 -15.462  -4.577 -0.05 -0.75    -0.356 OA
DOCKED: BRANCH   2   3
DOCKED: ATOM      3  P   UNL d   1      -5.371 -16.566  -5.263 +0.09 -0.03    -0.014 P 
DOCKED: ATOM      4  O   UNL d   1      -4.456 -17.414  -6.161 -0.51 -1.26    -0.577 OA
DOCKED: ATOM      5  O   UNL d   1      -6.401 -15.791  -6.082 +0.04 -1.13    -0.577 OA
DOCKED: ATOM      6  O   UNL d   1      -5.987 -17.400  -4.145 +0.05 -1.14    -0.638 OA
DOCKED: ENDBRANCH   2   3
DOCKED: ENDBRANCH   1   2
DOCKED: BRANCH   1   7
DOCKED: ATOM      7  C   UNL d   1      -6.137 -14.692  -3.037 -0.15 +0.22    +0.201 C 
DOCKED: BRANCH   7   8
DOCKED: ATOM      8  O   UNL d   1      -6.063 -14.563  -1.600 -0.18 -0.33    -0.364 OA
DOCKED: BRANCH   8   9
DOCKED: ATOM      9  P   UNL d   1      -6.825 -15.663  -0.628 -0.26 -0.01    -0.015 P 
DOCKED: ATOM     10  O   UNL d   1      -7.165 -16.841  -1.549 -0.55 -0.94    -0.577 OA
DOCKED: ATOM     11  O   UNL d   1      -8.080 -14.983  -0.084 +0.04 -0.20    -0.577 OA
DOCKED: ATOM     12  O   UNL d   1      -5.836 -16.058   0.468 +0.05 -0.60    -0.638 OA
DOCKED: ENDBRANCH   8   9
DOCKED: ENDBRANCH   7   8
DOCKED: ENDBRANCH   1   7
DOCKED: BRANCH   1  13
DOCKED: ATOM     13  C   UNL d   1      -5.195 -13.126  -4.826 -0.32 +0.10    +0.073 C 
DOCKED: ATOM     14  O   UNL d   1      -6.299 -12.496  -4.660 -0.49 -0.50    -0.547 OA
DOCKED: ATOM     15  O   UNL d   1      -4.318 -12.831  -5.716 -0.62 -1.06    -0.547 OA
DOCKED: ENDBRANCH   1  13
DOCKED: TORSDOF 6
DOCKED: TER
DOCKED: ENDMDL
________________________________________________________________________________


	BEGINNING GENETIC ALGORITHM DOCKING 71 of 100
Run: 71 Seed: 302784204 2041074032 [ Run 71 of 100 GA/GALS ]
Beginning LAMARCKIAN GENETIC ALGORITHM (LGA), with a maximum of 25000000 energy evaluations.

Final-Value: -8.782


	FINAL GENETIC ALGORITHM DOCKED STATE
	_______________________________________________


Detailed state:  trans -6.499 -15.402 -4.864 quatxyzw 0.595526 0.731292 -0.313879 0.109733 center 0.015 0.083 0.031 ntor 6 125.4631 172.9621 -34.7415 25.0260 -6.4203 -175.3056
State:	 -6.499 -15.402  -4.864   0.599  0.736 -0.316 167.400    125.46  172.96  -34.74   25.03   -6.42 -175.31

DOCKED: MODEL       71
DOCKED: USER    Run = 71
DOCKED: USER    DPF = D:/Protein_go_brrr/autodock/final/mut_N102T/2_3_BPG/dock.dpf
DOCKED: USER  
DOCKED: USER    Estimated Free Energy of Binding    =   -9.11 kcal/mol  [=(1)+(2)+(3)-(4)]
DOCKED: USER    Estimated Inhibition Constant, Ki   =  208.34 nM (nanomolar)  [Temperature = 298.15 K]
DOCKED: USER    
DOCKED: USER    (1) Final Intermolecular Energy     =  -10.90 kcal/mol
DOCKED: USER        vdW + Hbond + desolv Energy     =   -4.18 kcal/mol
DOCKED: USER        Electrostatic Energy            =   -6.72 kcal/mol
DOCKED: USER    (2) Final Total Internal Energy     =   +2.12 kcal/mol
DOCKED: USER    (3) Torsional Free Energy           =   +1.79 kcal/mol
DOCKED: USER    (4) Unbound System's Energy  [=(2)] =   +2.12 kcal/mol
DOCKED: USER    
DOCKED: USER    
DOCKED: USER    NEWDPF move 2_3_BPG_opt.pdbqt
DOCKED: USER    NEWDPF about 0.015000 0.083000 0.031000
DOCKED: USER    NEWDPF tran0 -6.498641 -15.401921 -4.864399
DOCKED: USER    NEWDPF quaternion0 0.595526 0.731292 -0.313879 0.109733
DOCKED: USER    NEWDPF axisangle0 0.599144 0.735735 -0.315786 167.400181
DOCKED: USER    NEWDPF quat0 0.599144 0.735735 -0.315786 167.400181
DOCKED: USER    NEWDPF dihe0 125.46 172.96 -34.74 25.03 -6.42 -175.31 
DOCKED: USER  keepresnum = 1 
DOCKED: USER  
DOCKED: REMARK  6 active torsions:
DOCKED: REMARK  status: ('A' for Active; 'I' for Inactive)
DOCKED: REMARK    1  A    between atoms: P_1  and  O_3 
DOCKED: REMARK    2  A    between atoms: P_2  and  O_4 
DOCKED: REMARK    3  A    between atoms: O_3  and  C_13 
DOCKED: REMARK    4  A    between atoms: O_4  and  C_14 
DOCKED: REMARK    5  A    between atoms: C_13  and  C_14 
DOCKED: REMARK    6  A    between atoms: C_13  and  C_15 
DOCKED: USER                              x       y       z     vdW  Elec       q    Type
DOCKED: USER                           _______ _______ _______ _____ _____    ______ ____
DOCKED: ROOT
DOCKED: ATOM      1  C   UNL d   1      -6.642 -16.012  -4.628 -0.10 +0.25    +0.193 C 
DOCKED: ENDROOT
DOCKED: BRANCH   1   2
DOCKED: ATOM      2  O   UNL d   1      -5.379 -16.713  -4.374 -0.05 -0.67    -0.356 OA
DOCKED: BRANCH   2   3
DOCKED: ATOM      3  P   UNL d   1      -4.824 -17.944  -5.313 -0.21 -0.02    -0.014 P 
DOCKED: ATOM      4  O   UNL d   1      -6.014 -18.302  -6.217 -0.01 -0.61    -0.577 OA
DOCKED: ATOM      5  O   UNL d   1      -4.461 -19.097  -4.380 -0.37 -0.98    -0.577 OA
DOCKED: ATOM      6  O   UNL d   1      -3.642 -17.422  -6.124 -0.61 -1.32    -0.638 OA
DOCKED: ENDBRANCH   2   3
DOCKED: ENDBRANCH   1   2
DOCKED: BRANCH   1   7
DOCKED: ATOM      7  C   UNL d   1      -6.332 -14.495  -4.902 -0.13 +0.27    +0.201 C 
DOCKED: BRANCH   7   8
DOCKED: ATOM      8  O   UNL d   1      -5.017 -14.040  -4.510 -0.30 -0.57    -0.364 OA
DOCKED: BRANCH   8   9
DOCKED: ATOM      9  P   UNL d   1      -4.550 -12.485  -4.826 -0.59 -0.02    -0.015 P 
DOCKED: ATOM     10  O   UNL d   1      -3.619 -12.105  -3.668 -0.08 -0.34    -0.577 OA
DOCKED: ATOM     11  O   UNL d   1      -5.818 -11.632  -4.842 -0.63 -0.53    -0.577 OA
DOCKED: ATOM     12  O   UNL d   1      -3.820 -12.497  -6.168 -0.52 -1.08    -0.638 OA
DOCKED: ENDBRANCH   8   9
DOCKED: ENDBRANCH   7   8
DOCKED: ENDBRANCH   1   7
DOCKED: BRANCH   1  13
DOCKED: ATOM     13  C   UNL d   1      -7.580 -16.116  -3.367 -0.08 +0.07    +0.073 C 
DOCKED: ATOM     14  O   UNL d   1      -8.725 -15.542  -3.408 +0.03 -0.28    -0.547 OA
DOCKED: ATOM     15  O   UNL d   1      -7.161 -16.830  -2.387 -0.53 -0.89    -0.547 OA
DOCKED: ENDBRANCH   1  13
DOCKED: TORSDOF 6
DOCKED: TER
DOCKED: ENDMDL
________________________________________________________________________________


	BEGINNING GENETIC ALGORITHM DOCKING 72 of 100
Run: 72 Seed: 1558841595 1507648870 [ Run 72 of 100 GA/GALS ]
Beginning LAMARCKIAN GENETIC ALGORITHM (LGA), with a maximum of 25000000 energy evaluations.

Final-Value: -8.804


	FINAL GENETIC ALGORITHM DOCKED STATE
	_______________________________________________


Detailed state:  trans -6.918 -14.979 -4.184 quatxyzw 0.417813 0.779651 -0.401040 0.238208 center 0.015 0.083 0.031 ntor 6 -121.2012 -13.5440 168.7093 7.0979 -70.9858 -179.1379
State:	 -6.918 -14.979  -4.184   0.430  0.803 -0.413 152.438   -121.20  -13.54  168.71    7.10  -70.99 -179.14

DOCKED: MODEL       72
DOCKED: USER    Run = 72
DOCKED: USER    DPF = D:/Protein_go_brrr/autodock/final/mut_N102T/2_3_BPG/dock.dpf
DOCKED: USER  
DOCKED: USER    Estimated Free Energy of Binding    =   -9.59 kcal/mol  [=(1)+(2)+(3)-(4)]
DOCKED: USER    Estimated Inhibition Constant, Ki   =   92.80 nM (nanomolar)  [Temperature = 298.15 K]
DOCKED: USER    
DOCKED: USER    (1) Final Intermolecular Energy     =  -11.38 kcal/mol
DOCKED: USER        vdW + Hbond + desolv Energy     =   -3.56 kcal/mol
DOCKED: USER        Electrostatic Energy            =   -7.82 kcal/mol
DOCKED: USER    (2) Final Total Internal Energy     =   +2.58 kcal/mol
DOCKED: USER    (3) Torsional Free Energy           =   +1.79 kcal/mol
DOCKED: USER    (4) Unbound System's Energy  [=(2)] =   +2.58 kcal/mol
DOCKED: USER    
DOCKED: USER    
DOCKED: USER    NEWDPF move 2_3_BPG_opt.pdbqt
DOCKED: USER    NEWDPF about 0.015000 0.083000 0.031000
DOCKED: USER    NEWDPF tran0 -6.917983 -14.979264 -4.184041
DOCKED: USER    NEWDPF quaternion0 0.417813 0.779651 -0.401040 0.238208
DOCKED: USER    NEWDPF axisangle0 0.430197 0.802759 -0.412927 152.438427
DOCKED: USER    NEWDPF quat0 0.430197 0.802759 -0.412927 152.438427
DOCKED: USER    NEWDPF dihe0 -121.20 -13.54 168.71 7.10 -70.99 -179.14 
DOCKED: USER  keepresnum = 1 
DOCKED: USER  
DOCKED: REMARK  6 active torsions:
DOCKED: REMARK  status: ('A' for Active; 'I' for Inactive)
DOCKED: REMARK    1  A    between atoms: P_1  and  O_3 
DOCKED: REMARK    2  A    between atoms: P_2  and  O_4 
DOCKED: REMARK    3  A    between atoms: O_3  and  C_13 
DOCKED: REMARK    4  A    between atoms: O_4  and  C_14 
DOCKED: REMARK    5  A    between atoms: C_13  and  C_14 
DOCKED: REMARK    6  A    between atoms: C_13  and  C_15 
DOCKED: USER                              x       y       z     vdW  Elec       q    Type
DOCKED: USER                           _______ _______ _______ _____ _____    ______ ____
DOCKED: ROOT
DOCKED: ATOM      1  C   UNL d   1      -6.812 -15.615  -4.001 -0.10 +0.22    +0.193 C 
DOCKED: ENDROOT
DOCKED: BRANCH   1   2
DOCKED: ATOM      2  O   UNL d   1      -5.426 -15.963  -4.333 -0.07 -0.64    -0.356 OA
DOCKED: BRANCH   2   3
DOCKED: ATOM      3  P   UNL d   1      -5.019 -17.255  -5.266 -0.12 -0.03    -0.014 P 
DOCKED: ATOM      4  O   UNL d   1      -3.575 -16.969  -5.707 -0.54 -1.35    -0.577 OA
DOCKED: ATOM      5  O   UNL d   1      -5.977 -17.275  -6.455 -0.10 -0.93    -0.577 OA
DOCKED: ATOM      6  O   UNL d   1      -5.101 -18.507  -4.398 -0.11 -1.16    -0.638 OA
DOCKED: ENDBRANCH   2   3
DOCKED: ENDBRANCH   1   2
DOCKED: BRANCH   1   7
DOCKED: ATOM      7  C   UNL d   1      -6.993 -14.060  -4.151 -0.13 +0.17    +0.201 C 
DOCKED: BRANCH   7   8
DOCKED: ATOM      8  O   UNL d   1      -5.777 -13.279  -4.125 -0.22 -0.37    -0.364 OA
DOCKED: BRANCH   8   9
DOCKED: ATOM      9  P   UNL d   1      -5.265 -12.496  -5.490 -0.41 -0.02    -0.015 P 
DOCKED: ATOM     10  O   UNL d   1      -6.178 -13.009  -6.610 -0.09 -0.80    -0.577 OA
DOCKED: ATOM     11  O   UNL d   1      -3.807 -12.897  -5.713 -0.59 -1.11    -0.577 OA
DOCKED: ATOM     12  O   UNL d   1      -5.443 -10.998  -5.244 -0.49 -0.48    -0.638 OA
DOCKED: ENDBRANCH   8   9
DOCKED: ENDBRANCH   7   8
DOCKED: ENDBRANCH   1   7
DOCKED: BRANCH   1  13
DOCKED: ATOM     13  C   UNL d   1      -7.127 -16.018  -2.512 -0.05 +0.09    +0.073 C 
DOCKED: ATOM     14  O   UNL d   1      -7.160 -17.262  -2.209 -0.50 -1.00    -0.547 OA
DOCKED: ATOM     15  O   UNL d   1      -7.271 -15.061  -1.668 -0.05 -0.42    -0.547 OA
DOCKED: ENDBRANCH   1  13
DOCKED: TORSDOF 6
DOCKED: TER
DOCKED: ENDMDL
________________________________________________________________________________


	BEGINNING GENETIC ALGORITHM DOCKING 73 of 100
Run: 73 Seed: 1548045454 792078824 [ Run 73 of 100 GA/GALS ]
Beginning LAMARCKIAN GENETIC ALGORITHM (LGA), with a maximum of 25000000 energy evaluations.

Final-Value: -8.662


	FINAL GENETIC ALGORITHM DOCKED STATE
	_______________________________________________


Detailed state:  trans -6.125 -14.633 -4.250 quatxyzw -0.609585 0.299546 0.723924 0.120878 center 0.015 0.083 0.031 ntor 6 -160.0995 128.8609 -53.2559 49.6084 -11.3440 157.7386
State:	 -6.125 -14.633  -4.250  -0.614  0.302  0.729 166.114   -160.10  128.86  -53.26   49.61  -11.34  157.74

DOCKED: MODEL       73
DOCKED: USER    Run = 73
DOCKED: USER    DPF = D:/Protein_go_brrr/autodock/final/mut_N102T/2_3_BPG/dock.dpf
DOCKED: USER  
DOCKED: USER    Estimated Free Energy of Binding    =   -9.14 kcal/mol  [=(1)+(2)+(3)-(4)]
DOCKED: USER    Estimated Inhibition Constant, Ki   =  198.08 nM (nanomolar)  [Temperature = 298.15 K]
DOCKED: USER    
DOCKED: USER    (1) Final Intermolecular Energy     =  -10.93 kcal/mol
DOCKED: USER        vdW + Hbond + desolv Energy     =   -4.01 kcal/mol
DOCKED: USER        Electrostatic Energy            =   -6.92 kcal/mol
DOCKED: USER    (2) Final Total Internal Energy     =   +2.27 kcal/mol
DOCKED: USER    (3) Torsional Free Energy           =   +1.79 kcal/mol
DOCKED: USER    (4) Unbound System's Energy  [=(2)] =   +2.27 kcal/mol
DOCKED: USER    
DOCKED: USER    
DOCKED: USER    NEWDPF move 2_3_BPG_opt.pdbqt
DOCKED: USER    NEWDPF about 0.015000 0.083000 0.031000
DOCKED: USER    NEWDPF tran0 -6.125439 -14.633359 -4.249836
DOCKED: USER    NEWDPF quaternion0 -0.609585 0.299546 0.723924 0.120878
DOCKED: USER    NEWDPF axisangle0 -0.614088 0.301759 0.729272 166.114438
DOCKED: USER    NEWDPF quat0 -0.614088 0.301759 0.729272 166.114438
DOCKED: USER    NEWDPF dihe0 -160.10 128.86 -53.26 49.61 -11.34 157.74 
DOCKED: USER  keepresnum = 1 
DOCKED: USER  
DOCKED: REMARK  6 active torsions:
DOCKED: REMARK  status: ('A' for Active; 'I' for Inactive)
DOCKED: REMARK    1  A    between atoms: P_1  and  O_3 
DOCKED: REMARK    2  A    between atoms: P_2  and  O_4 
DOCKED: REMARK    3  A    between atoms: O_3  and  C_13 
DOCKED: REMARK    4  A    between atoms: O_4  and  C_14 
DOCKED: REMARK    5  A    between atoms: C_13  and  C_14 
DOCKED: REMARK    6  A    between atoms: C_13  and  C_15 
DOCKED: USER                              x       y       z     vdW  Elec       q    Type
DOCKED: USER                           _______ _______ _______ _____ _____    ______ ____
DOCKED: ROOT
DOCKED: ATOM      1  C   UNL d   1      -6.022 -14.043  -3.949 -0.20 +0.21    +0.193 C 
DOCKED: ENDROOT
DOCKED: BRANCH   1   2
DOCKED: ATOM      2  O   UNL d   1      -5.320 -14.292  -2.685 -0.16 -0.39    -0.356 OA
DOCKED: BRANCH   2   3
DOCKED: ATOM      3  P   UNL d   1      -6.088 -14.731  -1.298 -0.33 -0.01    -0.014 P 
DOCKED: ATOM      4  O   UNL d   1      -7.140 -13.633  -1.079 -0.04 -0.26    -0.577 OA
DOCKED: ATOM      5  O   UNL d   1      -5.042 -14.737  -0.185 -0.15 -0.42    -0.577 OA
DOCKED: ATOM      6  O   UNL d   1      -6.737 -16.091  -1.529 -0.38 -1.00    -0.638 OA
DOCKED: ENDBRANCH   2   3
DOCKED: ENDBRANCH   1   2
DOCKED: BRANCH   1   7
DOCKED: ATOM      7  C   UNL d   1      -6.015 -15.367  -4.799 -0.11 +0.32    +0.201 C 
DOCKED: BRANCH   7   8
DOCKED: ATOM      8  O   UNL d   1      -4.768 -16.097  -4.820 -0.20 -0.78    -0.364 OA
DOCKED: BRANCH   8   9
DOCKED: ATOM      9  P   UNL d   1      -4.698 -17.601  -5.505 -0.09 -0.03    -0.015 P 
DOCKED: ATOM     10  O   UNL d   1      -3.515 -17.540  -6.479 -0.57 -1.15    -0.577 OA
DOCKED: ATOM     11  O   UNL d   1      -6.025 -17.822  -6.232 -0.04 -0.72    -0.577 OA
DOCKED: ATOM     12  O   UNL d   1      -4.461 -18.601  -4.375 -0.15 -1.22    -0.638 OA
DOCKED: ENDBRANCH   8   9
DOCKED: ENDBRANCH   7   8
DOCKED: ENDBRANCH   1   7
DOCKED: BRANCH   1  13
DOCKED: ATOM     13  C   UNL d   1      -5.282 -12.918  -4.764 -0.36 +0.09    +0.073 C 
DOCKED: ATOM     14  O   UNL d   1      -5.819 -11.756  -4.828 -0.65 -0.51    -0.547 OA
DOCKED: ATOM     15  O   UNL d   1      -4.140 -13.218  -5.269 -0.58 -1.05    -0.547 OA
DOCKED: ENDBRANCH   1  13
DOCKED: TORSDOF 6
DOCKED: TER
DOCKED: ENDMDL
________________________________________________________________________________


	BEGINNING GENETIC ALGORITHM DOCKING 74 of 100
Run: 74 Seed: 210399863 1688153718 [ Run 74 of 100 GA/GALS ]
Beginning LAMARCKIAN GENETIC ALGORITHM (LGA), with a maximum of 25000000 energy evaluations.

Final-Value: -8.723


	FINAL GENETIC ALGORITHM DOCKED STATE
	_______________________________________________


Detailed state:  trans -6.835 -15.169 -4.448 quatxyzw -0.589580 -0.668455 0.362491 -0.272330 center 0.015 0.083 0.031 ntor 6 111.1615 84.3457 -78.7310 50.5688 9.4509 -160.8218
State:	 -6.835 -15.169  -4.448  -0.613 -0.695  0.377 -148.394    111.16   84.35  -78.73   50.57    9.45 -160.82

DOCKED: MODEL       74
DOCKED: USER    Run = 74
DOCKED: USER    DPF = D:/Protein_go_brrr/autodock/final/mut_N102T/2_3_BPG/dock.dpf
DOCKED: USER  
DOCKED: USER    Estimated Free Energy of Binding    =   -9.18 kcal/mol  [=(1)+(2)+(3)-(4)]
DOCKED: USER    Estimated Inhibition Constant, Ki   =  185.75 nM (nanomolar)  [Temperature = 298.15 K]
DOCKED: USER    
DOCKED: USER    (1) Final Intermolecular Energy     =  -10.97 kcal/mol
DOCKED: USER        vdW + Hbond + desolv Energy     =   -3.99 kcal/mol
DOCKED: USER        Electrostatic Energy            =   -6.98 kcal/mol
DOCKED: USER    (2) Final Total Internal Energy     =   +2.25 kcal/mol
DOCKED: USER    (3) Torsional Free Energy           =   +1.79 kcal/mol
DOCKED: USER    (4) Unbound System's Energy  [=(2)] =   +2.25 kcal/mol
DOCKED: USER    
DOCKED: USER    
DOCKED: USER    NEWDPF move 2_3_BPG_opt.pdbqt
DOCKED: USER    NEWDPF about 0.015000 0.083000 0.031000
DOCKED: USER    NEWDPF tran0 -6.835220 -15.168520 -4.447588
DOCKED: USER    NEWDPF quaternion0 -0.589580 -0.668455 0.362491 -0.272330
DOCKED: USER    NEWDPF axisangle0 -0.612739 -0.694713 0.376730 -148.394033
DOCKED: USER    NEWDPF quat0 -0.612739 -0.694713 0.376730 -148.394033
DOCKED: USER    NEWDPF dihe0 111.16 84.35 -78.73 50.57 9.45 -160.82 
DOCKED: USER  keepresnum = 1 
DOCKED: USER  
DOCKED: REMARK  6 active torsions:
DOCKED: REMARK  status: ('A' for Active; 'I' for Inactive)
DOCKED: REMARK    1  A    between atoms: P_1  and  O_3 
DOCKED: REMARK    2  A    between atoms: P_2  and  O_4 
DOCKED: REMARK    3  A    between atoms: O_3  and  C_13 
DOCKED: REMARK    4  A    between atoms: O_4  and  C_14 
DOCKED: REMARK    5  A    between atoms: C_13  and  C_14 
DOCKED: REMARK    6  A    between atoms: C_13  and  C_15 
DOCKED: USER                              x       y       z     vdW  Elec       q    Type
DOCKED: USER                           _______ _______ _______ _____ _____    ______ ____
DOCKED: ROOT
DOCKED: ATOM      1  C   UNL d   1      -7.001 -15.774  -4.214 -0.09 +0.21    +0.193 C 
DOCKED: ENDROOT
DOCKED: BRANCH   1   2
DOCKED: ATOM      2  O   UNL d   1      -5.857 -16.671  -4.412 -0.09 -0.60    -0.356 OA
DOCKED: BRANCH   2   3
DOCKED: ATOM      3  P   UNL d   1      -5.530 -17.416  -5.841 -0.12 -0.02    -0.014 P 
DOCKED: ATOM      4  O   UNL d   1      -6.077 -18.841  -5.663 +0.01 -0.54    -0.577 OA
DOCKED: ATOM      5  O   UNL d   1      -4.013 -17.415  -6.016 -0.61 -1.23    -0.577 OA
DOCKED: ATOM      6  O   UNL d   1      -6.270 -16.666  -6.943 -0.12 -1.24    -0.638 OA
DOCKED: ENDBRANCH   2   3
DOCKED: ENDBRANCH   1   2
DOCKED: BRANCH   1   7
DOCKED: ATOM      7  C   UNL d   1      -6.537 -14.296  -4.483 -0.14 +0.22    +0.201 C 
DOCKED: BRANCH   7   8
DOCKED: ATOM      8  O   UNL d   1      -5.143 -14.124  -4.821 -0.32 -0.65    -0.364 OA
DOCKED: BRANCH   8   9
DOCKED: ATOM      9  P   UNL d   1      -4.469 -12.613  -4.822 -0.57 -0.02    -0.015 P 
DOCKED: ATOM     10  O   UNL d   1      -3.648 -12.543  -3.529 -0.15 -0.41    -0.577 OA
DOCKED: ATOM     11  O   UNL d   1      -5.623 -11.611  -4.821 -0.63 -0.52    -0.577 OA
DOCKED: ATOM     12  O   UNL d   1      -3.590 -12.512  -6.067 -0.52 -1.03    -0.638 OA
DOCKED: ENDBRANCH   8   9
DOCKED: ENDBRANCH   7   8
DOCKED: ENDBRANCH   1   7
DOCKED: BRANCH   1  13
DOCKED: ATOM     13  C   UNL d   1      -7.519 -15.879  -2.731 -0.09 +0.07    +0.073 C 
DOCKED: ATOM     14  O   UNL d   1      -8.309 -14.970  -2.293 +0.01 -0.28    -0.547 OA
DOCKED: ATOM     15  O   UNL d   1      -7.163 -16.915  -2.061 -0.56 -0.94    -0.547 OA
DOCKED: ENDBRANCH   1  13
DOCKED: TORSDOF 6
DOCKED: TER
DOCKED: ENDMDL
________________________________________________________________________________


	BEGINNING GENETIC ALGORITHM DOCKING 75 of 100
Run: 75 Seed: 938166491 1255697308 [ Run 75 of 100 GA/GALS ]
Beginning LAMARCKIAN GENETIC ALGORITHM (LGA), with a maximum of 25000000 energy evaluations.

Final-Value: -8.881


	FINAL GENETIC ALGORITHM DOCKED STATE
	_______________________________________________


Detailed state:  trans -6.759 -15.239 -4.472 quatxyzw -0.451338 -0.766741 0.423885 -0.169478 center 0.015 0.083 0.031 ntor 6 -117.8276 -24.9601 32.1351 17.4447 -43.4584 -172.7788
State:	 -6.759 -15.239  -4.472  -0.458 -0.778  0.430 -160.485   -117.83  -24.96   32.14   17.44  -43.46 -172.78

DOCKED: MODEL       75
DOCKED: USER    Run = 75
DOCKED: USER    DPF = D:/Protein_go_brrr/autodock/final/mut_N102T/2_3_BPG/dock.dpf
DOCKED: USER  
DOCKED: USER    Estimated Free Energy of Binding    =   -9.41 kcal/mol  [=(1)+(2)+(3)-(4)]
DOCKED: USER    Estimated Inhibition Constant, Ki   =  126.72 nM (nanomolar)  [Temperature = 298.15 K]
DOCKED: USER    
DOCKED: USER    (1) Final Intermolecular Energy     =  -11.20 kcal/mol
DOCKED: USER        vdW + Hbond + desolv Energy     =   -3.69 kcal/mol
DOCKED: USER        Electrostatic Energy            =   -7.51 kcal/mol
DOCKED: USER    (2) Final Total Internal Energy     =   +2.32 kcal/mol
DOCKED: USER    (3) Torsional Free Energy           =   +1.79 kcal/mol
DOCKED: USER    (4) Unbound System's Energy  [=(2)] =   +2.32 kcal/mol
DOCKED: USER    
DOCKED: USER    
DOCKED: USER    NEWDPF move 2_3_BPG_opt.pdbqt
DOCKED: USER    NEWDPF about 0.015000 0.083000 0.031000
DOCKED: USER    NEWDPF tran0 -6.759028 -15.239260 -4.471559
DOCKED: USER    NEWDPF quaternion0 -0.451338 -0.766741 0.423885 -0.169478
DOCKED: USER    NEWDPF axisangle0 -0.457963 -0.777996 0.430107 -160.485069
DOCKED: USER    NEWDPF quat0 -0.457963 -0.777996 0.430107 -160.485069
DOCKED: USER    NEWDPF dihe0 -117.83 -24.96 32.14 17.44 -43.46 -172.78 
DOCKED: USER  keepresnum = 1 
DOCKED: USER  
DOCKED: REMARK  6 active torsions:
DOCKED: REMARK  status: ('A' for Active; 'I' for Inactive)
DOCKED: REMARK    1  A    between atoms: P_1  and  O_3 
DOCKED: REMARK    2  A    between atoms: P_2  and  O_4 
DOCKED: REMARK    3  A    between atoms: O_3  and  C_13 
DOCKED: REMARK    4  A    between atoms: O_4  and  C_14 
DOCKED: REMARK    5  A    between atoms: C_13  and  C_14 
DOCKED: REMARK    6  A    between atoms: C_13  and  C_15 
DOCKED: USER                              x       y       z     vdW  Elec       q    Type
DOCKED: USER                           _______ _______ _______ _____ _____    ______ ____
DOCKED: ROOT
DOCKED: ATOM      1  C   UNL d   1      -6.676 -15.848  -4.203 -0.10 +0.24    +0.193 C 
DOCKED: ENDROOT
DOCKED: BRANCH   1   2
DOCKED: ATOM      2  O   UNL d   1      -5.264 -16.220  -4.340 -0.00 -0.67    -0.356 OA
DOCKED: BRANCH   2   3
DOCKED: ATOM      3  P   UNL d   1      -4.746 -17.474  -5.269 -0.17 -0.03    -0.014 P 
DOCKED: ATOM      4  O   UNL d   1      -3.333 -17.065  -5.713 -0.56 -1.21    -0.577 OA
DOCKED: ATOM      5  O   UNL d   1      -5.700 -17.581  -6.458 -0.13 -0.89    -0.577 OA
DOCKED: ATOM      6  O   UNL d   1      -4.719 -18.726  -4.398 -0.20 -1.17    -0.638 OA
DOCKED: ENDBRANCH   2   3
DOCKED: ENDBRANCH   1   2
DOCKED: BRANCH   1   7
DOCKED: ATOM      7  C   UNL d   1      -6.834 -14.323  -4.556 -0.13 +0.20    +0.201 C 
DOCKED: BRANCH   7   8
DOCKED: ATOM      8  O   UNL d   1      -5.607 -13.564  -4.632 -0.27 -0.47    -0.364 OA
DOCKED: BRANCH   8   9
DOCKED: ATOM      9  P   UNL d   1      -5.403 -12.433  -5.823 -0.36 -0.02    -0.015 P 
DOCKED: ATOM     10  O   UNL d   1      -3.911 -12.486  -6.171 -0.57 -0.99    -0.577 OA
DOCKED: ATOM     11  O   UNL d   1      -5.803 -11.083  -5.229 -0.61 -0.45    -0.577 OA
DOCKED: ATOM     12  O   UNL d   1      -6.282 -12.854  -7.000 +0.00 -0.74    -0.638 OA
DOCKED: ENDBRANCH   8   9
DOCKED: ENDBRANCH   7   8
DOCKED: ENDBRANCH   1   7
DOCKED: BRANCH   1  13
DOCKED: ATOM     13  C   UNL d   1      -7.152 -16.074  -2.720 -0.08 +0.09    +0.073 C 
DOCKED: ATOM     14  O   UNL d   1      -7.160 -17.268  -2.255 -0.49 -1.00    -0.547 OA
DOCKED: ATOM     15  O   UNL d   1      -7.448 -15.027  -2.037 -0.03 -0.41    -0.547 OA
DOCKED: ENDBRANCH   1  13
DOCKED: TORSDOF 6
DOCKED: TER
DOCKED: ENDMDL
________________________________________________________________________________


	BEGINNING GENETIC ALGORITHM DOCKING 76 of 100
Run: 76 Seed: 182052716 586054975 [ Run 76 of 100 GA/GALS ]
Beginning LAMARCKIAN GENETIC ALGORITHM (LGA), with a maximum of 25000000 energy evaluations.

Final-Value: -8.726


	FINAL GENETIC ALGORITHM DOCKED STATE
	_______________________________________________


Detailed state:  trans -6.656 -15.028 -4.262 quatxyzw -0.600915 -0.695823 0.269030 -0.286973 center 0.015 0.083 0.031 ntor 6 121.9794 -153.9863 -123.8811 34.2783 12.8379 -116.5590
State:	 -6.656 -15.028  -4.262  -0.627 -0.726  0.281 -146.646    121.98 -153.99 -123.88   34.28   12.84 -116.56

DOCKED: MODEL       76
DOCKED: USER    Run = 76
DOCKED: USER    DPF = D:/Protein_go_brrr/autodock/final/mut_N102T/2_3_BPG/dock.dpf
DOCKED: USER  
DOCKED: USER    Estimated Free Energy of Binding    =   -9.17 kcal/mol  [=(1)+(2)+(3)-(4)]
DOCKED: USER    Estimated Inhibition Constant, Ki   =  190.70 nM (nanomolar)  [Temperature = 298.15 K]
DOCKED: USER    
DOCKED: USER    (1) Final Intermolecular Energy     =  -10.96 kcal/mol
DOCKED: USER        vdW + Hbond + desolv Energy     =   -3.92 kcal/mol
DOCKED: USER        Electrostatic Energy            =   -7.03 kcal/mol
DOCKED: USER    (2) Final Total Internal Energy     =   +2.23 kcal/mol
DOCKED: USER    (3) Torsional Free Energy           =   +1.79 kcal/mol
DOCKED: USER    (4) Unbound System's Energy  [=(2)] =   +2.23 kcal/mol
DOCKED: USER    
DOCKED: USER    
DOCKED: USER    NEWDPF move 2_3_BPG_opt.pdbqt
DOCKED: USER    NEWDPF about 0.015000 0.083000 0.031000
DOCKED: USER    NEWDPF tran0 -6.655514 -15.027613 -4.261635
DOCKED: USER    NEWDPF quaternion0 -0.600915 -0.695823 0.269030 -0.286973
DOCKED: USER    NEWDPF axisangle0 -0.627300 -0.726376 0.280843 -146.646309
DOCKED: USER    NEWDPF quat0 -0.627300 -0.726376 0.280843 -146.646309
DOCKED: USER    NEWDPF dihe0 121.98 -153.99 -123.88 34.28 12.84 -116.56 
DOCKED: USER  keepresnum = 1 
DOCKED: USER  
DOCKED: REMARK  6 active torsions:
DOCKED: REMARK  status: ('A' for Active; 'I' for Inactive)
DOCKED: REMARK    1  A    between atoms: P_1  and  O_3 
DOCKED: REMARK    2  A    between atoms: P_2  and  O_4 
DOCKED: REMARK    3  A    between atoms: O_3  and  C_13 
DOCKED: REMARK    4  A    between atoms: O_4  and  C_14 
DOCKED: REMARK    5  A    between atoms: C_13  and  C_14 
DOCKED: REMARK    6  A    between atoms: C_13  and  C_15 
DOCKED: USER                              x       y       z     vdW  Elec       q    Type
DOCKED: USER                           _______ _______ _______ _____ _____    ______ ____
DOCKED: ROOT
DOCKED: ATOM      1  C   UNL d   1      -6.869 -15.652  -4.146 -0.09 +0.22    +0.193 C 
DOCKED: ENDROOT
DOCKED: BRANCH   1   2
DOCKED: ATOM      2  O   UNL d   1      -5.742 -16.567  -4.356 -0.08 -0.62    -0.356 OA
DOCKED: BRANCH   2   3
DOCKED: ATOM      3  P   UNL d   1      -5.506 -17.405  -5.751 -0.14 -0.02    -0.014 P 
DOCKED: ATOM      4  O   UNL d   1      -6.286 -16.611  -6.811 -0.12 -1.12    -0.577 OA
DOCKED: ATOM      5  O   UNL d   1      -6.095 -18.799  -5.547 +0.00 -0.56    -0.577 OA
DOCKED: ATOM      6  O   UNL d   1      -4.010 -17.415  -6.048 -0.58 -1.37    -0.638 OA
DOCKED: ENDBRANCH   2   3
DOCKED: ENDBRANCH   1   2
DOCKED: BRANCH   1   7
DOCKED: ATOM      7  C   UNL d   1      -6.325 -14.177  -4.126 -0.17 +0.21    +0.201 C 
DOCKED: BRANCH   7   8
DOCKED: ATOM      8  O   UNL d   1      -5.340 -13.854  -5.133 -0.31 -0.69    -0.364 OA
DOCKED: BRANCH   8   9
DOCKED: ATOM      9  P   UNL d   1      -4.415 -12.491  -4.981 -0.57 -0.02    -0.015 P 
DOCKED: ATOM     10  O   UNL d   1      -3.686 -12.651  -3.642 -0.15 -0.44    -0.577 OA
DOCKED: ATOM     11  O   UNL d   1      -5.372 -11.300  -4.971 -0.60 -0.47    -0.577 OA
DOCKED: ATOM     12  O   UNL d   1      -3.446 -12.470  -6.163 -0.49 -0.99    -0.638 OA
DOCKED: ENDBRANCH   8   9
DOCKED: ENDBRANCH   7   8
DOCKED: ENDBRANCH   1   7
DOCKED: BRANCH   1  13
DOCKED: ATOM     13  C   UNL d   1      -7.559 -15.954  -2.764 -0.09 +0.07    +0.073 C 
DOCKED: ATOM     14  O   UNL d   1      -8.514 -15.192  -2.378 +0.02 -0.27    -0.547 OA
DOCKED: ATOM     15  O   UNL d   1      -7.160 -16.997  -2.129 -0.56 -0.96    -0.547 OA
DOCKED: ENDBRANCH   1  13
DOCKED: TORSDOF 6
DOCKED: TER
DOCKED: ENDMDL
________________________________________________________________________________


	BEGINNING GENETIC ALGORITHM DOCKING 77 of 100
Run: 77 Seed: 1721574530 1938049743 [ Run 77 of 100 GA/GALS ]
Beginning LAMARCKIAN GENETIC ALGORITHM (LGA), with a maximum of 25000000 energy evaluations.

Final-Value: -8.890


	FINAL GENETIC ALGORITHM DOCKED STATE
	_______________________________________________


Detailed state:  trans -1.896 -15.592 -5.359 quatxyzw 0.208693 -0.132464 0.718833 -0.649754 center 0.015 0.083 0.031 ntor 6 -159.3112 51.9989 -122.2468 46.6565 -3.9636 -100.1991
State:	 -1.896 -15.592  -5.359   0.275 -0.174  0.946 -98.954   -159.31   52.00 -122.25   46.66   -3.96 -100.20

DOCKED: MODEL       77
DOCKED: USER    Run = 77
DOCKED: USER    DPF = D:/Protein_go_brrr/autodock/final/mut_N102T/2_3_BPG/dock.dpf
DOCKED: USER  
DOCKED: USER    Estimated Free Energy of Binding    =   -9.33 kcal/mol  [=(1)+(2)+(3)-(4)]
DOCKED: USER    Estimated Inhibition Constant, Ki   =  144.88 nM (nanomolar)  [Temperature = 298.15 K]
DOCKED: USER    
DOCKED: USER    (1) Final Intermolecular Energy     =  -11.12 kcal/mol
DOCKED: USER        vdW + Hbond + desolv Energy     =   -4.99 kcal/mol
DOCKED: USER        Electrostatic Energy            =   -6.13 kcal/mol
DOCKED: USER    (2) Final Total Internal Energy     =   +2.23 kcal/mol
DOCKED: USER    (3) Torsional Free Energy           =   +1.79 kcal/mol
DOCKED: USER    (4) Unbound System's Energy  [=(2)] =   +2.23 kcal/mol
DOCKED: USER    
DOCKED: USER    
DOCKED: USER    NEWDPF move 2_3_BPG_opt.pdbqt
DOCKED: USER    NEWDPF about 0.015000 0.083000 0.031000
DOCKED: USER    NEWDPF tran0 -1.895507 -15.591903 -5.359405
DOCKED: USER    NEWDPF quaternion0 0.208693 -0.132464 0.718833 -0.649754
DOCKED: USER    NEWDPF axisangle0 0.274544 -0.174262 0.945652 -98.953901
DOCKED: USER    NEWDPF quat0 0.274544 -0.174262 0.945652 -98.953901
DOCKED: USER    NEWDPF dihe0 -159.31 52.00 -122.25 46.66 -3.96 -100.20 
DOCKED: USER  keepresnum = 1 
DOCKED: USER  
DOCKED: REMARK  6 active torsions:
DOCKED: REMARK  status: ('A' for Active; 'I' for Inactive)
DOCKED: REMARK    1  A    between atoms: P_1  and  O_3 
DOCKED: REMARK    2  A    between atoms: P_2  and  O_4 
DOCKED: REMARK    3  A    between atoms: O_3  and  C_13 
DOCKED: REMARK    4  A    between atoms: O_4  and  C_14 
DOCKED: REMARK    5  A    between atoms: C_13  and  C_14 
DOCKED: REMARK    6  A    between atoms: C_13  and  C_15 
DOCKED: USER                              x       y       z     vdW  Elec       q    Type
DOCKED: USER                           _______ _______ _______ _____ _____    ______ ____
DOCKED: ROOT
DOCKED: ATOM      1  C   UNL d   1      -1.535 -16.112  -5.580 -0.35 +0.24    +0.193 C 
DOCKED: ENDROOT
DOCKED: BRANCH   1   2
DOCKED: ATOM      2  O   UNL d   1      -2.335 -16.834  -6.575 -0.38 -0.63    -0.356 OA
DOCKED: BRANCH   2   3
DOCKED: ATOM      3  P   UNL d   1      -3.430 -17.996  -6.183 -0.21 -0.02    -0.014 P 
DOCKED: ATOM      4  O   UNL d   1      -3.110 -19.161  -7.133 -0.04 -0.43    -0.577 OA
DOCKED: ATOM      5  O   UNL d   1      -4.818 -17.418  -6.451 -0.34 -1.24    -0.577 OA
DOCKED: ATOM      6  O   UNL d   1      -3.204 -18.384  -4.725 -0.00 -0.93    -0.638 OA
DOCKED: ENDBRANCH   2   3
DOCKED: ENDBRANCH   1   2
DOCKED: BRANCH   1   7
DOCKED: ATOM      7  C   UNL d   1      -2.236 -14.739  -5.269 -0.30 +0.32    +0.201 C 
DOCKED: BRANCH   7   8
DOCKED: ATOM      8  O   UNL d   1      -3.583 -14.820  -4.755 -0.19 -0.74    -0.364 OA
DOCKED: BRANCH   8   9
DOCKED: ATOM      9  P   UNL d   1      -4.411 -13.440  -4.372 -0.52 -0.02    -0.015 P 
DOCKED: ATOM     10  O   UNL d   1      -4.484 -12.643  -5.679 -0.64 -0.97    -0.577 OA
DOCKED: ATOM     11  O   UNL d   1      -3.593 -12.712  -3.305 -0.15 -0.41    -0.577 OA
DOCKED: ATOM     12  O   UNL d   1      -5.793 -13.865  -3.880 -0.01 -0.69    -0.638 OA
DOCKED: ENDBRANCH   8   9
DOCKED: ENDBRANCH   7   8
DOCKED: ENDBRANCH   1   7
DOCKED: BRANCH   1  13
DOCKED: ATOM     13  C   UNL d   1      -0.095 -15.826  -6.148 -0.57 +0.05    +0.073 C 
DOCKED: ATOM     14  O   UNL d   1       0.886 -16.520  -5.705 -0.67 -0.29    -0.547 OA
DOCKED: ATOM     15  O   UNL d   1      -0.000 -14.947  -7.079 -0.62 -0.37    -0.547 OA
DOCKED: ENDBRANCH   1  13
DOCKED: TORSDOF 6
DOCKED: TER
DOCKED: ENDMDL
________________________________________________________________________________


	BEGINNING GENETIC ALGORITHM DOCKING 78 of 100
Run: 78 Seed: 1769110380 1816223211 [ Run 78 of 100 GA/GALS ]
Beginning LAMARCKIAN GENETIC ALGORITHM (LGA), with a maximum of 25000000 energy evaluations.

Final-Value: -8.308


	FINAL GENETIC ALGORITHM DOCKED STATE
	_______________________________________________


Detailed state:  trans -5.479 -14.618 -3.959 quatxyzw 0.618739 -0.487019 -0.616348 0.009469 center 0.015 0.083 0.031 ntor 6 142.6693 121.1738 -38.0050 77.9338 -4.4874 112.2761
State:	 -5.479 -14.618  -3.959   0.619 -0.487 -0.616 178.915    142.67  121.17  -38.01   77.93   -4.49  112.28

DOCKED: MODEL       78
DOCKED: USER    Run = 78
DOCKED: USER    DPF = D:/Protein_go_brrr/autodock/final/mut_N102T/2_3_BPG/dock.dpf
DOCKED: USER  
DOCKED: USER    Estimated Free Energy of Binding    =   -8.76 kcal/mol  [=(1)+(2)+(3)-(4)]
DOCKED: USER    Estimated Inhibition Constant, Ki   =  381.55 nM (nanomolar)  [Temperature = 298.15 K]
DOCKED: USER    
DOCKED: USER    (1) Final Intermolecular Energy     =  -10.55 kcal/mol
DOCKED: USER        vdW + Hbond + desolv Energy     =   -3.87 kcal/mol
DOCKED: USER        Electrostatic Energy            =   -6.68 kcal/mol
DOCKED: USER    (2) Final Total Internal Energy     =   +2.24 kcal/mol
DOCKED: USER    (3) Torsional Free Energy           =   +1.79 kcal/mol
DOCKED: USER    (4) Unbound System's Energy  [=(2)] =   +2.24 kcal/mol
DOCKED: USER    
DOCKED: USER    
DOCKED: USER    NEWDPF move 2_3_BPG_opt.pdbqt
DOCKED: USER    NEWDPF about 0.015000 0.083000 0.031000
DOCKED: USER    NEWDPF tran0 -5.478669 -14.617832 -3.959087
DOCKED: USER    NEWDPF quaternion0 0.618739 -0.487019 -0.616348 0.009469
DOCKED: USER    NEWDPF axisangle0 0.618767 -0.487041 -0.616376 178.914871
DOCKED: USER    NEWDPF quat0 0.618767 -0.487041 -0.616376 178.914871
DOCKED: USER    NEWDPF dihe0 142.67 121.17 -38.01 77.93 -4.49 112.28 
DOCKED: USER  keepresnum = 1 
DOCKED: USER  
DOCKED: REMARK  6 active torsions:
DOCKED: REMARK  status: ('A' for Active; 'I' for Inactive)
DOCKED: REMARK    1  A    between atoms: P_1  and  O_3 
DOCKED: REMARK    2  A    between atoms: P_2  and  O_4 
DOCKED: REMARK    3  A    between atoms: O_3  and  C_13 
DOCKED: REMARK    4  A    between atoms: O_4  and  C_14 
DOCKED: REMARK    5  A    between atoms: C_13  and  C_14 
DOCKED: REMARK    6  A    between atoms: C_13  and  C_15 
DOCKED: USER                              x       y       z     vdW  Elec       q    Type
DOCKED: USER                           _______ _______ _______ _____ _____    ______ ____
DOCKED: ROOT
DOCKED: ATOM      1  C   UNL d   1      -5.220 -14.051  -3.713 -0.24 +0.23    +0.193 C 
DOCKED: ENDROOT
DOCKED: BRANCH   1   2
DOCKED: ATOM      2  O   UNL d   1      -4.980 -14.243  -2.278 -0.17 -0.38    -0.356 OA
DOCKED: BRANCH   2   3
DOCKED: ATOM      3  P   UNL d   1      -6.144 -14.735  -1.226 -0.35 -0.01    -0.014 P 
DOCKED: ATOM      4  O   UNL d   1      -7.194 -13.613  -1.265 -0.04 -0.27    -0.577 OA
DOCKED: ATOM      5  O   UNL d   1      -5.492 -14.846   0.151 -0.13 -0.37    -0.577 OA
DOCKED: ATOM      6  O   UNL d   1      -6.714 -16.053  -1.737 -0.39 -1.02    -0.638 OA
DOCKED: ENDBRANCH   2   3
DOCKED: ENDBRANCH   1   2
DOCKED: BRANCH   1   7
DOCKED: ATOM      7  C   UNL d   1      -5.548 -15.446  -4.361 -0.10 +0.33    +0.201 C 
DOCKED: BRANCH   7   8
DOCKED: ATOM      8  O   UNL d   1      -4.412 -16.210  -4.822 -0.24 -0.81    -0.364 OA
DOCKED: BRANCH   8   9
DOCKED: ATOM      9  P   UNL d   1      -4.634 -17.707  -5.489 -0.13 -0.03    -0.015 P 
DOCKED: ATOM     10  O   UNL d   1      -3.578 -17.812  -6.596 -0.58 -0.98    -0.577 OA
DOCKED: ATOM     11  O   UNL d   1      -6.055 -17.739  -6.050 -0.04 -0.74    -0.577 OA
DOCKED: ATOM     12  O   UNL d   1      -4.406 -18.733  -4.380 -0.22 -1.19    -0.638 OA
DOCKED: ENDBRANCH   8   9
DOCKED: ENDBRANCH   7   8
DOCKED: ENDBRANCH   1   7
DOCKED: BRANCH   1  13
DOCKED: ATOM     13  C   UNL d   1      -3.931 -13.465  -4.402 -0.43 +0.10    +0.073 C 
DOCKED: ATOM     14  O   UNL d   1      -4.045 -12.939  -5.564 -0.63 -1.05    -0.547 OA
DOCKED: ATOM     15  O   UNL d   1      -2.843 -13.494  -3.722 -0.17 -0.50    -0.547 OA
DOCKED: ENDBRANCH   1  13
DOCKED: TORSDOF 6
DOCKED: TER
DOCKED: ENDMDL
________________________________________________________________________________


	BEGINNING GENETIC ALGORITHM DOCKING 79 of 100
Run: 79 Seed: 22979157 214878096 [ Run 79 of 100 GA/GALS ]
Beginning LAMARCKIAN GENETIC ALGORITHM (LGA), with a maximum of 25000000 energy evaluations.

Final-Value: -8.790


	FINAL GENETIC ALGORITHM DOCKED STATE
	_______________________________________________


Detailed state:  trans -6.673 -15.439 -4.906 quatxyzw -0.495792 -0.829485 0.251580 -0.053405 center 0.015 0.083 0.031 ntor 6 -39.4940 -45.0050 166.8452 17.2351 -46.3075 -163.6478
State:	 -6.673 -15.439  -4.906  -0.497 -0.831  0.252 -173.877    -39.49  -45.00  166.85   17.24  -46.31 -163.65

DOCKED: MODEL       79
DOCKED: USER    Run = 79
DOCKED: USER    DPF = D:/Protein_go_brrr/autodock/final/mut_N102T/2_3_BPG/dock.dpf
DOCKED: USER  
DOCKED: USER    Estimated Free Energy of Binding    =   -9.24 kcal/mol  [=(1)+(2)+(3)-(4)]
DOCKED: USER    Estimated Inhibition Constant, Ki   =  167.25 nM (nanomolar)  [Temperature = 298.15 K]
DOCKED: USER    
DOCKED: USER    (1) Final Intermolecular Energy     =  -11.03 kcal/mol
DOCKED: USER        vdW + Hbond + desolv Energy     =   -3.73 kcal/mol
DOCKED: USER        Electrostatic Energy            =   -7.30 kcal/mol
DOCKED: USER    (2) Final Total Internal Energy     =   +2.24 kcal/mol
DOCKED: USER    (3) Torsional Free Energy           =   +1.79 kcal/mol
DOCKED: USER    (4) Unbound System's Energy  [=(2)] =   +2.24 kcal/mol
DOCKED: USER    
DOCKED: USER    
DOCKED: USER    NEWDPF move 2_3_BPG_opt.pdbqt
DOCKED: USER    NEWDPF about 0.015000 0.083000 0.031000
DOCKED: USER    NEWDPF tran0 -6.673049 -15.439039 -4.905536
DOCKED: USER    NEWDPF quaternion0 -0.495792 -0.829485 0.251580 -0.053405
DOCKED: USER    NEWDPF axisangle0 -0.496500 -0.830671 0.251939 -173.877316
DOCKED: USER    NEWDPF quat0 -0.496500 -0.830671 0.251939 -173.877316
DOCKED: USER    NEWDPF dihe0 -39.49 -45.00 166.85 17.24 -46.31 -163.65 
DOCKED: USER  keepresnum = 1 
DOCKED: USER  
DOCKED: REMARK  6 active torsions:
DOCKED: REMARK  status: ('A' for Active; 'I' for Inactive)
DOCKED: REMARK    1  A    between atoms: P_1  and  O_3 
DOCKED: REMARK    2  A    between atoms: P_2  and  O_4 
DOCKED: REMARK    3  A    between atoms: O_3  and  C_13 
DOCKED: REMARK    4  A    between atoms: O_4  and  C_14 
DOCKED: REMARK    5  A    between atoms: C_13  and  C_14 
DOCKED: REMARK    6  A    between atoms: C_13  and  C_15 
DOCKED: USER                              x       y       z     vdW  Elec       q    Type
DOCKED: USER                           _______ _______ _______ _____ _____    ______ ____
DOCKED: ROOT
DOCKED: ATOM      1  C   UNL d   1      -6.658 -16.090  -4.745 -0.10 +0.25    +0.193 C 
DOCKED: ENDROOT
DOCKED: BRANCH   1   2
DOCKED: ATOM      2  O   UNL d   1      -5.278 -16.443  -4.394 -0.03 -0.68    -0.356 OA
DOCKED: BRANCH   2   3
DOCKED: ATOM      3  P   UNL d   1      -4.366 -17.497  -5.265 -0.14 -0.03    -0.014 P 
DOCKED: ATOM      4  O   UNL d   1      -3.033 -16.764  -5.481 -0.43 -1.16    -0.577 OA
DOCKED: ATOM      5  O   UNL d   1      -5.093 -17.741  -6.586 -0.29 -0.98    -0.577 OA
DOCKED: ATOM      6  O   UNL d   1      -4.181 -18.761  -4.432 -0.23 -1.14    -0.638 OA
DOCKED: ENDBRANCH   2   3
DOCKED: ENDBRANCH   1   2
DOCKED: BRANCH   1   7
DOCKED: ATOM      7  C   UNL d   1      -6.770 -14.523  -4.840 -0.12 +0.22    +0.201 C 
DOCKED: BRANCH   7   8
DOCKED: ATOM      8  O   UNL d   1      -5.582 -13.784  -4.484 -0.22 -0.48    -0.364 OA
DOCKED: BRANCH   8   9
DOCKED: ATOM      9  P   UNL d   1      -5.097 -12.499  -5.407 -0.42 -0.02    -0.015 P 
DOCKED: ATOM     10  O   UNL d   1      -5.961 -12.568  -6.672 -0.15 -0.69    -0.577 OA
DOCKED: ATOM     11  O   UNL d   1      -3.615 -12.706  -5.716 -0.62 -0.96    -0.577 OA
DOCKED: ATOM     12  O   UNL d   1      -5.368 -11.233  -4.595 -0.42 -0.53    -0.638 OA
DOCKED: ENDBRANCH   8   9
DOCKED: ENDBRANCH   7   8
DOCKED: ENDBRANCH   1   7
DOCKED: BRANCH   1  13
DOCKED: ATOM     13  C   UNL d   1      -7.646 -16.600  -3.631 -0.07 +0.07    +0.073 C 
DOCKED: ATOM     14  O   UNL d   1      -7.160 -16.967  -2.504 -0.51 -0.90    -0.547 OA
DOCKED: ATOM     15  O   UNL d   1      -8.901 -16.558  -3.901 +0.02 -0.29    -0.547 OA
DOCKED: ENDBRANCH   1  13
DOCKED: TORSDOF 6
DOCKED: TER
DOCKED: ENDMDL
________________________________________________________________________________


	BEGINNING GENETIC ALGORITHM DOCKING 80 of 100
Run: 80 Seed: 774419284 32325888 [ Run 80 of 100 GA/GALS ]
Beginning LAMARCKIAN GENETIC ALGORITHM (LGA), with a maximum of 25000000 energy evaluations.

Final-Value: -8.730


	FINAL GENETIC ALGORITHM DOCKED STATE
	_______________________________________________


Detailed state:  trans -6.511 -15.375 -4.565 quatxyzw 0.581453 0.689979 -0.394969 0.172745 center 0.015 0.083 0.031 ntor 6 -88.4514 174.9082 -45.5974 32.3908 0.8270 -179.6335
State:	 -6.511 -15.375  -4.565   0.590  0.701 -0.401 160.105    -88.45  174.91  -45.60   32.39    0.83 -179.63

DOCKED: MODEL       80
DOCKED: USER    Run = 80
DOCKED: USER    DPF = D:/Protein_go_brrr/autodock/final/mut_N102T/2_3_BPG/dock.dpf
DOCKED: USER  
DOCKED: USER    Estimated Free Energy of Binding    =   -9.10 kcal/mol  [=(1)+(2)+(3)-(4)]
DOCKED: USER    Estimated Inhibition Constant, Ki   =  213.40 nM (nanomolar)  [Temperature = 298.15 K]
DOCKED: USER    
DOCKED: USER    (1) Final Intermolecular Energy     =  -10.89 kcal/mol
DOCKED: USER        vdW + Hbond + desolv Energy     =   -4.00 kcal/mol
DOCKED: USER        Electrostatic Energy            =   -6.89 kcal/mol
DOCKED: USER    (2) Final Total Internal Energy     =   +2.16 kcal/mol
DOCKED: USER    (3) Torsional Free Energy           =   +1.79 kcal/mol
DOCKED: USER    (4) Unbound System's Energy  [=(2)] =   +2.16 kcal/mol
DOCKED: USER    
DOCKED: USER    
DOCKED: USER    NEWDPF move 2_3_BPG_opt.pdbqt
DOCKED: USER    NEWDPF about 0.015000 0.083000 0.031000
DOCKED: USER    NEWDPF tran0 -6.511002 -15.374539 -4.565224
DOCKED: USER    NEWDPF quaternion0 0.581453 0.689979 -0.394969 0.172745
DOCKED: USER    NEWDPF axisangle0 0.590328 0.700510 -0.400998 160.105100
DOCKED: USER    NEWDPF quat0 0.590328 0.700510 -0.400998 160.105100
DOCKED: USER    NEWDPF dihe0 -88.45 174.91 -45.60 32.39 0.83 -179.63 
DOCKED: USER  keepresnum = 1 
DOCKED: USER  
DOCKED: REMARK  6 active torsions:
DOCKED: REMARK  status: ('A' for Active; 'I' for Inactive)
DOCKED: REMARK    1  A    between atoms: P_1  and  O_3 
DOCKED: REMARK    2  A    between atoms: P_2  and  O_4 
DOCKED: REMARK    3  A    between atoms: O_3  and  C_13 
DOCKED: REMARK    4  A    between atoms: O_4  and  C_14 
DOCKED: REMARK    5  A    between atoms: C_13  and  C_14 
DOCKED: REMARK    6  A    between atoms: C_13  and  C_15 
DOCKED: USER                              x       y       z     vdW  Elec       q    Type
DOCKED: USER                           _______ _______ _______ _____ _____    ______ ____
DOCKED: ROOT
DOCKED: ATOM      1  C   UNL d   1      -6.629 -15.960  -4.261 -0.10 +0.24    +0.193 C 
DOCKED: ENDROOT
DOCKED: BRANCH   1   2
DOCKED: ATOM      2  O   UNL d   1      -5.371 -16.715  -4.221 +0.13 -0.70    -0.356 OA
DOCKED: BRANCH   2   3
DOCKED: ATOM      3  P   UNL d   1      -5.006 -17.919  -5.280 -0.21 -0.02    -0.014 P 
DOCKED: ATOM      4  O   UNL d   1      -6.313 -18.158  -6.053 -0.00 -0.59    -0.577 OA
DOCKED: ATOM      5  O   UNL d   1      -4.608 -19.142  -4.457 -0.34 -0.93    -0.577 OA
DOCKED: ATOM      6  O   UNL d   1      -3.897 -17.417  -6.199 -0.57 -1.39    -0.638 OA
DOCKED: ENDBRANCH   2   3
DOCKED: ENDBRANCH   1   2
DOCKED: BRANCH   1   7
DOCKED: ATOM      7  C   UNL d   1      -6.316 -14.482  -4.700 -0.15 +0.26    +0.201 C 
DOCKED: BRANCH   7   8
DOCKED: ATOM      8  O   UNL d   1      -4.949 -14.049  -4.527 -0.31 -0.59    -0.364 OA
DOCKED: BRANCH   8   9
DOCKED: ATOM      9  P   UNL d   1      -4.525 -12.486  -4.864 -0.59 -0.02    -0.015 P 
DOCKED: ATOM     10  O   UNL d   1      -3.611 -12.062  -3.707 -0.08 -0.33    -0.577 OA
DOCKED: ATOM     11  O   UNL d   1      -5.818 -11.671  -4.898 -0.64 -0.53    -0.577 OA
DOCKED: ATOM     12  O   UNL d   1      -3.789 -12.497  -6.203 -0.49 -1.08    -0.638 OA
DOCKED: ENDBRANCH   8   9
DOCKED: ENDBRANCH   7   8
DOCKED: ENDBRANCH   1   7
DOCKED: BRANCH   1  13
DOCKED: ATOM     13  C   UNL d   1      -7.289 -15.933  -2.832 -0.09 +0.08    +0.073 C 
DOCKED: ATOM     14  O   UNL d   1      -7.162 -16.963  -2.081 -0.56 -0.96    -0.547 OA
DOCKED: ATOM     15  O   UNL d   1      -7.867 -14.843  -2.478 +0.00 -0.34    -0.547 OA
DOCKED: ENDBRANCH   1  13
DOCKED: TORSDOF 6
DOCKED: TER
DOCKED: ENDMDL
________________________________________________________________________________


	BEGINNING GENETIC ALGORITHM DOCKING 81 of 100
Run: 81 Seed: 647586289 42835886 [ Run 81 of 100 GA/GALS ]
Beginning LAMARCKIAN GENETIC ALGORITHM (LGA), with a maximum of 25000000 energy evaluations.

Final-Value: -8.915


	FINAL GENETIC ALGORITHM DOCKED STATE
	_______________________________________________


Detailed state:  trans -1.801 -16.078 -5.204 quatxyzw 0.105103 -0.113769 0.589873 -0.792502 center 0.015 0.083 0.031 ntor 6 -62.8327 34.0688 157.5426 37.3791 9.2820 -85.1662
State:	 -1.801 -16.078  -5.204   0.172 -0.187  0.967 -75.160    -62.83   34.07  157.54   37.38    9.28  -85.17

DOCKED: MODEL       81
DOCKED: USER    Run = 81
DOCKED: USER    DPF = D:/Protein_go_brrr/autodock/final/mut_N102T/2_3_BPG/dock.dpf
DOCKED: USER  
DOCKED: USER    Estimated Free Energy of Binding    =   -9.33 kcal/mol  [=(1)+(2)+(3)-(4)]
DOCKED: USER    Estimated Inhibition Constant, Ki   =  144.38 nM (nanomolar)  [Temperature = 298.15 K]
DOCKED: USER    
DOCKED: USER    (1) Final Intermolecular Energy     =  -11.12 kcal/mol
DOCKED: USER        vdW + Hbond + desolv Energy     =   -4.95 kcal/mol
DOCKED: USER        Electrostatic Energy            =   -6.18 kcal/mol
DOCKED: USER    (2) Final Total Internal Energy     =   +2.21 kcal/mol
DOCKED: USER    (3) Torsional Free Energy           =   +1.79 kcal/mol
DOCKED: USER    (4) Unbound System's Energy  [=(2)] =   +2.21 kcal/mol
DOCKED: USER    
DOCKED: USER    
DOCKED: USER    NEWDPF move 2_3_BPG_opt.pdbqt
DOCKED: USER    NEWDPF about 0.015000 0.083000 0.031000
DOCKED: USER    NEWDPF tran0 -1.801128 -16.078196 -5.204282
DOCKED: USER    NEWDPF quaternion0 0.105103 -0.113769 0.589873 -0.792502
DOCKED: USER    NEWDPF axisangle0 0.172337 -0.186547 0.967213 -75.160103
DOCKED: USER    NEWDPF quat0 0.172337 -0.186547 0.967213 -75.160103
DOCKED: USER    NEWDPF dihe0 -62.83 34.07 157.54 37.38 9.28 -85.17 
DOCKED: USER  keepresnum = 1 
DOCKED: USER  
DOCKED: REMARK  6 active torsions:
DOCKED: REMARK  status: ('A' for Active; 'I' for Inactive)
DOCKED: REMARK    1  A    between atoms: P_1  and  O_3 
DOCKED: REMARK    2  A    between atoms: P_2  and  O_4 
DOCKED: REMARK    3  A    between atoms: O_3  and  C_13 
DOCKED: REMARK    4  A    between atoms: O_4  and  C_14 
DOCKED: REMARK    5  A    between atoms: C_13  and  C_14 
DOCKED: REMARK    6  A    between atoms: C_13  and  C_15 
DOCKED: USER                              x       y       z     vdW  Elec       q    Type
DOCKED: USER                           _______ _______ _______ _____ _____    ______ ____
DOCKED: ROOT
DOCKED: ATOM      1  C   UNL d   1      -1.670 -16.728  -5.304 -0.24 +0.23    +0.193 C 
DOCKED: ENDROOT
DOCKED: BRANCH   1   2
DOCKED: ATOM      2  O   UNL d   1      -2.691 -17.266  -6.210 -0.61 -0.60    -0.356 OA
DOCKED: BRANCH   2   3
DOCKED: ATOM      3  P   UNL d   1      -4.052 -18.028  -5.687 -0.22 -0.02    -0.014 P 
DOCKED: ATOM      4  O   UNL d   1      -4.383 -19.031  -6.803 -0.04 -0.53    -0.577 OA
DOCKED: ATOM      5  O   UNL d   1      -5.139 -16.965  -5.546 -0.26 -1.19    -0.577 OA
DOCKED: ATOM      6  O   UNL d   1      -3.721 -18.736  -4.377 -0.21 -1.10    -0.638 OA
DOCKED: ENDBRANCH   2   3
DOCKED: ENDBRANCH   1   2
DOCKED: BRANCH   1   7
DOCKED: ATOM      7  C   UNL d   1      -1.785 -15.159  -5.289 -0.38 +0.27    +0.201 C 
DOCKED: BRANCH   7   8
DOCKED: ATOM      8  O   UNL d   1      -2.907 -14.616  -4.558 -0.24 -0.57    -0.364 OA
DOCKED: BRANCH   8   9
DOCKED: ATOM      9  P   UNL d   1      -3.308 -13.019  -4.720 -0.66 -0.02    -0.015 P 
DOCKED: ATOM     10  O   UNL d   1      -2.042 -12.343  -5.260 -0.13 -0.44    -0.577 OA
DOCKED: ATOM     11  O   UNL d   1      -3.679 -12.509  -3.328 -0.13 -0.39    -0.577 OA
DOCKED: ATOM     12  O   UNL d   1      -4.467 -12.944  -5.713 -0.53 -1.32    -0.638 OA
DOCKED: ENDBRANCH   8   9
DOCKED: ENDBRANCH   7   8
DOCKED: ENDBRANCH   1   7
DOCKED: BRANCH   1  13
DOCKED: ATOM     13  C   UNL d   1      -0.234 -17.124  -5.814 -0.51 +0.04    +0.073 C 
DOCKED: ATOM     14  O   UNL d   1      -0.137 -17.963  -6.776 -0.10 -0.19    -0.547 OA
DOCKED: ATOM     15  O   UNL d   1       0.763 -16.526  -5.269 -0.68 -0.36    -0.547 OA
DOCKED: ENDBRANCH   1  13
DOCKED: TORSDOF 6
DOCKED: TER
DOCKED: ENDMDL
________________________________________________________________________________


	BEGINNING GENETIC ALGORITHM DOCKING 82 of 100
Run: 82 Seed: 992113213 1384916884 [ Run 82 of 100 GA/GALS ]
Beginning LAMARCKIAN GENETIC ALGORITHM (LGA), with a maximum of 25000000 energy evaluations.

Final-Value: -8.800


	FINAL GENETIC ALGORITHM DOCKED STATE
	_______________________________________________


Detailed state:  trans -6.698 -15.333 -4.510 quatxyzw -0.509926 -0.726214 0.415435 -0.200009 center 0.015 0.083 0.031 ntor 6 -105.0129 -48.2750 146.5794 18.2881 -27.6668 179.6700
State:	 -6.698 -15.333  -4.510  -0.520 -0.741  0.424 -156.925   -105.01  -48.27  146.58   18.29  -27.67  179.67

DOCKED: MODEL       82
DOCKED: USER    Run = 82
DOCKED: USER    DPF = D:/Protein_go_brrr/autodock/final/mut_N102T/2_3_BPG/dock.dpf
DOCKED: USER  
DOCKED: USER    Estimated Free Energy of Binding    =   -9.22 kcal/mol  [=(1)+(2)+(3)-(4)]
DOCKED: USER    Estimated Inhibition Constant, Ki   =  173.34 nM (nanomolar)  [Temperature = 298.15 K]
DOCKED: USER    
DOCKED: USER    (1) Final Intermolecular Energy     =  -11.01 kcal/mol
DOCKED: USER        vdW + Hbond + desolv Energy     =   -3.88 kcal/mol
DOCKED: USER        Electrostatic Energy            =   -7.14 kcal/mol
DOCKED: USER    (2) Final Total Internal Energy     =   +2.21 kcal/mol
DOCKED: USER    (3) Torsional Free Energy           =   +1.79 kcal/mol
DOCKED: USER    (4) Unbound System's Energy  [=(2)] =   +2.21 kcal/mol
DOCKED: USER    
DOCKED: USER    
DOCKED: USER    NEWDPF move 2_3_BPG_opt.pdbqt
DOCKED: USER    NEWDPF about 0.015000 0.083000 0.031000
DOCKED: USER    NEWDPF tran0 -6.697724 -15.333481 -4.509503
DOCKED: USER    NEWDPF quaternion0 -0.509926 -0.726214 0.415435 -0.200009
DOCKED: USER    NEWDPF axisangle0 -0.520442 -0.741190 0.424002 -156.925049
DOCKED: USER    NEWDPF quat0 -0.520442 -0.741190 0.424002 -156.925049
DOCKED: USER    NEWDPF dihe0 -105.01 -48.27 146.58 18.29 -27.67 179.67 
DOCKED: USER  keepresnum = 1 
DOCKED: USER  
DOCKED: REMARK  6 active torsions:
DOCKED: REMARK  status: ('A' for Active; 'I' for Inactive)
DOCKED: REMARK    1  A    between atoms: P_1  and  O_3 
DOCKED: REMARK    2  A    between atoms: P_2  and  O_4 
DOCKED: REMARK    3  A    between atoms: O_3  and  C_13 
DOCKED: REMARK    4  A    between atoms: O_4  and  C_14 
DOCKED: REMARK    5  A    between atoms: C_13  and  C_14 
DOCKED: REMARK    6  A    between atoms: C_13  and  C_15 
DOCKED: USER                              x       y       z     vdW  Elec       q    Type
DOCKED: USER                           _______ _______ _______ _____ _____    ______ ____
DOCKED: ROOT
DOCKED: ATOM      1  C   UNL d   1      -6.709 -15.944  -4.233 -0.10 +0.24    +0.193 C 
DOCKED: ENDROOT
DOCKED: BRANCH   1   2
DOCKED: ATOM      2  O   UNL d   1      -5.371 -16.532  -4.368 -0.05 -0.67    -0.356 OA
DOCKED: BRANCH   2   3
DOCKED: ATOM      3  P   UNL d   1      -5.055 -17.852  -5.296 -0.21 -0.02    -0.014 P 
DOCKED: ATOM      4  O   UNL d   1      -3.889 -17.415  -6.198 -0.60 -1.26    -0.577 OA
DOCKED: ATOM      5  O   UNL d   1      -6.314 -18.146  -6.109 -0.00 -0.59    -0.577 OA
DOCKED: ATOM      6  O   UNL d   1      -4.649 -18.993  -4.370 -0.30 -1.11    -0.638 OA
DOCKED: ENDBRANCH   2   3
DOCKED: ENDBRANCH   1   2
DOCKED: BRANCH   1   7
DOCKED: ATOM      7  C   UNL d   1      -6.630 -14.418  -4.607 -0.13 +0.22    +0.201 C 
DOCKED: BRANCH   7   8
DOCKED: ATOM      8  O   UNL d   1      -5.318 -13.817  -4.531 -0.29 -0.52    -0.364 OA
DOCKED: BRANCH   8   9
DOCKED: ATOM      9  P   UNL d   1      -4.966 -12.477  -5.434 -0.41 -0.02    -0.015 P 
DOCKED: ATOM     10  O   UNL d   1      -5.814 -12.617  -6.704 -0.15 -0.75    -0.577 OA
DOCKED: ATOM     11  O   UNL d   1      -3.469 -12.525  -5.739 -0.61 -0.83    -0.577 OA
DOCKED: ATOM     12  O   UNL d   1      -5.368 -11.257  -4.606 -0.43 -0.53    -0.638 OA
DOCKED: ENDBRANCH   8   9
DOCKED: ENDBRANCH   7   8
DOCKED: ENDBRANCH   1   7
DOCKED: BRANCH   1  13
DOCKED: ATOM     13  C   UNL d   1      -7.208 -16.074  -2.746 -0.08 +0.09    +0.073 C 
DOCKED: ATOM     14  O   UNL d   1      -7.161 -17.224  -2.183 -0.51 -1.00    -0.547 OA
DOCKED: ATOM     15  O   UNL d   1      -7.577 -14.993  -2.159 -0.02 -0.38    -0.547 OA
DOCKED: ENDBRANCH   1  13
DOCKED: TORSDOF 6
DOCKED: TER
DOCKED: ENDMDL
________________________________________________________________________________


	BEGINNING GENETIC ALGORITHM DOCKING 83 of 100
Run: 83 Seed: 1679176661 154989071 [ Run 83 of 100 GA/GALS ]
Beginning LAMARCKIAN GENETIC ALGORITHM (LGA), with a maximum of 25000000 energy evaluations.

Final-Value: -8.472


	FINAL GENETIC ALGORITHM DOCKED STATE
	_______________________________________________


Detailed state:  trans -6.259 -15.610 -4.714 quatxyzw -0.558182 -0.585441 0.137903 -0.571554 center 0.015 0.083 0.031 ntor 6 76.1022 8.4137 148.7787 -164.9101 4.1067 -59.9948
State:	 -6.259 -15.610  -4.714  -0.680 -0.713  0.168 -110.283     76.10    8.41  148.78 -164.91    4.11  -59.99

DOCKED: MODEL       83
DOCKED: USER    Run = 83
DOCKED: USER    DPF = D:/Protein_go_brrr/autodock/final/mut_N102T/2_3_BPG/dock.dpf
DOCKED: USER  
DOCKED: USER    Estimated Free Energy of Binding    =   -9.22 kcal/mol  [=(1)+(2)+(3)-(4)]
DOCKED: USER    Estimated Inhibition Constant, Ki   =  173.15 nM (nanomolar)  [Temperature = 298.15 K]
DOCKED: USER    
DOCKED: USER    (1) Final Intermolecular Energy     =  -11.01 kcal/mol
DOCKED: USER        vdW + Hbond + desolv Energy     =   -3.66 kcal/mol
DOCKED: USER        Electrostatic Energy            =   -7.35 kcal/mol
DOCKED: USER    (2) Final Total Internal Energy     =   +2.54 kcal/mol
DOCKED: USER    (3) Torsional Free Energy           =   +1.79 kcal/mol
DOCKED: USER    (4) Unbound System's Energy  [=(2)] =   +2.54 kcal/mol
DOCKED: USER    
DOCKED: USER    
DOCKED: USER    NEWDPF move 2_3_BPG_opt.pdbqt
DOCKED: USER    NEWDPF about 0.015000 0.083000 0.031000
DOCKED: USER    NEWDPF tran0 -6.259488 -15.610459 -4.713734
DOCKED: USER    NEWDPF quaternion0 -0.558182 -0.585441 0.137903 -0.571554
DOCKED: USER    NEWDPF axisangle0 -0.680242 -0.713461 0.168059 -110.282684
DOCKED: USER    NEWDPF quat0 -0.680242 -0.713461 0.168059 -110.282684
DOCKED: USER    NEWDPF dihe0 76.10 8.41 148.78 -164.91 4.11 -59.99 
DOCKED: USER  keepresnum = 1 
DOCKED: USER  
DOCKED: REMARK  6 active torsions:
DOCKED: REMARK  status: ('A' for Active; 'I' for Inactive)
DOCKED: REMARK    1  A    between atoms: P_1  and  O_3 
DOCKED: REMARK    2  A    between atoms: P_2  and  O_4 
DOCKED: REMARK    3  A    between atoms: O_3  and  C_13 
DOCKED: REMARK    4  A    between atoms: O_4  and  C_14 
DOCKED: REMARK    5  A    between atoms: C_13  and  C_14 
DOCKED: REMARK    6  A    between atoms: C_13  and  C_15 
DOCKED: USER                              x       y       z     vdW  Elec       q    Type
DOCKED: USER                           _______ _______ _______ _____ _____    ______ ____
DOCKED: ROOT
DOCKED: ATOM      1  C   UNL d   1      -6.653 -16.147  -4.795 -0.10 +0.25    +0.193 C 
DOCKED: ENDROOT
DOCKED: BRANCH   1   2
DOCKED: ATOM      2  O   UNL d   1      -6.018 -17.035  -5.776 -0.13 -0.57    -0.356 OA
DOCKED: BRANCH   2   3
DOCKED: ATOM      3  P   UNL d   1      -4.556 -17.747  -5.535 -0.14 -0.02    -0.014 P 
DOCKED: ATOM      4  O   UNL d   1      -4.262 -18.476  -6.856 -0.19 -0.69    -0.577 OA
DOCKED: ATOM      5  O   UNL d   1      -4.715 -18.728  -4.375 -0.22 -1.07    -0.577 OA
DOCKED: ATOM      6  O   UNL d   1      -3.535 -16.647  -5.264 -0.38 -1.42    -0.638 OA
DOCKED: ENDBRANCH   2   3
DOCKED: ENDBRANCH   1   2
DOCKED: BRANCH   1   7
DOCKED: ATOM      7  C   UNL d   1      -5.620 -15.037  -4.375 -0.15 +0.31    +0.201 C 
DOCKED: BRANCH   7   8
DOCKED: ATOM      8  O   UNL d   1      -5.771 -13.757  -5.027 -0.27 -0.55    -0.364 OA
DOCKED: BRANCH   8   9
DOCKED: ATOM      9  P   UNL d   1      -4.639 -12.572  -4.799 -0.56 -0.02    -0.015 P 
DOCKED: ATOM     10  O   UNL d   1      -4.066 -12.831  -3.401 -0.12 -0.47    -0.577 OA
DOCKED: ATOM     11  O   UNL d   1      -5.374 -11.233  -4.876 -0.59 -0.47    -0.577 OA
DOCKED: ATOM     12  O   UNL d   1      -3.585 -12.739  -5.892 -0.44 -1.15    -0.638 OA
DOCKED: ENDBRANCH   8   9
DOCKED: ENDBRANCH   7   8
DOCKED: ENDBRANCH   1   7
DOCKED: BRANCH   1  13
DOCKED: ATOM     13  C   UNL d   1      -7.063 -16.964  -3.513 -0.02 +0.10    +0.073 C 
DOCKED: ATOM     14  O   UNL d   1      -6.713 -16.517  -2.365 -0.32 -1.10    -0.547 OA
DOCKED: ATOM     15  O   UNL d   1      -7.787 -18.009  -3.696 -0.03 -0.49    -0.547 OA
DOCKED: ENDBRANCH   1  13
DOCKED: TORSDOF 6
DOCKED: TER
DOCKED: ENDMDL
________________________________________________________________________________


	BEGINNING GENETIC ALGORITHM DOCKING 84 of 100
Run: 84 Seed: 1730068417 512095098 [ Run 84 of 100 GA/GALS ]
Beginning LAMARCKIAN GENETIC ALGORITHM (LGA), with a maximum of 25000000 energy evaluations.

Final-Value: -8.802


	FINAL GENETIC ALGORITHM DOCKED STATE
	_______________________________________________


Detailed state:  trans -6.544 -15.460 -4.845 quatxyzw 0.413147 0.838813 -0.332038 0.124311 center 0.015 0.083 0.031 ntor 6 -166.4759 -23.4151 178.6311 0.8019 -57.9091 180.0000
State:	 -6.544 -15.460  -4.845   0.416  0.845 -0.335 165.718   -166.48  -23.42  178.63    0.80  -57.91  180.00

DOCKED: MODEL       84
DOCKED: USER    Run = 84
DOCKED: USER    DPF = D:/Protein_go_brrr/autodock/final/mut_N102T/2_3_BPG/dock.dpf
DOCKED: USER  
DOCKED: USER    Estimated Free Energy of Binding    =   -9.36 kcal/mol  [=(1)+(2)+(3)-(4)]
DOCKED: USER    Estimated Inhibition Constant, Ki   =  138.49 nM (nanomolar)  [Temperature = 298.15 K]
DOCKED: USER    
DOCKED: USER    (1) Final Intermolecular Energy     =  -11.15 kcal/mol
DOCKED: USER        vdW + Hbond + desolv Energy     =   -3.74 kcal/mol
DOCKED: USER        Electrostatic Energy            =   -7.41 kcal/mol
DOCKED: USER    (2) Final Total Internal Energy     =   +2.34 kcal/mol
DOCKED: USER    (3) Torsional Free Energy           =   +1.79 kcal/mol
DOCKED: USER    (4) Unbound System's Energy  [=(2)] =   +2.34 kcal/mol
DOCKED: USER    
DOCKED: USER    
DOCKED: USER    NEWDPF move 2_3_BPG_opt.pdbqt
DOCKED: USER    NEWDPF about 0.015000 0.083000 0.031000
DOCKED: USER    NEWDPF tran0 -6.543815 -15.459645 -4.845238
DOCKED: USER    NEWDPF quaternion0 0.413147 0.838813 -0.332038 0.124311
DOCKED: USER    NEWDPF axisangle0 0.416377 0.845370 -0.334634 165.718120
DOCKED: USER    NEWDPF quat0 0.416377 0.845370 -0.334634 165.718120
DOCKED: USER    NEWDPF dihe0 -166.48 -23.42 178.63 0.80 -57.91 180.00 
DOCKED: USER  keepresnum = 1 
DOCKED: USER  
DOCKED: REMARK  6 active torsions:
DOCKED: REMARK  status: ('A' for Active; 'I' for Inactive)
DOCKED: REMARK    1  A    between atoms: P_1  and  O_3 
DOCKED: REMARK    2  A    between atoms: P_2  and  O_4 
DOCKED: REMARK    3  A    between atoms: O_3  and  C_13 
DOCKED: REMARK    4  A    between atoms: O_4  and  C_14 
DOCKED: REMARK    5  A    between atoms: C_13  and  C_14 
DOCKED: REMARK    6  A    between atoms: C_13  and  C_15 
DOCKED: USER                              x       y       z     vdW  Elec       q    Type
DOCKED: USER                           _______ _______ _______ _____ _____    ______ ____
DOCKED: ROOT
DOCKED: ATOM      1  C   UNL d   1      -6.411 -16.093  -4.670 -0.11 +0.27    +0.193 C 
DOCKED: ENDROOT
DOCKED: BRANCH   1   2
DOCKED: ATOM      2  O   UNL d   1      -4.955 -16.266  -4.646 -0.10 -0.73    -0.356 OA
DOCKED: BRANCH   2   3
DOCKED: ATOM      3  P   UNL d   1      -4.182 -17.520  -5.377 -0.06 -0.03    -0.014 P 
DOCKED: ATOM      4  O   UNL d   1      -2.788 -16.968  -5.713 -0.50 -1.04    -0.577 OA
DOCKED: ATOM      5  O   UNL d   1      -4.969 -17.863  -6.640 -0.36 -0.92    -0.577 OA
DOCKED: ATOM      6  O   UNL d   1      -4.103 -18.671  -4.379 -0.19 -1.18    -0.638 OA
DOCKED: ENDBRANCH   2   3
DOCKED: ENDBRANCH   1   2
DOCKED: BRANCH   1   7
DOCKED: ATOM      7  C   UNL d   1      -6.736 -14.558  -4.790 -0.12 +0.23    +0.201 C 
DOCKED: BRANCH   7   8
DOCKED: ATOM      8  O   UNL d   1      -5.678 -13.658  -4.394 -0.20 -0.44    -0.364 OA
DOCKED: BRANCH   8   9
DOCKED: ATOM      9  P   UNL d   1      -5.143 -12.495  -5.442 -0.42 -0.02    -0.015 P 
DOCKED: ATOM     10  O   UNL d   1      -6.003 -12.665  -6.700 -0.12 -0.71    -0.577 OA
DOCKED: ATOM     11  O   UNL d   1      -3.668 -12.787  -5.716 -0.60 -1.02    -0.577 OA
DOCKED: ATOM     12  O   UNL d   1      -5.370 -11.142  -4.769 -0.49 -0.51    -0.638 OA
DOCKED: ENDBRANCH   8   9
DOCKED: ENDBRANCH   7   8
DOCKED: ENDBRANCH   1   7
DOCKED: BRANCH   1  13
DOCKED: ATOM     13  C   UNL d   1      -7.042 -16.639  -3.335 +0.01 +0.10    +0.073 C 
DOCKED: ATOM     14  O   UNL d   1      -7.787 -17.679  -3.392 -0.08 -0.53    -0.547 OA
DOCKED: ATOM     15  O   UNL d   1      -6.715 -16.039  -2.249 -0.40 -0.87    -0.547 OA
DOCKED: ENDBRANCH   1  13
DOCKED: TORSDOF 6
DOCKED: TER
DOCKED: ENDMDL
________________________________________________________________________________


	BEGINNING GENETIC ALGORITHM DOCKING 85 of 100
Run: 85 Seed: 1199668680 753641902 [ Run 85 of 100 GA/GALS ]
Beginning LAMARCKIAN GENETIC ALGORITHM (LGA), with a maximum of 25000000 energy evaluations.

Final-Value: -8.257


	FINAL GENETIC ALGORITHM DOCKED STATE
	_______________________________________________


Detailed state:  trans -6.105 -14.824 -4.428 quatxyzw -0.632373 0.246222 0.718653 0.151711 center 0.015 0.083 0.031 ntor 6 10.2894 9.7328 -82.6494 36.3053 -11.1584 -180.0000
State:	 -6.105 -14.824  -4.428  -0.640  0.249  0.727 162.548     10.29    9.73  -82.65   36.31  -11.16 -180.00

DOCKED: MODEL       85
DOCKED: USER    Run = 85
DOCKED: USER    DPF = D:/Protein_go_brrr/autodock/final/mut_N102T/2_3_BPG/dock.dpf
DOCKED: USER  
DOCKED: USER    Estimated Free Energy of Binding    =   -8.64 kcal/mol  [=(1)+(2)+(3)-(4)]
DOCKED: USER    Estimated Inhibition Constant, Ki   =  461.36 nM (nanomolar)  [Temperature = 298.15 K]
DOCKED: USER    
DOCKED: USER    (1) Final Intermolecular Energy     =  -10.43 kcal/mol
DOCKED: USER        vdW + Hbond + desolv Energy     =   -3.86 kcal/mol
DOCKED: USER        Electrostatic Energy            =   -6.57 kcal/mol
DOCKED: USER    (2) Final Total Internal Energy     =   +2.18 kcal/mol
DOCKED: USER    (3) Torsional Free Energy           =   +1.79 kcal/mol
DOCKED: USER    (4) Unbound System's Energy  [=(2)] =   +2.18 kcal/mol
DOCKED: USER    
DOCKED: USER    
DOCKED: USER    NEWDPF move 2_3_BPG_opt.pdbqt
DOCKED: USER    NEWDPF about 0.015000 0.083000 0.031000
DOCKED: USER    NEWDPF tran0 -6.104744 -14.824208 -4.427653
DOCKED: USER    NEWDPF quaternion0 -0.632373 0.246222 0.718653 0.151711
DOCKED: USER    NEWDPF axisangle0 -0.639779 0.249105 0.727069 162.547859
DOCKED: USER    NEWDPF quat0 -0.639779 0.249105 0.727069 162.547859
DOCKED: USER    NEWDPF dihe0 10.29 9.73 -82.65 36.31 -11.16 -180.00 
DOCKED: USER  keepresnum = 1 
DOCKED: USER  
DOCKED: REMARK  6 active torsions:
DOCKED: REMARK  status: ('A' for Active; 'I' for Inactive)
DOCKED: REMARK    1  A    between atoms: P_1  and  O_3 
DOCKED: REMARK    2  A    between atoms: P_2  and  O_4 
DOCKED: REMARK    3  A    between atoms: O_3  and  C_13 
DOCKED: REMARK    4  A    between atoms: O_4  and  C_14 
DOCKED: REMARK    5  A    between atoms: C_13  and  C_14 
DOCKED: REMARK    6  A    between atoms: C_13  and  C_15 
DOCKED: USER                              x       y       z     vdW  Elec       q    Type
DOCKED: USER                           _______ _______ _______ _____ _____    ______ ____
DOCKED: ROOT
DOCKED: ATOM      1  C   UNL d   1      -6.077 -14.239  -4.102 -0.18 +0.22    +0.193 C 
DOCKED: ENDROOT
DOCKED: BRANCH   1   2
DOCKED: ATOM      2  O   UNL d   1      -5.357 -14.452  -2.841 -0.12 -0.42    -0.356 OA
DOCKED: BRANCH   2   3
DOCKED: ATOM      3  P   UNL d   1      -6.111 -14.734  -1.407 -0.32 -0.01    -0.014 P 
DOCKED: ATOM      4  O   UNL d   1      -4.975 -14.745  -0.372 -0.13 -0.47    -0.577 OA
DOCKED: ATOM      5  O   UNL d   1      -6.787 -16.100  -1.513 -0.41 -0.88    -0.577 OA
DOCKED: ATOM      6  O   UNL d   1      -7.088 -13.590  -1.155 -0.01 -0.30    -0.638 OA
DOCKED: ENDBRANCH   2   3
DOCKED: ENDBRANCH   1   2
DOCKED: BRANCH   1   7
DOCKED: ATOM      7  C   UNL d   1      -5.901 -15.515  -5.005 +0.00 +0.35    +0.201 C 
DOCKED: BRANCH   7   8
DOCKED: ATOM      8  O   UNL d   1      -4.778 -16.366  -4.683 -0.10 -0.76    -0.364 OA
DOCKED: BRANCH   8   9
DOCKED: ATOM      9  P   UNL d   1      -4.608 -17.832  -5.429 -0.19 -0.02    -0.015 P 
DOCKED: ATOM     10  O   UNL d   1      -3.580 -17.597  -6.542 -0.57 -1.14    -0.577 OA
DOCKED: ATOM     11  O   UNL d   1      -5.979 -18.210  -5.989 -0.02 -0.64    -0.577 OA
DOCKED: ATOM     12  O   UNL d   1      -4.100 -18.817  -4.377 -0.26 -1.14    -0.638 OA
DOCKED: ENDBRANCH   8   9
DOCKED: ENDBRANCH   7   8
DOCKED: ENDBRANCH   1   7
DOCKED: BRANCH   1  13
DOCKED: ATOM     13  C   UNL d   1      -5.479 -12.997  -4.862 -0.32 +0.09    +0.073 C 
DOCKED: ATOM     14  O   UNL d   1      -4.265 -13.055  -5.268 -0.63 -0.96    -0.547 OA
DOCKED: ATOM     15  O   UNL d   1      -6.273 -12.013  -5.086 -0.60 -0.49    -0.547 OA
DOCKED: ENDBRANCH   1  13
DOCKED: TORSDOF 6
DOCKED: TER
DOCKED: ENDMDL
________________________________________________________________________________


	BEGINNING GENETIC ALGORITHM DOCKING 86 of 100
Run: 86 Seed: 1499518578 1019139221 [ Run 86 of 100 GA/GALS ]
Beginning LAMARCKIAN GENETIC ALGORITHM (LGA), with a maximum of 25000000 energy evaluations.

Final-Value: -8.656


	FINAL GENETIC ALGORITHM DOCKED STATE
	_______________________________________________


Detailed state:  trans -5.983 -15.560 -4.458 quatxyzw 0.757949 0.586621 -0.157183 0.238082 center 0.015 0.083 0.031 ntor 6 160.1419 -5.5805 -67.7801 92.4431 -15.9301 -30.7191
State:	 -5.983 -15.560  -4.458   0.780  0.604 -0.162 152.453    160.14   -5.58  -67.78   92.44  -15.93  -30.72

DOCKED: MODEL       86
DOCKED: USER    Run = 86
DOCKED: USER    DPF = D:/Protein_go_brrr/autodock/final/mut_N102T/2_3_BPG/dock.dpf
DOCKED: USER  
DOCKED: USER    Estimated Free Energy of Binding    =   -9.09 kcal/mol  [=(1)+(2)+(3)-(4)]
DOCKED: USER    Estimated Inhibition Constant, Ki   =  218.63 nM (nanomolar)  [Temperature = 298.15 K]
DOCKED: USER    
DOCKED: USER    (1) Final Intermolecular Energy     =  -10.88 kcal/mol
DOCKED: USER        vdW + Hbond + desolv Energy     =   -4.06 kcal/mol
DOCKED: USER        Electrostatic Energy            =   -6.82 kcal/mol
DOCKED: USER    (2) Final Total Internal Energy     =   +2.22 kcal/mol
DOCKED: USER    (3) Torsional Free Energy           =   +1.79 kcal/mol
DOCKED: USER    (4) Unbound System's Energy  [=(2)] =   +2.22 kcal/mol
DOCKED: USER    
DOCKED: USER    
DOCKED: USER    NEWDPF move 2_3_BPG_opt.pdbqt
DOCKED: USER    NEWDPF about 0.015000 0.083000 0.031000
DOCKED: USER    NEWDPF tran0 -5.983282 -15.559528 -4.458084
DOCKED: USER    NEWDPF quaternion0 0.757949 0.586621 -0.157183 0.238082
DOCKED: USER    NEWDPF axisangle0 0.780389 0.603989 -0.161837 152.453256
DOCKED: USER    NEWDPF quat0 0.780389 0.603989 -0.161837 152.453256
DOCKED: USER    NEWDPF dihe0 160.14 -5.58 -67.78 92.44 -15.93 -30.72 
DOCKED: USER  keepresnum = 1 
DOCKED: USER  
DOCKED: REMARK  6 active torsions:
DOCKED: REMARK  status: ('A' for Active; 'I' for Inactive)
DOCKED: REMARK    1  A    between atoms: P_1  and  O_3 
DOCKED: REMARK    2  A    between atoms: P_2  and  O_4 
DOCKED: REMARK    3  A    between atoms: O_3  and  C_13 
DOCKED: REMARK    4  A    between atoms: O_4  and  C_14 
DOCKED: REMARK    5  A    between atoms: C_13  and  C_14 
DOCKED: REMARK    6  A    between atoms: C_13  and  C_15 
DOCKED: USER                              x       y       z     vdW  Elec       q    Type
DOCKED: USER                           _______ _______ _______ _____ _____    ______ ____
DOCKED: ROOT
DOCKED: ATOM      1  C   UNL d   1      -6.439 -16.046  -4.390 -0.11 +0.26    +0.193 C 
DOCKED: ENDROOT
DOCKED: BRANCH   1   2
DOCKED: ATOM      2  O   UNL d   1      -5.732 -17.330  -4.330 -0.03 -0.64    -0.356 OA
DOCKED: BRANCH   2   3
DOCKED: ATOM      3  P   UNL d   1      -4.430 -17.689  -5.269 -0.18 -0.02    -0.014 P 
DOCKED: ATOM      4  O   UNL d   1      -3.892 -19.007  -4.691 -0.22 -0.83    -0.577 OA
DOCKED: ATOM      5  O   UNL d   1      -3.425 -16.551  -5.103 -0.30 -1.23    -0.577 OA
DOCKED: ATOM      6  O   UNL d   1      -4.918 -17.865  -6.703 -0.35 -1.03    -0.638 OA
DOCKED: ENDBRANCH   2   3
DOCKED: ENDBRANCH   1   2
DOCKED: BRANCH   1   7
DOCKED: ATOM      7  C   UNL d   1      -5.388 -14.884  -4.256 -0.15 +0.32    +0.201 C 
DOCKED: BRANCH   7   8
DOCKED: ATOM      8  O   UNL d   1      -5.453 -13.855  -5.269 -0.28 -0.70    -0.364 OA
DOCKED: BRANCH   8   9
DOCKED: ATOM      9  P   UNL d   1      -4.628 -12.436  -5.064 -0.54 -0.02    -0.015 P 
DOCKED: ATOM     10  O   UNL d   1      -3.564 -12.430  -6.167 -0.54 -0.90    -0.577 OA
DOCKED: ATOM     11  O   UNL d   1      -4.004 -12.480  -3.669 -0.13 -0.45    -0.577 OA
DOCKED: ATOM     12  O   UNL d   1      -5.636 -11.300  -5.232 -0.59 -0.52    -0.638 OA
DOCKED: ENDBRANCH   8   9
DOCKED: ENDBRANCH   7   8
DOCKED: ENDBRANCH   1   7
DOCKED: BRANCH   1  13
DOCKED: ATOM     13  C   UNL d   1      -7.464 -15.938  -3.200 -0.09 +0.07    +0.073 C 
DOCKED: ATOM     14  O   UNL d   1      -8.563 -15.310  -3.394 +0.02 -0.29    -0.547 OA
DOCKED: ATOM     15  O   UNL d   1      -7.160 -16.549  -2.112 -0.56 -0.83    -0.547 OA
DOCKED: ENDBRANCH   1  13
DOCKED: TORSDOF 6
DOCKED: TER
DOCKED: ENDMDL
________________________________________________________________________________


	BEGINNING GENETIC ALGORITHM DOCKING 87 of 100
Run: 87 Seed: 243208183 842875841 [ Run 87 of 100 GA/GALS ]
Beginning LAMARCKIAN GENETIC ALGORITHM (LGA), with a maximum of 25000000 energy evaluations.

Final-Value: -9.066


	FINAL GENETIC ALGORITHM DOCKED STATE
	_______________________________________________


Detailed state:  trans -2.110 -15.862 -5.787 quatxyzw -0.623596 0.698245 0.342806 0.077882 center 0.015 0.083 0.031 ntor 6 17.1664 93.8576 -178.5983 26.6399 -53.0891 -107.0667
State:	 -2.110 -15.862  -5.787  -0.625  0.700  0.344 171.066     17.17   93.86 -178.60   26.64  -53.09 -107.07

DOCKED: MODEL       87
DOCKED: USER    Run = 87
DOCKED: USER    DPF = D:/Protein_go_brrr/autodock/final/mut_N102T/2_3_BPG/dock.dpf
DOCKED: USER  
DOCKED: USER    Estimated Free Energy of Binding    =   -9.45 kcal/mol  [=(1)+(2)+(3)-(4)]
DOCKED: USER    Estimated Inhibition Constant, Ki   =  118.27 nM (nanomolar)  [Temperature = 298.15 K]
DOCKED: USER    
DOCKED: USER    (1) Final Intermolecular Energy     =  -11.24 kcal/mol
DOCKED: USER        vdW + Hbond + desolv Energy     =   -5.26 kcal/mol
DOCKED: USER        Electrostatic Energy            =   -5.98 kcal/mol
DOCKED: USER    (2) Final Total Internal Energy     =   +2.17 kcal/mol
DOCKED: USER    (3) Torsional Free Energy           =   +1.79 kcal/mol
DOCKED: USER    (4) Unbound System's Energy  [=(2)] =   +2.17 kcal/mol
DOCKED: USER    
DOCKED: USER    
DOCKED: USER    NEWDPF move 2_3_BPG_opt.pdbqt
DOCKED: USER    NEWDPF about 0.015000 0.083000 0.031000
DOCKED: USER    NEWDPF tran0 -2.109622 -15.861823 -5.787332
DOCKED: USER    NEWDPF quaternion0 -0.623596 0.698245 0.342806 0.077882
DOCKED: USER    NEWDPF axisangle0 -0.625496 0.700373 0.343850 171.066286
DOCKED: USER    NEWDPF quat0 -0.625496 0.700373 0.343850 171.066286
DOCKED: USER    NEWDPF dihe0 17.17 93.86 -178.60 26.64 -53.09 -107.07 
DOCKED: USER  keepresnum = 1 
DOCKED: USER  
DOCKED: REMARK  6 active torsions:
DOCKED: REMARK  status: ('A' for Active; 'I' for Inactive)
DOCKED: REMARK    1  A    between atoms: P_1  and  O_3 
DOCKED: REMARK    2  A    between atoms: P_2  and  O_4 
DOCKED: REMARK    3  A    between atoms: O_3  and  C_13 
DOCKED: REMARK    4  A    between atoms: O_4  and  C_14 
DOCKED: REMARK    5  A    between atoms: C_13  and  C_14 
DOCKED: REMARK    6  A    between atoms: C_13  and  C_15 
DOCKED: USER                              x       y       z     vdW  Elec       q    Type
DOCKED: USER                           _______ _______ _______ _____ _____    ______ ____
DOCKED: ROOT
DOCKED: ATOM      1  C   UNL d   1      -1.781 -15.281  -5.850 -0.23 +0.29    +0.193 C 
DOCKED: ENDROOT
DOCKED: BRANCH   1   2
DOCKED: ATOM      2  O   UNL d   1      -1.868 -14.566  -4.572 -0.27 -0.41    -0.356 OA
DOCKED: BRANCH   2   3
DOCKED: ATOM      3  P   UNL d   1      -2.838 -13.259  -4.332 -0.74 -0.01    -0.014 P 
DOCKED: ATOM      4  O   UNL d   1      -1.956 -12.056  -4.700 -0.08 -0.31    -0.577 OA
DOCKED: ATOM      5  O   UNL d   1      -3.220 -13.245  -2.854 -0.14 -0.43    -0.577 OA
DOCKED: ATOM      6  O   UNL d   1      -4.035 -13.383  -5.269 -0.46 -1.33    -0.638 OA
DOCKED: ENDBRANCH   2   3
DOCKED: ENDBRANCH   1   2
DOCKED: BRANCH   1   7
DOCKED: ATOM      7  C   UNL d   1      -2.286 -16.756  -5.639 -0.20 +0.31    +0.201 C 
DOCKED: BRANCH   7   8
DOCKED: ATOM      8  O   UNL d   1      -3.584 -16.895  -5.020 -0.40 -0.74    -0.364 OA
DOCKED: BRANCH   8   9
DOCKED: ATOM      9  P   UNL d   1      -4.731 -17.870  -5.707 -0.20 -0.02    -0.015 P 
DOCKED: ATOM     10  O   UNL d   1      -4.035 -18.516  -6.911 -0.19 -0.67    -0.577 OA
DOCKED: ATOM     11  O   UNL d   1      -5.887 -16.965  -6.132 -0.11 -1.05    -0.577 OA
DOCKED: ATOM     12  O   UNL d   1      -5.134 -18.902  -4.655 -0.16 -0.95    -0.638 OA
DOCKED: ENDBRANCH   8   9
DOCKED: ENDBRANCH   7   8
DOCKED: ENDBRANCH   1   7
DOCKED: BRANCH   1  13
DOCKED: ATOM     13  C   UNL d   1      -0.287 -15.325  -6.343 -0.56 +0.06    +0.073 C 
DOCKED: ATOM     14  O   UNL d   1       0.543 -16.070  -5.713 -0.74 -0.37    -0.547 OA
DOCKED: ATOM     15  O   UNL d   1      -0.002 -14.652  -7.399 -0.77 -0.35    -0.547 OA
DOCKED: ENDBRANCH   1  13
DOCKED: TORSDOF 6
DOCKED: TER
DOCKED: ENDMDL
________________________________________________________________________________


	BEGINNING GENETIC ALGORITHM DOCKING 88 of 100
Run: 88 Seed: 1630158052 1704972300 [ Run 88 of 100 GA/GALS ]
Beginning LAMARCKIAN GENETIC ALGORITHM (LGA), with a maximum of 25000000 energy evaluations.

Final-Value: -8.809


	FINAL GENETIC ALGORITHM DOCKED STATE
	_______________________________________________


Detailed state:  trans -6.443 -15.241 -4.399 quatxyzw -0.590051 -0.767170 0.180705 -0.175030 center 0.015 0.083 0.031 ntor 6 147.5281 173.0967 -160.6827 7.0332 24.5835 -79.0613
State:	 -6.443 -15.241  -4.399  -0.599 -0.779  0.184 -159.839    147.53  173.10 -160.68    7.03   24.58  -79.06

DOCKED: MODEL       88
DOCKED: USER    Run = 88
DOCKED: USER    DPF = D:/Protein_go_brrr/autodock/final/mut_N102T/2_3_BPG/dock.dpf
DOCKED: USER  
DOCKED: USER    Estimated Free Energy of Binding    =   -9.14 kcal/mol  [=(1)+(2)+(3)-(4)]
DOCKED: USER    Estimated Inhibition Constant, Ki   =  199.27 nM (nanomolar)  [Temperature = 298.15 K]
DOCKED: USER    
DOCKED: USER    (1) Final Intermolecular Energy     =  -10.93 kcal/mol
DOCKED: USER        vdW + Hbond + desolv Energy     =   -4.02 kcal/mol
DOCKED: USER        Electrostatic Energy            =   -6.92 kcal/mol
DOCKED: USER    (2) Final Total Internal Energy     =   +2.12 kcal/mol
DOCKED: USER    (3) Torsional Free Energy           =   +1.79 kcal/mol
DOCKED: USER    (4) Unbound System's Energy  [=(2)] =   +2.12 kcal/mol
DOCKED: USER    
DOCKED: USER    
DOCKED: USER    NEWDPF move 2_3_BPG_opt.pdbqt
DOCKED: USER    NEWDPF about 0.015000 0.083000 0.031000
DOCKED: USER    NEWDPF tran0 -6.442751 -15.240581 -4.399453
DOCKED: USER    NEWDPF quaternion0 -0.590051 -0.767170 0.180705 -0.175030
DOCKED: USER    NEWDPF axisangle0 -0.599303 -0.779198 0.183539 -159.839241
DOCKED: USER    NEWDPF quat0 -0.599303 -0.779198 0.183539 -159.839241
DOCKED: USER    NEWDPF dihe0 147.53 173.10 -160.68 7.03 24.58 -79.06 
DOCKED: USER  keepresnum = 1 
DOCKED: USER  
DOCKED: REMARK  6 active torsions:
DOCKED: REMARK  status: ('A' for Active; 'I' for Inactive)
DOCKED: REMARK    1  A    between atoms: P_1  and  O_3 
DOCKED: REMARK    2  A    between atoms: P_2  and  O_4 
DOCKED: REMARK    3  A    between atoms: O_3  and  C_13 
DOCKED: REMARK    4  A    between atoms: O_4  and  C_14 
DOCKED: REMARK    5  A    between atoms: C_13  and  C_14 
DOCKED: REMARK    6  A    between atoms: C_13  and  C_15 
DOCKED: USER                              x       y       z     vdW  Elec       q    Type
DOCKED: USER                           _______ _______ _______ _____ _____    ______ ____
DOCKED: ROOT
DOCKED: ATOM      1  C   UNL d   1      -6.608 -15.889  -4.362 -0.10 +0.24    +0.193 C 
DOCKED: ENDROOT
DOCKED: BRANCH   1   2
DOCKED: ATOM      2  O   UNL d   1      -5.372 -16.670  -4.245 +0.09 -0.69    -0.356 OA
DOCKED: BRANCH   2   3
DOCKED: ATOM      3  P   UNL d   1      -4.981 -17.900  -5.264 -0.21 -0.02    -0.014 P 
DOCKED: ATOM      4  O   UNL d   1      -6.266 -18.156  -6.066 -0.00 -0.60    -0.577 OA
DOCKED: ATOM      5  O   UNL d   1      -4.609 -19.103  -4.400 -0.35 -0.96    -0.577 OA
DOCKED: ATOM      6  O   UNL d   1      -3.845 -17.423  -6.164 -0.59 -1.37    -0.638 OA
DOCKED: ENDBRANCH   2   3
DOCKED: ENDBRANCH   1   2
DOCKED: BRANCH   1   7
DOCKED: ATOM      7  C   UNL d   1      -6.265 -14.367  -4.158 -0.17 +0.23    +0.201 C 
DOCKED: BRANCH   7   8
DOCKED: ATOM      8  O   UNL d   1      -5.721 -13.684  -5.309 -0.30 -0.61    -0.364 OA
DOCKED: BRANCH   8   9
DOCKED: ATOM      9  P   UNL d   1      -4.719 -12.384  -5.105 -0.54 -0.02    -0.015 P 
DOCKED: ATOM     10  O   UNL d   1      -4.164 -12.527  -3.683 -0.12 -0.47    -0.577 OA
DOCKED: ATOM     11  O   UNL d   1      -5.579 -11.130  -5.258 -0.62 -0.45    -0.577 OA
DOCKED: ATOM     12  O   UNL d   1      -3.622 -12.489  -6.163 -0.51 -1.04    -0.638 OA
DOCKED: ENDBRANCH   8   9
DOCKED: ENDBRANCH   7   8
DOCKED: ENDBRANCH   1   7
DOCKED: BRANCH   1  13
DOCKED: ATOM     13  C   UNL d   1      -7.632 -16.329  -3.250 -0.08 +0.07    +0.073 C 
DOCKED: ATOM     14  O   UNL d   1      -8.875 -16.078  -3.430 +0.02 -0.28    -0.547 OA
DOCKED: ATOM     15  O   UNL d   1      -7.160 -16.975  -2.247 -0.54 -0.94    -0.547 OA
DOCKED: ENDBRANCH   1  13
DOCKED: TORSDOF 6
DOCKED: TER
DOCKED: ENDMDL
________________________________________________________________________________


	BEGINNING GENETIC ALGORITHM DOCKING 89 of 100
Run: 89 Seed: 214505773 2099469496 [ Run 89 of 100 GA/GALS ]
Beginning LAMARCKIAN GENETIC ALGORITHM (LGA), with a maximum of 25000000 energy evaluations.

Final-Value: -8.504


	FINAL GENETIC ALGORITHM DOCKED STATE
	_______________________________________________


Detailed state:  trans -5.867 -15.239 -4.318 quatxyzw -0.359353 0.586998 -0.500973 -0.524713 center 0.015 0.083 0.031 ntor 6 89.1819 180.0000 -145.0985 35.8531 92.0400 9.5142
State:	 -5.867 -15.239  -4.318  -0.422  0.690 -0.588 -116.702     89.18  180.00 -145.10   35.85   92.04    9.51

DOCKED: MODEL       89
DOCKED: USER    Run = 89
DOCKED: USER    DPF = D:/Protein_go_brrr/autodock/final/mut_N102T/2_3_BPG/dock.dpf
DOCKED: USER  
DOCKED: USER    Estimated Free Energy of Binding    =   -9.11 kcal/mol  [=(1)+(2)+(3)-(4)]
DOCKED: USER    Estimated Inhibition Constant, Ki   =  208.75 nM (nanomolar)  [Temperature = 298.15 K]
DOCKED: USER    
DOCKED: USER    (1) Final Intermolecular Energy     =  -10.90 kcal/mol
DOCKED: USER        vdW + Hbond + desolv Energy     =   -3.91 kcal/mol
DOCKED: USER        Electrostatic Energy            =   -7.00 kcal/mol
DOCKED: USER    (2) Final Total Internal Energy     =   +2.40 kcal/mol
DOCKED: USER    (3) Torsional Free Energy           =   +1.79 kcal/mol
DOCKED: USER    (4) Unbound System's Energy  [=(2)] =   +2.40 kcal/mol
DOCKED: USER    
DOCKED: USER    
DOCKED: USER    NEWDPF move 2_3_BPG_opt.pdbqt
DOCKED: USER    NEWDPF about 0.015000 0.083000 0.031000
DOCKED: USER    NEWDPF tran0 -5.866520 -15.239181 -4.317829
DOCKED: USER    NEWDPF quaternion0 -0.359353 0.586998 -0.500973 -0.524713
DOCKED: USER    NEWDPF axisangle0 -0.422133 0.689549 -0.588495 -116.702108
DOCKED: USER    NEWDPF quat0 -0.422133 0.689549 -0.588495 -116.702108
DOCKED: USER    NEWDPF dihe0 89.18 180.00 -145.10 35.85 92.04 9.51 
DOCKED: USER  keepresnum = 1 
DOCKED: USER  
DOCKED: REMARK  6 active torsions:
DOCKED: REMARK  status: ('A' for Active; 'I' for Inactive)
DOCKED: REMARK    1  A    between atoms: P_1  and  O_3 
DOCKED: REMARK    2  A    between atoms: P_2  and  O_4 
DOCKED: REMARK    3  A    between atoms: O_3  and  C_13 
DOCKED: REMARK    4  A    between atoms: O_4  and  C_14 
DOCKED: REMARK    5  A    between atoms: C_13  and  C_14 
DOCKED: REMARK    6  A    between atoms: C_13  and  C_15 
DOCKED: USER                              x       y       z     vdW  Elec       q    Type
DOCKED: USER                           _______ _______ _______ _____ _____    ______ ____
DOCKED: ROOT
DOCKED: ATOM      1  C   UNL d   1      -5.696 -14.778  -3.862 -0.16 +0.26    +0.193 C 
DOCKED: ENDROOT
DOCKED: BRANCH   1   2
DOCKED: ATOM      2  O   UNL d   1      -6.040 -13.456  -4.397 -0.19 -0.38    -0.356 OA
DOCKED: BRANCH   2   3
DOCKED: ATOM      3  P   UNL d   1      -4.957 -12.480  -5.157 -0.51 -0.02    -0.014 P 
DOCKED: ATOM      4  O   UNL d   1      -3.621 -13.231  -5.045 -0.51 -0.93    -0.577 OA
DOCKED: ATOM      5  O   UNL d   1      -4.925 -11.158  -4.393 -0.34 -0.43    -0.577 OA
DOCKED: ATOM      6  O   UNL d   1      -5.395 -12.332  -6.611 -0.26 -0.83    -0.638 OA
DOCKED: ENDBRANCH   2   3
DOCKED: ENDBRANCH   1   2
DOCKED: BRANCH   1   7
DOCKED: ATOM      7  C   UNL d   1      -6.347 -15.879  -4.778 -0.12 +0.29    +0.201 C 
DOCKED: BRANCH   7   8
DOCKED: ATOM      8  O   UNL d   1      -5.908 -17.235  -4.543 -0.08 -0.59    -0.364 OA
DOCKED: BRANCH   8   9
DOCKED: ATOM      9  P   UNL d   1      -4.532 -17.800  -5.266 -0.20 -0.03    -0.015 P 
DOCKED: ATOM     10  O   UNL d   1      -3.564 -16.611  -5.264 -0.39 -1.30    -0.577 OA
DOCKED: ATOM     11  O   UNL d   1      -4.916 -18.222  -6.685 -0.19 -0.77    -0.577 OA
DOCKED: ATOM     12  O   UNL d   1      -4.019 -18.961  -4.416 -0.30 -1.07    -0.638 OA
DOCKED: ENDBRANCH   8   9
DOCKED: ENDBRANCH   7   8
DOCKED: ENDBRANCH   1   7
DOCKED: BRANCH   1  13
DOCKED: ATOM     13  C   UNL d   1      -6.267 -14.935  -2.403 -0.17 +0.08    +0.073 C 
DOCKED: ATOM     14  O   UNL d   1      -6.723 -16.077  -2.044 -0.42 -0.89    -0.547 OA
DOCKED: ATOM     15  O   UNL d   1      -6.181 -13.913  -1.631 -0.08 -0.39    -0.547 OA
DOCKED: ENDBRANCH   1  13
DOCKED: TORSDOF 6
DOCKED: TER
DOCKED: ENDMDL
________________________________________________________________________________


	BEGINNING GENETIC ALGORITHM DOCKING 90 of 100
Run: 90 Seed: 1250250764 1130309183 [ Run 90 of 100 GA/GALS ]
Beginning LAMARCKIAN GENETIC ALGORITHM (LGA), with a maximum of 25000000 energy evaluations.

Final-Value: -9.425


	FINAL GENETIC ALGORITHM DOCKED STATE
	_______________________________________________


Detailed state:  trans -2.112 -15.820 -5.563 quatxyzw 0.602466 -0.720559 -0.309403 -0.148659 center 0.015 0.083 0.031 ntor 6 -151.5931 88.9975 0.8753 32.1012 55.0397 -18.4643
State:	 -2.112 -15.820  -5.563   0.609 -0.729 -0.313 -162.902   -151.59   89.00    0.88   32.10   55.04  -18.46

DOCKED: MODEL       90
DOCKED: USER    Run = 90
DOCKED: USER    DPF = D:/Protein_go_brrr/autodock/final/mut_N102T/2_3_BPG/dock.dpf
DOCKED: USER  
DOCKED: USER    Estimated Free Energy of Binding    =   -9.86 kcal/mol  [=(1)+(2)+(3)-(4)]
DOCKED: USER    Estimated Inhibition Constant, Ki   =   59.24 nM (nanomolar)  [Temperature = 298.15 K]
DOCKED: USER    
DOCKED: USER    (1) Final Intermolecular Energy     =  -11.65 kcal/mol
DOCKED: USER        vdW + Hbond + desolv Energy     =   -5.53 kcal/mol
DOCKED: USER        Electrostatic Energy            =   -6.12 kcal/mol
DOCKED: USER    (2) Final Total Internal Energy     =   +2.22 kcal/mol
DOCKED: USER    (3) Torsional Free Energy           =   +1.79 kcal/mol
DOCKED: USER    (4) Unbound System's Energy  [=(2)] =   +2.22 kcal/mol
DOCKED: USER    
DOCKED: USER    
DOCKED: USER    NEWDPF move 2_3_BPG_opt.pdbqt
DOCKED: USER    NEWDPF about 0.015000 0.083000 0.031000
DOCKED: USER    NEWDPF tran0 -2.112083 -15.819739 -5.563409
DOCKED: USER    NEWDPF quaternion0 0.602466 -0.720559 -0.309403 -0.148659
DOCKED: USER    NEWDPF axisangle0 0.609236 -0.728655 -0.312880 -162.901562
DOCKED: USER    NEWDPF quat0 0.609236 -0.728655 -0.312880 -162.901562
DOCKED: USER    NEWDPF dihe0 -151.59 89.00 0.88 32.10 55.04 -18.46 
DOCKED: USER  keepresnum = 1 
DOCKED: USER  
DOCKED: REMARK  6 active torsions:
DOCKED: REMARK  status: ('A' for Active; 'I' for Inactive)
DOCKED: REMARK    1  A    between atoms: P_1  and  O_3 
DOCKED: REMARK    2  A    between atoms: P_2  and  O_4 
DOCKED: REMARK    3  A    between atoms: O_3  and  C_13 
DOCKED: REMARK    4  A    between atoms: O_4  and  C_14 
DOCKED: REMARK    5  A    between atoms: C_13  and  C_14 
DOCKED: REMARK    6  A    between atoms: C_13  and  C_15 
DOCKED: USER                              x       y       z     vdW  Elec       q    Type
DOCKED: USER                           _______ _______ _______ _____ _____    ______ ____
DOCKED: ROOT
DOCKED: ATOM      1  C   UNL d   1      -1.790 -15.258  -5.737 -0.32 +0.29    +0.193 C 
DOCKED: ENDROOT
DOCKED: BRANCH   1   2
DOCKED: ATOM      2  O   UNL d   1      -1.790 -14.355  -4.580 -0.32 -0.39    -0.356 OA
DOCKED: BRANCH   2   3
DOCKED: ATOM      3  P   UNL d   1      -2.834 -13.094  -4.419 -0.75 -0.01    -0.014 P 
DOCKED: ATOM      4  O   UNL d   1      -2.056 -11.883  -4.958 +0.03 -0.32    -0.577 OA
DOCKED: ATOM      5  O   UNL d   1      -3.140 -12.947  -2.930 -0.14 -0.38    -0.577 OA
DOCKED: ATOM      6  O   UNL d   1      -4.066 -13.391  -5.267 -0.46 -1.33    -0.638 OA
DOCKED: ENDBRANCH   2   3
DOCKED: ENDBRANCH   1   2
DOCKED: BRANCH   1   7
DOCKED: ATOM      7  C   UNL d   1      -2.277 -16.679  -5.269 -0.19 +0.30    +0.201 C 
DOCKED: BRANCH   7   8
DOCKED: ATOM      8  O   UNL d   1      -3.138 -17.385  -6.189 -0.68 -0.68    -0.364 OA
DOCKED: BRANCH   8   9
DOCKED: ATOM      9  P   UNL d   1      -4.647 -17.865  -5.710 -0.20 -0.02    -0.015 P 
DOCKED: ATOM     10  O   UNL d   1      -5.218 -18.636  -6.906 -0.05 -0.59    -0.577 OA
DOCKED: ATOM     11  O   UNL d   1      -5.446 -16.596  -5.415 -0.10 -1.18    -0.577 OA
DOCKED: ATOM     12  O   UNL d   1      -4.469 -18.758  -4.484 -0.22 -1.13    -0.638 OA
DOCKED: ENDBRANCH   8   9
DOCKED: ENDBRANCH   7   8
DOCKED: ENDBRANCH   1   7
DOCKED: BRANCH   1  13
DOCKED: ATOM     13  C   UNL d   1      -0.332 -15.390  -6.317 -0.59 +0.06    +0.073 C 
DOCKED: ATOM     14  O   UNL d   1      -0.009 -14.672  -7.328 -0.75 -0.36    -0.547 OA
DOCKED: ATOM     15  O   UNL d   1       0.473 -16.173  -5.696 -0.79 -0.37    -0.547 OA
DOCKED: ENDBRANCH   1  13
DOCKED: TORSDOF 6
DOCKED: TER
DOCKED: ENDMDL
________________________________________________________________________________


	BEGINNING GENETIC ALGORITHM DOCKING 91 of 100
Run: 91 Seed: 325861525 695142567 [ Run 91 of 100 GA/GALS ]
Beginning LAMARCKIAN GENETIC ALGORITHM (LGA), with a maximum of 25000000 energy evaluations.

Final-Value: -8.690


	FINAL GENETIC ALGORITHM DOCKED STATE
	_______________________________________________


Detailed state:  trans -6.903 -15.404 -4.859 quatxyzw 0.471271 0.755326 -0.450044 0.069617 center 0.015 0.083 0.031 ntor 6 -94.2886 -23.2483 -14.5793 30.2162 63.8440 -144.3626
State:	 -6.903 -15.404  -4.859   0.472  0.757 -0.451 172.016    -94.29  -23.25  -14.58   30.22   63.84 -144.36

DOCKED: MODEL       91
DOCKED: USER    Run = 91
DOCKED: USER    DPF = D:/Protein_go_brrr/autodock/final/mut_N102T/2_3_BPG/dock.dpf
DOCKED: USER  
DOCKED: USER    Estimated Free Energy of Binding    =   -9.39 kcal/mol  [=(1)+(2)+(3)-(4)]
DOCKED: USER    Estimated Inhibition Constant, Ki   =  132.02 nM (nanomolar)  [Temperature = 298.15 K]
DOCKED: USER    
DOCKED: USER    (1) Final Intermolecular Energy     =  -11.17 kcal/mol
DOCKED: USER        vdW + Hbond + desolv Energy     =   -3.79 kcal/mol
DOCKED: USER        Electrostatic Energy            =   -7.38 kcal/mol
DOCKED: USER    (2) Final Total Internal Energy     =   +2.48 kcal/mol
DOCKED: USER    (3) Torsional Free Energy           =   +1.79 kcal/mol
DOCKED: USER    (4) Unbound System's Energy  [=(2)] =   +2.48 kcal/mol
DOCKED: USER    
DOCKED: USER    
DOCKED: USER    NEWDPF move 2_3_BPG_opt.pdbqt
DOCKED: USER    NEWDPF about 0.015000 0.083000 0.031000
DOCKED: USER    NEWDPF tran0 -6.902698 -15.404179 -4.859161
DOCKED: USER    NEWDPF quaternion0 0.471271 0.755326 -0.450044 0.069617
DOCKED: USER    NEWDPF axisangle0 0.472417 0.757163 -0.451139 172.015965
DOCKED: USER    NEWDPF quat0 0.472417 0.757163 -0.451139 172.015965
DOCKED: USER    NEWDPF dihe0 -94.29 -23.25 -14.58 30.22 63.84 -144.36 
DOCKED: USER  keepresnum = 1 
DOCKED: USER  
DOCKED: REMARK  6 active torsions:
DOCKED: REMARK  status: ('A' for Active; 'I' for Inactive)
DOCKED: REMARK    1  A    between atoms: P_1  and  O_3 
DOCKED: REMARK    2  A    between atoms: P_2  and  O_4 
DOCKED: REMARK    3  A    between atoms: O_3  and  C_13 
DOCKED: REMARK    4  A    between atoms: O_4  and  C_14 
DOCKED: REMARK    5  A    between atoms: C_13  and  C_14 
DOCKED: REMARK    6  A    between atoms: C_13  and  C_15 
DOCKED: USER                              x       y       z     vdW  Elec       q    Type
DOCKED: USER                           _______ _______ _______ _____ _____    ______ ____
DOCKED: ROOT
DOCKED: ATOM      1  C   UNL d   1      -6.834 -15.962  -4.494 -0.09 +0.23    +0.193 C 
DOCKED: ENDROOT
DOCKED: BRANCH   1   2
DOCKED: ATOM      2  O   UNL d   1      -5.403 -16.260  -4.378 -0.07 -0.65    -0.356 OA
DOCKED: BRANCH   2   3
DOCKED: ATOM      3  P   UNL d   1      -4.646 -17.418  -5.268 -0.15 -0.03    -0.014 P 
DOCKED: ATOM      4  O   UNL d   1      -3.190 -16.937  -5.364 -0.50 -1.12    -0.577 OA
DOCKED: ATOM      5  O   UNL d   1      -5.320 -17.447  -6.638 -0.22 -1.09    -0.577 OA
DOCKED: ATOM      6  O   UNL d   1      -4.751 -18.738  -4.511 -0.19 -1.10    -0.638 OA
DOCKED: ENDBRANCH   2   3
DOCKED: ENDBRANCH   1   2
DOCKED: BRANCH   1   7
DOCKED: ATOM      7  C   UNL d   1      -7.002 -14.516  -5.090 -0.10 +0.22    +0.201 C 
DOCKED: BRANCH   7   8
DOCKED: ATOM      8  O   UNL d   1      -5.823 -13.944  -5.698 -0.05 -0.74    -0.364 OA
DOCKED: BRANCH   8   9
DOCKED: ATOM      9  P   UNL d   1      -5.088 -12.631  -5.009 -0.46 -0.02    -0.015 P 
DOCKED: ATOM     10  O   UNL d   1      -3.736 -12.512  -5.723 -0.66 -0.86    -0.577 OA
DOCKED: ATOM     11  O   UNL d   1      -4.923 -12.942  -3.522 -0.07 -0.53    -0.577 OA
DOCKED: ATOM     12  O   UNL d   1      -5.985 -11.422  -5.272 -0.61 -0.53    -0.638 OA
DOCKED: ENDBRANCH   8   9
DOCKED: ENDBRANCH   7   8
DOCKED: ENDBRANCH   1   7
DOCKED: BRANCH   1  13
DOCKED: ATOM     13  C   UNL d   1      -7.512 -16.004  -3.074 -0.09 +0.07    +0.073 C 
DOCKED: ATOM     14  O   UNL d   1      -7.162 -16.927  -2.257 -0.54 -0.93    -0.547 OA
DOCKED: ATOM     15  O   UNL d   1      -8.337 -15.062  -2.794 +0.02 -0.30    -0.547 OA
DOCKED: ENDBRANCH   1  13
DOCKED: TORSDOF 6
DOCKED: TER
DOCKED: ENDMDL
________________________________________________________________________________


	BEGINNING GENETIC ALGORITHM DOCKING 92 of 100
Run: 92 Seed: 79334861 754846960 [ Run 92 of 100 GA/GALS ]
Beginning LAMARCKIAN GENETIC ALGORITHM (LGA), with a maximum of 25000000 energy evaluations.

Final-Value: -8.628


	FINAL GENETIC ALGORITHM DOCKED STATE
	_______________________________________________


Detailed state:  trans -5.771 -15.645 -4.483 quatxyzw -0.762276 -0.543956 0.207020 -0.283178 center 0.015 0.083 0.031 ntor 6 124.2683 5.9955 157.0297 92.8377 -16.6593 -17.7403
State:	 -5.771 -15.645  -4.483  -0.795 -0.567  0.216 -147.100    124.27    6.00  157.03   92.84  -16.66  -17.74

DOCKED: MODEL       92
DOCKED: USER    Run = 92
DOCKED: USER    DPF = D:/Protein_go_brrr/autodock/final/mut_N102T/2_3_BPG/dock.dpf
DOCKED: USER  
DOCKED: USER    Estimated Free Energy of Binding    =   -8.99 kcal/mol  [=(1)+(2)+(3)-(4)]
DOCKED: USER    Estimated Inhibition Constant, Ki   =  258.72 nM (nanomolar)  [Temperature = 298.15 K]
DOCKED: USER    
DOCKED: USER    (1) Final Intermolecular Energy     =  -10.78 kcal/mol
DOCKED: USER        vdW + Hbond + desolv Energy     =   -4.05 kcal/mol
DOCKED: USER        Electrostatic Energy            =   -6.73 kcal/mol
DOCKED: USER    (2) Final Total Internal Energy     =   +2.15 kcal/mol
DOCKED: USER    (3) Torsional Free Energy           =   +1.79 kcal/mol
DOCKED: USER    (4) Unbound System's Energy  [=(2)] =   +2.15 kcal/mol
DOCKED: USER    
DOCKED: USER    
DOCKED: USER    NEWDPF move 2_3_BPG_opt.pdbqt
DOCKED: USER    NEWDPF about 0.015000 0.083000 0.031000
DOCKED: USER    NEWDPF tran0 -5.770666 -15.644650 -4.482603
DOCKED: USER    NEWDPF quaternion0 -0.762276 -0.543956 0.207020 -0.283178
DOCKED: USER    NEWDPF axisangle0 -0.794809 -0.567172 0.215856 -147.100017
DOCKED: USER    NEWDPF quat0 -0.794809 -0.567172 0.215856 -147.100017
DOCKED: USER    NEWDPF dihe0 124.27 6.00 157.03 92.84 -16.66 -17.74 
DOCKED: USER  keepresnum = 1 
DOCKED: USER  
DOCKED: REMARK  6 active torsions:
DOCKED: REMARK  status: ('A' for Active; 'I' for Inactive)
DOCKED: REMARK    1  A    between atoms: P_1  and  O_3 
DOCKED: REMARK    2  A    between atoms: P_2  and  O_4 
DOCKED: REMARK    3  A    between atoms: O_3  and  C_13 
DOCKED: REMARK    4  A    between atoms: O_4  and  C_14 
DOCKED: REMARK    5  A    between atoms: C_13  and  C_14 
DOCKED: REMARK    6  A    between atoms: C_13  and  C_15 
DOCKED: USER                              x       y       z     vdW  Elec       q    Type
DOCKED: USER                           _______ _______ _______ _____ _____    ______ ____
DOCKED: ROOT
DOCKED: ATOM      1  C   UNL d   1      -6.240 -16.103  -4.343 -0.11 +0.28    +0.193 C 
DOCKED: ENDROOT
DOCKED: BRANCH   1   2
DOCKED: ATOM      2  O   UNL d   1      -5.609 -17.427  -4.375 -0.04 -0.64    -0.356 OA
DOCKED: BRANCH   2   3
DOCKED: ATOM      3  P   UNL d   1      -4.477 -17.862  -5.485 -0.20 -0.02    -0.014 P 
DOCKED: ATOM      4  O   UNL d   1      -4.158 -19.328  -5.153 -0.10 -0.64    -0.577 OA
DOCKED: ATOM      5  O   UNL d   1      -3.263 -16.960  -5.271 -0.51 -1.11    -0.577 OA
DOCKED: ATOM      6  O   UNL d   1      -5.099 -17.724  -6.871 -0.23 -1.09    -0.638 OA
DOCKED: ENDBRANCH   2   3
DOCKED: ENDBRANCH   1   2
DOCKED: BRANCH   1   7
DOCKED: ATOM      7  C   UNL d   1      -5.113 -15.006  -4.377 -0.11 +0.35    +0.201 C 
DOCKED: BRANCH   7   8
DOCKED: ATOM      8  O   UNL d   1      -5.401 -13.829  -5.164 -0.31 -0.68    -0.364 OA
DOCKED: BRANCH   8   9
DOCKED: ATOM      9  P   UNL d   1      -4.460 -12.478  -5.012 -0.56 -0.02    -0.015 P 
DOCKED: ATOM     10  O   UNL d   1      -3.773 -12.622  -3.648 -0.15 -0.44    -0.577 OA
DOCKED: ATOM     11  O   UNL d   1      -5.400 -11.273  -5.053 -0.60 -0.47    -0.577 OA
DOCKED: ATOM     12  O   UNL d   1      -3.457 -12.493  -6.164 -0.49 -1.01    -0.638 OA
DOCKED: ENDBRANCH   8   9
DOCKED: ENDBRANCH   7   8
DOCKED: ENDBRANCH   1   7
DOCKED: BRANCH   1  13
DOCKED: ATOM     13  C   UNL d   1      -7.070 -15.932  -3.017 -0.09 +0.09    +0.073 C 
DOCKED: ATOM     14  O   UNL d   1      -7.658 -14.814  -2.804 +0.00 -0.37    -0.547 OA
DOCKED: ATOM     15  O   UNL d   1      -7.160 -16.957  -2.250 -0.54 -0.94    -0.547 OA
DOCKED: ENDBRANCH   1  13
DOCKED: TORSDOF 6
DOCKED: TER
DOCKED: ENDMDL
________________________________________________________________________________


	BEGINNING GENETIC ALGORITHM DOCKING 93 of 100
Run: 93 Seed: 1678707569 1689660558 [ Run 93 of 100 GA/GALS ]
Beginning LAMARCKIAN GENETIC ALGORITHM (LGA), with a maximum of 25000000 energy evaluations.

Final-Value: -8.813


	FINAL GENETIC ALGORITHM DOCKED STATE
	_______________________________________________


Detailed state:  trans -6.635 -15.247 -4.540 quatxyzw -0.528711 -0.709470 0.421173 -0.199326 center 0.015 0.083 0.031 ntor 6 -103.6633 -49.2673 -80.1673 20.9692 10.5520 -158.6340
State:	 -6.635 -15.247  -4.540  -0.540 -0.724  0.430 -157.005   -103.66  -49.27  -80.17   20.97   10.55 -158.63

DOCKED: MODEL       93
DOCKED: USER    Run = 93
DOCKED: USER    DPF = D:/Protein_go_brrr/autodock/final/mut_N102T/2_3_BPG/dock.dpf
DOCKED: USER  
DOCKED: USER    Estimated Free Energy of Binding    =   -9.19 kcal/mol  [=(1)+(2)+(3)-(4)]
DOCKED: USER    Estimated Inhibition Constant, Ki   =  183.13 nM (nanomolar)  [Temperature = 298.15 K]
DOCKED: USER    
DOCKED: USER    (1) Final Intermolecular Energy     =  -10.98 kcal/mol
DOCKED: USER        vdW + Hbond + desolv Energy     =   -4.02 kcal/mol
DOCKED: USER        Electrostatic Energy            =   -6.96 kcal/mol
DOCKED: USER    (2) Final Total Internal Energy     =   +2.17 kcal/mol
DOCKED: USER    (3) Torsional Free Energy           =   +1.79 kcal/mol
DOCKED: USER    (4) Unbound System's Energy  [=(2)] =   +2.17 kcal/mol
DOCKED: USER    
DOCKED: USER    
DOCKED: USER    NEWDPF move 2_3_BPG_opt.pdbqt
DOCKED: USER    NEWDPF about 0.015000 0.083000 0.031000
DOCKED: USER    NEWDPF tran0 -6.634911 -15.247058 -4.539552
DOCKED: USER    NEWDPF quaternion0 -0.528711 -0.709470 0.421173 -0.199326
DOCKED: USER    NEWDPF axisangle0 -0.539537 -0.723998 0.429798 -157.004926
DOCKED: USER    NEWDPF quat0 -0.539537 -0.723998 0.429798 -157.004926
DOCKED: USER    NEWDPF dihe0 -103.66 -49.27 -80.17 20.97 10.55 -158.63 
DOCKED: USER  keepresnum = 1 
DOCKED: USER  
DOCKED: REMARK  6 active torsions:
DOCKED: REMARK  status: ('A' for Active; 'I' for Inactive)
DOCKED: REMARK    1  A    between atoms: P_1  and  O_3 
DOCKED: REMARK    2  A    between atoms: P_2  and  O_4 
DOCKED: REMARK    3  A    between atoms: O_3  and  C_13 
DOCKED: REMARK    4  A    between atoms: O_4  and  C_14 
DOCKED: REMARK    5  A    between atoms: C_13  and  C_14 
DOCKED: REMARK    6  A    between atoms: C_13  and  C_15 
DOCKED: USER                              x       y       z     vdW  Elec       q    Type
DOCKED: USER                           _______ _______ _______ _____ _____    ______ ____
DOCKED: ROOT
DOCKED: ATOM      1  C   UNL d   1      -6.672 -15.848  -4.245 -0.10 +0.24    +0.193 C 
DOCKED: ENDROOT
DOCKED: BRANCH   1   2
DOCKED: ATOM      2  O   UNL d   1      -5.360 -16.494  -4.355 -0.03 -0.67    -0.356 OA
DOCKED: BRANCH   2   3
DOCKED: ATOM      3  P   UNL d   1      -5.081 -17.817  -5.292 -0.20 -0.02    -0.014 P 
DOCKED: ATOM      4  O   UNL d   1      -3.892 -17.415  -6.178 -0.60 -1.25    -0.577 OA
DOCKED: ATOM      5  O   UNL d   1      -6.342 -18.059  -6.120 -0.01 -0.61    -0.577 OA
DOCKED: ATOM      6  O   UNL d   1      -4.726 -18.980  -4.372 -0.29 -1.11    -0.638 OA
DOCKED: ENDBRANCH   2   3
DOCKED: ENDBRANCH   1   2
DOCKED: BRANCH   1   7
DOCKED: ATOM      7  C   UNL d   1      -6.529 -14.339  -4.664 -0.14 +0.23    +0.201 C 
DOCKED: BRANCH   7   8
DOCKED: ATOM      8  O   UNL d   1      -5.207 -13.921  -5.072 -0.28 -0.71    -0.364 OA
DOCKED: BRANCH   8   9
DOCKED: ATOM      9  P   UNL d   1      -4.852 -12.311  -5.210 -0.53 -0.02    -0.015 P 
DOCKED: ATOM     10  O   UNL d   1      -4.059 -11.968  -3.943 -0.12 -0.40    -0.577 OA
DOCKED: ATOM     11  O   UNL d   1      -6.184 -11.564  -5.270 -0.64 -0.49    -0.577 OA
DOCKED: ATOM     12  O   UNL d   1      -4.013 -12.141  -6.475 -0.41 -0.90    -0.638 OA
DOCKED: ENDBRANCH   8   9
DOCKED: ENDBRANCH   7   8
DOCKED: ENDBRANCH   1   7
DOCKED: BRANCH   1  13
DOCKED: ATOM     13  C   UNL d   1      -7.181 -15.911  -2.756 -0.10 +0.08    +0.073 C 
DOCKED: ATOM     14  O   UNL d   1      -7.160 -17.040  -2.150 -0.55 -0.97    -0.547 OA
DOCKED: ATOM     15  O   UNL d   1      -7.532 -14.802  -2.213 -0.01 -0.37    -0.547 OA
DOCKED: ENDBRANCH   1  13
DOCKED: TORSDOF 6
DOCKED: TER
DOCKED: ENDMDL
________________________________________________________________________________


	BEGINNING GENETIC ALGORITHM DOCKING 94 of 100
Run: 94 Seed: 1067422225 1109749157 [ Run 94 of 100 GA/GALS ]
Beginning LAMARCKIAN GENETIC ALGORITHM (LGA), with a maximum of 25000000 energy evaluations.

Final-Value: -8.400


	FINAL GENETIC ALGORITHM DOCKED STATE
	_______________________________________________


Detailed state:  trans -6.423 -15.037 -3.637 quatxyzw -0.632179 -0.626291 0.262497 -0.373102 center 0.015 0.083 0.031 ntor 6 111.6522 65.5291 -110.8203 57.9097 -13.5438 -121.1718
State:	 -6.423 -15.037  -3.637  -0.681 -0.675  0.283 -136.186    111.65   65.53 -110.82   57.91  -13.54 -121.17

DOCKED: MODEL       94
DOCKED: USER    Run = 94
DOCKED: USER    DPF = D:/Protein_go_brrr/autodock/final/mut_N102T/2_3_BPG/dock.dpf
DOCKED: USER  
DOCKED: USER    Estimated Free Energy of Binding    =   -9.05 kcal/mol  [=(1)+(2)+(3)-(4)]
DOCKED: USER    Estimated Inhibition Constant, Ki   =  230.90 nM (nanomolar)  [Temperature = 298.15 K]
DOCKED: USER    
DOCKED: USER    (1) Final Intermolecular Energy     =  -10.84 kcal/mol
DOCKED: USER        vdW + Hbond + desolv Energy     =   -3.38 kcal/mol
DOCKED: USER        Electrostatic Energy            =   -7.47 kcal/mol
DOCKED: USER    (2) Final Total Internal Energy     =   +2.44 kcal/mol
DOCKED: USER    (3) Torsional Free Energy           =   +1.79 kcal/mol
DOCKED: USER    (4) Unbound System's Energy  [=(2)] =   +2.44 kcal/mol
DOCKED: USER    
DOCKED: USER    
DOCKED: USER    NEWDPF move 2_3_BPG_opt.pdbqt
DOCKED: USER    NEWDPF about 0.015000 0.083000 0.031000
DOCKED: USER    NEWDPF tran0 -6.423378 -15.037242 -3.636754
DOCKED: USER    NEWDPF quaternion0 -0.632179 -0.626291 0.262497 -0.373102
DOCKED: USER    NEWDPF axisangle0 -0.681381 -0.675035 0.282927 -136.185950
DOCKED: USER    NEWDPF quat0 -0.681381 -0.675035 0.282927 -136.185950
DOCKED: USER    NEWDPF dihe0 111.65 65.53 -110.82 57.91 -13.54 -121.17 
DOCKED: USER  keepresnum = 1 
DOCKED: USER  
DOCKED: REMARK  6 active torsions:
DOCKED: REMARK  status: ('A' for Active; 'I' for Inactive)
DOCKED: REMARK    1  A    between atoms: P_1  and  O_3 
DOCKED: REMARK    2  A    between atoms: P_2  and  O_4 
DOCKED: REMARK    3  A    between atoms: O_3  and  C_13 
DOCKED: REMARK    4  A    between atoms: O_4  and  C_14 
DOCKED: REMARK    5  A    between atoms: C_13  and  C_14 
DOCKED: REMARK    6  A    between atoms: C_13  and  C_15 
DOCKED: USER                              x       y       z     vdW  Elec       q    Type
DOCKED: USER                           _______ _______ _______ _____ _____    ______ ____
DOCKED: ROOT
DOCKED: ATOM      1  C   UNL d   1      -6.729 -15.622  -3.521 -0.10 +0.23    +0.193 C 
DOCKED: ENDROOT
DOCKED: BRANCH   1   2
DOCKED: ATOM      2  O   UNL d   1      -5.821 -16.701  -3.926 -0.00 -0.67    -0.356 OA
DOCKED: BRANCH   2   3
DOCKED: ATOM      3  P   UNL d   1      -5.525 -17.089  -5.497 -0.05 -0.02    -0.014 P 
DOCKED: ATOM      4  O   UNL d   1      -6.010 -18.541  -5.631 -0.01 -0.60    -0.577 OA
DOCKED: ATOM      5  O   UNL d   1      -4.017 -16.979  -5.713 -0.47 -1.44    -0.577 OA
DOCKED: ATOM      6  O   UNL d   1      -6.336 -16.143  -6.377 +0.03 -1.31    -0.638 OA
DOCKED: ENDBRANCH   2   3
DOCKED: ENDBRANCH   1   2
DOCKED: BRANCH   1   7
DOCKED: ATOM      7  C   UNL d   1      -5.930 -14.267  -3.510 -0.20 +0.21    +0.201 C 
DOCKED: BRANCH   7   8
DOCKED: ATOM      8  O   UNL d   1      -4.967 -14.095  -4.573 -0.30 -0.60    -0.364 OA
DOCKED: BRANCH   8   9
DOCKED: ATOM      9  P   UNL d   1      -4.258 -12.621  -4.819 -0.59 -0.02    -0.015 P 
DOCKED: ATOM     10  O   UNL d   1      -3.300 -12.436  -3.636 -0.13 -0.36    -0.577 OA
DOCKED: ATOM     11  O   UNL d   1      -5.378 -11.581  -4.815 -0.63 -0.50    -0.577 OA
DOCKED: ATOM     12  O   UNL d   1      -3.515 -12.695  -6.153 -0.31 -1.20    -0.638 OA
DOCKED: ENDBRANCH   8   9
DOCKED: ENDBRANCH   7   8
DOCKED: ENDBRANCH   1   7
DOCKED: BRANCH   1  13
DOCKED: ATOM     13  C   UNL d   1      -7.278 -15.896  -2.071 -0.08 +0.08    +0.073 C 
DOCKED: ATOM     14  O   UNL d   1      -7.850 -14.937  -1.443 +0.00 -0.30    -0.547 OA
DOCKED: ATOM     15  O   UNL d   1      -7.174 -17.095  -1.625 -0.54 -0.96    -0.547 OA
DOCKED: ENDBRANCH   1  13
DOCKED: TORSDOF 6
DOCKED: TER
DOCKED: ENDMDL
________________________________________________________________________________


	BEGINNING GENETIC ALGORITHM DOCKING 95 of 100
Run: 95 Seed: 722149522 1168085989 [ Run 95 of 100 GA/GALS ]
Beginning LAMARCKIAN GENETIC ALGORITHM (LGA), with a maximum of 25000000 energy evaluations.

Final-Value: -8.251


	FINAL GENETIC ALGORITHM DOCKED STATE
	_______________________________________________


Detailed state:  trans -5.587 -15.945 -4.324 quatxyzw -0.265716 0.305648 -0.602188 -0.688000 center 0.015 0.083 0.031 ntor 6 -39.5244 170.9949 6.1627 12.6552 -40.0626 -79.1254
State:	 -5.587 -15.945  -4.324  -0.366  0.421 -0.830 -93.056    -39.52  170.99    6.16   12.66  -40.06  -79.13

DOCKED: MODEL       95
DOCKED: USER    Run = 95
DOCKED: USER    DPF = D:/Protein_go_brrr/autodock/final/mut_N102T/2_3_BPG/dock.dpf
DOCKED: USER  
DOCKED: USER    Estimated Free Energy of Binding    =   -8.48 kcal/mol  [=(1)+(2)+(3)-(4)]
DOCKED: USER    Estimated Inhibition Constant, Ki   =  611.71 nM (nanomolar)  [Temperature = 298.15 K]
DOCKED: USER    
DOCKED: USER    (1) Final Intermolecular Energy     =  -10.27 kcal/mol
DOCKED: USER        vdW + Hbond + desolv Energy     =   -3.86 kcal/mol
DOCKED: USER        Electrostatic Energy            =   -6.41 kcal/mol
DOCKED: USER    (2) Final Total Internal Energy     =   +2.02 kcal/mol
DOCKED: USER    (3) Torsional Free Energy           =   +1.79 kcal/mol
DOCKED: USER    (4) Unbound System's Energy  [=(2)] =   +2.02 kcal/mol
DOCKED: USER    
DOCKED: USER    
DOCKED: USER    NEWDPF move 2_3_BPG_opt.pdbqt
DOCKED: USER    NEWDPF about 0.015000 0.083000 0.031000
DOCKED: USER    NEWDPF tran0 -5.586784 -15.944693 -4.323843
DOCKED: USER    NEWDPF quaternion0 -0.265716 0.305648 -0.602188 -0.688000
DOCKED: USER    NEWDPF axisangle0 -0.366145 0.421171 -0.829791 -93.056010
DOCKED: USER    NEWDPF quat0 -0.366145 0.421171 -0.829791 -93.056010
DOCKED: USER    NEWDPF dihe0 -39.52 170.99 6.16 12.66 -40.06 -79.13 
DOCKED: USER  keepresnum = 1 
DOCKED: USER  
DOCKED: REMARK  6 active torsions:
DOCKED: REMARK  status: ('A' for Active; 'I' for Inactive)
DOCKED: REMARK    1  A    between atoms: P_1  and  O_3 
DOCKED: REMARK    2  A    between atoms: P_2  and  O_4 
DOCKED: REMARK    3  A    between atoms: O_3  and  C_13 
DOCKED: REMARK    4  A    between atoms: O_4  and  C_14 
DOCKED: REMARK    5  A    between atoms: C_13  and  C_14 
DOCKED: REMARK    6  A    between atoms: C_13  and  C_15 
DOCKED: USER                              x       y       z     vdW  Elec       q    Type
DOCKED: USER                           _______ _______ _______ _____ _____    ______ ____
DOCKED: ROOT
DOCKED: ATOM      1  C   UNL d   1      -5.777 -15.406  -3.974 -0.07 +0.29    +0.193 C 
DOCKED: ENDROOT
DOCKED: BRANCH   1   2
DOCKED: ATOM      2  O   UNL d   1      -5.814 -14.257  -4.886 -0.16 -0.55    -0.356 OA
DOCKED: BRANCH   2   3
DOCKED: ATOM      3  P   UNL d   1      -4.893 -12.911  -4.679 -0.49 -0.02    -0.014 P 
DOCKED: ATOM      4  O   UNL d   1      -4.345 -13.037  -3.249 -0.09 -0.50    -0.577 OA
DOCKED: ATOM      5  O   UNL d   1      -5.817 -11.703  -4.822 -0.63 -0.53    -0.577 OA
DOCKED: ATOM      6  O   UNL d   1      -3.772 -12.944  -5.713 -0.53 -1.26    -0.638 OA
DOCKED: ENDBRANCH   2   3
DOCKED: ENDBRANCH   1   2
DOCKED: BRANCH   1   7
DOCKED: ATOM      7  C   UNL d   1      -5.620 -16.720  -4.823 -0.11 +0.35    +0.201 C 
DOCKED: BRANCH   7   8
DOCKED: ATOM      8  O   UNL d   1      -4.280 -17.026  -5.269 -0.54 -0.77    -0.364 OA
DOCKED: BRANCH   8   9
DOCKED: ATOM      9  P   UNL d   1      -3.760 -18.596  -5.318 -0.22 -0.02    -0.015 P 
DOCKED: ATOM     10  O   UNL d   1      -2.260 -18.510  -5.625 -0.04 -0.54    -0.577 OA
DOCKED: ATOM     11  O   UNL d   1      -4.533 -19.287  -6.441 -0.01 -0.49    -0.577 OA
DOCKED: ATOM     12  O   UNL d   1      -4.031 -19.204  -3.943 -0.33 -1.34    -0.638 OA
DOCKED: ENDBRANCH   8   9
DOCKED: ENDBRANCH   7   8
DOCKED: ENDBRANCH   1   7
DOCKED: BRANCH   1  13
DOCKED: ATOM     13  C   UNL d   1      -7.121 -15.491  -3.158 -0.12 +0.07    +0.073 C 
DOCKED: ATOM     14  O   UNL d   1      -8.121 -14.795  -3.554 +0.02 -0.33    -0.547 OA
DOCKED: ATOM     15  O   UNL d   1      -7.152 -16.311  -2.171 -0.53 -0.76    -0.547 OA
DOCKED: ENDBRANCH   1  13
DOCKED: TORSDOF 6
DOCKED: TER
DOCKED: ENDMDL
________________________________________________________________________________


	BEGINNING GENETIC ALGORITHM DOCKING 96 of 100
Run: 96 Seed: 1184735037 1218862662 [ Run 96 of 100 GA/GALS ]
Beginning LAMARCKIAN GENETIC ALGORITHM (LGA), with a maximum of 25000000 energy evaluations.

Final-Value: -8.894


	FINAL GENETIC ALGORITHM DOCKED STATE
	_______________________________________________


Detailed state:  trans -6.432 -15.276 -4.548 quatxyzw 0.482203 0.826973 -0.239402 0.162121 center 0.015 0.083 0.031 ntor 6 179.0689 -33.6054 28.8788 -0.4304 -55.3808 -147.1001
State:	 -6.432 -15.276  -4.548   0.489  0.838 -0.243 161.340    179.07  -33.61   28.88   -0.43  -55.38 -147.10

DOCKED: MODEL       96
DOCKED: USER    Run = 96
DOCKED: USER    DPF = D:/Protein_go_brrr/autodock/final/mut_N102T/2_3_BPG/dock.dpf
DOCKED: USER  
DOCKED: USER    Estimated Free Energy of Binding    =   -9.32 kcal/mol  [=(1)+(2)+(3)-(4)]
DOCKED: USER    Estimated Inhibition Constant, Ki   =  147.15 nM (nanomolar)  [Temperature = 298.15 K]
DOCKED: USER    
DOCKED: USER    (1) Final Intermolecular Energy     =  -11.11 kcal/mol
DOCKED: USER        vdW + Hbond + desolv Energy     =   -3.66 kcal/mol
DOCKED: USER        Electrostatic Energy            =   -7.45 kcal/mol
DOCKED: USER    (2) Final Total Internal Energy     =   +2.22 kcal/mol
DOCKED: USER    (3) Torsional Free Energy           =   +1.79 kcal/mol
DOCKED: USER    (4) Unbound System's Energy  [=(2)] =   +2.22 kcal/mol
DOCKED: USER    
DOCKED: USER    
DOCKED: USER    NEWDPF move 2_3_BPG_opt.pdbqt
DOCKED: USER    NEWDPF about 0.015000 0.083000 0.031000
DOCKED: USER    NEWDPF tran0 -6.432115 -15.275680 -4.548002
DOCKED: USER    NEWDPF quaternion0 0.482203 0.826973 -0.239402 0.162121
DOCKED: USER    NEWDPF axisangle0 0.488667 0.838060 -0.242611 161.339920
DOCKED: USER    NEWDPF quat0 0.488667 0.838060 -0.242611 161.339920
DOCKED: USER    NEWDPF dihe0 179.07 -33.61 28.88 -0.43 -55.38 -147.10 
DOCKED: USER  keepresnum = 1 
DOCKED: USER  
DOCKED: REMARK  6 active torsions:
DOCKED: REMARK  status: ('A' for Active; 'I' for Inactive)
DOCKED: REMARK    1  A    between atoms: P_1  and  O_3 
DOCKED: REMARK    2  A    between atoms: P_2  and  O_4 
DOCKED: REMARK    3  A    between atoms: O_3  and  C_13 
DOCKED: REMARK    4  A    between atoms: O_4  and  C_14 
DOCKED: REMARK    5  A    between atoms: C_13  and  C_14 
DOCKED: REMARK    6  A    between atoms: C_13  and  C_15 
DOCKED: USER                              x       y       z     vdW  Elec       q    Type
DOCKED: USER                           _______ _______ _______ _____ _____    ______ ____
DOCKED: ROOT
DOCKED: ATOM      1  C   UNL d   1      -6.420 -15.942  -4.475 -0.11 +0.26    +0.193 C 
DOCKED: ENDROOT
DOCKED: BRANCH   1   2
DOCKED: ATOM      2  O   UNL d   1      -5.019 -16.371  -4.419 +0.03 -0.71    -0.356 OA
DOCKED: BRANCH   2   3
DOCKED: ATOM      3  P   UNL d   1      -4.425 -17.632  -5.293 -0.16 -0.02    -0.014 P 
DOCKED: ATOM      4  O   UNL d   1      -3.019 -17.179  -5.713 -0.54 -1.05    -0.577 OA
DOCKED: ATOM      5  O   UNL d   1      -5.341 -17.817  -6.501 -0.20 -0.88    -0.577 OA
DOCKED: ATOM      6  O   UNL d   1      -4.370 -18.853  -4.380 -0.26 -1.15    -0.638 OA
DOCKED: ENDBRANCH   2   3
DOCKED: ENDBRANCH   1   2
DOCKED: BRANCH   1   7
DOCKED: ATOM      7  C   UNL d   1      -6.474 -14.374  -4.353 -0.15 +0.22    +0.201 C 
DOCKED: BRANCH   7   8
DOCKED: ATOM      8  O   UNL d   1      -5.211 -13.688  -4.497 -0.31 -0.51    -0.364 OA
DOCKED: BRANCH   8   9
DOCKED: ATOM      9  P   UNL d   1      -5.061 -12.445  -5.578 -0.37 -0.02    -0.015 P 
DOCKED: ATOM     10  O   UNL d   1      -3.601 -12.498  -6.046 -0.58 -0.91    -0.577 OA
DOCKED: ATOM     11  O   UNL d   1      -5.371 -11.154  -4.820 -0.58 -0.46    -0.577 OA
DOCKED: ATOM     12  O   UNL d   1      -6.040 -12.719  -6.719 -0.07 -0.80    -0.638 OA
DOCKED: ENDBRANCH   8   9
DOCKED: ENDBRANCH   7   8
DOCKED: ENDBRANCH   1   7
DOCKED: BRANCH   1  13
DOCKED: ATOM     13  C   UNL d   1      -7.225 -16.569  -3.276 -0.06 +0.09    +0.073 C 
DOCKED: ATOM     14  O   UNL d   1      -8.301 -17.214  -3.533 -0.01 -0.40    -0.547 OA
DOCKED: ATOM     15  O   UNL d   1      -6.713 -16.448  -2.105 -0.29 -1.11    -0.547 OA
DOCKED: ENDBRANCH   1  13
DOCKED: TORSDOF 6
DOCKED: TER
DOCKED: ENDMDL
________________________________________________________________________________


	BEGINNING GENETIC ALGORITHM DOCKING 97 of 100
Run: 97 Seed: 1372601897 462319959 [ Run 97 of 100 GA/GALS ]
Beginning LAMARCKIAN GENETIC ALGORITHM (LGA), with a maximum of 25000000 energy evaluations.

Final-Value: -8.891


	FINAL GENETIC ALGORITHM DOCKED STATE
	_______________________________________________


Detailed state:  trans -1.876 -15.695 -5.283 quatxyzw -0.231130 0.136983 -0.704735 0.656630 center 0.015 0.083 0.031 ntor 6 11.7719 54.7314 -111.9919 47.1044 -3.8834 -110.5870
State:	 -1.876 -15.695  -5.283  -0.306  0.182 -0.934 97.913     11.77   54.73 -111.99   47.10   -3.88 -110.59

DOCKED: MODEL       97
DOCKED: USER    Run = 97
DOCKED: USER    DPF = D:/Protein_go_brrr/autodock/final/mut_N102T/2_3_BPG/dock.dpf
DOCKED: USER  
DOCKED: USER    Estimated Free Energy of Binding    =   -9.36 kcal/mol  [=(1)+(2)+(3)-(4)]
DOCKED: USER    Estimated Inhibition Constant, Ki   =  137.22 nM (nanomolar)  [Temperature = 298.15 K]
DOCKED: USER    
DOCKED: USER    (1) Final Intermolecular Energy     =  -11.15 kcal/mol
DOCKED: USER        vdW + Hbond + desolv Energy     =   -4.95 kcal/mol
DOCKED: USER        Electrostatic Energy            =   -6.20 kcal/mol
DOCKED: USER    (2) Final Total Internal Energy     =   +2.26 kcal/mol
DOCKED: USER    (3) Torsional Free Energy           =   +1.79 kcal/mol
DOCKED: USER    (4) Unbound System's Energy  [=(2)] =   +2.26 kcal/mol
DOCKED: USER    
DOCKED: USER    
DOCKED: USER    NEWDPF move 2_3_BPG_opt.pdbqt
DOCKED: USER    NEWDPF about 0.015000 0.083000 0.031000
DOCKED: USER    NEWDPF tran0 -1.875875 -15.695215 -5.283268
DOCKED: USER    NEWDPF quaternion0 -0.231130 0.136983 -0.704735 0.656630
DOCKED: USER    NEWDPF axisangle0 -0.306452 0.181624 -0.934398 97.913306
DOCKED: USER    NEWDPF quat0 -0.306452 0.181624 -0.934398 97.913306
DOCKED: USER    NEWDPF dihe0 11.77 54.73 -111.99 47.10 -3.88 -110.59 
DOCKED: USER  keepresnum = 1 
DOCKED: USER  
DOCKED: REMARK  6 active torsions:
DOCKED: REMARK  status: ('A' for Active; 'I' for Inactive)
DOCKED: REMARK    1  A    between atoms: P_1  and  O_3 
DOCKED: REMARK    2  A    between atoms: P_2  and  O_4 
DOCKED: REMARK    3  A    between atoms: O_3  and  C_13 
DOCKED: REMARK    4  A    between atoms: O_4  and  C_14 
DOCKED: REMARK    5  A    between atoms: C_13  and  C_14 
DOCKED: REMARK    6  A    between atoms: C_13  and  C_15 
DOCKED: USER                              x       y       z     vdW  Elec       q    Type
DOCKED: USER                           _______ _______ _______ _____ _____    ______ ____
DOCKED: ROOT
DOCKED: ATOM      1  C   UNL d   1      -1.536 -16.215  -5.534 -0.34 +0.24    +0.193 C 
DOCKED: ENDROOT
DOCKED: BRANCH   1   2
DOCKED: ATOM      2  O   UNL d   1      -2.386 -16.881  -6.527 -0.41 -0.63    -0.356 OA
DOCKED: BRANCH   2   3
DOCKED: ATOM      3  P   UNL d   1      -3.504 -18.023  -6.138 -0.21 -0.02    -0.014 P 
DOCKED: ATOM      4  O   UNL d   1      -3.202 -19.194  -7.087 -0.03 -0.43    -0.577 OA
DOCKED: ATOM      5  O   UNL d   1      -4.880 -17.420  -6.410 -0.34 -1.22    -0.577 OA
DOCKED: ATOM      6  O   UNL d   1      -3.289 -18.415  -4.680 -0.01 -0.95    -0.638 OA
DOCKED: ENDBRANCH   2   3
DOCKED: ENDBRANCH   1   2
DOCKED: BRANCH   1   7
DOCKED: ATOM      7  C   UNL d   1      -2.192 -14.838  -5.150 -0.30 +0.31    +0.201 C 
DOCKED: BRANCH   7   8
DOCKED: ATOM      8  O   UNL d   1      -3.596 -14.880  -4.816 -0.18 -0.76    -0.364 OA
DOCKED: BRANCH   8   9
DOCKED: ATOM      9  P   UNL d   1      -4.386 -13.495  -4.376 -0.51 -0.02    -0.015 P 
DOCKED: ATOM     10  O   UNL d   1      -4.477 -12.662  -5.661 -0.64 -0.98    -0.577 OA
DOCKED: ATOM     11  O   UNL d   1      -3.529 -12.811  -3.312 -0.15 -0.42    -0.577 OA
DOCKED: ATOM     12  O   UNL d   1      -5.765 -13.906  -3.860 -0.01 -0.70    -0.638 OA
DOCKED: ENDBRANCH   8   9
DOCKED: ENDBRANCH   7   8
DOCKED: ENDBRANCH   1   7
DOCKED: BRANCH   1  13
DOCKED: ATOM     13  C   UNL d   1      -0.109 -15.943  -6.142 -0.58 +0.05    +0.073 C 
DOCKED: ATOM     14  O   UNL d   1      -0.008 -15.121  -7.119 -0.58 -0.36    -0.547 OA
DOCKED: ATOM     15  O   UNL d   1       0.886 -16.520  -5.573 -0.66 -0.31    -0.547 OA
DOCKED: ENDBRANCH   1  13
DOCKED: TORSDOF 6
DOCKED: TER
DOCKED: ENDMDL
________________________________________________________________________________


	BEGINNING GENETIC ALGORITHM DOCKING 98 of 100
Run: 98 Seed: 327960478 1921625168 [ Run 98 of 100 GA/GALS ]
Beginning LAMARCKIAN GENETIC ALGORITHM (LGA), with a maximum of 25000000 energy evaluations.

Final-Value: -8.626


	FINAL GENETIC ALGORITHM DOCKED STATE
	_______________________________________________


Detailed state:  trans -6.144 -15.454 -4.427 quatxyzw 0.615795 0.756798 -0.107652 0.190958 center 0.015 0.083 0.031 ntor 6 -11.7259 -55.2381 -168.3175 24.4203 24.3838 -60.3451
State:	 -6.144 -15.454  -4.427   0.627  0.771 -0.110 157.983    -11.73  -55.24 -168.32   24.42   24.38  -60.35

DOCKED: MODEL       98
DOCKED: USER    Run = 98
DOCKED: USER    DPF = D:/Protein_go_brrr/autodock/final/mut_N102T/2_3_BPG/dock.dpf
DOCKED: USER  
DOCKED: USER    Estimated Free Energy of Binding    =   -8.92 kcal/mol  [=(1)+(2)+(3)-(4)]
DOCKED: USER    Estimated Inhibition Constant, Ki   =  291.66 nM (nanomolar)  [Temperature = 298.15 K]
DOCKED: USER    
DOCKED: USER    (1) Final Intermolecular Energy     =  -10.71 kcal/mol
DOCKED: USER        vdW + Hbond + desolv Energy     =   -3.93 kcal/mol
DOCKED: USER        Electrostatic Energy            =   -6.78 kcal/mol
DOCKED: USER    (2) Final Total Internal Energy     =   +2.08 kcal/mol
DOCKED: USER    (3) Torsional Free Energy           =   +1.79 kcal/mol
DOCKED: USER    (4) Unbound System's Energy  [=(2)] =   +2.08 kcal/mol
DOCKED: USER    
DOCKED: USER    
DOCKED: USER    NEWDPF move 2_3_BPG_opt.pdbqt
DOCKED: USER    NEWDPF about 0.015000 0.083000 0.031000
DOCKED: USER    NEWDPF tran0 -6.143847 -15.453982 -4.426976
DOCKED: USER    NEWDPF quaternion0 0.615795 0.756798 -0.107652 0.190958
DOCKED: USER    NEWDPF axisangle0 0.627339 0.770985 -0.109670 157.982642
DOCKED: USER    NEWDPF quat0 0.627339 0.770985 -0.109670 157.982642
DOCKED: USER    NEWDPF dihe0 -11.73 -55.24 -168.32 24.42 24.38 -60.35 
DOCKED: USER  keepresnum = 1 
DOCKED: USER  
DOCKED: REMARK  6 active torsions:
DOCKED: REMARK  status: ('A' for Active; 'I' for Inactive)
DOCKED: REMARK    1  A    between atoms: P_1  and  O_3 
DOCKED: REMARK    2  A    between atoms: P_2  and  O_4 
DOCKED: REMARK    3  A    between atoms: O_3  and  C_13 
DOCKED: REMARK    4  A    between atoms: O_4  and  C_14 
DOCKED: REMARK    5  A    between atoms: C_13  and  C_14 
DOCKED: REMARK    6  A    between atoms: C_13  and  C_15 
DOCKED: USER                              x       y       z     vdW  Elec       q    Type
DOCKED: USER                           _______ _______ _______ _____ _____    ______ ____
DOCKED: ROOT
DOCKED: ATOM      1  C   UNL d   1      -6.362 -16.086  -4.479 -0.11 +0.27    +0.193 C 
DOCKED: ENDROOT
DOCKED: BRANCH   1   2
DOCKED: ATOM      2  O   UNL d   1      -5.203 -16.980  -4.379 +0.04 -0.70    -0.356 OA
DOCKED: BRANCH   2   3
DOCKED: ATOM      3  P   UNL d   1      -4.592 -17.812  -5.660 -0.16 -0.02    -0.014 P 
DOCKED: ATOM      4  O   UNL d   1      -3.138 -17.327  -5.773 -0.60 -1.04    -0.577 OA
DOCKED: ATOM      5  O   UNL d   1      -5.412 -17.419  -6.887 -0.17 -1.08    -0.577 OA
DOCKED: ATOM      6  O   UNL d   1      -4.663 -19.299  -5.332 -0.04 -0.68    -0.638 OA
DOCKED: ENDBRANCH   2   3
DOCKED: ENDBRANCH   1   2
DOCKED: BRANCH   1   7
DOCKED: ATOM      7  C   UNL d   1      -5.916 -14.633  -4.072 -0.17 +0.26    +0.201 C 
DOCKED: BRANCH   7   8
DOCKED: ATOM      8  O   UNL d   1      -5.631 -13.732  -5.164 -0.31 -0.60    -0.364 OA
DOCKED: BRANCH   8   9
DOCKED: ATOM      9  P   UNL d   1      -4.558 -12.490  -4.957 -0.56 -0.02    -0.015 P 
DOCKED: ATOM     10  O   UNL d   1      -3.822 -12.812  -3.651 -0.15 -0.48    -0.577 OA
DOCKED: ATOM     11  O   UNL d   1      -5.379 -11.205  -4.847 -0.58 -0.47    -0.577 OA
DOCKED: ATOM     12  O   UNL d   1      -3.619 -12.498  -6.163 -0.51 -1.05    -0.638 OA
DOCKED: ENDBRANCH   8   9
DOCKED: ENDBRANCH   7   8
DOCKED: ENDBRANCH   1   7
DOCKED: BRANCH   1  13
DOCKED: ATOM     13  C   UNL d   1      -7.495 -16.560  -3.493 -0.08 +0.08    +0.073 C 
DOCKED: ATOM     14  O   UNL d   1      -7.162 -16.943  -2.318 -0.54 -0.92    -0.547 OA
DOCKED: ATOM     15  O   UNL d   1      -8.705 -16.472  -3.912 +0.02 -0.31    -0.547 OA
DOCKED: ENDBRANCH   1  13
DOCKED: TORSDOF 6
DOCKED: TER
DOCKED: ENDMDL
________________________________________________________________________________


	BEGINNING GENETIC ALGORITHM DOCKING 99 of 100
Run: 99 Seed: 233938189 854313074 [ Run 99 of 100 GA/GALS ]
Beginning LAMARCKIAN GENETIC ALGORITHM (LGA), with a maximum of 25000000 energy evaluations.

Final-Value: -8.875


	FINAL GENETIC ALGORITHM DOCKED STATE
	_______________________________________________


Detailed state:  trans -1.904 -15.585 -5.253 quatxyzw -0.170416 0.081070 -0.729630 0.657287 center 0.015 0.083 0.031 ntor 6 -158.4502 4.7281 99.9723 60.3639 3.0057 -83.1071
State:	 -1.904 -15.585  -5.253  -0.226  0.108 -0.968 97.813   -158.45    4.73   99.97   60.36    3.01  -83.11

DOCKED: MODEL       99
DOCKED: USER    Run = 99
DOCKED: USER    DPF = D:/Protein_go_brrr/autodock/final/mut_N102T/2_3_BPG/dock.dpf
DOCKED: USER  
DOCKED: USER    Estimated Free Energy of Binding    =   -9.55 kcal/mol  [=(1)+(2)+(3)-(4)]
DOCKED: USER    Estimated Inhibition Constant, Ki   =  100.60 nM (nanomolar)  [Temperature = 298.15 K]
DOCKED: USER    
DOCKED: USER    (1) Final Intermolecular Energy     =  -11.34 kcal/mol
DOCKED: USER        vdW + Hbond + desolv Energy     =   -5.17 kcal/mol
DOCKED: USER        Electrostatic Energy            =   -6.16 kcal/mol
DOCKED: USER    (2) Final Total Internal Energy     =   +2.46 kcal/mol
DOCKED: USER    (3) Torsional Free Energy           =   +1.79 kcal/mol
DOCKED: USER    (4) Unbound System's Energy  [=(2)] =   +2.46 kcal/mol
DOCKED: USER    
DOCKED: USER    
DOCKED: USER    NEWDPF move 2_3_BPG_opt.pdbqt
DOCKED: USER    NEWDPF about 0.015000 0.083000 0.031000
DOCKED: USER    NEWDPF tran0 -1.903831 -15.584954 -5.253253
DOCKED: USER    NEWDPF quaternion0 -0.170416 0.081070 -0.729630 0.657287
DOCKED: USER    NEWDPF axisangle0 -0.226123 0.107572 -0.968141 97.813442
DOCKED: USER    NEWDPF quat0 -0.226123 0.107572 -0.968141 97.813442
DOCKED: USER    NEWDPF dihe0 -158.45 4.73 99.97 60.36 3.01 -83.11 
DOCKED: USER  keepresnum = 1 
DOCKED: USER  
DOCKED: REMARK  6 active torsions:
DOCKED: REMARK  status: ('A' for Active; 'I' for Inactive)
DOCKED: REMARK    1  A    between atoms: P_1  and  O_3 
DOCKED: REMARK    2  A    between atoms: P_2  and  O_4 
DOCKED: REMARK    3  A    between atoms: O_3  and  C_13 
DOCKED: REMARK    4  A    between atoms: O_4  and  C_14 
DOCKED: REMARK    5  A    between atoms: C_13  and  C_14 
DOCKED: REMARK    6  A    between atoms: C_13  and  C_15 
DOCKED: USER                              x       y       z     vdW  Elec       q    Type
DOCKED: USER                           _______ _______ _______ _____ _____    ______ ____
DOCKED: ROOT
DOCKED: ATOM      1  C   UNL d   1      -1.537 -16.124  -5.408 -0.32 +0.24    +0.193 C 
DOCKED: ENDROOT
DOCKED: BRANCH   1   2
DOCKED: ATOM      2  O   UNL d   1      -2.334 -16.980  -6.294 -0.49 -0.57    -0.356 OA
DOCKED: BRANCH   2   3
DOCKED: ATOM      3  P   UNL d   1      -3.628 -17.855  -5.779 -0.22 -0.02    -0.014 P 
DOCKED: ATOM      4  O   UNL d   1      -4.117 -18.592  -7.037 -0.15 -0.64    -0.577 OA
DOCKED: ATOM      5  O   UNL d   1      -4.671 -16.863  -5.268 -0.35 -1.25    -0.577 OA
DOCKED: ATOM      6  O   UNL d   1      -3.143 -18.831  -4.713 -0.08 -0.83    -0.638 OA
DOCKED: ENDBRANCH   2   3
DOCKED: ENDBRANCH   1   2
DOCKED: BRANCH   1   7
DOCKED: ATOM      7  C   UNL d   1      -2.256 -14.732  -5.270 -0.29 +0.32    +0.201 C 
DOCKED: BRANCH   7   8
DOCKED: ATOM      8  O   UNL d   1      -3.412 -14.702  -4.404 -0.22 -0.61    -0.364 OA
DOCKED: BRANCH   8   9
DOCKED: ATOM      9  P   UNL d   1      -4.335 -13.333  -4.300 -0.55 -0.02    -0.015 P 
DOCKED: ATOM     10  O   UNL d   1      -3.542 -12.386  -3.391 -0.11 -0.36    -0.577 OA
DOCKED: ATOM     11  O   UNL d   1      -5.669 -13.742  -3.674 -0.05 -0.60    -0.577 OA
DOCKED: ATOM     12  O   UNL d   1      -4.483 -12.780  -5.716 -0.57 -1.20    -0.638 OA
DOCKED: ENDBRANCH   8   9
DOCKED: ENDBRANCH   7   8
DOCKED: ENDBRANCH   1   7
DOCKED: BRANCH   1  13
DOCKED: ATOM     13  C   UNL d   1      -0.106 -15.895  -6.024 -0.55 +0.05    +0.073 C 
DOCKED: ATOM     14  O   UNL d   1       0.886 -16.524  -5.515 -0.66 -0.31    -0.547 OA
DOCKED: ATOM     15  O   UNL d   1      -0.031 -15.129  -7.051 -0.57 -0.37    -0.547 OA
DOCKED: ENDBRANCH   1  13
DOCKED: TORSDOF 6
DOCKED: TER
DOCKED: ENDMDL
________________________________________________________________________________


	BEGINNING GENETIC ALGORITHM DOCKING 100 of 100
Run: 100 Seed: 1148164461 149266176 [ Run 100 of 100 GA/GALS ]
Beginning LAMARCKIAN GENETIC ALGORITHM (LGA), with a maximum of 25000000 energy evaluations.

Final-Value: -8.809


	FINAL GENETIC ALGORITHM DOCKED STATE
	_______________________________________________


Detailed state:  trans -1.853 -16.229 -5.190 quatxyzw -0.090071 0.137719 -0.592119 0.788870 center 0.015 0.083 0.031 ntor 6 -74.0330 48.3931 179.1208 32.5414 -1.5819 -96.1184
State:	 -1.853 -16.229  -5.190  -0.147  0.224 -0.963 75.840    -74.03   48.39  179.12   32.54   -1.58  -96.12

DOCKED: MODEL      100
DOCKED: USER    Run = 100
DOCKED: USER    DPF = D:/Protein_go_brrr/autodock/final/mut_N102T/2_3_BPG/dock.dpf
DOCKED: USER  
DOCKED: USER    Estimated Free Energy of Binding    =   -9.17 kcal/mol  [=(1)+(2)+(3)-(4)]
DOCKED: USER    Estimated Inhibition Constant, Ki   =  188.53 nM (nanomolar)  [Temperature = 298.15 K]
DOCKED: USER    
DOCKED: USER    (1) Final Intermolecular Energy     =  -10.96 kcal/mol
DOCKED: USER        vdW + Hbond + desolv Energy     =   -4.92 kcal/mol
DOCKED: USER        Electrostatic Energy            =   -6.04 kcal/mol
DOCKED: USER    (2) Final Total Internal Energy     =   +2.15 kcal/mol
DOCKED: USER    (3) Torsional Free Energy           =   +1.79 kcal/mol
DOCKED: USER    (4) Unbound System's Energy  [=(2)] =   +2.15 kcal/mol
DOCKED: USER    
DOCKED: USER    
DOCKED: USER    NEWDPF move 2_3_BPG_opt.pdbqt
DOCKED: USER    NEWDPF about 0.015000 0.083000 0.031000
DOCKED: USER    NEWDPF tran0 -1.853049 -16.228800 -5.189636
DOCKED: USER    NEWDPF quaternion0 -0.090071 0.137719 -0.592119 0.788870
DOCKED: USER    NEWDPF axisangle0 -0.146561 0.224093 -0.963484 75.839899
DOCKED: USER    NEWDPF quat0 -0.146561 0.224093 -0.963484 75.839899
DOCKED: USER    NEWDPF dihe0 -74.03 48.39 179.12 32.54 -1.58 -96.12 
DOCKED: USER  keepresnum = 1 
DOCKED: USER  
DOCKED: REMARK  6 active torsions:
DOCKED: REMARK  status: ('A' for Active; 'I' for Inactive)
DOCKED: REMARK    1  A    between atoms: P_1  and  O_3 
DOCKED: REMARK    2  A    between atoms: P_2  and  O_4 
DOCKED: REMARK    3  A    between atoms: O_3  and  C_13 
DOCKED: REMARK    4  A    between atoms: O_4  and  C_14 
DOCKED: REMARK    5  A    between atoms: C_13  and  C_14 
DOCKED: REMARK    6  A    between atoms: C_13  and  C_15 
DOCKED: USER                              x       y       z     vdW  Elec       q    Type
DOCKED: USER                           _______ _______ _______ _____ _____    ______ ____
DOCKED: ROOT
DOCKED: ATOM      1  C   UNL d   1      -1.717 -16.878  -5.285 -0.22 +0.23    +0.193 C 
DOCKED: ENDROOT
DOCKED: BRANCH   1   2
DOCKED: ATOM      2  O   UNL d   1      -2.685 -17.411  -6.250 -0.62 -0.56    -0.356 OA
DOCKED: BRANCH   2   3
DOCKED: ATOM      3  P   UNL d   1      -4.015 -18.274  -5.812 -0.24 -0.02    -0.014 P 
DOCKED: ATOM      4  O   UNL d   1      -4.049 -19.452  -6.799 -0.01 -0.44    -0.577 OA
DOCKED: ATOM      5  O   UNL d   1      -5.225 -17.360  -5.986 -0.29 -1.08    -0.577 OA
DOCKED: ATOM      6  O   UNL d   1      -3.815 -18.752  -4.377 -0.23 -1.11    -0.638 OA
DOCKED: ENDBRANCH   2   3
DOCKED: ENDBRANCH   1   2
DOCKED: BRANCH   1   7
DOCKED: ATOM      7  C   UNL d   1      -1.832 -15.309  -5.269 -0.35 +0.28    +0.201 C 
DOCKED: BRANCH   7   8
DOCKED: ATOM      8  O   UNL d   1      -3.098 -14.774  -4.825 -0.24 -0.67    -0.364 OA
DOCKED: BRANCH   8   9
DOCKED: ATOM      9  P   UNL d   1      -3.346 -13.139  -4.802 -0.61 -0.02    -0.015 P 
DOCKED: ATOM     10  O   UNL d   1      -2.045 -12.531  -5.342 -0.16 -0.49    -0.577 OA
DOCKED: ATOM     11  O   UNL d   1      -3.598 -12.747  -3.347 -0.15 -0.42    -0.577 OA
DOCKED: ATOM     12  O   UNL d   1      -4.536 -12.849  -5.715 -0.55 -1.24    -0.638 OA
DOCKED: ENDBRANCH   8   9
DOCKED: ENDBRANCH   7   8
DOCKED: ENDBRANCH   1   7
DOCKED: BRANCH   1  13
DOCKED: ATOM     13  C   UNL d   1      -0.254 -17.273  -5.714 -0.49 +0.04    +0.073 C 
DOCKED: ATOM     14  O   UNL d   1      -0.097 -18.260  -6.515 -0.08 -0.19    -0.547 OA
DOCKED: ATOM     15  O   UNL d   1       0.700 -16.532  -5.279 -0.69 -0.36    -0.547 OA
DOCKED: ENDBRANCH   1  13
DOCKED: TORSDOF 6
DOCKED: TER
DOCKED: ENDMDL
________________________________________________________________________________

DPF> analysis                             # perform a ranked cluster analysis


		CLUSTER ANALYSIS OF CONFORMATIONS
		_________________________________

Number of conformations = 100

RMSD cluster analysis will be performed using the ligand atoms only (15 / 15 total atoms).

Outputting structurally similar clusters, ranked in order of increasing energy.


________________________________________________________________________________

Number of distinct conformational clusters found = 4,  out of 100 runs,
Using an rmsd-tolerance of 2.0 A


	CLUSTERING HISTOGRAM
	____________________

________________________________________________________________________________
     |           |     |           |     |                                    
Clus | Lowest    | Run | Mean      | Num | Histogram                          
-ter | Binding   |     | Binding   | in  |                                    
Rank | Energy    |     | Energy    | Clus|    5    10   15   20   25   30   35
_____|___________|_____|___________|_____|____:____|____:____|____:____|____:___
   1 |    -10.09 |  46 |     -9.43 |  21 |#####################
   2 |     -9.59 |  72 |     -9.12 |  76 |############################################################################
   3 |     -9.08 |  44 |     -9.08 |   1 |#
   4 |     -8.76 |  78 |     -8.70 |   2 |##
_____|___________|_____|___________|_____|______________________________________


Number of multi-member conformational clusters found = 3, out of 100 runs.

	RMSD TABLE
	__________

_____________________________________________________________________
     |      |      |           |         |                 |
Rank | Sub- | Run  | Binding   | Cluster | Reference       | Grep
     | Rank |      | Energy    | RMSD    | RMSD            | Pattern
_____|______|______|___________|_________|_________________|___________
   1      1     46      -10.09      0.00     15.23           RANKING
   1      2     51       -9.98      0.71     15.20           RANKING
   1      3     90       -9.86      0.55     15.07           RANKING
   1      4     40       -9.69      0.97     15.48           RANKING
   1      5     47       -9.63      0.99     15.37           RANKING
   1      6     99       -9.55      1.20     15.13           RANKING
   1      7     21       -9.46      1.14     14.82           RANKING
   1      8     87       -9.45      0.84     15.11           RANKING
   1      9     33       -9.39      1.05     15.37           RANKING
   1     10     68       -9.39      1.23     15.07           RANKING
   1     11     57       -9.37      0.85     15.35           RANKING
   1     12     97       -9.36      1.28     15.30           RANKING
   1     13     81       -9.33      1.07     15.41           RANKING
   1     14     77       -9.33      1.29     15.25           RANKING
   1     15     28       -9.30      1.11     15.40           RANKING
   1     16     13       -9.27      1.77     16.43           RANKING
   1     17     48       -9.24      0.98     15.32           RANKING
   1     18     59       -9.19      1.10     15.35           RANKING
   1     19    100       -9.17      1.17     15.58           RANKING
   1     20     27       -9.07      1.63     14.61           RANKING
   1     21     52       -8.85      1.26     15.46           RANKING
   2      1     72       -9.59      0.00     15.07           RANKING
   2      2     49       -9.54      0.93     14.86           RANKING
   2      3     56       -9.48      0.91     14.91           RANKING
   2      4     62       -9.44      0.70     15.35           RANKING
   2      5     75       -9.41      0.40     15.20           RANKING
   2      6     17       -9.40      0.55     15.24           RANKING
   2      7     34       -9.39      1.00     14.91           RANKING
   2      8     67       -9.39      0.92     14.93           RANKING
   2      9     91       -9.39      0.80     15.20           RANKING
   2     10      9       -9.37      0.97     15.37           RANKING
   2     11     84       -9.36      0.86     15.32           RANKING
   2     12      6       -9.33      1.00     15.57           RANKING
   2     13     31       -9.32      0.75     14.97           RANKING
   2     14     96       -9.32      0.80     15.33           RANKING
   2     15     54       -9.31      0.77     15.30           RANKING
   2     16     41       -9.31      0.92     15.26           RANKING
   2     17      8       -9.30      0.78     15.28           RANKING
   2     18     50       -9.29      0.61     15.10           RANKING
   2     19     22       -9.28      0.67     15.20           RANKING
   2     20     15       -9.27      0.93     14.98           RANKING
   2     21      1       -9.25      1.77     14.97           RANKING
   2     22     25       -9.25      0.52     15.29           RANKING
   2     23     79       -9.24      0.97     15.38           RANKING
   2     24     58       -9.24      1.47     15.28           RANKING
   2     25     12       -9.24      1.51     15.64           RANKING
   2     26     10       -9.24      1.04     14.96           RANKING
   2     27     83       -9.22      1.16     15.47           RANKING
   2     28     82       -9.22      0.60     15.31           RANKING
   2     29     19       -9.22      1.05     15.45           RANKING
   2     30     29       -9.21      1.12     15.59           RANKING
   2     31      2       -9.20      1.03     14.97           RANKING
   2     32     60       -9.19      1.50     15.29           RANKING
   2     33     93       -9.19      0.88     15.18           RANKING
   2     34     11       -9.19      0.94     15.33           RANKING
   2     35     74       -9.18      1.03     15.20           RANKING
   2     36     24       -9.18      1.12     15.36           RANKING
   2     37     76       -9.17      1.00     15.16           RANKING
   2     38      5       -9.16      0.94     15.04           RANKING
   2     39     38       -9.16      0.95     15.06           RANKING
   2     40      4       -9.15      0.96     15.03           RANKING
   2     41      7       -9.15      1.07     15.42           RANKING
   2     42     73       -9.14      1.80     14.90           RANKING
   2     43     88       -9.14      1.05     15.37           RANKING
   2     44     63       -9.13      1.14     15.33           RANKING
   2     45     61       -9.12      0.89     15.31           RANKING
   2     46     26       -9.12      1.14     15.33           RANKING
   2     47     71       -9.11      1.15     15.35           RANKING
   2     48     89       -9.11      1.10     14.93           RANKING
   2     49     80       -9.10      0.97     15.23           RANKING
   2     50     86       -9.09      1.21     15.18           RANKING
   2     51     23       -9.07      1.57     15.68           RANKING
   2     52     65       -9.06      0.81     15.15           RANKING
   2     53     94       -9.05      1.05     14.95           RANKING
   2     54     30       -9.04      1.23     15.41           RANKING
   2     55      3       -9.04      1.06     15.14           RANKING
   2     56     32       -9.03      1.72     14.91           RANKING
   2     57     18       -9.02      1.09     15.24           RANKING
   2     58     64       -9.02      1.23     15.26           RANKING
   2     59     45       -9.00      1.19     15.27           RANKING
   2     60     69       -9.00      1.06     15.38           RANKING
   2     61     36       -9.00      1.11     15.29           RANKING
   2     62     35       -8.99      1.19     15.44           RANKING
   2     63     92       -8.99      1.13     15.21           RANKING
   2     64     20       -8.96      1.12     15.28           RANKING
   2     65     53       -8.95      1.26     15.35           RANKING
   2     66     55       -8.93      1.43     15.36           RANKING
   2     67     98       -8.92      1.18     15.41           RANKING
   2     68     42       -8.81      1.20     14.59           RANKING
   2     69     37       -8.80      1.11     15.28           RANKING
   2     70     85       -8.64      1.82     15.04           RANKING
   2     71     43       -8.64      1.38     15.61           RANKING
   2     72     14       -8.56      1.19     14.83           RANKING
   2     73     95       -8.48      1.45     15.52           RANKING
   2     74     39       -8.36      1.94     15.07           RANKING
   2     75     66       -8.36      1.27     14.87           RANKING
   2     76     16       -8.27      1.51     15.47           RANKING
   3      1     44       -9.08      0.00     16.28           RANKING
   4      1     78       -8.76      0.00     14.91           RANKING
   4      2     70       -8.65      1.45     14.88           RANKING
_______________________________________________________________________



	INFORMATION ENTROPY ANALYSIS FOR THIS CLUSTERING
	________________________________________________


Information entropy for this clustering = 0.14  (rmstol = 2.00 Angstrom)

_______________________________________________________________________


	STATISTICAL MECHANICAL ANALYSIS
	_______________________________


Partition function, Q =   101.56            at Temperature, T = 298.15 K
Free energy,        A ~ -2737.65 kcal/mol   at Temperature, T = 298.15 K
Internal energy,    U =    -9.17 kcal/mol   at Temperature, T = 298.15 K
Entropy,            S =     9.15 kcal/mol/K at Temperature, T = 298.15 K

_______________________________________________________________________


	LOWEST ENERGY DOCKED CONFORMATION from EACH CLUSTER
	___________________________________________________



Keeping original residue number (specified in the input PDBQ file) for outputting.

MODEL       46
USER    Run = 46
USER    Cluster Rank = 1
USER    Number of conformations in this cluster = 21
USER  
USER    RMSD from reference structure       = 15.226 A
USER  
USER    Estimated Free Energy of Binding    =  -10.09 kcal/mol  [=(1)+(2)+(3)-(4)]
USER    Estimated Inhibition Constant, Ki   =   40.24 nM (nanomolar)  [Temperature = 298.15 K]
USER    
USER    (1) Final Intermolecular Energy     =  -11.88 kcal/mol
USER        vdW + Hbond + desolv Energy     =   -5.50 kcal/mol
USER        Electrostatic Energy            =   -6.38 kcal/mol
USER    (2) Final Total Internal Energy     =   +2.48 kcal/mol
USER    (3) Torsional Free Energy           =   +1.79 kcal/mol
USER    (4) Unbound System's Energy  [=(2)] =   +2.48 kcal/mol
USER    
USER    
USER  
USER    DPF = D:/Protein_go_brrr/autodock/final/mut_N102T/2_3_BPG/dock.dpf
USER    NEWDPF move	2_3_BPG_opt.pdbqt
USER    NEWDPF about	0.015000 0.083000 0.031000
USER    NEWDPF tran0	-2.043466 -16.189879 -5.894311
USER    NEWDPF axisangle0	0.679089 -0.678749 -0.279531 -165.635116
USER    NEWDPF quaternion0	0.673760 -0.673423 -0.277338 -0.125029
USER    NEWDPF dihe0	-155.78 138.60 -1.93 1.10 73.24 -44.19 
USER  
USER                              x       y       z    vdW   Elec        q     RMS 
ATOM      1  C   UNL d   1      -1.797 -15.579  -6.019 -0.15 +0.30    +0.193    15.226
ATOM      2  O   UNL d   1      -2.053 -14.735  -4.847 -0.29 -0.47    -0.356    15.226
ATOM      3  P   UNL d   1      -2.716 -13.233  -4.944 -0.70 -0.02    -0.014    15.226
ATOM      4  O   UNL d   1      -1.959 -12.554  -6.097 -0.17 -0.56    -0.577    15.226
ATOM      5  O   UNL d   1      -2.452 -12.535  -3.611 -0.14 -0.31    -0.577    15.226
ATOM      6  O   UNL d   1      -4.198 -13.392  -5.264 -0.46 -1.33    -0.638    15.226
ATOM      7  C   UNL d   1      -2.101 -17.075  -5.639 -0.25 +0.27    +0.201    15.226
ATOM      8  O   UNL d   1      -3.199 -17.694  -6.346 -0.64 -0.60    -0.364    15.226
ATOM      9  P   UNL d   1      -4.656 -17.908  -5.591 -0.21 -0.02    -0.015    15.226
ATOM     10  O   UNL d   1      -5.550 -18.587  -6.635 -0.03 -0.58    -0.577    15.226
ATOM     11  O   UNL d   1      -5.171 -16.519  -5.215 -0.16 -1.22    -0.577    15.226
ATOM     12  O   UNL d   1      -4.408 -18.803  -4.377 -0.25 -1.17    -0.638    15.226
ATOM     13  C   UNL d   1      -0.286 -15.465  -6.447 -0.59 +0.06    +0.073    15.226
ATOM     14  O   UNL d   1       0.011 -14.728  -7.452 -0.77 -0.34    -0.547    15.226
ATOM     15  O   UNL d   1       0.575 -16.074  -5.714 -0.71 -0.37    -0.547    15.226
TER
ENDMDL
MODEL       72
USER    Run = 72
USER    Cluster Rank = 2
USER    Number of conformations in this cluster = 76
USER  
USER    RMSD from reference structure       = 15.070 A
USER  
USER    Estimated Free Energy of Binding    =   -9.59 kcal/mol  [=(1)+(2)+(3)-(4)]
USER    Estimated Inhibition Constant, Ki   =   92.80 nM (nanomolar)  [Temperature = 298.15 K]
USER    
USER    (1) Final Intermolecular Energy     =  -11.38 kcal/mol
USER        vdW + Hbond + desolv Energy     =   -3.56 kcal/mol
USER        Electrostatic Energy            =   -7.82 kcal/mol
USER    (2) Final Total Internal Energy     =   +2.58 kcal/mol
USER    (3) Torsional Free Energy           =   +1.79 kcal/mol
USER    (4) Unbound System's Energy  [=(2)] =   +2.58 kcal/mol
USER    
USER    
USER  
USER    DPF = D:/Protein_go_brrr/autodock/final/mut_N102T/2_3_BPG/dock.dpf
USER    NEWDPF move	2_3_BPG_opt.pdbqt
USER    NEWDPF about	0.015000 0.083000 0.031000
USER    NEWDPF tran0	-6.917983 -14.979264 -4.184041
USER    NEWDPF axisangle0	0.430197 0.802759 -0.412927 152.438427
USER    NEWDPF quaternion0	0.417813 0.779651 -0.401040 0.238208
USER    NEWDPF dihe0	-121.20 -13.54 168.71 7.10 -70.99 -179.14 
USER  
USER                              x       y       z    vdW   Elec        q     RMS 
ATOM      1  C   UNL d   1      -6.812 -15.615  -4.001 -0.10 +0.22    +0.193    15.070
ATOM      2  O   UNL d   1      -5.426 -15.963  -4.333 -0.07 -0.64    -0.356    15.070
ATOM      3  P   UNL d   1      -5.019 -17.255  -5.266 -0.12 -0.03    -0.014    15.070
ATOM      4  O   UNL d   1      -3.575 -16.969  -5.707 -0.54 -1.35    -0.577    15.070
ATOM      5  O   UNL d   1      -5.977 -17.275  -6.455 -0.10 -0.93    -0.577    15.070
ATOM      6  O   UNL d   1      -5.101 -18.507  -4.398 -0.11 -1.16    -0.638    15.070
ATOM      7  C   UNL d   1      -6.993 -14.060  -4.151 -0.13 +0.17    +0.201    15.070
ATOM      8  O   UNL d   1      -5.777 -13.279  -4.125 -0.22 -0.37    -0.364    15.070
ATOM      9  P   UNL d   1      -5.265 -12.496  -5.490 -0.41 -0.02    -0.015    15.070
ATOM     10  O   UNL d   1      -6.178 -13.009  -6.610 -0.09 -0.80    -0.577    15.070
ATOM     11  O   UNL d   1      -3.807 -12.897  -5.713 -0.59 -1.11    -0.577    15.070
ATOM     12  O   UNL d   1      -5.443 -10.998  -5.244 -0.49 -0.48    -0.638    15.070
ATOM     13  C   UNL d   1      -7.127 -16.018  -2.512 -0.05 +0.09    +0.073    15.070
ATOM     14  O   UNL d   1      -7.160 -17.262  -2.209 -0.50 -1.00    -0.547    15.070
ATOM     15  O   UNL d   1      -7.271 -15.061  -1.668 -0.05 -0.42    -0.547    15.070
TER
ENDMDL
MODEL       44
USER    Run = 44
USER    Cluster Rank = 3
USER    Number of conformations in this cluster = 1
USER  
USER    RMSD from reference structure       = 16.277 A
USER  
USER    Estimated Free Energy of Binding    =   -9.08 kcal/mol  [=(1)+(2)+(3)-(4)]
USER    Estimated Inhibition Constant, Ki   =  219.18 nM (nanomolar)  [Temperature = 298.15 K]
USER    
USER    (1) Final Intermolecular Energy     =  -10.87 kcal/mol
USER        vdW + Hbond + desolv Energy     =   -3.97 kcal/mol
USER        Electrostatic Energy            =   -6.91 kcal/mol
USER    (2) Final Total Internal Energy     =   +2.51 kcal/mol
USER    (3) Torsional Free Energy           =   +1.79 kcal/mol
USER    (4) Unbound System's Energy  [=(2)] =   +2.51 kcal/mol
USER    
USER    
USER  
USER    DPF = D:/Protein_go_brrr/autodock/final/mut_N102T/2_3_BPG/dock.dpf
USER    NEWDPF move	2_3_BPG_opt.pdbqt
USER    NEWDPF about	0.015000 0.083000 0.031000
USER    NEWDPF tran0	-6.466907 -16.846337 -5.666002
USER    NEWDPF axisangle0	0.085640 -0.802691 0.590214 -107.997768
USER    NEWDPF quaternion0	0.069283 -0.649381 0.477487 -0.587801
USER    NEWDPF dihe0	-21.93 -82.66 178.02 75.21 45.02 176.06 
USER  
USER                              x       y       z    vdW   Elec        q     RMS 
ATOM      1  C   UNL d   1      -6.153 -17.355  -5.970 -0.10 +0.27    +0.193    16.277
ATOM      2  O   UNL d   1      -5.910 -16.972  -7.366 -0.14 -0.72    -0.356    16.277
ATOM      3  P   UNL d   1      -7.108 -16.527  -8.402 -0.22 -0.02    -0.014    16.277
ATOM      4  O   UNL d   1      -7.163 -14.996  -8.288 -0.61 -0.72    -0.577    16.277
ATOM      5  O   UNL d   1      -8.399 -17.175  -7.905 +0.02 -0.31    -0.577    16.277
ATOM      6  O   UNL d   1      -6.706 -16.970  -9.805 -0.58 -0.53    -0.638    16.277
ATOM      7  C   UNL d   1      -6.619 -16.082  -5.172 -0.10 +0.27    +0.201    16.277
ATOM      8  O   UNL d   1      -6.204 -14.809  -5.716 +0.07 -0.71    -0.364    16.277
ATOM      9  P   UNL d   1      -5.524 -13.667  -4.731 -0.30 -0.02    -0.015    16.277
ATOM     10  O   UNL d   1      -5.492 -14.309  -3.339 -0.03 -0.66    -0.577    16.277
ATOM     11  O   UNL d   1      -6.435 -12.441  -4.774 -0.47 -0.52    -0.577    16.277
ATOM     12  O   UNL d   1      -4.120 -13.389  -5.267 -0.46 -1.33    -0.638    16.277
ATOM     13  C   UNL d   1      -4.826 -17.900  -5.322 -0.17 +0.12    +0.073    16.277
ATOM     14  O   UNL d   1      -3.708 -17.418  -5.720 -0.65 -1.05    -0.547    16.277
ATOM     15  O   UNL d   1      -4.951 -18.760  -4.376 -0.22 -0.99    -0.547    16.277
TER
ENDMDL
MODEL       78
USER    Run = 78
USER    Cluster Rank = 4
USER    Number of conformations in this cluster = 2
USER  
USER    RMSD from reference structure       = 14.908 A
USER  
USER    Estimated Free Energy of Binding    =   -8.76 kcal/mol  [=(1)+(2)+(3)-(4)]
USER    Estimated Inhibition Constant, Ki   =  381.55 nM (nanomolar)  [Temperature = 298.15 K]
USER    
USER    (1) Final Intermolecular Energy     =  -10.55 kcal/mol
USER        vdW + Hbond + desolv Energy     =   -3.87 kcal/mol
USER        Electrostatic Energy            =   -6.68 kcal/mol
USER    (2) Final Total Internal Energy     =   +2.24 kcal/mol
USER    (3) Torsional Free Energy           =   +1.79 kcal/mol
USER    (4) Unbound System's Energy  [=(2)] =   +2.24 kcal/mol
USER    
USER    
USER  
USER    DPF = D:/Protein_go_brrr/autodock/final/mut_N102T/2_3_BPG/dock.dpf
USER    NEWDPF move	2_3_BPG_opt.pdbqt
USER    NEWDPF about	0.015000 0.083000 0.031000
USER    NEWDPF tran0	-5.478669 -14.617832 -3.959087
USER    NEWDPF axisangle0	0.618767 -0.487041 -0.616376 178.914871
USER    NEWDPF quaternion0	0.618739 -0.487019 -0.616348 0.009469
USER    NEWDPF dihe0	142.67 121.17 -38.01 77.93 -4.49 112.28 
USER  
USER                              x       y       z    vdW   Elec        q     RMS 
ATOM      1  C   UNL d   1      -5.220 -14.051  -3.713 -0.24 +0.23    +0.193    14.908
ATOM      2  O   UNL d   1      -4.980 -14.243  -2.278 -0.17 -0.38    -0.356    14.908
ATOM      3  P   UNL d   1      -6.144 -14.735  -1.226 -0.35 -0.01    -0.014    14.908
ATOM      4  O   UNL d   1      -7.194 -13.613  -1.265 -0.04 -0.27    -0.577    14.908
ATOM      5  O   UNL d   1      -5.492 -14.846   0.151 -0.13 -0.37    -0.577    14.908
ATOM      6  O   UNL d   1      -6.714 -16.053  -1.737 -0.39 -1.02    -0.638    14.908
ATOM      7  C   UNL d   1      -5.548 -15.446  -4.361 -0.10 +0.33    +0.201    14.908
ATOM      8  O   UNL d   1      -4.412 -16.210  -4.822 -0.24 -0.81    -0.364    14.908
ATOM      9  P   UNL d   1      -4.634 -17.707  -5.489 -0.13 -0.03    -0.015    14.908
ATOM     10  O   UNL d   1      -3.578 -17.812  -6.596 -0.58 -0.98    -0.577    14.908
ATOM     11  O   UNL d   1      -6.055 -17.739  -6.050 -0.04 -0.74    -0.577    14.908
ATOM     12  O   UNL d   1      -4.406 -18.733  -4.380 -0.22 -1.19    -0.638    14.908
ATOM     13  C   UNL d   1      -3.931 -13.465  -4.402 -0.43 +0.10    +0.073    14.908
ATOM     14  O   UNL d   1      -4.045 -12.939  -5.564 -0.63 -1.05    -0.547    14.908
ATOM     15  O   UNL d   1      -2.843 -13.494  -3.722 -0.17 -0.50    -0.547    14.908
TER
ENDMDL


AVSFLD: # AVS field file
AVSFLD: #
AVSFLD: # Created by AutoDock
AVSFLD: #
AVSFLD: ndim=2           # number of dimensions in the field
AVSFLD: nspace=1         # number of physical coordinates
AVSFLD: veclen=7         # vector size
AVSFLD: dim1=15          # atoms
AVSFLD: dim2=4           # conformations
AVSFLD: data=Real       # data type (byte,integer,Real,double)
AVSFLD: field=uniform    # field coordinate layout
AVSFLD: label= x y z vdW Elec q RMS
AVSFLD: variable 1 file = D:/Protein_go_brrr/autodock/final/mut_N102T/2_3_BPG/dock.dlg.pdb filetype = ascii offset = 5 stride = 12
AVSFLD: variable 2 file = D:/Protein_go_brrr/autodock/final/mut_N102T/2_3_BPG/dock.dlg.pdb filetype = ascii offset = 6 stride = 12
AVSFLD: variable 3 file = D:/Protein_go_brrr/autodock/final/mut_N102T/2_3_BPG/dock.dlg.pdb filetype = ascii offset = 7 stride = 12
AVSFLD: variable 4 file = D:/Protein_go_brrr/autodock/final/mut_N102T/2_3_BPG/dock.dlg.pdb filetype = ascii offset = 8 stride = 12
AVSFLD: variable 5 file = D:/Protein_go_brrr/autodock/final/mut_N102T/2_3_BPG/dock.dlg.pdb filetype = ascii offset = 9 stride = 12
AVSFLD: variable 6 file = D:/Protein_go_brrr/autodock/final/mut_N102T/2_3_BPG/dock.dlg.pdb filetype = ascii offset = 10 stride = 12
AVSFLD: variable 7 file = D:/Protein_go_brrr/autodock/final/mut_N102T/2_3_BPG/dock.dlg.pdb filetype = ascii offset = 11 stride = 12
AVSFLD: # end of file

>>> Closing the docking parameter file (DPF)...
This docking finished at:			11:19 29" p.m., 10/04/2025


________________________________________________________________________________

D:/autodockScripts/autodock4.exe: Successful Completion on "ACER"

Real= 4h 53m 42.73s,  CPU= 4m 58.63s,  System= 30.84s
________________________________________________________________________________

