          AutoDock 4.2 Release 4.2.6   
         (C) 1989-2012 The Scripps Research Institute
        AutoDock comes with ABSOLUTELY NO WARRANTY.
        AutoDock is free software, and you are welcome
        to redistribute it under certain conditions;
        for details type 'autodock4 -C'

                     main.cc  $Revision: 1.213 $

                   Compiled on Jul 18 2014 at 15:34:58


This file was created at:			2:35 19" a.m., 10/05/2025
                   on host:		"ACER"
Current Working Directory = "D:\Protein_go_brrr\autodock\final\mut_N102T\IHP"

      ________________________________________________________________

                   SETTING UP DEFAULT PARAMETER LIBRARY
      ________________________________________________________________


Random number generator was seeded with values 163196, 1759624519.
Docking parameter file (DPF) used for this docking:		D:/Protein_go_brrr/autodock/final/mut_N102T/IHP/dock.dpf
DPF> autodock_parameter_version 4.2       # used by autodock to validate parameter set

	Autodock parameter version 4.2.
DPF> outlev 1                             # diagnostic output level

Output Level = 1  ADT-COMPATIBLE OUTPUT DURING DOCKING.
DPF> intelec                              # calculate internal electrostatics

Electrostatic energies will be calculated for all non-bonds between moving atoms.
DPF> seed pid time                        # seeds for random generator

Random number generator was seeded with values 163196, 1759624519.
DPF> ligand_types P C HD OA               # atoms types in ligand

DPF> fld mut_N102T_m0.maps.fld            # grid_data_file

Opening Grid Map Dimensions file:		mut_N102T_m0.maps.fld
Grid Point Spacing =				0.447 Angstroms

Even Number of User-specified Grid Points =	126 x-points
						126 y-points
						126 z-points

Coordinates of Central Grid Point of Maps =	(1.333, -0.428, -0.352)
Macromolecule file used to create Grid Maps =	mut_N102T_m0.pdbqt
Grid Parameter file used to create Grid Maps =	D:/Protein_go_brrr/autodock/final/mut_N102T/IHP/grid.gpf
Minimum coordinates in grid = (-26.828, -28.589, -28.513)
Maximum coordinates in grid = (29.494, 27.733, 27.809)

DPF> map mut_N102T_m0.P.map               # atom-specific affinity map

DPF> map mut_N102T_m0.C.map               # atom-specific affinity map

DPF> map mut_N102T_m0.HD.map              # atom-specific affinity map

DPF> map mut_N102T_m0.OA.map              # atom-specific affinity map

DPF> elecmap mut_N102T_m0.e.map           # electrostatics map

DPF> desolvmap mut_N102T_m0.d.map         # desolvation map

DPF> move IHP_ideal_opt.pdbqt             # small molecule

1,4-interactions will be _ignored_ in the non-bonded internal energy calculation.

Ligand PDBQT file = "IHP_ideal_opt.pdbqt"

INPUT LIGAND PDBQT FILE:
________________________

INPUT-LIGAND-PDBQT: REMARK  24 active torsions:
INPUT-LIGAND-PDBQT: REMARK  status: ('A' for Active; 'I' for Inactive)
INPUT-LIGAND-PDBQT: REMARK    1  A    between atoms: C_1  and  O_7 
INPUT-LIGAND-PDBQT: REMARK    2  A    between atoms: C_2  and  O_12 
INPUT-LIGAND-PDBQT: REMARK    3  A    between atoms: C_3  and  O_17 
INPUT-LIGAND-PDBQT: REMARK    4  A    between atoms: C_4  and  O_22 
INPUT-LIGAND-PDBQT: REMARK    5  A    between atoms: C_5  and  O_27 
INPUT-LIGAND-PDBQT: REMARK    6  A    between atoms: C_6  and  O_32 
INPUT-LIGAND-PDBQT: REMARK    7  A    between atoms: O_7  and  P_8 
INPUT-LIGAND-PDBQT: REMARK    8  A    between atoms: P_8  and  O_10 
INPUT-LIGAND-PDBQT: REMARK    9  A    between atoms: P_8  and  O_11 
INPUT-LIGAND-PDBQT: REMARK   10  A    between atoms: O_12  and  P_13 
INPUT-LIGAND-PDBQT: REMARK   11  A    between atoms: P_13  and  O_15 
INPUT-LIGAND-PDBQT: REMARK   12  A    between atoms: P_13  and  O_16 
INPUT-LIGAND-PDBQT: REMARK   13  A    between atoms: O_17  and  P_18 
INPUT-LIGAND-PDBQT: REMARK   14  A    between atoms: P_18  and  O_20 
INPUT-LIGAND-PDBQT: REMARK   15  A    between atoms: P_18  and  O_21 
INPUT-LIGAND-PDBQT: REMARK   16  A    between atoms: O_22  and  P_23 
INPUT-LIGAND-PDBQT: REMARK   17  A    between atoms: P_23  and  O_25 
INPUT-LIGAND-PDBQT: REMARK   18  A    between atoms: P_23  and  O_26 
INPUT-LIGAND-PDBQT: REMARK   19  A    between atoms: O_27  and  P_28 
INPUT-LIGAND-PDBQT: REMARK   20  A    between atoms: P_28  and  O_30 
INPUT-LIGAND-PDBQT: REMARK   21  A    between atoms: P_28  and  O_31 
INPUT-LIGAND-PDBQT: REMARK   22  A    between atoms: O_32  and  P_33 
INPUT-LIGAND-PDBQT: REMARK   23  A    between atoms: P_33  and  O_35 
INPUT-LIGAND-PDBQT: REMARK   24  A    between atoms: P_33  and  O_36 
INPUT-LIGAND-PDBQT: ROOT
INPUT-LIGAND-PDBQT: ATOM      1  C   UNL d   1       1.288  -0.806   0.726  0.00  0.00     0.194 C 
INPUT-LIGAND-PDBQT: ATOM      2  C   UNL d   1       0.040  -1.610   0.357  0.00  0.00     0.194 C 
INPUT-LIGAND-PDBQT: ATOM      3  C   UNL d   1      -1.244  -0.840   0.673  0.00  0.00     0.194 C 
INPUT-LIGAND-PDBQT: ATOM      4  C   UNL d   1      -1.265   0.565   0.076  0.00  0.00     0.194 C 
INPUT-LIGAND-PDBQT: ATOM      5  C   UNL d   1       0.009   1.363   0.322  0.00  0.00     0.194 C 
INPUT-LIGAND-PDBQT: ATOM      6  C   UNL d   1       1.294   0.573   0.065  0.00  0.00     0.194 C 
INPUT-LIGAND-PDBQT: ENDROOT
INPUT-LIGAND-PDBQT: BRANCH   1   7
INPUT-LIGAND-PDBQT: ATOM      7  O   UNL d   1       2.433  -1.514   0.245  0.00  0.00    -0.278 OA
INPUT-LIGAND-PDBQT: BRANCH   7   8
INPUT-LIGAND-PDBQT: ATOM      8  P   UNL d   1       3.563  -1.932   1.294  0.00  0.00     0.473 P 
INPUT-LIGAND-PDBQT: ATOM      9  O   UNL d   1       3.071  -2.662   2.494  0.00  0.00    -0.228 OA
INPUT-LIGAND-PDBQT: BRANCH   8  10
INPUT-LIGAND-PDBQT: ATOM     10  O   UNL d   1       4.602  -2.777   0.427  0.00  0.00    -0.303 OA
INPUT-LIGAND-PDBQT: ATOM     11  H   UNL d   1       5.122  -3.357   1.014  0.00  0.00     0.222 HD
INPUT-LIGAND-PDBQT: ENDBRANCH   8  10
INPUT-LIGAND-PDBQT: BRANCH   8  12
INPUT-LIGAND-PDBQT: ATOM     12  O   UNL d   1       4.376  -0.597   1.579  0.00  0.00    -0.303 OA
INPUT-LIGAND-PDBQT: ATOM     13  H   UNL d   1       4.592  -0.095   0.761  0.00  0.00     0.222 HD
INPUT-LIGAND-PDBQT: ENDBRANCH   8  12
INPUT-LIGAND-PDBQT: ENDBRANCH   7   8
INPUT-LIGAND-PDBQT: ENDBRANCH   1   7
INPUT-LIGAND-PDBQT: BRANCH   2  14
INPUT-LIGAND-PDBQT: ATOM     14  O   UNL d   1       0.067  -1.896  -1.047  0.00  0.00    -0.278 OA
INPUT-LIGAND-PDBQT: BRANCH  14  15
INPUT-LIGAND-PDBQT: ATOM     15  P   UNL d   1      -0.217  -3.413  -1.474  0.00  0.00     0.473 P 
INPUT-LIGAND-PDBQT: ATOM     16  O   UNL d   1      -1.497  -4.019  -0.990  0.00  0.00    -0.228 OA
INPUT-LIGAND-PDBQT: BRANCH  15  17
INPUT-LIGAND-PDBQT: ATOM     17  O   UNL d   1      -0.104  -3.396  -3.063  0.00  0.00    -0.303 OA
INPUT-LIGAND-PDBQT: ATOM     18  H   UNL d   1      -0.983  -3.299  -3.477  0.00  0.00     0.222 HD
INPUT-LIGAND-PDBQT: ENDBRANCH  15  17
INPUT-LIGAND-PDBQT: BRANCH  15  19
INPUT-LIGAND-PDBQT: ATOM     19  O   UNL d   1       1.108  -4.194  -1.068  0.00  0.00    -0.303 OA
INPUT-LIGAND-PDBQT: ATOM     20  H   UNL d   1       1.891  -3.839  -1.528  0.00  0.00     0.222 HD
INPUT-LIGAND-PDBQT: ENDBRANCH  15  19
INPUT-LIGAND-PDBQT: ENDBRANCH  14  15
INPUT-LIGAND-PDBQT: ENDBRANCH   2  14
INPUT-LIGAND-PDBQT: BRANCH   6  21
INPUT-LIGAND-PDBQT: ATOM     21  O   UNL d   1       2.359   1.315   0.655  0.00  0.00    -0.278 OA
INPUT-LIGAND-PDBQT: BRANCH  21  22
INPUT-LIGAND-PDBQT: ATOM     22  P   UNL d   1       3.322   2.189  -0.269  0.00  0.00     0.473 P 
INPUT-LIGAND-PDBQT: ATOM     23  O   UNL d   1       2.760   2.769  -1.523  0.00  0.00    -0.228 OA
INPUT-LIGAND-PDBQT: BRANCH  22  24
INPUT-LIGAND-PDBQT: ATOM     24  O   UNL d   1       3.885   3.258   0.767  0.00  0.00    -0.303 OA
INPUT-LIGAND-PDBQT: ATOM     25  H   UNL d   1       3.131   3.831   1.059  0.00  0.00     0.222 HD
INPUT-LIGAND-PDBQT: ENDBRANCH  22  24
INPUT-LIGAND-PDBQT: BRANCH  22  26
INPUT-LIGAND-PDBQT: ATOM     26  O   UNL d   1       4.578   1.209  -0.449  0.00  0.00    -0.303 OA
INPUT-LIGAND-PDBQT: ATOM     27  H   UNL d   1       5.288   1.681  -0.930  0.00  0.00     0.222 HD
INPUT-LIGAND-PDBQT: ENDBRANCH  22  26
INPUT-LIGAND-PDBQT: ENDBRANCH  21  22
INPUT-LIGAND-PDBQT: ENDBRANCH   6  21
INPUT-LIGAND-PDBQT: BRANCH   3  28
INPUT-LIGAND-PDBQT: ATOM     28  O   UNL d   1      -2.321  -1.530   0.052  0.00  0.00    -0.278 OA
INPUT-LIGAND-PDBQT: BRANCH  28  29
INPUT-LIGAND-PDBQT: ATOM     29  P   UNL d   1      -3.402  -2.296   0.936  0.00  0.00     0.473 P 
INPUT-LIGAND-PDBQT: ATOM     30  O   UNL d   1      -2.932  -2.753   2.269  0.00  0.00    -0.228 OA
INPUT-LIGAND-PDBQT: BRANCH  29  31
INPUT-LIGAND-PDBQT: ATOM     31  O   UNL d   1      -4.591  -1.225   0.913  0.00  0.00    -0.303 OA
INPUT-LIGAND-PDBQT: ATOM     32  H   UNL d   1      -4.772  -0.977  -0.023  0.00  0.00     0.222 HD
INPUT-LIGAND-PDBQT: ENDBRANCH  29  31
INPUT-LIGAND-PDBQT: BRANCH  29  33
INPUT-LIGAND-PDBQT: ATOM     33  O   UNL d   1      -3.920  -3.418  -0.068  0.00  0.00    -0.303 OA
INPUT-LIGAND-PDBQT: ATOM     34  H   UNL d   1      -3.155  -3.980  -0.344  0.00  0.00     0.222 HD
INPUT-LIGAND-PDBQT: ENDBRANCH  29  33
INPUT-LIGAND-PDBQT: ENDBRANCH  28  29
INPUT-LIGAND-PDBQT: ENDBRANCH   3  28
INPUT-LIGAND-PDBQT: BRANCH   5  35
INPUT-LIGAND-PDBQT: ATOM     35  O   UNL d   1      -0.019   2.436  -0.617  0.00  0.00    -0.278 OA
INPUT-LIGAND-PDBQT: BRANCH  35  36
INPUT-LIGAND-PDBQT: ATOM     36  P   UNL d   1       0.242   3.934  -0.135  0.00  0.00     0.473 P 
INPUT-LIGAND-PDBQT: ATOM     37  O   UNL d   1       1.386   4.117   0.811  0.00  0.00    -0.228 OA
INPUT-LIGAND-PDBQT: BRANCH  36  38
INPUT-LIGAND-PDBQT: ATOM     38  O   UNL d   1       0.411   4.698  -1.522  0.00  0.00    -0.303 OA
INPUT-LIGAND-PDBQT: ATOM     39  H   UNL d   1       1.257   4.425  -1.938  0.00  0.00     0.222 HD
INPUT-LIGAND-PDBQT: ENDBRANCH  36  38
INPUT-LIGAND-PDBQT: BRANCH  36  40
INPUT-LIGAND-PDBQT: ATOM     40  O   UNL d   1      -1.196   4.382   0.376  0.00  0.00    -0.303 OA
INPUT-LIGAND-PDBQT: ATOM     41  H   UNL d   1      -1.909   4.073  -0.226  0.00  0.00     0.222 HD
INPUT-LIGAND-PDBQT: ENDBRANCH  36  40
INPUT-LIGAND-PDBQT: ENDBRANCH  35  36
INPUT-LIGAND-PDBQT: ENDBRANCH   5  35
INPUT-LIGAND-PDBQT: BRANCH   4  42
INPUT-LIGAND-PDBQT: ATOM     42  O   UNL d   1      -2.334   1.271   0.715  0.00  0.00    -0.278 OA
INPUT-LIGAND-PDBQT: BRANCH  42  43
INPUT-LIGAND-PDBQT: ATOM     43  P   UNL d   1      -3.625   1.654  -0.140  0.00  0.00     0.473 P 
INPUT-LIGAND-PDBQT: ATOM     44  O   UNL d   1      -4.208   0.598  -1.014  0.00  0.00    -0.228 OA
INPUT-LIGAND-PDBQT: BRANCH  43  45
INPUT-LIGAND-PDBQT: ATOM     45  O   UNL d   1      -4.625   2.208   0.967  0.00  0.00    -0.303 OA
INPUT-LIGAND-PDBQT: ATOM     46  H   UNL d   1      -4.983   1.485   1.520  0.00  0.00     0.222 HD
INPUT-LIGAND-PDBQT: ENDBRANCH  43  45
INPUT-LIGAND-PDBQT: BRANCH  43  47
INPUT-LIGAND-PDBQT: ATOM     47  O   UNL d   1      -3.184   3.003  -0.885  0.00  0.00    -0.303 OA
INPUT-LIGAND-PDBQT: ATOM     48  H   UNL d   1      -3.918   3.311  -1.456  0.00  0.00     0.222 HD
INPUT-LIGAND-PDBQT: ENDBRANCH  43  47
INPUT-LIGAND-PDBQT: ENDBRANCH  42  43
INPUT-LIGAND-PDBQT: ENDBRANCH   4  42
INPUT-LIGAND-PDBQT: TORSDOF 24
________________________________________________________________________________

Total charge on ligand                               =	-0.006 e
REMARK  24 active torsions:
REMARK  status: ('A' for Active; 'I' for Inactive)
REMARK    1  A    between atoms: C_1  and  O_7 
REMARK    2  A    between atoms: C_2  and  O_12 
REMARK    3  A    between atoms: C_3  and  O_17 
REMARK    4  A    between atoms: C_4  and  O_22 
REMARK    5  A    between atoms: C_5  and  O_27 
REMARK    6  A    between atoms: C_6  and  O_32 
REMARK    7  A    between atoms: O_7  and  P_8 
REMARK    8  A    between atoms: P_8  and  O_10 
REMARK    9  A    between atoms: P_8  and  O_11 
REMARK   10  A    between atoms: O_12  and  P_13 
REMARK   11  A    between atoms: P_13  and  O_15 
REMARK   12  A    between atoms: P_13  and  O_16 
REMARK   13  A    between atoms: O_17  and  P_18 
REMARK   14  A    between atoms: P_18  and  O_20 
REMARK   15  A    between atoms: P_18  and  O_21 
REMARK   16  A    between atoms: O_22  and  P_23 
REMARK   17  A    between atoms: P_23  and  O_25 
REMARK   18  A    between atoms: P_23  and  O_26 
REMARK   19  A    between atoms: O_27  and  P_28 
REMARK   20  A    between atoms: P_28  and  O_30 
REMARK   21  A    between atoms: P_28  and  O_31 
REMARK   22  A    between atoms: O_32  and  P_33 
REMARK   23  A    between atoms: P_33  and  O_35 
REMARK   24  A    between atoms: P_33  and  O_36 


Number of Rotatable Bonds in Small Molecule =	24 torsions
Number of atoms in ligand:  48

Number of non-hydrogen atoms in ligand:  36

Number of vibrational degrees of freedom of ligand:  138


Number of torsional degrees of freedom = 24
Estimated loss of torsional free energy upon binding = +7.1592 kcal/mol


DPF> about 0.035 0.082 -0.065            # small molecule center

Small molecule center of rotation =	(+0.035, +0.082, -0.065)

DPF> tran0 random                         # initial coordinates/A or random

Initial translation =			(-0.976, -4.986, -10.429) Angstroms
DPF> quaternion0 random                   # initial orientation

Each run will begin with a new, random initial orientation.
Initial quaternion,  (x,y,z,w) =	( -0.256, -0.070, -0.912, -0.314 ),
DPF> dihe0 random                         # initial dihedrals (relative) or random

DPF> torsdof 24                            # torsional degrees of freedom

Number of torsional degrees of freedom = 24
Free energy coefficient for torsional degrees of freedom = 0.2983, the factory default value.

Estimated loss of torsional free energy upon binding = +7.1592 kcal/mol

DPF> rmstol 2.0                           # cluster_tolerance/A

Maximum RMS tolerance for conformational cluster analysis = 2.00 Angstroms
DPF> extnrg 1000.0                        # external grid energy

External grid energy (beyond grid map walls) = 1000.00

DPF> e0max 0.0 10000                      # max initial energy; max number of retries

Using user-specified maximum number of retries for simanneal initialization, 10000 retries.
If the simanneal initial energy is greater than e0max, 0.000,
then a new, random initial state will be created.

DPF> ga_pop_size 150                      # number of individuals in population

A population of 150 individuals will be used
DPF> ga_num_evals 25000000                # maximum number of energy evaluations

There will be at most 25000000 function evaluations used.
DPF> ga_num_generations 27000             # maximum number of generations

The GA will run for at most 27000 generations.
DPF> ga_elitism 1                         # number of top individuals to survive to next generation

The 1 best will be preserved each GA generation.
DPF> ga_mutation_rate 0.02                # rate of gene mutation

The mutation rate is 0.020000.
DPF> ga_crossover_rate 0.8                # rate of crossover

The crossover rate is 0.800000.
DPF> ga_window_size 10                    # 

The GA's selection window is 10 generations.
DPF> ga_cauchy_alpha 0.0                  # Alpha parameter of Cauchy distribution

The alpha parameter (for the Cauchy distribution) is being set to 0.000000.
DPF> ga_cauchy_beta 1.0                   # Beta parameter Cauchy distribution

The beta parameter (for the Cauchy distribution) is being set to 1.000000.
DPF> set_ga                               # set the above parameters for GA or LGA

DPF> sw_max_its 300                       # iterations of Solis & Wets local search

Solis & Wets algorithms will perform at most 300 iterations.
DPF> sw_max_succ 4                        # consecutive successes before changing rho

Solis & Wets algorithms expand rho every 4 in a row successes.
DPF> sw_max_fail 4                        # consecutive failures before changing rho

Solis & Wets algorithms contract rho every 4 in a row failures.
DPF> sw_rho 1.0                           # size of local search space to sample

rho is set to 1.000000.
DPF> sw_lb_rho 0.01                       # lower bound on rho

rho will never get smaller than 0.010000.
DPF> ls_search_freq 0.06                  # probability of performing local search on individual

Local search will be performed with frequency 0.060000.
DPF> set_psw1                             # set the above pseudo-Solis & Wets parameters

Creating a new Local Search object using the pseudo-Solis-Wets algorithm (pSW1) with the current settings.

DPF> unbound_model bound                  # state of unbound ligand

DPF> ga_run 100                           # do this many hybrid GA-LS runs

centering ligand on specified point: 0.035 0.082 -0.065
Furthest true ligand atom from "about" center is 6.234 Angstroms (maxrad).
Number of requested GA dockings = 100 runs
Unbound model to be used is 'same as bound' [AutoDock 4.2 default].

	BEGINNING GENETIC ALGORITHM DOCKING 1 of 100
Run: 1 Seed: 1703805815 1172128085 [ Run 1 of 100 GA/GALS ]
Beginning LAMARCKIAN GENETIC ALGORITHM (LGA), with a maximum of 25000000 energy evaluatiFinal-VaFinal-Value: -17.754


	FINAL GENETIC ALGORITHM DOCKED STATE
	_______________________________________________


Detailed state:  trans 9.872 12.305 -11.913 quatxyzw 0.555601 0.021582 -0.783564 0.277253 center 0.035 0.082 -0.065 ntor 24 -178.2706 -31.6611 111.7688 105.1258 148.5160 99.5433 -122.3553 60.0727 -18.6995 54.7305 143.5439 153.6182 -119.9342 98.0178 180.0000 -9.2608 156.4712 18.9627 38.5813 -7.5604 17.9685 68.6590 -180.0000 176.9674
State:	  9.872  12.305 -11.913   0.578  0.022 -0.816 147.807   -178.27  -31.66  111.77  105.13  148.52   99.54 -122.36   60.07  -18.70   54.73  143.54  153.62 -119.93   98.02  180.00   -9.26  156.47   18.96   38.58   -7.56   17.97   68.66 -180.00  176.97

DOCKED: MODEL        1
DOCKED: USER    Run = 1
DOCKED: USER    DPF = D:/Protein_go_brrr/autodock/final/mut_N102T/IHP/dock.dpf
DOCKED: USER  
DOCKED: USER    Estimated Free Energy of Binding    =   +1.39 kcal/mol  [=(1)+(2)+(3)-(4)]
DOCKED: USER    
DOCKED: USER    (1) Final Intermolecular Energy     =   -5.77 kcal/mol
DOCKED: USER        vdW + Hbond + desolv Energy     =   -5.39 kcal/mol
DOCKED: USER        Electrostatic Energy            =   -0.39 kcal/mol
DOCKED: USER    (2) Final Total Internal Energy     =  -11.98 kcal/mol
DOCKED: USER    (3) Torsional Free Energy           =   +7.16 kcal/mol
DOCKED: USER    (4) Unbound System's Energy  [=(2)] =  -11.98 kcal/mol
DOCKED: USER    
DOCKED: USER    
DOCKED: USER    NEWDPF move IHP_ideal_opt.pdbqt
DOCKED: USER    NEWDPF about 0.035000 0.082000 -0.065000
DOCKED: USER    NEWDPF tran0 9.871659 12.304700 -11.913141
DOCKED: USER    NEWDPF quaternion0 0.555601 0.021582 -0.783564 0.277253
DOCKED: USER    NEWDPF axisangle0 0.578271 0.022463 -0.815536 147.807399
DOCKED: USER    NEWDPF quat0 0.578271 0.022463 -0.815536 147.807399
DOCKED: USER    NEWDPF dihe0 -178.27 -31.66 111.77 105.13 148.52 99.54 -122.36 60.07 -18.70 54.73 143.54 153.62 -119.93 98.02 180.00 -9.26 156.47 18.96 38.58 -7.56 17.97 68.66 -180.00 176.97 
DOCKED: USER  keepresnum = 1 
DOCKED: USER  
DOCKED: REMARK  24 active torsions:
DOCKED: REMARK  status: ('A' for Active; 'I' for Inactive)
DOCKED: REMARK    1  A    between atoms: C_1  and  O_7 
DOCKED: REMARK    2  A    between atoms: C_2  and  O_12 
DOCKED: REMARK    3  A    between atoms: C_3  and  O_17 
DOCKED: REMARK    4  A    between atoms: C_4  and  O_22 
DOCKED: REMARK    5  A    between atoms: C_5  and  O_27 
DOCKED: REMARK    6  A    between atoms: C_6  and  O_32 
DOCKED: REMARK    7  A    between atoms: O_7  and  P_8 
DOCKED: REMARK    8  A    between atoms: P_8  and  O_10 
DOCKED: REMARK    9  A    between atoms: P_8  and  O_11 
DOCKED: REMARK   10  A    between atoms: O_12  and  P_13 
DOCKED: REMARK   11  A    between atoms: P_13  and  O_15 
DOCKED: REMARK   12  A    between atoms: P_13  and  O_16 
DOCKED: REMARK   13  A    between atoms: O_17  and  P_18 
DOCKED: REMARK   14  A    between atoms: P_18  and  O_20 
DOCKED: REMARK   15  A    between atoms: P_18  and  O_21 
DOCKED: REMARK   16  A    between atoms: O_22  and  P_23 
DOCKED: REMARK   17  A    between atoms: P_23  and  O_25 
DOCKED: REMARK   18  A    between atoms: P_23  and  O_26 
DOCKED: REMARK   19  A    between atoms: O_27  and  P_28 
DOCKED: REMARK   20  A    between atoms: P_28  and  O_30 
DOCKED: REMARK   21  A    between atoms: P_28  and  O_31 
DOCKED: REMARK   22  A    between atoms: O_32  and  P_33 
DOCKED: REMARK   23  A    between atoms: P_33  and  O_35 
DOCKED: REMARK   24  A    between atoms: P_33  and  O_36 
DOCKED: USER                              x       y       z     vdW  Elec       q    Type
DOCKED: USER                           _______ _______ _______ _____ _____    ______ ____
DOCKED: ROOT
DOCKED: ATOM      1  C   UNL d   1       9.251  13.847 -12.384 -0.02 -0.04    +0.194 C 
DOCKED: ATOM      2  C   UNL d   1      10.193  13.853 -11.178 -0.01 -0.05    +0.194 C 
DOCKED: ATOM      3  C   UNL d   1       9.891  12.700 -10.218 -0.06 -0.07    +0.194 C 
DOCKED: ATOM      4  C   UNL d   1       9.846  11.339 -10.908 -0.13 -0.06    +0.194 C 
DOCKED: ATOM      5  C   UNL d   1       9.010  11.316 -12.181 -0.16 -0.05    +0.194 C 
DOCKED: ATOM      6  C   UNL d   1       9.267  12.503 -13.113 -0.06 -0.04    +0.194 C 
DOCKED: ENDROOT
DOCKED: BRANCH   1   7
DOCKED: ATOM      7  O   UNL d   1       9.704  14.838 -13.308 -0.00 +0.05    -0.278 OA
DOCKED: BRANCH   7   8
DOCKED: ATOM      8  P   UNL d   1       9.248  16.352 -13.082 +0.00 -0.07    +0.473 P 
DOCKED: ATOM      9  O   UNL d   1       7.799  16.613 -13.298 -0.00 +0.03    -0.228 OA
DOCKED: BRANCH   8  10
DOCKED: ATOM     10  O   UNL d   1       9.732  16.685 -11.599 +0.00 +0.05    -0.303 OA
DOCKED: ATOM     11  H   UNL d   1      10.469  16.094 -11.355 +0.00 -0.04    +0.222 HD
DOCKED: ENDBRANCH   8  10
DOCKED: BRANCH   8  12
DOCKED: ATOM     12  O   UNL d   1      10.248  17.221 -13.960 -0.00 +0.03    -0.303 OA
DOCKED: ATOM     13  H   UNL d   1      11.135  17.322 -13.548 +0.00 -0.02    +0.222 HD
DOCKED: ENDBRANCH   8  12
DOCKED: ENDBRANCH   7   8
DOCKED: ENDBRANCH   1   7
DOCKED: BRANCH   2  14
DOCKED: ATOM     14  O   UNL d   1      11.543  13.722 -11.639 +0.00 +0.05    -0.278 OA
DOCKED: BRANCH  14  15
DOCKED: ATOM     15  P   UNL d   1      12.568  14.867 -11.188 +0.01 -0.08    +0.473 P 
DOCKED: ATOM     16  O   UNL d   1      14.012  14.483 -11.109 +0.00 +0.03    -0.228 OA
DOCKED: BRANCH  15  17
DOCKED: ATOM     17  O   UNL d   1      12.299  16.054 -12.216 +0.00 +0.04    -0.303 OA
DOCKED: ATOM     18  H   UNL d   1      11.452  15.929 -12.684 +0.00 -0.03    +0.222 HD
DOCKED: ENDBRANCH  15  17
DOCKED: BRANCH  15  19
DOCKED: ATOM     19  O   UNL d   1      11.941  15.455  -9.849 +0.00 +0.07    -0.303 OA
DOCKED: ATOM     20  H   UNL d   1      11.645  14.747  -9.248 +0.02 -0.08    +0.222 HD
DOCKED: ENDBRANCH  15  19
DOCKED: ENDBRANCH  14  15
DOCKED: ENDBRANCH   2  14
DOCKED: BRANCH   6  21
DOCKED: ATOM     21  O   UNL d   1       8.198  12.525 -14.056 -0.06 +0.08    -0.278 OA
DOCKED: BRANCH  21  22
DOCKED: ATOM     22  P   UNL d   1       8.274  11.612 -15.361 -0.11 -0.19    +0.473 P 
DOCKED: ATOM     23  O   UNL d   1       7.593  12.092 -16.598 -0.10 +0.19    -0.228 OA
DOCKED: BRANCH  22  24
DOCKED: ATOM     24  O   UNL d   1       9.843  11.384 -15.508 -0.05 +0.04    -0.303 OA
DOCKED: ATOM     25  H   UNL d   1      10.105  10.644 -14.903 +0.06 -0.02    +0.222 HD
DOCKED: ENDBRANCH  22  24
DOCKED: BRANCH  22  26
DOCKED: ATOM     26  O   UNL d   1       7.786  10.194 -14.795 -0.26 +0.11    -0.303 OA
DOCKED: ATOM     27  H   UNL d   1       8.503   9.796 -14.260 +0.09 -0.04    +0.222 HD
DOCKED: ENDBRANCH  22  26
DOCKED: ENDBRANCH  21  22
DOCKED: ENDBRANCH   6  21
DOCKED: BRANCH   3  28
DOCKED: ATOM     28  O   UNL d   1      10.969  12.619  -9.294 -0.05 +0.12    -0.278 OA
DOCKED: BRANCH  28  29
DOCKED: ATOM     29  P   UNL d   1      10.958  11.523  -8.139 -0.03 -0.33    +0.473 P 
DOCKED: ATOM     30  O   UNL d   1       9.624  11.209  -7.566 -0.31 +0.24    -0.228 OA
DOCKED: BRANCH  29  31
DOCKED: ATOM     31  O   UNL d   1      11.730  10.331  -8.878 -0.18 +0.08    -0.303 OA
DOCKED: ATOM     32  H   UNL d   1      11.142   9.962  -9.577 +0.07 -0.07    +0.222 HD
DOCKED: ENDBRANCH  29  31
DOCKED: BRANCH  29  33
DOCKED: ATOM     33  O   UNL d   1      12.059  12.085  -7.135 -0.68 +0.26    -0.303 OA
DOCKED: ATOM     34  H   UNL d   1      11.634  12.265  -6.261 -0.49 -0.53    +0.222 HD
DOCKED: ENDBRANCH  29  33
DOCKED: ENDBRANCH  28  29
DOCKED: ENDBRANCH   3  28
DOCKED: BRANCH   5  35
DOCKED: ATOM     35  O   UNL d   1       9.405  10.139 -12.882 -0.22 +0.06    -0.278 OA
DOCKED: BRANCH  35  36
DOCKED: ATOM     36  P   UNL d   1      10.950   9.825 -13.121 -0.12 -0.08    +0.473 P 
DOCKED: ATOM     37  O   UNL d   1      11.251   8.879 -14.240 -0.20 +0.01    -0.228 OA
DOCKED: BRANCH  36  38
DOCKED: ATOM     38  O   UNL d   1      11.553  11.285 -13.319 -0.03 +0.04    -0.303 OA
DOCKED: ATOM     39  H   UNL d   1      11.503  11.527 -14.269 +0.03 -0.02    +0.222 HD
DOCKED: ENDBRANCH  36  38
DOCKED: BRANCH  36  40
DOCKED: ATOM     40  O   UNL d   1      11.440   9.402 -11.668 -0.10 +0.11    -0.303 OA
DOCKED: ATOM     41  H   UNL d   1      10.683   9.236 -11.063 -0.47 -0.14    +0.222 HD
DOCKED: ENDBRANCH  36  40
DOCKED: ENDBRANCH  35  36
DOCKED: ENDBRANCH   5  35
DOCKED: BRANCH   4  42
DOCKED: ATOM     42  O   UNL d   1       9.237  10.427  -9.988 -0.23 +0.09    -0.278 OA
DOCKED: BRANCH  42  43
DOCKED: ATOM     43  P   UNL d   1       7.707  10.639  -9.591 -0.27 -0.13    +0.473 P 
DOCKED: ATOM     44  O   UNL d   1       6.690  10.485 -10.669 -0.31 +0.06    -0.228 OA
DOCKED: BRANCH  43  45
DOCKED: ATOM     45  O   UNL d   1       7.520   9.634  -8.372 -0.52 +0.08    -0.303 OA
DOCKED: ATOM     46  H   UNL d   1       7.997   9.944  -7.576 +0.15 -0.09    +0.222 HD
DOCKED: ENDBRANCH  43  45
DOCKED: BRANCH  43  47
DOCKED: ATOM     47  O   UNL d   1       7.715  12.058  -8.845 -0.74 +0.08    -0.303 OA
DOCKED: ATOM     48  H   UNL d   1       8.596  12.207  -8.443 +0.10 -0.13    +0.222 HD
DOCKED: ENDBRANCH  43  47
DOCKED: ENDBRANCH  42  43
DOCKED: ENDBRANCH   4  42
DOCKED: TORSDOF 24
DOCKED: TER
DOCKED: ENDMDL
________________________________________________________________________________


	BEGINNING GENETIC ALGORITHM DOCKING 2 of 100
Run: 2 Seed: 985719927 899968236 [ Run 2 of 100 GA/GALS ]
Beginning LAMARCKIAN GENETIC ALGORITHM (LGA), with a maximum of 25000000 energy evaluations.

Final-Value: -18.229


	FINAL GENETIC ALGORITHM DOCKED STATE
	_______________________________________________


Detailed state:  trans -5.720 -15.543 -18.524 quatxyzw -0.107724 -0.125692 0.984068 -0.064856 center 0.035 0.082 -0.065 ntor 24 -180.0000 -30.7143 108.9232 88.8140 -20.5474 177.5360 -130.4296 -79.2780 166.0739 -11.9496 140.7441 148.2060 -120.2105 96.2178 -130.7755 37.4784 177.2946 -158.7043 41.2013 -6.1154 -56.3945 8.5930 37.7151 12.9345
State:	 -5.720 -15.543 -18.524  -0.108 -0.126  0.986 -172.563   -180.00  -30.71  108.92   88.81  -20.55  177.54 -130.43  -79.28  166.07  -11.95  140.74  148.21 -120.21   96.22 -130.78   37.48  177.29 -158.70   41.20   -6.12  -56.39    8.59   37.72   12.93

DOCKED: MODEL        2
DOCKED: USER    Run = 2
DOCKED: USER    DPF = D:/Protein_go_brrr/autodock/final/mut_N102T/IHP/dock.dpf
DOCKED: USER  
DOCKED: USER    Estimated Free Energy of Binding    =   +4.36 kcal/mol  [=(1)+(2)+(3)-(4)]
DOCKED: USER    
DOCKED: USER    (1) Final Intermolecular Energy     =   -2.80 kcal/mol
DOCKED: USER        vdW + Hbond + desolv Energy     =   -2.75 kcal/mol
DOCKED: USER        Electrostatic Energy            =   -0.05 kcal/mol
DOCKED: USER    (2) Final Total Internal Energy     =  -15.43 kcal/mol
DOCKED: USER    (3) Torsional Free Energy           =   +7.16 kcal/mol
DOCKED: USER    (4) Unbound System's Energy  [=(2)] =  -15.43 kcal/mol
DOCKED: USER    
DOCKED: USER    
DOCKED: USER    NEWDPF move IHP_ideal_opt.pdbqt
DOCKED: USER    NEWDPF about 0.035000 0.082000 -0.065000
DOCKED: USER    NEWDPF tran0 -5.720316 -15.542985 -18.523995
DOCKED: USER    NEWDPF quaternion0 -0.107724 -0.125692 0.984068 -0.064856
DOCKED: USER    NEWDPF axisangle0 -0.107952 -0.125957 0.986145 -172.562788
DOCKED: USER    NEWDPF quat0 -0.107952 -0.125957 0.986145 -172.562788
DOCKED: USER    NEWDPF dihe0 -180.00 -30.71 108.92 88.81 -20.55 177.54 -130.43 -79.28 166.07 -11.95 140.74 148.21 -120.21 96.22 -130.78 37.48 177.29 -158.70 41.20 -6.12 -56.39 8.59 37.72 12.93 
DOCKED: USER  keepresnum = 1 
DOCKED: USER  
DOCKED: REMARK  24 active torsions:
DOCKED: REMARK  status: ('A' for Active; 'I' for Inactive)
DOCKED: REMARK    1  A    between atoms: C_1  and  O_7 
DOCKED: REMARK    2  A    between atoms: C_2  and  O_12 
DOCKED: REMARK    3  A    between atoms: C_3  and  O_17 
DOCKED: REMARK    4  A    between atoms: C_4  and  O_22 
DOCKED: REMARK    5  A    between atoms: C_5  and  O_27 
DOCKED: REMARK    6  A    between atoms: C_6  and  O_32 
DOCKED: REMARK    7  A    between atoms: O_7  and  P_8 
DOCKED: REMARK    8  A    between atoms: P_8  and  O_10 
DOCKED: REMARK    9  A    between atoms: P_8  and  O_11 
DOCKED: REMARK   10  A    between atoms: O_12  and  P_13 
DOCKED: REMARK   11  A    between atoms: P_13  and  O_15 
DOCKED: REMARK   12  A    between atoms: P_13  and  O_16 
DOCKED: REMARK   13  A    between atoms: O_17  and  P_18 
DOCKED: REMARK   14  A    between atoms: P_18  and  O_20 
DOCKED: REMARK   15  A    between atoms: P_18  and  O_21 
DOCKED: REMARK   16  A    between atoms: O_22  and  P_23 
DOCKED: REMARK   17  A    between atoms: P_23  and  O_25 
DOCKED: REMARK   18  A    between atoms: P_23  and  O_26 
DOCKED: REMARK   19  A    between atoms: O_27  and  P_28 
DOCKED: REMARK   20  A    between atoms: P_28  and  O_30 
DOCKED: REMARK   21  A    between atoms: P_28  and  O_31 
DOCKED: REMARK   22  A    between atoms: O_32  and  P_33 
DOCKED: REMARK   23  A    between atoms: P_33  and  O_35 
DOCKED: REMARK   24  A    between atoms: P_33  and  O_36 
DOCKED: USER                              x       y       z     vdW  Elec       q    Type
DOCKED: USER                           _______ _______ _______ _____ _____    ______ ____
DOCKED: ROOT
DOCKED: ATOM      1  C   UNL d   1      -7.025 -14.681 -17.789 -0.10 +0.01    +0.194 C 
DOCKED: ATOM      2  C   UNL d   1      -5.651 -14.016 -17.684 -0.15 +0.01    +0.194 C 
DOCKED: ATOM      3  C   UNL d   1      -4.558 -15.028 -17.335 -0.12 +0.02    +0.194 C 
DOCKED: ATOM      4  C   UNL d   1      -4.542 -16.241 -18.263 -0.05 +0.01    +0.194 C 
DOCKED: ATOM      5  C   UNL d   1      -5.912 -16.867 -18.488 -0.03 +0.00    +0.194 C 
DOCKED: ATOM      6  C   UNL d   1      -7.019 -15.850 -18.776 -0.02 +0.00    +0.194 C 
DOCKED: ENDROOT
DOCKED: BRANCH   1   7
DOCKED: ATOM      7  O   UNL d   1      -7.953 -13.712 -18.283 -0.03 -0.01    -0.278 OA
DOCKED: BRANCH   7   8
DOCKED: ATOM      8  P   UNL d   1      -8.579 -12.666 -17.251 -0.04 +0.05    +0.473 P 
DOCKED: ATOM      9  O   UNL d   1      -9.514 -13.248 -16.251 -0.06 -0.02    -0.228 OA
DOCKED: BRANCH   8  10
DOCKED: ATOM     10  O   UNL d   1      -7.306 -11.967 -16.589 -0.09 -0.06    -0.303 OA
DOCKED: ATOM     11  H   UNL d   1      -6.536 -12.064 -17.180 +0.08 +0.03    +0.222 HD
DOCKED: ENDBRANCH   8  10
DOCKED: BRANCH   8  12
DOCKED: ATOM     12  O   UNL d   1      -9.167 -11.498 -18.153 -0.01 -0.03    -0.303 OA
DOCKED: ATOM     13  H   UNL d   1      -8.472 -10.900 -18.512 +0.05 +0.02    +0.222 HD
DOCKED: ENDBRANCH   8  12
DOCKED: ENDBRANCH   7   8
DOCKED: ENDBRANCH   1   7
DOCKED: BRANCH   2  14
DOCKED: ATOM     14  O   UNL d   1      -5.328 -13.410 -18.941 -0.07 -0.00    -0.278 OA
DOCKED: BRANCH  14  15
DOCKED: ATOM     15  P   UNL d   1      -4.949 -11.855 -18.910 -0.18 -0.02    +0.473 P 
DOCKED: ATOM     16  O   UNL d   1      -4.022 -11.367 -19.979 -0.20 +0.01    -0.228 OA
DOCKED: BRANCH  15  17
DOCKED: ATOM     17  O   UNL d   1      -6.358 -11.111 -18.927 -0.14 -0.01    -0.303 OA
DOCKED: ATOM     18  H   UNL d   1      -7.087 -11.735 -18.745 +0.07 +0.01    +0.222 HD
DOCKED: ENDBRANCH  15  17
DOCKED: BRANCH  15  19
DOCKED: ATOM     19  O   UNL d   1      -4.469 -11.594 -17.415 -0.28 +0.01    -0.303 OA
DOCKED: ATOM     20  H   UNL d   1      -4.079 -12.394 -17.017 +0.06 +0.01    +0.222 HD
DOCKED: ENDBRANCH  15  19
DOCKED: ENDBRANCH  14  15
DOCKED: ENDBRANCH   2  14
DOCKED: BRANCH   6  21
DOCKED: ATOM     21  O   UNL d   1      -8.259 -16.535 -18.621 -0.01 -0.00    -0.278 OA
DOCKED: BRANCH  21  22
DOCKED: ATOM     22  P   UNL d   1      -9.574 -15.959 -19.316 +0.01 +0.01    +0.473 P 
DOCKED: ATOM     23  O   UNL d   1     -10.537 -15.190 -18.475 -0.00 -0.01    -0.228 OA
DOCKED: BRANCH  22  24
DOCKED: ATOM     24  O   UNL d   1      -8.965 -15.149 -20.543 -0.00 -0.00    -0.303 OA
DOCKED: ATOM     25  H   UNL d   1      -8.743 -14.236 -20.230 +0.01 +0.00    +0.222 HD
DOCKED: ENDBRANCH  22  24
DOCKED: BRANCH  22  26
DOCKED: ATOM     26  O   UNL d   1     -10.159 -17.265 -20.039 +0.00 -0.00    -0.303 OA
DOCKED: ATOM     27  H   UNL d   1      -9.599 -18.036 -19.814 +0.00 +0.00    +0.222 HD
DOCKED: ENDBRANCH  22  26
DOCKED: ENDBRANCH  21  22
DOCKED: ENDBRANCH   6  21
DOCKED: BRANCH   3  28
DOCKED: ATOM     28  O   UNL d   1      -3.303 -14.387 -17.531 -0.21 -0.02    -0.278 OA
DOCKED: BRANCH  28  29
DOCKED: ATOM     29  P   UNL d   1      -2.292 -14.209 -16.313 -0.18 +0.04    +0.473 P 
DOCKED: ATOM     30  O   UNL d   1      -2.628 -14.973 -15.084 -0.47 -0.04    -0.228 OA
DOCKED: BRANCH  29  31
DOCKED: ATOM     31  O   UNL d   1      -0.913 -14.572 -17.040 -0.05 -0.01    -0.303 OA
DOCKED: ATOM     32  H   UNL d   1      -0.846 -15.552 -17.114 +0.05 +0.01    +0.222 HD
DOCKED: ENDBRANCH  29  31
DOCKED: BRANCH  29  33
DOCKED: ATOM     33  O   UNL d   1      -2.211 -12.625 -16.176 -0.33 +0.01    -0.303 OA
DOCKED: ATOM     34  H   UNL d   1      -2.507 -12.213 -17.025 -0.30 -0.08    +0.222 HD
DOCKED: ENDBRANCH  29  33
DOCKED: ENDBRANCH  28  29
DOCKED: ENDBRANCH   3  28
DOCKED: BRANCH   5  35
DOCKED: ATOM     35  O   UNL d   1      -5.779 -17.682 -19.650 -0.00 -0.00    -0.278 OA
DOCKED: BRANCH  35  36
DOCKED: ATOM     36  P   UNL d   1      -6.927 -18.718 -20.043 +0.00 +0.00    +0.473 P 
DOCKED: ATOM     37  O   UNL d   1      -6.454 -20.055 -20.518 +0.00 -0.00    -0.228 OA
DOCKED: BRANCH  36  38
DOCKED: ATOM     38  O   UNL d   1      -7.793 -18.766 -18.708 +0.00 -0.00    -0.303 OA
DOCKED: ATOM     39  H   UNL d   1      -8.548 -18.145 -18.792 +0.01 +0.00    +0.222 HD
DOCKED: ENDBRANCH  36  38
DOCKED: BRANCH  36  40
DOCKED: ATOM     40  O   UNL d   1      -7.820 -17.869 -21.049 +0.00 -0.00    -0.303 OA
DOCKED: ATOM     41  H   UNL d   1      -8.100 -17.013 -20.654 +0.00 +0.00    +0.222 HD
DOCKED: ENDBRANCH  36  40
DOCKED: ENDBRANCH  35  36
DOCKED: ENDBRANCH   5  35
DOCKED: BRANCH   4  42
DOCKED: ATOM     42  O   UNL d   1      -3.724 -17.233 -17.634 -0.04 -0.01    -0.278 OA
DOCKED: BRANCH  42  43
DOCKED: ATOM     43  P   UNL d   1      -2.204 -17.383 -18.093 +0.00 +0.01    +0.473 P 
DOCKED: ATOM     44  O   UNL d   1      -1.819 -18.640 -18.794 -0.00 -0.00    -0.228 OA
DOCKED: BRANCH  43  45
DOCKED: ATOM     45  O   UNL d   1      -1.965 -16.062 -18.948 -0.01 -0.00    -0.303 OA
DOCKED: ATOM     46  H   UNL d   1      -1.988 -15.262 -18.385 +0.05 +0.00    +0.222 HD
DOCKED: ENDBRANCH  43  45
DOCKED: BRANCH  43  47
DOCKED: ATOM     47  O   UNL d   1      -1.383 -17.058 -16.755 -0.02 -0.01    -0.303 OA
DOCKED: ATOM     48  H   UNL d   1      -1.875 -16.394 -16.228 +0.05 +0.01    +0.222 HD
DOCKED: ENDBRANCH  43  47
DOCKED: ENDBRANCH  42  43
DOCKED: ENDBRANCH   4  42
DOCKED: TORSDOF 24
DOCKED: TER
DOCKED: ENDMDL
________________________________________________________________________________


	BEGINNING GENETIC ALGORITHM DOCKING 3 of 100
Run: 3 Seed: 689512901 1518938727 [ Run 3 of 100 GA/GALS ]
Beginning LAMARCKIAN GENETIC ALGORITHM (LGA), with a maximum of 25000000 energy evaluationsFinal-Value: -18.798


	FINAL GENETIC ALGORITHM DOCKED STATE
	_______________________________________________


Detailed state:  trans -11.344 1.885 13.861 quatxyzw -0.766064 -0.365055 -0.493845 -0.189730 center 0.035 0.082 -0.065 ntor 24 85.3941 84.1585 64.9453 39.4729 79.9173 -147.4326 -105.2609 -7.2779 26.4881 118.1201 149.7658 106.7199 150.4209 140.1586 114.8832 169.0855 -67.8523 -154.7552 -8.0585 -14.8315 -12.9333 13.9684 176.4212 7.8845
State:	-11.344   1.885  13.861  -0.780 -0.372 -0.503 -158.126     85.39   84.16   64.95   39.47   79.92 -147.43 -105.26   -7.28   26.49  118.12  149.77  106.72  150.42  140.16  114.88  169.09  -67.85 -154.76   -8.06  -14.83  -12.93   13.97  176.42    7.88

DOCKED: MODEL        3
DOCKED: USER    Run = 3
DOCKED: USER    DPF = D:/Protein_go_brrr/autodock/final/mut_N102T/IHP/dock.dpf
DOCKED: USER  
DOCKED: USER    Estimated Free Energy of Binding    =   +3.28 kcal/mol  [=(1)+(2)+(3)-(4)]
DOCKED: USER    
DOCKED: USER    (1) Final Intermolecular Energy     =   -3.88 kcal/mol
DOCKED: USER        vdW + Hbond + desolv Energy     =   -3.96 kcal/mol
DOCKED: USER        Electrostatic Energy            =   +0.08 kcal/mol
DOCKED: USER    (2) Final Total Internal Energy     =  -14.92 kcal/mol
DOCKED: USER    (3) Torsional Free Energy           =   +7.16 kcal/mol
DOCKED: USER    (4) Unbound System's Energy  [=(2)] =  -14.92 kcal/mol
DOCKED: USER    
DOCKED: USER    
DOCKED: USER    NEWDPF move IHP_ideal_opt.pdbqt
DOCKED: USER    NEWDPF about 0.035000 0.082000 -0.065000
DOCKED: USER    NEWDPF tran0 -11.343567 1.885228 13.860739
DOCKED: USER    NEWDPF quaternion0 -0.766064 -0.365055 -0.493845 -0.189730
DOCKED: USER    NEWDPF axisangle0 -0.780236 -0.371808 -0.502981 -158.125929
DOCKED: USER    NEWDPF quat0 -0.780236 -0.371808 -0.502981 -158.125929
DOCKED: USER    NEWDPF dihe0 85.39 84.16 64.95 39.47 79.92 -147.43 -105.26 -7.28 26.49 118.12 149.77 106.72 150.42 140.16 114.88 169.09 -67.85 -154.76 -8.06 -14.83 -12.93 13.97 176.42 7.88 
DOCKED: USER  keepresnum = 1 
DOCKED: USER  
DOCKED: REMARK  24 active torsions:
DOCKED: REMARK  status: ('A' for Active; 'I' for Inactive)
DOCKED: REMARK    1  A    between atoms: C_1  and  O_7 
DOCKED: REMARK    2  A    between atoms: C_2  and  O_12 
DOCKED: REMARK    3  A    between atoms: C_3  and  O_17 
DOCKED: REMARK    4  A    between atoms: C_4  and  O_22 
DOCKED: REMARK    5  A    between atoms: C_5  and  O_27 
DOCKED: REMARK    6  A    between atoms: C_6  and  O_32 
DOCKED: REMARK    7  A    between atoms: O_7  and  P_8 
DOCKED: REMARK    8  A    between atoms: P_8  and  O_10 
DOCKED: REMARK    9  A    between atoms: P_8  and  O_11 
DOCKED: REMARK   10  A    between atoms: O_12  and  P_13 
DOCKED: REMARK   11  A    between atoms: P_13  and  O_15 
DOCKED: REMARK   12  A    between atoms: P_13  and  O_16 
DOCKED: REMARK   13  A    between atoms: O_17  and  P_18 
DOCKED: REMARK   14  A    between atoms: P_18  and  O_20 
DOCKED: REMARK   15  A    between atoms: P_18  and  O_21 
DOCKED: REMARK   16  A    between atoms: O_22  and  P_23 
DOCKED: REMARK   17  A    between atoms: P_23  and  O_25 
DOCKED: REMARK   18  A    between atoms: P_23  and  O_26 
DOCKED: REMARK   19  A    between atoms: O_27  and  P_28 
DOCKED: REMARK   20  A    between atoms: P_28  and  O_30 
DOCKED: REMARK   21  A    between atoms: P_28  and  O_31 
DOCKED: REMARK   22  A    between atoms: O_32  and  P_33 
DOCKED: REMARK   23  A    between atoms: P_33  and  O_35 
DOCKED: REMARK   24  A    between atoms: P_33  and  O_36 
DOCKED: USER                              x       y       z     vdW  Elec       q    Type
DOCKED: USER                           _______ _______ _______ _____ _____    ______ ____
DOCKED: ROOT
DOCKED: ATOM      1  C   UNL d   1     -11.210   3.454  14.572 -0.12 +0.02    +0.194 C 
DOCKED: ATOM      2  C   UNL d   1     -12.345   3.281  13.561 -0.10 +0.01    +0.194 C 
DOCKED: ATOM      3  C   UNL d   1     -11.890   2.500  12.327 -0.17 -0.00    +0.194 C 
DOCKED: ATOM      4  C   UNL d   1     -11.215   1.174  12.669 -0.23 +0.00    +0.194 C 
DOCKED: ATOM      5  C   UNL d   1     -10.154   1.280  13.757 -0.22 +0.05    +0.194 C 
DOCKED: ATOM      6  C   UNL d   1     -10.587   2.113  14.965 -0.17 +0.04    +0.194 C 
DOCKED: ENDROOT
DOCKED: BRANCH   1   7
DOCKED: ATOM      7  O   UNL d   1     -11.754   4.035  15.759 -0.04 -0.02    -0.278 OA
DOCKED: BRANCH   7   8
DOCKED: ATOM      8  P   UNL d   1     -11.018   5.305  16.390 -0.02 +0.02    +0.473 P 
DOCKED: ATOM      9  O   UNL d   1     -11.292   5.540  17.833 -0.01 -0.00    -0.228 OA
DOCKED: BRANCH   8  10
DOCKED: ATOM     10  O   UNL d   1      -9.475   5.052  16.076 -0.10 -0.04    -0.303 OA
DOCKED: ATOM     11  H   UNL d   1      -9.138   4.336  16.646 +0.07 +0.03    +0.222 HD
DOCKED: ENDBRANCH   8  10
DOCKED: BRANCH   8  12
DOCKED: ATOM     12  O   UNL d   1     -11.364   6.509  15.413 -0.04 -0.01    -0.303 OA
DOCKED: ATOM     13  H   UNL d   1     -12.289   6.482  15.079 +0.03 +0.00    +0.222 HD
DOCKED: ENDBRANCH   8  12
DOCKED: ENDBRANCH   7   8
DOCKED: ENDBRANCH   1   7
DOCKED: BRANCH   2  14
DOCKED: ATOM     14  O   UNL d   1     -13.420   2.566  14.183 -0.02 -0.00    -0.278 OA
DOCKED: BRANCH  14  15
DOCKED: ATOM     15  P   UNL d   1     -14.808   3.349  14.334 +0.00 -0.01    +0.473 P 
DOCKED: ATOM     16  O   UNL d   1     -15.808   2.768  15.284 -0.00 +0.01    -0.228 OA
DOCKED: BRANCH  15  17
DOCKED: ATOM     17  O   UNL d   1     -14.376   4.833  14.722 -0.00 +0.00    -0.303 OA
DOCKED: ATOM     18  H   UNL d   1     -13.544   4.834  15.233 +0.01 -0.00    +0.222 HD
DOCKED: ENDBRANCH  15  17
DOCKED: BRANCH  15  19
DOCKED: ATOM     19  O   UNL d   1     -15.316   3.546  12.839 -0.00 +0.01    -0.303 OA
DOCKED: ATOM     20  H   UNL d   1     -14.588   3.462  12.197 +0.02 -0.01    +0.222 HD
DOCKED: ENDBRANCH  15  19
DOCKED: ENDBRANCH  14  15
DOCKED: ENDBRANCH   2  14
DOCKED: BRANCH   6  21
DOCKED: ATOM     21  O   UNL d   1      -9.407   2.403  15.710 -0.20 -0.10    -0.278 OA
DOCKED: BRANCH  21  22
DOCKED: ATOM     22  P   UNL d   1      -9.237   1.815  17.184 -0.08 +0.20    +0.473 P 
DOCKED: ATOM     23  O   UNL d   1      -7.870   1.420  17.631 -0.59 -0.17    -0.228 OA
DOCKED: BRANCH  22  24
DOCKED: ATOM     24  O   UNL d   1      -9.927   2.945  18.066 -0.02 -0.04    -0.303 OA
DOCKED: ATOM     25  H   UNL d   1     -10.441   3.539  17.461 +0.04 +0.02    +0.222 HD
DOCKED: ENDBRANCH  22  24
DOCKED: BRANCH  22  26
DOCKED: ATOM     26  O   UNL d   1     -10.345   0.657  17.202 -0.06 -0.12    -0.303 OA
DOCKED: ATOM     27  H   UNL d   1     -10.361   0.213  16.330 +0.04 +0.13    +0.222 HD
DOCKED: ENDBRANCH  22  26
DOCKED: ENDBRANCH  21  22
DOCKED: ENDBRANCH   6  21
DOCKED: BRANCH   3  28
DOCKED: ATOM     28  O   UNL d   1     -13.054   2.151  11.588 -0.06 +0.02    -0.278 OA
DOCKED: BRANCH  28  29
DOCKED: ATOM     29  P   UNL d   1     -13.187   2.564  10.055 -0.07 -0.04    +0.473 P 
DOCKED: ATOM     30  O   UNL d   1     -13.860   1.569   9.180 -0.03 +0.03    -0.228 OA
DOCKED: BRANCH  29  31
DOCKED: ATOM     31  O   UNL d   1     -13.895   3.991  10.210 -0.03 +0.02    -0.303 OA
DOCKED: ATOM     32  H   UNL d   1     -14.704   3.881  10.761 +0.02 -0.01    +0.222 HD
DOCKED: ENDBRANCH  29  31
DOCKED: BRANCH  29  33
DOCKED: ATOM     33  O   UNL d   1     -11.689   2.953   9.682 -0.16 +0.04    -0.303 OA
DOCKED: ATOM     34  H   UNL d   1     -11.089   2.214   9.949 +0.09 -0.05    +0.222 HD
DOCKED: ENDBRANCH  29  33
DOCKED: ENDBRANCH  28  29
DOCKED: ENDBRANCH   3  28
DOCKED: BRANCH   5  35
DOCKED: ATOM     35  O   UNL d   1      -9.940  -0.051  14.220 -0.24 -0.15    -0.278 OA
DOCKED: BRANCH  35  36
DOCKED: ATOM     36  P   UNL d   1     -11.172  -0.945  14.697 -0.07 +0.12    +0.473 P 
DOCKED: ATOM     37  O   UNL d   1     -12.384  -0.188  15.142 -0.03 -0.02    -0.228 OA
DOCKED: BRANCH  36  38
DOCKED: ATOM     38  O   UNL d   1     -11.412  -1.875  13.427 -0.09 +0.04    -0.303 OA
DOCKED: ATOM     39  H   UNL d   1     -11.357  -1.328  12.614 +0.07 -0.05    +0.222 HD
DOCKED: ENDBRANCH  36  38
DOCKED: BRANCH  36  40
DOCKED: ATOM     40  O   UNL d   1     -10.497  -1.916  15.760 -0.64 -0.21    -0.303 OA
DOCKED: ATOM     41  H   UNL d   1     -10.328  -1.459  16.614 +0.03 +0.17    +0.222 HD
DOCKED: ENDBRANCH  36  40
DOCKED: ENDBRANCH  35  36
DOCKED: ENDBRANCH   5  35
DOCKED: BRANCH   4  42
DOCKED: ATOM     42  O   UNL d   1     -10.556   0.726  11.480 -0.20 +0.03    -0.278 OA
DOCKED: BRANCH  42  43
DOCKED: ATOM     43  P   UNL d   1     -11.221  -0.443  10.623 -0.17 -0.15    +0.473 P 
DOCKED: ATOM     44  O   UNL d   1     -10.553  -1.775  10.642 -0.26 +0.21    -0.228 OA
DOCKED: BRANCH  43  45
DOCKED: ATOM     45  O   UNL d   1     -12.720  -0.459  11.159 -0.04 +0.06    -0.303 OA
DOCKED: ATOM     46  H   UNL d   1     -13.241   0.281  10.788 +0.05 -0.03    +0.222 HD
DOCKED: ENDBRANCH  43  45
DOCKED: BRANCH  43  47
DOCKED: ATOM     47  O   UNL d   1     -11.401   0.220   9.175 -0.20 +0.08    -0.303 OA
DOCKED: ATOM     48  H   UNL d   1     -12.145   0.856   9.201 +0.08 -0.04    +0.222 HD
DOCKED: ENDBRANCH  43  47
DOCKED: ENDBRANCH  42  43
DOCKED: ENDBRANCH   4  42
DOCKED: TORSDOF 24
DOCKED: TER
DOCKED: ENDMDL
________________________________________________________________________________


	BEGINNING GENETIC ALGORITHM DOCKING 4 of 100
Run: 4 Seed: 1156354174 36167355 [ Run 4 of 100 GA/GALS ]
Beginning LAMARCKIAN GENETIC ALGORITHM (LGA), with a maximum of 25000000 energy evaluations.
FFinal-Value: -16.475


	FINAL GENETIC ALGORITHM DOCKED STATE
	_______________________________________________


Detailed state:  trans 10.678 -11.824 -14.695 quatxyzw 0.326644 -0.002739 -0.130433 0.936100 center 0.035 0.082 -0.065 ntor 24 140.8025 108.8902 79.9188 138.2009 62.6316 -134.1396 -123.5629 106.3694 134.6382 61.4734 -154.7259 178.8781 -94.0255 93.6795 -64.7348 -119.1033 62.6286 156.3365 -135.8438 -16.1676 180.0000 -30.3281 29.2169 -164.7914
State:	 10.678 -11.824 -14.695   0.929 -0.008 -0.371 41.187    140.80  108.89   79.92  138.20   62.63 -134.14 -123.56  106.37  134.64   61.47 -154.73  178.88  -94.03   93.68  -64.73 -119.10   62.63  156.34 -135.84  -16.17  180.00  -30.33   29.22 -164.79

DOCKED: MODEL        4
DOCKED: USER    Run = 4
DOCKED: USER    DPF = D:/Protein_go_brrr/autodock/final/mut_N102T/IHP/dock.dpf
DOCKED: USER  
DOCKED: USER    Estimated Free Energy of Binding    =   +4.01 kcal/mol  [=(1)+(2)+(3)-(4)]
DOCKED: USER    
DOCKED: USER    (1) Final Intermolecular Energy     =   -3.15 kcal/mol
DOCKED: USER        vdW + Hbond + desolv Energy     =   -2.88 kcal/mol
DOCKED: USER        Electrostatic Energy            =   -0.27 kcal/mol
DOCKED: USER    (2) Final Total Internal Energy     =  -13.32 kcal/mol
DOCKED: USER    (3) Torsional Free Energy           =   +7.16 kcal/mol
DOCKED: USER    (4) Unbound System's Energy  [=(2)] =  -13.32 kcal/mol
DOCKED: USER    
DOCKED: USER    
DOCKED: USER    NEWDPF move IHP_ideal_opt.pdbqt
DOCKED: USER    NEWDPF about 0.035000 0.082000 -0.065000
DOCKED: USER    NEWDPF tran0 10.678290 -11.823977 -14.694833
DOCKED: USER    NEWDPF quaternion0 0.326644 -0.002739 -0.130433 0.936100
DOCKED: USER    NEWDPF axisangle0 0.928668 -0.007788 -0.370829 41.186749
DOCKED: USER    NEWDPF quat0 0.928668 -0.007788 -0.370829 41.186749
DOCKED: USER    NEWDPF dihe0 140.80 108.89 79.92 138.20 62.63 -134.14 -123.56 106.37 134.64 61.47 -154.73 178.88 -94.03 93.68 -64.73 -119.10 62.63 156.34 -135.84 -16.17 180.00 -30.33 29.22 -164.79 
DOCKED: USER  keepresnum = 1 
DOCKED: USER  
DOCKED: REMARK  24 active torsions:
DOCKED: REMARK  status: ('A' for Active; 'I' for Inactive)
DOCKED: REMARK    1  A    between atoms: C_1  and  O_7 
DOCKED: REMARK    2  A    between atoms: C_2  and  O_12 
DOCKED: REMARK    3  A    between atoms: C_3  and  O_17 
DOCKED: REMARK    4  A    between atoms: C_4  and  O_22 
DOCKED: REMARK    5  A    between atoms: C_5  and  O_27 
DOCKED: REMARK    6  A    between atoms: C_6  and  O_32 
DOCKED: REMARK    7  A    between atoms: O_7  and  P_8 
DOCKED: REMARK    8  A    between atoms: P_8  and  O_10 
DOCKED: REMARK    9  A    between atoms: P_8  and  O_11 
DOCKED: REMARK   10  A    between atoms: O_12  and  P_13 
DOCKED: REMARK   11  A    between atoms: P_13  and  O_15 
DOCKED: REMARK   12  A    between atoms: P_13  and  O_16 
DOCKED: REMARK   13  A    between atoms: O_17  and  P_18 
DOCKED: REMARK   14  A    between atoms: P_18  and  O_20 
DOCKED: REMARK   15  A    between atoms: P_18  and  O_21 
DOCKED: REMARK   16  A    between atoms: O_22  and  P_23 
DOCKED: REMARK   17  A    between atoms: P_23  and  O_25 
DOCKED: REMARK   18  A    between atoms: P_23  and  O_26 
DOCKED: REMARK   19  A    between atoms: O_27  and  P_28 
DOCKED: REMARK   20  A    between atoms: P_28  and  O_30 
DOCKED: REMARK   21  A    between atoms: P_28  and  O_31 
DOCKED: REMARK   22  A    between atoms: O_32  and  P_33 
DOCKED: REMARK   23  A    between atoms: P_33  and  O_35 
DOCKED: REMARK   24  A    between atoms: P_33  and  O_36 
DOCKED: USER                              x       y       z     vdW  Elec       q    Type
DOCKED: USER                           _______ _______ _______ _____ _____    ______ ____
DOCKED: ROOT
DOCKED: ATOM      1  C   UNL d   1      12.044 -11.704 -13.643 -0.03 -0.01    +0.194 C 
DOCKED: ATOM      2  C   UNL d   1      11.066 -12.838 -13.330 -0.06 -0.02    +0.194 C 
DOCKED: ATOM      3  C   UNL d   1       9.611 -12.376 -13.436 -0.09 -0.02    +0.194 C 
DOCKED: ATOM      4  C   UNL d   1       9.292 -11.689 -14.762 -0.08 +0.06    +0.194 C 
DOCKED: ATOM      5  C   UNL d   1      10.307 -10.629 -15.171 -0.04 +0.03    +0.194 C 
DOCKED: ATOM      6  C   UNL d   1      11.763 -11.070 -15.006 -0.01 +0.00    +0.194 C 
DOCKED: ENDROOT
DOCKED: BRANCH   1   7
DOCKED: ATOM      7  O   UNL d   1      13.362 -12.254 -13.693 -0.01 +0.01    -0.278 OA
DOCKED: BRANCH   7   8
DOCKED: ATOM      8  P   UNL d   1      14.016 -12.532 -15.124 +0.00 -0.01    +0.473 P 
DOCKED: ATOM      9  O   UNL d   1      13.101 -13.138 -16.128 +0.00 +0.00    -0.228 OA
DOCKED: BRANCH   8  10
DOCKED: ATOM     10  O   UNL d   1      14.586 -11.110 -15.571 -0.00 +0.01    -0.303 OA
DOCKED: ATOM     11  H   UNL d   1      14.175 -10.409 -15.031 +0.00 -0.01    +0.222 HD
DOCKED: ENDBRANCH   8  10
DOCKED: BRANCH   8  12
DOCKED: ATOM     12  O   UNL d   1      15.348 -13.343 -14.819 -0.00 +0.01    -0.303 OA
DOCKED: ATOM     13  H   UNL d   1      15.179 -14.219 -14.405 +0.00 -0.01    +0.222 HD
DOCKED: ENDBRANCH   8  12
DOCKED: ENDBRANCH   7   8
DOCKED: ENDBRANCH   1   7
DOCKED: BRANCH   2  14
DOCKED: ATOM     14  O   UNL d   1      11.274 -13.906 -14.262 -0.00 +0.02    -0.278 OA
DOCKED: BRANCH  14  15
DOCKED: ATOM     15  P   UNL d   1      11.801 -15.292 -13.656 +0.01 -0.04    +0.473 P 
DOCKED: ATOM     16  O   UNL d   1      11.373 -16.540 -14.363 +0.00 +0.02    -0.228 OA
DOCKED: BRANCH  15  17
DOCKED: ATOM     17  O   UNL d   1      13.384 -15.119 -13.612 +0.00 +0.02    -0.303 OA
DOCKED: ATOM     18  H   UNL d   1      13.671 -14.369 -14.168 +0.01 -0.01    +0.222 HD
DOCKED: ENDBRANCH  15  17
DOCKED: BRANCH  15  19
DOCKED: ATOM     19  O   UNL d   1      11.428 -15.216 -12.112 -0.03 +0.05    -0.303 OA
DOCKED: ATOM     20  H   UNL d   1      10.485 -15.409 -11.958 +0.04 -0.05    +0.222 HD
DOCKED: ENDBRANCH  15  19
DOCKED: ENDBRANCH  14  15
DOCKED: ENDBRANCH   2  14
DOCKED: BRANCH   6  21
DOCKED: ATOM     21  O   UNL d   1      12.562  -9.892 -15.092 -0.01 -0.00    -0.278 OA
DOCKED: BRANCH  21  22
DOCKED: ATOM     22  P   UNL d   1      12.660  -8.909 -13.839 -0.01 -0.01    +0.473 P 
DOCKED: ATOM     23  O   UNL d   1      11.454  -8.742 -12.977 -0.09 +0.01    -0.228 OA
DOCKED: BRANCH  22  24
DOCKED: ATOM     24  O   UNL d   1      13.946  -9.469 -13.086 -0.01 +0.02    -0.303 OA
DOCKED: ATOM     25  H   UNL d   1      14.261 -10.274 -13.571 +0.01 -0.01    +0.222 HD
DOCKED: ENDBRANCH  22  24
DOCKED: BRANCH  22  26
DOCKED: ATOM     26  O   UNL d   1      13.230  -7.573 -14.517 -0.01 +0.01    -0.303 OA
DOCKED: ATOM     27  H   UNL d   1      12.672  -7.339 -15.286 +0.02 -0.00    +0.222 HD
DOCKED: ENDBRANCH  22  26
DOCKED: ENDBRANCH  21  22
DOCKED: ENDBRANCH   6  21
DOCKED: BRANCH   3  28
DOCKED: ATOM     28  O   UNL d   1       8.790 -13.537 -13.405 -0.09 +0.04    -0.278 OA
DOCKED: BRANCH  28  29
DOCKED: ATOM     29  P   UNL d   1       8.443 -14.241 -12.019 -0.16 -0.28    +0.473 P 
DOCKED: ATOM     30  O   UNL d   1       8.332 -15.721 -12.063 -0.16 +0.18    -0.228 OA
DOCKED: BRANCH  29  31
DOCKED: ATOM     31  O   UNL d   1       9.598 -13.626 -11.097 -0.24 +0.12    -0.303 OA
DOCKED: ATOM     32  H   UNL d   1      10.456 -14.035 -11.355 +0.04 -0.06    +0.222 HD
DOCKED: ENDBRANCH  29  31
DOCKED: BRANCH  29  33
DOCKED: ATOM     33  O   UNL d   1       7.152 -13.436 -11.550 -0.23 +0.34    -0.303 OA
DOCKED: ATOM     34  H   UNL d   1       6.710 -13.934 -10.819 -0.43 -0.50    +0.222 HD
DOCKED: ENDBRANCH  29  33
DOCKED: ENDBRANCH  28  29
DOCKED: ENDBRANCH   3  28
DOCKED: BRANCH   5  35
DOCKED: ATOM     35  O   UNL d   1      10.091 -10.403 -16.562 -0.02 -0.06    -0.278 OA
DOCKED: BRANCH  35  36
DOCKED: ATOM     36  P   UNL d   1      10.605  -9.058 -17.248 +0.00 +0.06    +0.473 P 
DOCKED: ATOM     37  O   UNL d   1      11.797  -9.203 -18.139 -0.00 -0.01    -0.228 OA
DOCKED: BRANCH  36  38
DOCKED: ATOM     38  O   UNL d   1       9.291  -8.548 -17.990 -0.03 -0.06    -0.303 OA
DOCKED: ATOM     39  H   UNL d   1       8.608  -8.330 -17.320 +0.05 +0.06    +0.222 HD
DOCKED: ENDBRANCH  36  38
DOCKED: BRANCH  36  40
DOCKED: ATOM     40  O   UNL d   1      10.748  -8.076 -16.005 -0.02 -0.02    -0.303 OA
DOCKED: ATOM     41  H   UNL d   1      10.807  -8.569 -15.157 +0.03 +0.01    +0.222 HD
DOCKED: ENDBRANCH  36  40
DOCKED: ENDBRANCH  35  36
DOCKED: ENDBRANCH   5  35
DOCKED: BRANCH   4  42
DOCKED: ATOM     42  O   UNL d   1       8.035 -11.026 -14.594 -0.59 -0.27    -0.278 OA
DOCKED: BRANCH  42  43
DOCKED: ATOM     43  P   UNL d   1       8.011  -9.573 -13.935 -0.14 +0.20    +0.473 P 
DOCKED: ATOM     44  O   UNL d   1       6.734  -9.121 -13.316 -0.36 -0.08    -0.228 OA
DOCKED: BRANCH  43  45
DOCKED: ATOM     45  O   UNL d   1       9.240  -9.628 -12.925 -0.15 +0.01    -0.303 OA
DOCKED: ATOM     46  H   UNL d   1       9.810  -8.838 -13.011 +0.06 -0.00    +0.222 HD
DOCKED: ENDBRANCH  43  45
DOCKED: BRANCH  43  47
DOCKED: ATOM     47  O   UNL d   1       8.588  -8.634 -15.098 -0.10 -0.10    -0.303 OA
DOCKED: ATOM     48  H   UNL d   1       8.828  -9.187 -15.870 +0.05 +0.09    +0.222 HD
DOCKED: ENDBRANCH  43  47
DOCKED: ENDBRANCH  42  43
DOCKED: ENDBRANCH   4  42
DOCKED: TORSDOF 24
DOCKED: TER
DOCKED: ENDMDL
________________________________________________________________________________


	BEGINNING GENETIC ALGORITHM DOCKING 5 of 100
Run: 5 Seed: 126829026 263427511 [ Run 5 of 100 GA/GALS ]
Beginning LAMARCKIAN GENETIC ALGORITHM (LGA), with a maximum of 25000000 energy evaluations.

Final-Value: -18.334


	FINAL GENETIC ALGORITHM DOCKED STATE
	_______________________________________________


Detailed state:  trans -4.035 13.035 18.251 quatxyzw 0.733216 0.261228 0.586620 -0.223679 center 0.035 0.082 -0.065 ntor 24 59.5691 120.3368 178.9804 50.0224 88.8149 87.1950 14.8161 -41.9051 71.7950 -17.9992 60.0820 -177.8996 -80.2775 161.8548 -178.9539 84.3213 57.3238 170.9386 -139.2728 -15.8826 22.3137 -24.9727 -172.0075 17.8897
State:	 -4.035  13.035  18.251   0.752  0.268  0.602 -154.150     59.57  120.34  178.98   50.02   88.81   87.20   14.82  -41.91   71.79  -18.00   60.08 -177.90  -80.28  161.85 -178.95   84.32   57.32  170.94 -139.27  -15.88   22.31  -24.97 -172.01   17.89

DOCKED: MODEL        5
DOCKED: USER    Run = 5
DOCKED: USER    DPF = D:/Protein_go_brrr/autodock/final/mut_N102T/IHP/dock.dpf
DOCKED: USER  
DOCKED: USER    Estimated Free Energy of Binding    =   +3.33 kcal/mol  [=(1)+(2)+(3)-(4)]
DOCKED: USER    
DOCKED: USER    (1) Final Intermolecular Energy     =   -3.83 kcal/mol
DOCKED: USER        vdW + Hbond + desolv Energy     =   -3.70 kcal/mol
DOCKED: USER        Electrostatic Energy            =   -0.12 kcal/mol
DOCKED: USER    (2) Final Total Internal Energy     =  -14.51 kcal/mol
DOCKED: USER    (3) Torsional Free Energy           =   +7.16 kcal/mol
DOCKED: USER    (4) Unbound System's Energy  [=(2)] =  -14.51 kcal/mol
DOCKED: USER    
DOCKED: USER    
DOCKED: USER    NEWDPF move IHP_ideal_opt.pdbqt
DOCKED: USER    NEWDPF about 0.035000 0.082000 -0.065000
DOCKED: USER    NEWDPF tran0 -4.035080 13.034675 18.251098
DOCKED: USER    NEWDPF quaternion0 0.733216 0.261228 0.586620 -0.223679
DOCKED: USER    NEWDPF axisangle0 0.752276 0.268019 0.601869 -154.149548
DOCKED: USER    NEWDPF quat0 0.752276 0.268019 0.601869 -154.149548
DOCKED: USER    NEWDPF dihe0 59.57 120.34 178.98 50.02 88.81 87.20 14.82 -41.91 71.79 -18.00 60.08 -177.90 -80.28 161.85 -178.95 84.32 57.32 170.94 -139.27 -15.88 22.31 -24.97 -172.01 17.89 
DOCKED: USER  keepresnum = 1 
DOCKED: USER  
DOCKED: REMARK  24 active torsions:
DOCKED: REMARK  status: ('A' for Active; 'I' for Inactive)
DOCKED: REMARK    1  A    between atoms: C_1  and  O_7 
DOCKED: REMARK    2  A    between atoms: C_2  and  O_12 
DOCKED: REMARK    3  A    between atoms: C_3  and  O_17 
DOCKED: REMARK    4  A    between atoms: C_4  and  O_22 
DOCKED: REMARK    5  A    between atoms: C_5  and  O_27 
DOCKED: REMARK    6  A    between atoms: C_6  and  O_32 
DOCKED: REMARK    7  A    between atoms: O_7  and  P_8 
DOCKED: REMARK    8  A    between atoms: P_8  and  O_10 
DOCKED: REMARK    9  A    between atoms: P_8  and  O_11 
DOCKED: REMARK   10  A    between atoms: O_12  and  P_13 
DOCKED: REMARK   11  A    between atoms: P_13  and  O_15 
DOCKED: REMARK   12  A    between atoms: P_13  and  O_16 
DOCKED: REMARK   13  A    between atoms: O_17  and  P_18 
DOCKED: REMARK   14  A    between atoms: P_18  and  O_20 
DOCKED: REMARK   15  A    between atoms: P_18  and  O_21 
DOCKED: REMARK   16  A    between atoms: O_22  and  P_23 
DOCKED: REMARK   17  A    between atoms: P_23  and  O_25 
DOCKED: REMARK   18  A    between atoms: P_23  and  O_26 
DOCKED: REMARK   19  A    between atoms: O_27  and  P_28 
DOCKED: REMARK   20  A    between atoms: P_28  and  O_30 
DOCKED: REMARK   21  A    between atoms: P_28  and  O_31 
DOCKED: REMARK   22  A    between atoms: O_32  and  P_33 
DOCKED: REMARK   23  A    between atoms: P_33  and  O_35 
DOCKED: REMARK   24  A    between atoms: P_33  and  O_36 
DOCKED: USER                              x       y       z     vdW  Elec       q    Type
DOCKED: USER                           _______ _______ _______ _____ _____    ______ ____
DOCKED: ROOT
DOCKED: ATOM      1  C   UNL d   1      -3.150  14.504  18.452 -0.08 -0.03    +0.194 C 
DOCKED: ATOM      2  C   UNL d   1      -3.826  14.321  17.092 +0.05 -0.06    +0.194 C 
DOCKED: ATOM      3  C   UNL d   1      -3.649  12.897  16.559 -0.19 -0.05    +0.194 C 
DOCKED: ATOM      4  C   UNL d   1      -4.067  11.824  17.561 -0.11 -0.04    +0.194 C 
DOCKED: ATOM      5  C   UNL d   1      -3.507  12.032  18.963 -0.06 -0.03    +0.194 C 
DOCKED: ATOM      6  C   UNL d   1      -3.628  13.470  19.471 -0.06 -0.02    +0.194 C 
DOCKED: ENDROOT
DOCKED: BRANCH   1   7
DOCKED: ATOM      7  O   UNL d   1      -3.504  15.794  18.955 -0.09 +0.04    -0.278 OA
DOCKED: BRANCH   7   8
DOCKED: ATOM      8  P   UNL d   1      -4.696  15.894  20.015 -0.01 -0.05    +0.473 P 
DOCKED: ATOM      9  O   UNL d   1      -5.733  14.833  19.900 -0.01 +0.02    -0.228 OA
DOCKED: BRANCH   8  10
DOCKED: ATOM     10  O   UNL d   1      -3.957  15.900  21.429 -0.00 +0.03    -0.303 OA
DOCKED: ATOM     11  H   UNL d   1      -3.972  15.003  21.809 +0.01 -0.02    +0.222 HD
DOCKED: ENDBRANCH   8  10
DOCKED: BRANCH   8  12
DOCKED: ATOM     12  O   UNL d   1      -5.220  17.390  19.907 -0.00 +0.03    -0.303 OA
DOCKED: ATOM     13  H   UNL d   1      -5.758  17.553  19.100 +0.01 -0.02    +0.222 HD
DOCKED: ENDBRANCH   8  12
DOCKED: ENDBRANCH   7   8
DOCKED: ENDBRANCH   1   7
DOCKED: BRANCH   2  14
DOCKED: ATOM     14  O   UNL d   1      -5.228  14.587  17.228 -0.06 +0.05    -0.278 OA
DOCKED: BRANCH  14  15
DOCKED: ATOM     15  P   UNL d   1      -5.799  15.845  16.419 -0.03 -0.08    +0.473 P 
DOCKED: ATOM     16  O   UNL d   1      -6.859  16.655  17.097 -0.01 +0.02    -0.228 OA
DOCKED: BRANCH  15  17
DOCKED: ATOM     17  O   UNL d   1      -4.502  16.699  16.064 -0.10 +0.09    -0.303 OA
DOCKED: ATOM     18  H   UNL d   1      -4.065  16.357  15.261 -0.40 -0.10    +0.222 HD
DOCKED: ENDBRANCH  15  17
DOCKED: BRANCH  15  19
DOCKED: ATOM     19  O   UNL d   1      -6.193  15.255  14.995 -0.03 +0.05    -0.303 OA
DOCKED: ATOM     20  H   UNL d   1      -5.869  14.343  14.881 +0.05 -0.04    +0.222 HD
DOCKED: ENDBRANCH  15  19
DOCKED: ENDBRANCH  14  15
DOCKED: ENDBRANCH   2  14
DOCKED: BRANCH   6  21
DOCKED: ATOM     21  O   UNL d   1      -2.775  13.578  20.609 -0.03 +0.03    -0.278 OA
DOCKED: BRANCH  21  22
DOCKED: ATOM     22  P   UNL d   1      -3.271  13.035  22.024 +0.00 -0.05    +0.473 P 
DOCKED: ATOM     23  O   UNL d   1      -2.782  13.724  23.254 -0.00 +0.02    -0.228 OA
DOCKED: BRANCH  22  24
DOCKED: ATOM     24  O   UNL d   1      -4.852  13.042  21.840 -0.00 +0.03    -0.303 OA
DOCKED: ATOM     25  H   UNL d   1      -5.050  13.006  20.870 +0.01 -0.02    +0.222 HD
DOCKED: ENDBRANCH  22  24
DOCKED: BRANCH  22  26
DOCKED: ATOM     26  O   UNL d   1      -2.932  11.473  21.911 -0.00 +0.04    -0.303 OA
DOCKED: ATOM     27  H   UNL d   1      -3.684  11.010  21.489 +0.01 -0.03    +0.222 HD
DOCKED: ENDBRANCH  22  26
DOCKED: ENDBRANCH  21  22
DOCKED: ENDBRANCH   6  21
DOCKED: BRANCH   3  28
DOCKED: ATOM     28  O   UNL d   1      -4.528  12.742  15.452 -0.15 +0.06    -0.278 OA
DOCKED: BRANCH  28  29
DOCKED: ATOM     29  P   UNL d   1      -4.072  13.191  13.994 -0.21 -0.13    +0.473 P 
DOCKED: ATOM     30  O   UNL d   1      -2.845  12.533  13.476 -0.98 +0.06    -0.228 OA
DOCKED: BRANCH  29  31
DOCKED: ATOM     31  O   UNL d   1      -5.429  12.935  13.185 -0.14 +0.04    -0.303 OA
DOCKED: ATOM     32  H   UNL d   1      -6.111  13.569  13.509 +0.08 -0.03    +0.222 HD
DOCKED: ENDBRANCH  29  31
DOCKED: BRANCH  29  33
DOCKED: ATOM     33  O   UNL d   1      -4.036  14.777  14.128 +0.01 +0.13    -0.303 OA
DOCKED: ATOM     34  H   UNL d   1      -4.021  15.018  15.087 -0.43 -0.13    +0.222 HD
DOCKED: ENDBRANCH  29  33
DOCKED: ENDBRANCH  28  29
DOCKED: ENDBRANCH   3  28
DOCKED: BRANCH   5  35
DOCKED: ATOM     35  O   UNL d   1      -4.300  11.215  19.821 -0.01 +0.04    -0.278 OA
DOCKED: BRANCH  35  36
DOCKED: ATOM     36  P   UNL d   1      -5.880  11.134  19.622 +0.00 -0.05    +0.473 P 
DOCKED: ATOM     37  O   UNL d   1      -6.381   9.908  18.926 -0.01 +0.02    -0.228 OA
DOCKED: BRANCH  36  38
DOCKED: ATOM     38  O   UNL d   1      -6.407  11.300  21.115 -0.00 +0.03    -0.303 OA
DOCKED: ATOM     39  H   UNL d   1      -5.639  11.429  21.714 +0.00 -0.02    +0.222 HD
DOCKED: ENDBRANCH  36  38
DOCKED: BRANCH  36  40
DOCKED: ATOM     40  O   UNL d   1      -6.209  12.534  18.943 -0.00 +0.03    -0.303 OA
DOCKED: ATOM     41  H   UNL d   1      -5.943  13.288  19.515 +0.01 -0.02    +0.222 HD
DOCKED: ENDBRANCH  36  40
DOCKED: ENDBRANCH  35  36
DOCKED: ENDBRANCH   5  35
DOCKED: BRANCH   4  42
DOCKED: ATOM     42  O   UNL d   1      -3.545  10.581  17.079 -0.13 +0.08    -0.278 OA
DOCKED: BRANCH  42  43
DOCKED: ATOM     43  P   UNL d   1      -4.469   9.660  16.162 -0.15 -0.12    +0.473 P 
DOCKED: ATOM     44  O   UNL d   1      -4.361   8.185  16.340 -0.29 +0.06    -0.228 OA
DOCKED: BRANCH  43  45
DOCKED: ATOM     45  O   UNL d   1      -5.924  10.243  16.436 -0.08 +0.04    -0.303 OA
DOCKED: ATOM     46  H   UNL d   1      -5.930  10.842  17.209 +0.04 -0.03    +0.222 HD
DOCKED: ENDBRANCH  43  45
DOCKED: BRANCH  43  47
DOCKED: ATOM     47  O   UNL d   1      -4.174  10.202  14.683 -0.08 +0.09    -0.303 OA
DOCKED: ATOM     48  H   UNL d   1      -3.511  10.922  14.729 -0.07 -0.08    +0.222 HD
DOCKED: ENDBRANCH  43  47
DOCKED: ENDBRANCH  42  43
DOCKED: ENDBRANCH   4  42
DOCKED: TORSDOF 24
DOCKED: TER
DOCKED: ENDMDL
________________________________________________________________________________


	BEGINNING GENETIC ALGORITHM DOCKING 6 of 100
Run: 6 Seed: 1065454878 283881935 [ Run 6 of 100 GA/GALS ]
Beginning LAMARCKIAN GENETIC ALGORITHM (LGA), with a maximum of 25000000 energy evaluations.

Final-Value: -18.321


	FINAL GENETIC ALGORITHM DOCKED STATE
	_______________________________________________


Detailed state:  trans -13.213 5.155 11.932 quatxyzw -0.677548 -0.427944 0.057735 -0.595365 center 0.035 0.082 -0.065 ntor 24 174.9904 13.2800 55.0389 49.8575 149.6715 118.3320 47.6884 -78.0961 39.1145 22.6955 -8.5184 -151.2879 23.9875 158.2597 45.1872 96.8122 168.9604 -20.2434 -1.4663 -18.2704 -23.3245 -23.7637 -12.2265 169.9737
State:	-13.213   5.155  11.932  -0.843 -0.533  0.072 -106.923    174.99   13.28   55.04   49.86  149.67  118.33   47.69  -78.10   39.11   22.70   -8.52 -151.29   23.99  158.26   45.19   96.81  168.96  -20.24   -1.47  -18.27  -23.32  -23.76  -12.23  169.97

DOCKED: MODEL        6
DOCKED: USER    Run = 6
DOCKED: USER    DPF = D:/Protein_go_brrr/autodock/final/mut_N102T/IHP/dock.dpf
DOCKED: USER  
DOCKED: USER    Estimated Free Energy of Binding    =   +4.15 kcal/mol  [=(1)+(2)+(3)-(4)]
DOCKED: USER    
DOCKED: USER    (1) Final Intermolecular Energy     =   -3.01 kcal/mol
DOCKED: USER        vdW + Hbond + desolv Energy     =   -2.94 kcal/mol
DOCKED: USER        Electrostatic Energy            =   -0.07 kcal/mol
DOCKED: USER    (2) Final Total Internal Energy     =  -15.31 kcal/mol
DOCKED: USER    (3) Torsional Free Energy           =   +7.16 kcal/mol
DOCKED: USER    (4) Unbound System's Energy  [=(2)] =  -15.31 kcal/mol
DOCKED: USER    
DOCKED: USER    
DOCKED: USER    NEWDPF move IHP_ideal_opt.pdbqt
DOCKED: USER    NEWDPF about 0.035000 0.082000 -0.065000
DOCKED: USER    NEWDPF tran0 -13.213006 5.155279 11.932022
DOCKED: USER    NEWDPF quaternion0 -0.677548 -0.427944 0.057735 -0.595365
DOCKED: USER    NEWDPF axisangle0 -0.843292 -0.532630 0.071858 -106.922668
DOCKED: USER    NEWDPF quat0 -0.843292 -0.532630 0.071858 -106.922668
DOCKED: USER    NEWDPF dihe0 174.99 13.28 55.04 49.86 149.67 118.33 47.69 -78.10 39.11 22.70 -8.52 -151.29 23.99 158.26 45.19 96.81 168.96 -20.24 -1.47 -18.27 -23.32 -23.76 -12.23 169.97 
DOCKED: USER  keepresnum = 1 
DOCKED: USER  
DOCKED: REMARK  24 active torsions:
DOCKED: REMARK  status: ('A' for Active; 'I' for Inactive)
DOCKED: REMARK    1  A    between atoms: C_1  and  O_7 
DOCKED: REMARK    2  A    between atoms: C_2  and  O_12 
DOCKED: REMARK    3  A    between atoms: C_3  and  O_17 
DOCKED: REMARK    4  A    between atoms: C_4  and  O_22 
DOCKED: REMARK    5  A    between atoms: C_5  and  O_27 
DOCKED: REMARK    6  A    between atoms: C_6  and  O_32 
DOCKED: REMARK    7  A    between atoms: O_7  and  P_8 
DOCKED: REMARK    8  A    between atoms: P_8  and  O_10 
DOCKED: REMARK    9  A    between atoms: P_8  and  O_11 
DOCKED: REMARK   10  A    between atoms: O_12  and  P_13 
DOCKED: REMARK   11  A    between atoms: P_13  and  O_15 
DOCKED: REMARK   12  A    between atoms: P_13  and  O_16 
DOCKED: REMARK   13  A    between atoms: O_17  and  P_18 
DOCKED: REMARK   14  A    between atoms: P_18  and  O_20 
DOCKED: REMARK   15  A    between atoms: P_18  and  O_21 
DOCKED: REMARK   16  A    between atoms: O_22  and  P_23 
DOCKED: REMARK   17  A    between atoms: P_23  and  O_25 
DOCKED: REMARK   18  A    between atoms: P_23  and  O_26 
DOCKED: REMARK   19  A    between atoms: O_27  and  P_28 
DOCKED: REMARK   20  A    between atoms: P_28  and  O_30 
DOCKED: REMARK   21  A    between atoms: P_28  and  O_31 
DOCKED: REMARK   22  A    between atoms: O_32  and  P_33 
DOCKED: REMARK   23  A    between atoms: P_33  and  O_35 
DOCKED: REMARK   24  A    between atoms: P_33  and  O_36 
DOCKED: USER                              x       y       z     vdW  Elec       q    Type
DOCKED: USER                           _______ _______ _______ _____ _____    ______ ____
DOCKED: ROOT
DOCKED: ATOM      1  C   UNL d   1     -13.346   6.500  13.008 -0.03 -0.00    +0.194 C 
DOCKED: ATOM      2  C   UNL d   1     -14.323   5.351  13.263 -0.01 -0.00    +0.194 C 
DOCKED: ATOM      3  C   UNL d   1     -14.920   4.815  11.960 -0.01 -0.01    +0.194 C 
DOCKED: ATOM      4  C   UNL d   1     -13.864   4.455  10.918 -0.04 -0.01    +0.194 C 
DOCKED: ATOM      5  C   UNL d   1     -12.802   5.528  10.714 -0.10 -0.00    +0.194 C 
DOCKED: ATOM      6  C   UNL d   1     -12.249   6.107  12.018 -0.11 +0.00    +0.194 C 
DOCKED: ENDROOT
DOCKED: BRANCH   1   7
DOCKED: ATOM      7  O   UNL d   1     -12.707   6.826  14.245 -0.02 +0.00    -0.278 OA
DOCKED: BRANCH   7   8
DOCKED: ATOM      8  P   UNL d   1     -12.799   8.330  14.774 +0.00 -0.01    +0.473 P 
DOCKED: ATOM      9  O   UNL d   1     -14.113   8.715  15.357 -0.00 +0.01    -0.228 OA
DOCKED: BRANCH   8  10
DOCKED: ATOM     10  O   UNL d   1     -11.592   8.450  15.810 -0.01 +0.00    -0.303 OA
DOCKED: ATOM     11  H   UNL d   1     -10.963   7.718  15.665 +0.04 +0.00    +0.222 HD
DOCKED: ENDBRANCH   8  10
DOCKED: BRANCH   8  12
DOCKED: ATOM     12  O   UNL d   1     -12.288   9.225  13.564 -0.01 +0.01    -0.303 OA
DOCKED: ATOM     13  H   UNL d   1     -11.605   8.778  13.016 +0.05 -0.00    +0.222 HD
DOCKED: ENDBRANCH   8  12
DOCKED: ENDBRANCH   7   8
DOCKED: ENDBRANCH   1   7
DOCKED: BRANCH   2  14
DOCKED: ATOM     14  O   UNL d   1     -13.627   4.284  13.919 -0.02 +0.00    -0.278 OA
DOCKED: BRANCH  14  15
DOCKED: ATOM     15  P   UNL d   1     -14.063   3.965  15.426 +0.00 -0.00    +0.473 P 
DOCKED: ATOM     16  O   UNL d   1     -12.984   3.499  16.353 -0.01 -0.01    -0.228 OA
DOCKED: BRANCH  15  17
DOCKED: ATOM     17  O   UNL d   1     -14.763   5.308  15.919 -0.00 +0.01    -0.303 OA
DOCKED: ATOM     18  H   UNL d   1     -14.276   6.094  15.606 +0.01 -0.00    +0.222 HD
DOCKED: ENDBRANCH  15  17
DOCKED: BRANCH  15  19
DOCKED: ATOM     19  O   UNL d   1     -15.310   2.989  15.280 -0.00 +0.01    -0.303 OA
DOCKED: ATOM     20  H   UNL d   1     -15.618   2.932  14.357 +0.00 -0.01    +0.222 HD
DOCKED: ENDBRANCH  15  19
DOCKED: ENDBRANCH  14  15
DOCKED: ENDBRANCH   2  14
DOCKED: BRANCH   6  21
DOCKED: ATOM     21  O   UNL d   1     -11.549   7.301  11.674 -0.10 -0.00    -0.278 OA
DOCKED: BRANCH  21  22
DOCKED: ATOM     22  P   UNL d   1     -10.029   7.485  12.124 -0.22 +0.05    +0.473 P 
DOCKED: ATOM     23  O   UNL d   1      -8.978   6.728  11.384 -0.81 -0.07    -0.228 OA
DOCKED: BRANCH  22  24
DOCKED: ATOM     24  O   UNL d   1      -9.867   9.067  12.082 -0.16 -0.02    -0.303 OA
DOCKED: ATOM     25  H   UNL d   1     -10.207   9.435  12.937 +0.06 +0.00    +0.222 HD
DOCKED: ENDBRANCH  22  24
DOCKED: BRANCH  22  26
DOCKED: ATOM     26  O   UNL d   1     -10.120   7.203  13.700 -0.20 -0.03    -0.303 OA
DOCKED: ATOM     27  H   UNL d   1     -10.778   7.809  14.097 +0.06 +0.01    +0.222 HD
DOCKED: ENDBRANCH  22  26
DOCKED: ENDBRANCH  21  22
DOCKED: ENDBRANCH   6  21
DOCKED: BRANCH   3  28
DOCKED: ATOM     28  O   UNL d   1     -15.583   3.594  12.263 -0.00 +0.01    -0.278 OA
DOCKED: BRANCH  28  29
DOCKED: ATOM     29  P   UNL d   1     -17.098   3.602  12.754 +0.00 -0.02    +0.473 P 
DOCKED: ATOM     30  O   UNL d   1     -18.105   3.957  11.720 +0.00 +0.01    -0.228 OA
DOCKED: BRANCH  29  31
DOCKED: ATOM     31  O   UNL d   1     -17.194   2.135  13.387 +0.00 +0.01    -0.303 OA
DOCKED: ATOM     32  H   UNL d   1     -17.091   2.208  14.364 +0.00 -0.01    +0.222 HD
DOCKED: ENDBRANCH  29  31
DOCKED: BRANCH  29  33
DOCKED: ATOM     33  O   UNL d   1     -17.028   4.537  14.041 +0.00 +0.01    -0.303 OA
DOCKED: ATOM     34  H   UNL d   1     -16.090   4.589  14.349 +0.00 -0.01    +0.222 HD
DOCKED: ENDBRANCH  29  33
DOCKED: ENDBRANCH  28  29
DOCKED: ENDBRANCH   3  28
DOCKED: BRANCH   5  35
DOCKED: ATOM     35  O   UNL d   1     -11.719   4.879  10.050 -0.14 +0.01    -0.278 OA
DOCKED: BRANCH  35  36
DOCKED: ATOM     36  P   UNL d   1     -11.264   5.357   8.598 -0.14 +0.01    +0.473 P 
DOCKED: ATOM     37  O   UNL d   1     -10.751   4.279   7.696 -0.74 -0.03    -0.228 OA
DOCKED: BRANCH  36  38
DOCKED: ATOM     38  O   UNL d   1     -12.577   6.085   8.068 -0.08 +0.01    -0.303 OA
DOCKED: ATOM     39  H   UNL d   1     -13.365   5.653   8.461 +0.05 -0.01    +0.222 HD
DOCKED: ENDBRANCH  36  38
DOCKED: BRANCH  36  40
DOCKED: ATOM     40  O   UNL d   1     -10.270   6.553   8.930 -0.36 +0.00    -0.303 OA
DOCKED: ATOM     41  H   UNL d   1     -10.403   6.895   9.842 +0.11 +0.00    +0.222 HD
DOCKED: ENDBRANCH  36  40
DOCKED: ENDBRANCH  35  36
DOCKED: ENDBRANCH   5  35
DOCKED: BRANCH   4  42
DOCKED: ATOM     42  O   UNL d   1     -14.549   4.299   9.670 -0.01 +0.01    -0.278 OA
DOCKED: BRANCH  42  43
DOCKED: ATOM     43  P   UNL d   1     -15.381   5.529   9.088 +0.00 -0.02    +0.473 P 
DOCKED: ATOM     44  O   UNL d   1     -14.968   6.897   9.507 -0.00 +0.01    -0.228 OA
DOCKED: BRANCH  43  45
DOCKED: ATOM     45  O   UNL d   1     -15.315   5.282   7.517 -0.00 +0.01    -0.303 OA
DOCKED: ATOM     46  H   UNL d   1     -14.473   5.605   7.139 +0.02 -0.01    +0.222 HD
DOCKED: ENDBRANCH  43  45
DOCKED: BRANCH  43  47
DOCKED: ATOM     47  O   UNL d   1     -16.899   5.133   9.417 +0.00 +0.01    -0.303 OA
DOCKED: ATOM     48  H   UNL d   1     -16.918   4.557  10.209 +0.00 -0.01    +0.222 HD
DOCKED: ENDBRANCH  43  47
DOCKED: ENDBRANCH  42  43
DOCKED: ENDBRANCH   4  42
DOCKED: TORSDOF 24
DOCKED: TER
DOCKED: ENDMDL
________________________________________________________________________________


	BEGINNING GENETIC ALGORITHM DOCKING 7 of 100
Run: 7 Seed: 1533265016 527543374 [ Run 7 of 100 GA/GALS ]
Beginning LAMARCKIAN GENETIC ALGORITHM (LGA), with a maximum of 25000000 energy evaluations.

Final-Value: -17.004


	FINAL GENETIC ALGORITHM DOCKED STATE
	_______________________________________________


Detailed state:  trans 9.987 12.190 -12.069 quatxyzw -0.667145 -0.018349 -0.164572 -0.726290 center 0.035 0.082 -0.065 ntor 24 159.4363 68.6325 141.5441 146.0344 121.9352 -110.5652 41.0193 38.2151 -33.1207 107.9747 40.3739 128.2875 -9.3858 -3.8521 66.1032 150.2344 -46.6248 -167.1476 5.7979 -31.3225 0.6469 175.9253 154.8775 -23.5934
State:	  9.987  12.190 -12.069  -0.971 -0.027 -0.239 -86.848    159.44   68.63  141.54  146.03  121.94 -110.57   41.02   38.22  -33.12  107.97   40.37  128.29   -9.39   -3.85   66.10  150.23  -46.62 -167.15    5.80  -31.32    0.65  175.93  154.88  -23.59

DOCKED: MODEL        7
DOCKED: USER    Run = 7
DOCKED: USER    DPF = D:/Protein_go_brrr/autodock/final/mut_N102T/IHP/dock.dpf
DOCKED: USER  
DOCKED: USER    Estimated Free Energy of Binding    =   +2.23 kcal/mol  [=(1)+(2)+(3)-(4)]
DOCKED: USER    
DOCKED: USER    (1) Final Intermolecular Energy     =   -4.92 kcal/mol
DOCKED: USER        vdW + Hbond + desolv Energy     =   -4.87 kcal/mol
DOCKED: USER        Electrostatic Energy            =   -0.05 kcal/mol
DOCKED: USER    (2) Final Total Internal Energy     =  -12.08 kcal/mol
DOCKED: USER    (3) Torsional Free Energy           =   +7.16 kcal/mol
DOCKED: USER    (4) Unbound System's Energy  [=(2)] =  -12.08 kcal/mol
DOCKED: USER    
DOCKED: USER    
DOCKED: USER    NEWDPF move IHP_ideal_opt.pdbqt
DOCKED: USER    NEWDPF about 0.035000 0.082000 -0.065000
DOCKED: USER    NEWDPF tran0 9.987040 12.189693 -12.068599
DOCKED: USER    NEWDPF quaternion0 -0.667145 -0.018349 -0.164572 -0.726290
DOCKED: USER    NEWDPF axisangle0 -0.970550 -0.026694 -0.239417 -86.847520
DOCKED: USER    NEWDPF quat0 -0.970550 -0.026694 -0.239417 -86.847520
DOCKED: USER    NEWDPF dihe0 159.44 68.63 141.54 146.03 121.94 -110.57 41.02 38.22 -33.12 107.97 40.37 128.29 -9.39 -3.85 66.10 150.23 -46.62 -167.15 5.80 -31.32 0.65 175.93 154.88 -23.59 
DOCKED: USER  keepresnum = 1 
DOCKED: USER  
DOCKED: REMARK  24 active torsions:
DOCKED: REMARK  status: ('A' for Active; 'I' for Inactive)
DOCKED: REMARK    1  A    between atoms: C_1  and  O_7 
DOCKED: REMARK    2  A    between atoms: C_2  and  O_12 
DOCKED: REMARK    3  A    between atoms: C_3  and  O_17 
DOCKED: REMARK    4  A    between atoms: C_4  and  O_22 
DOCKED: REMARK    5  A    between atoms: C_5  and  O_27 
DOCKED: REMARK    6  A    between atoms: C_6  and  O_32 
DOCKED: REMARK    7  A    between atoms: O_7  and  P_8 
DOCKED: REMARK    8  A    between atoms: P_8  and  O_10 
DOCKED: REMARK    9  A    between atoms: P_8  and  O_11 
DOCKED: REMARK   10  A    between atoms: O_12  and  P_13 
DOCKED: REMARK   11  A    between atoms: P_13  and  O_15 
DOCKED: REMARK   12  A    between atoms: P_13  and  O_16 
DOCKED: REMARK   13  A    between atoms: O_17  and  P_18 
DOCKED: REMARK   14  A    between atoms: P_18  and  O_20 
DOCKED: REMARK   15  A    between atoms: P_18  and  O_21 
DOCKED: REMARK   16  A    between atoms: O_22  and  P_23 
DOCKED: REMARK   17  A    between atoms: P_23  and  O_25 
DOCKED: REMARK   18  A    between atoms: P_23  and  O_26 
DOCKED: REMARK   19  A    between atoms: O_27  and  P_28 
DOCKED: REMARK   20  A    between atoms: P_28  and  O_30 
DOCKED: REMARK   21  A    between atoms: P_28  and  O_31 
DOCKED: REMARK   22  A    between atoms: O_32  and  P_33 
DOCKED: REMARK   23  A    between atoms: P_33  and  O_35 
DOCKED: REMARK   24  A    between atoms: P_33  and  O_36 
DOCKED: USER                              x       y       z     vdW  Elec       q    Type
DOCKED: USER                           _______ _______ _______ _____ _____    ______ ____
DOCKED: ROOT
DOCKED: ATOM      1  C   UNL d   1      11.090  12.643 -10.819 -0.02 -0.05    +0.194 C 
DOCKED: ATOM      2  C   UNL d   1       9.627  12.506 -10.392 -0.07 -0.06    +0.194 C 
DOCKED: ATOM      3  C   UNL d   1       8.678  13.132 -11.415 -0.07 -0.06    +0.194 C 
DOCKED: ATOM      4  C   UNL d   1       8.913  12.633 -12.838 -0.06 -0.05    +0.194 C 
DOCKED: ATOM      5  C   UNL d   1      10.375  12.644 -13.266 -0.02 -0.03    +0.194 C 
DOCKED: ATOM      6  C   UNL d   1      11.331  12.074 -12.217 -0.03 -0.04    +0.194 C 
DOCKED: ENDROOT
DOCKED: BRANCH   1   7
DOCKED: ATOM      7  O   UNL d   1      11.893  11.889  -9.907 -0.04 +0.08    -0.278 OA
DOCKED: BRANCH   7   8
DOCKED: ATOM      8  P   UNL d   1      12.958  12.669  -9.009 -0.03 -0.14    +0.473 P 
DOCKED: ATOM      9  O   UNL d   1      12.475  13.952  -8.429 -0.03 +0.10    -0.228 OA
DOCKED: BRANCH   8  10
DOCKED: ATOM     10  O   UNL d   1      13.388  11.602  -7.903 -0.50 +0.07    -0.303 OA
DOCKED: ATOM     11  H   UNL d   1      12.925  10.759  -8.065 +0.05 -0.03    +0.222 HD
DOCKED: ENDBRANCH   8  10
DOCKED: BRANCH   8  12
DOCKED: ATOM     12  O   UNL d   1      14.266  12.763  -9.906 -0.00 +0.05    -0.303 OA
DOCKED: ATOM     13  H   UNL d   1      14.078  12.692 -10.870 +0.01 -0.03    +0.222 HD
DOCKED: ENDBRANCH   8  12
DOCKED: ENDBRANCH   7   8
DOCKED: ENDBRANCH   1   7
DOCKED: BRANCH   2  14
DOCKED: ATOM     14  O   UNL d   1       9.307  11.115 -10.263 -0.13 +0.09    -0.278 OA
DOCKED: BRANCH  14  15
DOCKED: ATOM     15  P   UNL d   1       9.300  10.517  -8.778 -0.26 -0.19    +0.473 P 
DOCKED: ATOM     16  O   UNL d   1       8.487  11.254  -7.760 -0.68 +0.15    -0.228 OA
DOCKED: BRANCH  15  17
DOCKED: ATOM     17  O   UNL d   1       8.827   9.008  -8.970 -0.93 +0.02    -0.303 OA
DOCKED: ATOM     18  H   UNL d   1       9.300   8.583  -9.711 -0.43 -0.09    +0.222 HD
DOCKED: ENDBRANCH  15  17
DOCKED: BRANCH  15  19
DOCKED: ATOM     19  O   UNL d   1      10.838  10.326  -8.420 -0.09 +0.10    -0.303 OA
DOCKED: ATOM     20  H   UNL d   1      11.226  11.142  -8.053 +0.05 -0.13    +0.222 HD
DOCKED: ENDBRANCH  15  19
DOCKED: ENDBRANCH  14  15
DOCKED: ENDBRANCH   2  14
DOCKED: BRANCH   6  21
DOCKED: ATOM     21  O   UNL d   1      12.647  12.462 -12.605 -0.00 +0.04    -0.278 OA
DOCKED: BRANCH  21  22
DOCKED: ATOM     22  P   UNL d   1      13.604  11.407 -13.325 -0.00 -0.05    +0.473 P 
DOCKED: ATOM     23  O   UNL d   1      13.675  11.421 -14.814 -0.01 +0.01    -0.228 OA
DOCKED: BRANCH  22  24
DOCKED: ATOM     24  O   UNL d   1      14.990  11.670 -12.588 -0.00 +0.03    -0.303 OA
DOCKED: ATOM     25  H   UNL d   1      14.847  11.563 -11.613 +0.01 -0.03    +0.222 HD
DOCKED: ENDBRANCH  22  24
DOCKED: BRANCH  22  26
DOCKED: ATOM     26  O   UNL d   1      13.131  10.029 -12.656 -0.04 +0.04    -0.303 OA
DOCKED: ATOM     27  H   UNL d   1      12.272   9.762 -13.044 +0.05 -0.03    +0.222 HD
DOCKED: ENDBRANCH  22  26
DOCKED: ENDBRANCH  21  22
DOCKED: ENDBRANCH   6  21
DOCKED: BRANCH   3  28
DOCKED: ATOM     28  O   UNL d   1       7.358  12.720 -11.084 -0.16 +0.10    -0.278 OA
DOCKED: BRANCH  28  29
DOCKED: ATOM     29  P   UNL d   1       6.888  11.224 -11.367 -0.06 -0.16    +0.473 P 
DOCKED: ATOM     30  O   UNL d   1       6.365  10.484 -10.190 -0.39 +0.05    -0.228 OA
DOCKED: BRANCH  29  31
DOCKED: ATOM     31  O   UNL d   1       5.872  11.476 -12.577 -0.01 +0.16    -0.303 OA
DOCKED: ATOM     32  H   UNL d   1       6.364  11.378 -13.425 +0.09 -0.10    +0.222 HD
DOCKED: ENDBRANCH  29  31
DOCKED: BRANCH  29  33
DOCKED: ATOM     33  O   UNL d   1       8.160  10.607 -12.098 -0.17 +0.09    -0.303 OA
DOCKED: ATOM     34  H   UNL d   1       8.704  10.115 -11.435 +0.08 -0.07    +0.222 HD
DOCKED: ENDBRANCH  29  33
DOCKED: ENDBRANCH  28  29
DOCKED: ENDBRANCH   3  28
DOCKED: BRANCH   5  35
DOCKED: ATOM     35  O   UNL d   1      10.450  11.794 -14.409 -0.03 +0.04    -0.278 OA
DOCKED: BRANCH  35  36
DOCKED: ATOM     36  P   UNL d   1      10.370  10.210 -14.240 -0.12 -0.05    +0.473 P 
DOCKED: ATOM     37  O   UNL d   1      10.269   9.716 -12.832 -0.22 +0.05    -0.228 OA
DOCKED: BRANCH  36  38
DOCKED: ATOM     38  O   UNL d   1       9.117   9.847 -15.153 -0.20 +0.01    -0.303 OA
DOCKED: ATOM     39  H   UNL d   1       8.341   9.673 -14.578 +0.09 -0.03    +0.222 HD
DOCKED: ENDBRANCH  36  38
DOCKED: BRANCH  36  40
DOCKED: ATOM     40  O   UNL d   1      11.619   9.714 -15.091 -0.09 +0.00    -0.303 OA
DOCKED: ATOM     41  H   UNL d   1      12.470   9.997 -14.688 +0.04 -0.01    +0.222 HD
DOCKED: ENDBRANCH  36  40
DOCKED: ENDBRANCH  35  36
DOCKED: ENDBRANCH   5  35
DOCKED: BRANCH   4  42
DOCKED: ATOM     42  O   UNL d   1       8.212  13.525 -13.712 -0.03 +0.07    -0.278 OA
DOCKED: BRANCH  42  43
DOCKED: ATOM     43  P   UNL d   1       7.329  12.914 -14.891 -0.06 -0.21    +0.473 P 
DOCKED: ATOM     44  O   UNL d   1       7.668  13.318 -16.284 -0.06 +0.10    -0.228 OA
DOCKED: BRANCH  43  45
DOCKED: ATOM     45  O   UNL d   1       7.427  11.348 -14.625 -0.18 +0.15    -0.303 OA
DOCKED: ATOM     46  H   UNL d   1       8.293  11.103 -14.243 +0.08 -0.07    +0.222 HD
DOCKED: ENDBRANCH  43  45
DOCKED: BRANCH  43  47
DOCKED: ATOM     47  O   UNL d   1       5.827  13.229 -14.426 -0.15 +0.15    -0.303 OA
DOCKED: ATOM     48  H   UNL d   1       5.695  12.894 -13.515 -0.05 -0.12    +0.222 HD
DOCKED: ENDBRANCH  43  47
DOCKED: ENDBRANCH  42  43
DOCKED: ENDBRANCH   4  42
DOCKED: TORSDOF 24
DOCKED: TER
DOCKED: ENDMDL
________________________________________________________________________________


	BEGINNING GENETIC ALGORITHM DOCKING 8 of 100
Run: 8 Seed: 468405534 1587348195 [ Run 8 of 100 GA/GALS ]
Beginning LAMARCKIAN GENETIC ALGORITHM (LGA), with a maximum of 25000000 energy evaluations.

Final-Value: -17.395


	FINAL GENETIC ALGORITHM DOCKED STATE
	_______________________________________________


Detailed state:  trans 12.830 1.163 13.746 quatxyzw -0.024618 0.611053 0.477963 0.630523 center 0.035 0.082 -0.065 ntor 24 92.9999 74.6002 33.5647 124.3709 8.3725 110.2298 -46.5957 4.2114 151.4545 11.7925 -180.0000 -93.2211 148.5907 -64.0820 -70.2572 4.5787 165.0391 91.7062 56.2790 11.5313 180.0000 -21.0883 177.6178 23.2740
State:	 12.830   1.163  13.746  -0.032  0.787  0.616 101.823     93.00   74.60   33.56  124.37    8.37  110.23  -46.60    4.21  151.45   11.79 -180.00  -93.22  148.59  -64.08  -70.26    4.58  165.04   91.71   56.28   11.53  180.00  -21.09  177.62   23.27

DOCKED: MODEL        8
DOCKED: USER    Run = 8
DOCKED: USER    DPF = D:/Protein_go_brrr/autodock/final/mut_N102T/IHP/dock.dpf
DOCKED: USER  
DOCKED: USER    Estimated Free Energy of Binding    =   +2.88 kcal/mol  [=(1)+(2)+(3)-(4)]
DOCKED: USER    
DOCKED: USER    (1) Final Intermolecular Energy     =   -4.27 kcal/mol
DOCKED: USER        vdW + Hbond + desolv Energy     =   -4.20 kcal/mol
DOCKED: USER        Electrostatic Energy            =   -0.07 kcal/mol
DOCKED: USER    (2) Final Total Internal Energy     =  -13.12 kcal/mol
DOCKED: USER    (3) Torsional Free Energy           =   +7.16 kcal/mol
DOCKED: USER    (4) Unbound System's Energy  [=(2)] =  -13.12 kcal/mol
DOCKED: USER    
DOCKED: USER    
DOCKED: USER    NEWDPF move IHP_ideal_opt.pdbqt
DOCKED: USER    NEWDPF about 0.035000 0.082000 -0.065000
DOCKED: USER    NEWDPF tran0 12.829993 1.162858 13.745638
DOCKED: USER    NEWDPF quaternion0 -0.024618 0.611053 0.477963 0.630523
DOCKED: USER    NEWDPF axisangle0 -0.031717 0.787266 0.615797 101.822518
DOCKED: USER    NEWDPF quat0 -0.031717 0.787266 0.615797 101.822518
DOCKED: USER    NEWDPF dihe0 93.00 74.60 33.56 124.37 8.37 110.23 -46.60 4.21 151.45 11.79 -180.00 -93.22 148.59 -64.08 -70.26 4.58 165.04 91.71 56.28 11.53 180.00 -21.09 177.62 23.27 
DOCKED: USER  keepresnum = 1 
DOCKED: USER  
DOCKED: REMARK  24 active torsions:
DOCKED: REMARK  status: ('A' for Active; 'I' for Inactive)
DOCKED: REMARK    1  A    between atoms: C_1  and  O_7 
DOCKED: REMARK    2  A    between atoms: C_2  and  O_12 
DOCKED: REMARK    3  A    between atoms: C_3  and  O_17 
DOCKED: REMARK    4  A    between atoms: C_4  and  O_22 
DOCKED: REMARK    5  A    between atoms: C_5  and  O_27 
DOCKED: REMARK    6  A    between atoms: C_6  and  O_32 
DOCKED: REMARK    7  A    between atoms: O_7  and  P_8 
DOCKED: REMARK    8  A    between atoms: P_8  and  O_10 
DOCKED: REMARK    9  A    between atoms: P_8  and  O_11 
DOCKED: REMARK   10  A    between atoms: O_12  and  P_13 
DOCKED: REMARK   11  A    between atoms: P_13  and  O_15 
DOCKED: REMARK   12  A    between atoms: P_13  and  O_16 
DOCKED: REMARK   13  A    between atoms: O_17  and  P_18 
DOCKED: REMARK   14  A    between atoms: P_18  and  O_20 
DOCKED: REMARK   15  A    between atoms: P_18  and  O_21 
DOCKED: REMARK   16  A    between atoms: O_22  and  P_23 
DOCKED: REMARK   17  A    between atoms: P_23  and  O_25 
DOCKED: REMARK   18  A    between atoms: P_23  and  O_26 
DOCKED: REMARK   19  A    between atoms: O_27  and  P_28 
DOCKED: REMARK   20  A    between atoms: P_28  and  O_30 
DOCKED: REMARK   21  A    between atoms: P_28  and  O_31 
DOCKED: REMARK   22  A    between atoms: O_32  and  P_33 
DOCKED: REMARK   23  A    between atoms: P_33  and  O_35 
DOCKED: REMARK   24  A    between atoms: P_33  and  O_36 
DOCKED: USER                              x       y       z     vdW  Elec       q    Type
DOCKED: USER                           _______ _______ _______ _____ _____    ______ ____
DOCKED: ROOT
DOCKED: ATOM      1  C   UNL d   1      11.438   0.326  14.335 -0.08 +0.06    +0.194 C 
DOCKED: ATOM      2  C   UNL d   1      11.525   0.476  12.815 -0.10 +0.06    +0.194 C 
DOCKED: ATOM      3  C   UNL d   1      11.976   1.881  12.409 -0.17 +0.06    +0.194 C 
DOCKED: ATOM      4  C   UNL d   1      13.259   2.325  13.107 -0.11 +0.06    +0.194 C 
DOCKED: ATOM      5  C   UNL d   1      13.262   2.088  14.612 -0.09 +0.08    +0.194 C 
DOCKED: ATOM      6  C   UNL d   1      12.752   0.704  15.021 -0.04 +0.06    +0.194 C 
DOCKED: ENDROOT
DOCKED: BRANCH   1   7
DOCKED: ATOM      7  O   UNL d   1      11.181  -1.048  14.633 -0.02 -0.07    -0.278 OA
DOCKED: BRANCH   7   8
DOCKED: ATOM      8  P   UNL d   1       9.780  -1.672  14.189 -0.01 +0.11    +0.473 P 
DOCKED: ATOM      9  O   UNL d   1       9.383  -2.910  14.913 -0.02 -0.04    -0.228 OA
DOCKED: BRANCH   8  10
DOCKED: ATOM     10  O   UNL d   1       8.745  -0.474  14.380 -0.16 -0.07    -0.303 OA
DOCKED: ATOM     11  H   UNL d   1       8.683  -0.242  15.325 +0.08 +0.09    +0.222 HD
DOCKED: ENDBRANCH   8  10
DOCKED: BRANCH   8  12
DOCKED: ATOM     12  O   UNL d   1       9.864  -1.791  12.607 -0.05 -0.10    -0.303 OA
DOCKED: ATOM     13  H   UNL d   1      10.781  -1.925  12.278 +0.05 +0.10    +0.222 HD
DOCKED: ENDBRANCH   8  12
DOCKED: ENDBRANCH   7   8
DOCKED: ENDBRANCH   1   7
DOCKED: BRANCH   2  14
DOCKED: ATOM     14  O   UNL d   1      12.471  -0.472  12.305 -0.02 -0.09    -0.278 OA
DOCKED: BRANCH  14  15
DOCKED: ATOM     15  P   UNL d   1      12.121  -1.144  10.894 -0.07 +0.28    +0.473 P 
DOCKED: ATOM     16  O   UNL d   1      10.758  -0.872  10.339 -0.70 -0.17    -0.228 OA
DOCKED: BRANCH  15  17
DOCKED: ATOM     17  O   UNL d   1      13.290  -0.651   9.930 -0.06 -0.16    -0.303 OA
DOCKED: ATOM     18  H   UNL d   1      13.284   0.321   9.840 +0.07 +0.08    +0.222 HD
DOCKED: ENDBRANCH  15  17
DOCKED: BRANCH  15  19
DOCKED: ATOM     19  O   UNL d   1      12.490  -2.680  11.084 -0.10 -0.26    -0.303 OA
DOCKED: ATOM     20  H   UNL d   1      11.923  -3.107  11.752 +0.03 +0.16    +0.222 HD
DOCKED: ENDBRANCH  15  19
DOCKED: ENDBRANCH  14  15
DOCKED: ENDBRANCH   2  14
DOCKED: BRANCH   6  21
DOCKED: ATOM     21  O   UNL d   1      12.491   0.759  16.422 -0.03 -0.09    -0.278 OA
DOCKED: BRANCH  21  22
DOCKED: ATOM     22  P   UNL d   1      11.164   1.466  16.953 -0.12 +0.23    +0.473 P 
DOCKED: ATOM     23  O   UNL d   1      10.723   2.727  16.290 -0.63 -0.19    -0.228 OA
DOCKED: BRANCH  22  24
DOCKED: ATOM     24  O   UNL d   1      10.111   0.274  16.888 -0.18 -0.14    -0.303 OA
DOCKED: ATOM     25  H   UNL d   1      10.077  -0.056  15.954 +0.06 +0.09    +0.222 HD
DOCKED: ENDBRANCH  22  24
DOCKED: BRANCH  22  26
DOCKED: ATOM     26  O   UNL d   1      11.455   1.564  18.527 -0.09 -0.13    -0.303 OA
DOCKED: ATOM     27  H   UNL d   1      11.523   0.661  18.898 +0.03 +0.06    +0.222 HD
DOCKED: ENDBRANCH  22  26
DOCKED: ENDBRANCH  21  22
DOCKED: ENDBRANCH   6  21
DOCKED: BRANCH   3  28
DOCKED: ATOM     28  O   UNL d   1      12.294   1.845  11.023 -0.13 -0.08    -0.278 OA
DOCKED: BRANCH  28  29
DOCKED: ATOM     29  P   UNL d   1      11.172   2.143   9.933 -0.29 +0.12    +0.473 P 
DOCKED: ATOM     30  O   UNL d   1       9.770   1.961  10.390 -0.28 -0.06    -0.228 OA
DOCKED: BRANCH  29  31
DOCKED: ATOM     31  O   UNL d   1      11.604   3.617   9.484 -0.27 -0.05    -0.303 OA
DOCKED: ATOM     32  H   UNL d   1      12.446   3.850   9.938 +0.10 +0.05    +0.222 HD
DOCKED: ENDBRANCH  29  31
DOCKED: BRANCH  29  33
DOCKED: ATOM     33  O   UNL d   1      11.651   1.248   8.707 -0.36 -0.10    -0.303 OA
DOCKED: ATOM     34  H   UNL d   1      11.625   0.296   8.975 +0.10 +0.12    +0.222 HD
DOCKED: ENDBRANCH  29  33
DOCKED: ENDBRANCH  28  29
DOCKED: ENDBRANCH   3  28
DOCKED: BRANCH   5  35
DOCKED: ATOM     35  O   UNL d   1      14.627   2.167  15.014 -0.02 -0.09    -0.278 OA
DOCKED: BRANCH  35  36
DOCKED: ATOM     36  P   UNL d   1      15.738   1.301  14.267 +0.00 +0.09    +0.473 P 
DOCKED: ATOM     37  O   UNL d   1      16.916   0.904  15.100 -0.00 -0.03    -0.228 OA
DOCKED: BRANCH  36  38
DOCKED: ATOM     38  O   UNL d   1      14.882   0.075  13.719 +0.00 -0.06    -0.303 OA
DOCKED: ATOM     39  H   UNL d   1      14.432   0.343  12.889 +0.02 +0.05    +0.222 HD
DOCKED: ENDBRANCH  36  38
DOCKED: BRANCH  36  40
DOCKED: ATOM     40  O   UNL d   1      16.033   2.172  12.969 -0.01 -0.06    -0.303 OA
DOCKED: ATOM     41  H   UNL d   1      15.242   2.683  12.686 +0.03 +0.05    +0.222 HD
DOCKED: ENDBRANCH  36  40
DOCKED: ENDBRANCH  35  36
DOCKED: ENDBRANCH   5  35
DOCKED: BRANCH   4  42
DOCKED: ATOM     42  O   UNL d   1      13.374   3.738  12.904 -0.15 -0.12    -0.278 OA
DOCKED: BRANCH  42  43
DOCKED: ATOM     43  P   UNL d   1      14.109   4.271  11.592 -0.13 +0.13    +0.473 P 
DOCKED: ATOM     44  O   UNL d   1      13.486   5.419  10.875 -0.32 -0.06    -0.228 OA
DOCKED: BRANCH  43  45
DOCKED: ATOM     45  O   UNL d   1      15.587   4.552  12.110 -0.04 -0.07    -0.303 OA
DOCKED: ATOM     46  H   UNL d   1      16.216   3.880  11.779 +0.03 +0.04    +0.222 HD
DOCKED: ENDBRANCH  43  45
DOCKED: BRANCH  43  47
DOCKED: ATOM     47  O   UNL d   1      14.315   2.941  10.722 -0.07 -0.07    -0.303 OA
DOCKED: ATOM     48  H   UNL d   1      13.508   2.773  10.193 +0.09 +0.05    +0.222 HD
DOCKED: ENDBRANCH  43  47
DOCKED: ENDBRANCH  42  43
DOCKED: ENDBRANCH   4  42
DOCKED: TORSDOF 24
DOCKED: TER
DOCKED: ENDMDL
________________________________________________________________________________


	BEGINNING GENETIC ALGORITHM DOCKING 9 of 100
Run: 9 Seed: 809956690 1722434043 [ Run 9 of 100 GA/GALS ]
Beginning LAMARCKIAN GENETIC ALGORITHM (LGA), with a maximum of 25000000 energy evaluations.

Final-Value: -19.005


	FINAL GENETIC ALGORITHM DOCKED STATE
	_______________________________________________


Detailed state:  trans 1.414 10.726 19.793 quatxyzw -0.073674 -0.304855 0.948398 -0.046652 center 0.035 0.082 -0.065 ntor 24 -169.4866 -174.5271 141.1856 8.4171 88.9728 -129.3819 -12.8435 37.3858 154.3991 -37.9985 24.5043 169.3843 -107.6204 -179.8721 117.3955 123.5068 -149.3973 12.7346 51.2841 7.7458 -12.6874 -2.8458 4.8999 169.3224
State:	  1.414  10.726  19.793  -0.074 -0.305  0.949 -174.652   -169.49 -174.53  141.19    8.42   88.97 -129.38  -12.84   37.39  154.40  -38.00   24.50  169.38 -107.62 -179.87  117.40  123.51 -149.40   12.73   51.28    7.75  -12.69   -2.85    4.90  169.32

DOCKED: MODEL        9
DOCKED: USER    Run = 9
DOCKED: USER    DPF = D:/Protein_go_brrr/autodock/final/mut_N102T/IHP/dock.dpf
DOCKED: USER  
DOCKED: USER    Estimated Free Energy of Binding    =   +2.28 kcal/mol  [=(1)+(2)+(3)-(4)]
DOCKED: USER    
DOCKED: USER    (1) Final Intermolecular Energy     =   -4.88 kcal/mol
DOCKED: USER        vdW + Hbond + desolv Energy     =   -4.87 kcal/mol
DOCKED: USER        Electrostatic Energy            =   -0.01 kcal/mol
DOCKED: USER    (2) Final Total Internal Energy     =  -14.12 kcal/mol
DOCKED: USER    (3) Torsional Free Energy           =   +7.16 kcal/mol
DOCKED: USER    (4) Unbound System's Energy  [=(2)] =  -14.12 kcal/mol
DOCKED: USER    
DOCKED: USER    
DOCKED: USER    NEWDPF move IHP_ideal_opt.pdbqt
DOCKED: USER    NEWDPF about 0.035000 0.082000 -0.065000
DOCKED: USER    NEWDPF tran0 1.413542 10.726058 19.792570
DOCKED: USER    NEWDPF quaternion0 -0.073674 -0.304855 0.948398 -0.046652
DOCKED: USER    NEWDPF axisangle0 -0.073754 -0.305188 0.949432 -174.652165
DOCKED: USER    NEWDPF quat0 -0.073754 -0.305188 0.949432 -174.652165
DOCKED: USER    NEWDPF dihe0 -169.49 -174.53 141.19 8.42 88.97 -129.38 -12.84 37.39 154.40 -38.00 24.50 169.38 -107.62 -179.87 117.40 123.51 -149.40 12.73 51.28 7.75 -12.69 -2.85 4.90 169.32 
DOCKED: USER  keepresnum = 1 
DOCKED: USER  
DOCKED: REMARK  24 active torsions:
DOCKED: REMARK  status: ('A' for Active; 'I' for Inactive)
DOCKED: REMARK    1  A    between atoms: C_1  and  O_7 
DOCKED: REMARK    2  A    between atoms: C_2  and  O_12 
DOCKED: REMARK    3  A    between atoms: C_3  and  O_17 
DOCKED: REMARK    4  A    between atoms: C_4  and  O_22 
DOCKED: REMARK    5  A    between atoms: C_5  and  O_27 
DOCKED: REMARK    6  A    between atoms: C_6  and  O_32 
DOCKED: REMARK    7  A    between atoms: O_7  and  P_8 
DOCKED: REMARK    8  A    between atoms: P_8  and  O_10 
DOCKED: REMARK    9  A    between atoms: P_8  and  O_11 
DOCKED: REMARK   10  A    between atoms: O_12  and  P_13 
DOCKED: REMARK   11  A    between atoms: P_13  and  O_15 
DOCKED: REMARK   12  A    between atoms: P_13  and  O_16 
DOCKED: REMARK   13  A    between atoms: O_17  and  P_18 
DOCKED: REMARK   14  A    between atoms: P_18  and  O_20 
DOCKED: REMARK   15  A    between atoms: P_18  and  O_21 
DOCKED: REMARK   16  A    between atoms: O_22  and  P_23 
DOCKED: REMARK   17  A    between atoms: P_23  and  O_25 
DOCKED: REMARK   18  A    between atoms: P_23  and  O_26 
DOCKED: REMARK   19  A    between atoms: O_27  and  P_28 
DOCKED: REMARK   20  A    between atoms: P_28  and  O_30 
DOCKED: REMARK   21  A    between atoms: P_28  and  O_31 
DOCKED: REMARK   22  A    between atoms: O_32  and  P_33 
DOCKED: REMARK   23  A    between atoms: P_33  and  O_35 
DOCKED: REMARK   24  A    between atoms: P_33  and  O_36 
DOCKED: USER                              x       y       z     vdW  Elec       q    Type
DOCKED: USER                           _______ _______ _______ _____ _____    ______ ____
DOCKED: ROOT
DOCKED: ATOM      1  C   UNL d   1       0.085  11.160  20.808 -0.05 -0.04    +0.194 C 
DOCKED: ATOM      2  C   UNL d   1       1.411  11.856  21.121 -0.07 -0.05    +0.194 C 
DOCKED: ATOM      3  C   UNL d   1       2.589  10.880  21.067 -0.11 -0.05    +0.194 C 
DOCKED: ATOM      4  C   UNL d   1       2.649  10.081  19.768 -0.21 -0.07    +0.194 C 
DOCKED: ATOM      5  C   UNL d   1       1.318   9.464  19.357 -0.20 -0.06    +0.194 C 
DOCKED: ATOM      6  C   UNL d   1       0.130  10.422  19.470 -0.15 -0.05    +0.194 C 
DOCKED: ENDROOT
DOCKED: BRANCH   1   7
DOCKED: ATOM      7  O   UNL d   1      -0.931  12.161  20.709 -0.04 +0.05    -0.278 OA
DOCKED: BRANCH   7   8
DOCKED: ATOM      8  P   UNL d   1      -1.408  12.894  22.046 +0.00 -0.07    +0.473 P 
DOCKED: ATOM      9  O   UNL d   1      -1.895  11.988  23.122 -0.00 +0.03    -0.228 OA
DOCKED: BRANCH   8  10
DOCKED: ATOM     10  O   UNL d   1      -0.145  13.766  22.481 -0.01 +0.05    -0.303 OA
DOCKED: ATOM     11  H   UNL d   1       0.335  14.065  21.687 +0.04 -0.05    +0.222 HD
DOCKED: ENDBRANCH   8  10
DOCKED: BRANCH   8  12
DOCKED: ATOM     12  O   UNL d   1      -2.432  14.009  21.562 -0.01 +0.04    -0.303 OA
DOCKED: ATOM     13  H   UNL d   1      -3.210  14.101  22.157 +0.01 -0.02    +0.222 HD
DOCKED: ENDBRANCH   8  12
DOCKED: ENDBRANCH   7   8
DOCKED: ENDBRANCH   1   7
DOCKED: BRANCH   2  14
DOCKED: ATOM     14  O   UNL d   1       1.633  12.893  20.158 -0.19 +0.14    -0.278 OA
DOCKED: BRANCH  14  15
DOCKED: ATOM     15  P   UNL d   1       2.234  14.269  20.713 -0.12 -0.27    +0.473 P 
DOCKED: ATOM     16  O   UNL d   1       1.453  15.511  20.419 -0.22 +0.09    -0.228 OA
DOCKED: BRANCH  15  17
DOCKED: ATOM     17  O   UNL d   1       2.417  14.010  22.275 -0.02 +0.08    -0.303 OA
DOCKED: ATOM     18  H   UNL d   1       2.829  13.141  22.441 +0.04 -0.05    +0.222 HD
DOCKED: ENDBRANCH  15  17
DOCKED: BRANCH  15  19
DOCKED: ATOM     19  O   UNL d   1       3.744  14.274  20.212 -0.15 +0.27    -0.303 OA
DOCKED: ATOM     20  H   UNL d   1       4.204  13.446  20.444 +0.05 -0.13    +0.222 HD
DOCKED: ENDBRANCH  15  19
DOCKED: ENDBRANCH  14  15
DOCKED: ENDBRANCH   2  14
DOCKED: BRANCH   6  21
DOCKED: ATOM     21  O   UNL d   1      -1.050   9.626  19.391 -0.05 +0.06    -0.278 OA
DOCKED: BRANCH  21  22
DOCKED: ATOM     22  P   UNL d   1      -2.043   9.803  18.155 -0.10 -0.14    +0.473 P 
DOCKED: ATOM     23  O   UNL d   1      -2.788   8.604  17.673 -0.16 +0.07    -0.228 OA
DOCKED: BRANCH  22  24
DOCKED: ATOM     24  O   UNL d   1      -2.961  11.007  18.644 -0.06 +0.06    -0.303 OA
DOCKED: ATOM     25  H   UNL d   1      -2.459  11.518  19.329 +0.05 -0.04    +0.222 HD
DOCKED: ENDBRANCH  22  24
DOCKED: BRANCH  22  26
DOCKED: ATOM     26  O   UNL d   1      -1.098  10.523  17.078 -0.27 +0.14    -0.303 OA
DOCKED: ATOM     27  H   UNL d   1      -0.306   9.968  16.923 -0.07 -0.10    +0.222 HD
DOCKED: ENDBRANCH  22  26
DOCKED: ENDBRANCH  21  22
DOCKED: ENDBRANCH   6  21
DOCKED: BRANCH   3  28
DOCKED: ATOM     28  O   UNL d   1       3.784  11.650  21.092 -0.13 +0.08    -0.278 OA
DOCKED: BRANCH  28  29
DOCKED: ATOM     29  P   UNL d   1       4.699  11.674  22.396 -0.02 -0.08    +0.473 P 
DOCKED: ATOM     30  O   UNL d   1       5.861  10.749  22.380 -0.05 +0.02    -0.228 OA
DOCKED: BRANCH  29  31
DOCKED: ATOM     31  O   UNL d   1       5.018  13.240  22.484 -0.02 +0.06    -0.303 OA
DOCKED: ATOM     32  H   UNL d   1       4.207  13.740  22.235 +0.04 -0.06    +0.222 HD
DOCKED: ENDBRANCH  29  31
DOCKED: BRANCH  29  33
DOCKED: ATOM     33  O   UNL d   1       3.630  11.468  23.557 -0.00 +0.04    -0.303 OA
DOCKED: ATOM     34  H   UNL d   1       3.603  10.510  23.803 +0.02 -0.03    +0.222 HD
DOCKED: ENDBRANCH  29  33
DOCKED: ENDBRANCH  28  29
DOCKED: ENDBRANCH   3  28
DOCKED: BRANCH   5  35
DOCKED: ATOM     35  O   UNL d   1       1.457   9.128  17.978 -0.34 +0.09    -0.278 OA
DOCKED: BRANCH  35  36
DOCKED: ATOM     36  P   UNL d   1       0.946   7.717  17.438 -0.25 -0.14    +0.473 P 
DOCKED: ATOM     37  O   UNL d   1       2.015   6.714  17.141 -0.48 +0.07    -0.228 OA
DOCKED: BRANCH  36  38
DOCKED: ATOM     38  O   UNL d   1      -0.065   7.275  18.587 -0.13 +0.09    -0.303 OA
DOCKED: ATOM     39  H   UNL d   1      -0.941   7.684  18.419 +0.11 -0.06    +0.222 HD
DOCKED: ENDBRANCH  36  38
DOCKED: BRANCH  36  40
DOCKED: ATOM     40  O   UNL d   1      -0.004   8.137  16.234 -0.15 +0.12    -0.303 OA
DOCKED: ATOM     41  H   UNL d   1      -0.887   8.429  16.551 -0.45 -0.14    +0.222 HD
DOCKED: ENDBRANCH  36  40
DOCKED: ENDBRANCH  35  36
DOCKED: ENDBRANCH   5  35
DOCKED: BRANCH   4  42
DOCKED: ATOM     42  O   UNL d   1       3.564   9.002  19.987 -0.10 +0.11    -0.278 OA
DOCKED: BRANCH  42  43
DOCKED: ATOM     43  P   UNL d   1       3.273   7.973  21.171 -0.10 -0.12    +0.473 P 
DOCKED: ATOM     44  O   UNL d   1       1.981   7.233  21.137 -0.10 +0.06    -0.228 OA
DOCKED: BRANCH  43  45
DOCKED: ATOM     45  O   UNL d   1       4.560   7.037  21.144 -0.14 +0.10    -0.303 OA
DOCKED: ATOM     46  H   UNL d   1       4.758   6.727  20.238 -0.50 -0.14    +0.222 HD
DOCKED: ENDBRANCH  43  45
DOCKED: BRANCH  43  47
DOCKED: ATOM     47  O   UNL d   1       3.534   8.848  22.489 -0.02 +0.05    -0.303 OA
DOCKED: ATOM     48  H   UNL d   1       3.971   9.688  22.237 +0.04 -0.04    +0.222 HD
DOCKED: ENDBRANCH  43  47
DOCKED: ENDBRANCH  42  43
DOCKED: ENDBRANCH   4  42
DOCKED: TORSDOF 24
DOCKED: TER
DOCKED: ENDMDL
________________________________________________________________________________


	BEGINNING GENETIC ALGORITHM DOCKING 10 of 100
Run: 10 Seed: 1338959174 942515719 [ Run 10 of 100 GA/GALS ]
Beginning LAMARCKIAN GENETIC ALGORITHM (LGA), with a maximum of 25000000 energy evaluations.

Final-Value: -17.341


	FINAL GENETIC ALGORITHM DOCKED STATE
	_______________________________________________


Detailed state:  trans -7.202 11.404 -5.288 quatxyzw 0.365546 0.579858 -0.453690 -0.569479 center 0.035 0.082 -0.065 ntor 24 180.0000 156.1656 127.7323 -41.4891 2.7438 176.6302 28.7278 -59.6817 16.0188 -39.4956 94.8100 167.6724 93.0204 70.2198 167.0461 -60.3024 -121.6859 -115.8646 0.9194 -42.3459 -23.4004 22.4825 -0.7395 -12.8744
State:	 -7.202  11.404  -5.288   0.445  0.705 -0.552 -110.572    180.00  156.17  127.73  -41.49    2.74  176.63   28.73  -59.68   16.02  -39.50   94.81  167.67   93.02   70.22  167.05  -60.30 -121.69 -115.86    0.92  -42.35  -23.40   22.48   -0.74  -12.87

DOCKED: MODEL       10
DOCKED: USER    Run = 10
DOCKED: USER    DPF = D:/Protein_go_brrr/autodock/final/mut_N102T/IHP/dock.dpf
DOCKED: USER  
DOCKED: USER    Estimated Free Energy of Binding    =   +3.96 kcal/mol  [=(1)+(2)+(3)-(4)]
DOCKED: USER    
DOCKED: USER    (1) Final Intermolecular Energy     =   -3.20 kcal/mol
DOCKED: USER        vdW + Hbond + desolv Energy     =   -3.07 kcal/mol
DOCKED: USER        Electrostatic Energy            =   -0.12 kcal/mol
DOCKED: USER    (2) Final Total Internal Energy     =  -14.14 kcal/mol
DOCKED: USER    (3) Torsional Free Energy           =   +7.16 kcal/mol
DOCKED: USER    (4) Unbound System's Energy  [=(2)] =  -14.14 kcal/mol
DOCKED: USER    
DOCKED: USER    
DOCKED: USER    NEWDPF move IHP_ideal_opt.pdbqt
DOCKED: USER    NEWDPF about 0.035000 0.082000 -0.065000
DOCKED: USER    NEWDPF tran0 -7.201708 11.404025 -5.287870
DOCKED: USER    NEWDPF quaternion0 0.365546 0.579858 -0.453690 -0.569479
DOCKED: USER    NEWDPF axisangle0 0.444700 0.705418 -0.551931 -110.572163
DOCKED: USER    NEWDPF quat0 0.444700 0.705418 -0.551931 -110.572163
DOCKED: USER    NEWDPF dihe0 180.00 156.17 127.73 -41.49 2.74 176.63 28.73 -59.68 16.02 -39.50 94.81 167.67 93.02 70.22 167.05 -60.30 -121.69 -115.86 0.92 -42.35 -23.40 22.48 -0.74 -12.87 
DOCKED: USER  keepresnum = 1 
DOCKED: USER  
DOCKED: REMARK  24 active torsions:
DOCKED: REMARK  status: ('A' for Active; 'I' for Inactive)
DOCKED: REMARK    1  A    between atoms: C_1  and  O_7 
DOCKED: REMARK    2  A    between atoms: C_2  and  O_12 
DOCKED: REMARK    3  A    between atoms: C_3  and  O_17 
DOCKED: REMARK    4  A    between atoms: C_4  and  O_22 
DOCKED: REMARK    5  A    between atoms: C_5  and  O_27 
DOCKED: REMARK    6  A    between atoms: C_6  and  O_32 
DOCKED: REMARK    7  A    between atoms: O_7  and  P_8 
DOCKED: REMARK    8  A    between atoms: P_8  and  O_10 
DOCKED: REMARK    9  A    between atoms: P_8  and  O_11 
DOCKED: REMARK   10  A    between atoms: O_12  and  P_13 
DOCKED: REMARK   11  A    between atoms: P_13  and  O_15 
DOCKED: REMARK   12  A    between atoms: P_13  and  O_16 
DOCKED: REMARK   13  A    between atoms: O_17  and  P_18 
DOCKED: REMARK   14  A    between atoms: P_18  and  O_20 
DOCKED: REMARK   15  A    between atoms: P_18  and  O_21 
DOCKED: REMARK   16  A    between atoms: O_22  and  P_23 
DOCKED: REMARK   17  A    between atoms: P_23  and  O_25 
DOCKED: REMARK   18  A    between atoms: P_23  and  O_26 
DOCKED: REMARK   19  A    between atoms: O_27  and  P_28 
DOCKED: REMARK   20  A    between atoms: P_28  and  O_30 
DOCKED: REMARK   21  A    between atoms: P_28  and  O_31 
DOCKED: REMARK   22  A    between atoms: O_32  and  P_33 
DOCKED: REMARK   23  A    between atoms: P_33  and  O_35 
DOCKED: REMARK   24  A    between atoms: P_33  and  O_36 
DOCKED: USER                              x       y       z     vdW  Elec       q    Type
DOCKED: USER                           _______ _______ _______ _____ _____    ______ ____
DOCKED: ROOT
DOCKED: ATOM      1  C   UNL d   1      -7.882  10.257  -6.386 -0.08 -0.00    +0.194 C 
DOCKED: ATOM      2  C   UNL d   1      -8.655  10.463  -5.082 -0.05 -0.00    +0.194 C 
DOCKED: ATOM      3  C   UNL d   1      -7.719  10.531  -3.873 +0.07 +0.00    +0.194 C 
DOCKED: ATOM      4  C   UNL d   1      -6.592  11.547  -4.043 -0.09 +0.02    +0.194 C 
DOCKED: ATOM      5  C   UNL d   1      -5.867  11.453  -5.379 -0.14 +0.01    +0.194 C 
DOCKED: ATOM      6  C   UNL d   1      -6.803  11.322  -6.583 -0.11 +0.00    +0.194 C 
DOCKED: ENDROOT
DOCKED: BRANCH   1   7
DOCKED: ATOM      7  O   UNL d   1      -8.803  10.377  -7.473 -0.02 +0.00    -0.278 OA
DOCKED: BRANCH   7   8
DOCKED: ATOM      8  P   UNL d   1      -8.963   9.141  -8.472 -0.06 -0.01    +0.473 P 
DOCKED: ATOM      9  O   UNL d   1     -10.339   8.927  -8.997 -0.05 +0.00    -0.228 OA
DOCKED: BRANCH   8  10
DOCKED: ATOM     10  O   UNL d   1      -7.891   9.429  -9.618 -0.09 +0.02    -0.303 OA
DOCKED: ATOM     11  H   UNL d   1      -7.202  10.030  -9.278 +0.07 -0.01    +0.222 HD
DOCKED: ENDBRANCH   8  10
DOCKED: BRANCH   8  12
DOCKED: ATOM     12  O   UNL d   1      -8.311   7.908  -7.711 -0.15 +0.00    -0.303 OA
DOCKED: ATOM     13  H   UNL d   1      -8.972   7.234  -7.432 +0.06 +0.01    +0.222 HD
DOCKED: ENDBRANCH   8  12
DOCKED: ENDBRANCH   7   8
DOCKED: ENDBRANCH   1   7
DOCKED: BRANCH   2  14
DOCKED: ATOM     14  O   UNL d   1      -9.388  11.691  -5.162 -0.01 -0.00    -0.278 OA
DOCKED: BRANCH  14  15
DOCKED: ATOM     15  P   UNL d   1     -10.866  11.605  -5.771 -0.00 -0.00    +0.473 P 
DOCKED: ATOM     16  O   UNL d   1     -11.973  12.164  -4.933 -0.00 +0.00    -0.228 OA
DOCKED: BRANCH  15  17
DOCKED: ATOM     17  O   UNL d   1     -10.743  12.321  -7.189 -0.00 +0.00    -0.303 OA
DOCKED: ATOM     18  H   UNL d   1      -9.856  12.186  -7.575 +0.01 -0.00    +0.222 HD
DOCKED: ENDBRANCH  15  17
DOCKED: BRANCH  15  19
DOCKED: ATOM     19  O   UNL d   1     -11.031  10.081  -6.197 -0.00 +0.00    -0.303 OA
DOCKED: ATOM     20  H   UNL d   1     -10.910   9.960  -7.157 +0.01 -0.00    +0.222 HD
DOCKED: ENDBRANCH  15  19
DOCKED: ENDBRANCH  14  15
DOCKED: ENDBRANCH   2  14
DOCKED: BRANCH   6  21
DOCKED: ATOM     21  O   UNL d   1      -6.001  10.906  -7.686 -0.14 +0.00    -0.278 OA
DOCKED: BRANCH  21  22
DOCKED: ATOM     22  P   UNL d   1      -6.017  11.748  -9.040 -0.05 -0.01    +0.473 P 
DOCKED: ATOM     23  O   UNL d   1      -5.497  11.101 -10.279 -0.11 +0.01    -0.228 OA
DOCKED: BRANCH  22  24
DOCKED: ATOM     24  O   UNL d   1      -7.538  12.211  -9.117 -0.01 +0.01    -0.303 OA
DOCKED: ATOM     25  H   UNL d   1      -8.103  11.401  -9.201 +0.03 -0.01    +0.222 HD
DOCKED: ENDBRANCH  22  24
DOCKED: BRANCH  22  26
DOCKED: ATOM     26  O   UNL d   1      -5.282  13.100  -8.591 -0.08 +0.01    -0.303 OA
DOCKED: ATOM     27  H   UNL d   1      -5.000  13.019  -7.657 +0.08 -0.00    +0.222 HD
DOCKED: ENDBRANCH  22  26
DOCKED: ENDBRANCH  21  22
DOCKED: ENDBRANCH   6  21
DOCKED: BRANCH   3  28
DOCKED: ATOM     28  O   UNL d   1      -8.481  10.995  -2.766 -0.04 -0.01    -0.278 OA
DOCKED: BRANCH  28  29
DOCKED: ATOM     29  P   UNL d   1      -8.385  10.258  -1.358 -0.04 +0.01    +0.473 P 
DOCKED: ATOM     30  O   UNL d   1      -9.294   9.097  -1.179 -0.06 -0.00    -0.228 OA
DOCKED: BRANCH  29  31
DOCKED: ATOM     31  O   UNL d   1      -6.813   9.964  -1.303 -0.10 -0.02    -0.303 OA
DOCKED: ATOM     32  H   UNL d   1      -6.350  10.785  -1.017 +0.08 +0.03    +0.222 HD
DOCKED: ENDBRANCH  29  31
DOCKED: BRANCH  29  33
DOCKED: ATOM     33  O   UNL d   1      -8.553  11.467  -0.336 -0.03 -0.01    -0.303 OA
DOCKED: ATOM     34  H   UNL d   1      -8.656  12.307  -0.846 +0.02 +0.01    +0.222 HD
DOCKED: ENDBRANCH  29  33
DOCKED: ENDBRANCH  28  29
DOCKED: ENDBRANCH   3  28
DOCKED: BRANCH   5  35
DOCKED: ATOM     35  O   UNL d   1      -5.164  12.685  -5.526 -0.10 -0.02    -0.278 OA
DOCKED: BRANCH  35  36
DOCKED: ATOM     36  P   UNL d   1      -3.614  12.687  -5.903 -0.14 +0.01    +0.473 P 
DOCKED: ATOM     37  O   UNL d   1      -2.678  12.366  -4.782 -0.36 -0.02    -0.228 OA
DOCKED: BRANCH  36  38
DOCKED: ATOM     38  O   UNL d   1      -3.571  11.649  -7.110 -0.24 +0.05    -0.303 OA
DOCKED: ATOM     39  H   UNL d   1      -3.981  10.805  -6.822 -0.41 -0.05    +0.222 HD
DOCKED: ENDBRANCH  36  38
DOCKED: BRANCH  36  40
DOCKED: ATOM     40  O   UNL d   1      -3.438  14.102  -6.609 -0.26 -0.03    -0.303 OA
DOCKED: ATOM     41  H   UNL d   1      -3.728  14.079  -7.548 +0.07 +0.01    +0.222 HD
DOCKED: ENDBRANCH  36  40
DOCKED: ENDBRANCH  35  36
DOCKED: ENDBRANCH   5  35
DOCKED: BRANCH   4  42
DOCKED: ATOM     42  O   UNL d   1      -5.628  11.271  -3.021 -0.12 -0.05    -0.278 OA
DOCKED: BRANCH  42  43
DOCKED: ATOM     43  P   UNL d   1      -5.214  12.437  -2.015 -0.07 +0.17    +0.473 P 
DOCKED: ATOM     44  O   UNL d   1      -4.402  13.560  -2.563 -0.13 -0.12    -0.228 OA
DOCKED: BRANCH  43  45
DOCKED: ATOM     45  O   UNL d   1      -6.613  12.883  -1.403 -0.03 -0.06    -0.303 OA
DOCKED: ATOM     46  H   UNL d   1      -7.284  12.177  -1.491 +0.04 +0.02    +0.222 HD
DOCKED: ENDBRANCH  43  45
DOCKED: BRANCH  43  47
DOCKED: ATOM     47  O   UNL d   1      -4.558  11.645  -0.786 -0.33 -0.19    -0.303 OA
DOCKED: ATOM     48  H   UNL d   1      -4.771  10.693  -0.865 +0.11 +0.08    +0.222 HD
DOCKED: ENDBRANCH  43  47
DOCKED: ENDBRANCH  42  43
DOCKED: ENDBRANCH   4  42
DOCKED: TORSDOF 24
DOCKED: TER
DOCKED: ENDMDL
________________________________________________________________________________


	BEGINNING GENETIC ALGORITHM DOCKING 11 of 100
Run: 11 Seed: 2063803187 1171974882 [ Run 11 of 100 GA/GALS ]
Beginning LAMARCKIAN GENETIC ALGORITHM (LGA), with a maximum of 25000000 energy evaluations.

Final-Value: -17.674


	FINAL GENETIC ALGORITHM DOCKED STATE
	_______________________________________________


Detailed state:  trans -7.629 12.983 12.233 quatxyzw 0.681332 -0.248492 -0.180144 0.664519 center 0.035 0.082 -0.065 ntor 24 -157.0614 -114.3633 137.8354 -6.2049 7.1834 -147.8831 -107.3168 -96.5118 68.7761 -12.7144 65.6124 -111.5624 -118.9093 -173.2540 -63.6825 -172.4242 -178.9286 -90.4086 54.3317 10.0589 178.7433 20.7796 23.2221 180.0000
State:	 -7.629  12.983  12.233   0.912 -0.333 -0.241 96.709   -157.06 -114.36  137.84   -6.20    7.18 -147.88 -107.32  -96.51   68.78  -12.71   65.61 -111.56 -118.91 -173.25  -63.68 -172.42 -178.93  -90.41   54.33   10.06  178.74   20.78   23.22  180.00

DOCKED: MODEL       11
DOCKED: USER    Run = 11
DOCKED: USER    DPF = D:/Protein_go_brrr/autodock/final/mut_N102T/IHP/dock.dpf
DOCKED: USER  
DOCKED: USER    Estimated Free Energy of Binding    =   +2.31 kcal/mol  [=(1)+(2)+(3)-(4)]
DOCKED: USER    
DOCKED: USER    (1) Final Intermolecular Energy     =   -4.84 kcal/mol
DOCKED: USER        vdW + Hbond + desolv Energy     =   -4.70 kcal/mol
DOCKED: USER        Electrostatic Energy            =   -0.15 kcal/mol
DOCKED: USER    (2) Final Total Internal Energy     =  -12.83 kcal/mol
DOCKED: USER    (3) Torsional Free Energy           =   +7.16 kcal/mol
DOCKED: USER    (4) Unbound System's Energy  [=(2)] =  -12.83 kcal/mol
DOCKED: USER    
DOCKED: USER    
DOCKED: USER    NEWDPF move IHP_ideal_opt.pdbqt
DOCKED: USER    NEWDPF about 0.035000 0.082000 -0.065000
DOCKED: USER    NEWDPF tran0 -7.628829 12.982805 12.232991
DOCKED: USER    NEWDPF quaternion0 0.681332 -0.248492 -0.180144 0.664519
DOCKED: USER    NEWDPF axisangle0 0.911761 -0.332533 -0.241069 96.709070
DOCKED: USER    NEWDPF quat0 0.911761 -0.332533 -0.241069 96.709070
DOCKED: USER    NEWDPF dihe0 -157.06 -114.36 137.84 -6.20 7.18 -147.88 -107.32 -96.51 68.78 -12.71 65.61 -111.56 -118.91 -173.25 -63.68 -172.42 -178.93 -90.41 54.33 10.06 178.74 20.78 23.22 180.00 
DOCKED: USER  keepresnum = 1 
DOCKED: USER  
DOCKED: REMARK  24 active torsions:
DOCKED: REMARK  status: ('A' for Active; 'I' for Inactive)
DOCKED: REMARK    1  A    between atoms: C_1  and  O_7 
DOCKED: REMARK    2  A    between atoms: C_2  and  O_12 
DOCKED: REMARK    3  A    between atoms: C_3  and  O_17 
DOCKED: REMARK    4  A    between atoms: C_4  and  O_22 
DOCKED: REMARK    5  A    between atoms: C_5  and  O_27 
DOCKED: REMARK    6  A    between atoms: C_6  and  O_32 
DOCKED: REMARK    7  A    between atoms: O_7  and  P_8 
DOCKED: REMARK    8  A    between atoms: P_8  and  O_10 
DOCKED: REMARK    9  A    between atoms: P_8  and  O_11 
DOCKED: REMARK   10  A    between atoms: O_12  and  P_13 
DOCKED: REMARK   11  A    between atoms: P_13  and  O_15 
DOCKED: REMARK   12  A    between atoms: P_13  and  O_16 
DOCKED: REMARK   13  A    between atoms: O_17  and  P_18 
DOCKED: REMARK   14  A    between atoms: P_18  and  O_20 
DOCKED: REMARK   15  A    between atoms: P_18  and  O_21 
DOCKED: REMARK   16  A    between atoms: O_22  and  P_23 
DOCKED: REMARK   17  A    between atoms: P_23  and  O_25 
DOCKED: REMARK   18  A    between atoms: P_23  and  O_26 
DOCKED: REMARK   19  A    between atoms: O_27  and  P_28 
DOCKED: REMARK   20  A    between atoms: P_28  and  O_30 
DOCKED: REMARK   21  A    between atoms: P_28  and  O_31 
DOCKED: REMARK   22  A    between atoms: O_32  and  P_33 
DOCKED: REMARK   23  A    between atoms: P_33  and  O_35 
DOCKED: REMARK   24  A    between atoms: P_33  and  O_36 
DOCKED: USER                              x       y       z     vdW  Elec       q    Type
DOCKED: USER                           _______ _______ _______ _____ _____    ______ ____
DOCKED: ROOT
DOCKED: ATOM      1  C   UNL d   1      -6.032  13.640  12.195 -0.16 -0.03    +0.194 C 
DOCKED: ATOM      2  C   UNL d   1      -6.611  13.391  13.589 -0.10 -0.02    +0.194 C 
DOCKED: ATOM      3  C   UNL d   1      -8.071  13.838  13.683 -0.05 -0.02    +0.194 C 
DOCKED: ATOM      4  C   UNL d   1      -8.951  13.255  12.580 -0.07 -0.01    +0.194 C 
DOCKED: ATOM      5  C   UNL d   1      -8.358  13.379  11.183 -0.11 -0.02    +0.194 C 
DOCKED: ATOM      6  C   UNL d   1      -6.880  12.991  11.101 -0.04 -0.03    +0.194 C 
DOCKED: ENDROOT
DOCKED: BRANCH   1   7
DOCKED: ATOM      7  O   UNL d   1      -4.734  13.043  12.139 -0.23 +0.05    -0.278 OA
DOCKED: BRANCH   7   8
DOCKED: ATOM      8  P   UNL d   1      -3.566  13.681  13.022 -0.28 -0.12    +0.473 P 
DOCKED: ATOM      9  O   UNL d   1      -3.132  15.042  12.607 -0.34 +0.05    -0.228 OA
DOCKED: BRANCH   8  10
DOCKED: ATOM     10  O   UNL d   1      -4.136  13.630  14.511 -0.17 +0.10    -0.303 OA
DOCKED: ATOM     11  H   UNL d   1      -4.538  12.757  14.678 +0.09 -0.05    +0.222 HD
DOCKED: ENDBRANCH   8  10
DOCKED: BRANCH   8  12
DOCKED: ATOM     12  O   UNL d   1      -2.428  12.573  13.064 -0.87 +0.08    -0.303 OA
DOCKED: ATOM     13  H   UNL d   1      -1.803  12.690  13.815 -0.45 -0.16    +0.222 HD
DOCKED: ENDBRANCH   8  12
DOCKED: ENDBRANCH   7   8
DOCKED: ENDBRANCH   1   7
DOCKED: BRANCH   2  14
DOCKED: ATOM     14  O   UNL d   1      -6.543  11.989  13.880 -0.06 +0.02    -0.278 OA
DOCKED: BRANCH  14  15
DOCKED: ATOM     15  P   UNL d   1      -6.170  11.588  15.384 -0.06 -0.05    +0.473 P 
DOCKED: ATOM     16  O   UNL d   1      -4.905  10.813  15.579 -0.20 +0.04    -0.228 OA
DOCKED: BRANCH  15  17
DOCKED: ATOM     17  O   UNL d   1      -6.172  12.975  16.167 -0.03 +0.04    -0.303 OA
DOCKED: ATOM     18  H   UNL d   1      -6.927  13.531  15.896 +0.03 -0.02    +0.222 HD
DOCKED: ENDBRANCH  15  17
DOCKED: BRANCH  15  19
DOCKED: ATOM     19  O   UNL d   1      -7.489  10.901  15.950 -0.06 +0.02    -0.303 OA
DOCKED: ATOM     20  H   UNL d   1      -8.226  11.536  16.016 +0.03 -0.01    +0.222 HD
DOCKED: ENDBRANCH  15  19
DOCKED: ENDBRANCH  14  15
DOCKED: ENDBRANCH   2  14
DOCKED: BRANCH   6  21
DOCKED: ATOM     21  O   UNL d   1      -6.394  13.477   9.851 -0.20 +0.08    -0.278 OA
DOCKED: BRANCH  21  22
DOCKED: ATOM     22  P   UNL d   1      -6.082  15.031   9.674 -0.14 -0.05    +0.473 P 
DOCKED: ATOM     23  O   UNL d   1      -6.933  16.010  10.411 -0.06 +0.02    -0.228 OA
DOCKED: BRANCH  22  24
DOCKED: ATOM     24  O   UNL d   1      -4.532  15.094  10.030 -0.10 +0.02    -0.303 OA
DOCKED: ATOM     25  H   UNL d   1      -4.413  14.752  10.953 +0.10 -0.02    +0.222 HD
DOCKED: ENDBRANCH  22  24
DOCKED: BRANCH  22  26
DOCKED: ATOM     26  O   UNL d   1      -6.061  15.179   8.078 -0.14 +0.03    -0.303 OA
DOCKED: ATOM     27  H   UNL d   1      -6.759  14.611   7.693 +0.06 -0.03    +0.222 HD
DOCKED: ENDBRANCH  22  26
DOCKED: ENDBRANCH  21  22
DOCKED: ENDBRANCH   6  21
DOCKED: BRANCH   3  28
DOCKED: ATOM     28  O   UNL d   1      -8.599  13.322  14.899 -0.02 +0.02    -0.278 OA
DOCKED: BRANCH  28  29
DOCKED: ATOM     29  P   UNL d   1      -9.407  14.270  15.891 -0.00 -0.03    +0.473 P 
DOCKED: ATOM     30  O   UNL d   1     -10.262  13.575  16.888 -0.00 +0.01    -0.228 OA
DOCKED: BRANCH  29  31
DOCKED: ATOM     31  O   UNL d   1      -8.208  15.165  16.460 -0.00 +0.03    -0.303 OA
DOCKED: ATOM     32  H   UNL d   1      -7.525  14.567  16.843 +0.01 -0.02    +0.222 HD
DOCKED: ENDBRANCH  29  31
DOCKED: BRANCH  29  33
DOCKED: ATOM     33  O   UNL d   1     -10.139  15.263  14.884 -0.00 +0.02    -0.303 OA
DOCKED: ATOM     34  H   UNL d   1      -9.530  15.463  14.131 +0.01 -0.02    +0.222 HD
DOCKED: ENDBRANCH  29  33
DOCKED: ENDBRANCH  28  29
DOCKED: ENDBRANCH   3  28
DOCKED: BRANCH   5  35
DOCKED: ATOM     35  O   UNL d   1      -9.080  12.455  10.372 -0.12 +0.03    -0.278 OA
DOCKED: BRANCH  35  36
DOCKED: ATOM     36  P   UNL d   1      -9.216  12.697   8.801 -0.14 -0.07    +0.473 P 
DOCKED: ATOM     37  O   UNL d   1     -10.586  12.502   8.234 -0.07 +0.02    -0.228 OA
DOCKED: BRANCH  36  38
DOCKED: ATOM     38  O   UNL d   1      -8.649  14.177   8.649 -0.06 +0.03    -0.303 OA
DOCKED: ATOM     39  H   UNL d   1      -8.405  14.520   9.536 +0.05 -0.02    +0.222 HD
DOCKED: ENDBRANCH  36  38
DOCKED: BRANCH  36  40
DOCKED: ATOM     40  O   UNL d   1      -8.055  11.781   8.215 -0.28 +0.11    -0.303 OA
DOCKED: ATOM     41  H   UNL d   1      -7.185  11.991   8.621 -0.47 -0.15    +0.222 HD
DOCKED: ENDBRANCH  36  40
DOCKED: ENDBRANCH  35  36
DOCKED: ENDBRANCH   5  35
DOCKED: BRANCH   4  42
DOCKED: ATOM     42  O   UNL d   1     -10.173  14.002  12.586 -0.01 +0.02    -0.278 OA
DOCKED: BRANCH  42  43
DOCKED: ATOM     43  P   UNL d   1     -10.147  15.526  12.118 -0.00 -0.03    +0.473 P 
DOCKED: ATOM     44  O   UNL d   1      -9.045  16.385  12.634 -0.01 +0.02    -0.228 OA
DOCKED: BRANCH  43  45
DOCKED: ATOM     45  O   UNL d   1     -10.190  15.405  10.532 -0.01 +0.02    -0.303 OA
DOCKED: ATOM     46  H   UNL d   1     -10.102  14.475  10.241 +0.02 -0.02    +0.222 HD
DOCKED: ENDBRANCH  43  45
DOCKED: BRANCH  43  47
DOCKED: ATOM     47  O   UNL d   1     -11.631  16.035  12.445 -0.00 +0.02    -0.303 OA
DOCKED: ATOM     48  H   UNL d   1     -11.760  16.051  13.416 +0.00 -0.01    +0.222 HD
DOCKED: ENDBRANCH  43  47
DOCKED: ENDBRANCH  42  43
DOCKED: ENDBRANCH   4  42
DOCKED: TORSDOF 24
DOCKED: TER
DOCKED: ENDMDL
________________________________________________________________________________


	BEGINNING GENETIC ALGORITHM DOCKING 12 of 100
Run: 12 Seed: 79010254 727200702 [ Run 12 of 100 GA/GALS ]
Beginning LAMARCKIAN GENETIC ALGORITHM (LGA), with a maximum of 25000000 energy evaluations.

Final-Value: -16.571


	FINAL GENETIC ALGORITHM DOCKED STATE
	_______________________________________________


Detailed state:  trans -10.986 14.578 8.457 quatxyzw -0.255499 0.819437 0.226691 -0.460277 center 0.035 0.082 -0.065 ntor 24 88.9865 72.3892 179.9535 -159.4783 21.6009 -58.2808 -115.7790 8.0385 32.3049 80.8989 177.0072 -110.8949 -72.2759 41.0996 -111.2655 41.9700 -76.0753 80.0592 69.4538 24.2462 -9.6358 2.5670 -180.0000 23.4883
State:	-10.986  14.578   8.457  -0.288  0.923  0.255 -125.190     88.99   72.39  179.95 -159.48   21.60  -58.28 -115.78    8.04   32.30   80.90  177.01 -110.89  -72.28   41.10 -111.27   41.97  -76.08   80.06   69.45   24.25   -9.64    2.57 -180.00   23.49

DOCKED: MODEL       12
DOCKED: USER    Run = 12
DOCKED: USER    DPF = D:/Protein_go_brrr/autodock/final/mut_N102T/IHP/dock.dpf
DOCKED: USER  
DOCKED: USER    Estimated Free Energy of Binding    =   +3.52 kcal/mol  [=(1)+(2)+(3)-(4)]
DOCKED: USER    
DOCKED: USER    (1) Final Intermolecular Energy     =   -3.64 kcal/mol
DOCKED: USER        vdW + Hbond + desolv Energy     =   -3.44 kcal/mol
DOCKED: USER        Electrostatic Energy            =   -0.19 kcal/mol
DOCKED: USER    (2) Final Total Internal Energy     =  -12.93 kcal/mol
DOCKED: USER    (3) Torsional Free Energy           =   +7.16 kcal/mol
DOCKED: USER    (4) Unbound System's Energy  [=(2)] =  -12.93 kcal/mol
DOCKED: USER    
DOCKED: USER    
DOCKED: USER    NEWDPF move IHP_ideal_opt.pdbqt
DOCKED: USER    NEWDPF about 0.035000 0.082000 -0.065000
DOCKED: USER    NEWDPF tran0 -10.985895 14.578227 8.456734
DOCKED: USER    NEWDPF quaternion0 -0.255499 0.819437 0.226691 -0.460277
DOCKED: USER    NEWDPF axisangle0 -0.287796 0.923023 0.255347 -125.190062
DOCKED: USER    NEWDPF quat0 -0.287796 0.923023 0.255347 -125.190062
DOCKED: USER    NEWDPF dihe0 88.99 72.39 179.95 -159.48 21.60 -58.28 -115.78 8.04 32.30 80.90 177.01 -110.89 -72.28 41.10 -111.27 41.97 -76.08 80.06 69.45 24.25 -9.64 2.57 -180.00 23.49 
DOCKED: USER  keepresnum = 1 
DOCKED: USER  
DOCKED: REMARK  24 active torsions:
DOCKED: REMARK  status: ('A' for Active; 'I' for Inactive)
DOCKED: REMARK    1  A    between atoms: C_1  and  O_7 
DOCKED: REMARK    2  A    between atoms: C_2  and  O_12 
DOCKED: REMARK    3  A    between atoms: C_3  and  O_17 
DOCKED: REMARK    4  A    between atoms: C_4  and  O_22 
DOCKED: REMARK    5  A    between atoms: C_5  and  O_27 
DOCKED: REMARK    6  A    between atoms: C_6  and  O_32 
DOCKED: REMARK    7  A    between atoms: O_7  and  P_8 
DOCKED: REMARK    8  A    between atoms: P_8  and  O_10 
DOCKED: REMARK    9  A    between atoms: P_8  and  O_11 
DOCKED: REMARK   10  A    between atoms: O_12  and  P_13 
DOCKED: REMARK   11  A    between atoms: P_13  and  O_15 
DOCKED: REMARK   12  A    between atoms: P_13  and  O_16 
DOCKED: REMARK   13  A    between atoms: O_17  and  P_18 
DOCKED: REMARK   14  A    between atoms: P_18  and  O_20 
DOCKED: REMARK   15  A    between atoms: P_18  and  O_21 
DOCKED: REMARK   16  A    between atoms: O_22  and  P_23 
DOCKED: REMARK   17  A    between atoms: P_23  and  O_25 
DOCKED: REMARK   18  A    between atoms: P_23  and  O_26 
DOCKED: REMARK   19  A    between atoms: O_27  and  P_28 
DOCKED: REMARK   20  A    between atoms: P_28  and  O_30 
DOCKED: REMARK   21  A    between atoms: P_28  and  O_31 
DOCKED: REMARK   22  A    between atoms: O_32  and  P_33 
DOCKED: REMARK   23  A    between atoms: P_33  and  O_35 
DOCKED: REMARK   24  A    between atoms: P_33  and  O_36 
DOCKED: USER                              x       y       z     vdW  Elec       q    Type
DOCKED: USER                           _______ _______ _______ _____ _____    ______ ____
DOCKED: ROOT
DOCKED: ATOM      1  C   UNL d   1     -10.482  14.114   6.871 -0.03 -0.01    +0.194 C 
DOCKED: ATOM      2  C   UNL d   1      -9.657  13.536   8.022 -0.08 -0.02    +0.194 C 
DOCKED: ATOM      3  C   UNL d   1      -9.366  14.588   9.095 -0.04 -0.02    +0.194 C 
DOCKED: ATOM      4  C   UNL d   1     -10.619  15.307   9.587 -0.01 -0.01    +0.194 C 
DOCKED: ATOM      5  C   UNL d   1     -11.531  15.801   8.471 -0.00 -0.01    +0.194 C 
DOCKED: ATOM      6  C   UNL d   1     -11.772  14.769   7.367 -0.01 -0.01    +0.194 C 
DOCKED: ENDROOT
DOCKED: BRANCH   1   7
DOCKED: ATOM      7  O   UNL d   1     -10.855  13.039   6.006 -0.03 +0.02    -0.278 OA
DOCKED: BRANCH   7   8
DOCKED: ATOM      8  P   UNL d   1      -9.707  12.078   5.451 -0.13 -0.04    +0.473 P 
DOCKED: ATOM      9  O   UNL d   1      -8.333  12.650   5.485 -0.23 +0.01    -0.228 OA
DOCKED: BRANCH   8  10
DOCKED: ATOM     10  O   UNL d   1      -9.857  10.751   6.325 -0.14 +0.08    -0.303 OA
DOCKED: ATOM     11  H   UNL d   1      -9.594  10.935   7.246 -0.29 -0.08    +0.222 HD
DOCKED: ENDBRANCH   8  10
DOCKED: BRANCH   8  12
DOCKED: ATOM     12  O   UNL d   1     -10.223  11.597   4.027 -0.09 +0.01    -0.303 OA
DOCKED: ATOM     13  H   UNL d   1     -10.831  12.242   3.600 +0.03 -0.01    +0.222 HD
DOCKED: ENDBRANCH   8  12
DOCKED: ENDBRANCH   7   8
DOCKED: ENDBRANCH   1   7
DOCKED: BRANCH   2  14
DOCKED: ATOM     14  O   UNL d   1     -10.386  12.459   8.624 -0.06 +0.03    -0.278 OA
DOCKED: BRANCH  14  15
DOCKED: ATOM     15  P   UNL d   1      -9.523  11.359   9.405 -0.13 -0.08    +0.473 P 
DOCKED: ATOM     16  O   UNL d   1      -9.405  11.526  10.888 -0.13 +0.01    -0.228 OA
DOCKED: BRANCH  15  17
DOCKED: ATOM     17  O   UNL d   1     -10.194   9.975   8.991 -0.18 +0.07    -0.303 OA
DOCKED: ATOM     18  H   UNL d   1      -9.841   9.654   8.140 -0.41 -0.12    +0.222 HD
DOCKED: ENDBRANCH  15  17
DOCKED: BRANCH  15  19
DOCKED: ATOM     19  O   UNL d   1      -8.147  11.297   8.610 -0.23 +0.12    -0.303 OA
DOCKED: ATOM     20  H   UNL d   1      -7.386  11.201   9.213 -0.44 -0.12    +0.222 HD
DOCKED: ENDBRANCH  15  19
DOCKED: ENDBRANCH  14  15
DOCKED: ENDBRANCH   2  14
DOCKED: BRANCH   6  21
DOCKED: ATOM     21  O   UNL d   1     -12.336  15.472   6.262 -0.00 +0.01    -0.278 OA
DOCKED: BRANCH  21  22
DOCKED: ATOM     22  P   UNL d   1     -13.850  15.201   5.840 -0.00 -0.02    +0.473 P 
DOCKED: ATOM     23  O   UNL d   1     -14.146  14.002   5.004 -0.00 +0.01    -0.228 OA
DOCKED: BRANCH  22  24
DOCKED: ATOM     24  O   UNL d   1     -14.590  15.232   7.249 +0.00 +0.01    -0.303 OA
DOCKED: ATOM     25  H   UNL d   1     -14.050  14.707   7.892 +0.00 -0.01    +0.222 HD
DOCKED: ENDBRANCH  22  24
DOCKED: BRANCH  22  26
DOCKED: ATOM     26  O   UNL d   1     -14.272  16.616   5.214 +0.00 +0.01    -0.303 OA
DOCKED: ATOM     27  H   UNL d   1     -14.649  16.474   4.322 +0.00 -0.01    +0.222 HD
DOCKED: ENDBRANCH  22  26
DOCKED: ENDBRANCH  21  22
DOCKED: ENDBRANCH   6  21
DOCKED: BRANCH   3  28
DOCKED: ATOM     28  O   UNL d   1      -8.850  13.908  10.232 -0.06 +0.03    -0.278 OA
DOCKED: BRANCH  28  29
DOCKED: ATOM     29  P   UNL d   1      -7.339  14.132  10.685 -0.09 -0.06    +0.473 P 
DOCKED: ATOM     30  O   UNL d   1      -6.665  15.321  10.104 -0.10 +0.02    -0.228 OA
DOCKED: BRANCH  29  31
DOCKED: ATOM     31  O   UNL d   1      -7.518  14.102  12.275 -0.05 +0.03    -0.303 OA
DOCKED: ATOM     32  H   UNL d   1      -8.077  14.868  12.543 +0.03 -0.02    +0.222 HD
DOCKED: ENDBRANCH  29  31
DOCKED: BRANCH  29  33
DOCKED: ATOM     33  O   UNL d   1      -6.685  12.713  10.379 -0.11 +0.09    -0.303 OA
DOCKED: ATOM     34  H   UNL d   1      -6.674  12.569   9.401 -0.42 -0.13    +0.222 HD
DOCKED: ENDBRANCH  29  33
DOCKED: ENDBRANCH  28  29
DOCKED: ENDBRANCH   3  28
DOCKED: BRANCH   5  35
DOCKED: ATOM     35  O   UNL d   1     -12.791  16.059   9.086 +0.00 +0.01    -0.278 OA
DOCKED: BRANCH  35  36
DOCKED: ATOM     36  P   UNL d   1     -13.465  14.965  10.031 +0.00 -0.02    +0.473 P 
DOCKED: ATOM     37  O   UNL d   1     -13.177  13.541   9.677 -0.00 +0.01    -0.228 OA
DOCKED: BRANCH  36  38
DOCKED: ATOM     38  O   UNL d   1     -12.932  15.403  11.467 -0.00 +0.01    -0.303 OA
DOCKED: ATOM     39  H   UNL d   1     -12.004  15.711  11.385 +0.00 -0.01    +0.222 HD
DOCKED: ENDBRANCH  36  38
DOCKED: BRANCH  36  40
DOCKED: ATOM     40  O   UNL d   1     -14.991  15.413  10.036 +0.00 +0.01    -0.303 OA
DOCKED: ATOM     41  H   UNL d   1     -15.283  15.720   9.149 +0.00 -0.01    +0.222 HD
DOCKED: ENDBRANCH  36  40
DOCKED: ENDBRANCH  35  36
DOCKED: ENDBRANCH   5  35
DOCKED: BRANCH   4  42
DOCKED: ATOM     42  O   UNL d   1     -10.178  16.461  10.311 -0.00 +0.02    -0.278 OA
DOCKED: BRANCH  42  43
DOCKED: ATOM     43  P   UNL d   1      -9.853  16.318  11.866 -0.00 -0.03    +0.473 P 
DOCKED: ATOM     44  O   UNL d   1      -8.510  16.764  12.331 -0.01 +0.02    -0.228 OA
DOCKED: BRANCH  43  45
DOCKED: ATOM     45  O   UNL d   1     -11.067  17.088  12.548 +0.00 +0.02    -0.303 OA
DOCKED: ATOM     46  H   UNL d   1     -11.719  16.465  12.927 +0.00 -0.01    +0.222 HD
DOCKED: ENDBRANCH  43  45
DOCKED: BRANCH  43  47
DOCKED: ATOM     47  O   UNL d   1     -10.221  14.789  12.178 -0.01 +0.02    -0.303 OA
DOCKED: ATOM     48  H   UNL d   1      -9.581  14.204  11.721 +0.02 -0.02    +0.222 HD
DOCKED: ENDBRANCH  43  47
DOCKED: ENDBRANCH  42  43
DOCKED: ENDBRANCH   4  42
DOCKED: TORSDOF 24
DOCKED: TER
DOCKED: ENDMDL
________________________________________________________________________________


	BEGINNING GENETIC ALGORITHM DOCKING 13 of 100
Run: 13 Seed: 541863179 1507099019 [ Run 13 of 100 GA/GALS ]
Beginning LAMARCKIAN GENETIC ALGORITHM (LGA), with a maximum of 25000000 energy evaluations.

Final-Value: -18.061


	FINAL GENETIC ALGORITHM DOCKED STATE
	_______________________________________________


Detailed state:  trans -6.165 11.417 15.309 quatxyzw 0.313626 -0.016521 0.433305 0.844756 center 0.035 0.082 -0.065 ntor 24 -180.0000 115.0551 179.7986 -17.6705 38.8875 159.1631 -115.4438 3.7270 -20.6929 -5.0916 166.5193 148.6474 100.8798 83.3681 -73.8285 18.3560 169.0748 -179.8703 26.2002 -40.8503 153.9164 177.4980 -29.5196 -4.3035
State:	 -6.165  11.417  15.309   0.586 -0.031  0.810 64.708   -180.00  115.06  179.80  -17.67   38.89  159.16 -115.44    3.73  -20.69   -5.09  166.52  148.65  100.88   83.37  -73.83   18.36  169.07 -179.87   26.20  -40.85  153.92  177.50  -29.52   -4.30

DOCKED: MODEL       13
DOCKED: USER    Run = 13
DOCKED: USER    DPF = D:/Protein_go_brrr/autodock/final/mut_N102T/IHP/dock.dpf
DOCKED: USER  
DOCKED: USER    Estimated Free Energy of Binding    =   +2.42 kcal/mol  [=(1)+(2)+(3)-(4)]
DOCKED: USER    
DOCKED: USER    (1) Final Intermolecular Energy     =   -4.74 kcal/mol
DOCKED: USER        vdW + Hbond + desolv Energy     =   -4.68 kcal/mol
DOCKED: USER        Electrostatic Energy            =   -0.06 kcal/mol
DOCKED: USER    (2) Final Total Internal Energy     =  -13.32 kcal/mol
DOCKED: USER    (3) Torsional Free Energy           =   +7.16 kcal/mol
DOCKED: USER    (4) Unbound System's Energy  [=(2)] =  -13.32 kcal/mol
DOCKED: USER    
DOCKED: USER    
DOCKED: USER    NEWDPF move IHP_ideal_opt.pdbqt
DOCKED: USER    NEWDPF about 0.035000 0.082000 -0.065000
DOCKED: USER    NEWDPF tran0 -6.165316 11.417176 15.309382
DOCKED: USER    NEWDPF quaternion0 0.313626 -0.016521 0.433305 0.844756
DOCKED: USER    NEWDPF axisangle0 0.586050 -0.030871 0.809687 64.708416
DOCKED: USER    NEWDPF quat0 0.586050 -0.030871 0.809687 64.708416
DOCKED: USER    NEWDPF dihe0 -180.00 115.06 179.80 -17.67 38.89 159.16 -115.44 3.73 -20.69 -5.09 166.52 148.65 100.88 83.37 -73.83 18.36 169.07 -179.87 26.20 -40.85 153.92 177.50 -29.52 -4.30 
DOCKED: USER  keepresnum = 1 
DOCKED: USER  
DOCKED: REMARK  24 active torsions:
DOCKED: REMARK  status: ('A' for Active; 'I' for Inactive)
DOCKED: REMARK    1  A    between atoms: C_1  and  O_7 
DOCKED: REMARK    2  A    between atoms: C_2  and  O_12 
DOCKED: REMARK    3  A    between atoms: C_3  and  O_17 
DOCKED: REMARK    4  A    between atoms: C_4  and  O_22 
DOCKED: REMARK    5  A    between atoms: C_5  and  O_27 
DOCKED: REMARK    6  A    between atoms: C_6  and  O_32 
DOCKED: REMARK    7  A    between atoms: O_7  and  P_8 
DOCKED: REMARK    8  A    between atoms: P_8  and  O_10 
DOCKED: REMARK    9  A    between atoms: P_8  and  O_11 
DOCKED: REMARK   10  A    between atoms: O_12  and  P_13 
DOCKED: REMARK   11  A    between atoms: P_13  and  O_15 
DOCKED: REMARK   12  A    between atoms: P_13  and  O_16 
DOCKED: REMARK   13  A    between atoms: O_17  and  P_18 
DOCKED: REMARK   14  A    between atoms: P_18  and  O_20 
DOCKED: REMARK   15  A    between atoms: P_18  and  O_21 
DOCKED: REMARK   16  A    between atoms: O_22  and  P_23 
DOCKED: REMARK   17  A    between atoms: P_23  and  O_25 
DOCKED: REMARK   18  A    between atoms: P_23  and  O_26 
DOCKED: REMARK   19  A    between atoms: O_27  and  P_28 
DOCKED: REMARK   20  A    between atoms: P_28  and  O_30 
DOCKED: REMARK   21  A    between atoms: P_28  and  O_31 
DOCKED: REMARK   22  A    between atoms: O_32  and  P_33 
DOCKED: REMARK   23  A    between atoms: P_33  and  O_35 
DOCKED: REMARK   24  A    between atoms: P_33  and  O_36 
DOCKED: USER                              x       y       z     vdW  Elec       q    Type
DOCKED: USER                           _______ _______ _______ _____ _____    ______ ____
DOCKED: ROOT
DOCKED: ATOM      1  C   UNL d   1      -5.787  10.515  16.733 -0.10 -0.02    +0.194 C 
DOCKED: ATOM      2  C   UNL d   1      -7.257  10.907  16.570 -0.06 -0.01    +0.194 C 
DOCKED: ATOM      3  C   UNL d   1      -7.408  12.353  16.092 -0.04 -0.02    +0.194 C 
DOCKED: ATOM      4  C   UNL d   1      -6.586  12.662  14.843 -0.09 -0.02    +0.194 C 
DOCKED: ATOM      5  C   UNL d   1      -5.141  12.184  14.917 -0.19 -0.03    +0.194 C 
DOCKED: ATOM      6  C   UNL d   1      -4.986  10.760  15.454 -0.20 -0.03    +0.194 C 
DOCKED: ENDROOT
DOCKED: BRANCH   1   7
DOCKED: ATOM      7  O   UNL d   1      -5.728   9.114  17.012 -0.09 +0.04    -0.278 OA
DOCKED: BRANCH   7   8
DOCKED: ATOM      8  P   UNL d   1      -5.622   8.647  18.536 -0.00 -0.06    +0.473 P 
DOCKED: ATOM      9  O   UNL d   1      -6.187   7.300  18.824 -0.03 +0.02    -0.228 OA
DOCKED: BRANCH   8  10
DOCKED: ATOM     10  O   UNL d   1      -4.065   8.758  18.867 -0.02 +0.05    -0.303 OA
DOCKED: ATOM     11  H   UNL d   1      -3.642   9.380  18.245 +0.06 -0.05    +0.222 HD
DOCKED: ENDBRANCH   8  10
DOCKED: BRANCH   8  12
DOCKED: ATOM     12  O   UNL d   1      -6.228   9.849  19.379 -0.00 +0.03    -0.303 OA
DOCKED: ATOM     13  H   UNL d   1      -7.200   9.947  19.267 +0.01 -0.02    +0.222 HD
DOCKED: ENDBRANCH   8  12
DOCKED: ENDBRANCH   7   8
DOCKED: ENDBRANCH   1   7
DOCKED: BRANCH   2  14
DOCKED: ATOM     14  O   UNL d   1      -7.867  10.041  15.605 -0.10 +0.01    -0.278 OA
DOCKED: BRANCH  14  15
DOCKED: ATOM     15  P   UNL d   1      -8.547   8.706  16.171 -0.08 -0.01    +0.473 P 
DOCKED: ATOM     16  O   UNL d   1      -9.860   8.314  15.569 -0.07 -0.00    -0.228 OA
DOCKED: BRANCH  15  17
DOCKED: ATOM     17  O   UNL d   1      -7.425   7.591  15.985 -0.19 +0.00    -0.303 OA
DOCKED: ATOM     18  H   UNL d   1      -6.797   7.595  16.732 +0.08 -0.01    +0.222 HD
DOCKED: ENDBRANCH  15  17
DOCKED: BRANCH  15  19
DOCKED: ATOM     19  O   UNL d   1      -8.547   8.899  17.750 -0.01 +0.01    -0.303 OA
DOCKED: ATOM     20  H   UNL d   1      -7.665   8.734  18.133 +0.03 -0.01    +0.222 HD
DOCKED: ENDBRANCH  15  19
DOCKED: ENDBRANCH  14  15
DOCKED: ENDBRANCH   2  14
DOCKED: BRANCH   6  21
DOCKED: ATOM     21  O   UNL d   1      -3.610  10.590  15.783 -0.16 +0.12    -0.278 OA
DOCKED: BRANCH  21  22
DOCKED: ATOM     22  P   UNL d   1      -2.881  11.661  16.716 -0.18 -0.15    +0.473 P 
DOCKED: ATOM     23  O   UNL d   1      -3.135  13.108  16.458 -0.18 +0.07    -0.228 OA
DOCKED: BRANCH  22  24
DOCKED: ATOM     24  O   UNL d   1      -3.293  11.159  18.169 -0.07 +0.06    -0.303 OA
DOCKED: ATOM     25  H   UNL d   1      -4.159  10.683  18.097 +0.05 -0.04    +0.222 HD
DOCKED: ENDBRANCH  22  24
DOCKED: BRANCH  22  26
DOCKED: ATOM     26  O   UNL d   1      -1.353  11.187  16.622 -0.27 +0.16    -0.303 OA
DOCKED: ATOM     27  H   UNL d   1      -1.318  10.283  16.248 -0.46 -0.21    +0.222 HD
DOCKED: ENDBRANCH  22  26
DOCKED: ENDBRANCH  21  22
DOCKED: ENDBRANCH   6  21
DOCKED: BRANCH   3  28
DOCKED: ATOM     28  O   UNL d   1      -8.764  12.537  15.706 -0.02 +0.02    -0.278 OA
DOCKED: BRANCH  28  29
DOCKED: ATOM     29  P   UNL d   1      -9.320  11.863  14.374 -0.05 -0.02    +0.473 P 
DOCKED: ATOM     30  O   UNL d   1      -8.302  11.208  13.514 +0.06 -0.00    -0.228 OA
DOCKED: BRANCH  29  31
DOCKED: ATOM     31  O   UNL d   1     -10.461  10.926  14.992 -0.02 +0.01    -0.303 OA
DOCKED: ATOM     32  H   UNL d   1     -10.035  10.255  15.573 +0.03 -0.01    +0.222 HD
DOCKED: ENDBRANCH  29  31
DOCKED: BRANCH  29  33
DOCKED: ATOM     33  O   UNL d   1     -10.156  13.051  13.723 -0.02 +0.02    -0.303 OA
DOCKED: ATOM     34  H   UNL d   1      -9.542  13.796  13.508 +0.02 -0.01    +0.222 HD
DOCKED: ENDBRANCH  29  33
DOCKED: ENDBRANCH  28  29
DOCKED: ENDBRANCH   3  28
DOCKED: BRANCH   5  35
DOCKED: ATOM     35  O   UNL d   1      -4.666  12.180  13.572 -0.27 +0.04    -0.278 OA
DOCKED: BRANCH  35  36
DOCKED: ATOM     36  P   UNL d   1      -3.746  13.370  13.040 -0.29 -0.11    +0.473 P 
DOCKED: ATOM     37  O   UNL d   1      -3.926  13.728  11.599 -0.34 +0.04    -0.228 OA
DOCKED: BRANCH  36  38
DOCKED: ATOM     38  O   UNL d   1      -4.109  14.541  14.056 -0.10 +0.11    -0.303 OA
DOCKED: ATOM     39  H   UNL d   1      -4.857  15.061  13.693 +0.06 -0.05    +0.222 HD
DOCKED: ENDBRANCH  36  38
DOCKED: BRANCH  36  40
DOCKED: ATOM     40  O   UNL d   1      -2.294  12.906  13.493 -0.82 +0.13    -0.303 OA
DOCKED: ATOM     41  H   UNL d   1      -2.284  12.601  14.427 -0.40 -0.12    +0.222 HD
DOCKED: ENDBRANCH  36  40
DOCKED: ENDBRANCH  35  36
DOCKED: ENDBRANCH   5  35
DOCKED: BRANCH   4  42
DOCKED: ATOM     42  O   UNL d   1      -6.552  14.087  14.711 -0.04 +0.04    -0.278 OA
DOCKED: BRANCH  42  43
DOCKED: ATOM     43  P   UNL d   1      -7.249  14.761  13.444 -0.01 -0.05    +0.473 P 
DOCKED: ATOM     44  O   UNL d   1      -6.488  15.819  12.723 -0.05 +0.02    -0.228 OA
DOCKED: BRANCH  43  45
DOCKED: ATOM     45  O   UNL d   1      -7.628  13.504  12.545 -0.07 +0.03    -0.303 OA
DOCKED: ATOM     46  H   UNL d   1      -8.542  13.201  12.720 +0.04 -0.01    +0.222 HD
DOCKED: ENDBRANCH  43  45
DOCKED: BRANCH  43  47
DOCKED: ATOM     47  O   UNL d   1      -8.683  15.203  14.008 -0.01 +0.02    -0.303 OA
DOCKED: ATOM     48  H   UNL d   1      -8.972  14.564  14.692 +0.01 -0.02    +0.222 HD
DOCKED: ENDBRANCH  43  47
DOCKED: ENDBRANCH  42  43
DOCKED: ENDBRANCH   4  42
DOCKED: TORSDOF 24
DOCKED: TER
DOCKED: ENDMDL
________________________________________________________________________________


	BEGINNING GENETIC ALGORITHM DOCKING 14 of 100
Run: 14 Seed: 180980319 316231084 [ Run 14 of 100 GA/GALS ]
Beginning LAMARCKIAN GENETIC ALGORITHM (LGA), with a maximum of 25000000 energy evaluations.

Final-Value: -18.789


	FINAL GENETIC ALGORITHM DOCKED STATE
	_______________________________________________


Detailed state:  trans -13.080 0.481 11.989 quatxyzw 0.516443 -0.334892 -0.270202 -0.740354 center 0.035 0.082 -0.065 ntor 24 -127.6946 -4.8995 41.1184 51.7745 31.4124 180.0000 26.8378 -71.5984 39.5690 88.9552 147.5317 123.7085 -24.3069 160.2127 135.3951 92.4859 -66.1908 -174.2088 24.2706 -20.1711 -21.2976 -23.6314 170.5401 16.1947
State:	-13.080   0.481  11.989   0.768 -0.498 -0.402 -84.477   -127.69   -4.90   41.12   51.77   31.41  180.00   26.84  -71.60   39.57   88.96  147.53  123.71  -24.31  160.21  135.40   92.49  -66.19 -174.21   24.27  -20.17  -21.30  -23.63  170.54   16.19

DOCKED: MODEL       14
DOCKED: USER    Run = 14
DOCKED: USER    DPF = D:/Protein_go_brrr/autodock/final/mut_N102T/IHP/dock.dpf
DOCKED: USER  
DOCKED: USER    Estimated Free Energy of Binding    =   +2.53 kcal/mol  [=(1)+(2)+(3)-(4)]
DOCKED: USER    
DOCKED: USER    (1) Final Intermolecular Energy     =   -4.63 kcal/mol
DOCKED: USER        vdW + Hbond + desolv Energy     =   -3.98 kcal/mol
DOCKED: USER        Electrostatic Energy            =   -0.66 kcal/mol
DOCKED: USER    (2) Final Total Internal Energy     =  -14.16 kcal/mol
DOCKED: USER    (3) Torsional Free Energy           =   +7.16 kcal/mol
DOCKED: USER    (4) Unbound System's Energy  [=(2)] =  -14.16 kcal/mol
DOCKED: USER    
DOCKED: USER    
DOCKED: USER    NEWDPF move IHP_ideal_opt.pdbqt
DOCKED: USER    NEWDPF about 0.035000 0.082000 -0.065000
DOCKED: USER    NEWDPF tran0 -13.079964 0.480892 11.988591
DOCKED: USER    NEWDPF quaternion0 0.516443 -0.334892 -0.270202 -0.740354
DOCKED: USER    NEWDPF axisangle0 0.768269 -0.498191 -0.401957 -84.476827
DOCKED: USER    NEWDPF quat0 0.768269 -0.498191 -0.401957 -84.476827
DOCKED: USER    NEWDPF dihe0 -127.69 -4.90 41.12 51.77 31.41 180.00 26.84 -71.60 39.57 88.96 147.53 123.71 -24.31 160.21 135.40 92.49 -66.19 -174.21 24.27 -20.17 -21.30 -23.63 170.54 16.19 
DOCKED: USER  keepresnum = 1 
DOCKED: USER  
DOCKED: REMARK  24 active torsions:
DOCKED: REMARK  status: ('A' for Active; 'I' for Inactive)
DOCKED: REMARK    1  A    between atoms: C_1  and  O_7 
DOCKED: REMARK    2  A    between atoms: C_2  and  O_12 
DOCKED: REMARK    3  A    between atoms: C_3  and  O_17 
DOCKED: REMARK    4  A    between atoms: C_4  and  O_22 
DOCKED: REMARK    5  A    between atoms: C_5  and  O_27 
DOCKED: REMARK    6  A    between atoms: C_6  and  O_32 
DOCKED: REMARK    7  A    between atoms: O_7  and  P_8 
DOCKED: REMARK    8  A    between atoms: P_8  and  O_10 
DOCKED: REMARK    9  A    between atoms: P_8  and  O_11 
DOCKED: REMARK   10  A    between atoms: O_12  and  P_13 
DOCKED: REMARK   11  A    between atoms: P_13  and  O_15 
DOCKED: REMARK   12  A    between atoms: P_13  and  O_16 
DOCKED: REMARK   13  A    between atoms: O_17  and  P_18 
DOCKED: REMARK   14  A    between atoms: P_18  and  O_20 
DOCKED: REMARK   15  A    between atoms: P_18  and  O_21 
DOCKED: REMARK   16  A    between atoms: O_22  and  P_23 
DOCKED: REMARK   17  A    between atoms: P_23  and  O_25 
DOCKED: REMARK   18  A    between atoms: P_23  and  O_26 
DOCKED: REMARK   19  A    between atoms: O_27  and  P_28 
DOCKED: REMARK   20  A    between atoms: P_28  and  O_30 
DOCKED: REMARK   21  A    between atoms: P_28  and  O_31 
DOCKED: REMARK   22  A    between atoms: O_32  and  P_33 
DOCKED: REMARK   23  A    between atoms: P_33  and  O_35 
DOCKED: REMARK   24  A    between atoms: P_33  and  O_36 
DOCKED: USER                              x       y       z     vdW  Elec       q    Type
DOCKED: USER                           _______ _______ _______ _____ _____    ______ ____
DOCKED: ROOT
DOCKED: ATOM      1  C   UNL d   1     -12.952  -1.200  11.612 -0.04 -0.04    +0.194 C 
DOCKED: ATOM      2  C   UNL d   1     -13.496  -0.312  10.492 -0.04 -0.04    +0.194 C 
DOCKED: ATOM      3  C   UNL d   1     -14.507   0.709  11.018 -0.01 -0.02    +0.194 C 
DOCKED: ATOM      4  C   UNL d   1     -13.982   1.523  12.198 -0.02 -0.01    +0.194 C 
DOCKED: ATOM      5  C   UNL d   1     -13.327   0.685  13.288 -0.02 -0.01    +0.194 C 
DOCKED: ATOM      6  C   UNL d   1     -12.361  -0.377  12.757 -0.07 -0.02    +0.194 C 
DOCKED: ENDROOT
DOCKED: BRANCH   1   7
DOCKED: ATOM      7  O   UNL d   1     -11.897  -2.001  11.074 -0.10 +0.15    -0.278 OA
DOCKED: BRANCH   7   8
DOCKED: ATOM      8  P   UNL d   1     -12.230  -3.499  10.633 -0.04 -0.33    +0.473 P 
DOCKED: ATOM      9  O   UNL d   1     -13.641  -3.737  10.223 -0.02 +0.08    -0.228 OA
DOCKED: BRANCH   8  10
DOCKED: ATOM     10  O   UNL d   1     -11.178  -3.803   9.472 -0.19 +0.37    -0.303 OA
DOCKED: ATOM     11  H   UNL d   1     -10.295  -3.944   9.860 -0.39 -0.58    +0.222 HD
DOCKED: ENDBRANCH   8  10
DOCKED: BRANCH   8  12
DOCKED: ATOM     12  O   UNL d   1     -11.689  -4.409  11.818 -0.07 +0.27    -0.303 OA
DOCKED: ATOM     13  H   UNL d   1     -10.762  -4.199  12.073 -0.46 -0.39    +0.222 HD
DOCKED: ENDBRANCH   8  12
DOCKED: ENDBRANCH   7   8
DOCKED: ENDBRANCH   1   7
DOCKED: BRANCH   2  14
DOCKED: ATOM     14  O   UNL d   1     -12.406   0.396   9.887 -0.10 +0.06    -0.278 OA
DOCKED: BRANCH  14  15
DOCKED: ATOM     15  P   UNL d   1     -12.031  -0.015   8.386 -0.13 -0.14    +0.473 P 
DOCKED: ATOM     16  O   UNL d   1     -10.579   0.016   8.023 -0.24 +0.07    -0.228 OA
DOCKED: BRANCH  15  17
DOCKED: ATOM     17  O   UNL d   1     -12.682  -1.458   8.205 -0.10 +0.12    -0.303 OA
DOCKED: ATOM     18  H   UNL d   1     -12.379  -2.070   8.902 +0.07 -0.10    +0.222 HD
DOCKED: ENDBRANCH  15  17
DOCKED: BRANCH  15  19
DOCKED: ATOM     19  O   UNL d   1     -12.983   0.881   7.479 -0.07 +0.07    -0.303 OA
DOCKED: ATOM     20  H   UNL d   1     -13.641   1.363   8.014 +0.05 -0.03    +0.222 HD
DOCKED: ENDBRANCH  15  19
DOCKED: ENDBRANCH  14  15
DOCKED: ENDBRANCH   2  14
DOCKED: BRANCH   6  21
DOCKED: ATOM     21  O   UNL d   1     -12.108  -1.278  13.833 -0.03 +0.01    -0.278 OA
DOCKED: BRANCH  21  22
DOCKED: ATOM     22  P   UNL d   1     -10.608  -1.541  14.309 -0.02 +0.16    +0.473 P 
DOCKED: ATOM     23  O   UNL d   1     -10.393  -2.216  15.621 -0.66 -0.15    -0.228 OA
DOCKED: BRANCH  22  24
DOCKED: ATOM     24  O   UNL d   1      -9.999  -2.309  13.055 -0.45 +0.12    -0.303 OA
DOCKED: ATOM     25  H   UNL d   1     -10.713  -2.874  12.663 -0.24 -0.20    +0.222 HD
DOCKED: ENDBRANCH  22  24
DOCKED: BRANCH  22  26
DOCKED: ATOM     26  O   UNL d   1      -9.957  -0.084  14.152 -0.23 -0.16    -0.303 OA
DOCKED: ATOM     27  H   UNL d   1     -10.656   0.557  13.912 +0.07 +0.05    +0.222 HD
DOCKED: ENDBRANCH  22  26
DOCKED: ENDBRANCH  21  22
DOCKED: ENDBRANCH   6  21
DOCKED: BRANCH   3  28
DOCKED: ATOM     28  O   UNL d   1     -14.741   1.653   9.982 -0.01 +0.03    -0.278 OA
DOCKED: BRANCH  28  29
DOCKED: ATOM     29  P   UNL d   1     -15.857   1.377   8.879 +0.01 -0.04    +0.473 P 
DOCKED: ATOM     30  O   UNL d   1     -17.258   1.366   9.373 +0.00 +0.02    -0.228 OA
DOCKED: BRANCH  29  31
DOCKED: ATOM     31  O   UNL d   1     -15.474   2.503   7.807 -0.00 +0.02    -0.303 OA
DOCKED: ATOM     32  H   UNL d   1     -14.698   2.190   7.287 +0.03 -0.02    +0.222 HD
DOCKED: ENDBRANCH  29  31
DOCKED: BRANCH  29  33
DOCKED: ATOM     33  O   UNL d   1     -15.324   0.043   8.192 -0.00 +0.04    -0.303 OA
DOCKED: ATOM     34  H   UNL d   1     -14.393  -0.118   8.483 +0.03 -0.04    +0.222 HD
DOCKED: ENDBRANCH  29  33
DOCKED: ENDBRANCH  28  29
DOCKED: ENDBRANCH   3  28
DOCKED: BRANCH   5  35
DOCKED: ATOM     35  O   UNL d   1     -12.559   1.598  14.069 -0.04 -0.01    -0.278 OA
DOCKED: BRANCH  35  36
DOCKED: ATOM     36  P   UNL d   1     -11.405   2.465  13.390 -0.10 +0.03    +0.473 P 
DOCKED: ATOM     37  O   UNL d   1     -10.859   1.921  12.108 -0.22 +0.00    -0.228 OA
DOCKED: BRANCH  36  38
DOCKED: ATOM     38  O   UNL d   1     -12.105   3.888  13.252 -0.11 -0.01    -0.303 OA
DOCKED: ATOM     39  H   UNL d   1     -13.070   3.761  13.131 +0.03 -0.00    +0.222 HD
DOCKED: ENDBRANCH  36  38
DOCKED: BRANCH  36  40
DOCKED: ATOM     40  O   UNL d   1     -10.376   2.659  14.588 -0.13 -0.07    -0.303 OA
DOCKED: ATOM     41  H   UNL d   1     -10.195   1.812  15.053 +0.07 +0.07    +0.222 HD
DOCKED: ENDBRANCH  36  40
DOCKED: ENDBRANCH  35  36
DOCKED: ENDBRANCH   5  35
DOCKED: BRANCH   4  42
DOCKED: ATOM     42  O   UNL d   1     -15.112   2.174  12.788 -0.00 +0.01    -0.278 OA
DOCKED: BRANCH  42  43
DOCKED: ATOM     43  P   UNL d   1     -15.459   3.668  12.349 +0.00 -0.02    +0.473 P 
DOCKED: ATOM     44  O   UNL d   1     -15.646   4.676  13.429 -0.00 +0.01    -0.228 OA
DOCKED: BRANCH  43  45
DOCKED: ATOM     45  O   UNL d   1     -14.284   4.014  11.332 -0.01 +0.01    -0.303 OA
DOCKED: ATOM     46  H   UNL d   1     -14.409   3.562  10.474 +0.02 -0.01    +0.222 HD
DOCKED: ENDBRANCH  43  45
DOCKED: BRANCH  43  47
DOCKED: ATOM     47  O   UNL d   1     -16.703   3.478  11.356 +0.00 +0.01    -0.303 OA
DOCKED: ATOM     48  H   UNL d   1     -16.443   2.882  10.624 +0.00 -0.01    +0.222 HD
DOCKED: ENDBRANCH  43  47
DOCKED: ENDBRANCH  42  43
DOCKED: ENDBRANCH   4  42
DOCKED: TORSDOF 24
DOCKED: TER
DOCKED: ENDMDL
________________________________________________________________________________


	BEGINNING GENETIC ALGORITHM DOCKING 15 of 100
Run: 15 Seed: 723333738 1330277622 [ Run 15 of 100 GA/GALS ]
Beginning LAMARCKIAN GENETIC ALGORITHM (LGA), with a maximum of 25000000 energy evaluations.

Final-Value: -17.221


	FINAL GENETIC ALGORITHM DOCKED STATE
	_______________________________________________


Detailed state:  trans -6.892 12.985 -10.601 quatxyzw -0.345745 0.137933 -0.618299 0.692201 center 0.035 0.082 -0.065 ntor 24 -97.0146 18.0298 54.1908 -4.1472 -9.4702 168.3850 47.4961 -98.4368 141.2910 -24.4193 -180.0000 165.9007 62.4602 -179.8170 179.9307 104.0160 98.7590 7.2774 35.1446 -27.4232 -180.0000 -34.8911 -39.2493 155.7580
State:	 -6.892  12.985 -10.601  -0.479  0.191 -0.857 92.391    -97.01   18.03   54.19   -4.15   -9.47  168.38   47.50  -98.44  141.29  -24.42 -180.00  165.90   62.46 -179.82  179.93  104.02   98.76    7.28   35.14  -27.42 -180.00  -34.89  -39.25  155.76

DOCKED: MODEL       15
DOCKED: USER    Run = 15
DOCKED: USER    DPF = D:/Protein_go_brrr/autodock/final/mut_N102T/IHP/dock.dpf
DOCKED: USER  
DOCKED: USER    Estimated Free Energy of Binding    =   +2.62 kcal/mol  [=(1)+(2)+(3)-(4)]
DOCKED: USER    
DOCKED: USER    (1) Final Intermolecular Energy     =   -4.54 kcal/mol
DOCKED: USER        vdW + Hbond + desolv Energy     =   -4.42 kcal/mol
DOCKED: USER        Electrostatic Energy            =   -0.11 kcal/mol
DOCKED: USER    (2) Final Total Internal Energy     =  -12.69 kcal/mol
DOCKED: USER    (3) Torsional Free Energy           =   +7.16 kcal/mol
DOCKED: USER    (4) Unbound System's Energy  [=(2)] =  -12.69 kcal/mol
DOCKED: USER    
DOCKED: USER    
DOCKED: USER    NEWDPF move IHP_ideal_opt.pdbqt
DOCKED: USER    NEWDPF about 0.035000 0.082000 -0.065000
DOCKED: USER    NEWDPF tran0 -6.892364 12.985070 -10.600832
DOCKED: USER    NEWDPF quaternion0 -0.345745 0.137933 -0.618299 0.692201
DOCKED: USER    NEWDPF axisangle0 -0.479067 0.191121 -0.856719 92.390873
DOCKED: USER    NEWDPF quat0 -0.479067 0.191121 -0.856719 92.390873
DOCKED: USER    NEWDPF dihe0 -97.01 18.03 54.19 -4.15 -9.47 168.38 47.50 -98.44 141.29 -24.42 -180.00 165.90 62.46 -179.82 179.93 104.02 98.76 7.28 35.14 -27.42 -180.00 -34.89 -39.25 155.76 
DOCKED: USER  keepresnum = 1 
DOCKED: USER  
DOCKED: REMARK  24 active torsions:
DOCKED: REMARK  status: ('A' for Active; 'I' for Inactive)
DOCKED: REMARK    1  A    between atoms: C_1  and  O_7 
DOCKED: REMARK    2  A    between atoms: C_2  and  O_12 
DOCKED: REMARK    3  A    between atoms: C_3  and  O_17 
DOCKED: REMARK    4  A    between atoms: C_4  and  O_22 
DOCKED: REMARK    5  A    between atoms: C_5  and  O_27 
DOCKED: REMARK    6  A    between atoms: C_6  and  O_32 
DOCKED: REMARK    7  A    between atoms: O_7  and  P_8 
DOCKED: REMARK    8  A    between atoms: P_8  and  O_10 
DOCKED: REMARK    9  A    between atoms: P_8  and  O_11 
DOCKED: REMARK   10  A    between atoms: O_12  and  P_13 
DOCKED: REMARK   11  A    between atoms: P_13  and  O_15 
DOCKED: REMARK   12  A    between atoms: P_13  and  O_16 
DOCKED: REMARK   13  A    between atoms: O_17  and  P_18 
DOCKED: REMARK   14  A    between atoms: P_18  and  O_20 
DOCKED: REMARK   15  A    between atoms: P_18  and  O_21 
DOCKED: REMARK   16  A    between atoms: O_22  and  P_23 
DOCKED: REMARK   17  A    between atoms: P_23  and  O_25 
DOCKED: REMARK   18  A    between atoms: P_23  and  O_26 
DOCKED: REMARK   19  A    between atoms: O_27  and  P_28 
DOCKED: REMARK   20  A    between atoms: P_28  and  O_30 
DOCKED: REMARK   21  A    between atoms: P_28  and  O_31 
DOCKED: REMARK   22  A    between atoms: O_32  and  P_33 
DOCKED: REMARK   23  A    between atoms: P_33  and  O_35 
DOCKED: REMARK   24  A    between atoms: P_33  and  O_36 
DOCKED: USER                              x       y       z     vdW  Elec       q    Type
DOCKED: USER                           _______ _______ _______ _____ _____    ______ ____
DOCKED: ROOT
DOCKED: ATOM      1  C   UNL d   1      -5.613  13.428  -9.528 -0.08 -0.01    +0.194 C 
DOCKED: ATOM      2  C   UNL d   1      -5.182  12.721 -10.814 -0.13 -0.01    +0.194 C 
DOCKED: ATOM      3  C   UNL d   1      -6.093  11.537 -11.142 -0.10 -0.01    +0.194 C 
DOCKED: ATOM      4  C   UNL d   1      -7.575  11.903 -11.154 -0.03 -0.01    +0.194 C 
DOCKED: ATOM      5  C   UNL d   1      -8.025  12.709  -9.943 -0.01 -0.00    +0.194 C 
DOCKED: ATOM      6  C   UNL d   1      -7.080  13.856  -9.577 -0.01 -0.00    +0.194 C 
DOCKED: ENDROOT
DOCKED: BRANCH   1   7
DOCKED: ATOM      7  O   UNL d   1      -4.827  14.614  -9.385 -0.05 +0.00    -0.278 OA
DOCKED: BRANCH   7   8
DOCKED: ATOM      8  P   UNL d   1      -3.417  14.505  -8.643 -0.13 +0.01    +0.473 P 
DOCKED: ATOM      9  O   UNL d   1      -2.230  14.767  -9.502 -0.40 +0.01    -0.228 OA
DOCKED: BRANCH   8  10
DOCKED: ATOM     10  O   UNL d   1      -3.544  15.522  -7.420 -0.60 -0.04    -0.303 OA
DOCKED: ATOM     11  H   UNL d   1      -3.665  15.023  -6.591 +0.06 +0.02    +0.222 HD
DOCKED: ENDBRANCH   8  10
DOCKED: BRANCH   8  12
DOCKED: ATOM     12  O   UNL d   1      -3.444  13.097  -7.908 -0.23 +0.00    -0.303 OA
DOCKED: ATOM     13  H   UNL d   1      -4.354  12.797  -7.682 +0.09 -0.00    +0.222 HD
DOCKED: ENDBRANCH   8  12
DOCKED: ENDBRANCH   7   8
DOCKED: ENDBRANCH   1   7
DOCKED: BRANCH   2  14
DOCKED: ATOM     14  O   UNL d   1      -5.237  13.654 -11.900 -0.05 +0.01    -0.278 OA
DOCKED: BRANCH  14  15
DOCKED: ATOM     15  P   UNL d   1      -3.836  14.232 -12.419 -0.09 -0.01    +0.473 P 
DOCKED: ATOM     16  O   UNL d   1      -3.687  15.721 -12.434 -0.06 -0.01    -0.228 OA
DOCKED: BRANCH  15  17
DOCKED: ATOM     17  O   UNL d   1      -2.755  13.512 -11.497 -0.19 +0.06    -0.303 OA
DOCKED: ATOM     18  H   UNL d   1      -3.053  13.475 -10.568 -0.01 -0.05    +0.222 HD
DOCKED: ENDBRANCH  15  17
DOCKED: BRANCH  15  19
DOCKED: ATOM     19  O   UNL d   1      -3.600  13.505 -13.814 -0.16 -0.00    -0.303 OA
DOCKED: ATOM     20  H   UNL d   1      -3.502  12.541 -13.707 +0.00 -0.04    +0.222 HD
DOCKED: ENDBRANCH  15  19
DOCKED: ENDBRANCH  14  15
DOCKED: ENDBRANCH   2  14
DOCKED: BRANCH   6  21
DOCKED: ATOM     21  O   UNL d   1      -7.436  14.281  -8.263 -0.00 +0.00    -0.278 OA
DOCKED: BRANCH  21  22
DOCKED: ATOM     22  P   UNL d   1      -6.972  13.423  -7.001 +0.00 +0.00    +0.473 P 
DOCKED: ATOM     23  O   UNL d   1      -7.838  13.430  -5.787 -0.01 -0.00    -0.228 OA
DOCKED: BRANCH  22  24
DOCKED: ATOM     24  O   UNL d   1      -6.743  11.988  -7.649 -0.04 +0.00    -0.303 OA
DOCKED: ATOM     25  H   UNL d   1      -7.630  11.578  -7.812 +0.04 -0.00    +0.222 HD
DOCKED: ENDBRANCH  22  24
DOCKED: BRANCH  22  26
DOCKED: ATOM     26  O   UNL d   1      -5.467  13.937  -6.794 -0.03 -0.01    -0.303 OA
DOCKED: ATOM     27  H   UNL d   1      -5.230  14.540  -7.527 +0.05 +0.00    +0.222 HD
DOCKED: ENDBRANCH  22  26
DOCKED: ENDBRANCH  21  22
DOCKED: ENDBRANCH   6  21
DOCKED: BRANCH   3  28
DOCKED: ATOM     28  O   UNL d   1      -5.796  11.123 -12.470 -0.11 +0.03    -0.278 OA
DOCKED: BRANCH  28  29
DOCKED: ATOM     29  P   UNL d   1      -4.472  10.293 -12.777 -0.24 -0.12    +0.473 P 
DOCKED: ATOM     30  O   UNL d   1      -4.525   8.850 -12.430 -0.20 +0.07    -0.228 OA
DOCKED: BRANCH  29  31
DOCKED: ATOM     31  O   UNL d   1      -4.263  10.662 -14.320 -0.23 +0.13    -0.303 OA
DOCKED: ATOM     32  H   UNL d   1      -3.588  11.377 -14.384 -0.18 -0.12    +0.222 HD
DOCKED: ENDBRANCH  29  31
DOCKED: BRANCH  29  33
DOCKED: ATOM     33  O   UNL d   1      -3.355  11.167 -12.053 -0.26 +0.08    -0.303 OA
DOCKED: ATOM     34  H   UNL d   1      -3.556  12.125 -12.192 +0.05 -0.05    +0.222 HD
DOCKED: ENDBRANCH  29  33
DOCKED: ENDBRANCH  28  29
DOCKED: ENDBRANCH   3  28
DOCKED: BRANCH   5  35
DOCKED: ATOM     35  O   UNL d   1      -9.273  13.294 -10.308 -0.00 +0.00    -0.278 OA
DOCKED: BRANCH  35  36
DOCKED: ATOM     36  P   UNL d   1     -10.640  12.533  -9.995 +0.00 -0.01    +0.473 P 
DOCKED: ATOM     37  O   UNL d   1     -11.786  13.405  -9.592 +0.00 +0.00    -0.228 OA
DOCKED: BRANCH  36  38
DOCKED: ATOM     38  O   UNL d   1     -10.878  11.722 -11.345 +0.00 +0.00    -0.303 OA
DOCKED: ATOM     39  H   UNL d   1     -10.221  10.994 -11.402 +0.01 -0.01    +0.222 HD
DOCKED: ENDBRANCH  36  38
DOCKED: BRANCH  36  40
DOCKED: ATOM     40  O   UNL d   1     -10.179  11.420  -8.956 -0.00 +0.00    -0.303 OA
DOCKED: ATOM     41  H   UNL d   1      -9.577  10.763  -9.370 +0.02 -0.01    +0.222 HD
DOCKED: ENDBRANCH  36  40
DOCKED: ENDBRANCH  35  36
DOCKED: ENDBRANCH   5  35
DOCKED: BRANCH   4  42
DOCKED: ATOM     42  O   UNL d   1      -8.307  10.672 -11.136 -0.03 +0.02    -0.278 OA
DOCKED: BRANCH  42  43
DOCKED: ATOM     43  P   UNL d   1      -7.850   9.519 -10.133 -0.09 -0.04    +0.473 P 
DOCKED: ATOM     44  O   UNL d   1      -7.705   9.877  -8.695 -0.08 +0.01    -0.228 OA
DOCKED: BRANCH  43  45
DOCKED: ATOM     45  O   UNL d   1      -8.916   8.371 -10.413 -0.30 +0.03    -0.303 OA
DOCKED: ATOM     46  H   UNL d   1      -8.520   7.628 -10.911 -0.49 -0.09    +0.222 HD
DOCKED: ENDBRANCH  43  45
DOCKED: BRANCH  43  47
DOCKED: ATOM     47  O   UNL d   1      -6.538   8.922 -10.834 -0.19 +0.06    -0.303 OA
DOCKED: ATOM     48  H   UNL d   1      -6.501   9.229 -11.763 +0.09 -0.05    +0.222 HD
DOCKED: ENDBRANCH  43  47
DOCKED: ENDBRANCH  42  43
DOCKED: ENDBRANCH   4  42
DOCKED: TORSDOF 24
DOCKED: TER
DOCKED: ENDMDL
________________________________________________________________________________


	BEGINNING GENETIC ALGORITHM DOCKING 16 of 100
Run: 16 Seed: 1622798041 1432263823 [ Run 16 of 100 GA/GALS ]
Beginning LAMARCKIAN GENETIC ALGORITHM (LGA), with a maximum of 25000000 energy evaluations.

Final-Value: -18.256


	FINAL GENETIC ALGORITHM DOCKED STATE
	_______________________________________________


Detailed state:  trans -9.934 -15.352 12.160 quatxyzw 0.423513 -0.851071 0.266154 0.159617 center 0.035 0.082 -0.065 ntor 24 -108.4777 -48.3359 154.6407 9.2514 70.5411 -68.0023 -84.4643 -0.4638 -38.6466 129.5152 58.4431 179.8278 99.9195 177.7130 122.3035 5.0772 -72.4417 133.5201 -19.6116 11.6779 156.7075 -8.3733 -35.1177 0.5284
State:	 -9.934 -15.352  12.160   0.429 -0.862  0.270 161.631   -108.48  -48.34  154.64    9.25   70.54  -68.00  -84.46   -0.46  -38.65  129.52   58.44  179.83   99.92  177.71  122.30    5.08  -72.44  133.52  -19.61   11.68  156.71   -8.37  -35.12    0.53

DOCKED: MODEL       16
DOCKED: USER    Run = 16
DOCKED: USER    DPF = D:/Protein_go_brrr/autodock/final/mut_N102T/IHP/dock.dpf
DOCKED: USER  
DOCKED: USER    Estimated Free Energy of Binding    =   +3.38 kcal/mol  [=(1)+(2)+(3)-(4)]
DOCKED: USER    
DOCKED: USER    (1) Final Intermolecular Energy     =   -3.78 kcal/mol
DOCKED: USER        vdW + Hbond + desolv Energy     =   -3.45 kcal/mol
DOCKED: USER        Electrostatic Energy            =   -0.33 kcal/mol
DOCKED: USER    (2) Final Total Internal Energy     =  -14.48 kcal/mol
DOCKED: USER    (3) Torsional Free Energy           =   +7.16 kcal/mol
DOCKED: USER    (4) Unbound System's Energy  [=(2)] =  -14.48 kcal/mol
DOCKED: USER    
DOCKED: USER    
DOCKED: USER    NEWDPF move IHP_ideal_opt.pdbqt
DOCKED: USER    NEWDPF about 0.035000 0.082000 -0.065000
DOCKED: USER    NEWDPF tran0 -9.933891 -15.351652 12.160377
DOCKED: USER    NEWDPF quaternion0 0.423513 -0.851071 0.266154 0.159617
DOCKED: USER    NEWDPF axisangle0 0.429013 -0.862124 0.269611 161.630637
DOCKED: USER    NEWDPF quat0 0.429013 -0.862124 0.269611 161.630637
DOCKED: USER    NEWDPF dihe0 -108.48 -48.34 154.64 9.25 70.54 -68.00 -84.46 -0.46 -38.65 129.52 58.44 179.83 99.92 177.71 122.30 5.08 -72.44 133.52 -19.61 11.68 156.71 -8.37 -35.12 0.53 
DOCKED: USER  keepresnum = 1 
DOCKED: USER  
DOCKED: REMARK  24 active torsions:
DOCKED: REMARK  status: ('A' for Active; 'I' for Inactive)
DOCKED: REMARK    1  A    between atoms: C_1  and  O_7 
DOCKED: REMARK    2  A    between atoms: C_2  and  O_12 
DOCKED: REMARK    3  A    between atoms: C_3  and  O_17 
DOCKED: REMARK    4  A    between atoms: C_4  and  O_22 
DOCKED: REMARK    5  A    between atoms: C_5  and  O_27 
DOCKED: REMARK    6  A    between atoms: C_6  and  O_32 
DOCKED: REMARK    7  A    between atoms: O_7  and  P_8 
DOCKED: REMARK    8  A    between atoms: P_8  and  O_10 
DOCKED: REMARK    9  A    between atoms: P_8  and  O_11 
DOCKED: REMARK   10  A    between atoms: O_12  and  P_13 
DOCKED: REMARK   11  A    between atoms: P_13  and  O_15 
DOCKED: REMARK   12  A    between atoms: P_13  and  O_16 
DOCKED: REMARK   13  A    between atoms: O_17  and  P_18 
DOCKED: REMARK   14  A    between atoms: P_18  and  O_20 
DOCKED: REMARK   15  A    between atoms: P_18  and  O_21 
DOCKED: REMARK   16  A    between atoms: O_22  and  P_23 
DOCKED: REMARK   17  A    between atoms: P_23  and  O_25 
DOCKED: REMARK   18  A    between atoms: P_23  and  O_26 
DOCKED: REMARK   19  A    between atoms: O_27  and  P_28 
DOCKED: REMARK   20  A    between atoms: P_28  and  O_30 
DOCKED: REMARK   21  A    between atoms: P_28  and  O_31 
DOCKED: REMARK   22  A    between atoms: O_32  and  P_33 
DOCKED: REMARK   23  A    between atoms: P_33  and  O_35 
DOCKED: REMARK   24  A    between atoms: P_33  and  O_36 
DOCKED: USER                              x       y       z     vdW  Elec       q    Type
DOCKED: USER                           _______ _______ _______ _____ _____    ______ ____
DOCKED: ROOT
DOCKED: ATOM      1  C   UNL d   1      -9.716 -17.056  11.986 -0.08 -0.08    +0.194 C 
DOCKED: ATOM      2  C   UNL d   1      -8.651 -16.335  12.815 -0.07 -0.07    +0.194 C 
DOCKED: ATOM      3  C   UNL d   1      -8.226 -15.016  12.166 -0.12 -0.09    +0.194 C 
DOCKED: ATOM      4  C   UNL d   1      -9.404 -14.108  11.823 -0.10 -0.08    +0.194 C 
DOCKED: ATOM      5  C   UNL d   1     -10.541 -14.814  11.096 -0.11 -0.07    +0.194 C 
DOCKED: ATOM      6  C   UNL d   1     -10.925 -16.162  11.708 -0.06 -0.06    +0.194 C 
DOCKED: ENDROOT
DOCKED: BRANCH   1   7
DOCKED: ATOM      7  O   UNL d   1     -10.180 -18.180  12.738 -0.01 +0.09    -0.278 OA
DOCKED: BRANCH   7   8
DOCKED: ATOM      8  P   UNL d   1     -10.510 -19.533  11.955 -0.00 -0.18    +0.473 P 
DOCKED: ATOM      9  O   UNL d   1     -10.340 -20.779  12.751 -0.00 +0.06    -0.228 OA
DOCKED: BRANCH   8  10
DOCKED: ATOM     10  O   UNL d   1     -12.002 -19.322  11.430 -0.00 +0.09    -0.303 OA
DOCKED: ATOM     11  H   UNL d   1     -11.981 -18.963  10.523 +0.02 -0.09    +0.222 HD
DOCKED: ENDBRANCH   8  10
DOCKED: BRANCH   8  12
DOCKED: ATOM     12  O   UNL d   1      -9.668 -19.448  10.611 -0.08 +0.27    -0.303 OA
DOCKED: ATOM     13  H   UNL d   1     -10.179 -19.071   9.859 -0.14 -0.26    +0.222 HD
DOCKED: ENDBRANCH   8  12
DOCKED: ENDBRANCH   7   8
DOCKED: ENDBRANCH   1   7
DOCKED: BRANCH   2  14
DOCKED: ATOM     14  O   UNL d   1      -9.183 -16.054  14.115 -0.01 +0.07    -0.278 OA
DOCKED: BRANCH  14  15
DOCKED: ATOM     15  P   UNL d   1      -8.166 -16.173  15.346 +0.00 -0.10    +0.473 P 
DOCKED: ATOM     16  O   UNL d   1      -8.587 -17.049  16.484 -0.00 +0.04    -0.228 OA
DOCKED: BRANCH  15  17
DOCKED: ATOM     17  O   UNL d   1      -6.800 -16.646  14.676 -0.01 +0.08    -0.303 OA
DOCKED: ATOM     18  H   UNL d   1      -6.497 -16.004  14.004 +0.04 -0.07    +0.222 HD
DOCKED: ENDBRANCH  15  17
DOCKED: BRANCH  15  19
DOCKED: ATOM     19  O   UNL d   1      -7.828 -14.666  15.729 -0.00 +0.06    -0.303 OA
DOCKED: ATOM     20  H   UNL d   1      -7.560 -14.147  14.948 +0.02 -0.05    +0.222 HD
DOCKED: ENDBRANCH  15  19
DOCKED: ENDBRANCH  14  15
DOCKED: ENDBRANCH   2  14
DOCKED: BRANCH   6  21
DOCKED: ATOM     21  O   UNL d   1     -11.732 -16.837  10.746 -0.04 +0.10    -0.278 OA
DOCKED: BRANCH  21  22
DOCKED: ATOM     22  P   UNL d   1     -11.185 -17.050   9.263 -0.15 -0.26    +0.473 P 
DOCKED: ATOM     23  O   UNL d   1     -11.687 -18.221   8.488 -0.13 +0.15    -0.228 OA
DOCKED: BRANCH  22  24
DOCKED: ATOM     24  O   UNL d   1     -11.482 -15.634   8.600 -0.73 +0.06    -0.303 OA
DOCKED: ATOM     25  H   UNL d   1     -11.840 -15.034   9.303 +0.04 -0.05    +0.222 HD
DOCKED: ENDBRANCH  22  24
DOCKED: BRANCH  22  26
DOCKED: ATOM     26  O   UNL d   1      -9.599 -16.983   9.488 -0.06 +0.30    -0.303 OA
DOCKED: ATOM     27  H   UNL d   1      -9.201 -17.840   9.232 -0.32 -0.41    +0.222 HD
DOCKED: ENDBRANCH  22  26
DOCKED: ENDBRANCH  21  22
DOCKED: ENDBRANCH   6  21
DOCKED: BRANCH   3  28
DOCKED: ATOM     28  O   UNL d   1      -7.460 -14.296  13.123 -0.08 +0.09    -0.278 OA
DOCKED: BRANCH  28  29
DOCKED: ATOM     29  P   UNL d   1      -5.871 -14.256  13.017 -0.14 -0.17    +0.473 P 
DOCKED: ATOM     30  O   UNL d   1      -5.255 -15.349  12.222 -0.25 +0.12    -0.228 OA
DOCKED: BRANCH  29  31
DOCKED: ATOM     31  O   UNL d   1      -5.664 -12.762  12.482 -0.22 +0.09    -0.303 OA
DOCKED: ATOM     32  H   UNL d   1      -6.428 -12.526  11.906 +0.10 -0.06    +0.222 HD
DOCKED: ENDBRANCH  29  31
DOCKED: BRANCH  29  33
DOCKED: ATOM     33  O   UNL d   1      -5.437 -14.145  14.545 -0.05 +0.09    -0.303 OA
DOCKED: ATOM     34  H   UNL d   1      -5.795 -14.924  15.038 +0.04 -0.06    +0.222 HD
DOCKED: ENDBRANCH  29  33
DOCKED: ENDBRANCH  28  29
DOCKED: ENDBRANCH   3  28
DOCKED: BRANCH   5  35
DOCKED: ATOM     35  O   UNL d   1     -11.673 -13.957  11.224 -0.03 +0.07    -0.278 OA
DOCKED: BRANCH  35  36
DOCKED: ATOM     36  P   UNL d   1     -12.036 -12.923  10.064 -0.05 -0.10    +0.473 P 
DOCKED: ATOM     37  O   UNL d   1     -10.881 -12.444   9.244 -0.16 +0.06    -0.228 OA
DOCKED: BRANCH  36  38
DOCKED: ATOM     38  O   UNL d   1     -13.134 -13.730   9.240 -0.04 +0.05    -0.303 OA
DOCKED: ATOM     39  H   UNL d   1     -12.750 -14.008   8.381 +0.03 -0.04    +0.222 HD
DOCKED: ENDBRANCH  36  38
DOCKED: BRANCH  36  40
DOCKED: ATOM     40  O   UNL d   1     -12.875 -11.819  10.843 -0.01 +0.05    -0.303 OA
DOCKED: ATOM     41  H   UNL d   1     -12.296 -11.122  11.222 +0.02 -0.04    +0.222 HD
DOCKED: ENDBRANCH  36  40
DOCKED: ENDBRANCH  35  36
DOCKED: ENDBRANCH   5  35
DOCKED: BRANCH   4  42
DOCKED: ATOM     42  O   UNL d   1      -8.904 -13.096  10.941 -0.12 +0.13    -0.278 OA
DOCKED: BRANCH  42  43
DOCKED: ATOM     43  P   UNL d   1      -8.798 -11.595  11.470 -0.13 -0.12    +0.473 P 
DOCKED: ATOM     44  O   UNL d   1      -8.258 -10.573  10.531 -0.27 +0.05    -0.228 OA
DOCKED: BRANCH  43  45
DOCKED: ATOM     45  O   UNL d   1     -10.278 -11.298  11.974 -0.03 +0.07    -0.303 OA
DOCKED: ATOM     46  H   UNL d   1     -10.910 -11.967  11.642 +0.04 -0.05    +0.222 HD
DOCKED: ENDBRANCH  43  45
DOCKED: BRANCH  43  47
DOCKED: ATOM     47  O   UNL d   1      -8.006 -11.750  12.855 -0.08 +0.07    -0.303 OA
DOCKED: ATOM     48  H   UNL d   1      -7.820 -12.698  13.016 +0.06 -0.06    +0.222 HD
DOCKED: ENDBRANCH  43  47
DOCKED: ENDBRANCH  42  43
DOCKED: ENDBRANCH   4  42
DOCKED: TORSDOF 24
DOCKED: TER
DOCKED: ENDMDL
________________________________________________________________________________


	BEGINNING GENETIC ALGORITHM DOCKING 17 of 100
Run: 17 Seed: 2134625176 1034494019 [ Run 17 of 100 GA/GALS ]
Beginning LAMARCKIAN GENETIC ALGORITHM (LGA), with a maximum of 25000000 energy evaluations.

Final-Value: -17.707


	FINAL GENETIC ALGORITHM DOCKED STATE
	_______________________________________________


Detailed state:  trans 12.504 8.480 -15.930 quatxyzw 0.436919 0.049842 0.859625 0.260119 center 0.035 0.082 -0.065 ntor 24 -177.6819 -38.3201 131.0286 140.0447 21.5247 179.5844 -124.5583 -13.2419 49.6529 -4.0553 -8.1027 180.0000 -120.7742 86.1467 -51.3713 14.0399 158.4596 2.9889 43.6609 -8.9713 -179.9609 -30.7665 -5.8410 163.6355
State:	 12.504   8.480 -15.930   0.452  0.052  0.890 149.846   -177.68  -38.32  131.03  140.04   21.52  179.58 -124.56  -13.24   49.65   -4.06   -8.10  180.00 -120.77   86.15  -51.37   14.04  158.46    2.99   43.66   -8.97 -179.96  -30.77   -5.84  163.64

DOCKED: MODEL       17
DOCKED: USER    Run = 17
DOCKED: USER    DPF = D:/Protein_go_brrr/autodock/final/mut_N102T/IHP/dock.dpf
DOCKED: USER  
DOCKED: USER    Estimated Free Energy of Binding    =   +3.83 kcal/mol  [=(1)+(2)+(3)-(4)]
DOCKED: USER    
DOCKED: USER    (1) Final Intermolecular Energy     =   -3.33 kcal/mol
DOCKED: USER        vdW + Hbond + desolv Energy     =   -3.29 kcal/mol
DOCKED: USER        Electrostatic Energy            =   -0.03 kcal/mol
DOCKED: USER    (2) Final Total Internal Energy     =  -14.38 kcal/mol
DOCKED: USER    (3) Torsional Free Energy           =   +7.16 kcal/mol
DOCKED: USER    (4) Unbound System's Energy  [=(2)] =  -14.38 kcal/mol
DOCKED: USER    
DOCKED: USER    
DOCKED: USER    NEWDPF move IHP_ideal_opt.pdbqt
DOCKED: USER    NEWDPF about 0.035000 0.082000 -0.065000
DOCKED: USER    NEWDPF tran0 12.504038 8.480480 -15.929590
DOCKED: USER    NEWDPF quaternion0 0.436919 0.049842 0.859625 0.260119
DOCKED: USER    NEWDPF axisangle0 0.452495 0.051619 0.890271 149.845797
DOCKED: USER    NEWDPF quat0 0.452495 0.051619 0.890271 149.845797
DOCKED: USER    NEWDPF dihe0 -177.68 -38.32 131.03 140.04 21.52 179.58 -124.56 -13.24 49.65 -4.06 -8.10 180.00 -120.77 86.15 -51.37 14.04 158.46 2.99 43.66 -8.97 -179.96 -30.77 -5.84 163.64 
DOCKED: USER  keepresnum = 1 
DOCKED: USER  
DOCKED: REMARK  24 active torsions:
DOCKED: REMARK  status: ('A' for Active; 'I' for Inactive)
DOCKED: REMARK    1  A    between atoms: C_1  and  O_7 
DOCKED: REMARK    2  A    between atoms: C_2  and  O_12 
DOCKED: REMARK    3  A    between atoms: C_3  and  O_17 
DOCKED: REMARK    4  A    between atoms: C_4  and  O_22 
DOCKED: REMARK    5  A    between atoms: C_5  and  O_27 
DOCKED: REMARK    6  A    between atoms: C_6  and  O_32 
DOCKED: REMARK    7  A    between atoms: O_7  and  P_8 
DOCKED: REMARK    8  A    between atoms: P_8  and  O_10 
DOCKED: REMARK    9  A    between atoms: P_8  and  O_11 
DOCKED: REMARK   10  A    between atoms: O_12  and  P_13 
DOCKED: REMARK   11  A    between atoms: P_13  and  O_15 
DOCKED: REMARK   12  A    between atoms: P_13  and  O_16 
DOCKED: REMARK   13  A    between atoms: O_17  and  P_18 
DOCKED: REMARK   14  A    between atoms: P_18  and  O_20 
DOCKED: REMARK   15  A    between atoms: P_18  and  O_21 
DOCKED: REMARK   16  A    between atoms: O_22  and  P_23 
DOCKED: REMARK   17  A    between atoms: P_23  and  O_25 
DOCKED: REMARK   18  A    between atoms: P_23  and  O_26 
DOCKED: REMARK   19  A    between atoms: O_27  and  P_28 
DOCKED: REMARK   20  A    between atoms: P_28  and  O_30 
DOCKED: REMARK   21  A    between atoms: P_28  and  O_31 
DOCKED: REMARK   22  A    between atoms: O_32  and  P_33 
DOCKED: REMARK   23  A    between atoms: P_33  and  O_35 
DOCKED: REMARK   24  A    between atoms: P_33  and  O_36 
DOCKED: USER                              x       y       z     vdW  Elec       q    Type
DOCKED: USER                           _______ _______ _______ _____ _____    ______ ____
DOCKED: ROOT
DOCKED: ATOM      1  C   UNL d   1      12.037   8.986 -14.345 -0.16 -0.01    +0.194 C 
DOCKED: ATOM      2  C   UNL d   1      11.977  10.065 -15.427 -0.08 -0.00    +0.194 C 
DOCKED: ATOM      3  C   UNL d   1      13.204  10.020 -16.340 -0.03 -0.00    +0.194 C 
DOCKED: ATOM      4  C   UNL d   1      13.471   8.634 -16.922 -0.04 +0.01    +0.194 C 
DOCKED: ATOM      5  C   UNL d   1      13.426   7.511 -15.894 -0.10 -0.00    +0.194 C 
DOCKED: ATOM      6  C   UNL d   1      12.231   7.591 -14.941 -0.09 +0.00    +0.194 C 
DOCKED: ENDROOT
DOCKED: BRANCH   1   7
DOCKED: ATOM      7  O   UNL d   1      10.788   8.982 -13.650 -0.18 +0.03    -0.278 OA
DOCKED: BRANCH   7   8
DOCKED: ATOM      8  P   UNL d   1      10.531  10.105 -12.544 -0.09 -0.12    +0.473 P 
DOCKED: ATOM      9  O   UNL d   1      11.356   9.979 -11.312 -0.15 +0.07    -0.228 OA
DOCKED: BRANCH   8  10
DOCKED: ATOM     10  O   UNL d   1      10.770  11.477 -13.323 -0.03 +0.05    -0.303 OA
DOCKED: ATOM     11  H   UNL d   1      10.621  11.341 -14.278 +0.05 -0.03    +0.222 HD
DOCKED: ENDBRANCH   8  10
DOCKED: BRANCH   8  12
DOCKED: ATOM     12  O   UNL d   1       8.957  10.118 -12.326 -0.23 +0.08    -0.303 OA
DOCKED: ATOM     13  H   UNL d   1       8.480  10.664 -12.990 +0.10 -0.06    +0.222 HD
DOCKED: ENDBRANCH   8  12
DOCKED: ENDBRANCH   7   8
DOCKED: ENDBRANCH   1   7
DOCKED: BRANCH   2  14
DOCKED: ATOM     14  O   UNL d   1      10.806   9.861 -16.227 -0.11 -0.02    -0.278 OA
DOCKED: BRANCH  14  15
DOCKED: ATOM     15  P   UNL d   1       9.775  11.083 -16.312 -0.08 -0.04    +0.473 P 
DOCKED: ATOM     16  O   UNL d   1       9.123  11.322 -17.638 -0.12 +0.03    -0.228 OA
DOCKED: BRANCH  15  17
DOCKED: ATOM     17  O   UNL d   1       8.724  10.785 -15.152 -0.15 +0.07    -0.303 OA
DOCKED: ATOM     18  H   UNL d   1       9.158  10.372 -14.382 +0.08 -0.03    +0.222 HD
DOCKED: ENDBRANCH  15  17
DOCKED: BRANCH  15  19
DOCKED: ATOM     19  O   UNL d   1      10.575  12.319 -15.708 -0.01 +0.03    -0.303 OA
DOCKED: ATOM     20  H   UNL d   1      11.182  12.710 -16.363 +0.02 -0.02    +0.222 HD
DOCKED: ENDBRANCH  15  19
DOCKED: ENDBRANCH  14  15
DOCKED: ENDBRANCH   2  14
DOCKED: BRANCH   6  21
DOCKED: ATOM     21  O   UNL d   1      12.509   6.708 -13.857 -0.13 +0.03    -0.278 OA
DOCKED: BRANCH  21  22
DOCKED: ATOM     22  P   UNL d   1      13.523   7.157 -12.710 -0.15 -0.09    +0.473 P 
DOCKED: ATOM     23  O   UNL d   1      14.503   8.238 -13.019 -0.05 +0.03    -0.228 OA
DOCKED: BRANCH  22  24
DOCKED: ATOM     24  O   UNL d   1      12.532   7.477 -11.506 -0.16 +0.10    -0.303 OA
DOCKED: ATOM     25  H   UNL d   1      11.772   8.002 -11.865 -0.34 -0.11    +0.222 HD
DOCKED: ENDBRANCH  22  24
DOCKED: BRANCH  22  26
DOCKED: ATOM     26  O   UNL d   1      14.148   5.750 -12.259 -0.13 +0.09    -0.303 OA
DOCKED: ATOM     27  H   UNL d   1      13.814   5.046 -12.851 -0.49 -0.12    +0.222 HD
DOCKED: ENDBRANCH  22  26
DOCKED: ENDBRANCH  21  22
DOCKED: ENDBRANCH   6  21
DOCKED: BRANCH   3  28
DOCKED: ATOM     28  O   UNL d   1      12.935  10.854 -17.460 -0.01 -0.00    -0.278 OA
DOCKED: BRANCH  28  29
DOCKED: ATOM     29  P   UNL d   1      13.095  12.434 -17.344 +0.00 -0.02    +0.473 P 
DOCKED: ATOM     30  O   UNL d   1      13.258  12.962 -15.965 -0.00 +0.01    -0.228 OA
DOCKED: BRANCH  29  31
DOCKED: ATOM     31  O   UNL d   1      14.309  12.669 -18.359 +0.00 +0.01    -0.303 OA
DOCKED: ATOM     32  H   UNL d   1      15.137  12.337 -17.941 +0.00 -0.01    +0.222 HD
DOCKED: ENDBRANCH  29  31
DOCKED: BRANCH  29  33
DOCKED: ATOM     33  O   UNL d   1      11.839  12.958 -18.170 +0.00 +0.01    -0.303 OA
DOCKED: ATOM     34  H   UNL d   1      11.039  12.445 -17.899 +0.02 -0.01    +0.222 HD
DOCKED: ENDBRANCH  29  33
DOCKED: ENDBRANCH  28  29
DOCKED: ENDBRANCH   3  28
DOCKED: BRANCH   5  35
DOCKED: ATOM     35  O   UNL d   1      13.285   6.306 -16.643 -0.09 -0.00    -0.278 OA
DOCKED: BRANCH  35  36
DOCKED: ATOM     36  P   UNL d   1      14.329   5.115 -16.456 -0.05 -0.03    +0.473 P 
DOCKED: ATOM     37  O   UNL d   1      14.432   4.160 -17.603 -0.02 +0.00    -0.228 OA
DOCKED: BRANCH  36  38
DOCKED: ATOM     38  O   UNL d   1      15.675   5.907 -16.141 -0.01 +0.02    -0.303 OA
DOCKED: ATOM     39  H   UNL d   1      15.586   6.830 -16.463 +0.02 -0.01    +0.222 HD
DOCKED: ENDBRANCH  36  38
DOCKED: BRANCH  36  40
DOCKED: ATOM     40  O   UNL d   1      13.904   4.509 -15.048 -0.10 +0.07    -0.303 OA
DOCKED: ATOM     41  H   UNL d   1      13.754   5.213 -14.379 -0.18 -0.07    +0.222 HD
DOCKED: ENDBRANCH  36  40
DOCKED: ENDBRANCH  35  36
DOCKED: ENDBRANCH   5  35
DOCKED: BRANCH   4  42
DOCKED: ATOM     42  O   UNL d   1      14.797   8.659 -17.461 -0.01 +0.00    -0.278 OA
DOCKED: BRANCH  42  43
DOCKED: ATOM     43  P   UNL d   1      15.998   9.150 -16.532 -0.00 -0.01    +0.473 P 
DOCKED: ATOM     44  O   UNL d   1      16.097   8.559 -15.169 -0.01 +0.01    -0.228 OA
DOCKED: BRANCH  43  45
DOCKED: ATOM     45  O   UNL d   1      17.274   8.893 -17.448 -0.00 +0.01    -0.303 OA
DOCKED: ATOM     46  H   UNL d   1      17.555   7.957 -17.415 +0.00 -0.01    +0.222 HD
DOCKED: ENDBRANCH  43  45
DOCKED: BRANCH  43  47
DOCKED: ATOM     47  O   UNL d   1      15.874  10.747 -16.587 -0.00 +0.01    -0.303 OA
DOCKED: ATOM     48  H   UNL d   1      15.127  10.993 -17.172 +0.00 -0.01    +0.222 HD
DOCKED: ENDBRANCH  43  47
DOCKED: ENDBRANCH  42  43
DOCKED: ENDBRANCH   4  42
DOCKED: TORSDOF 24
DOCKED: TER
DOCKED: ENDMDL
________________________________________________________________________________


	BEGINNING GENETIC ALGORITHM DOCKING 18 of 100
Run: 18 Seed: 84130549 1571393159 [ Run 18 of 100 GA/GALS ]
Beginning LAMARCKIAN GENETIC ALGORITHM (LGA), with a maximum of 25000000 energy evaluations.

Final-Value: -16.901


	FINAL GENETIC ALGORITHM DOCKED STATE
	_______________________________________________


Detailed state:  trans -4.867 17.790 17.783 quatxyzw -0.513641 0.076186 -0.744926 -0.418872 center 0.035 0.082 -0.065 ntor 24 13.8663 46.1026 163.4087 -15.8041 10.9564 -66.9080 -80.4127 -49.8875 13.1651 79.9617 93.6914 126.4149 157.5869 175.4915 -75.0982 12.4723 -42.1733 99.2503 54.5305 15.4478 6.4676 13.4545 174.9688 -9.9542
State:	 -4.867  17.790  17.783  -0.566  0.084 -0.820 -130.473     13.87   46.10  163.41  -15.80   10.96  -66.91  -80.41  -49.89   13.17   79.96   93.69  126.41  157.59  175.49  -75.10   12.47  -42.17   99.25   54.53   15.45    6.47   13.45  174.97   -9.95

DOCKED: MODEL       18
DOCKED: USER    Run = 18
DOCKED: USER    DPF = D:/Protein_go_brrr/autodock/final/mut_N102T/IHP/dock.dpf
DOCKED: USER  
DOCKED: USER    Estimated Free Energy of Binding    =   +5.02 kcal/mol  [=(1)+(2)+(3)-(4)]
DOCKED: USER    
DOCKED: USER    (1) Final Intermolecular Energy     =   -2.14 kcal/mol
DOCKED: USER        vdW + Hbond + desolv Energy     =   -2.06 kcal/mol
DOCKED: USER        Electrostatic Energy            =   -0.07 kcal/mol
DOCKED: USER    (2) Final Total Internal Energy     =  -14.76 kcal/mol
DOCKED: USER    (3) Torsional Free Energy           =   +7.16 kcal/mol
DOCKED: USER    (4) Unbound System's Energy  [=(2)] =  -14.76 kcal/mol
DOCKED: USER    
DOCKED: USER    
DOCKED: USER    NEWDPF move IHP_ideal_opt.pdbqt
DOCKED: USER    NEWDPF about 0.035000 0.082000 -0.065000
DOCKED: USER    NEWDPF tran0 -4.867429 17.790137 17.783442
DOCKED: USER    NEWDPF quaternion0 -0.513641 0.076186 -0.744926 -0.418872
DOCKED: USER    NEWDPF axisangle0 -0.565655 0.083901 -0.820362 -130.473243
DOCKED: USER    NEWDPF quat0 -0.565655 0.083901 -0.820362 -130.473243
DOCKED: USER    NEWDPF dihe0 13.87 46.10 163.41 -15.80 10.96 -66.91 -80.41 -49.89 13.17 79.96 93.69 126.41 157.59 175.49 -75.10 12.47 -42.17 99.25 54.53 15.45 6.47 13.45 174.97 -9.95 
DOCKED: USER  keepresnum = 1 
DOCKED: USER  
DOCKED: REMARK  24 active torsions:
DOCKED: REMARK  status: ('A' for Active; 'I' for Inactive)
DOCKED: REMARK    1  A    between atoms: C_1  and  O_7 
DOCKED: REMARK    2  A    between atoms: C_2  and  O_12 
DOCKED: REMARK    3  A    between atoms: C_3  and  O_17 
DOCKED: REMARK    4  A    between atoms: C_4  and  O_22 
DOCKED: REMARK    5  A    between atoms: C_5  and  O_27 
DOCKED: REMARK    6  A    between atoms: C_6  and  O_32 
DOCKED: REMARK    7  A    between atoms: O_7  and  P_8 
DOCKED: REMARK    8  A    between atoms: P_8  and  O_10 
DOCKED: REMARK    9  A    between atoms: P_8  and  O_11 
DOCKED: REMARK   10  A    between atoms: O_12  and  P_13 
DOCKED: REMARK   11  A    between atoms: P_13  and  O_15 
DOCKED: REMARK   12  A    between atoms: P_13  and  O_16 
DOCKED: REMARK   13  A    between atoms: O_17  and  P_18 
DOCKED: REMARK   14  A    between atoms: P_18  and  O_20 
DOCKED: REMARK   15  A    between atoms: P_18  and  O_21 
DOCKED: REMARK   16  A    between atoms: O_22  and  P_23 
DOCKED: REMARK   17  A    between atoms: P_23  and  O_25 
DOCKED: REMARK   18  A    between atoms: P_23  and  O_26 
DOCKED: REMARK   19  A    between atoms: O_27  and  P_28 
DOCKED: REMARK   20  A    between atoms: P_28  and  O_30 
DOCKED: REMARK   21  A    between atoms: P_28  and  O_31 
DOCKED: REMARK   22  A    between atoms: O_32  and  P_33 
DOCKED: REMARK   23  A    between atoms: P_33  and  O_35 
DOCKED: REMARK   24  A    between atoms: P_33  and  O_36 
DOCKED: USER                              x       y       z     vdW  Elec       q    Type
DOCKED: USER                           _______ _______ _______ _____ _____    ______ ____
DOCKED: ROOT
DOCKED: ATOM      1  C   UNL d   1      -4.848  17.727  19.510 -0.01 -0.02    +0.194 C 
DOCKED: ATOM      2  C   UNL d   1      -5.442  18.999  18.901 -0.01 -0.02    +0.194 C 
DOCKED: ATOM      3  C   UNL d   1      -4.603  19.510  17.728 -0.02 -0.02    +0.194 C 
DOCKED: ATOM      4  C   UNL d   1      -4.329  18.440  16.674 -0.08 -0.03    +0.194 C 
DOCKED: ATOM      5  C   UNL d   1      -3.844  17.114  17.247 -0.12 -0.05    +0.194 C 
DOCKED: ATOM      6  C   UNL d   1      -4.645  16.634  18.459 -0.05 -0.03    +0.194 C 
DOCKED: ENDROOT
DOCKED: BRANCH   1   7
DOCKED: ATOM      7  O   UNL d   1      -5.773  17.222  20.476 -0.00 +0.02    -0.278 OA
DOCKED: BRANCH   7   8
DOCKED: ATOM      8  P   UNL d   1      -6.011  18.065  21.812 +0.00 -0.04    +0.473 P 
DOCKED: ATOM      9  O   UNL d   1      -6.387  17.262  23.007 +0.00 +0.02    -0.228 OA
DOCKED: BRANCH   8  10
DOCKED: ATOM     10  O   UNL d   1      -4.652  18.878  22.004 +0.00 +0.02    -0.303 OA
DOCKED: ATOM     11  H   UNL d   1      -4.445  18.948  22.954 +0.00 -0.02    +0.222 HD
DOCKED: ENDBRANCH   8  10
DOCKED: BRANCH   8  12
DOCKED: ATOM     12  O   UNL d   1      -7.030  19.213  21.399 +0.00 +0.02    -0.303 OA
DOCKED: ATOM     13  H   UNL d   1      -7.304  19.163  20.455 +0.00 -0.02    +0.222 HD
DOCKED: ENDBRANCH   8  12
DOCKED: ENDBRANCH   7   8
DOCKED: ENDBRANCH   1   7
DOCKED: BRANCH   2  14
DOCKED: ATOM     14  O   UNL d   1      -6.765  18.718  18.429 -0.00 +0.02    -0.278 OA
DOCKED: BRANCH  14  15
DOCKED: ATOM     15  P   UNL d   1      -7.827  19.913  18.520 +0.00 -0.03    +0.473 P 
DOCKED: ATOM     16  O   UNL d   1      -9.135  19.601  19.176 +0.00 +0.01    -0.228 OA
DOCKED: BRANCH  15  17
DOCKED: ATOM     17  O   UNL d   1      -7.032  21.082  19.254 +0.00 +0.02    -0.303 OA
DOCKED: ATOM     18  H   UNL d   1      -6.314  21.427  18.690 +0.00 -0.02    +0.222 HD
DOCKED: ENDBRANCH  15  17
DOCKED: BRANCH  15  19
DOCKED: ATOM     19  O   UNL d   1      -7.921  20.474  17.035 -0.00 +0.02    -0.303 OA
DOCKED: ATOM     20  H   UNL d   1      -7.141  21.011  16.802 +0.00 -0.02    +0.222 HD
DOCKED: ENDBRANCH  15  19
DOCKED: ENDBRANCH  14  15
DOCKED: ENDBRANCH   2  14
DOCKED: BRANCH   6  21
DOCKED: ATOM     21  O   UNL d   1      -3.880  15.600  19.075 -0.06 +0.04    -0.278 OA
DOCKED: BRANCH  21  22
DOCKED: ATOM     22  P   UNL d   1      -4.188  14.074  18.727 -0.05 -0.07    +0.473 P 
DOCKED: ATOM     23  O   UNL d   1      -5.612  13.632  18.694 -0.02 +0.03    -0.228 OA
DOCKED: BRANCH  22  24
DOCKED: ATOM     24  O   UNL d   1      -3.399  13.886  17.358 -0.13 +0.07    -0.303 OA
DOCKED: ATOM     25  H   UNL d   1      -3.714  14.579  16.723 -0.37 -0.09    +0.222 HD
DOCKED: ENDBRANCH  22  24
DOCKED: BRANCH  22  26
DOCKED: ATOM     26  O   UNL d   1      -3.238  13.306  19.765 -0.04 +0.04    -0.303 OA
DOCKED: ATOM     27  H   UNL d   1      -3.788  12.755  20.358 +0.02 -0.03    +0.222 HD
DOCKED: ENDBRANCH  22  26
DOCKED: ENDBRANCH  21  22
DOCKED: ENDBRANCH   6  21
DOCKED: BRANCH   3  28
DOCKED: ATOM     28  O   UNL d   1      -5.364  20.509  17.061 -0.01 +0.03    -0.278 OA
DOCKED: BRANCH  28  29
DOCKED: ATOM     29  P   UNL d   1      -4.765  21.970  16.852 -0.00 -0.04    +0.473 P 
DOCKED: ATOM     30  O   UNL d   1      -3.551  22.285  17.648 -0.01 +0.02    -0.228 OA
DOCKED: BRANCH  29  31
DOCKED: ATOM     31  O   UNL d   1      -4.612  21.983  15.259 -0.01 +0.03    -0.303 OA
DOCKED: ATOM     32  H   UNL d   1      -4.464  21.059  14.950 +0.02 -0.02    +0.222 HD
DOCKED: ENDBRANCH  29  31
DOCKED: BRANCH  29  33
DOCKED: ATOM     33  O   UNL d   1      -6.041  22.892  17.090 -0.00 +0.02    -0.303 OA
DOCKED: ATOM     34  H   UNL d   1      -6.780  22.335  17.438 +0.00 -0.02    +0.222 HD
DOCKED: ENDBRANCH  29  33
DOCKED: ENDBRANCH  28  29
DOCKED: ENDBRANCH   3  28
DOCKED: BRANCH   5  35
DOCKED: ATOM     35  O   UNL d   1      -4.034  16.153  16.211 +0.10 +0.12    -0.278 OA
DOCKED: BRANCH  35  36
DOCKED: ATOM     36  P   UNL d   1      -5.467  15.971  15.534 -0.05 -0.10    +0.473 P 
DOCKED: ATOM     37  O   UNL d   1      -6.534  16.897  16.025 -0.02 +0.03    -0.228 OA
DOCKED: BRANCH  36  38
DOCKED: ATOM     38  O   UNL d   1      -5.120  16.133  13.988 -0.10 +0.06    -0.303 OA
DOCKED: ATOM     39  H   UNL d   1      -4.684  17.001  13.846 +0.04 -0.04    +0.222 HD
DOCKED: ENDBRANCH  36  38
DOCKED: BRANCH  36  40
DOCKED: ATOM     40  O   UNL d   1      -5.729  14.412  15.706 -0.05 +0.06    -0.303 OA
DOCKED: ATOM     41  H   UNL d   1      -5.404  14.081  16.573 +0.04 -0.04    +0.222 HD
DOCKED: ENDBRANCH  36  40
DOCKED: ENDBRANCH  35  36
DOCKED: ENDBRANCH   5  35
DOCKED: BRANCH   4  42
DOCKED: ATOM     42  O   UNL d   1      -3.284  18.943  15.835 -0.12 +0.04    -0.278 OA
DOCKED: BRANCH  42  43
DOCKED: ATOM     43  P   UNL d   1      -3.562  19.108  14.272 -0.11 -0.05    +0.473 P 
DOCKED: ATOM     44  O   UNL d   1      -2.920  20.260  13.579 -0.12 +0.02    -0.228 OA
DOCKED: BRANCH  43  45
DOCKED: ATOM     45  O   UNL d   1      -3.147  17.685  13.692 -0.24 +0.03    -0.303 OA
DOCKED: ATOM     46  H   UNL d   1      -3.152  16.999  14.389 -0.52 -0.09    +0.222 HD
DOCKED: ENDBRANCH  43  45
DOCKED: BRANCH  43  47
DOCKED: ATOM     47  O   UNL d   1      -5.160  19.046  14.176 -0.04 +0.03    -0.303 OA
DOCKED: ATOM     48  H   UNL d   1      -5.478  18.223  14.602 +0.04 -0.03    +0.222 HD
DOCKED: ENDBRANCH  43  47
DOCKED: ENDBRANCH  42  43
DOCKED: ENDBRANCH   4  42
DOCKED: TORSDOF 24
DOCKED: TER
DOCKED: ENDMDL
________________________________________________________________________________


	BEGINNING GENETIC ALGORITHM DOCKING 19 of 100
Run: 19 Seed: 1571248064 608948343 [ Run 19 of 100 GA/GALS ]
Beginning LAMARCKIAN GENETIC ALGORITHM (LGA), with a maximum of 25000000 energy evaluations.

Final-Value: -17.890


	FINAL GENETIC ALGORITHM DOCKED STATE
	_______________________________________________


Detailed state:  trans -8.826 10.071 0.596 quatxyzw 0.210632 -0.898537 -0.351029 0.158253 center 0.035 0.082 -0.065 ntor 24 55.2823 -21.0450 72.3529 86.4014 -42.7155 169.5808 7.0054 -85.8948 146.4787 -49.5602 27.6066 -112.9296 -164.9682 116.3580 179.9868 -136.0076 166.5487 -80.1909 21.9005 -6.6234 166.0469 2.6196 13.8169 164.8370
State:	 -8.826  10.071   0.596   0.213 -0.910 -0.356 161.789     55.28  -21.05   72.35   86.40  -42.72  169.58    7.01  -85.89  146.48  -49.56   27.61 -112.93 -164.97  116.36  179.99 -136.01  166.55  -80.19   21.90   -6.62  166.05    2.62   13.82  164.84

DOCKED: MODEL       19
DOCKED: USER    Run = 19
DOCKED: USER    DPF = D:/Protein_go_brrr/autodock/final/mut_N102T/IHP/dock.dpf
DOCKED: USER  
DOCKED: USER    Estimated Free Energy of Binding    =   +3.47 kcal/mol  [=(1)+(2)+(3)-(4)]
DOCKED: USER    
DOCKED: USER    (1) Final Intermolecular Energy     =   -3.69 kcal/mol
DOCKED: USER        vdW + Hbond + desolv Energy     =   -3.66 kcal/mol
DOCKED: USER        Electrostatic Energy            =   -0.03 kcal/mol
DOCKED: USER    (2) Final Total Internal Energy     =  -14.20 kcal/mol
DOCKED: USER    (3) Torsional Free Energy           =   +7.16 kcal/mol
DOCKED: USER    (4) Unbound System's Energy  [=(2)] =  -14.20 kcal/mol
DOCKED: USER    
DOCKED: USER    
DOCKED: USER    NEWDPF move IHP_ideal_opt.pdbqt
DOCKED: USER    NEWDPF about 0.035000 0.082000 -0.065000
DOCKED: USER    NEWDPF tran0 -8.826473 10.071261 0.596228
DOCKED: USER    NEWDPF quaternion0 0.210632 -0.898537 -0.351029 0.158253
DOCKED: USER    NEWDPF axisangle0 0.213321 -0.910004 -0.355509 161.789029
DOCKED: USER    NEWDPF quat0 0.213321 -0.910004 -0.355509 161.789029
DOCKED: USER    NEWDPF dihe0 55.28 -21.05 72.35 86.40 -42.72 169.58 7.01 -85.89 146.48 -49.56 27.61 -112.93 -164.97 116.36 179.99 -136.01 166.55 -80.19 21.90 -6.62 166.05 2.62 13.82 164.84 
DOCKED: USER  keepresnum = 1 
DOCKED: USER  
DOCKED: REMARK  24 active torsions:
DOCKED: REMARK  status: ('A' for Active; 'I' for Inactive)
DOCKED: REMARK    1  A    between atoms: C_1  and  O_7 
DOCKED: REMARK    2  A    between atoms: C_2  and  O_12 
DOCKED: REMARK    3  A    between atoms: C_3  and  O_17 
DOCKED: REMARK    4  A    between atoms: C_4  and  O_22 
DOCKED: REMARK    5  A    between atoms: C_5  and  O_27 
DOCKED: REMARK    6  A    between atoms: C_6  and  O_32 
DOCKED: REMARK    7  A    between atoms: O_7  and  P_8 
DOCKED: REMARK    8  A    between atoms: P_8  and  O_10 
DOCKED: REMARK    9  A    between atoms: P_8  and  O_11 
DOCKED: REMARK   10  A    between atoms: O_12  and  P_13 
DOCKED: REMARK   11  A    between atoms: P_13  and  O_15 
DOCKED: REMARK   12  A    between atoms: P_13  and  O_16 
DOCKED: REMARK   13  A    between atoms: O_17  and  P_18 
DOCKED: REMARK   14  A    between atoms: P_18  and  O_20 
DOCKED: REMARK   15  A    between atoms: P_18  and  O_21 
DOCKED: REMARK   16  A    between atoms: O_22  and  P_23 
DOCKED: REMARK   17  A    between atoms: P_23  and  O_25 
DOCKED: REMARK   18  A    between atoms: P_23  and  O_26 
DOCKED: REMARK   19  A    between atoms: O_27  and  P_28 
DOCKED: REMARK   20  A    between atoms: P_28  and  O_30 
DOCKED: REMARK   21  A    between atoms: P_28  and  O_31 
DOCKED: REMARK   22  A    between atoms: O_32  and  P_33 
DOCKED: REMARK   23  A    between atoms: P_33  and  O_35 
DOCKED: REMARK   24  A    between atoms: P_33  and  O_36 
DOCKED: USER                              x       y       z     vdW  Elec       q    Type
DOCKED: USER                           _______ _______ _______ _____ _____    ______ ____
DOCKED: ROOT
DOCKED: ATOM      1  C   UNL d   1      -9.363   9.698  -1.003 -0.06 +0.00    +0.194 C 
DOCKED: ATOM      2  C   UNL d   1      -7.945   9.239  -0.657 -0.14 +0.00    +0.194 C 
DOCKED: ATOM      3  C   UNL d   1      -7.173  10.315   0.110 -0.15 +0.02    +0.194 C 
DOCKED: ATOM      4  C   UNL d   1      -7.924  10.838   1.331 -0.07 +0.01    +0.194 C 
DOCKED: ATOM      5  C   UNL d   1      -9.378  11.200   1.058 -0.08 +0.00    +0.194 C 
DOCKED: ATOM      6  C   UNL d   1     -10.133  10.152   0.238 -0.06 +0.00    +0.194 C 
DOCKED: ENDROOT
DOCKED: BRANCH   1   7
DOCKED: ATOM      7  O   UNL d   1     -10.068   8.585  -1.559 -0.03 -0.00    -0.278 OA
DOCKED: BRANCH   7   8
DOCKED: ATOM      8  P   UNL d   1     -10.229   8.505  -3.146 -0.01 -0.00    +0.473 P 
DOCKED: ATOM      9  O   UNL d   1     -11.622   8.650  -3.647 -0.01 -0.00    -0.228 OA
DOCKED: BRANCH   8  10
DOCKED: ATOM     10  O   UNL d   1      -9.244   9.635  -3.692 -0.04 +0.00    -0.303 OA
DOCKED: ATOM     11  H   UNL d   1      -9.761  10.420  -3.955 +0.01 +0.00    +0.222 HD
DOCKED: ENDBRANCH   8  10
DOCKED: BRANCH   8  12
DOCKED: ATOM     12  O   UNL d   1      -9.474   7.173  -3.571 -0.05 +0.00    -0.303 OA
DOCKED: ATOM     13  H   UNL d   1      -8.503   7.214  -3.418 -0.03 -0.02    +0.222 HD
DOCKED: ENDBRANCH   8  12
DOCKED: ENDBRANCH   7   8
DOCKED: ENDBRANCH   1   7
DOCKED: BRANCH   2  14
DOCKED: ATOM     14  O   UNL d   1      -8.020   8.063   0.157 -0.18 +0.01    -0.278 OA
DOCKED: BRANCH  14  15
DOCKED: ATOM     15  P   UNL d   1      -7.219   6.778  -0.365 -0.27 -0.01    +0.473 P 
DOCKED: ATOM     16  O   UNL d   1      -7.137   5.611   0.568 -0.43 +0.03    -0.228 OA
DOCKED: BRANCH  15  17
DOCKED: ATOM     17  O   UNL d   1      -7.926   6.416  -1.746 -0.21 +0.00    -0.303 OA
DOCKED: ATOM     18  H   UNL d   1      -8.838   6.764  -1.776 +0.07 +0.00    +0.222 HD
DOCKED: ENDBRANCH  15  17
DOCKED: BRANCH  15  19
DOCKED: ATOM     19  O   UNL d   1      -5.823   7.357  -0.863 -0.31 -0.01    -0.303 OA
DOCKED: ATOM     20  H   UNL d   1      -5.587   8.180  -0.396 +0.14 +0.02    +0.222 HD
DOCKED: ENDBRANCH  15  19
DOCKED: ENDBRANCH  14  15
DOCKED: ENDBRANCH   2  14
DOCKED: BRANCH   6  21
DOCKED: ATOM     21  O   UNL d   1     -11.333  10.772  -0.219 -0.01 -0.00    -0.278 OA
DOCKED: BRANCH  21  22
DOCKED: ATOM     22  P   UNL d   1     -11.252  12.016  -1.214 -0.00 +0.00    +0.473 P 
DOCKED: ATOM     23  O   UNL d   1     -12.335  13.040  -1.152 -0.00 +0.00    -0.228 OA
DOCKED: BRANCH  22  24
DOCKED: ATOM     24  O   UNL d   1      -9.790  12.572  -0.921 -0.01 -0.01    -0.303 OA
DOCKED: ATOM     25  H   UNL d   1      -9.879  13.430  -0.434 +0.01 +0.00    +0.222 HD
DOCKED: ENDBRANCH  22  24
DOCKED: BRANCH  22  26
DOCKED: ATOM     26  O   UNL d   1     -11.053  11.289  -2.629 -0.00 -0.00    -0.303 OA
DOCKED: ATOM     27  H   UNL d   1     -10.965  10.325  -2.486 +0.01 +0.00    +0.222 HD
DOCKED: ENDBRANCH  22  26
DOCKED: ENDBRANCH  21  22
DOCKED: ENDBRANCH   6  21
DOCKED: BRANCH   3  28
DOCKED: ATOM     28  O   UNL d   1      -5.992   9.711   0.623 -0.20 -0.03    -0.278 OA
DOCKED: BRANCH  28  29
DOCKED: ATOM     29  P   UNL d   1      -4.562  10.153   0.080 -0.26 +0.15    +0.473 P 
DOCKED: ATOM     30  O   UNL d   1      -3.452   9.204   0.355 -0.33 -0.07    -0.228 OA
DOCKED: BRANCH  29  31
DOCKED: ATOM     31  O   UNL d   1      -4.919  10.428  -1.456 -0.18 -0.09    -0.303 OA
DOCKED: ATOM     32  H   UNL d   1      -5.619  11.119  -1.496 +0.08 +0.05    +0.222 HD
DOCKED: ENDBRANCH  29  31
DOCKED: BRANCH  29  33
DOCKED: ATOM     33  O   UNL d   1      -4.417  11.622   0.676 -0.69 -0.19    -0.303 OA
DOCKED: ATOM     34  H   UNL d   1      -5.319  12.005   0.807 +0.08 +0.08    +0.222 HD
DOCKED: ENDBRANCH  29  33
DOCKED: ENDBRANCH  28  29
DOCKED: ENDBRANCH   3  28
DOCKED: BRANCH   5  35
DOCKED: ATOM     35  O   UNL d   1     -10.008  11.266   2.336 -0.07 +0.00    -0.278 OA
DOCKED: BRANCH  35  36
DOCKED: ATOM     36  P   UNL d   1     -11.151  12.343   2.615 -0.02 -0.01    +0.473 P 
DOCKED: ATOM     37  O   UNL d   1     -11.240  12.837   4.024 -0.03 +0.01    -0.228 OA
DOCKED: BRANCH  36  38
DOCKED: ATOM     38  O   UNL d   1     -10.803  13.471   1.547 -0.01 +0.00    -0.303 OA
DOCKED: ATOM     39  H   UNL d   1     -11.095  13.173   0.658 +0.01 -0.00    +0.222 HD
DOCKED: ENDBRANCH  36  38
DOCKED: BRANCH  36  40
DOCKED: ATOM     40  O   UNL d   1     -12.441  11.633   2.016 -0.01 +0.00    -0.303 OA
DOCKED: ATOM     41  H   UNL d   1     -12.583  11.870   1.073 +0.01 -0.00    +0.222 HD
DOCKED: ENDBRANCH  36  40
DOCKED: ENDBRANCH  35  36
DOCKED: ENDBRANCH   5  35
DOCKED: BRANCH   4  42
DOCKED: ATOM     42  O   UNL d   1      -7.262  12.039   1.742 -0.07 -0.03    -0.278 OA
DOCKED: BRANCH  42  43
DOCKED: ATOM     43  P   UNL d   1      -7.039  13.202   0.673 -0.04 +0.06    +0.473 P 
DOCKED: ATOM     44  O   UNL d   1      -6.775  12.797  -0.736 -0.04 -0.04    -0.228 OA
DOCKED: BRANCH  43  45
DOCKED: ATOM     45  O   UNL d   1      -8.338  14.102   0.859 -0.01 -0.02    -0.303 OA
DOCKED: ATOM     46  H   UNL d   1      -9.148  13.555   0.909 +0.01 +0.01    +0.222 HD
DOCKED: ENDBRANCH  43  45
DOCKED: BRANCH  43  47
DOCKED: ATOM     47  O   UNL d   1      -5.910  14.114   1.353 -0.05 -0.06    -0.303 OA
DOCKED: ATOM     48  H   UNL d   1      -5.075  13.605   1.410 +0.06 +0.08    +0.222 HD
DOCKED: ENDBRANCH  43  47
DOCKED: ENDBRANCH  42  43
DOCKED: ENDBRANCH   4  42
DOCKED: TORSDOF 24
DOCKED: TER
DOCKED: ENDMDL
________________________________________________________________________________


	BEGINNING GENETIC ALGORITHM DOCKING 20 of 100
Run: 20 Seed: 504561908 517212226 [ Run 20 of 100 GA/GALS ]
Beginning LAMARCKIAN GENETIC ALGORITHM (LGA), with a maximum of 25000000 energy evaluations.

Final-Value: -16.725


	FINAL GENETIC ALGORITHM DOCKED STATE
	_______________________________________________


Detailed state:  trans -1.576 -16.283 -16.980 quatxyzw 0.405194 -0.674745 -0.472710 -0.396336 center 0.035 0.082 -0.065 ntor 24 168.6330 -166.8597 -180.0000 -1.5135 3.8971 159.0009 -34.1371 10.3842 149.5927 46.1269 47.0770 -145.3691 -99.0204 -180.0000 179.5757 175.6113 -144.8299 171.9946 54.2574 13.8624 -36.7767 18.9875 158.4554 -9.9313
State:	 -1.576 -16.283 -16.980   0.441 -0.735 -0.515 -133.301    168.63 -166.86 -180.00   -1.51    3.90  159.00  -34.14   10.38  149.59   46.13   47.08 -145.37  -99.02 -180.00  179.58  175.61 -144.83  171.99   54.26   13.86  -36.78   18.99  158.46   -9.93

DOCKED: MODEL       20
DOCKED: USER    Run = 20
DOCKED: USER    DPF = D:/Protein_go_brrr/autodock/final/mut_N102T/IHP/dock.dpf
DOCKED: USER  
DOCKED: USER    Estimated Free Energy of Binding    =   +3.06 kcal/mol  [=(1)+(2)+(3)-(4)]
DOCKED: USER    
DOCKED: USER    (1) Final Intermolecular Energy     =   -4.10 kcal/mol
DOCKED: USER        vdW + Hbond + desolv Energy     =   -3.94 kcal/mol
DOCKED: USER        Electrostatic Energy            =   -0.17 kcal/mol
DOCKED: USER    (2) Final Total Internal Energy     =  -12.62 kcal/mol
DOCKED: USER    (3) Torsional Free Energy           =   +7.16 kcal/mol
DOCKED: USER    (4) Unbound System's Energy  [=(2)] =  -12.62 kcal/mol
DOCKED: USER    
DOCKED: USER    
DOCKED: USER    NEWDPF move IHP_ideal_opt.pdbqt
DOCKED: USER    NEWDPF about 0.035000 0.082000 -0.065000
DOCKED: USER    NEWDPF tran0 -1.575553 -16.283004 -16.980001
DOCKED: USER    NEWDPF quaternion0 0.405194 -0.674745 -0.472710 -0.396336
DOCKED: USER    NEWDPF axisangle0 0.441337 -0.734932 -0.514876 -133.301324
DOCKED: USER    NEWDPF quat0 0.441337 -0.734932 -0.514876 -133.301324
DOCKED: USER    NEWDPF dihe0 168.63 -166.86 -180.00 -1.51 3.90 159.00 -34.14 10.38 149.59 46.13 47.08 -145.37 -99.02 -180.00 179.58 175.61 -144.83 171.99 54.26 13.86 -36.78 18.99 158.46 -9.93 
DOCKED: USER  keepresnum = 1 
DOCKED: USER  
DOCKED: REMARK  24 active torsions:
DOCKED: REMARK  status: ('A' for Active; 'I' for Inactive)
DOCKED: REMARK    1  A    between atoms: C_1  and  O_7 
DOCKED: REMARK    2  A    between atoms: C_2  and  O_12 
DOCKED: REMARK    3  A    between atoms: C_3  and  O_17 
DOCKED: REMARK    4  A    between atoms: C_4  and  O_22 
DOCKED: REMARK    5  A    between atoms: C_5  and  O_27 
DOCKED: REMARK    6  A    between atoms: C_6  and  O_32 
DOCKED: REMARK    7  A    between atoms: O_7  and  P_8 
DOCKED: REMARK    8  A    between atoms: P_8  and  O_10 
DOCKED: REMARK    9  A    between atoms: P_8  and  O_11 
DOCKED: REMARK   10  A    between atoms: O_12  and  P_13 
DOCKED: REMARK   11  A    between atoms: P_13  and  O_15 
DOCKED: REMARK   12  A    between atoms: P_13  and  O_16 
DOCKED: REMARK   13  A    between atoms: O_17  and  P_18 
DOCKED: REMARK   14  A    between atoms: P_18  and  O_20 
DOCKED: REMARK   15  A    between atoms: P_18  and  O_21 
DOCKED: REMARK   16  A    between atoms: O_22  and  P_23 
DOCKED: REMARK   17  A    between atoms: P_23  and  O_25 
DOCKED: REMARK   18  A    between atoms: P_23  and  O_26 
DOCKED: REMARK   19  A    between atoms: O_27  and  P_28 
DOCKED: REMARK   20  A    between atoms: P_28  and  O_30 
DOCKED: REMARK   21  A    between atoms: P_28  and  O_31 
DOCKED: REMARK   22  A    between atoms: O_32  and  P_33 
DOCKED: REMARK   23  A    between atoms: P_33  and  O_35 
DOCKED: REMARK   24  A    between atoms: P_33  and  O_36 
DOCKED: USER                              x       y       z     vdW  Elec       q    Type
DOCKED: USER                           _______ _______ _______ _____ _____    ______ ____
DOCKED: ROOT
DOCKED: ATOM      1  C   UNL d   1      -2.597 -17.387 -17.831 -0.02 +0.00    +0.194 C 
DOCKED: ATOM      2  C   UNL d   1      -1.674 -16.534 -18.703 -0.01 +0.00    +0.194 C 
DOCKED: ATOM      3  C   UNL d   1      -1.637 -15.078 -18.235 -0.05 +0.00    +0.194 C 
DOCKED: ATOM      4  C   UNL d   1      -1.323 -14.932 -16.748 -0.10 +0.01    +0.194 C 
DOCKED: ATOM      5  C   UNL d   1      -2.142 -15.849 -15.848 -0.15 +0.02    +0.194 C 
DOCKED: ATOM      6  C   UNL d   1      -2.229 -17.292 -16.349 -0.09 +0.01    +0.194 C 
DOCKED: ENDROOT
DOCKED: BRANCH   1   7
DOCKED: ATOM      7  O   UNL d   1      -2.443 -18.753 -18.221 -0.00 -0.00    -0.278 OA
DOCKED: BRANCH   7   8
DOCKED: ATOM      8  P   UNL d   1      -2.971 -19.195 -19.662 +0.00 +0.00    +0.473 P 
DOCKED: ATOM      9  O   UNL d   1      -4.341 -18.726 -20.004 +0.00 -0.00    -0.228 OA
DOCKED: BRANCH   8  10
DOCKED: ATOM     10  O   UNL d   1      -1.854 -18.655 -20.666 +0.00 +0.00    -0.303 OA
DOCKED: ATOM     11  H   UNL d   1      -1.075 -18.359 -20.159 +0.00 -0.00    +0.222 HD
DOCKED: ENDBRANCH   8  10
DOCKED: BRANCH   8  12
DOCKED: ATOM     12  O   UNL d   1      -2.740 -20.766 -19.723 +0.00 -0.00    -0.303 OA
DOCKED: ATOM     13  H   UNL d   1      -3.415 -21.234 -20.264 +0.00 -0.00    +0.222 HD
DOCKED: ENDBRANCH   8  12
DOCKED: ENDBRANCH   7   8
DOCKED: ENDBRANCH   1   7
DOCKED: BRANCH   2  14
DOCKED: ATOM     14  O   UNL d   1      -0.345 -17.068 -18.638 -0.00 -0.00    -0.278 OA
DOCKED: BRANCH  14  15
DOCKED: ATOM     15  P   UNL d   1       0.534 -16.966 -19.972 +0.00 +0.01    +0.473 P 
DOCKED: ATOM     16  O   UNL d   1       1.101 -18.245 -20.503 -0.00 -0.00    -0.228 OA
DOCKED: BRANCH  15  17
DOCKED: ATOM     17  O   UNL d   1      -0.427 -16.237 -21.014 -0.00 -0.00    -0.303 OA
DOCKED: ATOM     18  H   UNL d   1      -0.387 -15.267 -20.909 +0.02 +0.00    +0.222 HD
DOCKED: ENDBRANCH  15  17
DOCKED: BRANCH  15  19
DOCKED: ATOM     19  O   UNL d   1       1.595 -15.822 -19.662 -0.00 -0.01    -0.303 OA
DOCKED: ATOM     20  H   UNL d   1       1.161 -14.967 -19.483 +0.03 +0.01    +0.222 HD
DOCKED: ENDBRANCH  15  19
DOCKED: ENDBRANCH  14  15
DOCKED: ENDBRANCH   2  14
DOCKED: BRANCH   6  21
DOCKED: ATOM     21  O   UNL d   1      -3.279 -17.919 -15.617 -0.11 -0.01    -0.278 OA
DOCKED: BRANCH  21  22
DOCKED: ATOM     22  P   UNL d   1      -3.097 -19.417 -15.097 -0.06 +0.01    +0.473 P 
DOCKED: ATOM     23  O   UNL d   1      -4.314 -20.269 -14.962 -0.04 -0.01    -0.228 OA
DOCKED: BRANCH  22  24
DOCKED: ATOM     24  O   UNL d   1      -1.998 -19.978 -16.102 -0.01 -0.00    -0.303 OA
DOCKED: ATOM     25  H   UNL d   1      -2.374 -19.951 -17.018 +0.01 +0.00    +0.222 HD
DOCKED: ENDBRANCH  22  24
DOCKED: BRANCH  22  26
DOCKED: ATOM     26  O   UNL d   1      -2.241 -19.195 -13.760 -0.02 +0.00    -0.303 OA
DOCKED: ATOM     27  H   UNL d   1      -1.872 -18.289 -13.761 -0.04 -0.02    +0.222 HD
DOCKED: ENDBRANCH  22  26
DOCKED: ENDBRANCH  21  22
DOCKED: ENDBRANCH   6  21
DOCKED: BRANCH   3  28
DOCKED: ATOM     28  O   UNL d   1      -0.563 -14.437 -18.912 -0.04 -0.00    -0.278 OA
DOCKED: BRANCH  28  29
DOCKED: ATOM     29  P   UNL d   1      -0.799 -13.055 -19.668 -0.14 -0.02    +0.473 P 
DOCKED: ATOM     30  O   UNL d   1       0.374 -12.146 -19.722 -0.26 -0.00    -0.228 OA
DOCKED: BRANCH  29  31
DOCKED: ATOM     31  O   UNL d   1      -1.366 -13.594 -21.064 -0.09 +0.01    -0.303 OA
DOCKED: ATOM     32  H   UNL d   1      -1.660 -14.527 -20.945 +0.03 -0.00    +0.222 HD
DOCKED: ENDBRANCH  29  31
DOCKED: BRANCH  29  33
DOCKED: ATOM     33  O   UNL d   1      -2.107 -12.500 -18.949 -0.13 +0.07    -0.303 OA
DOCKED: ATOM     34  H   UNL d   1      -1.880 -12.245 -18.021 -0.39 -0.11    +0.222 HD
DOCKED: ENDBRANCH  29  33
DOCKED: ENDBRANCH  28  29
DOCKED: ENDBRANCH   3  28
DOCKED: BRANCH   5  35
DOCKED: ATOM     35  O   UNL d   1      -1.455 -15.879 -14.599 -0.18 -0.00    -0.278 OA
DOCKED: BRANCH  35  36
DOCKED: ATOM     36  P   UNL d   1      -0.059 -16.640 -14.467 -0.07 -0.01    +0.473 P 
DOCKED: ATOM     37  O   UNL d   1      -0.122 -18.002 -13.852 -0.12 +0.01    -0.228 OA
DOCKED: BRANCH  36  38
DOCKED: ATOM     38  O   UNL d   1       0.465 -16.624 -15.970 -0.02 -0.00    -0.303 OA
DOCKED: ATOM     39  H   UNL d   1       0.850 -15.743 -16.167 +0.05 +0.01    +0.222 HD
DOCKED: ENDBRANCH  36  38
DOCKED: BRANCH  36  40
DOCKED: ATOM     40  O   UNL d   1       0.849 -15.559 -13.734 -0.16 -0.01    -0.303 OA
DOCKED: ATOM     41  H   UNL d   1       0.335 -14.758 -13.488 +0.12 +0.01    +0.222 HD
DOCKED: ENDBRANCH  36  40
DOCKED: ENDBRANCH  35  36
DOCKED: ENDBRANCH   5  35
DOCKED: BRANCH   4  42
DOCKED: ATOM     42  O   UNL d   1      -1.649 -13.586 -16.386 -0.21 -0.01    -0.278 OA
DOCKED: BRANCH  42  43
DOCKED: ATOM     43  P   UNL d   1      -0.506 -12.651 -15.782 -0.18 +0.02    +0.473 P 
DOCKED: ATOM     44  O   UNL d   1      -0.892 -11.711 -14.692 -0.99 -0.04    -0.228 OA
DOCKED: BRANCH  43  45
DOCKED: ATOM     45  O   UNL d   1       0.619 -13.698 -15.370 -0.08 -0.04    -0.303 OA
DOCKED: ATOM     46  H   UNL d   1       0.238 -14.580 -15.185 +0.10 +0.01    +0.222 HD
DOCKED: ENDBRANCH  43  45
DOCKED: BRANCH  43  47
DOCKED: ATOM     47  O   UNL d   1       0.139 -11.974 -17.083 -0.17 +0.00    -0.303 OA
DOCKED: ATOM     48  H   UNL d   1      -0.560 -11.839 -17.757 -0.38 -0.08    +0.222 HD
DOCKED: ENDBRANCH  43  47
DOCKED: ENDBRANCH  42  43
DOCKED: ENDBRANCH   4  42
DOCKED: TORSDOF 24
DOCKED: TER
DOCKED: ENDMDL
________________________________________________________________________________


	BEGINNING GENETIC ALGORITHM DOCKING 21 of 100
Run: 21 Seed: 1636120000 692110682 [ Run 21 of 100 GA/GALS ]
Beginning LAMARCKIAN GENETIC ALGORITHM (LGA), with a maximum of 25000000 energy evaluations.

Final-Value: -15.199


	FINAL GENETIC ALGORITHM DOCKED STATE
	_______________________________________________


Detailed state:  trans 11.283 -9.296 14.939 quatxyzw -0.532497 -0.271517 0.555886 0.577681 center 0.035 0.082 -0.065 ntor 24 54.4335 -179.5505 155.4099 7.2348 8.0719 -120.0755 -79.3678 -5.0062 24.7036 -180.0000 179.9203 148.3175 -147.7835 -178.9954 16.7087 2.6759 -86.9424 170.1280 -38.0455 8.8066 148.3794 -9.6307 -133.5852 -168.5583
State:	 11.283  -9.296  14.939  -0.652 -0.333  0.681 109.425     54.43 -179.55  155.41    7.23    8.07 -120.08  -79.37   -5.01   24.70 -180.00  179.92  148.32 -147.78 -179.00   16.71    2.68  -86.94  170.13  -38.05    8.81  148.38   -9.63 -133.59 -168.56

DOCKED: MODEL       21
DOCKED: USER    Run = 21
DOCKED: USER    DPF = D:/Protein_go_brrr/autodock/final/mut_N102T/IHP/dock.dpf
DOCKED: USER  
DOCKED: USER    Estimated Free Energy of Binding    =   +4.23 kcal/mol  [=(1)+(2)+(3)-(4)]
DOCKED: USER    
DOCKED: USER    (1) Final Intermolecular Energy     =   -2.93 kcal/mol
DOCKED: USER        vdW + Hbond + desolv Energy     =   -2.82 kcal/mol
DOCKED: USER        Electrostatic Energy            =   -0.11 kcal/mol
DOCKED: USER    (2) Final Total Internal Energy     =  -12.27 kcal/mol
DOCKED: USER    (3) Torsional Free Energy           =   +7.16 kcal/mol
DOCKED: USER    (4) Unbound System's Energy  [=(2)] =  -12.27 kcal/mol
DOCKED: USER    
DOCKED: USER    
DOCKED: USER    NEWDPF move IHP_ideal_opt.pdbqt
DOCKED: USER    NEWDPF about 0.035000 0.082000 -0.065000
DOCKED: USER    NEWDPF tran0 11.282605 -9.295502 14.938874
DOCKED: USER    NEWDPF quaternion0 -0.532497 -0.271517 0.555886 0.577681
DOCKED: USER    NEWDPF axisangle0 -0.652360 -0.332634 0.681014 109.424779
DOCKED: USER    NEWDPF quat0 -0.652360 -0.332634 0.681014 109.424779
DOCKED: USER    NEWDPF dihe0 54.43 -179.55 155.41 7.23 8.07 -120.08 -79.37 -5.01 24.70 -180.00 179.92 148.32 -147.78 -179.00 16.71 2.68 -86.94 170.13 -38.05 8.81 148.38 -9.63 -133.59 -168.56 
DOCKED: USER  keepresnum = 1 
DOCKED: USER  
DOCKED: REMARK  24 active torsions:
DOCKED: REMARK  status: ('A' for Active; 'I' for Inactive)
DOCKED: REMARK    1  A    between atoms: C_1  and  O_7 
DOCKED: REMARK    2  A    between atoms: C_2  and  O_12 
DOCKED: REMARK    3  A    between atoms: C_3  and  O_17 
DOCKED: REMARK    4  A    between atoms: C_4  and  O_22 
DOCKED: REMARK    5  A    between atoms: C_5  and  O_27 
DOCKED: REMARK    6  A    between atoms: C_6  and  O_32 
DOCKED: REMARK    7  A    between atoms: O_7  and  P_8 
DOCKED: REMARK    8  A    between atoms: P_8  and  O_10 
DOCKED: REMARK    9  A    between atoms: P_8  and  O_11 
DOCKED: REMARK   10  A    between atoms: O_12  and  P_13 
DOCKED: REMARK   11  A    between atoms: P_13  and  O_15 
DOCKED: REMARK   12  A    between atoms: P_13  and  O_16 
DOCKED: REMARK   13  A    between atoms: O_17  and  P_18 
DOCKED: REMARK   14  A    between atoms: P_18  and  O_20 
DOCKED: REMARK   15  A    between atoms: P_18  and  O_21 
DOCKED: REMARK   16  A    between atoms: O_22  and  P_23 
DOCKED: REMARK   17  A    between atoms: P_23  and  O_25 
DOCKED: REMARK   18  A    between atoms: P_23  and  O_26 
DOCKED: REMARK   19  A    between atoms: O_27  and  P_28 
DOCKED: REMARK   20  A    between atoms: P_28  and  O_30 
DOCKED: REMARK   21  A    between atoms: P_28  and  O_31 
DOCKED: REMARK   22  A    between atoms: O_32  and  P_33 
DOCKED: REMARK   23  A    between atoms: P_33  and  O_35 
DOCKED: REMARK   24  A    between atoms: P_33  and  O_36 
DOCKED: USER                              x       y       z     vdW  Elec       q    Type
DOCKED: USER                           _______ _______ _______ _____ _____    ______ ____
DOCKED: ROOT
DOCKED: ATOM      1  C   UNL d   1      10.529 -10.299  13.752 -0.15 +0.16    +0.194 C 
DOCKED: ATOM      2  C   UNL d   1       9.590  -9.371  14.525 -0.17 +0.11    +0.194 C 
DOCKED: ATOM      3  C   UNL d   1       9.918  -9.350  16.019 -0.12 +0.10    +0.194 C 
DOCKED: ATOM      4  C   UNL d   1      11.388  -9.055  16.308 -0.03 +0.07    +0.194 C 
DOCKED: ATOM      5  C   UNL d   1      12.362  -9.878  15.474 -0.03 +0.08    +0.194 C 
DOCKED: ATOM      6  C   UNL d   1      11.999  -9.950  13.990 -0.05 +0.09    +0.194 C 
DOCKED: ENDROOT
DOCKED: BRANCH   1   7
DOCKED: ATOM      7  O   UNL d   1      10.272 -10.131  12.355 -0.13 -0.16    -0.278 OA
DOCKED: BRANCH   7   8
DOCKED: ATOM      8  P   UNL d   1      10.750 -11.279  11.352 -0.11 +0.24    +0.473 P 
DOCKED: ATOM      9  O   UNL d   1      12.067 -11.040  10.701 -0.04 -0.07    -0.228 OA
DOCKED: BRANCH   8  10
DOCKED: ATOM     10  O   UNL d   1      10.719 -12.605  12.239 -0.53 -0.33    -0.303 OA
DOCKED: ATOM     11  H   UNL d   1      11.628 -12.849  12.494 +0.03 +0.18    +0.222 HD
DOCKED: ENDBRANCH   8  10
DOCKED: BRANCH   8  12
DOCKED: ATOM     12  O   UNL d   1       9.522 -11.506  10.370 -0.17 -0.11    -0.303 OA
DOCKED: ATOM     13  H   UNL d   1       9.790 -11.573   9.426 +0.08 +0.05    +0.222 HD
DOCKED: ENDBRANCH   8  12
DOCKED: ENDBRANCH   7   8
DOCKED: ENDBRANCH   1   7
DOCKED: BRANCH   2  14
DOCKED: ATOM     14  O   UNL d   1       9.721  -8.040  14.010 -0.10 -0.10    -0.278 OA
DOCKED: BRANCH  14  15
DOCKED: ATOM     15  P   UNL d   1       8.371  -7.189  13.875 -0.09 +0.12    +0.473 P 
DOCKED: ATOM     16  O   UNL d   1       8.050  -6.648  12.517 -0.23 -0.06    -0.228 OA
DOCKED: BRANCH  15  17
DOCKED: ATOM     17  O   UNL d   1       7.242  -8.163  14.435 -0.24 -0.08    -0.303 OA
DOCKED: ATOM     18  H   UNL d   1       7.420  -8.412  15.362 +0.07 +0.06    +0.222 HD
DOCKED: ENDBRANCH  15  17
DOCKED: BRANCH  15  19
DOCKED: ATOM     19  O   UNL d   1       8.466  -6.108  15.038 -0.08 -0.05    -0.303 OA
DOCKED: ATOM     20  H   UNL d   1       8.645  -6.523  15.902 +0.05 +0.03    +0.222 HD
DOCKED: ENDBRANCH  15  19
DOCKED: ENDBRANCH  14  15
DOCKED: ENDBRANCH   2  14
DOCKED: BRANCH   6  21
DOCKED: ATOM     21  O   UNL d   1      12.776 -11.005  13.426 -0.02 -0.13    -0.278 OA
DOCKED: BRANCH  21  22
DOCKED: ATOM     22  P   UNL d   1      12.876 -12.406  14.182 -0.03 +0.29    +0.473 P 
DOCKED: ATOM     23  O   UNL d   1      11.617 -13.023  14.691 +0.10 -0.39    -0.228 OA
DOCKED: BRANCH  22  24
DOCKED: ATOM     24  O   UNL d   1      13.673 -13.290  13.125 -0.00 -0.11    -0.303 OA
DOCKED: ATOM     25  H   UNL d   1      13.156 -13.299  12.280 +0.01 +0.08    +0.222 HD
DOCKED: ENDBRANCH  22  24
DOCKED: BRANCH  22  26
DOCKED: ATOM     26  O   UNL d   1      14.005 -12.104  15.279 -0.00 -0.10    -0.303 OA
DOCKED: ATOM     27  H   UNL d   1      13.667 -11.438  15.913 +0.01 +0.07    +0.222 HD
DOCKED: ENDBRANCH  22  26
DOCKED: ENDBRANCH  21  22
DOCKED: ENDBRANCH   6  21
DOCKED: BRANCH   3  28
DOCKED: ATOM     28  O   UNL d   1       9.196  -8.273  16.601 -0.06 -0.07    -0.278 OA
DOCKED: BRANCH  28  29
DOCKED: ATOM     29  P   UNL d   1       7.849  -8.548  17.405 -0.12 +0.09    +0.473 P 
DOCKED: ATOM     30  O   UNL d   1       7.144  -9.810  17.061 -0.17 -0.08    -0.228 OA
DOCKED: BRANCH  29  31
DOCKED: ATOM     31  O   UNL d   1       8.385  -8.402  18.906 -0.02 -0.03    -0.303 OA
DOCKED: ATOM     32  H   UNL d   1       9.341  -8.639  18.922 +0.02 +0.03    +0.222 HD
DOCKED: ENDBRANCH  29  31
DOCKED: BRANCH  29  33
DOCKED: ATOM     33  O   UNL d   1       7.045  -7.192  17.185 -0.11 -0.02    -0.303 OA
DOCKED: ATOM     34  H   UNL d   1       6.983  -7.009  16.215 +0.07 +0.02    +0.222 HD
DOCKED: ENDBRANCH  29  33
DOCKED: ENDBRANCH  28  29
DOCKED: ENDBRANCH   3  28
DOCKED: BRANCH   5  35
DOCKED: ATOM     35  O   UNL d   1      13.616  -9.206  15.568 +0.00 -0.06    -0.278 OA
DOCKED: BRANCH  35  36
DOCKED: ATOM     36  P   UNL d   1      13.735  -7.832  16.370 +0.01 +0.07    +0.473 P 
DOCKED: ATOM     37  O   UNL d   1      12.623  -6.857  16.147 -0.00 -0.04    -0.228 OA
DOCKED: BRANCH  36  38
DOCKED: ATOM     38  O   UNL d   1      13.866  -8.343  17.873 +0.00 -0.04    -0.303 OA
DOCKED: ATOM     39  H   UNL d   1      13.198  -9.043  18.034 +0.00 +0.03    +0.222 HD
DOCKED: ENDBRANCH  36  38
DOCKED: BRANCH  36  40
DOCKED: ATOM     40  O   UNL d   1      15.204  -7.349  16.000 +0.00 -0.04    -0.303 OA
DOCKED: ATOM     41  H   UNL d   1      15.235  -6.382  15.821 +0.00 +0.03    +0.222 HD
DOCKED: ENDBRANCH  36  40
DOCKED: ENDBRANCH  35  36
DOCKED: ENDBRANCH   5  35
DOCKED: BRANCH   4  42
DOCKED: ATOM     42  O   UNL d   1      11.617  -9.394  17.680 -0.01 -0.07    -0.278 OA
DOCKED: BRANCH  42  43
DOCKED: ATOM     43  P   UNL d   1      11.847 -10.925  18.068 -0.01 +0.17    +0.473 P 
DOCKED: ATOM     44  O   UNL d   1      11.294 -11.393  19.369 -0.01 -0.06    -0.228 OA
DOCKED: BRANCH  43  45
DOCKED: ATOM     45  O   UNL d   1      11.272 -11.696  16.801 -0.45 -0.30    -0.303 OA
DOCKED: ATOM     46  H   UNL d   1      11.990 -12.077  16.257 +0.01 +0.20    +0.222 HD
DOCKED: ENDBRANCH  43  45
DOCKED: BRANCH  43  47
DOCKED: ATOM     47  O   UNL d   1      13.427 -11.118  17.877 +0.00 -0.07    -0.303 OA
DOCKED: ATOM     48  H   UNL d   1      13.736 -10.544  17.146 +0.01 +0.05    +0.222 HD
DOCKED: ENDBRANCH  43  47
DOCKED: ENDBRANCH  42  43
DOCKED: ENDBRANCH   4  42
DOCKED: TORSDOF 24
DOCKED: TER
DOCKED: ENDMDL
________________________________________________________________________________


	BEGINNING GENETIC ALGORITHM DOCKING 22 of 100
Run: 22 Seed: 1682813269 589038529 [ Run 22 of 100 GA/GALS ]
Beginning LAMARCKIAN GENETIC ALGORITHM (LGA), with a maximum of 25000000 energy evaluations.

Final-Value: -18.691


	FINAL GENETIC ALGORITHM DOCKED STATE
	_______________________________________________


Detailed state:  trans 13.337 11.472 -0.811 quatxyzw 0.358662 -0.251676 0.578956 0.687627 center 0.035 0.082 -0.065 ntor 24 162.3327 71.1357 112.5471 91.0720 -9.2825 -175.3366 -49.6620 -148.2476 132.2306 32.7888 145.9305 134.5837 134.8930 79.5437 -180.0000 125.7005 173.2316 -172.9044 49.9216 5.4753 172.9180 -14.1834 17.0747 10.8811
State:	 13.337  11.472  -0.811   0.494 -0.347  0.797 93.115    162.33   71.14  112.55   91.07   -9.28 -175.34  -49.66 -148.25  132.23   32.79  145.93  134.58  134.89   79.54 -180.00  125.70  173.23 -172.90   49.92    5.48  172.92  -14.18   17.07   10.88

DOCKED: MODEL       22
DOCKED: USER    Run = 22
DOCKED: USER    DPF = D:/Protein_go_brrr/autodock/final/mut_N102T/IHP/dock.dpf
DOCKED: USER  
DOCKED: USER    Estimated Free Energy of Binding    =   +1.87 kcal/mol  [=(1)+(2)+(3)-(4)]
DOCKED: USER    
DOCKED: USER    (1) Final Intermolecular Energy     =   -5.29 kcal/mol
DOCKED: USER        vdW + Hbond + desolv Energy     =   -5.33 kcal/mol
DOCKED: USER        Electrostatic Energy            =   +0.05 kcal/mol
DOCKED: USER    (2) Final Total Internal Energy     =  -13.41 kcal/mol
DOCKED: USER    (3) Torsional Free Energy           =   +7.16 kcal/mol
DOCKED: USER    (4) Unbound System's Energy  [=(2)] =  -13.41 kcal/mol
DOCKED: USER    
DOCKED: USER    
DOCKED: USER    NEWDPF move IHP_ideal_opt.pdbqt
DOCKED: USER    NEWDPF about 0.035000 0.082000 -0.065000
DOCKED: USER    NEWDPF tran0 13.336892 11.472358 -0.810545
DOCKED: USER    NEWDPF quaternion0 0.358662 -0.251676 0.578956 0.687627
DOCKED: USER    NEWDPF axisangle0 0.493981 -0.346631 0.797390 93.114894
DOCKED: USER    NEWDPF quat0 0.493981 -0.346631 0.797390 93.114894
DOCKED: USER    NEWDPF dihe0 162.33 71.14 112.55 91.07 -9.28 -175.34 -49.66 -148.25 132.23 32.79 145.93 134.58 134.89 79.54 -180.00 125.70 173.23 -172.90 49.92 5.48 172.92 -14.18 17.07 10.88 
DOCKED: USER  keepresnum = 1 
DOCKED: USER  
DOCKED: REMARK  24 active torsions:
DOCKED: REMARK  status: ('A' for Active; 'I' for Inactive)
DOCKED: REMARK    1  A    between atoms: C_1  and  O_7 
DOCKED: REMARK    2  A    between atoms: C_2  and  O_12 
DOCKED: REMARK    3  A    between atoms: C_3  and  O_17 
DOCKED: REMARK    4  A    between atoms: C_4  and  O_22 
DOCKED: REMARK    5  A    between atoms: C_5  and  O_27 
DOCKED: REMARK    6  A    between atoms: C_6  and  O_32 
DOCKED: REMARK    7  A    between atoms: O_7  and  P_8 
DOCKED: REMARK    8  A    between atoms: P_8  and  O_10 
DOCKED: REMARK    9  A    between atoms: P_8  and  O_11 
DOCKED: REMARK   10  A    between atoms: O_12  and  P_13 
DOCKED: REMARK   11  A    between atoms: P_13  and  O_15 
DOCKED: REMARK   12  A    between atoms: P_13  and  O_16 
DOCKED: REMARK   13  A    between atoms: O_17  and  P_18 
DOCKED: REMARK   14  A    between atoms: P_18  and  O_20 
DOCKED: REMARK   15  A    between atoms: P_18  and  O_21 
DOCKED: REMARK   16  A    between atoms: O_22  and  P_23 
DOCKED: REMARK   17  A    between atoms: P_23  and  O_25 
DOCKED: REMARK   18  A    between atoms: P_23  and  O_26 
DOCKED: REMARK   19  A    between atoms: O_27  and  P_28 
DOCKED: REMARK   20  A    between atoms: P_28  and  O_30 
DOCKED: REMARK   21  A    between atoms: P_28  and  O_31 
DOCKED: REMARK   22  A    between atoms: O_32  and  P_33 
DOCKED: REMARK   23  A    between atoms: P_33  and  O_35 
DOCKED: REMARK   24  A    between atoms: P_33  and  O_36 
DOCKED: USER                              x       y       z     vdW  Elec       q    Type
DOCKED: USER                           _______ _______ _______ _____ _____    ______ ____
DOCKED: ROOT
DOCKED: ATOM      1  C   UNL d   1      13.647  10.344   0.460 -0.18 -0.02    +0.194 C 
DOCKED: ATOM      2  C   UNL d   1      12.617  11.430   0.777 -0.17 +0.01    +0.194 C 
DOCKED: ATOM      3  C   UNL d   1      13.072  12.804   0.279 -0.06 +0.00    +0.194 C 
DOCKED: ATOM      4  C   UNL d   1      13.478  12.806  -1.193 -0.09 -0.04    +0.194 C 
DOCKED: ATOM      5  C   UNL d   1      14.415  11.669  -1.579 -0.12 -0.04    +0.194 C 
DOCKED: ATOM      6  C   UNL d   1      13.994  10.304  -1.029 -0.19 -0.04    +0.194 C 
DOCKED: ENDROOT
DOCKED: BRANCH   1   7
DOCKED: ATOM      7  O   UNL d   1      13.077   9.077   0.799 -0.01 +0.03    -0.278 OA
DOCKED: BRANCH   7   8
DOCKED: ATOM      8  P   UNL d   1      12.919   8.704   2.344 -0.22 -0.01    +0.473 P 
DOCKED: ATOM      9  O   UNL d   1      12.461   7.314   2.614 -0.48 +0.02    -0.228 OA
DOCKED: BRANCH   8  10
DOCKED: ATOM     10  O   UNL d   1      14.352   9.026   2.968 -0.10 -0.00    -0.303 OA
DOCKED: ATOM     11  H   UNL d   1      14.923   9.426   2.286 +0.08 -0.01    +0.222 HD
DOCKED: ENDBRANCH   8  10
DOCKED: BRANCH   8  12
DOCKED: ATOM     12  O   UNL d   1      12.021   9.862   2.958 -0.15 -0.07    -0.303 OA
DOCKED: ATOM     13  H   UNL d   1      11.437  10.291   2.293 +0.12 +0.04    +0.222 HD
DOCKED: ENDBRANCH   8  12
DOCKED: ENDBRANCH   7   8
DOCKED: ENDBRANCH   1   7
DOCKED: BRANCH   2  14
DOCKED: ATOM     14  O   UNL d   1      11.378  11.100   0.139 -0.23 +0.02    -0.278 OA
DOCKED: BRANCH  14  15
DOCKED: ATOM     15  P   UNL d   1      10.048  11.311   1.005 -0.21 +0.02    +0.473 P 
DOCKED: ATOM     16  O   UNL d   1       8.898  11.979   0.319 -0.30 +0.03    -0.228 OA
DOCKED: BRANCH  15  17
DOCKED: ATOM     17  O   UNL d   1       9.690   9.850   1.529 -0.39 +0.03    -0.303 OA
DOCKED: ATOM     18  H   UNL d   1      10.455   9.249   1.444 -0.21 -0.07    +0.222 HD
DOCKED: ENDBRANCH  15  17
DOCKED: BRANCH  15  19
DOCKED: ATOM     19  O   UNL d   1      10.552  12.014   2.340 -0.13 -0.18    -0.303 OA
DOCKED: ATOM     20  H   UNL d   1      11.330  12.579   2.179 +0.07 +0.14    +0.222 HD
DOCKED: ENDBRANCH  15  19
DOCKED: ENDBRANCH  14  15
DOCKED: ENDBRANCH   2  14
DOCKED: BRANCH   6  21
DOCKED: ATOM     21  O   UNL d   1      15.116   9.437  -1.174 -0.10 +0.12    -0.278 OA
DOCKED: BRANCH  21  22
DOCKED: ATOM     22  P   UNL d   1      16.404   9.648  -0.256 -0.02 -0.17    +0.473 P 
DOCKED: ATOM     23  O   UNL d   1      17.734   9.266  -0.810 -0.06 +0.07    -0.228 OA
DOCKED: BRANCH  22  24
DOCKED: ATOM     24  O   UNL d   1      16.265  11.180   0.152 -0.01 +0.03    -0.303 OA
DOCKED: ATOM     25  H   UNL d   1      16.523  11.731  -0.631 +0.03 -0.02    +0.222 HD
DOCKED: ENDBRANCH  22  24
DOCKED: BRANCH  22  26
DOCKED: ATOM     26  O   UNL d   1      15.965   8.905   1.096 -0.10 +0.12    -0.303 OA
DOCKED: ATOM     27  H   UNL d   1      15.142   8.401   0.933 -0.20 -0.15    +0.222 HD
DOCKED: ENDBRANCH  22  26
DOCKED: ENDBRANCH  21  22
DOCKED: ENDBRANCH   6  21
DOCKED: BRANCH   3  28
DOCKED: ATOM     28  O   UNL d   1      11.955  13.681   0.363 -0.05 -0.01    -0.278 OA
DOCKED: BRANCH  28  29
DOCKED: ATOM     29  P   UNL d   1      11.774  14.633   1.627 -0.04 +0.23    +0.473 P 
DOCKED: ATOM     30  O   UNL d   1      12.205  16.042   1.435 -0.02 -0.06    -0.228 OA
DOCKED: BRANCH  29  31
DOCKED: ATOM     31  O   UNL d   1      10.226  14.384   1.945 -0.11 -0.20    -0.303 OA
DOCKED: ATOM     32  H   UNL d   1       9.878  13.718   1.307 +0.08 +0.06    +0.222 HD
DOCKED: ENDBRANCH  29  31
DOCKED: BRANCH  29  33
DOCKED: ATOM     33  O   UNL d   1      12.506  13.807   2.775 -0.65 -0.30    -0.303 OA
DOCKED: ATOM     34  H   UNL d   1      11.851  13.204   3.204 +0.05 +0.37    +0.222 HD
DOCKED: ENDBRANCH  29  33
DOCKED: ENDBRANCH  28  29
DOCKED: ENDBRANCH   3  28
DOCKED: BRANCH   5  35
DOCKED: ATOM     35  O   UNL d   1      14.355  11.584  -3.001 -0.51 +0.05    -0.278 OA
DOCKED: BRANCH  35  36
DOCKED: ATOM     36  P   UNL d   1      15.637  11.131  -3.835 +0.07 -0.06    +0.473 P 
DOCKED: ATOM     37  O   UNL d   1      15.842  11.837  -5.138 -0.10 +0.04    -0.228 OA
DOCKED: BRANCH  36  38
DOCKED: ATOM     38  O   UNL d   1      16.808  11.353  -2.779 -0.02 +0.04    -0.303 OA
DOCKED: ATOM     39  H   UNL d   1      16.658  10.767  -2.006 +0.04 -0.04    +0.222 HD
DOCKED: ENDBRANCH  36  38
DOCKED: BRANCH  36  40
DOCKED: ATOM     40  O   UNL d   1      15.466   9.551  -3.890 -0.46 +0.06    -0.303 OA
DOCKED: ATOM     41  H   UNL d   1      14.736   9.243  -3.308 -0.12 -0.07    +0.222 HD
DOCKED: ENDBRANCH  36  40
DOCKED: ENDBRANCH  35  36
DOCKED: ENDBRANCH   5  35
DOCKED: BRANCH   4  42
DOCKED: ATOM     42  O   UNL d   1      14.182  14.030  -1.427 -0.01 +0.04    -0.278 OA
DOCKED: BRANCH  42  43
DOCKED: ATOM     43  P   UNL d   1      13.410  15.244  -2.116 -0.00 -0.11    +0.473 P 
DOCKED: ATOM     44  O   UNL d   1      14.035  15.860  -3.320 -0.01 +0.05    -0.228 OA
DOCKED: BRANCH  43  45
DOCKED: ATOM     45  O   UNL d   1      11.962  14.636  -2.374 -0.09 +0.17    -0.303 OA
DOCKED: ATOM     46  H   UNL d   1      11.458  14.548  -1.540 +0.04 -0.09    +0.222 HD
DOCKED: ENDBRANCH  43  45
DOCKED: BRANCH  43  47
DOCKED: ATOM     47  O   UNL d   1      13.132  16.242  -0.894 +0.00 +0.03    -0.303 OA
DOCKED: ATOM     48  H   UNL d   1      12.782  15.732  -0.134 +0.02 -0.01    +0.222 HD
DOCKED: ENDBRANCH  43  47
DOCKED: ENDBRANCH  42  43
DOCKED: ENDBRANCH   4  42
DOCKED: TORSDOF 24
DOCKED: TER
DOCKED: ENDMDL
________________________________________________________________________________


	BEGINNING GENETIC ALGORITHM DOCKING 23 of 100
Run: 23 Seed: 1336114522 764751891 [ Run 23 of 100 GA/GALS ]
Beginning LAMARCKIAN GENETIC ALGORITHM (LGA), with a maximum of 25000000 energy evaluations.

Final-Value: -19.960


	FINAL GENETIC ALGORITHM DOCKED STATE
	_______________________________________________


Detailed state:  trans -7.652 11.277 -15.483 quatxyzw -0.453156 -0.496662 -0.268865 -0.689701 center 0.035 0.082 -0.065 ntor 24 79.4372 148.4671 -158.4436 40.6935 88.2829 73.9740 21.4127 -66.8105 29.5891 88.5765 151.2785 122.0031 -72.7915 163.3931 -173.2456 88.0580 -69.2255 -171.7541 -147.2956 -14.7044 14.7051 -20.6622 179.9364 18.2619
State:	 -7.652  11.277 -15.483  -0.626 -0.686 -0.371 -92.787     79.44  148.47 -158.44   40.69   88.28   73.97   21.41  -66.81   29.59   88.58  151.28  122.00  -72.79  163.39 -173.25   88.06  -69.23 -171.75 -147.30  -14.70   14.71  -20.66  179.94   18.26

DOCKED: MODEL       23
DOCKED: USER    Run = 23
DOCKED: USER    DPF = D:/Protein_go_brrr/autodock/final/mut_N102T/IHP/dock.dpf
DOCKED: USER  
DOCKED: USER    Estimated Free Energy of Binding    =   +2.52 kcal/mol  [=(1)+(2)+(3)-(4)]
DOCKED: USER    
DOCKED: USER    (1) Final Intermolecular Energy     =   -4.64 kcal/mol
DOCKED: USER        vdW + Hbond + desolv Energy     =   -4.57 kcal/mol
DOCKED: USER        Electrostatic Energy            =   -0.08 kcal/mol
DOCKED: USER    (2) Final Total Internal Energy     =  -15.32 kcal/mol
DOCKED: USER    (3) Torsional Free Energy           =   +7.16 kcal/mol
DOCKED: USER    (4) Unbound System's Energy  [=(2)] =  -15.32 kcal/mol
DOCKED: USER    
DOCKED: USER    
DOCKED: USER    NEWDPF move IHP_ideal_opt.pdbqt
DOCKED: USER    NEWDPF about 0.035000 0.082000 -0.065000
DOCKED: USER    NEWDPF tran0 -7.651597 11.276532 -15.482603
DOCKED: USER    NEWDPF quaternion0 -0.453156 -0.496662 -0.268865 -0.689701
DOCKED: USER    NEWDPF axisangle0 -0.625825 -0.685908 -0.371312 -92.787111
DOCKED: USER    NEWDPF quat0 -0.625825 -0.685908 -0.371312 -92.787111
DOCKED: USER    NEWDPF dihe0 79.44 148.47 -158.44 40.69 88.28 73.97 21.41 -66.81 29.59 88.58 151.28 122.00 -72.79 163.39 -173.25 88.06 -69.23 -171.75 -147.30 -14.70 14.71 -20.66 179.94 18.26 
DOCKED: USER  keepresnum = 1 
DOCKED: USER  
DOCKED: REMARK  24 active torsions:
DOCKED: REMARK  status: ('A' for Active; 'I' for Inactive)
DOCKED: REMARK    1  A    between atoms: C_1  and  O_7 
DOCKED: REMARK    2  A    between atoms: C_2  and  O_12 
DOCKED: REMARK    3  A    between atoms: C_3  and  O_17 
DOCKED: REMARK    4  A    between atoms: C_4  and  O_22 
DOCKED: REMARK    5  A    between atoms: C_5  and  O_27 
DOCKED: REMARK    6  A    between atoms: C_6  and  O_32 
DOCKED: REMARK    7  A    between atoms: O_7  and  P_8 
DOCKED: REMARK    8  A    between atoms: P_8  and  O_10 
DOCKED: REMARK    9  A    between atoms: P_8  and  O_11 
DOCKED: REMARK   10  A    between atoms: O_12  and  P_13 
DOCKED: REMARK   11  A    between atoms: P_13  and  O_15 
DOCKED: REMARK   12  A    between atoms: P_13  and  O_16 
DOCKED: REMARK   13  A    between atoms: O_17  and  P_18 
DOCKED: REMARK   14  A    between atoms: P_18  and  O_20 
DOCKED: REMARK   15  A    between atoms: P_18  and  O_21 
DOCKED: REMARK   16  A    between atoms: O_22  and  P_23 
DOCKED: REMARK   17  A    between atoms: P_23  and  O_25 
DOCKED: REMARK   18  A    between atoms: P_23  and  O_26 
DOCKED: REMARK   19  A    between atoms: O_27  and  P_28 
DOCKED: REMARK   20  A    between atoms: P_28  and  O_30 
DOCKED: REMARK   21  A    between atoms: P_28  and  O_31 
DOCKED: REMARK   22  A    between atoms: O_32  and  P_33 
DOCKED: REMARK   23  A    between atoms: P_33  and  O_35 
DOCKED: REMARK   24  A    between atoms: P_33  and  O_36 
DOCKED: USER                              x       y       z     vdW  Elec       q    Type
DOCKED: USER                           _______ _______ _______ _____ _____    ______ ____
DOCKED: ROOT
DOCKED: ATOM      1  C   UNL d   1      -8.276  11.687 -13.925 -0.03 -0.01    +0.194 C 
DOCKED: ATOM      2  C   UNL d   1      -9.225  10.901 -14.832 -0.05 -0.00    +0.194 C 
DOCKED: ATOM      3  C   UNL d   1      -9.197  11.424 -16.270 -0.05 +0.01    +0.194 C 
DOCKED: ATOM      4  C   UNL d   1      -7.788  11.514 -16.849 -0.08 +0.01    +0.194 C 
DOCKED: ATOM      5  C   UNL d   1      -6.780  12.189 -15.928 -0.08 +0.00    +0.194 C 
DOCKED: ATOM      6  C   UNL d   1      -6.850  11.711 -14.477 -0.08 -0.01    +0.194 C 
DOCKED: ENDROOT
DOCKED: BRANCH   1   7
DOCKED: ATOM      7  O   UNL d   1      -8.231  11.033 -12.654 -0.03 +0.02    -0.278 OA
DOCKED: BRANCH   7   8
DOCKED: ATOM      8  P   UNL d   1      -7.128   9.901 -12.422 -0.09 -0.07    +0.473 P 
DOCKED: ATOM      9  O   UNL d   1      -6.580   9.289 -13.663 -0.25 +0.06    -0.228 OA
DOCKED: BRANCH   8  10
DOCKED: ATOM     10  O   UNL d   1      -6.015  10.622 -11.534 -0.11 +0.03    -0.303 OA
DOCKED: ATOM     11  H   UNL d   1      -5.459  11.187 -12.102 +0.10 -0.03    +0.222 HD
DOCKED: ENDBRANCH   8  10
DOCKED: BRANCH   8  12
DOCKED: ATOM     12  O   UNL d   1      -7.782   8.894 -11.382 -0.10 +0.08    -0.303 OA
DOCKED: ATOM     13  H   UNL d   1      -8.109   8.066 -11.801 -0.50 -0.12    +0.222 HD
DOCKED: ENDBRANCH   8  12
DOCKED: ENDBRANCH   7   8
DOCKED: ENDBRANCH   1   7
DOCKED: BRANCH   2  14
DOCKED: ATOM     14  O   UNL d   1      -8.830   9.523 -14.839 -0.12 +0.01    -0.278 OA
DOCKED: BRANCH  14  15
DOCKED: ATOM     15  P   UNL d   1      -9.886   8.473 -14.250 -0.11 -0.02    +0.473 P 
DOCKED: ATOM     16  O   UNL d   1      -9.331   7.347 -13.436 -0.19 +0.05    -0.228 OA
DOCKED: BRANCH  15  17
DOCKED: ATOM     17  O   UNL d   1     -10.916   9.375 -13.435 -0.03 +0.01    -0.303 OA
DOCKED: ATOM     18  H   UNL d   1     -11.763   9.461 -13.914 +0.02 -0.00    +0.222 HD
DOCKED: ENDBRANCH  15  17
DOCKED: BRANCH  15  19
DOCKED: ATOM     19  O   UNL d   1     -10.762   8.044 -15.507 -0.07 -0.02    -0.303 OA
DOCKED: ATOM     20  H   UNL d   1     -10.687   8.688 -16.235 +0.04 +0.02    +0.222 HD
DOCKED: ENDBRANCH  15  19
DOCKED: ENDBRANCH  14  15
DOCKED: ENDBRANCH   2  14
DOCKED: BRANCH   6  21
DOCKED: ATOM     21  O   UNL d   1      -6.116  12.651 -13.696 -0.04 +0.01    -0.278 OA
DOCKED: BRANCH  21  22
DOCKED: ATOM     22  P   UNL d   1      -4.544  12.461 -13.499 -0.13 -0.06    +0.473 P 
DOCKED: ATOM     23  O   UNL d   1      -3.951  12.815 -12.177 -0.24 +0.03    -0.228 OA
DOCKED: BRANCH  22  24
DOCKED: ATOM     24  O   UNL d   1      -4.342  10.944 -13.937 -0.26 +0.10    -0.303 OA
DOCKED: ATOM     25  H   UNL d   1      -5.103  10.687 -14.517 +0.09 -0.06    +0.222 HD
DOCKED: ENDBRANCH  22  24
DOCKED: BRANCH  22  26
DOCKED: ATOM     26  O   UNL d   1      -3.959  13.251 -14.766 -0.16 +0.01    -0.303 OA
DOCKED: ATOM     27  H   UNL d   1      -3.722  12.608 -15.465 -0.01 -0.03    +0.222 HD
DOCKED: ENDBRANCH  22  26
DOCKED: ENDBRANCH  21  22
DOCKED: ENDBRANCH   6  21
DOCKED: BRANCH   3  28
DOCKED: ATOM     28  O   UNL d   1      -9.880  10.477 -17.082 -0.07 -0.01    -0.278 OA
DOCKED: BRANCH  28  29
DOCKED: ATOM     29  P   UNL d   1     -11.449  10.607 -17.323 -0.03 +0.02    +0.473 P 
DOCKED: ATOM     30  O   UNL d   1     -11.891  11.845 -18.013 -0.01 -0.01    -0.228 OA
DOCKED: BRANCH  29  31
DOCKED: ATOM     31  O   UNL d   1     -11.732   9.219 -18.069 -0.05 -0.02    -0.303 OA
DOCKED: ATOM     32  H   UNL d   1     -11.677   8.491 -17.408 +0.02 +0.01    +0.222 HD
DOCKED: ENDBRANCH  29  31
DOCKED: BRANCH  29  33
DOCKED: ATOM     33  O   UNL d   1     -12.033  10.347 -15.864 -0.02 -0.01    -0.303 OA
DOCKED: ATOM     34  H   UNL d   1     -11.296  10.063 -15.270 +0.02 +0.00    +0.222 HD
DOCKED: ENDBRANCH  29  33
DOCKED: ENDBRANCH  28  29
DOCKED: ENDBRANCH   3  28
DOCKED: BRANCH   5  35
DOCKED: ATOM     35  O   UNL d   1      -5.495  11.827 -16.428 -0.15 +0.01    -0.278 OA
DOCKED: BRANCH  35  36
DOCKED: ATOM     36  P   UNL d   1      -5.156  10.300 -16.744 -0.28 -0.05    +0.473 P 
DOCKED: ATOM     37  O   UNL d   1      -5.957   9.291 -15.984 -0.32 +0.03    -0.228 OA
DOCKED: BRANCH  36  38
DOCKED: ATOM     38  O   UNL d   1      -5.356  10.241 -18.323 -0.26 -0.02    -0.303 OA
DOCKED: ATOM     39  H   UNL d   1      -6.147  10.769 -18.566 +0.08 +0.02    +0.222 HD
DOCKED: ENDBRANCH  36  38
DOCKED: BRANCH  36  40
DOCKED: ATOM     40  O   UNL d   1      -3.577  10.257 -16.557 -0.41 +0.10    -0.303 OA
DOCKED: ATOM     41  H   UNL d   1      -3.296  10.703 -15.727 -0.40 -0.14    +0.222 HD
DOCKED: ENDBRANCH  36  40
DOCKED: ENDBRANCH  35  36
DOCKED: ENDBRANCH   5  35
DOCKED: BRANCH   4  42
DOCKED: ATOM     42  O   UNL d   1      -7.877  12.313 -18.034 -0.03 -0.02    -0.278 OA
DOCKED: BRANCH  42  43
DOCKED: ATOM     43  P   UNL d   1      -8.095  11.589 -19.438 -0.03 +0.04    +0.473 P 
DOCKED: ATOM     44  O   UNL d   1      -7.127  11.898 -20.527 -0.03 -0.02    -0.228 OA
DOCKED: BRANCH  43  45
DOCKED: ATOM     45  O   UNL d   1      -8.151  10.051 -19.033 -0.10 -0.04    -0.303 OA
DOCKED: ATOM     46  H   UNL d   1      -9.022   9.812 -18.658 +0.04 +0.02    +0.222 HD
DOCKED: ENDBRANCH  43  45
DOCKED: BRANCH  43  47
DOCKED: ATOM     47  O   UNL d   1      -9.633  11.894 -19.773 -0.01 -0.02    -0.303 OA
DOCKED: ATOM     48  H   UNL d   1     -10.196  11.534 -19.058 +0.02 +0.01    +0.222 HD
DOCKED: ENDBRANCH  43  47
DOCKED: ENDBRANCH  42  43
DOCKED: ENDBRANCH   4  42
DOCKED: TORSDOF 24
DOCKED: TER
DOCKED: ENDMDL
________________________________________________________________________________


	BEGINNING GENETIC ALGORITHM DOCKING 24 of 100
Run: 24 Seed: 1371215390 862714034 [ Run 24 of 100 GA/GALS ]
Beginning LAMARCKIAN GENETIC ALGORITHM (LGA), with a maximum of 25000000 energy evaluations.

Final-Value: -18.382


	FINAL GENETIC ALGORITHM DOCKED STATE
	_______________________________________________


Detailed state:  trans -1.991 7.742 18.641 quatxyzw 0.147242 0.406458 0.563408 0.704048 center 0.035 0.082 -0.065 ntor 24 156.7059 -15.9765 -17.6705 65.1990 129.3336 152.0659 -67.5865 -27.4097 123.5214 -16.7471 -3.5862 179.8257 29.2436 -21.0936 68.5122 171.1487 107.6880 -35.7108 -135.1180 -14.9241 26.7177 0.2846 -28.5482 179.6762
State:	 -1.991   7.742  18.641   0.207  0.572  0.793 90.495    156.71  -15.98  -17.67   65.20  129.33  152.07  -67.59  -27.41  123.52  -16.75   -3.59  179.83   29.24  -21.09   68.51  171.15  107.69  -35.71 -135.12  -14.92   26.72    0.28  -28.55  179.68

DOCKED: MODEL       24
DOCKED: USER    Run = 24
DOCKED: USER    DPF = D:/Protein_go_brrr/autodock/final/mut_N102T/IHP/dock.dpf
DOCKED: USER  
DOCKED: USER    Estimated Free Energy of Binding    =   +1.84 kcal/mol  [=(1)+(2)+(3)-(4)]
DOCKED: USER    
DOCKED: USER    (1) Final Intermolecular Energy     =   -5.32 kcal/mol
DOCKED: USER        vdW + Hbond + desolv Energy     =   -5.27 kcal/mol
DOCKED: USER        Electrostatic Energy            =   -0.05 kcal/mol
DOCKED: USER    (2) Final Total Internal Energy     =  -13.06 kcal/mol
DOCKED: USER    (3) Torsional Free Energy           =   +7.16 kcal/mol
DOCKED: USER    (4) Unbound System's Energy  [=(2)] =  -13.06 kcal/mol
DOCKED: USER    
DOCKED: USER    
DOCKED: USER    NEWDPF move IHP_ideal_opt.pdbqt
DOCKED: USER    NEWDPF about 0.035000 0.082000 -0.065000
DOCKED: USER    NEWDPF tran0 -1.990687 7.741521 18.640693
DOCKED: USER    NEWDPF quaternion0 0.147242 0.406458 0.563408 0.704048
DOCKED: USER    NEWDPF axisangle0 0.207338 0.572353 0.793362 90.494620
DOCKED: USER    NEWDPF quat0 0.207338 0.572353 0.793362 90.494620
DOCKED: USER    NEWDPF dihe0 156.71 -15.98 -17.67 65.20 129.33 152.07 -67.59 -27.41 123.52 -16.75 -3.59 179.83 29.24 -21.09 68.51 171.15 107.69 -35.71 -135.12 -14.92 26.72 0.28 -28.55 179.68 
DOCKED: USER  keepresnum = 1 
DOCKED: USER  
DOCKED: REMARK  24 active torsions:
DOCKED: REMARK  status: ('A' for Active; 'I' for Inactive)
DOCKED: REMARK    1  A    between atoms: C_1  and  O_7 
DOCKED: REMARK    2  A    between atoms: C_2  and  O_12 
DOCKED: REMARK    3  A    between atoms: C_3  and  O_17 
DOCKED: REMARK    4  A    between atoms: C_4  and  O_22 
DOCKED: REMARK    5  A    between atoms: C_5  and  O_27 
DOCKED: REMARK    6  A    between atoms: C_6  and  O_32 
DOCKED: REMARK    7  A    between atoms: O_7  and  P_8 
DOCKED: REMARK    8  A    between atoms: P_8  and  O_10 
DOCKED: REMARK    9  A    between atoms: P_8  and  O_11 
DOCKED: REMARK   10  A    between atoms: O_12  and  P_13 
DOCKED: REMARK   11  A    between atoms: P_13  and  O_15 
DOCKED: REMARK   12  A    between atoms: P_13  and  O_16 
DOCKED: REMARK   13  A    between atoms: O_17  and  P_18 
DOCKED: REMARK   14  A    between atoms: P_18  and  O_20 
DOCKED: REMARK   15  A    between atoms: P_18  and  O_21 
DOCKED: REMARK   16  A    between atoms: O_22  and  P_23 
DOCKED: REMARK   17  A    between atoms: P_23  and  O_25 
DOCKED: REMARK   18  A    between atoms: P_23  and  O_26 
DOCKED: REMARK   19  A    between atoms: O_27  and  P_28 
DOCKED: REMARK   20  A    between atoms: P_28  and  O_30 
DOCKED: REMARK   21  A    between atoms: P_28  and  O_31 
DOCKED: REMARK   22  A    between atoms: O_32  and  P_33 
DOCKED: REMARK   23  A    between atoms: P_33  and  O_35 
DOCKED: REMARK   24  A    between atoms: P_33  and  O_36 
DOCKED: USER                              x       y       z     vdW  Elec       q    Type
DOCKED: USER                           _______ _______ _______ _____ _____    ______ ____
DOCKED: ROOT
DOCKED: ATOM      1  C   UNL d   1      -3.079   7.138  19.838 -0.04 -0.04    +0.194 C 
DOCKED: ATOM      2  C   UNL d   1      -3.707   7.474  18.485 -0.10 -0.04    +0.194 C 
DOCKED: ATOM      3  C   UNL d   1      -3.177   8.797  17.928 -0.13 -0.05    +0.194 C 
DOCKED: ATOM      4  C   UNL d   1      -1.652   8.866  17.890 -0.16 -0.07    +0.194 C 
DOCKED: ATOM      5  C   UNL d   1      -0.979   8.429  19.185 -0.09 -0.05    +0.194 C 
DOCKED: ATOM      6  C   UNL d   1      -1.552   7.138  19.775 -0.07 -0.05    +0.194 C 
DOCKED: ENDROOT
DOCKED: BRANCH   1   7
DOCKED: ATOM      7  O   UNL d   1      -3.491   5.819  20.205 -0.04 +0.07    -0.278 OA
DOCKED: BRANCH   7   8
DOCKED: ATOM      8  P   UNL d   1      -2.452   4.620  20.016 -0.12 -0.25    +0.473 P 
DOCKED: ATOM      9  O   UNL d   1      -1.440   4.484  21.099 -0.14 +0.21    -0.228 OA
DOCKED: BRANCH   8  10
DOCKED: ATOM     10  O   UNL d   1      -3.376   3.329  19.855 -0.15 +0.14    -0.303 OA
DOCKED: ATOM     11  H   UNL d   1      -4.314   3.588  19.929 +0.06 -0.05    +0.222 HD
DOCKED: ENDBRANCH   8  10
DOCKED: BRANCH   8  12
DOCKED: ATOM     12  O   UNL d   1      -1.875   4.801  18.547 -0.25 +0.11    -0.303 OA
DOCKED: ATOM     13  H   UNL d   1      -2.567   4.740  17.850 +0.11 -0.05    +0.222 HD
DOCKED: ENDBRANCH   8  12
DOCKED: ENDBRANCH   7   8
DOCKED: ENDBRANCH   1   7
DOCKED: BRANCH   2  14
DOCKED: ATOM     14  O   UNL d   1      -3.396   6.430  17.554 -0.22 +0.05    -0.278 OA
DOCKED: BRANCH  14  15
DOCKED: ATOM     15  P   UNL d   1      -4.635   5.599  16.971 -0.28 -0.04    +0.473 P 
DOCKED: ATOM     16  O   UNL d   1      -5.909   6.354  16.756 -0.24 +0.02    -0.228 OA
DOCKED: BRANCH  15  17
DOCKED: ATOM     17  O   UNL d   1      -4.070   4.949  15.631 -0.51 -0.00    -0.303 OA
DOCKED: ATOM     18  H   UNL d   1      -4.514   5.320  14.845 -0.45 -0.08    +0.222 HD
DOCKED: ENDBRANCH  15  17
DOCKED: BRANCH  15  19
DOCKED: ATOM     19  O   UNL d   1      -4.743   4.328  17.922 -0.18 +0.01    -0.303 OA
DOCKED: ATOM     20  H   UNL d   1      -4.116   4.382  18.667 +0.08 -0.03    +0.222 HD
DOCKED: ENDBRANCH  15  19
DOCKED: ENDBRANCH  14  15
DOCKED: ENDBRANCH   2  14
DOCKED: BRANCH   6  21
DOCKED: ATOM     21  O   UNL d   1      -1.077   7.052  21.116 -0.03 +0.08    -0.278 OA
DOCKED: BRANCH  21  22
DOCKED: ATOM     22  P   UNL d   1       0.435   6.627  21.396 -0.06 -0.16    +0.473 P 
DOCKED: ATOM     23  O   UNL d   1       1.431   7.704  21.667 -0.04 +0.06    -0.228 OA
DOCKED: BRANCH  22  24
DOCKED: ATOM     24  O   UNL d   1       0.264   5.565  22.569 -0.08 +0.15    -0.303 OA
DOCKED: ATOM     25  H   UNL d   1      -0.258   4.800  22.217 +0.03 -0.18    +0.222 HD
DOCKED: ENDBRANCH  22  24
DOCKED: BRANCH  22  26
DOCKED: ATOM     26  O   UNL d   1       0.746   5.684  20.137 -0.12 +0.12    -0.303 OA
DOCKED: ATOM     27  H   UNL d   1      -0.097   5.347  19.771 +0.09 -0.11    +0.222 HD
DOCKED: ENDBRANCH  22  26
DOCKED: ENDBRANCH  21  22
DOCKED: ENDBRANCH   6  21
DOCKED: BRANCH   3  28
DOCKED: ATOM     28  O   UNL d   1      -3.592   8.888  16.571 -0.17 +0.11    -0.278 OA
DOCKED: BRANCH  28  29
DOCKED: ATOM     29  P   UNL d   1      -4.683   9.962  16.133 -0.15 -0.11    +0.473 P 
DOCKED: ATOM     30  O   UNL d   1      -4.498  10.549  14.781 -0.27 +0.05    -0.228 OA
DOCKED: BRANCH  29  31
DOCKED: ATOM     31  O   UNL d   1      -6.020   9.119  16.381 -0.13 +0.03    -0.303 OA
DOCKED: ATOM     32  H   UNL d   1      -5.780   8.167  16.464 +0.08 -0.03    +0.222 HD
DOCKED: ENDBRANCH  29  31
DOCKED: BRANCH  29  33
DOCKED: ATOM     33  O   UNL d   1      -4.670  10.972  17.364 -0.05 +0.05    -0.303 OA
DOCKED: ATOM     34  H   UNL d   1      -3.759  11.000  17.747 +0.06 -0.05    +0.222 HD
DOCKED: ENDBRANCH  29  33
DOCKED: ENDBRANCH  28  29
DOCKED: ENDBRANCH   3  28
DOCKED: BRANCH   5  35
DOCKED: ATOM     35  O   UNL d   1       0.381   8.168  18.845 -0.11 +0.08    -0.278 OA
DOCKED: BRANCH  35  36
DOCKED: ATOM     36  P   UNL d   1       1.516   9.232  19.197 -0.15 -0.14    +0.473 P 
DOCKED: ATOM     37  O   UNL d   1       2.883   8.667  19.418 -0.18 +0.10    -0.228 OA
DOCKED: BRANCH  36  38
DOCKED: ATOM     38  O   UNL d   1       1.414  10.237  17.966 -0.70 +0.07    -0.303 OA
DOCKED: ATOM     39  H   UNL d   1       0.486  10.544  17.878 +0.09 -0.06    +0.222 HD
DOCKED: ENDBRANCH  36  38
DOCKED: BRANCH  36  40
DOCKED: ATOM     40  O   UNL d   1       0.865  10.038  20.404 -0.04 +0.07    -0.303 OA
DOCKED: ATOM     41  H   UNL d   1       0.010  10.450  20.147 +0.07 -0.05    +0.222 HD
DOCKED: ENDBRANCH  36  40
DOCKED: ENDBRANCH  35  36
DOCKED: ENDBRANCH   5  35
DOCKED: BRANCH   4  42
DOCKED: ATOM     42  O   UNL d   1      -1.304  10.239  17.678 -0.23 +0.10    -0.278 OA
DOCKED: BRANCH  42  43
DOCKED: ATOM     43  P   UNL d   1      -1.589  11.295  18.839 -0.10 -0.10    +0.473 P 
DOCKED: ATOM     44  O   UNL d   1      -1.992  10.761  20.170 -0.03 +0.04    -0.228 OA
DOCKED: BRANCH  43  45
DOCKED: ATOM     45  O   UNL d   1      -0.252  12.158  18.862 -0.14 +0.07    -0.303 OA
DOCKED: ATOM     46  H   UNL d   1       0.476  11.677  19.304 +0.08 -0.07    +0.222 HD
DOCKED: ENDBRANCH  43  45
DOCKED: BRANCH  43  47
DOCKED: ATOM     47  O   UNL d   1      -2.623  12.315  18.161 -0.13 +0.05    -0.303 OA
DOCKED: ATOM     48  H   UNL d   1      -2.787  12.040  17.235 +0.07 -0.05    +0.222 HD
DOCKED: ENDBRANCH  43  47
DOCKED: ENDBRANCH  42  43
DOCKED: ENDBRANCH   4  42
DOCKED: TORSDOF 24
DOCKED: TER
DOCKED: ENDMDL
________________________________________________________________________________


	BEGINNING GENETIC ALGORITHM DOCKING 25 of 100
Run: 25 Seed: 319985272 345822356 [ Run 25 of 100 GA/GALS ]
Beginning LAMARCKIAN GENETIC ALGORITHM (LGA), with a maximum of 25000000 energy evaluations.

Final-Value: -19.858


	FINAL GENETIC ALGORITHM DOCKED STATE
	_______________________________________________


Detailed state:  trans 7.250 13.675 -10.783 quatxyzw 0.716485 -0.405869 -0.238649 -0.514749 center 0.035 0.082 -0.065 ntor 24 123.4938 22.5373 178.8087 -13.3038 162.4327 136.6123 -92.7046 153.8880 25.6417 -61.3353 15.5231 173.3653 -20.1548 87.3085 55.4109 32.4328 -45.7193 -157.7958 17.8528 -48.6672 -29.5699 22.4398 178.8134 -8.3427
State:	  7.250  13.675 -10.783   0.836 -0.473 -0.278 -118.039    123.49   22.54  178.81  -13.30  162.43  136.61  -92.70  153.89   25.64  -61.34   15.52  173.37  -20.15   87.31   55.41   32.43  -45.72 -157.80   17.85  -48.67  -29.57   22.44  178.81   -8.34

DOCKED: MODEL       25
DOCKED: USER    Run = 25
DOCKED: USER    DPF = D:/Protein_go_brrr/autodock/final/mut_N102T/IHP/dock.dpf
DOCKED: USER  
DOCKED: USER    Estimated Free Energy of Binding    =   +1.23 kcal/mol  [=(1)+(2)+(3)-(4)]
DOCKED: USER    
DOCKED: USER    (1) Final Intermolecular Energy     =   -5.93 kcal/mol
DOCKED: USER        vdW + Hbond + desolv Energy     =   -5.66 kcal/mol
DOCKED: USER        Electrostatic Energy            =   -0.26 kcal/mol
DOCKED: USER    (2) Final Total Internal Energy     =  -13.93 kcal/mol
DOCKED: USER    (3) Torsional Free Energy           =   +7.16 kcal/mol
DOCKED: USER    (4) Unbound System's Energy  [=(2)] =  -13.93 kcal/mol
DOCKED: USER    
DOCKED: USER    
DOCKED: USER    NEWDPF move IHP_ideal_opt.pdbqt
DOCKED: USER    NEWDPF about 0.035000 0.082000 -0.065000
DOCKED: USER    NEWDPF tran0 7.249771 13.674860 -10.782975
DOCKED: USER    NEWDPF quaternion0 0.716485 -0.405869 -0.238649 -0.514749
DOCKED: USER    NEWDPF axisangle0 0.835706 -0.473405 -0.278359 -118.038695
DOCKED: USER    NEWDPF quat0 0.835706 -0.473405 -0.278359 -118.038695
DOCKED: USER    NEWDPF dihe0 123.49 22.54 178.81 -13.30 162.43 136.61 -92.70 153.89 25.64 -61.34 15.52 173.37 -20.15 87.31 55.41 32.43 -45.72 -157.80 17.85 -48.67 -29.57 22.44 178.81 -8.34 
DOCKED: USER  keepresnum = 1 
DOCKED: USER  
DOCKED: REMARK  24 active torsions:
DOCKED: REMARK  status: ('A' for Active; 'I' for Inactive)
DOCKED: REMARK    1  A    between atoms: C_1  and  O_7 
DOCKED: REMARK    2  A    between atoms: C_2  and  O_12 
DOCKED: REMARK    3  A    between atoms: C_3  and  O_17 
DOCKED: REMARK    4  A    between atoms: C_4  and  O_22 
DOCKED: REMARK    5  A    between atoms: C_5  and  O_27 
DOCKED: REMARK    6  A    between atoms: C_6  and  O_32 
DOCKED: REMARK    7  A    between atoms: O_7  and  P_8 
DOCKED: REMARK    8  A    between atoms: P_8  and  O_10 
DOCKED: REMARK    9  A    between atoms: P_8  and  O_11 
DOCKED: REMARK   10  A    between atoms: O_12  and  P_13 
DOCKED: REMARK   11  A    between atoms: P_13  and  O_15 
DOCKED: REMARK   12  A    between atoms: P_13  and  O_16 
DOCKED: REMARK   13  A    between atoms: O_17  and  P_18 
DOCKED: REMARK   14  A    between atoms: P_18  and  O_20 
DOCKED: REMARK   15  A    between atoms: P_18  and  O_21 
DOCKED: REMARK   16  A    between atoms: O_22  and  P_23 
DOCKED: REMARK   17  A    between atoms: P_23  and  O_25 
DOCKED: REMARK   18  A    between atoms: P_23  and  O_26 
DOCKED: REMARK   19  A    between atoms: O_27  and  P_28 
DOCKED: REMARK   20  A    between atoms: P_28  and  O_30 
DOCKED: REMARK   21  A    between atoms: P_28  and  O_31 
DOCKED: REMARK   22  A    between atoms: O_32  and  P_33 
DOCKED: REMARK   23  A    between atoms: P_33  and  O_35 
DOCKED: REMARK   24  A    between atoms: P_33  and  O_36 
DOCKED: USER                              x       y       z     vdW  Elec       q    Type
DOCKED: USER                           _______ _______ _______ _____ _____    ______ ____
DOCKED: ROOT
DOCKED: ATOM      1  C   UNL d   1       7.645  12.333 -11.797 -0.19 -0.06    +0.194 C 
DOCKED: ATOM      2  C   UNL d   1       7.500  13.679 -12.509 -0.09 -0.06    +0.194 C 
DOCKED: ATOM      3  C   UNL d   1       6.287  14.461 -12.002 -0.07 -0.08    +0.194 C 
DOCKED: ATOM      4  C   UNL d   1       6.257  14.606 -10.482 -0.13 -0.08    +0.194 C 
DOCKED: ATOM      5  C   UNL d   1       6.511  13.306  -9.730 -0.16 -0.08    +0.194 C 
DOCKED: ATOM      6  C   UNL d   1       7.687  12.494 -10.276 -0.22 -0.07    +0.194 C 
DOCKED: ENDROOT
DOCKED: BRANCH   1   7
DOCKED: ATOM      7  O   UNL d   1       8.885  11.747 -12.198 -0.09 +0.07    -0.278 OA
DOCKED: BRANCH   7   8
DOCKED: ATOM      8  P   UNL d   1       8.851  10.537 -13.241 -0.14 -0.11    +0.473 P 
DOCKED: ATOM      9  O   UNL d   1       7.735  10.583 -14.224 -0.25 +0.08    -0.228 OA
DOCKED: BRANCH   8  10
DOCKED: ATOM     10  O   UNL d   1      10.292  10.576 -13.925 -0.10 +0.04    -0.303 OA
DOCKED: ATOM     11  H   UNL d   1      10.594  11.500 -14.000 +0.04 -0.03    +0.222 HD
DOCKED: ENDBRANCH   8  10
DOCKED: BRANCH   8  12
DOCKED: ATOM     12  O   UNL d   1       8.939   9.223 -12.353 -0.05 +0.10    -0.303 OA
DOCKED: ATOM     13  H   UNL d   1       9.339   9.382 -11.468 -0.35 -0.11    +0.222 HD
DOCKED: ENDBRANCH   8  12
DOCKED: ENDBRANCH   7   8
DOCKED: ENDBRANCH   1   7
DOCKED: BRANCH   2  14
DOCKED: ATOM     14  O   UNL d   1       8.678  14.461 -12.273 -0.01 +0.06    -0.278 OA
DOCKED: BRANCH  14  15
DOCKED: ATOM     15  P   UNL d   1       9.933  14.168 -13.223 +0.01 -0.08    +0.473 P 
DOCKED: ATOM     16  O   UNL d   1      10.757  15.349 -13.632 -0.00 +0.03    -0.228 OA
DOCKED: BRANCH  15  17
DOCKED: ATOM     17  O   UNL d   1      10.775  13.075 -12.427 -0.00 +0.06    -0.303 OA
DOCKED: ATOM     18  H   UNL d   1      10.422  12.178 -12.581 +0.05 -0.04    +0.222 HD
DOCKED: ENDBRANCH  15  17
DOCKED: BRANCH  15  19
DOCKED: ATOM     19  O   UNL d   1       9.335  13.303 -14.416 -0.01 +0.06    -0.303 OA
DOCKED: ATOM     20  H   UNL d   1       9.125  12.394 -14.132 +0.05 -0.05    +0.222 HD
DOCKED: ENDBRANCH  15  19
DOCKED: ENDBRANCH  14  15
DOCKED: ENDBRANCH   2  14
DOCKED: BRANCH   6  21
DOCKED: ATOM     21  O   UNL d   1       7.582  11.187  -9.715 -0.47 +0.08    -0.278 OA
DOCKED: BRANCH  21  22
DOCKED: ATOM     22  P   UNL d   1       8.865  10.502  -9.059 -0.27 -0.17    +0.473 P 
DOCKED: ATOM     23  O   UNL d   1       9.173  10.806  -7.631 -0.45 +0.18    -0.228 OA
DOCKED: BRANCH  22  24
DOCKED: ATOM     24  O   UNL d   1       8.609   8.963  -9.374 -0.87 +0.06    -0.303 OA
DOCKED: ATOM     25  H   UNL d   1       9.110   8.730 -10.196 -0.39 -0.13    +0.222 HD
DOCKED: ENDBRANCH  22  24
DOCKED: BRANCH  22  26
DOCKED: ATOM     26  O   UNL d   1      10.009  10.872 -10.119 -0.12 +0.10    -0.303 OA
DOCKED: ATOM     27  H   UNL d   1       9.636  10.828 -11.023 +0.09 -0.07    +0.222 HD
DOCKED: ENDBRANCH  22  26
DOCKED: ENDBRANCH  21  22
DOCKED: ENDBRANCH   6  21
DOCKED: BRANCH   3  28
DOCKED: ATOM     28  O   UNL d   1       6.391  15.787 -12.505 -0.03 +0.07    -0.278 OA
DOCKED: BRANCH  28  29
DOCKED: ATOM     29  P   UNL d   1       5.131  16.494 -13.176 -0.01 -0.09    +0.473 P 
DOCKED: ATOM     30  O   UNL d   1       3.854  15.740 -13.094 -0.12 +0.06    -0.228 OA
DOCKED: BRANCH  29  31
DOCKED: ATOM     31  O   UNL d   1       5.184  17.915 -12.442 -0.00 +0.04    -0.303 OA
DOCKED: ATOM     32  H   UNL d   1       5.404  17.770 -11.493 +0.02 -0.04    +0.222 HD
DOCKED: ENDBRANCH  29  31
DOCKED: BRANCH  29  33
DOCKED: ATOM     33  O   UNL d   1       5.676  16.831 -14.634 -0.00 +0.04    -0.303 OA
DOCKED: ATOM     34  H   UNL d   1       5.259  17.671 -14.946 +0.01 -0.01    +0.222 HD
DOCKED: ENDBRANCH  29  33
DOCKED: ENDBRANCH  28  29
DOCKED: ENDBRANCH   3  28
DOCKED: BRANCH   5  35
DOCKED: ATOM     35  O   UNL d   1       6.848  13.689  -8.398 -0.23 +0.14    -0.278 OA
DOCKED: BRANCH  35  36
DOCKED: ATOM     36  P   UNL d   1       7.973  14.789  -8.138 -0.09 -0.31    +0.473 P 
DOCKED: ATOM     37  O   UNL d   1       8.636  15.336  -9.362 -0.03 +0.09    -0.228 OA
DOCKED: BRANCH  36  38
DOCKED: ATOM     38  O   UNL d   1       7.178  15.874  -7.285 -0.07 +0.19    -0.303 OA
DOCKED: ATOM     39  H   UNL d   1       6.299  16.024  -7.697 +0.06 -0.11    +0.222 HD
DOCKED: ENDBRANCH  36  38
DOCKED: BRANCH  36  40
DOCKED: ATOM     40  O   UNL d   1       8.909  14.073  -7.069 -0.13 +0.46    -0.303 OA
DOCKED: ATOM     41  H   UNL d   1       8.755  14.419  -6.162 -0.48 -0.57    +0.222 HD
DOCKED: ENDBRANCH  36  40
DOCKED: ENDBRANCH  35  36
DOCKED: ENDBRANCH   5  35
DOCKED: BRANCH   4  42
DOCKED: ATOM     42  O   UNL d   1       4.939  15.043 -10.133 -0.17 +0.12    -0.278 OA
DOCKED: BRANCH  42  43
DOCKED: ATOM     43  P   UNL d   1       4.763  16.441  -9.385 -0.08 -0.15    +0.473 P 
DOCKED: ATOM     44  O   UNL d   1       4.294  16.409  -7.972 -0.16 +0.08    -0.228 OA
DOCKED: BRANCH  43  45
DOCKED: ATOM     45  O   UNL d   1       6.187  17.124  -9.583 -0.01 +0.08    -0.303 OA
DOCKED: ATOM     46  H   UNL d   1       6.905  16.567  -9.222 +0.04 -0.07    +0.222 HD
DOCKED: ENDBRANCH  43  45
DOCKED: BRANCH  43  47
DOCKED: ATOM     47  O   UNL d   1       3.853  17.286 -10.398 -0.04 +0.07    -0.303 OA
DOCKED: ATOM     48  H   UNL d   1       3.752  16.788 -11.235 +0.06 -0.05    +0.222 HD
DOCKED: ENDBRANCH  43  47
DOCKED: ENDBRANCH  42  43
DOCKED: ENDBRANCH   4  42
DOCKED: TORSDOF 24
DOCKED: TER
DOCKED: ENDMDL
________________________________________________________________________________


	BEGINNING GENETIC ALGORITHM DOCKING 26 of 100
Run: 26 Seed: 58537042 1182768875 [ Run 26 of 100 GA/GALS ]
Beginning LAMARCKIAN GENETIC ALGORITHM (LGA), with a maximum of 25000000 energy evaluations.

Final-Value: -15.835


	FINAL GENETIC ALGORITHM DOCKED STATE
	_______________________________________________


Detailed state:  trans 9.291 -7.686 -19.285 quatxyzw 0.343915 -0.648034 -0.381435 -0.562389 center 0.035 0.082 -0.065 ntor 24 -149.1120 -21.2308 175.6451 16.6653 2.0742 148.7029 -36.3291 -71.6450 -23.6210 125.2080 -89.3605 88.9270 51.4772 -164.6976 -173.8396 -42.5270 -36.3376 1.6885 -12.8625 7.5086 -23.8580 132.9514 161.9311 174.0522
State:	  9.291  -7.686 -19.285   0.416 -0.784 -0.461 -111.558   -149.11  -21.23  175.65   16.67    2.07  148.70  -36.33  -71.65  -23.62  125.21  -89.36   88.93   51.48 -164.70 -173.84  -42.53  -36.34    1.69  -12.86    7.51  -23.86  132.95  161.93  174.05

DOCKED: MODEL       26
DOCKED: USER    Run = 26
DOCKED: USER    DPF = D:/Protein_go_brrr/autodock/final/mut_N102T/IHP/dock.dpf
DOCKED: USER  
DOCKED: USER    Estimated Free Energy of Binding    =   +3.85 kcal/mol  [=(1)+(2)+(3)-(4)]
DOCKED: USER    
DOCKED: USER    (1) Final Intermolecular Energy     =   -3.31 kcal/mol
DOCKED: USER        vdW + Hbond + desolv Energy     =   -3.18 kcal/mol
DOCKED: USER        Electrostatic Energy            =   -0.14 kcal/mol
DOCKED: USER    (2) Final Total Internal Energy     =  -12.52 kcal/mol
DOCKED: USER    (3) Torsional Free Energy           =   +7.16 kcal/mol
DOCKED: USER    (4) Unbound System's Energy  [=(2)] =  -12.52 kcal/mol
DOCKED: USER    
DOCKED: USER    
DOCKED: USER    NEWDPF move IHP_ideal_opt.pdbqt
DOCKED: USER    NEWDPF about 0.035000 0.082000 -0.065000
DOCKED: USER    NEWDPF tran0 9.291139 -7.686227 -19.284855
DOCKED: USER    NEWDPF quaternion0 0.343915 -0.648034 -0.381435 -0.562389
DOCKED: USER    NEWDPF axisangle0 0.415922 -0.783717 -0.461298 -111.557658
DOCKED: USER    NEWDPF quat0 0.415922 -0.783717 -0.461298 -111.557658
DOCKED: USER    NEWDPF dihe0 -149.11 -21.23 175.65 16.67 2.07 148.70 -36.33 -71.65 -23.62 125.21 -89.36 88.93 51.48 -164.70 -173.84 -42.53 -36.34 1.69 -12.86 7.51 -23.86 132.95 161.93 174.05 
DOCKED: USER  keepresnum = 1 
DOCKED: USER  
DOCKED: REMARK  24 active torsions:
DOCKED: REMARK  status: ('A' for Active; 'I' for Inactive)
DOCKED: REMARK    1  A    between atoms: C_1  and  O_7 
DOCKED: REMARK    2  A    between atoms: C_2  and  O_12 
DOCKED: REMARK    3  A    between atoms: C_3  and  O_17 
DOCKED: REMARK    4  A    between atoms: C_4  and  O_22 
DOCKED: REMARK    5  A    between atoms: C_5  and  O_27 
DOCKED: REMARK    6  A    between atoms: C_6  and  O_32 
DOCKED: REMARK    7  A    between atoms: O_7  and  P_8 
DOCKED: REMARK    8  A    between atoms: P_8  and  O_10 
DOCKED: REMARK    9  A    between atoms: P_8  and  O_11 
DOCKED: REMARK   10  A    between atoms: O_12  and  P_13 
DOCKED: REMARK   11  A    between atoms: P_13  and  O_15 
DOCKED: REMARK   12  A    between atoms: P_13  and  O_16 
DOCKED: REMARK   13  A    between atoms: O_17  and  P_18 
DOCKED: REMARK   14  A    between atoms: P_18  and  O_20 
DOCKED: REMARK   15  A    between atoms: P_18  and  O_21 
DOCKED: REMARK   16  A    between atoms: O_22  and  P_23 
DOCKED: REMARK   17  A    between atoms: P_23  and  O_25 
DOCKED: REMARK   18  A    between atoms: P_23  and  O_26 
DOCKED: REMARK   19  A    between atoms: O_27  and  P_28 
DOCKED: REMARK   20  A    between atoms: P_28  and  O_30 
DOCKED: REMARK   21  A    between atoms: P_28  and  O_31 
DOCKED: REMARK   22  A    between atoms: O_32  and  P_33 
DOCKED: REMARK   23  A    between atoms: P_33  and  O_35 
DOCKED: REMARK   24  A    between atoms: P_33  and  O_36 
DOCKED: USER                              x       y       z     vdW  Elec       q    Type
DOCKED: USER                           _______ _______ _______ _____ _____    ______ ____
DOCKED: ROOT
DOCKED: ATOM      1  C   UNL d   1       8.358  -9.117 -19.543 -0.04 +0.04    +0.194 C 
DOCKED: ATOM      2  C   UNL d   1       8.900  -8.445 -20.806 -0.01 +0.02    +0.194 C 
DOCKED: ATOM      3  C   UNL d   1       8.742  -6.924 -20.750 -0.03 +0.01    +0.194 C 
DOCKED: ATOM      4  C   UNL d   1       9.313  -6.306 -19.477 -0.06 +0.01    +0.194 C 
DOCKED: ATOM      5  C   UNL d   1       8.890  -7.017 -18.198 -0.10 +0.02    +0.194 C 
DOCKED: ATOM      6  C   UNL d   1       8.989  -8.542 -18.275 -0.05 +0.04    +0.194 C 
DOCKED: ENDROOT
DOCKED: BRANCH   1   7
DOCKED: ATOM      7  O   UNL d   1       8.697 -10.505 -19.596 -0.01 -0.07    -0.278 OA
DOCKED: BRANCH   7   8
DOCKED: ATOM      8  P   UNL d   1       7.576 -11.575 -19.208 -0.05 +0.23    +0.473 P 
DOCKED: ATOM      9  O   UNL d   1       6.943 -12.271 -20.361 -0.02 -0.06    -0.228 OA
DOCKED: BRANCH   8  10
DOCKED: ATOM     10  O   UNL d   1       8.320 -12.568 -18.206 -0.03 -0.14    -0.303 OA
DOCKED: ATOM     11  H   UNL d   1       8.732 -12.057 -17.485 +0.01 +0.11    +0.222 HD
DOCKED: ENDBRANCH   8  10
DOCKED: BRANCH   8  12
DOCKED: ATOM     12  O   UNL d   1       6.585 -10.802 -18.236 -0.24 -0.42    -0.303 OA
DOCKED: ATOM     13  H   UNL d   1       7.001 -10.554 -17.379 +0.04 +0.39    +0.222 HD
DOCKED: ENDBRANCH   8  12
DOCKED: ENDBRANCH   7   8
DOCKED: ENDBRANCH   1   7
DOCKED: BRANCH   2  14
DOCKED: ATOM     14  O   UNL d   1      10.293  -8.754 -20.938 -0.00 -0.01    -0.278 OA
DOCKED: BRANCH  14  15
DOCKED: ATOM     15  P   UNL d   1      10.815  -9.089 -22.414 +0.00 +0.01    +0.473 P 
DOCKED: ATOM     16  O   UNL d   1      11.187 -10.512 -22.689 +0.00 -0.00    -0.228 OA
DOCKED: BRANCH  15  17
DOCKED: ATOM     17  O   UNL d   1       9.653  -8.559 -23.366 +0.00 -0.00    -0.303 OA
DOCKED: ATOM     18  H   UNL d   1       9.712  -7.592 -23.488 +0.00 +0.00    +0.222 HD
DOCKED: ENDBRANCH  15  17
DOCKED: BRANCH  15  19
DOCKED: ATOM     19  O   UNL d   1      11.960  -8.017 -22.682 +0.00 -0.00    -0.303 OA
DOCKED: ATOM     20  H   UNL d   1      11.700  -7.128 -22.378 +0.00 +0.00    +0.222 HD
DOCKED: ENDBRANCH  15  19
DOCKED: ENDBRANCH  14  15
DOCKED: ENDBRANCH   2  14
DOCKED: BRANCH   6  21
DOCKED: ATOM     21  O   UNL d   1       8.253  -9.059 -17.169 -0.09 -0.14    -0.278 OA
DOCKED: BRANCH  21  22
DOCKED: ATOM     22  P   UNL d   1       8.950 -10.080 -16.161 -0.05 +0.23    +0.473 P 
DOCKED: ATOM     23  O   UNL d   1       8.124 -11.184 -15.591 -0.32 -0.28    -0.228 OA
DOCKED: BRANCH  22  24
DOCKED: ATOM     24  O   UNL d   1      10.213 -10.559 -17.004 -0.01 -0.06    -0.303 OA
DOCKED: ATOM     25  H   UNL d   1       9.884 -11.041 -17.805 +0.01 +0.05    +0.222 HD
DOCKED: ENDBRANCH  22  24
DOCKED: BRANCH  22  26
DOCKED: ATOM     26  O   UNL d   1       9.620  -9.083 -15.099 -0.05 -0.06    -0.303 OA
DOCKED: ATOM     27  H   UNL d   1       9.784  -8.219 -15.529 +0.05 +0.03    +0.222 HD
DOCKED: ENDBRANCH  22  26
DOCKED: ENDBRANCH  21  22
DOCKED: ENDBRANCH   6  21
DOCKED: BRANCH   3  28
DOCKED: ATOM     28  O   UNL d   1       9.510  -6.374 -21.813 -0.01 -0.00    -0.278 OA
DOCKED: BRANCH  28  29
DOCKED: ATOM     29  P   UNL d   1      10.752  -5.426 -21.502 +0.01 -0.00    +0.473 P 
DOCKED: ATOM     30  O   UNL d   1      10.416  -4.099 -20.925 -0.02 +0.00    -0.228 OA
DOCKED: BRANCH  29  31
DOCKED: ATOM     31  O   UNL d   1      11.634  -6.409 -20.599 -0.00 -0.00    -0.303 OA
DOCKED: ATOM     32  H   UNL d   1      11.297  -7.327 -20.712 +0.01 +0.00    +0.222 HD
DOCKED: ENDBRANCH  29  31
DOCKED: BRANCH  29  33
DOCKED: ATOM     33  O   UNL d   1      11.531  -5.430 -22.891 +0.00 +0.00    -0.303 OA
DOCKED: ATOM     34  H   UNL d   1      11.164  -6.148 -23.463 +0.00 -0.00    +0.222 HD
DOCKED: ENDBRANCH  29  33
DOCKED: ENDBRANCH  28  29
DOCKED: ENDBRANCH   3  28
DOCKED: BRANCH   5  35
DOCKED: ATOM     35  O   UNL d   1       9.806  -6.586 -17.194 -0.07 -0.01    -0.278 OA
DOCKED: BRANCH  35  36
DOCKED: ATOM     36  P   UNL d   1      11.341  -7.015 -17.268 -0.01 +0.01    +0.473 P 
DOCKED: ATOM     37  O   UNL d   1      11.756  -7.710 -18.525 -0.00 -0.01    -0.228 OA
DOCKED: BRANCH  36  38
DOCKED: ATOM     38  O   UNL d   1      12.079  -5.627 -17.013 -0.02 -0.00    -0.303 OA
DOCKED: ATOM     39  H   UNL d   1      12.284  -5.209 -17.877 +0.01 -0.00    +0.222 HD
DOCKED: ENDBRANCH  36  38
DOCKED: BRANCH  36  40
DOCKED: ATOM     40  O   UNL d   1      11.538  -7.810 -15.904 -0.01 -0.01    -0.303 OA
DOCKED: ATOM     41  H   UNL d   1      11.250  -8.746 -15.984 +0.02 +0.01    +0.222 HD
DOCKED: ENDBRANCH  36  40
DOCKED: ENDBRANCH  35  36
DOCKED: ENDBRANCH   5  35
DOCKED: BRANCH   4  42
DOCKED: ATOM     42  O   UNL d   1       8.808  -4.968 -19.402 -0.10 -0.00    -0.278 OA
DOCKED: BRANCH  42  43
DOCKED: ATOM     43  P   UNL d   1       7.235  -4.745 -19.266 -0.16 +0.00    +0.473 P 
DOCKED: ATOM     44  O   UNL d   1       6.511  -5.557 -18.249 -0.39 +0.00    -0.228 OA
DOCKED: BRANCH  43  45
DOCKED: ATOM     45  O   UNL d   1       7.123  -3.173 -19.043 -0.34 +0.02    -0.303 OA
DOCKED: ATOM     46  H   UNL d   1       6.253  -2.925 -18.672 -0.44 -0.05    +0.222 HD
DOCKED: ENDBRANCH  43  45
DOCKED: BRANCH  43  47
DOCKED: ATOM     47  O   UNL d   1       6.711  -4.898 -20.773 -0.14 +0.01    -0.303 OA
DOCKED: ATOM     48  H   UNL d   1       6.691  -4.015 -21.199 -0.50 -0.06    +0.222 HD
DOCKED: ENDBRANCH  43  47
DOCKED: ENDBRANCH  42  43
DOCKED: ENDBRANCH   4  42
DOCKED: TORSDOF 24
DOCKED: TER
DOCKED: ENDMDL
________________________________________________________________________________


	BEGINNING GENETIC ALGORITHM DOCKING 27 of 100
Run: 27 Seed: 467172378 638850757 [ Run 27 of 100 GA/GALS ]
Beginning LAMARCKIAN GENETIC ALGORITHM (LGA), with a maximum of 25000000 energy evaluations.

Final-Value: -16.763


	FINAL GENETIC ALGORITHM DOCKED STATE
	_______________________________________________


Detailed state:  trans 12.051 12.335 17.656 quatxyzw 0.685073 -0.061615 0.704469 -0.174932 center 0.035 0.082 -0.065 ntor 24 95.7112 135.4431 128.8955 51.0015 -16.9885 154.4723 -122.8107 -33.7422 124.8602 -29.5202 177.4248 -62.0812 117.1198 90.9629 -172.8950 -172.4569 177.2282 46.0527 50.0575 -7.1230 168.0843 3.2709 9.8409 179.8397
State:	 12.051  12.335  17.656   0.696 -0.063  0.716 -159.851     95.71  135.44  128.90   51.00  -16.99  154.47 -122.81  -33.74  124.86  -29.52  177.42  -62.08  117.12   90.96 -172.90 -172.46  177.23   46.05   50.06   -7.12  168.08    3.27    9.84  179.84

DOCKED: MODEL       27
DOCKED: USER    Run = 27
DOCKED: USER    DPF = D:/Protein_go_brrr/autodock/final/mut_N102T/IHP/dock.dpf
DOCKED: USER  
DOCKED: USER    Estimated Free Energy of Binding    =   +5.06 kcal/mol  [=(1)+(2)+(3)-(4)]
DOCKED: USER    
DOCKED: USER    (1) Final Intermolecular Energy     =   -2.10 kcal/mol
DOCKED: USER        vdW + Hbond + desolv Energy     =   -1.82 kcal/mol
DOCKED: USER        Electrostatic Energy            =   -0.29 kcal/mol
DOCKED: USER    (2) Final Total Internal Energy     =  -14.66 kcal/mol
DOCKED: USER    (3) Torsional Free Energy           =   +7.16 kcal/mol
DOCKED: USER    (4) Unbound System's Energy  [=(2)] =  -14.66 kcal/mol
DOCKED: USER    
DOCKED: USER    
DOCKED: USER    NEWDPF move IHP_ideal_opt.pdbqt
DOCKED: USER    NEWDPF about 0.035000 0.082000 -0.065000
DOCKED: USER    NEWDPF tran0 12.051340 12.334785 17.656255
DOCKED: USER    NEWDPF quaternion0 0.685073 -0.061615 0.704469 -0.174932
DOCKED: USER    NEWDPF axisangle0 0.695802 -0.062580 0.715502 -159.850567
DOCKED: USER    NEWDPF quat0 0.695802 -0.062580 0.715502 -159.850567
DOCKED: USER    NEWDPF dihe0 95.71 135.44 128.90 51.00 -16.99 154.47 -122.81 -33.74 124.86 -29.52 177.42 -62.08 117.12 90.96 -172.90 -172.46 177.23 46.05 50.06 -7.12 168.08 3.27 9.84 179.84 
DOCKED: USER  keepresnum = 1 
DOCKED: USER  
DOCKED: REMARK  24 active torsions:
DOCKED: REMARK  status: ('A' for Active; 'I' for Inactive)
DOCKED: REMARK    1  A    between atoms: C_1  and  O_7 
DOCKED: REMARK    2  A    between atoms: C_2  and  O_12 
DOCKED: REMARK    3  A    between atoms: C_3  and  O_17 
DOCKED: REMARK    4  A    between atoms: C_4  and  O_22 
DOCKED: REMARK    5  A    between atoms: C_5  and  O_27 
DOCKED: REMARK    6  A    between atoms: C_6  and  O_32 
DOCKED: REMARK    7  A    between atoms: O_7  and  P_8 
DOCKED: REMARK    8  A    between atoms: P_8  and  O_10 
DOCKED: REMARK    9  A    between atoms: P_8  and  O_11 
DOCKED: REMARK   10  A    between atoms: O_12  and  P_13 
DOCKED: REMARK   11  A    between atoms: P_13  and  O_15 
DOCKED: REMARK   12  A    between atoms: P_13  and  O_16 
DOCKED: REMARK   13  A    between atoms: O_17  and  P_18 
DOCKED: REMARK   14  A    between atoms: P_18  and  O_20 
DOCKED: REMARK   15  A    between atoms: P_18  and  O_21 
DOCKED: REMARK   16  A    between atoms: O_22  and  P_23 
DOCKED: REMARK   17  A    between atoms: P_23  and  O_25 
DOCKED: REMARK   18  A    between atoms: P_23  and  O_26 
DOCKED: REMARK   19  A    between atoms: O_27  and  P_28 
DOCKED: REMARK   20  A    between atoms: P_28  and  O_30 
DOCKED: REMARK   21  A    between atoms: P_28  and  O_31 
DOCKED: REMARK   22  A    between atoms: O_32  and  P_33 
DOCKED: REMARK   23  A    between atoms: P_33  and  O_35 
DOCKED: REMARK   24  A    between atoms: P_33  and  O_36 
DOCKED: USER                              x       y       z     vdW  Elec       q    Type
DOCKED: USER                           _______ _______ _______ _____ _____    ______ ____
DOCKED: ROOT
DOCKED: ATOM      1  C   UNL d   1      13.091  13.106  18.799 +0.00 +0.01    +0.194 C 
DOCKED: ATOM      2  C   UNL d   1      13.009  13.773  17.425 -0.00 +0.01    +0.194 C 
DOCKED: ATOM      3  C   UNL d   1      13.053  12.745  16.293 -0.03 +0.02    +0.194 C 
DOCKED: ATOM      4  C   UNL d   1      12.025  11.628  16.455 -0.08 +0.03    +0.194 C 
DOCKED: ATOM      5  C   UNL d   1      11.993  11.011  17.847 -0.05 +0.04    +0.194 C 
DOCKED: ATOM      6  C   UNL d   1      12.011  12.039  18.981 -0.01 +0.02    +0.194 C 
DOCKED: ENDROOT
DOCKED: BRANCH   1   7
DOCKED: ATOM      7  O   UNL d   1      12.872  14.108  19.795 +0.00 -0.00    -0.278 OA
DOCKED: BRANCH   7   8
DOCKED: ATOM      8  P   UNL d   1      14.026  15.179  20.062 +0.00 -0.00    +0.473 P 
DOCKED: ATOM      9  O   UNL d   1      13.631  16.335  20.913 +0.00 +0.01    -0.228 OA
DOCKED: BRANCH   8  10
DOCKED: ATOM     10  O   UNL d   1      15.216  14.318  20.686 +0.00 -0.00    -0.303 OA
DOCKED: ATOM     11  H   UNL d   1      14.924  13.920  21.527 +0.00 +0.00    +0.222 HD
DOCKED: ENDBRANCH   8  10
DOCKED: BRANCH   8  12
DOCKED: ATOM     12  O   UNL d   1      14.596  15.540  18.624 +0.00 +0.00    -0.303 OA
DOCKED: ATOM     13  H   UNL d   1      14.132  16.300  18.205 +0.00 -0.00    +0.222 HD
DOCKED: ENDBRANCH   8  12
DOCKED: ENDBRANCH   7   8
DOCKED: ENDBRANCH   1   7
DOCKED: BRANCH   2  14
DOCKED: ATOM     14  O   UNL d   1      11.779  14.503  17.333 -0.00 +0.00    -0.278 OA
DOCKED: BRANCH  14  15
DOCKED: ATOM     15  P   UNL d   1      11.894  16.057  16.968 +0.01 -0.03    +0.473 P 
DOCKED: ATOM     16  O   UNL d   1      10.789  16.638  16.142 -0.01 +0.02    -0.228 OA
DOCKED: BRANCH  15  17
DOCKED: ATOM     17  O   UNL d   1      12.052  16.776  18.381 +0.00 +0.02    -0.303 OA
DOCKED: ATOM     18  H   UNL d   1      12.544  16.213  19.009 +0.00 -0.01    +0.222 HD
DOCKED: ENDBRANCH  15  17
DOCKED: BRANCH  15  19
DOCKED: ATOM     19  O   UNL d   1      13.357  16.216  16.364 -0.00 +0.01    -0.303 OA
DOCKED: ATOM     20  H   UNL d   1      13.883  15.402  16.475 +0.00 +0.00    +0.222 HD
DOCKED: ENDBRANCH  15  19
DOCKED: ENDBRANCH  14  15
DOCKED: ENDBRANCH   2  14
DOCKED: BRANCH   6  21
DOCKED: ATOM     21  O   UNL d   1      12.322  11.328  20.177 -0.00 -0.03    -0.278 OA
DOCKED: BRANCH  21  22
DOCKED: ATOM     22  P   UNL d   1      13.756  10.648  20.343 +0.01 +0.07    +0.473 P 
DOCKED: ATOM     23  O   UNL d   1      13.834   9.331  21.040 -0.00 -0.04    -0.228 OA
DOCKED: BRANCH  22  24
DOCKED: ATOM     24  O   UNL d   1      14.290  10.642  18.844 -0.00 -0.05    -0.303 OA
DOCKED: ATOM     25  H   UNL d   1      13.913   9.849  18.385 +0.02 +0.07    +0.222 HD
DOCKED: ENDBRANCH  22  24
DOCKED: BRANCH  22  26
DOCKED: ATOM     26  O   UNL d   1      14.608  11.839  20.994 +0.00 -0.02    -0.303 OA
DOCKED: ATOM     27  H   UNL d   1      14.156  12.690  20.822 +0.00 +0.01    +0.222 HD
DOCKED: ENDBRANCH  22  26
DOCKED: ENDBRANCH  21  22
DOCKED: ENDBRANCH   6  21
DOCKED: BRANCH   3  28
DOCKED: ATOM     28  O   UNL d   1      12.695  13.416  15.091 -0.06 -0.02    -0.278 OA
DOCKED: BRANCH  28  29
DOCKED: ATOM     29  P   UNL d   1      13.763  13.597  13.923 -0.04 +0.05    +0.473 P 
DOCKED: ATOM     30  O   UNL d   1      13.200  13.912  12.585 -0.12 -0.03    -0.228 OA
DOCKED: BRANCH  29  31
DOCKED: ATOM     31  O   UNL d   1      14.719  14.696  14.586 -0.02 -0.01    -0.303 OA
DOCKED: ATOM     32  H   UNL d   1      14.239  15.556  14.610 +0.01 +0.00    +0.222 HD
DOCKED: ENDBRANCH  29  31
DOCKED: BRANCH  29  33
DOCKED: ATOM     33  O   UNL d   1      14.622  12.262  14.046 -0.07 -0.04    -0.303 OA
DOCKED: ATOM     34  H   UNL d   1      14.067  11.560  14.464 +0.05 +0.04    +0.222 HD
DOCKED: ENDBRANCH  29  33
DOCKED: ENDBRANCH  28  29
DOCKED: ENDBRANCH   3  28
DOCKED: BRANCH   5  35
DOCKED: ATOM     35  O   UNL d   1      10.752  10.314  17.933 -0.13 -0.09    -0.278 OA
DOCKED: BRANCH  35  36
DOCKED: ATOM     36  P   UNL d   1      10.674   8.896  18.660 -0.14 +0.32    +0.473 P 
DOCKED: ATOM     37  O   UNL d   1       9.829   7.867  17.978 -0.69 -0.31    -0.228 OA
DOCKED: BRANCH  36  38
DOCKED: ATOM     38  O   UNL d   1      12.213   8.506  18.779 -0.09 -0.25    -0.303 OA
DOCKED: ATOM     39  H   UNL d   1      12.693   9.229  19.237 +0.03 +0.10    +0.222 HD
DOCKED: ENDBRANCH  36  38
DOCKED: BRANCH  36  40
DOCKED: ATOM     40  O   UNL d   1      10.265   9.297  20.144 -0.07 -0.09    -0.303 OA
DOCKED: ATOM     41  H   UNL d   1      11.004   9.737  20.619 +0.04 +0.05    +0.222 HD
DOCKED: ENDBRANCH  36  40
DOCKED: ENDBRANCH  35  36
DOCKED: ENDBRANCH   5  35
DOCKED: BRANCH   4  42
DOCKED: ATOM     42  O   UNL d   1      12.394  10.589  15.542 -0.13 -0.08    -0.278 OA
DOCKED: BRANCH  42  43
DOCKED: ATOM     43  P   UNL d   1      13.728   9.759  15.818 -0.08 +0.18    +0.473 P 
DOCKED: ATOM     44  O   UNL d   1      13.605   8.507  16.616 -0.08 -0.18    -0.228 OA
DOCKED: BRANCH  43  45
DOCKED: ATOM     45  O   UNL d   1      14.314   9.542  14.354 -0.13 -0.10    -0.303 OA
DOCKED: ATOM     46  H   UNL d   1      15.074  10.132  14.182 +0.05 +0.05    +0.222 HD
DOCKED: ENDBRANCH  43  45
DOCKED: BRANCH  43  47
DOCKED: ATOM     47  O   UNL d   1      14.730  10.861  16.410 -0.02 -0.06    -0.303 OA
DOCKED: ATOM     48  H   UNL d   1      14.966  10.621  17.331 +0.02 +0.04    +0.222 HD
DOCKED: ENDBRANCH  43  47
DOCKED: ENDBRANCH  42  43
DOCKED: ENDBRANCH   4  42
DOCKED: TORSDOF 24
DOCKED: TER
DOCKED: ENDMDL
________________________________________________________________________________


	BEGINNING GENETIC ALGORITHM DOCKING 28 of 100
Run: 28 Seed: 200707217 1357974651 [ Run 28 of 100 GA/GALS ]
Beginning LAMARCKIAN GENETIC ALGORITHM (LGA), with a maximum of 25000000 energy evaluations.

Final-Value: -17.256


	FINAL GENETIC ALGORITHM DOCKED STATE
	_______________________________________________


Detailed state:  trans 15.341 5.561 -9.463 quatxyzw 0.495102 -0.467374 -0.372249 -0.630766 center 0.035 0.082 -0.065 ntor 24 -158.8245 1.2575 -179.9519 -29.7727 117.4642 140.9963 -105.0568 -52.8135 20.8507 -152.8672 154.6708 179.8290 109.8926 -180.0000 -99.2579 -131.4702 -79.3909 -139.7241 0.1547 13.5456 148.0037 -2.7538 176.2442 7.2865
State:	 15.341   5.561  -9.463   0.638 -0.602 -0.480 -101.787   -158.82    1.26 -179.95  -29.77  117.46  141.00 -105.06  -52.81   20.85 -152.87  154.67  179.83  109.89 -180.00  -99.26 -131.47  -79.39 -139.72    0.15   13.55  148.00   -2.75  176.24    7.29

DOCKED: MODEL       28
DOCKED: USER    Run = 28
DOCKED: USER    DPF = D:/Protein_go_brrr/autodock/final/mut_N102T/IHP/dock.dpf
DOCKED: USER  
DOCKED: USER    Estimated Free Energy of Binding    =   +3.94 kcal/mol  [=(1)+(2)+(3)-(4)]
DOCKED: USER    
DOCKED: USER    (1) Final Intermolecular Energy     =   -3.22 kcal/mol
DOCKED: USER        vdW + Hbond + desolv Energy     =   -3.10 kcal/mol
DOCKED: USER        Electrostatic Energy            =   -0.12 kcal/mol
DOCKED: USER    (2) Final Total Internal Energy     =  -14.04 kcal/mol
DOCKED: USER    (3) Torsional Free Energy           =   +7.16 kcal/mol
DOCKED: USER    (4) Unbound System's Energy  [=(2)] =  -14.04 kcal/mol
DOCKED: USER    
DOCKED: USER    
DOCKED: USER    NEWDPF move IHP_ideal_opt.pdbqt
DOCKED: USER    NEWDPF about 0.035000 0.082000 -0.065000
DOCKED: USER    NEWDPF tran0 15.340939 5.560828 -9.462679
DOCKED: USER    NEWDPF quaternion0 0.495102 -0.467374 -0.372249 -0.630766
DOCKED: USER    NEWDPF axisangle0 0.638041 -0.602307 -0.479719 -101.786624
DOCKED: USER    NEWDPF quat0 0.638041 -0.602307 -0.479719 -101.786624
DOCKED: USER    NEWDPF dihe0 -158.82 1.26 -179.95 -29.77 117.46 141.00 -105.06 -52.81 20.85 -152.87 154.67 179.83 109.89 -180.00 -99.26 -131.47 -79.39 -139.72 0.15 13.55 148.00 -2.75 176.24 7.29 
DOCKED: USER  keepresnum = 1 
DOCKED: USER  
DOCKED: REMARK  24 active torsions:
DOCKED: REMARK  status: ('A' for Active; 'I' for Inactive)
DOCKED: REMARK    1  A    between atoms: C_1  and  O_7 
DOCKED: REMARK    2  A    between atoms: C_2  and  O_12 
DOCKED: REMARK    3  A    between atoms: C_3  and  O_17 
DOCKED: REMARK    4  A    between atoms: C_4  and  O_22 
DOCKED: REMARK    5  A    between atoms: C_5  and  O_27 
DOCKED: REMARK    6  A    between atoms: C_6  and  O_32 
DOCKED: REMARK    7  A    between atoms: O_7  and  P_8 
DOCKED: REMARK    8  A    between atoms: P_8  and  O_10 
DOCKED: REMARK    9  A    between atoms: P_8  and  O_11 
DOCKED: REMARK   10  A    between atoms: O_12  and  P_13 
DOCKED: REMARK   11  A    between atoms: P_13  and  O_15 
DOCKED: REMARK   12  A    between atoms: P_13  and  O_16 
DOCKED: REMARK   13  A    between atoms: O_17  and  P_18 
DOCKED: REMARK   14  A    between atoms: P_18  and  O_20 
DOCKED: REMARK   15  A    between atoms: P_18  and  O_21 
DOCKED: REMARK   16  A    between atoms: O_22  and  P_23 
DOCKED: REMARK   17  A    between atoms: P_23  and  O_25 
DOCKED: REMARK   18  A    between atoms: P_23  and  O_26 
DOCKED: REMARK   19  A    between atoms: O_27  and  P_28 
DOCKED: REMARK   20  A    between atoms: P_28  and  O_30 
DOCKED: REMARK   21  A    between atoms: P_28  and  O_31 
DOCKED: REMARK   22  A    between atoms: O_32  and  P_33 
DOCKED: REMARK   23  A    between atoms: P_33  and  O_35 
DOCKED: REMARK   24  A    between atoms: P_33  and  O_36 
DOCKED: USER                              x       y       z     vdW  Elec       q    Type
DOCKED: USER                           _______ _______ _______ _____ _____    ______ ____
DOCKED: ROOT
DOCKED: ATOM      1  C   UNL d   1      14.935   3.967  -9.992 -0.10 -0.04    +0.194 C 
DOCKED: ATOM      2  C   UNL d   1      14.926   5.046 -11.076 -0.11 -0.04    +0.194 C 
DOCKED: ATOM      3  C   UNL d   1      14.262   6.335 -10.588 -0.18 -0.04    +0.194 C 
DOCKED: ATOM      4  C   UNL d   1      14.837   6.846  -9.270 -0.13 -0.03    +0.194 C 
DOCKED: ATOM      5  C   UNL d   1      14.971   5.776  -8.194 -0.15 -0.03    +0.194 C 
DOCKED: ATOM      6  C   UNL d   1      15.580   4.465  -8.697 -0.05 -0.03    +0.194 C 
DOCKED: ENDROOT
DOCKED: BRANCH   1   7
DOCKED: ATOM      7  O   UNL d   1      15.719   2.868 -10.462 -0.02 +0.04    -0.278 OA
DOCKED: BRANCH   7   8
DOCKED: ATOM      8  P   UNL d   1      15.033   1.428 -10.546 -0.02 -0.07    +0.473 P 
DOCKED: ATOM      9  O   UNL d   1      15.730   0.447 -11.421 -0.01 +0.02    -0.228 OA
DOCKED: BRANCH   8  10
DOCKED: ATOM     10  O   UNL d   1      14.937   0.956  -9.025 -0.01 +0.04    -0.303 OA
DOCKED: ATOM     11  H   UNL d   1      14.635   1.699  -8.471 +0.06 -0.03    +0.222 HD
DOCKED: ENDBRANCH   8  10
DOCKED: BRANCH   8  12
DOCKED: ATOM     12  O   UNL d   1      13.511   1.715 -10.901 -0.14 +0.07    -0.303 OA
DOCKED: ATOM     13  H   UNL d   1      13.126   2.455 -10.379 +0.08 -0.07    +0.222 HD
DOCKED: ENDBRANCH   8  12
DOCKED: ENDBRANCH   7   8
DOCKED: ENDBRANCH   1   7
DOCKED: BRANCH   2  14
DOCKED: ATOM     14  O   UNL d   1      16.278   5.343 -11.451 -0.02 +0.04    -0.278 OA
DOCKED: BRANCH  14  15
DOCKED: ATOM     15  P   UNL d   1      16.531   5.703 -12.990 -0.01 -0.05    +0.473 P 
DOCKED: ATOM     16  O   UNL d   1      17.548   4.879 -13.715 -0.01 +0.02    -0.228 OA
DOCKED: BRANCH  15  17
DOCKED: ATOM     17  O   UNL d   1      15.084   5.618 -13.651 -0.06 +0.05    -0.303 OA
DOCKED: ATOM     18  H   UNL d   1      14.594   6.455 -13.533 +0.04 -0.04    +0.222 HD
DOCKED: ENDBRANCH  15  17
DOCKED: BRANCH  15  19
DOCKED: ATOM     19  O   UNL d   1      16.792   7.272 -12.993 -0.00 +0.03    -0.303 OA
DOCKED: ATOM     20  H   UNL d   1      15.963   7.775 -13.097 +0.02 -0.02    +0.222 HD
DOCKED: ENDBRANCH  15  19
DOCKED: ENDBRANCH  14  15
DOCKED: ENDBRANCH   2  14
DOCKED: BRANCH   6  21
DOCKED: ATOM     21  O   UNL d   1      15.324   3.482  -7.697 -0.04 +0.04    -0.278 OA
DOCKED: BRANCH  21  22
DOCKED: ATOM     22  P   UNL d   1      13.871   3.373  -7.047 -0.14 -0.08    +0.473 P 
DOCKED: ATOM     23  O   UNL d   1      13.412   4.479  -6.158 -0.86 -0.01    -0.228 OA
DOCKED: BRANCH  22  24
DOCKED: ATOM     24  O   UNL d   1      12.960   3.123  -8.328 -0.20 +0.11    -0.303 OA
DOCKED: ATOM     25  H   UNL d   1      13.349   2.371  -8.841 +0.09 -0.06    +0.222 HD
DOCKED: ENDBRANCH  22  24
DOCKED: BRANCH  22  26
DOCKED: ATOM     26  O   UNL d   1      13.920   1.913  -6.386 -0.11 +0.04    -0.303 OA
DOCKED: ATOM     27  H   UNL d   1      14.478   1.328  -6.937 +0.07 -0.03    +0.222 HD
DOCKED: ENDBRANCH  22  26
DOCKED: ENDBRANCH  21  22
DOCKED: ENDBRANCH   6  21
DOCKED: BRANCH   3  28
DOCKED: ATOM     28  O   UNL d   1      14.544   7.350 -11.543 -0.06 +0.05    -0.278 OA
DOCKED: BRANCH  28  29
DOCKED: ATOM     29  P   UNL d   1      13.397   7.889 -12.507 -0.13 -0.08    +0.473 P 
DOCKED: ATOM     30  O   UNL d   1      13.864   8.525 -13.765 -0.06 +0.02    -0.228 OA
DOCKED: BRANCH  29  31
DOCKED: ATOM     31  O   UNL d   1      12.507   6.567 -12.649 +0.15 +0.07    -0.303 OA
DOCKED: ATOM     32  H   UNL d   1      13.089   5.827 -12.940 -0.46 -0.09    +0.222 HD
DOCKED: ENDBRANCH  29  31
DOCKED: BRANCH  29  33
DOCKED: ATOM     33  O   UNL d   1      12.530   8.792 -11.523 -0.15 +0.08    -0.303 OA
DOCKED: ATOM     34  H   UNL d   1      12.989   8.847 -10.649 +0.06 -0.05    +0.222 HD
DOCKED: ENDBRANCH  29  33
DOCKED: ENDBRANCH  28  29
DOCKED: ENDBRANCH   3  28
DOCKED: BRANCH   5  35
DOCKED: ATOM     35  O   UNL d   1      15.870   6.311  -7.225 -0.06 +0.04    -0.278 OA
DOCKED: BRANCH  35  36
DOCKED: ATOM     36  P   UNL d   1      17.299   6.862  -7.672 +0.02 -0.05    +0.473 P 
DOCKED: ATOM     37  O   UNL d   1      17.953   6.124  -8.796 -0.00 +0.02    -0.228 OA
DOCKED: BRANCH  36  38
DOCKED: ATOM     38  O   UNL d   1      16.975   8.388  -7.992 -0.01 +0.04    -0.303 OA
DOCKED: ATOM     39  H   UNL d   1      16.187   8.433  -8.576 +0.03 -0.03    +0.222 HD
DOCKED: ENDBRANCH  36  38
DOCKED: BRANCH  36  40
DOCKED: ATOM     40  O   UNL d   1      18.087   6.920  -6.291 +0.00 +0.04    -0.303 OA
DOCKED: ATOM     41  H   UNL d   1      19.055   7.025  -6.428 +0.01 -0.02    +0.222 HD
DOCKED: ENDBRANCH  36  40
DOCKED: ENDBRANCH  35  36
DOCKED: ENDBRANCH   5  35
DOCKED: BRANCH   4  42
DOCKED: ATOM     42  O   UNL d   1      13.924   7.830  -8.773 -0.19 +0.04    -0.278 OA
DOCKED: BRANCH  42  43
DOCKED: ATOM     43  P   UNL d   1      14.304   9.374  -8.909 -0.08 -0.07    +0.473 P 
DOCKED: ATOM     44  O   UNL d   1      14.983  10.019  -7.751 -0.10 +0.04    -0.228 OA
DOCKED: BRANCH  43  45
DOCKED: ATOM     45  O   UNL d   1      15.146   9.408 -10.259 -0.01 +0.04    -0.303 OA
DOCKED: ATOM     46  H   UNL d   1      14.564   9.429 -11.044 +0.04 -0.03    +0.222 HD
DOCKED: ENDBRANCH  43  45
DOCKED: BRANCH  43  47
DOCKED: ATOM     47  O   UNL d   1      12.926  10.051  -9.369 -0.13 +0.06    -0.303 OA
DOCKED: ATOM     48  H   UNL d   1      12.240   9.357  -9.460 +0.07 -0.05    +0.222 HD
DOCKED: ENDBRANCH  43  47
DOCKED: ENDBRANCH  42  43
DOCKED: ENDBRANCH   4  42
DOCKED: TORSDOF 24
DOCKED: TER
DOCKED: ENDMDL
________________________________________________________________________________


	BEGINNING GENETIC ALGORITHM DOCKING 29 of 100
Run: 29 Seed: 1239180776 1818445597 [ Run 29 of 100 GA/GALS ]
Beginning LAMARCKIAN GENETIC ALGORITHM (LGA), with a maximum of 25000000 energy evaluations.

Final-Value: -17.108


	FINAL GENETIC ALGORITHM DOCKED STATE
	_______________________________________________


Detailed state:  trans 13.663 0.328 -5.278 quatxyzw -0.579528 -0.446935 -0.539463 0.416385 center 0.035 0.082 -0.065 ntor 24 146.5546 103.5923 -174.0544 53.9791 58.1483 111.2032 -108.6519 -47.1104 74.9381 108.9616 -0.3345 -65.7735 -54.5519 47.1936 61.8023 -166.7783 -159.5751 20.2317 48.8449 -3.4387 -175.4673 -17.5966 7.8107 -168.8332
State:	 13.663   0.328  -5.278  -0.637 -0.492 -0.593 130.787    146.55  103.59 -174.05   53.98   58.15  111.20 -108.65  -47.11   74.94  108.96   -0.33  -65.77  -54.55   47.19   61.80 -166.78 -159.58   20.23   48.84   -3.44 -175.47  -17.60    7.81 -168.83

DOCKED: MODEL       29
DOCKED: USER    Run = 29
DOCKED: USER    DPF = D:/Protein_go_brrr/autodock/final/mut_N102T/IHP/dock.dpf
DOCKED: USER  
DOCKED: USER    Estimated Free Energy of Binding    =   +2.18 kcal/mol  [=(1)+(2)+(3)-(4)]
DOCKED: USER    
DOCKED: USER    (1) Final Intermolecular Energy     =   -4.98 kcal/mol
DOCKED: USER        vdW + Hbond + desolv Energy     =   -4.82 kcal/mol
DOCKED: USER        Electrostatic Energy            =   -0.17 kcal/mol
DOCKED: USER    (2) Final Total Internal Energy     =  -12.12 kcal/mol
DOCKED: USER    (3) Torsional Free Energy           =   +7.16 kcal/mol
DOCKED: USER    (4) Unbound System's Energy  [=(2)] =  -12.12 kcal/mol
DOCKED: USER    
DOCKED: USER    
DOCKED: USER    NEWDPF move IHP_ideal_opt.pdbqt
DOCKED: USER    NEWDPF about 0.035000 0.082000 -0.065000
DOCKED: USER    NEWDPF tran0 13.662811 0.328417 -5.277748
DOCKED: USER    NEWDPF quaternion0 -0.579528 -0.446935 -0.539463 0.416385
DOCKED: USER    NEWDPF axisangle0 -0.637413 -0.491576 -0.593345 130.786894
DOCKED: USER    NEWDPF quat0 -0.637413 -0.491576 -0.593345 130.786894
DOCKED: USER    NEWDPF dihe0 146.55 103.59 -174.05 53.98 58.15 111.20 -108.65 -47.11 74.94 108.96 -0.33 -65.77 -54.55 47.19 61.80 -166.78 -159.58 20.23 48.84 -3.44 -175.47 -17.60 7.81 -168.83 
DOCKED: USER  keepresnum = 1 
DOCKED: USER  
DOCKED: REMARK  24 active torsions:
DOCKED: REMARK  status: ('A' for Active; 'I' for Inactive)
DOCKED: REMARK    1  A    between atoms: C_1  and  O_7 
DOCKED: REMARK    2  A    between atoms: C_2  and  O_12 
DOCKED: REMARK    3  A    between atoms: C_3  and  O_17 
DOCKED: REMARK    4  A    between atoms: C_4  and  O_22 
DOCKED: REMARK    5  A    between atoms: C_5  and  O_27 
DOCKED: REMARK    6  A    between atoms: C_6  and  O_32 
DOCKED: REMARK    7  A    between atoms: O_7  and  P_8 
DOCKED: REMARK    8  A    between atoms: P_8  and  O_10 
DOCKED: REMARK    9  A    between atoms: P_8  and  O_11 
DOCKED: REMARK   10  A    between atoms: O_12  and  P_13 
DOCKED: REMARK   11  A    between atoms: P_13  and  O_15 
DOCKED: REMARK   12  A    between atoms: P_13  and  O_16 
DOCKED: REMARK   13  A    between atoms: O_17  and  P_18 
DOCKED: REMARK   14  A    between atoms: P_18  and  O_20 
DOCKED: REMARK   15  A    between atoms: P_18  and  O_21 
DOCKED: REMARK   16  A    between atoms: O_22  and  P_23 
DOCKED: REMARK   17  A    between atoms: P_23  and  O_25 
DOCKED: REMARK   18  A    between atoms: P_23  and  O_26 
DOCKED: REMARK   19  A    between atoms: O_27  and  P_28 
DOCKED: REMARK   20  A    between atoms: P_28  and  O_30 
DOCKED: REMARK   21  A    between atoms: P_28  and  O_31 
DOCKED: REMARK   22  A    between atoms: O_32  and  P_33 
DOCKED: REMARK   23  A    between atoms: P_33  and  O_35 
DOCKED: REMARK   24  A    between atoms: P_33  and  O_36 
DOCKED: USER                              x       y       z     vdW  Elec       q    Type
DOCKED: USER                           _______ _______ _______ _____ _____    ______ ____
DOCKED: ROOT
DOCKED: ATOM      1  C   UNL d   1      14.414   1.765  -5.874 -0.12 -0.02    +0.194 C 
DOCKED: ATOM      2  C   UNL d   1      13.967   0.762  -6.939 -0.10 -0.02    +0.194 C 
DOCKED: ATOM      3  C   UNL d   1      14.312  -0.675  -6.544 -0.07 -0.02    +0.194 C 
DOCKED: ATOM      4  C   UNL d   1      13.813  -1.052  -5.151 -0.14 -0.02    +0.194 C 
DOCKED: ATOM      5  C   UNL d   1      14.136  -0.022  -4.076 -0.14 -0.02    +0.194 C 
DOCKED: ATOM      6  C   UNL d   1      13.849   1.422  -4.495 +0.06 -0.02    +0.194 C 
DOCKED: ENDROOT
DOCKED: BRANCH   1   7
DOCKED: ATOM      7  O   UNL d   1      13.907   3.053  -6.233 -0.28 +0.03    -0.278 OA
DOCKED: BRANCH   7   8
DOCKED: ATOM      8  P   UNL d   1      14.594   3.828  -7.449 -0.11 -0.08    +0.473 P 
DOCKED: ATOM      9  O   UNL d   1      15.766   3.138  -8.054 -0.03 +0.03    -0.228 OA
DOCKED: BRANCH   8  10
DOCKED: ATOM     10  O   UNL d   1      13.401   4.063  -8.481 -0.16 +0.12    -0.303 OA
DOCKED: ATOM     11  H   UNL d   1      12.626   3.537  -8.211 -0.38 -0.13    +0.222 HD
DOCKED: ENDBRANCH   8  10
DOCKED: BRANCH   8  12
DOCKED: ATOM     12  O   UNL d   1      14.859   5.297  -6.905 -0.16 +0.05    -0.303 OA
DOCKED: ATOM     13  H   UNL d   1      15.427   5.315  -6.103 +0.08 -0.04    +0.222 HD
DOCKED: ENDBRANCH   8  12
DOCKED: ENDBRANCH   7   8
DOCKED: ENDBRANCH   1   7
DOCKED: BRANCH   2  14
DOCKED: ATOM     14  O   UNL d   1      12.548   0.862  -7.108 -0.09 +0.03    -0.278 OA
DOCKED: BRANCH  14  15
DOCKED: ATOM     15  P   UNL d   1      12.018   1.058  -8.606 -0.24 -0.11    +0.473 P 
DOCKED: ATOM     16  O   UNL d   1      11.445  -0.150  -9.280 -0.26 +0.05    -0.228 OA
DOCKED: BRANCH  15  17
DOCKED: ATOM     17  O   UNL d   1      10.973   2.255  -8.494 -0.43 +0.14    -0.303 OA
DOCKED: ATOM     18  H   UNL d   1      11.411   3.117  -8.631 -0.45 -0.18    +0.222 HD
DOCKED: ENDBRANCH  15  17
DOCKED: BRANCH  15  19
DOCKED: ATOM     19  O   UNL d   1      13.227   1.758  -9.367 -0.13 +0.07    -0.303 OA
DOCKED: ATOM     20  H   UNL d   1      13.952   1.987  -8.757 +0.08 -0.04    +0.222 HD
DOCKED: ENDBRANCH  15  19
DOCKED: ENDBRANCH  14  15
DOCKED: ENDBRANCH   2  14
DOCKED: BRANCH   6  21
DOCKED: ATOM     21  O   UNL d   1      14.509   2.263  -3.551 -0.22 +0.06    -0.278 OA
DOCKED: BRANCH  21  22
DOCKED: ATOM     22  P   UNL d   1      16.064   2.575  -3.720 -0.10 -0.05    +0.473 P 
DOCKED: ATOM     23  O   UNL d   1      16.460   3.788  -4.491 -0.09 +0.04    -0.228 OA
DOCKED: BRANCH  22  24
DOCKED: ATOM     24  O   UNL d   1      16.566   2.551  -2.209 -0.20 -0.11    -0.303 OA
DOCKED: ATOM     25  H   UNL d   1      15.771   2.485  -1.621 +0.01 +0.08    +0.222 HD
DOCKED: ENDBRANCH  22  24
DOCKED: BRANCH  22  26
DOCKED: ATOM     26  O   UNL d   1      16.618   1.177  -4.275 -0.02 +0.01    -0.303 OA
DOCKED: ATOM     27  H   UNL d   1      16.474   0.483  -3.600 +0.04 -0.00    +0.222 HD
DOCKED: ENDBRANCH  22  26
DOCKED: ENDBRANCH  21  22
DOCKED: ENDBRANCH   6  21
DOCKED: BRANCH   3  28
DOCKED: ATOM     28  O   UNL d   1      13.625  -1.541  -7.438 -0.06 +0.03    -0.278 OA
DOCKED: BRANCH  28  29
DOCKED: ATOM     29  P   UNL d   1      14.342  -2.065  -8.760 +0.01 -0.05    +0.473 P 
DOCKED: ATOM     30  O   UNL d   1      13.657  -3.182  -9.461 -0.03 +0.03    -0.228 OA
DOCKED: BRANCH  29  31
DOCKED: ATOM     31  O   UNL d   1      14.492  -0.688  -9.561 -0.01 +0.03    -0.303 OA
DOCKED: ATOM     32  H   UNL d   1      13.598  -0.288  -9.667 +0.06 -0.03    +0.222 HD
DOCKED: ENDBRANCH  29  31
DOCKED: BRANCH  29  33
DOCKED: ATOM     33  O   UNL d   1      15.825  -2.338  -8.250 +0.00 +0.03    -0.303 OA
DOCKED: ATOM     34  H   UNL d   1      15.837  -2.302  -7.262 +0.02 -0.03    +0.222 HD
DOCKED: ENDBRANCH  29  33
DOCKED: ENDBRANCH  28  29
DOCKED: ENDBRANCH   3  28
DOCKED: BRANCH   5  35
DOCKED: ATOM     35  O   UNL d   1      13.273  -0.321  -2.981 -0.21 +0.02    -0.278 OA
DOCKED: BRANCH  35  36
DOCKED: ATOM     36  P   UNL d   1      13.823  -0.266  -1.485 -0.17 -0.01    +0.473 P 
DOCKED: ATOM     37  O   UNL d   1      13.842  -1.573  -0.756 -0.18 +0.01    -0.228 OA
DOCKED: BRANCH  36  38
DOCKED: ATOM     38  O   UNL d   1      15.259   0.390  -1.689 -0.11 -0.03    -0.303 OA
DOCKED: ATOM     39  H   UNL d   1      15.367   0.641  -2.632 +0.07 +0.00    +0.222 HD
DOCKED: ENDBRANCH  36  38
DOCKED: BRANCH  36  40
DOCKED: ATOM     40  O   UNL d   1      12.955   0.904  -0.846 -0.33 +0.04    -0.303 OA
DOCKED: ATOM     41  H   UNL d   1      12.007   0.655  -0.772 -0.27 -0.09    +0.222 HD
DOCKED: ENDBRANCH  36  40
DOCKED: ENDBRANCH  35  36
DOCKED: ENDBRANCH   5  35
DOCKED: BRANCH   4  42
DOCKED: ATOM     42  O   UNL d   1      14.479  -2.265  -4.786 -0.05 +0.05    -0.278 OA
DOCKED: BRANCH  42  43
DOCKED: ATOM     43  P   UNL d   1      15.975  -2.189  -4.237 +0.02 -0.06    +0.473 P 
DOCKED: ATOM     44  O   UNL d   1      16.192  -1.511  -2.928 -0.02 +0.01    -0.228 OA
DOCKED: BRANCH  43  45
DOCKED: ATOM     45  O   UNL d   1      16.435  -3.712  -4.266 -0.00 +0.06    -0.303 OA
DOCKED: ATOM     46  H   UNL d   1      16.012  -4.227  -3.551 +0.03 -0.06    +0.222 HD
DOCKED: ENDBRANCH  43  45
DOCKED: BRANCH  43  47
DOCKED: ATOM     47  O   UNL d   1      16.789  -1.578  -5.476 -0.00 +0.03    -0.303 OA
DOCKED: ATOM     48  H   UNL d   1      17.113  -0.685  -5.240 +0.01 -0.01    +0.222 HD
DOCKED: ENDBRANCH  43  47
DOCKED: ENDBRANCH  42  43
DOCKED: ENDBRANCH   4  42
DOCKED: TORSDOF 24
DOCKED: TER
DOCKED: ENDMDL
________________________________________________________________________________


	BEGINNING GENETIC ALGORITHM DOCKING 30 of 100
Run: 30 Seed: 1435497415 233222989 [ Run 30 of 100 GA/GALS ]
Beginning LAMARCKIAN GENETIC ALGORITHM (LGA), with a maximum of 25000000 energy evaluations.

Final-Value: -19.680


	FINAL GENETIC ALGORITHM DOCKED STATE
	_______________________________________________


Detailed state:  trans -7.630 -11.045 13.140 quatxyzw -0.780827 0.420705 -0.275232 -0.370895 center 0.035 0.082 -0.065 ntor 24 30.6321 75.4410 136.6163 95.1320 38.8859 -140.5656 -29.0601 -82.5833 -10.4748 89.5834 153.1142 120.1770 -150.0531 115.0748 158.3320 -63.2606 -15.9712 -163.7827 17.2526 -14.4577 -10.2653 -2.6228 -24.3283 13.4833
State:	 -7.630 -11.045  13.140  -0.841  0.453 -0.296 -136.458     30.63   75.44  136.62   95.13   38.89 -140.57  -29.06  -82.58  -10.47   89.58  153.11  120.18 -150.05  115.07  158.33  -63.26  -15.97 -163.78   17.25  -14.46  -10.27   -2.62  -24.33   13.48

DOCKED: MODEL       30
DOCKED: USER    Run = 30
DOCKED: USER    DPF = D:/Protein_go_brrr/autodock/final/mut_N102T/IHP/dock.dpf
DOCKED: USER  
DOCKED: USER    Estimated Free Energy of Binding    =   +1.08 kcal/mol  [=(1)+(2)+(3)-(4)]
DOCKED: USER    
DOCKED: USER    (1) Final Intermolecular Energy     =   -6.08 kcal/mol
DOCKED: USER        vdW + Hbond + desolv Energy     =   -6.00 kcal/mol
DOCKED: USER        Electrostatic Energy            =   -0.08 kcal/mol
DOCKED: USER    (2) Final Total Internal Energy     =  -13.60 kcal/mol
DOCKED: USER    (3) Torsional Free Energy           =   +7.16 kcal/mol
DOCKED: USER    (4) Unbound System's Energy  [=(2)] =  -13.60 kcal/mol
DOCKED: USER    
DOCKED: USER    
DOCKED: USER    NEWDPF move IHP_ideal_opt.pdbqt
DOCKED: USER    NEWDPF about 0.035000 0.082000 -0.065000
DOCKED: USER    NEWDPF tran0 -7.630018 -11.045175 13.140393
DOCKED: USER    NEWDPF quaternion0 -0.780827 0.420705 -0.275232 -0.370895
DOCKED: USER    NEWDPF axisangle0 -0.840797 0.453017 -0.296371 -136.458373
DOCKED: USER    NEWDPF quat0 -0.840797 0.453017 -0.296371 -136.458373
DOCKED: USER    NEWDPF dihe0 30.63 75.44 136.62 95.13 38.89 -140.57 -29.06 -82.58 -10.47 89.58 153.11 120.18 -150.05 115.07 158.33 -63.26 -15.97 -163.78 17.25 -14.46 -10.27 -2.62 -24.33 13.48 
DOCKED: USER  keepresnum = 1 
DOCKED: USER  
DOCKED: REMARK  24 active torsions:
DOCKED: REMARK  status: ('A' for Active; 'I' for Inactive)
DOCKED: REMARK    1  A    between atoms: C_1  and  O_7 
DOCKED: REMARK    2  A    between atoms: C_2  and  O_12 
DOCKED: REMARK    3  A    between atoms: C_3  and  O_17 
DOCKED: REMARK    4  A    between atoms: C_4  and  O_22 
DOCKED: REMARK    5  A    between atoms: C_5  and  O_27 
DOCKED: REMARK    6  A    between atoms: C_6  and  O_32 
DOCKED: REMARK    7  A    between atoms: O_7  and  P_8 
DOCKED: REMARK    8  A    between atoms: P_8  and  O_10 
DOCKED: REMARK    9  A    between atoms: P_8  and  O_11 
DOCKED: REMARK   10  A    between atoms: O_12  and  P_13 
DOCKED: REMARK   11  A    between atoms: P_13  and  O_15 
DOCKED: REMARK   12  A    between atoms: P_13  and  O_16 
DOCKED: REMARK   13  A    between atoms: O_17  and  P_18 
DOCKED: REMARK   14  A    between atoms: P_18  and  O_20 
DOCKED: REMARK   15  A    between atoms: P_18  and  O_21 
DOCKED: REMARK   16  A    between atoms: O_22  and  P_23 
DOCKED: REMARK   17  A    between atoms: P_23  and  O_25 
DOCKED: REMARK   18  A    between atoms: P_23  and  O_26 
DOCKED: REMARK   19  A    between atoms: O_27  and  P_28 
DOCKED: REMARK   20  A    between atoms: P_28  and  O_30 
DOCKED: REMARK   21  A    between atoms: P_28  and  O_31 
DOCKED: REMARK   22  A    between atoms: O_32  and  P_33 
DOCKED: REMARK   23  A    between atoms: P_33  and  O_35 
DOCKED: REMARK   24  A    between atoms: P_33  and  O_36 
DOCKED: USER                              x       y       z     vdW  Elec       q    Type
DOCKED: USER                           _______ _______ _______ _____ _____    ______ ____
DOCKED: ROOT
DOCKED: ATOM      1  C   UNL d   1      -6.021 -11.520  13.554 -0.18 -0.04    +0.194 C 
DOCKED: ATOM      2  C   UNL d   1      -6.548 -10.275  14.271 -0.13 -0.04    +0.194 C 
DOCKED: ATOM      3  C   UNL d   1      -7.297  -9.345  13.314 -0.16 -0.05    +0.194 C 
DOCKED: ATOM      4  C   UNL d   1      -8.387 -10.056  12.515 -0.13 -0.05    +0.194 C 
DOCKED: ATOM      5  C   UNL d   1      -7.936 -11.363  11.877 -0.20 -0.05    +0.194 C 
DOCKED: ATOM      6  C   UNL d   1      -7.133 -12.266  12.816 -0.18 -0.05    +0.194 C 
DOCKED: ENDROOT
DOCKED: BRANCH   1   7
DOCKED: ATOM      7  O   UNL d   1      -5.491 -12.411  14.539 -0.09 +0.07    -0.278 OA
DOCKED: BRANCH   7   8
DOCKED: ATOM      8  P   UNL d   1      -3.905 -12.539  14.671 -0.16 -0.16    +0.473 P 
DOCKED: ATOM      9  O   UNL d   1      -3.306 -13.711  13.976 -0.25 +0.13    -0.228 OA
DOCKED: BRANCH   8  10
DOCKED: ATOM     10  O   UNL d   1      -3.357 -11.141  14.130 -0.84 +0.07    -0.303 OA
DOCKED: ATOM     11  H   UNL d   1      -2.690 -11.298  13.436 -0.40 -0.12    +0.222 HD
DOCKED: ENDBRANCH   8  10
DOCKED: BRANCH   8  12
DOCKED: ATOM     12  O   UNL d   1      -3.610 -12.431  16.229 -0.20 +0.09    -0.303 OA
DOCKED: ATOM     13  H   UNL d   1      -4.343 -12.778  16.785 +0.06 -0.06    +0.222 HD
DOCKED: ENDBRANCH   8  12
DOCKED: ENDBRANCH   7   8
DOCKED: ENDBRANCH   1   7
DOCKED: BRANCH   2  14
DOCKED: ATOM     14  O   UNL d   1      -7.447 -10.680  15.311 -0.02 +0.05    -0.278 OA
DOCKED: BRANCH  14  15
DOCKED: ATOM     15  P   UNL d   1      -7.018 -10.316  16.810 -0.00 -0.07    +0.473 P 
DOCKED: ATOM     16  O   UNL d   1      -8.044 -10.539  17.876 -0.00 +0.03    -0.228 OA
DOCKED: BRANCH  15  17
DOCKED: ATOM     17  O   UNL d   1      -5.688 -11.160  17.048 -0.06 +0.05    -0.303 OA
DOCKED: ATOM     18  H   UNL d   1      -5.115 -11.144  16.258 +0.06 -0.04    +0.222 HD
DOCKED: ENDBRANCH  15  17
DOCKED: BRANCH  15  19
DOCKED: ATOM     19  O   UNL d   1      -6.443  -8.836  16.710 -0.04 +0.04    -0.303 OA
DOCKED: ATOM     20  H   UNL d   1      -6.929  -8.305  16.052 +0.06 -0.03    +0.222 HD
DOCKED: ENDBRANCH  15  19
DOCKED: ENDBRANCH  14  15
DOCKED: ENDBRANCH   2  14
DOCKED: BRANCH   6  21
DOCKED: ATOM     21  O   UNL d   1      -6.505 -13.254  12.001 -0.25 +0.09    -0.278 OA
DOCKED: BRANCH  21  22
DOCKED: ATOM     22  P   UNL d   1      -6.953 -14.780  12.120 -0.09 -0.21    +0.473 P 
DOCKED: ATOM     23  O   UNL d   1      -6.148 -15.809  11.400 -0.27 +0.13    -0.228 OA
DOCKED: BRANCH  22  24
DOCKED: ATOM     24  O   UNL d   1      -7.027 -14.976  13.698 -0.04 +0.09    -0.303 OA
DOCKED: ATOM     25  H   UNL d   1      -6.396 -14.337  14.118 +0.06 -0.06    +0.222 HD
DOCKED: ENDBRANCH  22  24
DOCKED: BRANCH  22  26
DOCKED: ATOM     26  O   UNL d   1      -8.504 -14.696  11.724 -0.10 +0.16    -0.303 OA
DOCKED: ATOM     27  H   UNL d   1      -8.603 -14.132  10.930 -0.46 -0.18    +0.222 HD
DOCKED: ENDBRANCH  22  26
DOCKED: ENDBRANCH  21  22
DOCKED: ENDBRANCH   6  21
DOCKED: BRANCH   3  28
DOCKED: ATOM     28  O   UNL d   1      -7.978  -8.378  14.103 -0.05 +0.06    -0.278 OA
DOCKED: BRANCH  28  29
DOCKED: ATOM     29  P   UNL d   1      -7.472  -6.868  14.138 -0.12 -0.11    +0.473 P 
DOCKED: ATOM     30  O   UNL d   1      -6.462  -6.555  15.182 -0.16 +0.03    -0.228 OA
DOCKED: BRANCH  29  31
DOCKED: ATOM     31  O   UNL d   1      -7.020  -6.689  12.613 -0.20 +0.12    -0.303 OA
DOCKED: ATOM     32  H   UNL d   1      -7.497  -7.355  12.065 +0.10 -0.10    +0.222 HD
DOCKED: ENDBRANCH  29  31
DOCKED: BRANCH  29  33
DOCKED: ATOM     33  O   UNL d   1      -8.841  -6.058  14.197 -0.10 +0.10    -0.303 OA
DOCKED: ATOM     34  H   UNL d   1      -9.564  -6.620  13.823 +0.06 -0.09    +0.222 HD
DOCKED: ENDBRANCH  29  33
DOCKED: ENDBRANCH  28  29
DOCKED: ENDBRANCH   3  28
DOCKED: BRANCH   5  35
DOCKED: ATOM     35  O   UNL d   1      -9.132 -12.064  11.542 -0.12 +0.08    -0.278 OA
DOCKED: BRANCH  35  36
DOCKED: ATOM     36  P   UNL d   1      -9.603 -12.171  10.022 -0.16 -0.16    +0.473 P 
DOCKED: ATOM     37  O   UNL d   1      -8.508 -12.129   9.003 -0.24 +0.08    -0.228 OA
DOCKED: BRANCH  36  38
DOCKED: ATOM     38  O   UNL d   1     -10.435 -13.529  10.033 -0.19 +0.12    -0.303 OA
DOCKED: ATOM     39  H   UNL d   1      -9.813 -14.287   9.981 -0.48 -0.15    +0.222 HD
DOCKED: ENDBRANCH  36  38
DOCKED: BRANCH  36  40
DOCKED: ATOM     40  O   UNL d   1     -10.718 -11.040   9.930 -0.07 +0.07    -0.303 OA
DOCKED: ATOM     41  H   UNL d   1     -10.409 -10.192  10.320 +0.07 -0.06    +0.222 HD
DOCKED: ENDBRANCH  36  40
DOCKED: ENDBRANCH  35  36
DOCKED: ENDBRANCH   5  35
DOCKED: BRANCH   4  42
DOCKED: ATOM     42  O   UNL d   1      -8.761  -9.175  11.450 -0.15 +0.09    -0.278 OA
DOCKED: BRANCH  42  43
DOCKED: ATOM     43  P   UNL d   1     -10.053  -8.255  11.628 -0.08 -0.21    +0.473 P 
DOCKED: ATOM     44  O   UNL d   1     -11.179  -8.462  10.675 -0.06 +0.09    -0.228 OA
DOCKED: BRANCH  43  45
DOCKED: ATOM     45  O   UNL d   1     -10.440  -8.489  13.154 -0.02 +0.08    -0.303 OA
DOCKED: ATOM     46  H   UNL d   1      -9.882  -7.951  13.751 +0.04 -0.06    +0.222 HD
DOCKED: ENDBRANCH  43  45
DOCKED: BRANCH  43  47
DOCKED: ATOM     47  O   UNL d   1      -9.444  -6.773  11.669 -0.16 +0.31    -0.303 OA
DOCKED: ATOM     48  H   UNL d   1      -8.833  -6.696  12.431 +0.08 -0.17    +0.222 HD
DOCKED: ENDBRANCH  43  47
DOCKED: ENDBRANCH  42  43
DOCKED: ENDBRANCH   4  42
DOCKED: TORSDOF 24
DOCKED: TER
DOCKED: ENDMDL
________________________________________________________________________________


	BEGINNING GENETIC ALGORITHM DOCKING 31 of 100
Run: 31 Seed: 338847644 1046599918 [ Run 31 of 100 GA/GALS ]
Beginning LAMARCKIAN GENETIC ALGORITHM (LGA), with a maximum of 25000000 energy evaluations.

Final-Value: -18.913


	FINAL GENETIC ALGORITHM DOCKED STATE
	_______________________________________________


Detailed state:  trans -4.938 14.566 -18.025 quatxyzw 0.512416 -0.422089 -0.615589 -0.424643 center 0.035 0.082 -0.065 ntor 24 -108.5783 14.1147 167.1430 6.7425 7.6198 163.4132 -49.1941 -113.2753 6.3239 43.8601 138.8930 81.0063 -138.2931 75.7042 175.2796 -36.6878 149.8155 -127.6087 23.3693 -35.2536 -21.7740 4.8892 -18.5168 1.1134
State:	 -4.938  14.566 -18.025   0.566 -0.466 -0.680 -129.744   -108.58   14.11  167.14    6.74    7.62  163.41  -49.19 -113.28    6.32   43.86  138.89   81.01 -138.29   75.70  175.28  -36.69  149.82 -127.61   23.37  -35.25  -21.77    4.89  -18.52    1.11

DOCKED: MODEL       31
DOCKED: USER    Run = 31
DOCKED: USER    DPF = D:/Protein_go_brrr/autodock/final/mut_N102T/IHP/dock.dpf
DOCKED: USER  
DOCKED: USER    Estimated Free Energy of Binding    =   +3.64 kcal/mol  [=(1)+(2)+(3)-(4)]
DOCKED: USER    
DOCKED: USER    (1) Final Intermolecular Energy     =   -3.52 kcal/mol
DOCKED: USER        vdW + Hbond + desolv Energy     =   -3.41 kcal/mol
DOCKED: USER        Electrostatic Energy            =   -0.11 kcal/mol
DOCKED: USER    (2) Final Total Internal Energy     =  -15.40 kcal/mol
DOCKED: USER    (3) Torsional Free Energy           =   +7.16 kcal/mol
DOCKED: USER    (4) Unbound System's Energy  [=(2)] =  -15.40 kcal/mol
DOCKED: USER    
DOCKED: USER    
DOCKED: USER    NEWDPF move IHP_ideal_opt.pdbqt
DOCKED: USER    NEWDPF about 0.035000 0.082000 -0.065000
DOCKED: USER    NEWDPF tran0 -4.937684 14.566228 -18.025415
DOCKED: USER    NEWDPF quaternion0 0.512416 -0.422089 -0.615589 -0.424643
DOCKED: USER    NEWDPF axisangle0 0.565980 -0.466210 -0.679937 -129.743900
DOCKED: USER    NEWDPF quat0 0.565980 -0.466210 -0.679937 -129.743900
DOCKED: USER    NEWDPF dihe0 -108.58 14.11 167.14 6.74 7.62 163.41 -49.19 -113.28 6.32 43.86 138.89 81.01 -138.29 75.70 175.28 -36.69 149.82 -127.61 23.37 -35.25 -21.77 4.89 -18.52 1.11 
DOCKED: USER  keepresnum = 1 
DOCKED: USER  
DOCKED: REMARK  24 active torsions:
DOCKED: REMARK  status: ('A' for Active; 'I' for Inactive)
DOCKED: REMARK    1  A    between atoms: C_1  and  O_7 
DOCKED: REMARK    2  A    between atoms: C_2  and  O_12 
DOCKED: REMARK    3  A    between atoms: C_3  and  O_17 
DOCKED: REMARK    4  A    between atoms: C_4  and  O_22 
DOCKED: REMARK    5  A    between atoms: C_5  and  O_27 
DOCKED: REMARK    6  A    between atoms: C_6  and  O_32 
DOCKED: REMARK    7  A    between atoms: O_7  and  P_8 
DOCKED: REMARK    8  A    between atoms: P_8  and  O_10 
DOCKED: REMARK    9  A    between atoms: P_8  and  O_11 
DOCKED: REMARK   10  A    between atoms: O_12  and  P_13 
DOCKED: REMARK   11  A    between atoms: P_13  and  O_15 
DOCKED: REMARK   12  A    between atoms: P_13  and  O_16 
DOCKED: REMARK   13  A    between atoms: O_17  and  P_18 
DOCKED: REMARK   14  A    between atoms: P_18  and  O_20 
DOCKED: REMARK   15  A    between atoms: P_18  and  O_21 
DOCKED: REMARK   16  A    between atoms: O_22  and  P_23 
DOCKED: REMARK   17  A    between atoms: P_23  and  O_25 
DOCKED: REMARK   18  A    between atoms: P_23  and  O_26 
DOCKED: REMARK   19  A    between atoms: O_27  and  P_28 
DOCKED: REMARK   20  A    between atoms: P_28  and  O_30 
DOCKED: REMARK   21  A    between atoms: P_28  and  O_31 
DOCKED: REMARK   22  A    between atoms: O_32  and  P_33 
DOCKED: REMARK   23  A    between atoms: P_33  and  O_35 
DOCKED: REMARK   24  A    between atoms: P_33  and  O_36 
DOCKED: USER                              x       y       z     vdW  Elec       q    Type
DOCKED: USER                           _______ _______ _______ _____ _____    ______ ____
DOCKED: ROOT
DOCKED: ATOM      1  C   UNL d   1      -5.944  13.687 -19.121 -0.09 +0.04    +0.194 C 
DOCKED: ATOM      2  C   UNL d   1      -5.508  15.076 -19.592 -0.10 +0.07    +0.194 C 
DOCKED: ATOM      3  C   UNL d   1      -5.605  16.111 -18.470 -0.09 +0.08    +0.194 C 
DOCKED: ATOM      4  C   UNL d   1      -4.885  15.683 -17.193 -0.11 +0.07    +0.194 C 
DOCKED: ATOM      5  C   UNL d   1      -5.202  14.261 -16.749 -0.14 +0.03    +0.194 C 
DOCKED: ATOM      6  C   UNL d   1      -5.166  13.235 -17.884 -0.17 +0.03    +0.194 C 
DOCKED: ENDROOT
DOCKED: BRANCH   1   7
DOCKED: ATOM      7  O   UNL d   1      -5.662  12.753 -20.166 -0.06 -0.04    -0.278 OA
DOCKED: BRANCH   7   8
DOCKED: ATOM      8  P   UNL d   1      -6.858  12.306 -21.126 -0.01 +0.05    +0.473 P 
DOCKED: ATOM      9  O   UNL d   1      -7.667  11.159 -20.634 -0.04 -0.02    -0.228 OA
DOCKED: BRANCH   8  10
DOCKED: ATOM     10  O   UNL d   1      -7.713  13.638 -21.326 -0.00 -0.03    -0.303 OA
DOCKED: ATOM     11  H   UNL d   1      -7.417  14.099 -22.133 +0.01 +0.03    +0.222 HD
DOCKED: ENDBRANCH   8  10
DOCKED: BRANCH   8  12
DOCKED: ATOM     12  O   UNL d   1      -6.191  12.122 -22.557 -0.01 -0.03    -0.303 OA
DOCKED: ATOM     13  H   UNL d   1      -5.429  12.726 -22.708 +0.02 +0.03    +0.222 HD
DOCKED: ENDBRANCH   8  12
DOCKED: ENDBRANCH   7   8
DOCKED: ENDBRANCH   1   7
DOCKED: BRANCH   2  14
DOCKED: ATOM     14  O   UNL d   1      -4.148  15.013 -20.039 -0.02 -0.19    -0.278 OA
DOCKED: BRANCH  14  15
DOCKED: ATOM     15  P   UNL d   1      -3.920  14.828 -21.613 -0.04 +0.28    +0.473 P 
DOCKED: ATOM     16  O   UNL d   1      -2.944  15.757 -22.265 -0.37 -0.25    -0.228 OA
DOCKED: BRANCH  15  17
DOCKED: ATOM     17  O   UNL d   1      -3.512  13.296 -21.769 -0.11 -0.09    -0.303 OA
DOCKED: ATOM     18  H   UNL d   1      -4.277  12.710 -21.611 +0.04 +0.04    +0.222 HD
DOCKED: ENDBRANCH  15  17
DOCKED: BRANCH  15  19
DOCKED: ATOM     19  O   UNL d   1      -5.386  14.832 -22.230 -0.03 -0.09    -0.303 OA
DOCKED: ATOM     20  H   UNL d   1      -5.964  14.180 -21.791 +0.02 +0.05    +0.222 HD
DOCKED: ENDBRANCH  15  19
DOCKED: ENDBRANCH  14  15
DOCKED: ENDBRANCH   2  14
DOCKED: BRANCH   6  21
DOCKED: ATOM     21  O   UNL d   1      -5.804  12.058 -17.396 -0.10 -0.01    -0.278 OA
DOCKED: BRANCH  21  22
DOCKED: ATOM     22  P   UNL d   1      -5.026  10.665 -17.424 -0.30 -0.01    +0.473 P 
DOCKED: ATOM     23  O   UNL d   1      -5.829   9.410 -17.473 -0.20 -0.03    -0.228 OA
DOCKED: BRANCH  22  24
DOCKED: ATOM     24  O   UNL d   1      -4.035  10.872 -18.652 -0.27 +0.02    -0.303 OA
DOCKED: ATOM     25  H   UNL d   1      -4.579  11.064 -19.458 +0.06 +0.01    +0.222 HD
DOCKED: ENDBRANCH  22  24
DOCKED: BRANCH  22  26
DOCKED: ATOM     26  O   UNL d   1      -4.037  10.820 -16.172 -0.39 +0.09    -0.303 OA
DOCKED: ATOM     27  H   UNL d   1      -4.056  11.747 -15.859 -0.03 -0.05    +0.222 HD
DOCKED: ENDBRANCH  22  26
DOCKED: ENDBRANCH  21  22
DOCKED: ENDBRANCH   6  21
DOCKED: BRANCH   3  28
DOCKED: ATOM     28  O   UNL d   1      -4.930  17.283 -18.909 -0.06 -0.21    -0.278 OA
DOCKED: BRANCH  28  29
DOCKED: ATOM     29  P   UNL d   1      -5.734  18.640 -19.130 -0.04 +0.23    +0.473 P 
DOCKED: ATOM     30  O   UNL d   1      -6.784  18.599 -20.180 -0.01 -0.07    -0.228 OA
DOCKED: BRANCH  29  31
DOCKED: ATOM     31  O   UNL d   1      -6.217  18.925 -17.631 -0.01 -0.08    -0.303 OA
DOCKED: ATOM     32  H   UNL d   1      -5.850  18.224 -17.044 +0.02 +0.06    +0.222 HD
DOCKED: ENDBRANCH  29  31
DOCKED: BRANCH  29  33
DOCKED: ATOM     33  O   UNL d   1      -4.559  19.696 -19.327 -0.15 -0.25    -0.303 OA
DOCKED: ATOM     34  H   UNL d   1      -3.942  19.638 -18.557 +0.01 +0.20    +0.222 HD
DOCKED: ENDBRANCH  29  33
DOCKED: ENDBRANCH  28  29
DOCKED: ENDBRANCH   3  28
DOCKED: BRANCH   5  35
DOCKED: ATOM     35  O   UNL d   1      -4.173  13.905 -15.828 -0.21 -0.03    -0.278 OA
DOCKED: BRANCH  35  36
DOCKED: ATOM     36  P   UNL d   1      -4.513  13.695 -14.284 -0.11 +0.00    +0.473 P 
DOCKED: ATOM     37  O   UNL d   1      -3.334  13.653 -13.364 -0.13 -0.01    -0.228 OA
DOCKED: BRANCH  36  38
DOCKED: ATOM     38  O   UNL d   1      -5.517  14.899 -14.005 -0.03 -0.01    -0.303 OA
DOCKED: ATOM     39  H   UNL d   1      -5.043  15.749 -14.132 +0.04 +0.02    +0.222 HD
DOCKED: ENDBRANCH  36  38
DOCKED: BRANCH  36  40
DOCKED: ATOM     40  O   UNL d   1      -5.452  12.412 -14.314 -0.09 +0.02    -0.303 OA
DOCKED: ATOM     41  H   UNL d   1      -5.557  12.059 -15.225 +0.09 -0.02    +0.222 HD
DOCKED: ENDBRANCH  36  40
DOCKED: ENDBRANCH  35  36
DOCKED: ENDBRANCH   5  35
DOCKED: BRANCH   4  42
DOCKED: ATOM     42  O   UNL d   1      -5.332  16.559 -16.152 -0.05 -0.06    -0.278 OA
DOCKED: BRANCH  42  43
DOCKED: ATOM     43  P   UNL d   1      -4.311  17.630 -15.555 -0.04 +0.12    +0.473 P 
DOCKED: ATOM     44  O   UNL d   1      -3.352  17.160 -14.517 -0.06 -0.04    -0.228 OA
DOCKED: BRANCH  43  45
DOCKED: ATOM     45  O   UNL d   1      -3.620  18.219 -16.861 -0.08 -0.18    -0.303 OA
DOCKED: ATOM     46  H   UNL d   1      -4.259  18.712 -17.414 +0.02 +0.13    +0.222 HD
DOCKED: ENDBRANCH  43  45
DOCKED: BRANCH  43  47
DOCKED: ATOM     47  O   UNL d   1      -5.266  18.841 -15.117 -0.01 -0.05    -0.303 OA
DOCKED: ATOM     48  H   UNL d   1      -5.237  19.539 -15.804 +0.01 +0.04    +0.222 HD
DOCKED: ENDBRANCH  43  47
DOCKED: ENDBRANCH  42  43
DOCKED: ENDBRANCH   4  42
DOCKED: TORSDOF 24
DOCKED: TER
DOCKED: ENDMDL
________________________________________________________________________________


	BEGINNING GENETIC ALGORITHM DOCKING 32 of 100
Run: 32 Seed: 880672852 942840537 [ Run 32 of 100 GA/GALS ]
Beginning LAMARCKIAN GENETIC ALGORITHM (LGA), with a maximum of 25000000 energy evaluations.

Final-Value: -18.290


	FINAL GENETIC ALGORITHM DOCKED STATE
	_______________________________________________


Detailed state:  trans 15.806 5.979 -7.901 quatxyzw 0.080645 0.814969 0.508185 -0.266590 center 0.035 0.082 -0.065 ntor 24 148.5582 -62.3149 159.0039 17.5439 -22.9632 -30.2948 -84.2123 6.7945 38.4700 -91.8718 89.4537 -108.6116 -88.4844 172.9187 -70.0977 6.7763 -86.6397 95.4949 55.6948 13.7028 -170.5630 -9.3479 175.0529 18.5085
State:	 15.806   5.979  -7.901   0.084  0.846  0.527 -149.077    148.56  -62.31  159.00   17.54  -22.96  -30.29  -84.21    6.79   38.47  -91.87   89.45 -108.61  -88.48  172.92  -70.10    6.78  -86.64   95.49   55.69   13.70 -170.56   -9.35  175.05   18.51

DOCKED: MODEL       32
DOCKED: USER    Run = 32
DOCKED: USER    DPF = D:/Protein_go_brrr/autodock/final/mut_N102T/IHP/dock.dpf
DOCKED: USER  
DOCKED: USER    Estimated Free Energy of Binding    =   +2.64 kcal/mol  [=(1)+(2)+(3)-(4)]
DOCKED: USER    
DOCKED: USER    (1) Final Intermolecular Energy     =   -4.52 kcal/mol
DOCKED: USER        vdW + Hbond + desolv Energy     =   -4.26 kcal/mol
DOCKED: USER        Electrostatic Energy            =   -0.25 kcal/mol
DOCKED: USER    (2) Final Total Internal Energy     =  -13.77 kcal/mol
DOCKED: USER    (3) Torsional Free Energy           =   +7.16 kcal/mol
DOCKED: USER    (4) Unbound System's Energy  [=(2)] =  -13.77 kcal/mol
DOCKED: USER    
DOCKED: USER    
DOCKED: USER    NEWDPF move IHP_ideal_opt.pdbqt
DOCKED: USER    NEWDPF about 0.035000 0.082000 -0.065000
DOCKED: USER    NEWDPF tran0 15.805947 5.979201 -7.900551
DOCKED: USER    NEWDPF quaternion0 0.080645 0.814969 0.508185 -0.266590
DOCKED: USER    NEWDPF axisangle0 0.083673 0.845570 0.527267 -149.077040
DOCKED: USER    NEWDPF quat0 0.083673 0.845570 0.527267 -149.077040
DOCKED: USER    NEWDPF dihe0 148.56 -62.31 159.00 17.54 -22.96 -30.29 -84.21 6.79 38.47 -91.87 89.45 -108.61 -88.48 172.92 -70.10 6.78 -86.64 95.49 55.69 13.70 -170.56 -9.35 175.05 18.51 
DOCKED: USER  keepresnum = 1 
DOCKED: USER  
DOCKED: REMARK  24 active torsions:
DOCKED: REMARK  status: ('A' for Active; 'I' for Inactive)
DOCKED: REMARK    1  A    between atoms: C_1  and  O_7 
DOCKED: REMARK    2  A    between atoms: C_2  and  O_12 
DOCKED: REMARK    3  A    between atoms: C_3  and  O_17 
DOCKED: REMARK    4  A    between atoms: C_4  and  O_22 
DOCKED: REMARK    5  A    between atoms: C_5  and  O_27 
DOCKED: REMARK    6  A    between atoms: C_6  and  O_32 
DOCKED: REMARK    7  A    between atoms: O_7  and  P_8 
DOCKED: REMARK    8  A    between atoms: P_8  and  O_10 
DOCKED: REMARK    9  A    between atoms: P_8  and  O_11 
DOCKED: REMARK   10  A    between atoms: O_12  and  P_13 
DOCKED: REMARK   11  A    between atoms: P_13  and  O_15 
DOCKED: REMARK   12  A    between atoms: P_13  and  O_16 
DOCKED: REMARK   13  A    between atoms: O_17  and  P_18 
DOCKED: REMARK   14  A    between atoms: P_18  and  O_20 
DOCKED: REMARK   15  A    between atoms: P_18  and  O_21 
DOCKED: REMARK   16  A    between atoms: O_22  and  P_23 
DOCKED: REMARK   17  A    between atoms: P_23  and  O_25 
DOCKED: REMARK   18  A    between atoms: P_23  and  O_26 
DOCKED: REMARK   19  A    between atoms: O_27  and  P_28 
DOCKED: REMARK   20  A    between atoms: P_28  and  O_30 
DOCKED: REMARK   21  A    between atoms: P_28  and  O_31 
DOCKED: REMARK   22  A    between atoms: O_32  and  P_33 
DOCKED: REMARK   23  A    between atoms: P_33  and  O_35 
DOCKED: REMARK   24  A    between atoms: P_33  and  O_36 
DOCKED: USER                              x       y       z     vdW  Elec       q    Type
DOCKED: USER                           _______ _______ _______ _____ _____    ______ ____
DOCKED: ROOT
DOCKED: ATOM      1  C   UNL d   1      15.280   6.687  -9.386 -0.08 -0.03    +0.194 C 
DOCKED: ATOM      2  C   UNL d   1      16.256   5.517  -9.521 -0.02 -0.03    +0.194 C 
DOCKED: ATOM      3  C   UNL d   1      17.396   5.610  -8.505 -0.00 -0.02    +0.194 C 
DOCKED: ATOM      4  C   UNL d   1      16.910   5.794  -7.070 -0.02 -0.02    +0.194 C 
DOCKED: ATOM      5  C   UNL d   1      15.849   6.875  -6.907 -0.11 -0.03    +0.194 C 
DOCKED: ATOM      6  C   UNL d   1      14.741   6.819  -7.961 -0.19 -0.03    +0.194 C 
DOCKED: ENDROOT
DOCKED: BRANCH   1   7
DOCKED: ATOM      7  O   UNL d   1      14.163   6.437 -10.242 -0.14 +0.06    -0.278 OA
DOCKED: BRANCH   7   8
DOCKED: ATOM      8  P   UNL d   1      14.401   6.441 -11.822 -0.11 -0.10    +0.473 P 
DOCKED: ATOM      9  O   UNL d   1      15.380   7.450 -12.310 -0.03 +0.03    -0.228 OA
DOCKED: BRANCH   8  10
DOCKED: ATOM     10  O   UNL d   1      14.830   4.940 -12.152 -0.09 +0.08    -0.303 OA
DOCKED: ATOM     11  H   UNL d   1      14.981   4.453 -11.321 +0.04 -0.05    +0.222 HD
DOCKED: ENDBRANCH   8  10
DOCKED: BRANCH   8  12
DOCKED: ATOM     12  O   UNL d   1      12.948   6.519 -12.459 -0.21 +0.08    -0.303 OA
DOCKED: ATOM     13  H   UNL d   1      12.661   5.673 -12.872 -0.51 -0.12    +0.222 HD
DOCKED: ENDBRANCH   8  12
DOCKED: ENDBRANCH   7   8
DOCKED: ENDBRANCH   1   7
DOCKED: BRANCH   2  14
DOCKED: ATOM     14  O   UNL d   1      15.548   4.290  -9.300 -0.03 +0.04    -0.278 OA
DOCKED: BRANCH  14  15
DOCKED: ATOM     15  P   UNL d   1      16.023   3.025 -10.159 -0.00 -0.06    +0.473 P 
DOCKED: ATOM     16  O   UNL d   1      14.951   2.241 -10.849 -0.06 +0.04    -0.228 OA
DOCKED: BRANCH  15  17
DOCKED: ATOM     17  O   UNL d   1      17.097   3.625 -11.171 -0.00 +0.03    -0.303 OA
DOCKED: ATOM     18  H   UNL d   1      17.868   3.985 -10.692 +0.00 -0.02    +0.222 HD
DOCKED: ENDBRANCH  15  17
DOCKED: BRANCH  15  19
DOCKED: ATOM     19  O   UNL d   1      16.947   2.196  -9.166 -0.00 +0.03    -0.303 OA
DOCKED: ATOM     20  H   UNL d   1      17.538   2.778  -8.652 +0.01 -0.02    +0.222 HD
DOCKED: ENDBRANCH  15  19
DOCKED: ENDBRANCH  14  15
DOCKED: ENDBRANCH   2  14
DOCKED: BRANCH   6  21
DOCKED: ATOM     21  O   UNL d   1      14.042   8.060  -7.891 -0.14 +0.03    -0.278 OA
DOCKED: BRANCH  21  22
DOCKED: ATOM     22  P   UNL d   1      14.561   9.309  -8.738 -0.08 -0.06    +0.473 P 
DOCKED: ATOM     23  O   UNL d   1      16.032   9.539  -8.826 -0.03 +0.03    -0.228 OA
DOCKED: BRANCH  22  24
DOCKED: ATOM     24  O   UNL d   1      13.836   9.078 -10.136 -0.08 +0.05    -0.303 OA
DOCKED: ATOM     25  H   UNL d   1      14.425   8.514 -10.699 +0.05 -0.03    +0.222 HD
DOCKED: ENDBRANCH  22  24
DOCKED: BRANCH  22  26
DOCKED: ATOM     26  O   UNL d   1      13.699  10.507  -8.111 -0.20 +0.04    -0.303 OA
DOCKED: ATOM     27  H   UNL d   1      14.173  11.352  -8.252 +0.03 -0.04    +0.222 HD
DOCKED: ENDBRANCH  22  26
DOCKED: ENDBRANCH  21  22
DOCKED: ENDBRANCH   6  21
DOCKED: BRANCH   3  28
DOCKED: ATOM     28  O   UNL d   1      18.082   4.365  -8.514 -0.00 +0.02    -0.278 OA
DOCKED: BRANCH  28  29
DOCKED: ATOM     29  P   UNL d   1      19.460   4.211  -9.297 -0.00 -0.03    +0.473 P 
DOCKED: ATOM     30  O   UNL d   1      19.730   5.245 -10.329 -0.00 +0.01    -0.228 OA
DOCKED: BRANCH  29  31
DOCKED: ATOM     31  O   UNL d   1      20.476   4.136  -8.062 +0.00 +0.01    -0.303 OA
DOCKED: ATOM     32  H   UNL d   1      20.121   4.692  -7.330 +0.00 -0.01    +0.222 HD
DOCKED: ENDBRANCH  29  31
DOCKED: BRANCH  29  33
DOCKED: ATOM     33  O   UNL d   1      19.397   2.699  -9.792 -0.00 +0.02    -0.303 OA
DOCKED: ATOM     34  H   UNL d   1      18.661   2.606 -10.446 +0.00 -0.01    +0.222 HD
DOCKED: ENDBRANCH  29  33
DOCKED: ENDBRANCH  28  29
DOCKED: ENDBRANCH   3  28
DOCKED: BRANCH   5  35
DOCKED: ATOM     35  O   UNL d   1      15.238   6.632  -5.642 -0.20 +0.08    -0.278 OA
DOCKED: BRANCH  35  36
DOCKED: ATOM     36  P   UNL d   1      14.623   5.198  -5.308 -0.27 -0.12    +0.473 P 
DOCKED: ATOM     37  O   UNL d   1      13.845   4.557  -6.413 -0.80 +0.02    -0.228 OA
DOCKED: BRANCH  36  38
DOCKED: ATOM     38  O   UNL d   1      15.917   4.384  -4.862 -0.10 +0.08    -0.303 OA
DOCKED: ATOM     39  H   UNL d   1      16.696   4.723  -5.355 +0.06 -0.04    +0.222 HD
DOCKED: ENDBRANCH  36  38
DOCKED: BRANCH  36  40
DOCKED: ATOM     40  O   UNL d   1      13.852   5.468  -3.944 -0.80 +0.16    -0.303 OA
DOCKED: ATOM     41  H   UNL d   1      14.040   4.773  -3.275 -0.23 -0.30    +0.222 HD
DOCKED: ENDBRANCH  36  40
DOCKED: ENDBRANCH  35  36
DOCKED: ENDBRANCH   5  35
DOCKED: BRANCH   4  42
DOCKED: ATOM     42  O   UNL d   1      18.044   6.198  -6.296 +0.00 +0.03    -0.278 OA
DOCKED: BRANCH  42  43
DOCKED: ATOM     43  P   UNL d   1      18.911   5.081  -5.557 +0.02 -0.03    +0.473 P 
DOCKED: ATOM     44  O   UNL d   1      20.390   5.261  -5.536 +0.00 +0.01    -0.228 OA
DOCKED: BRANCH  43  45
DOCKED: ATOM     45  O   UNL d   1      18.242   5.018  -4.114 -0.02 +0.02    -0.303 OA
DOCKED: ATOM     46  H   UNL d   1      17.361   5.442  -4.109 +0.05 -0.05    +0.222 HD
DOCKED: ENDBRANCH  43  45
DOCKED: BRANCH  43  47
DOCKED: ATOM     47  O   UNL d   1      18.390   3.717  -6.217 +0.00 +0.02    -0.303 OA
DOCKED: ATOM     48  H   UNL d   1      18.699   3.669  -7.146 +0.01 -0.01    +0.222 HD
DOCKED: ENDBRANCH  43  47
DOCKED: ENDBRANCH  42  43
DOCKED: ENDBRANCH   4  42
DOCKED: TORSDOF 24
DOCKED: TER
DOCKED: ENDMDL
________________________________________________________________________________


	BEGINNING GENETIC ALGORITHM DOCKING 33 of 100
Run: 33 Seed: 38165510 734554088 [ Run 33 of 100 GA/GALS ]
Beginning LAMARCKIAN GENETIC ALGORITHM (LGA), with a maximum of 25000000 energy evaluations.

Final-Value: -18.133


	FINAL GENETIC ALGORITHM DOCKED STATE
	_______________________________________________


Detailed state:  trans -6.405 14.118 12.891 quatxyzw 0.189904 0.501680 0.605488 0.587910 center 0.035 0.082 -0.065 ntor 24 74.6847 -158.0649 60.5870 82.0550 41.5289 36.7670 160.0089 -88.9204 3.7815 72.4150 -25.3243 -69.7380 -154.1481 -35.6976 131.3767 -52.2784 -86.6903 -91.3186 -30.9898 10.2390 146.1539 145.1248 -175.8047 -150.6123
State:	 -6.405  14.118  12.891   0.235  0.620  0.749 107.982     74.68 -158.06   60.59   82.06   41.53   36.77  160.01  -88.92    3.78   72.41  -25.32  -69.74 -154.15  -35.70  131.38  -52.28  -86.69  -91.32  -30.99   10.24  146.15  145.12 -175.80 -150.61

DOCKED: MODEL       33
DOCKED: USER    Run = 33
DOCKED: USER    DPF = D:/Protein_go_brrr/autodock/final/mut_N102T/IHP/dock.dpf
DOCKED: USER  
DOCKED: USER    Estimated Free Energy of Binding    =   +0.57 kcal/mol  [=(1)+(2)+(3)-(4)]
DOCKED: USER    
DOCKED: USER    (1) Final Intermolecular Energy     =   -6.58 kcal/mol
DOCKED: USER        vdW + Hbond + desolv Energy     =   -6.36 kcal/mol
DOCKED: USER        Electrostatic Energy            =   -0.23 kcal/mol
DOCKED: USER    (2) Final Total Internal Energy     =  -11.55 kcal/mol
DOCKED: USER    (3) Torsional Free Energy           =   +7.16 kcal/mol
DOCKED: USER    (4) Unbound System's Energy  [=(2)] =  -11.55 kcal/mol
DOCKED: USER    
DOCKED: USER    
DOCKED: USER    NEWDPF move IHP_ideal_opt.pdbqt
DOCKED: USER    NEWDPF about 0.035000 0.082000 -0.065000
DOCKED: USER    NEWDPF tran0 -6.405105 14.117543 12.891139
DOCKED: USER    NEWDPF quaternion0 0.189904 0.501680 0.605488 0.587910
DOCKED: USER    NEWDPF axisangle0 0.234760 0.620180 0.748508 107.982396
DOCKED: USER    NEWDPF quat0 0.234760 0.620180 0.748508 107.982396
DOCKED: USER    NEWDPF dihe0 74.68 -158.06 60.59 82.06 41.53 36.77 160.01 -88.92 3.78 72.41 -25.32 -69.74 -154.15 -35.70 131.38 -52.28 -86.69 -91.32 -30.99 10.24 146.15 145.12 -175.80 -150.61 
DOCKED: USER  keepresnum = 1 
DOCKED: USER  
DOCKED: REMARK  24 active torsions:
DOCKED: REMARK  status: ('A' for Active; 'I' for Inactive)
DOCKED: REMARK    1  A    between atoms: C_1  and  O_7 
DOCKED: REMARK    2  A    between atoms: C_2  and  O_12 
DOCKED: REMARK    3  A    between atoms: C_3  and  O_17 
DOCKED: REMARK    4  A    between atoms: C_4  and  O_22 
DOCKED: REMARK    5  A    between atoms: C_5  and  O_27 
DOCKED: REMARK    6  A    between atoms: C_6  and  O_32 
DOCKED: REMARK    7  A    between atoms: O_7  and  P_8 
DOCKED: REMARK    8  A    between atoms: P_8  and  O_10 
DOCKED: REMARK    9  A    between atoms: P_8  and  O_11 
DOCKED: REMARK   10  A    between atoms: O_12  and  P_13 
DOCKED: REMARK   11  A    between atoms: P_13  and  O_15 
DOCKED: REMARK   12  A    between atoms: P_13  and  O_16 
DOCKED: REMARK   13  A    between atoms: O_17  and  P_18 
DOCKED: REMARK   14  A    between atoms: P_18  and  O_20 
DOCKED: REMARK   15  A    between atoms: P_18  and  O_21 
DOCKED: REMARK   16  A    between atoms: O_22  and  P_23 
DOCKED: REMARK   17  A    between atoms: P_23  and  O_25 
DOCKED: REMARK   18  A    between atoms: P_23  and  O_26 
DOCKED: REMARK   19  A    between atoms: O_27  and  P_28 
DOCKED: REMARK   20  A    between atoms: P_28  and  O_30 
DOCKED: REMARK   21  A    between atoms: P_28  and  O_31 
DOCKED: REMARK   22  A    between atoms: O_32  and  P_33 
DOCKED: REMARK   23  A    between atoms: P_33  and  O_35 
DOCKED: REMARK   24  A    between atoms: P_33  and  O_36 
DOCKED: USER                              x       y       z     vdW  Elec       q    Type
DOCKED: USER                           _______ _______ _______ _____ _____    ______ ____
DOCKED: ROOT
DOCKED: ATOM      1  C   UNL d   1      -7.788  13.949  13.913 -0.05 -0.02    +0.194 C 
DOCKED: ATOM      2  C   UNL d   1      -8.085  14.136  12.424 -0.06 -0.02    +0.194 C 
DOCKED: ATOM      3  C   UNL d   1      -7.200  15.218  11.802 -0.06 -0.02    +0.194 C 
DOCKED: ATOM      4  C   UNL d   1      -5.712  15.007  12.071 -0.14 -0.02    +0.194 C 
DOCKED: ATOM      5  C   UNL d   1      -5.382  14.702  13.526 -0.14 -0.03    +0.194 C 
DOCKED: ATOM      6  C   UNL d   1      -6.307  13.665  14.167 -0.09 -0.02    +0.194 C 
DOCKED: ENDROOT
DOCKED: BRANCH   1   7
DOCKED: ATOM      7  O   UNL d   1      -8.524  12.814  14.376 -0.04 +0.02    -0.278 OA
DOCKED: BRANCH   7   8
DOCKED: ATOM      8  P   UNL d   1      -8.928  12.749  15.920 -0.01 -0.03    +0.473 P 
DOCKED: ATOM      9  O   UNL d   1      -8.091  11.844  16.753 -0.02 +0.02    -0.228 OA
DOCKED: BRANCH   8  10
DOCKED: ATOM     10  O   UNL d   1      -8.875  14.271  16.398 -0.00 +0.02    -0.303 OA
DOCKED: ATOM     11  H   UNL d   1      -7.957  14.511  16.620 +0.01 -0.02    +0.222 HD
DOCKED: ENDBRANCH   8  10
DOCKED: BRANCH   8  12
DOCKED: ATOM     12  O   UNL d   1     -10.489  12.453  15.926 -0.01 +0.02    -0.303 OA
DOCKED: ATOM     13  H   UNL d   1     -10.799  12.037  16.762 +0.01 -0.01    +0.222 HD
DOCKED: ENDBRANCH   8  12
DOCKED: ENDBRANCH   7   8
DOCKED: ENDBRANCH   1   7
DOCKED: BRANCH   2  14
DOCKED: ATOM     14  O   UNL d   1      -7.844  12.900  11.741 -0.08 +0.02    -0.278 OA
DOCKED: BRANCH  14  15
DOCKED: ATOM     15  P   UNL d   1      -8.862  12.523  10.563 -0.06 -0.05    +0.473 P 
DOCKED: ATOM     16  O   UNL d   1      -9.661  13.647   9.980 -0.05 +0.02    -0.228 OA
DOCKED: BRANCH  15  17
DOCKED: ATOM     17  O   UNL d   1      -7.950  11.789   9.483 -0.17 +0.09    -0.303 OA
DOCKED: ATOM     18  H   UNL d   1      -7.057  12.182   9.451 -0.44 -0.12    +0.222 HD
DOCKED: ENDBRANCH  15  17
DOCKED: BRANCH  15  19
DOCKED: ATOM     19  O   UNL d   1      -9.709  11.309  11.144 -0.10 +0.01    -0.303 OA
DOCKED: ATOM     20  H   UNL d   1      -9.697  11.295  12.119 +0.04 -0.00    +0.222 HD
DOCKED: ENDBRANCH  15  19
DOCKED: ENDBRANCH  14  15
DOCKED: ENDBRANCH   2  14
DOCKED: BRANCH   6  21
DOCKED: ATOM     21  O   UNL d   1      -6.101  13.744  15.576 -0.04 +0.04    -0.278 OA
DOCKED: BRANCH  21  22
DOCKED: ATOM     22  P   UNL d   1      -6.007  15.171  16.283 -0.02 -0.08    +0.473 P 
DOCKED: ATOM     23  O   UNL d   1      -6.212  15.241  17.759 -0.02 +0.03    -0.228 OA
DOCKED: BRANCH  22  24
DOCKED: ATOM     24  O   UNL d   1      -4.588  15.689  15.781 -0.05 +0.11    -0.303 OA
DOCKED: ATOM     25  H   UNL d   1      -4.035  14.900  15.551 -0.48 -0.13    +0.222 HD
DOCKED: ENDBRANCH  22  24
DOCKED: BRANCH  22  26
DOCKED: ATOM     26  O   UNL d   1      -7.013  16.044  15.391 -0.01 +0.03    -0.303 OA
DOCKED: ATOM     27  H   UNL d   1      -6.612  16.920  15.218 +0.02 -0.03    +0.222 HD
DOCKED: ENDBRANCH  22  26
DOCKED: ENDBRANCH  21  22
DOCKED: ENDBRANCH   6  21
DOCKED: BRANCH   3  28
DOCKED: ATOM     28  O   UNL d   1      -7.345  15.129  10.390 -0.05 +0.03    -0.278 OA
DOCKED: BRANCH  28  29
DOCKED: ATOM     29  P   UNL d   1      -6.194  14.477   9.503 -0.15 -0.07    +0.473 P 
DOCKED: ATOM     30  O   UNL d   1      -5.018  15.345   9.240 -0.18 +0.01    -0.228 OA
DOCKED: BRANCH  29  31
DOCKED: ATOM     31  O   UNL d   1      -5.933  13.131  10.330 -0.17 +0.09    -0.303 OA
DOCKED: ATOM     32  H   UNL d   1      -4.984  12.886  10.239 -0.24 -0.07    +0.222 HD
DOCKED: ENDBRANCH  29  31
DOCKED: BRANCH  29  33
DOCKED: ATOM     33  O   UNL d   1      -7.004  13.958   8.234 -0.17 +0.06    -0.303 OA
DOCKED: ATOM     34  H   UNL d   1      -7.924  13.728   8.512 +0.06 -0.04    +0.222 HD
DOCKED: ENDBRANCH  29  33
DOCKED: ENDBRANCH  28  29
DOCKED: ENDBRANCH   3  28
DOCKED: BRANCH   5  35
DOCKED: ATOM     35  O   UNL d   1      -4.069  14.145  13.517 -0.22 +0.08    -0.278 OA
DOCKED: BRANCH  35  36
DOCKED: ATOM     36  P   UNL d   1      -3.675  13.031  12.446 -0.35 -0.09    +0.473 P 
DOCKED: ATOM     37  O   UNL d   1      -4.707  11.976  12.204 -0.28 +0.03    -0.228 OA
DOCKED: BRANCH  36  38
DOCKED: ATOM     38  O   UNL d   1      -3.331  13.915  11.167 -0.37 +0.04    -0.303 OA
DOCKED: ATOM     39  H   UNL d   1      -4.150  14.357  10.852 +0.12 -0.02    +0.222 HD
DOCKED: ENDBRANCH  36  38
DOCKED: BRANCH  36  40
DOCKED: ATOM     40  O   UNL d   1      -2.254  12.545  12.968 -0.84 +0.09    -0.303 OA
DOCKED: ATOM     41  H   UNL d   1      -2.181  12.616  13.946 -0.42 -0.12    +0.222 HD
DOCKED: ENDBRANCH  36  40
DOCKED: ENDBRANCH  35  36
DOCKED: ENDBRANCH   5  35
DOCKED: BRANCH   4  42
DOCKED: ATOM     42  O   UNL d   1      -5.052  16.232  11.737 -0.13 +0.02    -0.278 OA
DOCKED: BRANCH  42  43
DOCKED: ATOM     43  P   UNL d   1      -4.691  17.257  12.905 -0.11 -0.05    +0.473 P 
DOCKED: ATOM     44  O   UNL d   1      -5.745  17.542  13.918 -0.05 +0.03    -0.228 OA
DOCKED: BRANCH  43  45
DOCKED: ATOM     45  O   UNL d   1      -3.356  16.638  13.511 -0.14 +0.07    -0.303 OA
DOCKED: ATOM     46  H   UNL d   1      -3.538  16.111  14.314 -0.51 -0.13    +0.222 HD
DOCKED: ENDBRANCH  43  45
DOCKED: BRANCH  43  47
DOCKED: ATOM     47  O   UNL d   1      -4.129  18.532  12.113 -0.10 +0.01    -0.303 OA
DOCKED: ATOM     48  H   UNL d   1      -4.778  19.263  12.177 +0.04 -0.02    +0.222 HD
DOCKED: ENDBRANCH  43  47
DOCKED: ENDBRANCH  42  43
DOCKED: ENDBRANCH   4  42
DOCKED: TORSDOF 24
DOCKED: TER
DOCKED: ENDMDL
________________________________________________________________________________


	BEGINNING GENETIC ALGORITHM DOCKING 34 of 100
Run: 34 Seed: 2089271698 1244103266 [ Run 34 of 100 GA/GALS ]
Beginning LAMARCKIAN GENETIC ALGORITHM (LGA), with a maximum of 25000000 energy evaluations.

Final-Value: -17.067


	FINAL GENETIC ALGORITHM DOCKED STATE
	_______________________________________________


Detailed state:  trans 0.359 19.240 2.097 quatxyzw -0.754228 0.266122 -0.162116 -0.577960 center 0.035 0.082 -0.065 ntor 24 -90.9336 -34.1886 -156.9345 -3.6779 28.3022 179.7519 -74.9601 19.3647 104.7408 -47.7546 26.4428 -162.4515 180.0000 54.1781 162.0883 138.5073 -122.0972 -28.3893 69.8136 21.9376 -14.5169 8.3406 -12.4105 167.6356
State:	  0.359  19.240   2.097  -0.924  0.326 -0.199 -109.386    -90.93  -34.19 -156.93   -3.68   28.30  179.75  -74.96   19.36  104.74  -47.75   26.44 -162.45  180.00   54.18  162.09  138.51 -122.10  -28.39   69.81   21.94  -14.52    8.34  -12.41  167.64

DOCKED: MODEL       34
DOCKED: USER    Run = 34
DOCKED: USER    DPF = D:/Protein_go_brrr/autodock/final/mut_N102T/IHP/dock.dpf
DOCKED: USER  
DOCKED: USER    Estimated Free Energy of Binding    =   +3.19 kcal/mol  [=(1)+(2)+(3)-(4)]
DOCKED: USER    
DOCKED: USER    (1) Final Intermolecular Energy     =   -3.97 kcal/mol
DOCKED: USER        vdW + Hbond + desolv Energy     =   -3.17 kcal/mol
DOCKED: USER        Electrostatic Energy            =   -0.80 kcal/mol
DOCKED: USER    (2) Final Total Internal Energy     =  -13.10 kcal/mol
DOCKED: USER    (3) Torsional Free Energy           =   +7.16 kcal/mol
DOCKED: USER    (4) Unbound System's Energy  [=(2)] =  -13.10 kcal/mol
DOCKED: USER    
DOCKED: USER    
DOCKED: USER    NEWDPF move IHP_ideal_opt.pdbqt
DOCKED: USER    NEWDPF about 0.035000 0.082000 -0.065000
DOCKED: USER    NEWDPF tran0 0.359341 19.239538 2.096511
DOCKED: USER    NEWDPF quaternion0 -0.754228 0.266122 -0.162116 -0.577960
DOCKED: USER    NEWDPF axisangle0 -0.924225 0.326104 -0.198655 -109.385608
DOCKED: USER    NEWDPF quat0 -0.924225 0.326104 -0.198655 -109.385608
DOCKED: USER    NEWDPF dihe0 -90.93 -34.19 -156.93 -3.68 28.30 179.75 -74.96 19.36 104.74 -47.75 26.44 -162.45 180.00 54.18 162.09 138.51 -122.10 -28.39 69.81 21.94 -14.52 8.34 -12.41 167.64 
DOCKED: USER  keepresnum = 1 
DOCKED: USER  
DOCKED: REMARK  24 active torsions:
DOCKED: REMARK  status: ('A' for Active; 'I' for Inactive)
DOCKED: REMARK    1  A    between atoms: C_1  and  O_7 
DOCKED: REMARK    2  A    between atoms: C_2  and  O_12 
DOCKED: REMARK    3  A    between atoms: C_3  and  O_17 
DOCKED: REMARK    4  A    between atoms: C_4  and  O_22 
DOCKED: REMARK    5  A    between atoms: C_5  and  O_27 
DOCKED: REMARK    6  A    between atoms: C_6  and  O_32 
DOCKED: REMARK    7  A    between atoms: O_7  and  P_8 
DOCKED: REMARK    8  A    between atoms: P_8  and  O_10 
DOCKED: REMARK    9  A    between atoms: P_8  and  O_11 
DOCKED: REMARK   10  A    between atoms: O_12  and  P_13 
DOCKED: REMARK   11  A    between atoms: P_13  and  O_15 
DOCKED: REMARK   12  A    between atoms: P_13  and  O_16 
DOCKED: REMARK   13  A    between atoms: O_17  and  P_18 
DOCKED: REMARK   14  A    between atoms: P_18  and  O_20 
DOCKED: REMARK   15  A    between atoms: P_18  and  O_21 
DOCKED: REMARK   16  A    between atoms: O_22  and  P_23 
DOCKED: REMARK   17  A    between atoms: P_23  and  O_25 
DOCKED: REMARK   18  A    between atoms: P_23  and  O_26 
DOCKED: REMARK   19  A    between atoms: O_27  and  P_28 
DOCKED: REMARK   20  A    between atoms: P_28  and  O_30 
DOCKED: REMARK   21  A    between atoms: P_28  and  O_31 
DOCKED: REMARK   22  A    between atoms: O_32  and  P_33 
DOCKED: REMARK   23  A    between atoms: P_33  and  O_35 
DOCKED: REMARK   24  A    between atoms: P_33  and  O_36 
DOCKED: USER                              x       y       z     vdW  Elec       q    Type
DOCKED: USER                           _______ _______ _______ _____ _____    ______ ____
DOCKED: ROOT
DOCKED: ATOM      1  C   UNL d   1       1.996  19.292   2.647 -0.02 -0.04    +0.194 C 
DOCKED: ATOM      2  C   UNL d   1       0.959  19.890   3.599 -0.04 -0.07    +0.194 C 
DOCKED: ATOM      3  C   UNL d   1      -0.066  20.748   2.854 -0.00 -0.04    +0.194 C 
DOCKED: ATOM      4  C   UNL d   1      -0.714  20.024   1.676 +0.01 -0.02    +0.194 C 
DOCKED: ATOM      5  C   UNL d   1       0.278  19.315   0.763 +0.01 -0.01    +0.194 C 
DOCKED: ATOM      6  C   UNL d   1       1.341  18.507   1.510 -0.01 -0.02    +0.194 C 
DOCKED: ENDROOT
DOCKED: BRANCH   1   7
DOCKED: ATOM      7  O   UNL d   1       2.804  18.375   3.388 -0.06 +0.07    -0.278 OA
DOCKED: BRANCH   7   8
DOCKED: ATOM      8  P   UNL d   1       3.493  18.886   4.735 -0.10 -0.26    +0.473 P 
DOCKED: ATOM      9  O   UNL d   1       4.957  18.639   4.829 -0.11 +0.07    -0.228 OA
DOCKED: BRANCH   8  10
DOCKED: ATOM     10  O   UNL d   1       3.113  20.434   4.800 -0.07 +0.23    -0.303 OA
DOCKED: ATOM     11  H   UNL d   1       2.491  20.588   5.536 -0.28 -0.32    +0.222 HD
DOCKED: ENDBRANCH   8  10
DOCKED: BRANCH   8  12
DOCKED: ATOM     12  O   UNL d   1       2.610  18.278   5.907 -0.20 +0.32    -0.303 OA
DOCKED: ATOM     13  H   UNL d   1       1.781  18.782   6.067 -0.45 -0.36    +0.222 HD
DOCKED: ENDBRANCH   8  12
DOCKED: ENDBRANCH   7   8
DOCKED: ENDBRANCH   1   7
DOCKED: BRANCH   2  14
DOCKED: ATOM     14  O   UNL d   1       0.266  18.826   4.264 -0.06 +0.09    -0.278 OA
DOCKED: BRANCH  14  15
DOCKED: ATOM     15  P   UNL d   1      -0.351  19.162   5.703 -0.12 -0.27    +0.473 P 
DOCKED: ATOM     16  O   UNL d   1      -1.843  19.241   5.792 -0.10 +0.06    -0.228 OA
DOCKED: BRANCH  15  17
DOCKED: ATOM     17  O   UNL d   1       0.267  18.047   6.659 -0.08 +0.21    -0.303 OA
DOCKED: ATOM     18  H   UNL d   1       0.946  18.427   7.249 -0.31 -0.37    +0.222 HD
DOCKED: ENDBRANCH  15  17
DOCKED: BRANCH  15  19
DOCKED: ATOM     19  O   UNL d   1       0.435  20.461   6.178 +0.00 +0.40    -0.303 OA
DOCKED: ATOM     20  H   UNL d   1       1.387  20.285   6.290 -0.50 -0.56    +0.222 HD
DOCKED: ENDBRANCH  15  19
DOCKED: ENDBRANCH  14  15
DOCKED: ENDBRANCH   2  14
DOCKED: BRANCH   6  21
DOCKED: ATOM     21  O   UNL d   1       2.366  18.202   0.567 -0.01 +0.02    -0.278 OA
DOCKED: BRANCH  21  22
DOCKED: ATOM     22  P   UNL d   1       2.668  16.682   0.190 -0.06 -0.06    +0.473 P 
DOCKED: ATOM     23  O   UNL d   1       3.912  16.379  -0.575 -0.08 +0.07    -0.228 OA
DOCKED: BRANCH  22  24
DOCKED: ATOM     24  O   UNL d   1       2.565  15.968   1.609 -0.11 +0.01    -0.303 OA
DOCKED: ATOM     25  H   UNL d   1       2.956  16.575   2.288 +0.07 -0.02    +0.222 HD
DOCKED: ENDBRANCH  22  24
DOCKED: BRANCH  22  26
DOCKED: ATOM     26  O   UNL d   1       1.292  16.239  -0.503 -0.10 -0.04    -0.303 OA
DOCKED: ATOM     27  H   UNL d   1       0.706  17.019  -0.584 +0.04 +0.04    +0.222 HD
DOCKED: ENDBRANCH  22  26
DOCKED: ENDBRANCH  21  22
DOCKED: ENDBRANCH   6  21
DOCKED: BRANCH   3  28
DOCKED: ATOM     28  O   UNL d   1      -1.129  21.025   3.757 -0.01 +0.06    -0.278 OA
DOCKED: BRANCH  28  29
DOCKED: ATOM     29  P   UNL d   1      -1.473  22.528   4.158 +0.01 -0.10    +0.473 P 
DOCKED: ATOM     30  O   UNL d   1      -2.780  23.039   3.670 +0.00 +0.03    -0.228 OA
DOCKED: BRANCH  29  31
DOCKED: ATOM     31  O   UNL d   1      -1.271  22.447   5.743 -0.01 +0.11    -0.303 OA
DOCKED: ATOM     32  H   UNL d   1      -1.380  21.510   6.026 +0.03 -0.10    +0.222 HD
DOCKED: ENDBRANCH  29  31
DOCKED: BRANCH  29  33
DOCKED: ATOM     33  O   UNL d   1      -0.171  23.308   3.676 +0.00 +0.07    -0.303 OA
DOCKED: ATOM     34  H   UNL d   1      -0.216  23.436   2.697 +0.00 -0.04    +0.222 HD
DOCKED: ENDBRANCH  29  33
DOCKED: ENDBRANCH  28  29
DOCKED: ENDBRANCH   3  28
DOCKED: BRANCH   5  35
DOCKED: ATOM     35  O   UNL d   1      -0.493  18.390  -0.001 -0.01 -0.02    -0.278 OA
DOCKED: BRANCH  35  36
DOCKED: ATOM     36  P   UNL d   1      -0.565  18.521  -1.589 -0.02 +0.05    +0.473 P 
DOCKED: ATOM     37  O   UNL d   1      -1.476  19.588  -2.107 -0.01 -0.01    -0.228 OA
DOCKED: BRANCH  36  38
DOCKED: ATOM     38  O   UNL d   1       0.968  18.728  -1.969 -0.02 +0.00    -0.303 OA
DOCKED: ATOM     39  H   UNL d   1       1.524  18.204  -1.354 +0.04 -0.01    +0.222 HD
DOCKED: ENDBRANCH  36  38
DOCKED: BRANCH  36  40
DOCKED: ATOM     40  O   UNL d   1      -0.873  17.027  -2.040 -0.49 -0.15    -0.303 OA
DOCKED: ATOM     41  H   UNL d   1      -0.048  16.514  -2.189 +0.05 +0.12    +0.222 HD
DOCKED: ENDBRANCH  36  40
DOCKED: ENDBRANCH  35  36
DOCKED: ENDBRANCH   5  35
DOCKED: BRANCH   4  42
DOCKED: ATOM     42  O   UNL d   1      -1.373  21.021   0.889 +0.00 +0.02    -0.278 OA
DOCKED: BRANCH  42  43
DOCKED: ATOM     43  P   UNL d   1      -0.524  22.251   0.332 +0.00 -0.04    +0.473 P 
DOCKED: ATOM     44  O   UNL d   1       0.959  22.109   0.315 +0.00 +0.02    -0.228 OA
DOCKED: BRANCH  43  45
DOCKED: ATOM     45  O   UNL d   1      -1.170  22.502  -1.100 +0.00 +0.02    -0.303 OA
DOCKED: ATOM     46  H   UNL d   1      -1.281  21.665  -1.595 +0.00 -0.01    +0.222 HD
DOCKED: ENDBRANCH  43  45
DOCKED: BRANCH  43  47
DOCKED: ATOM     47  O   UNL d   1      -1.090  23.496   1.168 +0.00 +0.03    -0.303 OA
DOCKED: ATOM     48  H   UNL d   1      -1.581  23.164   1.948 +0.00 -0.02    +0.222 HD
DOCKED: ENDBRANCH  43  47
DOCKED: ENDBRANCH  42  43
DOCKED: ENDBRANCH   4  42
DOCKED: TORSDOF 24
DOCKED: TER
DOCKED: ENDMDL
________________________________________________________________________________


	BEGINNING GENETIC ALGORITHM DOCKING 35 of 100
Run: 35 Seed: 1382313766 520970559 [ Run 35 of 100 GA/GALS ]
Beginning LAMARCKIAN GENETIC ALGORITHM (LGA), with a maximum of 25000000 energy evaluations.

Final-Value: -15.992


	FINAL GENETIC ALGORITHM DOCKED STATE
	_______________________________________________


Detailed state:  trans -3.921 -12.665 -22.405 quatxyzw 0.501937 0.179281 0.735886 0.417599 center 0.035 0.082 -0.065 ntor 24 167.8039 119.7674 -0.6861 21.2027 155.5652 66.7843 32.4075 -89.2088 -79.4317 37.9694 -55.4276 54.5668 127.2132 -176.2115 -119.6637 -70.2864 9.9084 -96.1443 12.1070 -44.3058 151.5170 -42.1823 103.8848 65.3498
State:	 -3.921 -12.665 -22.405   0.552  0.197  0.810 130.634    167.80  119.77   -0.69   21.20  155.57   66.78   32.41  -89.21  -79.43   37.97  -55.43   54.57  127.21 -176.21 -119.66  -70.29    9.91  -96.14   12.11  -44.31  151.52  -42.18  103.88   65.35

DOCKED: MODEL       35
DOCKED: USER    Run = 35
DOCKED: USER    DPF = D:/Protein_go_brrr/autodock/final/mut_N102T/IHP/dock.dpf
DOCKED: USER  
DOCKED: USER    Estimated Free Energy of Binding    =   +2.28 kcal/mol  [=(1)+(2)+(3)-(4)]
DOCKED: USER    
DOCKED: USER    (1) Final Intermolecular Energy     =   -4.88 kcal/mol
DOCKED: USER        vdW + Hbond + desolv Energy     =   -4.30 kcal/mol
DOCKED: USER        Electrostatic Energy            =   -0.58 kcal/mol
DOCKED: USER    (2) Final Total Internal Energy     =  -11.12 kcal/mol
DOCKED: USER    (3) Torsional Free Energy           =   +7.16 kcal/mol
DOCKED: USER    (4) Unbound System's Energy  [=(2)] =  -11.12 kcal/mol
DOCKED: USER    
DOCKED: USER    
DOCKED: USER    NEWDPF move IHP_ideal_opt.pdbqt
DOCKED: USER    NEWDPF about 0.035000 0.082000 -0.065000
DOCKED: USER    NEWDPF tran0 -3.920810 -12.665136 -22.404678
DOCKED: USER    NEWDPF quaternion0 0.501937 0.179281 0.735886 0.417599
DOCKED: USER    NEWDPF axisangle0 0.552410 0.197309 0.809884 130.633817
DOCKED: USER    NEWDPF quat0 0.552410 0.197309 0.809884 130.633817
DOCKED: USER    NEWDPF dihe0 167.80 119.77 -0.69 21.20 155.57 66.78 32.41 -89.21 -79.43 37.97 -55.43 54.57 127.21 -176.21 -119.66 -70.29 9.91 -96.14 12.11 -44.31 151.52 -42.18 103.88 65.35 
DOCKED: USER  keepresnum = 1 
DOCKED: USER  
DOCKED: REMARK  24 active torsions:
DOCKED: REMARK  status: ('A' for Active; 'I' for Inactive)
DOCKED: REMARK    1  A    between atoms: C_1  and  O_7 
DOCKED: REMARK    2  A    between atoms: C_2  and  O_12 
DOCKED: REMARK    3  A    between atoms: C_3  and  O_17 
DOCKED: REMARK    4  A    between atoms: C_4  and  O_22 
DOCKED: REMARK    5  A    between atoms: C_5  and  O_27 
DOCKED: REMARK    6  A    between atoms: C_6  and  O_32 
DOCKED: REMARK    7  A    between atoms: O_7  and  P_8 
DOCKED: REMARK    8  A    between atoms: P_8  and  O_10 
DOCKED: REMARK    9  A    between atoms: P_8  and  O_11 
DOCKED: REMARK   10  A    between atoms: O_12  and  P_13 
DOCKED: REMARK   11  A    between atoms: P_13  and  O_15 
DOCKED: REMARK   12  A    between atoms: P_13  and  O_16 
DOCKED: REMARK   13  A    between atoms: O_17  and  P_18 
DOCKED: REMARK   14  A    between atoms: P_18  and  O_20 
DOCKED: REMARK   15  A    between atoms: P_18  and  O_21 
DOCKED: REMARK   16  A    between atoms: O_22  and  P_23 
DOCKED: REMARK   17  A    between atoms: P_23  and  O_25 
DOCKED: REMARK   18  A    between atoms: P_23  and  O_26 
DOCKED: REMARK   19  A    between atoms: O_27  and  P_28 
DOCKED: REMARK   20  A    between atoms: P_28  and  O_30 
DOCKED: REMARK   21  A    between atoms: P_28  and  O_31 
DOCKED: REMARK   22  A    between atoms: O_32  and  P_33 
DOCKED: REMARK   23  A    between atoms: P_33  and  O_35 
DOCKED: REMARK   24  A    between atoms: P_33  and  O_36 
DOCKED: USER                              x       y       z     vdW  Elec       q    Type
DOCKED: USER                           _______ _______ _______ _____ _____    ______ ____
DOCKED: ROOT
DOCKED: ATOM      1  C   UNL d   1      -4.345 -12.148 -20.812 -0.18 -0.01    +0.194 C 
DOCKED: ATOM      2  C   UNL d   1      -5.017 -11.386 -21.955 -0.13 -0.01    +0.194 C 
DOCKED: ATOM      3  C   UNL d   1      -4.030 -11.064 -23.079 -0.16 -0.04    +0.194 C 
DOCKED: ATOM      4  C   UNL d   1      -3.262 -12.287 -23.574 -0.10 -0.03    +0.194 C 
DOCKED: ATOM      5  C   UNL d   1      -2.671 -13.141 -22.460 -0.10 -0.01    +0.194 C 
DOCKED: ATOM      6  C   UNL d   1      -3.640 -13.412 -21.306 -0.09 -0.01    +0.194 C 
DOCKED: ENDROOT
DOCKED: BRANCH   1   7
DOCKED: ATOM      7  O   UNL d   1      -5.360 -12.559 -19.892 -0.09 +0.00    -0.278 OA
DOCKED: BRANCH   7   8
DOCKED: ATOM      8  P   UNL d   1      -5.410 -11.861 -18.456 -0.20 +0.00    +0.473 P 
DOCKED: ATOM      9  O   UNL d   1      -6.511 -12.324 -17.568 -0.18 -0.02    -0.228 OA
DOCKED: BRANCH   8  10
DOCKED: ATOM     10  O   UNL d   1      -3.959 -12.123 -17.847 -0.23 +0.04    -0.303 OA
DOCKED: ATOM     11  H   UNL d   1      -3.375 -12.486 -18.539 -0.00 -0.04    +0.222 HD
DOCKED: ENDBRANCH   8  10
DOCKED: BRANCH   8  12
DOCKED: ATOM     12  O   UNL d   1      -5.369 -10.301 -18.754 -0.09 +0.01    -0.303 OA
DOCKED: ATOM     13  H   UNL d   1      -6.221  -9.952 -19.101 +0.09 +0.01    +0.222 HD
DOCKED: ENDBRANCH   8  12
DOCKED: ENDBRANCH   7   8
DOCKED: ENDBRANCH   1   7
DOCKED: BRANCH   2  14
DOCKED: ATOM     14  O   UNL d   1      -6.076 -12.189 -22.493 -0.03 +0.02    -0.278 OA
DOCKED: BRANCH  14  15
DOCKED: ATOM     15  P   UNL d   1      -7.507 -12.053 -21.787 -0.01 -0.01    +0.473 P 
DOCKED: ATOM     16  O   UNL d   1      -8.089 -13.303 -21.204 -0.01 +0.00    -0.228 OA
DOCKED: BRANCH  15  17
DOCKED: ATOM     17  O   UNL d   1      -7.296 -10.906 -20.702 -0.05 +0.00    -0.303 OA
DOCKED: ATOM     18  H   UNL d   1      -7.105 -11.284 -19.823 +0.06 +0.00    +0.222 HD
DOCKED: ENDBRANCH  15  17
DOCKED: BRANCH  15  19
DOCKED: ATOM     19  O   UNL d   1      -8.412 -11.312 -22.865 -0.01 +0.01    -0.303 OA
DOCKED: ATOM     20  H   UNL d   1      -7.914 -10.622 -23.341 +0.02 -0.02    +0.222 HD
DOCKED: ENDBRANCH  15  19
DOCKED: ENDBRANCH  14  15
DOCKED: ENDBRANCH   2  14
DOCKED: BRANCH   6  21
DOCKED: ATOM     21  O   UNL d   1      -2.859 -13.907 -20.221 -0.06 +0.01    -0.278 OA
DOCKED: BRANCH  21  22
DOCKED: ATOM     22  P   UNL d   1      -1.538 -13.131 -19.776 -0.13 -0.03    +0.473 P 
DOCKED: ATOM     23  O   UNL d   1      -0.249 -13.505 -20.426 -0.11 +0.00    -0.228 OA
DOCKED: BRANCH  22  24
DOCKED: ATOM     24  O   UNL d   1      -1.971 -11.612 -19.974 -0.18 +0.04    -0.303 OA
DOCKED: ATOM     25  H   UNL d   1      -2.377 -11.294 -19.128 -0.45 -0.11    +0.222 HD
DOCKED: ENDBRANCH  22  24
DOCKED: BRANCH  22  26
DOCKED: ATOM     26  O   UNL d   1      -1.592 -13.285 -18.181 -0.12 +0.03    -0.303 OA
DOCKED: ATOM     27  H   UNL d   1      -1.828 -12.423 -17.782 -0.39 -0.09    +0.222 HD
DOCKED: ENDBRANCH  22  26
DOCKED: ENDBRANCH  21  22
DOCKED: ENDBRANCH   6  21
DOCKED: BRANCH   3  28
DOCKED: ATOM     28  O   UNL d   1      -4.786 -10.615 -24.197 -0.09 +0.08    -0.278 OA
DOCKED: BRANCH  28  29
DOCKED: ATOM     29  P   UNL d   1      -5.550  -9.219 -24.143 -0.09 -0.18    +0.473 P 
DOCKED: ATOM     30  O   UNL d   1      -6.987  -9.289 -23.772 -0.06 +0.04    -0.228 OA
DOCKED: BRANCH  29  31
DOCKED: ATOM     31  O   UNL d   1      -4.584  -8.410 -23.156 +0.06 +0.25    -0.303 OA
DOCKED: ATOM     32  H   UNL d   1      -3.844  -8.030 -23.684 -0.41 -0.45    +0.222 HD
DOCKED: ENDBRANCH  29  31
DOCKED: BRANCH  29  33
DOCKED: ATOM     33  O   UNL d   1      -5.204  -8.593 -25.566 -0.07 +0.16    -0.303 OA
DOCKED: ATOM     34  H   UNL d   1      -4.317  -8.922 -25.854 +0.04 -0.15    +0.222 HD
DOCKED: ENDBRANCH  29  33
DOCKED: ENDBRANCH  28  29
DOCKED: ENDBRANCH   3  28
DOCKED: BRANCH   5  35
DOCKED: ATOM     35  O   UNL d   1      -2.368 -14.400 -23.057 -0.03 +0.01    -0.278 OA
DOCKED: BRANCH  35  36
DOCKED: ATOM     36  P   UNL d   1      -2.947 -15.748 -22.431 -0.00 -0.01    +0.473 P 
DOCKED: ATOM     37  O   UNL d   1      -4.431 -15.790 -22.250 -0.00 +0.00    -0.228 OA
DOCKED: BRANCH  36  38
DOCKED: ATOM     38  O   UNL d   1      -2.379 -16.845 -23.436 -0.00 +0.01    -0.303 OA
DOCKED: ATOM     39  H   UNL d   1      -3.007 -17.598 -23.478 +0.00 -0.00    +0.222 HD
DOCKED: ENDBRANCH  36  38
DOCKED: BRANCH  36  40
DOCKED: ATOM     40  O   UNL d   1      -2.056 -15.927 -21.126 -0.00 +0.00    -0.303 OA
DOCKED: ATOM     41  H   UNL d   1      -1.363 -15.234 -21.060 +0.02 -0.00    +0.222 HD
DOCKED: ENDBRANCH  36  40
DOCKED: ENDBRANCH  35  36
DOCKED: ENDBRANCH   5  35
DOCKED: BRANCH   4  42
DOCKED: ATOM     42  O   UNL d   1      -2.168 -11.801 -24.357 -0.09 +0.06    -0.278 OA
DOCKED: BRANCH  42  43
DOCKED: ATOM     43  P   UNL d   1      -2.438 -10.651 -25.430 -0.11 -0.23    +0.473 P 
DOCKED: ATOM     44  O   UNL d   1      -3.562 -10.855 -26.386 -0.04 +0.08    -0.228 OA
DOCKED: BRANCH  43  45
DOCKED: ATOM     45  O   UNL d   1      -2.583  -9.353 -24.521 -0.20 +0.38    -0.303 OA
DOCKED: ATOM     46  H   UNL d   1      -3.404  -8.862 -24.727 -0.09 -0.30    +0.222 HD
DOCKED: ENDBRANCH  43  45
DOCKED: BRANCH  43  47
DOCKED: ATOM     47  O   UNL d   1      -0.997 -10.424 -26.094 -0.13 +0.16    -0.303 OA
DOCKED: ATOM     48  H   UNL d   1      -0.763  -9.474 -26.041 -0.10 -0.22    +0.222 HD
DOCKED: ENDBRANCH  43  47
DOCKED: ENDBRANCH  42  43
DOCKED: ENDBRANCH   4  42
DOCKED: TORSDOF 24
DOCKED: TER
DOCKED: ENDMDL
________________________________________________________________________________


	BEGINNING GENETIC ALGORITHM DOCKING 36 of 100
Run: 36 Seed: 1543538640 967316665 [ Run 36 of 100 GA/GALS ]
Beginning LAMARCKIAN GENETIC ALGORITHM (LGA), with a maximum of 25000000 energy evaluations.

Final-Value: -15.965


	FINAL GENETIC ALGORITHM DOCKED STATE
	_______________________________________________


Detailed state:  trans 16.461 7.155 -8.639 quatxyzw 0.225389 0.526175 0.299286 0.763392 center 0.035 0.082 -0.065 ntor 24 -85.8835 159.1733 9.0420 137.4515 169.1004 130.8349 -42.1340 105.9779 96.8225 121.3111 7.1062 -179.5901 95.2424 -84.8541 -159.3387 169.5804 93.8011 168.3967 59.5300 3.6042 20.0920 -10.2047 -27.5734 3.6866
State:	 16.461   7.155  -8.639   0.349  0.815  0.463 80.472    -85.88  159.17    9.04  137.45  169.10  130.83  -42.13  105.98   96.82  121.31    7.11 -179.59   95.24  -84.85 -159.34  169.58   93.80  168.40   59.53    3.60   20.09  -10.20  -27.57    3.69

DOCKED: MODEL       36
DOCKED: USER    Run = 36
DOCKED: USER    DPF = D:/Protein_go_brrr/autodock/final/mut_N102T/IHP/dock.dpf
DOCKED: USER  
DOCKED: USER    Estimated Free Energy of Binding    =   +2.36 kcal/mol  [=(1)+(2)+(3)-(4)]
DOCKED: USER    
DOCKED: USER    (1) Final Intermolecular Energy     =   -4.80 kcal/mol
DOCKED: USER        vdW + Hbond + desolv Energy     =   -4.71 kcal/mol
DOCKED: USER        Electrostatic Energy            =   -0.09 kcal/mol
DOCKED: USER    (2) Final Total Internal Energy     =  -11.16 kcal/mol
DOCKED: USER    (3) Torsional Free Energy           =   +7.16 kcal/mol
DOCKED: USER    (4) Unbound System's Energy  [=(2)] =  -11.16 kcal/mol
DOCKED: USER    
DOCKED: USER    
DOCKED: USER    NEWDPF move IHP_ideal_opt.pdbqt
DOCKED: USER    NEWDPF about 0.035000 0.082000 -0.065000
DOCKED: USER    NEWDPF tran0 16.461156 7.155372 -8.639218
DOCKED: USER    NEWDPF quaternion0 0.225389 0.526175 0.299286 0.763392
DOCKED: USER    NEWDPF axisangle0 0.348935 0.814594 0.463337 80.471735
DOCKED: USER    NEWDPF quat0 0.348935 0.814594 0.463337 80.471735
DOCKED: USER    NEWDPF dihe0 -85.88 159.17 9.04 137.45 169.10 130.83 -42.13 105.98 96.82 121.31 7.11 -179.59 95.24 -84.85 -159.34 169.58 93.80 168.40 59.53 3.60 20.09 -10.20 -27.57 3.69 
DOCKED: USER  keepresnum = 1 
DOCKED: USER  
DOCKED: REMARK  24 active torsions:
DOCKED: REMARK  status: ('A' for Active; 'I' for Inactive)
DOCKED: REMARK    1  A    between atoms: C_1  and  O_7 
DOCKED: REMARK    2  A    between atoms: C_2  and  O_12 
DOCKED: REMARK    3  A    between atoms: C_3  and  O_17 
DOCKED: REMARK    4  A    between atoms: C_4  and  O_22 
DOCKED: REMARK    5  A    between atoms: C_5  and  O_27 
DOCKED: REMARK    6  A    between atoms: C_6  and  O_32 
DOCKED: REMARK    7  A    between atoms: O_7  and  P_8 
DOCKED: REMARK    8  A    between atoms: P_8  and  O_10 
DOCKED: REMARK    9  A    between atoms: P_8  and  O_11 
DOCKED: REMARK   10  A    between atoms: O_12  and  P_13 
DOCKED: REMARK   11  A    between atoms: P_13  and  O_15 
DOCKED: REMARK   12  A    between atoms: P_13  and  O_16 
DOCKED: REMARK   13  A    between atoms: O_17  and  P_18 
DOCKED: REMARK   14  A    between atoms: P_18  and  O_20 
DOCKED: REMARK   15  A    between atoms: P_18  and  O_21 
DOCKED: REMARK   16  A    between atoms: O_22  and  P_23 
DOCKED: REMARK   17  A    between atoms: P_23  and  O_25 
DOCKED: REMARK   18  A    between atoms: P_23  and  O_26 
DOCKED: REMARK   19  A    between atoms: O_27  and  P_28 
DOCKED: REMARK   20  A    between atoms: P_28  and  O_30 
DOCKED: REMARK   21  A    between atoms: P_28  and  O_31 
DOCKED: REMARK   22  A    between atoms: O_32  and  P_33 
DOCKED: REMARK   23  A    between atoms: P_33  and  O_35 
DOCKED: REMARK   24  A    between atoms: P_33  and  O_36 
DOCKED: USER                              x       y       z     vdW  Elec       q    Type
DOCKED: USER                           _______ _______ _______ _____ _____    ______ ____
DOCKED: ROOT
DOCKED: ATOM      1  C   UNL d   1      15.651   6.763  -7.165 -0.12 -0.03    +0.194 C 
DOCKED: ATOM      2  C   UNL d   1      15.006   6.215  -8.440 -0.14 -0.03    +0.194 C 
DOCKED: ATOM      3  C   UNL d   1      14.986   7.260  -9.558 -0.10 -0.03    +0.194 C 
DOCKED: ATOM      4  C   UNL d   1      16.355   7.881  -9.824 -0.01 -0.02    +0.194 C 
DOCKED: ATOM      5  C   UNL d   1      17.085   8.338  -8.568 -0.01 -0.02    +0.194 C 
DOCKED: ATOM      6  C   UNL d   1      17.051   7.318  -7.427 -0.02 -0.02    +0.194 C 
DOCKED: ENDROOT
DOCKED: BRANCH   1   7
DOCKED: ATOM      7  O   UNL d   1      15.787   5.685  -6.236 -0.08 +0.05    -0.278 OA
DOCKED: BRANCH   7   8
DOCKED: ATOM      8  P   UNL d   1      14.461   4.971  -5.702 -0.25 -0.08    +0.473 P 
DOCKED: ATOM      9  O   UNL d   1      14.597   3.516  -5.420 -0.23 +0.04    -0.228 OA
DOCKED: BRANCH   8  10
DOCKED: ATOM     10  O   UNL d   1      14.053   5.824  -4.417 -0.89 +0.13    -0.303 OA
DOCKED: ATOM     11  H   UNL d   1      13.190   6.253  -4.569 -0.38 -0.08    +0.222 HD
DOCKED: ENDBRANCH   8  10
DOCKED: BRANCH   8  12
DOCKED: ATOM     12  O   UNL d   1      13.328   5.373  -6.741 -0.52 +0.01    -0.303 OA
DOCKED: ATOM     13  H   UNL d   1      12.986   4.607  -7.254 -0.41 -0.06    +0.222 HD
DOCKED: ENDBRANCH   8  12
DOCKED: ENDBRANCH   7   8
DOCKED: ENDBRANCH   1   7
DOCKED: BRANCH   2  14
DOCKED: ATOM     14  O   UNL d   1      15.753   5.078  -8.890 -0.03 +0.04    -0.278 OA
DOCKED: BRANCH  14  15
DOCKED: ATOM     15  P   UNL d   1      14.905   3.799  -9.344 -0.05 -0.09    +0.473 P 
DOCKED: ATOM     16  O   UNL d   1      13.580   3.599  -8.677 -0.20 +0.07    -0.228 OA
DOCKED: BRANCH  15  17
DOCKED: ATOM     17  O   UNL d   1      14.782   3.955 -10.925 -0.08 +0.07    -0.303 OA
DOCKED: ATOM     18  H   UNL d   1      14.013   4.507 -11.165 -0.02 -0.08    +0.222 HD
DOCKED: ENDBRANCH  15  17
DOCKED: BRANCH  15  19
DOCKED: ATOM     19  O   UNL d   1      15.924   2.583  -9.222 -0.01 +0.04    -0.303 OA
DOCKED: ATOM     20  H   UNL d   1      16.038   2.300  -8.296 +0.03 -0.02    +0.222 HD
DOCKED: ENDBRANCH  15  19
DOCKED: ENDBRANCH  14  15
DOCKED: ENDBRANCH   2  14
DOCKED: BRANCH   6  21
DOCKED: ATOM     21  O   UNL d   1      17.457   8.006  -6.246 -0.01 +0.04    -0.278 OA
DOCKED: BRANCH  21  22
DOCKED: ATOM     22  P   UNL d   1      19.009   8.216  -5.946 +0.02 -0.04    +0.473 P 
DOCKED: ATOM     23  O   UNL d   1      19.526   7.825  -4.602 +0.00 +0.02    -0.228 OA
DOCKED: BRANCH  22  24
DOCKED: ATOM     24  O   UNL d   1      19.684   7.453  -7.168 +0.00 +0.02    -0.303 OA
DOCKED: ATOM     25  H   UNL d   1      19.996   8.130  -7.820 +0.00 -0.01    +0.222 HD
DOCKED: ENDBRANCH  22  24
DOCKED: BRANCH  22  26
DOCKED: ATOM     26  O   UNL d   1      19.216   9.751  -6.359 +0.00 +0.03    -0.303 OA
DOCKED: ATOM     27  H   UNL d   1      18.745   9.924  -7.199 +0.01 -0.02    +0.222 HD
DOCKED: ENDBRANCH  22  26
DOCKED: ENDBRANCH  21  22
DOCKED: ENDBRANCH   6  21
DOCKED: BRANCH   3  28
DOCKED: ATOM     28  O   UNL d   1      14.635   6.591 -10.762 -0.08 +0.05    -0.278 OA
DOCKED: BRANCH  28  29
DOCKED: ATOM     29  P   UNL d   1      13.145   6.668 -11.320 -0.11 -0.14    +0.473 P 
DOCKED: ATOM     30  O   UNL d   1      13.017   6.730 -12.799 -0.25 +0.05    -0.228 OA
DOCKED: BRANCH  29  31
DOCKED: ATOM     31  O   UNL d   1      12.507   5.396 -10.589 -0.32 +0.14    -0.303 OA
DOCKED: ATOM     32  H   UNL d   1      13.151   5.060  -9.924 +0.03 -0.10    +0.222 HD
DOCKED: ENDBRANCH  29  31
DOCKED: BRANCH  29  33
DOCKED: ATOM     33  O   UNL d   1      12.542   7.888 -10.493 -0.23 +0.10    -0.303 OA
DOCKED: ATOM     34  H   UNL d   1      11.701   8.183 -10.923 -0.29 -0.14    +0.222 HD
DOCKED: ENDBRANCH  29  33
DOCKED: ENDBRANCH  28  29
DOCKED: ENDBRANCH   3  28
DOCKED: BRANCH   5  35
DOCKED: ATOM     35  O   UNL d   1      18.450   8.497  -8.949 +0.00 +0.02    -0.278 OA
DOCKED: BRANCH  35  36
DOCKED: ATOM     36  P   UNL d   1      19.051   9.953  -9.200 +0.01 -0.03    +0.473 P 
DOCKED: ATOM     37  O   UNL d   1      20.423  10.187  -8.653 +0.00 +0.01    -0.228 OA
DOCKED: BRANCH  36  38
DOCKED: ATOM     38  O   UNL d   1      18.946  10.080 -10.784 +0.00 +0.02    -0.303 OA
DOCKED: ATOM     39  H   UNL d   1      18.213   9.511 -11.104 +0.00 -0.02    +0.222 HD
DOCKED: ENDBRANCH  36  38
DOCKED: BRANCH  36  40
DOCKED: ATOM     40  O   UNL d   1      17.889  10.897  -8.663 +0.00 +0.03    -0.303 OA
DOCKED: ATOM     41  H   UNL d   1      17.903  10.970  -7.682 +0.01 -0.02    +0.222 HD
DOCKED: ENDBRANCH  36  40
DOCKED: ENDBRANCH  35  36
DOCKED: ENDBRANCH   5  35
DOCKED: BRANCH   4  42
DOCKED: ATOM     42  O   UNL d   1      16.132   9.045 -10.628 -0.00 +0.03    -0.278 OA
DOCKED: BRANCH  42  43
DOCKED: ATOM     43  P   UNL d   1      16.544   9.009 -12.168 +0.01 -0.04    +0.473 P 
DOCKED: ATOM     44  O   UNL d   1      17.047  10.274 -12.775 +0.00 +0.02    -0.228 OA
DOCKED: BRANCH  43  45
DOCKED: ATOM     45  O   UNL d   1      17.581   7.803 -12.225 -0.00 +0.02    -0.303 OA
DOCKED: ATOM     46  H   UNL d   1      18.393   8.006 -11.719 +0.00 -0.01    +0.222 HD
DOCKED: ENDBRANCH  43  45
DOCKED: BRANCH  43  47
DOCKED: ATOM     47  O   UNL d   1      15.258   8.366 -12.877 -0.01 +0.03    -0.303 OA
DOCKED: ATOM     48  H   UNL d   1      14.583   8.162 -12.196 +0.04 -0.03    +0.222 HD
DOCKED: ENDBRANCH  43  47
DOCKED: ENDBRANCH  42  43
DOCKED: ENDBRANCH   4  42
DOCKED: TORSDOF 24
DOCKED: TER
DOCKED: ENDMDL
________________________________________________________________________________


	BEGINNING GENETIC ALGORITHM DOCKING 37 of 100
Run: 37 Seed: 412103251 335260798 [ Run 37 of 100 GA/GALS ]
Beginning LAMARCKIAN GENETIC ALGORITHM (LGA), with a maximum of 25000000 energy evaluations.

Final-Value: -17.491


	FINAL GENETIC ALGORITHM DOCKED STATE
	_______________________________________________


Detailed state:  trans -11.556 5.181 10.394 quatxyzw 0.083379 0.830867 0.297631 0.462736 center 0.035 0.082 -0.065 ntor 24 -108.1151 39.5016 59.3361 7.5702 20.8861 -155.0225 -95.1097 -20.5542 132.6454 -43.2100 -174.9459 -82.9205 -156.9876 -180.0000 -53.2680 -148.0316 161.4925 95.1319 35.6086 -25.0371 -179.2222 -35.0648 27.4486 165.2620
State:	-11.556   5.181  10.394   0.094  0.937  0.336 124.872   -108.12   39.50   59.34    7.57   20.89 -155.02  -95.11  -20.55  132.65  -43.21 -174.95  -82.92 -156.99 -180.00  -53.27 -148.03  161.49   95.13   35.61  -25.04 -179.22  -35.06   27.45  165.26

DOCKED: MODEL       37
DOCKED: USER    Run = 37
DOCKED: USER    DPF = D:/Protein_go_brrr/autodock/final/mut_N102T/IHP/dock.dpf
DOCKED: USER  
DOCKED: USER    Estimated Free Energy of Binding    =   +3.17 kcal/mol  [=(1)+(2)+(3)-(4)]
DOCKED: USER    
DOCKED: USER    (1) Final Intermolecular Energy     =   -3.98 kcal/mol
DOCKED: USER        vdW + Hbond + desolv Energy     =   -3.98 kcal/mol
DOCKED: USER        Electrostatic Energy            =   -0.00 kcal/mol
DOCKED: USER    (2) Final Total Internal Energy     =  -13.51 kcal/mol
DOCKED: USER    (3) Torsional Free Energy           =   +7.16 kcal/mol
DOCKED: USER    (4) Unbound System's Energy  [=(2)] =  -13.51 kcal/mol
DOCKED: USER    
DOCKED: USER    
DOCKED: USER    NEWDPF move IHP_ideal_opt.pdbqt
DOCKED: USER    NEWDPF about 0.035000 0.082000 -0.065000
DOCKED: USER    NEWDPF tran0 -11.555595 5.180601 10.394436
DOCKED: USER    NEWDPF quaternion0 0.083379 0.830867 0.297631 0.462736
DOCKED: USER    NEWDPF axisangle0 0.094055 0.937248 0.335738 124.872393
DOCKED: USER    NEWDPF quat0 0.094055 0.937248 0.335738 124.872393
DOCKED: USER    NEWDPF dihe0 -108.12 39.50 59.34 7.57 20.89 -155.02 -95.11 -20.55 132.65 -43.21 -174.95 -82.92 -156.99 -180.00 -53.27 -148.03 161.49 95.13 35.61 -25.04 -179.22 -35.06 27.45 165.26 
DOCKED: USER  keepresnum = 1 
DOCKED: USER  
DOCKED: REMARK  24 active torsions:
DOCKED: REMARK  status: ('A' for Active; 'I' for Inactive)
DOCKED: REMARK    1  A    between atoms: C_1  and  O_7 
DOCKED: REMARK    2  A    between atoms: C_2  and  O_12 
DOCKED: REMARK    3  A    between atoms: C_3  and  O_17 
DOCKED: REMARK    4  A    between atoms: C_4  and  O_22 
DOCKED: REMARK    5  A    between atoms: C_5  and  O_27 
DOCKED: REMARK    6  A    between atoms: C_6  and  O_32 
DOCKED: REMARK    7  A    between atoms: O_7  and  P_8 
DOCKED: REMARK    8  A    between atoms: P_8  and  O_10 
DOCKED: REMARK    9  A    between atoms: P_8  and  O_11 
DOCKED: REMARK   10  A    between atoms: O_12  and  P_13 
DOCKED: REMARK   11  A    between atoms: P_13  and  O_15 
DOCKED: REMARK   12  A    between atoms: P_13  and  O_16 
DOCKED: REMARK   13  A    between atoms: O_17  and  P_18 
DOCKED: REMARK   14  A    between atoms: P_18  and  O_20 
DOCKED: REMARK   15  A    between atoms: P_18  and  O_21 
DOCKED: REMARK   16  A    between atoms: O_22  and  P_23 
DOCKED: REMARK   17  A    between atoms: P_23  and  O_25 
DOCKED: REMARK   18  A    between atoms: P_23  and  O_26 
DOCKED: REMARK   19  A    between atoms: O_27  and  P_28 
DOCKED: REMARK   20  A    between atoms: P_28  and  O_30 
DOCKED: REMARK   21  A    between atoms: P_28  and  O_31 
DOCKED: REMARK   22  A    between atoms: O_32  and  P_33 
DOCKED: REMARK   23  A    between atoms: P_33  and  O_35 
DOCKED: REMARK   24  A    between atoms: P_33  and  O_36 
DOCKED: USER                              x       y       z     vdW  Elec       q    Type
DOCKED: USER                           _______ _______ _______ _____ _____    ______ ____
DOCKED: ROOT
DOCKED: ATOM      1  C   UNL d   1     -13.191   4.743  10.737 -0.08 -0.01    +0.194 C 
DOCKED: ATOM      2  C   UNL d   1     -12.562   4.052   9.526 -0.15 -0.01    +0.194 C 
DOCKED: ATOM      3  C   UNL d   1     -11.755   5.032   8.671 -0.23 -0.00    +0.194 C 
DOCKED: ATOM      4  C   UNL d   1     -10.732   5.830   9.476 -0.00 +0.00    +0.194 C 
DOCKED: ATOM      5  C   UNL d   1     -11.289   6.442  10.755 -0.18 +0.00    +0.194 C 
DOCKED: ATOM      6  C   UNL d   1     -12.148   5.480  11.579 -0.14 -0.00    +0.194 C 
DOCKED: ENDROOT
DOCKED: BRANCH   1   7
DOCKED: ATOM      7  O   UNL d   1     -13.777   3.739  11.569 -0.03 +0.01    -0.278 OA
DOCKED: BRANCH   7   8
DOCKED: ATOM      8  P   UNL d   1     -15.276   3.278  11.262 +0.00 -0.02    +0.473 P 
DOCKED: ATOM      9  O   UNL d   1     -16.300   3.790  12.213 -0.00 +0.01    -0.228 OA
DOCKED: BRANCH   8  10
DOCKED: ATOM     10  O   UNL d   1     -15.525   3.749   9.758 -0.00 +0.02    -0.303 OA
DOCKED: ATOM     11  H   UNL d   1     -15.326   3.015   9.149 +0.01 -0.01    +0.222 HD
DOCKED: ENDBRANCH   8  10
DOCKED: BRANCH   8  12
DOCKED: ATOM     12  O   UNL d   1     -15.199   1.699  11.108 -0.00 +0.02    -0.303 OA
DOCKED: ATOM     13  H   UNL d   1     -14.279   1.353  11.138 +0.02 -0.02    +0.222 HD
DOCKED: ENDBRANCH   8  12
DOCKED: ENDBRANCH   7   8
DOCKED: ENDBRANCH   1   7
DOCKED: BRANCH   2  14
DOCKED: ATOM     14  O   UNL d   1     -11.686   3.015   9.982 -0.16 +0.03    -0.278 OA
DOCKED: BRANCH  14  15
DOCKED: ATOM     15  P   UNL d   1     -12.199   1.510   9.793 -0.13 -0.07    +0.473 P 
DOCKED: ATOM     16  O   UNL d   1     -12.250   0.657  11.022 -0.13 +0.03    -0.228 OA
DOCKED: BRANCH  15  17
DOCKED: ATOM     17  O   UNL d   1     -13.621   1.670   9.094 -0.03 +0.04    -0.303 OA
DOCKED: ATOM     18  H   UNL d   1     -14.094   2.454   9.434 +0.03 -0.02    +0.222 HD
DOCKED: ENDBRANCH  15  17
DOCKED: BRANCH  15  19
DOCKED: ATOM     19  O   UNL d   1     -11.318   0.938   8.598 -0.22 +0.07    -0.303 OA
DOCKED: ATOM     20  H   UNL d   1     -11.346   1.523   7.818 +0.10 -0.04    +0.222 HD
DOCKED: ENDBRANCH  15  19
DOCKED: ENDBRANCH  14  15
DOCKED: ENDBRANCH   2  14
DOCKED: BRANCH   6  21
DOCKED: ATOM     21  O   UNL d   1     -12.859   6.272  12.527 -0.04 +0.00    -0.278 OA
DOCKED: BRANCH  21  22
DOCKED: ATOM     22  P   UNL d   1     -14.150   7.089  12.067 +0.00 -0.01    +0.473 P 
DOCKED: ATOM     23  O   UNL d   1     -14.286   7.437  10.623 -0.01 +0.01    -0.228 OA
DOCKED: BRANCH  22  24
DOCKED: ATOM     24  O   UNL d   1     -15.328   6.194  12.653 -0.00 +0.01    -0.303 OA
DOCKED: ATOM     25  H   UNL d   1     -15.129   5.246  12.442 +0.01 -0.01    +0.222 HD
DOCKED: ENDBRANCH  22  24
DOCKED: BRANCH  22  26
DOCKED: ATOM     26  O   UNL d   1     -14.133   8.325  13.089 -0.00 +0.01    -0.303 OA
DOCKED: ATOM     27  H   UNL d   1     -13.207   8.532  13.328 +0.02 -0.00    +0.222 HD
DOCKED: ENDBRANCH  22  26
DOCKED: ENDBRANCH  21  22
DOCKED: ENDBRANCH   6  21
DOCKED: BRANCH   3  28
DOCKED: ATOM     28  O   UNL d   1     -10.993   4.266   7.747 -0.66 -0.03    -0.278 OA
DOCKED: BRANCH  28  29
DOCKED: ATOM     29  P   UNL d   1     -11.694   3.606   6.478 -0.14 -0.01    +0.473 P 
DOCKED: ATOM     30  O   UNL d   1     -10.831   2.716   5.660 -0.23 +0.02    -0.228 OA
DOCKED: BRANCH  29  31
DOCKED: ATOM     31  O   UNL d   1     -12.968   2.938   7.180 -0.06 +0.03    -0.303 OA
DOCKED: ATOM     32  H   UNL d   1     -12.675   2.502   8.013 +0.07 -0.02    +0.222 HD
DOCKED: ENDBRANCH  29  31
DOCKED: BRANCH  29  33
DOCKED: ATOM     33  O   UNL d   1     -12.321   4.874   5.746 -0.10 -0.00    -0.303 OA
DOCKED: ATOM     34  H   UNL d   1     -11.688   5.630   5.816 +0.08 +0.01    +0.222 HD
DOCKED: ENDBRANCH  29  33
DOCKED: ENDBRANCH  28  29
DOCKED: ENDBRANCH   3  28
DOCKED: BRANCH   5  35
DOCKED: ATOM     35  O   UNL d   1     -10.154   6.777  11.551 -0.37 -0.03    -0.278 OA
DOCKED: BRANCH  35  36
DOCKED: ATOM     36  P   UNL d   1     -10.271   7.881  12.696 -0.21 +0.03    +0.473 P 
DOCKED: ATOM     37  O   UNL d   1      -8.999   8.584  13.046 -0.19 -0.03    -0.228 OA
DOCKED: BRANCH  36  38
DOCKED: ATOM     38  O   UNL d   1     -11.407   8.834  12.114 -0.06 +0.00    -0.303 OA
DOCKED: ATOM     39  H   UNL d   1     -12.241   8.324  12.029 +0.05 -0.00    +0.222 HD
DOCKED: ENDBRANCH  36  38
DOCKED: BRANCH  36  40
DOCKED: ATOM     40  O   UNL d   1     -11.001   7.084  13.863 -0.09 -0.01    -0.303 OA
DOCKED: ATOM     41  H   UNL d   1     -11.978   7.091  13.753 +0.05 +0.00    +0.222 HD
DOCKED: ENDBRANCH  36  40
DOCKED: ENDBRANCH  35  36
DOCKED: ENDBRANCH   5  35
DOCKED: BRANCH   4  42
DOCKED: ATOM     42  O   UNL d   1     -10.303   6.913   8.644 -0.36 +0.02    -0.278 OA
DOCKED: BRANCH  42  43
DOCKED: ATOM     43  P   UNL d   1     -11.401   7.884   8.015 -0.16 -0.05    +0.473 P 
DOCKED: ATOM     44  O   UNL d   1     -11.079   9.337   7.957 -0.17 +0.05    -0.228 OA
DOCKED: BRANCH  43  45
DOCKED: ATOM     45  O   UNL d   1     -11.681   7.222   6.595 -0.16 +0.02    -0.303 OA
DOCKED: ATOM     46  H   UNL d   1     -12.583   6.846   6.547 +0.06 -0.01    +0.222 HD
DOCKED: ENDBRANCH  43  45
DOCKED: BRANCH  43  47
DOCKED: ATOM     47  O   UNL d   1     -12.733   7.502   8.821 -0.04 +0.01    -0.303 OA
DOCKED: ATOM     48  H   UNL d   1     -12.850   8.128   9.566 +0.05 -0.01    +0.222 HD
DOCKED: ENDBRANCH  43  47
DOCKED: ENDBRANCH  42  43
DOCKED: ENDBRANCH   4  42
DOCKED: TORSDOF 24
DOCKED: TER
DOCKED: ENDMDL
________________________________________________________________________________


	BEGINNING GENETIC ALGORITHM DOCKING 38 of 100
Run: 38 Seed: 1046555635 1038886565 [ Run 38 of 100 GA/GALS ]
Beginning LAMARCKIAN GENETIC ALGORITHM (LGA), with a maximum of 25000000 energy evaluations.

Final-Value: -18.026


	FINAL GENETIC ALGORITHM DOCKED STATE
	_______________________________________________


Detailed state:  trans 12.309 0.506 12.767 quatxyzw -0.304508 -0.602888 -0.324901 0.661997 center 0.035 0.082 -0.065 ntor 24 128.0937 65.0300 129.7236 93.8982 -119.4538 -66.7301 -4.9590 -66.9947 153.8573 -14.3082 43.6077 -125.8694 133.4613 88.1870 7.7135 -96.6182 109.9591 -21.7488 44.1082 -10.2445 -69.6577 -17.5073 -48.6702 156.1808
State:	 12.309   0.506  12.767  -0.406 -0.804 -0.433 97.095    128.09   65.03  129.72   93.90 -119.45  -66.73   -4.96  -66.99  153.86  -14.31   43.61 -125.87  133.46   88.19    7.71  -96.62  109.96  -21.75   44.11  -10.24  -69.66  -17.51  -48.67  156.18

DOCKED: MODEL       38
DOCKED: USER    Run = 38
DOCKED: USER    DPF = D:/Protein_go_brrr/autodock/final/mut_N102T/IHP/dock.dpf
DOCKED: USER  
DOCKED: USER    Estimated Free Energy of Binding    =   +2.42 kcal/mol  [=(1)+(2)+(3)-(4)]
DOCKED: USER    
DOCKED: USER    (1) Final Intermolecular Energy     =   -4.74 kcal/mol
DOCKED: USER        vdW + Hbond + desolv Energy     =   -4.22 kcal/mol
DOCKED: USER        Electrostatic Energy            =   -0.52 kcal/mol
DOCKED: USER    (2) Final Total Internal Energy     =  -13.29 kcal/mol
DOCKED: USER    (3) Torsional Free Energy           =   +7.16 kcal/mol
DOCKED: USER    (4) Unbound System's Energy  [=(2)] =  -13.29 kcal/mol
DOCKED: USER    
DOCKED: USER    
DOCKED: USER    NEWDPF move IHP_ideal_opt.pdbqt
DOCKED: USER    NEWDPF about 0.035000 0.082000 -0.065000
DOCKED: USER    NEWDPF tran0 12.308922 0.505575 12.767291
DOCKED: USER    NEWDPF quaternion0 -0.304508 -0.602888 -0.324901 0.661997
DOCKED: USER    NEWDPF axisangle0 -0.406278 -0.804381 -0.433486 97.095263
DOCKED: USER    NEWDPF quat0 -0.406278 -0.804381 -0.433486 97.095263
DOCKED: USER    NEWDPF dihe0 128.09 65.03 129.72 93.90 -119.45 -66.73 -4.96 -66.99 153.86 -14.31 43.61 -125.87 133.46 88.19 7.71 -96.62 109.96 -21.75 44.11 -10.24 -69.66 -17.51 -48.67 156.18 
DOCKED: USER  keepresnum = 1 
DOCKED: USER  
DOCKED: REMARK  24 active torsions:
DOCKED: REMARK  status: ('A' for Active; 'I' for Inactive)
DOCKED: REMARK    1  A    between atoms: C_1  and  O_7 
DOCKED: REMARK    2  A    between atoms: C_2  and  O_12 
DOCKED: REMARK    3  A    between atoms: C_3  and  O_17 
DOCKED: REMARK    4  A    between atoms: C_4  and  O_22 
DOCKED: REMARK    5  A    between atoms: C_5  and  O_27 
DOCKED: REMARK    6  A    between atoms: C_6  and  O_32 
DOCKED: REMARK    7  A    between atoms: O_7  and  P_8 
DOCKED: REMARK    8  A    between atoms: P_8  and  O_10 
DOCKED: REMARK    9  A    between atoms: P_8  and  O_11 
DOCKED: REMARK   10  A    between atoms: O_12  and  P_13 
DOCKED: REMARK   11  A    between atoms: P_13  and  O_15 
DOCKED: REMARK   12  A    between atoms: P_13  and  O_16 
DOCKED: REMARK   13  A    between atoms: O_17  and  P_18 
DOCKED: REMARK   14  A    between atoms: P_18  and  O_20 
DOCKED: REMARK   15  A    between atoms: P_18  and  O_21 
DOCKED: REMARK   16  A    between atoms: O_22  and  P_23 
DOCKED: REMARK   17  A    between atoms: P_23  and  O_25 
DOCKED: REMARK   18  A    between atoms: P_23  and  O_26 
DOCKED: REMARK   19  A    between atoms: O_27  and  P_28 
DOCKED: REMARK   20  A    between atoms: P_28  and  O_30 
DOCKED: REMARK   21  A    between atoms: P_28  and  O_31 
DOCKED: REMARK   22  A    between atoms: O_32  and  P_33 
DOCKED: REMARK   23  A    between atoms: P_33  and  O_35 
DOCKED: REMARK   24  A    between atoms: P_33  and  O_36 
DOCKED: USER                              x       y       z     vdW  Elec       q    Type
DOCKED: USER                           _______ _______ _______ _____ _____    ______ ____
DOCKED: ROOT
DOCKED: ATOM      1  C   UNL d   1      13.230   0.960  11.378 -0.06 +0.06    +0.194 C 
DOCKED: ATOM      2  C   UNL d   1      12.836  -0.516  11.456 -0.04 +0.08    +0.194 C 
DOCKED: ATOM      3  C   UNL d   1      13.023  -1.079  12.867 -0.00 +0.06    +0.194 C 
DOCKED: ATOM      4  C   UNL d   1      12.338  -0.241  13.944 -0.02 +0.05    +0.194 C 
DOCKED: ATOM      5  C   UNL d   1      12.612   1.253  13.835 -0.07 +0.06    +0.194 C 
DOCKED: ATOM      6  C   UNL d   1      12.485   1.804  12.413 -0.12 +0.06    +0.194 C 
DOCKED: ENDROOT
DOCKED: BRANCH   1   7
DOCKED: ATOM      7  O   UNL d   1      12.867   1.451  10.086 -0.11 -0.08    -0.278 OA
DOCKED: BRANCH   7   8
DOCKED: ATOM      8  P   UNL d   1      13.813   1.101   8.847 -0.09 +0.13    +0.473 P 
DOCKED: ATOM      9  O   UNL d   1      13.432   1.746   7.561 -0.25 -0.05    -0.228 OA
DOCKED: BRANCH   8  10
DOCKED: ATOM     10  O   UNL d   1      15.272   1.510   9.347 -0.03 -0.06    -0.303 OA
DOCKED: ATOM     11  H   UNL d   1      15.205   2.245   9.984 +0.04 +0.04    +0.222 HD
DOCKED: ENDBRANCH   8  10
DOCKED: BRANCH   8  12
DOCKED: ATOM     12  O   UNL d   1      13.900  -0.485   8.829 -0.07 -0.14    -0.303 OA
DOCKED: ATOM     13  H   UNL d   1      13.166  -0.917   9.322 +0.06 +0.15    +0.222 HD
DOCKED: ENDBRANCH   8  12
DOCKED: ENDBRANCH   7   8
DOCKED: ENDBRANCH   1   7
DOCKED: BRANCH   2  14
DOCKED: ATOM     14  O   UNL d   1      11.457  -0.651  11.090 -0.13 -0.14    -0.278 OA
DOCKED: BRANCH  14  15
DOCKED: ATOM     15  P   UNL d   1      11.138  -1.603   9.842 -0.06 +0.53    +0.473 P 
DOCKED: ATOM     16  O   UNL d   1       9.883  -2.415   9.920 -0.66 -0.30    -0.228 OA
DOCKED: BRANCH  15  17
DOCKED: ATOM     17  O   UNL d   1      11.161  -0.621   8.589 -0.54 -0.26    -0.303 OA
DOCKED: ATOM     18  H   UNL d   1      11.822   0.088   8.710 +0.10 +0.12    +0.222 HD
DOCKED: ENDBRANCH  15  17
DOCKED: BRANCH  15  19
DOCKED: ATOM     19  O   UNL d   1      12.478  -2.432   9.623 -0.31 -0.53    -0.303 OA
DOCKED: ATOM     20  H   UNL d   1      12.928  -2.620  10.468 +0.03 +0.24    +0.222 HD
DOCKED: ENDBRANCH  15  19
DOCKED: ENDBRANCH  14  15
DOCKED: ENDBRANCH   2  14
DOCKED: BRANCH   6  21
DOCKED: ATOM     21  O   UNL d   1      13.092   3.094  12.415 -0.14 -0.09    -0.278 OA
DOCKED: BRANCH  21  22
DOCKED: ATOM     22  P   UNL d   1      12.965   4.031  11.130 -0.18 +0.14    +0.473 P 
DOCKED: ATOM     23  O   UNL d   1      11.675   4.031  10.382 -0.40 -0.05    -0.228 OA
DOCKED: BRANCH  22  24
DOCKED: ATOM     24  O   UNL d   1      13.397   5.447  11.716 -0.12 -0.11    -0.303 OA
DOCKED: ATOM     25  H   UNL d   1      13.438   6.092  10.964 +0.09 +0.06    +0.222 HD
DOCKED: ENDBRANCH  22  24
DOCKED: BRANCH  22  26
DOCKED: ATOM     26  O   UNL d   1      14.265   3.610  10.291 -0.10 -0.07    -0.303 OA
DOCKED: ATOM     27  H   UNL d   1      13.985   3.248   9.425 +0.09 +0.05    +0.222 HD
DOCKED: ENDBRANCH  22  26
DOCKED: ENDBRANCH  21  22
DOCKED: ENDBRANCH   6  21
DOCKED: BRANCH   3  28
DOCKED: ATOM     28  O   UNL d   1      12.381  -2.347  12.911 -0.00 -0.10    -0.278 OA
DOCKED: BRANCH  28  29
DOCKED: ATOM     29  P   UNL d   1      13.205  -3.677  12.611 +0.01 +0.19    +0.473 P 
DOCKED: ATOM     30  O   UNL d   1      12.688  -4.514  11.499 -0.05 -0.18    -0.228 OA
DOCKED: BRANCH  29  31
DOCKED: ATOM     31  O   UNL d   1      14.673  -3.062  12.436 +0.00 -0.09    -0.303 OA
DOCKED: ATOM     32  H   UNL d   1      14.841  -2.434  13.177 +0.00 +0.05    +0.222 HD
DOCKED: ENDBRANCH  29  31
DOCKED: BRANCH  29  33
DOCKED: ATOM     33  O   UNL d   1      13.278  -4.355  14.050 +0.00 -0.07    -0.303 OA
DOCKED: ATOM     34  H   UNL d   1      12.921  -3.724  14.721 +0.00 +0.05    +0.222 HD
DOCKED: ENDBRANCH  29  33
DOCKED: ENDBRANCH  28  29
DOCKED: ENDBRANCH   3  28
DOCKED: BRANCH   5  35
DOCKED: ATOM     35  O   UNL d   1      11.607   1.889  14.623 -0.14 -0.12    -0.278 OA
DOCKED: BRANCH  35  36
DOCKED: ATOM     36  P   UNL d   1      11.779   2.006  16.204 -0.16 +0.28    +0.473 P 
DOCKED: ATOM     37  O   UNL d   1      11.051   3.142  16.850 -0.72 -0.30    -0.228 OA
DOCKED: BRANCH  36  38
DOCKED: ATOM     38  O   UNL d   1      11.306   0.565  16.690 -0.08 -0.11    -0.303 OA
DOCKED: ATOM     39  H   UNL d   1      12.059  -0.060  16.622 +0.03 +0.06    +0.222 HD
DOCKED: ENDBRANCH  36  38
DOCKED: BRANCH  36  40
DOCKED: ATOM     40  O   UNL d   1      13.359   1.969  16.378 -0.04 -0.14    -0.303 OA
DOCKED: ATOM     41  H   UNL d   1      13.752   1.165  15.970 +0.03 +0.07    +0.222 HD
DOCKED: ENDBRANCH  36  40
DOCKED: ENDBRANCH  35  36
DOCKED: ENDBRANCH   5  35
DOCKED: BRANCH   4  42
DOCKED: ATOM     42  O   UNL d   1      12.864  -0.675  15.203 -0.00 -0.06    -0.278 OA
DOCKED: BRANCH  42  43
DOCKED: ATOM     43  P   UNL d   1      14.438  -0.889  15.349 +0.01 +0.08    +0.473 P 
DOCKED: ATOM     44  O   UNL d   1      15.323  -0.141  14.412 -0.00 -0.04    -0.228 OA
DOCKED: BRANCH  43  45
DOCKED: ATOM     45  O   UNL d   1      14.694  -0.564  16.885 +0.00 -0.05    -0.303 OA
DOCKED: ATOM     46  H   UNL d   1      14.046   0.085  17.227 +0.01 +0.04    +0.222 HD
DOCKED: ENDBRANCH  43  45
DOCKED: BRANCH  43  47
DOCKED: ATOM     47  O   UNL d   1      14.594  -2.484  15.323 +0.00 -0.05    -0.303 OA
DOCKED: ATOM     48  H   UNL d   1      14.147  -2.839  14.527 +0.00 +0.04    +0.222 HD
DOCKED: ENDBRANCH  43  47
DOCKED: ENDBRANCH  42  43
DOCKED: ENDBRANCH   4  42
DOCKED: TORSDOF 24
DOCKED: TER
DOCKED: ENDMDL
________________________________________________________________________________


	BEGINNING GENETIC ALGORITHM DOCKING 39 of 100
Run: 39 Seed: 1508645829 1736902423 [ Run 39 of 100 GA/GALS ]
Beginning LAMARCKIAN GENETIC ALGORITHM (LGA), with a maximum of 25000000 energy evaluations.

Final-Value: -19.099


	FINAL GENETIC ALGORITHM DOCKED STATE
	_______________________________________________


Detailed state:  trans -6.329 14.173 12.737 quatxyzw -0.036536 -0.695540 0.652156 0.299302 center 0.035 0.082 -0.065 ntor 24 -142.9050 -25.3040 41.6217 79.5072 105.2013 -180.0000 -93.2940 -8.9628 72.5305 -31.7262 -178.5084 106.6439 36.2946 139.7047 -178.3695 -150.7027 50.9117 0.9153 -139.7358 -21.0193 16.4743 -20.4906 -175.3562 178.2176
State:	 -6.329  14.173  12.737  -0.038 -0.729  0.683 145.169   -142.90  -25.30   41.62   79.51  105.20 -180.00  -93.29   -8.96   72.53  -31.73 -178.51  106.64   36.29  139.70 -178.37 -150.70   50.91    0.92 -139.74  -21.02   16.47  -20.49 -175.36  178.22

DOCKED: MODEL       39
DOCKED: USER    Run = 39
DOCKED: USER    DPF = D:/Protein_go_brrr/autodock/final/mut_N102T/IHP/dock.dpf
DOCKED: USER  
DOCKED: USER    Estimated Free Energy of Binding    =   +0.94 kcal/mol  [=(1)+(2)+(3)-(4)]
DOCKED: USER    
DOCKED: USER    (1) Final Intermolecular Energy     =   -6.22 kcal/mol
DOCKED: USER        vdW + Hbond + desolv Energy     =   -5.99 kcal/mol
DOCKED: USER        Electrostatic Energy            =   -0.23 kcal/mol
DOCKED: USER    (2) Final Total Internal Energy     =  -12.88 kcal/mol
DOCKED: USER    (3) Torsional Free Energy           =   +7.16 kcal/mol
DOCKED: USER    (4) Unbound System's Energy  [=(2)] =  -12.88 kcal/mol
DOCKED: USER    
DOCKED: USER    
DOCKED: USER    NEWDPF move IHP_ideal_opt.pdbqt
DOCKED: USER    NEWDPF about 0.035000 0.082000 -0.065000
DOCKED: USER    NEWDPF tran0 -6.329255 14.173400 12.736577
DOCKED: USER    NEWDPF quaternion0 -0.036536 -0.695540 0.652156 0.299302
DOCKED: USER    NEWDPF axisangle0 -0.038291 -0.728956 0.683488 145.168606
DOCKED: USER    NEWDPF quat0 -0.038291 -0.728956 0.683488 145.168606
DOCKED: USER    NEWDPF dihe0 -142.90 -25.30 41.62 79.51 105.20 -180.00 -93.29 -8.96 72.53 -31.73 -178.51 106.64 36.29 139.70 -178.37 -150.70 50.91 0.92 -139.74 -21.02 16.47 -20.49 -175.36 178.22 
DOCKED: USER  keepresnum = 1 
DOCKED: USER  
DOCKED: REMARK  24 active torsions:
DOCKED: REMARK  status: ('A' for Active; 'I' for Inactive)
DOCKED: REMARK    1  A    between atoms: C_1  and  O_7 
DOCKED: REMARK    2  A    between atoms: C_2  and  O_12 
DOCKED: REMARK    3  A    between atoms: C_3  and  O_17 
DOCKED: REMARK    4  A    between atoms: C_4  and  O_22 
DOCKED: REMARK    5  A    between atoms: C_5  and  O_27 
DOCKED: REMARK    6  A    between atoms: C_6  and  O_32 
DOCKED: REMARK    7  A    between atoms: O_7  and  P_8 
DOCKED: REMARK    8  A    between atoms: P_8  and  O_10 
DOCKED: REMARK    9  A    between atoms: P_8  and  O_11 
DOCKED: REMARK   10  A    between atoms: O_12  and  P_13 
DOCKED: REMARK   11  A    between atoms: P_13  and  O_15 
DOCKED: REMARK   12  A    between atoms: P_13  and  O_16 
DOCKED: REMARK   13  A    between atoms: O_17  and  P_18 
DOCKED: REMARK   14  A    between atoms: P_18  and  O_20 
DOCKED: REMARK   15  A    between atoms: P_18  and  O_21 
DOCKED: REMARK   16  A    between atoms: O_22  and  P_23 
DOCKED: REMARK   17  A    between atoms: P_23  and  O_25 
DOCKED: REMARK   18  A    between atoms: P_23  and  O_26 
DOCKED: REMARK   19  A    between atoms: O_27  and  P_28 
DOCKED: REMARK   20  A    between atoms: P_28  and  O_30 
DOCKED: REMARK   21  A    between atoms: P_28  and  O_31 
DOCKED: REMARK   22  A    between atoms: O_32  and  P_33 
DOCKED: REMARK   23  A    between atoms: P_33  and  O_35 
DOCKED: REMARK   24  A    between atoms: P_33  and  O_36 
DOCKED: USER                              x       y       z     vdW  Elec       q    Type
DOCKED: USER                           _______ _______ _______ _____ _____    ______ ____
DOCKED: ROOT
DOCKED: ATOM      1  C   UNL d   1      -7.455  12.883  12.965 -0.04 -0.01    +0.194 C 
DOCKED: ATOM      2  C   UNL d   1      -6.924  13.531  14.245 -0.07 -0.02    +0.194 C 
DOCKED: ATOM      3  C   UNL d   1      -5.418  13.787  14.168 -0.14 -0.04    +0.194 C 
DOCKED: ATOM      4  C   UNL d   1      -5.001  14.555  12.916 -0.19 -0.03    +0.194 C 
DOCKED: ATOM      5  C   UNL d   1      -5.600  14.011  11.626 -0.21 -0.03    +0.194 C 
DOCKED: ATOM      6  C   UNL d   1      -7.095  13.697  11.722 -0.12 -0.02    +0.194 C 
DOCKED: ENDROOT
DOCKED: BRANCH   1   7
DOCKED: ATOM      7  O   UNL d   1      -8.881  12.837  13.046 -0.06 +0.02    -0.278 OA
DOCKED: BRANCH   7   8
DOCKED: ATOM      8  P   UNL d   1      -9.720  13.983  12.315 -0.02 -0.03    +0.473 P 
DOCKED: ATOM      9  O   UNL d   1     -10.050  13.712  10.890 -0.03 +0.02    -0.228 OA
DOCKED: BRANCH   8  10
DOCKED: ATOM     10  O   UNL d   1     -11.011  14.164  13.235 -0.01 +0.02    -0.303 OA
DOCKED: ATOM     11  H   UNL d   1     -10.737  14.414  14.137 +0.01 -0.01    +0.222 HD
DOCKED: ENDBRANCH   8  10
DOCKED: BRANCH   8  12
DOCKED: ATOM     12  O   UNL d   1      -8.919  15.326  12.599 -0.01 +0.02    -0.303 OA
DOCKED: ATOM     13  H   UNL d   1      -8.974  15.617  13.537 +0.01 -0.02    +0.222 HD
DOCKED: ENDBRANCH   8  12
DOCKED: ENDBRANCH   7   8
DOCKED: ENDBRANCH   1   7
DOCKED: BRANCH   2  14
DOCKED: ATOM     14  O   UNL d   1      -7.590  14.785  14.444 -0.01 +0.03    -0.278 OA
DOCKED: BRANCH  14  15
DOCKED: ATOM     15  P   UNL d   1      -8.612  14.865  15.674 -0.00 -0.04    +0.473 P 
DOCKED: ATOM     16  O   UNL d   1      -9.561  16.023  15.685 -0.00 +0.02    -0.228 OA
DOCKED: BRANCH  15  17
DOCKED: ATOM     17  O   UNL d   1      -9.357  13.457  15.651 -0.01 +0.02    -0.303 OA
DOCKED: ATOM     18  H   UNL d   1      -9.750  13.281  14.774 +0.01 -0.01    +0.222 HD
DOCKED: ENDBRANCH  15  17
DOCKED: BRANCH  15  19
DOCKED: ATOM     19  O   UNL d   1      -7.693  14.719  16.964 -0.00 +0.03    -0.303 OA
DOCKED: ATOM     20  H   UNL d   1      -6.761  14.926  16.767 +0.02 -0.03    +0.222 HD
DOCKED: ENDBRANCH  15  19
DOCKED: ENDBRANCH  14  15
DOCKED: ENDBRANCH   2  14
DOCKED: BRANCH   6  21
DOCKED: ATOM     21  O   UNL d   1      -7.421  12.896  10.588 -0.15 +0.05    -0.278 OA
DOCKED: BRANCH  21  22
DOCKED: ATOM     22  P   UNL d   1      -7.794  13.597   9.204 -0.13 -0.09    +0.473 P 
DOCKED: ATOM     23  O   UNL d   1      -8.771  12.914   8.308 -0.17 +0.04    -0.228 OA
DOCKED: BRANCH  22  24
DOCKED: ATOM     24  O   UNL d   1      -8.230  15.051   9.683 -0.03 +0.03    -0.303 OA
DOCKED: ATOM     25  H   UNL d   1      -7.621  15.331  10.413 +0.05 -0.02    +0.222 HD
DOCKED: ENDBRANCH  22  24
DOCKED: BRANCH  22  26
DOCKED: ATOM     26  O   UNL d   1      -6.343  13.876   8.580 -0.19 +0.07    -0.303 OA
DOCKED: ATOM     27  H   UNL d   1      -5.663  13.467   9.152 -0.28 -0.08    +0.222 HD
DOCKED: ENDBRANCH  22  26
DOCKED: ENDBRANCH  21  22
DOCKED: ENDBRANCH   6  21
DOCKED: BRANCH   3  28
DOCKED: ATOM     28  O   UNL d   1      -5.070  14.628  15.260 -0.10 +0.07    -0.278 OA
DOCKED: BRANCH  28  29
DOCKED: ATOM     29  P   UNL d   1      -4.642  13.996  16.659 -0.06 -0.11    +0.473 P 
DOCKED: ATOM     30  O   UNL d   1      -4.376  14.971  17.747 -0.10 +0.05    -0.228 OA
DOCKED: BRANCH  29  31
DOCKED: ATOM     31  O   UNL d   1      -5.850  12.970  16.882 -0.02 +0.04    -0.303 OA
DOCKED: ATOM     32  H   UNL d   1      -6.690  13.412  16.618 +0.03 -0.03    +0.222 HD
DOCKED: ENDBRANCH  29  31
DOCKED: BRANCH  29  33
DOCKED: ATOM     33  O   UNL d   1      -3.441  13.039  16.239 -0.18 +0.09    -0.303 OA
DOCKED: ATOM     34  H   UNL d   1      -2.802  13.550  15.684 -0.29 -0.11    +0.222 HD
DOCKED: ENDBRANCH  29  33
DOCKED: ENDBRANCH  28  29
DOCKED: ENDBRANCH   3  28
DOCKED: BRANCH   5  35
DOCKED: ATOM     35  O   UNL d   1      -5.450  15.050  10.661 -0.16 +0.03    -0.278 OA
DOCKED: BRANCH  35  36
DOCKED: ATOM     36  P   UNL d   1      -5.802  16.558  11.042 -0.06 -0.03    +0.473 P 
DOCKED: ATOM     37  O   UNL d   1      -4.647  17.398  11.486 -0.03 +0.00    -0.228 OA
DOCKED: BRANCH  36  38
DOCKED: ATOM     38  O   UNL d   1      -6.512  17.073   9.713 -0.06 +0.02    -0.303 OA
DOCKED: ATOM     39  H   UNL d   1      -6.568  16.333   9.071 +0.05 -0.02    +0.222 HD
DOCKED: ENDBRANCH  36  38
DOCKED: BRANCH  36  40
DOCKED: ATOM     40  O   UNL d   1      -7.001  16.378  12.071 -0.03 +0.03    -0.303 OA
DOCKED: ATOM     41  H   UNL d   1      -7.832  16.111  11.619 +0.03 -0.02    +0.222 HD
DOCKED: ENDBRANCH  36  40
DOCKED: ENDBRANCH  35  36
DOCKED: ENDBRANCH   5  35
DOCKED: BRANCH   4  42
DOCKED: ATOM     42  O   UNL d   1      -3.579  14.428  12.806 -0.31 +0.07    -0.278 OA
DOCKED: BRANCH  42  43
DOCKED: ATOM     43  P   UNL d   1      -2.955  12.993  12.496 -0.37 -0.11    +0.473 P 
DOCKED: ATOM     44  O   UNL d   1      -3.576  12.196  11.402 -0.51 +0.04    -0.228 OA
DOCKED: BRANCH  43  45
DOCKED: ATOM     45  O   UNL d   1      -1.415  13.325  12.266 -0.51 +0.12    -0.303 OA
DOCKED: ATOM     46  H   UNL d   1      -0.865  13.004  13.009 -0.25 -0.20    +0.222 HD
DOCKED: ENDBRANCH  43  45
DOCKED: BRANCH  43  47
DOCKED: ATOM     47  O   UNL d   1      -2.925  12.287  13.935 -0.83 +0.08    -0.303 OA
DOCKED: ATOM     48  H   UNL d   1      -2.200  12.674  14.469 -0.41 -0.13    +0.222 HD
DOCKED: ENDBRANCH  43  47
DOCKED: ENDBRANCH  42  43
DOCKED: ENDBRANCH   4  42
DOCKED: TORSDOF 24
DOCKED: TER
DOCKED: ENDMDL
________________________________________________________________________________


	BEGINNING GENETIC ALGORITHM DOCKING 40 of 100
Run: 40 Seed: 697057632 44050087 [ Run 40 of 100 GA/GALS ]
Beginning LAMARCKIAN GENETIC ALGORITHM (LGA), with a maximum of 25000000 energy evaluations.

Final-Value: -19.708


	FINAL GENETIC ALGORITHM DOCKED STATE
	_______________________________________________


Detailed state:  trans 3.296 -5.258 17.719 quatxyzw 0.476321 -0.008829 -0.076636 0.875881 center 0.035 0.082 -0.065 ntor 24 137.6039 54.3794 136.8844 21.3128 63.2084 16.9024 20.8030 179.9272 44.1229 -59.5266 121.2694 85.3479 159.6272 -175.4910 124.3723 121.0307 179.9165 -134.2742 44.7187 1.9488 158.5571 -17.1271 -26.3039 154.6394
State:	  3.296  -5.258  17.719   0.987 -0.018 -0.159 57.701    137.60   54.38  136.88   21.31   63.21   16.90   20.80  179.93   44.12  -59.53  121.27   85.35  159.63 -175.49  124.37  121.03  179.92 -134.27   44.72    1.95  158.56  -17.13  -26.30  154.64

DOCKED: MODEL       40
DOCKED: USER    Run = 40
DOCKED: USER    DPF = D:/Protein_go_brrr/autodock/final/mut_N102T/IHP/dock.dpf
DOCKED: USER  
DOCKED: USER    Estimated Free Energy of Binding    =   +2.38 kcal/mol  [=(1)+(2)+(3)-(4)]
DOCKED: USER    
DOCKED: USER    (1) Final Intermolecular Energy     =   -4.78 kcal/mol
DOCKED: USER        vdW + Hbond + desolv Energy     =   -4.64 kcal/mol
DOCKED: USER        Electrostatic Energy            =   -0.14 kcal/mol
DOCKED: USER    (2) Final Total Internal Energy     =  -14.92 kcal/mol
DOCKED: USER    (3) Torsional Free Energy           =   +7.16 kcal/mol
DOCKED: USER    (4) Unbound System's Energy  [=(2)] =  -14.92 kcal/mol
DOCKED: USER    
DOCKED: USER    
DOCKED: USER    NEWDPF move IHP_ideal_opt.pdbqt
DOCKED: USER    NEWDPF about 0.035000 0.082000 -0.065000
DOCKED: USER    NEWDPF tran0 3.296251 -5.257760 17.719413
DOCKED: USER    NEWDPF quaternion0 0.476321 -0.008829 -0.076636 0.875881
DOCKED: USER    NEWDPF axisangle0 0.987138 -0.018297 -0.158823 57.701210
DOCKED: USER    NEWDPF quat0 0.987138 -0.018297 -0.158823 57.701210
DOCKED: USER    NEWDPF dihe0 137.60 54.38 136.88 21.31 63.21 16.90 20.80 179.93 44.12 -59.53 121.27 85.35 159.63 -175.49 124.37 121.03 179.92 -134.27 44.72 1.95 158.56 -17.13 -26.30 154.64 
DOCKED: USER  keepresnum = 1 
DOCKED: USER  
DOCKED: REMARK  24 active torsions:
DOCKED: REMARK  status: ('A' for Active; 'I' for Inactive)
DOCKED: REMARK    1  A    between atoms: C_1  and  O_7 
DOCKED: REMARK    2  A    between atoms: C_2  and  O_12 
DOCKED: REMARK    3  A    between atoms: C_3  and  O_17 
DOCKED: REMARK    4  A    between atoms: C_4  and  O_22 
DOCKED: REMARK    5  A    between atoms: C_5  and  O_27 
DOCKED: REMARK    6  A    between atoms: C_6  and  O_32 
DOCKED: REMARK    7  A    between atoms: O_7  and  P_8 
DOCKED: REMARK    8  A    between atoms: P_8  and  O_10 
DOCKED: REMARK    9  A    between atoms: P_8  and  O_11 
DOCKED: REMARK   10  A    between atoms: O_12  and  P_13 
DOCKED: REMARK   11  A    between atoms: P_13  and  O_15 
DOCKED: REMARK   12  A    between atoms: P_13  and  O_16 
DOCKED: REMARK   13  A    between atoms: O_17  and  P_18 
DOCKED: REMARK   14  A    between atoms: P_18  and  O_20 
DOCKED: REMARK   15  A    between atoms: P_18  and  O_21 
DOCKED: REMARK   16  A    between atoms: O_22  and  P_23 
DOCKED: REMARK   17  A    between atoms: P_23  and  O_25 
DOCKED: REMARK   18  A    between atoms: P_23  and  O_26 
DOCKED: REMARK   19  A    between atoms: O_27  and  P_28 
DOCKED: REMARK   20  A    between atoms: P_28  and  O_30 
DOCKED: REMARK   21  A    between atoms: P_28  and  O_31 
DOCKED: REMARK   22  A    between atoms: O_32  and  P_33 
DOCKED: REMARK   23  A    between atoms: P_33  and  O_35 
DOCKED: REMARK   24  A    between atoms: P_33  and  O_36 
DOCKED: USER                              x       y       z     vdW  Elec       q    Type
DOCKED: USER                           _______ _______ _______ _____ _____    ______ ____
DOCKED: ROOT
DOCKED: ATOM      1  C   UNL d   1       4.616  -4.914  18.780 -0.07 -0.03    +0.194 C 
DOCKED: ATOM      2  C   UNL d   1       3.518  -5.809  19.359 -0.09 -0.04    +0.194 C 
DOCKED: ATOM      3  C   UNL d   1       2.122  -5.295  19.004 -0.13 -0.05    +0.194 C 
DOCKED: ATOM      4  C   UNL d   1       1.935  -5.045  17.509 -0.25 -0.06    +0.194 C 
DOCKED: ATOM      5  C   UNL d   1       3.066  -4.253  16.866 -0.24 -0.04    +0.194 C 
DOCKED: ATOM      6  C   UNL d   1       4.463  -4.728  17.270 -0.16 -0.02    +0.194 C 
DOCKED: ENDROOT
DOCKED: BRANCH   1   7
DOCKED: ATOM      7  O   UNL d   1       5.876  -5.550  19.006 -0.03 +0.02    -0.278 OA
DOCKED: BRANCH   7   8
DOCKED: ATOM      8  P   UNL d   1       6.517  -5.468  20.467 -0.00 -0.02    +0.473 P 
DOCKED: ATOM      9  O   UNL d   1       8.004  -5.460  20.504 -0.00 +0.00    -0.228 OA
DOCKED: BRANCH   8  10
DOCKED: ATOM     10  O   UNL d   1       5.866  -4.157  21.102 +0.00 +0.03    -0.303 OA
DOCKED: ATOM     11  H   UNL d   1       5.527  -3.582  20.390 +0.02 -0.03    +0.222 HD
DOCKED: ENDBRANCH   8  10
DOCKED: BRANCH   8  12
DOCKED: ATOM     12  O   UNL d   1       5.808  -6.625  21.294 -0.00 +0.02    -0.303 OA
DOCKED: ATOM     13  H   UNL d   1       5.262  -7.220  20.734 +0.03 -0.02    +0.222 HD
DOCKED: ENDBRANCH   8  12
DOCKED: ENDBRANCH   7   8
DOCKED: ENDBRANCH   1   7
DOCKED: BRANCH   2  14
DOCKED: ATOM     14  O   UNL d   1       3.667  -7.132  18.828 -0.11 +0.09    -0.278 OA
DOCKED: BRANCH  14  15
DOCKED: ATOM     15  P   UNL d   1       3.579  -8.338  19.878 -0.08 -0.10    +0.473 P 
DOCKED: ATOM     16  O   UNL d   1       4.782  -9.221  19.989 -0.10 +0.02    -0.228 OA
DOCKED: BRANCH  15  17
DOCKED: ATOM     17  O   UNL d   1       3.205  -7.628  21.254 -0.02 +0.04    -0.303 OA
DOCKED: ATOM     18  H   UNL d   1       2.538  -6.927  21.118 +0.04 -0.03    +0.222 HD
DOCKED: ENDBRANCH  15  17
DOCKED: BRANCH  15  19
DOCKED: ATOM     19  O   UNL d   1       2.216  -9.077  19.519 -0.21 +0.08    -0.303 OA
DOCKED: ATOM     20  H   UNL d   1       1.516  -8.444  19.276 +0.03 -0.07    +0.222 HD
DOCKED: ENDBRANCH  15  19
DOCKED: ENDBRANCH  14  15
DOCKED: ENDBRANCH   2  14
DOCKED: BRANCH   6  21
DOCKED: ATOM     21  O   UNL d   1       5.375  -3.705  16.880 -0.08 +0.02    -0.278 OA
DOCKED: BRANCH  21  22
DOCKED: ATOM     22  P   UNL d   1       5.170  -2.215  17.414 -0.05 -0.05    +0.473 P 
DOCKED: ATOM     23  O   UNL d   1       6.365  -1.326  17.498 -0.13 -0.00    -0.228 OA
DOCKED: BRANCH  22  24
DOCKED: ATOM     24  O   UNL d   1       4.009  -1.686  16.464 -0.15 +0.08    -0.303 OA
DOCKED: ATOM     25  H   UNL d   1       3.797  -2.399  15.809 +0.04 -0.06    +0.222 HD
DOCKED: ENDBRANCH  22  24
DOCKED: BRANCH  22  26
DOCKED: ATOM     26  O   UNL d   1       4.384  -2.468  18.788 -0.03 +0.06    -0.303 OA
DOCKED: ATOM     27  H   UNL d   1       3.889  -1.659  19.029 +0.08 -0.07    +0.222 HD
DOCKED: ENDBRANCH  22  26
DOCKED: ENDBRANCH  21  22
DOCKED: ENDBRANCH   6  21
DOCKED: BRANCH   3  28
DOCKED: ATOM     28  O   UNL d   1       1.192  -6.318  19.335 -0.13 +0.06    -0.278 OA
DOCKED: BRANCH  28  29
DOCKED: ATOM     29  P   UNL d   1       0.474  -6.324  20.757 -0.03 -0.08    +0.473 P 
DOCKED: ATOM     30  O   UNL d   1      -0.865  -5.684  20.801 -0.04 +0.04    -0.228 OA
DOCKED: BRANCH  29  31
DOCKED: ATOM     31  O   UNL d   1       0.545  -7.886  21.098 -0.07 +0.04    -0.303 OA
DOCKED: ATOM     32  H   UNL d   1       1.476  -8.118  21.318 +0.04 -0.03    +0.222 HD
DOCKED: ENDBRANCH  29  31
DOCKED: BRANCH  29  33
DOCKED: ATOM     33  O   UNL d   1       1.599  -5.707  21.700 -0.00 +0.05    -0.303 OA
DOCKED: ATOM     34  H   UNL d   1       1.816  -6.360  22.410 +0.02 -0.03    +0.222 HD
DOCKED: ENDBRANCH  29  33
DOCKED: ENDBRANCH  28  29
DOCKED: ENDBRANCH   3  28
DOCKED: BRANCH   5  35
DOCKED: ATOM     35  O   UNL d   1       2.939  -4.468  15.462 -0.24 +0.04    -0.278 OA
DOCKED: BRANCH  35  36
DOCKED: ATOM     36  P   UNL d   1       2.340  -3.325  14.524 -0.28 -0.09    +0.473 P 
DOCKED: ATOM     37  O   UNL d   1       1.343  -3.783  13.506 -0.43 +0.04    -0.228 OA
DOCKED: BRANCH  36  38
DOCKED: ATOM     38  O   UNL d   1       1.758  -2.297  15.593 -0.20 +0.07    -0.303 OA
DOCKED: ATOM     39  H   UNL d   1       1.541  -2.782  16.418 +0.13 -0.06    +0.222 HD
DOCKED: ENDBRANCH  36  38
DOCKED: BRANCH  36  40
DOCKED: ATOM     40  O   UNL d   1       3.651  -2.610  13.979 -0.25 +0.06    -0.303 OA
DOCKED: ATOM     41  H   UNL d   1       3.834  -1.771  14.458 -0.43 -0.11    +0.222 HD
DOCKED: ENDBRANCH  36  40
DOCKED: ENDBRANCH  35  36
DOCKED: ENDBRANCH   5  35
DOCKED: BRANCH   4  42
DOCKED: ATOM     42  O   UNL d   1       0.741  -4.268  17.364 -0.20 +0.09    -0.278 OA
DOCKED: BRANCH  42  43
DOCKED: ATOM     43  P   UNL d   1       0.489  -3.049  18.361 -0.11 -0.17    +0.473 P 
DOCKED: ATOM     44  O   UNL d   1      -0.219  -3.341  19.639 -0.06 +0.08    -0.228 OA
DOCKED: BRANCH  43  45
DOCKED: ATOM     45  O   UNL d   1       1.949  -2.444  18.549 -0.10 +0.12    -0.303 OA
DOCKED: ATOM     46  H   UNL d   1       2.399  -2.320  17.689 +0.11 -0.07    +0.222 HD
DOCKED: ENDBRANCH  43  45
DOCKED: BRANCH  43  47
DOCKED: ATOM     47  O   UNL d   1      -0.201  -1.947  17.424 -0.25 +0.14    -0.303 OA
DOCKED: ATOM     48  H   UNL d   1       0.483  -1.326  17.098 -0.41 -0.12    +0.222 HD
DOCKED: ENDBRANCH  43  47
DOCKED: ENDBRANCH  42  43
DOCKED: ENDBRANCH   4  42
DOCKED: TORSDOF 24
DOCKED: TER
DOCKED: ENDMDL
________________________________________________________________________________


	BEGINNING GENETIC ALGORITHM DOCKING 41 of 100
Run: 41 Seed: 1788063467 1742751267 [ Run 41 of 100 GA/GALS ]
Beginning LAMARCKIAN GENETIC ALGORITHM (LGA), with a maximum of 25000000 energy evaluations.

Final-Value: -17.942


	FINAL GENETIC ALGORITHM DOCKED STATE
	_______________________________________________


Detailed state:  trans 15.998 7.638 -8.135 quatxyzw 0.543136 0.541397 -0.397624 0.503773 center 0.035 0.082 -0.065 ntor 24 -106.0890 10.2955 108.7607 172.2765 111.5723 179.8178 -71.7252 -82.2323 69.7087 41.2396 -126.5857 -86.1996 20.3462 80.4701 31.1411 -154.1283 130.8886 -37.7796 -127.4313 -18.1119 -179.9659 -21.8779 -1.1432 172.9081
State:	 15.998   7.638  -8.135   0.629  0.627 -0.460 119.500   -106.09   10.30  108.76  172.28  111.57  179.82  -71.73  -82.23   69.71   41.24 -126.59  -86.20   20.35   80.47   31.14 -154.13  130.89  -37.78 -127.43  -18.11 -179.97  -21.88   -1.14  172.91

DOCKED: MODEL       41
DOCKED: USER    Run = 41
DOCKED: USER    DPF = D:/Protein_go_brrr/autodock/final/mut_N102T/IHP/dock.dpf
DOCKED: USER  
DOCKED: USER    Estimated Free Energy of Binding    =   +1.61 kcal/mol  [=(1)+(2)+(3)-(4)]
DOCKED: USER    
DOCKED: USER    (1) Final Intermolecular Energy     =   -5.55 kcal/mol
DOCKED: USER        vdW + Hbond + desolv Energy     =   -5.29 kcal/mol
DOCKED: USER        Electrostatic Energy            =   -0.26 kcal/mol
DOCKED: USER    (2) Final Total Internal Energy     =  -12.40 kcal/mol
DOCKED: USER    (3) Torsional Free Energy           =   +7.16 kcal/mol
DOCKED: USER    (4) Unbound System's Energy  [=(2)] =  -12.40 kcal/mol
DOCKED: USER    
DOCKED: USER    
DOCKED: USER    NEWDPF move IHP_ideal_opt.pdbqt
DOCKED: USER    NEWDPF about 0.035000 0.082000 -0.065000
DOCKED: USER    NEWDPF tran0 15.997823 7.638308 -8.135312
DOCKED: USER    NEWDPF quaternion0 0.543136 0.541397 -0.397624 0.503773
DOCKED: USER    NEWDPF axisangle0 0.628749 0.626736 -0.460301 119.500119
DOCKED: USER    NEWDPF quat0 0.628749 0.626736 -0.460301 119.500119
DOCKED: USER    NEWDPF dihe0 -106.09 10.30 108.76 172.28 111.57 179.82 -71.73 -82.23 69.71 41.24 -126.59 -86.20 20.35 80.47 31.14 -154.13 130.89 -37.78 -127.43 -18.11 -179.97 -21.88 -1.14 172.91 
DOCKED: USER  keepresnum = 1 
DOCKED: USER  
DOCKED: REMARK  24 active torsions:
DOCKED: REMARK  status: ('A' for Active; 'I' for Inactive)
DOCKED: REMARK    1  A    between atoms: C_1  and  O_7 
DOCKED: REMARK    2  A    between atoms: C_2  and  O_12 
DOCKED: REMARK    3  A    between atoms: C_3  and  O_17 
DOCKED: REMARK    4  A    between atoms: C_4  and  O_22 
DOCKED: REMARK    5  A    between atoms: C_5  and  O_27 
DOCKED: REMARK    6  A    between atoms: C_6  and  O_32 
DOCKED: REMARK    7  A    between atoms: O_7  and  P_8 
DOCKED: REMARK    8  A    between atoms: P_8  and  O_10 
DOCKED: REMARK    9  A    between atoms: P_8  and  O_11 
DOCKED: REMARK   10  A    between atoms: O_12  and  P_13 
DOCKED: REMARK   11  A    between atoms: P_13  and  O_15 
DOCKED: REMARK   12  A    between atoms: P_13  and  O_16 
DOCKED: REMARK   13  A    between atoms: O_17  and  P_18 
DOCKED: REMARK   14  A    between atoms: P_18  and  O_20 
DOCKED: REMARK   15  A    between atoms: P_18  and  O_21 
DOCKED: REMARK   16  A    between atoms: O_22  and  P_23 
DOCKED: REMARK   17  A    between atoms: P_23  and  O_25 
DOCKED: REMARK   18  A    between atoms: P_23  and  O_26 
DOCKED: REMARK   19  A    between atoms: O_27  and  P_28 
DOCKED: REMARK   20  A    between atoms: P_28  and  O_30 
DOCKED: REMARK   21  A    between atoms: P_28  and  O_31 
DOCKED: REMARK   22  A    between atoms: O_32  and  P_33 
DOCKED: REMARK   23  A    between atoms: P_33  and  O_35 
DOCKED: REMARK   24  A    between atoms: P_33  and  O_36 
DOCKED: USER                              x       y       z     vdW  Elec       q    Type
DOCKED: USER                           _______ _______ _______ _____ _____    ______ ____
DOCKED: ROOT
DOCKED: ATOM      1  C   UNL d   1      15.180   8.886  -7.264 -0.06 -0.03    +0.194 C 
DOCKED: ATOM      2  C   UNL d   1      15.269   7.534  -6.555 -0.13 -0.04    +0.194 C 
DOCKED: ATOM      3  C   UNL d   1      14.979   6.373  -7.509 -0.18 -0.03    +0.194 C 
DOCKED: ATOM      4  C   UNL d   1      15.824   6.415  -8.780 -0.05 -0.03    +0.194 C 
DOCKED: ATOM      5  C   UNL d   1      15.857   7.778  -9.459 -0.03 -0.02    +0.194 C 
DOCKED: ATOM      6  C   UNL d   1      16.086   8.944  -8.495 -0.05 -0.02    +0.194 C 
DOCKED: ENDROOT
DOCKED: BRANCH   1   7
DOCKED: ATOM      7  O   UNL d   1      15.630   9.896  -6.357 -0.07 +0.05    -0.278 OA
DOCKED: BRANCH   7   8
DOCKED: ATOM      8  P   UNL d   1      17.024  10.616  -6.653 -0.02 -0.06    +0.473 P 
DOCKED: ATOM      9  O   UNL d   1      17.015  11.560  -7.804 -0.01 +0.03    -0.228 OA
DOCKED: BRANCH   8  10
DOCKED: ATOM     10  O   UNL d   1      17.399  11.317  -5.270 -0.01 +0.04    -0.303 OA
DOCKED: ATOM     11  H   UNL d   1      18.002  10.741  -4.765 +0.02 -0.03    +0.222 HD
DOCKED: ENDBRANCH   8  10
DOCKED: BRANCH   8  12
DOCKED: ATOM     12  O   UNL d   1      18.089   9.440  -6.729 -0.00 +0.03    -0.303 OA
DOCKED: ATOM     13  H   UNL d   1      17.896   8.704  -6.106 +0.02 -0.03    +0.222 HD
DOCKED: ENDBRANCH   8  12
DOCKED: ENDBRANCH   7   8
DOCKED: ENDBRANCH   1   7
DOCKED: BRANCH   2  14
DOCKED: ATOM     14  O   UNL d   1      16.590   7.370  -6.025 -0.05 +0.05    -0.278 OA
DOCKED: BRANCH  14  15
DOCKED: ATOM     15  P   UNL d   1      16.723   7.342  -4.429 -0.09 -0.15    +0.473 P 
DOCKED: ATOM     16  O   UNL d   1      17.618   6.293  -3.847 -0.08 +0.06    -0.228 OA
DOCKED: BRANCH  15  17
DOCKED: ATOM     17  O   UNL d   1      17.179   8.821  -4.052 -0.05 +0.07    -0.303 OA
DOCKED: ATOM     18  H   UNL d   1      17.071   9.426  -4.810 +0.04 -0.04    +0.222 HD
DOCKED: ENDBRANCH  15  17
DOCKED: BRANCH  15  19
DOCKED: ATOM     19  O   UNL d   1      15.220   7.328  -3.906 -0.25 +0.18    -0.303 OA
DOCKED: ATOM     20  H   UNL d   1      14.996   6.483  -3.475 +0.03 -0.19    +0.222 HD
DOCKED: ENDBRANCH  15  19
DOCKED: ENDBRANCH  14  15
DOCKED: ENDBRANCH   2  14
DOCKED: BRANCH   6  21
DOCKED: ATOM     21  O   UNL d   1      15.752  10.136  -9.204 -0.02 +0.03    -0.278 OA
DOCKED: BRANCH  21  22
DOCKED: ATOM     22  P   UNL d   1      14.220  10.533  -9.408 -0.05 -0.07    +0.473 P 
DOCKED: ATOM     23  O   UNL d   1      13.390  10.785  -8.195 -0.31 +0.04    -0.228 OA
DOCKED: BRANCH  22  24
DOCKED: ATOM     24  O   UNL d   1      14.335  11.767 -10.406 -0.00 +0.05    -0.303 OA
DOCKED: ATOM     25  H   UNL d   1      14.975  11.526 -11.123 +0.01 -0.03    +0.222 HD
DOCKED: ENDBRANCH  22  24
DOCKED: BRANCH  22  26
DOCKED: ATOM     26  O   UNL d   1      13.708   9.366 -10.380 -0.07 +0.05    -0.303 OA
DOCKED: ATOM     27  H   UNL d   1      14.423   8.708 -10.498 +0.05 -0.03    +0.222 HD
DOCKED: ENDBRANCH  22  26
DOCKED: ENDBRANCH  21  22
DOCKED: ENDBRANCH   6  21
DOCKED: BRANCH   3  28
DOCKED: ATOM     28  O   UNL d   1      15.351   5.171  -6.847 -0.10 +0.04    -0.278 OA
DOCKED: BRANCH  28  29
DOCKED: ATOM     29  P   UNL d   1      14.302   4.399  -5.932 -0.22 -0.07    +0.473 P 
DOCKED: ATOM     30  O   UNL d   1      14.803   3.154  -5.293 -0.18 +0.04    -0.228 OA
DOCKED: BRANCH  29  31
DOCKED: ATOM     31  O   UNL d   1      13.854   5.586  -4.957 -0.65 +0.08    -0.303 OA
DOCKED: ATOM     32  H   UNL d   1      14.545   6.288  -4.979 -0.01 -0.09    +0.222 HD
DOCKED: ENDBRANCH  29  31
DOCKED: BRANCH  29  33
DOCKED: ATOM     33  O   UNL d   1      13.051   4.254  -6.907 -0.71 +0.04    -0.303 OA
DOCKED: ATOM     34  H   UNL d   1      13.102   4.956  -7.601 -0.38 -0.08    +0.222 HD
DOCKED: ENDBRANCH  29  33
DOCKED: ENDBRANCH  28  29
DOCKED: ENDBRANCH   3  28
DOCKED: BRANCH   5  35
DOCKED: ATOM     35  O   UNL d   1      16.973   7.741 -10.346 -0.00 +0.03    -0.278 OA
DOCKED: BRANCH  35  36
DOCKED: ATOM     36  P   UNL d   1      16.802   8.170 -11.873 +0.01 -0.04    +0.473 P 
DOCKED: ATOM     37  O   UNL d   1      18.061   8.198 -12.680 -0.00 +0.01    -0.228 OA
DOCKED: BRANCH  36  38
DOCKED: ATOM     38  O   UNL d   1      15.718   7.123 -12.386 -0.02 +0.04    -0.303 OA
DOCKED: ATOM     39  H   UNL d   1      15.474   6.525 -11.647 +0.04 -0.03    +0.222 HD
DOCKED: ENDBRANCH  36  38
DOCKED: BRANCH  36  40
DOCKED: ATOM     40  O   UNL d   1      15.991   9.533 -11.754 -0.00 +0.03    -0.303 OA
DOCKED: ATOM     41  H   UNL d   1      15.798   9.762 -10.818 +0.02 -0.02    +0.222 HD
DOCKED: ENDBRANCH  36  40
DOCKED: ENDBRANCH  35  36
DOCKED: ENDBRANCH   5  35
DOCKED: BRANCH   4  42
DOCKED: ATOM     42  O   UNL d   1      15.227   5.499  -9.704 -0.05 +0.05    -0.278 OA
DOCKED: BRANCH  42  43
DOCKED: ATOM     43  P   UNL d   1      13.734   5.764 -10.198 -0.21 -0.14    +0.473 P 
DOCKED: ATOM     44  O   UNL d   1      13.101   7.055  -9.809 -0.31 +0.06    -0.228 OA
DOCKED: BRANCH  43  45
DOCKED: ATOM     45  O   UNL d   1      13.841   5.540 -11.770 -0.17 +0.11    -0.303 OA
DOCKED: ATOM     46  H   UNL d   1      12.964   5.366 -12.167 -0.48 -0.13    +0.222 HD
DOCKED: ENDBRANCH  43  45
DOCKED: BRANCH  43  47
DOCKED: ATOM     47  O   UNL d   1      12.954   4.443  -9.733 -0.20 +0.15    -0.303 OA
DOCKED: ATOM     48  H   UNL d   1      12.563   4.594  -8.848 -0.28 -0.20    +0.222 HD
DOCKED: ENDBRANCH  43  47
DOCKED: ENDBRANCH  42  43
DOCKED: ENDBRANCH   4  42
DOCKED: TORSDOF 24
DOCKED: TER
DOCKED: ENDMDL
________________________________________________________________________________


	BEGINNING GENETIC ALGORITHM DOCKING 42 of 100
Run: 42 Seed: 789330843 80362834 [ Run 42 of 100 GA/GALS ]
Beginning LAMARCKIAN GENETIC ALGORITHM (LGA), with a maximum of 25000000 energy evaluations.

Final-Value: -16.908


	FINAL GENETIC ALGORITHM DOCKED STATE
	_______________________________________________


Detailed state:  trans 0.403 13.988 -22.170 quatxyzw 0.988668 -0.128847 0.061028 -0.046999 center 0.035 0.082 -0.065 ntor 24 134.4550 32.6955 -180.0000 -15.4245 52.3607 -140.6374 -142.1109 89.9552 133.2322 133.0317 50.2987 -113.4943 -26.2692 82.1755 -52.0889 -1.2791 -144.6651 -85.6061 10.9914 -43.1206 -33.8203 55.0405 3.6519 178.2968
State:	  0.403  13.988 -22.170   0.990 -0.129  0.061 -174.612    134.46   32.70 -180.00  -15.42   52.36 -140.64 -142.11   89.96  133.23  133.03   50.30 -113.49  -26.27   82.18  -52.09   -1.28 -144.67  -85.61   10.99  -43.12  -33.82   55.04    3.65  178.30

DOCKED: MODEL       42
DOCKED: USER    Run = 42
DOCKED: USER    DPF = D:/Protein_go_brrr/autodock/final/mut_N102T/IHP/dock.dpf
DOCKED: USER  
DOCKED: USER    Estimated Free Energy of Binding    =   +3.08 kcal/mol  [=(1)+(2)+(3)-(4)]
DOCKED: USER    
DOCKED: USER    (1) Final Intermolecular Energy     =   -4.08 kcal/mol
DOCKED: USER        vdW + Hbond + desolv Energy     =   -3.68 kcal/mol
DOCKED: USER        Electrostatic Energy            =   -0.40 kcal/mol
DOCKED: USER    (2) Final Total Internal Energy     =  -12.83 kcal/mol
DOCKED: USER    (3) Torsional Free Energy           =   +7.16 kcal/mol
DOCKED: USER    (4) Unbound System's Energy  [=(2)] =  -12.83 kcal/mol
DOCKED: USER    
DOCKED: USER    
DOCKED: USER    NEWDPF move IHP_ideal_opt.pdbqt
DOCKED: USER    NEWDPF about 0.035000 0.082000 -0.065000
DOCKED: USER    NEWDPF tran0 0.402899 13.988121 -22.169785
DOCKED: USER    NEWDPF quaternion0 0.988668 -0.128847 0.061028 -0.046999
DOCKED: USER    NEWDPF axisangle0 0.989762 -0.128990 0.061095 -174.612347
DOCKED: USER    NEWDPF quat0 0.989762 -0.128990 0.061095 -174.612347
DOCKED: USER    NEWDPF dihe0 134.46 32.70 -180.00 -15.42 52.36 -140.64 -142.11 89.96 133.23 133.03 50.30 -113.49 -26.27 82.18 -52.09 -1.28 -144.67 -85.61 10.99 -43.12 -33.82 55.04 3.65 178.30 
DOCKED: USER  keepresnum = 1 
DOCKED: USER  
DOCKED: REMARK  24 active torsions:
DOCKED: REMARK  status: ('A' for Active; 'I' for Inactive)
DOCKED: REMARK    1  A    between atoms: C_1  and  O_7 
DOCKED: REMARK    2  A    between atoms: C_2  and  O_12 
DOCKED: REMARK    3  A    between atoms: C_3  and  O_17 
DOCKED: REMARK    4  A    between atoms: C_4  and  O_22 
DOCKED: REMARK    5  A    between atoms: C_5  and  O_27 
DOCKED: REMARK    6  A    between atoms: C_6  and  O_32 
DOCKED: REMARK    7  A    between atoms: O_7  and  P_8 
DOCKED: REMARK    8  A    between atoms: P_8  and  O_10 
DOCKED: REMARK    9  A    between atoms: P_8  and  O_11 
DOCKED: REMARK   10  A    between atoms: O_12  and  P_13 
DOCKED: REMARK   11  A    between atoms: P_13  and  O_15 
DOCKED: REMARK   12  A    between atoms: P_13  and  O_16 
DOCKED: REMARK   13  A    between atoms: O_17  and  P_18 
DOCKED: REMARK   14  A    between atoms: P_18  and  O_20 
DOCKED: REMARK   15  A    between atoms: P_18  and  O_21 
DOCKED: REMARK   16  A    between atoms: O_22  and  P_23 
DOCKED: REMARK   17  A    between atoms: P_23  and  O_25 
DOCKED: REMARK   18  A    between atoms: P_23  and  O_26 
DOCKED: REMARK   19  A    between atoms: O_27  and  P_28 
DOCKED: REMARK   20  A    between atoms: P_28  and  O_30 
DOCKED: REMARK   21  A    between atoms: P_28  and  O_31 
DOCKED: REMARK   22  A    between atoms: O_32  and  P_33 
DOCKED: REMARK   23  A    between atoms: P_33  and  O_35 
DOCKED: REMARK   24  A    between atoms: P_33  and  O_36 
DOCKED: USER                              x       y       z     vdW  Elec       q    Type
DOCKED: USER                           _______ _______ _______ _____ _____    ______ ____
DOCKED: ROOT
DOCKED: ATOM      1  C   UNL d   1       1.922  14.445 -22.854 -0.04 +0.04    +0.194 C 
DOCKED: ATOM      2  C   UNL d   1       0.894  15.569 -22.717 -0.08 +0.10    +0.194 C 
DOCKED: ATOM      3  C   UNL d   1      -0.504  15.114 -23.140 -0.09 +0.11    +0.194 C 
DOCKED: ATOM      4  C   UNL d   1      -0.955  13.832 -22.444 -0.12 +0.08    +0.194 C 
DOCKED: ATOM      5  C   UNL d   1       0.086  12.720 -22.457 -0.11 +0.03    +0.194 C 
DOCKED: ATOM      6  C   UNL d   1       1.497  13.188 -22.093 -0.09 +0.03    +0.194 C 
DOCKED: ENDROOT
DOCKED: BRANCH   1   7
DOCKED: ATOM      7  O   UNL d   1       3.153  14.893 -22.281 -0.01 -0.04    -0.278 OA
DOCKED: BRANCH   7   8
DOCKED: ATOM      8  P   UNL d   1       4.392  15.155 -23.254 +0.01 +0.03    +0.473 P 
DOCKED: ATOM      9  O   UNL d   1       4.032  15.480 -24.661 +0.00 -0.02    -0.228 OA
DOCKED: BRANCH   8  10
DOCKED: ATOM     10  O   UNL d   1       5.213  16.317 -22.532 +0.00 -0.02    -0.303 OA
DOCKED: ATOM     11  H   UNL d   1       4.620  16.816 -21.939 +0.01 +0.02    +0.222 HD
DOCKED: ENDBRANCH   8  10
DOCKED: BRANCH   8  12
DOCKED: ATOM     12  O   UNL d   1       5.346  13.900 -23.055 +0.00 -0.00    -0.303 OA
DOCKED: ATOM     13  H   UNL d   1       5.104  13.352 -22.275 +0.02 -0.01    +0.222 HD
DOCKED: ENDBRANCH   8  12
DOCKED: ENDBRANCH   7   8
DOCKED: ENDBRANCH   1   7
DOCKED: BRANCH   2  14
DOCKED: ATOM     14  O   UNL d   1       0.842  15.990 -21.348 -0.09 -0.24    -0.278 OA
DOCKED: BRANCH  14  15
DOCKED: ATOM     15  P   UNL d   1       1.867  17.142 -20.914 -0.07 +0.33    +0.473 P 
DOCKED: ATOM     16  O   UNL d   1       1.330  18.220 -20.026 -0.62 -0.26    -0.228 OA
DOCKED: BRANCH  15  17
DOCKED: ATOM     17  O   UNL d   1       3.084  16.350 -20.257 -0.03 -0.08    -0.303 OA
DOCKED: ATOM     18  H   UNL d   1       3.712  16.044 -20.939 +0.03 +0.03    +0.222 HD
DOCKED: ENDBRANCH  15  17
DOCKED: BRANCH  15  19
DOCKED: ATOM     19  O   UNL d   1       2.509  17.638 -22.282 -0.02 -0.12    -0.303 OA
DOCKED: ATOM     20  H   UNL d   1       3.161  16.999 -22.626 +0.01 +0.05    +0.222 HD
DOCKED: ENDBRANCH  15  19
DOCKED: ENDBRANCH  14  15
DOCKED: ENDBRANCH   2  14
DOCKED: BRANCH   6  21
DOCKED: ATOM     21  O   UNL d   1       2.389  12.145 -22.477 -0.03 -0.01    -0.278 OA
DOCKED: BRANCH  21  22
DOCKED: ATOM     22  P   UNL d   1       3.567  11.707 -21.494 -0.06 -0.05    +0.473 P 
DOCKED: ATOM     23  O   UNL d   1       4.019  12.682 -20.459 -0.11 +0.05    -0.228 OA
DOCKED: BRANCH  22  24
DOCKED: ATOM     24  O   UNL d   1       3.015  10.330 -20.918 -0.12 +0.05    -0.303 OA
DOCKED: ATOM     25  H   UNL d   1       2.053  10.264 -21.145 +0.06 -0.02    +0.222 HD
DOCKED: ENDBRANCH  22  24
DOCKED: BRANCH  22  26
DOCKED: ATOM     26  O   UNL d   1       4.686  11.209 -22.528 -0.02 +0.02    -0.303 OA
DOCKED: ATOM     27  H   UNL d   1       4.762  11.857 -23.257 +0.02 -0.00    +0.222 HD
DOCKED: ENDBRANCH  22  26
DOCKED: ENDBRANCH  21  22
DOCKED: ENDBRANCH   6  21
DOCKED: BRANCH   3  28
DOCKED: ATOM     28  O   UNL d   1      -1.425  16.113 -22.723 -0.49 -0.35    -0.278 OA
DOCKED: BRANCH  28  29
DOCKED: ATOM     29  P   UNL d   1      -2.911  16.127 -23.294 -0.06 +0.38    +0.473 P 
DOCKED: ATOM     30  O   UNL d   1      -3.085  15.528 -24.642 -0.02 -0.08    -0.228 OA
DOCKED: BRANCH  29  31
DOCKED: ATOM     31  O   UNL d   1      -3.683  15.423 -22.082 -0.14 -0.23    -0.303 OA
DOCKED: ATOM     32  H   UNL d   1      -3.698  14.451 -22.241 +0.03 +0.10    +0.222 HD
DOCKED: ENDBRANCH  29  31
DOCKED: BRANCH  29  33
DOCKED: ATOM     33  O   UNL d   1      -3.318  17.657 -23.130 -0.40 -0.34    -0.303 OA
DOCKED: ATOM     34  H   UNL d   1      -3.952  17.900 -23.848 +0.01 +0.13    +0.222 HD
DOCKED: ENDBRANCH  29  33
DOCKED: ENDBRANCH  28  29
DOCKED: ENDBRANCH   3  28
DOCKED: BRANCH   5  35
DOCKED: ATOM     35  O   UNL d   1      -0.322  11.796 -21.450 -0.18 -0.02    -0.278 OA
DOCKED: BRANCH  35  36
DOCKED: ATOM     36  P   UNL d   1      -0.326  10.229 -21.749 -0.13 -0.02    +0.473 P 
DOCKED: ATOM     37  O   UNL d   1      -1.661   9.639 -22.076 -0.13 +0.00    -0.228 OA
DOCKED: BRANCH  36  38
DOCKED: ATOM     38  O   UNL d   1       0.744  10.119 -22.923 -0.03 -0.00    -0.303 OA
DOCKED: ATOM     39  H   UNL d   1       1.621  10.402 -22.586 +0.05 -0.00    +0.222 HD
DOCKED: ENDBRANCH  36  38
DOCKED: BRANCH  36  40
DOCKED: ATOM     40  O   UNL d   1       0.433   9.639 -20.482 -0.24 +0.04    -0.303 OA
DOCKED: ATOM     41  H   UNL d   1      -0.192   9.402 -19.761 -0.36 -0.08    +0.222 HD
DOCKED: ENDBRANCH  36  40
DOCKED: ENDBRANCH  35  36
DOCKED: ENDBRANCH   5  35
DOCKED: BRANCH   4  42
DOCKED: ATOM     42  O   UNL d   1      -2.095  13.349 -23.163 -0.05 -0.07    -0.278 OA
DOCKED: BRANCH  42  43
DOCKED: ATOM     43  P   UNL d   1      -1.899  12.821 -24.656 -0.00 +0.07    +0.473 P 
DOCKED: ATOM     44  O   UNL d   1      -0.967  13.581 -25.536 -0.00 -0.03    -0.228 OA
DOCKED: BRANCH  43  45
DOCKED: ATOM     45  O   UNL d   1      -1.492  11.299 -24.437 -0.01 -0.02    -0.303 OA
DOCKED: ATOM     46  H   UNL d   1      -1.118  11.153 -23.545 +0.03 +0.02    +0.222 HD
DOCKED: ENDBRANCH  43  45
DOCKED: BRANCH  43  47
DOCKED: ATOM     47  O   UNL d   1      -3.402  12.683 -25.196 -0.00 -0.03    -0.303 OA
DOCKED: ATOM     48  H   UNL d   1      -3.811  13.571 -25.243 +0.01 +0.03    +0.222 HD
DOCKED: ENDBRANCH  43  47
DOCKED: ENDBRANCH  42  43
DOCKED: ENDBRANCH   4  42
DOCKED: TORSDOF 24
DOCKED: TER
DOCKED: ENDMDL
________________________________________________________________________________


	BEGINNING GENETIC ALGORITHM DOCKING 43 of 100
Run: 43 Seed: 1554398493 777441066 [ Run 43 of 100 GA/GALS ]
Beginning LAMARCKIAN GENETIC ALGORITHM (LGA), with a maximum of 25000000 energy evaluations.

Final-Value: -19.841


	FINAL GENETIC ALGORITHM DOCKED STATE
	_______________________________________________


Detailed state:  trans -7.140 -17.409 -6.287 quatxyzw 0.581517 -0.438252 0.444024 0.522126 center 0.035 0.082 -0.065 ntor 24 112.4345 -154.5770 156.0457 -3.7463 36.4174 -129.1573 -94.4543 -111.5569 122.2271 -22.9702 145.8056 136.5232 -161.1119 175.5995 -31.7533 45.2157 173.3716 -164.4775 -6.0019 8.5382 160.7809 -2.4190 2.3410 15.5845
State:	 -7.140 -17.409  -6.287   0.682 -0.514  0.521 117.050    112.43 -154.58  156.05   -3.75   36.42 -129.16  -94.45 -111.56  122.23  -22.97  145.81  136.52 -161.11  175.60  -31.75   45.22  173.37 -164.48   -6.00    8.54  160.78   -2.42    2.34   15.58

DOCKED: MODEL       43
DOCKED: USER    Run = 43
DOCKED: USER    DPF = D:/Protein_go_brrr/autodock/final/mut_N102T/IHP/dock.dpf
DOCKED: USER  
DOCKED: USER    Estimated Free Energy of Binding    =   +2.39 kcal/mol  [=(1)+(2)+(3)-(4)]
DOCKED: USER    
DOCKED: USER    (1) Final Intermolecular Energy     =   -4.76 kcal/mol
DOCKED: USER        vdW + Hbond + desolv Energy     =   -4.73 kcal/mol
DOCKED: USER        Electrostatic Energy            =   -0.03 kcal/mol
DOCKED: USER    (2) Final Total Internal Energy     =  -15.08 kcal/mol
DOCKED: USER    (3) Torsional Free Energy           =   +7.16 kcal/mol
DOCKED: USER    (4) Unbound System's Energy  [=(2)] =  -15.08 kcal/mol
DOCKED: USER    
DOCKED: USER    
DOCKED: USER    NEWDPF move IHP_ideal_opt.pdbqt
DOCKED: USER    NEWDPF about 0.035000 0.082000 -0.065000
DOCKED: USER    NEWDPF tran0 -7.139655 -17.409288 -6.286548
DOCKED: USER    NEWDPF quaternion0 0.581517 -0.438252 0.444024 0.522126
DOCKED: USER    NEWDPF axisangle0 0.681836 -0.513857 0.520625 117.050070
DOCKED: USER    NEWDPF quat0 0.681836 -0.513857 0.520625 117.050070
DOCKED: USER    NEWDPF dihe0 112.43 -154.58 156.05 -3.75 36.42 -129.16 -94.45 -111.56 122.23 -22.97 145.81 136.52 -161.11 175.60 -31.75 45.22 173.37 -164.48 -6.00 8.54 160.78 -2.42 2.34 15.58 
DOCKED: USER  keepresnum = 1 
DOCKED: USER  
DOCKED: REMARK  24 active torsions:
DOCKED: REMARK  status: ('A' for Active; 'I' for Inactive)
DOCKED: REMARK    1  A    between atoms: C_1  and  O_7 
DOCKED: REMARK    2  A    between atoms: C_2  and  O_12 
DOCKED: REMARK    3  A    between atoms: C_3  and  O_17 
DOCKED: REMARK    4  A    between atoms: C_4  and  O_22 
DOCKED: REMARK    5  A    between atoms: C_5  and  O_27 
DOCKED: REMARK    6  A    between atoms: C_6  and  O_32 
DOCKED: REMARK    7  A    between atoms: O_7  and  P_8 
DOCKED: REMARK    8  A    between atoms: P_8  and  O_10 
DOCKED: REMARK    9  A    between atoms: P_8  and  O_11 
DOCKED: REMARK   10  A    between atoms: O_12  and  P_13 
DOCKED: REMARK   11  A    between atoms: P_13  and  O_15 
DOCKED: REMARK   12  A    between atoms: P_13  and  O_16 
DOCKED: REMARK   13  A    between atoms: O_17  and  P_18 
DOCKED: REMARK   14  A    between atoms: P_18  and  O_20 
DOCKED: REMARK   15  A    between atoms: P_18  and  O_21 
DOCKED: REMARK   16  A    between atoms: O_22  and  P_23 
DOCKED: REMARK   17  A    between atoms: P_23  and  O_25 
DOCKED: REMARK   18  A    between atoms: P_23  and  O_26 
DOCKED: REMARK   19  A    between atoms: O_27  and  P_28 
DOCKED: REMARK   20  A    between atoms: P_28  and  O_30 
DOCKED: REMARK   21  A    between atoms: P_28  and  O_31 
DOCKED: REMARK   22  A    between atoms: O_32  and  P_33 
DOCKED: REMARK   23  A    between atoms: P_33  and  O_35 
DOCKED: REMARK   24  A    between atoms: P_33  and  O_36 
DOCKED: USER                              x       y       z     vdW  Elec       q    Type
DOCKED: USER                           _______ _______ _______ _____ _____    ______ ____
DOCKED: ROOT
DOCKED: ATOM      1  C   UNL d   1      -6.051 -18.394  -5.376 -0.09 +0.22    +0.194 C 
DOCKED: ATOM      2  C   UNL d   1      -6.650 -17.203  -4.626 -0.08 +0.25    +0.194 C 
DOCKED: ATOM      3  C   UNL d   1      -6.662 -15.938  -5.488 -0.08 +0.28    +0.194 C 
DOCKED: ATOM      4  C   UNL d   1      -7.313 -16.147  -6.853 -0.07 +0.23    +0.194 C 
DOCKED: ATOM      5  C   UNL d   1      -6.827 -17.390  -7.588 -0.10 +0.20    +0.194 C 
DOCKED: ATOM      6  C   UNL d   1      -6.757 -18.641  -6.710 -0.04 +0.14    +0.194 C 
DOCKED: ENDROOT
DOCKED: BRANCH   1   7
DOCKED: ATOM      7  O   UNL d   1      -6.233 -19.563  -4.574 -0.07 -0.27    -0.278 OA
DOCKED: BRANCH   7   8
DOCKED: ATOM      8  P   UNL d   1      -4.963 -20.485  -4.276 -0.03 +0.46    +0.473 P 
DOCKED: ATOM      9  O   UNL d   1      -4.966 -21.805  -4.963 -0.01 -0.10    -0.228 OA
DOCKED: BRANCH   8  10
DOCKED: ATOM     10  O   UNL d   1      -3.719 -19.571  -4.679 -0.28 -0.36    -0.303 OA
DOCKED: ATOM     11  H   UNL d   1      -3.893 -19.141  -5.537 +0.05 +0.23    +0.222 HD
DOCKED: ENDBRANCH   8  10
DOCKED: BRANCH   8  12
DOCKED: ATOM     12  O   UNL d   1      -4.845 -20.527  -2.692 -0.44 -0.48    -0.303 OA
DOCKED: ATOM     13  H   UNL d   1      -4.313 -21.287  -2.365 +0.02 +0.21    +0.222 HD
DOCKED: ENDBRANCH   8  12
DOCKED: ENDBRANCH   7   8
DOCKED: ENDBRANCH   1   7
DOCKED: BRANCH   2  14
DOCKED: ATOM     14  O   UNL d   1      -7.998 -17.515  -4.254 -0.02 -0.21    -0.278 OA
DOCKED: BRANCH  14  15
DOCKED: ATOM     15  P   UNL d   1      -8.470 -17.033  -2.802 -0.01 +0.33    +0.473 P 
DOCKED: ATOM     16  O   UNL d   1      -9.108 -18.065  -1.926 -0.02 -0.11    -0.228 OA
DOCKED: BRANCH  15  17
DOCKED: ATOM     17  O   UNL d   1      -7.158 -16.401  -2.158 -0.60 -0.44    -0.303 OA
DOCKED: ATOM     18  H   UNL d   1      -6.831 -15.650  -2.690 +0.05 +0.27    +0.222 HD
DOCKED: ENDBRANCH  15  17
DOCKED: BRANCH  15  19
DOCKED: ATOM     19  O   UNL d   1      -9.346 -15.734  -3.081 +0.00 -0.12    -0.303 OA
DOCKED: ATOM     20  H   UNL d   1      -8.815 -15.020  -3.479 +0.03 +0.10    +0.222 HD
DOCKED: ENDBRANCH  15  19
DOCKED: ENDBRANCH  14  15
DOCKED: ENDBRANCH   2  14
DOCKED: BRANCH   6  21
DOCKED: ATOM     21  O   UNL d   1      -5.980 -19.602  -7.422 -0.02 -0.16    -0.278 OA
DOCKED: BRANCH  21  22
DOCKED: ATOM     22  P   UNL d   1      -4.485 -19.249  -7.852 -0.09 +0.34    +0.473 P 
DOCKED: ATOM     23  O   UNL d   1      -3.956 -17.895  -7.519 -0.40 -0.36    -0.228 OA
DOCKED: BRANCH  22  24
DOCKED: ATOM     24  O   UNL d   1      -3.670 -20.459  -7.214 -0.03 -0.14    -0.303 OA
DOCKED: ATOM     25  H   UNL d   1      -4.152 -20.763  -6.404 +0.03 +0.11    +0.222 HD
DOCKED: ENDBRANCH  22  24
DOCKED: BRANCH  22  26
DOCKED: ATOM     26  O   UNL d   1      -4.492 -19.638  -9.407 -0.11 -0.13    -0.303 OA
DOCKED: ATOM     27  H   UNL d   1      -5.200 -19.137  -9.860 +0.04 +0.10    +0.222 HD
DOCKED: ENDBRANCH  22  26
DOCKED: ENDBRANCH  21  22
DOCKED: ENDBRANCH   6  21
DOCKED: BRANCH   3  28
DOCKED: ATOM     28  O   UNL d   1      -7.473 -14.977  -4.826 -0.04 -0.25    -0.278 OA
DOCKED: BRANCH  28  29
DOCKED: ATOM     29  P   UNL d   1      -6.811 -13.707  -4.130 -0.09 +0.40    +0.473 P 
DOCKED: ATOM     30  O   UNL d   1      -5.437 -13.370  -4.586 -0.39 -0.29    -0.228 OA
DOCKED: BRANCH  29  31
DOCKED: ATOM     31  O   UNL d   1      -7.952 -12.616  -4.394 -0.13 -0.16    -0.303 OA
DOCKED: ATOM     32  H   UNL d   1      -8.274 -12.718  -5.319 +0.05 +0.11    +0.222 HD
DOCKED: ENDBRANCH  29  31
DOCKED: BRANCH  29  33
DOCKED: ATOM     33  O   UNL d   1      -6.994 -14.040  -2.584 -0.13 -0.21    -0.303 OA
DOCKED: ATOM     34  H   UNL d   1      -7.944 -14.252  -2.411 +0.06 +0.11    +0.222 HD
DOCKED: ENDBRANCH  29  33
DOCKED: ENDBRANCH  28  29
DOCKED: ENDBRANCH   3  28
DOCKED: BRANCH   5  35
DOCKED: ATOM     35  O   UNL d   1      -7.798 -17.643  -8.602 -0.06 -0.16    -0.278 OA
DOCKED: BRANCH  35  36
DOCKED: ATOM     36  P   UNL d   1      -7.337 -17.953 -10.097 -0.08 +0.22    +0.473 P 
DOCKED: ATOM     37  O   UNL d   1      -8.198 -17.370 -11.172 -0.50 -0.09    -0.228 OA
DOCKED: BRANCH  36  38
DOCKED: ATOM     38  O   UNL d   1      -5.838 -17.414 -10.095 -0.47 -0.23    -0.303 OA
DOCKED: ATOM     39  H   UNL d   1      -5.355 -17.812  -9.339 +0.05 +0.20    +0.222 HD
DOCKED: ENDBRANCH  36  38
DOCKED: BRANCH  36  40
DOCKED: ATOM     40  O   UNL d   1      -7.174 -19.535 -10.082 -0.03 -0.09    -0.303 OA
DOCKED: ATOM     41  H   UNL d   1      -6.454 -19.821  -9.476 +0.03 +0.07    +0.222 HD
DOCKED: ENDBRANCH  36  40
DOCKED: ENDBRANCH  35  36
DOCKED: ENDBRANCH   5  35
DOCKED: BRANCH   4  42
DOCKED: ATOM     42  O   UNL d   1      -6.959 -15.017  -7.658 -0.41 -0.49    -0.278 OA
DOCKED: BRANCH  42  43
DOCKED: ATOM     43  P   UNL d   1      -7.976 -13.792  -7.754 -0.07 +0.31    +0.473 P 
DOCKED: ATOM     44  O   UNL d   1      -8.519 -13.454  -9.100 -0.12 -0.08    -0.228 OA
DOCKED: BRANCH  43  45
DOCKED: ATOM     45  O   UNL d   1      -9.086 -14.174  -6.681 -0.01 -0.14    -0.303 OA
DOCKED: ATOM     46  H   UNL d   1      -8.753 -14.066  -5.767 +0.04 +0.11    +0.222 HD
DOCKED: ENDBRANCH  43  45
DOCKED: BRANCH  43  47
DOCKED: ATOM     47  O   UNL d   1      -7.194 -12.608  -7.008 -0.13 -0.21    -0.303 OA
DOCKED: ATOM     48  H   UNL d   1      -6.798 -12.954  -6.181 +0.08 +0.22    +0.222 HD
DOCKED: ENDBRANCH  43  47
DOCKED: ENDBRANCH  42  43
DOCKED: ENDBRANCH   4  42
DOCKED: TORSDOF 24
DOCKED: TER
DOCKED: ENDMDL
________________________________________________________________________________


	BEGINNING GENETIC ALGORITHM DOCKING 44 of 100
Run: 44 Seed: 149729137 552017095 [ Run 44 of 100 GA/GALS ]
Beginning LAMARCKIAN GENETIC ALGORITHM (LGA), with a maximum of 25000000 energy evaluations.

Final-Value: -18.655


	FINAL GENETIC ALGORITHM DOCKED STATE
	_______________________________________________


Detailed state:  trans 12.262 10.703 19.674 quatxyzw 0.522745 -0.796700 -0.020036 0.302665 center 0.035 0.082 -0.065 ntor 24 91.9498 49.1285 170.8944 5.1525 29.0739 -149.1690 -77.1495 -7.9057 23.4296 8.0862 102.3853 146.5626 152.6700 176.2345 -62.9367 -0.8285 141.3433 -133.4905 48.5389 14.0366 166.6463 -3.8878 -12.4966 0.0317
State:	 12.262  10.703  19.674   0.548 -0.836 -0.021 144.765     91.95   49.13  170.89    5.15   29.07 -149.17  -77.15   -7.91   23.43    8.09  102.39  146.56  152.67  176.23  -62.94   -0.83  141.34 -133.49   48.54   14.04  166.65   -3.89  -12.50    0.03

DOCKED: MODEL       44
DOCKED: USER    Run = 44
DOCKED: USER    DPF = D:/Protein_go_brrr/autodock/final/mut_N102T/IHP/dock.dpf
DOCKED: USER  
DOCKED: USER    Estimated Free Energy of Binding    =   +4.09 kcal/mol  [=(1)+(2)+(3)-(4)]
DOCKED: USER    
DOCKED: USER    (1) Final Intermolecular Energy     =   -3.07 kcal/mol
DOCKED: USER        vdW + Hbond + desolv Energy     =   -2.94 kcal/mol
DOCKED: USER        Electrostatic Energy            =   -0.12 kcal/mol
DOCKED: USER    (2) Final Total Internal Energy     =  -15.59 kcal/mol
DOCKED: USER    (3) Torsional Free Energy           =   +7.16 kcal/mol
DOCKED: USER    (4) Unbound System's Energy  [=(2)] =  -15.59 kcal/mol
DOCKED: USER    
DOCKED: USER    
DOCKED: USER    NEWDPF move IHP_ideal_opt.pdbqt
DOCKED: USER    NEWDPF about 0.035000 0.082000 -0.065000
DOCKED: USER    NEWDPF tran0 12.262108 10.703395 19.674153
DOCKED: USER    NEWDPF quaternion0 0.522745 -0.796700 -0.020036 0.302665
DOCKED: USER    NEWDPF axisangle0 0.548469 -0.835906 -0.021022 144.764542
DOCKED: USER    NEWDPF quat0 0.548469 -0.835906 -0.021022 144.764542
DOCKED: USER    NEWDPF dihe0 91.95 49.13 170.89 5.15 29.07 -149.17 -77.15 -7.91 23.43 8.09 102.39 146.56 152.67 176.23 -62.94 -0.83 141.34 -133.49 48.54 14.04 166.65 -3.89 -12.50 0.03 
DOCKED: USER  keepresnum = 1 
DOCKED: USER  
DOCKED: REMARK  24 active torsions:
DOCKED: REMARK  status: ('A' for Active; 'I' for Inactive)
DOCKED: REMARK    1  A    between atoms: C_1  and  O_7 
DOCKED: REMARK    2  A    between atoms: C_2  and  O_12 
DOCKED: REMARK    3  A    between atoms: C_3  and  O_17 
DOCKED: REMARK    4  A    between atoms: C_4  and  O_22 
DOCKED: REMARK    5  A    between atoms: C_5  and  O_27 
DOCKED: REMARK    6  A    between atoms: C_6  and  O_32 
DOCKED: REMARK    7  A    between atoms: O_7  and  P_8 
DOCKED: REMARK    8  A    between atoms: P_8  and  O_10 
DOCKED: REMARK    9  A    between atoms: P_8  and  O_11 
DOCKED: REMARK   10  A    between atoms: O_12  and  P_13 
DOCKED: REMARK   11  A    between atoms: P_13  and  O_15 
DOCKED: REMARK   12  A    between atoms: P_13  and  O_16 
DOCKED: REMARK   13  A    between atoms: O_17  and  P_18 
DOCKED: REMARK   14  A    between atoms: P_18  and  O_20 
DOCKED: REMARK   15  A    between atoms: P_18  and  O_21 
DOCKED: REMARK   16  A    between atoms: O_22  and  P_23 
DOCKED: REMARK   17  A    between atoms: P_23  and  O_25 
DOCKED: REMARK   18  A    between atoms: P_23  and  O_26 
DOCKED: REMARK   19  A    between atoms: O_27  and  P_28 
DOCKED: REMARK   20  A    between atoms: P_28  and  O_30 
DOCKED: REMARK   21  A    between atoms: P_28  and  O_31 
DOCKED: REMARK   22  A    between atoms: O_32  and  P_33 
DOCKED: REMARK   23  A    between atoms: P_33  and  O_35 
DOCKED: REMARK   24  A    between atoms: P_33  and  O_36 
DOCKED: USER                              x       y       z     vdW  Elec       q    Type
DOCKED: USER                           _______ _______ _______ _____ _____    ______ ____
DOCKED: ROOT
DOCKED: ATOM      1  C   UNL d   1      13.039   9.548  18.651 -0.05 +0.08    +0.194 C 
DOCKED: ATOM      2  C   UNL d   1      13.885  10.080  19.809 -0.00 +0.04    +0.194 C 
DOCKED: ATOM      3  C   UNL d   1      13.727  11.593  19.978 +0.00 +0.02    +0.194 C 
DOCKED: ATOM      4  C   UNL d   1      12.270  12.038  20.076 +0.00 +0.02    +0.194 C 
DOCKED: ATOM      5  C   UNL d   1      11.365  11.439  19.007 -0.03 +0.03    +0.194 C 
DOCKED: ATOM      6  C   UNL d   1      11.567   9.938  18.795 -0.09 +0.07    +0.194 C 
DOCKED: ENDROOT
DOCKED: BRANCH   1   7
DOCKED: ATOM      7  O   UNL d   1      13.106   8.121  18.669 -0.16 -0.25    -0.278 OA
DOCKED: BRANCH   7   8
DOCKED: ATOM      8  P   UNL d   1      14.454   7.418  18.179 -0.03 +0.35    +0.473 P 
DOCKED: ATOM      9  O   UNL d   1      14.296   6.022  17.688 -0.36 -0.27    -0.228 OA
DOCKED: BRANCH   8  10
DOCKED: ATOM     10  O   UNL d   1      15.028   8.412  17.071 -0.04 -0.13    -0.303 OA
DOCKED: ATOM     11  H   UNL d   1      14.424   8.433  16.306 +0.04 +0.13    +0.222 HD
DOCKED: ENDBRANCH   8  10
DOCKED: BRANCH   8  12
DOCKED: ATOM     12  O   UNL d   1      15.483   7.620  19.373 -0.01 -0.09    -0.303 OA
DOCKED: ATOM     13  H   UNL d   1      15.081   8.058  20.157 +0.01 +0.06    +0.222 HD
DOCKED: ENDBRANCH   8  12
DOCKED: ENDBRANCH   7   8
DOCKED: ENDBRANCH   1   7
DOCKED: BRANCH   2  14
DOCKED: ATOM     14  O   UNL d   1      13.472   9.440  21.022 +0.00 -0.05    -0.278 OA
DOCKED: BRANCH  14  15
DOCKED: ATOM     15  P   UNL d   1      14.617   9.149  22.104 +0.01 +0.05    +0.473 P 
DOCKED: ATOM     16  O   UNL d   1      14.708   7.749  22.626 +0.00 -0.03    -0.228 OA
DOCKED: BRANCH  15  17
DOCKED: ATOM     17  O   UNL d   1      15.956   9.630  21.389 +0.00 -0.03    -0.303 OA
DOCKED: ATOM     18  H   UNL d   1      16.018  10.604  21.377 +0.00 +0.01    +0.222 HD
DOCKED: ENDBRANCH  15  17
DOCKED: BRANCH  15  19
DOCKED: ATOM     19  O   UNL d   1      14.418  10.280  23.205 +0.00 -0.01    -0.303 OA
DOCKED: ATOM     20  H   UNL d   1      14.431  11.172  22.812 +0.00 +0.01    +0.222 HD
DOCKED: ENDBRANCH  15  19
DOCKED: ENDBRANCH  14  15
DOCKED: ENDBRANCH   2  14
DOCKED: BRANCH   6  21
DOCKED: ATOM     21  O   UNL d   1      10.924   9.605  17.566 -0.20 -0.15    -0.278 OA
DOCKED: BRANCH  21  22
DOCKED: ATOM     22  P   UNL d   1      11.463  10.223  16.198 -0.17 +0.16    +0.473 P 
DOCKED: ATOM     23  O   UNL d   1      12.050  11.594  16.227 -0.07 -0.04    -0.228 OA
DOCKED: BRANCH  22  24
DOCKED: ATOM     24  O   UNL d   1      12.452   9.084  15.693 -0.11 -0.21    -0.303 OA
DOCKED: ATOM     25  H   UNL d   1      12.910   8.700  16.484 +0.06 +0.19    +0.222 HD
DOCKED: ENDBRANCH  22  24
DOCKED: BRANCH  22  26
DOCKED: ATOM     26  O   UNL d   1      10.201  10.019  15.230 -0.30 -0.03    -0.303 OA
DOCKED: ATOM     27  H   UNL d   1       9.378  10.162  15.740 -0.45 -0.02    +0.222 HD
DOCKED: ENDBRANCH  22  26
DOCKED: ENDBRANCH  21  22
DOCKED: ENDBRANCH   6  21
DOCKED: BRANCH   3  28
DOCKED: ATOM     28  O   UNL d   1      14.315  11.948  21.223 +0.00 -0.01    -0.278 OA
DOCKED: BRANCH  28  29
DOCKED: ATOM     29  P   UNL d   1      15.710  12.716  21.264 +0.00 +0.01    +0.473 P 
DOCKED: ATOM     30  O   UNL d   1      16.602  12.488  20.099 +0.00 -0.01    -0.228 OA
DOCKED: BRANCH  29  31
DOCKED: ATOM     31  O   UNL d   1      15.197  14.213  21.503 +0.00 -0.00    -0.303 OA
DOCKED: ATOM     32  H   UNL d   1      14.280  14.291  21.153 +0.00 +0.00    +0.222 HD
DOCKED: ENDBRANCH  29  31
DOCKED: BRANCH  29  33
DOCKED: ATOM     33  O   UNL d   1      16.275  12.306  22.695 +0.00 -0.01    -0.303 OA
DOCKED: ATOM     34  H   UNL d   1      16.237  11.322  22.785 +0.00 +0.01    +0.222 HD
DOCKED: ENDBRANCH  29  33
DOCKED: ENDBRANCH  28  29
DOCKED: ENDBRANCH   3  28
DOCKED: BRANCH   5  35
DOCKED: ATOM     35  O   UNL d   1      10.033  11.621  19.482 -0.07 -0.03    -0.278 OA
DOCKED: BRANCH  35  36
DOCKED: ATOM     36  P   UNL d   1       8.999  12.513  18.657 -0.04 +0.06    +0.473 P 
DOCKED: ATOM     37  O   UNL d   1       7.676  12.742  19.316 -0.24 -0.01    -0.228 OA
DOCKED: BRANCH  36  38
DOCKED: ATOM     38  O   UNL d   1       9.842  13.840  18.404 -0.04 +0.01    -0.303 OA
DOCKED: ATOM     39  H   UNL d   1      10.269  14.114  19.244 +0.03 -0.01    +0.222 HD
DOCKED: ENDBRANCH  36  38
DOCKED: BRANCH  36  40
DOCKED: ATOM     40  O   UNL d   1       8.985  11.792  17.239 -0.73 -0.07    -0.303 OA
DOCKED: ATOM     41  H   UNL d   1       9.863  11.413  17.015 +0.08 +0.03    +0.222 HD
DOCKED: ENDBRANCH  36  40
DOCKED: ENDBRANCH  35  36
DOCKED: ENDBRANCH   5  35
DOCKED: BRANCH   4  42
DOCKED: ATOM     42  O   UNL d   1      12.257  13.458  19.892 +0.00 -0.01    -0.278 OA
DOCKED: BRANCH  42  43
DOCKED: ATOM     43  P   UNL d   1      11.889  14.393  21.130 +0.00 -0.01    +0.473 P 
DOCKED: ATOM     44  O   UNL d   1      10.449  14.698  21.356 -0.00 +0.01    -0.228 OA
DOCKED: BRANCH  43  45
DOCKED: ATOM     45  O   UNL d   1      12.596  13.653  22.349 +0.00 +0.00    -0.303 OA
DOCKED: ATOM     46  H   UNL d   1      13.392  13.165  22.058 +0.00 +0.00    +0.222 HD
DOCKED: ENDBRANCH  43  45
DOCKED: BRANCH  43  47
DOCKED: ATOM     47  O   UNL d   1      12.842  15.665  20.925 +0.00 +0.01    -0.303 OA
DOCKED: ATOM     48  H   UNL d   1      13.693  15.372  20.538 +0.00 -0.00    +0.222 HD
DOCKED: ENDBRANCH  43  47
DOCKED: ENDBRANCH  42  43
DOCKED: ENDBRANCH   4  42
DOCKED: TORSDOF 24
DOCKED: TER
DOCKED: ENDMDL
________________________________________________________________________________


	BEGINNING GENETIC ALGORITHM DOCKING 45 of 100
Run: 45 Seed: 384438838 600341753 [ Run 45 of 100 GA/GALS ]
Beginning LAMARCKIAN GENETIC ALGORITHM (LGA), with a maximum of 25000000 energy evaluations.

Final-Value: -16.717


	FINAL GENETIC ALGORITHM DOCKED STATE
	_______________________________________________


Detailed state:  trans -6.475 14.218 12.613 quatxyzw 0.595860 -0.266922 0.414848 0.633722 center 0.035 0.082 -0.065 ntor 24 176.0584 -61.5795 31.4268 78.3382 -26.1242 -139.1837 -102.9849 0.3589 131.7152 2.2062 -23.9155 -6.6708 143.1427 -179.8425 -4.8740 48.7797 -180.0000 -96.6179 2.5301 -34.7727 151.1880 155.1900 166.1938 -100.5553
State:	 -6.475  14.218  12.613   0.770 -0.345  0.536 101.349    176.06  -61.58   31.43   78.34  -26.12 -139.18 -102.98    0.36  131.72    2.21  -23.92   -6.67  143.14 -179.84   -4.87   48.78 -180.00  -96.62    2.53  -34.77  151.19  155.19  166.19 -100.56

DOCKED: MODEL       45
DOCKED: USER    Run = 45
DOCKED: USER    DPF = D:/Protein_go_brrr/autodock/final/mut_N102T/IHP/dock.dpf
DOCKED: USER  
DOCKED: USER    Estimated Free Energy of Binding    =   +1.71 kcal/mol  [=(1)+(2)+(3)-(4)]
DOCKED: USER    
DOCKED: USER    (1) Final Intermolecular Energy     =   -5.45 kcal/mol
DOCKED: USER        vdW + Hbond + desolv Energy     =   -5.38 kcal/mol
DOCKED: USER        Electrostatic Energy            =   -0.07 kcal/mol
DOCKED: USER    (2) Final Total Internal Energy     =  -11.26 kcal/mol
DOCKED: USER    (3) Torsional Free Energy           =   +7.16 kcal/mol
DOCKED: USER    (4) Unbound System's Energy  [=(2)] =  -11.26 kcal/mol
DOCKED: USER    
DOCKED: USER    
DOCKED: USER    NEWDPF move IHP_ideal_opt.pdbqt
DOCKED: USER    NEWDPF about 0.035000 0.082000 -0.065000
DOCKED: USER    NEWDPF tran0 -6.475114 14.217757 12.612745
DOCKED: USER    NEWDPF quaternion0 0.595860 -0.266922 0.414848 0.633722
DOCKED: USER    NEWDPF axisangle0 0.770282 -0.345057 0.536284 101.349413
DOCKED: USER    NEWDPF quat0 0.770282 -0.345057 0.536284 101.349413
DOCKED: USER    NEWDPF dihe0 176.06 -61.58 31.43 78.34 -26.12 -139.18 -102.98 0.36 131.72 2.21 -23.92 -6.67 143.14 -179.84 -4.87 48.78 -180.00 -96.62 2.53 -34.77 151.19 155.19 166.19 -100.56 
DOCKED: USER  keepresnum = 1 
DOCKED: USER  
DOCKED: REMARK  24 active torsions:
DOCKED: REMARK  status: ('A' for Active; 'I' for Inactive)
DOCKED: REMARK    1  A    between atoms: C_1  and  O_7 
DOCKED: REMARK    2  A    between atoms: C_2  and  O_12 
DOCKED: REMARK    3  A    between atoms: C_3  and  O_17 
DOCKED: REMARK    4  A    between atoms: C_4  and  O_22 
DOCKED: REMARK    5  A    between atoms: C_5  and  O_27 
DOCKED: REMARK    6  A    between atoms: C_6  and  O_32 
DOCKED: REMARK    7  A    between atoms: O_7  and  P_8 
DOCKED: REMARK    8  A    between atoms: P_8  and  O_10 
DOCKED: REMARK    9  A    between atoms: P_8  and  O_11 
DOCKED: REMARK   10  A    between atoms: O_12  and  P_13 
DOCKED: REMARK   11  A    between atoms: P_13  and  O_15 
DOCKED: REMARK   12  A    between atoms: P_13  and  O_16 
DOCKED: REMARK   13  A    between atoms: O_17  and  P_18 
DOCKED: REMARK   14  A    between atoms: P_18  and  O_20 
DOCKED: REMARK   15  A    between atoms: P_18  and  O_21 
DOCKED: REMARK   16  A    between atoms: O_22  and  P_23 
DOCKED: REMARK   17  A    between atoms: P_23  and  O_25 
DOCKED: REMARK   18  A    between atoms: P_23  and  O_26 
DOCKED: REMARK   19  A    between atoms: O_27  and  P_28 
DOCKED: REMARK   20  A    between atoms: P_28  and  O_30 
DOCKED: REMARK   21  A    between atoms: P_28  and  O_31 
DOCKED: REMARK   22  A    between atoms: O_32  and  P_33 
DOCKED: REMARK   23  A    between atoms: P_33  and  O_35 
DOCKED: REMARK   24  A    between atoms: P_33  and  O_36 
DOCKED: USER                              x       y       z     vdW  Elec       q    Type
DOCKED: USER                           _______ _______ _______ _____ _____    ______ ____
DOCKED: ROOT
DOCKED: ATOM      1  C   UNL d   1      -5.358  13.631  13.792 -0.16 -0.03    +0.194 C 
DOCKED: ATOM      2  C   UNL d   1      -6.473  14.531  14.328 -0.06 -0.03    +0.194 C 
DOCKED: ATOM      3  C   UNL d   1      -6.709  15.741  13.422 -0.05 -0.02    +0.194 C 
DOCKED: ATOM      4  C   UNL d   1      -6.925  15.364  11.959 -0.07 -0.02    +0.194 C 
DOCKED: ATOM      5  C   UNL d   1      -5.900  14.377  11.415 -0.18 -0.02    +0.194 C 
DOCKED: ATOM      6  C   UNL d   1      -5.619  13.198  12.349 -0.19 -0.03    +0.194 C 
DOCKED: ENDROOT
DOCKED: BRANCH   1   7
DOCKED: ATOM      7  O   UNL d   1      -5.318  12.446  14.591 -0.13 +0.04    -0.278 OA
DOCKED: BRANCH   7   8
DOCKED: ATOM      8  P   UNL d   1      -3.970  12.108  15.380 -0.21 -0.13    +0.473 P 
DOCKED: ATOM      9  O   UNL d   1      -3.876  10.717  15.901 -0.22 +0.08    -0.228 OA
DOCKED: BRANCH   8  10
DOCKED: ATOM     10  O   UNL d   1      -2.814  12.469  14.342 -0.83 +0.11    -0.303 OA
DOCKED: ATOM     11  H   UNL d   1      -3.170  13.051  13.645 +0.11 -0.07    +0.222 HD
DOCKED: ENDBRANCH   8  10
DOCKED: BRANCH   8  12
DOCKED: ATOM     12  O   UNL d   1      -3.821  13.265  16.459 -0.15 +0.08    -0.303 OA
DOCKED: ATOM     13  H   UNL d   1      -3.112  13.909  16.237 -0.44 -0.11    +0.222 HD
DOCKED: ENDBRANCH   8  12
DOCKED: ENDBRANCH   7   8
DOCKED: ENDBRANCH   1   7
DOCKED: BRANCH   2  14
DOCKED: ATOM     14  O   UNL d   1      -7.687  13.774  14.405 -0.03 +0.02    -0.278 OA
DOCKED: BRANCH  14  15
DOCKED: ATOM     15  P   UNL d   1      -8.049  13.144  15.832 -0.01 -0.04    +0.473 P 
DOCKED: ATOM     16  O   UNL d   1      -8.276  11.666  15.876 -0.04 +0.01    -0.228 OA
DOCKED: BRANCH  15  17
DOCKED: ATOM     17  O   UNL d   1      -6.856  13.614  16.777 -0.01 +0.03    -0.303 OA
DOCKED: ATOM     18  H   UNL d   1      -6.007  13.228  16.489 +0.04 -0.03    +0.222 HD
DOCKED: ENDBRANCH  15  17
DOCKED: BRANCH  15  19
DOCKED: ATOM     19  O   UNL d   1      -9.251  14.039  16.367 -0.00 +0.02    -0.303 OA
DOCKED: ATOM     20  H   UNL d   1      -9.679  14.536  15.645 +0.01 -0.01    +0.222 HD
DOCKED: ENDBRANCH  15  19
DOCKED: ENDBRANCH  14  15
DOCKED: ENDBRANCH   2  14
DOCKED: BRANCH   6  21
DOCKED: ATOM     21  O   UNL d   1      -4.427  12.574  11.877 -0.32 +0.05    -0.278 OA
DOCKED: BRANCH  21  22
DOCKED: ATOM     22  P   UNL d   1      -3.141  13.463  11.557 -0.43 -0.08    +0.473 P 
DOCKED: ATOM     23  O   UNL d   1      -2.994  14.769  12.260 -0.34 +0.04    -0.228 OA
DOCKED: BRANCH  22  24
DOCKED: ATOM     24  O   UNL d   1      -1.958  12.429  11.814 -0.59 +0.07    -0.303 OA
DOCKED: ATOM     25  H   UNL d   1      -1.666  12.524  12.756 -0.24 -0.10    +0.222 HD
DOCKED: ENDBRANCH  22  24
DOCKED: BRANCH  22  26
DOCKED: ATOM     26  O   UNL d   1      -3.181  13.527   9.955 -0.31 +0.02    -0.303 OA
DOCKED: ATOM     27  H   UNL d   1      -4.091  13.742   9.665 +0.07 -0.02    +0.222 HD
DOCKED: ENDBRANCH  22  26
DOCKED: ENDBRANCH  21  22
DOCKED: ENDBRANCH   6  21
DOCKED: BRANCH   3  28
DOCKED: ATOM     28  O   UNL d   1      -7.922  16.356  13.837 -0.01 +0.02    -0.278 OA
DOCKED: BRANCH  28  29
DOCKED: ATOM     29  P   UNL d   1      -9.297  15.982  13.125 -0.00 -0.03    +0.473 P 
DOCKED: ATOM     30  O   UNL d   1      -9.328  14.662  12.444 -0.02 +0.02    -0.228 OA
DOCKED: BRANCH  29  31
DOCKED: ATOM     31  O   UNL d   1     -10.310  16.194  14.346 -0.00 +0.02    -0.303 OA
DOCKED: ATOM     32  H   UNL d   1      -9.973  15.691  15.124 +0.00 -0.01    +0.222 HD
DOCKED: ENDBRANCH  29  31
DOCKED: BRANCH  29  33
DOCKED: ATOM     33  O   UNL d   1      -9.564  17.265  12.221 -0.00 +0.02    -0.303 OA
DOCKED: ATOM     34  H   UNL d   1      -8.810  17.378  11.592 +0.01 -0.01    +0.222 HD
DOCKED: ENDBRANCH  29  33
DOCKED: ENDBRANCH  28  29
DOCKED: ENDBRANCH   3  28
DOCKED: BRANCH   5  35
DOCKED: ATOM     35  O   UNL d   1      -6.474  13.841  10.224 -0.18 +0.05    -0.278 OA
DOCKED: BRANCH  35  36
DOCKED: ATOM     36  P   UNL d   1      -7.821  12.990  10.292 -0.09 -0.08    +0.473 P 
DOCKED: ATOM     37  O   UNL d   1      -7.834  11.737   9.475 -0.14 +0.07    -0.228 OA
DOCKED: BRANCH  36  38
DOCKED: ATOM     38  O   UNL d   1      -7.977  12.751  11.859 -0.05 +0.02    -0.303 OA
DOCKED: ATOM     39  H   UNL d   1      -8.070  13.619  12.308 +0.04 -0.02    +0.222 HD
DOCKED: ENDBRANCH  36  38
DOCKED: BRANCH  36  40
DOCKED: ATOM     40  O   UNL d   1      -8.929  14.081   9.959 -0.04 +0.03    -0.303 OA
DOCKED: ATOM     41  H   UNL d   1      -8.730  14.944  10.384 +0.03 -0.02    +0.222 HD
DOCKED: ENDBRANCH  36  40
DOCKED: ENDBRANCH  35  36
DOCKED: ENDBRANCH   5  35
DOCKED: BRANCH   4  42
DOCKED: ATOM     42  O   UNL d   1      -6.795  16.569  11.197 -0.04 +0.02    -0.278 OA
DOCKED: BRANCH  42  43
DOCKED: ATOM     43  P   UNL d   1      -6.215  16.484   9.713 -0.07 -0.03    +0.473 P 
DOCKED: ATOM     44  O   UNL d   1      -4.934  15.749   9.518 -0.04 +0.01    -0.228 OA
DOCKED: BRANCH  43  45
DOCKED: ATOM     45  O   UNL d   1      -7.440  15.886   8.893 -0.04 +0.02    -0.303 OA
DOCKED: ATOM     46  H   UNL d   1      -7.357  14.918   8.780 +0.06 -0.03    +0.222 HD
DOCKED: ENDBRANCH  43  45
DOCKED: BRANCH  43  47
DOCKED: ATOM     47  O   UNL d   1      -6.216  18.013   9.232 -0.06 +0.02    -0.303 OA
DOCKED: ATOM     48  H   UNL d   1      -5.758  18.080   8.368 +0.03 -0.01    +0.222 HD
DOCKED: ENDBRANCH  43  47
DOCKED: ENDBRANCH  42  43
DOCKED: ENDBRANCH   4  42
DOCKED: TORSDOF 24
DOCKED: TER
DOCKED: ENDMDL
________________________________________________________________________________


	BEGINNING GENETIC ALGORITHM DOCKING 46 of 100
Run: 46 Seed: 278232770 1434317747 [ Run 46 of 100 GA/GALS ]
Beginning LAMARCKIAN GENETIC ALGORITHM (LGA), with a maximum of 25000000 energy evaluations.

Final-Value: -17.789


	FINAL GENETIC ALGORITHM DOCKED STATE
	_______________________________________________


Detailed state:  trans -12.635 8.260 -8.978 quatxyzw 0.516964 -0.171587 0.083897 -0.834426 center 0.035 0.082 -0.065 ntor 24 -170.8677 7.8059 121.0110 -2.2773 111.0994 76.6566 6.9464 -97.9468 14.3831 55.1921 35.6818 142.2143 36.8548 38.0708 -180.0000 105.5400 -58.4965 -177.8998 -134.8472 -25.4410 16.0480 -31.3838 -174.8139 14.6196
State:	-12.635   8.260  -8.978   0.938 -0.311  0.152 -66.888   -170.87    7.81  121.01   -2.28  111.10   76.66    6.95  -97.95   14.38   55.19   35.68  142.21   36.85   38.07 -180.00  105.54  -58.50 -177.90 -134.85  -25.44   16.05  -31.38 -174.81   14.62

DOCKED: MODEL       46
DOCKED: USER    Run = 46
DOCKED: USER    DPF = D:/Protein_go_brrr/autodock/final/mut_N102T/IHP/dock.dpf
DOCKED: USER  
DOCKED: USER    Estimated Free Energy of Binding    =   +4.93 kcal/mol  [=(1)+(2)+(3)-(4)]
DOCKED: USER    
DOCKED: USER    (1) Final Intermolecular Energy     =   -2.23 kcal/mol
DOCKED: USER        vdW + Hbond + desolv Energy     =   -2.16 kcal/mol
DOCKED: USER        Electrostatic Energy            =   -0.07 kcal/mol
DOCKED: USER    (2) Final Total Internal Energy     =  -15.56 kcal/mol
DOCKED: USER    (3) Torsional Free Energy           =   +7.16 kcal/mol
DOCKED: USER    (4) Unbound System's Energy  [=(2)] =  -15.56 kcal/mol
DOCKED: USER    
DOCKED: USER    
DOCKED: USER    NEWDPF move IHP_ideal_opt.pdbqt
DOCKED: USER    NEWDPF about 0.035000 0.082000 -0.065000
DOCKED: USER    NEWDPF tran0 -12.635390 8.260067 -8.977984
DOCKED: USER    NEWDPF quaternion0 0.516964 -0.171587 0.083897 -0.834426
DOCKED: USER    NEWDPF axisangle0 0.938025 -0.311343 0.152230 -66.887693
DOCKED: USER    NEWDPF quat0 0.938025 -0.311343 0.152230 -66.887693
DOCKED: USER    NEWDPF dihe0 -170.87 7.81 121.01 -2.28 111.10 76.66 6.95 -97.95 14.38 55.19 35.68 142.21 36.85 38.07 -180.00 105.54 -58.50 -177.90 -134.85 -25.44 16.05 -31.38 -174.81 14.62 
DOCKED: USER  keepresnum = 1 
DOCKED: USER  
DOCKED: REMARK  24 active torsions:
DOCKED: REMARK  status: ('A' for Active; 'I' for Inactive)
DOCKED: REMARK    1  A    between atoms: C_1  and  O_7 
DOCKED: REMARK    2  A    between atoms: C_2  and  O_12 
DOCKED: REMARK    3  A    between atoms: C_3  and  O_17 
DOCKED: REMARK    4  A    between atoms: C_4  and  O_22 
DOCKED: REMARK    5  A    between atoms: C_5  and  O_27 
DOCKED: REMARK    6  A    between atoms: C_6  and  O_32 
DOCKED: REMARK    7  A    between atoms: O_7  and  P_8 
DOCKED: REMARK    8  A    between atoms: P_8  and  O_10 
DOCKED: REMARK    9  A    between atoms: P_8  and  O_11 
DOCKED: REMARK   10  A    between atoms: O_12  and  P_13 
DOCKED: REMARK   11  A    between atoms: P_13  and  O_15 
DOCKED: REMARK   12  A    between atoms: P_13  and  O_16 
DOCKED: REMARK   13  A    between atoms: O_17  and  P_18 
DOCKED: REMARK   14  A    between atoms: P_18  and  O_20 
DOCKED: REMARK   15  A    between atoms: P_18  and  O_21 
DOCKED: REMARK   16  A    between atoms: O_22  and  P_23 
DOCKED: REMARK   17  A    between atoms: P_23  and  O_25 
DOCKED: REMARK   18  A    between atoms: P_23  and  O_26 
DOCKED: REMARK   19  A    between atoms: O_27  and  P_28 
DOCKED: REMARK   20  A    between atoms: P_28  and  O_30 
DOCKED: REMARK   21  A    between atoms: P_28  and  O_31 
DOCKED: REMARK   22  A    between atoms: O_32  and  P_33 
DOCKED: REMARK   23  A    between atoms: P_33  and  O_35 
DOCKED: REMARK   24  A    between atoms: P_33  and  O_36 
DOCKED: USER                              x       y       z     vdW  Elec       q    Type
DOCKED: USER                           _______ _______ _______ _____ _____    ______ ____
DOCKED: ROOT
DOCKED: ATOM      1  C   UNL d   1     -11.350   7.107  -8.929 -0.05 +0.01    +0.194 C 
DOCKED: ATOM      2  C   UNL d   1     -12.178   7.120 -10.216 -0.04 +0.00    +0.194 C 
DOCKED: ATOM      3  C   UNL d   1     -13.676   7.234  -9.924 -0.00 +0.00    +0.194 C 
DOCKED: ATOM      4  C   UNL d   1     -14.022   8.401  -9.003 +0.00 -0.00    +0.194 C 
DOCKED: ATOM      5  C   UNL d   1     -13.143   8.494  -7.762 +0.00 +0.00    +0.194 C 
DOCKED: ATOM      6  C   UNL d   1     -11.650   8.319  -8.046 -0.01 +0.00    +0.194 C 
DOCKED: ENDROOT
DOCKED: BRANCH   1   7
DOCKED: ATOM      7  O   UNL d   1      -9.968   7.174  -9.288 -0.56 -0.06    -0.278 OA
DOCKED: BRANCH   7   8
DOCKED: ATOM      8  P   UNL d   1      -9.210   8.571  -9.134 -0.06 +0.00    +0.473 P 
DOCKED: ATOM      9  O   UNL d   1      -8.597   8.813  -7.799 -0.09 +0.00    -0.228 OA
DOCKED: BRANCH   8  10
DOCKED: ATOM     10  O   UNL d   1      -8.145   8.567 -10.322 -0.18 +0.05    -0.303 OA
DOCKED: ATOM     11  H   UNL d   1      -8.501   8.063 -11.078 -0.49 -0.08    +0.222 HD
DOCKED: ENDBRANCH   8  10
DOCKED: BRANCH   8  12
DOCKED: ATOM     12  O   UNL d   1     -10.253   9.663  -9.626 -0.02 +0.01    -0.303 OA
DOCKED: ATOM     13  H   UNL d   1     -10.795   9.362 -10.390 +0.02 -0.01    +0.222 HD
DOCKED: ENDBRANCH   8  12
DOCKED: ENDBRANCH   7   8
DOCKED: ENDBRANCH   1   7
DOCKED: BRANCH   2  14
DOCKED: ATOM     14  O   UNL d   1     -11.782   8.241 -11.015 -0.02 +0.00    -0.278 OA
DOCKED: BRANCH  14  15
DOCKED: ATOM     15  P   UNL d   1     -10.899   7.920 -12.312 -0.07 -0.03    +0.473 P 
DOCKED: ATOM     16  O   UNL d   1     -11.638   7.741 -13.601 -0.05 +0.00    -0.228 OA
DOCKED: BRANCH  15  17
DOCKED: ATOM     17  O   UNL d   1      -9.842   9.111 -12.366 -0.06 +0.03    -0.303 OA
DOCKED: ATOM     18  H   UNL d   1      -9.695   9.491 -11.479 +0.03 -0.02    +0.222 HD
DOCKED: ENDBRANCH  15  17
DOCKED: BRANCH  15  19
DOCKED: ATOM     19  O   UNL d   1      -9.980   6.698 -11.873 -0.01 +0.06    -0.303 OA
DOCKED: ATOM     20  H   UNL d   1      -9.391   6.937 -11.133 -0.45 -0.05    +0.222 HD
DOCKED: ENDBRANCH  15  19
DOCKED: ENDBRANCH  14  15
DOCKED: ENDBRANCH   2  14
DOCKED: BRANCH   6  21
DOCKED: ATOM     21  O   UNL d   1     -11.016   8.088  -6.790 -0.01 -0.00    -0.278 OA
DOCKED: BRANCH  21  22
DOCKED: ATOM     22  P   UNL d   1     -10.554   9.326  -5.897 -0.01 -0.00    +0.473 P 
DOCKED: ATOM     23  O   UNL d   1      -9.366   9.152  -5.011 -0.05 +0.00    -0.228 OA
DOCKED: BRANCH  22  24
DOCKED: ATOM     24  O   UNL d   1     -10.410  10.478  -6.986 -0.00 +0.00    -0.303 OA
DOCKED: ATOM     25  H   UNL d   1     -11.204  10.442  -7.578 +0.01 -0.00    +0.222 HD
DOCKED: ENDBRANCH  22  24
DOCKED: BRANCH  22  26
DOCKED: ATOM     26  O   UNL d   1     -11.922   9.730  -5.166 -0.00 +0.00    -0.303 OA
DOCKED: ATOM     27  H   UNL d   1     -12.340  10.471  -5.652 +0.00 -0.00    +0.222 HD
DOCKED: ENDBRANCH  22  26
DOCKED: ENDBRANCH  21  22
DOCKED: ENDBRANCH   6  21
DOCKED: BRANCH   3  28
DOCKED: ATOM     28  O   UNL d   1     -14.331   7.516 -11.154 +0.00 +0.00    -0.278 OA
DOCKED: BRANCH  28  29
DOCKED: ATOM     29  P   UNL d   1     -14.621   6.349 -12.198 +0.01 +0.00    +0.473 P 
DOCKED: ATOM     30  O   UNL d   1     -15.801   5.498 -11.896 +0.00 -0.00    -0.228 OA
DOCKED: BRANCH  29  31
DOCKED: ATOM     31  O   UNL d   1     -14.662   7.193 -13.556 -0.00 -0.00    -0.303 OA
DOCKED: ATOM     32  H   UNL d   1     -13.799   7.655 -13.665 +0.01 +0.00    +0.222 HD
DOCKED: ENDBRANCH  29  31
DOCKED: BRANCH  29  33
DOCKED: ATOM     33  O   UNL d   1     -13.209   5.617 -12.281 -0.01 +0.00    -0.303 OA
DOCKED: ATOM     34  H   UNL d   1     -12.493   6.298 -12.258 +0.03 -0.00    +0.222 HD
DOCKED: ENDBRANCH  29  33
DOCKED: ENDBRANCH  28  29
DOCKED: ENDBRANCH   3  28
DOCKED: BRANCH   5  35
DOCKED: ATOM     35  O   UNL d   1     -13.322   9.817  -7.259 +0.00 +0.00    -0.278 OA
DOCKED: BRANCH  35  36
DOCKED: ATOM     36  P   UNL d   1     -13.318  11.063  -8.255 +0.00 -0.00    +0.473 P 
DOCKED: ATOM     37  O   UNL d   1     -12.797  10.789  -9.630 +0.00 +0.00    -0.228 OA
DOCKED: BRANCH  36  38
DOCKED: ATOM     38  O   UNL d   1     -14.842  11.521  -8.211 +0.00 +0.00    -0.303 OA
DOCKED: ATOM     39  H   UNL d   1     -15.413  10.760  -8.453 +0.00 -0.00    +0.222 HD
DOCKED: ENDBRANCH  36  38
DOCKED: BRANCH  36  40
DOCKED: ATOM     40  O   UNL d   1     -12.560  12.174  -7.405 +0.00 +0.00    -0.303 OA
DOCKED: ATOM     41  H   UNL d   1     -12.110  11.788  -6.621 +0.00 -0.00    +0.222 HD
DOCKED: ENDBRANCH  36  40
DOCKED: ENDBRANCH  35  36
DOCKED: ENDBRANCH   5  35
DOCKED: BRANCH   4  42
DOCKED: ATOM     42  O   UNL d   1     -15.365   8.190  -8.553 +0.00 +0.00    -0.278 OA
DOCKED: BRANCH  42  43
DOCKED: ATOM     43  P   UNL d   1     -16.558   8.926  -9.314 +0.00 -0.00    +0.473 P 
DOCKED: ATOM     44  O   UNL d   1     -17.572   9.631  -8.482 +0.00 +0.00    -0.228 OA
DOCKED: BRANCH  43  45
DOCKED: ATOM     45  O   UNL d   1     -15.788   9.869 -10.340 +0.00 +0.00    -0.303 OA
DOCKED: ATOM     46  H   UNL d   1     -14.974  10.239  -9.944 +0.00 -0.00    +0.222 HD
DOCKED: ENDBRANCH  43  45
DOCKED: BRANCH  43  47
DOCKED: ATOM     47  O   UNL d   1     -17.131   7.787 -10.285 +0.00 +0.00    -0.303 OA
DOCKED: ATOM     48  H   UNL d   1     -16.385   7.264 -10.645 +0.00 -0.00    +0.222 HD
DOCKED: ENDBRANCH  43  47
DOCKED: ENDBRANCH  42  43
DOCKED: ENDBRANCH   4  42
DOCKED: TORSDOF 24
DOCKED: TER
DOCKED: ENDMDL
________________________________________________________________________________


	BEGINNING GENETIC ALGORITHM DOCKING 47 of 100
Run: 47 Seed: 696019187 447759835 [ Run 47 of 100 GA/GALS ]
Beginning LAMARCKIAN GENETIC ALGORITHM (LGA), with a maximum of 25000000 energy evaluations.

Final-Value: -15.306


	FINAL GENETIC ALGORITHM DOCKED STATE
	_______________________________________________


Detailed state:  trans 11.606 15.669 14.394 quatxyzw -0.078969 -0.968877 0.234610 -0.000229 center 0.035 0.082 -0.065 ntor 24 -179.9061 118.4285 11.8916 31.1481 -69.2197 104.1360 29.2874 -111.3575 32.8309 -171.6220 63.7276 -120.8332 77.9273 -179.6837 -177.1880 125.2292 -87.7325 -85.1899 55.3585 -10.9094 178.9281 -24.0192 -138.4225 -167.8426
State:	 11.606  15.669  14.394  -0.079 -0.969  0.235 -179.974   -179.91  118.43   11.89   31.15  -69.22  104.14   29.29 -111.36   32.83 -171.62   63.73 -120.83   77.93 -179.68 -177.19  125.23  -87.73  -85.19   55.36  -10.91  178.93  -24.02 -138.42 -167.84

DOCKED: MODEL       47
DOCKED: USER    Run = 47
DOCKED: USER    DPF = D:/Protein_go_brrr/autodock/final/mut_N102T/IHP/dock.dpf
DOCKED: USER  
DOCKED: USER    Estimated Free Energy of Binding    =   +3.72 kcal/mol  [=(1)+(2)+(3)-(4)]
DOCKED: USER    
DOCKED: USER    (1) Final Intermolecular Energy     =   -3.44 kcal/mol
DOCKED: USER        vdW + Hbond + desolv Energy     =   -3.42 kcal/mol
DOCKED: USER        Electrostatic Energy            =   -0.02 kcal/mol
DOCKED: USER    (2) Final Total Internal Energy     =  -11.86 kcal/mol
DOCKED: USER    (3) Torsional Free Energy           =   +7.16 kcal/mol
DOCKED: USER    (4) Unbound System's Energy  [=(2)] =  -11.86 kcal/mol
DOCKED: USER    
DOCKED: USER    
DOCKED: USER    NEWDPF move IHP_ideal_opt.pdbqt
DOCKED: USER    NEWDPF about 0.035000 0.082000 -0.065000
DOCKED: USER    NEWDPF tran0 11.606076 15.669230 14.394264
DOCKED: USER    NEWDPF quaternion0 -0.078969 -0.968877 0.234610 -0.000229
DOCKED: USER    NEWDPF axisangle0 -0.078969 -0.968877 0.234610 -179.973752
DOCKED: USER    NEWDPF quat0 -0.078969 -0.968877 0.234610 -179.973752
DOCKED: USER    NEWDPF dihe0 -179.91 118.43 11.89 31.15 -69.22 104.14 29.29 -111.36 32.83 -171.62 63.73 -120.83 77.93 -179.68 -177.19 125.23 -87.73 -85.19 55.36 -10.91 178.93 -24.02 -138.42 -167.84 
DOCKED: USER  keepresnum = 1 
DOCKED: USER  
DOCKED: REMARK  24 active torsions:
DOCKED: REMARK  status: ('A' for Active; 'I' for Inactive)
DOCKED: REMARK    1  A    between atoms: C_1  and  O_7 
DOCKED: REMARK    2  A    between atoms: C_2  and  O_12 
DOCKED: REMARK    3  A    between atoms: C_3  and  O_17 
DOCKED: REMARK    4  A    between atoms: C_4  and  O_22 
DOCKED: REMARK    5  A    between atoms: C_5  and  O_27 
DOCKED: REMARK    6  A    between atoms: C_6  and  O_32 
DOCKED: REMARK    7  A    between atoms: O_7  and  P_8 
DOCKED: REMARK    8  A    between atoms: P_8  and  O_10 
DOCKED: REMARK    9  A    between atoms: P_8  and  O_11 
DOCKED: REMARK   10  A    between atoms: O_12  and  P_13 
DOCKED: REMARK   11  A    between atoms: P_13  and  O_15 
DOCKED: REMARK   12  A    between atoms: P_13  and  O_16 
DOCKED: REMARK   13  A    between atoms: O_17  and  P_18 
DOCKED: REMARK   14  A    between atoms: P_18  and  O_20 
DOCKED: REMARK   15  A    between atoms: P_18  and  O_21 
DOCKED: REMARK   16  A    between atoms: O_22  and  P_23 
DOCKED: REMARK   17  A    between atoms: P_23  and  O_25 
DOCKED: REMARK   18  A    between atoms: P_23  and  O_26 
DOCKED: REMARK   19  A    between atoms: O_27  and  P_28 
DOCKED: REMARK   20  A    between atoms: P_28  and  O_30 
DOCKED: REMARK   21  A    between atoms: P_28  and  O_31 
DOCKED: REMARK   22  A    between atoms: O_32  and  P_33 
DOCKED: REMARK   23  A    between atoms: P_33  and  O_35 
DOCKED: REMARK   24  A    between atoms: P_33  and  O_36 
DOCKED: USER                              x       y       z     vdW  Elec       q    Type
DOCKED: USER                           _______ _______ _______ _____ _____    ______ ____
DOCKED: ROOT
DOCKED: ATOM      1  C   UNL d   1      10.203  14.722  14.048 -0.13 -0.01    +0.194 C 
DOCKED: ATOM      2  C   UNL d   1      11.327  13.994  14.788 -0.09 +0.00    +0.194 C 
DOCKED: ATOM      3  C   UNL d   1      12.700  14.329  14.204 -0.08 +0.01    +0.194 C 
DOCKED: ATOM      4  C   UNL d   1      12.958  15.830  14.097 -0.03 +0.00    +0.194 C 
DOCKED: ATOM      5  C   UNL d   1      11.813  16.613  13.468 -0.03 -0.01    +0.194 C 
DOCKED: ATOM      6  C   UNL d   1      10.433  16.234  14.009 -0.05 -0.02    +0.194 C 
DOCKED: ENDROOT
DOCKED: BRANCH   1   7
DOCKED: ATOM      7  O   UNL d   1       8.982  14.495  14.756 -0.12 +0.05    -0.278 OA
DOCKED: BRANCH   7   8
DOCKED: ATOM      8  P   UNL d   1       8.385  13.014  14.784 -0.25 -0.08    +0.473 P 
DOCKED: ATOM      9  O   UNL d   1       8.029  12.502  16.136 -0.53 -0.00    -0.228 OA
DOCKED: BRANCH   8  10
DOCKED: ATOM     10  O   UNL d   1       7.140  13.080  13.789 -0.46 +0.12    -0.303 OA
DOCKED: ATOM     11  H   UNL d   1       7.254  13.826  13.172 -0.25 -0.10    +0.222 HD
DOCKED: ENDBRANCH   8  10
DOCKED: BRANCH   8  12
DOCKED: ATOM     12  O   UNL d   1       9.423  12.135  13.961 -0.25 +0.00    -0.303 OA
DOCKED: ATOM     13  H   UNL d   1      10.261  11.970  14.449 +0.12 +0.01    +0.222 HD
DOCKED: ENDBRANCH   8  12
DOCKED: ENDBRANCH   7   8
DOCKED: ENDBRANCH   1   7
DOCKED: BRANCH   2  14
DOCKED: ATOM     14  O   UNL d   1      11.309  14.385  16.166 -0.02 +0.01    -0.278 OA
DOCKED: BRANCH  14  15
DOCKED: ATOM     15  P   UNL d   1      11.101  13.215  17.240 +0.01 +0.01    +0.473 P 
DOCKED: ATOM     16  O   UNL d   1       9.957  13.372  18.192 -0.07 -0.00    -0.228 OA
DOCKED: BRANCH  15  17
DOCKED: ATOM     17  O   UNL d   1      10.993  11.893  16.357 -0.07 -0.03    -0.303 OA
DOCKED: ATOM     18  H   UNL d   1      10.083  11.764  16.027 +0.10 +0.02    +0.222 HD
DOCKED: ENDBRANCH  15  17
DOCKED: BRANCH  15  19
DOCKED: ATOM     19  O   UNL d   1      12.532  13.034  17.911 -0.00 -0.02    -0.303 OA
DOCKED: ATOM     20  H   UNL d   1      13.251  13.276  17.298 +0.02 +0.01    +0.222 HD
DOCKED: ENDBRANCH  15  19
DOCKED: ENDBRANCH  14  15
DOCKED: ENDBRANCH   2  14
DOCKED: BRANCH   6  21
DOCKED: ATOM     21  O   UNL d   1       9.473  16.780  13.108 -0.06 +0.04    -0.278 OA
DOCKED: BRANCH  21  22
DOCKED: ATOM     22  P   UNL d   1       9.207  16.066  11.706 -0.13 -0.04    +0.473 P 
DOCKED: ATOM     23  O   UNL d   1       8.850  16.920  10.537 -0.16 +0.00    -0.228 OA
DOCKED: BRANCH  22  24
DOCKED: ATOM     24  O   UNL d   1      10.533  15.205  11.523 -0.18 +0.02    -0.303 OA
DOCKED: ATOM     25  H   UNL d   1      10.846  15.316  10.589 -0.17 -0.04    +0.222 HD
DOCKED: ENDBRANCH  22  24
DOCKED: BRANCH  22  26
DOCKED: ATOM     26  O   UNL d   1       8.136  14.943  12.110 -0.33 +0.07    -0.303 OA
DOCKED: ATOM     27  H   UNL d   1       8.577  14.259  12.654 +0.09 -0.03    +0.222 HD
DOCKED: ENDBRANCH  22  26
DOCKED: ENDBRANCH  21  22
DOCKED: ENDBRANCH   6  21
DOCKED: BRANCH   3  28
DOCKED: ATOM     28  O   UNL d   1      13.682  13.841  15.109 -0.03 -0.02    -0.278 OA
DOCKED: BRANCH  28  29
DOCKED: ATOM     29  P   UNL d   1      14.191  12.335  15.009 -0.04 +0.06    +0.473 P 
DOCKED: ATOM     30  O   UNL d   1      15.484  12.141  14.304 -0.06 -0.03    -0.228 OA
DOCKED: BRANCH  29  31
DOCKED: ATOM     31  O   UNL d   1      14.136  11.919  16.554 -0.01 -0.04    -0.303 OA
DOCKED: ATOM     32  H   UNL d   1      13.207  11.685  16.783 +0.04 +0.04    +0.222 HD
DOCKED: ENDBRANCH  29  31
DOCKED: BRANCH  29  33
DOCKED: ATOM     33  O   UNL d   1      12.920  11.593  14.400 -0.07 -0.06    -0.303 OA
DOCKED: ATOM     34  H   UNL d   1      12.128  11.809  14.950 +0.08 +0.04    +0.222 HD
DOCKED: ENDBRANCH  29  33
DOCKED: ENDBRANCH  28  29
DOCKED: ENDBRANCH   3  28
DOCKED: BRANCH   5  35
DOCKED: ATOM     35  O   UNL d   1      12.040  17.977  13.817 -0.00 +0.01    -0.278 OA
DOCKED: BRANCH  35  36
DOCKED: ATOM     36  P   UNL d   1      13.194  18.363  14.849 +0.00 -0.02    +0.473 P 
DOCKED: ATOM     37  O   UNL d   1      13.293  17.491  16.060 -0.00 +0.01    -0.228 OA
DOCKED: BRANCH  36  38
DOCKED: ATOM     38  O   UNL d   1      14.485  18.339  13.918 -0.00 +0.00    -0.303 OA
DOCKED: ATOM     39  H   UNL d   1      14.401  17.607  13.270 +0.01 -0.00    +0.222 HD
DOCKED: ENDBRANCH  36  38
DOCKED: BRANCH  36  40
DOCKED: ATOM     40  O   UNL d   1      12.927  19.911  15.095 +0.00 +0.02    -0.303 OA
DOCKED: ATOM     41  H   UNL d   1      13.155  20.179  16.012 +0.00 -0.01    +0.222 HD
DOCKED: ENDBRANCH  36  40
DOCKED: ENDBRANCH  35  36
DOCKED: ENDBRANCH   5  35
DOCKED: BRANCH   4  42
DOCKED: ATOM     42  O   UNL d   1      14.098  15.995  13.246 -0.02 -0.01    -0.278 OA
DOCKED: BRANCH  42  43
DOCKED: ATOM     43  P   UNL d   1      13.896  15.933  11.665 -0.03 +0.02    +0.473 P 
DOCKED: ATOM     44  O   UNL d   1      12.941  14.921  11.134 -0.16 -0.02    -0.228 OA
DOCKED: BRANCH  43  45
DOCKED: ATOM     45  O   UNL d   1      13.519  17.436  11.302 -0.01 -0.01    -0.303 OA
DOCKED: ATOM     46  H   UNL d   1      13.360  17.970  12.107 +0.01 -0.00    +0.222 HD
DOCKED: ENDBRANCH  43  45
DOCKED: BRANCH  43  47
DOCKED: ATOM     47  O   UNL d   1      15.395  15.830  11.108 -0.01 -0.02    -0.303 OA
DOCKED: ATOM     48  H   UNL d   1      15.827  15.037  11.489 +0.02 +0.01    +0.222 HD
DOCKED: ENDBRANCH  43  47
DOCKED: ENDBRANCH  42  43
DOCKED: ENDBRANCH   4  42
DOCKED: TORSDOF 24
DOCKED: TER
DOCKED: ENDMDL
________________________________________________________________________________


	BEGINNING GENETIC ALGORITHM DOCKING 48 of 100
Run: 48 Seed: 295512887 1822441676 [ Run 48 of 100 GA/GALS ]
Beginning LAMARCKIAN GENETIC ALGORITHM (LGA), with a maximum of 25000000 energy evaluations.

Final-Value: -17.352


	FINAL GENETIC ALGORITHM DOCKED STATE
	_______________________________________________


Detailed state:  trans -10.782 -8.204 2.013 quatxyzw -0.808911 -0.249507 -0.015337 0.532142 center 0.035 0.082 -0.065 ntor 24 82.2182 27.0083 41.7891 20.8183 60.2226 -75.0448 161.9807 49.3047 -153.5336 -42.9921 21.6735 167.4969 -164.2106 171.3303 123.0927 136.6731 99.7580 -146.7303 44.8553 -9.4736 -46.2677 56.6969 162.5284 -36.4476
State:	-10.782  -8.204   2.013  -0.955 -0.295 -0.018 115.699     82.22   27.01   41.79   20.82   60.22  -75.04  161.98   49.30 -153.53  -42.99   21.67  167.50 -164.21  171.33  123.09  136.67   99.76 -146.73   44.86   -9.47  -46.27   56.70  162.53  -36.45

DOCKED: MODEL       48
DOCKED: USER    Run = 48
DOCKED: USER    DPF = D:/Protein_go_brrr/autodock/final/mut_N102T/IHP/dock.dpf
DOCKED: USER  
DOCKED: USER    Estimated Free Energy of Binding    =   +1.44 kcal/mol  [=(1)+(2)+(3)-(4)]
DOCKED: USER    
DOCKED: USER    (1) Final Intermolecular Energy     =   -5.72 kcal/mol
DOCKED: USER        vdW + Hbond + desolv Energy     =   -5.40 kcal/mol
DOCKED: USER        Electrostatic Energy            =   -0.32 kcal/mol
DOCKED: USER    (2) Final Total Internal Energy     =  -11.64 kcal/mol
DOCKED: USER    (3) Torsional Free Energy           =   +7.16 kcal/mol
DOCKED: USER    (4) Unbound System's Energy  [=(2)] =  -11.64 kcal/mol
DOCKED: USER    
DOCKED: USER    
DOCKED: USER    NEWDPF move IHP_ideal_opt.pdbqt
DOCKED: USER    NEWDPF about 0.035000 0.082000 -0.065000
DOCKED: USER    NEWDPF tran0 -10.782096 -8.203607 2.013117
DOCKED: USER    NEWDPF quaternion0 -0.808911 -0.249507 -0.015337 0.532142
DOCKED: USER    NEWDPF axisangle0 -0.955419 -0.294697 -0.018115 115.699452
DOCKED: USER    NEWDPF quat0 -0.955419 -0.294697 -0.018115 115.699452
DOCKED: USER    NEWDPF dihe0 82.22 27.01 41.79 20.82 60.22 -75.04 161.98 49.30 -153.53 -42.99 21.67 167.50 -164.21 171.33 123.09 136.67 99.76 -146.73 44.86 -9.47 -46.27 56.70 162.53 -36.45 
DOCKED: USER  keepresnum = 1 
DOCKED: USER  
DOCKED: REMARK  24 active torsions:
DOCKED: REMARK  status: ('A' for Active; 'I' for Inactive)
DOCKED: REMARK    1  A    between atoms: C_1  and  O_7 
DOCKED: REMARK    2  A    between atoms: C_2  and  O_12 
DOCKED: REMARK    3  A    between atoms: C_3  and  O_17 
DOCKED: REMARK    4  A    between atoms: C_4  and  O_22 
DOCKED: REMARK    5  A    between atoms: C_5  and  O_27 
DOCKED: REMARK    6  A    between atoms: C_6  and  O_32 
DOCKED: REMARK    7  A    between atoms: O_7  and  P_8 
DOCKED: REMARK    8  A    between atoms: P_8  and  O_10 
DOCKED: REMARK    9  A    between atoms: P_8  and  O_11 
DOCKED: REMARK   10  A    between atoms: O_12  and  P_13 
DOCKED: REMARK   11  A    between atoms: P_13  and  O_15 
DOCKED: REMARK   12  A    between atoms: P_13  and  O_16 
DOCKED: REMARK   13  A    between atoms: O_17  and  P_18 
DOCKED: REMARK   14  A    between atoms: P_18  and  O_20 
DOCKED: REMARK   15  A    between atoms: P_18  and  O_21 
DOCKED: REMARK   16  A    between atoms: O_22  and  P_23 
DOCKED: REMARK   17  A    between atoms: P_23  and  O_25 
DOCKED: REMARK   18  A    between atoms: P_23  and  O_26 
DOCKED: REMARK   19  A    between atoms: O_27  and  P_28 
DOCKED: REMARK   20  A    between atoms: P_28  and  O_30 
DOCKED: REMARK   21  A    between atoms: P_28  and  O_31 
DOCKED: REMARK   22  A    between atoms: O_32  and  P_33 
DOCKED: REMARK   23  A    between atoms: P_33  and  O_35 
DOCKED: REMARK   24  A    between atoms: P_33  and  O_36 
DOCKED: USER                              x       y       z     vdW  Elec       q    Type
DOCKED: USER                           _______ _______ _______ _____ _____    ______ ____
DOCKED: ROOT
DOCKED: ATOM      1  C   UNL d   1      -9.800  -8.078   0.598 -0.11 -0.04    +0.194 C 
DOCKED: ATOM      2  C   UNL d   1     -11.311  -8.039   0.360 -0.05 -0.02    +0.194 C 
DOCKED: ATOM      3  C   UNL d   1     -12.044  -9.085   1.201 -0.02 -0.02    +0.194 C 
DOCKED: ATOM      4  C   UNL d   1     -11.692  -9.019   2.685 -0.03 -0.03    +0.194 C 
DOCKED: ATOM      5  C   UNL d   1     -10.196  -8.941   2.964 -0.10 -0.03    +0.194 C 
DOCKED: ATOM      6  C   UNL d   1      -9.453  -7.938   2.080 -0.15 -0.04    +0.194 C 
DOCKED: ENDROOT
DOCKED: BRANCH   1   7
DOCKED: ATOM      7  O   UNL d   1      -9.212  -6.968  -0.085 -0.17 +0.03    -0.278 OA
DOCKED: BRANCH   7   8
DOCKED: ATOM      8  P   UNL d   1      -9.014  -7.067  -1.667 -0.09 -0.03    +0.473 P 
DOCKED: ATOM      9  O   UNL d   1      -7.598  -7.125  -2.123 -0.34 +0.04    -0.228 OA
DOCKED: BRANCH   8  10
DOCKED: ATOM     10  O   UNL d   1      -9.860  -8.354  -2.082 -0.36 +0.01    -0.303 OA
DOCKED: ATOM     11  H   UNL d   1      -9.375  -9.161  -1.827 -0.49 -0.04    +0.222 HD
DOCKED: ENDBRANCH   8  10
DOCKED: BRANCH   8  12
DOCKED: ATOM     12  O   UNL d   1      -9.889  -5.885  -2.268 -0.11 -0.04    -0.303 OA
DOCKED: ATOM     13  H   UNL d   1     -10.562  -5.544  -1.636 +0.07 +0.04    +0.222 HD
DOCKED: ENDBRANCH   8  12
DOCKED: ENDBRANCH   7   8
DOCKED: ENDBRANCH   1   7
DOCKED: BRANCH   2  14
DOCKED: ATOM     14  O   UNL d   1     -11.805  -6.741   0.713 -0.05 +0.02    -0.278 OA
DOCKED: BRANCH  14  15
DOCKED: ATOM     15  P   UNL d   1     -12.568  -5.928  -0.437 -0.03 +0.02    +0.473 P 
DOCKED: ATOM     16  O   UNL d   1     -12.178  -4.495  -0.618 -0.03 -0.06    -0.228 OA
DOCKED: BRANCH  15  17
DOCKED: ATOM     17  O   UNL d   1     -12.335  -6.802  -1.749 -0.01 -0.01    -0.303 OA
DOCKED: ATOM     18  H   UNL d   1     -11.385  -6.971  -1.894 +0.04 +0.01    +0.222 HD
DOCKED: ENDBRANCH  15  17
DOCKED: BRANCH  15  19
DOCKED: ATOM     19  O   UNL d   1     -14.111  -6.188  -0.150 -0.00 +0.00    -0.303 OA
DOCKED: ATOM     20  H   UNL d   1     -14.275  -7.106   0.136 +0.02 -0.01    +0.222 HD
DOCKED: ENDBRANCH  15  19
DOCKED: ENDBRANCH  14  15
DOCKED: ENDBRANCH   2  14
DOCKED: BRANCH   6  21
DOCKED: ATOM     21  O   UNL d   1      -8.062  -8.223   2.213 -0.22 +0.06    -0.278 OA
DOCKED: BRANCH  21  22
DOCKED: ATOM     22  P   UNL d   1      -6.996  -7.042   2.094 -0.34 -0.09    +0.473 P 
DOCKED: ATOM     23  O   UNL d   1      -5.692  -7.196   2.801 -0.58 +0.06    -0.228 OA
DOCKED: BRANCH  22  24
DOCKED: ATOM     24  O   UNL d   1      -6.884  -6.862   0.517 -0.26 +0.03    -0.303 OA
DOCKED: ATOM     25  H   UNL d   1      -7.416  -7.578   0.086 -0.26 -0.08    +0.222 HD
DOCKED: ENDBRANCH  22  24
DOCKED: BRANCH  22  26
DOCKED: ATOM     26  O   UNL d   1      -7.875  -5.767   2.511 -0.36 +0.09    -0.303 OA
DOCKED: ATOM     27  H   UNL d   1      -7.567  -5.434   3.379 -0.08 -0.11    +0.222 HD
DOCKED: ENDBRANCH  22  26
DOCKED: ENDBRANCH  21  22
DOCKED: ENDBRANCH   6  21
DOCKED: BRANCH   3  28
DOCKED: ATOM     28  O   UNL d   1     -13.434  -8.795   1.129 -0.00 +0.02    -0.278 OA
DOCKED: BRANCH  28  29
DOCKED: ATOM     29  P   UNL d   1     -14.505  -9.856   1.641 +0.01 -0.03    +0.473 P 
DOCKED: ATOM     30  O   UNL d   1     -15.239  -9.481   2.877 +0.00 +0.02    -0.228 OA
DOCKED: BRANCH  29  31
DOCKED: ATOM     31  O   UNL d   1     -15.373 -10.042   0.309 +0.00 +0.01    -0.303 OA
DOCKED: ATOM     32  H   UNL d   1     -16.310 -10.203   0.565 +0.00 -0.01    +0.222 HD
DOCKED: ENDBRANCH  29  31
DOCKED: BRANCH  29  33
DOCKED: ATOM     33  O   UNL d   1     -13.648 -11.197   1.692 -0.00 +0.02    -0.303 OA
DOCKED: ATOM     34  H   UNL d   1     -13.486 -11.439   2.637 +0.02 -0.02    +0.222 HD
DOCKED: ENDBRANCH  29  33
DOCKED: ENDBRANCH  28  29
DOCKED: ENDBRANCH   3  28
DOCKED: BRANCH   5  35
DOCKED: ATOM     35  O   UNL d   1     -10.078  -8.483   4.310 -0.11 +0.06    -0.278 OA
DOCKED: BRANCH  35  36
DOCKED: ATOM     36  P   UNL d   1     -10.536  -7.006   4.701 -0.14 -0.24    +0.473 P 
DOCKED: ATOM     37  O   UNL d   1     -11.161  -6.861   6.052 -0.17 +0.12    -0.228 OA
DOCKED: BRANCH  36  38
DOCKED: ATOM     38  O   UNL d   1      -9.185  -6.185   4.512 -0.27 +0.22    -0.303 OA
DOCKED: ATOM     39  H   UNL d   1      -9.383  -5.343   4.049 -0.46 -0.29    +0.222 HD
DOCKED: ENDBRANCH  36  38
DOCKED: BRANCH  36  40
DOCKED: ATOM     40  O   UNL d   1     -11.419  -6.582   3.448 -0.10 +0.16    -0.303 OA
DOCKED: ATOM     41  H   UNL d   1     -10.867  -6.223   2.718 +0.05 -0.12    +0.222 HD
DOCKED: ENDBRANCH  36  40
DOCKED: ENDBRANCH  35  36
DOCKED: ENDBRANCH   5  35
DOCKED: BRANCH   4  42
DOCKED: ATOM     42  O   UNL d   1     -12.168 -10.232   3.278 -0.03 +0.03    -0.278 OA
DOCKED: BRANCH  42  43
DOCKED: ATOM     43  P   UNL d   1     -12.680 -10.201   4.789 -0.03 -0.07    +0.473 P 
DOCKED: ATOM     44  O   UNL d   1     -11.751 -10.705   5.839 -0.09 +0.04    -0.228 OA
DOCKED: BRANCH  43  45
DOCKED: ATOM     45  O   UNL d   1     -13.117  -8.683   4.979 -0.00 +0.06    -0.303 OA
DOCKED: ATOM     46  H   UNL d   1     -12.406  -8.069   4.705 +0.05 -0.06    +0.222 HD
DOCKED: ENDBRANCH  43  45
DOCKED: BRANCH  43  47
DOCKED: ATOM     47  O   UNL d   1     -14.100 -10.941   4.709 -0.01 +0.03    -0.303 OA
DOCKED: ATOM     48  H   UNL d   1     -14.373 -11.015   3.771 +0.01 -0.02    +0.222 HD
DOCKED: ENDBRANCH  43  47
DOCKED: ENDBRANCH  42  43
DOCKED: ENDBRANCH   4  42
DOCKED: TORSDOF 24
DOCKED: TER
DOCKED: ENDMDL
________________________________________________________________________________


	BEGINNING GENETIC ALGORITHM DOCKING 49 of 100
Run: 49 Seed: 395526410 966537240 [ Run 49 of 100 GA/GALS ]
Beginning LAMARCKIAN GENETIC ALGORITHM (LGA), with a maximum of 25000000 energy evaluations.

Final-Value: -16.584


	FINAL GENETIC ALGORITHM DOCKED STATE
	_______________________________________________


Detailed state:  trans -8.848 -19.548 -0.071 quatxyzw 0.245954 0.015037 0.244793 -0.937740 center 0.035 0.082 -0.065 ntor 24 132.9085 89.4254 135.0540 -8.3523 -74.9691 176.5403 -124.0847 -22.6448 19.9264 13.1439 155.2535 -155.1336 136.9207 179.9455 24.4353 179.9686 156.1767 -149.4872 56.0559 13.0420 169.9994 13.7492 -12.9272 5.9222
State:	 -8.848 -19.548  -0.071   0.708  0.043  0.705 -40.649    132.91   89.43  135.05   -8.35  -74.97  176.54 -124.08  -22.64   19.93   13.14  155.25 -155.13  136.92  179.95   24.44  179.97  156.18 -149.49   56.06   13.04  170.00   13.75  -12.93    5.92

DOCKED: MODEL       49
DOCKED: USER    Run = 49
DOCKED: USER    DPF = D:/Protein_go_brrr/autodock/final/mut_N102T/IHP/dock.dpf
DOCKED: USER  
DOCKED: USER    Estimated Free Energy of Binding    =   +4.01 kcal/mol  [=(1)+(2)+(3)-(4)]
DOCKED: USER    
DOCKED: USER    (1) Final Intermolecular Energy     =   -3.15 kcal/mol
DOCKED: USER        vdW + Hbond + desolv Energy     =   -2.85 kcal/mol
DOCKED: USER        Electrostatic Energy            =   -0.30 kcal/mol
DOCKED: USER    (2) Final Total Internal Energy     =  -13.43 kcal/mol
DOCKED: USER    (3) Torsional Free Energy           =   +7.16 kcal/mol
DOCKED: USER    (4) Unbound System's Energy  [=(2)] =  -13.43 kcal/mol
DOCKED: USER    
DOCKED: USER    
DOCKED: USER    NEWDPF move IHP_ideal_opt.pdbqt
DOCKED: USER    NEWDPF about 0.035000 0.082000 -0.065000
DOCKED: USER    NEWDPF tran0 -8.847555 -19.547552 -0.070678
DOCKED: USER    NEWDPF quaternion0 0.245954 0.015037 0.244793 -0.937740
DOCKED: USER    NEWDPF axisangle0 0.708113 0.043293 0.704771 -40.649049
DOCKED: USER    NEWDPF quat0 0.708113 0.043293 0.704771 -40.649049
DOCKED: USER    NEWDPF dihe0 132.91 89.43 135.05 -8.35 -74.97 176.54 -124.08 -22.64 19.93 13.14 155.25 -155.13 136.92 179.95 24.44 179.97 156.18 -149.49 56.06 13.04 170.00 13.75 -12.93 5.92 
DOCKED: USER  keepresnum = 1 
DOCKED: USER  
DOCKED: REMARK  24 active torsions:
DOCKED: REMARK  status: ('A' for Active; 'I' for Inactive)
DOCKED: REMARK    1  A    between atoms: C_1  and  O_7 
DOCKED: REMARK    2  A    between atoms: C_2  and  O_12 
DOCKED: REMARK    3  A    between atoms: C_3  and  O_17 
DOCKED: REMARK    4  A    between atoms: C_4  and  O_22 
DOCKED: REMARK    5  A    between atoms: C_5  and  O_27 
DOCKED: REMARK    6  A    between atoms: C_6  and  O_32 
DOCKED: REMARK    7  A    between atoms: O_7  and  P_8 
DOCKED: REMARK    8  A    between atoms: P_8  and  O_10 
DOCKED: REMARK    9  A    between atoms: P_8  and  O_11 
DOCKED: REMARK   10  A    between atoms: O_12  and  P_13 
DOCKED: REMARK   11  A    between atoms: P_13  and  O_15 
DOCKED: REMARK   12  A    between atoms: P_13  and  O_16 
DOCKED: REMARK   13  A    between atoms: O_17  and  P_18 
DOCKED: REMARK   14  A    between atoms: P_18  and  O_20 
DOCKED: REMARK   15  A    between atoms: P_18  and  O_21 
DOCKED: REMARK   16  A    between atoms: O_22  and  P_23 
DOCKED: REMARK   17  A    between atoms: P_23  and  O_25 
DOCKED: REMARK   18  A    between atoms: P_23  and  O_26 
DOCKED: REMARK   19  A    between atoms: O_27  and  P_28 
DOCKED: REMARK   20  A    between atoms: P_28  and  O_30 
DOCKED: REMARK   21  A    between atoms: P_28  and  O_31 
DOCKED: REMARK   22  A    between atoms: O_32  and  P_33 
DOCKED: REMARK   23  A    between atoms: P_33  and  O_35 
DOCKED: REMARK   24  A    between atoms: P_33  and  O_36 
DOCKED: USER                              x       y       z     vdW  Elec       q    Type
DOCKED: USER                           _______ _______ _______ _____ _____    ______ ____
DOCKED: ROOT
DOCKED: ATOM      1  C   UNL d   1      -7.227 -19.996   0.324 -0.09 +0.10    +0.194 C 
DOCKED: ATOM      2  C   UNL d   1      -8.016 -21.021  -0.492 -0.01 +0.06    +0.194 C 
DOCKED: ATOM      3  C   UNL d   1      -9.447 -21.179   0.028 +0.01 +0.02    +0.194 C 
DOCKED: ATOM      4  C   UNL d   1     -10.188 -19.851   0.160 +0.01 +0.02    +0.194 C 
DOCKED: ATOM      5  C   UNL d   1      -9.392 -18.763   0.867 -0.02 +0.02    +0.194 C 
DOCKED: ATOM      6  C   UNL d   1      -7.942 -18.646   0.390 -0.08 +0.09    +0.194 C 
DOCKED: ENDROOT
DOCKED: BRANCH   1   7
DOCKED: ATOM      7  O   UNL d   1      -5.971 -19.781  -0.325 -0.39 -0.40    -0.278 OA
DOCKED: BRANCH   7   8
DOCKED: ATOM      8  P   UNL d   1      -4.926 -20.988  -0.375 +0.04 +0.47    +0.473 P 
DOCKED: ATOM      9  O   UNL d   1      -3.574 -20.632  -0.886 -0.58 -0.30    -0.228 OA
DOCKED: BRANCH   8  10
DOCKED: ATOM     10  O   UNL d   1      -4.905 -21.544   1.120 -0.29 -0.12    -0.303 OA
DOCKED: ATOM     11  H   UNL d   1      -5.173 -20.836   1.736 +0.04 +0.07    +0.222 HD
DOCKED: ENDBRANCH   8  10
DOCKED: BRANCH   8  12
DOCKED: ATOM     12  O   UNL d   1      -5.677 -22.153  -1.152 -0.02 -0.14    -0.303 OA
DOCKED: ATOM     13  H   UNL d   1      -6.154 -21.837  -1.953 +0.02 +0.12    +0.222 HD
DOCKED: ENDBRANCH   8  12
DOCKED: ENDBRANCH   7   8
DOCKED: ENDBRANCH   1   7
DOCKED: BRANCH   2  14
DOCKED: ATOM     14  O   UNL d   1      -8.072 -20.589  -1.857 -0.01 -0.13    -0.278 OA
DOCKED: BRANCH  14  15
DOCKED: ATOM     15  P   UNL d   1      -8.020 -21.735  -2.974 +0.01 +0.15    +0.473 P 
DOCKED: ATOM     16  O   UNL d   1      -6.945 -21.617  -4.009 -0.00 -0.10    -0.228 OA
DOCKED: BRANCH  15  17
DOCKED: ATOM     17  O   UNL d   1      -7.927 -23.087  -2.138 +0.01 -0.06    -0.303 OA
DOCKED: ATOM     18  H   UNL d   1      -8.495 -23.050  -1.344 +0.00 +0.03    +0.222 HD
DOCKED: ENDBRANCH  15  17
DOCKED: BRANCH  15  19
DOCKED: ATOM     19  O   UNL d   1      -9.507 -21.809  -3.536 +0.00 -0.06    -0.303 OA
DOCKED: ATOM     20  H   UNL d   1     -10.128 -22.155  -2.868 +0.00 +0.03    +0.222 HD
DOCKED: ENDBRANCH  15  19
DOCKED: ENDBRANCH  14  15
DOCKED: ENDBRANCH   2  14
DOCKED: BRANCH   6  21
DOCKED: ATOM     21  O   UNL d   1      -7.253 -17.854   1.354 -0.13 -0.10    -0.278 OA
DOCKED: BRANCH  21  22
DOCKED: ATOM     22  P   UNL d   1      -7.014 -18.426   2.824 -0.19 -0.08    +0.473 P 
DOCKED: ATOM     23  O   UNL d   1      -6.335 -19.747   2.964 -0.18 +0.05    -0.228 OA
DOCKED: BRANCH  22  24
DOCKED: ATOM     24  O   UNL d   1      -6.262 -17.212   3.527 -0.34 +0.13    -0.303 OA
DOCKED: ATOM     25  H   UNL d   1      -5.556 -17.585   4.114 -0.48 -0.22    +0.222 HD
DOCKED: ENDBRANCH  22  24
DOCKED: BRANCH  22  26
DOCKED: ATOM     26  O   UNL d   1      -8.482 -18.319   3.458 -0.13 +0.10    -0.303 OA
DOCKED: ATOM     27  H   UNL d   1      -9.102 -17.983   2.779 +0.06 -0.03    +0.222 HD
DOCKED: ENDBRANCH  22  26
DOCKED: ENDBRANCH  21  22
DOCKED: ENDBRANCH   6  21
DOCKED: BRANCH   3  28
DOCKED: ATOM     28  O   UNL d   1     -10.175 -21.924  -0.941 +0.00 -0.03    -0.278 OA
DOCKED: BRANCH  28  29
DOCKED: ATOM     29  P   UNL d   1     -10.927 -23.265  -0.525 +0.00 +0.02    +0.473 P 
DOCKED: ATOM     30  O   UNL d   1     -12.094 -23.632  -1.367 +0.00 -0.01    -0.228 OA
DOCKED: BRANCH  29  31
DOCKED: ATOM     31  O   UNL d   1      -9.693 -24.284  -0.511 +0.00 -0.01    -0.303 OA
DOCKED: ATOM     32  H   UNL d   1      -9.420 -24.460  -1.441 +0.00 +0.01    +0.222 HD
DOCKED: ENDBRANCH  29  31
DOCKED: BRANCH  29  33
DOCKED: ATOM     33  O   UNL d   1     -11.204 -23.026   1.024 +0.00 +0.00    -0.303 OA
DOCKED: ATOM     34  H   UNL d   1     -11.412 -22.071   1.170 +0.00 -0.00    +0.222 HD
DOCKED: ENDBRANCH  29  33
DOCKED: ENDBRANCH  28  29
DOCKED: ENDBRANCH   3  28
DOCKED: BRANCH   5  35
DOCKED: ATOM     35  O   UNL d   1     -10.040 -17.535   0.543 -0.01 -0.03    -0.278 OA
DOCKED: BRANCH  35  36
DOCKED: ATOM     36  P   UNL d   1     -10.690 -16.640   1.692 -0.03 -0.01    +0.473 P 
DOCKED: ATOM     37  O   UNL d   1     -11.728 -15.663   1.239 -0.03 +0.00    -0.228 OA
DOCKED: BRANCH  36  38
DOCKED: ATOM     38  O   UNL d   1     -11.229 -17.747   2.702 -0.05 +0.03    -0.303 OA
DOCKED: ATOM     39  H   UNL d   1     -11.756 -18.408   2.203 +0.02 -0.02    +0.222 HD
DOCKED: ENDBRANCH  36  38
DOCKED: BRANCH  36  40
DOCKED: ATOM     40  O   UNL d   1      -9.409 -16.045   2.424 -0.11 +0.01    -0.303 OA
DOCKED: ATOM     41  H   UNL d   1      -8.635 -16.646   2.350 +0.08 -0.00    +0.222 HD
DOCKED: ENDBRANCH  36  40
DOCKED: ENDBRANCH  35  36
DOCKED: ENDBRANCH   5  35
DOCKED: BRANCH   4  42
DOCKED: ATOM     42  O   UNL d   1     -11.353 -20.104   0.953 +0.00 -0.00    -0.278 OA
DOCKED: BRANCH  42  43
DOCKED: ATOM     43  P   UNL d   1     -12.776 -20.169   0.236 +0.00 +0.00    +0.473 P 
DOCKED: ATOM     44  O   UNL d   1     -13.675 -18.991   0.387 -0.00 +0.00    -0.228 OA
DOCKED: BRANCH  43  45
DOCKED: ATOM     45  O   UNL d   1     -12.392 -20.506  -1.271 +0.00 -0.02    -0.303 OA
DOCKED: ATOM     46  H   UNL d   1     -12.239 -21.464  -1.396 +0.00 +0.01    +0.222 HD
DOCKED: ENDBRANCH  43  45
DOCKED: BRANCH  43  47
DOCKED: ATOM     47  O   UNL d   1     -13.377 -21.567   0.740 +0.00 +0.01    -0.303 OA
DOCKED: ATOM     48  H   UNL d   1     -12.952 -21.814   1.587 +0.00 -0.01    +0.222 HD
DOCKED: ENDBRANCH  43  47
DOCKED: ENDBRANCH  42  43
DOCKED: ENDBRANCH   4  42
DOCKED: TORSDOF 24
DOCKED: TER
DOCKED: ENDMDL
________________________________________________________________________________


	BEGINNING GENETIC ALGORITHM DOCKING 50 of 100
Run: 50 Seed: 792355292 1480283674 [ Run 50 of 100 GA/GALS ]
Beginning LAMARCKIAN GENETIC ALGORITHM (LGA), with a maximum of 25000000 energy evaluations.

Final-Value: -18.519


	FINAL GENETIC ALGORITHM DOCKED STATE
	_______________________________________________


Detailed state:  trans 12.776 -11.102 12.702 quatxyzw 0.641910 -0.230627 0.486356 0.546095 center 0.035 0.082 -0.065 ntor 24 -144.7106 -44.1320 179.9511 -0.2157 -5.3884 -145.9323 -1.3120 -107.8785 14.4686 82.9735 105.1577 133.7154 73.9579 177.3760 -58.9409 -77.3220 -48.8836 -140.3149 -30.6895 17.0000 0.7539 21.2184 166.6163 -11.2677
State:	 12.776 -11.102  12.702   0.766 -0.275  0.581 113.801   -144.71  -44.13  179.95   -0.22   -5.39 -145.93   -1.31 -107.88   14.47   82.97  105.16  133.72   73.96  177.38  -58.94  -77.32  -48.88 -140.31  -30.69   17.00    0.75   21.22  166.62  -11.27

DOCKED: MODEL       50
DOCKED: USER    Run = 50
DOCKED: USER    DPF = D:/Protein_go_brrr/autodock/final/mut_N102T/IHP/dock.dpf
DOCKED: USER  
DOCKED: USER    Estimated Free Energy of Binding    =   +4.84 kcal/mol  [=(1)+(2)+(3)-(4)]
DOCKED: USER    
DOCKED: USER    (1) Final Intermolecular Energy     =   -2.32 kcal/mol
DOCKED: USER        vdW + Hbond + desolv Energy     =   -2.02 kcal/mol
DOCKED: USER        Electrostatic Energy            =   -0.30 kcal/mol
DOCKED: USER    (2) Final Total Internal Energy     =  -16.20 kcal/mol
DOCKED: USER    (3) Torsional Free Energy           =   +7.16 kcal/mol
DOCKED: USER    (4) Unbound System's Energy  [=(2)] =  -16.20 kcal/mol
DOCKED: USER    
DOCKED: USER    
DOCKED: USER    NEWDPF move IHP_ideal_opt.pdbqt
DOCKED: USER    NEWDPF about 0.035000 0.082000 -0.065000
DOCKED: USER    NEWDPF tran0 12.776259 -11.101847 12.701869
DOCKED: USER    NEWDPF quaternion0 0.641910 -0.230627 0.486356 0.546095
DOCKED: USER    NEWDPF axisangle0 0.766256 -0.275302 0.580569 113.800984
DOCKED: USER    NEWDPF quat0 0.766256 -0.275302 0.580569 113.800984
DOCKED: USER    NEWDPF dihe0 -144.71 -44.13 179.95 -0.22 -5.39 -145.93 -1.31 -107.88 14.47 82.97 105.16 133.72 73.96 177.38 -58.94 -77.32 -48.88 -140.31 -30.69 17.00 0.75 21.22 166.62 -11.27 
DOCKED: USER  keepresnum = 1 
DOCKED: USER  
DOCKED: REMARK  24 active torsions:
DOCKED: REMARK  status: ('A' for Active; 'I' for Inactive)
DOCKED: REMARK    1  A    between atoms: C_1  and  O_7 
DOCKED: REMARK    2  A    between atoms: C_2  and  O_12 
DOCKED: REMARK    3  A    between atoms: C_3  and  O_17 
DOCKED: REMARK    4  A    between atoms: C_4  and  O_22 
DOCKED: REMARK    5  A    between atoms: C_5  and  O_27 
DOCKED: REMARK    6  A    between atoms: C_6  and  O_32 
DOCKED: REMARK    7  A    between atoms: O_7  and  P_8 
DOCKED: REMARK    8  A    between atoms: P_8  and  O_10 
DOCKED: REMARK    9  A    between atoms: P_8  and  O_11 
DOCKED: REMARK   10  A    between atoms: O_12  and  P_13 
DOCKED: REMARK   11  A    between atoms: P_13  and  O_15 
DOCKED: REMARK   12  A    between atoms: P_13  and  O_16 
DOCKED: REMARK   13  A    between atoms: O_17  and  P_18 
DOCKED: REMARK   14  A    between atoms: P_18  and  O_20 
DOCKED: REMARK   15  A    between atoms: P_18  and  O_21 
DOCKED: REMARK   16  A    between atoms: O_22  and  P_23 
DOCKED: REMARK   17  A    between atoms: P_23  and  O_25 
DOCKED: REMARK   18  A    between atoms: P_23  and  O_26 
DOCKED: REMARK   19  A    between atoms: O_27  and  P_28 
DOCKED: REMARK   20  A    between atoms: P_28  and  O_30 
DOCKED: REMARK   21  A    between atoms: P_28  and  O_31 
DOCKED: REMARK   22  A    between atoms: O_32  and  P_33 
DOCKED: REMARK   23  A    between atoms: P_33  and  O_35 
DOCKED: REMARK   24  A    between atoms: P_33  and  O_36 
DOCKED: USER                              x       y       z     vdW  Elec       q    Type
DOCKED: USER                           _______ _______ _______ _____ _____    ______ ____
DOCKED: ROOT
DOCKED: ATOM      1  C   UNL d   1      13.788 -11.497  14.045 -0.01 +0.07    +0.194 C 
DOCKED: ATOM      2  C   UNL d   1      12.750 -10.402  14.299 -0.03 +0.08    +0.194 C 
DOCKED: ATOM      3  C   UNL d   1      12.668  -9.418  13.130 -0.02 +0.07    +0.194 C 
DOCKED: ATOM      4  C   UNL d   1      12.467 -10.103  11.780 -0.03 +0.07    +0.194 C 
DOCKED: ATOM      5  C   UNL d   1      13.406 -11.277  11.534 -0.01 +0.05    +0.194 C 
DOCKED: ATOM      6  C   UNL d   1      13.535 -12.227  12.726 -0.01 +0.07    +0.194 C 
DOCKED: ENDROOT
DOCKED: BRANCH   1   7
DOCKED: ATOM      7  O   UNL d   1      13.681 -12.464  15.094 -0.01 -0.11    -0.278 OA
DOCKED: BRANCH   7   8
DOCKED: ATOM      8  P   UNL d   1      14.975 -13.321  15.470 +0.01 +0.10    +0.473 P 
DOCKED: ATOM      9  O   UNL d   1      15.369 -13.273  16.905 +0.00 -0.03    -0.228 OA
DOCKED: BRANCH   8  10
DOCKED: ATOM     10  O   UNL d   1      14.625 -14.793  14.964 +0.00 -0.07    -0.303 OA
DOCKED: ATOM     11  H   UNL d   1      14.422 -14.771  14.010 +0.00 +0.05    +0.222 HD
DOCKED: ENDBRANCH   8  10
DOCKED: BRANCH   8  12
DOCKED: ATOM     12  O   UNL d   1      16.088 -12.868  14.430 +0.00 -0.04    -0.303 OA
DOCKED: ATOM     13  H   UNL d   1      16.084 -13.403  13.604 +0.00 +0.03    +0.222 HD
DOCKED: ENDBRANCH   8  12
DOCKED: ENDBRANCH   7   8
DOCKED: ENDBRANCH   1   7
DOCKED: BRANCH   2  14
DOCKED: ATOM     14  O   UNL d   1      11.464 -11.009  14.476 -0.11 -0.26    -0.278 OA
DOCKED: BRANCH  14  15
DOCKED: ATOM     15  P   UNL d   1      10.449 -10.259  15.461 -0.09 +0.41    +0.473 P 
DOCKED: ATOM     16  O   UNL d   1       9.848 -11.079  16.559 -0.56 -0.29    -0.228 OA
DOCKED: BRANCH  15  17
DOCKED: ATOM     17  O   UNL d   1      11.283  -9.016  16.006 -0.02 -0.11    -0.303 OA
DOCKED: ATOM     18  H   UNL d   1      11.241  -8.264  15.383 +0.03 +0.07    +0.222 HD
DOCKED: ENDBRANCH  15  17
DOCKED: BRANCH  15  19
DOCKED: ATOM     19  O   UNL d   1       9.409  -9.545  14.491 -0.16 -0.20    -0.303 OA
DOCKED: ATOM     20  H   UNL d   1       9.849  -8.912  13.894 +0.05 +0.10    +0.222 HD
DOCKED: ENDBRANCH  15  19
DOCKED: ENDBRANCH  14  15
DOCKED: ENDBRANCH   2  14
DOCKED: BRANCH   6  21
DOCKED: ATOM     21  O   UNL d   1      14.674 -13.048  12.477 +0.00 -0.06    -0.278 OA
DOCKED: BRANCH  21  22
DOCKED: ATOM     22  P   UNL d   1      14.476 -14.539  11.945 +0.01 +0.08    +0.473 P 
DOCKED: ATOM     23  O   UNL d   1      13.225 -15.259  12.319 -0.00 -0.06    -0.228 OA
DOCKED: BRANCH  22  24
DOCKED: ATOM     24  O   UNL d   1      14.700 -14.359  10.380 +0.00 -0.03    -0.303 OA
DOCKED: ATOM     25  H   UNL d   1      13.917 -13.877  10.010 +0.01 +0.03    +0.222 HD
DOCKED: ENDBRANCH  22  24
DOCKED: BRANCH  22  26
DOCKED: ATOM     26  O   UNL d   1      15.849 -15.231  12.398 +0.00 -0.03    -0.303 OA
DOCKED: ATOM     27  H   UNL d   1      16.092 -14.910  13.290 +0.00 +0.02    +0.222 HD
DOCKED: ENDBRANCH  22  26
DOCKED: ENDBRANCH  21  22
DOCKED: ENDBRANCH   6  21
DOCKED: BRANCH   3  28
DOCKED: ATOM     28  O   UNL d   1      11.509  -8.618  13.324 -0.04 -0.10    -0.278 OA
DOCKED: BRANCH  28  29
DOCKED: ATOM     29  P   UNL d   1      11.594  -7.033  13.190 -0.01 +0.16    +0.473 P 
DOCKED: ATOM     30  O   UNL d   1      11.604  -6.282  14.472 -0.01 -0.06    -0.228 OA
DOCKED: BRANCH  29  31
DOCKED: ATOM     31  O   UNL d   1      12.889  -6.900  12.260 -0.00 -0.12    -0.303 OA
DOCKED: ATOM     32  H   UNL d   1      12.779  -7.495  11.482 +0.02 +0.10    +0.222 HD
DOCKED: ENDBRANCH  29  31
DOCKED: BRANCH  29  33
DOCKED: ATOM     33  O   UNL d   1      10.402  -6.719  12.182 -0.07 -0.14    -0.303 OA
DOCKED: ATOM     34  H   UNL d   1      10.471  -7.326  11.404 +0.04 +0.12    +0.222 HD
DOCKED: ENDBRANCH  29  33
DOCKED: ENDBRANCH  28  29
DOCKED: ENDBRANCH   3  28
DOCKED: BRANCH   5  35
DOCKED: ATOM     35  O   UNL d   1      12.823 -12.020  10.465 -0.01 -0.07    -0.278 OA
DOCKED: BRANCH  35  36
DOCKED: ATOM     36  P   UNL d   1      11.392 -12.700  10.644 -0.05 +0.16    +0.473 P 
DOCKED: ATOM     37  O   UNL d   1      10.790 -12.586  12.009 -0.41 -0.21    -0.228 OA
DOCKED: BRANCH  36  38
DOCKED: ATOM     38  O   UNL d   1      10.547 -11.990   9.496 -0.11 -0.07    -0.303 OA
DOCKED: ATOM     39  H   UNL d   1      10.598 -11.017   9.614 +0.06 +0.06    +0.222 HD
DOCKED: ENDBRANCH  36  38
DOCKED: BRANCH  36  40
DOCKED: ATOM     40  O   UNL d   1      11.640 -14.168  10.085 -0.03 -0.06    -0.303 OA
DOCKED: ATOM     41  H   UNL d   1      12.507 -14.527  10.378 +0.02 +0.04    +0.222 HD
DOCKED: ENDBRANCH  36  40
DOCKED: ENDBRANCH  35  36
DOCKED: ENDBRANCH   5  35
DOCKED: BRANCH   4  42
DOCKED: ATOM     42  O   UNL d   1      12.743  -9.124  10.773 -0.02 -0.10    -0.278 OA
DOCKED: BRANCH  42  43
DOCKED: ATOM     43  P   UNL d   1      11.611  -8.776   9.704 -0.06 +0.23    +0.473 P 
DOCKED: ATOM     44  O   UNL d   1      11.649  -9.503   8.404 -0.07 -0.08    -0.228 OA
DOCKED: BRANCH  43  45
DOCKED: ATOM     45  O   UNL d   1      10.270  -8.993  10.533 +0.03 -0.13    -0.303 OA
DOCKED: ATOM     46  H   UNL d   1      10.394  -8.774  11.478 +0.05 +0.09    +0.222 HD
DOCKED: ENDBRANCH  43  45
DOCKED: BRANCH  43  47
DOCKED: ATOM     47  O   UNL d   1      11.679  -7.178   9.605 -0.47 -0.34    -0.303 OA
DOCKED: ATOM     48  H   UNL d   1      11.698  -6.799  10.508 +0.03 +0.21    +0.222 HD
DOCKED: ENDBRANCH  43  47
DOCKED: ENDBRANCH  42  43
DOCKED: ENDBRANCH   4  42
DOCKED: TORSDOF 24
DOCKED: TER
DOCKED: ENDMDL
________________________________________________________________________________


	BEGINNING GENETIC ALGORITHM DOCKING 51 of 100
Run: 51 Seed: 1314176681 1669807730 [ Run 51 of 100 GA/GALS ]
Beginning LAMARCKIAN GENETIC ALGORITHM (LGA), with a maximum of 25000000 energy evaluations.

Final-Value: -18.373


	FINAL GENETIC ALGORITHM DOCKED STATE
	_______________________________________________


Detailed state:  trans 16.341 1.227 -5.789 quatxyzw -0.027623 -0.612369 0.453435 -0.647022 center 0.035 0.082 -0.065 ntor 24 54.4850 120.2299 -148.7608 27.1898 67.7301 -149.0911 -60.0473 -26.2549 3.6526 17.7161 48.1793 110.0985 -83.4919 163.9939 58.4250 -169.3247 -179.0267 180.0000 -134.5245 -9.1063 33.7500 -14.7341 180.0000 18.8772
State:	 16.341   1.227  -5.789  -0.036 -0.803  0.595 -99.365     54.49  120.23 -148.76   27.19   67.73 -149.09  -60.05  -26.25    3.65   17.72   48.18  110.10  -83.49  163.99   58.42 -169.32 -179.03  180.00 -134.52   -9.11   33.75  -14.73  180.00   18.88

DOCKED: MODEL       51
DOCKED: USER    Run = 51
DOCKED: USER    DPF = D:/Protein_go_brrr/autodock/final/mut_N102T/IHP/dock.dpf
DOCKED: USER  
DOCKED: USER    Estimated Free Energy of Binding    =   +3.48 kcal/mol  [=(1)+(2)+(3)-(4)]
DOCKED: USER    
DOCKED: USER    (1) Final Intermolecular Energy     =   -3.68 kcal/mol
DOCKED: USER        vdW + Hbond + desolv Energy     =   -3.33 kcal/mol
DOCKED: USER        Electrostatic Energy            =   -0.34 kcal/mol
DOCKED: USER    (2) Final Total Internal Energy     =  -14.70 kcal/mol
DOCKED: USER    (3) Torsional Free Energy           =   +7.16 kcal/mol
DOCKED: USER    (4) Unbound System's Energy  [=(2)] =  -14.70 kcal/mol
DOCKED: USER    
DOCKED: USER    
DOCKED: USER    NEWDPF move IHP_ideal_opt.pdbqt
DOCKED: USER    NEWDPF about 0.035000 0.082000 -0.065000
DOCKED: USER    NEWDPF tran0 16.341190 1.226810 -5.789072
DOCKED: USER    NEWDPF quaternion0 -0.027623 -0.612369 0.453435 -0.647022
DOCKED: USER    NEWDPF axisangle0 -0.036228 -0.803137 0.594692 -99.365086
DOCKED: USER    NEWDPF quat0 -0.036228 -0.803137 0.594692 -99.365086
DOCKED: USER    NEWDPF dihe0 54.49 120.23 -148.76 27.19 67.73 -149.09 -60.05 -26.25 3.65 17.72 48.18 110.10 -83.49 163.99 58.42 -169.32 -179.03 180.00 -134.52 -9.11 33.75 -14.73 180.00 18.88 
DOCKED: USER  keepresnum = 1 
DOCKED: USER  
DOCKED: REMARK  24 active torsions:
DOCKED: REMARK  status: ('A' for Active; 'I' for Inactive)
DOCKED: REMARK    1  A    between atoms: C_1  and  O_7 
DOCKED: REMARK    2  A    between atoms: C_2  and  O_12 
DOCKED: REMARK    3  A    between atoms: C_3  and  O_17 
DOCKED: REMARK    4  A    between atoms: C_4  and  O_22 
DOCKED: REMARK    5  A    between atoms: C_5  and  O_27 
DOCKED: REMARK    6  A    between atoms: C_6  and  O_32 
DOCKED: REMARK    7  A    between atoms: O_7  and  P_8 
DOCKED: REMARK    8  A    between atoms: P_8  and  O_10 
DOCKED: REMARK    9  A    between atoms: P_8  and  O_11 
DOCKED: REMARK   10  A    between atoms: O_12  and  P_13 
DOCKED: REMARK   11  A    between atoms: P_13  and  O_15 
DOCKED: REMARK   12  A    between atoms: P_13  and  O_16 
DOCKED: REMARK   13  A    between atoms: O_17  and  P_18 
DOCKED: REMARK   14  A    between atoms: P_18  and  O_20 
DOCKED: REMARK   15  A    between atoms: P_18  and  O_21 
DOCKED: REMARK   16  A    between atoms: O_22  and  P_23 
DOCKED: REMARK   17  A    between atoms: P_23  and  O_25 
DOCKED: REMARK   18  A    between atoms: P_23  and  O_26 
DOCKED: REMARK   19  A    between atoms: O_27  and  P_28 
DOCKED: REMARK   20  A    between atoms: P_28  and  O_30 
DOCKED: REMARK   21  A    between atoms: P_28  and  O_31 
DOCKED: REMARK   22  A    between atoms: O_32  and  P_33 
DOCKED: REMARK   23  A    between atoms: P_33  and  O_35 
DOCKED: REMARK   24  A    between atoms: P_33  and  O_36 
DOCKED: USER                              x       y       z     vdW  Elec       q    Type
DOCKED: USER                           _______ _______ _______ _____ _____    ______ ____
DOCKED: ROOT
DOCKED: ATOM      1  C   UNL d   1      15.984   1.072  -4.106 -0.06 -0.01    +0.194 C 
DOCKED: ATOM      2  C   UNL d   1      16.931   0.017  -4.680 -0.01 -0.01    +0.194 C 
DOCKED: ATOM      3  C   UNL d   1      16.454  -0.492  -6.042 -0.01 -0.02    +0.194 C 
DOCKED: ATOM      4  C   UNL d   1      16.168   0.630  -7.037 -0.01 -0.02    +0.194 C 
DOCKED: ATOM      5  C   UNL d   1      15.321   1.762  -6.470 -0.06 -0.02    +0.194 C 
DOCKED: ATOM      6  C   UNL d   1      15.760   2.229  -5.081 -0.08 -0.02    +0.194 C 
DOCKED: ENDROOT
DOCKED: BRANCH   1   7
DOCKED: ATOM      7  O   UNL d   1      16.584   1.617  -2.928 -0.08 -0.03    -0.278 OA
DOCKED: BRANCH   7   8
DOCKED: ATOM      8  P   UNL d   1      17.267   3.058  -3.022 -0.08 +0.07    +0.473 P 
DOCKED: ATOM      9  O   UNL d   1      17.874   3.384  -4.341 -0.03 +0.01    -0.228 OA
DOCKED: BRANCH   8  10
DOCKED: ATOM     10  O   UNL d   1      16.104   4.065  -2.599 +0.02 +0.15    -0.303 OA
DOCKED: ATOM     11  H   UNL d   1      15.744   4.501  -3.393 -0.03 -0.16    +0.222 HD
DOCKED: ENDBRANCH   8  10
DOCKED: BRANCH   8  12
DOCKED: ATOM     12  O   UNL d   1      18.244   3.133  -1.771 -0.62 -0.27    -0.303 OA
DOCKED: ATOM     13  H   UNL d   1      19.061   2.599  -1.887 +0.02 +0.09    +0.222 HD
DOCKED: ENDBRANCH   8  12
DOCKED: ENDBRANCH   7   8
DOCKED: ENDBRANCH   1   7
DOCKED: BRANCH   2  14
DOCKED: ATOM     14  O   UNL d   1      18.233   0.595  -4.839 +0.00 +0.01    -0.278 OA
DOCKED: BRANCH  14  15
DOCKED: ATOM     15  P   UNL d   1      19.437  -0.132  -4.075 +0.01 +0.00    +0.473 P 
DOCKED: ATOM     16  O   UNL d   1      20.467   0.755  -3.448 +0.00 -0.01    -0.228 OA
DOCKED: BRANCH  15  17
DOCKED: ATOM     17  O   UNL d   1      18.711  -1.078  -3.018 +0.00 -0.00    -0.303 OA
DOCKED: ATOM     18  H   UNL d   1      18.884  -2.019  -3.212 +0.00 -0.01    +0.222 HD
DOCKED: ENDBRANCH  15  17
DOCKED: BRANCH  15  19
DOCKED: ATOM     19  O   UNL d   1      19.991  -1.191  -5.124 +0.00 +0.01    -0.303 OA
DOCKED: ATOM     20  H   UNL d   1      19.281  -1.537  -5.696 +0.00 -0.01    +0.222 HD
DOCKED: ENDBRANCH  15  19
DOCKED: ENDBRANCH  14  15
DOCKED: ENDBRANCH   2  14
DOCKED: BRANCH   6  21
DOCKED: ATOM     21  O   UNL d   1      14.696   3.019  -4.556 -0.20 +0.06    -0.278 OA
DOCKED: BRANCH  21  22
DOCKED: ATOM     22  P   UNL d   1      14.366   4.437  -5.208 -0.25 -0.10    +0.473 P 
DOCKED: ATOM     23  O   UNL d   1      13.405   4.481  -6.348 -0.89 -0.00    -0.228 OA
DOCKED: BRANCH  22  24
DOCKED: ATOM     24  O   UNL d   1      13.931   5.288  -3.935 -0.77 +0.17    -0.303 OA
DOCKED: ATOM     25  H   UNL d   1      14.017   4.710  -3.135 -0.25 -0.35    +0.222 HD
DOCKED: ENDBRANCH  22  24
DOCKED: BRANCH  22  26
DOCKED: ATOM     26  O   UNL d   1      15.834   5.009  -5.503 -0.08 +0.07    -0.303 OA
DOCKED: ATOM     27  H   UNL d   1      16.416   4.274  -5.784 +0.06 -0.03    +0.222 HD
DOCKED: ENDBRANCH  22  26
DOCKED: ENDBRANCH  21  22
DOCKED: ENDBRANCH   6  21
DOCKED: BRANCH   3  28
DOCKED: ATOM     28  O   UNL d   1      17.517  -1.243  -6.615 -0.00 +0.02    -0.278 OA
DOCKED: BRANCH  28  29
DOCKED: ATOM     29  P   UNL d   1      17.557  -2.827  -6.461 +0.01 -0.05    +0.473 P 
DOCKED: ATOM     30  O   UNL d   1      18.488  -3.537  -7.374 +0.00 +0.02    -0.228 OA
DOCKED: BRANCH  29  31
DOCKED: ATOM     31  O   UNL d   1      17.846  -2.948  -4.891 +0.00 +0.03    -0.303 OA
DOCKED: ATOM     32  H   UNL d   1      18.044  -2.049  -4.539 +0.00 -0.01    +0.222 HD
DOCKED: ENDBRANCH  29  31
DOCKED: BRANCH  29  33
DOCKED: ATOM     33  O   UNL d   1      16.015  -3.212  -6.564 +0.00 +0.05    -0.303 OA
DOCKED: ATOM     34  H   UNL d   1      15.566  -2.579  -7.176 +0.02 -0.03    +0.222 HD
DOCKED: ENDBRANCH  29  33
DOCKED: ENDBRANCH  28  29
DOCKED: ENDBRANCH   3  28
DOCKED: BRANCH   5  35
DOCKED: ATOM     35  O   UNL d   1      15.500   2.863  -7.359 -0.03 +0.04    -0.278 OA
DOCKED: BRANCH  35  36
DOCKED: ATOM     36  P   UNL d   1      16.966   3.313  -7.797 +0.01 -0.05    +0.473 P 
DOCKED: ATOM     37  O   UNL d   1      17.227   4.785  -7.757 -0.01 +0.02    -0.228 OA
DOCKED: BRANCH  36  38
DOCKED: ATOM     38  O   UNL d   1      17.878   2.460  -6.809 +0.00 +0.02    -0.303 OA
DOCKED: ATOM     39  H   UNL d   1      17.733   2.771  -5.889 +0.02 -0.01    +0.222 HD
DOCKED: ENDBRANCH  36  38
DOCKED: BRANCH  36  40
DOCKED: ATOM     40  O   UNL d   1      17.139   2.587  -9.201 -0.00 +0.03    -0.303 OA
DOCKED: ATOM     41  H   UNL d   1      16.556   1.800  -9.279 +0.01 -0.02    +0.222 HD
DOCKED: ENDBRANCH  36  40
DOCKED: ENDBRANCH  35  36
DOCKED: ENDBRANCH   5  35
DOCKED: BRANCH   4  42
DOCKED: ATOM     42  O   UNL d   1      15.428   0.050  -8.116 -0.01 +0.03    -0.278 OA
DOCKED: BRANCH  42  43
DOCKED: ATOM     43  P   UNL d   1      16.220  -0.501  -9.387 +0.01 -0.04    +0.473 P 
DOCKED: ATOM     44  O   UNL d   1      15.694  -0.140 -10.733 -0.01 +0.02    -0.228 OA
DOCKED: BRANCH  43  45
DOCKED: ATOM     45  O   UNL d   1      17.707  -0.004  -9.113 -0.00 +0.02    -0.303 OA
DOCKED: ATOM     46  H   UNL d   1      17.720   0.783  -8.533 +0.00 -0.02    +0.222 HD
DOCKED: ENDBRANCH  43  45
DOCKED: BRANCH  43  47
DOCKED: ATOM     47  O   UNL d   1      16.342  -2.071  -9.090 +0.00 +0.03    -0.303 OA
DOCKED: ATOM     48  H   UNL d   1      16.976  -2.213  -8.357 +0.00 -0.02    +0.222 HD
DOCKED: ENDBRANCH  43  47
DOCKED: ENDBRANCH  42  43
DOCKED: ENDBRANCH   4  42
DOCKED: TORSDOF 24
DOCKED: TER
DOCKED: ENDMDL
________________________________________________________________________________


	BEGINNING GENETIC ALGORITHM DOCKING 52 of 100
Run: 52 Seed: 1207686588 1834643615 [ Run 52 of 100 GA/GALS ]
Beginning LAMARCKIAN GENETIC ALGORITHM (LGA), with a maximum of 25000000 energy evaluations.

Final-Value: -16.640


	FINAL GENETIC ALGORITHM DOCKED STATE
	_______________________________________________


Detailed state:  trans 14.761 2.971 11.823 quatxyzw 0.407586 0.554146 -0.320999 -0.650965 center 0.035 0.082 -0.065 ntor 24 126.1268 -62.5871 134.9404 58.0791 28.5962 -125.3428 -91.6733 -50.3349 139.0773 1.6791 68.8264 -84.1997 -70.6755 32.9927 -40.5915 -5.8256 166.5942 -29.5993 70.1733 18.5318 159.4031 38.0824 5.9274 -43.5637
State:	 14.761   2.971  11.823   0.537  0.730 -0.423 -98.771    126.13  -62.59  134.94   58.08   28.60 -125.34  -91.67  -50.33  139.08    1.68   68.83  -84.20  -70.68   32.99  -40.59   -5.83  166.59  -29.60   70.17   18.53  159.40   38.08    5.93  -43.56

DOCKED: MODEL       52
DOCKED: USER    Run = 52
DOCKED: USER    DPF = D:/Protein_go_brrr/autodock/final/mut_N102T/IHP/dock.dpf
DOCKED: USER  
DOCKED: USER    Estimated Free Energy of Binding    =   +3.87 kcal/mol  [=(1)+(2)+(3)-(4)]
DOCKED: USER    
DOCKED: USER    (1) Final Intermolecular Energy     =   -3.29 kcal/mol
DOCKED: USER        vdW + Hbond + desolv Energy     =   -3.12 kcal/mol
DOCKED: USER        Electrostatic Energy            =   -0.17 kcal/mol
DOCKED: USER    (2) Final Total Internal Energy     =  -13.35 kcal/mol
DOCKED: USER    (3) Torsional Free Energy           =   +7.16 kcal/mol
DOCKED: USER    (4) Unbound System's Energy  [=(2)] =  -13.35 kcal/mol
DOCKED: USER    
DOCKED: USER    
DOCKED: USER    NEWDPF move IHP_ideal_opt.pdbqt
DOCKED: USER    NEWDPF about 0.035000 0.082000 -0.065000
DOCKED: USER    NEWDPF tran0 14.761027 2.970536 11.823286
DOCKED: USER    NEWDPF quaternion0 0.407586 0.554146 -0.320999 -0.650965
DOCKED: USER    NEWDPF axisangle0 0.536928 0.729997 -0.422863 -98.771245
DOCKED: USER    NEWDPF quat0 0.536928 0.729997 -0.422863 -98.771245
DOCKED: USER    NEWDPF dihe0 126.13 -62.59 134.94 58.08 28.60 -125.34 -91.67 -50.33 139.08 1.68 68.83 -84.20 -70.68 32.99 -40.59 -5.83 166.59 -29.60 70.17 18.53 159.40 38.08 5.93 -43.56 
DOCKED: USER  keepresnum = 1 
DOCKED: USER  
DOCKED: REMARK  24 active torsions:
DOCKED: REMARK  status: ('A' for Active; 'I' for Inactive)
DOCKED: REMARK    1  A    between atoms: C_1  and  O_7 
DOCKED: REMARK    2  A    between atoms: C_2  and  O_12 
DOCKED: REMARK    3  A    between atoms: C_3  and  O_17 
DOCKED: REMARK    4  A    between atoms: C_4  and  O_22 
DOCKED: REMARK    5  A    between atoms: C_5  and  O_27 
DOCKED: REMARK    6  A    between atoms: C_6  and  O_32 
DOCKED: REMARK    7  A    between atoms: O_7  and  P_8 
DOCKED: REMARK    8  A    between atoms: P_8  and  O_10 
DOCKED: REMARK    9  A    between atoms: P_8  and  O_11 
DOCKED: REMARK   10  A    between atoms: O_12  and  P_13 
DOCKED: REMARK   11  A    between atoms: P_13  and  O_15 
DOCKED: REMARK   12  A    between atoms: P_13  and  O_16 
DOCKED: REMARK   13  A    between atoms: O_17  and  P_18 
DOCKED: REMARK   14  A    between atoms: P_18  and  O_20 
DOCKED: REMARK   15  A    between atoms: P_18  and  O_21 
DOCKED: REMARK   16  A    between atoms: O_22  and  P_23 
DOCKED: REMARK   17  A    between atoms: P_23  and  O_25 
DOCKED: REMARK   18  A    between atoms: P_23  and  O_26 
DOCKED: REMARK   19  A    between atoms: O_27  and  P_28 
DOCKED: REMARK   20  A    between atoms: P_28  and  O_30 
DOCKED: REMARK   21  A    between atoms: P_28  and  O_31 
DOCKED: REMARK   22  A    between atoms: O_32  and  P_33 
DOCKED: REMARK   23  A    between atoms: P_33  and  O_35 
DOCKED: REMARK   24  A    between atoms: P_33  and  O_36 
DOCKED: USER                              x       y       z     vdW  Elec       q    Type
DOCKED: USER                           _______ _______ _______ _____ _____    ______ ____
DOCKED: ROOT
DOCKED: ATOM      1  C   UNL d   1      14.578   1.902  10.479 -0.06 +0.04    +0.194 C 
DOCKED: ATOM      2  C   UNL d   1      13.485   1.816  11.545 -0.08 +0.05    +0.194 C 
DOCKED: ATOM      3  C   UNL d   1      14.069   1.847  12.959 -0.04 +0.05    +0.194 C 
DOCKED: ATOM      4  C   UNL d   1      15.012   3.025  13.193 -0.05 +0.05    +0.194 C 
DOCKED: ATOM      5  C   UNL d   1      16.048   3.218  12.094 -0.03 +0.04    +0.194 C 
DOCKED: ATOM      6  C   UNL d   1      15.474   3.125  10.678 -0.06 +0.04    +0.194 C 
DOCKED: ENDROOT
DOCKED: BRANCH   1   7
DOCKED: ATOM      7  O   UNL d   1      13.947   2.040   9.203 -0.11 -0.07    -0.278 OA
DOCKED: BRANCH   7   8
DOCKED: ATOM      8  P   UNL d   1      12.822   0.982   8.794 -0.18 +0.16    +0.473 P 
DOCKED: ATOM      9  O   UNL d   1      12.840  -0.289   9.568 -0.12 -0.12    -0.228 OA
DOCKED: BRANCH   8  10
DOCKED: ATOM     10  O   UNL d   1      11.456   1.792   8.948 -0.33 -0.09    -0.303 OA
DOCKED: ATOM     11  H   UNL d   1      11.543   2.447   9.665 +0.11 +0.05    +0.222 HD
DOCKED: ENDBRANCH   8  10
DOCKED: BRANCH   8  12
DOCKED: ATOM     12  O   UNL d   1      12.946   0.836   7.217 -0.28 -0.08    -0.303 OA
DOCKED: ATOM     13  H   UNL d   1      12.203   1.259   6.731 -0.08 +0.01    +0.222 HD
DOCKED: ENDBRANCH   8  12
DOCKED: ENDBRANCH   7   8
DOCKED: ENDBRANCH   1   7
DOCKED: BRANCH   2  14
DOCKED: ATOM     14  O   UNL d   1      12.595   2.929  11.393 -0.18 -0.08    -0.278 OA
DOCKED: BRANCH  14  15
DOCKED: ATOM     15  P   UNL d   1      11.073   2.694  11.833 -0.23 +0.14    +0.473 P 
DOCKED: ATOM     16  O   UNL d   1      10.738   2.968  13.266 -0.34 -0.10    -0.228 OA
DOCKED: BRANCH  15  17
DOCKED: ATOM     17  O   UNL d   1      10.234   3.593  10.820 -0.26 -0.04    -0.303 OA
DOCKED: ATOM     18  H   UNL d   1      10.611   3.554   9.920 -0.41 +0.00    +0.222 HD
DOCKED: ENDBRANCH  15  17
DOCKED: BRANCH  15  19
DOCKED: ATOM     19  O   UNL d   1      10.733   1.229  11.317 -0.24 -0.10    -0.303 OA
DOCKED: ATOM     20  H   UNL d   1      11.486   0.829  10.845 +0.10 +0.08    +0.222 HD
DOCKED: ENDBRANCH  15  19
DOCKED: ENDBRANCH  14  15
DOCKED: ENDBRANCH   2  14
DOCKED: BRANCH   6  21
DOCKED: ATOM     21  O   UNL d   1      16.582   2.980   9.793 -0.02 -0.04    -0.278 OA
DOCKED: BRANCH  21  22
DOCKED: ATOM     22  P   UNL d   1      17.602   1.769   9.991 -0.00 +0.06    +0.473 P 
DOCKED: ATOM     23  O   UNL d   1      17.500   0.960  11.240 -0.00 -0.03    -0.228 OA
DOCKED: BRANCH  22  24
DOCKED: ATOM     24  O   UNL d   1      17.397   0.947   8.644 -0.00 -0.04    -0.303 OA
DOCKED: ATOM     25  H   UNL d   1      16.435   0.979   8.407 +0.03 +0.04    +0.222 HD
DOCKED: ENDBRANCH  22  24
DOCKED: BRANCH  22  26
DOCKED: ATOM     26  O   UNL d   1      19.012   2.486   9.731 -0.00 -0.03    -0.303 OA
DOCKED: ATOM     27  H   UNL d   1      19.137   3.199  10.389 +0.00 +0.02    +0.222 HD
DOCKED: ENDBRANCH  22  26
DOCKED: ENDBRANCH  21  22
DOCKED: ENDBRANCH   6  21
DOCKED: BRANCH   3  28
DOCKED: ATOM     28  O   UNL d   1      12.989   2.043  13.864 -0.07 -0.10    -0.278 OA
DOCKED: BRANCH  28  29
DOCKED: ATOM     29  P   UNL d   1      13.046   1.421  15.329 -0.03 +0.17    +0.473 P 
DOCKED: ATOM     30  O   UNL d   1      13.787   0.140  15.454 -0.01 -0.05    -0.228 OA
DOCKED: BRANCH  29  31
DOCKED: ATOM     31  O   UNL d   1      13.620   2.675  16.142 -0.07 -0.17    -0.303 OA
DOCKED: ATOM     32  H   UNL d   1      14.313   3.113  15.596 +0.03 +0.11    +0.222 HD
DOCKED: ENDBRANCH  29  31
DOCKED: BRANCH  29  33
DOCKED: ATOM     33  O   UNL d   1      11.509   1.407  15.745 -0.11 -0.13    -0.303 OA
DOCKED: ATOM     34  H   UNL d   1      10.960   1.640  14.956 +0.08 +0.09    +0.222 HD
DOCKED: ENDBRANCH  29  33
DOCKED: ENDBRANCH  28  29
DOCKED: ENDBRANCH   3  28
DOCKED: BRANCH   5  35
DOCKED: ATOM     35  O   UNL d   1      16.545   4.545  12.258 -0.02 -0.05    -0.278 OA
DOCKED: BRANCH  35  36
DOCKED: ATOM     36  P   UNL d   1      18.109   4.838  12.149 -0.00 +0.06    +0.473 P 
DOCKED: ATOM     37  O   UNL d   1      18.613   5.969  12.988 -0.01 -0.02    -0.228 OA
DOCKED: BRANCH  36  38
DOCKED: ATOM     38  O   UNL d   1      18.733   3.420  12.517 -0.00 -0.03    -0.303 OA
DOCKED: ATOM     39  H   UNL d   1      18.537   2.785  11.795 +0.00 +0.02    +0.222 HD
DOCKED: ENDBRANCH  36  38
DOCKED: BRANCH  36  40
DOCKED: ATOM     40  O   UNL d   1      18.323   4.954  10.577 -0.00 -0.03    -0.303 OA
DOCKED: ATOM     41  H   UNL d   1      17.797   4.284  10.087 +0.02 +0.02    +0.222 HD
DOCKED: ENDBRANCH  36  40
DOCKED: ENDBRANCH  35  36
DOCKED: ENDBRANCH   5  35
DOCKED: BRANCH   4  42
DOCKED: ATOM     42  O   UNL d   1      15.728   2.748  14.402 -0.01 -0.07    -0.278 OA
DOCKED: BRANCH  42  43
DOCKED: ATOM     43  P   UNL d   1      16.313   3.967  15.248 -0.02 +0.13    +0.473 P 
DOCKED: ATOM     44  O   UNL d   1      15.783   5.327  14.950 -0.06 -0.09    -0.228 OA
DOCKED: BRANCH  43  45
DOCKED: ATOM     45  O   UNL d   1      16.081   3.493  16.750 -0.01 -0.09    -0.303 OA
DOCKED: ATOM     46  H   UNL d   1      15.597   2.643  16.786 +0.01 +0.06    +0.222 HD
DOCKED: ENDBRANCH  43  45
DOCKED: BRANCH  43  47
DOCKED: ATOM     47  O   UNL d   1      17.898   3.793  15.093 -0.00 -0.04    -0.303 OA
DOCKED: ATOM     48  H   UNL d   1      18.213   4.351  14.352 +0.01 +0.03    +0.222 HD
DOCKED: ENDBRANCH  43  47
DOCKED: ENDBRANCH  42  43
DOCKED: ENDBRANCH   4  42
DOCKED: TORSDOF 24
DOCKED: TER
DOCKED: ENDMDL
________________________________________________________________________________


	BEGINNING GENETIC ALGORITHM DOCKING 53 of 100
Run: 53 Seed: 1520800026 1393205749 [ Run 53 of 100 GA/GALS ]
Beginning LAMARCKIAN GENETIC ALGORITHM (LGA), with a maximum of 25000000 energy evaluations.

Final-Value: -18.148


	FINAL GENETIC ALGORITHM DOCKED STATE
	_______________________________________________


Detailed state:  trans -8.538 -15.310 12.922 quatxyzw 0.700741 0.630007 0.247528 0.225349 center 0.035 0.082 -0.065 ntor 24 179.8357 -15.5447 58.3611 96.0809 96.5457 73.5958 -12.9474 -101.7909 -3.2256 21.7403 137.0065 104.1221 17.9421 107.9569 112.3705 -83.7751 177.0030 57.3881 -135.7956 -16.7420 159.5046 0.4577 -21.6636 -19.1760
State:	 -8.538 -15.310  12.922   0.719  0.647  0.254 153.953    179.84  -15.54   58.36   96.08   96.55   73.60  -12.95 -101.79   -3.23   21.74  137.01  104.12   17.94  107.96  112.37  -83.78  177.00   57.39 -135.80  -16.74  159.50    0.46  -21.66  -19.18

DOCKED: MODEL       53
DOCKED: USER    Run = 53
DOCKED: USER    DPF = D:/Protein_go_brrr/autodock/final/mut_N102T/IHP/dock.dpf
DOCKED: USER  
DOCKED: USER    Estimated Free Energy of Binding    =   +1.86 kcal/mol  [=(1)+(2)+(3)-(4)]
DOCKED: USER    
DOCKED: USER    (1) Final Intermolecular Energy     =   -5.30 kcal/mol
DOCKED: USER        vdW + Hbond + desolv Energy     =   -5.16 kcal/mol
DOCKED: USER        Electrostatic Energy            =   -0.14 kcal/mol
DOCKED: USER    (2) Final Total Internal Energy     =  -12.85 kcal/mol
DOCKED: USER    (3) Torsional Free Energy           =   +7.16 kcal/mol
DOCKED: USER    (4) Unbound System's Energy  [=(2)] =  -12.85 kcal/mol
DOCKED: USER    
DOCKED: USER    
DOCKED: USER    NEWDPF move IHP_ideal_opt.pdbqt
DOCKED: USER    NEWDPF about 0.035000 0.082000 -0.065000
DOCKED: USER    NEWDPF tran0 -8.537925 -15.310197 12.921774
DOCKED: USER    NEWDPF quaternion0 0.700741 0.630007 0.247528 0.225349
DOCKED: USER    NEWDPF axisangle0 0.719242 0.646640 0.254063 153.953175
DOCKED: USER    NEWDPF quat0 0.719242 0.646640 0.254063 153.953175
DOCKED: USER    NEWDPF dihe0 179.84 -15.54 58.36 96.08 96.55 73.60 -12.95 -101.79 -3.23 21.74 137.01 104.12 17.94 107.96 112.37 -83.78 177.00 57.39 -135.80 -16.74 159.50 0.46 -21.66 -19.18 
DOCKED: USER  keepresnum = 1 
DOCKED: USER  
DOCKED: REMARK  24 active torsions:
DOCKED: REMARK  status: ('A' for Active; 'I' for Inactive)
DOCKED: REMARK    1  A    between atoms: C_1  and  O_7 
DOCKED: REMARK    2  A    between atoms: C_2  and  O_12 
DOCKED: REMARK    3  A    between atoms: C_3  and  O_17 
DOCKED: REMARK    4  A    between atoms: C_4  and  O_22 
DOCKED: REMARK    5  A    between atoms: C_5  and  O_27 
DOCKED: REMARK    6  A    between atoms: C_6  and  O_32 
DOCKED: REMARK    7  A    between atoms: O_7  and  P_8 
DOCKED: REMARK    8  A    between atoms: P_8  and  O_10 
DOCKED: REMARK    9  A    between atoms: P_8  and  O_11 
DOCKED: REMARK   10  A    between atoms: O_12  and  P_13 
DOCKED: REMARK   11  A    between atoms: P_13  and  O_15 
DOCKED: REMARK   12  A    between atoms: P_13  and  O_16 
DOCKED: REMARK   13  A    between atoms: O_17  and  P_18 
DOCKED: REMARK   14  A    between atoms: P_18  and  O_20 
DOCKED: REMARK   15  A    between atoms: P_18  and  O_21 
DOCKED: REMARK   16  A    between atoms: O_22  and  P_23 
DOCKED: REMARK   17  A    between atoms: P_23  and  O_25 
DOCKED: REMARK   18  A    between atoms: P_23  and  O_26 
DOCKED: REMARK   19  A    between atoms: O_27  and  P_28 
DOCKED: REMARK   20  A    between atoms: P_28  and  O_30 
DOCKED: REMARK   21  A    between atoms: P_28  and  O_31 
DOCKED: REMARK   22  A    between atoms: O_32  and  P_33 
DOCKED: REMARK   23  A    between atoms: P_33  and  O_35 
DOCKED: REMARK   24  A    between atoms: P_33  and  O_36 
DOCKED: USER                              x       y       z     vdW  Elec       q    Type
DOCKED: USER                           _______ _______ _______ _____ _____    ______ ____
DOCKED: ROOT
DOCKED: ATOM      1  C   UNL d   1      -9.266 -13.754  13.102 -0.06 -0.05    +0.194 C 
DOCKED: ATOM      2  C   UNL d   1     -10.194 -14.864  12.604 -0.05 -0.06    +0.194 C 
DOCKED: ATOM      3  C   UNL d   1      -9.515 -15.737  11.546 -0.08 -0.10    +0.194 C 
DOCKED: ATOM      4  C   UNL d   1      -8.157 -16.275  11.990 -0.13 -0.10    +0.194 C 
DOCKED: ATOM      5  C   UNL d   1      -7.242 -15.221  12.600 -0.15 -0.08    +0.194 C 
DOCKED: ATOM      6  C   UNL d   1      -7.936 -14.309  13.613 -0.06 -0.05    +0.194 C 
DOCKED: ENDROOT
DOCKED: BRANCH   1   7
DOCKED: ATOM      7  O   UNL d   1      -9.905 -13.099  14.200 -0.01 +0.05    -0.278 OA
DOCKED: BRANCH   7   8
DOCKED: ATOM      8  P   UNL d   1      -9.430 -13.462  15.682 +0.00 -0.07    +0.473 P 
DOCKED: ATOM      9  O   UNL d   1      -8.066 -12.985  16.041 -0.01 +0.04    -0.228 OA
DOCKED: BRANCH   8  10
DOCKED: ATOM     10  O   UNL d   1     -10.573 -12.856  16.614 -0.00 +0.04    -0.303 OA
DOCKED: ATOM     11  H   UNL d   1     -11.394 -12.749  16.098 +0.00 -0.03    +0.222 HD
DOCKED: ENDBRANCH   8  10
DOCKED: BRANCH   8  12
DOCKED: ATOM     12  O   UNL d   1      -9.678 -15.025  15.823 -0.00 +0.05    -0.303 OA
DOCKED: ATOM     13  H   UNL d   1     -10.622 -15.277  15.712 +0.00 -0.03    +0.222 HD
DOCKED: ENDBRANCH   8  12
DOCKED: ENDBRANCH   7   8
DOCKED: ENDBRANCH   1   7
DOCKED: BRANCH   2  14
DOCKED: ATOM     14  O   UNL d   1     -10.564 -15.695  13.712 -0.01 +0.06    -0.278 OA
DOCKED: BRANCH  14  15
DOCKED: ATOM     15  P   UNL d   1     -12.112 -15.692  14.122 +0.00 -0.07    +0.473 P 
DOCKED: ATOM     16  O   UNL d   1     -12.577 -16.812  14.999 -0.00 +0.03    -0.228 OA
DOCKED: BRANCH  15  17
DOCKED: ATOM     17  O   UNL d   1     -12.335 -14.259  14.781 +0.00 +0.04    -0.303 OA
DOCKED: ATOM     18  H   UNL d   1     -11.557 -13.988  15.307 +0.00 -0.03    +0.222 HD
DOCKED: ENDBRANCH  15  17
DOCKED: BRANCH  15  19
DOCKED: ATOM     19  O   UNL d   1     -12.888 -15.533  12.743 +0.00 +0.05    -0.303 OA
DOCKED: ATOM     20  H   UNL d   1     -12.443 -16.014  12.021 +0.02 -0.05    +0.222 HD
DOCKED: ENDBRANCH  15  19
DOCKED: ENDBRANCH  14  15
DOCKED: ENDBRANCH   2  14
DOCKED: BRANCH   6  21
DOCKED: ATOM     21  O   UNL d   1      -7.072 -13.195  13.824 -0.05 +0.07    -0.278 OA
DOCKED: BRANCH  21  22
DOCKED: ATOM     22  P   UNL d   1      -6.620 -12.297  12.585 -0.09 -0.12    +0.473 P 
DOCKED: ATOM     23  O   UNL d   1      -6.497 -10.825  12.789 -0.18 +0.05    -0.228 OA
DOCKED: BRANCH  22  24
DOCKED: ATOM     24  O   UNL d   1      -5.278 -13.023  12.130 -0.24 +0.10    -0.303 OA
DOCKED: ATOM     25  H   UNL d   1      -5.362 -13.987  12.344 +0.07 -0.09    +0.222 HD
DOCKED: ENDBRANCH  22  24
DOCKED: BRANCH  22  26
DOCKED: ATOM     26  O   UNL d   1      -7.651 -12.766  11.451 -0.22 +0.11    -0.303 OA
DOCKED: ATOM     27  H   UNL d   1      -7.206 -13.403  10.855 -0.40 -0.10    +0.222 HD
DOCKED: ENDBRANCH  22  26
DOCKED: ENDBRANCH  21  22
DOCKED: ENDBRANCH   6  21
DOCKED: BRANCH   3  28
DOCKED: ATOM     28  O   UNL d   1     -10.331 -16.885  11.351 -0.08 +0.13    -0.278 OA
DOCKED: BRANCH  28  29
DOCKED: ATOM     29  P   UNL d   1     -11.119 -17.090   9.982 -0.13 -0.24    +0.473 P 
DOCKED: ATOM     30  O   UNL d   1     -12.594 -16.940  10.064 -0.03 +0.07    -0.228 OA
DOCKED: BRANCH  29  31
DOCKED: ATOM     31  O   UNL d   1     -10.334 -16.052   9.051 -0.70 +0.16    -0.303 OA
DOCKED: ATOM     32  H   UNL d   1      -9.376 -16.090   9.276 -0.51 -0.22    +0.222 HD
DOCKED: ENDBRANCH  29  31
DOCKED: BRANCH  29  33
DOCKED: ATOM     33  O   UNL d   1     -10.565 -18.497   9.485 -0.08 +0.32    -0.303 OA
DOCKED: ATOM     34  H   UNL d   1      -9.587 -18.527   9.630 -0.34 -0.37    +0.222 HD
DOCKED: ENDBRANCH  29  33
DOCKED: ENDBRANCH  28  29
DOCKED: ENDBRANCH   3  28
DOCKED: BRANCH   5  35
DOCKED: ATOM     35  O   UNL d   1      -6.236 -15.945  13.307 -0.06 +0.11    -0.278 OA
DOCKED: BRANCH  35  36
DOCKED: ATOM     36  P   UNL d   1      -4.740 -15.989  12.756 -0.09 -0.26    +0.473 P 
DOCKED: ATOM     37  O   UNL d   1      -4.058 -17.317  12.847 -0.11 +0.13    -0.228 OA
DOCKED: BRANCH  36  38
DOCKED: ATOM     38  O   UNL d   1      -4.924 -15.449  11.269 -0.21 +0.21    -0.303 OA
DOCKED: ATOM     39  H   UNL d   1      -5.352 -16.144  10.725 -0.35 -0.18    +0.222 HD
DOCKED: ENDBRANCH  36  38
DOCKED: BRANCH  36  40
DOCKED: ATOM     40  O   UNL d   1      -4.059 -14.774  13.523 -0.11 +0.17    -0.303 OA
DOCKED: ATOM     41  H   UNL d   1      -4.727 -14.136  13.861 +0.08 -0.09    +0.222 HD
DOCKED: ENDBRANCH  36  40
DOCKED: ENDBRANCH  35  36
DOCKED: ENDBRANCH   5  35
DOCKED: BRANCH   4  42
DOCKED: ATOM     42  O   UNL d   1      -7.504 -16.772  10.817 -0.13 +0.23    -0.278 OA
DOCKED: BRANCH  42  43
DOCKED: ATOM     43  P   UNL d   1      -6.872 -18.236  10.849 -0.17 -0.41    +0.473 P 
DOCKED: ATOM     44  O   UNL d   1      -7.625 -19.325  10.165 -0.02 +0.32    -0.228 OA
DOCKED: BRANCH  43  45
DOCKED: ATOM     45  O   UNL d   1      -5.408 -17.997  10.273 -0.26 +0.30    -0.303 OA
DOCKED: ATOM     46  H   UNL d   1      -4.883 -17.418  10.861 -0.25 -0.20    +0.222 HD
DOCKED: ENDBRANCH  43  45
DOCKED: BRANCH  43  47
DOCKED: ATOM     47  O   UNL d   1      -6.575 -18.474  12.406 -0.04 +0.14    -0.303 OA
DOCKED: ATOM     48  H   UNL d   1      -5.769 -17.978  12.660 +0.05 -0.10    +0.222 HD
DOCKED: ENDBRANCH  43  47
DOCKED: ENDBRANCH  42  43
DOCKED: ENDBRANCH   4  42
DOCKED: TORSDOF 24
DOCKED: TER
DOCKED: ENDMDL
________________________________________________________________________________


	BEGINNING GENETIC ALGORITHM DOCKING 54 of 100
Run: 54 Seed: 2012873825 1347214553 [ Run 54 of 100 GA/GALS ]
Beginning LAMARCKIAN GENETIC ALGORITHM (LGA), with a maximum of 25000000 energy evaluations.

Final-Value: -17.907


	FINAL GENETIC ALGORITHM DOCKED STATE
	_______________________________________________


Detailed state:  trans -5.152 -13.509 17.287 quatxyzw -0.706803 -0.050458 -0.705203 -0.023940 center 0.035 0.082 -0.065 ntor 24 135.0044 -150.5886 67.9168 3.0560 101.4036 106.3315 -109.3989 -114.0678 89.0329 -25.2502 -128.3878 138.4751 -53.7987 167.3584 -132.0858 -149.0826 -137.5418 8.6787 49.2959 -9.3474 -3.7801 -25.0343 -8.0489 -179.3213
State:	 -5.152 -13.509  17.287  -0.707 -0.050 -0.705 -177.256    135.00 -150.59   67.92    3.06  101.40  106.33 -109.40 -114.07   89.03  -25.25 -128.39  138.48  -53.80  167.36 -132.09 -149.08 -137.54    8.68   49.30   -9.35   -3.78  -25.03   -8.05 -179.32

DOCKED: MODEL       54
DOCKED: USER    Run = 54
DOCKED: USER    DPF = D:/Protein_go_brrr/autodock/final/mut_N102T/IHP/dock.dpf
DOCKED: USER  
DOCKED: USER    Estimated Free Energy of Binding    =   +3.14 kcal/mol  [=(1)+(2)+(3)-(4)]
DOCKED: USER    
DOCKED: USER    (1) Final Intermolecular Energy     =   -4.02 kcal/mol
DOCKED: USER        vdW + Hbond + desolv Energy     =   -3.76 kcal/mol
DOCKED: USER        Electrostatic Energy            =   -0.27 kcal/mol
DOCKED: USER    (2) Final Total Internal Energy     =  -13.88 kcal/mol
DOCKED: USER    (3) Torsional Free Energy           =   +7.16 kcal/mol
DOCKED: USER    (4) Unbound System's Energy  [=(2)] =  -13.88 kcal/mol
DOCKED: USER    
DOCKED: USER    
DOCKED: USER    NEWDPF move IHP_ideal_opt.pdbqt
DOCKED: USER    NEWDPF about 0.035000 0.082000 -0.065000
DOCKED: USER    NEWDPF tran0 -5.151701 -13.508953 17.286753
DOCKED: USER    NEWDPF quaternion0 -0.706803 -0.050458 -0.705203 -0.023940
DOCKED: USER    NEWDPF axisangle0 -0.707005 -0.050472 -0.705405 -177.256443
DOCKED: USER    NEWDPF quat0 -0.707005 -0.050472 -0.705405 -177.256443
DOCKED: USER    NEWDPF dihe0 135.00 -150.59 67.92 3.06 101.40 106.33 -109.40 -114.07 89.03 -25.25 -128.39 138.48 -53.80 167.36 -132.09 -149.08 -137.54 8.68 49.30 -9.35 -3.78 -25.03 -8.05 -179.32 
DOCKED: USER  keepresnum = 1 
DOCKED: USER  
DOCKED: REMARK  24 active torsions:
DOCKED: REMARK  status: ('A' for Active; 'I' for Inactive)
DOCKED: REMARK    1  A    between atoms: C_1  and  O_7 
DOCKED: REMARK    2  A    between atoms: C_2  and  O_12 
DOCKED: REMARK    3  A    between atoms: C_3  and  O_17 
DOCKED: REMARK    4  A    between atoms: C_4  and  O_22 
DOCKED: REMARK    5  A    between atoms: C_5  and  O_27 
DOCKED: REMARK    6  A    between atoms: C_6  and  O_32 
DOCKED: REMARK    7  A    between atoms: O_7  and  P_8 
DOCKED: REMARK    8  A    between atoms: P_8  and  O_10 
DOCKED: REMARK    9  A    between atoms: P_8  and  O_11 
DOCKED: REMARK   10  A    between atoms: O_12  and  P_13 
DOCKED: REMARK   11  A    between atoms: P_13  and  O_15 
DOCKED: REMARK   12  A    between atoms: P_13  and  O_16 
DOCKED: REMARK   13  A    between atoms: O_17  and  P_18 
DOCKED: REMARK   14  A    between atoms: P_18  and  O_20 
DOCKED: REMARK   15  A    between atoms: P_18  and  O_21 
DOCKED: REMARK   16  A    between atoms: O_22  and  P_23 
DOCKED: REMARK   17  A    between atoms: P_23  and  O_25 
DOCKED: REMARK   18  A    between atoms: P_23  and  O_26 
DOCKED: REMARK   19  A    between atoms: O_27  and  P_28 
DOCKED: REMARK   20  A    between atoms: P_28  and  O_30 
DOCKED: REMARK   21  A    between atoms: P_28  and  O_31 
DOCKED: REMARK   22  A    between atoms: O_32  and  P_33 
DOCKED: REMARK   23  A    between atoms: P_33  and  O_35 
DOCKED: REMARK   24  A    between atoms: P_33  and  O_36 
DOCKED: USER                              x       y       z     vdW  Elec       q    Type
DOCKED: USER                           _______ _______ _______ _____ _____    ______ ____
DOCKED: ROOT
DOCKED: ATOM      1  C   UNL d   1      -4.458 -12.496  18.502 -0.09 -0.04    +0.194 C 
DOCKED: ATOM      2  C   UNL d   1      -4.910 -11.783  17.227 -0.12 -0.04    +0.194 C 
DOCKED: ATOM      3  C   UNL d   1      -4.515 -12.563  15.971 -0.15 -0.05    +0.194 C 
DOCKED: ATOM      4  C   UNL d   1      -4.961 -14.023  16.005 -0.06 -0.05    +0.194 C 
DOCKED: ATOM      5  C   UNL d   1      -4.632 -14.742  17.307 -0.03 -0.04    +0.194 C 
DOCKED: ATOM      6  C   UNL d   1      -4.970 -13.936  18.563 -0.02 -0.03    +0.194 C 
DOCKED: ENDROOT
DOCKED: BRANCH   1   7
DOCKED: ATOM      7  O   UNL d   1      -5.010 -11.800  19.622 -0.03 +0.04    -0.278 OA
DOCKED: BRANCH   7   8
DOCKED: ATOM      8  P   UNL d   1      -4.388 -10.383  20.017 -0.07 -0.07    +0.473 P 
DOCKED: ATOM      9  O   UNL d   1      -3.235  -9.946  19.184 -0.14 +0.05    -0.228 OA
DOCKED: BRANCH   8  10
DOCKED: ATOM     10  O   UNL d   1      -5.629  -9.383  19.945 -0.02 +0.03    -0.303 OA
DOCKED: ATOM     11  H   UNL d   1      -6.316  -9.755  19.362 +0.02 -0.02    +0.222 HD
DOCKED: ENDBRANCH   8  10
DOCKED: BRANCH   8  12
DOCKED: ATOM     12  O   UNL d   1      -4.122 -10.470  21.581 -0.02 +0.03    -0.303 OA
DOCKED: ATOM     13  H   UNL d   1      -3.519  -9.765  21.909 +0.02 -0.02    +0.222 HD
DOCKED: ENDBRANCH   8  12
DOCKED: ENDBRANCH   7   8
DOCKED: ENDBRANCH   1   7
DOCKED: BRANCH   2  14
DOCKED: ATOM     14  O   UNL d   1      -6.336 -11.645  17.249 -0.02 +0.04    -0.278 OA
DOCKED: BRANCH  14  15
DOCKED: ATOM     15  P   UNL d   1      -6.913 -10.155  17.141 -0.01 -0.06    +0.473 P 
DOCKED: ATOM     16  O   UNL d   1      -8.048  -9.806  18.052 -0.01 +0.02    -0.228 OA
DOCKED: BRANCH  15  17
DOCKED: ATOM     17  O   UNL d   1      -5.636  -9.228  17.362 -0.08 +0.04    -0.303 OA
DOCKED: ATOM     18  H   UNL d   1      -4.968  -9.677  17.914 +0.04 -0.03    +0.222 HD
DOCKED: ENDBRANCH  15  17
DOCKED: BRANCH  15  19
DOCKED: ATOM     19  O   UNL d   1      -7.192  -9.950  15.588 -0.02 +0.05    -0.303 OA
DOCKED: ATOM     20  H   UNL d   1      -6.389 -10.100  15.055 +0.08 -0.04    +0.222 HD
DOCKED: ENDBRANCH  15  19
DOCKED: ENDBRANCH  14  15
DOCKED: ENDBRANCH   2  14
DOCKED: BRANCH   6  21
DOCKED: ATOM     21  O   UNL d   1      -4.305 -14.571  19.652 -0.01 +0.04    -0.278 OA
DOCKED: BRANCH  21  22
DOCKED: ATOM     22  P   UNL d   1      -5.147 -15.427  20.703 +0.01 -0.05    +0.473 P 
DOCKED: ATOM     23  O   UNL d   1      -5.463 -14.809  22.023 -0.00 +0.02    -0.228 OA
DOCKED: BRANCH  22  24
DOCKED: ATOM     24  O   UNL d   1      -6.417 -15.844  19.840 +0.00 +0.04    -0.303 OA
DOCKED: ATOM     25  H   UNL d   1      -6.120 -15.997  18.907 +0.00 -0.03    +0.222 HD
DOCKED: ENDBRANCH  22  24
DOCKED: BRANCH  22  26
DOCKED: ATOM     26  O   UNL d   1      -4.314 -16.796  20.749 +0.00 +0.03    -0.303 OA
DOCKED: ATOM     27  H   UNL d   1      -4.399 -17.254  19.888 +0.00 -0.03    +0.222 HD
DOCKED: ENDBRANCH  22  26
DOCKED: ENDBRANCH  21  22
DOCKED: ENDBRANCH   6  21
DOCKED: BRANCH   3  28
DOCKED: ATOM     28  O   UNL d   1      -5.205 -11.983  14.872 -0.12 +0.07    -0.278 OA
DOCKED: BRANCH  28  29
DOCKED: ATOM     29  P   UNL d   1      -4.593 -10.726  14.110 -0.25 -0.10    +0.473 P 
DOCKED: ATOM     30  O   UNL d   1      -5.454 -10.135  13.054 -0.27 +0.05    -0.228 OA
DOCKED: BRANCH  29  31
DOCKED: ATOM     31  O   UNL d   1      -4.231  -9.792  15.359 -0.18 +0.04    -0.303 OA
DOCKED: ATOM     32  H   UNL d   1      -5.053  -9.630  15.878 +0.08 -0.04    +0.222 HD
DOCKED: ENDBRANCH  29  31
DOCKED: BRANCH  29  33
DOCKED: ATOM     33  O   UNL d   1      -3.168 -11.272  13.655 -0.74 +0.11    -0.303 OA
DOCKED: ATOM     34  H   UNL d   1      -2.684 -11.606  14.450 -0.35 -0.06    +0.222 HD
DOCKED: ENDBRANCH  29  33
DOCKED: ENDBRANCH  28  29
DOCKED: ENDBRANCH   3  28
DOCKED: BRANCH   5  35
DOCKED: ATOM     35  O   UNL d   1      -5.453 -15.908  17.323 -0.00 +0.06    -0.278 OA
DOCKED: BRANCH  35  36
DOCKED: ATOM     36  P   UNL d   1      -4.794 -17.355  17.447 +0.01 -0.10    +0.473 P 
DOCKED: ATOM     37  O   UNL d   1      -4.512 -18.048  16.151 -0.00 +0.06    -0.228 OA
DOCKED: BRANCH  36  38
DOCKED: ATOM     38  O   UNL d   1      -3.498 -17.049  18.321 +0.00 +0.06    -0.303 OA
DOCKED: ATOM     39  H   UNL d   1      -3.616 -16.190  18.780 +0.02 -0.04    +0.222 HD
DOCKED: ENDBRANCH  36  38
DOCKED: BRANCH  36  40
DOCKED: ATOM     40  O   UNL d   1      -5.774 -18.090  18.460 +0.00 +0.04    -0.303 OA
DOCKED: ATOM     41  H   UNL d   1      -5.733 -17.695  19.359 +0.00 -0.03    +0.222 HD
DOCKED: ENDBRANCH  36  40
DOCKED: ENDBRANCH  35  36
DOCKED: ENDBRANCH   5  35
DOCKED: BRANCH   4  42
DOCKED: ATOM     42  O   UNL d   1      -4.252 -14.698  14.961 -0.08 +0.11    -0.278 OA
DOCKED: BRANCH  42  43
DOCKED: ATOM     43  P   UNL d   1      -2.680 -14.920  15.115 -0.17 -0.30    +0.473 P 
DOCKED: ATOM     44  O   UNL d   1      -2.201 -15.603  16.349 -0.11 +0.11    -0.228 OA
DOCKED: BRANCH  43  45
DOCKED: ATOM     45  O   UNL d   1      -2.300 -15.673  13.765 -0.15 +0.36    -0.303 OA
DOCKED: ATOM     46  H   UNL d   1      -1.348 -15.580  13.559 -0.41 -0.56    +0.222 HD
DOCKED: ENDBRANCH  43  45
DOCKED: BRANCH  43  47
DOCKED: ATOM     47  O   UNL d   1      -2.076 -13.459  14.854 -0.25 +0.22    -0.303 OA
DOCKED: ATOM     48  H   UNL d   1      -2.541 -13.047  14.096 -0.04 -0.16    +0.222 HD
DOCKED: ENDBRANCH  43  47
DOCKED: ENDBRANCH  42  43
DOCKED: ENDBRANCH   4  42
DOCKED: TORSDOF 24
DOCKED: TER
DOCKED: ENDMDL
________________________________________________________________________________


	BEGINNING GENETIC ALGORITHM DOCKING 55 of 100
Run: 55 Seed: 2010586782 44967539 [ Run 55 of 100 GA/GALS ]
Beginning LAMARCKIAN GENETIC ALGORITHM (LGA), with a maximum of 25000000 energy evaluations.

Final-Value: -18.478


	FINAL GENETIC ALGORITHM DOCKED STATE
	_______________________________________________


Detailed state:  trans 5.192 14.571 -13.750 quatxyzw -0.565046 0.428356 0.176082 -0.682810 center 0.035 0.082 -0.065 ntor 24 -143.1636 -179.2268 -145.0802 31.5057 0.5809 112.3806 -42.6152 18.6284 24.1719 19.9164 53.0853 -91.2061 33.9981 173.8624 -176.1336 174.1616 -123.6829 -33.9516 -131.4381 -14.6107 22.0611 -15.5351 -53.4963 177.4135
State:	  5.192  14.571 -13.750  -0.773  0.586  0.241 -93.873   -143.16 -179.23 -145.08   31.51    0.58  112.38  -42.62   18.63   24.17   19.92   53.09  -91.21   34.00  173.86 -176.13  174.16 -123.68  -33.95 -131.44  -14.61   22.06  -15.54  -53.50  177.41

DOCKED: MODEL       55
DOCKED: USER    Run = 55
DOCKED: USER    DPF = D:/Protein_go_brrr/autodock/final/mut_N102T/IHP/dock.dpf
DOCKED: USER  
DOCKED: USER    Estimated Free Energy of Binding    =   +2.11 kcal/mol  [=(1)+(2)+(3)-(4)]
DOCKED: USER    
DOCKED: USER    (1) Final Intermolecular Energy     =   -5.05 kcal/mol
DOCKED: USER        vdW + Hbond + desolv Energy     =   -4.65 kcal/mol
DOCKED: USER        Electrostatic Energy            =   -0.41 kcal/mol
DOCKED: USER    (2) Final Total Internal Energy     =  -13.43 kcal/mol
DOCKED: USER    (3) Torsional Free Energy           =   +7.16 kcal/mol
DOCKED: USER    (4) Unbound System's Energy  [=(2)] =  -13.43 kcal/mol
DOCKED: USER    
DOCKED: USER    
DOCKED: USER    NEWDPF move IHP_ideal_opt.pdbqt
DOCKED: USER    NEWDPF about 0.035000 0.082000 -0.065000
DOCKED: USER    NEWDPF tran0 5.191507 14.570760 -13.749692
DOCKED: USER    NEWDPF quaternion0 -0.565046 0.428356 0.176082 -0.682810
DOCKED: USER    NEWDPF axisangle0 -0.773404 0.586310 0.241012 -93.872761
DOCKED: USER    NEWDPF quat0 -0.773404 0.586310 0.241012 -93.872761
DOCKED: USER    NEWDPF dihe0 -143.16 -179.23 -145.08 31.51 0.58 112.38 -42.62 18.63 24.17 19.92 53.09 -91.21 34.00 173.86 -176.13 174.16 -123.68 -33.95 -131.44 -14.61 22.06 -15.54 -53.50 177.41 
DOCKED: USER  keepresnum = 1 
DOCKED: USER  
DOCKED: REMARK  24 active torsions:
DOCKED: REMARK  status: ('A' for Active; 'I' for Inactive)
DOCKED: REMARK    1  A    between atoms: C_1  and  O_7 
DOCKED: REMARK    2  A    between atoms: C_2  and  O_12 
DOCKED: REMARK    3  A    between atoms: C_3  and  O_17 
DOCKED: REMARK    4  A    between atoms: C_4  and  O_22 
DOCKED: REMARK    5  A    between atoms: C_5  and  O_27 
DOCKED: REMARK    6  A    between atoms: C_6  and  O_32 
DOCKED: REMARK    7  A    between atoms: O_7  and  P_8 
DOCKED: REMARK    8  A    between atoms: P_8  and  O_10 
DOCKED: REMARK    9  A    between atoms: P_8  and  O_11 
DOCKED: REMARK   10  A    between atoms: O_12  and  P_13 
DOCKED: REMARK   11  A    between atoms: P_13  and  O_15 
DOCKED: REMARK   12  A    between atoms: P_13  and  O_16 
DOCKED: REMARK   13  A    between atoms: O_17  and  P_18 
DOCKED: REMARK   14  A    between atoms: P_18  and  O_20 
DOCKED: REMARK   15  A    between atoms: P_18  and  O_21 
DOCKED: REMARK   16  A    between atoms: O_22  and  P_23 
DOCKED: REMARK   17  A    between atoms: P_23  and  O_25 
DOCKED: REMARK   18  A    between atoms: P_23  and  O_26 
DOCKED: REMARK   19  A    between atoms: O_27  and  P_28 
DOCKED: REMARK   20  A    between atoms: P_28  and  O_30 
DOCKED: REMARK   21  A    between atoms: P_28  and  O_31 
DOCKED: REMARK   22  A    between atoms: O_32  and  P_33 
DOCKED: REMARK   23  A    between atoms: P_33  and  O_35 
DOCKED: REMARK   24  A    between atoms: P_33  and  O_36 
DOCKED: USER                              x       y       z     vdW  Elec       q    Type
DOCKED: USER                           _______ _______ _______ _____ _____    ______ ____
DOCKED: ROOT
DOCKED: ATOM      1  C   UNL d   1       6.856  14.729 -14.185 -0.04 -0.05    +0.194 C 
DOCKED: ATOM      2  C   UNL d   1       6.583  14.452 -12.706 -0.09 -0.07    +0.194 C 
DOCKED: ATOM      3  C   UNL d   1       5.414  15.287 -12.179 -0.09 -0.07    +0.194 C 
DOCKED: ATOM      4  C   UNL d   1       4.154  15.162 -13.031 -0.14 -0.07    +0.194 C 
DOCKED: ATOM      5  C   UNL d   1       4.398  15.318 -14.527 -0.10 -0.04    +0.194 C 
DOCKED: ATOM      6  C   UNL d   1       5.605  14.531 -15.042 -0.09 -0.06    +0.194 C 
DOCKED: ENDROOT
DOCKED: BRANCH   1   7
DOCKED: ATOM      7  O   UNL d   1       7.837  13.795 -14.641 -0.03 +0.08    -0.278 OA
DOCKED: BRANCH   7   8
DOCKED: ATOM      8  P   UNL d   1       7.362  12.592 -15.579 -0.04 -0.28    +0.473 P 
DOCKED: ATOM      9  O   UNL d   1       7.298  12.913 -17.031 -0.08 +0.16    -0.228 OA
DOCKED: BRANCH   8  10
DOCKED: ATOM     10  O   UNL d   1       8.380  11.412 -15.240 -0.12 +0.11    -0.303 OA
DOCKED: ATOM     11  H   UNL d   1       8.327  11.197 -14.291 +0.08 -0.07    +0.222 HD
DOCKED: ENDBRANCH   8  10
DOCKED: BRANCH   8  12
DOCKED: ATOM     12  O   UNL d   1       6.013  12.066 -14.925 -0.21 +0.26    -0.303 OA
DOCKED: ATOM     13  H   UNL d   1       5.303  11.899 -15.586 -0.33 -0.34    +0.222 HD
DOCKED: ENDBRANCH   8  12
DOCKED: ENDBRANCH   7   8
DOCKED: ENDBRANCH   1   7
DOCKED: BRANCH   2  14
DOCKED: ATOM     14  O   UNL d   1       6.264  13.065 -12.541 -0.12 +0.15    -0.278 OA
DOCKED: BRANCH  14  15
DOCKED: ATOM     15  P   UNL d   1       7.268  12.201 -11.642 -0.16 -0.17    +0.473 P 
DOCKED: ATOM     16  O   UNL d   1       7.747  10.907 -12.223 -0.22 +0.07    -0.228 OA
DOCKED: BRANCH  15  17
DOCKED: ATOM     17  O   UNL d   1       8.459  13.208 -11.314 -0.04 +0.09    -0.303 OA
DOCKED: ATOM     18  H   UNL d   1       8.543  13.351 -10.352 +0.07 -0.08    +0.222 HD
DOCKED: ENDBRANCH  15  17
DOCKED: BRANCH  15  19
DOCKED: ATOM     19  O   UNL d   1       6.543  12.092 -10.230 -0.29 +0.11    -0.303 OA
DOCKED: ATOM     20  H   UNL d   1       5.963  12.858 -10.063 -0.27 -0.11    +0.222 HD
DOCKED: ENDBRANCH  15  19
DOCKED: ENDBRANCH  14  15
DOCKED: ENDBRANCH   2  14
DOCKED: BRANCH   6  21
DOCKED: ATOM     21  O   UNL d   1       5.903  15.038 -16.341 -0.02 +0.07    -0.278 OA
DOCKED: BRANCH  21  22
DOCKED: ATOM     22  P   UNL d   1       5.052  14.546 -17.598 -0.03 -0.14    +0.473 P 
DOCKED: ATOM     23  O   UNL d   1       5.747  14.416 -18.911 -0.04 +0.06    -0.228 OA
DOCKED: BRANCH  22  24
DOCKED: ATOM     24  O   UNL d   1       4.408  13.199 -17.047 -0.13 +0.25    -0.303 OA
DOCKED: ATOM     25  H   UNL d   1       5.140  12.551 -16.884 -0.51 -0.41    +0.222 HD
DOCKED: ENDBRANCH  22  24
DOCKED: BRANCH  22  26
DOCKED: ATOM     26  O   UNL d   1       3.804  15.551 -17.559 -0.04 +0.01    -0.303 OA
DOCKED: ATOM     27  H   UNL d   1       3.317  15.426 -16.719 +0.07 -0.01    +0.222 HD
DOCKED: ENDBRANCH  22  26
DOCKED: ENDBRANCH  21  22
DOCKED: ENDBRANCH   6  21
DOCKED: BRANCH   3  28
DOCKED: ATOM     28  O   UNL d   1       5.059  14.770 -10.903 +0.00 +0.15    -0.278 OA
DOCKED: BRANCH  28  29
DOCKED: ATOM     29  P   UNL d   1       5.653  15.423  -9.577 -0.11 -0.18    +0.473 P 
DOCKED: ATOM     30  O   UNL d   1       4.766  15.376  -8.386 -0.25 +0.10    -0.228 OA
DOCKED: BRANCH  29  31
DOCKED: ATOM     31  O   UNL d   1       7.044  14.636  -9.477 -0.11 +0.12    -0.303 OA
DOCKED: ATOM     32  H   UNL d   1       7.174  14.122 -10.307 +0.06 -0.08    +0.222 HD
DOCKED: ENDBRANCH  29  31
DOCKED: BRANCH  29  33
DOCKED: ATOM     33  O   UNL d   1       6.100  16.864 -10.085 -0.01 +0.08    -0.303 OA
DOCKED: ATOM     34  H   UNL d   1       5.300  17.439 -10.162 +0.04 -0.05    +0.222 HD
DOCKED: ENDBRANCH  29  33
DOCKED: ENDBRANCH  28  29
DOCKED: ENDBRANCH   3  28
DOCKED: BRANCH   5  35
DOCKED: ATOM     35  O   UNL d   1       3.242  14.780 -15.166 -0.17 +0.05    -0.278 OA
DOCKED: BRANCH  35  36
DOCKED: ATOM     36  P   UNL d   1       1.888  15.621 -15.220 -0.16 +0.04    +0.473 P 
DOCKED: ATOM     37  O   UNL d   1       1.069  15.606 -13.969 -0.21 -0.01    -0.228 OA
DOCKED: BRANCH  36  38
DOCKED: ATOM     38  O   UNL d   1       2.417  17.063 -15.639 -0.03 -0.03    -0.303 OA
DOCKED: ATOM     39  H   UNL d   1       3.201  17.288 -15.094 +0.04 +0.00    +0.222 HD
DOCKED: ENDBRANCH  36  38
DOCKED: BRANCH  36  40
DOCKED: ATOM     40  O   UNL d   1       1.197  15.068 -16.542 -0.75 -0.12    -0.303 OA
DOCKED: ATOM     41  H   UNL d   1       1.851  14.658 -17.150 +0.07 +0.04    +0.222 HD
DOCKED: ENDBRANCH  36  40
DOCKED: ENDBRANCH  35  36
DOCKED: ENDBRANCH   5  35
DOCKED: BRANCH   4  42
DOCKED: ATOM     42  O   UNL d   1       3.278  16.223 -12.635 -0.09 +0.06    -0.278 OA
DOCKED: BRANCH  42  43
DOCKED: ATOM     43  P   UNL d   1       3.710  17.730 -12.932 +0.01 -0.05    +0.473 P 
DOCKED: ATOM     44  O   UNL d   1       4.869  17.946 -13.841 -0.01 +0.02    -0.228 OA
DOCKED: BRANCH  43  45
DOCKED: ATOM     45  O   UNL d   1       2.353  18.388 -13.439 -0.00 +0.01    -0.303 OA
DOCKED: ATOM     46  H   UNL d   1       1.718  17.709 -13.744 +0.04 +0.00    +0.222 HD
DOCKED: ENDBRANCH  43  45
DOCKED: BRANCH  43  47
DOCKED: ATOM     47  O   UNL d   1       3.852  18.366 -11.467 -0.00 +0.04    -0.303 OA
DOCKED: ATOM     48  H   UNL d   1       4.760  18.212 -11.135 +0.02 -0.03    +0.222 HD
DOCKED: ENDBRANCH  43  47
DOCKED: ENDBRANCH  42  43
DOCKED: ENDBRANCH   4  42
DOCKED: TORSDOF 24
DOCKED: TER
DOCKED: ENDMDL
________________________________________________________________________________


	BEGINNING GENETIC ALGORITHM DOCKING 56 of 100
Run: 56 Seed: 826536341 1613425625 [ Run 56 of 100 GA/GALS ]
Beginning LAMARCKIAN GENETIC ALGORITHM (LGA), with a maximum of 25000000 energy evaluations.

Final-Value: -16.270


	FINAL GENETIC ALGORITHM DOCKED STATE
	_______________________________________________


Detailed state:  trans 10.044 -11.534 -16.707 quatxyzw -0.004409 -0.510590 0.491206 -0.705688 center 0.035 0.082 -0.065 ntor 24 100.4095 52.1274 31.3761 132.8458 -53.1469 21.0432 1.5682 -124.2605 40.5003 106.8259 67.8993 -141.3720 156.9442 -63.8220 -72.3167 110.8674 -79.9585 108.5461 49.0229 9.8304 -151.9750 -13.3658 -5.9404 -11.4410
State:	 10.044 -11.534 -16.707  -0.006 -0.721  0.693 -90.230    100.41   52.13   31.38  132.85  -53.15   21.04    1.57 -124.26   40.50  106.83   67.90 -141.37  156.94  -63.82  -72.32  110.87  -79.96  108.55   49.02    9.83 -151.97  -13.37   -5.94  -11.44

DOCKED: MODEL       56
DOCKED: USER    Run = 56
DOCKED: USER    DPF = D:/Protein_go_brrr/autodock/final/mut_N102T/IHP/dock.dpf
DOCKED: USER  
DOCKED: USER    Estimated Free Energy of Binding    =   +3.27 kcal/mol  [=(1)+(2)+(3)-(4)]
DOCKED: USER    
DOCKED: USER    (1) Final Intermolecular Energy     =   -3.89 kcal/mol
DOCKED: USER        vdW + Hbond + desolv Energy     =   -3.64 kcal/mol
DOCKED: USER        Electrostatic Energy            =   -0.25 kcal/mol
DOCKED: USER    (2) Final Total Internal Energy     =  -12.38 kcal/mol
DOCKED: USER    (3) Torsional Free Energy           =   +7.16 kcal/mol
DOCKED: USER    (4) Unbound System's Energy  [=(2)] =  -12.38 kcal/mol
DOCKED: USER    
DOCKED: USER    
DOCKED: USER    NEWDPF move IHP_ideal_opt.pdbqt
DOCKED: USER    NEWDPF about 0.035000 0.082000 -0.065000
DOCKED: USER    NEWDPF tran0 10.043504 -11.534030 -16.706599
DOCKED: USER    NEWDPF quaternion0 -0.004409 -0.510590 0.491206 -0.705688
DOCKED: USER    NEWDPF axisangle0 -0.006222 -0.720640 0.693282 -90.229749
DOCKED: USER    NEWDPF quat0 -0.006222 -0.720640 0.693282 -90.229749
DOCKED: USER    NEWDPF dihe0 100.41 52.13 31.38 132.85 -53.15 21.04 1.57 -124.26 40.50 106.83 67.90 -141.37 156.94 -63.82 -72.32 110.87 -79.96 108.55 49.02 9.83 -151.97 -13.37 -5.94 -11.44 
DOCKED: USER  keepresnum = 1 
DOCKED: USER  
DOCKED: REMARK  24 active torsions:
DOCKED: REMARK  status: ('A' for Active; 'I' for Inactive)
DOCKED: REMARK    1  A    between atoms: C_1  and  O_7 
DOCKED: REMARK    2  A    between atoms: C_2  and  O_12 
DOCKED: REMARK    3  A    between atoms: C_3  and  O_17 
DOCKED: REMARK    4  A    between atoms: C_4  and  O_22 
DOCKED: REMARK    5  A    between atoms: C_5  and  O_27 
DOCKED: REMARK    6  A    between atoms: C_6  and  O_32 
DOCKED: REMARK    7  A    between atoms: O_7  and  P_8 
DOCKED: REMARK    8  A    between atoms: P_8  and  O_10 
DOCKED: REMARK    9  A    between atoms: P_8  and  O_11 
DOCKED: REMARK   10  A    between atoms: O_12  and  P_13 
DOCKED: REMARK   11  A    between atoms: P_13  and  O_15 
DOCKED: REMARK   12  A    between atoms: P_13  and  O_16 
DOCKED: REMARK   13  A    between atoms: O_17  and  P_18 
DOCKED: REMARK   14  A    between atoms: P_18  and  O_20 
DOCKED: REMARK   15  A    between atoms: P_18  and  O_21 
DOCKED: REMARK   16  A    between atoms: O_22  and  P_23 
DOCKED: REMARK   17  A    between atoms: P_23  and  O_25 
DOCKED: REMARK   18  A    between atoms: P_23  and  O_26 
DOCKED: REMARK   19  A    between atoms: O_27  and  P_28 
DOCKED: REMARK   20  A    between atoms: P_28  and  O_30 
DOCKED: REMARK   21  A    between atoms: P_28  and  O_31 
DOCKED: REMARK   22  A    between atoms: O_32  and  P_33 
DOCKED: REMARK   23  A    between atoms: P_33  and  O_35 
DOCKED: REMARK   24  A    between atoms: P_33  and  O_36 
DOCKED: USER                              x       y       z     vdW  Elec       q    Type
DOCKED: USER                           _______ _______ _______ _____ _____    ______ ____
DOCKED: ROOT
DOCKED: ATOM      1  C   UNL d   1      10.077 -11.511 -14.980 -0.04 +0.03    +0.194 C 
DOCKED: ATOM      2  C   UNL d   1      10.903 -12.615 -15.642 -0.00 +0.01    +0.194 C 
DOCKED: ATOM      3  C   UNL d   1      10.149 -13.269 -16.801 +0.00 +0.03    +0.194 C 
DOCKED: ATOM      4  C   UNL d   1       9.614 -12.261 -17.816 -0.01 +0.05    +0.194 C 
DOCKED: ATOM      5  C   UNL d   1       8.881 -11.081 -17.191 -0.06 +0.10    +0.194 C 
DOCKED: ATOM      6  C   UNL d   1       9.606 -10.466 -15.992 -0.05 +0.06    +0.194 C 
DOCKED: ENDROOT
DOCKED: BRANCH   1   7
DOCKED: ATOM      7  O   UNL d   1      10.909 -10.840 -14.030 -0.05 -0.00    -0.278 OA
DOCKED: BRANCH   7   8
DOCKED: ATOM      8  P   UNL d   1      11.261 -11.592 -12.665 -0.08 -0.07    +0.473 P 
DOCKED: ATOM      9  O   UNL d   1      11.519 -10.699 -11.502 -0.19 +0.04    -0.228 OA
DOCKED: BRANCH   8  10
DOCKED: ATOM     10  O   UNL d   1      10.029 -12.579 -12.438 -0.10 +0.10    -0.303 OA
DOCKED: ATOM     11  H   UNL d   1       9.200 -12.066 -12.410 -0.47 -0.12    +0.222 HD
DOCKED: ENDBRANCH   8  10
DOCKED: BRANCH   8  12
DOCKED: ATOM     12  O   UNL d   1      12.431 -12.600 -13.039 -0.02 +0.03    -0.303 OA
DOCKED: ATOM     13  H   UNL d   1      12.761 -12.483 -13.959 +0.02 -0.01    +0.222 HD
DOCKED: ENDBRANCH   8  12
DOCKED: ENDBRANCH   7   8
DOCKED: ENDBRANCH   1   7
DOCKED: BRANCH   2  14
DOCKED: ATOM     14  O   UNL d   1      12.118 -12.049 -16.149 +0.00 -0.01    -0.278 OA
DOCKED: BRANCH  14  15
DOCKED: ATOM     15  P   UNL d   1      13.440 -12.939 -15.999 +0.00 -0.01    +0.473 P 
DOCKED: ATOM     16  O   UNL d   1      13.322 -14.184 -15.177 +0.00 +0.01    -0.228 OA
DOCKED: BRANCH  15  17
DOCKED: ATOM     17  O   UNL d   1      13.884 -13.230 -17.501 +0.00 +0.00    -0.303 OA
DOCKED: ATOM     18  H   UNL d   1      13.216 -13.768 -17.967 +0.00 +0.00    +0.222 HD
DOCKED: ENDBRANCH  15  17
DOCKED: BRANCH  15  19
DOCKED: ATOM     19  O   UNL d   1      14.559 -11.911 -15.528 -0.00 +0.01    -0.303 OA
DOCKED: ATOM     20  H   UNL d   1      14.435 -11.643 -14.599 +0.01 -0.01    +0.222 HD
DOCKED: ENDBRANCH  15  19
DOCKED: ENDBRANCH  14  15
DOCKED: ENDBRANCH   2  14
DOCKED: BRANCH   6  21
DOCKED: ATOM     21  O   UNL d   1       8.663  -9.631 -15.324 -0.11 -0.14    -0.278 OA
DOCKED: BRANCH  21  22
DOCKED: ATOM     22  P   UNL d   1       8.023 -10.108 -13.942 -0.11 +0.24    +0.473 P 
DOCKED: ATOM     23  O   UNL d   1       7.601 -11.533 -13.815 -0.75 -0.17    -0.228 OA
DOCKED: BRANCH  22  24
DOCKED: ATOM     24  O   UNL d   1       9.127  -9.642 -12.894 -0.15 +0.01    -0.303 OA
DOCKED: ATOM     25  H   UNL d   1       9.463 -10.447 -12.423 -0.47 -0.08    +0.222 HD
DOCKED: ENDBRANCH  22  24
DOCKED: BRANCH  22  26
DOCKED: ATOM     26  O   UNL d   1       6.873  -9.012 -13.721 -0.20 -0.15    -0.303 OA
DOCKED: ATOM     27  H   UNL d   1       6.698  -8.919 -12.762 -0.42 -0.01    +0.222 HD
DOCKED: ENDBRANCH  22  26
DOCKED: ENDBRANCH  21  22
DOCKED: ENDBRANCH   6  21
DOCKED: BRANCH   3  28
DOCKED: ATOM     28  O   UNL d   1      11.078 -14.070 -17.520 +0.00 -0.01    -0.278 OA
DOCKED: BRANCH  28  29
DOCKED: ATOM     29  P   UNL d   1      11.177 -15.635 -17.240 +0.01 -0.00    +0.473 P 
DOCKED: ATOM     30  O   UNL d   1      10.210 -16.481 -17.985 +0.00 -0.00    -0.228 OA
DOCKED: BRANCH  29  31
DOCKED: ATOM     31  O   UNL d   1      12.731 -15.874 -17.537 +0.00 +0.00    -0.303 OA
DOCKED: ATOM     32  H   UNL d   1      13.256 -15.239 -16.996 +0.00 -0.00    +0.222 HD
DOCKED: ENDBRANCH  29  31
DOCKED: BRANCH  29  33
DOCKED: ATOM     33  O   UNL d   1      11.110 -15.694 -15.650 +0.01 +0.01    -0.303 OA
DOCKED: ATOM     34  H   UNL d   1      11.913 -15.255 -15.278 +0.01 -0.01    +0.222 HD
DOCKED: ENDBRANCH  29  33
DOCKED: ENDBRANCH  28  29
DOCKED: ENDBRANCH   3  28
DOCKED: BRANCH   5  35
DOCKED: ATOM     35  O   UNL d   1       8.823 -10.080 -18.205 -0.04 -0.10    -0.278 OA
DOCKED: BRANCH  35  36
DOCKED: ATOM     36  P   UNL d   1       7.420  -9.463 -18.647 -0.06 +0.25    +0.473 P 
DOCKED: ATOM     37  O   UNL d   1       6.267 -10.416 -18.646 -0.29 -0.24    -0.228 OA
DOCKED: BRANCH  36  38
DOCKED: ATOM     38  O   UNL d   1       7.264  -8.247 -17.630 -0.12 -0.15    -0.303 OA
DOCKED: ATOM     39  H   UNL d   1       7.727  -8.467 -16.793 +0.05 +0.12    +0.222 HD
DOCKED: ENDBRANCH  36  38
DOCKED: BRANCH  36  40
DOCKED: ATOM     40  O   UNL d   1       7.776  -8.763 -20.030 -0.03 -0.06    -0.303 OA
DOCKED: ATOM     41  H   UNL d   1       8.040  -9.419 -20.712 +0.03 +0.03    +0.222 HD
DOCKED: ENDBRANCH  36  40
DOCKED: ENDBRANCH  35  36
DOCKED: ENDBRANCH   5  35
DOCKED: BRANCH   4  42
DOCKED: ATOM     42  O   UNL d   1       8.668 -12.958 -18.634 -0.01 -0.08    -0.278 OA
DOCKED: BRANCH  42  43
DOCKED: ATOM     43  P   UNL d   1       8.896 -12.998 -20.212 +0.01 +0.07    +0.473 P 
DOCKED: ATOM     44  O   UNL d   1       8.309 -14.143 -20.962 +0.00 -0.02    -0.228 OA
DOCKED: BRANCH  43  45
DOCKED: ATOM     45  O   UNL d   1       8.364 -11.573 -20.678 -0.00 -0.05    -0.303 OA
DOCKED: ATOM     46  H   UNL d   1       7.968 -11.078 -19.933 +0.02 +0.06    +0.222 HD
DOCKED: ENDBRANCH  43  45
DOCKED: BRANCH  43  47
DOCKED: ATOM     47  O   UNL d   1      10.482 -12.817 -20.358 +0.00 -0.02    -0.303 OA
DOCKED: ATOM     48  H   UNL d   1      10.930 -13.302 -19.635 +0.00 +0.01    +0.222 HD
DOCKED: ENDBRANCH  43  47
DOCKED: ENDBRANCH  42  43
DOCKED: ENDBRANCH   4  42
DOCKED: TORSDOF 24
DOCKED: TER
DOCKED: ENDMDL
________________________________________________________________________________


	BEGINNING GENETIC ALGORITHM DOCKING 57 of 100
Run: 57 Seed: 608331560 1676889443 [ Run 57 of 100 GA/GALS ]
Beginning LAMARCKIAN GENETIC ALGORITHM (LGA), with a maximum of 25000000 energy evaluations.

Final-Value: -16.047


	FINAL GENETIC ALGORITHM DOCKED STATE
	_______________________________________________


Detailed state:  trans -10.323 8.726 0.557 quatxyzw -0.112936 -0.467125 0.330758 0.812182 center 0.035 0.082 -0.065 ntor 24 178.1332 -5.7192 -48.7374 56.6075 -179.7503 -170.0579 -0.2917 -128.1430 11.2458 103.6478 105.5445 -179.9076 19.8447 -18.2745 -179.7726 -46.7400 4.0222 -125.5049 -128.2541 -16.7664 -176.0735 12.6517 153.8033 -6.1572
State:	-10.323   8.726   0.557  -0.194 -0.801  0.567 71.381    178.13   -5.72  -48.74   56.61 -179.75 -170.06   -0.29 -128.14   11.25  103.65  105.54 -179.91   19.84  -18.27 -179.77  -46.74    4.02 -125.50 -128.25  -16.77 -176.07   12.65  153.80   -6.16

DOCKED: MODEL       57
DOCKED: USER    Run = 57
DOCKED: USER    DPF = D:/Protein_go_brrr/autodock/final/mut_N102T/IHP/dock.dpf
DOCKED: USER  
DOCKED: USER    Estimated Free Energy of Binding    =   +3.98 kcal/mol  [=(1)+(2)+(3)-(4)]
DOCKED: USER    
DOCKED: USER    (1) Final Intermolecular Energy     =   -3.17 kcal/mol
DOCKED: USER        vdW + Hbond + desolv Energy     =   -3.08 kcal/mol
DOCKED: USER        Electrostatic Energy            =   -0.09 kcal/mol
DOCKED: USER    (2) Final Total Internal Energy     =  -12.87 kcal/mol
DOCKED: USER    (3) Torsional Free Energy           =   +7.16 kcal/mol
DOCKED: USER    (4) Unbound System's Energy  [=(2)] =  -12.87 kcal/mol
DOCKED: USER    
DOCKED: USER    
DOCKED: USER    NEWDPF move IHP_ideal_opt.pdbqt
DOCKED: USER    NEWDPF about 0.035000 0.082000 -0.065000
DOCKED: USER    NEWDPF tran0 -10.323271 8.725628 0.557497
DOCKED: USER    NEWDPF quaternion0 -0.112936 -0.467125 0.330758 0.812182
DOCKED: USER    NEWDPF axisangle0 -0.193581 -0.800687 0.566944 71.380698
DOCKED: USER    NEWDPF quat0 -0.193581 -0.800687 0.566944 71.380698
DOCKED: USER    NEWDPF dihe0 178.13 -5.72 -48.74 56.61 -179.75 -170.06 -0.29 -128.14 11.25 103.65 105.54 -179.91 19.84 -18.27 -179.77 -46.74 4.02 -125.50 -128.25 -16.77 -176.07 12.65 153.80 -6.16 
DOCKED: USER  keepresnum = 1 
DOCKED: USER  
DOCKED: REMARK  24 active torsions:
DOCKED: REMARK  status: ('A' for Active; 'I' for Inactive)
DOCKED: REMARK    1  A    between atoms: C_1  and  O_7 
DOCKED: REMARK    2  A    between atoms: C_2  and  O_12 
DOCKED: REMARK    3  A    between atoms: C_3  and  O_17 
DOCKED: REMARK    4  A    between atoms: C_4  and  O_22 
DOCKED: REMARK    5  A    between atoms: C_5  and  O_27 
DOCKED: REMARK    6  A    between atoms: C_6  and  O_32 
DOCKED: REMARK    7  A    between atoms: O_7  and  P_8 
DOCKED: REMARK    8  A    between atoms: P_8  and  O_10 
DOCKED: REMARK    9  A    between atoms: P_8  and  O_11 
DOCKED: REMARK   10  A    between atoms: O_12  and  P_13 
DOCKED: REMARK   11  A    between atoms: P_13  and  O_15 
DOCKED: REMARK   12  A    between atoms: P_13  and  O_16 
DOCKED: REMARK   13  A    between atoms: O_17  and  P_18 
DOCKED: REMARK   14  A    between atoms: P_18  and  O_20 
DOCKED: REMARK   15  A    between atoms: P_18  and  O_21 
DOCKED: REMARK   16  A    between atoms: O_22  and  P_23 
DOCKED: REMARK   17  A    between atoms: P_23  and  O_25 
DOCKED: REMARK   18  A    between atoms: P_23  and  O_26 
DOCKED: REMARK   19  A    between atoms: O_27  and  P_28 
DOCKED: REMARK   20  A    between atoms: P_28  and  O_30 
DOCKED: REMARK   21  A    between atoms: P_28  and  O_31 
DOCKED: REMARK   22  A    between atoms: O_32  and  P_33 
DOCKED: REMARK   23  A    between atoms: P_33  and  O_35 
DOCKED: REMARK   24  A    between atoms: P_33  and  O_36 
DOCKED: USER                              x       y       z     vdW  Elec       q    Type
DOCKED: USER                           _______ _______ _______ _____ _____    ______ ____
DOCKED: ROOT
DOCKED: ATOM      1  C   UNL d   1      -9.921   7.124   0.050 -0.11 -0.00    +0.194 C 
DOCKED: ATOM      2  C   UNL d   1     -11.120   7.237   0.993 -0.07 +0.02    +0.194 C 
DOCKED: ATOM      3  C   UNL d   1     -10.852   8.218   2.136 -0.15 +0.00    +0.194 C 
DOCKED: ATOM      4  C   UNL d   1     -10.365   9.582   1.656 -0.12 -0.00    +0.194 C 
DOCKED: ATOM      5  C   UNL d   1      -9.244   9.514   0.627 -0.12 -0.00    +0.194 C 
DOCKED: ATOM      6  C   UNL d   1      -9.485   8.489  -0.484 -0.10 -0.00    +0.194 C 
DOCKED: ENDROOT
DOCKED: BRANCH   1   7
DOCKED: ATOM      7  O   UNL d   1     -10.310   6.332  -1.074 -0.06 -0.01    -0.278 OA
DOCKED: BRANCH   7   8
DOCKED: ATOM      8  P   UNL d   1     -10.490   7.055  -2.487 -0.01 +0.01    +0.473 P 
DOCKED: ATOM      9  O   UNL d   1      -9.225   7.494  -3.137 -0.07 +0.01    -0.228 OA
DOCKED: BRANCH   8  10
DOCKED: ATOM     10  O   UNL d   1     -11.312   6.001  -3.359 -0.01 -0.01    -0.303 OA
DOCKED: ATOM     11  H   UNL d   1     -11.764   5.370  -2.769 +0.03 +0.02    +0.222 HD
DOCKED: ENDBRANCH   8  10
DOCKED: BRANCH   8  12
DOCKED: ATOM     12  O   UNL d   1     -11.571   8.192  -2.234 -0.01 -0.00    -0.303 OA
DOCKED: ATOM     13  H   UNL d   1     -12.384   7.859  -1.791 +0.01 +0.00    +0.222 HD
DOCKED: ENDBRANCH   8  12
DOCKED: ENDBRANCH   7   8
DOCKED: ENDBRANCH   1   7
DOCKED: BRANCH   2  14
DOCKED: ATOM     14  O   UNL d   1     -12.255   7.701   0.251 -0.02 -0.01    -0.278 OA
DOCKED: BRANCH  14  15
DOCKED: ATOM     15  P   UNL d   1     -13.484   6.683   0.111 +0.01 +0.03    +0.473 P 
DOCKED: ATOM     16  O   UNL d   1     -13.787   5.828   1.302 -0.02 -0.02    -0.228 OA
DOCKED: BRANCH  15  17
DOCKED: ATOM     17  O   UNL d   1     -14.708   7.609  -0.313 +0.00 -0.01    -0.303 OA
DOCKED: ATOM     18  H   UNL d   1     -15.542   7.294   0.085 +0.00 +0.00    +0.222 HD
DOCKED: ENDBRANCH  15  17
DOCKED: BRANCH  15  19
DOCKED: ATOM     19  O   UNL d   1     -13.195   5.896  -1.241 +0.00 -0.02    -0.303 OA
DOCKED: ATOM     20  H   UNL d   1     -12.396   6.231  -1.689 +0.02 +0.01    +0.222 HD
DOCKED: ENDBRANCH  15  19
DOCKED: ENDBRANCH  14  15
DOCKED: ENDBRANCH   2  14
DOCKED: BRANCH   6  21
DOCKED: ATOM     21  O   UNL d   1      -8.237   8.299  -1.147 -0.10 +0.00    -0.278 OA
DOCKED: BRANCH  21  22
DOCKED: ATOM     22  P   UNL d   1      -7.149   7.315  -0.521 -0.24 -0.01    +0.473 P 
DOCKED: ATOM     23  O   UNL d   1      -5.707   7.612  -0.762 -0.37 -0.01    -0.228 OA
DOCKED: BRANCH  22  24
DOCKED: ATOM     24  O   UNL d   1      -7.578   7.288   1.012 -0.25 +0.04    -0.303 OA
DOCKED: ATOM     25  H   UNL d   1      -7.887   6.372   1.229 -0.42 -0.11    +0.222 HD
DOCKED: ENDBRANCH  22  24
DOCKED: BRANCH  22  26
DOCKED: ATOM     26  O   UNL d   1      -7.668   5.887  -1.035 -0.30 -0.01    -0.303 OA
DOCKED: ATOM     27  H   UNL d   1      -8.310   6.021  -1.761 +0.10 +0.01    +0.222 HD
DOCKED: ENDBRANCH  22  26
DOCKED: ENDBRANCH  21  22
DOCKED: ENDBRANCH   6  21
DOCKED: BRANCH   3  28
DOCKED: ATOM     28  O   UNL d   1     -12.092   8.467   2.787 -0.08 -0.00    -0.278 OA
DOCKED: BRANCH  28  29
DOCKED: ATOM     29  P   UNL d   1     -12.251   8.192   4.347 -0.11 -0.00    +0.473 P 
DOCKED: ATOM     30  O   UNL d   1     -12.308   6.761   4.742 -0.13 -0.01    -0.228 OA
DOCKED: BRANCH  29  31
DOCKED: ATOM     31  O   UNL d   1     -11.025   9.052   4.909 -0.19 +0.03    -0.303 OA
DOCKED: ATOM     32  H   UNL d   1     -11.081   9.961   4.534 +0.05 -0.01    +0.222 HD
DOCKED: ENDBRANCH  29  31
DOCKED: BRANCH  29  33
DOCKED: ATOM     33  O   UNL d   1     -13.511   9.091   4.718 -0.02 +0.01    -0.303 OA
DOCKED: ATOM     34  H   UNL d   1     -13.258  10.044   4.647 +0.02 -0.01    +0.222 HD
DOCKED: ENDBRANCH  29  33
DOCKED: ENDBRANCH  28  29
DOCKED: ENDBRANCH   3  28
DOCKED: BRANCH   5  35
DOCKED: ATOM     35  O   UNL d   1      -9.206  10.800   0.010 -0.04 -0.01    -0.278 OA
DOCKED: BRANCH  35  36
DOCKED: ATOM     36  P   UNL d   1     -10.316  11.212  -1.060 -0.01 +0.00    +0.473 P 
DOCKED: ATOM     37  O   UNL d   1     -11.731  10.950  -0.654 -0.01 -0.00    -0.228 OA
DOCKED: BRANCH  36  38
DOCKED: ATOM     38  O   UNL d   1      -9.978  12.749  -1.304 -0.00 -0.01    -0.303 OA
DOCKED: ATOM     39  H   UNL d   1     -10.040  13.231  -0.451 +0.01 +0.00    +0.222 HD
DOCKED: ENDBRANCH  36  38
DOCKED: BRANCH  36  40
DOCKED: ATOM     40  O   UNL d   1      -9.798  10.492  -2.380 -0.02 -0.00    -0.303 OA
DOCKED: ATOM     41  H   UNL d   1      -9.772   9.515  -2.276 +0.03 +0.00    +0.222 HD
DOCKED: ENDBRANCH  36  40
DOCKED: ENDBRANCH  35  36
DOCKED: ENDBRANCH   5  35
DOCKED: BRANCH   4  42
DOCKED: ATOM     42  O   UNL d   1      -9.842  10.263   2.802 -0.05 +0.00    -0.278 OA
DOCKED: BRANCH  42  43
DOCKED: ATOM     43  P   UNL d   1     -10.540  11.615   3.281 -0.06 -0.01    +0.473 P 
DOCKED: ATOM     44  O   UNL d   1     -10.198  12.863   2.543 -0.04 +0.00    -0.228 OA
DOCKED: BRANCH  43  45
DOCKED: ATOM     45  O   UNL d   1     -12.086  11.241   3.246 -0.02 +0.01    -0.303 OA
DOCKED: ATOM     46  H   UNL d   1     -12.232  10.298   3.463 +0.03 -0.01    +0.222 HD
DOCKED: ENDBRANCH  43  45
DOCKED: BRANCH  43  47
DOCKED: ATOM     47  O   UNL d   1     -10.246  11.641   4.857 -0.11 +0.02    -0.303 OA
DOCKED: ATOM     48  H   UNL d   1      -9.745  10.837   5.105 +0.03 -0.02    +0.222 HD
DOCKED: ENDBRANCH  43  47
DOCKED: ENDBRANCH  42  43
DOCKED: ENDBRANCH   4  42
DOCKED: TORSDOF 24
DOCKED: TER
DOCKED: ENDMDL
________________________________________________________________________________


	BEGINNING GENETIC ALGORITHM DOCKING 58 of 100
Run: 58 Seed: 2031791012 1301786107 [ Run 58 of 100 GA/GALS ]
Beginning LAMARCKIAN GENETIC ALGORITHM (LGA), with a maximum of 25000000 energy evaluations.

Final-Value: -16.501


	FINAL GENETIC ALGORITHM DOCKED STATE
	_______________________________________________


Detailed state:  trans -13.499 4.956 11.911 quatxyzw -0.213212 -0.334749 -0.553245 0.732396 center 0.035 0.082 -0.065 ntor 24 145.3495 -83.3904 124.5745 59.7157 -10.9097 -46.2490 -95.7527 -25.2008 1.7707 59.2265 0.9709 157.0084 -76.9682 -127.5945 -76.8886 33.2394 -40.0432 -151.1087 33.1995 -0.9708 12.1623 24.1113 177.0908 -11.6350
State:	-13.499   4.956  11.911  -0.313 -0.492 -0.813 85.825    145.35  -83.39  124.57   59.72  -10.91  -46.25  -95.75  -25.20    1.77   59.23    0.97  157.01  -76.97 -127.59  -76.89   33.24  -40.04 -151.11   33.20   -0.97   12.16   24.11  177.09  -11.64

DOCKED: MODEL       58
DOCKED: USER    Run = 58
DOCKED: USER    DPF = D:/Protein_go_brrr/autodock/final/mut_N102T/IHP/dock.dpf
DOCKED: USER  
DOCKED: USER    Estimated Free Energy of Binding    =   +3.10 kcal/mol  [=(1)+(2)+(3)-(4)]
DOCKED: USER    
DOCKED: USER    (1) Final Intermolecular Energy     =   -4.06 kcal/mol
DOCKED: USER        vdW + Hbond + desolv Energy     =   -3.98 kcal/mol
DOCKED: USER        Electrostatic Energy            =   -0.09 kcal/mol
DOCKED: USER    (2) Final Total Internal Energy     =  -12.44 kcal/mol
DOCKED: USER    (3) Torsional Free Energy           =   +7.16 kcal/mol
DOCKED: USER    (4) Unbound System's Energy  [=(2)] =  -12.44 kcal/mol
DOCKED: USER    
DOCKED: USER    
DOCKED: USER    NEWDPF move IHP_ideal_opt.pdbqt
DOCKED: USER    NEWDPF about 0.035000 0.082000 -0.065000
DOCKED: USER    NEWDPF tran0 -13.499294 4.956250 11.910918
DOCKED: USER    NEWDPF quaternion0 -0.213212 -0.334749 -0.553245 0.732396
DOCKED: USER    NEWDPF axisangle0 -0.313143 -0.491642 -0.812545 85.824762
DOCKED: USER    NEWDPF quat0 -0.313143 -0.491642 -0.812545 85.824762
DOCKED: USER    NEWDPF dihe0 145.35 -83.39 124.57 59.72 -10.91 -46.25 -95.75 -25.20 1.77 59.23 0.97 157.01 -76.97 -127.59 -76.89 33.24 -40.04 -151.11 33.20 -0.97 12.16 24.11 177.09 -11.64 
DOCKED: USER  keepresnum = 1 
DOCKED: USER  
DOCKED: REMARK  24 active torsions:
DOCKED: REMARK  status: ('A' for Active; 'I' for Inactive)
DOCKED: REMARK    1  A    between atoms: C_1  and  O_7 
DOCKED: REMARK    2  A    between atoms: C_2  and  O_12 
DOCKED: REMARK    3  A    between atoms: C_3  and  O_17 
DOCKED: REMARK    4  A    between atoms: C_4  and  O_22 
DOCKED: REMARK    5  A    between atoms: C_5  and  O_27 
DOCKED: REMARK    6  A    between atoms: C_6  and  O_32 
DOCKED: REMARK    7  A    between atoms: O_7  and  P_8 
DOCKED: REMARK    8  A    between atoms: P_8  and  O_10 
DOCKED: REMARK    9  A    between atoms: P_8  and  O_11 
DOCKED: REMARK   10  A    between atoms: O_12  and  P_13 
DOCKED: REMARK   11  A    between atoms: P_13  and  O_15 
DOCKED: REMARK   12  A    between atoms: P_13  and  O_16 
DOCKED: REMARK   13  A    between atoms: O_17  and  P_18 
DOCKED: REMARK   14  A    between atoms: P_18  and  O_20 
DOCKED: REMARK   15  A    between atoms: P_18  and  O_21 
DOCKED: REMARK   16  A    between atoms: O_22  and  P_23 
DOCKED: REMARK   17  A    between atoms: P_23  and  O_25 
DOCKED: REMARK   18  A    between atoms: P_23  and  O_26 
DOCKED: REMARK   19  A    between atoms: O_27  and  P_28 
DOCKED: REMARK   20  A    between atoms: P_28  and  O_30 
DOCKED: REMARK   21  A    between atoms: P_28  and  O_31 
DOCKED: REMARK   22  A    between atoms: O_32  and  P_33 
DOCKED: REMARK   23  A    between atoms: P_33  and  O_35 
DOCKED: REMARK   24  A    between atoms: P_33  and  O_36 
DOCKED: USER                              x       y       z     vdW  Elec       q    Type
DOCKED: USER                           _______ _______ _______ _____ _____    ______ ____
DOCKED: ROOT
DOCKED: ATOM      1  C   UNL d   1     -12.127   5.933  11.528 -0.13 -0.00    +0.194 C 
DOCKED: ATOM      2  C   UNL d   1     -12.062   4.483  11.044 -0.10 -0.01    +0.194 C 
DOCKED: ATOM      3  C   UNL d   1     -12.557   3.506  12.112 -0.13 -0.00    +0.194 C 
DOCKED: ATOM      4  C   UNL d   1     -13.932   3.869  12.668 -0.03 -0.00    +0.194 C 
DOCKED: ATOM      5  C   UNL d   1     -14.078   5.334  13.057 -0.02 -0.00    +0.194 C 
DOCKED: ATOM      6  C   UNL d   1     -13.527   6.310  12.015 -0.03 -0.00    +0.194 C 
DOCKED: ENDROOT
DOCKED: BRANCH   1   7
DOCKED: ATOM      7  O   UNL d   1     -11.816   6.786  10.424 -0.11 +0.00    -0.278 OA
DOCKED: BRANCH   7   8
DOCKED: ATOM      8  P   UNL d   1     -10.287   7.173  10.170 -0.28 +0.00    +0.473 P 
DOCKED: ATOM      9  O   UNL d   1      -9.415   7.120  11.374 -0.78 -0.04    -0.228 OA
DOCKED: BRANCH   8  10
DOCKED: ATOM     10  O   UNL d   1      -9.823   6.175   9.014 -0.34 -0.01    -0.303 OA
DOCKED: ATOM     11  H   UNL d   1     -10.491   5.475   8.899 +0.11 +0.01    +0.222 HD
DOCKED: ENDBRANCH   8  10
DOCKED: BRANCH   8  12
DOCKED: ATOM     12  O   UNL d   1     -10.334   8.566   9.408 -0.25 +0.04    -0.303 OA
DOCKED: ATOM     13  H   UNL d   1      -9.799   8.572   8.582 -0.47 -0.09    +0.222 HD
DOCKED: ENDBRANCH   8  12
DOCKED: ENDBRANCH   7   8
DOCKED: ENDBRANCH   1   7
DOCKED: BRANCH   2  14
DOCKED: ATOM     14  O   UNL d   1     -12.887   4.342   9.880 -0.09 +0.01    -0.278 OA
DOCKED: BRANCH  14  15
DOCKED: ATOM     15  P   UNL d   1     -12.222   3.618   8.616 -0.13 -0.02    +0.473 P 
DOCKED: ATOM     16  O   UNL d   1     -11.182   4.391   7.868 -0.63 -0.01    -0.228 OA
DOCKED: BRANCH  15  17
DOCKED: ATOM     17  O   UNL d   1     -11.668   2.245   9.203 -0.19 +0.04    -0.303 OA
DOCKED: ATOM     18  H   UNL d   1     -12.201   1.948   9.966 +0.07 -0.03    +0.222 HD
DOCKED: ENDBRANCH  15  17
DOCKED: BRANCH  15  19
DOCKED: ATOM     19  O   UNL d   1     -13.460   3.118   7.750 -0.04 +0.02    -0.303 OA
DOCKED: ATOM     20  H   UNL d   1     -14.309   3.355   8.165 +0.03 -0.01    +0.222 HD
DOCKED: ENDBRANCH  15  19
DOCKED: ENDBRANCH  14  15
DOCKED: ENDBRANCH   2  14
DOCKED: BRANCH   6  21
DOCKED: ATOM     21  O   UNL d   1     -13.419   7.579  12.655 -0.01 +0.01    -0.278 OA
DOCKED: BRANCH  21  22
DOCKED: ATOM     22  P   UNL d   1     -14.649   8.594  12.611 +0.00 -0.01    +0.473 P 
DOCKED: ATOM     23  O   UNL d   1     -15.326   8.825  11.303 -0.00 +0.01    -0.228 OA
DOCKED: BRANCH  22  24
DOCKED: ATOM     24  O   UNL d   1     -15.590   8.015  13.757 -0.00 +0.01    -0.303 OA
DOCKED: ATOM     25  H   UNL d   1     -16.052   7.214  13.400 +0.00 -0.01    +0.222 HD
DOCKED: ENDBRANCH  22  24
DOCKED: BRANCH  22  26
DOCKED: ATOM     26  O   UNL d   1     -14.026   9.891  13.319 -0.00 +0.01    -0.303 OA
DOCKED: ATOM     27  H   UNL d   1     -14.328  10.693  12.845 +0.00 -0.01    +0.222 HD
DOCKED: ENDBRANCH  22  26
DOCKED: ENDBRANCH  21  22
DOCKED: ENDBRANCH   6  21
DOCKED: BRANCH   3  28
DOCKED: ATOM     28  O   UNL d   1     -12.724   2.239  11.490 -0.10 +0.02    -0.278 OA
DOCKED: BRANCH  28  29
DOCKED: ATOM     29  P   UNL d   1     -12.187   0.918  12.199 -0.10 -0.03    +0.473 P 
DOCKED: ATOM     30  O   UNL d   1     -11.677   1.095  13.583 -0.11 -0.01    -0.228 OA
DOCKED: BRANCH  29  31
DOCKED: ATOM     31  O   UNL d   1     -13.457  -0.037  12.009 -0.01 +0.03    -0.303 OA
DOCKED: ATOM     32  H   UNL d   1     -14.270   0.477  12.223 +0.02 -0.02    +0.222 HD
DOCKED: ENDBRANCH  29  31
DOCKED: BRANCH  29  33
DOCKED: ATOM     33  O   UNL d   1     -11.160   0.354  11.121 -0.22 +0.05    -0.303 OA
DOCKED: ATOM     34  H   UNL d   1     -10.729   1.115  10.659 +0.08 -0.04    +0.222 HD
DOCKED: ENDBRANCH  29  33
DOCKED: ENDBRANCH  28  29
DOCKED: ENDBRANCH   3  28
DOCKED: BRANCH   5  35
DOCKED: ATOM     35  O   UNL d   1     -15.481   5.572  13.154 -0.00 +0.01    -0.278 OA
DOCKED: BRANCH  35  36
DOCKED: ATOM     36  P   UNL d   1     -16.448   5.181  11.947 +0.00 -0.02    +0.473 P 
DOCKED: ATOM     37  O   UNL d   1     -15.795   4.478  10.799 -0.00 +0.01    -0.228 OA
DOCKED: BRANCH  36  38
DOCKED: ATOM     38  O   UNL d   1     -17.565   4.323  12.689 +0.00 +0.01    -0.303 OA
DOCKED: ATOM     39  H   UNL d   1     -17.169   3.481  13.001 +0.00 -0.01    +0.222 HD
DOCKED: ENDBRANCH  36  38
DOCKED: BRANCH  36  40
DOCKED: ATOM     40  O   UNL d   1     -17.172   6.561  11.631 +0.00 +0.01    -0.303 OA
DOCKED: ATOM     41  H   UNL d   1     -16.685   7.324  12.014 +0.00 -0.01    +0.222 HD
DOCKED: ENDBRANCH  36  40
DOCKED: ENDBRANCH  35  36
DOCKED: ENDBRANCH   5  35
DOCKED: BRANCH   4  42
DOCKED: ATOM     42  O   UNL d   1     -14.115   3.097  13.860 -0.01 +0.00    -0.278 OA
DOCKED: BRANCH  42  43
DOCKED: ATOM     43  P   UNL d   1     -15.378   2.128  13.965 +0.00 -0.02    +0.473 P 
DOCKED: ATOM     44  O   UNL d   1     -16.503   2.560  14.841 +0.00 +0.01    -0.228 OA
DOCKED: BRANCH  43  45
DOCKED: ATOM     45  O   UNL d   1     -15.783   1.916  12.441 -0.00 +0.02    -0.303 OA
DOCKED: ATOM     46  H   UNL d   1     -16.187   2.722  12.063 +0.00 -0.01    +0.222 HD
DOCKED: ENDBRANCH  43  45
DOCKED: BRANCH  43  47
DOCKED: ATOM     47  O   UNL d   1     -14.723   0.711  14.329 +0.00 +0.01    -0.303 OA
DOCKED: ATOM     48  H   UNL d   1     -13.792   0.697  14.023 +0.02 -0.00    +0.222 HD
DOCKED: ENDBRANCH  43  47
DOCKED: ENDBRANCH  42  43
DOCKED: ENDBRANCH   4  42
DOCKED: TORSDOF 24
DOCKED: TER
DOCKED: ENDMDL
________________________________________________________________________________


	BEGINNING GENETIC ALGORITHM DOCKING 59 of 100
Run: 59 Seed: 1944045860 324496582 [ Run 59 of 100 GA/GALS ]
Beginning LAMARCKIAN GENETIC ALGORITHM (LGA), with a maximum of 25000000 energy evaluations.

Final-Value: -17.871


	FINAL GENETIC ALGORITHM DOCKED STATE
	_______________________________________________


Detailed state:  trans 8.422 14.198 -9.762 quatxyzw 0.192309 -0.227563 -0.415467 -0.859430 center 0.035 0.082 -0.065 ntor 24 110.0705 10.9554 32.8746 131.0700 58.9166 -147.4217 6.7307 45.1408 137.0584 -34.4565 132.9893 164.6635 32.0379 -0.3602 -4.5264 137.4629 -159.6754 177.8181 6.9928 -30.4920 -22.3642 -176.2814 13.0387 -14.4766
State:	  8.422  14.198  -9.762   0.376 -0.445 -0.813 -61.495    110.07   10.96   32.87  131.07   58.92 -147.42    6.73   45.14  137.06  -34.46  132.99  164.66   32.04   -0.36   -4.53  137.46 -159.68  177.82    6.99  -30.49  -22.36 -176.28   13.04  -14.48

DOCKED: MODEL       59
DOCKED: USER    Run = 59
DOCKED: USER    DPF = D:/Protein_go_brrr/autodock/final/mut_N102T/IHP/dock.dpf
DOCKED: USER  
DOCKED: USER    Estimated Free Energy of Binding    =   +1.23 kcal/mol  [=(1)+(2)+(3)-(4)]
DOCKED: USER    
DOCKED: USER    (1) Final Intermolecular Energy     =   -5.93 kcal/mol
DOCKED: USER        vdW + Hbond + desolv Energy     =   -5.46 kcal/mol
DOCKED: USER        Electrostatic Energy            =   -0.47 kcal/mol
DOCKED: USER    (2) Final Total Internal Energy     =  -11.94 kcal/mol
DOCKED: USER    (3) Torsional Free Energy           =   +7.16 kcal/mol
DOCKED: USER    (4) Unbound System's Energy  [=(2)] =  -11.94 kcal/mol
DOCKED: USER    
DOCKED: USER    
DOCKED: USER    NEWDPF move IHP_ideal_opt.pdbqt
DOCKED: USER    NEWDPF about 0.035000 0.082000 -0.065000
DOCKED: USER    NEWDPF tran0 8.421866 14.198094 -9.762311
DOCKED: USER    NEWDPF quaternion0 0.192309 -0.227563 -0.415467 -0.859430
DOCKED: USER    NEWDPF axisangle0 0.376151 -0.445108 -0.812643 -61.494792
DOCKED: USER    NEWDPF quat0 0.376151 -0.445108 -0.812643 -61.494792
DOCKED: USER    NEWDPF dihe0 110.07 10.96 32.87 131.07 58.92 -147.42 6.73 45.14 137.06 -34.46 132.99 164.66 32.04 -0.36 -4.53 137.46 -159.68 177.82 6.99 -30.49 -22.36 -176.28 13.04 -14.48 
DOCKED: USER  keepresnum = 1 
DOCKED: USER  
DOCKED: REMARK  24 active torsions:
DOCKED: REMARK  status: ('A' for Active; 'I' for Inactive)
DOCKED: REMARK    1  A    between atoms: C_1  and  O_7 
DOCKED: REMARK    2  A    between atoms: C_2  and  O_12 
DOCKED: REMARK    3  A    between atoms: C_3  and  O_17 
DOCKED: REMARK    4  A    between atoms: C_4  and  O_22 
DOCKED: REMARK    5  A    between atoms: C_5  and  O_27 
DOCKED: REMARK    6  A    between atoms: C_6  and  O_32 
DOCKED: REMARK    7  A    between atoms: O_7  and  P_8 
DOCKED: REMARK    8  A    between atoms: P_8  and  O_10 
DOCKED: REMARK    9  A    between atoms: P_8  and  O_11 
DOCKED: REMARK   10  A    between atoms: O_12  and  P_13 
DOCKED: REMARK   11  A    between atoms: P_13  and  O_15 
DOCKED: REMARK   12  A    between atoms: P_13  and  O_16 
DOCKED: REMARK   13  A    between atoms: O_17  and  P_18 
DOCKED: REMARK   14  A    between atoms: P_18  and  O_20 
DOCKED: REMARK   15  A    between atoms: P_18  and  O_21 
DOCKED: REMARK   16  A    between atoms: O_22  and  P_23 
DOCKED: REMARK   17  A    between atoms: P_23  and  O_25 
DOCKED: REMARK   18  A    between atoms: P_23  and  O_26 
DOCKED: REMARK   19  A    between atoms: O_27  and  P_28 
DOCKED: REMARK   20  A    between atoms: P_28  and  O_30 
DOCKED: REMARK   21  A    between atoms: P_28  and  O_31 
DOCKED: REMARK   22  A    between atoms: O_32  and  P_33 
DOCKED: REMARK   23  A    between atoms: P_33  and  O_35 
DOCKED: REMARK   24  A    between atoms: P_33  and  O_36 
DOCKED: USER                              x       y       z     vdW  Elec       q    Type
DOCKED: USER                           _______ _______ _______ _____ _____    ______ ____
DOCKED: ROOT
DOCKED: ATOM      1  C   UNL d   1       8.120  12.566  -9.283 -0.19 -0.08    +0.194 C 
DOCKED: ATOM      2  C   UNL d   1       7.132  13.152 -10.293 -0.21 -0.07    +0.194 C 
DOCKED: ATOM      3  C   UNL d   1       6.733  14.584  -9.930 -0.16 -0.08    +0.194 C 
DOCKED: ATOM      4  C   UNL d   1       7.930  15.501  -9.696 -0.03 -0.07    +0.194 C 
DOCKED: ATOM      5  C   UNL d   1       8.997  14.908  -8.784 -0.06 -0.10    +0.194 C 
DOCKED: ATOM      6  C   UNL d   1       9.352  13.456  -9.109 -0.10 -0.10    +0.194 C 
DOCKED: ENDROOT
DOCKED: BRANCH   1   7
DOCKED: ATOM      7  O   UNL d   1       8.573  11.305  -9.782 -0.22 +0.09    -0.278 OA
DOCKED: BRANCH   7   8
DOCKED: ATOM      8  P   UNL d   1       8.207   9.987  -8.957 -0.35 -0.13    +0.473 P 
DOCKED: ATOM      9  O   UNL d   1       6.859   9.422  -9.236 -0.41 +0.05    -0.228 OA
DOCKED: BRANCH   8  10
DOCKED: ATOM     10  O   UNL d   1       9.394   8.976  -9.296 -0.67 +0.05    -0.303 OA
DOCKED: ATOM     11  H   UNL d   1       9.545   8.961 -10.259 -0.43 -0.14    +0.222 HD
DOCKED: ENDBRANCH   8  10
DOCKED: BRANCH   8  12
DOCKED: ATOM     12  O   UNL d   1       8.505  10.353  -7.440 -0.52 +0.18    -0.303 OA
DOCKED: ATOM     13  H   UNL d   1       9.271  10.961  -7.333 +0.04 -0.23    +0.222 HD
DOCKED: ENDBRANCH   8  12
DOCKED: ENDBRANCH   7   8
DOCKED: ENDBRANCH   1   7
DOCKED: BRANCH   2  14
DOCKED: ATOM     14  O   UNL d   1       7.741  13.163 -11.590 -0.09 +0.09    -0.278 OA
DOCKED: BRANCH  14  15
DOCKED: ATOM     15  P   UNL d   1       7.309  11.992 -12.594 -0.15 -0.17    +0.473 P 
DOCKED: ATOM     16  O   UNL d   1       5.844  11.841 -12.860 -0.23 +0.13    -0.228 OA
DOCKED: BRANCH  15  17
DOCKED: ATOM     17  O   UNL d   1       8.149  12.284 -13.916 -0.07 +0.09    -0.303 OA
DOCKED: ATOM     18  H   UNL d   1       7.902  13.144 -14.306 +0.06 -0.07    +0.222 HD
DOCKED: ENDBRANCH  15  17
DOCKED: BRANCH  15  19
DOCKED: ATOM     19  O   UNL d   1       8.040  10.696 -12.031 -0.18 +0.09    -0.303 OA
DOCKED: ATOM     20  H   UNL d   1       7.639  10.390 -11.196 +0.13 -0.06    +0.222 HD
DOCKED: ENDBRANCH  15  19
DOCKED: ENDBRANCH  14  15
DOCKED: ENDBRANCH   2  14
DOCKED: BRANCH   6  21
DOCKED: ATOM     21  O   UNL d   1      10.079  12.949  -7.992 -0.14 +0.29    -0.278 OA
DOCKED: BRANCH  21  22
DOCKED: ATOM     22  P   UNL d   1      11.526  12.315  -8.210 -0.07 -0.31    +0.473 P 
DOCKED: ATOM     23  O   UNL d   1      12.320  12.762  -9.391 -0.03 +0.07    -0.228 OA
DOCKED: BRANCH  22  24
DOCKED: ATOM     24  O   UNL d   1      12.216  12.585  -6.802 -0.50 +0.32    -0.303 OA
DOCKED: ATOM     25  H   UNL d   1      11.607  13.153  -6.264 -0.48 -0.46    +0.222 HD
DOCKED: ENDBRANCH  22  24
DOCKED: BRANCH  22  26
DOCKED: ATOM     26  O   UNL d   1      11.210  10.746  -8.129 -0.16 +0.13    -0.303 OA
DOCKED: ATOM     27  H   UNL d   1      10.355  10.566  -8.572 +0.11 -0.09    +0.222 HD
DOCKED: ENDBRANCH  22  26
DOCKED: ENDBRANCH  21  22
DOCKED: ENDBRANCH   6  21
DOCKED: BRANCH   3  28
DOCKED: ATOM     28  O   UNL d   1       6.049  15.134 -11.049 -0.10 +0.10    -0.278 OA
DOCKED: BRANCH  28  29
DOCKED: ATOM     29  P   UNL d   1       6.818  15.378 -12.422 -0.02 -0.12    +0.473 P 
DOCKED: ATOM     30  O   UNL d   1       6.407  14.504 -13.551 -0.07 +0.07    -0.228 OA
DOCKED: BRANCH  29  31
DOCKED: ATOM     31  O   UNL d   1       6.583  16.951 -12.598 -0.01 +0.05    -0.303 OA
DOCKED: ATOM     32  H   UNL d   1       6.954  17.414 -11.812 +0.01 -0.04    +0.222 HD
DOCKED: ENDBRANCH  29  31
DOCKED: BRANCH  29  33
DOCKED: ATOM     33  O   UNL d   1       8.343  15.299 -11.969 -0.01 +0.07    -0.303 OA
DOCKED: ATOM     34  H   UNL d   1       8.717  14.429 -12.253 +0.03 -0.05    +0.222 HD
DOCKED: ENDBRANCH  29  33
DOCKED: ENDBRANCH  28  29
DOCKED: ENDBRANCH   3  28
DOCKED: BRANCH   5  35
DOCKED: ATOM     35  O   UNL d   1      10.171  15.687  -9.006 -0.01 +0.11    -0.278 OA
DOCKED: BRANCH  35  36
DOCKED: ATOM     36  P   UNL d   1      11.157  16.017  -7.796 -0.01 -0.22    +0.473 P 
DOCKED: ATOM     37  O   UNL d   1      11.267  17.464  -7.430 -0.00 +0.07    -0.228 OA
DOCKED: BRANCH  36  38
DOCKED: ATOM     38  O   UNL d   1      10.574  15.092  -6.638 -0.09 +0.35    -0.303 OA
DOCKED: ATOM     39  H   UNL d   1      10.716  14.151  -6.877 -0.14 -0.33    +0.222 HD
DOCKED: ENDBRANCH  36  38
DOCKED: BRANCH  36  40
DOCKED: ATOM     40  O   UNL d   1      12.496  15.281  -8.237 -0.00 +0.11    -0.303 OA
DOCKED: ATOM     41  H   UNL d   1      12.437  14.308  -8.104 +0.03 -0.10    +0.222 HD
DOCKED: ENDBRANCH  36  40
DOCKED: ENDBRANCH  35  36
DOCKED: ENDBRANCH   5  35
DOCKED: BRANCH   4  42
DOCKED: ATOM     42  O   UNL d   1       7.431  16.677  -9.051 -0.01 +0.09    -0.278 OA
DOCKED: BRANCH  42  43
DOCKED: ATOM     43  P   UNL d   1       7.743  18.102  -9.697 +0.01 -0.09    +0.473 P 
DOCKED: ATOM     44  O   UNL d   1       8.157  19.198  -8.777 +0.00 +0.04    -0.228 OA
DOCKED: BRANCH  43  45
DOCKED: ATOM     45  O   UNL d   1       8.818  17.750 -10.817 +0.00 +0.05    -0.303 OA
DOCKED: ATOM     46  H   UNL d   1       8.458  17.121 -11.473 +0.01 -0.04    +0.222 HD
DOCKED: ENDBRANCH  43  45
DOCKED: BRANCH  43  47
DOCKED: ATOM     47  O   UNL d   1       6.437  18.397 -10.580 -0.00 +0.05    -0.303 OA
DOCKED: ATOM     48  H   UNL d   1       5.939  17.563 -10.708 +0.03 -0.04    +0.222 HD
DOCKED: ENDBRANCH  43  47
DOCKED: ENDBRANCH  42  43
DOCKED: ENDBRANCH   4  42
DOCKED: TORSDOF 24
DOCKED: TER
DOCKED: ENDMDL
________________________________________________________________________________


	BEGINNING GENETIC ALGORITHM DOCKING 60 of 100
Run: 60 Seed: 1344084014 1500529731 [ Run 60 of 100 GA/GALS ]
Beginning LAMARCKIAN GENETIC ALGORITHM (LGA), with a maximum of 25000000 energy evaluations.

Final-Value: -18.875


	FINAL GENETIC ALGORITHM DOCKED STATE
	_______________________________________________


Detailed state:  trans -4.741 -17.102 12.316 quatxyzw -0.058525 -0.236066 0.873968 0.420746 center 0.035 0.082 -0.065 ntor 24 44.7459 159.7407 -167.2517 -25.8297 100.2053 -156.7869 -117.5665 -50.7442 156.2712 -47.0704 80.9328 129.8180 -23.0578 172.2223 118.0281 -164.0826 -152.1376 31.6084 -166.4386 25.5810 -10.7760 18.7171 6.4847 -175.8063
State:	 -4.741 -17.102  12.316  -0.065 -0.260  0.963 130.237     44.75  159.74 -167.25  -25.83  100.21 -156.79 -117.57  -50.74  156.27  -47.07   80.93  129.82  -23.06  172.22  118.03 -164.08 -152.14   31.61 -166.44   25.58  -10.78   18.72    6.48 -175.81

DOCKED: MODEL       60
DOCKED: USER    Run = 60
DOCKED: USER    DPF = D:/Protein_go_brrr/autodock/final/mut_N102T/IHP/dock.dpf
DOCKED: USER  
DOCKED: USER    Estimated Free Energy of Binding    =   +2.14 kcal/mol  [=(1)+(2)+(3)-(4)]
DOCKED: USER    
DOCKED: USER    (1) Final Intermolecular Energy     =   -5.02 kcal/mol
DOCKED: USER        vdW + Hbond + desolv Energy     =   -4.77 kcal/mol
DOCKED: USER        Electrostatic Energy            =   -0.25 kcal/mol
DOCKED: USER    (2) Final Total Internal Energy     =  -13.85 kcal/mol
DOCKED: USER    (3) Torsional Free Energy           =   +7.16 kcal/mol
DOCKED: USER    (4) Unbound System's Energy  [=(2)] =  -13.85 kcal/mol
DOCKED: USER    
DOCKED: USER    
DOCKED: USER    NEWDPF move IHP_ideal_opt.pdbqt
DOCKED: USER    NEWDPF about 0.035000 0.082000 -0.065000
DOCKED: USER    NEWDPF tran0 -4.740863 -17.102293 12.315578
DOCKED: USER    NEWDPF quaternion0 -0.058525 -0.236066 0.873968 0.420746
DOCKED: USER    NEWDPF axisangle0 -0.064513 -0.260220 0.963392 130.236609
DOCKED: USER    NEWDPF quat0 -0.064513 -0.260220 0.963392 130.236609
DOCKED: USER    NEWDPF dihe0 44.75 159.74 -167.25 -25.83 100.21 -156.79 -117.57 -50.74 156.27 -47.07 80.93 129.82 -23.06 172.22 118.03 -164.08 -152.14 31.61 -166.44 25.58 -10.78 18.72 6.48 -175.81 
DOCKED: USER  keepresnum = 1 
DOCKED: USER  
DOCKED: REMARK  24 active torsions:
DOCKED: REMARK  status: ('A' for Active; 'I' for Inactive)
DOCKED: REMARK    1  A    between atoms: C_1  and  O_7 
DOCKED: REMARK    2  A    between atoms: C_2  and  O_12 
DOCKED: REMARK    3  A    between atoms: C_3  and  O_17 
DOCKED: REMARK    4  A    between atoms: C_4  and  O_22 
DOCKED: REMARK    5  A    between atoms: C_5  and  O_27 
DOCKED: REMARK    6  A    between atoms: C_6  and  O_32 
DOCKED: REMARK    7  A    between atoms: O_7  and  P_8 
DOCKED: REMARK    8  A    between atoms: P_8  and  O_10 
DOCKED: REMARK    9  A    between atoms: P_8  and  O_11 
DOCKED: REMARK   10  A    between atoms: O_12  and  P_13 
DOCKED: REMARK   11  A    between atoms: P_13  and  O_15 
DOCKED: REMARK   12  A    between atoms: P_13  and  O_16 
DOCKED: REMARK   13  A    between atoms: O_17  and  P_18 
DOCKED: REMARK   14  A    between atoms: P_18  and  O_20 
DOCKED: REMARK   15  A    between atoms: P_18  and  O_21 
DOCKED: REMARK   16  A    between atoms: O_22  and  P_23 
DOCKED: REMARK   17  A    between atoms: P_23  and  O_25 
DOCKED: REMARK   18  A    between atoms: P_23  and  O_26 
DOCKED: REMARK   19  A    between atoms: O_27  and  P_28 
DOCKED: REMARK   20  A    between atoms: P_28  and  O_30 
DOCKED: REMARK   21  A    between atoms: P_28  and  O_31 
DOCKED: REMARK   22  A    between atoms: O_32  and  P_33 
DOCKED: REMARK   23  A    between atoms: P_33  and  O_35 
DOCKED: REMARK   24  A    between atoms: P_33  and  O_36 
DOCKED: USER                              x       y       z     vdW  Elec       q    Type
DOCKED: USER                           _______ _______ _______ _____ _____    ______ ____
DOCKED: ROOT
DOCKED: ATOM      1  C   UNL d   1      -6.143 -17.880  12.959 -0.06 -0.08    +0.194 C 
DOCKED: ATOM      2  C   UNL d   1      -5.995 -16.396  13.301 -0.09 -0.08    +0.194 C 
DOCKED: ATOM      3  C   UNL d   1      -4.556 -16.045  13.686 -0.11 -0.09    +0.194 C 
DOCKED: ATOM      4  C   UNL d   1      -3.528 -16.505  12.656 -0.10 -0.15    +0.194 C 
DOCKED: ATOM      5  C   UNL d   1      -3.709 -17.947  12.199 -0.13 -0.12    +0.194 C 
DOCKED: ATOM      6  C   UNL d   1      -5.158 -18.316  11.873 -0.12 -0.11    +0.194 C 
DOCKED: ENDROOT
DOCKED: BRANCH   1   7
DOCKED: ATOM      7  O   UNL d   1      -7.461 -18.090  12.447 -0.05 +0.13    -0.278 OA
DOCKED: BRANCH   7   8
DOCKED: ATOM      8  P   UNL d   1      -7.814 -17.516  10.998 -0.13 -0.38    +0.473 P 
DOCKED: ATOM      9  O   UNL d   1      -6.662 -17.418  10.061 -0.20 +0.26    -0.228 OA
DOCKED: BRANCH   8  10
DOCKED: ATOM     10  O   UNL d   1      -8.971 -18.480  10.472 -0.14 +0.33    -0.303 OA
DOCKED: ATOM     11  H   UNL d   1      -8.644 -19.000   9.714 -0.17 -0.48    +0.222 HD
DOCKED: ENDBRANCH   8  10
DOCKED: BRANCH   8  12
DOCKED: ATOM     12  O   UNL d   1      -8.604 -16.165  11.270 -0.12 +0.20    -0.303 OA
DOCKED: ATOM     13  H   UNL d   1      -8.122 -15.367  10.958 -0.23 -0.21    +0.222 HD
DOCKED: ENDBRANCH   8  12
DOCKED: ENDBRANCH   7   8
DOCKED: ENDBRANCH   1   7
DOCKED: BRANCH   2  14
DOCKED: ATOM     14  O   UNL d   1      -6.365 -15.614  12.159 -0.19 +0.13    -0.278 OA
DOCKED: BRANCH  14  15
DOCKED: ATOM     15  P   UNL d   1      -6.824 -14.106  12.442 -0.15 -0.17    +0.473 P 
DOCKED: ATOM     16  O   UNL d   1      -8.084 -13.651  11.777 -0.19 +0.10    -0.228 OA
DOCKED: BRANCH  15  17
DOCKED: ATOM     17  O   UNL d   1      -6.897 -14.016  14.031 -0.04 +0.08    -0.303 OA
DOCKED: ATOM     18  H   UNL d   1      -6.078 -13.631  14.399 +0.06 -0.06    +0.222 HD
DOCKED: ENDBRANCH  15  17
DOCKED: BRANCH  15  19
DOCKED: ATOM     19  O   UNL d   1      -5.530 -13.234  12.132 -0.26 +0.10    -0.303 OA
DOCKED: ATOM     20  H   UNL d   1      -4.940 -13.176  12.906 +0.07 -0.08    +0.222 HD
DOCKED: ENDBRANCH  15  19
DOCKED: ENDBRANCH  14  15
DOCKED: ENDBRANCH   2  14
DOCKED: BRANCH   6  21
DOCKED: ATOM     21  O   UNL d   1      -5.216 -19.739  11.803 -0.03 +0.13    -0.278 OA
DOCKED: BRANCH  21  22
DOCKED: ATOM     22  P   UNL d   1      -5.512 -20.452  10.407 -0.06 -0.31    +0.473 P 
DOCKED: ATOM     23  O   UNL d   1      -4.897 -21.786  10.152 -0.02 +0.09    -0.228 OA
DOCKED: BRANCH  22  24
DOCKED: ATOM     24  O   UNL d   1      -7.103 -20.430  10.362 -0.09 +0.28    -0.303 OA
DOCKED: ATOM     25  H   UNL d   1      -7.413 -19.599  10.803 +0.04 -0.20    +0.222 HD
DOCKED: ENDBRANCH  22  24
DOCKED: BRANCH  22  26
DOCKED: ATOM     26  O   UNL d   1      -5.136 -19.294   9.364 -0.19 +0.36    -0.303 OA
DOCKED: ATOM     27  H   UNL d   1      -4.444 -18.722   9.754 -0.01 -0.20    +0.222 HD
DOCKED: ENDBRANCH  22  26
DOCKED: ENDBRANCH  21  22
DOCKED: ENDBRANCH   6  21
DOCKED: BRANCH   3  28
DOCKED: ATOM     28  O   UNL d   1      -4.454 -14.627  13.714 -0.12 +0.13    -0.278 OA
DOCKED: BRANCH  28  29
DOCKED: ATOM     29  P   UNL d   1      -3.832 -13.890  14.981 -0.13 -0.19    +0.473 P 
DOCKED: ATOM     30  O   UNL d   1      -3.561 -12.439  14.809 -0.69 +0.07    -0.228 OA
DOCKED: BRANCH  29  31
DOCKED: ATOM     31  O   UNL d   1      -4.902 -14.301  16.097 -0.03 +0.08    -0.303 OA
DOCKED: ATOM     32  H   UNL d   1      -5.765 -13.882  15.874 +0.04 -0.05    +0.222 HD
DOCKED: ENDBRANCH  29  31
DOCKED: BRANCH  29  33
DOCKED: ATOM     33  O   UNL d   1      -2.586 -14.818  15.329 -0.18 +0.18    -0.303 OA
DOCKED: ATOM     34  H   UNL d   1      -2.470 -15.484  14.608 +0.07 -0.18    +0.222 HD
DOCKED: ENDBRANCH  29  33
DOCKED: ENDBRANCH  28  29
DOCKED: ENDBRANCH   3  28
DOCKED: BRANCH   5  35
DOCKED: ATOM     35  O   UNL d   1      -2.963 -18.067  10.990 -0.14 +0.20    -0.278 OA
DOCKED: BRANCH  35  36
DOCKED: ATOM     36  P   UNL d   1      -2.058 -19.354  10.727 -0.10 -0.16    +0.473 P 
DOCKED: ATOM     37  O   UNL d   1      -0.582 -19.133  10.813 -0.19 +0.08    -0.228 OA
DOCKED: BRANCH  36  38
DOCKED: ATOM     38  O   UNL d   1      -2.630 -20.380  11.803 -0.01 +0.10    -0.303 OA
DOCKED: ATOM     39  H   UNL d   1      -3.401 -20.851  11.419 +0.04 -0.07    +0.222 HD
DOCKED: ENDBRANCH  36  38
DOCKED: BRANCH  36  40
DOCKED: ATOM     40  O   UNL d   1      -2.628 -19.893   9.343 -0.13 +0.05    -0.303 OA
DOCKED: ATOM     41  H   UNL d   1      -3.375 -20.518   9.476 +0.06 -0.07    +0.222 HD
DOCKED: ENDBRANCH  36  40
DOCKED: ENDBRANCH  35  36
DOCKED: ENDBRANCH   5  35
DOCKED: BRANCH   4  42
DOCKED: ATOM     42  O   UNL d   1      -2.244 -16.421  13.284 -0.15 +0.35    -0.278 OA
DOCKED: BRANCH  42  43
DOCKED: ATOM     43  P   UNL d   1      -1.858 -17.498  14.396 -0.05 -0.43    +0.473 P 
DOCKED: ATOM     44  O   UNL d   1      -1.452 -18.853  13.928 -0.08 +0.16    -0.228 OA
DOCKED: BRANCH  43  45
DOCKED: ATOM     45  O   UNL d   1      -0.743 -16.741  15.242 -0.12 +0.34    -0.303 OA
DOCKED: ATOM     46  H   UNL d   1      -0.663 -15.805  14.972 -0.19 -0.34    +0.222 HD
DOCKED: ENDBRANCH  43  45
DOCKED: BRANCH  43  47
DOCKED: ATOM     47  O   UNL d   1      -3.110 -17.458  15.396 -0.02 +0.14    -0.303 OA
DOCKED: ATOM     48  H   UNL d   1      -3.287 -16.529  15.653 +0.04 -0.10    +0.222 HD
DOCKED: ENDBRANCH  43  47
DOCKED: ENDBRANCH  42  43
DOCKED: ENDBRANCH   4  42
DOCKED: TORSDOF 24
DOCKED: TER
DOCKED: ENDMDL
________________________________________________________________________________


	BEGINNING GENETIC ALGORITHM DOCKING 61 of 100
Run: 61 Seed: 1855123878 1149176722 [ Run 61 of 100 GA/GALS ]
Beginning LAMARCKIAN GENETIC ALGORITHM (LGA), with a maximum of 25000000 energy evaluations.

Final-Value: -18.035


	FINAL GENETIC ALGORITHM DOCKED STATE
	_______________________________________________


Detailed state:  trans -6.454 -14.112 13.274 quatxyzw -0.711288 -0.641549 -0.226205 0.176961 center 0.035 0.082 -0.065 ntor 24 -115.3401 -23.0133 98.6488 116.2000 -10.4981 162.6908 -19.7706 8.4536 7.6878 93.4699 -3.5335 -107.8323 176.1116 55.8752 -133.9619 152.4503 -68.3139 -2.0898 68.9761 24.4382 -52.0687 25.9680 39.0173 -37.3212
State:	 -6.454 -14.112  13.274  -0.723 -0.652 -0.230 159.614   -115.34  -23.01   98.65  116.20  -10.50  162.69  -19.77    8.45    7.69   93.47   -3.53 -107.83  176.11   55.88 -133.96  152.45  -68.31   -2.09   68.98   24.44  -52.07   25.97   39.02  -37.32

DOCKED: MODEL       61
DOCKED: USER    Run = 61
DOCKED: USER    DPF = D:/Protein_go_brrr/autodock/final/mut_N102T/IHP/dock.dpf
DOCKED: USER  
DOCKED: USER    Estimated Free Energy of Binding    =   +1.43 kcal/mol  [=(1)+(2)+(3)-(4)]
DOCKED: USER    
DOCKED: USER    (1) Final Intermolecular Energy     =   -5.73 kcal/mol
DOCKED: USER        vdW + Hbond + desolv Energy     =   -5.66 kcal/mol
DOCKED: USER        Electrostatic Energy            =   -0.07 kcal/mol
DOCKED: USER    (2) Final Total Internal Energy     =  -12.30 kcal/mol
DOCKED: USER    (3) Torsional Free Energy           =   +7.16 kcal/mol
DOCKED: USER    (4) Unbound System's Energy  [=(2)] =  -12.30 kcal/mol
DOCKED: USER    
DOCKED: USER    
DOCKED: USER    NEWDPF move IHP_ideal_opt.pdbqt
DOCKED: USER    NEWDPF about 0.035000 0.082000 -0.065000
DOCKED: USER    NEWDPF tran0 -6.453572 -14.111684 13.273536
DOCKED: USER    NEWDPF quaternion0 -0.711288 -0.641549 -0.226205 0.176961
DOCKED: USER    NEWDPF axisangle0 -0.722694 -0.651836 -0.229833 159.614433
DOCKED: USER    NEWDPF quat0 -0.722694 -0.651836 -0.229833 159.614433
DOCKED: USER    NEWDPF dihe0 -115.34 -23.01 98.65 116.20 -10.50 162.69 -19.77 8.45 7.69 93.47 -3.53 -107.83 176.11 55.88 -133.96 152.45 -68.31 -2.09 68.98 24.44 -52.07 25.97 39.02 -37.32 
DOCKED: USER  keepresnum = 1 
DOCKED: USER  
DOCKED: REMARK  24 active torsions:
DOCKED: REMARK  status: ('A' for Active; 'I' for Inactive)
DOCKED: REMARK    1  A    between atoms: C_1  and  O_7 
DOCKED: REMARK    2  A    between atoms: C_2  and  O_12 
DOCKED: REMARK    3  A    between atoms: C_3  and  O_17 
DOCKED: REMARK    4  A    between atoms: C_4  and  O_22 
DOCKED: REMARK    5  A    between atoms: C_5  and  O_27 
DOCKED: REMARK    6  A    between atoms: C_6  and  O_32 
DOCKED: REMARK    7  A    between atoms: O_7  and  P_8 
DOCKED: REMARK    8  A    between atoms: P_8  and  O_10 
DOCKED: REMARK    9  A    between atoms: P_8  and  O_11 
DOCKED: REMARK   10  A    between atoms: O_12  and  P_13 
DOCKED: REMARK   11  A    between atoms: P_13  and  O_15 
DOCKED: REMARK   12  A    between atoms: P_13  and  O_16 
DOCKED: REMARK   13  A    between atoms: O_17  and  P_18 
DOCKED: REMARK   14  A    between atoms: P_18  and  O_20 
DOCKED: REMARK   15  A    between atoms: P_18  and  O_21 
DOCKED: REMARK   16  A    between atoms: O_22  and  P_23 
DOCKED: REMARK   17  A    between atoms: P_23  and  O_25 
DOCKED: REMARK   18  A    between atoms: P_23  and  O_26 
DOCKED: REMARK   19  A    between atoms: O_27  and  P_28 
DOCKED: REMARK   20  A    between atoms: P_28  and  O_30 
DOCKED: REMARK   21  A    between atoms: P_28  and  O_31 
DOCKED: REMARK   22  A    between atoms: O_32  and  P_33 
DOCKED: REMARK   23  A    between atoms: P_33  and  O_35 
DOCKED: REMARK   24  A    between atoms: P_33  and  O_36 
DOCKED: USER                              x       y       z     vdW  Elec       q    Type
DOCKED: USER                           _______ _______ _______ _____ _____    ______ ____
DOCKED: ROOT
DOCKED: ATOM      1  C   UNL d   1      -6.665 -12.736  12.250 -0.21 -0.06    +0.194 C 
DOCKED: ATOM      2  C   UNL d   1      -7.630 -13.897  12.005 -0.12 -0.08    +0.194 C 
DOCKED: ATOM      3  C   UNL d   1      -6.911 -15.248  12.036 -0.15 -0.09    +0.194 C 
DOCKED: ATOM      4  C   UNL d   1      -6.071 -15.452  13.294 -0.12 -0.07    +0.194 C 
DOCKED: ATOM      5  C   UNL d   1      -5.177 -14.269  13.642 -0.15 -0.07    +0.194 C 
DOCKED: ATOM      6  C   UNL d   1      -5.880 -12.913  13.550 -0.17 -0.05    +0.194 C 
DOCKED: ENDROOT
DOCKED: BRANCH   1   7
DOCKED: ATOM      7  O   UNL d   1      -7.434 -11.537  12.377 -0.15 +0.07    -0.278 OA
DOCKED: BRANCH   7   8
DOCKED: ATOM      8  P   UNL d   1      -8.462 -11.168  11.212 -0.15 -0.12    +0.473 P 
DOCKED: ATOM      9  O   UNL d   1      -8.390  -9.763  10.728 -0.22 +0.06    -0.228 OA
DOCKED: BRANCH   8  10
DOCKED: ATOM     10  O   UNL d   1      -8.157 -12.241  10.072 -0.13 +0.11    -0.303 OA
DOCKED: ATOM     11  H   UNL d   1      -8.677 -13.050  10.235 -0.42 -0.14    +0.222 HD
DOCKED: ENDBRANCH   8  10
DOCKED: BRANCH   8  12
DOCKED: ATOM     12  O   UNL d   1      -9.880 -11.646  11.746 -0.05 +0.07    -0.303 OA
DOCKED: ATOM     13  H   UNL d   1      -9.958 -12.624  11.813 +0.05 -0.06    +0.222 HD
DOCKED: ENDBRANCH   8  12
DOCKED: ENDBRANCH   7   8
DOCKED: ENDBRANCH   1   7
DOCKED: BRANCH   2  14
DOCKED: ATOM     14  O   UNL d   1      -8.637 -13.892  13.025 -0.06 +0.08    -0.278 OA
DOCKED: BRANCH  14  15
DOCKED: ATOM     15  P   UNL d   1     -10.029 -14.596  12.660 -0.02 -0.13    +0.473 P 
DOCKED: ATOM     16  O   UNL d   1     -10.349 -15.865  13.385 -0.01 +0.06    -0.228 OA
DOCKED: BRANCH  15  17
DOCKED: ATOM     17  O   UNL d   1     -11.115 -13.456  12.902 -0.01 +0.06    -0.303 OA
DOCKED: ATOM     18  H   UNL d   1     -10.690 -12.615  13.160 +0.02 -0.04    +0.222 HD
DOCKED: ENDBRANCH  15  17
DOCKED: BRANCH  15  19
DOCKED: ATOM     19  O   UNL d   1     -10.019 -14.696  11.073 -0.10 +0.14    -0.303 OA
DOCKED: ATOM     20  H   UNL d   1      -9.236 -15.177  10.747 -0.41 -0.18    +0.222 HD
DOCKED: ENDBRANCH  15  19
DOCKED: ENDBRANCH  14  15
DOCKED: ENDBRANCH   2  14
DOCKED: BRANCH   6  21
DOCKED: ATOM     21  O   UNL d   1      -4.859 -11.918  13.561 -0.23 +0.08    -0.278 OA
DOCKED: BRANCH  21  22
DOCKED: ATOM     22  P   UNL d   1      -5.192 -10.447  14.082 -0.20 -0.10    +0.473 P 
DOCKED: ATOM     23  O   UNL d   1      -5.368  -9.364  13.072 -0.35 +0.06    -0.228 OA
DOCKED: BRANCH  22  24
DOCKED: ATOM     24  O   UNL d   1      -6.459 -10.709  15.008 -0.05 +0.06    -0.303 OA
DOCKED: ATOM     25  H   UNL d   1      -7.247 -10.843  14.421 +0.07 -0.04    +0.222 HD
DOCKED: ENDBRANCH  22  24
DOCKED: BRANCH  22  26
DOCKED: ATOM     26  O   UNL d   1      -4.033 -10.216  15.165 -0.37 +0.04    -0.303 OA
DOCKED: ATOM     27  H   UNL d   1      -3.579 -11.066  15.337 +0.08 -0.01    +0.222 HD
DOCKED: ENDBRANCH  22  26
DOCKED: ENDBRANCH  21  22
DOCKED: ENDBRANCH   6  21
DOCKED: BRANCH   3  28
DOCKED: ATOM     28  O   UNL d   1      -7.907 -16.262  12.079 -0.12 +0.14    -0.278 OA
DOCKED: BRANCH  28  29
DOCKED: ATOM     29  P   UNL d   1      -7.769 -17.563  11.171 -0.14 -0.36    +0.473 P 
DOCKED: ATOM     30  O   UNL d   1      -7.862 -18.859  11.891 -0.07 +0.13    -0.228 OA
DOCKED: BRANCH  29  31
DOCKED: ATOM     31  O   UNL d   1      -8.893 -17.259  10.074 -0.14 +0.32    -0.303 OA
DOCKED: ATOM     32  H   UNL d   1      -8.948 -16.285   9.942 -0.42 -0.24    +0.222 HD
DOCKED: ENDBRANCH  29  31
DOCKED: BRANCH  29  33
DOCKED: ATOM     33  O   UNL d   1      -6.418 -17.276  10.379 -0.25 +0.29    -0.303 OA
DOCKED: ATOM     34  H   UNL d   1      -5.662 -17.295  11.016 +0.00 -0.17    +0.222 HD
DOCKED: ENDBRANCH  29  33
DOCKED: ENDBRANCH  28  29
DOCKED: ENDBRANCH   3  28
DOCKED: BRANCH   5  35
DOCKED: ATOM     35  O   UNL d   1      -4.801 -14.455  15.005 -0.06 +0.09    -0.278 OA
DOCKED: BRANCH  35  36
DOCKED: ATOM     36  P   UNL d   1      -3.664 -13.547  15.658 -0.13 -0.17    +0.473 P 
DOCKED: ATOM     37  O   UNL d   1      -2.687 -12.946  14.697 -0.57 +0.13    -0.228 OA
DOCKED: BRANCH  36  38
DOCKED: ATOM     38  O   UNL d   1      -4.524 -12.480  16.469 -0.11 +0.07    -0.303 OA
DOCKED: ATOM     39  H   UNL d   1      -5.073 -11.965  15.840 +0.07 -0.05    +0.222 HD
DOCKED: ENDBRANCH  36  38
DOCKED: BRANCH  36  40
DOCKED: ATOM     40  O   UNL d   1      -3.073 -14.500  16.786 -0.09 +0.10    -0.303 OA
DOCKED: ATOM     41  H   UNL d   1      -2.826 -15.381  16.426 +0.06 -0.09    +0.222 HD
DOCKED: ENDBRANCH  36  40
DOCKED: ENDBRANCH  35  36
DOCKED: ENDBRANCH   5  35
DOCKED: BRANCH   4  42
DOCKED: ATOM     42  O   UNL d   1      -5.212 -16.569  13.042 -0.09 +0.13    -0.278 OA
DOCKED: BRANCH  42  43
DOCKED: ATOM     43  P   UNL d   1      -4.790 -17.508  14.261 +0.00 -0.18    +0.473 P 
DOCKED: ATOM     44  O   UNL d   1      -5.854 -17.897  15.228 -0.00 +0.06    -0.228 OA
DOCKED: BRANCH  43  45
DOCKED: ATOM     45  O   UNL d   1      -4.095 -18.738  13.529 -0.01 +0.12    -0.303 OA
DOCKED: ATOM     46  H   UNL d   1      -4.757 -19.338  13.129 +0.03 -0.08    +0.222 HD
DOCKED: ENDBRANCH  43  45
DOCKED: BRANCH  43  47
DOCKED: ATOM     47  O   UNL d   1      -3.527 -16.747  14.889 -0.04 +0.15    -0.303 OA
DOCKED: ATOM     48  H   UNL d   1      -3.833 -15.932  15.339 +0.06 -0.09    +0.222 HD
DOCKED: ENDBRANCH  43  47
DOCKED: ENDBRANCH  42  43
DOCKED: ENDBRANCH   4  42
DOCKED: TORSDOF 24
DOCKED: TER
DOCKED: ENDMDL
________________________________________________________________________________


	BEGINNING GENETIC ALGORITHM DOCKING 62 of 100
Run: 62 Seed: 1778718655 911958670 [ Run 62 of 100 GA/GALS ]
Beginning LAMARCKIAN GENETIC ALGORITHM (LGA), with a maximum of 25000000 energy evaluations.

Final-Value: -15.803


	FINAL GENETIC ALGORITHM DOCKED STATE
	_______________________________________________


Detailed state:  trans 16.043 3.280 -9.983 quatxyzw -0.396741 -0.649774 0.429418 -0.485789 center 0.035 0.082 -0.065 ntor 24 105.9239 180.0000 150.3522 -0.8781 -43.3574 -3.2247 -82.5914 2.5616 37.1813 180.0000 -167.4315 -173.3262 -86.6895 179.5567 -75.9072 146.6551 -87.4631 162.7608 60.1356 18.4990 -162.3642 32.1940 -137.9011 -169.5006
State:	 16.043   3.280  -9.983  -0.454 -0.743  0.491 -121.872    105.92  180.00  150.35   -0.88  -43.36   -3.22  -82.59    2.56   37.18  180.00 -167.43 -173.33  -86.69  179.56  -75.91  146.66  -87.46  162.76   60.14   18.50 -162.36   32.19 -137.90 -169.50

DOCKED: MODEL       62
DOCKED: USER    Run = 62
DOCKED: USER    DPF = D:/Protein_go_brrr/autodock/final/mut_N102T/IHP/dock.dpf
DOCKED: USER  
DOCKED: USER    Estimated Free Energy of Binding    =   +2.72 kcal/mol  [=(1)+(2)+(3)-(4)]
DOCKED: USER    
DOCKED: USER    (1) Final Intermolecular Energy     =   -4.44 kcal/mol
DOCKED: USER        vdW + Hbond + desolv Energy     =   -4.27 kcal/mol
DOCKED: USER        Electrostatic Energy            =   -0.17 kcal/mol
DOCKED: USER    (2) Final Total Internal Energy     =  -11.37 kcal/mol
DOCKED: USER    (3) Torsional Free Energy           =   +7.16 kcal/mol
DOCKED: USER    (4) Unbound System's Energy  [=(2)] =  -11.37 kcal/mol
DOCKED: USER    
DOCKED: USER    
DOCKED: USER    NEWDPF move IHP_ideal_opt.pdbqt
DOCKED: USER    NEWDPF about 0.035000 0.082000 -0.065000
DOCKED: USER    NEWDPF tran0 16.043362 3.279700 -9.983198
DOCKED: USER    NEWDPF quaternion0 -0.396741 -0.649774 0.429418 -0.485789
DOCKED: USER    NEWDPF axisangle0 -0.453898 -0.743383 0.491282 -121.871644
DOCKED: USER    NEWDPF quat0 -0.453898 -0.743383 0.491282 -121.871644
DOCKED: USER    NEWDPF dihe0 105.92 180.00 150.35 -0.88 -43.36 -3.22 -82.59 2.56 37.18 180.00 -167.43 -173.33 -86.69 179.56 -75.91 146.66 -87.46 162.76 60.14 18.50 -162.36 32.19 -137.90 -169.50 
DOCKED: USER  keepresnum = 1 
DOCKED: USER  
DOCKED: REMARK  24 active torsions:
DOCKED: REMARK  status: ('A' for Active; 'I' for Inactive)
DOCKED: REMARK    1  A    between atoms: C_1  and  O_7 
DOCKED: REMARK    2  A    between atoms: C_2  and  O_12 
DOCKED: REMARK    3  A    between atoms: C_3  and  O_17 
DOCKED: REMARK    4  A    between atoms: C_4  and  O_22 
DOCKED: REMARK    5  A    between atoms: C_5  and  O_27 
DOCKED: REMARK    6  A    between atoms: C_6  and  O_32 
DOCKED: REMARK    7  A    between atoms: O_7  and  P_8 
DOCKED: REMARK    8  A    between atoms: P_8  and  O_10 
DOCKED: REMARK    9  A    between atoms: P_8  and  O_11 
DOCKED: REMARK   10  A    between atoms: O_12  and  P_13 
DOCKED: REMARK   11  A    between atoms: P_13  and  O_15 
DOCKED: REMARK   12  A    between atoms: P_13  and  O_16 
DOCKED: REMARK   13  A    between atoms: O_17  and  P_18 
DOCKED: REMARK   14  A    between atoms: P_18  and  O_20 
DOCKED: REMARK   15  A    between atoms: P_18  and  O_21 
DOCKED: REMARK   16  A    between atoms: O_22  and  P_23 
DOCKED: REMARK   17  A    between atoms: P_23  and  O_25 
DOCKED: REMARK   18  A    between atoms: P_23  and  O_26 
DOCKED: REMARK   19  A    between atoms: O_27  and  P_28 
DOCKED: REMARK   20  A    between atoms: P_28  and  O_30 
DOCKED: REMARK   21  A    between atoms: P_28  and  O_31 
DOCKED: REMARK   22  A    between atoms: O_32  and  P_33 
DOCKED: REMARK   23  A    between atoms: P_33  and  O_35 
DOCKED: REMARK   24  A    between atoms: P_33  and  O_36 
DOCKED: USER                              x       y       z     vdW  Elec       q    Type
DOCKED: USER                           _______ _______ _______ _____ _____    ______ ____
DOCKED: ROOT
DOCKED: ATOM      1  C   UNL d   1      14.920   4.031  -8.907 -0.09 -0.04    +0.194 C 
DOCKED: ATOM      2  C   UNL d   1      15.466   2.676  -8.453 -0.04 -0.03    +0.194 C 
DOCKED: ATOM      3  C   UNL d   1      15.508   1.668  -9.602 -0.02 -0.02    +0.194 C 
DOCKED: ATOM      4  C   UNL d   1      16.231   2.196 -10.839 -0.02 -0.02    +0.194 C 
DOCKED: ATOM      5  C   UNL d   1      15.799   3.594 -11.261 -0.05 -0.03    +0.194 C 
DOCKED: ATOM      6  C   UNL d   1      15.697   4.587 -10.101 -0.04 -0.03    +0.194 C 
DOCKED: ENDROOT
DOCKED: BRANCH   1   7
DOCKED: ATOM      7  O   UNL d   1      15.074   4.958  -7.830 -0.09 +0.05    -0.278 OA
DOCKED: BRANCH   7   8
DOCKED: ATOM      8  P   UNL d   1      14.295   4.672  -6.465 -0.22 -0.07    +0.473 P 
DOCKED: ATOM      9  O   UNL d   1      12.955   4.042  -6.623 -0.88 +0.00    -0.228 OA
DOCKED: BRANCH   8  10
DOCKED: ATOM     10  O   UNL d   1      15.312   3.780  -5.619 -0.10 +0.05    -0.303 OA
DOCKED: ATOM     11  H   UNL d   1      15.610   3.024  -6.159 +0.06 -0.03    +0.222 HD
DOCKED: ENDBRANCH   8  10
DOCKED: BRANCH   8  12
DOCKED: ATOM     12  O   UNL d   1      14.325   6.050  -5.675 -0.33 +0.08    -0.303 OA
DOCKED: ATOM     13  H   UNL d   1      13.455   6.289  -5.283 -0.27 -0.07    +0.222 HD
DOCKED: ENDBRANCH   8  12
DOCKED: ENDBRANCH   7   8
DOCKED: ENDBRANCH   1   7
DOCKED: BRANCH   2  14
DOCKED: ATOM     14  O   UNL d   1      16.797   2.853  -7.951 -0.00 +0.03    -0.278 OA
DOCKED: BRANCH  14  15
DOCKED: ATOM     15  P   UNL d   1      17.270   1.840  -6.805 +0.01 -0.03    +0.473 P 
DOCKED: ATOM     16  O   UNL d   1      17.772   2.450  -5.534 -0.01 +0.01    -0.228 OA
DOCKED: BRANCH  15  17
DOCKED: ATOM     17  O   UNL d   1      16.010   0.893  -6.580 -0.01 +0.03    -0.303 OA
DOCKED: ATOM     18  H   UNL d   1      15.723   0.484  -7.419 +0.02 -0.02    +0.222 HD
DOCKED: ENDBRANCH  15  17
DOCKED: BRANCH  15  19
DOCKED: ATOM     19  O   UNL d   1      18.282   0.856  -7.539 +0.00 +0.02    -0.303 OA
DOCKED: ATOM     20  H   UNL d   1      17.850   0.371  -8.266 +0.00 -0.01    +0.222 HD
DOCKED: ENDBRANCH  15  19
DOCKED: ENDBRANCH  14  15
DOCKED: ENDBRANCH   2  14
DOCKED: BRANCH   6  21
DOCKED: ATOM     21  O   UNL d   1      14.969   5.713 -10.586 -0.07 +0.05    -0.278 OA
DOCKED: BRANCH  21  22
DOCKED: ATOM     22  P   UNL d   1      13.396   5.805 -10.340 -0.23 -0.16    +0.473 P 
DOCKED: ATOM     23  O   UNL d   1      12.569   4.592 -10.604 -0.37 +0.12    -0.228 OA
DOCKED: BRANCH  22  24
DOCKED: ATOM     24  O   UNL d   1      13.331   6.344  -8.843 -0.24 +0.09    -0.303 OA
DOCKED: ATOM     25  H   UNL d   1      13.003   5.608  -8.265 -0.33 -0.10    +0.222 HD
DOCKED: ENDBRANCH  22  24
DOCKED: BRANCH  22  26
DOCKED: ATOM     26  O   UNL d   1      13.011   7.115 -11.180 -0.24 +0.09    -0.303 OA
DOCKED: ATOM     27  H   UNL d   1      12.056   7.300 -11.068 -0.10 -0.11    +0.222 HD
DOCKED: ENDBRANCH  22  26
DOCKED: ENDBRANCH  21  22
DOCKED: ENDBRANCH   6  21
DOCKED: BRANCH   3  28
DOCKED: ATOM     28  O   UNL d   1      16.273   0.552  -9.165 -0.00 +0.03    -0.278 OA
DOCKED: BRANCH  28  29
DOCKED: ATOM     29  P   UNL d   1      15.862  -0.925  -9.598 +0.01 -0.04    +0.473 P 
DOCKED: ATOM     30  O   UNL d   1      16.891  -1.681 -10.356 -0.00 +0.02    -0.228 OA
DOCKED: BRANCH  29  31
DOCKED: ATOM     31  O   UNL d   1      15.424  -1.519  -8.178 -0.00 +0.03    -0.303 OA
DOCKED: ATOM     32  H   UNL d   1      15.960  -1.083  -7.476 +0.01 -0.02    +0.222 HD
DOCKED: ENDBRANCH  29  31
DOCKED: BRANCH  29  33
DOCKED: ATOM     33  O   UNL d   1      14.465  -0.683 -10.324 -0.01 +0.03    -0.303 OA
DOCKED: ATOM     34  H   UNL d   1      14.608  -0.098 -11.108 +0.04 -0.02    +0.222 HD
DOCKED: ENDBRANCH  29  33
DOCKED: ENDBRANCH  28  29
DOCKED: ENDBRANCH   3  28
DOCKED: BRANCH   5  35
DOCKED: ATOM     35  O   UNL d   1      16.823   4.069 -12.132 -0.01 +0.03    -0.278 OA
DOCKED: BRANCH  35  36
DOCKED: ATOM     36  P   UNL d   1      18.166   3.231 -12.328 +0.00 -0.03    +0.473 P 
DOCKED: ATOM     37  O   UNL d   1      18.760   2.663 -11.079 -0.00 +0.01    -0.228 OA
DOCKED: BRANCH  36  38
DOCKED: ATOM     38  O   UNL d   1      17.714   2.137 -13.394 -0.00 +0.02    -0.303 OA
DOCKED: ATOM     39  H   UNL d   1      16.769   1.915 -13.246 +0.01 -0.02    +0.222 HD
DOCKED: ENDBRANCH  36  38
DOCKED: BRANCH  36  40
DOCKED: ATOM     40  O   UNL d   1      19.072   4.232 -13.168 +0.00 +0.02    -0.303 OA
DOCKED: ATOM     41  H   UNL d   1      20.003   4.233 -12.853 +0.00 -0.01    +0.222 HD
DOCKED: ENDBRANCH  36  40
DOCKED: ENDBRANCH  35  36
DOCKED: ENDBRANCH   5  35
DOCKED: BRANCH   4  42
DOCKED: ATOM     42  O   UNL d   1      15.907   1.311 -11.918 -0.02 +0.03    -0.278 OA
DOCKED: BRANCH  42  43
DOCKED: ATOM     43  P   UNL d   1      14.497   1.469 -12.647 -0.05 -0.08    +0.473 P 
DOCKED: ATOM     44  O   UNL d   1      13.900   0.248 -13.258 -0.09 +0.02    -0.228 OA
DOCKED: BRANCH  43  45
DOCKED: ATOM     45  O   UNL d   1      13.595   2.141 -11.521 -0.12 +0.09    -0.303 OA
DOCKED: ATOM     46  H   UNL d   1      13.256   3.013 -11.807 -0.32 -0.14    +0.222 HD
DOCKED: ENDBRANCH  43  45
DOCKED: BRANCH  43  47
DOCKED: ATOM     47  O   UNL d   1      14.738   2.697 -13.648 -0.09 +0.07    -0.303 OA
DOCKED: ATOM     48  H   UNL d   1      15.681   2.959 -13.617 +0.02 -0.03    +0.222 HD
DOCKED: ENDBRANCH  43  47
DOCKED: ENDBRANCH  42  43
DOCKED: ENDBRANCH   4  42
DOCKED: TORSDOF 24
DOCKED: TER
DOCKED: ENDMDL
________________________________________________________________________________


	BEGINNING GENETIC ALGORITHM DOCKING 63 of 100
Run: 63 Seed: 477171594 1978124486 [ Run 63 of 100 GA/GALS ]
Beginning LAMARCKIAN GENETIC ALGORITHM (LGA), with a maximum of 25000000 energy evaluations.

Final-Value: -18.273


	FINAL GENETIC ALGORITHM DOCKED STATE
	_______________________________________________


Detailed state:  trans -9.677 -7.866 -8.456 quatxyzw -0.342989 -0.506641 -0.698884 0.370452 center 0.035 0.082 -0.065 ntor 24 161.6981 -180.0000 39.0211 -180.0000 82.7498 126.4200 -45.8829 171.4516 136.4341 -1.6478 124.5646 85.0670 108.4307 -115.1132 -125.1378 -54.0747 -159.4656 30.7096 9.4497 -4.4604 -21.5556 6.0909 8.1545 -175.4167
State:	 -9.677  -7.866  -8.456  -0.369 -0.545 -0.752 136.513    161.70 -180.00   39.02 -180.00   82.75  126.42  -45.88  171.45  136.43   -1.65  124.56   85.07  108.43 -115.11 -125.14  -54.07 -159.47   30.71    9.45   -4.46  -21.56    6.09    8.15 -175.42

DOCKED: MODEL       63
DOCKED: USER    Run = 63
DOCKED: USER    DPF = D:/Protein_go_brrr/autodock/final/mut_N102T/IHP/dock.dpf
DOCKED: USER  
DOCKED: USER    Estimated Free Energy of Binding    =   +0.98 kcal/mol  [=(1)+(2)+(3)-(4)]
DOCKED: USER    
DOCKED: USER    (1) Final Intermolecular Energy     =   -6.18 kcal/mol
DOCKED: USER        vdW + Hbond + desolv Energy     =   -6.08 kcal/mol
DOCKED: USER        Electrostatic Energy            =   -0.10 kcal/mol
DOCKED: USER    (2) Final Total Internal Energy     =  -12.09 kcal/mol
DOCKED: USER    (3) Torsional Free Energy           =   +7.16 kcal/mol
DOCKED: USER    (4) Unbound System's Energy  [=(2)] =  -12.09 kcal/mol
DOCKED: USER    
DOCKED: USER    
DOCKED: USER    NEWDPF move IHP_ideal_opt.pdbqt
DOCKED: USER    NEWDPF about 0.035000 0.082000 -0.065000
DOCKED: USER    NEWDPF tran0 -9.677011 -7.865663 -8.456181
DOCKED: USER    NEWDPF quaternion0 -0.342989 -0.506641 -0.698884 0.370452
DOCKED: USER    NEWDPF axisangle0 -0.369261 -0.545449 -0.752417 136.513005
DOCKED: USER    NEWDPF quat0 -0.369261 -0.545449 -0.752417 136.513005
DOCKED: USER    NEWDPF dihe0 161.70 -180.00 39.02 -180.00 82.75 126.42 -45.88 171.45 136.43 -1.65 124.56 85.07 108.43 -115.11 -125.14 -54.07 -159.47 30.71 9.45 -4.46 -21.56 6.09 8.15 -175.42 
DOCKED: USER  keepresnum = 1 
DOCKED: USER  
DOCKED: REMARK  24 active torsions:
DOCKED: REMARK  status: ('A' for Active; 'I' for Inactive)
DOCKED: REMARK    1  A    between atoms: C_1  and  O_7 
DOCKED: REMARK    2  A    between atoms: C_2  and  O_12 
DOCKED: REMARK    3  A    between atoms: C_3  and  O_17 
DOCKED: REMARK    4  A    between atoms: C_4  and  O_22 
DOCKED: REMARK    5  A    between atoms: C_5  and  O_27 
DOCKED: REMARK    6  A    between atoms: C_6  and  O_32 
DOCKED: REMARK    7  A    between atoms: O_7  and  P_8 
DOCKED: REMARK    8  A    between atoms: P_8  and  O_10 
DOCKED: REMARK    9  A    between atoms: P_8  and  O_11 
DOCKED: REMARK   10  A    between atoms: O_12  and  P_13 
DOCKED: REMARK   11  A    between atoms: P_13  and  O_15 
DOCKED: REMARK   12  A    between atoms: P_13  and  O_16 
DOCKED: REMARK   13  A    between atoms: O_17  and  P_18 
DOCKED: REMARK   14  A    between atoms: P_18  and  O_20 
DOCKED: REMARK   15  A    between atoms: P_18  and  O_21 
DOCKED: REMARK   16  A    between atoms: O_22  and  P_23 
DOCKED: REMARK   17  A    between atoms: P_23  and  O_25 
DOCKED: REMARK   18  A    between atoms: P_23  and  O_26 
DOCKED: REMARK   19  A    between atoms: O_27  and  P_28 
DOCKED: REMARK   20  A    between atoms: P_28  and  O_30 
DOCKED: REMARK   21  A    between atoms: P_28  and  O_31 
DOCKED: REMARK   22  A    between atoms: O_32  and  P_33 
DOCKED: REMARK   23  A    between atoms: P_33  and  O_35 
DOCKED: REMARK   24  A    between atoms: P_33  and  O_36 
DOCKED: USER                              x       y       z     vdW  Elec       q    Type
DOCKED: USER                           _______ _______ _______ _____ _____    ______ ____
DOCKED: ROOT
DOCKED: ATOM      1  C   UNL d   1      -9.464  -6.234  -8.982 -0.17 +0.03    +0.194 C 
DOCKED: ATOM      2  C   UNL d   1      -9.031  -7.311  -9.978 -0.15 +0.04    +0.194 C 
DOCKED: ATOM      3  C   UNL d   1      -8.262  -8.442  -9.291 -0.19 +0.04    +0.194 C 
DOCKED: ATOM      4  C   UNL d   1      -9.001  -9.029  -8.091 -0.08 +0.04    +0.194 C 
DOCKED: ATOM      5  C   UNL d   1      -9.552  -7.984  -7.129 -0.09 +0.03    +0.194 C 
DOCKED: ATOM      6  C   UNL d   1     -10.267  -6.821  -7.820 -0.07 +0.02    +0.194 C 
DOCKED: ENDROOT
DOCKED: BRANCH   1   7
DOCKED: ATOM      7  O   UNL d   1     -10.316  -5.311  -9.665 -0.09 -0.04    -0.278 OA
DOCKED: BRANCH   7   8
DOCKED: ATOM      8  P   UNL d   1      -9.795  -3.817  -9.885 -0.18 +0.07    +0.473 P 
DOCKED: ATOM      9  O   UNL d   1     -10.484  -3.062 -10.967 -0.13 -0.03    -0.228 OA
DOCKED: BRANCH   8  10
DOCKED: ATOM     10  O   UNL d   1      -9.948  -3.138  -8.449 -0.13 -0.06    -0.303 OA
DOCKED: ATOM     11  H   UNL d   1     -10.253  -3.803  -7.804 +0.07 +0.03    +0.222 HD
DOCKED: ENDBRANCH   8  10
DOCKED: BRANCH   8  12
DOCKED: ATOM     12  O   UNL d   1      -8.218  -3.946 -10.025 -0.15 -0.04    -0.303 OA
DOCKED: ATOM     13  H   UNL d   1      -7.852  -3.418 -10.770 -0.13 +0.01    +0.222 HD
DOCKED: ENDBRANCH   8  12
DOCKED: ENDBRANCH   7   8
DOCKED: ENDBRANCH   1   7
DOCKED: BRANCH   2  14
DOCKED: ATOM     14  O   UNL d   1     -10.195  -7.864 -10.603 -0.06 -0.06    -0.278 OA
DOCKED: BRANCH  14  15
DOCKED: ATOM     15  P   UNL d   1     -10.209  -7.880 -12.204 -0.06 +0.15    +0.473 P 
DOCKED: ATOM     16  O   UNL d   1     -10.095  -6.555 -12.891 -0.07 -0.11    -0.228 OA
DOCKED: BRANCH  15  17
DOCKED: ATOM     17  O   UNL d   1      -9.030  -8.880 -12.592 -0.14 -0.12    -0.303 OA
DOCKED: ATOM     18  H   UNL d   1      -8.182  -8.591 -12.203 +0.08 +0.10    +0.222 HD
DOCKED: ENDBRANCH  15  17
DOCKED: BRANCH  15  19
DOCKED: ATOM     19  O   UNL d   1     -11.493  -8.740 -12.582 -0.02 -0.06    -0.303 OA
DOCKED: ATOM     20  H   UNL d   1     -12.127  -8.226 -13.114 +0.02 +0.04    +0.222 HD
DOCKED: ENDBRANCH  15  19
DOCKED: ENDBRANCH  14  15
DOCKED: ENDBRANCH   2  14
DOCKED: BRANCH   6  21
DOCKED: ATOM     21  O   UNL d   1     -10.411  -5.789  -6.847 -0.06 -0.03    -0.278 OA
DOCKED: BRANCH  21  22
DOCKED: ATOM     22  P   UNL d   1     -11.860  -5.209  -6.516 +0.00 +0.05    +0.473 P 
DOCKED: ATOM     23  O   UNL d   1     -12.306  -3.978  -7.231 -0.02 -0.02    -0.228 OA
DOCKED: BRANCH  22  24
DOCKED: ATOM     24  O   UNL d   1     -12.782  -6.486  -6.747 -0.00 -0.02    -0.303 OA
DOCKED: ATOM     25  H   UNL d   1     -12.201  -7.289  -6.751 +0.02 +0.02    +0.222 HD
DOCKED: ENDBRANCH  22  24
DOCKED: BRANCH  22  26
DOCKED: ATOM     26  O   UNL d   1     -11.816  -5.117  -4.916 -0.01 -0.03    -0.303 OA
DOCKED: ATOM     27  H   UNL d   1     -11.471  -5.959  -4.555 +0.04 +0.02    +0.222 HD
DOCKED: ENDBRANCH  22  26
DOCKED: ENDBRANCH  21  22
DOCKED: ENDBRANCH   6  21
DOCKED: BRANCH   3  28
DOCKED: ATOM     28  O   UNL d   1      -8.148  -9.509 -10.223 -0.13 -0.07    -0.278 OA
DOCKED: BRANCH  28  29
DOCKED: ATOM     29  P   UNL d   1      -6.715  -9.975 -10.740 -0.17 +0.21    +0.473 P 
DOCKED: ATOM     30  O   UNL d   1      -6.118  -9.139 -11.813 -0.63 -0.09    -0.228 OA
DOCKED: BRANCH  29  31
DOCKED: ATOM     31  O   UNL d   1      -5.926 -10.046  -9.350 -0.39 -0.11    -0.303 OA
DOCKED: ATOM     32  H   UNL d   1      -6.564  -9.880  -8.618 +0.13 +0.06    +0.222 HD
DOCKED: ENDBRANCH  29  31
DOCKED: BRANCH  29  33
DOCKED: ATOM     33  O   UNL d   1      -6.966 -11.510 -11.080 -0.77 -0.15    -0.303 OA
DOCKED: ATOM     34  H   UNL d   1      -6.265 -12.055 -10.645 -0.47 +0.08    +0.222 HD
DOCKED: ENDBRANCH  29  33
DOCKED: ENDBRANCH  28  29
DOCKED: ENDBRANCH   3  28
DOCKED: BRANCH   5  35
DOCKED: ATOM     35  O   UNL d   1     -10.523  -8.662  -6.335 -0.03 -0.04    -0.278 OA
DOCKED: BRANCH  35  36
DOCKED: ATOM     36  P   UNL d   1     -10.617  -8.385  -4.767 -0.05 +0.06    +0.473 P 
DOCKED: ATOM     37  O   UNL d   1     -10.288  -9.547  -3.886 -0.60 -0.05    -0.228 OA
DOCKED: BRANCH  36  38
DOCKED: ATOM     38  O   UNL d   1      -9.641  -7.138  -4.598 -0.11 -0.04    -0.303 OA
DOCKED: ATOM     39  H   UNL d   1     -10.026  -6.363  -5.062 +0.06 +0.03    +0.222 HD
DOCKED: ENDBRANCH  36  38
DOCKED: BRANCH  36  40
DOCKED: ATOM     40  O   UNL d   1     -12.071  -7.756  -4.620 -0.01 -0.02    -0.303 OA
DOCKED: ATOM     41  H   UNL d   1     -12.257  -7.100  -5.329 +0.02 +0.02    +0.222 HD
DOCKED: ENDBRANCH  36  40
DOCKED: ENDBRANCH  35  36
DOCKED: ENDBRANCH   5  35
DOCKED: BRANCH   4  42
DOCKED: ATOM     42  O   UNL d   1      -8.051  -9.814  -7.362 -0.09 -0.07    -0.278 OA
DOCKED: BRANCH  42  43
DOCKED: ATOM     43  P   UNL d   1      -6.930  -9.069  -6.506 -0.16 +0.11    +0.473 P 
DOCKED: ATOM     44  O   UNL d   1      -7.343  -8.472  -5.206 -0.11 -0.05    -0.228 OA
DOCKED: BRANCH  43  45
DOCKED: ATOM     45  O   UNL d   1      -5.793 -10.175  -6.383 -0.32 -0.14    -0.303 OA
DOCKED: ATOM     46  H   UNL d   1      -5.555 -10.543  -7.258 +0.12 +0.11    +0.222 HD
DOCKED: ENDBRANCH  43  45
DOCKED: BRANCH  43  47
DOCKED: ATOM     47  O   UNL d   1      -6.281  -8.050  -7.560 -0.28 -0.02    -0.303 OA
DOCKED: ATOM     48  H   UNL d   1      -5.478  -8.455  -7.948 -0.33 +0.00    +0.222 HD
DOCKED: ENDBRANCH  43  47
DOCKED: ENDBRANCH  42  43
DOCKED: ENDBRANCH   4  42
DOCKED: TORSDOF 24
DOCKED: TER
DOCKED: ENDMDL
________________________________________________________________________________


	BEGINNING GENETIC ALGORITHM DOCKING 64 of 100
Run: 64 Seed: 672818031 499538329 [ Run 64 of 100 GA/GALS ]
Beginning LAMARCKIAN GENETIC ALGORITHM (LGA), with a maximum of 25000000 energy evaluations.

Final-Value: -17.847


	FINAL GENETIC ALGORITHM DOCKED STATE
	_______________________________________________


Detailed state:  trans -8.428 -12.744 12.406 quatxyzw 0.937451 -0.076944 0.313544 0.130213 center 0.035 0.082 -0.065 ntor 24 141.0838 118.1968 15.4532 46.9440 42.9772 -121.1095 -41.2275 112.6767 -179.5972 0.7477 119.6814 89.0408 140.4786 -176.6846 -30.2991 -178.6288 -171.0753 87.2135 9.3641 -39.3204 -41.8761 -30.6197 24.8515 -38.6357
State:	 -8.428 -12.744  12.406   0.946 -0.078  0.316 165.036    141.08  118.20   15.45   46.94   42.98 -121.11  -41.23  112.68 -179.60    0.75  119.68   89.04  140.48 -176.68  -30.30 -178.63 -171.08   87.21    9.36  -39.32  -41.88  -30.62   24.85  -38.64

DOCKED: MODEL       64
DOCKED: USER    Run = 64
DOCKED: USER    DPF = D:/Protein_go_brrr/autodock/final/mut_N102T/IHP/dock.dpf
DOCKED: USER  
DOCKED: USER    Estimated Free Energy of Binding    =   +2.64 kcal/mol  [=(1)+(2)+(3)-(4)]
DOCKED: USER    
DOCKED: USER    (1) Final Intermolecular Energy     =   -4.52 kcal/mol
DOCKED: USER        vdW + Hbond + desolv Energy     =   -4.45 kcal/mol
DOCKED: USER        Electrostatic Energy            =   -0.06 kcal/mol
DOCKED: USER    (2) Final Total Internal Energy     =  -13.33 kcal/mol
DOCKED: USER    (3) Torsional Free Energy           =   +7.16 kcal/mol
DOCKED: USER    (4) Unbound System's Energy  [=(2)] =  -13.33 kcal/mol
DOCKED: USER    
DOCKED: USER    
DOCKED: USER    NEWDPF move IHP_ideal_opt.pdbqt
DOCKED: USER    NEWDPF about 0.035000 0.082000 -0.065000
DOCKED: USER    NEWDPF tran0 -8.428311 -12.744077 12.405585
DOCKED: USER    NEWDPF quaternion0 0.937451 -0.076944 0.313544 0.130213
DOCKED: USER    NEWDPF axisangle0 0.945501 -0.077604 0.316236 165.036181
DOCKED: USER    NEWDPF quat0 0.945501 -0.077604 0.316236 165.036181
DOCKED: USER    NEWDPF dihe0 141.08 118.20 15.45 46.94 42.98 -121.11 -41.23 112.68 -179.60 0.75 119.68 89.04 140.48 -176.68 -30.30 -178.63 -171.08 87.21 9.36 -39.32 -41.88 -30.62 24.85 -38.64 
DOCKED: USER  keepresnum = 1 
DOCKED: USER  
DOCKED: REMARK  24 active torsions:
DOCKED: REMARK  status: ('A' for Active; 'I' for Inactive)
DOCKED: REMARK    1  A    between atoms: C_1  and  O_7 
DOCKED: REMARK    2  A    between atoms: C_2  and  O_12 
DOCKED: REMARK    3  A    between atoms: C_3  and  O_17 
DOCKED: REMARK    4  A    between atoms: C_4  and  O_22 
DOCKED: REMARK    5  A    between atoms: C_5  and  O_27 
DOCKED: REMARK    6  A    between atoms: C_6  and  O_32 
DOCKED: REMARK    7  A    between atoms: O_7  and  P_8 
DOCKED: REMARK    8  A    between atoms: P_8  and  O_10 
DOCKED: REMARK    9  A    between atoms: P_8  and  O_11 
DOCKED: REMARK   10  A    between atoms: O_12  and  P_13 
DOCKED: REMARK   11  A    between atoms: P_13  and  O_15 
DOCKED: REMARK   12  A    between atoms: P_13  and  O_16 
DOCKED: REMARK   13  A    between atoms: O_17  and  P_18 
DOCKED: REMARK   14  A    between atoms: P_18  and  O_20 
DOCKED: REMARK   15  A    between atoms: P_18  and  O_21 
DOCKED: REMARK   16  A    between atoms: O_22  and  P_23 
DOCKED: REMARK   17  A    between atoms: P_23  and  O_25 
DOCKED: REMARK   18  A    between atoms: P_23  and  O_26 
DOCKED: REMARK   19  A    between atoms: O_27  and  P_28 
DOCKED: REMARK   20  A    between atoms: P_28  and  O_30 
DOCKED: REMARK   21  A    between atoms: P_28  and  O_31 
DOCKED: REMARK   22  A    between atoms: O_32  and  P_33 
DOCKED: REMARK   23  A    between atoms: P_33  and  O_35 
DOCKED: REMARK   24  A    between atoms: P_33  and  O_36 
DOCKED: USER                              x       y       z     vdW  Elec       q    Type
DOCKED: USER                           _______ _______ _______ _____ _____    ______ ____
DOCKED: ROOT
DOCKED: ATOM      1  C   UNL d   1      -6.900 -12.025  12.768 -0.18 -0.05    +0.194 C 
DOCKED: ATOM      2  C   UNL d   1      -8.062 -11.048  12.578 -0.14 -0.04    +0.194 C 
DOCKED: ATOM      3  C   UNL d   1      -8.934 -11.431  11.381 -0.18 -0.05    +0.194 C 
DOCKED: ATOM      4  C   UNL d   1      -9.402 -12.884  11.418 -0.15 -0.07    +0.194 C 
DOCKED: ATOM      5  C   UNL d   1      -8.294 -13.885  11.718 -0.02 -0.09    +0.194 C 
DOCKED: ATOM      6  C   UNL d   1      -7.383 -13.472  12.877 -0.15 -0.06    +0.194 C 
DOCKED: ENDROOT
DOCKED: BRANCH   1   7
DOCKED: ATOM      7  O   UNL d   1      -6.242 -11.702  13.995 -0.09 +0.06    -0.278 OA
DOCKED: BRANCH   7   8
DOCKED: ATOM      8  P   UNL d   1      -4.750 -11.134  13.930 -0.23 -0.11    +0.473 P 
DOCKED: ATOM      9  O   UNL d   1      -4.035 -11.089  15.235 -0.52 +0.04    -0.228 OA
DOCKED: BRANCH   8  10
DOCKED: ATOM     10  O   UNL d   1      -4.030 -12.063  12.851 -0.32 +0.10    -0.303 OA
DOCKED: ATOM     11  H   UNL d   1      -4.558 -12.871  12.711 +0.05 -0.08    +0.222 HD
DOCKED: ENDBRANCH   8  10
DOCKED: BRANCH   8  12
DOCKED: ATOM     12  O   UNL d   1      -4.867  -9.753  13.155 -0.29 +0.07    -0.303 OA
DOCKED: ATOM     13  H   UNL d   1      -5.281  -9.042  13.694 +0.13 -0.05    +0.222 HD
DOCKED: ENDBRANCH   8  12
DOCKED: ENDBRANCH   7   8
DOCKED: ENDBRANCH   1   7
DOCKED: BRANCH   2  14
DOCKED: ATOM     14  O   UNL d   1      -8.876 -11.056  13.758 -0.02 +0.05    -0.278 OA
DOCKED: BRANCH  14  15
DOCKED: ATOM     15  P   UNL d   1      -8.523  -9.969  14.879 +0.01 -0.08    +0.473 P 
DOCKED: ATOM     16  O   UNL d   1      -8.171 -10.493  16.236 -0.01 +0.03    -0.228 OA
DOCKED: BRANCH  15  17
DOCKED: ATOM     17  O   UNL d   1      -7.352  -9.107  14.228 -0.05 +0.06    -0.303 OA
DOCKED: ATOM     18  H   UNL d   1      -6.492  -9.563  14.309 +0.10 -0.04    +0.222 HD
DOCKED: ENDBRANCH  15  17
DOCKED: BRANCH  15  19
DOCKED: ATOM     19  O   UNL d   1      -9.737  -8.943  14.834 -0.00 +0.05    -0.303 OA
DOCKED: ATOM     20  H   UNL d   1     -10.290  -9.074  14.042 +0.02 -0.04    +0.222 HD
DOCKED: ENDBRANCH  15  19
DOCKED: ENDBRANCH  14  15
DOCKED: ENDBRANCH   2  14
DOCKED: BRANCH   6  21
DOCKED: ATOM     21  O   UNL d   1      -6.228 -14.305  12.811 -0.16 +0.10    -0.278 OA
DOCKED: BRANCH  21  22
DOCKED: ATOM     22  P   UNL d   1      -5.527 -14.794  14.157 -0.04 -0.16    +0.473 P 
DOCKED: ATOM     23  O   UNL d   1      -6.111 -14.353  15.457 -0.03 +0.06    -0.228 OA
DOCKED: BRANCH  22  24
DOCKED: ATOM     24  O   UNL d   1      -5.481 -16.371  13.946 -0.03 +0.11    -0.303 OA
DOCKED: ATOM     25  H   UNL d   1      -6.188 -16.615  13.296 +0.05 -0.09    +0.222 HD
DOCKED: ENDBRANCH  22  24
DOCKED: BRANCH  22  26
DOCKED: ATOM     26  O   UNL d   1      -4.000 -14.381  13.897 -0.13 +0.15    -0.303 OA
DOCKED: ATOM     27  H   UNL d   1      -3.935 -13.406  13.839 +0.06 -0.10    +0.222 HD
DOCKED: ENDBRANCH  22  26
DOCKED: ENDBRANCH  21  22
DOCKED: ENDBRANCH   6  21
DOCKED: BRANCH   3  28
DOCKED: ATOM     28  O   UNL d   1     -10.121 -10.651  11.449 -0.05 +0.07    -0.278 OA
DOCKED: BRANCH  28  29
DOCKED: ATOM     29  P   UNL d   1     -10.120  -9.139  10.946 -0.06 -0.16    +0.473 P 
DOCKED: ATOM     30  O   UNL d   1     -11.440  -8.604  10.525 -0.05 +0.08    -0.228 OA
DOCKED: BRANCH  29  31
DOCKED: ATOM     31  O   UNL d   1      -9.414  -8.430  12.195 -0.09 +0.12    -0.303 OA
DOCKED: ATOM     32  H   UNL d   1      -9.053  -9.128  12.789 +0.07 -0.06    +0.222 HD
DOCKED: ENDBRANCH  29  31
DOCKED: BRANCH  29  33
DOCKED: ATOM     33  O   UNL d   1      -8.966  -9.153   9.850 -0.07 +0.10    -0.303 OA
DOCKED: ATOM     34  H   UNL d   1      -8.966  -8.287   9.373 +0.11 -0.11    +0.222 HD
DOCKED: ENDBRANCH  29  33
DOCKED: ENDBRANCH  28  29
DOCKED: ENDBRANCH   3  28
DOCKED: BRANCH   5  35
DOCKED: ATOM     35  O   UNL d   1      -8.954 -15.086  12.111 -0.10 +0.12    -0.278 OA
DOCKED: BRANCH  35  36
DOCKED: ATOM     36  P   UNL d   1      -8.225 -16.496  11.947 -0.09 -0.25    +0.473 P 
DOCKED: ATOM     37  O   UNL d   1      -8.991 -17.534  11.192 -0.16 +0.16    -0.228 OA
DOCKED: BRANCH  36  38
DOCKED: ATOM     38  O   UNL d   1      -6.849 -16.073  11.266 -0.17 +0.20    -0.303 OA
DOCKED: ATOM     39  H   UNL d   1      -6.119 -16.202  11.910 +0.08 -0.12    +0.222 HD
DOCKED: ENDBRANCH  36  38
DOCKED: BRANCH  36  40
DOCKED: ATOM     40  O   UNL d   1      -7.819 -16.845  13.445 -0.02 +0.10    -0.303 OA
DOCKED: ATOM     41  H   UNL d   1      -7.488 -16.054  13.926 +0.03 -0.07    +0.222 HD
DOCKED: ENDBRANCH  36  40
DOCKED: ENDBRANCH  35  36
DOCKED: ENDBRANCH   5  35
DOCKED: BRANCH   4  42
DOCKED: ATOM     42  O   UNL d   1      -9.904 -13.191  10.113 -0.17 +0.12    -0.278 OA
DOCKED: BRANCH  42  43
DOCKED: ATOM     43  P   UNL d   1     -11.074 -14.266   9.969 -0.11 -0.15    +0.473 P 
DOCKED: ATOM     44  O   UNL d   1     -12.231 -13.910   9.102 -0.18 +0.04    -0.228 OA
DOCKED: BRANCH  43  45
DOCKED: ATOM     45  O   UNL d   1     -10.292 -15.573   9.508 -0.65 +0.17    -0.303 OA
DOCKED: ATOM     46  H   UNL d   1      -9.495 -15.724  10.054 -0.46 -0.20    +0.222 HD
DOCKED: ENDBRANCH  43  45
DOCKED: BRANCH  43  47
DOCKED: ATOM     47  O   UNL d   1     -11.433 -14.621  11.490 -0.03 +0.08    -0.303 OA
DOCKED: ATOM     48  H   UNL d   1     -10.902 -15.393  11.776 +0.04 -0.07    +0.222 HD
DOCKED: ENDBRANCH  43  47
DOCKED: ENDBRANCH  42  43
DOCKED: ENDBRANCH   4  42
DOCKED: TORSDOF 24
DOCKED: TER
DOCKED: ENDMDL
________________________________________________________________________________


	BEGINNING GENETIC ALGORITHM DOCKING 65 of 100
Run: 65 Seed: 1945245938 78102679 [ Run 65 of 100 GA/GALS ]
Beginning LAMARCKIAN GENETIC ALGORITHM (LGA), with a maximum of 25000000 energy evaluations.

Final-Value: -16.384


	FINAL GENETIC ALGORITHM DOCKED STATE
	_______________________________________________


Detailed state:  trans 4.449 -22.331 -12.810 quatxyzw -0.307816 -0.767274 0.415355 -0.379499 center 0.035 0.082 -0.065 ntor 24 180.0000 -4.7216 98.6560 40.3671 175.3803 65.3661 -104.6410 5.5777 172.7684 -14.0506 25.5675 168.9376 47.3286 127.8168 -160.3668 -175.3346 -122.8042 168.9269 -1.2407 -9.2451 -39.9378 14.4876 154.8783 -10.7811
State:	  4.449 -22.331 -12.810  -0.333 -0.829  0.449 -135.395    180.00   -4.72   98.66   40.37  175.38   65.37 -104.64    5.58  172.77  -14.05   25.57  168.94   47.33  127.82 -160.37 -175.33 -122.80  168.93   -1.24   -9.25  -39.94   14.49  154.88  -10.78

DOCKED: MODEL       65
DOCKED: USER    Run = 65
DOCKED: USER    DPF = D:/Protein_go_brrr/autodock/final/mut_N102T/IHP/dock.dpf
DOCKED: USER  
DOCKED: USER    Estimated Free Energy of Binding    =   +4.90 kcal/mol  [=(1)+(2)+(3)-(4)]
DOCKED: USER    
DOCKED: USER    (1) Final Intermolecular Energy     =   -2.26 kcal/mol
DOCKED: USER        vdW + Hbond + desolv Energy     =   -1.79 kcal/mol
DOCKED: USER        Electrostatic Energy            =   -0.47 kcal/mol
DOCKED: USER    (2) Final Total Internal Energy     =  -14.12 kcal/mol
DOCKED: USER    (3) Torsional Free Energy           =   +7.16 kcal/mol
DOCKED: USER    (4) Unbound System's Energy  [=(2)] =  -14.12 kcal/mol
DOCKED: USER    
DOCKED: USER    
DOCKED: USER    NEWDPF move IHP_ideal_opt.pdbqt
DOCKED: USER    NEWDPF about 0.035000 0.082000 -0.065000
DOCKED: USER    NEWDPF tran0 4.449318 -22.330947 -12.810017
DOCKED: USER    NEWDPF quaternion0 -0.307816 -0.767274 0.415355 -0.379499
DOCKED: USER    NEWDPF axisangle0 -0.332705 -0.829314 0.448939 -135.394690
DOCKED: USER    NEWDPF quat0 -0.332705 -0.829314 0.448939 -135.394690
DOCKED: USER    NEWDPF dihe0 180.00 -4.72 98.66 40.37 175.38 65.37 -104.64 5.58 172.77 -14.05 25.57 168.94 47.33 127.82 -160.37 -175.33 -122.80 168.93 -1.24 -9.25 -39.94 14.49 154.88 -10.78 
DOCKED: USER  keepresnum = 1 
DOCKED: USER  
DOCKED: REMARK  24 active torsions:
DOCKED: REMARK  status: ('A' for Active; 'I' for Inactive)
DOCKED: REMARK    1  A    between atoms: C_1  and  O_7 
DOCKED: REMARK    2  A    between atoms: C_2  and  O_12 
DOCKED: REMARK    3  A    between atoms: C_3  and  O_17 
DOCKED: REMARK    4  A    between atoms: C_4  and  O_22 
DOCKED: REMARK    5  A    between atoms: C_5  and  O_27 
DOCKED: REMARK    6  A    between atoms: C_6  and  O_32 
DOCKED: REMARK    7  A    between atoms: O_7  and  P_8 
DOCKED: REMARK    8  A    between atoms: P_8  and  O_10 
DOCKED: REMARK    9  A    between atoms: P_8  and  O_11 
DOCKED: REMARK   10  A    between atoms: O_12  and  P_13 
DOCKED: REMARK   11  A    between atoms: P_13  and  O_15 
DOCKED: REMARK   12  A    between atoms: P_13  and  O_16 
DOCKED: REMARK   13  A    between atoms: O_17  and  P_18 
DOCKED: REMARK   14  A    between atoms: P_18  and  O_20 
DOCKED: REMARK   15  A    between atoms: P_18  and  O_21 
DOCKED: REMARK   16  A    between atoms: O_22  and  P_23 
DOCKED: REMARK   17  A    between atoms: P_23  and  O_25 
DOCKED: REMARK   18  A    between atoms: P_23  and  O_26 
DOCKED: REMARK   19  A    between atoms: O_27  and  P_28 
DOCKED: REMARK   20  A    between atoms: P_28  and  O_30 
DOCKED: REMARK   21  A    between atoms: P_28  and  O_31 
DOCKED: REMARK   22  A    between atoms: O_32  and  P_33 
DOCKED: REMARK   23  A    between atoms: P_33  and  O_35 
DOCKED: REMARK   24  A    between atoms: P_33  and  O_36 
DOCKED: USER                              x       y       z     vdW  Elec       q    Type
DOCKED: USER                           _______ _______ _______ _____ _____    ______ ____
DOCKED: ROOT
DOCKED: ATOM      1  C   UNL d   1       2.992 -22.077 -11.917 -0.01 -0.02    +0.194 C 
DOCKED: ATOM      2  C   UNL d   1       3.827 -23.285 -11.489 -0.00 -0.01    +0.194 C 
DOCKED: ATOM      3  C   UNL d   1       4.354 -24.065 -12.696 +0.00 -0.01    +0.194 C 
DOCKED: ATOM      4  C   UNL d   1       5.086 -23.187 -13.707 +0.00 -0.02    +0.194 C 
DOCKED: ATOM      5  C   UNL d   1       4.340 -21.911 -14.076 -0.00 -0.02    +0.194 C 
DOCKED: ATOM      6  C   UNL d   1       3.760 -21.163 -12.874 -0.02 -0.04    +0.194 C 
DOCKED: ENDROOT
DOCKED: BRANCH   1   7
DOCKED: ATOM      7  O   UNL d   1       2.686 -21.310 -10.750 -0.03 +0.03    -0.278 OA
DOCKED: BRANCH   7   8
DOCKED: ATOM      8  P   UNL d   1       1.152 -21.013 -10.419 -0.04 -0.02    +0.473 P 
DOCKED: ATOM      9  O   UNL d   1       0.542 -21.908  -9.397 -0.04 -0.01    -0.228 OA
DOCKED: BRANCH   8  10
DOCKED: ATOM     10  O   UNL d   1       1.139 -19.475  -9.994 -0.10 +0.04    -0.303 OA
DOCKED: ATOM     11  H   UNL d   1       1.924 -19.028 -10.363 -0.02 -0.07    +0.222 HD
DOCKED: ENDBRANCH   8  10
DOCKED: BRANCH   8  12
DOCKED: ATOM     12  O   UNL d   1       0.424 -20.974 -11.830 -0.05 +0.00    -0.303 OA
DOCKED: ATOM     13  H   UNL d   1       0.877 -20.393 -12.482 +0.04 -0.01    +0.222 HD
DOCKED: ENDBRANCH   8  12
DOCKED: ENDBRANCH   7   8
DOCKED: ENDBRANCH   1   7
DOCKED: BRANCH   2  14
DOCKED: ATOM     14  O   UNL d   1       4.945 -22.830 -10.716 -0.00 +0.03    -0.278 OA
DOCKED: BRANCH  14  15
DOCKED: ATOM     15  P   UNL d   1       5.080 -23.424  -9.236 +0.01 -0.03    +0.473 P 
DOCKED: ATOM     16  O   UNL d   1       6.202 -22.894  -8.399 -0.01 +0.01    -0.228 OA
DOCKED: BRANCH  15  17
DOCKED: ATOM     17  O   UNL d   1       3.649 -23.169  -8.583 -0.00 +0.01    -0.303 OA
DOCKED: ATOM     18  H   UNL d   1       3.035 -22.769  -9.228 +0.02 -0.01    +0.222 HD
DOCKED: ENDBRANCH  15  17
DOCKED: BRANCH  15  19
DOCKED: ATOM     19  O   UNL d   1       5.062 -25.002  -9.438 +0.00 +0.01    -0.303 OA
DOCKED: ATOM     20  H   UNL d   1       4.682 -25.250 -10.301 +0.00 -0.01    +0.222 HD
DOCKED: ENDBRANCH  15  19
DOCKED: ENDBRANCH  14  15
DOCKED: ENDBRANCH   2  14
DOCKED: BRANCH   6  21
DOCKED: ATOM     21  O   UNL d   1       2.825 -20.217 -13.389 -0.04 +0.06    -0.278 OA
DOCKED: BRANCH  21  22
DOCKED: ATOM     22  P   UNL d   1       2.707 -18.775 -12.717 -0.07 -0.20    +0.473 P 
DOCKED: ATOM     23  O   UNL d   1       1.349 -18.278 -12.350 -0.23 +0.04    -0.228 OA
DOCKED: BRANCH  22  24
DOCKED: ATOM     24  O   UNL d   1       3.725 -18.899 -11.500 -0.12 +0.26    -0.303 OA
DOCKED: ATOM     25  H   UNL d   1       4.514 -18.334 -11.700 -0.43 -0.47    +0.222 HD
DOCKED: ENDBRANCH  22  24
DOCKED: BRANCH  22  26
DOCKED: ATOM     26  O   UNL d   1       3.533 -17.867 -13.748 -0.08 +0.22    -0.303 OA
DOCKED: ATOM     27  H   UNL d   1       4.377 -17.597 -13.334 -0.49 -0.41    +0.222 HD
DOCKED: ENDBRANCH  22  26
DOCKED: ENDBRANCH  21  22
DOCKED: ENDBRANCH   6  21
DOCKED: BRANCH   3  28
DOCKED: ATOM     28  O   UNL d   1       5.329 -24.984 -12.218 +0.00 +0.01    -0.278 OA
DOCKED: BRANCH  28  29
DOCKED: ATOM     29  P   UNL d   1       5.192 -26.539 -12.536 +0.00 -0.01    +0.473 P 
DOCKED: ATOM     30  O   UNL d   1       6.449 -27.325 -12.441 +0.00 +0.00    -0.228 OA
DOCKED: BRANCH  29  31
DOCKED: ATOM     31  O   UNL d   1       4.015 -26.928 -11.525 +0.00 +0.00    -0.303 OA
DOCKED: ATOM     32  H   UNL d   1       4.263 -26.624 -10.622 +0.00 -0.00    +0.222 HD
DOCKED: ENDBRANCH  29  31
DOCKED: BRANCH  29  33
DOCKED: ATOM     33  O   UNL d   1       4.455 -26.528 -13.947 +0.00 +0.01    -0.303 OA
DOCKED: ATOM     34  H   UNL d   1       5.051 -26.112 -14.618 +0.00 -0.01    +0.222 HD
DOCKED: ENDBRANCH  29  33
DOCKED: ENDBRANCH  28  29
DOCKED: ENDBRANCH   3  28
DOCKED: BRANCH   5  35
DOCKED: ATOM     35  O   UNL d   1       5.310 -21.055 -14.675 -0.00 +0.05    -0.278 OA
DOCKED: BRANCH  35  36
DOCKED: ATOM     36  P   UNL d   1       6.399 -20.318 -13.773 -0.01 -0.14    +0.473 P 
DOCKED: ATOM     37  O   UNL d   1       5.917 -19.106 -13.040 -0.04 +0.20    -0.228 OA
DOCKED: BRANCH  36  38
DOCKED: ATOM     38  O   UNL d   1       6.894 -21.500 -12.828 -0.00 +0.06    -0.303 OA
DOCKED: ATOM     39  H   UNL d   1       7.765 -21.823 -13.146 +0.00 -0.03    +0.222 HD
DOCKED: ENDBRANCH  36  38
DOCKED: BRANCH  36  40
DOCKED: ATOM     40  O   UNL d   1       7.603 -20.113 -14.792 -0.00 +0.06    -0.303 OA
DOCKED: ATOM     41  H   UNL d   1       7.889 -20.964 -15.194 +0.00 -0.03    +0.222 HD
DOCKED: ENDBRANCH  36  40
DOCKED: ENDBRANCH  35  36
DOCKED: ENDBRANCH   5  35
DOCKED: BRANCH   4  42
DOCKED: ATOM     42  O   UNL d   1       5.220 -23.958 -14.906 +0.00 +0.01    -0.278 OA
DOCKED: BRANCH  42  43
DOCKED: ATOM     43  P   UNL d   1       6.680 -24.231 -15.489 +0.00 -0.02    +0.473 P 
DOCKED: ATOM     44  O   UNL d   1       6.829 -24.286 -16.970 +0.00 +0.01    -0.228 OA
DOCKED: BRANCH  43  45
DOCKED: ATOM     45  O   UNL d   1       7.552 -23.099 -14.789 +0.00 +0.02    -0.303 OA
DOCKED: ATOM     46  H   UNL d   1       7.120 -22.223 -14.852 +0.00 -0.02    +0.222 HD
DOCKED: ENDBRANCH  43  45
DOCKED: BRANCH  43  47
DOCKED: ATOM     47  O   UNL d   1       7.152 -25.542 -14.696 +0.00 +0.01    -0.303 OA
DOCKED: ATOM     48  H   UNL d   1       6.535 -25.709 -13.954 +0.00 -0.01    +0.222 HD
DOCKED: ENDBRANCH  43  47
DOCKED: ENDBRANCH  42  43
DOCKED: ENDBRANCH   4  42
DOCKED: TORSDOF 24
DOCKED: TER
DOCKED: ENDMDL
________________________________________________________________________________


	BEGINNING GENETIC ALGORITHM DOCKING 66 of 100
Run: 66 Seed: 491863519 1360246868 [ Run 66 of 100 GA/GALS ]
Beginning LAMARCKIAN GENETIC ALGORITHM (LGA), with a maximum of 25000000 energy evaluations.

Final-Value: -18.286


	FINAL GENETIC ALGORITHM DOCKED STATE
	_______________________________________________


Detailed state:  trans -10.041 -10.945 0.934 quatxyzw -0.577419 0.105806 0.741904 0.323990 center 0.035 0.082 -0.065 ntor 24 -136.7815 -21.3878 133.3033 118.2508 6.7344 -133.0564 -123.7394 -7.7588 -132.2376 48.6150 90.6952 105.7387 62.6387 84.0565 -58.3349 21.8873 -2.1776 -177.6884 -21.8567 -14.0185 -13.9306 -32.1755 169.7835 14.4651
State:	-10.041 -10.945   0.934  -0.610  0.112  0.784 142.191   -136.78  -21.39  133.30  118.25    6.73 -133.06 -123.74   -7.76 -132.24   48.61   90.70  105.74   62.64   84.06  -58.33   21.89   -2.18 -177.69  -21.86  -14.02  -13.93  -32.18  169.78   14.47

DOCKED: MODEL       66
DOCKED: USER    Run = 66
DOCKED: USER    DPF = D:/Protein_go_brrr/autodock/final/mut_N102T/IHP/dock.dpf
DOCKED: USER  
DOCKED: USER    Estimated Free Energy of Binding    =   +2.81 kcal/mol  [=(1)+(2)+(3)-(4)]
DOCKED: USER    
DOCKED: USER    (1) Final Intermolecular Energy     =   -4.35 kcal/mol
DOCKED: USER        vdW + Hbond + desolv Energy     =   -4.29 kcal/mol
DOCKED: USER        Electrostatic Energy            =   -0.06 kcal/mol
DOCKED: USER    (2) Final Total Internal Energy     =  -13.94 kcal/mol
DOCKED: USER    (3) Torsional Free Energy           =   +7.16 kcal/mol
DOCKED: USER    (4) Unbound System's Energy  [=(2)] =  -13.94 kcal/mol
DOCKED: USER    
DOCKED: USER    
DOCKED: USER    NEWDPF move IHP_ideal_opt.pdbqt
DOCKED: USER    NEWDPF about 0.035000 0.082000 -0.065000
DOCKED: USER    NEWDPF tran0 -10.041489 -10.945289 0.934307
DOCKED: USER    NEWDPF quaternion0 -0.577419 0.105806 0.741904 0.323990
DOCKED: USER    NEWDPF axisangle0 -0.610341 0.111839 0.784204 142.191208
DOCKED: USER    NEWDPF quat0 -0.610341 0.111839 0.784204 142.191208
DOCKED: USER    NEWDPF dihe0 -136.78 -21.39 133.30 118.25 6.73 -133.06 -123.74 -7.76 -132.24 48.61 90.70 105.74 62.64 84.06 -58.33 21.89 -2.18 -177.69 -21.86 -14.02 -13.93 -32.18 169.78 14.47 
DOCKED: USER  keepresnum = 1 
DOCKED: USER  
DOCKED: REMARK  24 active torsions:
DOCKED: REMARK  status: ('A' for Active; 'I' for Inactive)
DOCKED: REMARK    1  A    between atoms: C_1  and  O_7 
DOCKED: REMARK    2  A    between atoms: C_2  and  O_12 
DOCKED: REMARK    3  A    between atoms: C_3  and  O_17 
DOCKED: REMARK    4  A    between atoms: C_4  and  O_22 
DOCKED: REMARK    5  A    between atoms: C_5  and  O_27 
DOCKED: REMARK    6  A    between atoms: C_6  and  O_32 
DOCKED: REMARK    7  A    between atoms: O_7  and  P_8 
DOCKED: REMARK    8  A    between atoms: P_8  and  O_10 
DOCKED: REMARK    9  A    between atoms: P_8  and  O_11 
DOCKED: REMARK   10  A    between atoms: O_12  and  P_13 
DOCKED: REMARK   11  A    between atoms: P_13  and  O_15 
DOCKED: REMARK   12  A    between atoms: P_13  and  O_16 
DOCKED: REMARK   13  A    between atoms: O_17  and  P_18 
DOCKED: REMARK   14  A    between atoms: P_18  and  O_20 
DOCKED: REMARK   15  A    between atoms: P_18  and  O_21 
DOCKED: REMARK   16  A    between atoms: O_22  and  P_23 
DOCKED: REMARK   17  A    between atoms: P_23  and  O_25 
DOCKED: REMARK   18  A    between atoms: P_23  and  O_26 
DOCKED: REMARK   19  A    between atoms: O_27  and  P_28 
DOCKED: REMARK   20  A    between atoms: P_28  and  O_30 
DOCKED: REMARK   21  A    between atoms: P_28  and  O_31 
DOCKED: REMARK   22  A    between atoms: O_32  and  P_33 
DOCKED: REMARK   23  A    between atoms: P_33  and  O_35 
DOCKED: REMARK   24  A    between atoms: P_33  and  O_36 
DOCKED: USER                              x       y       z     vdW  Elec       q    Type
DOCKED: USER                           _______ _______ _______ _____ _____    ______ ____
DOCKED: ROOT
DOCKED: ATOM      1  C   UNL d   1     -11.246 -11.191  -0.279 -0.05 -0.01    +0.194 C 
DOCKED: ATOM      2  C   UNL d   1     -11.039  -9.741   0.163 -0.07 -0.02    +0.194 C 
DOCKED: ATOM      3  C   UNL d   1     -10.897  -9.627   1.682 -0.06 -0.02    +0.194 C 
DOCKED: ATOM      4  C   UNL d   1      -9.839 -10.563   2.259 -0.14 -0.01    +0.194 C 
DOCKED: ATOM      5  C   UNL d   1      -9.937 -11.997   1.755 -0.13 -0.01    +0.194 C 
DOCKED: ATOM      6  C   UNL d   1     -10.141 -12.110   0.243 -0.10 -0.00    +0.194 C 
DOCKED: ENDROOT
DOCKED: BRANCH   1   7
DOCKED: ATOM      7  O   UNL d   1     -11.196 -11.233  -1.707 -0.05 -0.01    -0.278 OA
DOCKED: BRANCH   7   8
DOCKED: ATOM      8  P   UNL d   1     -12.153 -12.260  -2.470 -0.00 +0.03    +0.473 P 
DOCKED: ATOM      9  O   UNL d   1     -13.207 -11.632  -3.314 -0.00 -0.01    -0.228 OA
DOCKED: BRANCH   8  10
DOCKED: ATOM     10  O   UNL d   1     -11.149 -13.181  -3.300 -0.01 -0.04    -0.303 OA
DOCKED: ATOM     11  H   UNL d   1     -10.597 -13.698  -2.686 +0.02 +0.04    +0.222 HD
DOCKED: ENDBRANCH   8  10
DOCKED: BRANCH   8  12
DOCKED: ATOM     12  O   UNL d   1     -12.668 -13.258  -1.346 +0.00 -0.01    -0.303 OA
DOCKED: ATOM     13  H   UNL d   1     -11.952 -13.819  -0.972 +0.02 +0.01    +0.222 HD
DOCKED: ENDBRANCH   8  12
DOCKED: ENDBRANCH   7   8
DOCKED: ENDBRANCH   1   7
DOCKED: BRANCH   2  14
DOCKED: ATOM     14  O   UNL d   1      -9.846  -9.233  -0.447 +0.01 +0.08    -0.278 OA
DOCKED: BRANCH  14  15
DOCKED: ATOM     15  P   UNL d   1     -10.024  -7.995  -1.447 +0.02 -0.04    +0.473 P 
DOCKED: ATOM     16  O   UNL d   1      -8.991  -6.915  -1.371 -0.23 +0.02    -0.228 OA
DOCKED: BRANCH  15  17
DOCKED: ATOM     17  O   UNL d   1     -10.106  -8.670  -2.888 -0.58 -0.04    -0.303 OA
DOCKED: ATOM     18  H   UNL d   1     -10.602  -9.511  -2.855 +0.02 +0.02    +0.222 HD
DOCKED: ENDBRANCH  15  17
DOCKED: BRANCH  15  19
DOCKED: ATOM     19  O   UNL d   1     -11.528  -7.523  -1.230 -0.03 +0.00    -0.303 OA
DOCKED: ATOM     20  H   UNL d   1     -11.697  -7.274  -0.302 +0.04 -0.01    +0.222 HD
DOCKED: ENDBRANCH  15  19
DOCKED: ENDBRANCH  14  15
DOCKED: ENDBRANCH   2  14
DOCKED: BRANCH   6  21
DOCKED: ATOM     21  O   UNL d   1     -10.552 -13.449  -0.019 -0.03 -0.01    -0.278 OA
DOCKED: BRANCH  21  22
DOCKED: ATOM     22  P   UNL d   1      -9.625 -14.404  -0.898 -0.00 +0.09    +0.473 P 
DOCKED: ATOM     23  O   UNL d   1      -8.737 -13.779  -1.921 -0.09 -0.07    -0.228 OA
DOCKED: BRANCH  22  24
DOCKED: ATOM     24  O   UNL d   1      -8.866 -15.243   0.221 -0.04 -0.07    -0.303 OA
DOCKED: ATOM     25  H   UNL d   1      -8.367 -14.608   0.796 +0.09 +0.04    +0.222 HD
DOCKED: ENDBRANCH  22  24
DOCKED: BRANCH  22  26
DOCKED: ATOM     26  O   UNL d   1     -10.687 -15.472  -1.448 +0.00 -0.05    -0.303 OA
DOCKED: ATOM     27  H   UNL d   1     -11.430 -14.998  -1.874 +0.01 +0.03    +0.222 HD
DOCKED: ENDBRANCH  22  26
DOCKED: ENDBRANCH  21  22
DOCKED: ENDBRANCH   6  21
DOCKED: BRANCH   3  28
DOCKED: ATOM     28  O   UNL d   1     -10.437  -8.313   1.971 -0.05 +0.05    -0.278 OA
DOCKED: BRANCH  28  29
DOCKED: ATOM     29  P   UNL d   1     -11.450  -7.084   1.953 -0.03 -0.10    +0.473 P 
DOCKED: ATOM     30  O   UNL d   1     -12.838  -7.403   1.530 -0.02 +0.03    -0.228 OA
DOCKED: BRANCH  29  31
DOCKED: ATOM     31  O   UNL d   1     -11.254  -6.538   3.445 -0.11 +0.17    -0.303 OA
DOCKED: ATOM     32  H   UNL d   1     -11.676  -7.172   4.069 +0.07 -0.09    +0.222 HD
DOCKED: ENDBRANCH  29  31
DOCKED: BRANCH  29  33
DOCKED: ATOM     33  O   UNL d   1     -10.660  -6.012   1.080 -0.07 +0.04    -0.303 OA
DOCKED: ATOM     34  H   UNL d   1     -10.368  -6.437   0.237 +0.08 -0.01    +0.222 HD
DOCKED: ENDBRANCH  29  33
DOCKED: ENDBRANCH  28  29
DOCKED: ENDBRANCH   3  28
DOCKED: BRANCH   5  35
DOCKED: ATOM     35  O   UNL d   1      -8.680 -12.600   2.056 -0.20 +0.00    -0.278 OA
DOCKED: BRANCH  35  36
DOCKED: ATOM     36  P   UNL d   1      -7.334 -11.999   1.447 -0.22 -0.00    +0.473 P 
DOCKED: ATOM     37  O   UNL d   1      -7.231 -10.507   1.458 -0.33 +0.03    -0.228 OA
DOCKED: BRANCH  36  38
DOCKED: ATOM     38  O   UNL d   1      -6.224 -12.738   2.318 -0.38 +0.03    -0.303 OA
DOCKED: ATOM     39  H   UNL d   1      -5.375 -12.735   1.826 -0.44 -0.08    +0.222 HD
DOCKED: ENDBRANCH  36  38
DOCKED: BRANCH  36  40
DOCKED: ATOM     40  O   UNL d   1      -7.250 -12.718   0.031 -0.19 -0.06    -0.303 OA
DOCKED: ATOM     41  H   UNL d   1      -8.061 -13.238  -0.162 +0.08 +0.04    +0.222 HD
DOCKED: ENDBRANCH  36  40
DOCKED: ENDBRANCH  35  36
DOCKED: ENDBRANCH   5  35
DOCKED: BRANCH   4  42
DOCKED: ATOM     42  O   UNL d   1     -10.045 -10.599   3.676 -0.54 -0.01    -0.278 OA
DOCKED: BRANCH  42  43
DOCKED: ATOM     43  P   UNL d   1      -9.167  -9.648   4.607 -0.09 -0.04    +0.473 P 
DOCKED: ATOM     44  O   UNL d   1      -8.524 -10.261   5.803 -0.36 +0.02    -0.228 OA
DOCKED: BRANCH  43  45
DOCKED: ATOM     45  O   UNL d   1      -8.142  -9.000   3.577 -0.21 +0.04    -0.303 OA
DOCKED: ATOM     46  H   UNL d   1      -8.451  -9.098   2.655 +0.12 -0.03    +0.222 HD
DOCKED: ENDBRANCH  43  45
DOCKED: BRANCH  43  47
DOCKED: ATOM     47  O   UNL d   1     -10.151  -8.418   4.905 -0.12 +0.08    -0.303 OA
DOCKED: ATOM     48  H   UNL d   1     -10.205  -7.848   4.110 +0.10 -0.07    +0.222 HD
DOCKED: ENDBRANCH  43  47
DOCKED: ENDBRANCH  42  43
DOCKED: ENDBRANCH   4  42
DOCKED: TORSDOF 24
DOCKED: TER
DOCKED: ENDMDL
________________________________________________________________________________


	BEGINNING GENETIC ALGORITHM DOCKING 67 of 100
Run: 67 Seed: 819959889 1323958643 [ Run 67 of 100 GA/GALS ]
Beginning LAMARCKIAN GENETIC ALGORITHM (LGA), with a maximum of 25000000 energy evaluations.

Final-Value: -18.687


	FINAL GENETIC ALGORITHM DOCKED STATE
	_______________________________________________


Detailed state:  trans 13.166 0.546 12.389 quatxyzw 0.800938 0.038006 -0.534043 0.268051 center 0.035 0.082 -0.065 ntor 24 114.6373 27.0012 149.7895 -7.2902 -112.9014 -148.1192 -35.0432 35.0239 -9.0452 64.9362 91.1859 -99.9500 162.7434 -174.6335 13.3739 120.2793 -95.6580 -109.8076 48.8114 6.4210 166.3257 -1.5608 2.1623 161.8669
State:	 13.166   0.546  12.389   0.831  0.039 -0.554 148.903    114.64   27.00  149.79   -7.29 -112.90 -148.12  -35.04   35.02   -9.05   64.94   91.19  -99.95  162.74 -174.63   13.37  120.28  -95.66 -109.81   48.81    6.42  166.33   -1.56    2.16  161.87

DOCKED: MODEL       67
DOCKED: USER    Run = 67
DOCKED: USER    DPF = D:/Protein_go_brrr/autodock/final/mut_N102T/IHP/dock.dpf
DOCKED: USER  
DOCKED: USER    Estimated Free Energy of Binding    =   +2.07 kcal/mol  [=(1)+(2)+(3)-(4)]
DOCKED: USER    
DOCKED: USER    (1) Final Intermolecular Energy     =   -5.09 kcal/mol
DOCKED: USER        vdW + Hbond + desolv Energy     =   -4.78 kcal/mol
DOCKED: USER        Electrostatic Energy            =   -0.31 kcal/mol
DOCKED: USER    (2) Final Total Internal Energy     =  -13.60 kcal/mol
DOCKED: USER    (3) Torsional Free Energy           =   +7.16 kcal/mol
DOCKED: USER    (4) Unbound System's Energy  [=(2)] =  -13.60 kcal/mol
DOCKED: USER    
DOCKED: USER    
DOCKED: USER    NEWDPF move IHP_ideal_opt.pdbqt
DOCKED: USER    NEWDPF about 0.035000 0.082000 -0.065000
DOCKED: USER    NEWDPF tran0 13.165603 0.546113 12.388616
DOCKED: USER    NEWDPF quaternion0 0.800938 0.038006 -0.534043 0.268051
DOCKED: USER    NEWDPF axisangle0 0.831362 0.039450 -0.554329 148.903318
DOCKED: USER    NEWDPF quat0 0.831362 0.039450 -0.554329 148.903318
DOCKED: USER    NEWDPF dihe0 114.64 27.00 149.79 -7.29 -112.90 -148.12 -35.04 35.02 -9.05 64.94 91.19 -99.95 162.74 -174.63 13.37 120.28 -95.66 -109.81 48.81 6.42 166.33 -1.56 2.16 161.87 
DOCKED: USER  keepresnum = 1 
DOCKED: USER  
DOCKED: REMARK  24 active torsions:
DOCKED: REMARK  status: ('A' for Active; 'I' for Inactive)
DOCKED: REMARK    1  A    between atoms: C_1  and  O_7 
DOCKED: REMARK    2  A    between atoms: C_2  and  O_12 
DOCKED: REMARK    3  A    between atoms: C_3  and  O_17 
DOCKED: REMARK    4  A    between atoms: C_4  and  O_22 
DOCKED: REMARK    5  A    between atoms: C_5  and  O_27 
DOCKED: REMARK    6  A    between atoms: C_6  and  O_32 
DOCKED: REMARK    7  A    between atoms: O_7  and  P_8 
DOCKED: REMARK    8  A    between atoms: P_8  and  O_10 
DOCKED: REMARK    9  A    between atoms: P_8  and  O_11 
DOCKED: REMARK   10  A    between atoms: O_12  and  P_13 
DOCKED: REMARK   11  A    between atoms: P_13  and  O_15 
DOCKED: REMARK   12  A    between atoms: P_13  and  O_16 
DOCKED: REMARK   13  A    between atoms: O_17  and  P_18 
DOCKED: REMARK   14  A    between atoms: P_18  and  O_20 
DOCKED: REMARK   15  A    between atoms: P_18  and  O_21 
DOCKED: REMARK   16  A    between atoms: O_22  and  P_23 
DOCKED: REMARK   17  A    between atoms: P_23  and  O_25 
DOCKED: REMARK   18  A    between atoms: P_23  and  O_26 
DOCKED: REMARK   19  A    between atoms: O_27  and  P_28 
DOCKED: REMARK   20  A    between atoms: P_28  and  O_30 
DOCKED: REMARK   21  A    between atoms: P_28  and  O_31 
DOCKED: REMARK   22  A    between atoms: O_32  and  P_33 
DOCKED: REMARK   23  A    between atoms: P_33  and  O_35 
DOCKED: REMARK   24  A    between atoms: P_33  and  O_36 
DOCKED: USER                              x       y       z     vdW  Elec       q    Type
DOCKED: USER                           _______ _______ _______ _____ _____    ______ ____
DOCKED: ROOT
DOCKED: ATOM      1  C   UNL d   1      13.208   2.046  11.533 -0.11 +0.05    +0.194 C 
DOCKED: ATOM      2  C   UNL d   1      13.180   2.156  13.059 -0.10 +0.06    +0.194 C 
DOCKED: ATOM      3  C   UNL d   1      12.181   1.176  13.679 -0.09 +0.06    +0.194 C 
DOCKED: ATOM      4  C   UNL d   1      12.379  -0.263  13.207 -0.03 +0.05    +0.194 C 
DOCKED: ATOM      5  C   UNL d   1      12.527  -0.406  11.698 -0.05 +0.07    +0.194 C 
DOCKED: ATOM      6  C   UNL d   1      13.478   0.615  11.069 -0.05 +0.06    +0.194 C 
DOCKED: ENDROOT
DOCKED: BRANCH   1   7
DOCKED: ATOM      7  O   UNL d   1      14.277   2.861  11.048 -0.07 -0.06    -0.278 OA
DOCKED: BRANCH   7   8
DOCKED: ATOM      8  P   UNL d   1      14.092   4.448  11.068 -0.14 +0.12    +0.473 P 
DOCKED: ATOM      9  O   UNL d   1      14.736   5.173   9.939 -0.15 -0.04    -0.228 OA
DOCKED: BRANCH   8  10
DOCKED: ATOM     10  O   UNL d   1      12.511   4.652  11.125 -0.14 -0.11    -0.303 OA
DOCKED: ATOM     11  H   UNL d   1      12.079   4.036  10.505 +0.09 +0.06    +0.222 HD
DOCKED: ENDBRANCH   8  10
DOCKED: BRANCH   8  12
DOCKED: ATOM     12  O   UNL d   1      14.539   4.897  12.525 -0.12 -0.10    -0.303 OA
DOCKED: ATOM     13  H   UNL d   1      14.550   4.155  13.171 +0.05 +0.08    +0.222 HD
DOCKED: ENDBRANCH   8  12
DOCKED: ENDBRANCH   7   8
DOCKED: ENDBRANCH   1   7
DOCKED: BRANCH   2  14
DOCKED: ATOM     14  O   UNL d   1      14.485   1.863  13.572 -0.02 -0.07    -0.278 OA
DOCKED: BRANCH  14  15
DOCKED: ATOM     15  P   UNL d   1      15.015   2.801  14.758 -0.03 +0.15    +0.473 P 
DOCKED: ATOM     16  O   UNL d   1      16.263   3.581  14.491 -0.02 -0.05    -0.228 OA
DOCKED: BRANCH  15  17
DOCKED: ATOM     17  O   UNL d   1      13.768   3.730  15.103 -0.09 -0.21    -0.303 OA
DOCKED: ATOM     18  H   UNL d   1      12.973   3.196  15.295 +0.05 +0.17    +0.222 HD
DOCKED: ENDBRANCH  15  17
DOCKED: BRANCH  15  19
DOCKED: ATOM     19  O   UNL d   1      15.062   1.844  16.028 -0.01 -0.08    -0.303 OA
DOCKED: ATOM     20  H   UNL d   1      14.169   1.568  16.305 +0.02 +0.07    +0.222 HD
DOCKED: ENDBRANCH  15  19
DOCKED: ENDBRANCH  14  15
DOCKED: ENDBRANCH   2  14
DOCKED: BRANCH   6  21
DOCKED: ATOM     21  O   UNL d   1      13.249   0.581   9.663 -0.08 -0.10    -0.278 OA
DOCKED: BRANCH  21  22
DOCKED: ATOM     22  P   UNL d   1      11.829   1.017   9.081 -0.24 +0.18    +0.473 P 
DOCKED: ATOM     23  O   UNL d   1      11.184   2.241   9.641 -0.43 -0.06    -0.228 OA
DOCKED: BRANCH  22  24
DOCKED: ATOM     24  O   UNL d   1      12.120   1.072   7.517 -0.29 -0.08    -0.303 OA
DOCKED: ATOM     25  H   UNL d   1      11.289   1.355   7.059 -0.11 +0.03    +0.222 HD
DOCKED: ENDBRANCH  22  24
DOCKED: BRANCH  22  26
DOCKED: ATOM     26  O   UNL d   1      10.990  -0.343   9.214 -0.72 -0.24    -0.303 OA
DOCKED: ATOM     27  H   UNL d   1      11.241  -0.795  10.045 +0.07 +0.17    +0.222 HD
DOCKED: ENDBRANCH  22  26
DOCKED: ENDBRANCH  21  22
DOCKED: ENDBRANCH   6  21
DOCKED: BRANCH   3  28
DOCKED: ATOM     28  O   UNL d   1      12.421   1.149  15.080 -0.05 -0.10    -0.278 OA
DOCKED: BRANCH  28  29
DOCKED: ATOM     29  P   UNL d   1      11.376   1.804  16.088 -0.18 +0.25    +0.473 P 
DOCKED: ATOM     30  O   UNL d   1      10.368   0.875  16.660 -0.14 -0.11    -0.228 OA
DOCKED: BRANCH  29  31
DOCKED: ATOM     31  O   UNL d   1      12.382   2.507  17.116 -0.16 -0.23    -0.303 OA
DOCKED: ATOM     32  H   UNL d   1      13.271   2.562  16.696 +0.04 +0.14    +0.222 HD
DOCKED: ENDBRANCH  29  31
DOCKED: BRANCH  29  33
DOCKED: ATOM     33  O   UNL d   1      10.822   3.034  15.242 -0.40 -0.24    -0.303 OA
DOCKED: ATOM     34  H   UNL d   1       9.996   2.757  14.775 +0.06 +0.10    +0.222 HD
DOCKED: ENDBRANCH  29  33
DOCKED: ENDBRANCH  28  29
DOCKED: ENDBRANCH   3  28
DOCKED: BRANCH   5  35
DOCKED: ATOM     35  O   UNL d   1      13.095  -1.696  11.485 -0.02 -0.14    -0.278 OA
DOCKED: BRANCH  35  36
DOCKED: ATOM     36  P   UNL d   1      12.478  -2.677  10.389 +0.13 +0.61    +0.473 P 
DOCKED: ATOM     37  O   UNL d   1      11.001  -2.896  10.478 -0.24 -0.34    -0.228 OA
DOCKED: BRANCH  36  38
DOCKED: ATOM     38  O   UNL d   1      12.957  -1.993   9.033 -0.45 -0.41    -0.303 OA
DOCKED: ATOM     39  H   UNL d   1      12.372  -1.230   8.834 +0.06 +0.22    +0.222 HD
DOCKED: ENDBRANCH  36  38
DOCKED: BRANCH  36  40
DOCKED: ATOM     40  O   UNL d   1      13.408  -3.961  10.519 -0.32 -0.35    -0.303 OA
DOCKED: ATOM     41  H   UNL d   1      13.837  -4.012  11.402 +0.01 +0.14    +0.222 HD
DOCKED: ENDBRANCH  36  40
DOCKED: ENDBRANCH  35  36
DOCKED: ENDBRANCH   5  35
DOCKED: BRANCH   4  42
DOCKED: ATOM     42  O   UNL d   1      11.204  -0.988  13.585 -0.02 -0.08    -0.278 OA
DOCKED: BRANCH  42  43
DOCKED: ATOM     43  P   UNL d   1       9.774  -0.396  13.197 -0.08 +0.12    +0.473 P 
DOCKED: ATOM     44  O   UNL d   1       9.380   0.904  13.808 -0.05 -0.05    -0.228 OA
DOCKED: BRANCH  43  45
DOCKED: ATOM     45  O   UNL d   1       9.823  -0.380  11.607 -0.29 -0.12    -0.303 OA
DOCKED: ATOM     46  H   UNL d   1      10.528  -0.965  11.264 +0.07 +0.12    +0.222 HD
DOCKED: ENDBRANCH  43  45
DOCKED: BRANCH  43  47
DOCKED: ATOM     47  O   UNL d   1       8.781  -1.623  13.480 -0.06 -0.06    -0.303 OA
DOCKED: ATOM     48  H   UNL d   1       8.605  -1.680  14.442 +0.07 +0.04    +0.222 HD
DOCKED: ENDBRANCH  43  47
DOCKED: ENDBRANCH  42  43
DOCKED: ENDBRANCH   4  42
DOCKED: TORSDOF 24
DOCKED: TER
DOCKED: ENDMDL
________________________________________________________________________________


	BEGINNING GENETIC ALGORITHM DOCKING 68 of 100
Run: 68 Seed: 480006488 1573719874 [ Run 68 of 100 GA/GALS ]
Beginning LAMARCKIAN GENETIC ALGORITHM (LGA), with a maximum of 25000000 energy evaluations.

Final-Value: -16.484


	FINAL GENETIC ALGORITHM DOCKED STATE
	_______________________________________________


Detailed state:  trans -12.643 3.125 -15.878 quatxyzw -0.699500 -0.172190 -0.686231 0.100683 center 0.035 0.082 -0.065 ntor 24 176.8143 166.1280 138.4440 1.7276 14.1719 -140.4140 50.0623 -72.8242 7.5232 22.3034 9.3014 -155.6367 135.8248 -178.8638 -1.8955 -101.9960 -171.7250 -2.6065 5.0749 2.0694 154.4392 -20.8006 -31.1774 162.9981
State:	-12.643   3.125 -15.878  -0.703 -0.173 -0.690 168.443    176.81  166.13  138.44    1.73   14.17 -140.41   50.06  -72.82    7.52   22.30    9.30 -155.64  135.82 -178.86   -1.90 -102.00 -171.72   -2.61    5.07    2.07  154.44  -20.80  -31.18  163.00

DOCKED: MODEL       68
DOCKED: USER    Run = 68
DOCKED: USER    DPF = D:/Protein_go_brrr/autodock/final/mut_N102T/IHP/dock.dpf
DOCKED: USER  
DOCKED: USER    Estimated Free Energy of Binding    =   +4.57 kcal/mol  [=(1)+(2)+(3)-(4)]
DOCKED: USER    
DOCKED: USER    (1) Final Intermolecular Energy     =   -2.59 kcal/mol
DOCKED: USER        vdW + Hbond + desolv Energy     =   -2.63 kcal/mol
DOCKED: USER        Electrostatic Energy            =   +0.04 kcal/mol
DOCKED: USER    (2) Final Total Internal Energy     =  -13.89 kcal/mol
DOCKED: USER    (3) Torsional Free Energy           =   +7.16 kcal/mol
DOCKED: USER    (4) Unbound System's Energy  [=(2)] =  -13.89 kcal/mol
DOCKED: USER    
DOCKED: USER    
DOCKED: USER    NEWDPF move IHP_ideal_opt.pdbqt
DOCKED: USER    NEWDPF about 0.035000 0.082000 -0.065000
DOCKED: USER    NEWDPF tran0 -12.643465 3.124624 -15.878060
DOCKED: USER    NEWDPF quaternion0 -0.699500 -0.172190 -0.686231 0.100683
DOCKED: USER    NEWDPF axisangle0 -0.703073 -0.173069 -0.689736 168.442938
DOCKED: USER    NEWDPF quat0 -0.703073 -0.173069 -0.689736 168.442938
DOCKED: USER    NEWDPF dihe0 176.81 166.13 138.44 1.73 14.17 -140.41 50.06 -72.82 7.52 22.30 9.30 -155.64 135.82 -178.86 -1.90 -102.00 -171.72 -2.61 5.07 2.07 154.44 -20.80 -31.18 163.00 
DOCKED: USER  keepresnum = 1 
DOCKED: USER  
DOCKED: REMARK  24 active torsions:
DOCKED: REMARK  status: ('A' for Active; 'I' for Inactive)
DOCKED: REMARK    1  A    between atoms: C_1  and  O_7 
DOCKED: REMARK    2  A    between atoms: C_2  and  O_12 
DOCKED: REMARK    3  A    between atoms: C_3  and  O_17 
DOCKED: REMARK    4  A    between atoms: C_4  and  O_22 
DOCKED: REMARK    5  A    between atoms: C_5  and  O_27 
DOCKED: REMARK    6  A    between atoms: C_6  and  O_32 
DOCKED: REMARK    7  A    between atoms: O_7  and  P_8 
DOCKED: REMARK    8  A    between atoms: P_8  and  O_10 
DOCKED: REMARK    9  A    between atoms: P_8  and  O_11 
DOCKED: REMARK   10  A    between atoms: O_12  and  P_13 
DOCKED: REMARK   11  A    between atoms: P_13  and  O_15 
DOCKED: REMARK   12  A    between atoms: P_13  and  O_16 
DOCKED: REMARK   13  A    between atoms: O_17  and  P_18 
DOCKED: REMARK   14  A    between atoms: P_18  and  O_20 
DOCKED: REMARK   15  A    between atoms: P_18  and  O_21 
DOCKED: REMARK   16  A    between atoms: O_22  and  P_23 
DOCKED: REMARK   17  A    between atoms: P_23  and  O_25 
DOCKED: REMARK   18  A    between atoms: P_23  and  O_26 
DOCKED: REMARK   19  A    between atoms: O_27  and  P_28 
DOCKED: REMARK   20  A    between atoms: P_28  and  O_30 
DOCKED: REMARK   21  A    between atoms: P_28  and  O_31 
DOCKED: REMARK   22  A    between atoms: O_32  and  P_33 
DOCKED: REMARK   23  A    between atoms: P_33  and  O_35 
DOCKED: REMARK   24  A    between atoms: P_33  and  O_36 
DOCKED: USER                              x       y       z     vdW  Elec       q    Type
DOCKED: USER                           _______ _______ _______ _____ _____    ______ ____
DOCKED: ROOT
DOCKED: ATOM      1  C   UNL d   1     -11.949   4.492 -15.083 -0.11 +0.01    +0.194 C 
DOCKED: ATOM      2  C   UNL d   1     -12.397   4.724 -16.528 -0.09 +0.01    +0.194 C 
DOCKED: ATOM      3  C   UNL d   1     -12.003   3.559 -17.437 -0.11 +0.01    +0.194 C 
DOCKED: ATOM      4  C   UNL d   1     -12.452   2.201 -16.904 -0.06 +0.01    +0.194 C 
DOCKED: ATOM      5  C   UNL d   1     -12.127   1.973 -15.434 -0.08 +0.00    +0.194 C 
DOCKED: ATOM      6  C   UNL d   1     -12.465   3.162 -14.533 -0.06 +0.00    +0.194 C 
DOCKED: ENDROOT
DOCKED: BRANCH   1   7
DOCKED: ATOM      7  O   UNL d   1     -12.502   5.532 -14.273 -0.04 -0.00    -0.278 OA
DOCKED: BRANCH   7   8
DOCKED: ATOM      8  P   UNL d   1     -11.499   6.523 -13.522 -0.08 -0.01    +0.473 P 
DOCKED: ATOM      9  O   UNL d   1     -12.141   7.465 -12.564 -0.03 +0.00    -0.228 OA
DOCKED: BRANCH   8  10
DOCKED: ATOM     10  O   UNL d   1     -10.439   5.551 -12.831 -0.16 +0.03    -0.303 OA
DOCKED: ATOM     11  H   UNL d   1     -10.470   4.676 -13.261 +0.08 -0.01    +0.222 HD
DOCKED: ENDBRANCH   8  10
DOCKED: BRANCH   8  12
DOCKED: ATOM     12  O   UNL d   1     -10.635   7.190 -14.677 -0.13 -0.01    -0.303 OA
DOCKED: ATOM     13  H   UNL d   1     -10.712   8.170 -14.699 +0.04 +0.00    +0.222 HD
DOCKED: ENDBRANCH   8  12
DOCKED: ENDBRANCH   7   8
DOCKED: ENDBRANCH   1   7
DOCKED: BRANCH   2  14
DOCKED: ATOM     14  O   UNL d   1     -13.823   4.864 -16.557 -0.02 -0.01    -0.278 OA
DOCKED: BRANCH  14  15
DOCKED: ATOM     15  P   UNL d   1     -14.406   6.082 -17.418 -0.01 +0.01    +0.473 P 
DOCKED: ATOM     16  O   UNL d   1     -15.289   7.052 -16.698 -0.01 -0.00    -0.228 OA
DOCKED: BRANCH  15  17
DOCKED: ATOM     17  O   UNL d   1     -13.111   6.770 -18.041 -0.04 -0.01    -0.303 OA
DOCKED: ATOM     18  H   UNL d   1     -12.479   6.101 -18.366 +0.03 +0.01    +0.222 HD
DOCKED: ENDBRANCH  15  17
DOCKED: BRANCH  15  19
DOCKED: ATOM     19  O   UNL d   1     -15.047   5.391 -18.700 -0.00 -0.00    -0.303 OA
DOCKED: ATOM     20  H   UNL d   1     -14.391   4.864 -19.192 +0.01 +0.00    +0.222 HD
DOCKED: ENDBRANCH  15  19
DOCKED: ENDBRANCH  14  15
DOCKED: ENDBRANCH   2  14
DOCKED: BRANCH   6  21
DOCKED: ATOM     21  O   UNL d   1     -11.803   2.939 -13.290 -0.05 -0.00    -0.278 OA
DOCKED: BRANCH  21  22
DOCKED: ATOM     22  P   UNL d   1     -10.241   2.616 -13.271 -0.22 +0.00    +0.473 P 
DOCKED: ATOM     23  O   UNL d   1      -9.397   3.156 -14.376 -0.33 +0.02    -0.228 OA
DOCKED: BRANCH  22  24
DOCKED: ATOM     24  O   UNL d   1      -9.825   3.103 -11.814 -0.21 -0.01    -0.303 OA
DOCKED: ATOM     25  H   UNL d   1     -10.151   4.031 -11.695 +0.07 -0.01    +0.222 HD
DOCKED: ENDBRANCH  22  24
DOCKED: BRANCH  22  26
DOCKED: ATOM     26  O   UNL d   1     -10.241   1.022 -13.101 -0.14 -0.02    -0.303 OA
DOCKED: ATOM     27  H   UNL d   1     -10.895   0.632 -13.715 +0.07 +0.01    +0.222 HD
DOCKED: ENDBRANCH  22  26
DOCKED: ENDBRANCH  21  22
DOCKED: ENDBRANCH   6  21
DOCKED: BRANCH   3  28
DOCKED: ATOM     28  O   UNL d   1     -12.690   3.726 -18.671 -0.04 -0.01    -0.278 OA
DOCKED: BRANCH  28  29
DOCKED: ATOM     29  P   UNL d   1     -12.027   4.562 -19.854 -0.06 +0.02    +0.473 P 
DOCKED: ATOM     30  O   UNL d   1     -12.873   5.639 -20.430 -0.03 -0.01    -0.228 OA
DOCKED: BRANCH  29  31
DOCKED: ATOM     31  O   UNL d   1     -10.662   5.009 -19.149 -0.09 -0.04    -0.303 OA
DOCKED: ATOM     32  H   UNL d   1      -9.935   4.429 -19.476 +0.05 +0.03    +0.222 HD
DOCKED: ENDBRANCH  29  31
DOCKED: BRANCH  29  33
DOCKED: ATOM     33  O   UNL d   1     -11.551   3.412 -20.848 -0.04 -0.01    -0.303 OA
DOCKED: ATOM     34  H   UNL d   1     -11.587   2.544 -20.376 +0.04 +0.01    +0.222 HD
DOCKED: ENDBRANCH  29  33
DOCKED: ENDBRANCH  28  29
DOCKED: ENDBRANCH   3  28
DOCKED: BRANCH   5  35
DOCKED: ATOM     35  O   UNL d   1     -12.951   0.885 -15.019 -0.02 -0.01    -0.278 OA
DOCKED: BRANCH  35  36
DOCKED: ATOM     36  P   UNL d   1     -12.351  -0.590 -14.930 -0.01 +0.02    +0.473 P 
DOCKED: ATOM     37  O   UNL d   1     -13.116  -1.644 -15.665 -0.01 -0.01    -0.228 OA
DOCKED: BRANCH  36  38
DOCKED: ATOM     38  O   UNL d   1     -10.865  -0.371 -15.460 -0.05 -0.02    -0.303 OA
DOCKED: ATOM     39  H   UNL d   1     -10.899  -0.059 -16.391 +0.06 +0.01    +0.222 HD
DOCKED: ENDBRANCH  36  38
DOCKED: BRANCH  36  40
DOCKED: ATOM     40  O   UNL d   1     -12.172  -0.790 -13.362 -0.03 -0.02    -0.303 OA
DOCKED: ATOM     41  H   UNL d   1     -12.161   0.069 -12.885 +0.04 +0.01    +0.222 HD
DOCKED: ENDBRANCH  36  40
DOCKED: ENDBRANCH  35  36
DOCKED: ENDBRANCH   5  35
DOCKED: BRANCH   4  42
DOCKED: ATOM     42  O   UNL d   1     -11.743   1.207 -17.651 -0.05 -0.01    -0.278 OA
DOCKED: BRANCH  42  43
DOCKED: ATOM     43  P   UNL d   1     -10.155   1.313 -17.764 -0.20 +0.01    +0.473 P 
DOCKED: ATOM     44  O   UNL d   1      -9.401   1.660 -16.527 -0.27 +0.01    -0.228 OA
DOCKED: BRANCH  43  45
DOCKED: ATOM     45  O   UNL d   1      -9.755  -0.090 -18.398 -0.13 -0.00    -0.303 OA
DOCKED: ATOM     46  H   UNL d   1      -9.979  -0.831 -17.799 +0.07 +0.00    +0.222 HD
DOCKED: ENDBRANCH  43  45
DOCKED: BRANCH  43  47
DOCKED: ATOM     47  O   UNL d   1      -9.942   2.305 -19.005 -0.23 -0.02    -0.303 OA
DOCKED: ATOM     48  H   UNL d   1     -10.743   2.856 -19.119 +0.06 +0.02    +0.222 HD
DOCKED: ENDBRANCH  43  47
DOCKED: ENDBRANCH  42  43
DOCKED: ENDBRANCH   4  42
DOCKED: TORSDOF 24
DOCKED: TER
DOCKED: ENDMDL
________________________________________________________________________________


	BEGINNING GENETIC ALGORITHM DOCKING 69 of 100
Run: 69 Seed: 153118448 1171462688 [ Run 69 of 100 GA/GALS ]
Beginning LAMARCKIAN GENETIC ALGORITHM (LGA), with a maximum of 25000000 energy evaluations.

Final-Value: -16.910


	FINAL GENETIC ALGORITHM DOCKED STATE
	_______________________________________________


Detailed state:  trans 13.675 -0.853 9.945 quatxyzw 0.688191 0.637363 -0.218383 0.269204 center 0.035 0.082 -0.065 ntor 24 91.2544 156.7754 29.3065 120.4727 83.8324 138.2748 79.7502 -30.6869 26.7353 121.1864 -14.7112 3.7362 -38.3249 -38.0788 -95.8031 51.0900 114.9464 -180.0000 41.9982 -33.2930 -23.0513 -39.1932 5.9235 -38.1990
State:	 13.675  -0.853   9.945   0.715  0.662 -0.227 148.766     91.25  156.78   29.31  120.47   83.83  138.27   79.75  -30.69   26.74  121.19  -14.71    3.74  -38.32  -38.08  -95.80   51.09  114.95 -180.00   42.00  -33.29  -23.05  -39.19    5.92  -38.20

DOCKED: MODEL       69
DOCKED: USER    Run = 69
DOCKED: USER    DPF = D:/Protein_go_brrr/autodock/final/mut_N102T/IHP/dock.dpf
DOCKED: USER  
DOCKED: USER    Estimated Free Energy of Binding    =   +2.80 kcal/mol  [=(1)+(2)+(3)-(4)]
DOCKED: USER    
DOCKED: USER    (1) Final Intermolecular Energy     =   -4.36 kcal/mol
DOCKED: USER        vdW + Hbond + desolv Energy     =   -4.07 kcal/mol
DOCKED: USER        Electrostatic Energy            =   -0.29 kcal/mol
DOCKED: USER    (2) Final Total Internal Energy     =  -12.55 kcal/mol
DOCKED: USER    (3) Torsional Free Energy           =   +7.16 kcal/mol
DOCKED: USER    (4) Unbound System's Energy  [=(2)] =  -12.55 kcal/mol
DOCKED: USER    
DOCKED: USER    
DOCKED: USER    NEWDPF move IHP_ideal_opt.pdbqt
DOCKED: USER    NEWDPF about 0.035000 0.082000 -0.065000
DOCKED: USER    NEWDPF tran0 13.674580 -0.853116 9.945197
DOCKED: USER    NEWDPF quaternion0 0.688191 0.637363 -0.218383 0.269204
DOCKED: USER    NEWDPF axisangle0 0.714571 0.661794 -0.226754 148.766131
DOCKED: USER    NEWDPF quat0 0.714571 0.661794 -0.226754 148.766131
DOCKED: USER    NEWDPF dihe0 91.25 156.78 29.31 120.47 83.83 138.27 79.75 -30.69 26.74 121.19 -14.71 3.74 -38.32 -38.08 -95.80 51.09 114.95 -180.00 42.00 -33.29 -23.05 -39.19 5.92 -38.20 
DOCKED: USER  keepresnum = 1 
DOCKED: USER  
DOCKED: REMARK  24 active torsions:
DOCKED: REMARK  status: ('A' for Active; 'I' for Inactive)
DOCKED: REMARK    1  A    between atoms: C_1  and  O_7 
DOCKED: REMARK    2  A    between atoms: C_2  and  O_12 
DOCKED: REMARK    3  A    between atoms: C_3  and  O_17 
DOCKED: REMARK    4  A    between atoms: C_4  and  O_22 
DOCKED: REMARK    5  A    between atoms: C_5  and  O_27 
DOCKED: REMARK    6  A    between atoms: C_6  and  O_32 
DOCKED: REMARK    7  A    between atoms: O_7  and  P_8 
DOCKED: REMARK    8  A    between atoms: P_8  and  O_10 
DOCKED: REMARK    9  A    between atoms: P_8  and  O_11 
DOCKED: REMARK   10  A    between atoms: O_12  and  P_13 
DOCKED: REMARK   11  A    between atoms: P_13  and  O_15 
DOCKED: REMARK   12  A    between atoms: P_13  and  O_16 
DOCKED: REMARK   13  A    between atoms: O_17  and  P_18 
DOCKED: REMARK   14  A    between atoms: P_18  and  O_20 
DOCKED: REMARK   15  A    between atoms: P_18  and  O_21 
DOCKED: REMARK   16  A    between atoms: O_22  and  P_23 
DOCKED: REMARK   17  A    between atoms: P_23  and  O_25 
DOCKED: REMARK   18  A    between atoms: P_23  and  O_26 
DOCKED: REMARK   19  A    between atoms: O_27  and  P_28 
DOCKED: REMARK   20  A    between atoms: P_28  and  O_30 
DOCKED: REMARK   21  A    between atoms: P_28  and  O_31 
DOCKED: REMARK   22  A    between atoms: O_32  and  P_33 
DOCKED: REMARK   23  A    between atoms: P_33  and  O_35 
DOCKED: REMARK   24  A    between atoms: P_33  and  O_36 
DOCKED: USER                              x       y       z     vdW  Elec       q    Type
DOCKED: USER                           _______ _______ _______ _____ _____    ______ ____
DOCKED: ROOT
DOCKED: ATOM      1  C   UNL d   1      12.606   0.504   9.974 -0.15 +0.07    +0.194 C 
DOCKED: ATOM      2  C   UNL d   1      12.118  -0.737  10.723 -0.12 +0.11    +0.194 C 
DOCKED: ATOM      3  C   UNL d   1      12.381  -2.018   9.928 -0.05 +0.24    +0.194 C 
DOCKED: ATOM      4  C   UNL d   1      13.831  -2.154   9.469 -0.08 +0.17    +0.194 C 
DOCKED: ATOM      5  C   UNL d   1      14.396  -0.898   8.819 -0.08 +0.09    +0.194 C 
DOCKED: ATOM      6  C   UNL d   1      14.080   0.390   9.581 -0.07 +0.06    +0.194 C 
DOCKED: ENDROOT
DOCKED: BRANCH   1   7
DOCKED: ATOM      7  O   UNL d   1      12.484   1.629  10.847 -0.11 -0.08    -0.278 OA
DOCKED: BRANCH   7   8
DOCKED: ATOM      8  P   UNL d   1      11.049   2.312  11.009 -0.29 +0.12    +0.473 P 
DOCKED: ATOM      9  O   UNL d   1       9.909   1.521  10.469 -0.47 -0.08    -0.228 OA
DOCKED: BRANCH   8  10
DOCKED: ATOM     10  O   UNL d   1      10.930   2.598  12.574 -0.26 -0.10    -0.303 OA
DOCKED: ATOM     11  H   UNL d   1      10.887   1.752  13.058 +0.10 +0.07    +0.222 HD
DOCKED: ENDBRANCH   8  10
DOCKED: BRANCH   8  12
DOCKED: ATOM     12  O   UNL d   1      11.219   3.776  10.416 -0.29 -0.05    -0.303 OA
DOCKED: ATOM     13  H   UNL d   1      10.721   3.914   9.578 -0.45 -0.03    +0.222 HD
DOCKED: ENDBRANCH   8  12
DOCKED: ENDBRANCH   7   8
DOCKED: ENDBRANCH   1   7
DOCKED: BRANCH   2  14
DOCKED: ATOM     14  O   UNL d   1      12.807  -0.828  11.976 -0.02 -0.10    -0.278 OA
DOCKED: BRANCH  14  15
DOCKED: ATOM     15  P   UNL d   1      12.029  -0.274  13.262 +0.01 +0.13    +0.473 P 
DOCKED: ATOM     16  O   UNL d   1      10.550  -0.094  13.127 -0.10 -0.06    -0.228 OA
DOCKED: BRANCH  15  17
DOCKED: ATOM     17  O   UNL d   1      12.424  -1.292  14.422 +0.00 -0.07    -0.303 OA
DOCKED: ATOM     18  H   UNL d   1      12.057  -2.181  14.249 +0.02 +0.05    +0.222 HD
DOCKED: ENDBRANCH  15  17
DOCKED: BRANCH  15  19
DOCKED: ATOM     19  O   UNL d   1      12.842   1.026  13.688 -0.03 -0.09    -0.303 OA
DOCKED: ATOM     20  H   UNL d   1      12.847   1.696  12.980 +0.07 +0.07    +0.222 HD
DOCKED: ENDBRANCH  15  19
DOCKED: ENDBRANCH  14  15
DOCKED: ENDBRANCH   2  14
DOCKED: BRANCH   6  21
DOCKED: ATOM     21  O   UNL d   1      14.362   1.473   8.697 -0.09 -0.07    -0.278 OA
DOCKED: BRANCH  21  22
DOCKED: ATOM     22  P   UNL d   1      15.359   2.630   9.155 -0.03 +0.09    +0.473 P 
DOCKED: ATOM     23  O   UNL d   1      14.948   3.506  10.291 -0.09 -0.04    -0.228 OA
DOCKED: BRANCH  22  24
DOCKED: ATOM     24  O   UNL d   1      16.710   1.822   9.391 -0.01 -0.05    -0.303 OA
DOCKED: ATOM     25  H   UNL d   1      16.632   0.950   8.927 +0.02 +0.04    +0.222 HD
DOCKED: ENDBRANCH  22  24
DOCKED: BRANCH  22  26
DOCKED: ATOM     26  O   UNL d   1      15.656   3.374   7.766 -0.06 -0.06    -0.303 OA
DOCKED: ATOM     27  H   UNL d   1      15.686   2.711   7.047 +0.06 +0.04    +0.222 HD
DOCKED: ENDBRANCH  22  26
DOCKED: ENDBRANCH  21  22
DOCKED: ENDBRANCH   6  21
DOCKED: BRANCH   3  28
DOCKED: ATOM     28  O   UNL d   1      12.158  -3.117  10.802 -0.19 -0.34    -0.278 OA
DOCKED: BRANCH  28  29
DOCKED: ATOM     29  P   UNL d   1      10.679  -3.495  11.258 -0.05 +0.47    +0.473 P 
DOCKED: ATOM     30  O   UNL d   1       9.596  -3.075  10.332 -0.62 -0.28    -0.228 OA
DOCKED: BRANCH  29  31
DOCKED: ATOM     31  O   UNL d   1      10.855  -5.067  11.503 -0.05 -0.26    -0.303 OA
DOCKED: ATOM     32  H   UNL d   1      10.470  -5.292  12.381 +0.04 +0.11    +0.222 HD
DOCKED: ENDBRANCH  29  31
DOCKED: BRANCH  29  33
DOCKED: ATOM     33  O   UNL d   1      10.626  -2.911  12.738 -0.02 -0.13    -0.303 OA
DOCKED: ATOM     34  H   UNL d   1      11.243  -2.141  12.802 +0.03 +0.08    +0.222 HD
DOCKED: ENDBRANCH  29  33
DOCKED: ENDBRANCH  28  29
DOCKED: ENDBRANCH   3  28
DOCKED: BRANCH   5  35
DOCKED: ATOM     35  O   UNL d   1      15.813  -1.058   8.835 -0.01 -0.08    -0.278 OA
DOCKED: BRANCH  35  36
DOCKED: ATOM     36  P   UNL d   1      16.680  -0.682   7.549 +0.00 +0.10    +0.473 P 
DOCKED: ATOM     37  O   UNL d   1      18.131  -0.423   7.803 -0.00 -0.03    -0.228 OA
DOCKED: BRANCH  36  38
DOCKED: ATOM     38  O   UNL d   1      16.394  -1.921   6.590 -0.02 -0.08    -0.303 OA
DOCKED: ATOM     39  H   UNL d   1      16.437  -2.750   7.115 +0.02 +0.06    +0.222 HD
DOCKED: ENDBRANCH  36  38
DOCKED: BRANCH  36  40
DOCKED: ATOM     40  O   UNL d   1      15.837   0.502   6.905 -0.03 -0.06    -0.303 OA
DOCKED: ATOM     41  H   UNL d   1      15.996   1.356   7.366 +0.05 +0.04    +0.222 HD
DOCKED: ENDBRANCH  36  40
DOCKED: ENDBRANCH  35  36
DOCKED: ENDBRANCH   5  35
DOCKED: BRANCH   4  42
DOCKED: ATOM     42  O   UNL d   1      13.857  -3.189   8.480 -0.50 -0.44    -0.278 OA
DOCKED: BRANCH  42  43
DOCKED: ATOM     43  P   UNL d   1      15.172  -4.079   8.331 -0.06 +0.32    +0.473 P 
DOCKED: ATOM     44  O   UNL d   1      15.682  -4.326   6.953 -0.05 -0.10    -0.228 OA
DOCKED: BRANCH  43  45
DOCKED: ATOM     45  O   UNL d   1      16.207  -3.337   9.284 -0.01 -0.11    -0.303 OA
DOCKED: ATOM     46  H   UNL d   1      16.687  -2.628   8.810 +0.01 +0.06    +0.222 HD
DOCKED: ENDBRANCH  43  45
DOCKED: BRANCH  43  47
DOCKED: ATOM     47  O   UNL d   1      14.825  -5.391   9.185 -0.05 -0.21    -0.303 OA
DOCKED: ATOM     48  H   UNL d   1      15.601  -5.988   9.189 +0.01 +0.09    +0.222 HD
DOCKED: ENDBRANCH  43  47
DOCKED: ENDBRANCH  42  43
DOCKED: ENDBRANCH   4  42
DOCKED: TORSDOF 24
DOCKED: TER
DOCKED: ENDMDL
________________________________________________________________________________


	BEGINNING GENETIC ALGORITHM DOCKING 70 of 100
Run: 70 Seed: 45093762 1066724688 [ Run 70 of 100 GA/GALS ]
Beginning LAMARCKIAN GENETIC ALGORITHM (LGA), with a maximum of 25000000 energy evaluations.

Final-Value: -18.874


	FINAL GENETIC ALGORITHM DOCKED STATE
	_______________________________________________


Detailed state:  trans -9.366 -6.995 12.449 quatxyzw -0.397504 -0.188003 0.359960 0.822845 center 0.035 0.082 -0.065 ntor 24 61.9398 66.4691 40.9184 11.8515 -18.4562 163.2903 -11.2897 -167.0421 98.4220 72.1736 37.8170 -180.0000 166.5286 -179.6997 180.0000 -58.1244 104.5909 158.3400 41.2707 -4.0271 169.9814 15.9160 -10.0084 -15.3126
State:	 -9.366  -6.995  12.449  -0.700 -0.331  0.633 69.259     61.94   66.47   40.92   11.85  -18.46  163.29  -11.29 -167.04   98.42   72.17   37.82 -180.00  166.53 -179.70  180.00  -58.12  104.59  158.34   41.27   -4.03  169.98   15.92  -10.01  -15.31

DOCKED: MODEL       70
DOCKED: USER    Run = 70
DOCKED: USER    DPF = D:/Protein_go_brrr/autodock/final/mut_N102T/IHP/dock.dpf
DOCKED: USER  
DOCKED: USER    Estimated Free Energy of Binding    =   +2.86 kcal/mol  [=(1)+(2)+(3)-(4)]
DOCKED: USER    
DOCKED: USER    (1) Final Intermolecular Energy     =   -4.30 kcal/mol
DOCKED: USER        vdW + Hbond + desolv Energy     =   -4.10 kcal/mol
DOCKED: USER        Electrostatic Energy            =   -0.19 kcal/mol
DOCKED: USER    (2) Final Total Internal Energy     =  -14.58 kcal/mol
DOCKED: USER    (3) Torsional Free Energy           =   +7.16 kcal/mol
DOCKED: USER    (4) Unbound System's Energy  [=(2)] =  -14.58 kcal/mol
DOCKED: USER    
DOCKED: USER    
DOCKED: USER    NEWDPF move IHP_ideal_opt.pdbqt
DOCKED: USER    NEWDPF about 0.035000 0.082000 -0.065000
DOCKED: USER    NEWDPF tran0 -9.366462 -6.995105 12.448980
DOCKED: USER    NEWDPF quaternion0 -0.397504 -0.188003 0.359960 0.822845
DOCKED: USER    NEWDPF axisangle0 -0.699504 -0.330836 0.633437 69.258758
DOCKED: USER    NEWDPF quat0 -0.699504 -0.330836 0.633437 69.258758
DOCKED: USER    NEWDPF dihe0 61.94 66.47 40.92 11.85 -18.46 163.29 -11.29 -167.04 98.42 72.17 37.82 -180.00 166.53 -179.70 180.00 -58.12 104.59 158.34 41.27 -4.03 169.98 15.92 -10.01 -15.31 
DOCKED: USER  keepresnum = 1 
DOCKED: USER  
DOCKED: REMARK  24 active torsions:
DOCKED: REMARK  status: ('A' for Active; 'I' for Inactive)
DOCKED: REMARK    1  A    between atoms: C_1  and  O_7 
DOCKED: REMARK    2  A    between atoms: C_2  and  O_12 
DOCKED: REMARK    3  A    between atoms: C_3  and  O_17 
DOCKED: REMARK    4  A    between atoms: C_4  and  O_22 
DOCKED: REMARK    5  A    between atoms: C_5  and  O_27 
DOCKED: REMARK    6  A    between atoms: C_6  and  O_32 
DOCKED: REMARK    7  A    between atoms: O_7  and  P_8 
DOCKED: REMARK    8  A    between atoms: P_8  and  O_10 
DOCKED: REMARK    9  A    between atoms: P_8  and  O_11 
DOCKED: REMARK   10  A    between atoms: O_12  and  P_13 
DOCKED: REMARK   11  A    between atoms: P_13  and  O_15 
DOCKED: REMARK   12  A    between atoms: P_13  and  O_16 
DOCKED: REMARK   13  A    between atoms: O_17  and  P_18 
DOCKED: REMARK   14  A    between atoms: P_18  and  O_20 
DOCKED: REMARK   15  A    between atoms: P_18  and  O_21 
DOCKED: REMARK   16  A    between atoms: O_22  and  P_23 
DOCKED: REMARK   17  A    between atoms: P_23  and  O_25 
DOCKED: REMARK   18  A    between atoms: P_23  and  O_26 
DOCKED: REMARK   19  A    between atoms: O_27  and  P_28 
DOCKED: REMARK   20  A    between atoms: P_28  and  O_30 
DOCKED: REMARK   21  A    between atoms: P_28  and  O_31 
DOCKED: REMARK   22  A    between atoms: O_32  and  P_33 
DOCKED: REMARK   23  A    between atoms: P_33  and  O_35 
DOCKED: REMARK   24  A    between atoms: P_33  and  O_36 
DOCKED: USER                              x       y       z     vdW  Elec       q    Type
DOCKED: USER                           _______ _______ _______ _____ _____    ______ ____
DOCKED: ROOT
DOCKED: ATOM      1  C   UNL d   1      -9.167  -8.552  11.727 -0.17 -0.08    +0.194 C 
DOCKED: ATOM      2  C   UNL d   1     -10.609  -8.049  11.827 -0.08 -0.08    +0.194 C 
DOCKED: ATOM      3  C   UNL d   1     -10.890  -7.403  13.185 -0.04 -0.07    +0.194 C 
DOCKED: ATOM      4  C   UNL d   1      -9.876  -6.325  13.560 -0.09 -0.10    +0.194 C 
DOCKED: ATOM      5  C   UNL d   1      -8.425  -6.745  13.366 -0.17 -0.09    +0.194 C 
DOCKED: ATOM      6  C   UNL d   1      -8.155  -7.447  12.034 -0.20 -0.11    +0.194 C 
DOCKED: ENDROOT
DOCKED: BRANCH   1   7
DOCKED: ATOM      7  O   UNL d   1      -8.936  -8.980  10.383 -0.15 +0.10    -0.278 OA
DOCKED: BRANCH   7   8
DOCKED: ATOM      8  P   UNL d   1      -9.437 -10.435   9.953 -0.14 -0.12    +0.473 P 
DOCKED: ATOM      9  O   UNL d   1      -8.526 -11.169   9.033 -0.36 +0.05    -0.228 OA
DOCKED: BRANCH   8  10
DOCKED: ATOM     10  O   UNL d   1      -9.670 -11.189  11.339 -0.07 +0.08    -0.303 OA
DOCKED: ATOM     11  H   UNL d   1      -8.880 -11.715  11.563 +0.08 -0.06    +0.222 HD
DOCKED: ENDBRANCH   8  10
DOCKED: BRANCH   8  12
DOCKED: ATOM     12  O   UNL d   1     -10.924 -10.223   9.435 -0.06 +0.08    -0.303 OA
DOCKED: ATOM     13  H   UNL d   1     -11.110  -9.296   9.166 +0.07 -0.07    +0.222 HD
DOCKED: ENDBRANCH   8  12
DOCKED: ENDBRANCH   7   8
DOCKED: ENDBRANCH   1   7
DOCKED: BRANCH   2  14
DOCKED: ATOM     14  O   UNL d   1     -10.835  -7.074  10.801 -0.12 +0.20    -0.278 OA
DOCKED: BRANCH  14  15
DOCKED: ATOM     15  P   UNL d   1     -12.107  -7.311   9.857 -0.02 -0.21    +0.473 P 
DOCKED: ATOM     16  O   UNL d   1     -11.848  -7.370   8.384 -0.07 +0.10    -0.228 OA
DOCKED: BRANCH  15  17
DOCKED: ATOM     17  O   UNL d   1     -12.766  -8.647  10.422 -0.00 +0.08    -0.303 OA
DOCKED: ATOM     18  H   UNL d   1     -12.117  -9.376  10.448 +0.04 -0.05    +0.222 HD
DOCKED: ENDBRANCH  15  17
DOCKED: BRANCH  15  19
DOCKED: ATOM     19  O   UNL d   1     -13.158  -6.213  10.325 -0.01 +0.12    -0.303 OA
DOCKED: ATOM     20  H   UNL d   1     -13.254  -6.196  11.295 +0.02 -0.07    +0.222 HD
DOCKED: ENDBRANCH  15  19
DOCKED: ENDBRANCH  14  15
DOCKED: ENDBRANCH   2  14
DOCKED: BRANCH   6  21
DOCKED: ATOM     21  O   UNL d   1      -6.878  -8.069  12.146 -0.34 +0.09    -0.278 OA
DOCKED: BRANCH  21  22
DOCKED: ATOM     22  P   UNL d   1      -6.679  -9.294  13.148 -0.16 -0.11    +0.473 P 
DOCKED: ATOM     23  O   UNL d   1      -5.336  -9.487  13.769 -0.30 +0.05    -0.228 OA
DOCKED: BRANCH  22  24
DOCKED: ATOM     24  O   UNL d   1      -7.866  -9.064  14.183 -0.04 +0.06    -0.303 OA
DOCKED: ATOM     25  H   UNL d   1      -7.555  -8.420  14.870 +0.07 -0.04    +0.222 HD
DOCKED: ENDBRANCH  22  24
DOCKED: BRANCH  22  26
DOCKED: ATOM     26  O   UNL d   1      -7.234 -10.521  12.277 -0.16 +0.07    -0.303 OA
DOCKED: ATOM     27  H   UNL d   1      -7.684 -10.172  11.481 +0.10 -0.05    +0.222 HD
DOCKED: ENDBRANCH  22  26
DOCKED: ENDBRANCH  21  22
DOCKED: ENDBRANCH   6  21
DOCKED: BRANCH   3  28
DOCKED: ATOM     28  O   UNL d   1     -12.139  -6.729  13.088 -0.01 +0.09    -0.278 OA
DOCKED: BRANCH  28  29
DOCKED: ATOM     29  P   UNL d   1     -13.297  -7.024  14.140 +0.01 -0.08    +0.473 P 
DOCKED: ATOM     30  O   UNL d   1     -14.145  -8.207  13.844 +0.00 +0.03    -0.228 OA
DOCKED: BRANCH  29  31
DOCKED: ATOM     31  O   UNL d   1     -12.441  -7.064  15.492 +0.00 +0.04    -0.303 OA
DOCKED: ATOM     32  H   UNL d   1     -11.767  -6.347  15.458 +0.01 -0.03    +0.222 HD
DOCKED: ENDBRANCH  29  31
DOCKED: BRANCH  29  33
DOCKED: ATOM     33  O   UNL d   1     -14.033  -5.615  14.231 +0.00 +0.04    -0.303 OA
DOCKED: ATOM     34  H   UNL d   1     -13.825  -5.200  15.104 +0.01 -0.02    +0.222 HD
DOCKED: ENDBRANCH  29  33
DOCKED: ENDBRANCH  28  29
DOCKED: ENDBRANCH   3  28
DOCKED: BRANCH   5  35
DOCKED: ATOM     35  O   UNL d   1      -7.669  -5.535  13.364 -0.16 +0.12    -0.278 OA
DOCKED: BRANCH  35  36
DOCKED: ATOM     36  P   UNL d   1      -6.520  -5.302  14.446 -0.24 +0.00    +0.473 P 
DOCKED: ATOM     37  O   UNL d   1      -5.369  -4.461  13.993 -0.43 -0.05    -0.228 OA
DOCKED: BRANCH  36  38
DOCKED: ATOM     38  O   UNL d   1      -7.340  -4.687  15.665 -0.13 -0.09    -0.303 OA
DOCKED: ATOM     39  H   UNL d   1      -8.261  -5.025  15.635 +0.06 +0.03    +0.222 HD
DOCKED: ENDBRANCH  36  38
DOCKED: BRANCH  36  40
DOCKED: ATOM     40  O   UNL d   1      -6.190  -6.785  14.916 -0.17 +0.06    -0.303 OA
DOCKED: ATOM     41  H   UNL d   1      -6.337  -7.437  14.195 +0.11 -0.05    +0.222 HD
DOCKED: ENDBRANCH  36  40
DOCKED: ENDBRANCH  35  36
DOCKED: ENDBRANCH   5  35
DOCKED: BRANCH   4  42
DOCKED: ATOM     42  O   UNL d   1     -10.054  -6.057  14.955 -0.02 +0.05    -0.278 OA
DOCKED: BRANCH  42  43
DOCKED: ATOM     43  P   UNL d   1     -10.296  -4.552  15.426 -0.05 +0.00    +0.473 P 
DOCKED: ATOM     44  O   UNL d   1      -9.938  -4.205  16.830 -0.05 -0.04    -0.228 OA
DOCKED: BRANCH  43  45
DOCKED: ATOM     45  O   UNL d   1      -9.509  -3.712  14.327 -0.62 -0.04    -0.303 OA
DOCKED: ATOM     46  H   UNL d   1      -8.699  -4.175  14.034 -0.04 -0.01    +0.222 HD
DOCKED: ENDBRANCH  43  45
DOCKED: BRANCH  43  47
DOCKED: ATOM     47  O   UNL d   1     -11.821  -4.280  15.013 -0.01 +0.03    -0.303 OA
DOCKED: ATOM     48  H   UNL d   1     -12.185  -5.079  14.579 +0.02 -0.04    +0.222 HD
DOCKED: ENDBRANCH  43  47
DOCKED: ENDBRANCH  42  43
DOCKED: ENDBRANCH   4  42
DOCKED: TORSDOF 24
DOCKED: TER
DOCKED: ENDMDL
________________________________________________________________________________


	BEGINNING GENETIC ALGORITHM DOCKING 71 of 100
Run: 71 Seed: 1688230022 2122510490 [ Run 71 of 100 GA/GALS ]
Beginning LAMARCKIAN GENETIC ALGORITHM (LGA), with a maximum of 25000000 energy evaluations.

Final-Value: -20.951


	FINAL GENETIC ALGORITHM DOCKED STATE
	_______________________________________________


Detailed state:  trans -7.081 14.527 12.953 quatxyzw -0.574847 -0.147233 0.432734 0.678686 center 0.035 0.082 -0.065 ntor 24 -152.4323 169.3727 123.5004 25.2108 102.9702 83.1126 -8.3921 -110.7663 -0.3513 52.9700 119.2605 146.0509 40.9918 31.2329 -179.9719 -74.9814 -51.8479 -150.4458 -139.8048 -22.7824 13.2320 15.2922 176.2207 -1.7590
State:	 -7.081  14.527  12.953  -0.783 -0.200  0.589 94.518   -152.43  169.37  123.50   25.21  102.97   83.11   -8.39 -110.77   -0.35   52.97  119.26  146.05   40.99   31.23 -179.97  -74.98  -51.85 -150.45 -139.80  -22.78   13.23   15.29  176.22   -1.76

DOCKED: MODEL       71
DOCKED: USER    Run = 71
DOCKED: USER    DPF = D:/Protein_go_brrr/autodock/final/mut_N102T/IHP/dock.dpf
DOCKED: USER  
DOCKED: USER    Estimated Free Energy of Binding    =   +3.24 kcal/mol  [=(1)+(2)+(3)-(4)]
DOCKED: USER    
DOCKED: USER    (1) Final Intermolecular Energy     =   -3.92 kcal/mol
DOCKED: USER        vdW + Hbond + desolv Energy     =   -3.86 kcal/mol
DOCKED: USER        Electrostatic Energy            =   -0.06 kcal/mol
DOCKED: USER    (2) Final Total Internal Energy     =  -17.03 kcal/mol
DOCKED: USER    (3) Torsional Free Energy           =   +7.16 kcal/mol
DOCKED: USER    (4) Unbound System's Energy  [=(2)] =  -17.03 kcal/mol
DOCKED: USER    
DOCKED: USER    
DOCKED: USER    NEWDPF move IHP_ideal_opt.pdbqt
DOCKED: USER    NEWDPF about 0.035000 0.082000 -0.065000
DOCKED: USER    NEWDPF tran0 -7.080618 14.526703 12.952787
DOCKED: USER    NEWDPF quaternion0 -0.574847 -0.147233 0.432734 0.678686
DOCKED: USER    NEWDPF axisangle0 -0.782713 -0.200473 0.589212 94.517935
DOCKED: USER    NEWDPF quat0 -0.782713 -0.200473 0.589212 94.517935
DOCKED: USER    NEWDPF dihe0 -152.43 169.37 123.50 25.21 102.97 83.11 -8.39 -110.77 -0.35 52.97 119.26 146.05 40.99 31.23 -179.97 -74.98 -51.85 -150.45 -139.80 -22.78 13.23 15.29 176.22 -1.76 
DOCKED: USER  keepresnum = 1 
DOCKED: USER  
DOCKED: REMARK  24 active torsions:
DOCKED: REMARK  status: ('A' for Active; 'I' for Inactive)
DOCKED: REMARK    1  A    between atoms: C_1  and  O_7 
DOCKED: REMARK    2  A    between atoms: C_2  and  O_12 
DOCKED: REMARK    3  A    between atoms: C_3  and  O_17 
DOCKED: REMARK    4  A    between atoms: C_4  and  O_22 
DOCKED: REMARK    5  A    between atoms: C_5  and  O_27 
DOCKED: REMARK    6  A    between atoms: C_6  and  O_32 
DOCKED: REMARK    7  A    between atoms: O_7  and  P_8 
DOCKED: REMARK    8  A    between atoms: P_8  and  O_10 
DOCKED: REMARK    9  A    between atoms: P_8  and  O_11 
DOCKED: REMARK   10  A    between atoms: O_12  and  P_13 
DOCKED: REMARK   11  A    between atoms: P_13  and  O_15 
DOCKED: REMARK   12  A    between atoms: P_13  and  O_16 
DOCKED: REMARK   13  A    between atoms: O_17  and  P_18 
DOCKED: REMARK   14  A    between atoms: P_18  and  O_20 
DOCKED: REMARK   15  A    between atoms: P_18  and  O_21 
DOCKED: REMARK   16  A    between atoms: O_22  and  P_23 
DOCKED: REMARK   17  A    between atoms: P_23  and  O_25 
DOCKED: REMARK   18  A    between atoms: P_23  and  O_26 
DOCKED: REMARK   19  A    between atoms: O_27  and  P_28 
DOCKED: REMARK   20  A    between atoms: P_28  and  O_30 
DOCKED: REMARK   21  A    between atoms: P_28  and  O_31 
DOCKED: REMARK   22  A    between atoms: O_32  and  P_33 
DOCKED: REMARK   23  A    between atoms: P_33  and  O_35 
DOCKED: REMARK   24  A    between atoms: P_33  and  O_36 
DOCKED: USER                              x       y       z     vdW  Elec       q    Type
DOCKED: USER                           _______ _______ _______ _____ _____    ______ ____
DOCKED: ROOT
DOCKED: ATOM      1  C   UNL d   1      -7.259  13.316  11.733 -0.09 -0.02    +0.194 C 
DOCKED: ATOM      2  C   UNL d   1      -8.484  14.201  11.969 -0.06 -0.02    +0.194 C 
DOCKED: ATOM      3  C   UNL d   1      -8.742  14.424  13.461 -0.03 -0.01    +0.194 C 
DOCKED: ATOM      4  C   UNL d   1      -7.514  14.925  14.216 -0.03 -0.02    +0.194 C 
DOCKED: ATOM      5  C   UNL d   1      -6.242  14.141  13.922 -0.09 -0.03    +0.194 C 
DOCKED: ATOM      6  C   UNL d   1      -6.015  13.865  12.434 -0.15 -0.03    +0.194 C 
DOCKED: ENDROOT
DOCKED: BRANCH   1   7
DOCKED: ATOM      7  O   UNL d   1      -6.985  13.299  10.330 -0.18 +0.06    -0.278 OA
DOCKED: BRANCH   7   8
DOCKED: ATOM      8  P   UNL d   1      -5.863  14.286   9.764 -0.16 -0.08    +0.473 P 
DOCKED: ATOM      9  O   UNL d   1      -4.496  13.704   9.677 -0.20 +0.04    -0.228 OA
DOCKED: BRANCH   8  10
DOCKED: ATOM     10  O   UNL d   1      -6.437  14.754   8.351 -0.15 +0.04    -0.303 OA
DOCKED: ATOM     11  H   UNL d   1      -7.359  15.056   8.456 +0.06 -0.02    +0.222 HD
DOCKED: ENDBRANCH   8  10
DOCKED: BRANCH   8  12
DOCKED: ATOM     12  O   UNL d   1      -6.000  15.609  10.633 -0.10 +0.03    -0.303 OA
DOCKED: ATOM     13  H   UNL d   1      -5.161  15.867  11.077 +0.07 -0.01    +0.222 HD
DOCKED: ENDBRANCH   8  12
DOCKED: ENDBRANCH   7   8
DOCKED: ENDBRANCH   1   7
DOCKED: BRANCH   2  14
DOCKED: ATOM     14  O   UNL d   1      -8.266  15.475  11.349 -0.02 +0.02    -0.278 OA
DOCKED: BRANCH  14  15
DOCKED: ATOM     15  P   UNL d   1      -9.129  15.788  10.037 -0.00 -0.03    +0.473 P 
DOCKED: ATOM     16  O   UNL d   1     -10.485  16.385  10.251 -0.00 +0.01    -0.228 OA
DOCKED: BRANCH  15  17
DOCKED: ATOM     17  O   UNL d   1      -8.178  16.716   9.159 -0.01 +0.02    -0.303 OA
DOCKED: ATOM     18  H   UNL d   1      -7.237  16.533   9.347 +0.04 -0.02    +0.222 HD
DOCKED: ENDBRANCH  15  17
DOCKED: BRANCH  15  19
DOCKED: ATOM     19  O   UNL d   1      -9.101  14.429   9.210 -0.03 +0.03    -0.303 OA
DOCKED: ATOM     20  H   UNL d   1      -8.251  13.963   9.312 +0.06 -0.03    +0.222 HD
DOCKED: ENDBRANCH  15  19
DOCKED: ENDBRANCH  14  15
DOCKED: ENDBRANCH   2  14
DOCKED: BRANCH   6  21
DOCKED: ATOM     21  O   UNL d   1      -5.009  12.858  12.350 -0.21 +0.04    -0.278 OA
DOCKED: BRANCH  21  22
DOCKED: ATOM     22  P   UNL d   1      -3.471  13.278  12.292 -0.37 -0.09    +0.473 P 
DOCKED: ATOM     23  O   UNL d   1      -2.526  12.391  11.553 -0.61 +0.04    -0.228 OA
DOCKED: BRANCH  22  24
DOCKED: ATOM     24  O   UNL d   1      -3.561  14.767  11.738 -0.27 +0.04    -0.303 OA
DOCKED: ATOM     25  H   UNL d   1      -4.363  15.195  12.133 +0.09 -0.03    +0.222 HD
DOCKED: ENDBRANCH  22  24
DOCKED: BRANCH  22  26
DOCKED: ATOM     26  O   UNL d   1      -3.141  13.520  13.842 -0.29 +0.12    -0.303 OA
DOCKED: ATOM     27  H   UNL d   1      -3.306  14.460  14.063 -0.17 -0.14    +0.222 HD
DOCKED: ENDBRANCH  22  26
DOCKED: ENDBRANCH  21  22
DOCKED: ENDBRANCH   6  21
DOCKED: BRANCH   3  28
DOCKED: ATOM     28  O   UNL d   1      -9.707  15.463  13.578 -0.00 +0.02    -0.278 OA
DOCKED: BRANCH  28  29
DOCKED: ATOM     29  P   UNL d   1     -11.040  15.232  14.419 -0.00 -0.03    +0.473 P 
DOCKED: ATOM     30  O   UNL d   1     -12.257  14.935  13.621 -0.00 +0.01    -0.228 OA
DOCKED: BRANCH  29  31
DOCKED: ATOM     31  O   UNL d   1     -10.539  14.096  15.429 -0.00 +0.02    -0.303 OA
DOCKED: ATOM     32  H   UNL d   1      -9.641  14.339  15.754 +0.01 -0.01    +0.222 HD
DOCKED: ENDBRANCH  29  31
DOCKED: BRANCH  29  33
DOCKED: ATOM     33  O   UNL d   1     -11.082  16.529  15.340 +0.00 +0.02    -0.303 OA
DOCKED: ATOM     34  H   UNL d   1     -10.212  16.626  15.800 +0.00 -0.01    +0.222 HD
DOCKED: ENDBRANCH  29  33
DOCKED: ENDBRANCH  28  29
DOCKED: ENDBRANCH   3  28
DOCKED: BRANCH   5  35
DOCKED: ATOM     35  O   UNL d   1      -5.167  14.967  14.364 -0.10 +0.07    -0.278 OA
DOCKED: BRANCH  35  36
DOCKED: ATOM     36  P   UNL d   1      -5.046  16.473  13.853 -0.10 -0.09    +0.473 P 
DOCKED: ATOM     37  O   UNL d   1      -6.009  16.869  12.779 -0.06 +0.02    -0.228 OA
DOCKED: BRANCH  36  38
DOCKED: ATOM     38  O   UNL d   1      -5.206  17.292  15.209 -0.06 +0.05    -0.303 OA
DOCKED: ATOM     39  H   UNL d   1      -6.134  17.219  15.521 +0.03 -0.03    +0.222 HD
DOCKED: ENDBRANCH  36  38
DOCKED: BRANCH  36  40
DOCKED: ATOM     40  O   UNL d   1      -3.497  16.594  13.513 -0.20 +0.07    -0.303 OA
DOCKED: ATOM     41  H   UNL d   1      -3.053  15.717  13.519 -0.43 -0.10    +0.222 HD
DOCKED: ENDBRANCH  36  40
DOCKED: ENDBRANCH  35  36
DOCKED: ENDBRANCH   5  35
DOCKED: BRANCH   4  42
DOCKED: ATOM     42  O   UNL d   1      -7.792  14.767  15.612 -0.01 +0.03    -0.278 OA
DOCKED: BRANCH  42  43
DOCKED: ATOM     43  P   UNL d   1      -7.957  16.070  16.518 -0.00 -0.04    +0.473 P 
DOCKED: ATOM     44  O   UNL d   1      -6.830  16.423  17.425 -0.01 +0.02    -0.228 OA
DOCKED: BRANCH  43  45
DOCKED: ATOM     45  O   UNL d   1      -8.311  17.195  15.450 -0.00 +0.02    -0.303 OA
DOCKED: ATOM     46  H   UNL d   1      -8.994  16.889  14.820 +0.00 -0.02    +0.222 HD
DOCKED: ENDBRANCH  43  45
DOCKED: BRANCH  43  47
DOCKED: ATOM     47  O   UNL d   1      -9.374  15.842  17.232 -0.00 +0.02    -0.303 OA
DOCKED: ATOM     48  H   UNL d   1      -9.978  15.383  16.611 +0.00 -0.01    +0.222 HD
DOCKED: ENDBRANCH  43  47
DOCKED: ENDBRANCH  42  43
DOCKED: ENDBRANCH   4  42
DOCKED: TORSDOF 24
DOCKED: TER
DOCKED: ENDMDL
________________________________________________________________________________


	BEGINNING GENETIC ALGORITHM DOCKING 72 of 100
Run: 72 Seed: 1330391572 116535979 [ Run 72 of 100 GA/GALS ]
Beginning LAMARCKIAN GENETIC ALGORITHM (LGA), with a maximum of 25000000 energy evaluations.

Final-Value: -16.428


	FINAL GENETIC ALGORITHM DOCKED STATE
	_______________________________________________


Detailed state:  trans -10.035 -4.953 16.188 quatxyzw -0.020888 -0.751911 0.649855 0.109005 center 0.035 0.082 -0.065 ntor 24 169.2568 96.4509 31.6438 36.9083 -37.3894 149.3559 -11.1326 -163.3480 94.9097 102.0721 168.7033 -147.7707 -75.7189 178.1687 -134.4877 -44.4516 -1.3051 -10.7556 39.6820 -8.0220 -66.2185 142.3526 139.6622 135.4797
State:	-10.035  -4.953  16.188  -0.021 -0.756  0.654 167.484    169.26   96.45   31.64   36.91  -37.39  149.36  -11.13 -163.35   94.91  102.07  168.70 -147.77  -75.72  178.17 -134.49  -44.45   -1.31  -10.76   39.68   -8.02  -66.22  142.35  139.66  135.48

DOCKED: MODEL       72
DOCKED: USER    Run = 72
DOCKED: USER    DPF = D:/Protein_go_brrr/autodock/final/mut_N102T/IHP/dock.dpf
DOCKED: USER  
DOCKED: USER    Estimated Free Energy of Binding    =   +3.48 kcal/mol  [=(1)+(2)+(3)-(4)]
DOCKED: USER    
DOCKED: USER    (1) Final Intermolecular Energy     =   -3.68 kcal/mol
DOCKED: USER        vdW + Hbond + desolv Energy     =   -3.32 kcal/mol
DOCKED: USER        Electrostatic Energy            =   -0.36 kcal/mol
DOCKED: USER    (2) Final Total Internal Energy     =  -12.75 kcal/mol
DOCKED: USER    (3) Torsional Free Energy           =   +7.16 kcal/mol
DOCKED: USER    (4) Unbound System's Energy  [=(2)] =  -12.75 kcal/mol
DOCKED: USER    
DOCKED: USER    
DOCKED: USER    NEWDPF move IHP_ideal_opt.pdbqt
DOCKED: USER    NEWDPF about 0.035000 0.082000 -0.065000
DOCKED: USER    NEWDPF tran0 -10.035251 -4.953110 16.188353
DOCKED: USER    NEWDPF quaternion0 -0.020888 -0.751911 0.649855 0.109005
DOCKED: USER    NEWDPF axisangle0 -0.021013 -0.756418 0.653751 167.484100
DOCKED: USER    NEWDPF quat0 -0.021013 -0.756418 0.653751 167.484100
DOCKED: USER    NEWDPF dihe0 169.26 96.45 31.64 36.91 -37.39 149.36 -11.13 -163.35 94.91 102.07 168.70 -147.77 -75.72 178.17 -134.49 -44.45 -1.31 -10.76 39.68 -8.02 -66.22 142.35 139.66 135.48 
DOCKED: USER  keepresnum = 1 
DOCKED: USER  
DOCKED: REMARK  24 active torsions:
DOCKED: REMARK  status: ('A' for Active; 'I' for Inactive)
DOCKED: REMARK    1  A    between atoms: C_1  and  O_7 
DOCKED: REMARK    2  A    between atoms: C_2  and  O_12 
DOCKED: REMARK    3  A    between atoms: C_3  and  O_17 
DOCKED: REMARK    4  A    between atoms: C_4  and  O_22 
DOCKED: REMARK    5  A    between atoms: C_5  and  O_27 
DOCKED: REMARK    6  A    between atoms: C_6  and  O_32 
DOCKED: REMARK    7  A    between atoms: O_7  and  P_8 
DOCKED: REMARK    8  A    between atoms: P_8  and  O_10 
DOCKED: REMARK    9  A    between atoms: P_8  and  O_11 
DOCKED: REMARK   10  A    between atoms: O_12  and  P_13 
DOCKED: REMARK   11  A    between atoms: P_13  and  O_15 
DOCKED: REMARK   12  A    between atoms: P_13  and  O_16 
DOCKED: REMARK   13  A    between atoms: O_17  and  P_18 
DOCKED: REMARK   14  A    between atoms: P_18  and  O_20 
DOCKED: REMARK   15  A    between atoms: P_18  and  O_21 
DOCKED: REMARK   16  A    between atoms: O_22  and  P_23 
DOCKED: REMARK   17  A    between atoms: P_23  and  O_25 
DOCKED: REMARK   18  A    between atoms: P_23  and  O_26 
DOCKED: REMARK   19  A    between atoms: O_27  and  P_28 
DOCKED: REMARK   20  A    between atoms: P_28  and  O_30 
DOCKED: REMARK   21  A    between atoms: P_28  and  O_31 
DOCKED: REMARK   22  A    between atoms: O_32  and  P_33 
DOCKED: REMARK   23  A    between atoms: P_33  and  O_35 
DOCKED: REMARK   24  A    between atoms: P_33  and  O_36 
DOCKED: USER                              x       y       z     vdW  Elec       q    Type
DOCKED: USER                           _______ _______ _______ _____ _____    ______ ____
DOCKED: ROOT
DOCKED: ATOM      1  C   UNL d   1     -11.303  -6.005  16.709 +0.01 -0.01    +0.194 C 
DOCKED: ATOM      2  C   UNL d   1     -10.275  -5.629  17.778 +0.01 +0.00    +0.194 C 
DOCKED: ATOM      3  C   UNL d   1      -8.846  -5.679  17.232 -0.01 +0.01    +0.194 C 
DOCKED: ATOM      4  C   UNL d   1      -8.664  -4.874  15.948 -0.10 +0.03    +0.194 C 
DOCKED: ATOM      5  C   UNL d   1      -9.735  -5.132  14.896 -0.09 -0.02    +0.194 C 
DOCKED: ATOM      6  C   UNL d   1     -11.160  -5.144  15.453 -0.01 -0.02    +0.194 C 
DOCKED: ENDROOT
DOCKED: BRANCH   1   7
DOCKED: ATOM      7  O   UNL d   1     -12.608  -5.768  17.242 +0.00 +0.01    -0.278 OA
DOCKED: BRANCH   7   8
DOCKED: ATOM      8  P   UNL d   1     -13.265  -6.893  18.167 +0.00 -0.03    +0.473 P 
DOCKED: ATOM      9  O   UNL d   1     -12.746  -8.270  17.952 +0.00 +0.02    -0.228 OA
DOCKED: BRANCH   8  10
DOCKED: ATOM     10  O   UNL d   1     -13.030  -6.358  19.652 +0.00 +0.01    -0.303 OA
DOCKED: ATOM     11  H   UNL d   1     -12.726  -5.431  19.621 +0.00 -0.01    +0.222 HD
DOCKED: ENDBRANCH   8  10
DOCKED: BRANCH   8  12
DOCKED: ATOM     12  O   UNL d   1     -14.833  -6.707  17.991 +0.00 +0.02    -0.303 OA
DOCKED: ATOM     13  H   UNL d   1     -15.116  -6.683  17.049 +0.00 -0.01    +0.222 HD
DOCKED: ENDBRANCH   8  12
DOCKED: ENDBRANCH   7   8
DOCKED: ENDBRANCH   1   7
DOCKED: BRANCH   2  14
DOCKED: ATOM     14  O   UNL d   1     -10.543  -4.298  18.236 -0.00 -0.02    -0.278 OA
DOCKED: BRANCH  14  15
DOCKED: ATOM     15  P   UNL d   1     -10.784  -4.117  19.808 +0.01 +0.01    +0.473 P 
DOCKED: ATOM     16  O   UNL d   1     -12.046  -3.426  20.220 +0.00 -0.00    -0.228 OA
DOCKED: BRANCH  15  17
DOCKED: ATOM     17  O   UNL d   1     -10.672  -5.596  20.390 +0.00 +0.01    -0.303 OA
DOCKED: ATOM     18  H   UNL d   1     -11.383  -6.166  20.042 +0.00 -0.01    +0.222 HD
DOCKED: ENDBRANCH  15  17
DOCKED: BRANCH  15  19
DOCKED: ATOM     19  O   UNL d   1      -9.437  -3.460  20.343 +0.00 -0.02    -0.303 OA
DOCKED: ATOM     20  H   UNL d   1      -8.687  -3.640  19.746 +0.01 +0.02    +0.222 HD
DOCKED: ENDBRANCH  15  19
DOCKED: ENDBRANCH  14  15
DOCKED: ENDBRANCH   2  14
DOCKED: BRANCH   6  21
DOCKED: ATOM     21  O   UNL d   1     -11.990  -5.726  14.450 -0.00 +0.06    -0.278 OA
DOCKED: BRANCH  21  22
DOCKED: ATOM     22  P   UNL d   1     -13.577  -5.644  14.590 +0.01 -0.07    +0.473 P 
DOCKED: ATOM     23  O   UNL d   1     -14.312  -6.872  15.011 +0.00 +0.02    -0.228 OA
DOCKED: BRANCH  22  24
DOCKED: ATOM     24  O   UNL d   1     -13.755  -4.394  15.559 +0.01 +0.02    -0.303 OA
DOCKED: ATOM     25  H   UNL d   1     -13.972  -4.734  16.464 +0.00 -0.01    +0.222 HD
DOCKED: ENDBRANCH  22  24
DOCKED: BRANCH  22  26
DOCKED: ATOM     26  O   UNL d   1     -13.997  -5.025  13.172 +0.00 +0.06    -0.303 OA
DOCKED: ATOM     27  H   UNL d   1     -13.243  -4.521  12.804 +0.02 -0.06    +0.222 HD
DOCKED: ENDBRANCH  22  26
DOCKED: ENDBRANCH  21  22
DOCKED: ENDBRANCH   6  21
DOCKED: BRANCH   3  28
DOCKED: ATOM     28  O   UNL d   1      -8.000  -5.057  18.191 -0.01 -0.02    -0.278 OA
DOCKED: BRANCH  28  29
DOCKED: ATOM     29  P   UNL d   1      -7.388  -3.615  17.908 -0.06 +0.16    +0.473 P 
DOCKED: ATOM     30  O   UNL d   1      -6.343  -3.558  16.854 -0.17 -0.13    -0.228 OA
DOCKED: BRANCH  29  31
DOCKED: ATOM     31  O   UNL d   1      -8.732  -2.788  17.643 -0.04 -0.17    -0.303 OA
DOCKED: ATOM     32  H   UNL d   1      -9.415  -3.083  18.290 +0.02 +0.06    +0.222 HD
DOCKED: ENDBRANCH  29  31
DOCKED: BRANCH  29  33
DOCKED: ATOM     33  O   UNL d   1      -6.964  -3.139  19.367 -0.04 -0.05    -0.303 OA
DOCKED: ATOM     34  H   UNL d   1      -7.620  -2.474  19.692 +0.02 +0.04    +0.222 HD
DOCKED: ENDBRANCH  29  33
DOCKED: ENDBRANCH  28  29
DOCKED: ENDBRANCH   3  28
DOCKED: BRANCH   5  35
DOCKED: ATOM     35  O   UNL d   1      -9.651  -4.041  13.982 -0.53 +0.09    -0.278 OA
DOCKED: BRANCH  35  36
DOCKED: ATOM     36  P   UNL d   1     -10.510  -2.720  14.224 -0.02 +0.05    +0.473 P 
DOCKED: ATOM     37  O   UNL d   1     -10.545  -2.222  15.634 -0.65 -0.13    -0.228 OA
DOCKED: BRANCH  36  38
DOCKED: ATOM     38  O   UNL d   1      -9.849  -1.707  13.188 -0.49 -0.01    -0.303 OA
DOCKED: ATOM     39  H   UNL d   1      -9.432  -2.217  12.461 -0.44 -0.22    +0.222 HD
DOCKED: ENDBRANCH  36  38
DOCKED: BRANCH  36  40
DOCKED: ATOM     40  O   UNL d   1     -11.904  -3.094  13.556 -0.04 +0.08    -0.303 OA
DOCKED: ATOM     41  H   UNL d   1     -12.315  -3.877  13.985 +0.02 -0.05    +0.222 HD
DOCKED: ENDBRANCH  36  40
DOCKED: ENDBRANCH  35  36
DOCKED: ENDBRANCH   5  35
DOCKED: BRANCH   4  42
DOCKED: ATOM     42  O   UNL d   1      -7.412  -5.274  15.382 -0.13 -0.02    -0.278 OA
DOCKED: BRANCH  42  43
DOCKED: ATOM     43  P   UNL d   1      -6.827  -6.713  15.744 -0.05 -0.05    +0.473 P 
DOCKED: ATOM     44  O   UNL d   1      -7.801  -7.824  15.931 -0.03 +0.03    -0.228 OA
DOCKED: BRANCH  43  45
DOCKED: ATOM     45  O   UNL d   1      -5.771  -6.963  14.580 -0.21 +0.08    -0.303 OA
DOCKED: ATOM     46  H   UNL d   1      -4.867  -6.710  14.856 -0.35 -0.12    +0.222 HD
DOCKED: ENDBRANCH  43  45
DOCKED: BRANCH  43  47
DOCKED: ATOM     47  O   UNL d   1      -5.869  -6.415  16.994 -0.07 +0.02    -0.303 OA
DOCKED: ATOM     48  H   UNL d   1      -6.231  -5.661  17.505 +0.06 +0.00    +0.222 HD
DOCKED: ENDBRANCH  43  47
DOCKED: ENDBRANCH  42  43
DOCKED: ENDBRANCH   4  42
DOCKED: TORSDOF 24
DOCKED: TER
DOCKED: ENDMDL
________________________________________________________________________________


	BEGINNING GENETIC ALGORITHM DOCKING 73 of 100
Run: 73 Seed: 821560456 1570438492 [ Run 73 of 100 GA/GALS ]
Beginning LAMARCKIAN GENETIC ALGORITHM (LGA), with a maximum of 25000000 energy evaluations.

Final-Value: -18.830


	FINAL GENETIC ALGORITHM DOCKED STATE
	_______________________________________________


Detailed state:  trans -5.456 12.122 -12.798 quatxyzw 0.628666 0.425173 -0.531138 0.376694 center 0.035 0.082 -0.065 ntor 24 104.2812 71.8688 97.1135 95.0581 12.1482 -140.2433 38.7028 -88.0355 -0.8195 8.7273 140.7580 137.9572 -171.6901 124.3016 -28.1626 -135.6510 -78.7199 31.0843 4.4383 -9.8049 165.4072 5.1876 7.4957 176.6824
State:	 -5.456  12.122 -12.798   0.679  0.459 -0.573 135.742    104.28   71.87   97.11   95.06   12.15 -140.24   38.70  -88.04   -0.82    8.73  140.76  137.96 -171.69  124.30  -28.16 -135.65  -78.72   31.08    4.44   -9.80  165.41    5.19    7.50  176.68

DOCKED: MODEL       73
DOCKED: USER    Run = 73
DOCKED: USER    DPF = D:/Protein_go_brrr/autodock/final/mut_N102T/IHP/dock.dpf
DOCKED: USER  
DOCKED: USER    Estimated Free Energy of Binding    =   +2.32 kcal/mol  [=(1)+(2)+(3)-(4)]
DOCKED: USER    
DOCKED: USER    (1) Final Intermolecular Energy     =   -4.84 kcal/mol
DOCKED: USER        vdW + Hbond + desolv Energy     =   -4.72 kcal/mol
DOCKED: USER        Electrostatic Energy            =   -0.12 kcal/mol
DOCKED: USER    (2) Final Total Internal Energy     =  -13.99 kcal/mol
DOCKED: USER    (3) Torsional Free Energy           =   +7.16 kcal/mol
DOCKED: USER    (4) Unbound System's Energy  [=(2)] =  -13.99 kcal/mol
DOCKED: USER    
DOCKED: USER    
DOCKED: USER    NEWDPF move IHP_ideal_opt.pdbqt
DOCKED: USER    NEWDPF about 0.035000 0.082000 -0.065000
DOCKED: USER    NEWDPF tran0 -5.456476 12.121660 -12.797852
DOCKED: USER    NEWDPF quaternion0 0.628666 0.425173 -0.531138 0.376694
DOCKED: USER    NEWDPF axisangle0 0.678658 0.458983 -0.573375 135.741888
DOCKED: USER    NEWDPF quat0 0.678658 0.458983 -0.573375 135.741888
DOCKED: USER    NEWDPF dihe0 104.28 71.87 97.11 95.06 12.15 -140.24 38.70 -88.04 -0.82 8.73 140.76 137.96 -171.69 124.30 -28.16 -135.65 -78.72 31.08 4.44 -9.80 165.41 5.19 7.50 176.68 
DOCKED: USER  keepresnum = 1 
DOCKED: USER  
DOCKED: REMARK  24 active torsions:
DOCKED: REMARK  status: ('A' for Active; 'I' for Inactive)
DOCKED: REMARK    1  A    between atoms: C_1  and  O_7 
DOCKED: REMARK    2  A    between atoms: C_2  and  O_12 
DOCKED: REMARK    3  A    between atoms: C_3  and  O_17 
DOCKED: REMARK    4  A    between atoms: C_4  and  O_22 
DOCKED: REMARK    5  A    between atoms: C_5  and  O_27 
DOCKED: REMARK    6  A    between atoms: C_6  and  O_32 
DOCKED: REMARK    7  A    between atoms: O_7  and  P_8 
DOCKED: REMARK    8  A    between atoms: P_8  and  O_10 
DOCKED: REMARK    9  A    between atoms: P_8  and  O_11 
DOCKED: REMARK   10  A    between atoms: O_12  and  P_13 
DOCKED: REMARK   11  A    between atoms: P_13  and  O_15 
DOCKED: REMARK   12  A    between atoms: P_13  and  O_16 
DOCKED: REMARK   13  A    between atoms: O_17  and  P_18 
DOCKED: REMARK   14  A    between atoms: P_18  and  O_20 
DOCKED: REMARK   15  A    between atoms: P_18  and  O_21 
DOCKED: REMARK   16  A    between atoms: O_22  and  P_23 
DOCKED: REMARK   17  A    between atoms: P_23  and  O_25 
DOCKED: REMARK   18  A    between atoms: P_23  and  O_26 
DOCKED: REMARK   19  A    between atoms: O_27  and  P_28 
DOCKED: REMARK   20  A    between atoms: P_28  and  O_30 
DOCKED: REMARK   21  A    between atoms: P_28  and  O_31 
DOCKED: REMARK   22  A    between atoms: O_32  and  P_33 
DOCKED: REMARK   23  A    between atoms: P_33  and  O_35 
DOCKED: REMARK   24  A    between atoms: P_33  and  O_36 
DOCKED: USER                              x       y       z     vdW  Elec       q    Type
DOCKED: USER                           _______ _______ _______ _____ _____    ______ ____
DOCKED: ROOT
DOCKED: ATOM      1  C   UNL d   1      -6.264  13.625 -12.532 -0.03 -0.00    +0.194 C 
DOCKED: ATOM      2  C   UNL d   1      -6.101  12.736 -11.298 -0.06 -0.01    +0.194 C 
DOCKED: ATOM      3  C   UNL d   1      -6.405  11.269 -11.612 -0.10 -0.02    +0.194 C 
DOCKED: ATOM      4  C   UNL d   1      -5.627  10.738 -12.814 -0.21 -0.03    +0.194 C 
DOCKED: ATOM      5  C   UNL d   1      -5.669  11.652 -14.033 -0.16 -0.02    +0.194 C 
DOCKED: ATOM      6  C   UNL d   1      -5.425  13.127 -13.709 -0.10 -0.01    +0.194 C 
DOCKED: ENDROOT
DOCKED: BRANCH   1   7
DOCKED: ATOM      7  O   UNL d   1      -5.799  14.936 -12.202 -0.01 -0.00    -0.278 OA
DOCKED: BRANCH   7   8
DOCKED: ATOM      8  P   UNL d   1      -6.838  16.148 -12.263 +0.00 +0.01    +0.473 P 
DOCKED: ATOM      9  O   UNL d   1      -6.482  17.236 -13.214 -0.00 -0.01    -0.228 OA
DOCKED: BRANCH   8  10
DOCKED: ATOM     10  O   UNL d   1      -8.230  15.447 -12.603 -0.00 -0.00    -0.303 OA
DOCKED: ATOM     11  H   UNL d   1      -8.133  14.897 -13.403 +0.00 +0.00    +0.222 HD
DOCKED: ENDBRANCH   8  10
DOCKED: BRANCH   8  12
DOCKED: ATOM     12  O   UNL d   1      -7.048  16.589 -10.752 +0.00 -0.00    -0.303 OA
DOCKED: ATOM     13  H   UNL d   1      -6.275  16.384 -10.179 +0.01 +0.00    +0.222 HD
DOCKED: ENDBRANCH   8  12
DOCKED: ENDBRANCH   7   8
DOCKED: ENDBRANCH   1   7
DOCKED: BRANCH   2  14
DOCKED: ATOM     14  O   UNL d   1      -4.750  12.832 -10.830 -0.13 +0.02    -0.278 OA
DOCKED: BRANCH  14  15
DOCKED: ATOM     15  P   UNL d   1      -4.549  13.332  -9.322 -0.12 -0.02    +0.473 P 
DOCKED: ATOM     16  O   UNL d   1      -3.140  13.429  -8.828 -0.28 +0.01    -0.228 OA
DOCKED: BRANCH  15  17
DOCKED: ATOM     17  O   UNL d   1      -5.318  14.726  -9.271 -0.02 +0.00    -0.303 OA
DOCKED: ATOM     18  H   UNL d   1      -5.734  14.930 -10.130 +0.03 -0.00    +0.222 HD
DOCKED: ENDBRANCH  15  17
DOCKED: BRANCH  15  19
DOCKED: ATOM     19  O   UNL d   1      -5.514  12.403  -8.464 -0.09 +0.01    -0.303 OA
DOCKED: ATOM     20  H   UNL d   1      -5.555  11.498  -8.822 +0.09 -0.01    +0.222 HD
DOCKED: ENDBRANCH  15  19
DOCKED: ENDBRANCH  14  15
DOCKED: ENDBRANCH   2  14
DOCKED: BRANCH   6  21
DOCKED: ATOM     21  O   UNL d   1      -5.830  13.873 -14.856 -0.04 -0.01    -0.278 OA
DOCKED: BRANCH  21  22
DOCKED: ATOM     22  P   UNL d   1      -7.354  13.841 -15.324 +0.00 +0.02    +0.473 P 
DOCKED: ATOM     23  O   UNL d   1      -8.326  13.057 -14.507 -0.01 -0.00    -0.228 OA
DOCKED: BRANCH  22  24
DOCKED: ATOM     24  O   UNL d   1      -7.688  15.392 -15.451 -0.00 -0.02    -0.303 OA
DOCKED: ATOM     25  H   UNL d   1      -7.460  15.828 -14.591 +0.01 +0.01    +0.222 HD
DOCKED: ENDBRANCH  22  24
DOCKED: BRANCH  22  26
DOCKED: ATOM     26  O   UNL d   1      -7.214  13.405 -16.860 -0.02 -0.02    -0.303 OA
DOCKED: ATOM     27  H   UNL d   1      -6.585  12.658 -16.927 +0.06 +0.01    +0.222 HD
DOCKED: ENDBRANCH  22  26
DOCKED: ENDBRANCH  21  22
DOCKED: ENDBRANCH   6  21
DOCKED: BRANCH   3  28
DOCKED: ATOM     28  O   UNL d   1      -5.964  10.494 -10.505 -0.11 +0.02    -0.278 OA
DOCKED: BRANCH  28  29
DOCKED: ATOM     29  P   UNL d   1      -7.011   9.674  -9.629 -0.10 -0.03    +0.473 P 
DOCKED: ATOM     30  O   UNL d   1      -6.535   9.258  -8.285 -0.20 +0.01    -0.228 OA
DOCKED: BRANCH  29  31
DOCKED: ATOM     31  O   UNL d   1      -8.260  10.674  -9.680 -0.02 +0.01    -0.303 OA
DOCKED: ATOM     32  H   UNL d   1      -8.818  10.440 -10.457 +0.03 -0.01    +0.222 HD
DOCKED: ENDBRANCH  29  31
DOCKED: BRANCH  29  33
DOCKED: ATOM     33  O   UNL d   1      -7.448   8.515 -10.629 -0.13 +0.08    -0.303 OA
DOCKED: ATOM     34  H   UNL d   1      -7.369   8.844 -11.557 -0.08 -0.07    +0.222 HD
DOCKED: ENDBRANCH  29  33
DOCKED: ENDBRANCH  28  29
DOCKED: ENDBRANCH   3  28
DOCKED: BRANCH   5  35
DOCKED: ATOM     35  O   UNL d   1      -4.599  11.224 -14.873 -0.27 +0.08    -0.278 OA
DOCKED: BRANCH  35  36
DOCKED: ATOM     36  P   UNL d   1      -4.807  11.119 -16.451 -0.29 -0.05    +0.473 P 
DOCKED: ATOM     37  O   UNL d   1      -6.172  10.698 -16.894 -0.21 +0.00    -0.228 OA
DOCKED: BRANCH  36  38
DOCKED: ATOM     38  O   UNL d   1      -4.383  12.576 -16.934 -0.23 -0.02    -0.303 OA
DOCKED: ATOM     39  H   UNL d   1      -5.068  13.220 -16.652 +0.07 +0.02    +0.222 HD
DOCKED: ENDBRANCH  36  38
DOCKED: BRANCH  36  40
DOCKED: ATOM     40  O   UNL d   1      -3.589  10.199 -16.895 -0.45 +0.08    -0.303 OA
DOCKED: ATOM     41  H   UNL d   1      -2.797  10.346 -16.331 -0.45 -0.11    +0.222 HD
DOCKED: ENDBRANCH  36  40
DOCKED: ENDBRANCH  35  36
DOCKED: ENDBRANCH   5  35
DOCKED: BRANCH   4  42
DOCKED: ATOM     42  O   UNL d   1      -6.243   9.503 -13.193 -0.21 +0.07    -0.278 OA
DOCKED: BRANCH  42  43
DOCKED: ATOM     43  P   UNL d   1      -7.737   9.525 -13.751 -0.14 -0.07    +0.473 P 
DOCKED: ATOM     44  O   UNL d   1      -7.939   9.977 -15.156 -0.15 +0.01    -0.228 OA
DOCKED: BRANCH  43  45
DOCKED: ATOM     45  O   UNL d   1      -8.238   8.042 -13.467 -0.14 +0.09    -0.303 OA
DOCKED: ATOM     46  H   UNL d   1      -8.323   7.870 -12.508 -0.49 -0.13    +0.222 HD
DOCKED: ENDBRANCH  43  45
DOCKED: BRANCH  43  47
DOCKED: ATOM     47  O   UNL d   1      -8.533  10.357 -12.635 -0.04 +0.02    -0.303 OA
DOCKED: ATOM     48  H   UNL d   1      -8.245  10.061 -11.747 +0.05 -0.02    +0.222 HD
DOCKED: ENDBRANCH  43  47
DOCKED: ENDBRANCH  42  43
DOCKED: ENDBRANCH   4  42
DOCKED: TORSDOF 24
DOCKED: TER
DOCKED: ENDMDL
________________________________________________________________________________


	BEGINNING GENETIC ALGORITHM DOCKING 74 of 100
Run: 74 Seed: 1803653827 924472091 [ Run 74 of 100 GA/GALS ]
Beginning LAMARCKIAN GENETIC ALGORITHM (LGA), with a maximum of 25000000 energy evaluations.

Final-Value: -19.719


	FINAL GENETIC ALGORITHM DOCKED STATE
	_______________________________________________


Detailed state:  trans 10.820 -14.441 -11.562 quatxyzw -0.018930 -0.959459 0.230739 -0.160748 center 0.035 0.082 -0.065 ntor 24 79.6196 74.7562 174.5239 -9.1967 -27.6964 179.9900 -116.5001 -90.2502 101.7784 78.2191 22.5852 -118.7862 142.0475 -179.5674 177.2981 -146.4735 106.6652 -76.8024 52.3399 9.9485 167.3749 4.5108 -9.3326 172.3260
State:	 10.820 -14.441 -11.562  -0.019 -0.972  0.234 -161.499     79.62   74.76  174.52   -9.20  -27.70  179.99 -116.50  -90.25  101.78   78.22   22.59 -118.79  142.05 -179.57  177.30 -146.47  106.67  -76.80   52.34    9.95  167.37    4.51   -9.33  172.33

DOCKED: MODEL       74
DOCKED: USER    Run = 74
DOCKED: USER    DPF = D:/Protein_go_brrr/autodock/final/mut_N102T/IHP/dock.dpf
DOCKED: USER  
DOCKED: USER    Estimated Free Energy of Binding    =   +2.89 kcal/mol  [=(1)+(2)+(3)-(4)]
DOCKED: USER    
DOCKED: USER    (1) Final Intermolecular Energy     =   -4.27 kcal/mol
DOCKED: USER        vdW + Hbond + desolv Energy     =   -3.69 kcal/mol
DOCKED: USER        Electrostatic Energy            =   -0.59 kcal/mol
DOCKED: USER    (2) Final Total Internal Energy     =  -15.45 kcal/mol
DOCKED: USER    (3) Torsional Free Energy           =   +7.16 kcal/mol
DOCKED: USER    (4) Unbound System's Energy  [=(2)] =  -15.45 kcal/mol
DOCKED: USER    
DOCKED: USER    
DOCKED: USER    NEWDPF move IHP_ideal_opt.pdbqt
DOCKED: USER    NEWDPF about 0.035000 0.082000 -0.065000
DOCKED: USER    NEWDPF tran0 10.819805 -14.440730 -11.561687
DOCKED: USER    NEWDPF quaternion0 -0.018930 -0.959459 0.230739 -0.160748
DOCKED: USER    NEWDPF axisangle0 -0.019179 -0.972100 0.233779 -161.499326
DOCKED: USER    NEWDPF quat0 -0.019179 -0.972100 0.233779 -161.499326
DOCKED: USER    NEWDPF dihe0 79.62 74.76 174.52 -9.20 -27.70 179.99 -116.50 -90.25 101.78 78.22 22.59 -118.79 142.05 -179.57 177.30 -146.47 106.67 -76.80 52.34 9.95 167.37 4.51 -9.33 172.33 
DOCKED: USER  keepresnum = 1 
DOCKED: USER  
DOCKED: REMARK  24 active torsions:
DOCKED: REMARK  status: ('A' for Active; 'I' for Inactive)
DOCKED: REMARK    1  A    between atoms: C_1  and  O_7 
DOCKED: REMARK    2  A    between atoms: C_2  and  O_12 
DOCKED: REMARK    3  A    between atoms: C_3  and  O_17 
DOCKED: REMARK    4  A    between atoms: C_4  and  O_22 
DOCKED: REMARK    5  A    between atoms: C_5  and  O_27 
DOCKED: REMARK    6  A    between atoms: C_6  and  O_32 
DOCKED: REMARK    7  A    between atoms: O_7  and  P_8 
DOCKED: REMARK    8  A    between atoms: P_8  and  O_10 
DOCKED: REMARK    9  A    between atoms: P_8  and  O_11 
DOCKED: REMARK   10  A    between atoms: O_12  and  P_13 
DOCKED: REMARK   11  A    between atoms: P_13  and  O_15 
DOCKED: REMARK   12  A    between atoms: P_13  and  O_16 
DOCKED: REMARK   13  A    between atoms: O_17  and  P_18 
DOCKED: REMARK   14  A    between atoms: P_18  and  O_20 
DOCKED: REMARK   15  A    between atoms: P_18  and  O_21 
DOCKED: REMARK   16  A    between atoms: O_22  and  P_23 
DOCKED: REMARK   17  A    between atoms: P_23  and  O_25 
DOCKED: REMARK   18  A    between atoms: P_23  and  O_26 
DOCKED: REMARK   19  A    between atoms: O_27  and  P_28 
DOCKED: REMARK   20  A    between atoms: P_28  and  O_30 
DOCKED: REMARK   21  A    between atoms: P_28  and  O_31 
DOCKED: REMARK   22  A    between atoms: O_32  and  P_33 
DOCKED: REMARK   23  A    between atoms: P_33  and  O_35 
DOCKED: REMARK   24  A    between atoms: P_33  and  O_36 
DOCKED: USER                              x       y       z     vdW  Elec       q    Type
DOCKED: USER                           _______ _______ _______ _____ _____    ______ ____
DOCKED: ROOT
DOCKED: ATOM      1  C   UNL d   1       9.415 -15.440 -11.453 -0.14 -0.07    +0.194 C 
DOCKED: ATOM      2  C   UNL d   1      10.745 -16.135 -11.156 -0.07 -0.04    +0.194 C 
DOCKED: ATOM      3  C   UNL d   1      11.833 -15.728 -12.152 -0.03 -0.03    +0.194 C 
DOCKED: ATOM      4  C   UNL d   1      11.989 -14.215 -12.287 -0.06 -0.02    +0.194 C 
DOCKED: ATOM      5  C   UNL d   1      10.673 -13.469 -12.470 -0.12 -0.04    +0.194 C 
DOCKED: ATOM      6  C   UNL d   1       9.567 -13.920 -11.514 -0.12 -0.07    +0.194 C 
DOCKED: ENDROOT
DOCKED: BRANCH   1   7
DOCKED: ATOM      7  O   UNL d   1       8.510 -15.736 -10.388 -0.71 +0.16    -0.278 OA
DOCKED: BRANCH   7   8
DOCKED: ATOM      8  P   UNL d   1       7.950 -17.227 -10.258 -0.09 -0.35    +0.473 P 
DOCKED: ATOM      9  O   UNL d   1       6.788 -17.387  -9.342 -0.27 +0.17    -0.228 OA
DOCKED: BRANCH   8  10
DOCKED: ATOM     10  O   UNL d   1       7.628 -17.651 -11.762 -0.04 +0.33    -0.303 OA
DOCKED: ATOM     11  H   UNL d   1       6.784 -17.248 -12.042 -0.41 -0.60    +0.222 HD
DOCKED: ENDBRANCH   8  10
DOCKED: BRANCH   8  12
DOCKED: ATOM     12  O   UNL d   1       9.223 -18.118  -9.927 -0.03 +0.09    -0.303 OA
DOCKED: ATOM     13  H   UNL d   1       9.918 -17.629  -9.431 +0.05 -0.05    +0.222 HD
DOCKED: ENDBRANCH   8  12
DOCKED: ENDBRANCH   7   8
DOCKED: ENDBRANCH   1   7
DOCKED: BRANCH   2  14
DOCKED: ATOM     14  O   UNL d   1      11.176 -15.774  -9.838 -0.06 +0.05    -0.278 OA
DOCKED: BRANCH  14  15
DOCKED: ATOM     15  P   UNL d   1      11.866 -16.929  -8.969 -0.03 -0.06    +0.473 P 
DOCKED: ATOM     16  O   UNL d   1      11.256 -17.222  -7.634 -0.06 +0.03    -0.228 OA
DOCKED: BRANCH  15  17
DOCKED: ATOM     17  O   UNL d   1      11.869 -18.194  -9.938 -0.00 +0.03    -0.303 OA
DOCKED: ATOM     18  H   UNL d   1      12.591 -18.134 -10.592 +0.01 -0.02    +0.222 HD
DOCKED: ENDBRANCH  15  17
DOCKED: BRANCH  15  19
DOCKED: ATOM     19  O   UNL d   1      13.409 -16.540  -8.947 -0.03 +0.03    -0.303 OA
DOCKED: ATOM     20  H   UNL d   1      13.819 -16.643  -9.826 +0.01 -0.02    +0.222 HD
DOCKED: ENDBRANCH  15  19
DOCKED: ENDBRANCH  14  15
DOCKED: ENDBRANCH   2  14
DOCKED: BRANCH   6  21
DOCKED: ATOM     21  O   UNL d   1       8.343 -13.397 -12.025 -0.23 +0.16    -0.278 OA
DOCKED: BRANCH  21  22
DOCKED: ATOM     22  P   UNL d   1       7.791 -13.906 -13.433 -0.12 -0.13    +0.473 P 
DOCKED: ATOM     23  O   UNL d   1       6.929 -12.983 -14.227 -0.46 -0.17    -0.228 OA
DOCKED: BRANCH  22  24
DOCKED: ATOM     24  O   UNL d   1       9.130 -14.361 -14.162 -0.02 +0.03    -0.303 OA
DOCKED: ATOM     25  H   UNL d   1       9.459 -13.601 -14.706 +0.04 +0.01    +0.222 HD
DOCKED: ENDBRANCH  22  24
DOCKED: BRANCH  22  26
DOCKED: ATOM     26  O   UNL d   1       7.134 -15.313 -13.036 -0.03 +0.36    -0.303 OA
DOCKED: ATOM     27  H   UNL d   1       7.166 -15.421 -12.064 -0.32 -0.42    +0.222 HD
DOCKED: ENDBRANCH  22  26
DOCKED: ENDBRANCH  21  22
DOCKED: ENDBRANCH   6  21
DOCKED: BRANCH   3  28
DOCKED: ATOM     28  O   UNL d   1      13.076 -16.191 -11.643 -0.01 +0.03    -0.278 OA
DOCKED: BRANCH  28  29
DOCKED: ATOM     29  P   UNL d   1      13.901 -17.306 -12.426 +0.01 -0.03    +0.473 P 
DOCKED: ATOM     30  O   UNL d   1      15.093 -17.839 -11.716 -0.00 +0.01    -0.228 OA
DOCKED: BRANCH  29  31
DOCKED: ATOM     31  O   UNL d   1      12.727 -18.344 -12.753 +0.00 +0.02    -0.303 OA
DOCKED: ATOM     32  H   UNL d   1      12.388 -18.711 -11.905 +0.00 -0.02    +0.222 HD
DOCKED: ENDBRANCH  29  31
DOCKED: BRANCH  29  33
DOCKED: ATOM     33  O   UNL d   1      14.155 -16.607 -13.834 +0.00 +0.02    -0.303 OA
DOCKED: ATOM     34  H   UNL d   1      13.397 -16.005 -14.035 +0.00 -0.01    +0.222 HD
DOCKED: ENDBRANCH  29  33
DOCKED: ENDBRANCH  28  29
DOCKED: ENDBRANCH   3  28
DOCKED: BRANCH   5  35
DOCKED: ATOM     35  O   UNL d   1      10.957 -12.104 -12.170 -0.14 +0.07    -0.278 OA
DOCKED: BRANCH  35  36
DOCKED: ATOM     36  P   UNL d   1      10.703 -10.970 -13.262 -0.06 -0.04    +0.473 P 
DOCKED: ATOM     37  O   UNL d   1      10.373  -9.615 -12.721 -0.16 +0.02    -0.228 OA
DOCKED: BRANCH  36  38
DOCKED: ATOM     38  O   UNL d   1      12.050 -11.026 -14.110 -0.01 +0.01    -0.303 OA
DOCKED: ATOM     39  H   UNL d   1      12.390 -11.947 -14.113 +0.02 -0.01    +0.222 HD
DOCKED: ENDBRANCH  36  38
DOCKED: BRANCH  36  40
DOCKED: ATOM     40  O   UNL d   1       9.624 -11.650 -14.213 -0.07 -0.04    -0.303 OA
DOCKED: ATOM     41  H   UNL d   1       8.989 -12.202 -13.707 +0.04 +0.01    +0.222 HD
DOCKED: ENDBRANCH  36  40
DOCKED: ENDBRANCH  35  36
DOCKED: ENDBRANCH   5  35
DOCKED: BRANCH   4  42
DOCKED: ATOM     42  O   UNL d   1      12.772 -13.982 -13.462 -0.01 +0.02    -0.278 OA
DOCKED: BRANCH  42  43
DOCKED: ATOM     43  P   UNL d   1      12.212 -14.473 -14.872 +0.01 -0.02    +0.473 P 
DOCKED: ATOM     44  O   UNL d   1      11.353 -15.690 -14.884 +0.00 +0.01    -0.228 OA
DOCKED: BRANCH  43  45
DOCKED: ATOM     45  O   UNL d   1      11.500 -13.168 -15.439 +0.00 -0.00    -0.303 OA
DOCKED: ATOM     46  H   UNL d   1      10.889 -12.779 -14.782 +0.03 +0.00    +0.222 HD
DOCKED: ENDBRANCH  43  45
DOCKED: BRANCH  43  47
DOCKED: ATOM     47  O   UNL d   1      13.529 -14.547 -15.784 +0.00 +0.01    -0.303 OA
DOCKED: ATOM     48  H   UNL d   1      14.159 -15.185 -15.389 +0.00 -0.01    +0.222 HD
DOCKED: ENDBRANCH  43  47
DOCKED: ENDBRANCH  42  43
DOCKED: ENDBRANCH   4  42
DOCKED: TORSDOF 24
DOCKED: TER
DOCKED: ENDMDL
________________________________________________________________________________


	BEGINNING GENETIC ALGORITHM DOCKING 75 of 100
Run: 75 Seed: 1887598068 467151831 [ Run 75 of 100 GA/GALS ]
Beginning LAMARCKIAN GENETIC ALGORITHM (LGA), with a maximum of 25000000 energy evaluations.

Final-Value: -19.278


	FINAL GENETIC ALGORITHM DOCKED STATE
	_______________________________________________


Detailed state:  trans 7.629 16.673 4.534 quatxyzw 0.022163 0.897064 0.440917 -0.019417 center 0.035 0.082 -0.065 ntor 24 139.5885 96.9689 89.6433 37.8035 161.9182 82.8333 8.9196 -111.5889 100.4861 72.5157 12.7543 -117.1493 -24.3968 18.9085 -144.4153 -124.1065 105.6429 -58.8655 -10.6087 -24.1597 5.8131 29.2541 -12.1071 173.0450
State:	  7.629  16.673   4.534   0.022  0.897  0.441 -177.775    139.59   96.97   89.64   37.80  161.92   82.83    8.92 -111.59  100.49   72.52   12.75 -117.15  -24.40   18.91 -144.42 -124.11  105.64  -58.87  -10.61  -24.16    5.81   29.25  -12.11  173.04

DOCKED: MODEL       75
DOCKED: USER    Run = 75
DOCKED: USER    DPF = D:/Protein_go_brrr/autodock/final/mut_N102T/IHP/dock.dpf
DOCKED: USER  
DOCKED: USER    Estimated Free Energy of Binding    =   +2.55 kcal/mol  [=(1)+(2)+(3)-(4)]
DOCKED: USER    
DOCKED: USER    (1) Final Intermolecular Energy     =   -4.61 kcal/mol
DOCKED: USER        vdW + Hbond + desolv Energy     =   -4.63 kcal/mol
DOCKED: USER        Electrostatic Energy            =   +0.02 kcal/mol
DOCKED: USER    (2) Final Total Internal Energy     =  -14.67 kcal/mol
DOCKED: USER    (3) Torsional Free Energy           =   +7.16 kcal/mol
DOCKED: USER    (4) Unbound System's Energy  [=(2)] =  -14.67 kcal/mol
DOCKED: USER    
DOCKED: USER    
DOCKED: USER    NEWDPF move IHP_ideal_opt.pdbqt
DOCKED: USER    NEWDPF about 0.035000 0.082000 -0.065000
DOCKED: USER    NEWDPF tran0 7.628746 16.672577 4.533875
DOCKED: USER    NEWDPF quaternion0 0.022163 0.897064 0.440917 -0.019417
DOCKED: USER    NEWDPF axisangle0 0.022168 0.897233 0.441000 -177.774803
DOCKED: USER    NEWDPF quat0 0.022168 0.897233 0.441000 -177.774803
DOCKED: USER    NEWDPF dihe0 139.59 96.97 89.64 37.80 161.92 82.83 8.92 -111.59 100.49 72.52 12.75 -117.15 -24.40 18.91 -144.42 -124.11 105.64 -58.87 -10.61 -24.16 5.81 29.25 -12.11 173.04 
DOCKED: USER  keepresnum = 1 
DOCKED: USER  
DOCKED: REMARK  24 active torsions:
DOCKED: REMARK  status: ('A' for Active; 'I' for Inactive)
DOCKED: REMARK    1  A    between atoms: C_1  and  O_7 
DOCKED: REMARK    2  A    between atoms: C_2  and  O_12 
DOCKED: REMARK    3  A    between atoms: C_3  and  O_17 
DOCKED: REMARK    4  A    between atoms: C_4  and  O_22 
DOCKED: REMARK    5  A    between atoms: C_5  and  O_27 
DOCKED: REMARK    6  A    between atoms: C_6  and  O_32 
DOCKED: REMARK    7  A    between atoms: O_7  and  P_8 
DOCKED: REMARK    8  A    between atoms: P_8  and  O_10 
DOCKED: REMARK    9  A    between atoms: P_8  and  O_11 
DOCKED: REMARK   10  A    between atoms: O_12  and  P_13 
DOCKED: REMARK   11  A    between atoms: P_13  and  O_15 
DOCKED: REMARK   12  A    between atoms: P_13  and  O_16 
DOCKED: REMARK   13  A    between atoms: O_17  and  P_18 
DOCKED: REMARK   14  A    between atoms: P_18  and  O_20 
DOCKED: REMARK   15  A    between atoms: P_18  and  O_21 
DOCKED: REMARK   16  A    between atoms: O_22  and  P_23 
DOCKED: REMARK   17  A    between atoms: P_23  and  O_25 
DOCKED: REMARK   18  A    between atoms: P_23  and  O_26 
DOCKED: REMARK   19  A    between atoms: O_27  and  P_28 
DOCKED: REMARK   20  A    between atoms: P_28  and  O_30 
DOCKED: REMARK   21  A    between atoms: P_28  and  O_31 
DOCKED: REMARK   22  A    between atoms: O_32  and  P_33 
DOCKED: REMARK   23  A    between atoms: P_33  and  O_35 
DOCKED: REMARK   24  A    between atoms: P_33  and  O_36 
DOCKED: USER                              x       y       z     vdW  Elec       q    Type
DOCKED: USER                           _______ _______ _______ _____ _____    ______ ____
DOCKED: ROOT
DOCKED: ATOM      1  C   UNL d   1       6.401  16.827   3.329 -0.13 +0.01    +0.194 C 
DOCKED: ATOM      2  C   UNL d   1       7.608  15.974   2.936 -0.14 +0.05    +0.194 C 
DOCKED: ATOM      3  C   UNL d   1       8.925  16.620   3.373 -0.10 +0.12    +0.194 C 
DOCKED: ATOM      4  C   UNL d   1       8.945  17.005   4.850 -0.13 +0.15    +0.194 C 
DOCKED: ATOM      5  C   UNL d   1       7.705  17.759   5.312 -0.15 +0.04    +0.194 C 
DOCKED: ATOM      6  C   UNL d   1       6.390  17.147   4.824 -0.19 +0.01    +0.194 C 
DOCKED: ENDROOT
DOCKED: BRANCH   1   7
DOCKED: ATOM      7  O   UNL d   1       5.216  16.080   3.044 -0.15 +0.00    -0.278 OA
DOCKED: BRANCH   7   8
DOCKED: ATOM      8  P   UNL d   1       4.024  16.812   2.271 -0.05 -0.04    +0.473 P 
DOCKED: ATOM      9  O   UNL d   1       4.442  17.932   1.384 -0.02 +0.03    -0.228 OA
DOCKED: BRANCH   8  10
DOCKED: ATOM     10  O   UNL d   1       3.289  15.632   1.489 -0.11 +0.03    -0.303 OA
DOCKED: ATOM     11  H   UNL d   1       3.881  14.859   1.430 +0.10 -0.02    +0.222 HD
DOCKED: ENDBRANCH   8  10
DOCKED: BRANCH   8  12
DOCKED: ATOM     12  O   UNL d   1       2.964  17.176   3.397 -0.11 +0.04    -0.303 OA
DOCKED: ATOM     13  H   UNL d   1       3.359  17.660   4.157 +0.07 -0.05    +0.222 HD
DOCKED: ENDBRANCH   8  12
DOCKED: ENDBRANCH   7   8
DOCKED: ENDBRANCH   1   7
DOCKED: BRANCH   2  14
DOCKED: ATOM     14  O   UNL d   1       7.499  14.691   3.566 -0.23 -0.12    -0.278 OA
DOCKED: BRANCH  14  15
DOCKED: ATOM     15  P   UNL d   1       7.127  13.457   2.617 -0.20 +0.08    +0.473 P 
DOCKED: ATOM     16  O   UNL d   1       8.212  12.948   1.721 -0.21 -0.03    -0.228 OA
DOCKED: BRANCH  15  17
DOCKED: ATOM     17  O   UNL d   1       6.583  12.346   3.621 -0.38 -0.03    -0.303 OA
DOCKED: ATOM     18  H   UNL d   1       6.692  12.627   4.549 -0.44 -0.01    +0.222 HD
DOCKED: ENDBRANCH  15  17
DOCKED: BRANCH  15  19
DOCKED: ATOM     19  O   UNL d   1       5.789  13.908   1.885 -0.16 +0.01    -0.303 OA
DOCKED: ATOM     20  H   UNL d   1       5.322  14.605   2.383 +0.10 +0.00    +0.222 HD
DOCKED: ENDBRANCH  15  19
DOCKED: ENDBRANCH  14  15
DOCKED: ENDBRANCH   2  14
DOCKED: BRANCH   6  21
DOCKED: ATOM     21  O   UNL d   1       5.376  18.126   5.035 -0.13 +0.06    -0.278 OA
DOCKED: BRANCH  21  22
DOCKED: ATOM     22  P   UNL d   1       4.475  18.062   6.350 -0.16 -0.26    +0.473 P 
DOCKED: ATOM     23  O   UNL d   1       3.019  17.780   6.194 -0.35 +0.18    -0.228 OA
DOCKED: BRANCH  22  24
DOCKED: ATOM     24  O   UNL d   1       5.268  17.005   7.237 -0.22 +0.09    -0.303 OA
DOCKED: ATOM     25  H   UNL d   1       5.859  17.505   7.856 -0.41 -0.10    +0.222 HD
DOCKED: ENDBRANCH  22  24
DOCKED: BRANCH  22  26
DOCKED: ATOM     26  O   UNL d   1       4.849  19.445   7.069 -0.15 +0.27    -0.303 OA
DOCKED: ATOM     27  H   UNL d   1       5.600  19.298   7.680 +0.06 -0.12    +0.222 HD
DOCKED: ENDBRANCH  22  26
DOCKED: ENDBRANCH  21  22
DOCKED: ENDBRANCH   6  21
DOCKED: BRANCH   3  28
DOCKED: ATOM     28  O   UNL d   1       9.951  15.647   3.222 -0.02 -0.39    -0.278 OA
DOCKED: BRANCH  28  29
DOCKED: ATOM     29  P   UNL d   1      11.379  16.066   2.656 -0.01 +0.36    +0.473 P 
DOCKED: ATOM     30  O   UNL d   1      12.105  15.010   1.905 -0.13 -0.12    -0.228 OA
DOCKED: BRANCH  29  31
DOCKED: ATOM     31  O   UNL d   1      10.983  17.390   1.849 -0.00 -0.07    -0.303 OA
DOCKED: ATOM     32  H   UNL d   1      10.600  18.040   2.482 +0.01 +0.05    +0.222 HD
DOCKED: ENDBRANCH  29  31
DOCKED: BRANCH  29  33
DOCKED: ATOM     33  O   UNL d   1      12.095  16.646   3.955 -0.06 -0.26    -0.303 OA
DOCKED: ATOM     34  H   UNL d   1      11.512  17.331   4.364 +0.02 +0.15    +0.222 HD
DOCKED: ENDBRANCH  29  33
DOCKED: ENDBRANCH  28  29
DOCKED: ENDBRANCH   3  28
DOCKED: BRANCH   5  35
DOCKED: ATOM     35  O   UNL d   1       7.706  17.670   6.736 -0.17 -0.03    -0.278 OA
DOCKED: BRANCH  35  36
DOCKED: ATOM     36  P   UNL d   1       7.796  18.991   7.624 -0.08 -0.04    +0.473 P 
DOCKED: ATOM     37  O   UNL d   1       7.122  18.919   8.958 -0.21 +0.05    -0.228 OA
DOCKED: BRANCH  36  38
DOCKED: ATOM     38  O   UNL d   1       9.369  19.228   7.698 -0.03 -0.01    -0.303 OA
DOCKED: ATOM     39  H   UNL d   1       9.784  18.887   6.877 +0.04 +0.03    +0.222 HD
DOCKED: ENDBRANCH  36  38
DOCKED: BRANCH  36  40
DOCKED: ATOM     40  O   UNL d   1       7.287  20.113   6.618 -0.03 +0.05    -0.303 OA
DOCKED: ATOM     41  H   UNL d   1       6.630  19.757   5.978 +0.05 -0.05    +0.222 HD
DOCKED: ENDBRANCH  36  40
DOCKED: ENDBRANCH  35  36
DOCKED: ENDBRANCH   5  35
DOCKED: BRANCH   4  42
DOCKED: ATOM     42  O   UNL d   1      10.063  17.880   5.036 -0.09 -0.15    -0.278 OA
DOCKED: BRANCH  42  43
DOCKED: ATOM     43  P   UNL d   1      10.092  19.270   4.255 +0.01 +0.07    +0.473 P 
DOCKED: ATOM     44  O   UNL d   1       9.110  19.458   3.150 -0.00 -0.01    -0.228 OA
DOCKED: BRANCH  43  45
DOCKED: ATOM     45  O   UNL d   1       9.960  20.334   5.431 +0.00 -0.01    -0.303 OA
DOCKED: ATOM     46  H   UNL d   1       9.126  20.216   5.928 +0.03 +0.00    +0.222 HD
DOCKED: ENDBRANCH  43  45
DOCKED: BRANCH  43  47
DOCKED: ATOM     47  O   UNL d   1      11.633  19.428   3.844 +0.00 -0.04    -0.303 OA
DOCKED: ATOM     48  H   UNL d   1      11.888  18.688   3.255 +0.01 +0.04    +0.222 HD
DOCKED: ENDBRANCH  43  47
DOCKED: ENDBRANCH  42  43
DOCKED: ENDBRANCH   4  42
DOCKED: TORSDOF 24
DOCKED: TER
DOCKED: ENDMDL
________________________________________________________________________________


	BEGINNING GENETIC ALGORITHM DOCKING 76 of 100
Run: 76 Seed: 1967850809 828204595 [ Run 76 of 100 GA/GALS ]
Beginning LAMARCKIAN GENETIC ALGORITHM (LGA), with a maximum of 25000000 energy evaluations.

Final-Value: -16.670


	FINAL GENETIC ALGORITHM DOCKED STATE
	_______________________________________________


Detailed state:  trans -6.639 16.546 3.589 quatxyzw -0.330436 0.713180 -0.617834 -0.021614 center 0.035 0.082 -0.065 ntor 24 71.2616 66.2087 154.5383 19.9812 24.7155 -125.4841 -142.0213 23.5695 126.5437 -51.7704 51.3420 -176.0740 162.1333 -174.6497 -57.7493 12.8960 169.6023 3.6689 39.3505 -3.7099 173.9291 -22.0021 20.0099 162.3627
State:	 -6.639  16.546   3.589  -0.331  0.713 -0.618 -177.523     71.26   66.21  154.54   19.98   24.72 -125.48 -142.02   23.57  126.54  -51.77   51.34 -176.07  162.13 -174.65  -57.75   12.90  169.60    3.67   39.35   -3.71  173.93  -22.00   20.01  162.36

DOCKED: MODEL       76
DOCKED: USER    Run = 76
DOCKED: USER    DPF = D:/Protein_go_brrr/autodock/final/mut_N102T/IHP/dock.dpf
DOCKED: USER  
DOCKED: USER    Estimated Free Energy of Binding    =   +4.79 kcal/mol  [=(1)+(2)+(3)-(4)]
DOCKED: USER    
DOCKED: USER    (1) Final Intermolecular Energy     =   -2.37 kcal/mol
DOCKED: USER        vdW + Hbond + desolv Energy     =   -2.31 kcal/mol
DOCKED: USER        Electrostatic Energy            =   -0.06 kcal/mol
DOCKED: USER    (2) Final Total Internal Energy     =  -14.30 kcal/mol
DOCKED: USER    (3) Torsional Free Energy           =   +7.16 kcal/mol
DOCKED: USER    (4) Unbound System's Energy  [=(2)] =  -14.30 kcal/mol
DOCKED: USER    
DOCKED: USER    
DOCKED: USER    NEWDPF move IHP_ideal_opt.pdbqt
DOCKED: USER    NEWDPF about 0.035000 0.082000 -0.065000
DOCKED: USER    NEWDPF tran0 -6.639257 16.546296 3.589497
DOCKED: USER    NEWDPF quaternion0 -0.330436 0.713180 -0.617834 -0.021614
DOCKED: USER    NEWDPF axisangle0 -0.330513 0.713347 -0.617979 -177.523032
DOCKED: USER    NEWDPF quat0 -0.330513 0.713347 -0.617979 -177.523032
DOCKED: USER    NEWDPF dihe0 71.26 66.21 154.54 19.98 24.72 -125.48 -142.02 23.57 126.54 -51.77 51.34 -176.07 162.13 -174.65 -57.75 12.90 169.60 3.67 39.35 -3.71 173.93 -22.00 20.01 162.36 
DOCKED: USER  keepresnum = 1 
DOCKED: USER  
DOCKED: REMARK  24 active torsions:
DOCKED: REMARK  status: ('A' for Active; 'I' for Inactive)
DOCKED: REMARK    1  A    between atoms: C_1  and  O_7 
DOCKED: REMARK    2  A    between atoms: C_2  and  O_12 
DOCKED: REMARK    3  A    between atoms: C_3  and  O_17 
DOCKED: REMARK    4  A    between atoms: C_4  and  O_22 
DOCKED: REMARK    5  A    between atoms: C_5  and  O_27 
DOCKED: REMARK    6  A    between atoms: C_6  and  O_32 
DOCKED: REMARK    7  A    between atoms: O_7  and  P_8 
DOCKED: REMARK    8  A    between atoms: P_8  and  O_10 
DOCKED: REMARK    9  A    between atoms: P_8  and  O_11 
DOCKED: REMARK   10  A    between atoms: O_12  and  P_13 
DOCKED: REMARK   11  A    between atoms: P_13  and  O_15 
DOCKED: REMARK   12  A    between atoms: P_13  and  O_16 
DOCKED: REMARK   13  A    between atoms: O_17  and  P_18 
DOCKED: REMARK   14  A    between atoms: P_18  and  O_20 
DOCKED: REMARK   15  A    between atoms: P_18  and  O_21 
DOCKED: REMARK   16  A    between atoms: O_22  and  P_23 
DOCKED: REMARK   17  A    between atoms: P_23  and  O_25 
DOCKED: REMARK   18  A    between atoms: P_23  and  O_26 
DOCKED: REMARK   19  A    between atoms: O_27  and  P_28 
DOCKED: REMARK   20  A    between atoms: P_28  and  O_30 
DOCKED: REMARK   21  A    between atoms: P_28  and  O_31 
DOCKED: REMARK   22  A    between atoms: O_32  and  P_33 
DOCKED: REMARK   23  A    between atoms: P_33  and  O_35 
DOCKED: REMARK   24  A    between atoms: P_33  and  O_36 
DOCKED: USER                              x       y       z     vdW  Elec       q    Type
DOCKED: USER                           _______ _______ _______ _____ _____    ______ ____
DOCKED: ROOT
DOCKED: ATOM      1  C   UNL d   1      -6.875  15.220   4.671 -0.09 -0.00    +0.194 C 
DOCKED: ATOM      2  C   UNL d   1      -5.706  16.147   5.007 -0.08 -0.00    +0.194 C 
DOCKED: ATOM      3  C   UNL d   1      -4.907  16.527   3.758 -0.05 +0.01    +0.194 C 
DOCKED: ATOM      4  C   UNL d   1      -5.777  17.080   2.633 -0.01 +0.01    +0.194 C 
DOCKED: ATOM      5  C   UNL d   1      -7.019  16.247   2.341 -0.01 +0.01    +0.194 C 
DOCKED: ATOM      6  C   UNL d   1      -7.783  15.816   3.594 -0.02 +0.00    +0.194 C 
DOCKED: ENDROOT
DOCKED: BRANCH   1   7
DOCKED: ATOM      7  O   UNL d   1      -7.666  15.054   5.851 -0.06 +0.01    -0.278 OA
DOCKED: BRANCH   7   8
DOCKED: ATOM      8  P   UNL d   1      -7.210  13.961   6.922 -0.18 -0.06    +0.473 P 
DOCKED: ATOM      9  O   UNL d   1      -8.321  13.279   7.640 -0.18 +0.04    -0.228 OA
DOCKED: BRANCH   8  10
DOCKED: ATOM     10  O   UNL d   1      -6.293  12.958   6.086 -0.26 +0.03    -0.303 OA
DOCKED: ATOM     11  H   UNL d   1      -6.852  12.277   5.667 +0.09 -0.00    +0.222 HD
DOCKED: ENDBRANCH   8  10
DOCKED: BRANCH   8  12
DOCKED: ATOM     12  O   UNL d   1      -6.143  14.700   7.839 -0.15 +0.03    -0.303 OA
DOCKED: ATOM     13  H   UNL d   1      -6.218  15.680   7.804 +0.06 -0.01    +0.222 HD
DOCKED: ENDBRANCH   8  12
DOCKED: ENDBRANCH   7   8
DOCKED: ENDBRANCH   1   7
DOCKED: BRANCH   2  14
DOCKED: ATOM     14  O   UNL d   1      -6.216  17.346   5.604 -0.03 +0.01    -0.278 OA
DOCKED: BRANCH  14  15
DOCKED: ATOM     15  P   UNL d   1      -5.569  17.780   7.004 -0.06 -0.02    +0.473 P 
DOCKED: ATOM     16  O   UNL d   1      -6.496  17.857   8.177 -0.05 +0.01    -0.228 OA
DOCKED: BRANCH  15  17
DOCKED: ATOM     17  O   UNL d   1      -4.383  16.740   7.221 -0.07 +0.00    -0.303 OA
DOCKED: ATOM     18  H   UNL d   1      -3.741  16.779   6.486 +0.05 -0.00    +0.222 HD
DOCKED: ENDBRANCH  15  17
DOCKED: BRANCH  15  19
DOCKED: ATOM     19  O   UNL d   1      -4.768  19.114   6.674 -0.05 +0.03    -0.303 OA
DOCKED: ATOM     20  H   UNL d   1      -4.315  19.058   5.812 +0.03 -0.02    +0.222 HD
DOCKED: ENDBRANCH  15  19
DOCKED: ENDBRANCH  14  15
DOCKED: ENDBRANCH   2  14
DOCKED: BRANCH   6  21
DOCKED: ATOM     21  O   UNL d   1      -8.686  14.787   3.193 -0.02 -0.00    -0.278 OA
DOCKED: BRANCH  21  22
DOCKED: ATOM     22  P   UNL d   1      -8.122  13.345   2.808 -0.06 +0.01    +0.473 P 
DOCKED: ATOM     23  O   UNL d   1      -6.732  13.251   2.275 -0.09 -0.02    -0.228 OA
DOCKED: BRANCH  22  24
DOCKED: ATOM     24  O   UNL d   1      -8.380  12.526   4.148 -0.14 -0.00    -0.303 OA
DOCKED: ATOM     25  H   UNL d   1      -8.146  13.109   4.915 +0.05 -0.01    +0.222 HD
DOCKED: ENDBRANCH  22  24
DOCKED: BRANCH  22  26
DOCKED: ATOM     26  O   UNL d   1      -9.281  12.787   1.851 -0.04 -0.00    -0.303 OA
DOCKED: ATOM     27  H   UNL d   1      -9.372  13.380   1.077 +0.02 +0.00    +0.222 HD
DOCKED: ENDBRANCH  22  26
DOCKED: ENDBRANCH  21  22
DOCKED: ENDBRANCH   6  21
DOCKED: BRANCH   3  28
DOCKED: ATOM     28  O   UNL d   1      -4.032  17.589   4.116 -0.03 +0.00    -0.278 OA
DOCKED: BRANCH  28  29
DOCKED: ATOM     29  P   UNL d   1      -2.580  17.276   4.691 -0.06 -0.02    +0.473 P 
DOCKED: ATOM     30  O   UNL d   1      -2.342  15.868   5.100 -0.20 -0.00    -0.228 OA
DOCKED: BRANCH  29  31
DOCKED: ATOM     31  O   UNL d   1      -1.678  17.849   3.500 -0.02 +0.02    -0.303 OA
DOCKED: ATOM     32  H   UNL d   1      -1.512  17.123   2.855 +0.05 +0.01    +0.222 HD
DOCKED: ENDBRANCH  29  31
DOCKED: BRANCH  29  33
DOCKED: ATOM     33  O   UNL d   1      -2.421  18.389   5.819 -0.10 +0.04    -0.303 OA
DOCKED: ATOM     34  H   UNL d   1      -2.869  18.077   6.643 +0.05 -0.02    +0.222 HD
DOCKED: ENDBRANCH  29  33
DOCKED: ENDBRANCH  28  29
DOCKED: ENDBRANCH   3  28
DOCKED: BRANCH   5  35
DOCKED: ATOM     35  O   UNL d   1      -7.886  17.095   1.591 +0.00 -0.00    -0.278 OA
DOCKED: BRANCH  35  36
DOCKED: ATOM     36  P   UNL d   1      -8.904  16.470   0.533 +0.00 +0.01    +0.473 P 
DOCKED: ATOM     37  O   UNL d   1      -9.162  17.303  -0.682 +0.00 -0.00    -0.228 OA
DOCKED: BRANCH  36  38
DOCKED: ATOM     38  O   UNL d   1      -8.232  15.059   0.228 -0.00 -0.02    -0.303 OA
DOCKED: ATOM     39  H   UNL d   1      -8.122  14.567   1.070 +0.01 +0.01    +0.222 HD
DOCKED: ENDBRANCH  36  38
DOCKED: BRANCH  36  40
DOCKED: ATOM     40  O   UNL d   1     -10.159  16.109   1.441 -0.00 +0.00    -0.303 OA
DOCKED: ATOM     41  H   UNL d   1     -10.123  15.179   1.758 +0.01 -0.00    +0.222 HD
DOCKED: ENDBRANCH  36  40
DOCKED: ENDBRANCH  35  36
DOCKED: ENDBRANCH   5  35
DOCKED: BRANCH   4  42
DOCKED: ATOM     42  O   UNL d   1      -4.976  17.072   1.447 -0.01 -0.03    -0.278 OA
DOCKED: BRANCH  42  43
DOCKED: ATOM     43  P   UNL d   1      -4.223  15.727   1.035 -0.04 +0.18    +0.473 P 
DOCKED: ATOM     44  O   UNL d   1      -5.023  14.471   1.011 -0.08 -0.09    -0.228 OA
DOCKED: BRANCH  43  45
DOCKED: ATOM     45  O   UNL d   1      -3.569  16.108  -0.365 -0.50 -0.20    -0.303 OA
DOCKED: ATOM     46  H   UNL d   1      -4.030  16.864  -0.782 +0.02 +0.08    +0.222 HD
DOCKED: ENDBRANCH  43  45
DOCKED: BRANCH  43  47
DOCKED: ATOM     47  O   UNL d   1      -2.943  15.714   1.999 -0.08 -0.10    -0.303 OA
DOCKED: ATOM     48  H   UNL d   1      -2.984  16.486   2.601 +0.05 +0.03    +0.222 HD
DOCKED: ENDBRANCH  43  47
DOCKED: ENDBRANCH  42  43
DOCKED: ENDBRANCH   4  42
DOCKED: TORSDOF 24
DOCKED: TER
DOCKED: ENDMDL
________________________________________________________________________________


	BEGINNING GENETIC ALGORITHM DOCKING 77 of 100
Run: 77 Seed: 914852127 917264304 [ Run 77 of 100 GA/GALS ]
Beginning LAMARCKIAN GENETIC ALGORITHM (LGA), with a maximum of 25000000 energy evaluations.

Final-Value: -17.827


	FINAL GENETIC ALGORITHM DOCKED STATE
	_______________________________________________


Detailed state:  trans -8.326 -0.140 -20.496 quatxyzw -0.563116 0.484006 -0.035938 0.668841 center 0.035 0.082 -0.065 ntor 24 115.6919 117.6093 146.3337 -1.7351 38.9933 -132.0647 -13.5123 -144.8198 -171.3579 20.5494 -154.3862 171.7656 101.1926 -176.2405 -57.9795 116.9191 96.2972 164.1423 52.9422 6.7044 175.6564 -3.4823 8.4345 180.0000
State:	 -8.326  -0.140 -20.496  -0.757  0.651 -0.048 96.045    115.69  117.61  146.33   -1.74   38.99 -132.06  -13.51 -144.82 -171.36   20.55 -154.39  171.77  101.19 -176.24  -57.98  116.92   96.30  164.14   52.94    6.70  175.66   -3.48    8.43  180.00

DOCKED: MODEL       77
DOCKED: USER    Run = 77
DOCKED: USER    DPF = D:/Protein_go_brrr/autodock/final/mut_N102T/IHP/dock.dpf
DOCKED: USER  
DOCKED: USER    Estimated Free Energy of Binding    =   +3.69 kcal/mol  [=(1)+(2)+(3)-(4)]
DOCKED: USER    
DOCKED: USER    (1) Final Intermolecular Energy     =   -3.47 kcal/mol
DOCKED: USER        vdW + Hbond + desolv Energy     =   -3.25 kcal/mol
DOCKED: USER        Electrostatic Energy            =   -0.22 kcal/mol
DOCKED: USER    (2) Final Total Internal Energy     =  -14.35 kcal/mol
DOCKED: USER    (3) Torsional Free Energy           =   +7.16 kcal/mol
DOCKED: USER    (4) Unbound System's Energy  [=(2)] =  -14.35 kcal/mol
DOCKED: USER    
DOCKED: USER    
DOCKED: USER    NEWDPF move IHP_ideal_opt.pdbqt
DOCKED: USER    NEWDPF about 0.035000 0.082000 -0.065000
DOCKED: USER    NEWDPF tran0 -8.325738 -0.139511 -20.495845
DOCKED: USER    NEWDPF quaternion0 -0.563116 0.484006 -0.035938 0.668841
DOCKED: USER    NEWDPF axisangle0 -0.757481 0.651065 -0.048342 96.044703
DOCKED: USER    NEWDPF quat0 -0.757481 0.651065 -0.048342 96.044703
DOCKED: USER    NEWDPF dihe0 115.69 117.61 146.33 -1.74 38.99 -132.06 -13.51 -144.82 -171.36 20.55 -154.39 171.77 101.19 -176.24 -57.98 116.92 96.30 164.14 52.94 6.70 175.66 -3.48 8.43 180.00 
DOCKED: USER  keepresnum = 1 
DOCKED: USER  
DOCKED: REMARK  24 active torsions:
DOCKED: REMARK  status: ('A' for Active; 'I' for Inactive)
DOCKED: REMARK    1  A    between atoms: C_1  and  O_7 
DOCKED: REMARK    2  A    between atoms: C_2  and  O_12 
DOCKED: REMARK    3  A    between atoms: C_3  and  O_17 
DOCKED: REMARK    4  A    between atoms: C_4  and  O_22 
DOCKED: REMARK    5  A    between atoms: C_5  and  O_27 
DOCKED: REMARK    6  A    between atoms: C_6  and  O_32 
DOCKED: REMARK    7  A    between atoms: O_7  and  P_8 
DOCKED: REMARK    8  A    between atoms: P_8  and  O_10 
DOCKED: REMARK    9  A    between atoms: P_8  and  O_11 
DOCKED: REMARK   10  A    between atoms: O_12  and  P_13 
DOCKED: REMARK   11  A    between atoms: P_13  and  O_15 
DOCKED: REMARK   12  A    between atoms: P_13  and  O_16 
DOCKED: REMARK   13  A    between atoms: O_17  and  P_18 
DOCKED: REMARK   14  A    between atoms: P_18  and  O_20 
DOCKED: REMARK   15  A    between atoms: P_18  and  O_21 
DOCKED: REMARK   16  A    between atoms: O_22  and  P_23 
DOCKED: REMARK   17  A    between atoms: P_23  and  O_25 
DOCKED: REMARK   18  A    between atoms: P_23  and  O_26 
DOCKED: REMARK   19  A    between atoms: O_27  and  P_28 
DOCKED: REMARK   20  A    between atoms: P_28  and  O_30 
DOCKED: REMARK   21  A    between atoms: P_28  and  O_31 
DOCKED: REMARK   22  A    between atoms: O_32  and  P_33 
DOCKED: REMARK   23  A    between atoms: P_33  and  O_35 
DOCKED: REMARK   24  A    between atoms: P_33  and  O_36 
DOCKED: USER                              x       y       z     vdW  Elec       q    Type
DOCKED: USER                           _______ _______ _______ _____ _____    ______ ____
DOCKED: ROOT
DOCKED: ATOM      1  C   UNL d   1      -7.616  -1.708 -20.353 -0.12 -0.02    +0.194 C 
DOCKED: ATOM      2  C   UNL d   1      -7.576  -1.089 -21.751 -0.08 -0.01    +0.194 C 
DOCKED: ATOM      3  C   UNL d   1      -8.903  -0.420 -22.114 -0.07 -0.00    +0.194 C 
DOCKED: ATOM      4  C   UNL d   1      -9.385   0.571 -21.058 -0.11 +0.01    +0.194 C 
DOCKED: ATOM      5  C   UNL d   1      -9.334   0.034 -19.633 -0.15 +0.00    +0.194 C 
DOCKED: ATOM      6  C   UNL d   1      -8.030  -0.689 -19.290 -0.14 -0.00    +0.194 C 
DOCKED: ENDROOT
DOCKED: BRANCH   1   7
DOCKED: ATOM      7  O   UNL d   1      -6.299  -2.155 -20.025 -0.17 +0.07    -0.278 OA
DOCKED: BRANCH   7   8
DOCKED: ATOM      8  P   UNL d   1      -5.705  -3.411 -20.814 -0.11 -0.14    +0.473 P 
DOCKED: ATOM      9  O   UNL d   1      -4.221  -3.446 -20.918 -0.34 +0.06    -0.228 OA
DOCKED: BRANCH   8  10
DOCKED: ATOM     10  O   UNL d   1      -6.311  -4.672 -20.046 -0.19 +0.17    -0.303 OA
DOCKED: ATOM     11  H   UNL d   1      -6.272  -4.518 -19.084 -0.10 -0.31    +0.222 HD
DOCKED: ENDBRANCH   8  10
DOCKED: BRANCH   8  12
DOCKED: ATOM     12  O   UNL d   1      -6.498  -3.447 -22.190 -0.05 +0.06    -0.303 OA
DOCKED: ATOM     13  H   UNL d   1      -6.234  -2.727 -22.806 +0.06 -0.03    +0.222 HD
DOCKED: ENDBRANCH   8  12
DOCKED: ENDBRANCH   7   8
DOCKED: ENDBRANCH   1   7
DOCKED: BRANCH   2  14
DOCKED: ATOM     14  O   UNL d   1      -6.539  -0.100 -21.794 -0.08 -0.01    -0.278 OA
DOCKED: BRANCH  14  15
DOCKED: ATOM     15  P   UNL d   1      -5.634  -0.068 -23.115 -0.04 -0.01    +0.473 P 
DOCKED: ATOM     16  O   UNL d   1      -4.164  -0.278 -22.927 -0.08 +0.01    -0.228 OA
DOCKED: BRANCH  15  17
DOCKED: ATOM     17  O   UNL d   1      -6.298  -1.160 -24.066 -0.02 +0.02    -0.303 OA
DOCKED: ATOM     18  H   UNL d   1      -7.261  -1.019 -24.145 +0.02 -0.01    +0.222 HD
DOCKED: ENDBRANCH  15  17
DOCKED: BRANCH  15  19
DOCKED: ATOM     19  O   UNL d   1      -6.046   1.284 -23.845 -0.05 -0.00    -0.303 OA
DOCKED: ATOM     20  H   UNL d   1      -6.989   1.287 -24.092 +0.02 +0.00    +0.222 HD
DOCKED: ENDBRANCH  15  19
DOCKED: ENDBRANCH  14  15
DOCKED: ENDBRANCH   2  14
DOCKED: BRANCH   6  21
DOCKED: ATOM     21  O   UNL d   1      -8.265  -1.414 -18.085 -0.19 +0.03    -0.278 OA
DOCKED: BRANCH  21  22
DOCKED: ATOM     22  P   UNL d   1      -9.165  -2.731 -18.116 -0.07 -0.05    +0.473 P 
DOCKED: ATOM     23  O   UNL d   1     -10.217  -2.841 -19.167 -0.02 +0.01    -0.228 OA
DOCKED: BRANCH  22  24
DOCKED: ATOM     24  O   UNL d   1      -8.063  -3.878 -18.152 -0.06 +0.16    -0.303 OA
DOCKED: ATOM     25  H   UNL d   1      -7.247  -3.508 -18.575 -0.29 -0.21    +0.222 HD
DOCKED: ENDBRANCH  22  24
DOCKED: BRANCH  22  26
DOCKED: ATOM     26  O   UNL d   1      -9.677  -2.811 -16.598 -0.10 -0.02    -0.303 OA
DOCKED: ATOM     27  H   UNL d   1     -10.098  -1.961 -16.356 +0.06 +0.01    +0.222 HD
DOCKED: ENDBRANCH  22  26
DOCKED: ENDBRANCH  21  22
DOCKED: ENDBRANCH   6  21
DOCKED: BRANCH   3  28
DOCKED: ATOM     28  O   UNL d   1      -8.687   0.354 -23.287 -0.04 +0.00    -0.278 OA
DOCKED: BRANCH  28  29
DOCKED: ATOM     29  P   UNL d   1      -9.271  -0.128 -24.688 -0.01 -0.01    +0.473 P 
DOCKED: ATOM     30  O   UNL d   1     -10.629   0.375 -25.022 -0.00 +0.00    -0.228 OA
DOCKED: BRANCH  29  31
DOCKED: ATOM     31  O   UNL d   1      -8.075   0.312 -25.656 -0.00 +0.01    -0.303 OA
DOCKED: ATOM     32  H   UNL d   1      -7.221   0.144 -25.195 +0.01 -0.01    +0.222 HD
DOCKED: ENDBRANCH  29  31
DOCKED: BRANCH  29  33
DOCKED: ATOM     33  O   UNL d   1      -9.090  -1.707 -24.600 -0.00 +0.01    -0.303 OA
DOCKED: ATOM     34  H   UNL d   1      -8.178  -1.943 -24.899 +0.01 -0.01    +0.222 HD
DOCKED: ENDBRANCH  29  33
DOCKED: ENDBRANCH  28  29
DOCKED: ENDBRANCH   3  28
DOCKED: BRANCH   5  35
DOCKED: ATOM     35  O   UNL d   1      -9.416   1.177 -18.785 -0.24 -0.01    -0.278 OA
DOCKED: BRANCH  35  36
DOCKED: ATOM     36  P   UNL d   1     -10.309   1.138 -17.464 -0.18 +0.01    +0.473 P 
DOCKED: ATOM     37  O   UNL d   1      -9.725   1.823 -16.270 -0.28 +0.01    -0.228 OA
DOCKED: BRANCH  36  38
DOCKED: ATOM     38  O   UNL d   1     -11.678   1.769 -17.977 -0.06 -0.01    -0.303 OA
DOCKED: ATOM     39  H   UNL d   1     -12.395   1.106 -17.878 +0.03 +0.00    +0.222 HD
DOCKED: ENDBRANCH  36  38
DOCKED: BRANCH  36  40
DOCKED: ATOM     40  O   UNL d   1     -10.633  -0.413 -17.320 -0.07 -0.01    -0.303 OA
DOCKED: ATOM     41  H   UNL d   1     -10.528  -0.888 -18.174 +0.05 +0.00    +0.222 HD
DOCKED: ENDBRANCH  36  40
DOCKED: ENDBRANCH  35  36
DOCKED: ENDBRANCH   5  35
DOCKED: BRANCH   4  42
DOCKED: ATOM     42  O   UNL d   1     -10.757   0.855 -21.351 -0.04 -0.00    -0.278 OA
DOCKED: BRANCH  42  43
DOCKED: ATOM     43  P   UNL d   1     -11.845  -0.293 -21.143 -0.00 +0.00    +0.473 P 
DOCKED: ATOM     44  O   UNL d   1     -13.045  -0.271 -22.025 -0.00 +0.00    -0.228 OA
DOCKED: BRANCH  43  45
DOCKED: ATOM     45  O   UNL d   1     -10.976  -1.622 -21.258 -0.00 +0.00    -0.303 OA
DOCKED: ATOM     46  H   UNL d   1     -11.175  -2.244 -20.530 +0.01 -0.00    +0.222 HD
DOCKED: ENDBRANCH  43  45
DOCKED: BRANCH  43  47
DOCKED: ATOM     47  O   UNL d   1     -12.142  -0.234 -19.569 -0.01 -0.00    -0.303 OA
DOCKED: ATOM     48  H   UNL d   1     -11.494   0.362 -19.140 +0.04 +0.00    +0.222 HD
DOCKED: ENDBRANCH  43  47
DOCKED: ENDBRANCH  42  43
DOCKED: ENDBRANCH   4  42
DOCKED: TORSDOF 24
DOCKED: TER
DOCKED: ENDMDL
________________________________________________________________________________


	BEGINNING GENETIC ALGORITHM DOCKING 78 of 100
Run: 78 Seed: 566801552 1832936174 [ Run 78 of 100 GA/GALS ]
Beginning LAMARCKIAN GENETIC ALGORITHM (LGA), with a maximum of 25000000 energy evaluations.

Final-Value: -17.590


	FINAL GENETIC ALGORITHM DOCKED STATE
	_______________________________________________


Detailed state:  trans -10.947 0.971 -17.517 quatxyzw -0.921531 -0.274476 0.267096 0.064057 center 0.035 0.082 -0.065 ntor 24 174.1760 124.2448 55.1693 151.5518 0.2792 -134.8210 -100.3644 9.9720 130.6719 -43.7321 111.0841 -117.9176 -56.2629 -29.1052 -55.4011 51.0462 173.6926 94.0069 32.2470 2.9903 -179.8694 157.6999 17.2380 -38.7717
State:	-10.947   0.971 -17.517  -0.923 -0.275  0.268 172.655    174.18  124.24   55.17  151.55    0.28 -134.82 -100.36    9.97  130.67  -43.73  111.08 -117.92  -56.26  -29.11  -55.40   51.05  173.69   94.01   32.25    2.99 -179.87  157.70   17.24  -38.77

DOCKED: MODEL       78
DOCKED: USER    Run = 78
DOCKED: USER    DPF = D:/Protein_go_brrr/autodock/final/mut_N102T/IHP/dock.dpf
DOCKED: USER  
DOCKED: USER    Estimated Free Energy of Binding    =   +4.71 kcal/mol  [=(1)+(2)+(3)-(4)]
DOCKED: USER    
DOCKED: USER    (1) Final Intermolecular Energy     =   -2.45 kcal/mol
DOCKED: USER        vdW + Hbond + desolv Energy     =   -2.50 kcal/mol
DOCKED: USER        Electrostatic Energy            =   +0.05 kcal/mol
DOCKED: USER    (2) Final Total Internal Energy     =  -15.14 kcal/mol
DOCKED: USER    (3) Torsional Free Energy           =   +7.16 kcal/mol
DOCKED: USER    (4) Unbound System's Energy  [=(2)] =  -15.14 kcal/mol
DOCKED: USER    
DOCKED: USER    
DOCKED: USER    NEWDPF move IHP_ideal_opt.pdbqt
DOCKED: USER    NEWDPF about 0.035000 0.082000 -0.065000
DOCKED: USER    NEWDPF tran0 -10.946638 0.970986 -17.517126
DOCKED: USER    NEWDPF quaternion0 -0.921531 -0.274476 0.267096 0.064057
DOCKED: USER    NEWDPF axisangle0 -0.923427 -0.275041 0.267646 172.654559
DOCKED: USER    NEWDPF quat0 -0.923427 -0.275041 0.267646 172.654559
DOCKED: USER    NEWDPF dihe0 174.18 124.24 55.17 151.55 0.28 -134.82 -100.36 9.97 130.67 -43.73 111.08 -117.92 -56.26 -29.11 -55.40 51.05 173.69 94.01 32.25 2.99 -179.87 157.70 17.24 -38.77 
DOCKED: USER  keepresnum = 1 
DOCKED: USER  
DOCKED: REMARK  24 active torsions:
DOCKED: REMARK  status: ('A' for Active; 'I' for Inactive)
DOCKED: REMARK    1  A    between atoms: C_1  and  O_7 
DOCKED: REMARK    2  A    between atoms: C_2  and  O_12 
DOCKED: REMARK    3  A    between atoms: C_3  and  O_17 
DOCKED: REMARK    4  A    between atoms: C_4  and  O_22 
DOCKED: REMARK    5  A    between atoms: C_5  and  O_27 
DOCKED: REMARK    6  A    between atoms: C_6  and  O_32 
DOCKED: REMARK    7  A    between atoms: O_7  and  P_8 
DOCKED: REMARK    8  A    between atoms: P_8  and  O_10 
DOCKED: REMARK    9  A    between atoms: P_8  and  O_11 
DOCKED: REMARK   10  A    between atoms: O_12  and  P_13 
DOCKED: REMARK   11  A    between atoms: P_13  and  O_15 
DOCKED: REMARK   12  A    between atoms: P_13  and  O_16 
DOCKED: REMARK   13  A    between atoms: O_17  and  P_18 
DOCKED: REMARK   14  A    between atoms: P_18  and  O_20 
DOCKED: REMARK   15  A    between atoms: P_18  and  O_21 
DOCKED: REMARK   16  A    between atoms: O_22  and  P_23 
DOCKED: REMARK   17  A    between atoms: P_23  and  O_25 
DOCKED: REMARK   18  A    between atoms: P_23  and  O_26 
DOCKED: REMARK   19  A    between atoms: O_27  and  P_28 
DOCKED: REMARK   20  A    between atoms: P_28  and  O_30 
DOCKED: REMARK   21  A    between atoms: P_28  and  O_31 
DOCKED: REMARK   22  A    between atoms: O_32  and  P_33 
DOCKED: REMARK   23  A    between atoms: P_33  and  O_35 
DOCKED: REMARK   24  A    between atoms: P_33  and  O_36 
DOCKED: USER                              x       y       z     vdW  Elec       q    Type
DOCKED: USER                           _______ _______ _______ _____ _____    ______ ____
DOCKED: ROOT
DOCKED: ATOM      1  C   UNL d   1     -10.902   2.100 -18.824 -0.17 +0.01    +0.194 C 
DOCKED: ATOM      2  C   UNL d   1     -12.050   2.285 -17.830 -0.08 +0.01    +0.194 C 
DOCKED: ATOM      3  C   UNL d   1     -12.686   0.948 -17.443 -0.03 +0.00    +0.194 C 
DOCKED: ATOM      4  C   UNL d   1     -11.669  -0.086 -16.965 -0.06 +0.01    +0.194 C 
DOCKED: ATOM      5  C   UNL d   1     -10.450  -0.221 -17.869 -0.12 +0.00    +0.194 C 
DOCKED: ATOM      6  C   UNL d   1      -9.851   1.117 -18.306 -0.25 +0.01    +0.194 C 
DOCKED: ENDROOT
DOCKED: BRANCH   1   7
DOCKED: ATOM      7  O   UNL d   1     -10.256   3.362 -19.000 -0.22 -0.03    -0.278 OA
DOCKED: BRANCH   7   8
DOCKED: ATOM      8  P   UNL d   1     -10.779   4.329 -20.159 -0.13 +0.04    +0.473 P 
DOCKED: ATOM      9  O   UNL d   1     -11.845   3.755 -21.025 -0.04 -0.01    -0.228 OA
DOCKED: BRANCH   8  10
DOCKED: ATOM     10  O   UNL d   1     -11.240   5.646 -19.385 -0.11 -0.03    -0.303 OA
DOCKED: ATOM     11  H   UNL d   1     -10.863   5.646 -18.486 +0.06 +0.04    +0.222 HD
DOCKED: ENDBRANCH   8  10
DOCKED: BRANCH   8  12
DOCKED: ATOM     12  O   UNL d   1      -9.468   4.825 -20.907 -0.17 -0.04    -0.303 OA
DOCKED: ATOM     13  H   UNL d   1      -9.107   4.159 -21.535 +0.05 +0.03    +0.222 HD
DOCKED: ENDBRANCH   8  12
DOCKED: ENDBRANCH   7   8
DOCKED: ENDBRANCH   1   7
DOCKED: BRANCH   2  14
DOCKED: ATOM     14  O   UNL d   1     -11.543   2.910 -16.644 -0.11 -0.01    -0.278 OA
DOCKED: BRANCH  14  15
DOCKED: ATOM     15  P   UNL d   1     -12.408   4.118 -16.046 -0.06 +0.02    +0.473 P 
DOCKED: ATOM     16  O   UNL d   1     -13.874   4.108 -16.347 -0.02 -0.00    -0.228 OA
DOCKED: BRANCH  15  17
DOCKED: ATOM     17  O   UNL d   1     -12.098   4.081 -14.484 -0.05 -0.01    -0.303 OA
DOCKED: ATOM     18  H   UNL d   1     -12.068   3.162 -14.153 +0.05 +0.00    +0.222 HD
DOCKED: ENDBRANCH  15  17
DOCKED: BRANCH  15  19
DOCKED: ATOM     19  O   UNL d   1     -11.625   5.427 -16.496 -0.03 -0.03    -0.303 OA
DOCKED: ATOM     20  H   UNL d   1     -11.954   5.769 -17.348 +0.03 +0.02    +0.222 HD
DOCKED: ENDBRANCH  15  19
DOCKED: ENDBRANCH  14  15
DOCKED: ENDBRANCH   2  14
DOCKED: BRANCH   6  21
DOCKED: ATOM     21  O   UNL d   1      -8.968   0.839 -19.389 -0.20 -0.02    -0.278 OA
DOCKED: BRANCH  21  22
DOCKED: ATOM     22  P   UNL d   1      -9.561   0.570 -20.846 -0.08 +0.01    +0.473 P 
DOCKED: ATOM     23  O   UNL d   1     -10.957   0.056 -20.954 -0.03 -0.00    -0.228 OA
DOCKED: BRANCH  22  24
DOCKED: ATOM     24  O   UNL d   1      -9.307   1.967 -21.564 -0.08 -0.02    -0.303 OA
DOCKED: ATOM     25  H   UNL d   1      -9.869   2.651 -21.117 +0.04 +0.02    +0.222 HD
DOCKED: ENDBRANCH  22  24
DOCKED: BRANCH  22  26
DOCKED: ATOM     26  O   UNL d   1      -8.420  -0.349 -21.497 -0.08 -0.00    -0.303 OA
DOCKED: ATOM     27  H   UNL d   1      -8.219  -1.091 -20.890 +0.05 -0.01    +0.222 HD
DOCKED: ENDBRANCH  22  26
DOCKED: ENDBRANCH  21  22
DOCKED: ENDBRANCH   6  21
DOCKED: BRANCH   3  28
DOCKED: ATOM     28  O   UNL d   1     -13.536   1.185 -16.328 -0.01 -0.01    -0.278 OA
DOCKED: BRANCH  28  29
DOCKED: ATOM     29  P   UNL d   1     -12.978   1.028 -14.844 -0.01 +0.01    +0.473 P 
DOCKED: ATOM     30  O   UNL d   1     -11.512   1.208 -14.688 -0.09 -0.01    -0.228 OA
DOCKED: BRANCH  29  31
DOCKED: ATOM     31  O   UNL d   1     -13.923   2.069 -14.079 -0.00 -0.01    -0.303 OA
DOCKED: ATOM     32  H   UNL d   1     -13.927   2.917 -14.581 +0.02 +0.00    +0.222 HD
DOCKED: ENDBRANCH  29  31
DOCKED: BRANCH  29  33
DOCKED: ATOM     33  O   UNL d   1     -13.581  -0.380 -14.408 -0.01 -0.01    -0.303 OA
DOCKED: ATOM     34  H   UNL d   1     -13.137  -1.094 -14.928 +0.01 +0.01    +0.222 HD
DOCKED: ENDBRANCH  29  33
DOCKED: ENDBRANCH  28  29
DOCKED: ENDBRANCH   3  28
DOCKED: BRANCH   5  35
DOCKED: ATOM     35  O   UNL d   1      -9.461  -0.888 -17.087 -0.06 -0.00    -0.278 OA
DOCKED: BRANCH  35  36
DOCKED: ATOM     36  P   UNL d   1      -8.411  -1.866 -17.783 -0.14 -0.07    +0.473 P 
DOCKED: ATOM     37  O   UNL d   1      -8.062  -3.096 -17.007 -0.23 +0.09    -0.228 OA
DOCKED: BRANCH  36  38
DOCKED: ATOM     38  O   UNL d   1      -9.111  -2.153 -19.184 -0.05 +0.03    -0.303 OA
DOCKED: ATOM     39  H   UNL d   1      -9.220  -1.306 -19.668 +0.05 -0.01    +0.222 HD
DOCKED: ENDBRANCH  36  38
DOCKED: BRANCH  36  40
DOCKED: ATOM     40  O   UNL d   1      -7.217  -0.880 -18.147 -0.24 +0.04    -0.303 OA
DOCKED: ATOM     41  H   UNL d   1      -7.364  -0.433 -19.010 +0.09 +0.01    +0.222 HD
DOCKED: ENDBRANCH  36  40
DOCKED: ENDBRANCH  35  36
DOCKED: ENDBRANCH   5  35
DOCKED: BRANCH   4  42
DOCKED: ATOM     42  O   UNL d   1     -12.335  -1.353 -16.964 -0.01 -0.01    -0.278 OA
DOCKED: BRANCH  42  43
DOCKED: ATOM     43  P   UNL d   1     -11.886  -2.459 -15.906 -0.01 +0.03    +0.473 P 
DOCKED: ATOM     44  O   UNL d   1     -12.958  -3.268 -15.261 -0.01 -0.02    -0.228 OA
DOCKED: BRANCH  43  45
DOCKED: ATOM     45  O   UNL d   1     -10.828  -3.318 -16.728 -0.03 -0.03    -0.303 OA
DOCKED: ATOM     46  H   UNL d   1     -10.278  -2.752 -17.306 +0.05 +0.01    +0.222 HD
DOCKED: ENDBRANCH  43  45
DOCKED: BRANCH  43  47
DOCKED: ATOM     47  O   UNL d   1     -10.936  -1.645 -14.904 -0.06 -0.03    -0.303 OA
DOCKED: ATOM     48  H   UNL d   1     -11.453  -0.928 -14.481 +0.05 +0.02    +0.222 HD
DOCKED: ENDBRANCH  43  47
DOCKED: ENDBRANCH  42  43
DOCKED: ENDBRANCH   4  42
DOCKED: TORSDOF 24
DOCKED: TER
DOCKED: ENDMDL
________________________________________________________________________________


	BEGINNING GENETIC ALGORITHM DOCKING 79 of 100
Run: 79 Seed: 875502054 1052719422 [ Run 79 of 100 GA/GALS ]
Beginning LAMARCKIAN GENETIC ALGORITHM (LGA), with a maximum of 25000000 energy evaluations.

Final-Value: -18.692


	FINAL GENETIC ALGORITHM DOCKED STATE
	_______________________________________________


Detailed state:  trans -10.922 6.494 -8.713 quatxyzw 0.266525 0.210720 -0.824564 0.452390 center 0.035 0.082 -0.065 ntor 24 -156.6678 -12.0460 120.4493 -40.7504 -28.3343 -179.9238 -34.1315 -143.5790 76.7994 70.1287 17.7539 180.0000 -147.0710 80.4555 -180.0000 -48.5213 109.5753 154.3280 37.3389 -23.3689 168.2435 9.3157 -10.3514 -10.9882
State:	-10.922   6.494  -8.713   0.299  0.236 -0.925 126.206   -156.67  -12.05  120.45  -40.75  -28.33 -179.92  -34.13 -143.58   76.80   70.13   17.75  180.00 -147.07   80.46 -180.00  -48.52  109.58  154.33   37.34  -23.37  168.24    9.32  -10.35  -10.99

DOCKED: MODEL       79
DOCKED: USER    Run = 79
DOCKED: USER    DPF = D:/Protein_go_brrr/autodock/final/mut_N102T/IHP/dock.dpf
DOCKED: USER  
DOCKED: USER    Estimated Free Energy of Binding    =   +3.77 kcal/mol  [=(1)+(2)+(3)-(4)]
DOCKED: USER    
DOCKED: USER    (1) Final Intermolecular Energy     =   -3.39 kcal/mol
DOCKED: USER        vdW + Hbond + desolv Energy     =   -3.30 kcal/mol
DOCKED: USER        Electrostatic Energy            =   -0.08 kcal/mol
DOCKED: USER    (2) Final Total Internal Energy     =  -15.31 kcal/mol
DOCKED: USER    (3) Torsional Free Energy           =   +7.16 kcal/mol
DOCKED: USER    (4) Unbound System's Energy  [=(2)] =  -15.31 kcal/mol
DOCKED: USER    
DOCKED: USER    
DOCKED: USER    NEWDPF move IHP_ideal_opt.pdbqt
DOCKED: USER    NEWDPF about 0.035000 0.082000 -0.065000
DOCKED: USER    NEWDPF tran0 -10.921794 6.494261 -8.712740
DOCKED: USER    NEWDPF quaternion0 0.266525 0.210720 -0.824564 0.452390
DOCKED: USER    NEWDPF axisangle0 0.298855 0.236281 -0.924585 126.205745
DOCKED: USER    NEWDPF quat0 0.298855 0.236281 -0.924585 126.205745
DOCKED: USER    NEWDPF dihe0 -156.67 -12.05 120.45 -40.75 -28.33 -179.92 -34.13 -143.58 76.80 70.13 17.75 180.00 -147.07 80.46 -180.00 -48.52 109.58 154.33 37.34 -23.37 168.24 9.32 -10.35 -10.99 
DOCKED: USER  keepresnum = 1 
DOCKED: USER  
DOCKED: REMARK  24 active torsions:
DOCKED: REMARK  status: ('A' for Active; 'I' for Inactive)
DOCKED: REMARK    1  A    between atoms: C_1  and  O_7 
DOCKED: REMARK    2  A    between atoms: C_2  and  O_12 
DOCKED: REMARK    3  A    between atoms: C_3  and  O_17 
DOCKED: REMARK    4  A    between atoms: C_4  and  O_22 
DOCKED: REMARK    5  A    between atoms: C_5  and  O_27 
DOCKED: REMARK    6  A    between atoms: C_6  and  O_32 
DOCKED: REMARK    7  A    between atoms: O_7  and  P_8 
DOCKED: REMARK    8  A    between atoms: P_8  and  O_10 
DOCKED: REMARK    9  A    between atoms: P_8  and  O_11 
DOCKED: REMARK   10  A    between atoms: O_12  and  P_13 
DOCKED: REMARK   11  A    between atoms: P_13  and  O_15 
DOCKED: REMARK   12  A    between atoms: P_13  and  O_16 
DOCKED: REMARK   13  A    between atoms: O_17  and  P_18 
DOCKED: REMARK   14  A    between atoms: P_18  and  O_20 
DOCKED: REMARK   15  A    between atoms: P_18  and  O_21 
DOCKED: REMARK   16  A    between atoms: O_22  and  P_23 
DOCKED: REMARK   17  A    between atoms: P_23  and  O_25 
DOCKED: REMARK   18  A    between atoms: P_23  and  O_26 
DOCKED: REMARK   19  A    between atoms: O_27  and  P_28 
DOCKED: REMARK   20  A    between atoms: P_28  and  O_30 
DOCKED: REMARK   21  A    between atoms: P_28  and  O_31 
DOCKED: REMARK   22  A    between atoms: O_32  and  P_33 
DOCKED: REMARK   23  A    between atoms: P_33  and  O_35 
DOCKED: REMARK   24  A    between atoms: P_33  and  O_36 
DOCKED: USER                              x       y       z     vdW  Elec       q    Type
DOCKED: USER                           _______ _______ _______ _____ _____    ______ ____
DOCKED: ROOT
DOCKED: ATOM      1  C   UNL d   1     -11.420   7.931  -7.893 -0.02 +0.00    +0.194 C 
DOCKED: ATOM      2  C   UNL d   1     -10.118   7.303  -7.393 -0.07 +0.01    +0.194 C 
DOCKED: ATOM      3  C   UNL d   1     -10.229   5.781  -7.284 -0.08 +0.01    +0.194 C 
DOCKED: ATOM      4  C   UNL d   1     -10.734   5.121  -8.565 -0.00 +0.01    +0.194 C 
DOCKED: ATOM      5  C   UNL d   1     -11.966   5.788  -9.163 -0.05 +0.00    +0.194 C 
DOCKED: ATOM      6  C   UNL d   1     -11.880   7.315  -9.215 -0.04 +0.00    +0.194 C 
DOCKED: ENDROOT
DOCKED: BRANCH   1   7
DOCKED: ATOM      7  O   UNL d   1     -11.182   9.321  -8.132 -0.01 +0.00    -0.278 OA
DOCKED: BRANCH   7   8
DOCKED: ATOM      8  P   UNL d   1     -11.311  10.334  -6.904 +0.00 -0.00    +0.473 P 
DOCKED: ATOM      9  O   UNL d   1     -12.633  11.007  -6.777 -0.00 +0.00    -0.228 OA
DOCKED: BRANCH   8  10
DOCKED: ATOM     10  O   UNL d   1     -10.931   9.451  -5.631 -0.01 +0.00    -0.303 OA
DOCKED: ATOM     11  H   UNL d   1     -10.132   8.926  -5.824 +0.02 -0.00    +0.222 HD
DOCKED: ENDBRANCH   8  10
DOCKED: BRANCH   8  12
DOCKED: ATOM     12  O   UNL d   1     -10.052  11.296  -7.028 -0.00 +0.00    -0.303 OA
DOCKED: ATOM     13  H   UNL d   1      -9.196  10.813  -7.024 +0.02 -0.00    +0.222 HD
DOCKED: ENDBRANCH   8  12
DOCKED: ENDBRANCH   7   8
DOCKED: ENDBRANCH   1   7
DOCKED: BRANCH   2  14
DOCKED: ATOM     14  O   UNL d   1      -9.064   7.619  -8.312 -0.40 -0.02    -0.278 OA
DOCKED: BRANCH  14  15
DOCKED: ATOM     15  P   UNL d   1      -7.973   8.679  -7.812 -0.12 -0.01    +0.473 P 
DOCKED: ATOM     16  O   UNL d   1      -6.539   8.351  -8.090 -0.28 +0.01    -0.228 OA
DOCKED: BRANCH  15  17
DOCKED: ATOM     17  O   UNL d   1      -8.432  10.051  -8.477 -0.03 +0.01    -0.303 OA
DOCKED: ATOM     18  H   UNL d   1      -9.389  10.045  -8.673 +0.03 -0.00    +0.222 HD
DOCKED: ENDBRANCH  15  17
DOCKED: BRANCH  15  19
DOCKED: ATOM     19  O   UNL d   1      -8.334   8.929  -6.283 -0.07 +0.01    -0.303 OA
DOCKED: ATOM     20  H   UNL d   1      -8.831   9.759  -6.161 +0.03 -0.00    +0.222 HD
DOCKED: ENDBRANCH  15  19
DOCKED: ENDBRANCH  14  15
DOCKED: ENDBRANCH   2  14
DOCKED: BRANCH   6  21
DOCKED: ATOM     21  O   UNL d   1     -13.199   7.794  -9.463 -0.00 -0.00    -0.278 OA
DOCKED: BRANCH  21  22
DOCKED: ATOM     22  P   UNL d   1     -14.338   7.582  -8.366 +0.01 +0.00    +0.473 P 
DOCKED: ATOM     23  O   UNL d   1     -15.747   7.436  -8.831 +0.00 -0.00    -0.228 OA
DOCKED: BRANCH  22  24
DOCKED: ATOM     24  O   UNL d   1     -13.773   6.340  -7.546 +0.00 -0.00    -0.303 OA
DOCKED: ATOM     25  H   UNL d   1     -14.172   5.515  -7.924 +0.00 +0.00    +0.222 HD
DOCKED: ENDBRANCH  22  24
DOCKED: BRANCH  22  26
DOCKED: ATOM     26  O   UNL d   1     -14.052   8.799  -7.362 +0.00 +0.00    -0.303 OA
DOCKED: ATOM     27  H   UNL d   1     -13.350   9.368  -7.738 +0.00 -0.00    +0.222 HD
DOCKED: ENDBRANCH  22  26
DOCKED: ENDBRANCH  21  22
DOCKED: ENDBRANCH   6  21
DOCKED: BRANCH   3  28
DOCKED: ATOM     28  O   UNL d   1      -8.917   5.269  -7.087 -0.16 -0.01    -0.278 OA
DOCKED: BRANCH  28  29
DOCKED: ATOM     29  P   UNL d   1      -8.567   4.436  -5.776 -0.22 -0.02    +0.473 P 
DOCKED: ATOM     30  O   UNL d   1      -8.427   5.232  -4.530 -0.22 +0.00    -0.228 OA
DOCKED: BRANCH  29  31
DOCKED: ATOM     31  O   UNL d   1      -9.739   3.347  -5.815 -0.14 +0.01    -0.303 OA
DOCKED: ATOM     32  H   UNL d   1     -10.120   3.329  -6.723 +0.07 -0.00    +0.222 HD
DOCKED: ENDBRANCH  29  31
DOCKED: BRANCH  29  33
DOCKED: ATOM     33  O   UNL d   1      -7.295   3.599  -6.241 -0.29 +0.06    -0.303 OA
DOCKED: ATOM     34  H   UNL d   1      -7.600   2.781  -6.704 -0.36 -0.15    +0.222 HD
DOCKED: ENDBRANCH  29  33
DOCKED: ENDBRANCH  28  29
DOCKED: ENDBRANCH   3  28
DOCKED: BRANCH   5  35
DOCKED: ATOM     35  O   UNL d   1     -12.041   5.325 -10.510 -0.05 -0.00    -0.278 OA
DOCKED: BRANCH  35  36
DOCKED: ATOM     36  P   UNL d   1     -13.325   4.524 -11.014 +0.00 +0.00    +0.473 P 
DOCKED: ATOM     37  O   UNL d   1     -13.604   4.611 -12.481 -0.01 -0.00    -0.228 OA
DOCKED: BRANCH  36  38
DOCKED: ATOM     38  O   UNL d   1     -13.017   3.052 -10.492 -0.01 -0.01    -0.303 OA
DOCKED: ATOM     39  H   UNL d   1     -12.211   3.072  -9.933 +0.03 +0.01    +0.222 HD
DOCKED: ENDBRANCH  36  38
DOCKED: BRANCH  36  40
DOCKED: ATOM     40  O   UNL d   1     -14.461   5.049 -10.032 +0.00 -0.00    -0.303 OA
DOCKED: ATOM     41  H   UNL d   1     -14.277   5.961  -9.717 +0.00 +0.00    +0.222 HD
DOCKED: ENDBRANCH  36  40
DOCKED: ENDBRANCH  35  36
DOCKED: ENDBRANCH   5  35
DOCKED: BRANCH   4  42
DOCKED: ATOM     42  O   UNL d   1     -11.104   3.781  -8.223 -0.06 -0.01    -0.278 OA
DOCKED: BRANCH  42  43
DOCKED: ATOM     43  P   UNL d   1     -10.404   2.568  -8.987 -0.14 +0.02    +0.473 P 
DOCKED: ATOM     44  O   UNL d   1     -11.097   1.250  -8.963 -0.11 -0.01    -0.228 OA
DOCKED: BRANCH  43  45
DOCKED: ATOM     45  O   UNL d   1     -10.179   3.159 -10.447 -0.14 -0.01    -0.303 OA
DOCKED: ATOM     46  H   UNL d   1     -11.016   3.482 -10.836 +0.05 +0.00    +0.222 HD
DOCKED: ENDBRANCH  43  45
DOCKED: BRANCH  43  47
DOCKED: ATOM     47  O   UNL d   1      -8.913   2.577  -8.399 -0.52 +0.01    -0.303 OA
DOCKED: ATOM     48  H   UNL d   1      -8.823   3.312  -7.758 +0.02 +0.00    +0.222 HD
DOCKED: ENDBRANCH  43  47
DOCKED: ENDBRANCH  42  43
DOCKED: ENDBRANCH   4  42
DOCKED: TORSDOF 24
DOCKED: TER
DOCKED: ENDMDL
________________________________________________________________________________


	BEGINNING GENETIC ALGORITHM DOCKING 80 of 100
Run: 80 Seed: 1275549628 668250017 [ Run 80 of 100 GA/GALS ]
Beginning LAMARCKIAN GENETIC ALGORITHM (LGA), with a maximum of 25000000 energy evaluations.

Final-Value: -17.524


	FINAL GENETIC ALGORITHM DOCKED STATE
	_______________________________________________


Detailed state:  trans 8.899 14.135 -11.818 quatxyzw -0.059381 0.560152 -0.523449 0.639300 center 0.035 0.082 -0.065 ntor 24 18.3675 -179.9647 147.4174 34.9646 -29.8803 139.1941 -15.9882 99.5031 101.9674 -41.6005 -32.2249 125.8538 117.8764 -168.4702 -156.2577 136.2589 170.0028 -74.8916 37.6339 -19.3019 157.4011 -24.2820 7.6821 172.4195
State:	  8.899  14.135 -11.818  -0.077  0.728 -0.681 100.521     18.37 -179.96  147.42   34.96  -29.88  139.19  -15.99   99.50  101.97  -41.60  -32.22  125.85  117.88 -168.47 -156.26  136.26  170.00  -74.89   37.63  -19.30  157.40  -24.28    7.68  172.42

DOCKED: MODEL       80
DOCKED: USER    Run = 80
DOCKED: USER    DPF = D:/Protein_go_brrr/autodock/final/mut_N102T/IHP/dock.dpf
DOCKED: USER  
DOCKED: USER    Estimated Free Energy of Binding    =   +1.24 kcal/mol  [=(1)+(2)+(3)-(4)]
DOCKED: USER    
DOCKED: USER    (1) Final Intermolecular Energy     =   -5.92 kcal/mol
DOCKED: USER        vdW + Hbond + desolv Energy     =   -5.21 kcal/mol
DOCKED: USER        Electrostatic Energy            =   -0.71 kcal/mol
DOCKED: USER    (2) Final Total Internal Energy     =  -11.60 kcal/mol
DOCKED: USER    (3) Torsional Free Energy           =   +7.16 kcal/mol
DOCKED: USER    (4) Unbound System's Energy  [=(2)] =  -11.60 kcal/mol
DOCKED: USER    
DOCKED: USER    
DOCKED: USER    NEWDPF move IHP_ideal_opt.pdbqt
DOCKED: USER    NEWDPF about 0.035000 0.082000 -0.065000
DOCKED: USER    NEWDPF tran0 8.899051 14.134938 -11.817825
DOCKED: USER    NEWDPF quaternion0 -0.059381 0.560152 -0.523449 0.639300
DOCKED: USER    NEWDPF axisangle0 -0.077222 0.728456 -0.680726 100.520688
DOCKED: USER    NEWDPF quat0 -0.077222 0.728456 -0.680726 100.520688
DOCKED: USER    NEWDPF dihe0 18.37 -179.96 147.42 34.96 -29.88 139.19 -15.99 99.50 101.97 -41.60 -32.22 125.85 117.88 -168.47 -156.26 136.26 170.00 -74.89 37.63 -19.30 157.40 -24.28 7.68 172.42 
DOCKED: USER  keepresnum = 1 
DOCKED: USER  
DOCKED: REMARK  24 active torsions:
DOCKED: REMARK  status: ('A' for Active; 'I' for Inactive)
DOCKED: REMARK    1  A    between atoms: C_1  and  O_7 
DOCKED: REMARK    2  A    between atoms: C_2  and  O_12 
DOCKED: REMARK    3  A    between atoms: C_3  and  O_17 
DOCKED: REMARK    4  A    between atoms: C_4  and  O_22 
DOCKED: REMARK    5  A    between atoms: C_5  and  O_27 
DOCKED: REMARK    6  A    between atoms: C_6  and  O_32 
DOCKED: REMARK    7  A    between atoms: O_7  and  P_8 
DOCKED: REMARK    8  A    between atoms: P_8  and  O_10 
DOCKED: REMARK    9  A    between atoms: P_8  and  O_11 
DOCKED: REMARK   10  A    between atoms: O_12  and  P_13 
DOCKED: REMARK   11  A    between atoms: P_13  and  O_15 
DOCKED: REMARK   12  A    between atoms: P_13  and  O_16 
DOCKED: REMARK   13  A    between atoms: O_17  and  P_18 
DOCKED: REMARK   14  A    between atoms: P_18  and  O_20 
DOCKED: REMARK   15  A    between atoms: P_18  and  O_21 
DOCKED: REMARK   16  A    between atoms: O_22  and  P_23 
DOCKED: REMARK   17  A    between atoms: P_23  and  O_25 
DOCKED: REMARK   18  A    between atoms: P_23  and  O_26 
DOCKED: REMARK   19  A    between atoms: O_27  and  P_28 
DOCKED: REMARK   20  A    between atoms: P_28  and  O_30 
DOCKED: REMARK   21  A    between atoms: P_28  and  O_31 
DOCKED: REMARK   22  A    between atoms: O_32  and  P_33 
DOCKED: REMARK   23  A    between atoms: P_33  and  O_35 
DOCKED: REMARK   24  A    between atoms: P_33  and  O_36 
DOCKED: USER                              x       y       z     vdW  Elec       q    Type
DOCKED: USER                           _______ _______ _______ _____ _____    ______ ____
DOCKED: ROOT
DOCKED: ATOM      1  C   UNL d   1       8.815  13.971 -10.100 -0.05 -0.07    +0.194 C 
DOCKED: ATOM      2  C   UNL d   1       9.867  13.106 -10.796 -0.03 -0.06    +0.194 C 
DOCKED: ATOM      3  C   UNL d   1       9.319  12.465 -12.073 -0.06 -0.05    +0.194 C 
DOCKED: ATOM      4  C   UNL d   1       8.680  13.473 -13.025 -0.04 -0.05    +0.194 C 
DOCKED: ATOM      5  C   UNL d   1       7.708  14.433 -12.351 -0.06 -0.05    +0.194 C 
DOCKED: ATOM      6  C   UNL d   1       8.232  15.026 -11.041 -0.03 -0.05    +0.194 C 
DOCKED: ENDROOT
DOCKED: BRANCH   1   7
DOCKED: ATOM      7  O   UNL d   1       9.450  14.665  -9.023 -0.03 +0.14    -0.278 OA
DOCKED: BRANCH   7   8
DOCKED: ATOM      8  P   UNL d   1       9.592  13.918  -7.618 -0.01 -0.55    +0.473 P 
DOCKED: ATOM      9  O   UNL d   1      10.471  14.598  -6.628 -0.09 +0.34    -0.228 OA
DOCKED: BRANCH   8  10
DOCKED: ATOM     10  O   UNL d   1       8.088  13.752  -7.114 -0.24 +0.40    -0.303 OA
DOCKED: ATOM     11  H   UNL d   1       8.043  13.927  -6.156 -0.33 -0.55    +0.222 HD
DOCKED: ENDBRANCH   8  10
DOCKED: BRANCH   8  12
DOCKED: ATOM     12  O   UNL d   1       9.987  12.423  -7.984 -0.16 +0.32    -0.303 OA
DOCKED: ATOM     13  H   UNL d   1      10.720  12.071  -7.430 -0.34 -0.33    +0.222 HD
DOCKED: ENDBRANCH   8  12
DOCKED: ENDBRANCH   7   8
DOCKED: ENDBRANCH   1   7
DOCKED: BRANCH   2  14
DOCKED: ATOM     14  O   UNL d   1      10.991  13.925 -11.142 +0.00 +0.06    -0.278 OA
DOCKED: BRANCH  14  15
DOCKED: ATOM     15  P   UNL d   1      12.357  13.634 -10.358 +0.02 -0.11    +0.473 P 
DOCKED: ATOM     16  O   UNL d   1      12.840  14.705  -9.431 -0.00 +0.06    -0.228 OA
DOCKED: BRANCH  15  17
DOCKED: ATOM     17  O   UNL d   1      12.091  12.250  -9.616 -0.03 +0.09    -0.303 OA
DOCKED: ATOM     18  H   UNL d   1      11.763  11.574 -10.240 +0.06 -0.06    +0.222 HD
DOCKED: ENDBRANCH  15  17
DOCKED: BRANCH  15  19
DOCKED: ATOM     19  O   UNL d   1      13.381  13.197 -11.493 +0.00 +0.04    -0.303 OA
DOCKED: ATOM     20  H   UNL d   1      12.922  12.831 -12.272 +0.01 -0.03    +0.222 HD
DOCKED: ENDBRANCH  15  19
DOCKED: ENDBRANCH  14  15
DOCKED: ENDBRANCH   2  14
DOCKED: BRANCH   6  21
DOCKED: ATOM     21  O   UNL d   1       7.113  15.607 -10.375 -0.03 +0.08    -0.278 OA
DOCKED: BRANCH  21  22
DOCKED: ATOM     22  P   UNL d   1       5.821  14.721 -10.077 -0.05 -0.20    +0.473 P 
DOCKED: ATOM     23  O   UNL d   1       4.498  15.222 -10.549 -0.20 +0.10    -0.228 OA
DOCKED: BRANCH  22  24
DOCKED: ATOM     24  O   UNL d   1       6.251  13.309 -10.672 -0.01 +0.16    -0.303 OA
DOCKED: ATOM     25  H   UNL d   1       5.889  13.239 -11.592 -0.42 -0.17    +0.222 HD
DOCKED: ENDBRANCH  22  24
DOCKED: BRANCH  22  26
DOCKED: ATOM     26  O   UNL d   1       5.955  14.470  -8.499 -0.22 +0.15    -0.303 OA
DOCKED: ATOM     27  H   UNL d   1       6.902  14.387  -8.266 +0.07 -0.13    +0.222 HD
DOCKED: ENDBRANCH  22  26
DOCKED: ENDBRANCH  21  22
DOCKED: ENDBRANCH   6  21
DOCKED: BRANCH   3  28
DOCKED: ATOM     28  O   UNL d   1      10.422  11.920 -12.786 -0.03 +0.05    -0.278 OA
DOCKED: BRANCH  28  29
DOCKED: ATOM     29  P   UNL d   1      10.942  10.450 -12.462 -0.09 -0.10    +0.473 P 
DOCKED: ATOM     30  O   UNL d   1      10.693   9.435 -13.518 -0.22 +0.03    -0.228 OA
DOCKED: BRANCH  29  31
DOCKED: ATOM     31  O   UNL d   1      12.470  10.767 -12.105 -0.03 +0.05    -0.303 OA
DOCKED: ATOM     32  H   UNL d   1      12.510  11.634 -11.640 +0.03 -0.04    +0.222 HD
DOCKED: ENDBRANCH  29  31
DOCKED: BRANCH  29  33
DOCKED: ATOM     33  O   UNL d   1      10.297  10.175 -11.033 -0.14 +0.11    -0.303 OA
DOCKED: ATOM     34  H   UNL d   1      10.257   9.199 -10.881 -0.45 -0.16    +0.222 HD
DOCKED: ENDBRANCH  29  33
DOCKED: ENDBRANCH  28  29
DOCKED: ENDBRANCH   3  28
DOCKED: BRANCH   5  35
DOCKED: ATOM     35  O   UNL d   1       7.537  15.515 -13.263 -0.01 +0.06    -0.278 OA
DOCKED: BRANCH  35  36
DOCKED: ATOM     36  P   UNL d   1       6.090  16.140 -13.509 -0.00 -0.09    +0.473 P 
DOCKED: ATOM     37  O   UNL d   1       5.824  16.621 -14.900 -0.01 +0.03    -0.228 OA
DOCKED: BRANCH  36  38
DOCKED: ATOM     38  O   UNL d   1       5.139  14.956 -13.033 -0.10 +0.11    -0.303 OA
DOCKED: ATOM     39  H   UNL d   1       5.579  14.461 -12.308 -0.16 -0.11    +0.222 HD
DOCKED: ENDBRANCH  36  38
DOCKED: BRANCH  36  40
DOCKED: ATOM     40  O   UNL d   1       5.980  17.213 -12.341 -0.01 +0.05    -0.303 OA
DOCKED: ATOM     41  H   UNL d   1       5.690  16.804 -11.496 +0.03 -0.05    +0.222 HD
DOCKED: ENDBRANCH  36  40
DOCKED: ENDBRANCH  35  36
DOCKED: ENDBRANCH   5  35
DOCKED: BRANCH   4  42
DOCKED: ATOM     42  O   UNL d   1       7.930  12.719 -13.984 -0.06 +0.09    -0.278 OA
DOCKED: BRANCH  42  43
DOCKED: ATOM     43  P   UNL d   1       6.727  11.803 -13.475 -0.15 -0.21    +0.473 P 
DOCKED: ATOM     44  O   UNL d   1       6.826  11.242 -12.099 -0.30 +0.08    -0.228 OA
DOCKED: BRANCH  43  45
DOCKED: ATOM     45  O   UNL d   1       5.457  12.733 -13.709 -0.24 +0.17    -0.303 OA
DOCKED: ATOM     46  H   UNL d   1       5.120  13.098 -12.867 -0.48 -0.18    +0.222 HD
DOCKED: ENDBRANCH  43  45
DOCKED: BRANCH  43  47
DOCKED: ATOM     47  O   UNL d   1       6.564  10.726 -14.651 -0.22 +0.22    -0.303 OA
DOCKED: ATOM     48  H   UNL d   1       6.432  11.195 -15.501 -0.30 -0.32    +0.222 HD
DOCKED: ENDBRANCH  43  47
DOCKED: ENDBRANCH  42  43
DOCKED: ENDBRANCH   4  42
DOCKED: TORSDOF 24
DOCKED: TER
DOCKED: ENDMDL
________________________________________________________________________________


	BEGINNING GENETIC ALGORITHM DOCKING 81 of 100
Run: 81 Seed: 1205281875 1870644674 [ Run 81 of 100 GA/GALS ]
Beginning LAMARCKIAN GENETIC ALGORITHM (LGA), with a maximum of 25000000 energy evaluations.

Final-Value: -18.803


	FINAL GENETIC ALGORITHM DOCKED STATE
	_______________________________________________


Detailed state:  trans 2.482 16.834 -19.526 quatxyzw -0.530492 -0.300216 -0.786790 0.097005 center 0.035 0.082 -0.065 ntor 24 -104.4602 -9.8657 145.8212 -17.2860 11.4567 -174.5191 -108.1096 -36.2361 67.6796 94.7836 -6.1008 -115.6249 29.6673 -178.3047 14.2885 9.9850 131.8451 -31.1264 -8.1574 12.7428 -10.0041 1.7219 -5.1547 163.6332
State:	  2.482  16.834 -19.526  -0.533 -0.302 -0.791 168.867   -104.46   -9.87  145.82  -17.29   11.46 -174.52 -108.11  -36.24   67.68   94.78   -6.10 -115.62   29.67 -178.30   14.29    9.98  131.85  -31.13   -8.16   12.74  -10.00    1.72   -5.15  163.63

DOCKED: MODEL       81
DOCKED: USER    Run = 81
DOCKED: USER    DPF = D:/Protein_go_brrr/autodock/final/mut_N102T/IHP/dock.dpf
DOCKED: USER  
DOCKED: USER    Estimated Free Energy of Binding    =   +3.79 kcal/mol  [=(1)+(2)+(3)-(4)]
DOCKED: USER    
DOCKED: USER    (1) Final Intermolecular Energy     =   -3.36 kcal/mol
DOCKED: USER        vdW + Hbond + desolv Energy     =   -3.19 kcal/mol
DOCKED: USER        Electrostatic Energy            =   -0.18 kcal/mol
DOCKED: USER    (2) Final Total Internal Energy     =  -15.44 kcal/mol
DOCKED: USER    (3) Torsional Free Energy           =   +7.16 kcal/mol
DOCKED: USER    (4) Unbound System's Energy  [=(2)] =  -15.44 kcal/mol
DOCKED: USER    
DOCKED: USER    
DOCKED: USER    NEWDPF move IHP_ideal_opt.pdbqt
DOCKED: USER    NEWDPF about 0.035000 0.082000 -0.065000
DOCKED: USER    NEWDPF tran0 2.482045 16.834462 -19.526088
DOCKED: USER    NEWDPF quaternion0 -0.530492 -0.300216 -0.786790 0.097005
DOCKED: USER    NEWDPF axisangle0 -0.533006 -0.301639 -0.790518 168.866504
DOCKED: USER    NEWDPF quat0 -0.533006 -0.301639 -0.790518 168.866504
DOCKED: USER    NEWDPF dihe0 -104.46 -9.87 145.82 -17.29 11.46 -174.52 -108.11 -36.24 67.68 94.78 -6.10 -115.62 29.67 -178.30 14.29 9.98 131.85 -31.13 -8.16 12.74 -10.00 1.72 -5.15 163.63 
DOCKED: USER  keepresnum = 1 
DOCKED: USER  
DOCKED: REMARK  24 active torsions:
DOCKED: REMARK  status: ('A' for Active; 'I' for Inactive)
DOCKED: REMARK    1  A    between atoms: C_1  and  O_7 
DOCKED: REMARK    2  A    between atoms: C_2  and  O_12 
DOCKED: REMARK    3  A    between atoms: C_3  and  O_17 
DOCKED: REMARK    4  A    between atoms: C_4  and  O_22 
DOCKED: REMARK    5  A    between atoms: C_5  and  O_27 
DOCKED: REMARK    6  A    between atoms: C_6  and  O_32 
DOCKED: REMARK    7  A    between atoms: O_7  and  P_8 
DOCKED: REMARK    8  A    between atoms: P_8  and  O_10 
DOCKED: REMARK    9  A    between atoms: P_8  and  O_11 
DOCKED: REMARK   10  A    between atoms: O_12  and  P_13 
DOCKED: REMARK   11  A    between atoms: P_13  and  O_15 
DOCKED: REMARK   12  A    between atoms: P_13  and  O_16 
DOCKED: REMARK   13  A    between atoms: O_17  and  P_18 
DOCKED: REMARK   14  A    between atoms: P_18  and  O_20 
DOCKED: REMARK   15  A    between atoms: P_18  and  O_21 
DOCKED: REMARK   16  A    between atoms: O_22  and  P_23 
DOCKED: REMARK   17  A    between atoms: P_23  and  O_25 
DOCKED: REMARK   18  A    between atoms: P_23  and  O_26 
DOCKED: REMARK   19  A    between atoms: O_27  and  P_28 
DOCKED: REMARK   20  A    between atoms: P_28  and  O_30 
DOCKED: REMARK   21  A    between atoms: P_28  and  O_31 
DOCKED: REMARK   22  A    between atoms: O_32  and  P_33 
DOCKED: REMARK   23  A    between atoms: P_33  and  O_35 
DOCKED: REMARK   24  A    between atoms: P_33  and  O_36 
DOCKED: USER                              x       y       z     vdW  Elec       q    Type
DOCKED: USER                           _______ _______ _______ _____ _____    ______ ____
DOCKED: ROOT
DOCKED: ATOM      1  C   UNL d   1       2.517  18.428 -18.861 -0.05 +0.08    +0.194 C 
DOCKED: ATOM      2  C   UNL d   1       2.576  18.348 -20.387 -0.05 +0.09    +0.194 C 
DOCKED: ATOM      3  C   UNL d   1       3.523  17.243 -20.860 -0.02 +0.05    +0.194 C 
DOCKED: ATOM      4  C   UNL d   1       3.232  15.887 -20.221 -0.05 +0.04    +0.194 C 
DOCKED: ATOM      5  C   UNL d   1       3.051  15.939 -18.710 -0.09 +0.03    +0.194 C 
DOCKED: ATOM      6  C   UNL d   1       2.153  17.082 -18.233 -0.11 +0.07    +0.194 C 
DOCKED: ENDROOT
DOCKED: BRANCH   1   7
DOCKED: ATOM      7  O   UNL d   1       1.491  19.357 -18.503 -0.06 -0.16    -0.278 OA
DOCKED: BRANCH   7   8
DOCKED: ATOM      8  P   UNL d   1       1.837  20.498 -17.439 -0.00 +0.12    +0.473 P 
DOCKED: ATOM      9  O   UNL d   1       2.548  21.682 -17.993 -0.00 -0.04    -0.228 OA
DOCKED: BRANCH   8  10
DOCKED: ATOM     10  O   UNL d   1       0.427  20.860 -16.788 -0.01 -0.09    -0.303 OA
DOCKED: ATOM     11  H   UNL d   1       0.324  20.382 -15.943 +0.02 +0.05    +0.222 HD
DOCKED: ENDBRANCH   8  10
DOCKED: BRANCH   8  12
DOCKED: ATOM     12  O   UNL d   1       2.570  19.743 -16.248 -0.00 -0.04    -0.303 OA
DOCKED: ATOM     13  H   UNL d   1       2.042  19.000 -15.880 +0.02 +0.03    +0.222 HD
DOCKED: ENDBRANCH   8  12
DOCKED: ENDBRANCH   7   8
DOCKED: ENDBRANCH   1   7
DOCKED: BRANCH   2  14
DOCKED: ATOM     14  O   UNL d   1       1.264  18.071 -20.892 -0.65 -0.35    -0.278 OA
DOCKED: BRANCH  14  15
DOCKED: ATOM     15  P   UNL d   1       0.869  18.765 -22.280 -0.02 +0.47    +0.473 P 
DOCKED: ATOM     16  O   UNL d   1      -0.352  19.631 -22.275 -0.07 -0.31    -0.228 OA
DOCKED: BRANCH  15  17
DOCKED: ATOM     17  O   UNL d   1       2.185  19.555 -22.706 -0.01 -0.11    -0.303 OA
DOCKED: ATOM     18  H   UNL d   1       2.971  18.978 -22.662 +0.01 +0.06    +0.222 HD
DOCKED: ENDBRANCH  15  17
DOCKED: BRANCH  15  19
DOCKED: ATOM     19  O   UNL d   1       0.858  17.571 -23.331 -0.04 -0.19    -0.303 OA
DOCKED: ATOM     20  H   UNL d   1       1.762  17.314 -23.593 +0.01 +0.08    +0.222 HD
DOCKED: ENDBRANCH  15  19
DOCKED: ENDBRANCH  14  15
DOCKED: ENDBRANCH   2  14
DOCKED: BRANCH   6  21
DOCKED: ATOM     21  O   UNL d   1       2.357  17.208 -16.827 -0.05 -0.06    -0.278 OA
DOCKED: BRANCH  21  22
DOCKED: ATOM     22  P   UNL d   1       1.176  16.841 -15.819 -0.11 +0.11    +0.473 P 
DOCKED: ATOM     23  O   UNL d   1       0.402  15.590 -16.066 -0.78 -0.11    -0.228 OA
DOCKED: BRANCH  22  24
DOCKED: ATOM     24  O   UNL d   1       1.919  16.899 -14.413 -0.04 -0.01    -0.303 OA
DOCKED: ATOM     25  H   UNL d   1       2.706  16.298 -14.454 +0.06 -0.01    +0.222 HD
DOCKED: ENDBRANCH  22  24
DOCKED: BRANCH  22  26
DOCKED: ATOM     26  O   UNL d   1       0.328  18.201 -15.802 -0.05 -0.09    -0.303 OA
DOCKED: ATOM     27  H   UNL d   1       0.643  18.786 -16.522 +0.03 +0.08    +0.222 HD
DOCKED: ENDBRANCH  22  26
DOCKED: ENDBRANCH  21  22
DOCKED: ENDBRANCH   6  21
DOCKED: BRANCH   3  28
DOCKED: ATOM     28  O   UNL d   1       3.305  17.059 -22.253 -0.01 -0.07    -0.278 OA
DOCKED: BRANCH  28  29
DOCKED: ATOM     29  P   UNL d   1       4.436  17.452 -23.304 +0.01 +0.05    +0.473 P 
DOCKED: ATOM     30  O   UNL d   1       5.515  18.330 -22.784 +0.00 -0.02    -0.228 OA
DOCKED: BRANCH  29  31
DOCKED: ATOM     31  O   UNL d   1       4.864  15.995 -23.810 +0.00 -0.02    -0.303 OA
DOCKED: ATOM     32  H   UNL d   1       5.137  15.459 -23.030 +0.01 +0.01    +0.222 HD
DOCKED: ENDBRANCH  29  31
DOCKED: BRANCH  29  33
DOCKED: ATOM     33  O   UNL d   1       3.578  18.010 -24.524 +0.00 -0.04    -0.303 OA
DOCKED: ATOM     34  H   UNL d   1       2.696  18.304 -24.188 +0.01 +0.05    +0.222 HD
DOCKED: ENDBRANCH  29  33
DOCKED: ENDBRANCH  28  29
DOCKED: ENDBRANCH   3  28
DOCKED: BRANCH   5  35
DOCKED: ATOM     35  O   UNL d   1       2.402  14.720 -18.355 -0.18 -0.04    -0.278 OA
DOCKED: BRANCH  35  36
DOCKED: ATOM     36  P   UNL d   1       3.039  13.761 -17.252 -0.25 -0.10    +0.473 P 
DOCKED: ATOM     37  O   UNL d   1       2.228  12.555 -16.899 -0.54 +0.05    -0.228 OA
DOCKED: BRANCH  36  38
DOCKED: ATOM     38  O   UNL d   1       4.461  13.429 -17.889 -0.13 +0.18    -0.303 OA
DOCKED: ATOM     39  H   UNL d   1       4.527  13.860 -18.768 +0.05 -0.07    +0.222 HD
DOCKED: ENDBRANCH  36  38
DOCKED: BRANCH  36  40
DOCKED: ATOM     40  O   UNL d   1       3.375  14.775 -16.073 -0.13 +0.04    -0.303 OA
DOCKED: ATOM     41  H   UNL d   1       2.591  15.308 -15.817 +0.08 +0.00    +0.222 HD
DOCKED: ENDBRANCH  36  40
DOCKED: ENDBRANCH  35  36
DOCKED: ENDBRANCH   5  35
DOCKED: BRANCH   4  42
DOCKED: ATOM     42  O   UNL d   1       4.367  15.054 -20.481 -0.01 -0.00    -0.278 OA
DOCKED: BRANCH  42  43
DOCKED: ATOM     43  P   UNL d   1       5.820  15.588 -20.095 +0.01 -0.02    +0.473 P 
DOCKED: ATOM     44  O   UNL d   1       5.900  16.768 -19.190 -0.00 +0.00    -0.228 OA
DOCKED: BRANCH  43  45
DOCKED: ATOM     45  O   UNL d   1       6.531  14.283 -19.527 -0.02 +0.06    -0.303 OA
DOCKED: ATOM     46  H   UNL d   1       6.258  14.098 -18.607 +0.03 -0.08    +0.222 HD
DOCKED: ENDBRANCH  43  45
DOCKED: BRANCH  43  47
DOCKED: ATOM     47  O   UNL d   1       6.538  15.757 -21.519 +0.00 +0.00    -0.303 OA
DOCKED: ATOM     48  H   UNL d   1       6.064  16.438 -22.040 +0.00 +0.01    +0.222 HD
DOCKED: ENDBRANCH  43  47
DOCKED: ENDBRANCH  42  43
DOCKED: ENDBRANCH   4  42
DOCKED: TORSDOF 24
DOCKED: TER
DOCKED: ENDMDL
________________________________________________________________________________


	BEGINNING GENETIC ALGORITHM DOCKING 82 of 100
Run: 82 Seed: 31300806 1719794654 [ Run 82 of 100 GA/GALS ]
Beginning LAMARCKIAN GENETIC ALGORITHM (LGA), with a maximum of 25000000 energy evaluations.

Final-Value: -15.089


	FINAL GENETIC ALGORITHM DOCKED STATE
	_______________________________________________


Detailed state:  trans -14.261 -0.961 -3.024 quatxyzw 0.223578 -0.014843 0.849353 -0.477904 center 0.035 0.082 -0.065 ntor 24 103.1077 -17.4323 10.9586 45.0256 112.3194 112.6633 5.7325 151.4024 146.5973 67.8408 56.5692 -7.3450 -26.3941 -153.9281 96.5405 159.0539 156.1212 -91.5120 35.6490 -46.5611 -44.8582 -44.1993 -168.9386 -137.1470
State:	-14.261  -0.961  -3.024   0.255 -0.017  0.967 -122.903    103.11  -17.43   10.96   45.03  112.32  112.66    5.73  151.40  146.60   67.84   56.57   -7.34  -26.39 -153.93   96.54  159.05  156.12  -91.51   35.65  -46.56  -44.86  -44.20 -168.94 -137.15

DOCKED: MODEL       82
DOCKED: USER    Run = 82
DOCKED: USER    DPF = D:/Protein_go_brrr/autodock/final/mut_N102T/IHP/dock.dpf
DOCKED: USER  
DOCKED: USER    Estimated Free Energy of Binding    =   +4.19 kcal/mol  [=(1)+(2)+(3)-(4)]
DOCKED: USER    
DOCKED: USER    (1) Final Intermolecular Energy     =   -2.97 kcal/mol
DOCKED: USER        vdW + Hbond + desolv Energy     =   -2.96 kcal/mol
DOCKED: USER        Electrostatic Energy            =   -0.01 kcal/mol
DOCKED: USER    (2) Final Total Internal Energy     =  -12.12 kcal/mol
DOCKED: USER    (3) Torsional Free Energy           =   +7.16 kcal/mol
DOCKED: USER    (4) Unbound System's Energy  [=(2)] =  -12.12 kcal/mol
DOCKED: USER    
DOCKED: USER    
DOCKED: USER    NEWDPF move IHP_ideal_opt.pdbqt
DOCKED: USER    NEWDPF about 0.035000 0.082000 -0.065000
DOCKED: USER    NEWDPF tran0 -14.260622 -0.960971 -3.024208
DOCKED: USER    NEWDPF quaternion0 0.223578 -0.014843 0.849353 -0.477904
DOCKED: USER    NEWDPF axisangle0 0.254525 -0.016897 0.966919 -122.902826
DOCKED: USER    NEWDPF quat0 0.254525 -0.016897 0.966919 -122.902826
DOCKED: USER    NEWDPF dihe0 103.11 -17.43 10.96 45.03 112.32 112.66 5.73 151.40 146.60 67.84 56.57 -7.34 -26.39 -153.93 96.54 159.05 156.12 -91.51 35.65 -46.56 -44.86 -44.20 -168.94 -137.15 
DOCKED: USER  keepresnum = 1 
DOCKED: USER  
DOCKED: REMARK  24 active torsions:
DOCKED: REMARK  status: ('A' for Active; 'I' for Inactive)
DOCKED: REMARK    1  A    between atoms: C_1  and  O_7 
DOCKED: REMARK    2  A    between atoms: C_2  and  O_12 
DOCKED: REMARK    3  A    between atoms: C_3  and  O_17 
DOCKED: REMARK    4  A    between atoms: C_4  and  O_22 
DOCKED: REMARK    5  A    between atoms: C_5  and  O_27 
DOCKED: REMARK    6  A    between atoms: C_6  and  O_32 
DOCKED: REMARK    7  A    between atoms: O_7  and  P_8 
DOCKED: REMARK    8  A    between atoms: P_8  and  O_10 
DOCKED: REMARK    9  A    between atoms: P_8  and  O_11 
DOCKED: REMARK   10  A    between atoms: O_12  and  P_13 
DOCKED: REMARK   11  A    between atoms: P_13  and  O_15 
DOCKED: REMARK   12  A    between atoms: P_13  and  O_16 
DOCKED: REMARK   13  A    between atoms: O_17  and  P_18 
DOCKED: REMARK   14  A    between atoms: P_18  and  O_20 
DOCKED: REMARK   15  A    between atoms: P_18  and  O_21 
DOCKED: REMARK   16  A    between atoms: O_22  and  P_23 
DOCKED: REMARK   17  A    between atoms: P_23  and  O_25 
DOCKED: REMARK   18  A    between atoms: P_23  and  O_26 
DOCKED: REMARK   19  A    between atoms: O_27  and  P_28 
DOCKED: REMARK   20  A    between atoms: P_28  and  O_30 
DOCKED: REMARK   21  A    between atoms: P_28  and  O_31 
DOCKED: REMARK   22  A    between atoms: O_32  and  P_33 
DOCKED: REMARK   23  A    between atoms: P_33  and  O_35 
DOCKED: REMARK   24  A    between atoms: P_33  and  O_36 
DOCKED: USER                              x       y       z     vdW  Elec       q    Type
DOCKED: USER                           _______ _______ _______ _____ _____    ______ ____
DOCKED: ROOT
DOCKED: ATOM      1  C   UNL d   1     -13.800   0.341  -1.986 -0.05 +0.08    +0.194 C 
DOCKED: ATOM      2  C   UNL d   1     -12.724  -0.139  -2.962 -0.08 +0.08    +0.194 C 
DOCKED: ATOM      3  C   UNL d   1     -12.669  -1.667  -3.038 -0.08 +0.07    +0.194 C 
DOCKED: ATOM      4  C   UNL d   1     -14.028  -2.304  -3.319 -0.01 +0.03    +0.194 C 
DOCKED: ATOM      5  C   UNL d   1     -15.156  -1.770  -2.445 -0.00 +0.03    +0.194 C 
DOCKED: ATOM      6  C   UNL d   1     -15.173  -0.245  -2.319 -0.01 +0.03    +0.194 C 
DOCKED: ENDROOT
DOCKED: BRANCH   1   7
DOCKED: ATOM      7  O   UNL d   1     -13.904   1.762  -2.101 -0.03 -0.08    -0.278 OA
DOCKED: BRANCH   7   8
DOCKED: ATOM      8  P   UNL d   1     -12.931   2.668  -1.216 -0.05 +0.17    +0.473 P 
DOCKED: ATOM      9  O   UNL d   1     -11.655   2.017  -0.812 -0.61 -0.21    -0.228 OA
DOCKED: BRANCH   8  10
DOCKED: ATOM     10  O   UNL d   1     -12.715   3.980  -2.099 -0.01 -0.05    -0.303 OA
DOCKED: ATOM     11  H   UNL d   1     -12.390   3.729  -2.983 +0.03 +0.03    +0.222 HD
DOCKED: ENDBRANCH   8  10
DOCKED: BRANCH   8  12
DOCKED: ATOM     12  O   UNL d   1     -13.838   3.212  -0.030 -0.02 -0.07    -0.303 OA
DOCKED: ATOM     13  H   UNL d   1     -14.580   3.779  -0.341 +0.02 +0.03    +0.222 HD
DOCKED: ENDBRANCH   8  12
DOCKED: ENDBRANCH   7   8
DOCKED: ENDBRANCH   1   7
DOCKED: BRANCH   2  14
DOCKED: ATOM     14  O   UNL d   1     -13.015   0.373  -4.268 -0.02 -0.05    -0.278 OA
DOCKED: BRANCH  14  15
DOCKED: ATOM     15  P   UNL d   1     -12.486   1.849  -4.592 -0.01 +0.06    +0.473 P 
DOCKED: ATOM     16  O   UNL d   1     -13.476   2.963  -4.456 -0.00 -0.02    -0.228 OA
DOCKED: BRANCH  15  17
DOCKED: ATOM     17  O   UNL d   1     -11.223   2.026  -3.637 -0.11 -0.05    -0.303 OA
DOCKED: ATOM     18  H   UNL d   1     -11.493   2.325  -2.748 +0.05 +0.06    +0.222 HD
DOCKED: ENDBRANCH  15  17
DOCKED: BRANCH  15  19
DOCKED: ATOM     19  O   UNL d   1     -11.792   1.718  -6.018 -0.04 -0.02    -0.303 OA
DOCKED: ATOM     20  H   UNL d   1     -11.636   0.786  -6.258 +0.04 +0.02    +0.222 HD
DOCKED: ENDBRANCH  15  19
DOCKED: ENDBRANCH  14  15
DOCKED: ENDBRANCH   2  14
DOCKED: BRANCH   6  21
DOCKED: ATOM     21  O   UNL d   1     -16.037   0.069  -1.228 +0.00 -0.04    -0.278 OA
DOCKED: BRANCH  21  22
DOCKED: ATOM     22  P   UNL d   1     -16.899   1.410  -1.263 +0.02 +0.03    +0.473 P 
DOCKED: ATOM     23  O   UNL d   1     -18.372   1.307  -1.050 +0.00 -0.01    -0.228 OA
DOCKED: BRANCH  22  24
DOCKED: ATOM     24  O   UNL d   1     -16.134   2.317  -0.202 +0.01 -0.03    -0.303 OA
DOCKED: ATOM     25  H   UNL d   1     -15.162   2.253  -0.386 +0.02 +0.04    +0.222 HD
DOCKED: ENDBRANCH  22  24
DOCKED: BRANCH  22  26
DOCKED: ATOM     26  O   UNL d   1     -16.434   2.062  -2.652 +0.01 -0.02    -0.303 OA
DOCKED: ATOM     27  H   UNL d   1     -15.473   2.244  -2.615 +0.01 +0.02    +0.222 HD
DOCKED: ENDBRANCH  22  26
DOCKED: ENDBRANCH  21  22
DOCKED: ENDBRANCH   6  21
DOCKED: BRANCH   3  28
DOCKED: ATOM     28  O   UNL d   1     -11.854  -2.011  -4.151 -0.06 -0.07    -0.278 OA
DOCKED: BRANCH  28  29
DOCKED: ATOM     29  P   UNL d   1     -10.298  -1.674  -4.143 -0.10 +0.15    +0.473 P 
DOCKED: ATOM     30  O   UNL d   1      -9.400  -2.779  -4.567 -0.70 -0.07    -0.228 OA
DOCKED: BRANCH  29  31
DOCKED: ATOM     31  O   UNL d   1     -10.294  -0.350  -5.043 -0.02 -0.03    -0.303 OA
DOCKED: ATOM     32  H   UNL d   1     -10.892   0.314  -4.627 +0.05 +0.03    +0.222 HD
DOCKED: ENDBRANCH  29  31
DOCKED: BRANCH  29  33
DOCKED: ATOM     33  O   UNL d   1     -10.088  -1.100  -2.673 -0.81 -0.24    -0.303 OA
DOCKED: ATOM     34  H   UNL d   1      -9.357  -0.434  -2.689 -0.41 +0.12    +0.222 HD
DOCKED: ENDBRANCH  29  33
DOCKED: ENDBRANCH  28  29
DOCKED: ENDBRANCH   3  28
DOCKED: BRANCH   5  35
DOCKED: ATOM     35  O   UNL d   1     -16.365  -2.150  -3.098 +0.00 -0.02    -0.278 OA
DOCKED: BRANCH  35  36
DOCKED: ATOM     36  P   UNL d   1     -16.468  -2.107  -4.690 +0.01 +0.02    +0.473 P 
DOCKED: ATOM     37  O   UNL d   1     -17.856  -2.053  -5.245 +0.00 -0.01    -0.228 OA
DOCKED: BRANCH  36  38
DOCKED: ATOM     38  O   UNL d   1     -15.574  -0.836  -5.039 +0.00 -0.02    -0.303 OA
DOCKED: ATOM     39  H   UNL d   1     -14.626  -1.079  -4.961 +0.02 +0.02    +0.222 HD
DOCKED: ENDBRANCH  36  38
DOCKED: BRANCH  36  40
DOCKED: ATOM     40  O   UNL d   1     -15.564  -3.342  -5.122 +0.00 -0.02    -0.303 OA
DOCKED: ATOM     41  H   UNL d   1     -15.524  -4.028  -4.420 +0.00 +0.01    +0.222 HD
DOCKED: ENDBRANCH  36  40
DOCKED: ENDBRANCH  35  36
DOCKED: ENDBRANCH   5  35
DOCKED: BRANCH   4  42
DOCKED: ATOM     42  O   UNL d   1     -13.899  -3.700  -3.032 -0.01 -0.04    -0.278 OA
DOCKED: BRANCH  42  43
DOCKED: ATOM     43  P   UNL d   1     -14.680  -4.306  -1.780 +0.01 +0.04    +0.473 P 
DOCKED: ATOM     44  O   UNL d   1     -14.615  -3.550  -0.498 -0.04 -0.03    -0.228 OA
DOCKED: BRANCH  43  45
DOCKED: ATOM     45  O   UNL d   1     -16.154  -4.499  -2.349 +0.00 -0.01    -0.303 OA
DOCKED: ATOM     46  H   UNL d   1     -16.290  -3.987  -3.171 +0.01 +0.01    +0.222 HD
DOCKED: ENDBRANCH  43  45
DOCKED: BRANCH  43  47
DOCKED: ATOM     47  O   UNL d   1     -14.155  -5.819  -1.718 -0.00 -0.02    -0.303 OA
DOCKED: ATOM     48  H   UNL d   1     -14.479  -6.240  -0.895 +0.02 +0.00    +0.222 HD
DOCKED: ENDBRANCH  43  47
DOCKED: ENDBRANCH  42  43
DOCKED: ENDBRANCH   4  42
DOCKED: TORSDOF 24
DOCKED: TER
DOCKED: ENDMDL
________________________________________________________________________________


	BEGINNING GENETIC ALGORITHM DOCKING 83 of 100
Run: 83 Seed: 1187399992 1780377007 [ Run 83 of 100 GA/GALS ]
Beginning LAMARCKIAN GENETIC ALGORITHM (LGA), with a maximum of 25000000 energy evaluations.

Final-Value: -18.082


	FINAL GENETIC ALGORITHM DOCKED STATE
	_______________________________________________


Detailed state:  trans 6.411 -13.259 18.696 quatxyzw -0.246495 0.069272 0.876932 -0.406734 center 0.035 0.082 -0.065 ntor 24 64.6385 49.9138 109.8455 -14.2256 47.5940 122.4337 -126.4315 -11.1481 174.9405 125.0041 -128.2072 175.9725 -22.3471 84.6438 60.0756 53.1520 91.2789 160.5167 42.5458 -13.6411 -176.8827 158.3154 14.0258 180.0000
State:	  6.411 -13.259  18.696  -0.270  0.076  0.960 -132.000     64.64   49.91  109.85  -14.23   47.59  122.43 -126.43  -11.15  174.94  125.00 -128.21  175.97  -22.35   84.64   60.08   53.15   91.28  160.52   42.55  -13.64 -176.88  158.32   14.03  180.00

DOCKED: MODEL       83
DOCKED: USER    Run = 83
DOCKED: USER    DPF = D:/Protein_go_brrr/autodock/final/mut_N102T/IHP/dock.dpf
DOCKED: USER  
DOCKED: USER    Estimated Free Energy of Binding    =   +1.99 kcal/mol  [=(1)+(2)+(3)-(4)]
DOCKED: USER    
DOCKED: USER    (1) Final Intermolecular Energy     =   -5.17 kcal/mol
DOCKED: USER        vdW + Hbond + desolv Energy     =   -4.85 kcal/mol
DOCKED: USER        Electrostatic Energy            =   -0.32 kcal/mol
DOCKED: USER    (2) Final Total Internal Energy     =  -12.91 kcal/mol
DOCKED: USER    (3) Torsional Free Energy           =   +7.16 kcal/mol
DOCKED: USER    (4) Unbound System's Energy  [=(2)] =  -12.91 kcal/mol
DOCKED: USER    
DOCKED: USER    
DOCKED: USER    NEWDPF move IHP_ideal_opt.pdbqt
DOCKED: USER    NEWDPF about 0.035000 0.082000 -0.065000
DOCKED: USER    NEWDPF tran0 6.410589 -13.258817 18.695794
DOCKED: USER    NEWDPF quaternion0 -0.246495 0.069272 0.876932 -0.406734
DOCKED: USER    NEWDPF axisangle0 -0.269822 0.075828 0.959920 -132.000344
DOCKED: USER    NEWDPF quat0 -0.269822 0.075828 0.959920 -132.000344
DOCKED: USER    NEWDPF dihe0 64.64 49.91 109.85 -14.23 47.59 122.43 -126.43 -11.15 174.94 125.00 -128.21 175.97 -22.35 84.64 60.08 53.15 91.28 160.52 42.55 -13.64 -176.88 158.32 14.03 180.00 
DOCKED: USER  keepresnum = 1 
DOCKED: USER  
DOCKED: REMARK  24 active torsions:
DOCKED: REMARK  status: ('A' for Active; 'I' for Inactive)
DOCKED: REMARK    1  A    between atoms: C_1  and  O_7 
DOCKED: REMARK    2  A    between atoms: C_2  and  O_12 
DOCKED: REMARK    3  A    between atoms: C_3  and  O_17 
DOCKED: REMARK    4  A    between atoms: C_4  and  O_22 
DOCKED: REMARK    5  A    between atoms: C_5  and  O_27 
DOCKED: REMARK    6  A    between atoms: C_6  and  O_32 
DOCKED: REMARK    7  A    between atoms: O_7  and  P_8 
DOCKED: REMARK    8  A    between atoms: P_8  and  O_10 
DOCKED: REMARK    9  A    between atoms: P_8  and  O_11 
DOCKED: REMARK   10  A    between atoms: O_12  and  P_13 
DOCKED: REMARK   11  A    between atoms: P_13  and  O_15 
DOCKED: REMARK   12  A    between atoms: P_13  and  O_16 
DOCKED: REMARK   13  A    between atoms: O_17  and  P_18 
DOCKED: REMARK   14  A    between atoms: P_18  and  O_20 
DOCKED: REMARK   15  A    between atoms: P_18  and  O_21 
DOCKED: REMARK   16  A    between atoms: O_22  and  P_23 
DOCKED: REMARK   17  A    between atoms: P_23  and  O_25 
DOCKED: REMARK   18  A    between atoms: P_23  and  O_26 
DOCKED: REMARK   19  A    between atoms: O_27  and  P_28 
DOCKED: REMARK   20  A    between atoms: P_28  and  O_30 
DOCKED: REMARK   21  A    between atoms: P_28  and  O_31 
DOCKED: REMARK   22  A    between atoms: O_32  and  P_33 
DOCKED: REMARK   23  A    between atoms: P_33  and  O_35 
DOCKED: REMARK   24  A    between atoms: P_33  and  O_36 
DOCKED: USER                              x       y       z     vdW  Elec       q    Type
DOCKED: USER                           _______ _______ _______ _____ _____    ______ ____
DOCKED: ROOT
DOCKED: ATOM      1  C   UNL d   1       6.091 -11.567  18.841 -0.16 +0.03    +0.194 C 
DOCKED: ATOM      2  C   UNL d   1       7.514 -12.004  19.194 -0.10 +0.05    +0.194 C 
DOCKED: ATOM      3  C   UNL d   1       7.523 -13.282  20.035 -0.04 +0.03    +0.194 C 
DOCKED: ATOM      4  C   UNL d   1       6.708 -14.415  19.415 -0.06 +0.03    +0.194 C 
DOCKED: ATOM      5  C   UNL d   1       5.322 -13.997  18.944 -0.13 +0.01    +0.194 C 
DOCKED: ATOM      6  C   UNL d   1       5.305 -12.686  18.155 +0.08 +0.03    +0.194 C 
DOCKED: ENDROOT
DOCKED: BRANCH   1   7
DOCKED: ATOM      7  O   UNL d   1       6.174 -10.478  17.919 -0.15 -0.06    -0.278 OA
DOCKED: BRANCH   7   8
DOCKED: ATOM      8  P   UNL d   1       6.473  -9.018  18.495 -0.13 +0.03    +0.473 P 
DOCKED: ATOM      9  O   UNL d   1       7.280  -8.986  19.745 -0.04 -0.01    -0.228 OA
DOCKED: BRANCH   8  10
DOCKED: ATOM     10  O   UNL d   1       7.170  -8.258  17.278 -0.15 -0.04    -0.303 OA
DOCKED: ATOM     11  H   UNL d   1       8.139  -8.344  17.351 +0.05 +0.04    +0.222 HD
DOCKED: ENDBRANCH   8  10
DOCKED: BRANCH   8  12
DOCKED: ATOM     12  O   UNL d   1       5.056  -8.303  18.566 -0.12 +0.06    -0.303 OA
DOCKED: ATOM     13  H   UNL d   1       4.311  -8.899  18.326 -0.46 -0.10    +0.222 HD
DOCKED: ENDBRANCH   8  12
DOCKED: ENDBRANCH   7   8
DOCKED: ENDBRANCH   1   7
DOCKED: BRANCH   2  14
DOCKED: ATOM     14  O   UNL d   1       8.241 -12.249  17.983 -0.13 -0.20    -0.278 OA
DOCKED: BRANCH  14  15
DOCKED: ATOM     15  P   UNL d   1       9.522 -11.326  17.718 -0.06 +0.36    +0.473 P 
DOCKED: ATOM     16  O   UNL d   1      10.725 -11.997  17.134 -0.60 -0.26    -0.228 OA
DOCKED: BRANCH  15  17
DOCKED: ATOM     17  O   UNL d   1       8.967 -10.146  16.802 -0.15 -0.20    -0.303 OA
DOCKED: ATOM     18  H   UNL d   1       7.991 -10.129  16.804 +0.05 +0.13    +0.222 HD
DOCKED: ENDBRANCH  15  17
DOCKED: BRANCH  15  19
DOCKED: ATOM     19  O   UNL d   1       9.760 -10.572  19.099 -0.02 -0.08    -0.303 OA
DOCKED: ATOM     20  H   UNL d   1       9.097  -9.873  19.247 +0.02 +0.04    +0.222 HD
DOCKED: ENDBRANCH  15  19
DOCKED: ENDBRANCH  14  15
DOCKED: ENDBRANCH   2  14
DOCKED: BRANCH   6  21
DOCKED: ATOM     21  O   UNL d   1       3.946 -12.262  18.088 -0.16 +0.05    -0.278 OA
DOCKED: BRANCH  21  22
DOCKED: ATOM     22  P   UNL d   1       3.291 -11.504  19.330 -0.20 -0.08    +0.473 P 
DOCKED: ATOM     23  O   UNL d   1       3.381 -10.016  19.375 -0.23 +0.05    -0.228 OA
DOCKED: BRANCH  22  24
DOCKED: ATOM     24  O   UNL d   1       1.808 -12.083  19.320 -0.52 +0.04    -0.303 OA
DOCKED: ATOM     25  H   UNL d   1       1.636 -12.474  18.426 -0.46 -0.13    +0.222 HD
DOCKED: ENDBRANCH  22  24
DOCKED: BRANCH  22  26
DOCKED: ATOM     26  O   UNL d   1       3.943 -12.286  20.569 -0.04 +0.02    -0.303 OA
DOCKED: ATOM     27  H   UNL d   1       3.810 -13.248  20.448 +0.04 -0.02    +0.222 HD
DOCKED: ENDBRANCH  22  26
DOCKED: ENDBRANCH  21  22
DOCKED: ENDBRANCH   6  21
DOCKED: BRANCH   3  28
DOCKED: ATOM     28  O   UNL d   1       8.862 -13.758  20.076 -0.02 -0.06    -0.278 OA
DOCKED: BRANCH  28  29
DOCKED: ATOM     29  P   UNL d   1       9.381 -14.793  18.983 -0.04 +0.18    +0.473 P 
DOCKED: ATOM     30  O   UNL d   1       8.694 -14.734  17.667 -0.06 -0.19    -0.228 OA
DOCKED: BRANCH  29  31
DOCKED: ATOM     31  O   UNL d   1      10.946 -14.456  19.000 -0.01 -0.11    -0.303 OA
DOCKED: ATOM     32  H   UNL d   1      11.088 -13.602  18.531 +0.01 +0.11    +0.222 HD
DOCKED: ENDBRANCH  29  31
DOCKED: BRANCH  29  33
DOCKED: ATOM     33  O   UNL d   1       9.311 -16.175  19.771 -0.00 -0.05    -0.303 OA
DOCKED: ATOM     34  H   UNL d   1       8.430 -16.247  20.214 +0.01 +0.02    +0.222 HD
DOCKED: ENDBRANCH  29  33
DOCKED: ENDBRANCH  28  29
DOCKED: ENDBRANCH   3  28
DOCKED: BRANCH   5  35
DOCKED: ATOM     35  O   UNL d   1       4.888 -15.026  18.057 -0.12 +0.00    -0.278 OA
DOCKED: BRANCH  35  36
DOCKED: ATOM     36  P   UNL d   1       3.351 -15.449  18.005 -0.09 -0.12    +0.473 P 
DOCKED: ATOM     37  O   UNL d   1       2.778 -15.633  16.636 -0.17 +0.10    -0.228 OA
DOCKED: BRANCH  36  38
DOCKED: ATOM     38  O   UNL d   1       3.345 -16.766  18.899 -0.02 +0.05    -0.303 OA
DOCKED: ATOM     39  H   UNL d   1       2.949 -16.560  19.773 +0.03 -0.03    +0.222 HD
DOCKED: ENDBRANCH  36  38
DOCKED: BRANCH  36  40
DOCKED: ATOM     40  O   UNL d   1       2.666 -14.353  18.933 -0.11 +0.09    -0.303 OA
DOCKED: ATOM     41  H   UNL d   1       2.480 -13.523  18.440 -0.42 -0.12    +0.222 HD
DOCKED: ENDBRANCH  36  40
DOCKED: ENDBRANCH  35  36
DOCKED: ENDBRANCH   5  35
DOCKED: BRANCH   4  42
DOCKED: ATOM     42  O   UNL d   1       6.526 -15.401  20.437 -0.01 -0.01    -0.278 OA
DOCKED: BRANCH  42  43
DOCKED: ATOM     43  P   UNL d   1       5.587 -15.058  21.680 +0.00 -0.01    +0.473 P 
DOCKED: ATOM     44  O   UNL d   1       5.856 -15.770  22.961 -0.00 +0.00    -0.228 OA
DOCKED: BRANCH  43  45
DOCKED: ATOM     45  O   UNL d   1       5.703 -13.474  21.779 -0.00 +0.00    -0.303 OA
DOCKED: ATOM     46  H   UNL d   1       4.945 -13.090  22.264 +0.01 -0.01    +0.222 HD
DOCKED: ENDBRANCH  43  45
DOCKED: BRANCH  43  47
DOCKED: ATOM     47  O   UNL d   1       4.110 -15.241  21.085 -0.01 +0.02    -0.303 OA
DOCKED: ATOM     48  H   UNL d   1       4.170 -15.427  20.125 +0.03 -0.02    +0.222 HD
DOCKED: ENDBRANCH  43  47
DOCKED: ENDBRANCH  42  43
DOCKED: ENDBRANCH   4  42
DOCKED: TORSDOF 24
DOCKED: TER
DOCKED: ENDMDL
________________________________________________________________________________


	BEGINNING GENETIC ALGORITHM DOCKING 84 of 100
Run: 84 Seed: 840467241 1532547869 [ Run 84 of 100 GA/GALS ]
Beginning LAMARCKIAN GENETIC ALGORITHM (LGA), with a maximum of 25000000 energy evaluations.

Final-Value: -17.291


	FINAL GENETIC ALGORITHM DOCKED STATE
	_______________________________________________


Detailed state:  trans 18.685 6.045 -2.711 quatxyzw -0.052609 -0.989305 -0.128626 -0.044309 center 0.035 0.082 -0.065 ntor 24 160.9530 60.5397 -180.0000 140.1080 0.1019 167.8522 -122.6582 -2.8064 56.9178 -30.3353 33.4181 -23.8337 -6.8254 102.1626 29.0088 33.0783 156.6266 -93.7841 13.1140 -31.0530 170.2207 -53.8561 -0.2712 154.9596
State:	 18.685   6.045  -2.711  -0.053 -0.990 -0.129 -174.921    160.95   60.54 -180.00  140.11    0.10  167.85 -122.66   -2.81   56.92  -30.34   33.42  -23.83   -6.83  102.16   29.01   33.08  156.63  -93.78   13.11  -31.05  170.22  -53.86   -0.27  154.96

DOCKED: MODEL       84
DOCKED: USER    Run = 84
DOCKED: USER    DPF = D:/Protein_go_brrr/autodock/final/mut_N102T/IHP/dock.dpf
DOCKED: USER  
DOCKED: USER    Estimated Free Energy of Binding    =   +2.94 kcal/mol  [=(1)+(2)+(3)-(4)]
DOCKED: USER    
DOCKED: USER    (1) Final Intermolecular Energy     =   -4.22 kcal/mol
DOCKED: USER        vdW + Hbond + desolv Energy     =   -3.91 kcal/mol
DOCKED: USER        Electrostatic Energy            =   -0.32 kcal/mol
DOCKED: USER    (2) Final Total Internal Energy     =  -13.07 kcal/mol
DOCKED: USER    (3) Torsional Free Energy           =   +7.16 kcal/mol
DOCKED: USER    (4) Unbound System's Energy  [=(2)] =  -13.07 kcal/mol
DOCKED: USER    
DOCKED: USER    
DOCKED: USER    NEWDPF move IHP_ideal_opt.pdbqt
DOCKED: USER    NEWDPF about 0.035000 0.082000 -0.065000
DOCKED: USER    NEWDPF tran0 18.684926 6.045289 -2.711015
DOCKED: USER    NEWDPF quaternion0 -0.052609 -0.989305 -0.128626 -0.044309
DOCKED: USER    NEWDPF axisangle0 -0.052661 -0.990278 -0.128752 -174.920905
DOCKED: USER    NEWDPF quat0 -0.052661 -0.990278 -0.128752 -174.920905
DOCKED: USER    NEWDPF dihe0 160.95 60.54 -180.00 140.11 0.10 167.85 -122.66 -2.81 56.92 -30.34 33.42 -23.83 -6.83 102.16 29.01 33.08 156.63 -93.78 13.11 -31.05 170.22 -53.86 -0.27 154.96 
DOCKED: USER  keepresnum = 1 
DOCKED: USER  
DOCKED: REMARK  24 active torsions:
DOCKED: REMARK  status: ('A' for Active; 'I' for Inactive)
DOCKED: REMARK    1  A    between atoms: C_1  and  O_7 
DOCKED: REMARK    2  A    between atoms: C_2  and  O_12 
DOCKED: REMARK    3  A    between atoms: C_3  and  O_17 
DOCKED: REMARK    4  A    between atoms: C_4  and  O_22 
DOCKED: REMARK    5  A    between atoms: C_5  and  O_27 
DOCKED: REMARK    6  A    between atoms: C_6  and  O_32 
DOCKED: REMARK    7  A    between atoms: O_7  and  P_8 
DOCKED: REMARK    8  A    between atoms: P_8  and  O_10 
DOCKED: REMARK    9  A    between atoms: P_8  and  O_11 
DOCKED: REMARK   10  A    between atoms: O_12  and  P_13 
DOCKED: REMARK   11  A    between atoms: P_13  and  O_15 
DOCKED: REMARK   12  A    between atoms: P_13  and  O_16 
DOCKED: REMARK   13  A    between atoms: O_17  and  P_18 
DOCKED: REMARK   14  A    between atoms: P_18  and  O_20 
DOCKED: REMARK   15  A    between atoms: P_18  and  O_21 
DOCKED: REMARK   16  A    between atoms: O_22  and  P_23 
DOCKED: REMARK   17  A    between atoms: P_23  and  O_25 
DOCKED: REMARK   18  A    between atoms: P_23  and  O_26 
DOCKED: REMARK   19  A    between atoms: O_27  and  P_28 
DOCKED: REMARK   20  A    between atoms: P_28  and  O_30 
DOCKED: REMARK   21  A    between atoms: P_28  and  O_31 
DOCKED: REMARK   22  A    between atoms: O_32  and  P_33 
DOCKED: REMARK   23  A    between atoms: P_33  and  O_35 
DOCKED: REMARK   24  A    between atoms: P_33  and  O_36 
DOCKED: USER                              x       y       z     vdW  Elec       q    Type
DOCKED: USER                           _______ _______ _______ _____ _____    ______ ____
DOCKED: ROOT
DOCKED: ATOM      1  C   UNL d   1      17.283   5.513  -3.568 -0.12 -0.05    +0.194 C 
DOCKED: ATOM      2  C   UNL d   1      18.453   4.528  -3.540 -0.06 +0.00    +0.194 C 
DOCKED: ATOM      3  C   UNL d   1      19.791   5.232  -3.781 +0.00 -0.00    +0.194 C 
DOCKED: ATOM      4  C   UNL d   1      20.018   6.426  -2.858 -0.00 -0.00    +0.194 C 
DOCKED: ATOM      5  C   UNL d   1      18.830   7.375  -2.766 -0.03 -0.03    +0.194 C 
DOCKED: ATOM      6  C   UNL d   1      17.485   6.668  -2.586 -0.02 -0.09    +0.194 C 
DOCKED: ENDROOT
DOCKED: BRANCH   1   7
DOCKED: ATOM      7  O   UNL d   1      16.102   4.814  -3.166 -0.11 +0.19    -0.278 OA
DOCKED: BRANCH   7   8
DOCKED: ATOM      8  P   UNL d   1      14.986   4.512  -4.268 -0.18 -0.23    +0.473 P 
DOCKED: ATOM      9  O   UNL d   1      15.502   4.000  -5.566 -0.11 +0.04    -0.228 OA
DOCKED: BRANCH   8  10
DOCKED: ATOM     10  O   UNL d   1      13.991   3.497  -3.543 -0.15 +0.18    -0.303 OA
DOCKED: ATOM     11  H   UNL d   1      14.279   3.359  -2.621 -0.38 -0.26    +0.222 HD
DOCKED: ENDBRANCH   8  10
DOCKED: BRANCH   8  12
DOCKED: ATOM     12  O   UNL d   1      14.112   5.837  -4.343 -0.89 +0.14    -0.303 OA
DOCKED: ATOM     13  H   UNL d   1      14.547   6.611  -3.919 -0.19 -0.16    +0.222 HD
DOCKED: ENDBRANCH   8  12
DOCKED: ENDBRANCH   7   8
DOCKED: ENDBRANCH   1   7
DOCKED: BRANCH   2  14
DOCKED: ATOM     14  O   UNL d   1      18.498   3.892  -2.256 -0.41 -0.13    -0.278 OA
DOCKED: BRANCH  14  15
DOCKED: ATOM     15  P   UNL d   1      17.883   2.416  -2.168 -0.00 +0.23    +0.473 P 
DOCKED: ATOM     16  O   UNL d   1      18.360   1.556  -1.040 -0.20 -0.12    -0.228 OA
DOCKED: BRANCH  15  17
DOCKED: ATOM     17  O   UNL d   1      16.308   2.654  -2.140 -0.17 -0.09    -0.303 OA
DOCKED: ATOM     18  H   UNL d   1      15.951   2.752  -3.043 +0.05 -0.03    +0.222 HD
DOCKED: ENDBRANCH  15  17
DOCKED: BRANCH  15  19
DOCKED: ATOM     19  O   UNL d   1      18.089   1.813  -3.625 -0.01 -0.02    -0.303 OA
DOCKED: ATOM     20  H   UNL d   1      18.998   1.487  -3.755 +0.01 +0.01    +0.222 HD
DOCKED: ENDBRANCH  15  19
DOCKED: ENDBRANCH  14  15
DOCKED: ENDBRANCH   2  14
DOCKED: BRANCH   6  21
DOCKED: ATOM     21  O   UNL d   1      16.472   7.633  -2.861 -0.11 +0.19    -0.278 OA
DOCKED: BRANCH  21  22
DOCKED: ATOM     22  P   UNL d   1      16.289   8.188  -4.346 -0.10 -0.15    +0.473 P 
DOCKED: ATOM     23  O   UNL d   1      15.984   7.211  -5.431 -0.14 +0.06    -0.228 OA
DOCKED: BRANCH  22  24
DOCKED: ATOM     24  O   UNL d   1      15.189   9.319  -4.137 -0.25 +0.07    -0.303 OA
DOCKED: ATOM     25  H   UNL d   1      14.344   8.880  -3.862 -0.42 -0.12    +0.222 HD
DOCKED: ENDBRANCH  22  24
DOCKED: BRANCH  22  26
DOCKED: ATOM     26  O   UNL d   1      17.624   9.055  -4.535 -0.02 +0.05    -0.303 OA
DOCKED: ATOM     27  H   UNL d   1      18.111   9.087  -3.686 +0.03 -0.04    +0.222 HD
DOCKED: ENDBRANCH  22  26
DOCKED: ENDBRANCH  21  22
DOCKED: ENDBRANCH   6  21
DOCKED: BRANCH   3  28
DOCKED: ATOM     28  O   UNL d   1      20.824   4.307  -3.465 +0.00 -0.01    -0.278 OA
DOCKED: BRANCH  28  29
DOCKED: ATOM     29  P   UNL d   1      20.890   2.894  -4.196 +0.02 +0.01    +0.473 P 
DOCKED: ATOM     30  O   UNL d   1      19.925   2.702  -5.309 +0.00 +0.00    -0.228 OA
DOCKED: BRANCH  29  31
DOCKED: ATOM     31  O   UNL d   1      22.446   2.844  -4.567 +0.00 +0.00    -0.303 OA
DOCKED: ATOM     32  H   UNL d   1      22.619   3.498  -5.283 +0.00 -0.00    +0.222 HD
DOCKED: ENDBRANCH  29  31
DOCKED: BRANCH  29  33
DOCKED: ATOM     33  O   UNL d   1      20.788   1.880  -2.972 +0.00 -0.02    -0.303 OA
DOCKED: ATOM     34  H   UNL d   1      19.964   2.074  -2.462 +0.01 +0.03    +0.222 HD
DOCKED: ENDBRANCH  29  33
DOCKED: ENDBRANCH  28  29
DOCKED: ENDBRANCH   3  28
DOCKED: BRANCH   5  35
DOCKED: ATOM     35  O   UNL d   1      19.051   8.160  -1.597 -0.03 +0.04    -0.278 OA
DOCKED: BRANCH  35  36
DOCKED: ATOM     36  P   UNL d   1      18.936   9.750  -1.662 +0.01 -0.06    +0.473 P 
DOCKED: ATOM     37  O   UNL d   1      19.640  10.493  -0.570 +0.00 +0.01    -0.228 OA
DOCKED: BRANCH  36  38
DOCKED: ATOM     38  O   UNL d   1      19.488  10.057  -3.124 +0.00 +0.03    -0.303 OA
DOCKED: ATOM     39  H   UNL d   1      19.927   9.254  -3.477 +0.01 -0.02    +0.222 HD
DOCKED: ENDBRANCH  36  38
DOCKED: BRANCH  36  40
DOCKED: ATOM     40  O   UNL d   1      17.367   9.972  -1.791 -0.03 +0.07    -0.303 OA
DOCKED: ATOM     41  H   UNL d   1      17.034   9.713  -2.679 +0.04 -0.06    +0.222 HD
DOCKED: ENDBRANCH  36  40
DOCKED: ENDBRANCH  35  36
DOCKED: ENDBRANCH   5  35
DOCKED: BRANCH   4  42
DOCKED: ATOM     42  O   UNL d   1      21.111   7.171  -3.405 +0.00 +0.01    -0.278 OA
DOCKED: BRANCH  42  43
DOCKED: ATOM     43  P   UNL d   1      21.155   7.433  -4.978 +0.01 -0.02    +0.473 P 
DOCKED: ATOM     44  O   UNL d   1      20.923   6.266  -5.875 +0.00 +0.01    -0.228 OA
DOCKED: BRANCH  43  45
DOCKED: ATOM     45  O   UNL d   1      20.108   8.616  -5.164 +0.00 +0.02    -0.303 OA
DOCKED: ATOM     46  H   UNL d   1      19.323   8.493  -4.593 +0.01 -0.02    +0.222 HD
DOCKED: ENDBRANCH  43  45
DOCKED: BRANCH  43  47
DOCKED: ATOM     47  O   UNL d   1      22.549   8.197  -5.183 +0.00 +0.01    -0.303 OA
DOCKED: ATOM     48  H   UNL d   1      22.862   8.057  -6.101 +0.00 -0.01    +0.222 HD
DOCKED: ENDBRANCH  43  47
DOCKED: ENDBRANCH  42  43
DOCKED: ENDBRANCH   4  42
DOCKED: TORSDOF 24
DOCKED: TER
DOCKED: ENDMDL
________________________________________________________________________________


	BEGINNING GENETIC ALGORITHM DOCKING 85 of 100
Run: 85 Seed: 2142874605 204288759 [ Run 85 of 100 GA/GALS ]
Beginning LAMARCKIAN GENETIC ALGORITHM (LGA), with a maximum of 25000000 energy evaluations.

Final-Value: -18.423


	FINAL GENETIC ALGORITHM DOCKED STATE
	_______________________________________________


Detailed state:  trans -10.193 -7.673 -9.329 quatxyzw 0.416816 0.534501 0.669770 -0.303284 center 0.035 0.082 -0.065 ntor 24 -99.9855 12.3345 98.9545 112.5125 15.9928 -174.1649 -108.9126 108.5203 109.2236 -7.9377 17.6780 -132.5437 55.6549 105.3098 -49.8122 39.3733 -176.4288 -71.3121 30.1883 -2.6208 -176.5446 27.1392 16.0363 -161.0734
State:	-10.193  -7.673  -9.329   0.437  0.561  0.703 -144.690    -99.99   12.33   98.95  112.51   15.99 -174.16 -108.91  108.52  109.22   -7.94   17.68 -132.54   55.65  105.31  -49.81   39.37 -176.43  -71.31   30.19   -2.62 -176.54   27.14   16.04 -161.07

DOCKED: MODEL       85
DOCKED: USER    Run = 85
DOCKED: USER    DPF = D:/Protein_go_brrr/autodock/final/mut_N102T/IHP/dock.dpf
DOCKED: USER  
DOCKED: USER    Estimated Free Energy of Binding    =   +2.00 kcal/mol  [=(1)+(2)+(3)-(4)]
DOCKED: USER    
DOCKED: USER    (1) Final Intermolecular Energy     =   -5.16 kcal/mol
DOCKED: USER        vdW + Hbond + desolv Energy     =   -5.04 kcal/mol
DOCKED: USER        Electrostatic Energy            =   -0.13 kcal/mol
DOCKED: USER    (2) Final Total Internal Energy     =  -13.26 kcal/mol
DOCKED: USER    (3) Torsional Free Energy           =   +7.16 kcal/mol
DOCKED: USER    (4) Unbound System's Energy  [=(2)] =  -13.26 kcal/mol
DOCKED: USER    
DOCKED: USER    
DOCKED: USER    NEWDPF move IHP_ideal_opt.pdbqt
DOCKED: USER    NEWDPF about 0.035000 0.082000 -0.065000
DOCKED: USER    NEWDPF tran0 -10.193500 -7.673432 -9.329362
DOCKED: USER    NEWDPF quaternion0 0.416816 0.534501 0.669770 -0.303284
DOCKED: USER    NEWDPF axisangle0 0.437418 0.560920 0.702875 -144.690072
DOCKED: USER    NEWDPF quat0 0.437418 0.560920 0.702875 -144.690072
DOCKED: USER    NEWDPF dihe0 -99.99 12.33 98.95 112.51 15.99 -174.16 -108.91 108.52 109.22 -7.94 17.68 -132.54 55.65 105.31 -49.81 39.37 -176.43 -71.31 30.19 -2.62 -176.54 27.14 16.04 -161.07 
DOCKED: USER  keepresnum = 1 
DOCKED: USER  
DOCKED: REMARK  24 active torsions:
DOCKED: REMARK  status: ('A' for Active; 'I' for Inactive)
DOCKED: REMARK    1  A    between atoms: C_1  and  O_7 
DOCKED: REMARK    2  A    between atoms: C_2  and  O_12 
DOCKED: REMARK    3  A    between atoms: C_3  and  O_17 
DOCKED: REMARK    4  A    between atoms: C_4  and  O_22 
DOCKED: REMARK    5  A    between atoms: C_5  and  O_27 
DOCKED: REMARK    6  A    between atoms: C_6  and  O_32 
DOCKED: REMARK    7  A    between atoms: O_7  and  P_8 
DOCKED: REMARK    8  A    between atoms: P_8  and  O_10 
DOCKED: REMARK    9  A    between atoms: P_8  and  O_11 
DOCKED: REMARK   10  A    between atoms: O_12  and  P_13 
DOCKED: REMARK   11  A    between atoms: P_13  and  O_15 
DOCKED: REMARK   12  A    between atoms: P_13  and  O_16 
DOCKED: REMARK   13  A    between atoms: O_17  and  P_18 
DOCKED: REMARK   14  A    between atoms: P_18  and  O_20 
DOCKED: REMARK   15  A    between atoms: P_18  and  O_21 
DOCKED: REMARK   16  A    between atoms: O_22  and  P_23 
DOCKED: REMARK   17  A    between atoms: P_23  and  O_25 
DOCKED: REMARK   18  A    between atoms: P_23  and  O_26 
DOCKED: REMARK   19  A    between atoms: O_27  and  P_28 
DOCKED: REMARK   20  A    between atoms: P_28  and  O_30 
DOCKED: REMARK   21  A    between atoms: P_28  and  O_31 
DOCKED: REMARK   22  A    between atoms: O_32  and  P_33 
DOCKED: REMARK   23  A    between atoms: P_33  and  O_35 
DOCKED: REMARK   24  A    between atoms: P_33  and  O_36 
DOCKED: USER                              x       y       z     vdW  Elec       q    Type
DOCKED: USER                           _______ _______ _______ _____ _____    ______ ____
DOCKED: ROOT
DOCKED: ATOM      1  C   UNL d   1     -10.117  -6.022  -9.832 -0.12 +0.03    +0.194 C 
DOCKED: ATOM      2  C   UNL d   1      -9.890  -7.060 -10.933 -0.12 +0.05    +0.194 C 
DOCKED: ATOM      3  C   UNL d   1      -8.979  -8.196 -10.462 -0.15 +0.05    +0.194 C 
DOCKED: ATOM      4  C   UNL d   1      -9.441  -8.834  -9.154 -0.07 +0.04    +0.194 C 
DOCKED: ATOM      5  C   UNL d   1      -9.789  -7.830  -8.063 -0.07 +0.03    +0.194 C 
DOCKED: ATOM      6  C   UNL d   1     -10.649  -6.661  -8.548 -0.06 +0.02    +0.194 C 
DOCKED: ENDROOT
DOCKED: BRANCH   1   7
DOCKED: ATOM      7  O   UNL d   1     -11.106  -5.097 -10.289 -0.05 -0.04    -0.278 OA
DOCKED: BRANCH   7   8
DOCKED: ATOM      8  P   UNL d   1     -10.618  -3.770 -11.033 -0.09 +0.07    +0.473 P 
DOCKED: ATOM      9  O   UNL d   1     -10.859  -3.745 -12.501 -0.09 -0.04    -0.228 OA
DOCKED: BRANCH   8  10
DOCKED: ATOM     10  O   UNL d   1     -11.363  -2.593 -10.254 -0.06 -0.03    -0.303 OA
DOCKED: ATOM     11  H   UNL d   1     -10.738  -2.159  -9.643 +0.07 +0.03    +0.222 HD
DOCKED: ENDBRANCH   8  10
DOCKED: BRANCH   8  12
DOCKED: ATOM     12  O   UNL d   1      -9.110  -3.570 -10.574 -0.29 -0.05    -0.303 OA
DOCKED: ATOM     13  H   UNL d   1      -8.942  -3.881  -9.655 +0.09 +0.04    +0.222 HD
DOCKED: ENDBRANCH   8  12
DOCKED: ENDBRANCH   7   8
DOCKED: ENDBRANCH   1   7
DOCKED: BRANCH   2  14
DOCKED: ATOM     14  O   UNL d   1     -11.153  -7.617 -11.318 -0.03 -0.05    -0.278 OA
DOCKED: BRANCH  14  15
DOCKED: ATOM     15  P   UNL d   1     -11.484  -7.626 -12.885 -0.03 +0.11    +0.473 P 
DOCKED: ATOM     16  O   UNL d   1     -12.550  -8.572 -13.341 -0.01 -0.03    -0.228 OA
DOCKED: BRANCH  15  17
DOCKED: ATOM     17  O   UNL d   1     -11.823  -6.106 -13.218 -0.03 -0.06    -0.303 OA
DOCKED: ATOM     18  H   UNL d   1     -11.704  -5.539 -12.432 +0.03 +0.04    +0.222 HD
DOCKED: ENDBRANCH  15  17
DOCKED: BRANCH  15  19
DOCKED: ATOM     19  O   UNL d   1     -10.068  -7.799 -13.588 -0.08 -0.15    -0.303 OA
DOCKED: ATOM     20  H   UNL d   1      -9.581  -8.567 -13.236 +0.05 +0.10    +0.222 HD
DOCKED: ENDBRANCH  15  19
DOCKED: ENDBRANCH  14  15
DOCKED: ENDBRANCH   2  14
DOCKED: BRANCH   6  21
DOCKED: ATOM     21  O   UNL d   1     -10.599  -5.662  -7.532 -0.05 -0.03    -0.278 OA
DOCKED: BRANCH  21  22
DOCKED: ATOM     22  P   UNL d   1      -9.346  -4.677  -7.453 -0.15 +0.06    +0.473 P 
DOCKED: ATOM     23  O   UNL d   1      -8.082  -5.087  -8.130 -0.33 -0.02    -0.228 OA
DOCKED: BRANCH  22  24
DOCKED: ATOM     24  O   UNL d   1      -9.973  -3.311  -7.979 -0.14 -0.06    -0.303 OA
DOCKED: ATOM     25  H   UNL d   1     -10.445  -3.497  -8.830 +0.07 +0.03    +0.222 HD
DOCKED: ENDBRANCH  22  24
DOCKED: BRANCH  22  26
DOCKED: ATOM     26  O   UNL d   1      -9.244  -4.407  -5.875 -0.05 -0.05    -0.303 OA
DOCKED: ATOM     27  H   UNL d   1      -9.822  -5.041  -5.403 +0.08 +0.03    +0.222 HD
DOCKED: ENDBRANCH  22  26
DOCKED: ENDBRANCH  21  22
DOCKED: ENDBRANCH   6  21
DOCKED: BRANCH   3  28
DOCKED: ATOM     28  O   UNL d   1      -9.050  -9.232 -11.433 -0.10 -0.08    -0.278 OA
DOCKED: BRANCH  28  29
DOCKED: ATOM     29  P   UNL d   1      -7.730  -9.997 -11.890 -0.24 +0.17    +0.473 P 
DOCKED: ATOM     30  O   UNL d   1      -6.535  -9.780 -11.036 -0.89 -0.11    -0.228 OA
DOCKED: BRANCH  29  31
DOCKED: ATOM     31  O   UNL d   1      -8.293 -11.492 -11.985 -0.21 -0.09    -0.303 OA
DOCKED: ATOM     32  H   UNL d   1      -8.668 -11.742 -11.109 +0.07 +0.06    +0.222 HD
DOCKED: ENDBRANCH  29  31
DOCKED: BRANCH  29  33
DOCKED: ATOM     33  O   UNL d   1      -7.609  -9.569 -13.419 -0.28 -0.13    -0.303 OA
DOCKED: ATOM     34  H   UNL d   1      -6.715  -9.826 -13.755 -0.49 +0.01    +0.222 HD
DOCKED: ENDBRANCH  29  33
DOCKED: ENDBRANCH  28  29
DOCKED: ENDBRANCH   3  28
DOCKED: BRANCH   5  35
DOCKED: ATOM     35  O   UNL d   1     -10.563  -8.551  -7.106 -0.02 -0.04    -0.278 OA
DOCKED: BRANCH  35  36
DOCKED: ATOM     36  P   UNL d   1     -10.463  -8.191  -5.555 -0.04 +0.06    +0.473 P 
DOCKED: ATOM     37  O   UNL d   1     -10.278  -9.355  -4.634 -0.35 -0.05    -0.228 OA
DOCKED: BRANCH  36  38
DOCKED: ATOM     38  O   UNL d   1      -9.262  -7.146  -5.540 +0.01 -0.05    -0.303 OA
DOCKED: ATOM     39  H   UNL d   1      -9.333  -6.564  -6.327 +0.08 +0.03    +0.222 HD
DOCKED: ENDBRANCH  36  38
DOCKED: BRANCH  36  40
DOCKED: ATOM     40  O   UNL d   1     -11.756  -7.292  -5.331 -0.01 -0.03    -0.303 OA
DOCKED: ATOM     41  H   UNL d   1     -11.827  -6.582  -6.006 +0.03 +0.02    +0.222 HD
DOCKED: ENDBRANCH  36  40
DOCKED: ENDBRANCH  35  36
DOCKED: ENDBRANCH   5  35
DOCKED: BRANCH   4  42
DOCKED: ATOM     42  O   UNL d   1      -8.348  -9.621  -8.669 -0.07 -0.06    -0.278 OA
DOCKED: BRANCH  42  43
DOCKED: ATOM     43  P   UNL d   1      -7.251  -8.928  -7.742 -0.20 +0.10    +0.473 P 
DOCKED: ATOM     44  O   UNL d   1      -7.060  -7.458  -7.885 -0.33 -0.03    -0.228 OA
DOCKED: BRANCH  43  45
DOCKED: ATOM     45  O   UNL d   1      -7.685  -9.389  -6.282 -0.18 -0.08    -0.303 OA
DOCKED: ATOM     46  H   UNL d   1      -8.615  -9.150  -6.093 +0.07 +0.05    +0.222 HD
DOCKED: ENDBRANCH  43  45
DOCKED: BRANCH  43  47
DOCKED: ATOM     47  O   UNL d   1      -5.944  -9.823  -7.990 -0.32 -0.09    -0.303 OA
DOCKED: ATOM     48  H   UNL d   1      -5.833  -9.971  -8.952 +0.11 +0.08    +0.222 HD
DOCKED: ENDBRANCH  43  47
DOCKED: ENDBRANCH  42  43
DOCKED: ENDBRANCH   4  42
DOCKED: TORSDOF 24
DOCKED: TER
DOCKED: ENDMDL
________________________________________________________________________________


	BEGINNING GENETIC ALGORITHM DOCKING 86 of 100
Run: 86 Seed: 1106219186 1353649312 [ Run 86 of 100 GA/GALS ]
Beginning LAMARCKIAN GENETIC ALGORITHM (LGA), with a maximum of 25000000 energy evaluations.

Final-Value: -19.019


	FINAL GENETIC ALGORITHM DOCKED STATE
	_______________________________________________


Detailed state:  trans 0.535 -16.626 -15.428 quatxyzw 0.226620 -0.009237 -0.606970 0.761673 center 0.035 0.082 -0.065 ntor 24 80.5705 35.7028 -169.2094 31.2606 176.3720 70.4536 34.7366 -75.5875 35.8610 78.6593 161.6731 131.9570 -173.7595 161.6316 -112.7568 91.2576 -16.5272 105.9417 -19.3305 -12.7698 141.8823 -17.2975 157.4577 -39.6889
State:	  0.535 -16.626 -15.428   0.350 -0.014 -0.937 80.776     80.57   35.70 -169.21   31.26  176.37   70.45   34.74  -75.59   35.86   78.66  161.67  131.96 -173.76  161.63 -112.76   91.26  -16.53  105.94  -19.33  -12.77  141.88  -17.30  157.46  -39.69

DOCKED: MODEL       86
DOCKED: USER    Run = 86
DOCKED: USER    DPF = D:/Protein_go_brrr/autodock/final/mut_N102T/IHP/dock.dpf
DOCKED: USER  
DOCKED: USER    Estimated Free Energy of Binding    =   +1.06 kcal/mol  [=(1)+(2)+(3)-(4)]
DOCKED: USER    
DOCKED: USER    (1) Final Intermolecular Energy     =   -6.10 kcal/mol
DOCKED: USER        vdW + Hbond + desolv Energy     =   -5.45 kcal/mol
DOCKED: USER        Electrostatic Energy            =   -0.65 kcal/mol
DOCKED: USER    (2) Final Total Internal Energy     =  -12.92 kcal/mol
DOCKED: USER    (3) Torsional Free Energy           =   +7.16 kcal/mol
DOCKED: USER    (4) Unbound System's Energy  [=(2)] =  -12.92 kcal/mol
DOCKED: USER    
DOCKED: USER    
DOCKED: USER    NEWDPF move IHP_ideal_opt.pdbqt
DOCKED: USER    NEWDPF about 0.035000 0.082000 -0.065000
DOCKED: USER    NEWDPF tran0 0.535102 -16.625770 -15.428421
DOCKED: USER    NEWDPF quaternion0 0.226620 -0.009237 -0.606970 0.761673
DOCKED: USER    NEWDPF axisangle0 0.349742 -0.014256 -0.936738 80.776263
DOCKED: USER    NEWDPF quat0 0.349742 -0.014256 -0.936738 80.776263
DOCKED: USER    NEWDPF dihe0 80.57 35.70 -169.21 31.26 176.37 70.45 34.74 -75.59 35.86 78.66 161.67 131.96 -173.76 161.63 -112.76 91.26 -16.53 105.94 -19.33 -12.77 141.88 -17.30 157.46 -39.69 
DOCKED: USER  keepresnum = 1 
DOCKED: USER  
DOCKED: REMARK  24 active torsions:
DOCKED: REMARK  status: ('A' for Active; 'I' for Inactive)
DOCKED: REMARK    1  A    between atoms: C_1  and  O_7 
DOCKED: REMARK    2  A    between atoms: C_2  and  O_12 
DOCKED: REMARK    3  A    between atoms: C_3  and  O_17 
DOCKED: REMARK    4  A    between atoms: C_4  and  O_22 
DOCKED: REMARK    5  A    between atoms: C_5  and  O_27 
DOCKED: REMARK    6  A    between atoms: C_6  and  O_32 
DOCKED: REMARK    7  A    between atoms: O_7  and  P_8 
DOCKED: REMARK    8  A    between atoms: P_8  and  O_10 
DOCKED: REMARK    9  A    between atoms: P_8  and  O_11 
DOCKED: REMARK   10  A    between atoms: O_12  and  P_13 
DOCKED: REMARK   11  A    between atoms: P_13  and  O_15 
DOCKED: REMARK   12  A    between atoms: P_13  and  O_16 
DOCKED: REMARK   13  A    between atoms: O_17  and  P_18 
DOCKED: REMARK   14  A    between atoms: P_18  and  O_20 
DOCKED: REMARK   15  A    between atoms: P_18  and  O_21 
DOCKED: REMARK   16  A    between atoms: O_22  and  P_23 
DOCKED: REMARK   17  A    between atoms: P_23  and  O_25 
DOCKED: REMARK   18  A    between atoms: P_23  and  O_26 
DOCKED: REMARK   19  A    between atoms: O_27  and  P_28 
DOCKED: REMARK   20  A    between atoms: P_28  and  O_30 
DOCKED: REMARK   21  A    between atoms: P_28  and  O_31 
DOCKED: REMARK   22  A    between atoms: O_32  and  P_33 
DOCKED: REMARK   23  A    between atoms: P_33  and  O_35 
DOCKED: REMARK   24  A    between atoms: P_33  and  O_36 
DOCKED: USER                              x       y       z     vdW  Elec       q    Type
DOCKED: USER                           _______ _______ _______ _____ _____    ______ ____
DOCKED: ROOT
DOCKED: ATOM      1  C   UNL d   1       1.483 -15.333 -14.785 -0.11 +0.01    +0.194 C 
DOCKED: ATOM      2  C   UNL d   1       1.998 -16.742 -14.486 -0.03 -0.02    +0.194 C 
DOCKED: ATOM      3  C   UNL d   1       0.862 -17.688 -14.089 -0.13 -0.01    +0.194 C 
DOCKED: ATOM      4  C   UNL d   1      -0.292 -17.695 -15.087 -0.08 -0.00    +0.194 C 
DOCKED: ATOM      5  C   UNL d   1      -0.763 -16.306 -15.502 -0.10 +0.00    +0.194 C 
DOCKED: ATOM      6  C   UNL d   1       0.376 -15.342 -15.840 -0.06 +0.01    +0.194 C 
DOCKED: ENDROOT
DOCKED: BRANCH   1   7
DOCKED: ATOM      7  O   UNL d   1       2.567 -14.564 -15.311 -0.10 -0.06    -0.278 OA
DOCKED: BRANCH   7   8
DOCKED: ATOM      8  P   UNL d   1       2.690 -13.031 -14.880 -0.13 +0.32    +0.473 P 
DOCKED: ATOM      9  O   UNL d   1       2.680 -12.057 -16.005 -0.54 -0.28    -0.228 OA
DOCKED: BRANCH   8  10
DOCKED: ATOM     10  O   UNL d   1       1.485 -12.819 -13.855 -0.26 -0.07    -0.303 OA
DOCKED: ATOM     11  H   UNL d   1       0.648 -12.736 -14.348 +0.14 +0.03    +0.222 HD
DOCKED: ENDBRANCH   8  10
DOCKED: BRANCH   8  12
DOCKED: ATOM     12  O   UNL d   1       3.956 -12.971 -13.922 -0.57 -0.22    -0.303 OA
DOCKED: ATOM     13  H   UNL d   1       4.295 -13.861 -13.676 +0.08 -0.01    +0.222 HD
DOCKED: ENDBRANCH   8  12
DOCKED: ENDBRANCH   7   8
DOCKED: ENDBRANCH   1   7
DOCKED: BRANCH   2  14
DOCKED: ATOM     14  O   UNL d   1       2.637 -17.264 -15.658 -0.04 +0.03    -0.278 OA
DOCKED: BRANCH  14  15
DOCKED: ATOM     15  P   UNL d   1       4.190 -17.629 -15.523 -0.04 -0.13    +0.473 P 
DOCKED: ATOM     16  O   UNL d   1       5.053 -17.345 -16.713 -0.01 +0.02    -0.228 OA
DOCKED: BRANCH  15  17
DOCKED: ATOM     17  O   UNL d   1       4.661 -16.846 -14.218 +0.13 +0.31    -0.303 OA
DOCKED: ATOM     18  H   UNL d   1       4.625 -17.422 -13.430 -0.43 -0.48    +0.222 HD
DOCKED: ENDBRANCH  15  17
DOCKED: BRANCH  15  19
DOCKED: ATOM     19  O   UNL d   1       4.200 -19.136 -15.013 -0.03 +0.09    -0.303 OA
DOCKED: ATOM     20  H   UNL d   1       3.403 -19.345 -14.492 +0.03 -0.06    +0.222 HD
DOCKED: ENDBRANCH  15  19
DOCKED: ENDBRANCH  14  15
DOCKED: ENDBRANCH   2  14
DOCKED: BRANCH   6  21
DOCKED: ATOM     21  O   UNL d   1      -0.187 -14.032 -15.866 -0.09 -0.02    -0.278 OA
DOCKED: BRANCH  21  22
DOCKED: ATOM     22  P   UNL d   1      -1.281 -13.619 -14.782 -0.25 +0.01    +0.473 P 
DOCKED: ATOM     23  O   UNL d   1      -2.699 -14.013 -15.026 -0.52 -0.04    -0.228 OA
DOCKED: BRANCH  22  24
DOCKED: ATOM     24  O   UNL d   1      -0.648 -14.200 -13.442 -0.29 +0.01    -0.303 OA
DOCKED: ATOM     25  H   UNL d   1      -0.360 -13.436 -12.881 -0.13 -0.03    +0.222 HD
DOCKED: ENDBRANCH  22  24
DOCKED: BRANCH  22  26
DOCKED: ATOM     26  O   UNL d   1      -1.005 -12.047 -14.624 -0.90 -0.04    -0.303 OA
DOCKED: ATOM     27  H   UNL d   1      -0.523 -11.888 -13.787 -0.28 -0.02    +0.222 HD
DOCKED: ENDBRANCH  22  26
DOCKED: ENDBRANCH  21  22
DOCKED: ENDBRANCH   6  21
DOCKED: BRANCH   3  28
DOCKED: ATOM     28  O   UNL d   1       1.382 -19.011 -14.104 -0.07 +0.03    -0.278 OA
DOCKED: BRANCH  28  29
DOCKED: ATOM     29  P   UNL d   1       1.962 -19.663 -12.771 -0.09 -0.09    +0.473 P 
DOCKED: ATOM     30  O   UNL d   1       0.973 -19.892 -11.687 -0.10 +0.02    -0.228 OA
DOCKED: BRANCH  29  31
DOCKED: ATOM     31  O   UNL d   1       2.682 -20.955 -13.383 -0.01 +0.04    -0.303 OA
DOCKED: ATOM     32  H   UNL d   1       3.593 -20.705 -13.661 +0.02 -0.05    +0.222 HD
DOCKED: ENDBRANCH  29  31
DOCKED: BRANCH  29  33
DOCKED: ATOM     33  O   UNL d   1       3.188 -18.703 -12.436 -0.13 +0.20    -0.303 OA
DOCKED: ATOM     34  H   UNL d   1       3.409 -18.173 -13.241 -0.13 -0.17    +0.222 HD
DOCKED: ENDBRANCH  29  33
DOCKED: ENDBRANCH  28  29
DOCKED: ENDBRANCH   3  28
DOCKED: BRANCH   5  35
DOCKED: ATOM     35  O   UNL d   1      -1.521 -16.494 -16.694 -0.04 -0.01    -0.278 OA
DOCKED: BRANCH  35  36
DOCKED: ATOM     36  P   UNL d   1      -0.791 -16.866 -18.063 +0.01 +0.01    +0.473 P 
DOCKED: ATOM     37  O   UNL d   1       0.500 -17.609 -17.923 -0.00 -0.00    -0.228 OA
DOCKED: BRANCH  36  38
DOCKED: ATOM     38  O   UNL d   1      -1.929 -17.671 -18.832 -0.00 -0.00    -0.303 OA
DOCKED: ATOM     39  H   UNL d   1      -2.462 -18.176 -18.181 +0.01 +0.00    +0.222 HD
DOCKED: ENDBRANCH  36  38
DOCKED: BRANCH  36  40
DOCKED: ATOM     40  O   UNL d   1      -0.739 -15.464 -18.812 -0.01 -0.00    -0.303 OA
DOCKED: ATOM     41  H   UNL d   1      -0.577 -14.723 -18.187 +0.05 +0.00    +0.222 HD
DOCKED: ENDBRANCH  36  40
DOCKED: ENDBRANCH  35  36
DOCKED: ENDBRANCH   5  35
DOCKED: BRANCH   4  42
DOCKED: ATOM     42  O   UNL d   1      -1.396 -18.337 -14.441 -0.07 +0.01    -0.278 OA
DOCKED: BRANCH  42  43
DOCKED: ATOM     43  P   UNL d   1      -2.459 -19.126 -15.331 -0.06 +0.00    +0.473 P 
DOCKED: ATOM     44  O   UNL d   1      -3.173 -20.269 -14.697 -0.05 -0.01    -0.228 OA
DOCKED: BRANCH  43  45
DOCKED: ATOM     45  O   UNL d   1      -3.417 -17.963 -15.843 -0.09 -0.01    -0.303 OA
DOCKED: ATOM     46  H   UNL d   1      -3.091 -17.573 -16.679 +0.03 +0.01    +0.222 HD
DOCKED: ENDBRANCH  43  45
DOCKED: BRANCH  43  47
DOCKED: ATOM     47  O   UNL d   1      -1.634 -19.478 -16.660 -0.01 -0.00    -0.303 OA
DOCKED: ATOM     48  H   UNL d   1      -1.187 -18.669 -16.986 +0.02 +0.00    +0.222 HD
DOCKED: ENDBRANCH  43  47
DOCKED: ENDBRANCH  42  43
DOCKED: ENDBRANCH   4  42
DOCKED: TORSDOF 24
DOCKED: TER
DOCKED: ENDMDL
________________________________________________________________________________


	BEGINNING GENETIC ALGORITHM DOCKING 87 of 100
Run: 87 Seed: 1043670363 12912957 [ Run 87 of 100 GA/GALS ]
Beginning LAMARCKIAN GENETIC ALGORITHM (LGA), with a maximum of 25000000 energy evaluations.

Final-Value: -18.248


	FINAL GENETIC ALGORITHM DOCKED STATE
	_______________________________________________


Detailed state:  trans -7.347 9.750 -19.275 quatxyzw 0.300518 0.845288 0.434685 0.078910 center 0.035 0.082 -0.065 ntor 24 136.4217 91.9594 155.3287 5.3978 141.5517 98.3890 -134.4475 -0.3487 -141.1108 136.4938 67.1290 -154.3454 -82.1823 -176.0285 112.4496 2.7221 4.4391 -47.8703 47.4272 5.7826 -50.1870 -11.3187 -43.4300 169.1062
State:	 -7.347   9.750 -19.275   0.301  0.848  0.436 170.948    136.42   91.96  155.33    5.40  141.55   98.39 -134.45   -0.35 -141.11  136.49   67.13 -154.35  -82.18 -176.03  112.45    2.72    4.44  -47.87   47.43    5.78  -50.19  -11.32  -43.43  169.11

DOCKED: MODEL       87
DOCKED: USER    Run = 87
DOCKED: USER    DPF = D:/Protein_go_brrr/autodock/final/mut_N102T/IHP/dock.dpf
DOCKED: USER  
DOCKED: USER    Estimated Free Energy of Binding    =   +2.42 kcal/mol  [=(1)+(2)+(3)-(4)]
DOCKED: USER    
DOCKED: USER    (1) Final Intermolecular Energy     =   -4.74 kcal/mol
DOCKED: USER        vdW + Hbond + desolv Energy     =   -4.59 kcal/mol
DOCKED: USER        Electrostatic Energy            =   -0.15 kcal/mol
DOCKED: USER    (2) Final Total Internal Energy     =  -13.51 kcal/mol
DOCKED: USER    (3) Torsional Free Energy           =   +7.16 kcal/mol
DOCKED: USER    (4) Unbound System's Energy  [=(2)] =  -13.51 kcal/mol
DOCKED: USER    
DOCKED: USER    
DOCKED: USER    NEWDPF move IHP_ideal_opt.pdbqt
DOCKED: USER    NEWDPF about 0.035000 0.082000 -0.065000
DOCKED: USER    NEWDPF tran0 -7.347404 9.749916 -19.275331
DOCKED: USER    NEWDPF quaternion0 0.300518 0.845288 0.434685 0.078910
DOCKED: USER    NEWDPF axisangle0 0.301458 0.847932 0.436044 170.948167
DOCKED: USER    NEWDPF quat0 0.301458 0.847932 0.436044 170.948167
DOCKED: USER    NEWDPF dihe0 136.42 91.96 155.33 5.40 141.55 98.39 -134.45 -0.35 -141.11 136.49 67.13 -154.35 -82.18 -176.03 112.45 2.72 4.44 -47.87 47.43 5.78 -50.19 -11.32 -43.43 169.11 
DOCKED: USER  keepresnum = 1 
DOCKED: USER  
DOCKED: REMARK  24 active torsions:
DOCKED: REMARK  status: ('A' for Active; 'I' for Inactive)
DOCKED: REMARK    1  A    between atoms: C_1  and  O_7 
DOCKED: REMARK    2  A    between atoms: C_2  and  O_12 
DOCKED: REMARK    3  A    between atoms: C_3  and  O_17 
DOCKED: REMARK    4  A    between atoms: C_4  and  O_22 
DOCKED: REMARK    5  A    between atoms: C_5  and  O_27 
DOCKED: REMARK    6  A    between atoms: C_6  and  O_32 
DOCKED: REMARK    7  A    between atoms: O_7  and  P_8 
DOCKED: REMARK    8  A    between atoms: P_8  and  O_10 
DOCKED: REMARK    9  A    between atoms: P_8  and  O_11 
DOCKED: REMARK   10  A    between atoms: O_12  and  P_13 
DOCKED: REMARK   11  A    between atoms: P_13  and  O_15 
DOCKED: REMARK   12  A    between atoms: P_13  and  O_16 
DOCKED: REMARK   13  A    between atoms: O_17  and  P_18 
DOCKED: REMARK   14  A    between atoms: P_18  and  O_20 
DOCKED: REMARK   15  A    between atoms: P_18  and  O_21 
DOCKED: REMARK   16  A    between atoms: O_22  and  P_23 
DOCKED: REMARK   17  A    between atoms: P_23  and  O_25 
DOCKED: REMARK   18  A    between atoms: P_23  and  O_26 
DOCKED: REMARK   19  A    between atoms: O_27  and  P_28 
DOCKED: REMARK   20  A    between atoms: P_28  and  O_30 
DOCKED: REMARK   21  A    between atoms: P_28  and  O_31 
DOCKED: REMARK   22  A    between atoms: O_32  and  P_33 
DOCKED: REMARK   23  A    between atoms: P_33  and  O_35 
DOCKED: REMARK   24  A    between atoms: P_33  and  O_36 
DOCKED: USER                              x       y       z     vdW  Elec       q    Type
DOCKED: USER                           _______ _______ _______ _____ _____    ______ ____
DOCKED: ROOT
DOCKED: ATOM      1  C   UNL d   1      -8.769  10.527 -19.873 -0.07 +0.02    +0.194 C 
DOCKED: ATOM      2  C   UNL d   1      -8.273   9.335 -20.694 -0.10 +0.02    +0.194 C 
DOCKED: ATOM      3  C   UNL d   1      -6.753   9.358 -20.864 -0.15 +0.02    +0.194 C 
DOCKED: ATOM      4  C   UNL d   1      -6.002   9.502 -19.542 -0.17 +0.03    +0.194 C 
DOCKED: ATOM      5  C   UNL d   1      -6.538  10.607 -18.641 -0.18 +0.02    +0.194 C 
DOCKED: ATOM      6  C   UNL d   1      -8.064  10.622 -18.520 -0.10 +0.02    +0.194 C 
DOCKED: ENDROOT
DOCKED: BRANCH   1   7
DOCKED: ATOM      7  O   UNL d   1     -10.163  10.342 -19.615 -0.04 -0.02    -0.278 OA
DOCKED: BRANCH   7   8
DOCKED: ATOM      8  P   UNL d   1     -11.196  10.595 -20.807 -0.01 +0.02    +0.473 P 
DOCKED: ATOM      9  O   UNL d   1     -10.777  11.623 -21.798 -0.00 -0.01    -0.228 OA
DOCKED: BRANCH   8  10
DOCKED: ATOM     10  O   UNL d   1     -11.406   9.151 -21.451 -0.01 -0.01    -0.303 OA
DOCKED: ATOM     11  H   UNL d   1     -10.651   8.578 -21.221 +0.03 +0.01    +0.222 HD
DOCKED: ENDBRANCH   8  10
DOCKED: BRANCH   8  12
DOCKED: ATOM     12  O   UNL d   1     -12.594  10.847 -20.094 -0.00 -0.01    -0.303 OA
DOCKED: ATOM     13  H   UNL d   1     -12.535  11.479 -19.343 +0.01 +0.01    +0.222 HD
DOCKED: ENDBRANCH   8  12
DOCKED: ENDBRANCH   7   8
DOCKED: ENDBRANCH   1   7
DOCKED: BRANCH   2  14
DOCKED: ATOM     14  O   UNL d   1      -8.639   8.123 -20.024 -0.06 -0.05    -0.278 OA
DOCKED: BRANCH  14  15
DOCKED: ATOM     15  P   UNL d   1      -9.208   6.941 -20.943 -0.12 +0.06    +0.473 P 
DOCKED: ATOM     16  O   UNL d   1     -10.589   6.455 -20.635 -0.11 -0.02    -0.228 OA
DOCKED: BRANCH  15  17
DOCKED: ATOM     17  O   UNL d   1      -9.067   7.502 -22.427 -0.04 -0.02    -0.303 OA
DOCKED: ATOM     18  H   UNL d   1      -8.136   7.709 -22.638 +0.04 +0.02    +0.222 HD
DOCKED: ENDBRANCH  15  17
DOCKED: BRANCH  15  19
DOCKED: ATOM     19  O   UNL d   1      -8.068   5.831 -20.912 -0.22 -0.06    -0.303 OA
DOCKED: ATOM     20  H   UNL d   1      -7.203   6.195 -21.179 +0.06 +0.04    +0.222 HD
DOCKED: ENDBRANCH  15  19
DOCKED: ENDBRANCH  14  15
DOCKED: ENDBRANCH   2  14
DOCKED: BRANCH   6  21
DOCKED: ATOM     21  O   UNL d   1      -8.420  11.879 -17.949 -0.03 -0.02    -0.278 OA
DOCKED: BRANCH  21  22
DOCKED: ATOM     22  P   UNL d   1      -9.761  12.009 -17.095 -0.02 +0.02    +0.473 P 
DOCKED: ATOM     23  O   UNL d   1      -9.748  12.892 -15.893 -0.01 -0.01    -0.228 OA
DOCKED: BRANCH  22  24
DOCKED: ATOM     24  O   UNL d   1     -10.819  12.417 -18.211 -0.01 -0.01    -0.303 OA
DOCKED: ATOM     25  H   UNL d   1     -11.035  11.608 -18.742 +0.01 +0.01    +0.222 HD
DOCKED: ENDBRANCH  22  24
DOCKED: BRANCH  22  26
DOCKED: ATOM     26  O   UNL d   1     -10.131  10.471 -16.834 -0.06 -0.01    -0.303 OA
DOCKED: ATOM     27  H   UNL d   1     -10.502  10.086 -17.653 +0.03 +0.01    +0.222 HD
DOCKED: ENDBRANCH  22  26
DOCKED: ENDBRANCH  21  22
DOCKED: ENDBRANCH   6  21
DOCKED: BRANCH   3  28
DOCKED: ATOM     28  O   UNL d   1      -6.361   8.094 -21.385 -0.15 -0.04    -0.278 OA
DOCKED: BRANCH  28  29
DOCKED: ATOM     29  P   UNL d   1      -6.075   7.920 -22.942 -0.05 +0.04    +0.473 P 
DOCKED: ATOM     30  O   UNL d   1      -6.732   8.914 -23.829 -0.02 -0.01    -0.228 OA
DOCKED: BRANCH  29  31
DOCKED: ATOM     31  O   UNL d   1      -4.475   7.901 -22.931 -0.07 -0.03    -0.303 OA
DOCKED: ATOM     32  H   UNL d   1      -4.150   8.830 -22.915 +0.04 +0.02    +0.222 HD
DOCKED: ENDBRANCH  29  31
DOCKED: BRANCH  29  33
DOCKED: ATOM     33  O   UNL d   1      -6.443   6.389 -23.179 -0.06 -0.03    -0.303 OA
DOCKED: ATOM     34  H   UNL d   1      -7.386   6.241 -22.919 +0.05 +0.02    +0.222 HD
DOCKED: ENDBRANCH  29  33
DOCKED: ENDBRANCH  28  29
DOCKED: ENDBRANCH   3  28
DOCKED: BRANCH   5  35
DOCKED: ATOM     35  O   UNL d   1      -6.017  10.334 -17.342 -0.23 -0.01    -0.278 OA
DOCKED: BRANCH  35  36
DOCKED: ATOM     36  P   UNL d   1      -4.585  10.892 -16.916 -0.33 -0.05    +0.473 P 
DOCKED: ATOM     37  O   UNL d   1      -4.351  12.344 -17.190 -0.26 -0.01    -0.228 OA
DOCKED: BRANCH  36  38
DOCKED: ATOM     38  O   UNL d   1      -4.527  10.499 -15.374 -0.28 +0.11    -0.303 OA
DOCKED: ATOM     39  H   UNL d   1      -3.595  10.323 -15.122 -0.36 -0.15    +0.222 HD
DOCKED: ENDBRANCH  36  38
DOCKED: BRANCH  36  40
DOCKED: ATOM     40  O   UNL d   1      -3.596   9.858 -17.611 -0.28 +0.07    -0.303 OA
DOCKED: ATOM     41  H   UNL d   1      -3.290  10.180 -18.488 -0.37 -0.10    +0.222 HD
DOCKED: ENDBRANCH  36  40
DOCKED: ENDBRANCH  35  36
DOCKED: ENDBRANCH   5  35
DOCKED: BRANCH   4  42
DOCKED: ATOM     42  O   UNL d   1      -4.650   9.844 -19.868 -0.13 -0.02    -0.278 OA
DOCKED: BRANCH  42  43
DOCKED: ATOM     43  P   UNL d   1      -4.373  11.158 -20.729 -0.12 +0.03    +0.473 P 
DOCKED: ATOM     44  O   UNL d   1      -5.555  11.938 -21.191 -0.05 -0.03    -0.228 OA
DOCKED: BRANCH  43  45
DOCKED: ATOM     45  O   UNL d   1      -3.374  11.979 -19.802 -0.14 -0.03    -0.303 OA
DOCKED: ATOM     46  H   UNL d   1      -3.256  11.546 -18.932 -0.41 -0.02    +0.222 HD
DOCKED: ENDBRANCH  43  45
DOCKED: BRANCH  43  47
DOCKED: ATOM     47  O   UNL d   1      -3.393  10.639 -21.886 -0.10 -0.02    -0.303 OA
DOCKED: ATOM     48  H   UNL d   1      -3.529   9.677 -22.017 +0.06 +0.01    +0.222 HD
DOCKED: ENDBRANCH  43  47
DOCKED: ENDBRANCH  42  43
DOCKED: ENDBRANCH   4  42
DOCKED: TORSDOF 24
DOCKED: TER
DOCKED: ENDMDL
________________________________________________________________________________


	BEGINNING GENETIC ALGORITHM DOCKING 88 of 100
Run: 88 Seed: 211619177 1134442003 [ Run 88 of 100 GA/GALS ]
Beginning LAMARCKIAN GENETIC ALGORITHM (LGA), with a maximum of 25000000 energy evaluations.

Final-Value: -17.327


	FINAL GENETIC ALGORITHM DOCKED STATE
	_______________________________________________


Detailed state:  trans -2.986 16.638 -9.551 quatxyzw -0.525650 -0.678493 0.435144 -0.272009 center 0.035 0.082 -0.065 ntor 24 -153.1479 -49.6223 16.5209 57.8448 111.4267 102.3335 -144.8675 -16.7123 -0.2431 88.0903 142.1770 -118.3439 79.8781 -171.8968 180.0000 66.1176 -53.8836 -10.9670 -33.3081 -45.0516 7.9873 -37.8836 170.6712 150.1446
State:	 -2.986  16.638  -9.551  -0.546 -0.705  0.452 -148.432   -153.15  -49.62   16.52   57.84  111.43  102.33 -144.87  -16.71   -0.24   88.09  142.18 -118.34   79.88 -171.90  180.00   66.12  -53.88  -10.97  -33.31  -45.05    7.99  -37.88  170.67  150.14

DOCKED: MODEL       88
DOCKED: USER    Run = 88
DOCKED: USER    DPF = D:/Protein_go_brrr/autodock/final/mut_N102T/IHP/dock.dpf
DOCKED: USER  
DOCKED: USER    Estimated Free Energy of Binding    =   +2.57 kcal/mol  [=(1)+(2)+(3)-(4)]
DOCKED: USER    
DOCKED: USER    (1) Final Intermolecular Energy     =   -4.59 kcal/mol
DOCKED: USER        vdW + Hbond + desolv Energy     =   -4.38 kcal/mol
DOCKED: USER        Electrostatic Energy            =   -0.21 kcal/mol
DOCKED: USER    (2) Final Total Internal Energy     =  -12.73 kcal/mol
DOCKED: USER    (3) Torsional Free Energy           =   +7.16 kcal/mol
DOCKED: USER    (4) Unbound System's Energy  [=(2)] =  -12.73 kcal/mol
DOCKED: USER    
DOCKED: USER    
DOCKED: USER    NEWDPF move IHP_ideal_opt.pdbqt
DOCKED: USER    NEWDPF about 0.035000 0.082000 -0.065000
DOCKED: USER    NEWDPF tran0 -2.986031 16.638476 -9.550580
DOCKED: USER    NEWDPF quaternion0 -0.525650 -0.678493 0.435144 -0.272009
DOCKED: USER    NEWDPF axisangle0 -0.546246 -0.705079 0.452194 -148.432283
DOCKED: USER    NEWDPF quat0 -0.546246 -0.705079 0.452194 -148.432283
DOCKED: USER    NEWDPF dihe0 -153.15 -49.62 16.52 57.84 111.43 102.33 -144.87 -16.71 -0.24 88.09 142.18 -118.34 79.88 -171.90 180.00 66.12 -53.88 -10.97 -33.31 -45.05 7.99 -37.88 170.67 150.14 
DOCKED: USER  keepresnum = 1 
DOCKED: USER  
DOCKED: REMARK  24 active torsions:
DOCKED: REMARK  status: ('A' for Active; 'I' for Inactive)
DOCKED: REMARK    1  A    between atoms: C_1  and  O_7 
DOCKED: REMARK    2  A    between atoms: C_2  and  O_12 
DOCKED: REMARK    3  A    between atoms: C_3  and  O_17 
DOCKED: REMARK    4  A    between atoms: C_4  and  O_22 
DOCKED: REMARK    5  A    between atoms: C_5  and  O_27 
DOCKED: REMARK    6  A    between atoms: C_6  and  O_32 
DOCKED: REMARK    7  A    between atoms: O_7  and  P_8 
DOCKED: REMARK    8  A    between atoms: P_8  and  O_10 
DOCKED: REMARK    9  A    between atoms: P_8  and  O_11 
DOCKED: REMARK   10  A    between atoms: O_12  and  P_13 
DOCKED: REMARK   11  A    between atoms: P_13  and  O_15 
DOCKED: REMARK   12  A    between atoms: P_13  and  O_16 
DOCKED: REMARK   13  A    between atoms: O_17  and  P_18 
DOCKED: REMARK   14  A    between atoms: P_18  and  O_20 
DOCKED: REMARK   15  A    between atoms: P_18  and  O_21 
DOCKED: REMARK   16  A    between atoms: O_22  and  P_23 
DOCKED: REMARK   17  A    between atoms: P_23  and  O_25 
DOCKED: REMARK   18  A    between atoms: P_23  and  O_26 
DOCKED: REMARK   19  A    between atoms: O_27  and  P_28 
DOCKED: REMARK   20  A    between atoms: P_28  and  O_30 
DOCKED: REMARK   21  A    between atoms: P_28  and  O_31 
DOCKED: REMARK   22  A    between atoms: O_32  and  P_33 
DOCKED: REMARK   23  A    between atoms: P_33  and  O_35 
DOCKED: REMARK   24  A    between atoms: P_33  and  O_36 
DOCKED: USER                              x       y       z     vdW  Elec       q    Type
DOCKED: USER                           _______ _______ _______ _____ _____    ______ ____
DOCKED: ROOT
DOCKED: ATOM      1  C   UNL d   1      -4.438  17.527  -9.257 -0.02 +0.00    +0.194 C 
DOCKED: ATOM      2  C   UNL d   1      -4.143  16.399  -8.268 -0.07 +0.01    +0.194 C 
DOCKED: ATOM      3  C   UNL d   1      -3.653  15.135  -8.979 -0.16 +0.00    +0.194 C 
DOCKED: ATOM      4  C   UNL d   1      -2.483  15.394  -9.926 -0.23 -0.01    +0.194 C 
DOCKED: ATOM      5  C   UNL d   1      -2.688  16.584 -10.854 -0.07 -0.00    +0.194 C 
DOCKED: ATOM      6  C   UNL d   1      -3.236  17.829 -10.154 -0.02 -0.00    +0.194 C 
DOCKED: ENDROOT
DOCKED: BRANCH   1   7
DOCKED: ATOM      7  O   UNL d   1      -4.721  18.713  -8.510 -0.00 -0.00    -0.278 OA
DOCKED: BRANCH   7   8
DOCKED: ATOM      8  P   UNL d   1      -5.606  19.850  -9.198 +0.00 +0.00    +0.473 P 
DOCKED: ATOM      9  O   UNL d   1      -6.726  20.368  -8.366 +0.00 +0.00    -0.228 OA
DOCKED: BRANCH   8  10
DOCKED: ATOM     10  O   UNL d   1      -4.548  20.975  -9.598 +0.00 +0.00    -0.303 OA
DOCKED: ATOM     11  H   UNL d   1      -3.797  20.566 -10.067 +0.00 +0.00    +0.222 HD
DOCKED: ENDBRANCH   8  10
DOCKED: BRANCH   8  12
DOCKED: ATOM     12  O   UNL d   1      -6.012  19.257 -10.615 +0.00 -0.00    -0.303 OA
DOCKED: ATOM     13  H   UNL d   1      -5.406  19.536 -11.338 +0.00 +0.00    +0.222 HD
DOCKED: ENDBRANCH   8  12
DOCKED: ENDBRANCH   7   8
DOCKED: ENDBRANCH   1   7
DOCKED: BRANCH   2  14
DOCKED: ATOM     14  O   UNL d   1      -3.127  16.832  -7.355 -0.42 -0.03    -0.278 OA
DOCKED: BRANCH  14  15
DOCKED: ATOM     15  P   UNL d   1      -3.622  17.633  -6.060 -0.04 +0.02    +0.473 P 
DOCKED: ATOM     16  O   UNL d   1      -3.168  19.053  -5.934 -0.04 -0.00    -0.228 OA
DOCKED: BRANCH  15  17
DOCKED: ATOM     17  O   UNL d   1      -5.209  17.494  -6.102 -0.01 -0.01    -0.303 OA
DOCKED: ATOM     18  H   UNL d   1      -5.600  18.122  -6.738 +0.01 +0.00    +0.222 HD
DOCKED: ENDBRANCH  15  17
DOCKED: BRANCH  15  19
DOCKED: ATOM     19  O   UNL d   1      -3.250  16.683  -4.840 -0.09 -0.03    -0.303 OA
DOCKED: ATOM     20  H   UNL d   1      -2.849  15.848  -5.142 +0.04 +0.02    +0.222 HD
DOCKED: ENDBRANCH  15  19
DOCKED: ENDBRANCH  14  15
DOCKED: ENDBRANCH   2  14
DOCKED: BRANCH   6  21
DOCKED: ATOM     21  O   UNL d   1      -3.689  18.712 -11.177 -0.00 -0.00    -0.278 OA
DOCKED: BRANCH  21  22
DOCKED: ATOM     22  P   UNL d   1      -2.719  19.853 -11.725 +0.01 +0.01    +0.473 P 
DOCKED: ATOM     23  O   UNL d   1      -3.330  21.119 -12.224 +0.00 -0.01    -0.228 OA
DOCKED: BRANCH  22  24
DOCKED: ATOM     24  O   UNL d   1      -1.710  20.035 -10.507 -0.00 +0.00    -0.303 OA
DOCKED: ATOM     25  H   UNL d   1      -1.437  19.134 -10.196 +0.02 -0.01    +0.222 HD
DOCKED: ENDBRANCH  22  24
DOCKED: BRANCH  22  26
DOCKED: ATOM     26  O   UNL d   1      -1.824  19.042 -12.778 -0.00 -0.02    -0.303 OA
DOCKED: ATOM     27  H   UNL d   1      -1.213  18.450 -12.293 +0.03 +0.00    +0.222 HD
DOCKED: ENDBRANCH  22  26
DOCKED: ENDBRANCH  21  22
DOCKED: ENDBRANCH   6  21
DOCKED: BRANCH   3  28
DOCKED: ATOM     28  O   UNL d   1      -3.146  14.254  -7.985 -0.52 -0.02    -0.278 OA
DOCKED: BRANCH  28  29
DOCKED: ATOM     29  P   UNL d   1      -4.141  13.492  -7.002 -0.15 +0.01    +0.473 P 
DOCKED: ATOM     30  O   UNL d   1      -5.387  12.977  -7.625 -0.09 +0.00    -0.228 OA
DOCKED: BRANCH  29  31
DOCKED: ATOM     31  O   UNL d   1      -3.141  12.410  -6.376 -0.20 +0.01    -0.303 OA
DOCKED: ATOM     32  H   UNL d   1      -3.202  11.583  -6.906 -0.38 -0.05    +0.222 HD
DOCKED: ENDBRANCH  29  31
DOCKED: BRANCH  29  33
DOCKED: ATOM     33  O   UNL d   1      -4.310  14.542  -5.818 -0.09 -0.03    -0.303 OA
DOCKED: ATOM     34  H   UNL d   1      -4.410  15.447  -6.202 +0.05 +0.02    +0.222 HD
DOCKED: ENDBRANCH  29  33
DOCKED: ENDBRANCH  28  29
DOCKED: ENDBRANCH   3  28
DOCKED: BRANCH   5  35
DOCKED: ATOM     35  O   UNL d   1      -1.392  16.917 -11.348 -0.06 +0.01    -0.278 OA
DOCKED: BRANCH  35  36
DOCKED: ATOM     36  P   UNL d   1      -0.221  17.306 -10.336 -0.09 -0.07    +0.473 P 
DOCKED: ATOM     37  O   UNL d   1      -0.638  17.507  -8.914 -0.14 +0.03    -0.228 OA
DOCKED: BRANCH  36  38
DOCKED: ATOM     38  O   UNL d   1       0.808  16.111 -10.554 -0.11 +0.12    -0.303 OA
DOCKED: ATOM     39  H   UNL d   1       0.429  15.288 -10.177 -0.49 -0.19    +0.222 HD
DOCKED: ENDBRANCH  36  38
DOCKED: BRANCH  36  40
DOCKED: ATOM     40  O   UNL d   1       0.465  18.540 -11.069 -0.01 +0.02    -0.303 OA
DOCKED: ATOM     41  H   UNL d   1      -0.200  19.186 -11.394 +0.02 -0.01    +0.222 HD
DOCKED: ENDBRANCH  36  40
DOCKED: ENDBRANCH  35  36
DOCKED: ENDBRANCH   5  35
DOCKED: BRANCH   4  42
DOCKED: ATOM     42  O   UNL d   1      -2.355  14.232 -10.753 -0.26 +0.05    -0.278 OA
DOCKED: BRANCH  42  43
DOCKED: ATOM     43  P   UNL d   1      -3.676  13.504 -11.270 -0.13 -0.06    +0.473 P 
DOCKED: ATOM     44  O   UNL d   1      -4.854  14.360 -11.584 -0.05 +0.01    -0.228 OA
DOCKED: BRANCH  43  45
DOCKED: ATOM     45  O   UNL d   1      -3.144  12.649 -12.502 -0.22 +0.05    -0.303 OA
DOCKED: ATOM     46  H   UNL d   1      -2.568  11.916 -12.208 -0.32 -0.09    +0.222 HD
DOCKED: ENDBRANCH  43  45
DOCKED: BRANCH  43  47
DOCKED: ATOM     47  O   UNL d   1      -3.923  12.366 -10.167 -0.15 +0.04    -0.303 OA
DOCKED: ATOM     48  H   UNL d   1      -4.053  12.787  -9.293 +0.09 -0.02    +0.222 HD
DOCKED: ENDBRANCH  43  47
DOCKED: ENDBRANCH  42  43
DOCKED: ENDBRANCH   4  42
DOCKED: TORSDOF 24
DOCKED: TER
DOCKED: ENDMDL
________________________________________________________________________________


	BEGINNING GENETIC ALGORITHM DOCKING 89 of 100
Run: 89 Seed: 1602067956 763184112 [ Run 89 of 100 GA/GALS ]
Beginning LAMARCKIAN GENETIC ALGORITHM (LGA), with a maximum of 25000000 energy evaluations.

Final-Value: -17.571


	FINAL GENETIC ALGORITHM DOCKED STATE
	_______________________________________________


Detailed state:  trans 14.332 12.014 3.570 quatxyzw 0.781550 -0.368196 0.503048 -0.023521 center 0.035 0.082 -0.065 ntor 24 -155.8394 10.6315 8.0072 145.5123 54.9480 -157.4944 -82.8172 -5.6427 68.7869 80.2980 179.9571 113.3212 -106.8509 -14.9653 -8.0066 15.2390 143.4486 49.7612 30.3948 -28.7295 -40.0630 170.3490 -6.9377 -24.8831
State:	 14.332  12.014   3.570   0.782 -0.368  0.503 -177.304   -155.84   10.63    8.01  145.51   54.95 -157.49  -82.82   -5.64   68.79   80.30  179.96  113.32 -106.85  -14.97   -8.01   15.24  143.45   49.76   30.39  -28.73  -40.06  170.35   -6.94  -24.88

DOCKED: MODEL       89
DOCKED: USER    Run = 89
DOCKED: USER    DPF = D:/Protein_go_brrr/autodock/final/mut_N102T/IHP/dock.dpf
DOCKED: USER  
DOCKED: USER    Estimated Free Energy of Binding    =   +3.75 kcal/mol  [=(1)+(2)+(3)-(4)]
DOCKED: USER    
DOCKED: USER    (1) Final Intermolecular Energy     =   -3.41 kcal/mol
DOCKED: USER        vdW + Hbond + desolv Energy     =   -3.20 kcal/mol
DOCKED: USER        Electrostatic Energy            =   -0.21 kcal/mol
DOCKED: USER    (2) Final Total Internal Energy     =  -14.16 kcal/mol
DOCKED: USER    (3) Torsional Free Energy           =   +7.16 kcal/mol
DOCKED: USER    (4) Unbound System's Energy  [=(2)] =  -14.16 kcal/mol
DOCKED: USER    
DOCKED: USER    
DOCKED: USER    NEWDPF move IHP_ideal_opt.pdbqt
DOCKED: USER    NEWDPF about 0.035000 0.082000 -0.065000
DOCKED: USER    NEWDPF tran0 14.331993 12.013934 3.570357
DOCKED: USER    NEWDPF quaternion0 0.781550 -0.368196 0.503048 -0.023521
DOCKED: USER    NEWDPF axisangle0 0.781767 -0.368298 0.503187 -177.304440
DOCKED: USER    NEWDPF quat0 0.781767 -0.368298 0.503187 -177.304440
DOCKED: USER    NEWDPF dihe0 -155.84 10.63 8.01 145.51 54.95 -157.49 -82.82 -5.64 68.79 80.30 179.96 113.32 -106.85 -14.97 -8.01 15.24 143.45 49.76 30.39 -28.73 -40.06 170.35 -6.94 -24.88 
DOCKED: USER  keepresnum = 1 
DOCKED: USER  
DOCKED: REMARK  24 active torsions:
DOCKED: REMARK  status: ('A' for Active; 'I' for Inactive)
DOCKED: REMARK    1  A    between atoms: C_1  and  O_7 
DOCKED: REMARK    2  A    between atoms: C_2  and  O_12 
DOCKED: REMARK    3  A    between atoms: C_3  and  O_17 
DOCKED: REMARK    4  A    between atoms: C_4  and  O_22 
DOCKED: REMARK    5  A    between atoms: C_5  and  O_27 
DOCKED: REMARK    6  A    between atoms: C_6  and  O_32 
DOCKED: REMARK    7  A    between atoms: O_7  and  P_8 
DOCKED: REMARK    8  A    between atoms: P_8  and  O_10 
DOCKED: REMARK    9  A    between atoms: P_8  and  O_11 
DOCKED: REMARK   10  A    between atoms: O_12  and  P_13 
DOCKED: REMARK   11  A    between atoms: P_13  and  O_15 
DOCKED: REMARK   12  A    between atoms: P_13  and  O_16 
DOCKED: REMARK   13  A    between atoms: O_17  and  P_18 
DOCKED: REMARK   14  A    between atoms: P_18  and  O_20 
DOCKED: REMARK   15  A    between atoms: P_18  and  O_21 
DOCKED: REMARK   16  A    between atoms: O_22  and  P_23 
DOCKED: REMARK   17  A    between atoms: P_23  and  O_25 
DOCKED: REMARK   18  A    between atoms: P_23  and  O_26 
DOCKED: REMARK   19  A    between atoms: O_27  and  P_28 
DOCKED: REMARK   20  A    between atoms: P_28  and  O_30 
DOCKED: REMARK   21  A    between atoms: P_28  and  O_31 
DOCKED: REMARK   22  A    between atoms: O_32  and  P_33 
DOCKED: REMARK   23  A    between atoms: P_33  and  O_35 
DOCKED: REMARK   24  A    between atoms: P_33  and  O_36 
DOCKED: USER                              x       y       z     vdW  Elec       q    Type
DOCKED: USER                           _______ _______ _______ _____ _____    ______ ____
DOCKED: ROOT
DOCKED: ATOM      1  C   UNL d   1      15.751  11.647   4.484 -0.03 +0.03    +0.194 C 
DOCKED: ATOM      2  C   UNL d   1      15.671  13.071   3.931 -0.02 +0.04    +0.194 C 
DOCKED: ATOM      3  C   UNL d   1      15.167  13.090   2.486 -0.02 +0.03    +0.194 C 
DOCKED: ATOM      4  C   UNL d   1      13.861  12.322   2.295 -0.07 +0.05    +0.194 C 
DOCKED: ATOM      5  C   UNL d   1      13.856  10.938   2.931 -0.11 +0.04    +0.194 C 
DOCKED: ATOM      6  C   UNL d   1      14.418  10.909   4.354 -0.11 +0.05    +0.194 C 
DOCKED: ENDROOT
DOCKED: BRANCH   1   7
DOCKED: ATOM      7  O   UNL d   1      16.061  11.726   5.877 -0.03 -0.05    -0.278 OA
DOCKED: BRANCH   7   8
DOCKED: ATOM      8  P   UNL d   1      17.595  11.675   6.318 +0.00 +0.04    +0.473 P 
DOCKED: ATOM      9  O   UNL d   1      18.353  10.490   5.831 -0.00 -0.01    -0.228 OA
DOCKED: BRANCH   8  10
DOCKED: ATOM     10  O   UNL d   1      18.193  13.060   5.799 -0.00 -0.02    -0.303 OA
DOCKED: ATOM     11  H   UNL d   1      17.589  13.787   6.039 +0.01 +0.02    +0.222 HD
DOCKED: ENDBRANCH   8  10
DOCKED: BRANCH   8  12
DOCKED: ATOM     12  O   UNL d   1      17.580  11.889   7.893 -0.01 -0.03    -0.303 OA
DOCKED: ATOM     13  H   UNL d   1      16.869  12.500   8.192 +0.03 +0.03    +0.222 HD
DOCKED: ENDBRANCH   8  12
DOCKED: ENDBRANCH   7   8
DOCKED: ENDBRANCH   1   7
DOCKED: BRANCH   2  14
DOCKED: ATOM     14  O   UNL d   1      14.769  13.836   4.740 -0.04 -0.12    -0.278 OA
DOCKED: BRANCH  14  15
DOCKED: ATOM     15  P   UNL d   1      15.431  14.853   5.785 -0.00 +0.13    +0.473 P 
DOCKED: ATOM     16  O   UNL d   1      16.625  15.621   5.311 +0.00 -0.03    -0.228 OA
DOCKED: BRANCH  15  17
DOCKED: ATOM     17  O   UNL d   1      14.225  15.795   6.226 -0.03 -0.14    -0.303 OA
DOCKED: ATOM     18  H   UNL d   1      14.135  16.556   5.621 +0.02 +0.09    +0.222 HD
DOCKED: ENDBRANCH  15  17
DOCKED: BRANCH  15  19
DOCKED: ATOM     19  O   UNL d   1      15.653  13.983   7.098 -0.02 -0.07    -0.303 OA
DOCKED: ATOM     20  H   UNL d   1      16.500  13.499   7.072 +0.03 +0.03    +0.222 HD
DOCKED: ENDBRANCH  15  19
DOCKED: ENDBRANCH  14  15
DOCKED: ENDBRANCH   2  14
DOCKED: BRANCH   6  21
DOCKED: ATOM     21  O   UNL d   1      14.665   9.541   4.672 -0.10 -0.04    -0.278 OA
DOCKED: BRANCH  21  22
DOCKED: ATOM     22  P   UNL d   1      14.382   9.007   6.148 -0.21 +0.07    +0.473 P 
DOCKED: ATOM     23  O   UNL d   1      13.427   9.771   7.003 -0.30 -0.06    -0.228 OA
DOCKED: BRANCH  22  24
DOCKED: ATOM     24  O   UNL d   1      13.970   7.495   5.875 -0.24 -0.03    -0.303 OA
DOCKED: ATOM     25  H   UNL d   1      13.833   7.384   4.900 +0.11 +0.02    +0.222 HD
DOCKED: ENDBRANCH  22  24
DOCKED: BRANCH  22  26
DOCKED: ATOM     26  O   UNL d   1      15.868   8.847   6.727 -0.07 -0.04    -0.303 OA
DOCKED: ATOM     27  H   UNL d   1      16.458   9.490   6.282 +0.05 +0.02    +0.222 HD
DOCKED: ENDBRANCH  22  26
DOCKED: ENDBRANCH  21  22
DOCKED: ENDBRANCH   6  21
DOCKED: BRANCH   3  28
DOCKED: ATOM     28  O   UNL d   1      14.863  14.440   2.157 -0.01 -0.05    -0.278 OA
DOCKED: BRANCH  28  29
DOCKED: ATOM     29  P   UNL d   1      13.500  15.100   2.650 -0.04 +0.23    +0.473 P 
DOCKED: ATOM     30  O   UNL d   1      12.506  14.162   3.231 -0.66 -0.33    -0.228 OA
DOCKED: BRANCH  29  31
DOCKED: ATOM     31  O   UNL d   1      14.075  16.239   3.617 -0.01 -0.11    -0.303 OA
DOCKED: ATOM     32  H   UNL d   1      14.918  15.918   4.013 +0.01 +0.06    +0.222 HD
DOCKED: ENDBRANCH  29  31
DOCKED: BRANCH  29  33
DOCKED: ATOM     33  O   UNL d   1      13.046  15.926   1.366 -0.01 -0.06    -0.303 OA
DOCKED: ATOM     34  H   UNL d   1      13.027  15.320   0.585 +0.02 +0.02    +0.222 HD
DOCKED: ENDBRANCH  29  33
DOCKED: ENDBRANCH  28  29
DOCKED: ENDBRANCH   3  28
DOCKED: BRANCH   5  35
DOCKED: ATOM     35  O   UNL d   1      12.485  10.555   3.014 -0.15 -0.09    -0.278 OA
DOCKED: BRANCH  35  36
DOCKED: ATOM     36  P   UNL d   1      11.987   9.198   2.339 -0.18 +0.01    +0.473 P 
DOCKED: ATOM     37  O   UNL d   1      10.506   8.989   2.330 -0.43 +0.01    -0.228 OA
DOCKED: BRANCH  36  38
DOCKED: ATOM     38  O   UNL d   1      12.644   9.293   0.892 -0.16 +0.03    -0.303 OA
DOCKED: ATOM     39  H   UNL d   1      13.135  10.140   0.817 +0.10 -0.01    +0.222 HD
DOCKED: ENDBRANCH  36  38
DOCKED: BRANCH  36  40
DOCKED: ATOM     40  O   UNL d   1      12.866   8.104   3.087 -0.30 -0.00    -0.303 OA
DOCKED: ATOM     41  H   UNL d   1      12.978   8.317   4.040 +0.13 +0.03    +0.222 HD
DOCKED: ENDBRANCH  36  40
DOCKED: ENDBRANCH  35  36
DOCKED: ENDBRANCH   5  35
DOCKED: BRANCH   4  42
DOCKED: ATOM     42  O   UNL d   1      13.692  12.138   0.885 -0.04 -0.01    -0.278 OA
DOCKED: BRANCH  42  43
DOCKED: ATOM     43  P   UNL d   1      12.254  12.389   0.243 -0.08 -0.00    +0.473 P 
DOCKED: ATOM     44  O   UNL d   1      11.991  13.730  -0.351 -0.07 +0.02    -0.228 OA
DOCKED: BRANCH  43  45
DOCKED: ATOM     45  O   UNL d   1      12.117  11.183  -0.787 -0.22 +0.05    -0.303 OA
DOCKED: ATOM     46  H   UNL d   1      11.483  10.510  -0.468 +0.14 -0.03    +0.222 HD
DOCKED: ENDBRANCH  43  45
DOCKED: BRANCH  43  47
DOCKED: ATOM     47  O   UNL d   1      11.248  11.939   1.407 -0.16 -0.07    -0.303 OA
DOCKED: ATOM     48  H   UNL d   1      11.318  10.970   1.537 +0.11 +0.03    +0.222 HD
DOCKED: ENDBRANCH  43  47
DOCKED: ENDBRANCH  42  43
DOCKED: ENDBRANCH   4  42
DOCKED: TORSDOF 24
DOCKED: TER
DOCKED: ENDMDL
________________________________________________________________________________


	BEGINNING GENETIC ALGORITHM DOCKING 90 of 100
Run: 90 Seed: 771505598 625486636 [ Run 90 of 100 GA/GALS ]
Beginning LAMARCKIAN GENETIC ALGORITHM (LGA), with a maximum of 25000000 energy evaluations.

Final-Value: -20.783


	FINAL GENETIC ALGORITHM DOCKED STATE
	_______________________________________________


Detailed state:  trans 9.391 -13.480 -15.553 quatxyzw 0.364371 -0.343723 -0.198848 0.842347 center 0.035 0.082 -0.065 ntor 24 86.1245 98.3920 76.3135 95.1333 113.7573 86.8509 35.9167 -65.4287 98.2809 -24.6374 -171.2292 149.9897 -67.3262 -79.4437 -171.3294 -70.8985 45.4063 179.9442 -150.8257 -22.1939 9.2186 -23.4236 -170.7490 32.1176
State:	  9.391 -13.480 -15.553   0.676 -0.638 -0.369 65.222     86.12   98.39   76.31   95.13  113.76   86.85   35.92  -65.43   98.28  -24.64 -171.23  149.99  -67.33  -79.44 -171.33  -70.90   45.41  179.94 -150.83  -22.19    9.22  -23.42 -170.75   32.12

DOCKED: MODEL       90
DOCKED: USER    Run = 90
DOCKED: USER    DPF = D:/Protein_go_brrr/autodock/final/mut_N102T/IHP/dock.dpf
DOCKED: USER  
DOCKED: USER    Estimated Free Energy of Binding    =   +2.05 kcal/mol  [=(1)+(2)+(3)-(4)]
DOCKED: USER    
DOCKED: USER    (1) Final Intermolecular Energy     =   -5.11 kcal/mol
DOCKED: USER        vdW + Hbond + desolv Energy     =   -4.43 kcal/mol
DOCKED: USER        Electrostatic Energy            =   -0.68 kcal/mol
DOCKED: USER    (2) Final Total Internal Energy     =  -15.67 kcal/mol
DOCKED: USER    (3) Torsional Free Energy           =   +7.16 kcal/mol
DOCKED: USER    (4) Unbound System's Energy  [=(2)] =  -15.67 kcal/mol
DOCKED: USER    
DOCKED: USER    
DOCKED: USER    NEWDPF move IHP_ideal_opt.pdbqt
DOCKED: USER    NEWDPF about 0.035000 0.082000 -0.065000
DOCKED: USER    NEWDPF tran0 9.391152 -13.480393 -15.553271
DOCKED: USER    NEWDPF quaternion0 0.364371 -0.343723 -0.198848 0.842347
DOCKED: USER    NEWDPF axisangle0 0.676093 -0.637781 -0.368963 65.222466
DOCKED: USER    NEWDPF quat0 0.676093 -0.637781 -0.368963 65.222466
DOCKED: USER    NEWDPF dihe0 86.12 98.39 76.31 95.13 113.76 86.85 35.92 -65.43 98.28 -24.64 -171.23 149.99 -67.33 -79.44 -171.33 -70.90 45.41 179.94 -150.83 -22.19 9.22 -23.42 -170.75 32.12 
DOCKED: USER  keepresnum = 1 
DOCKED: USER  
DOCKED: REMARK  24 active torsions:
DOCKED: REMARK  status: ('A' for Active; 'I' for Inactive)
DOCKED: REMARK    1  A    between atoms: C_1  and  O_7 
DOCKED: REMARK    2  A    between atoms: C_2  and  O_12 
DOCKED: REMARK    3  A    between atoms: C_3  and  O_17 
DOCKED: REMARK    4  A    between atoms: C_4  and  O_22 
DOCKED: REMARK    5  A    between atoms: C_5  and  O_27 
DOCKED: REMARK    6  A    between atoms: C_6  and  O_32 
DOCKED: REMARK    7  A    between atoms: O_7  and  P_8 
DOCKED: REMARK    8  A    between atoms: P_8  and  O_10 
DOCKED: REMARK    9  A    between atoms: P_8  and  O_11 
DOCKED: REMARK   10  A    between atoms: O_12  and  P_13 
DOCKED: REMARK   11  A    between atoms: P_13  and  O_15 
DOCKED: REMARK   12  A    between atoms: P_13  and  O_16 
DOCKED: REMARK   13  A    between atoms: O_17  and  P_18 
DOCKED: REMARK   14  A    between atoms: P_18  and  O_20 
DOCKED: REMARK   15  A    between atoms: P_18  and  O_21 
DOCKED: REMARK   16  A    between atoms: O_22  and  P_23 
DOCKED: REMARK   17  A    between atoms: P_23  and  O_25 
DOCKED: REMARK   18  A    between atoms: P_23  and  O_26 
DOCKED: REMARK   19  A    between atoms: O_27  and  P_28 
DOCKED: REMARK   20  A    between atoms: P_28  and  O_30 
DOCKED: REMARK   21  A    between atoms: P_28  and  O_31 
DOCKED: REMARK   22  A    between atoms: O_32  and  P_33 
DOCKED: REMARK   23  A    between atoms: P_33  and  O_35 
DOCKED: REMARK   24  A    between atoms: P_33  and  O_36 
DOCKED: USER                              x       y       z     vdW  Elec       q    Type
DOCKED: USER                           _______ _______ _______ _____ _____    ______ ____
DOCKED: ROOT
DOCKED: ATOM      1  C   UNL d   1      11.112 -13.363 -15.643 +0.00 +0.01    +0.194 C 
DOCKED: ATOM      2  C   UNL d   1      10.568 -14.272 -14.539 -0.00 -0.01    +0.194 C 
DOCKED: ATOM      3  C   UNL d   1       9.376 -13.639 -13.820 -0.06 -0.02    +0.194 C 
DOCKED: ATOM      4  C   UNL d   1       8.280 -13.168 -14.772 -0.08 +0.07    +0.194 C 
DOCKED: ATOM      5  C   UNL d   1       8.791 -12.353 -15.953 -0.05 +0.10    +0.194 C 
DOCKED: ATOM      6  C   UNL d   1      10.022 -12.955 -16.634 -0.00 +0.03    +0.194 C 
DOCKED: ENDROOT
DOCKED: BRANCH   1   7
DOCKED: ATOM      7  O   UNL d   1      12.102 -14.091 -16.373 +0.00 -0.00    -0.278 OA
DOCKED: BRANCH   7   8
DOCKED: ATOM      8  P   UNL d   1      11.624 -15.012 -17.588 +0.01 +0.00    +0.473 P 
DOCKED: ATOM      9  O   UNL d   1      10.166 -15.310 -17.618 +0.00 -0.01    -0.228 OA
DOCKED: BRANCH   8  10
DOCKED: ATOM     10  O   UNL d   1      12.133 -14.236 -18.886 +0.00 -0.01    -0.303 OA
DOCKED: ATOM     11  H   UNL d   1      11.595 -13.434 -19.019 +0.00 +0.01    +0.222 HD
DOCKED: ENDBRANCH   8  10
DOCKED: BRANCH   8  12
DOCKED: ATOM     12  O   UNL d   1      12.589 -16.274 -17.554 +0.00 +0.01    -0.303 OA
DOCKED: ATOM     13  H   UNL d   1      12.618 -16.714 -16.675 +0.00 -0.01    +0.222 HD
DOCKED: ENDBRANCH   8  12
DOCKED: ENDBRANCH   7   8
DOCKED: ENDBRANCH   1   7
DOCKED: BRANCH   2  14
DOCKED: ATOM     14  O   UNL d   1      10.145 -15.511 -15.122 +0.00 +0.02    -0.278 OA
DOCKED: BRANCH  14  15
DOCKED: ATOM     15  P   UNL d   1      11.039 -16.798 -14.795 +0.01 -0.04    +0.473 P 
DOCKED: ATOM     16  O   UNL d   1      12.465 -16.547 -14.416 +0.00 +0.02    -0.228 OA
DOCKED: BRANCH  15  17
DOCKED: ATOM     17  O   UNL d   1      10.223 -17.560 -13.659 +0.00 +0.05    -0.303 OA
DOCKED: ATOM     18  H   UNL d   1       9.586 -16.961 -13.222 +0.03 -0.06    +0.222 HD
DOCKED: ENDBRANCH  15  17
DOCKED: BRANCH  15  19
DOCKED: ATOM     19  O   UNL d   1      10.821 -17.760 -16.044 +0.00 +0.02    -0.303 OA
DOCKED: ATOM     20  H   UNL d   1      10.729 -17.257 -16.874 +0.00 -0.01    +0.222 HD
DOCKED: ENDBRANCH  15  19
DOCKED: ENDBRANCH  14  15
DOCKED: ENDBRANCH   2  14
DOCKED: BRANCH   6  21
DOCKED: ATOM     21  O   UNL d   1      10.573 -11.935 -17.465 -0.00 -0.04    -0.278 OA
DOCKED: BRANCH  21  22
DOCKED: ATOM     22  P   UNL d   1      10.143 -11.846 -18.999 +0.01 +0.07    +0.473 P 
DOCKED: ATOM     23  O   UNL d   1      11.187 -11.498 -20.005 +0.00 -0.01    -0.228 OA
DOCKED: BRANCH  22  24
DOCKED: ATOM     24  O   UNL d   1       9.443 -13.258 -19.224 +0.00 -0.04    -0.303 OA
DOCKED: ATOM     25  H   UNL d   1       8.812 -13.412 -18.475 +0.01 +0.05    +0.222 HD
DOCKED: ENDBRANCH  22  24
DOCKED: BRANCH  22  26
DOCKED: ATOM     26  O   UNL d   1       8.881 -10.859 -18.926 -0.02 -0.09    -0.303 OA
DOCKED: ATOM     27  H   UNL d   1       8.072 -11.383 -18.752 +0.01 +0.11    +0.222 HD
DOCKED: ENDBRANCH  22  26
DOCKED: ENDBRANCH  21  22
DOCKED: ENDBRANCH   6  21
DOCKED: BRANCH   3  28
DOCKED: ATOM     28  O   UNL d   1       8.773 -14.648 -13.020 -0.09 +0.10    -0.278 OA
DOCKED: BRANCH  28  29
DOCKED: ATOM     29  P   UNL d   1       9.293 -14.919 -11.539 -0.11 -0.19    +0.473 P 
DOCKED: ATOM     30  O   UNL d   1      10.263 -16.035 -11.396 -0.09 +0.06    -0.228 OA
DOCKED: BRANCH  29  31
DOCKED: ATOM     31  O   UNL d   1       9.809 -13.455 -11.152 -0.19 +0.12    -0.303 OA
DOCKED: ATOM     32  H   UNL d   1       9.054 -12.945 -10.777 -0.42 -0.18    +0.222 HD
DOCKED: ENDBRANCH  29  31
DOCKED: BRANCH  29  33
DOCKED: ATOM     33  O   UNL d   1       7.931 -15.040 -10.724 -0.74 +0.29    -0.303 OA
DOCKED: ATOM     34  H   UNL d   1       7.177 -14.816 -11.322 -0.43 -0.44    +0.222 HD
DOCKED: ENDBRANCH  29  33
DOCKED: ENDBRANCH  28  29
DOCKED: ENDBRANCH   3  28
DOCKED: BRANCH   5  35
DOCKED: ATOM     35  O   UNL d   1       7.736 -12.356 -16.912 -0.07 -0.30    -0.278 OA
DOCKED: BRANCH  35  36
DOCKED: ATOM     36  P   UNL d   1       6.888 -13.683 -17.170 +0.01 +0.36    +0.473 P 
DOCKED: ATOM     37  O   UNL d   1       5.675 -13.849 -16.312 -0.07 -0.23    -0.228 OA
DOCKED: BRANCH  36  38
DOCKED: ATOM     38  O   UNL d   1       6.578 -13.573 -18.729 -0.06 -0.15    -0.303 OA
DOCKED: ATOM     39  H   UNL d   1       7.295 -13.064 -19.164 +0.01 +0.09    +0.222 HD
DOCKED: ENDBRANCH  36  38
DOCKED: BRANCH  36  40
DOCKED: ATOM     40  O   UNL d   1       7.998 -14.819 -17.080 -0.00 -0.06    -0.303 OA
DOCKED: ATOM     41  H   UNL d   1       8.647 -14.753 -17.815 +0.01 +0.03    +0.222 HD
DOCKED: ENDBRANCH  36  40
DOCKED: ENDBRANCH  35  36
DOCKED: ENDBRANCH   5  35
DOCKED: BRANCH   4  42
DOCKED: ATOM     42  O   UNL d   1       7.412 -12.316 -14.017 -0.63 -0.22    -0.278 OA
DOCKED: BRANCH  42  43
DOCKED: ATOM     43  P   UNL d   1       6.331 -12.979 -13.049 -0.17 -0.05    +0.473 P 
DOCKED: ATOM     44  O   UNL d   1       4.945 -12.435 -13.094 -0.52 -0.10    -0.228 OA
DOCKED: BRANCH  43  45
DOCKED: ATOM     45  O   UNL d   1       6.436 -14.524 -13.415 -0.05 +0.26    -0.303 OA
DOCKED: ATOM     46  H   UNL d   1       6.755 -15.051 -12.656 -0.11 -0.39    +0.222 HD
DOCKED: ENDBRANCH  43  45
DOCKED: BRANCH  43  47
DOCKED: ATOM     47  O   UNL d   1       7.046 -12.934 -11.616 -0.18 +0.27    -0.303 OA
DOCKED: ATOM     48  H   UNL d   1       8.015 -13.011 -11.736 -0.43 -0.17    +0.222 HD
DOCKED: ENDBRANCH  43  47
DOCKED: ENDBRANCH  42  43
DOCKED: ENDBRANCH   4  42
DOCKED: TORSDOF 24
DOCKED: TER
DOCKED: ENDMDL
________________________________________________________________________________


	BEGINNING GENETIC ALGORITHM DOCKING 91 of 100
Run: 91 Seed: 549391122 2134748991 [ Run 91 of 100 GA/GALS ]
Beginning LAMARCKIAN GENETIC ALGORITHM (LGA), with a maximum of 25000000 energy evaluations.

Final-Value: -19.563


	FINAL GENETIC ALGORITHM DOCKED STATE
	_______________________________________________


Detailed state:  trans 13.173 1.713 12.876 quatxyzw 0.354492 -0.629693 0.609073 0.326882 center 0.035 0.082 -0.065 ntor 24 -161.5751 18.5010 76.8807 80.1539 16.1190 -162.3953 -110.0597 -7.5806 10.7540 -93.8649 136.8786 157.0968 18.6551 140.1115 144.4216 37.6315 -58.0451 -160.0501 3.6705 -15.0184 -23.6822 8.1086 -180.0000 7.0110
State:	 13.173   1.713  12.876   0.375 -0.666  0.644 141.841   -161.58   18.50   76.88   80.15   16.12 -162.40 -110.06   -7.58   10.75  -93.86  136.88  157.10   18.66  140.11  144.42   37.63  -58.05 -160.05    3.67  -15.02  -23.68    8.11 -180.00    7.01

DOCKED: MODEL       91
DOCKED: USER    Run = 91
DOCKED: USER    DPF = D:/Protein_go_brrr/autodock/final/mut_N102T/IHP/dock.dpf
DOCKED: USER  
DOCKED: USER    Estimated Free Energy of Binding    =   +2.59 kcal/mol  [=(1)+(2)+(3)-(4)]
DOCKED: USER    
DOCKED: USER    (1) Final Intermolecular Energy     =   -4.57 kcal/mol
DOCKED: USER        vdW + Hbond + desolv Energy     =   -4.26 kcal/mol
DOCKED: USER        Electrostatic Energy            =   -0.30 kcal/mol
DOCKED: USER    (2) Final Total Internal Energy     =  -15.00 kcal/mol
DOCKED: USER    (3) Torsional Free Energy           =   +7.16 kcal/mol
DOCKED: USER    (4) Unbound System's Energy  [=(2)] =  -15.00 kcal/mol
DOCKED: USER    
DOCKED: USER    
DOCKED: USER    NEWDPF move IHP_ideal_opt.pdbqt
DOCKED: USER    NEWDPF about 0.035000 0.082000 -0.065000
DOCKED: USER    NEWDPF tran0 13.172738 1.712777 12.876492
DOCKED: USER    NEWDPF quaternion0 0.354492 -0.629693 0.609073 0.326882
DOCKED: USER    NEWDPF axisangle0 0.375098 -0.666296 0.644477 141.840713
DOCKED: USER    NEWDPF quat0 0.375098 -0.666296 0.644477 141.840713
DOCKED: USER    NEWDPF dihe0 -161.58 18.50 76.88 80.15 16.12 -162.40 -110.06 -7.58 10.75 -93.86 136.88 157.10 18.66 140.11 144.42 37.63 -58.05 -160.05 3.67 -15.02 -23.68 8.11 -180.00 7.01 
DOCKED: USER  keepresnum = 1 
DOCKED: USER  
DOCKED: REMARK  24 active torsions:
DOCKED: REMARK  status: ('A' for Active; 'I' for Inactive)
DOCKED: REMARK    1  A    between atoms: C_1  and  O_7 
DOCKED: REMARK    2  A    between atoms: C_2  and  O_12 
DOCKED: REMARK    3  A    between atoms: C_3  and  O_17 
DOCKED: REMARK    4  A    between atoms: C_4  and  O_22 
DOCKED: REMARK    5  A    between atoms: C_5  and  O_27 
DOCKED: REMARK    6  A    between atoms: C_6  and  O_32 
DOCKED: REMARK    7  A    between atoms: O_7  and  P_8 
DOCKED: REMARK    8  A    between atoms: P_8  and  O_10 
DOCKED: REMARK    9  A    between atoms: P_8  and  O_11 
DOCKED: REMARK   10  A    between atoms: O_12  and  P_13 
DOCKED: REMARK   11  A    between atoms: P_13  and  O_15 
DOCKED: REMARK   12  A    between atoms: P_13  and  O_16 
DOCKED: REMARK   13  A    between atoms: O_17  and  P_18 
DOCKED: REMARK   14  A    between atoms: P_18  and  O_20 
DOCKED: REMARK   15  A    between atoms: P_18  and  O_21 
DOCKED: REMARK   16  A    between atoms: O_22  and  P_23 
DOCKED: REMARK   17  A    between atoms: P_23  and  O_25 
DOCKED: REMARK   18  A    between atoms: P_23  and  O_26 
DOCKED: REMARK   19  A    between atoms: O_27  and  P_28 
DOCKED: REMARK   20  A    between atoms: P_28  and  O_30 
DOCKED: REMARK   21  A    between atoms: P_28  and  O_31 
DOCKED: REMARK   22  A    between atoms: O_32  and  P_33 
DOCKED: REMARK   23  A    between atoms: P_33  and  O_35 
DOCKED: REMARK   24  A    between atoms: P_33  and  O_36 
DOCKED: USER                              x       y       z     vdW  Elec       q    Type
DOCKED: USER                           _______ _______ _______ _____ _____    ______ ____
DOCKED: ROOT
DOCKED: ATOM      1  C   UNL d   1      13.212   0.225  13.754 -0.02 +0.05    +0.194 C 
DOCKED: ATOM      2  C   UNL d   1      13.608   1.471  14.548 -0.04 +0.06    +0.194 C 
DOCKED: ATOM      3  C   UNL d   1      14.524   2.392  13.739 -0.05 +0.06    +0.194 C 
DOCKED: ATOM      4  C   UNL d   1      13.964   2.739  12.362 -0.09 +0.05    +0.194 C 
DOCKED: ATOM      5  C   UNL d   1      13.451   1.536  11.579 -0.07 +0.05    +0.194 C 
DOCKED: ATOM      6  C   UNL d   1      12.585   0.583  12.406 -0.05 +0.06    +0.194 C 
DOCKED: ENDROOT
DOCKED: BRANCH   1   7
DOCKED: ATOM      7  O   UNL d   1      12.228  -0.489  14.505 -0.01 -0.07    -0.278 OA
DOCKED: BRANCH   7   8
DOCKED: ATOM      8  P   UNL d   1      12.566  -1.978  14.975 +0.02 +0.10    +0.473 P 
DOCKED: ATOM      9  O   UNL d   1      13.601  -2.085  16.039 +0.00 -0.04    -0.228 OA
DOCKED: BRANCH   8  10
DOCKED: ATOM     10  O   UNL d   1      11.152  -2.575  15.413 +0.00 -0.06    -0.303 OA
DOCKED: ATOM     11  H   UNL d   1      10.467  -2.289  14.781 +0.02 +0.05    +0.222 HD
DOCKED: ENDBRANCH   8  10
DOCKED: BRANCH   8  12
DOCKED: ATOM     12  O   UNL d   1      12.864  -2.777  13.635 +0.00 -0.09    -0.303 OA
DOCKED: ATOM     13  H   UNL d   1      12.407  -2.398  12.850 +0.02 +0.08    +0.222 HD
DOCKED: ENDBRANCH   8  12
DOCKED: ENDBRANCH   7   8
DOCKED: ENDBRANCH   1   7
DOCKED: BRANCH   2  14
DOCKED: ATOM     14  O   UNL d   1      12.423   2.198  14.896 -0.11 -0.14    -0.278 OA
DOCKED: BRANCH  14  15
DOCKED: ATOM     15  P   UNL d   1      12.100   2.334  16.459 -0.14 +0.33    +0.473 P 
DOCKED: ATOM     16  O   UNL d   1      10.713   2.762  16.824 -0.72 -0.21    -0.228 OA
DOCKED: BRANCH  15  17
DOCKED: ATOM     17  O   UNL d   1      12.485   0.910  17.060 -0.03 -0.10    -0.303 OA
DOCKED: ATOM     18  H   UNL d   1      12.526   0.232  16.358 +0.03 +0.06    +0.222 HD
DOCKED: ENDBRANCH  15  17
DOCKED: BRANCH  15  19
DOCKED: ATOM     19  O   UNL d   1      13.272   3.248  17.028 -0.09 -0.27    -0.303 OA
DOCKED: ATOM     20  H   UNL d   1      13.702   3.764  16.321 +0.03 +0.20    +0.222 HD
DOCKED: ENDBRANCH  15  19
DOCKED: ENDBRANCH  14  15
DOCKED: ENDBRANCH   2  14
DOCKED: BRANCH   6  21
DOCKED: ATOM     21  O   UNL d   1      12.477  -0.627  11.660 -0.03 -0.11    -0.278 OA
DOCKED: BRANCH  21  22
DOCKED: ATOM     22  P   UNL d   1      11.037  -1.227  11.327 -0.09 +0.26    +0.473 P 
DOCKED: ATOM     23  O   UNL d   1      10.959  -2.425  10.442 -0.28 -0.29    -0.228 OA
DOCKED: BRANCH  22  24
DOCKED: ATOM     24  O   UNL d   1      10.425  -1.431  12.782 -0.04 -0.10    -0.303 OA
DOCKED: ATOM     25  H   UNL d   1      11.090  -1.922  13.330 +0.03 +0.07    +0.222 HD
DOCKED: ENDBRANCH  22  24
DOCKED: BRANCH  22  26
DOCKED: ATOM     26  O   UNL d   1      10.252   0.076  10.818 -0.64 -0.16    -0.303 OA
DOCKED: ATOM     27  H   UNL d   1      10.899   0.735  10.495 +0.11 +0.10    +0.222 HD
DOCKED: ENDBRANCH  22  26
DOCKED: ENDBRANCH  21  22
DOCKED: ENDBRANCH   6  21
DOCKED: BRANCH   3  28
DOCKED: ATOM     28  O   UNL d   1      14.610   3.629  14.434 -0.08 -0.12    -0.278 OA
DOCKED: BRANCH  28  29
DOCKED: ATOM     29  P   UNL d   1      16.014   4.154  14.972 -0.03 +0.14    +0.473 P 
DOCKED: ATOM     30  O   UNL d   1      17.206   3.424  14.469 -0.01 -0.04    -0.228 OA
DOCKED: BRANCH  29  31
DOCKED: ATOM     31  O   UNL d   1      15.897   5.704  14.590 -0.05 -0.11    -0.303 OA
DOCKED: ATOM     32  H   UNL d   1      15.758   5.778  13.618 +0.04 +0.07    +0.222 HD
DOCKED: ENDBRANCH  29  31
DOCKED: BRANCH  29  33
DOCKED: ATOM     33  O   UNL d   1      15.786   4.162  16.547 -0.03 -0.12    -0.303 OA
DOCKED: ATOM     34  H   UNL d   1      15.441   3.279  16.826 +0.02 +0.08    +0.222 HD
DOCKED: ENDBRANCH  29  33
DOCKED: ENDBRANCH  28  29
DOCKED: ENDBRANCH   3  28
DOCKED: BRANCH   5  35
DOCKED: ATOM     35  O   UNL d   1      12.622   2.070  10.549 -0.14 -0.07    -0.278 OA
DOCKED: BRANCH  35  36
DOCKED: ATOM     36  P   UNL d   1      11.493   3.140  10.898 -0.30 +0.12    +0.473 P 
DOCKED: ATOM     37  O   UNL d   1      11.166   3.283  12.351 -0.35 -0.09    -0.228 OA
DOCKED: BRANCH  36  38
DOCKED: ATOM     38  O   UNL d   1      12.075   4.461  10.226 -0.16 -0.08    -0.303 OA
DOCKED: ATOM     39  H   UNL d   1      12.951   4.663  10.621 +0.10 +0.06    +0.222 HD
DOCKED: ENDBRANCH  36  38
DOCKED: BRANCH  36  40
DOCKED: ATOM     40  O   UNL d   1      10.306   2.710   9.931 -0.34 -0.05    -0.303 OA
DOCKED: ATOM     41  H   UNL d   1       9.897   3.486   9.488 -0.37 -0.04    +0.222 HD
DOCKED: ENDBRANCH  36  40
DOCKED: ENDBRANCH  35  36
DOCKED: ENDBRANCH   5  35
DOCKED: BRANCH   4  42
DOCKED: ATOM     42  O   UNL d   1      15.041   3.304  11.607 -0.04 -0.06    -0.278 OA
DOCKED: BRANCH  42  43
DOCKED: ATOM     43  P   UNL d   1      15.078   4.883  11.380 -0.09 +0.10    +0.473 P 
DOCKED: ATOM     44  O   UNL d   1      14.914   5.381   9.986 -0.15 -0.04    -0.228 OA
DOCKED: BRANCH  43  45
DOCKED: ATOM     45  O   UNL d   1      13.969   5.407  12.394 -0.14 -0.12    -0.303 OA
DOCKED: ATOM     46  H   UNL d   1      14.214   5.218  13.322 +0.06 +0.11    +0.222 HD
DOCKED: ENDBRANCH  43  45
DOCKED: BRANCH  43  47
DOCKED: ATOM     47  O   UNL d   1      16.430   5.326  12.119 -0.02 -0.06    -0.303 OA
DOCKED: ATOM     48  H   UNL d   1      16.658   4.662  12.801 +0.03 +0.04    +0.222 HD
DOCKED: ENDBRANCH  43  47
DOCKED: ENDBRANCH  42  43
DOCKED: ENDBRANCH   4  42
DOCKED: TORSDOF 24
DOCKED: TER
DOCKED: ENDMDL
________________________________________________________________________________


	BEGINNING GENETIC ALGORITHM DOCKING 92 of 100
Run: 92 Seed: 1181190212 245551199 [ Run 92 of 100 GA/GALS ]
Beginning LAMARCKIAN GENETIC ALGORITHM (LGA), with a maximum of 25000000 energy evaluations.

Final-Value: -18.417


	FINAL GENETIC ALGORITHM DOCKED STATE
	_______________________________________________


Detailed state:  trans -9.439 -7.068 -8.507 quatxyzw 0.568864 -0.331943 0.380304 0.649289 center 0.035 0.082 -0.065 ntor 24 -161.3676 136.2745 179.8762 -33.9356 -14.7089 -98.3485 -109.8586 -24.4260 -7.7223 1.7188 120.6679 158.9934 -24.0323 172.7438 -76.3757 -141.3534 -6.9038 115.2553 -33.4479 22.9575 5.7528 8.8082 175.4819 -2.6633
State:	 -9.439  -7.068  -8.507   0.748 -0.436  0.500 99.024   -161.37  136.27  179.88  -33.94  -14.71  -98.35 -109.86  -24.43   -7.72    1.72  120.67  158.99  -24.03  172.74  -76.38 -141.35   -6.90  115.26  -33.45   22.96    5.75    8.81  175.48   -2.66

DOCKED: MODEL       92
DOCKED: USER    Run = 92
DOCKED: USER    DPF = D:/Protein_go_brrr/autodock/final/mut_N102T/IHP/dock.dpf
DOCKED: USER  
DOCKED: USER    Estimated Free Energy of Binding    =   +2.63 kcal/mol  [=(1)+(2)+(3)-(4)]
DOCKED: USER    
DOCKED: USER    (1) Final Intermolecular Energy     =   -4.53 kcal/mol
DOCKED: USER        vdW + Hbond + desolv Energy     =   -4.45 kcal/mol
DOCKED: USER        Electrostatic Energy            =   -0.08 kcal/mol
DOCKED: USER    (2) Final Total Internal Energy     =  -13.89 kcal/mol
DOCKED: USER    (3) Torsional Free Energy           =   +7.16 kcal/mol
DOCKED: USER    (4) Unbound System's Energy  [=(2)] =  -13.89 kcal/mol
DOCKED: USER    
DOCKED: USER    
DOCKED: USER    NEWDPF move IHP_ideal_opt.pdbqt
DOCKED: USER    NEWDPF about 0.035000 0.082000 -0.065000
DOCKED: USER    NEWDPF tran0 -9.439102 -7.067728 -8.506758
DOCKED: USER    NEWDPF quaternion0 0.568864 -0.331943 0.380304 0.649289
DOCKED: USER    NEWDPF axisangle0 0.747972 -0.436456 0.500044 99.023979
DOCKED: USER    NEWDPF quat0 0.747972 -0.436456 0.500044 99.023979
DOCKED: USER    NEWDPF dihe0 -161.37 136.27 179.88 -33.94 -14.71 -98.35 -109.86 -24.43 -7.72 1.72 120.67 158.99 -24.03 172.74 -76.38 -141.35 -6.90 115.26 -33.45 22.96 5.75 8.81 175.48 -2.66 
DOCKED: USER  keepresnum = 1 
DOCKED: USER  
DOCKED: REMARK  24 active torsions:
DOCKED: REMARK  status: ('A' for Active; 'I' for Inactive)
DOCKED: REMARK    1  A    between atoms: C_1  and  O_7 
DOCKED: REMARK    2  A    between atoms: C_2  and  O_12 
DOCKED: REMARK    3  A    between atoms: C_3  and  O_17 
DOCKED: REMARK    4  A    between atoms: C_4  and  O_22 
DOCKED: REMARK    5  A    between atoms: C_5  and  O_27 
DOCKED: REMARK    6  A    between atoms: C_6  and  O_32 
DOCKED: REMARK    7  A    between atoms: O_7  and  P_8 
DOCKED: REMARK    8  A    between atoms: P_8  and  O_10 
DOCKED: REMARK    9  A    between atoms: P_8  and  O_11 
DOCKED: REMARK   10  A    between atoms: O_12  and  P_13 
DOCKED: REMARK   11  A    between atoms: P_13  and  O_15 
DOCKED: REMARK   12  A    between atoms: P_13  and  O_16 
DOCKED: REMARK   13  A    between atoms: O_17  and  P_18 
DOCKED: REMARK   14  A    between atoms: P_18  and  O_20 
DOCKED: REMARK   15  A    between atoms: P_18  and  O_21 
DOCKED: REMARK   16  A    between atoms: O_22  and  P_23 
DOCKED: REMARK   17  A    between atoms: P_23  and  O_25 
DOCKED: REMARK   18  A    between atoms: P_23  and  O_26 
DOCKED: REMARK   19  A    between atoms: O_27  and  P_28 
DOCKED: REMARK   20  A    between atoms: P_28  and  O_30 
DOCKED: REMARK   21  A    between atoms: P_28  and  O_31 
DOCKED: REMARK   22  A    between atoms: O_32  and  P_33 
DOCKED: REMARK   23  A    between atoms: P_33  and  O_35 
DOCKED: REMARK   24  A    between atoms: P_33  and  O_36 
DOCKED: USER                              x       y       z     vdW  Elec       q    Type
DOCKED: USER                           _______ _______ _______ _____ _____    ______ ____
DOCKED: ROOT
DOCKED: ATOM      1  C   UNL d   1      -8.245  -7.832  -7.520 -0.19 +0.03    +0.194 C 
DOCKED: ATOM      2  C   UNL d   1      -9.269  -6.974  -6.774 +0.01 +0.03    +0.194 C 
DOCKED: ATOM      3  C   UNL d   1      -9.536  -5.653  -7.497 -0.16 +0.02    +0.194 C 
DOCKED: ATOM      4  C   UNL d   1      -9.899  -5.836  -8.969 -0.14 +0.03    +0.194 C 
DOCKED: ATOM      5  C   UNL d   1      -8.969  -6.776  -9.725 -0.18 +0.04    +0.194 C 
DOCKED: ATOM      6  C   UNL d   1      -8.652  -8.071  -8.974 -0.16 +0.04    +0.194 C 
DOCKED: ENDROOT
DOCKED: BRANCH   1   7
DOCKED: ATOM      7  O   UNL d   1      -8.181  -9.108  -6.880 -0.13 -0.06    -0.278 OA
DOCKED: BRANCH   7   8
DOCKED: ATOM      8  P   UNL d   1      -6.848  -9.973  -7.043 -0.21 +0.15    +0.473 P 
DOCKED: ATOM      9  O   UNL d   1      -5.607  -9.184  -7.269 -0.37 -0.05    -0.228 OA
DOCKED: BRANCH   8  10
DOCKED: ATOM     10  O   UNL d   1      -6.796 -10.858  -5.716 -0.55 -0.18    -0.303 OA
DOCKED: ATOM     11  H   UNL d   1      -7.692 -11.179  -5.502 +0.07 +0.12    +0.222 HD
DOCKED: ENDBRANCH   8  10
DOCKED: BRANCH   8  12
DOCKED: ATOM     12  O   UNL d   1      -7.192 -11.057  -8.152 -0.14 -0.10    -0.303 OA
DOCKED: ATOM     13  H   UNL d   1      -6.971 -10.760  -9.064 +0.08 +0.07    +0.222 HD
DOCKED: ENDBRANCH   8  12
DOCKED: ENDBRANCH   7   8
DOCKED: ENDBRANCH   1   7
DOCKED: BRANCH   2  14
DOCKED: ATOM     14  O   UNL d   1     -10.501  -7.699  -6.676 -0.03 -0.03    -0.278 OA
DOCKED: BRANCH  14  15
DOCKED: ATOM     15  P   UNL d   1     -11.464  -7.312  -5.456 -0.00 +0.05    +0.473 P 
DOCKED: ATOM     16  O   UNL d   1     -12.009  -8.446  -4.645 -0.02 -0.02    -0.228 OA
DOCKED: BRANCH  15  17
DOCKED: ATOM     17  O   UNL d   1     -10.600  -6.292  -4.589 -0.05 -0.04    -0.303 OA
DOCKED: ATOM     18  H   UNL d   1     -10.672  -5.384  -4.940 +0.06 +0.03    +0.222 HD
DOCKED: ENDBRANCH  15  17
DOCKED: BRANCH  15  19
DOCKED: ATOM     19  O   UNL d   1     -12.550  -6.345  -6.099 -0.00 -0.02    -0.303 OA
DOCKED: ATOM     20  H   UNL d   1     -12.299  -5.407  -6.006 +0.02 +0.02    +0.222 HD
DOCKED: ENDBRANCH  15  19
DOCKED: ENDBRANCH  14  15
DOCKED: ENDBRANCH   2  14
DOCKED: BRANCH   6  21
DOCKED: ATOM     21  O   UNL d   1      -7.534  -8.665  -9.630 -0.21 -0.07    -0.278 OA
DOCKED: BRANCH  21  22
DOCKED: ATOM     22  P   UNL d   1      -7.770  -9.805 -10.720 -0.21 +0.15    +0.473 P 
DOCKED: ATOM     23  O   UNL d   1      -8.725 -10.904 -10.395 -0.11 -0.06    -0.228 OA
DOCKED: BRANCH  22  24
DOCKED: ATOM     24  O   UNL d   1      -8.149  -8.951 -12.008 -0.21 -0.12    -0.303 OA
DOCKED: ATOM     25  H   UNL d   1      -9.106  -8.700 -11.941 +0.07 +0.08    +0.222 HD
DOCKED: ENDBRANCH  22  24
DOCKED: BRANCH  22  26
DOCKED: ATOM     26  O   UNL d   1      -6.267 -10.254 -11.051 -0.81 -0.20    -0.303 OA
DOCKED: ATOM     27  H   UNL d   1      -5.993 -10.951 -10.421 -0.05 +0.14    +0.222 HD
DOCKED: ENDBRANCH  22  26
DOCKED: ENDBRANCH  21  22
DOCKED: ENDBRANCH   6  21
DOCKED: BRANCH   3  28
DOCKED: ATOM     28  O   UNL d   1     -10.681  -5.060  -6.897 -0.06 -0.03    -0.278 OA
DOCKED: BRANCH  28  29
DOCKED: ATOM     29  P   UNL d   1     -10.575  -3.631  -6.201 -0.08 +0.08    +0.473 P 
DOCKED: ATOM     30  O   UNL d   1     -11.736  -3.241  -5.361 -0.04 -0.03    -0.228 OA
DOCKED: BRANCH  29  31
DOCKED: ATOM     31  O   UNL d   1      -9.163  -3.783  -5.464 -0.35 -0.06    -0.303 OA
DOCKED: ATOM     32  H   UNL d   1      -9.209  -4.556  -4.854 +0.10 +0.04    +0.222 HD
DOCKED: ENDBRANCH  29  31
DOCKED: BRANCH  29  33
DOCKED: ATOM     33  O   UNL d   1     -10.228  -2.684  -7.434 -0.07 -0.07    -0.303 OA
DOCKED: ATOM     34  H   UNL d   1     -10.693  -3.021  -8.238 +0.06 +0.03    +0.222 HD
DOCKED: ENDBRANCH  29  33
DOCKED: ENDBRANCH  28  29
DOCKED: ENDBRANCH   3  28
DOCKED: BRANCH   5  35
DOCKED: ATOM     35  O   UNL d   1      -9.669  -7.140 -10.913 -0.12 -0.07    -0.278 OA
DOCKED: BRANCH  35  36
DOCKED: ATOM     36  P   UNL d   1     -11.138  -7.753 -10.825 -0.02 +0.08    +0.473 P 
DOCKED: ATOM     37  O   UNL d   1     -12.018  -7.170  -9.765 -0.01 -0.02    -0.228 OA
DOCKED: BRANCH  36  38
DOCKED: ATOM     38  O   UNL d   1     -11.672  -7.538 -12.310 -0.02 -0.06    -0.303 OA
DOCKED: ATOM     39  H   UNL d   1     -11.934  -6.599 -12.424 +0.02 +0.04    +0.222 HD
DOCKED: ENDBRANCH  36  38
DOCKED: BRANCH  36  40
DOCKED: ATOM     40  O   UNL d   1     -10.850  -9.315 -10.745 -0.01 -0.05    -0.303 OA
DOCKED: ATOM     41  H   UNL d   1     -10.117  -9.582 -11.343 +0.05 +0.05    +0.222 HD
DOCKED: ENDBRANCH  36  40
DOCKED: ENDBRANCH  35  36
DOCKED: ENDBRANCH   5  35
DOCKED: BRANCH   4  42
DOCKED: ATOM     42  O   UNL d   1      -9.789  -4.548  -9.586 -0.17 -0.04    -0.278 OA
DOCKED: BRANCH  42  43
DOCKED: ATOM     43  P   UNL d   1     -11.108  -3.843 -10.139 -0.05 +0.06    +0.473 P 
DOCKED: ATOM     44  O   UNL d   1     -11.056  -2.372 -10.370 -0.10 -0.03    -0.228 OA
DOCKED: BRANCH  43  45
DOCKED: ATOM     45  O   UNL d   1     -11.440  -4.695 -11.441 -0.04 -0.04    -0.303 OA
DOCKED: ATOM     46  H   UNL d   1     -11.401  -5.656 -11.260 +0.04 +0.04    +0.222 HD
DOCKED: ENDBRANCH  43  45
DOCKED: BRANCH  43  47
DOCKED: ATOM     47  O   UNL d   1     -12.244  -4.343  -9.124 -0.01 -0.03    -0.303 OA
DOCKED: ATOM     48  H   UNL d   1     -11.948  -5.170  -8.691 +0.03 +0.02    +0.222 HD
DOCKED: ENDBRANCH  43  47
DOCKED: ENDBRANCH  42  43
DOCKED: ENDBRANCH   4  42
DOCKED: TORSDOF 24
DOCKED: TER
DOCKED: ENDMDL
________________________________________________________________________________


	BEGINNING GENETIC ALGORITHM DOCKING 93 of 100
Run: 93 Seed: 441110577 281801844 [ Run 93 of 100 GA/GALS ]
Beginning LAMARCKIAN GENETIC ALGORITHM (LGA), with a maximum of 25000000 energy evaluations.

Final-Value: -15.382


	FINAL GENETIC ALGORITHM DOCKED STATE
	_______________________________________________


Detailed state:  trans -8.970 10.995 -17.163 quatxyzw -0.392524 0.070735 -0.319469 -0.859570 center 0.035 0.082 -0.065 ntor 24 -12.2800 96.7574 27.2632 85.3487 -29.3228 53.6674 -178.8336 -111.6618 15.9378 -113.7764 -29.7167 -74.1654 -56.5894 -25.9210 -70.8068 -50.3809 -85.9156 -115.2727 43.6693 11.9388 -169.7326 143.1760 -178.7086 156.0251
State:	 -8.970  10.995 -17.163  -0.768  0.138 -0.625 -61.463    -12.28   96.76   27.26   85.35  -29.32   53.67 -178.83 -111.66   15.94 -113.78  -29.72  -74.17  -56.59  -25.92  -70.81  -50.38  -85.92 -115.27   43.67   11.94 -169.73  143.18 -178.71  156.03

DOCKED: MODEL       93
DOCKED: USER    Run = 93
DOCKED: USER    DPF = D:/Protein_go_brrr/autodock/final/mut_N102T/IHP/dock.dpf
DOCKED: USER  
DOCKED: USER    Estimated Free Energy of Binding    =   +2.92 kcal/mol  [=(1)+(2)+(3)-(4)]
DOCKED: USER    
DOCKED: USER    (1) Final Intermolecular Energy     =   -4.24 kcal/mol
DOCKED: USER        vdW + Hbond + desolv Energy     =   -4.02 kcal/mol
DOCKED: USER        Electrostatic Energy            =   -0.22 kcal/mol
DOCKED: USER    (2) Final Total Internal Energy     =  -11.14 kcal/mol
DOCKED: USER    (3) Torsional Free Energy           =   +7.16 kcal/mol
DOCKED: USER    (4) Unbound System's Energy  [=(2)] =  -11.14 kcal/mol
DOCKED: USER    
DOCKED: USER    
DOCKED: USER    NEWDPF move IHP_ideal_opt.pdbqt
DOCKED: USER    NEWDPF about 0.035000 0.082000 -0.065000
DOCKED: USER    NEWDPF tran0 -8.970050 10.994518 -17.162594
DOCKED: USER    NEWDPF quaternion0 -0.392524 0.070735 -0.319469 -0.859570
DOCKED: USER    NEWDPF axisangle0 -0.768122 0.138420 -0.625162 -61.463321
DOCKED: USER    NEWDPF quat0 -0.768122 0.138420 -0.625162 -61.463321
DOCKED: USER    NEWDPF dihe0 -12.28 96.76 27.26 85.35 -29.32 53.67 -178.83 -111.66 15.94 -113.78 -29.72 -74.17 -56.59 -25.92 -70.81 -50.38 -85.92 -115.27 43.67 11.94 -169.73 143.18 -178.71 156.03 
DOCKED: USER  keepresnum = 1 
DOCKED: USER  
DOCKED: REMARK  24 active torsions:
DOCKED: REMARK  status: ('A' for Active; 'I' for Inactive)
DOCKED: REMARK    1  A    between atoms: C_1  and  O_7 
DOCKED: REMARK    2  A    between atoms: C_2  and  O_12 
DOCKED: REMARK    3  A    between atoms: C_3  and  O_17 
DOCKED: REMARK    4  A    between atoms: C_4  and  O_22 
DOCKED: REMARK    5  A    between atoms: C_5  and  O_27 
DOCKED: REMARK    6  A    between atoms: C_6  and  O_32 
DOCKED: REMARK    7  A    between atoms: O_7  and  P_8 
DOCKED: REMARK    8  A    between atoms: P_8  and  O_10 
DOCKED: REMARK    9  A    between atoms: P_8  and  O_11 
DOCKED: REMARK   10  A    between atoms: O_12  and  P_13 
DOCKED: REMARK   11  A    between atoms: P_13  and  O_15 
DOCKED: REMARK   12  A    between atoms: P_13  and  O_16 
DOCKED: REMARK   13  A    between atoms: O_17  and  P_18 
DOCKED: REMARK   14  A    between atoms: P_18  and  O_20 
DOCKED: REMARK   15  A    between atoms: P_18  and  O_21 
DOCKED: REMARK   16  A    between atoms: O_22  and  P_23 
DOCKED: REMARK   17  A    between atoms: P_23  and  O_25 
DOCKED: REMARK   18  A    between atoms: P_23  and  O_26 
DOCKED: REMARK   19  A    between atoms: O_27  and  P_28 
DOCKED: REMARK   20  A    between atoms: P_28  and  O_30 
DOCKED: REMARK   21  A    between atoms: P_28  and  O_31 
DOCKED: REMARK   22  A    between atoms: O_32  and  P_33 
DOCKED: REMARK   23  A    between atoms: P_33  and  O_35 
DOCKED: REMARK   24  A    between atoms: P_33  and  O_36 
DOCKED: USER                              x       y       z     vdW  Elec       q    Type
DOCKED: USER                           _______ _______ _______ _____ _____    ______ ____
DOCKED: ROOT
DOCKED: ATOM      1  C   UNL d   1      -8.129  10.302 -15.822 -0.13 +0.00    +0.194 C 
DOCKED: ATOM      2  C   UNL d   1      -9.644  10.432 -15.656 -0.08 +0.00    +0.194 C 
DOCKED: ATOM      3  C   UNL d   1     -10.156  11.783 -16.161 -0.03 +0.00    +0.194 C 
DOCKED: ATOM      4  C   UNL d   1      -9.701  12.105 -17.582 -0.02 +0.01    +0.194 C 
DOCKED: ATOM      5  C   UNL d   1      -8.214  11.879 -17.824 -0.06 +0.01    +0.194 C 
DOCKED: ATOM      6  C   UNL d   1      -7.690  10.554 -17.265 -0.12 +0.01    +0.194 C 
DOCKED: ENDROOT
DOCKED: BRANCH   1   7
DOCKED: ATOM      7  O   UNL d   1      -7.758   8.961 -15.492 -0.15 +0.00    -0.278 OA
DOCKED: BRANCH   7   8
DOCKED: ATOM      8  P   UNL d   1      -7.644   8.563 -13.949 -0.21 -0.10    +0.473 P 
DOCKED: ATOM      9  O   UNL d   1      -7.832   9.686 -12.992 -0.11 +0.03    -0.228 OA
DOCKED: BRANCH   8  10
DOCKED: ATOM     10  O   UNL d   1      -8.721   7.399 -13.770 -0.20 +0.07    -0.303 OA
DOCKED: ATOM     11  H   UNL d   1      -8.832   7.199 -12.822 -0.41 -0.12    +0.222 HD
DOCKED: ENDBRANCH   8  10
DOCKED: BRANCH   8  12
DOCKED: ATOM     12  O   UNL d   1      -6.273   7.769 -13.828 -0.42 +0.14    -0.303 OA
DOCKED: ATOM     13  H   UNL d   1      -5.511   8.254 -14.218 -0.41 -0.17    +0.222 HD
DOCKED: ENDBRANCH   8  12
DOCKED: ENDBRANCH   7   8
DOCKED: ENDBRANCH   1   7
DOCKED: BRANCH   2  14
DOCKED: ATOM     14  O   UNL d   1     -10.287   9.392 -16.404 -0.08 -0.02    -0.278 OA
DOCKED: BRANCH  14  15
DOCKED: ATOM     15  P   UNL d   1     -11.606   8.755 -15.756 -0.05 +0.02    +0.473 P 
DOCKED: ATOM     16  O   UNL d   1     -12.424   9.651 -14.880 -0.02 -0.00    -0.228 OA
DOCKED: BRANCH  15  17
DOCKED: ATOM     17  O   UNL d   1     -12.423   8.200 -17.006 -0.05 -0.01    -0.303 OA
DOCKED: ATOM     18  H   UNL d   1     -12.758   8.932 -17.560 +0.02 +0.01    +0.222 HD
DOCKED: ENDBRANCH  15  17
DOCKED: BRANCH  15  19
DOCKED: ATOM     19  O   UNL d   1     -11.103   7.406 -15.079 -0.10 -0.01    -0.303 OA
DOCKED: ATOM     20  H   UNL d   1     -10.158   7.451 -14.844 +0.05 +0.01    +0.222 HD
DOCKED: ENDBRANCH  15  19
DOCKED: ENDBRANCH  14  15
DOCKED: ENDBRANCH   2  14
DOCKED: BRANCH   6  21
DOCKED: ATOM     21  O   UNL d   1      -6.267  10.644 -17.259 -0.18 -0.01    -0.278 OA
DOCKED: BRANCH  21  22
DOCKED: ATOM     22  P   UNL d   1      -5.518  11.266 -15.996 -0.20 -0.04    +0.473 P 
DOCKED: ATOM     23  O   UNL d   1      -6.113  12.469 -15.345 -0.08 +0.00    -0.228 OA
DOCKED: BRANCH  22  24
DOCKED: ATOM     24  O   UNL d   1      -5.372   9.997 -15.046 -0.16 +0.10    -0.303 OA
DOCKED: ATOM     25  H   UNL d   1      -6.131  10.000 -14.408 +0.07 -0.05    +0.222 HD
DOCKED: ENDBRANCH  22  24
DOCKED: BRANCH  22  26
DOCKED: ATOM     26  O   UNL d   1      -4.024  11.435 -16.553 -0.34 +0.04    -0.303 OA
DOCKED: ATOM     27  H   UNL d   1      -3.412  10.911 -15.998 -0.39 -0.11    +0.222 HD
DOCKED: ENDBRANCH  22  26
DOCKED: ENDBRANCH  21  22
DOCKED: ENDBRANCH   6  21
DOCKED: BRANCH   3  28
DOCKED: ATOM     28  O   UNL d   1     -11.574  11.707 -16.227 -0.01 -0.01    -0.278 OA
DOCKED: BRANCH  28  29
DOCKED: ATOM     29  P   UNL d   1     -12.309  11.591 -17.635 -0.01 +0.01    +0.473 P 
DOCKED: ATOM     30  O   UNL d   1     -12.390  12.849 -18.420 -0.00 -0.01    -0.228 OA
DOCKED: BRANCH  29  31
DOCKED: ATOM     31  O   UNL d   1     -11.483  10.383 -18.282 -0.03 -0.01    -0.303 OA
DOCKED: ATOM     32  H   UNL d   1     -11.155  10.665 -19.167 +0.01 +0.01    +0.222 HD
DOCKED: ENDBRANCH  29  31
DOCKED: BRANCH  29  33
DOCKED: ATOM     33  O   UNL d   1     -13.687  10.900 -17.236 -0.00 -0.00    -0.303 OA
DOCKED: ATOM     34  H   UNL d   1     -13.497  10.082 -16.716 +0.01 +0.00    +0.222 HD
DOCKED: ENDBRANCH  29  33
DOCKED: ENDBRANCH  28  29
DOCKED: ENDBRANCH   3  28
DOCKED: BRANCH   5  35
DOCKED: ATOM     35  O   UNL d   1      -8.056  11.828 -19.241 -0.03 -0.02    -0.278 OA
DOCKED: BRANCH  35  36
DOCKED: ATOM     36  P   UNL d   1      -9.022  10.918 -20.126 -0.03 +0.03    +0.473 P 
DOCKED: ATOM     37  O   UNL d   1      -9.332   9.568 -19.561 -0.10 -0.02    -0.228 OA
DOCKED: BRANCH  36  38
DOCKED: ATOM     38  O   UNL d   1     -10.292  11.863 -20.299 -0.01 -0.01    -0.303 OA
DOCKED: ATOM     39  H   UNL d   1     -10.603  12.148 -19.413 +0.01 +0.01    +0.222 HD
DOCKED: ENDBRANCH  36  38
DOCKED: BRANCH  36  40
DOCKED: ATOM     40  O   UNL d   1      -8.316  10.959 -21.551 -0.01 -0.02    -0.303 OA
DOCKED: ATOM     41  H   UNL d   1      -8.954  10.786 -22.278 +0.01 +0.01    +0.222 HD
DOCKED: ENDBRANCH  36  40
DOCKED: ENDBRANCH  35  36
DOCKED: ENDBRANCH   5  35
DOCKED: BRANCH   4  42
DOCKED: ATOM     42  O   UNL d   1      -9.954  13.498 -17.793 -0.00 -0.01    -0.278 OA
DOCKED: BRANCH  42  43
DOCKED: ATOM     43  P   UNL d   1      -9.550  14.537 -16.652 -0.00 +0.02    +0.473 P 
DOCKED: ATOM     44  O   UNL d   1     -10.339  14.510 -15.388 -0.00 -0.01    -0.228 OA
DOCKED: BRANCH  43  45
DOCKED: ATOM     45  O   UNL d   1      -7.997  14.253 -16.456 -0.01 -0.02    -0.303 OA
DOCKED: ATOM     46  H   UNL d   1      -7.828  13.725 -15.650 +0.02 +0.01    +0.222 HD
DOCKED: ENDBRANCH  43  45
DOCKED: BRANCH  43  47
DOCKED: ATOM     47  O   UNL d   1      -9.530  15.941 -17.425 -0.00 -0.02    -0.303 OA
DOCKED: ATOM     48  H   UNL d   1     -10.329  16.454 -17.184 +0.00 +0.01    +0.222 HD
DOCKED: ENDBRANCH  43  47
DOCKED: ENDBRANCH  42  43
DOCKED: ENDBRANCH   4  42
DOCKED: TORSDOF 24
DOCKED: TER
DOCKED: ENDMDL
________________________________________________________________________________


	BEGINNING GENETIC ALGORITHM DOCKING 94 of 100
Run: 94 Seed: 523157523 1658966053 [ Run 94 of 100 GA/GALS ]
Beginning LAMARCKIAN GENETIC ALGORITHM (LGA), with a maximum of 25000000 energy evaluations.

Final-Value: -20.011


	FINAL GENETIC ALGORITHM DOCKED STATE
	_______________________________________________


Detailed state:  trans 10.955 -10.944 3.984 quatxyzw 0.636678 0.192424 -0.724719 -0.179990 center 0.035 0.082 -0.065 ntor 24 67.2516 27.3589 49.5593 84.2035 -14.1175 -168.8155 -148.8781 44.6834 -5.6160 19.4184 136.2876 131.2697 -173.4249 124.3366 16.0546 32.4392 -176.6026 59.9606 12.5670 -14.1265 158.2234 168.6972 -31.1615 -9.7675
State:	 10.955 -10.944   3.984   0.647  0.196 -0.737 -159.262     67.25   27.36   49.56   84.20  -14.12 -168.82 -148.88   44.68   -5.62   19.42  136.29  131.27 -173.42  124.34   16.05   32.44 -176.60   59.96   12.57  -14.13  158.22  168.70  -31.16   -9.77

DOCKED: MODEL       94
DOCKED: USER    Run = 94
DOCKED: USER    DPF = D:/Protein_go_brrr/autodock/final/mut_N102T/IHP/dock.dpf
DOCKED: USER  
DOCKED: USER    Estimated Free Energy of Binding    =   +1.40 kcal/mol  [=(1)+(2)+(3)-(4)]
DOCKED: USER    
DOCKED: USER    (1) Final Intermolecular Energy     =   -5.76 kcal/mol
DOCKED: USER        vdW + Hbond + desolv Energy     =   -5.53 kcal/mol
DOCKED: USER        Electrostatic Energy            =   -0.23 kcal/mol
DOCKED: USER    (2) Final Total Internal Energy     =  -14.25 kcal/mol
DOCKED: USER    (3) Torsional Free Energy           =   +7.16 kcal/mol
DOCKED: USER    (4) Unbound System's Energy  [=(2)] =  -14.25 kcal/mol
DOCKED: USER    
DOCKED: USER    
DOCKED: USER    NEWDPF move IHP_ideal_opt.pdbqt
DOCKED: USER    NEWDPF about 0.035000 0.082000 -0.065000
DOCKED: USER    NEWDPF tran0 10.954517 -10.944387 3.984179
DOCKED: USER    NEWDPF quaternion0 0.636678 0.192424 -0.724719 -0.179990
DOCKED: USER    NEWDPF axisangle0 0.647248 0.195619 -0.736752 -159.261678
DOCKED: USER    NEWDPF quat0 0.647248 0.195619 -0.736752 -159.261678
DOCKED: USER    NEWDPF dihe0 67.25 27.36 49.56 84.20 -14.12 -168.82 -148.88 44.68 -5.62 19.42 136.29 131.27 -173.42 124.34 16.05 32.44 -176.60 59.96 12.57 -14.13 158.22 168.70 -31.16 -9.77 
DOCKED: USER  keepresnum = 1 
DOCKED: USER  
DOCKED: REMARK  24 active torsions:
DOCKED: REMARK  status: ('A' for Active; 'I' for Inactive)
DOCKED: REMARK    1  A    between atoms: C_1  and  O_7 
DOCKED: REMARK    2  A    between atoms: C_2  and  O_12 
DOCKED: REMARK    3  A    between atoms: C_3  and  O_17 
DOCKED: REMARK    4  A    between atoms: C_4  and  O_22 
DOCKED: REMARK    5  A    between atoms: C_5  and  O_27 
DOCKED: REMARK    6  A    between atoms: C_6  and  O_32 
DOCKED: REMARK    7  A    between atoms: O_7  and  P_8 
DOCKED: REMARK    8  A    between atoms: P_8  and  O_10 
DOCKED: REMARK    9  A    between atoms: P_8  and  O_11 
DOCKED: REMARK   10  A    between atoms: O_12  and  P_13 
DOCKED: REMARK   11  A    between atoms: P_13  and  O_15 
DOCKED: REMARK   12  A    between atoms: P_13  and  O_16 
DOCKED: REMARK   13  A    between atoms: O_17  and  P_18 
DOCKED: REMARK   14  A    between atoms: P_18  and  O_20 
DOCKED: REMARK   15  A    between atoms: P_18  and  O_21 
DOCKED: REMARK   16  A    between atoms: O_22  and  P_23 
DOCKED: REMARK   17  A    between atoms: P_23  and  O_25 
DOCKED: REMARK   18  A    between atoms: P_23  and  O_26 
DOCKED: REMARK   19  A    between atoms: O_27  and  P_28 
DOCKED: REMARK   20  A    between atoms: P_28  and  O_30 
DOCKED: REMARK   21  A    between atoms: P_28  and  O_31 
DOCKED: REMARK   22  A    between atoms: O_32  and  P_33 
DOCKED: REMARK   23  A    between atoms: P_33  and  O_35 
DOCKED: REMARK   24  A    between atoms: P_33  and  O_36 
DOCKED: USER                              x       y       z     vdW  Elec       q    Type
DOCKED: USER                           _______ _______ _______ _____ _____    ______ ____
DOCKED: ROOT
DOCKED: ATOM      1  C   UNL d   1       9.674 -10.601   2.876 -0.22 -0.01    +0.194 C 
DOCKED: ATOM      2  C   UNL d   1       9.738  -9.702   4.112 -0.21 +0.01    +0.194 C 
DOCKED: ATOM      3  C   UNL d   1      10.017 -10.505   5.384 -0.23 +0.03    +0.194 C 
DOCKED: ATOM      4  C   UNL d   1      11.240 -11.411   5.266 -0.12 +0.02    +0.194 C 
DOCKED: ATOM      5  C   UNL d   1      11.275 -12.244   3.991 -0.12 +0.01    +0.194 C 
DOCKED: ATOM      6  C   UNL d   1      10.935 -11.453   2.726 -0.10 -0.02    +0.194 C 
DOCKED: ENDROOT
DOCKED: BRANCH   1   7
DOCKED: ATOM      7  O   UNL d   1       9.584  -9.766   1.720 -0.15 +0.06    -0.278 OA
DOCKED: BRANCH   7   8
DOCKED: ATOM      8  P   UNL d   1       8.207  -9.735   0.911 -0.30 -0.11    +0.473 P 
DOCKED: ATOM      9  O   UNL d   1       8.308 -10.125  -0.522 -0.42 +0.09    -0.228 OA
DOCKED: BRANCH   8  10
DOCKED: ATOM     10  O   UNL d   1       7.242 -10.686   1.753 -0.43 +0.03    -0.303 OA
DOCKED: ATOM     11  H   UNL d   1       7.314 -11.601   1.422 -0.43 -0.08    +0.222 HD
DOCKED: ENDBRANCH   8  10
DOCKED: BRANCH   8  12
DOCKED: ATOM     12  O   UNL d   1       7.591  -8.299   1.197 -0.21 +0.03    -0.303 OA
DOCKED: ATOM     13  H   UNL d   1       7.988  -7.859   1.982 +0.14 -0.01    +0.222 HD
DOCKED: ENDBRANCH   8  12
DOCKED: ENDBRANCH   7   8
DOCKED: ENDBRANCH   1   7
DOCKED: BRANCH   2  14
DOCKED: ATOM     14  O   UNL d   1      10.788  -8.743   3.938 -0.08 -0.02    -0.278 OA
DOCKED: BRANCH  14  15
DOCKED: ATOM     15  P   UNL d   1      10.352  -7.202   3.900 -0.12 +0.08    +0.473 P 
DOCKED: ATOM     16  O   UNL d   1      11.447  -6.198   3.722 -0.15 -0.05    -0.228 OA
DOCKED: BRANCH  15  17
DOCKED: ATOM     17  O   UNL d   1       9.260  -7.137   2.742 -0.16 -0.00    -0.303 OA
DOCKED: ATOM     18  H   UNL d   1       9.561  -7.618   1.947 +0.12 -0.04    +0.222 HD
DOCKED: ENDBRANCH  15  17
DOCKED: BRANCH  15  19
DOCKED: ATOM     19  O   UNL d   1       9.452  -7.013   5.199 -0.12 -0.12    -0.303 OA
DOCKED: ATOM     20  H   UNL d   1       9.666  -7.673   5.884 +0.08 +0.10    +0.222 HD
DOCKED: ENDBRANCH  15  19
DOCKED: ENDBRANCH  14  15
DOCKED: ENDBRANCH   2  14
DOCKED: BRANCH   6  21
DOCKED: ATOM     21  O   UNL d   1      10.674 -12.409   1.700 -0.08 +0.04    -0.278 OA
DOCKED: BRANCH  21  22
DOCKED: ATOM     22  P   UNL d   1       9.559 -13.527   1.925 -0.19 -0.07    +0.473 P 
DOCKED: ATOM     23  O   UNL d   1       8.239 -13.105   2.478 -0.59 +0.01    -0.228 OA
DOCKED: BRANCH  22  24
DOCKED: ATOM     24  O   UNL d   1       9.492 -14.213   0.490 -0.17 +0.09    -0.303 OA
DOCKED: ATOM     25  H   UNL d   1       8.935 -13.642  -0.099 -0.42 -0.13    +0.222 HD
DOCKED: ENDBRANCH  22  24
DOCKED: BRANCH  22  26
DOCKED: ATOM     26  O   UNL d   1      10.361 -14.621   2.778 -0.12 -0.01    -0.303 OA
DOCKED: ATOM     27  H   UNL d   1      11.169 -14.211   3.150 +0.05 +0.02    +0.222 HD
DOCKED: ENDBRANCH  22  26
DOCKED: ENDBRANCH  21  22
DOCKED: ENDBRANCH   6  21
DOCKED: BRANCH   3  28
DOCKED: ATOM     28  O   UNL d   1      10.332  -9.578   6.415 -0.13 -0.07    -0.278 OA
DOCKED: BRANCH  28  29
DOCKED: ATOM     29  P   UNL d   1      11.796  -8.959   6.520 -0.05 +0.16    +0.473 P 
DOCKED: ATOM     30  O   UNL d   1      12.717  -9.298   5.405 -0.02 -0.04    -0.228 OA
DOCKED: BRANCH  29  31
DOCKED: ATOM     31  O   UNL d   1      11.431  -7.413   6.717 -0.20 -0.26    -0.303 OA
DOCKED: ATOM     32  H   UNL d   1      11.490  -6.963   5.842 +0.05 +0.17    +0.222 HD
DOCKED: ENDBRANCH  29  31
DOCKED: BRANCH  29  33
DOCKED: ATOM     33  O   UNL d   1      12.242  -9.403   7.983 -0.03 -0.10    -0.303 OA
DOCKED: ATOM     34  H   UNL d   1      12.877 -10.157   7.910 +0.03 +0.05    +0.222 HD
DOCKED: ENDBRANCH  29  33
DOCKED: ENDBRANCH  28  29
DOCKED: ENDBRANCH   3  28
DOCKED: BRANCH   5  35
DOCKED: ATOM     35  O   UNL d   1      12.623 -12.690   3.857 -0.03 -0.00    -0.278 OA
DOCKED: BRANCH  35  36
DOCKED: ATOM     36  P   UNL d   1      13.031 -14.164   4.310 -0.05 +0.02    +0.473 P 
DOCKED: ATOM     37  O   UNL d   1      14.257 -14.261   5.162 -0.01 -0.00    -0.228 OA
DOCKED: BRANCH  36  38
DOCKED: ATOM     38  O   UNL d   1      11.698 -14.667   5.021 -0.30 -0.07    -0.303 OA
DOCKED: ATOM     39  H   UNL d   1      11.626 -14.244   5.904 +0.04 +0.04    +0.222 HD
DOCKED: ENDBRANCH  36  38
DOCKED: BRANCH  36  40
DOCKED: ATOM     40  O   UNL d   1      13.049 -14.952   2.929 -0.02 +0.00    -0.303 OA
DOCKED: ATOM     41  H   UNL d   1      12.500 -14.504   2.247 +0.03 -0.01    +0.222 HD
DOCKED: ENDBRANCH  36  40
DOCKED: ENDBRANCH  35  36
DOCKED: ENDBRANCH   5  35
DOCKED: BRANCH   4  42
DOCKED: ATOM     42  O   UNL d   1      11.185 -12.327   6.365 +0.02 -0.04    -0.278 OA
DOCKED: BRANCH  42  43
DOCKED: ATOM     43  P   UNL d   1      12.396 -12.360   7.403 -0.03 +0.06    +0.473 P 
DOCKED: ATOM     44  O   UNL d   1      12.169 -11.748   8.742 -0.04 -0.04    -0.228 OA
DOCKED: BRANCH  43  45
DOCKED: ATOM     45  O   UNL d   1      12.774 -13.905   7.450 -0.04 -0.02    -0.303 OA
DOCKED: ATOM     46  H   UNL d   1      13.088 -14.223   6.580 +0.02 +0.01    +0.222 HD
DOCKED: ENDBRANCH  43  45
DOCKED: BRANCH  43  47
DOCKED: ATOM     47  O   UNL d   1      13.617 -11.751   6.562 -0.01 -0.03    -0.303 OA
DOCKED: ATOM     48  H   UNL d   1      13.675 -12.211   5.699 +0.02 +0.01    +0.222 HD
DOCKED: ENDBRANCH  43  47
DOCKED: ENDBRANCH  42  43
DOCKED: ENDBRANCH   4  42
DOCKED: TORSDOF 24
DOCKED: TER
DOCKED: ENDMDL
________________________________________________________________________________


	BEGINNING GENETIC ALGORITHM DOCKING 95 of 100
Run: 95 Seed: 1966264251 417698747 [ Run 95 of 100 GA/GALS ]
Beginning LAMARCKIAN GENETIC ALGORITHM (LGA), with a maximum of 25000000 energy evaluations.

Final-Value: -19.593


	FINAL GENETIC ALGORITHM DOCKED STATE
	_______________________________________________


Detailed state:  trans 11.702 13.091 -11.324 quatxyzw -0.780674 -0.274641 -0.103865 0.551663 center 0.035 0.082 -0.065 ntor 24 126.9392 58.4954 172.9099 5.8178 -30.5618 -152.7036 42.4515 -123.3249 -13.5688 102.1964 62.3464 -97.8907 -27.6086 75.1441 -31.6140 -101.4880 -80.2052 -8.8642 23.7523 -36.4616 168.4357 32.8924 10.1394 -25.6246
State:	 11.702  13.091 -11.324  -0.936 -0.329 -0.125 113.038    126.94   58.50  172.91    5.82  -30.56 -152.70   42.45 -123.32  -13.57  102.20   62.35  -97.89  -27.61   75.14  -31.61 -101.49  -80.21   -8.86   23.75  -36.46  168.44   32.89   10.14  -25.62

DOCKED: MODEL       95
DOCKED: USER    Run = 95
DOCKED: USER    DPF = D:/Protein_go_brrr/autodock/final/mut_N102T/IHP/dock.dpf
DOCKED: USER  
DOCKED: USER    Estimated Free Energy of Binding    =   +1.68 kcal/mol  [=(1)+(2)+(3)-(4)]
DOCKED: USER    
DOCKED: USER    (1) Final Intermolecular Energy     =   -5.48 kcal/mol
DOCKED: USER        vdW + Hbond + desolv Energy     =   -5.08 kcal/mol
DOCKED: USER        Electrostatic Energy            =   -0.39 kcal/mol
DOCKED: USER    (2) Final Total Internal Energy     =  -14.12 kcal/mol
DOCKED: USER    (3) Torsional Free Energy           =   +7.16 kcal/mol
DOCKED: USER    (4) Unbound System's Energy  [=(2)] =  -14.12 kcal/mol
DOCKED: USER    
DOCKED: USER    
DOCKED: USER    NEWDPF move IHP_ideal_opt.pdbqt
DOCKED: USER    NEWDPF about 0.035000 0.082000 -0.065000
DOCKED: USER    NEWDPF tran0 11.702308 13.091192 -11.323939
DOCKED: USER    NEWDPF quaternion0 -0.780674 -0.274641 -0.103865 0.551663
DOCKED: USER    NEWDPF axisangle0 -0.935985 -0.329280 -0.124528 113.037651
DOCKED: USER    NEWDPF quat0 -0.935985 -0.329280 -0.124528 113.037651
DOCKED: USER    NEWDPF dihe0 126.94 58.50 172.91 5.82 -30.56 -152.70 42.45 -123.32 -13.57 102.20 62.35 -97.89 -27.61 75.14 -31.61 -101.49 -80.21 -8.86 23.75 -36.46 168.44 32.89 10.14 -25.62 
DOCKED: USER  keepresnum = 1 
DOCKED: USER  
DOCKED: REMARK  24 active torsions:
DOCKED: REMARK  status: ('A' for Active; 'I' for Inactive)
DOCKED: REMARK    1  A    between atoms: C_1  and  O_7 
DOCKED: REMARK    2  A    between atoms: C_2  and  O_12 
DOCKED: REMARK    3  A    between atoms: C_3  and  O_17 
DOCKED: REMARK    4  A    between atoms: C_4  and  O_22 
DOCKED: REMARK    5  A    between atoms: C_5  and  O_27 
DOCKED: REMARK    6  A    between atoms: C_6  and  O_32 
DOCKED: REMARK    7  A    between atoms: O_7  and  P_8 
DOCKED: REMARK    8  A    between atoms: P_8  and  O_10 
DOCKED: REMARK    9  A    between atoms: P_8  and  O_11 
DOCKED: REMARK   10  A    between atoms: O_12  and  P_13 
DOCKED: REMARK   11  A    between atoms: P_13  and  O_15 
DOCKED: REMARK   12  A    between atoms: P_13  and  O_16 
DOCKED: REMARK   13  A    between atoms: O_17  and  P_18 
DOCKED: REMARK   14  A    between atoms: P_18  and  O_20 
DOCKED: REMARK   15  A    between atoms: P_18  and  O_21 
DOCKED: REMARK   16  A    between atoms: O_22  and  P_23 
DOCKED: REMARK   17  A    between atoms: P_23  and  O_25 
DOCKED: REMARK   18  A    between atoms: P_23  and  O_26 
DOCKED: REMARK   19  A    between atoms: O_27  and  P_28 
DOCKED: REMARK   20  A    between atoms: P_28  and  O_30 
DOCKED: REMARK   21  A    between atoms: P_28  and  O_31 
DOCKED: REMARK   22  A    between atoms: O_32  and  P_33 
DOCKED: REMARK   23  A    between atoms: P_33  and  O_35 
DOCKED: REMARK   24  A    between atoms: P_33  and  O_36 
DOCKED: USER                              x       y       z     vdW  Elec       q    Type
DOCKED: USER                           _______ _______ _______ _____ _____    ______ ____
DOCKED: ROOT
DOCKED: ATOM      1  C   UNL d   1      12.828  13.349 -12.608 +0.00 -0.02    +0.194 C 
DOCKED: ATOM      2  C   UNL d   1      11.371  13.161 -13.035 -0.01 -0.03    +0.194 C 
DOCKED: ATOM      3  C   UNL d   1      10.697  12.024 -12.263 -0.04 -0.04    +0.194 C 
DOCKED: ATOM      4  C   UNL d   1      10.844  12.155 -10.749 -0.04 -0.05    +0.194 C 
DOCKED: ATOM      5  C   UNL d   1      12.263  12.458 -10.287 -0.02 -0.05    +0.194 C 
DOCKED: ATOM      6  C   UNL d   1      12.959  13.553 -11.098 +0.01 -0.03    +0.194 C 
DOCKED: ENDROOT
DOCKED: BRANCH   1   7
DOCKED: ATOM      7  O   UNL d   1      13.330  14.529 -13.242 +0.00 +0.03    -0.278 OA
DOCKED: BRANCH   7   8
DOCKED: ATOM      8  P   UNL d   1      14.202  14.364 -14.570 +0.00 -0.03    +0.473 P 
DOCKED: ATOM      9  O   UNL d   1      13.963  13.108 -15.331 -0.00 +0.01    -0.228 OA
DOCKED: BRANCH   8  10
DOCKED: ATOM     10  O   UNL d   1      13.876  15.680 -15.412 +0.00 +0.02    -0.303 OA
DOCKED: ATOM     11  H   UNL d   1      12.965  15.972 -15.222 +0.00 -0.01    +0.222 HD
DOCKED: ENDBRANCH   8  10
DOCKED: BRANCH   8  12
DOCKED: ATOM     12  O   UNL d   1      15.702  14.625 -14.114 +0.00 +0.02    -0.303 OA
DOCKED: ATOM     13  H   UNL d   1      15.814  14.617 -13.137 +0.00 -0.02    +0.222 HD
DOCKED: ENDBRANCH   8  12
DOCKED: ENDBRANCH   7   8
DOCKED: ENDBRANCH   1   7
DOCKED: BRANCH   2  14
DOCKED: ATOM     14  O   UNL d   1      10.650  14.374 -12.782 +0.00 +0.04    -0.278 OA
DOCKED: BRANCH  14  15
DOCKED: ATOM     15  P   UNL d   1      10.507  15.391 -14.011 +0.00 -0.06    +0.473 P 
DOCKED: ATOM     16  O   UNL d   1       9.133  15.909 -14.297 -0.00 +0.03    -0.228 OA
DOCKED: BRANCH  15  17
DOCKED: ATOM     17  O   UNL d   1      11.547  16.550 -13.678 +0.00 +0.03    -0.303 OA
DOCKED: ATOM     18  H   UNL d   1      12.462  16.269 -13.873 +0.00 -0.02    +0.222 HD
DOCKED: ENDBRANCH  15  17
DOCKED: BRANCH  15  19
DOCKED: ATOM     19  O   UNL d   1      11.228  14.653 -15.222 +0.00 +0.03    -0.303 OA
DOCKED: ATOM     20  H   UNL d   1      12.137  14.387 -14.992 +0.00 -0.02    +0.222 HD
DOCKED: ENDBRANCH  15  19
DOCKED: ENDBRANCH  14  15
DOCKED: ENDBRANCH   2  14
DOCKED: BRANCH   6  21
DOCKED: ATOM     21  O   UNL d   1      14.348  13.478 -10.785 +0.00 +0.04    -0.278 OA
DOCKED: BRANCH  21  22
DOCKED: ATOM     22  P   UNL d   1      15.189  12.193 -11.216 +0.01 -0.05    +0.473 P 
DOCKED: ATOM     23  O   UNL d   1      14.475  11.085 -11.913 -0.01 +0.03    -0.228 OA
DOCKED: BRANCH  22  24
DOCKED: ATOM     24  O   UNL d   1      16.379  12.847 -12.047 +0.00 +0.02    -0.303 OA
DOCKED: ATOM     25  H   UNL d   1      16.144  12.804 -13.008 +0.00 -0.02    +0.222 HD
DOCKED: ENDBRANCH  22  24
DOCKED: BRANCH  22  26
DOCKED: ATOM     26  O   UNL d   1      15.918  11.806  -9.842 +0.00 +0.04    -0.303 OA
DOCKED: ATOM     27  H   UNL d   1      15.330  12.028  -9.092 +0.02 -0.03    +0.222 HD
DOCKED: ENDBRANCH  22  26
DOCKED: ENDBRANCH  21  22
DOCKED: ENDBRANCH   6  21
DOCKED: BRANCH   3  28
DOCKED: ATOM     28  O   UNL d   1       9.300  12.104 -12.516 -0.05 +0.07    -0.278 OA
DOCKED: BRANCH  28  29
DOCKED: ATOM     29  P   UNL d   1       8.431  10.777 -12.659 -0.09 -0.13    +0.473 P 
DOCKED: ATOM     30  O   UNL d   1       7.603  10.684 -13.889 -0.23 +0.08    -0.228 OA
DOCKED: BRANCH  29  31
DOCKED: ATOM     31  O   UNL d   1       9.574   9.673 -12.468 -0.20 +0.09    -0.303 OA
DOCKED: ATOM     32  H   UNL d   1       9.600   9.410 -11.519 -0.40 -0.12    +0.222 HD
DOCKED: ENDBRANCH  29  31
DOCKED: BRANCH  29  33
DOCKED: ATOM     33  O   UNL d   1       7.661  10.731 -11.267 -0.24 +0.09    -0.303 OA
DOCKED: ATOM     34  H   UNL d   1       8.320  10.617 -10.539 +0.12 -0.07    +0.222 HD
DOCKED: ENDBRANCH  29  33
DOCKED: ENDBRANCH  28  29
DOCKED: ENDBRANCH   3  28
DOCKED: BRANCH   5  35
DOCKED: ATOM     35  O   UNL d   1      12.140  12.940  -8.950 -0.04 +0.11    -0.278 OA
DOCKED: BRANCH  35  36
DOCKED: ATOM     36  P   UNL d   1      13.205  12.515  -7.841 -0.05 -0.17    +0.473 P 
DOCKED: ATOM     37  O   UNL d   1      13.728  11.118  -7.950 -0.36 +0.04    -0.228 OA
DOCKED: BRANCH  36  38
DOCKED: ATOM     38  O   UNL d   1      14.316  13.645  -8.006 -0.01 +0.08    -0.303 OA
DOCKED: ATOM     39  H   UNL d   1      14.923  13.394  -8.735 +0.01 -0.04    +0.222 HD
DOCKED: ENDBRANCH  36  38
DOCKED: BRANCH  36  40
DOCKED: ATOM     40  O   UNL d   1      12.462  12.904  -6.490 -0.40 +0.30    -0.303 OA
DOCKED: ATOM     41  H   UNL d   1      11.616  12.413  -6.385 -0.50 -0.50    +0.222 HD
DOCKED: ENDBRANCH  36  40
DOCKED: ENDBRANCH  35  36
DOCKED: ENDBRANCH   5  35
DOCKED: BRANCH   4  42
DOCKED: ATOM     42  O   UNL d   1      10.478  10.891 -10.187 -0.12 +0.09    -0.278 OA
DOCKED: BRANCH  42  43
DOCKED: ATOM     43  P   UNL d   1       9.552  10.863  -8.888 -0.21 -0.21    +0.473 P 
DOCKED: ATOM     44  O   UNL d   1       8.477  11.890  -8.789 -0.72 +0.10    -0.228 OA
DOCKED: BRANCH  43  45
DOCKED: ATOM     45  O   UNL d   1       9.023   9.362  -8.869 -0.89 +0.04    -0.303 OA
DOCKED: ATOM     46  H   UNL d   1       9.236   8.897  -9.703 -0.34 -0.08    +0.222 HD
DOCKED: ENDBRANCH  43  45
DOCKED: BRANCH  43  47
DOCKED: ATOM     47  O   UNL d   1      10.610  10.850  -7.684 -0.07 +0.22    -0.303 OA
DOCKED: ATOM     48  H   UNL d   1      10.924  11.764  -7.521 -0.22 -0.26    +0.222 HD
DOCKED: ENDBRANCH  43  47
DOCKED: ENDBRANCH  42  43
DOCKED: ENDBRANCH   4  42
DOCKED: TORSDOF 24
DOCKED: TER
DOCKED: ENDMDL
________________________________________________________________________________


	BEGINNING GENETIC ALGORITHM DOCKING 96 of 100
Run: 96 Seed: 184579476 808615497 [ Run 96 of 100 GA/GALS ]
Beginning LAMARCKIAN GENETIC ALGORITHM (LGA), with a maximum of 25000000 energy evaluations.

Final-Value: -18.629


	FINAL GENETIC ALGORITHM DOCKED STATE
	_______________________________________________


Detailed state:  trans 2.969 7.557 -22.915 quatxyzw 0.445898 -0.025296 0.471608 0.760342 center 0.035 0.082 -0.065 ntor 24 -131.4100 148.4851 160.3260 7.2870 -10.2276 -149.0585 -19.5747 -132.5914 169.2243 -36.2317 39.1477 -143.5616 108.8401 179.6491 -77.6624 113.4902 43.2941 142.9088 55.3839 8.9700 180.0000 -0.1520 -26.4896 -5.6957
State:	  2.969   7.557 -22.915   0.687 -0.039  0.726 81.011   -131.41  148.49  160.33    7.29  -10.23 -149.06  -19.57 -132.59  169.22  -36.23   39.15 -143.56  108.84  179.65  -77.66  113.49   43.29  142.91   55.38    8.97  180.00   -0.15  -26.49   -5.70

DOCKED: MODEL       96
DOCKED: USER    Run = 96
DOCKED: USER    DPF = D:/Protein_go_brrr/autodock/final/mut_N102T/IHP/dock.dpf
DOCKED: USER  
DOCKED: USER    Estimated Free Energy of Binding    =   +2.22 kcal/mol  [=(1)+(2)+(3)-(4)]
DOCKED: USER    
DOCKED: USER    (1) Final Intermolecular Energy     =   -4.94 kcal/mol
DOCKED: USER        vdW + Hbond + desolv Energy     =   -4.36 kcal/mol
DOCKED: USER        Electrostatic Energy            =   -0.58 kcal/mol
DOCKED: USER    (2) Final Total Internal Energy     =  -13.69 kcal/mol
DOCKED: USER    (3) Torsional Free Energy           =   +7.16 kcal/mol
DOCKED: USER    (4) Unbound System's Energy  [=(2)] =  -13.69 kcal/mol
DOCKED: USER    
DOCKED: USER    
DOCKED: USER    NEWDPF move IHP_ideal_opt.pdbqt
DOCKED: USER    NEWDPF about 0.035000 0.082000 -0.065000
DOCKED: USER    NEWDPF tran0 2.968850 7.557345 -22.914771
DOCKED: USER    NEWDPF quaternion0 0.445898 -0.025296 0.471608 0.760342
DOCKED: USER    NEWDPF axisangle0 0.686501 -0.038945 0.726085 81.011215
DOCKED: USER    NEWDPF quat0 0.686501 -0.038945 0.726085 81.011215
DOCKED: USER    NEWDPF dihe0 -131.41 148.49 160.33 7.29 -10.23 -149.06 -19.57 -132.59 169.22 -36.23 39.15 -143.56 108.84 179.65 -77.66 113.49 43.29 142.91 55.38 8.97 180.00 -0.15 -26.49 -5.70 
DOCKED: USER  keepresnum = 1 
DOCKED: USER  
DOCKED: REMARK  24 active torsions:
DOCKED: REMARK  status: ('A' for Active; 'I' for Inactive)
DOCKED: REMARK    1  A    between atoms: C_1  and  O_7 
DOCKED: REMARK    2  A    between atoms: C_2  and  O_12 
DOCKED: REMARK    3  A    between atoms: C_3  and  O_17 
DOCKED: REMARK    4  A    between atoms: C_4  and  O_22 
DOCKED: REMARK    5  A    between atoms: C_5  and  O_27 
DOCKED: REMARK    6  A    between atoms: C_6  and  O_32 
DOCKED: REMARK    7  A    between atoms: O_7  and  P_8 
DOCKED: REMARK    8  A    between atoms: P_8  and  O_10 
DOCKED: REMARK    9  A    between atoms: P_8  and  O_11 
DOCKED: REMARK   10  A    between atoms: O_12  and  P_13 
DOCKED: REMARK   11  A    between atoms: P_13  and  O_15 
DOCKED: REMARK   12  A    between atoms: P_13  and  O_16 
DOCKED: REMARK   13  A    between atoms: O_17  and  P_18 
DOCKED: REMARK   14  A    between atoms: P_18  and  O_20 
DOCKED: REMARK   15  A    between atoms: P_18  and  O_21 
DOCKED: REMARK   16  A    between atoms: O_22  and  P_23 
DOCKED: REMARK   17  A    between atoms: P_23  and  O_25 
DOCKED: REMARK   18  A    between atoms: P_23  and  O_26 
DOCKED: REMARK   19  A    between atoms: O_27  and  P_28 
DOCKED: REMARK   20  A    between atoms: P_28  and  O_30 
DOCKED: REMARK   21  A    between atoms: P_28  and  O_31 
DOCKED: REMARK   22  A    between atoms: O_32  and  P_33 
DOCKED: REMARK   23  A    between atoms: P_33  and  O_35 
DOCKED: REMARK   24  A    between atoms: P_33  and  O_36 
DOCKED: USER                              x       y       z     vdW  Elec       q    Type
DOCKED: USER                           _______ _______ _______ _____ _____    ______ ____
DOCKED: ROOT
DOCKED: ATOM      1  C   UNL d   1       3.409   7.008 -21.337 -0.10 -0.01    +0.194 C 
DOCKED: ATOM      2  C   UNL d   1       1.990   7.563 -21.472 -0.12 -0.01    +0.194 C 
DOCKED: ATOM      3  C   UNL d   1       1.959   8.841 -22.313 -0.07 -0.01    +0.194 C 
DOCKED: ATOM      4  C   UNL d   1       2.649   8.687 -23.666 -0.01 -0.00    +0.194 C 
DOCKED: ATOM      5  C   UNL d   1       4.022   8.032 -23.591 -0.00 +0.00    +0.194 C 
DOCKED: ATOM      6  C   UNL d   1       4.067   6.788 -22.700 -0.02 +0.01    +0.194 C 
DOCKED: ENDROOT
DOCKED: BRANCH   1   7
DOCKED: ATOM      7  O   UNL d   1       3.331   5.735 -20.692 -0.07 +0.00    -0.278 OA
DOCKED: BRANCH   7   8
DOCKED: ATOM      8  P   UNL d   1       2.863   5.685 -19.165 -0.19 -0.06    +0.473 P 
DOCKED: ATOM      9  O   UNL d   1       2.372   4.360 -18.699 -0.26 +0.02    -0.228 OA
DOCKED: BRANCH   8  10
DOCKED: ATOM     10  O   UNL d   1       4.135   6.204 -18.354 -0.42 +0.05    -0.303 OA
DOCKED: ATOM     11  H   UNL d   1       4.256   7.159 -18.511 -0.49 -0.23    +0.222 HD
DOCKED: ENDBRANCH   8  10
DOCKED: BRANCH   8  12
DOCKED: ATOM     12  O   UNL d   1       1.849   6.898 -19.004 -0.05 +0.07    -0.303 OA
DOCKED: ATOM     13  H   UNL d   1       0.908   6.613 -18.986 -0.45 -0.09    +0.222 HD
DOCKED: ENDBRANCH   8  12
DOCKED: ENDBRANCH   7   8
DOCKED: ENDBRANCH   1   7
DOCKED: BRANCH   2  14
DOCKED: ATOM     14  O   UNL d   1       1.162   6.580 -22.104 -0.04 +0.01    -0.278 OA
DOCKED: BRANCH  14  15
DOCKED: ATOM     15  P   UNL d   1      -0.329   6.429 -21.540 -0.09 -0.01    +0.473 P 
DOCKED: ATOM     16  O   UNL d   1      -0.745   5.061 -21.098 -0.18 -0.01    -0.228 OA
DOCKED: BRANCH  15  17
DOCKED: ATOM     17  O   UNL d   1      -0.412   7.508 -20.370 -0.18 +0.03    -0.303 OA
DOCKED: ATOM     18  H   UNL d   1      -0.320   8.414 -20.721 +0.04 -0.02    +0.222 HD
DOCKED: ENDBRANCH  15  17
DOCKED: BRANCH  15  19
DOCKED: ATOM     19  O   UNL d   1      -1.245   7.097 -22.656 -0.06 -0.01    -0.303 OA
DOCKED: ATOM     20  H   UNL d   1      -0.942   7.997 -22.879 +0.04 +0.00    +0.222 HD
DOCKED: ENDBRANCH  15  19
DOCKED: ENDBRANCH  14  15
DOCKED: ENDBRANCH   2  14
DOCKED: BRANCH   6  21
DOCKED: ATOM     21  O   UNL d   1       5.443   6.503 -22.459 -0.02 -0.04    -0.278 OA
DOCKED: BRANCH  21  22
DOCKED: ATOM     22  P   UNL d   1       6.255   7.366 -21.391 +0.00 +0.25    +0.473 P 
DOCKED: ATOM     23  O   UNL d   1       6.136   8.852 -21.448 -0.13 -0.03    -0.228 OA
DOCKED: BRANCH  22  24
DOCKED: ATOM     24  O   UNL d   1       5.785   6.711 -20.019 +0.10 -0.29    -0.303 OA
DOCKED: ATOM     25  H   UNL d   1       4.871   7.038 -19.819 -0.24 -0.01    +0.222 HD
DOCKED: ENDBRANCH  22  24
DOCKED: BRANCH  22  26
DOCKED: ATOM     26  O   UNL d   1       7.736   6.773 -21.551 -0.54 -0.23    -0.303 OA
DOCKED: ATOM     27  H   UNL d   1       7.900   6.567 -22.494 +0.02 +0.07    +0.222 HD
DOCKED: ENDBRANCH  22  26
DOCKED: ENDBRANCH  21  22
DOCKED: ENDBRANCH   6  21
DOCKED: BRANCH   3  28
DOCKED: ATOM     28  O   UNL d   1       0.598   9.123 -22.613 -0.05 +0.00    -0.278 OA
DOCKED: BRANCH  28  29
DOCKED: ATOM     29  P   UNL d   1      -0.128  10.378 -21.954 -0.12 -0.01    +0.473 P 
DOCKED: ATOM     30  O   UNL d   1       0.014  11.660 -22.691 -0.07 -0.02    -0.228 OA
DOCKED: BRANCH  29  31
DOCKED: ATOM     31  O   UNL d   1      -1.609   9.792 -21.795 -0.13 +0.01    -0.303 OA
DOCKED: ATOM     32  H   UNL d   1      -1.547   8.823 -21.631 +0.06 -0.01    +0.222 HD
DOCKED: ENDBRANCH  29  31
DOCKED: BRANCH  29  33
DOCKED: ATOM     33  O   UNL d   1       0.427  10.340 -20.463 -0.22 +0.04    -0.303 OA
DOCKED: ATOM     34  H   UNL d   1      -0.003   9.593 -19.979 -0.31 -0.06    +0.222 HD
DOCKED: ENDBRANCH  29  33
DOCKED: ENDBRANCH  28  29
DOCKED: ENDBRANCH   3  28
DOCKED: BRANCH   5  35
DOCKED: ATOM     35  O   UNL d   1       4.321   7.607 -24.920 +0.00 -0.00    -0.278 OA
DOCKED: BRANCH  35  36
DOCKED: ATOM     36  P   UNL d   1       5.360   8.425 -25.811 +0.01 +0.01    +0.473 P 
DOCKED: ATOM     37  O   UNL d   1       6.794   8.026 -25.659 +0.00 -0.01    -0.228 OA
DOCKED: BRANCH  36  38
DOCKED: ATOM     38  O   UNL d   1       4.773   8.211 -27.276 +0.00 -0.00    -0.303 OA
DOCKED: ATOM     39  H   UNL d   1       4.253   9.003 -27.532 +0.00 +0.00    +0.222 HD
DOCKED: ENDBRANCH  36  38
DOCKED: BRANCH  36  40
DOCKED: ATOM     40  O   UNL d   1       4.991   9.933 -25.467 +0.00 -0.00    -0.303 OA
DOCKED: ATOM     41  H   UNL d   1       4.183  10.228 -25.943 +0.00 +0.00    +0.222 HD
DOCKED: ENDBRANCH  36  40
DOCKED: ENDBRANCH  35  36
DOCKED: ENDBRANCH   5  35
DOCKED: BRANCH   4  42
DOCKED: ATOM     42  O   UNL d   1       2.841  10.007 -24.186 -0.00 -0.00    -0.278 OA
DOCKED: BRANCH  42  43
DOCKED: ATOM     43  P   UNL d   1       2.104  10.417 -25.540 +0.00 +0.01    +0.473 P 
DOCKED: ATOM     44  O   UNL d   1       2.477  11.721 -26.157 -0.00 -0.01    -0.228 OA
DOCKED: BRANCH  43  45
DOCKED: ATOM     45  O   UNL d   1       2.366   9.156 -26.475 +0.00 -0.00    -0.303 OA
DOCKED: ATOM     46  H   UNL d   1       3.239   8.753 -26.296 +0.00 +0.00    +0.222 HD
DOCKED: ENDBRANCH  43  45
DOCKED: BRANCH  43  47
DOCKED: ATOM     47  O   UNL d   1       0.552  10.240 -25.181 -0.00 -0.01    -0.303 OA
DOCKED: ATOM     48  H   UNL d   1       0.406  10.495 -24.246 +0.02 +0.01    +0.222 HD
DOCKED: ENDBRANCH  43  47
DOCKED: ENDBRANCH  42  43
DOCKED: ENDBRANCH   4  42
DOCKED: TORSDOF 24
DOCKED: TER
DOCKED: ENDMDL
________________________________________________________________________________


	BEGINNING GENETIC ALGORITHM DOCKING 97 of 100
Run: 97 Seed: 397247770 143196633 [ Run 97 of 100 GA/GALS ]
Beginning LAMARCKIAN GENETIC ALGORITHM (LGA), with a maximum of 25000000 energy evaluations.

Final-Value: -18.548


	FINAL GENETIC ALGORITHM DOCKED STATE
	_______________________________________________


Detailed state:  trans -7.756 -8.610 13.056 quatxyzw -0.414578 0.854543 0.158739 -0.269597 center 0.035 0.082 -0.065 ntor 24 66.3599 164.4952 51.0500 136.6080 29.0146 -136.3522 -103.0915 36.7735 -24.2787 27.6394 -41.1575 -170.6560 -44.7944 -36.9478 -4.7158 61.4841 176.3346 -152.3403 -165.1653 14.6983 -30.3379 150.4837 5.1849 -52.9385
State:	 -7.756  -8.610  13.056  -0.431  0.887  0.165 -148.719     66.36  164.50   51.05  136.61   29.01 -136.35 -103.09   36.77  -24.28   27.64  -41.16 -170.66  -44.79  -36.95   -4.72   61.48  176.33 -152.34 -165.17   14.70  -30.34  150.48    5.18  -52.94

DOCKED: MODEL       97
DOCKED: USER    Run = 97
DOCKED: USER    DPF = D:/Protein_go_brrr/autodock/final/mut_N102T/IHP/dock.dpf
DOCKED: USER  
DOCKED: USER    Estimated Free Energy of Binding    =   +2.66 kcal/mol  [=(1)+(2)+(3)-(4)]
DOCKED: USER    
DOCKED: USER    (1) Final Intermolecular Energy     =   -4.50 kcal/mol
DOCKED: USER        vdW + Hbond + desolv Energy     =   -4.26 kcal/mol
DOCKED: USER        Electrostatic Energy            =   -0.24 kcal/mol
DOCKED: USER    (2) Final Total Internal Energy     =  -14.05 kcal/mol
DOCKED: USER    (3) Torsional Free Energy           =   +7.16 kcal/mol
DOCKED: USER    (4) Unbound System's Energy  [=(2)] =  -14.05 kcal/mol
DOCKED: USER    
DOCKED: USER    
DOCKED: USER    NEWDPF move IHP_ideal_opt.pdbqt
DOCKED: USER    NEWDPF about 0.035000 0.082000 -0.065000
DOCKED: USER    NEWDPF tran0 -7.755652 -8.609916 13.056292
DOCKED: USER    NEWDPF quaternion0 -0.414578 0.854543 0.158739 -0.269597
DOCKED: USER    NEWDPF axisangle0 -0.430519 0.887401 0.164842 -148.719406
DOCKED: USER    NEWDPF quat0 -0.430519 0.887401 0.164842 -148.719406
DOCKED: USER    NEWDPF dihe0 66.36 164.50 51.05 136.61 29.01 -136.35 -103.09 36.77 -24.28 27.64 -41.16 -170.66 -44.79 -36.95 -4.72 61.48 176.33 -152.34 -165.17 14.70 -30.34 150.48 5.18 -52.94 
DOCKED: USER  keepresnum = 1 
DOCKED: USER  
DOCKED: REMARK  24 active torsions:
DOCKED: REMARK  status: ('A' for Active; 'I' for Inactive)
DOCKED: REMARK    1  A    between atoms: C_1  and  O_7 
DOCKED: REMARK    2  A    between atoms: C_2  and  O_12 
DOCKED: REMARK    3  A    between atoms: C_3  and  O_17 
DOCKED: REMARK    4  A    between atoms: C_4  and  O_22 
DOCKED: REMARK    5  A    between atoms: C_5  and  O_27 
DOCKED: REMARK    6  A    between atoms: C_6  and  O_32 
DOCKED: REMARK    7  A    between atoms: O_7  and  P_8 
DOCKED: REMARK    8  A    between atoms: P_8  and  O_10 
DOCKED: REMARK    9  A    between atoms: P_8  and  O_11 
DOCKED: REMARK   10  A    between atoms: O_12  and  P_13 
DOCKED: REMARK   11  A    between atoms: P_13  and  O_15 
DOCKED: REMARK   12  A    between atoms: P_13  and  O_16 
DOCKED: REMARK   13  A    between atoms: O_17  and  P_18 
DOCKED: REMARK   14  A    between atoms: P_18  and  O_20 
DOCKED: REMARK   15  A    between atoms: P_18  and  O_21 
DOCKED: REMARK   16  A    between atoms: O_22  and  P_23 
DOCKED: REMARK   17  A    between atoms: P_23  and  O_25 
DOCKED: REMARK   18  A    between atoms: P_23  and  O_26 
DOCKED: REMARK   19  A    between atoms: O_27  and  P_28 
DOCKED: REMARK   20  A    between atoms: P_28  and  O_30 
DOCKED: REMARK   21  A    between atoms: P_28  and  O_31 
DOCKED: REMARK   22  A    between atoms: O_32  and  P_33 
DOCKED: REMARK   23  A    between atoms: P_33  and  O_35 
DOCKED: REMARK   24  A    between atoms: P_33  and  O_36 
DOCKED: USER                              x       y       z     vdW  Elec       q    Type
DOCKED: USER                           _______ _______ _______ _____ _____    ______ ____
DOCKED: ROOT
DOCKED: ATOM      1  C   UNL d   1      -7.430  -9.537  11.635 -0.14 -0.05    +0.194 C 
DOCKED: ATOM      2  C   UNL d   1      -6.276  -9.429  12.633 -0.26 -0.05    +0.194 C 
DOCKED: ATOM      3  C   UNL d   1      -6.127  -8.007  13.176 -0.37 -0.06    +0.194 C 
DOCKED: ATOM      4  C   UNL d   1      -7.429  -7.438  13.736 -0.20 -0.05    +0.194 C 
DOCKED: ATOM      5  C   UNL d   1      -8.632  -7.626  12.822 -0.18 -0.08    +0.194 C 
DOCKED: ATOM      6  C   UNL d   1      -8.746  -9.032  12.229 -0.15 -0.06    +0.194 C 
DOCKED: ENDROOT
DOCKED: BRANCH   1   7
DOCKED: ATOM      7  O   UNL d   1      -7.611 -10.917  11.310 -0.21 +0.06    -0.278 OA
DOCKED: BRANCH   7   8
DOCKED: ATOM      8  P   UNL d   1      -8.250 -11.880  12.414 -0.09 -0.12    +0.473 P 
DOCKED: ATOM      9  O   UNL d   1      -8.746 -11.194  13.638 -0.04 +0.05    -0.228 OA
DOCKED: BRANCH   8  10
DOCKED: ATOM     10  O   UNL d   1      -9.395 -12.664  11.626 -0.09 +0.09    -0.303 OA
DOCKED: ATOM     11  H   UNL d   1     -10.238 -12.181  11.708 +0.05 -0.05    +0.222 HD
DOCKED: ENDBRANCH   8  10
DOCKED: BRANCH   8  12
DOCKED: ATOM     12  O   UNL d   1      -7.167 -13.018  12.646 -0.14 +0.09    -0.303 OA
DOCKED: ATOM     13  H   UNL d   1      -6.836 -13.052  13.572 +0.07 -0.06    +0.222 HD
DOCKED: ENDBRANCH   8  12
DOCKED: ENDBRANCH   7   8
DOCKED: ENDBRANCH   1   7
DOCKED: BRANCH   2  14
DOCKED: ATOM     14  O   UNL d   1      -6.524 -10.314  13.733 -0.12 +0.06    -0.278 OA
DOCKED: BRANCH  14  15
DOCKED: ATOM     15  P   UNL d   1      -5.242 -10.996  14.407 -0.16 -0.10    +0.473 P 
DOCKED: ATOM     16  O   UNL d   1      -3.919 -10.350  14.139 -0.58 +0.04    -0.228 OA
DOCKED: BRANCH  15  17
DOCKED: ATOM     17  O   UNL d   1      -5.601 -11.048  15.958 -0.08 +0.06    -0.303 OA
DOCKED: ATOM     18  H   UNL d   1      -5.987 -10.203  16.258 +0.06 -0.04    +0.222 HD
DOCKED: ENDBRANCH  15  17
DOCKED: BRANCH  15  19
DOCKED: ATOM     19  O   UNL d   1      -5.350 -12.531  14.002 -0.12 +0.08    -0.303 OA
DOCKED: ATOM     20  H   UNL d   1      -5.079 -12.680  13.078 +0.10 -0.07    +0.222 HD
DOCKED: ENDBRANCH  15  19
DOCKED: ENDBRANCH  14  15
DOCKED: ENDBRANCH   2  14
DOCKED: BRANCH   6  21
DOCKED: ATOM     21  O   UNL d   1      -9.685  -8.954  11.159 -0.11 +0.10    -0.278 OA
DOCKED: BRANCH  21  22
DOCKED: ATOM     22  P   UNL d   1     -10.849 -10.040  11.046 -0.01 -0.12    +0.473 P 
DOCKED: ATOM     23  O   UNL d   1     -11.292 -10.731  12.292 -0.01 +0.04    -0.228 OA
DOCKED: BRANCH  22  24
DOCKED: ATOM     24  O   UNL d   1     -11.988  -9.219  10.297 -0.01 +0.08    -0.303 OA
DOCKED: ATOM     25  H   UNL d   1     -11.968  -8.287  10.633 +0.04 -0.07    +0.222 HD
DOCKED: ENDBRANCH  22  24
DOCKED: BRANCH  22  26
DOCKED: ATOM     26  O   UNL d   1     -10.298 -10.987   9.876 -0.10 +0.08    -0.303 OA
DOCKED: ATOM     27  H   UNL d   1      -9.371 -11.234  10.071 +0.09 -0.06    +0.222 HD
DOCKED: ENDBRANCH  22  26
DOCKED: ENDBRANCH  21  22
DOCKED: ENDBRANCH   6  21
DOCKED: BRANCH   3  28
DOCKED: ATOM     28  O   UNL d   1      -5.233  -8.061  14.281 -0.26 +0.08    -0.278 OA
DOCKED: BRANCH  28  29
DOCKED: ATOM     29  P   UNL d   1      -5.796  -8.093  15.770 -0.09 -0.08    +0.473 P 
DOCKED: ATOM     30  O   UNL d   1      -7.061  -8.848  15.961 -0.04 +0.03    -0.228 OA
DOCKED: BRANCH  29  31
DOCKED: ATOM     31  O   UNL d   1      -4.504  -8.632  16.546 +0.01 +0.04    -0.303 OA
DOCKED: ATOM     32  H   UNL d   1      -4.185  -9.448  16.095 +0.08 -0.03    +0.222 HD
DOCKED: ENDBRANCH  29  31
DOCKED: BRANCH  29  33
DOCKED: ATOM     33  O   UNL d   1      -5.816  -6.547  16.153 -0.12 +0.04    -0.303 OA
DOCKED: ATOM     34  H   UNL d   1      -6.723  -6.188  15.990 +0.08 -0.01    +0.222 HD
DOCKED: ENDBRANCH  29  33
DOCKED: ENDBRANCH  28  29
DOCKED: ENDBRANCH   3  28
DOCKED: BRANCH   5  35
DOCKED: ATOM     35  O   UNL d   1      -9.779  -7.423  13.645 -0.04 +0.09    -0.278 OA
DOCKED: BRANCH  35  36
DOCKED: ATOM     36  P   UNL d   1     -10.999  -6.538  13.121 -0.03 -0.22    +0.473 P 
DOCKED: ATOM     37  O   UNL d   1     -11.614  -5.625  14.133 -0.02 +0.06    -0.228 OA
DOCKED: BRANCH  36  38
DOCKED: ATOM     38  O   UNL d   1     -10.348  -5.791  11.875 +0.00 +0.40    -0.303 OA
DOCKED: ATOM     39  H   UNL d   1     -10.013  -4.915  12.165 -0.25 -0.53    +0.222 HD
DOCKED: ENDBRANCH  36  38
DOCKED: BRANCH  36  40
DOCKED: ATOM     40  O   UNL d   1     -11.950  -7.628  12.460 -0.01 +0.09    -0.303 OA
DOCKED: ATOM     41  H   UNL d   1     -11.487  -8.486  12.332 +0.03 -0.06    +0.222 HD
DOCKED: ENDBRANCH  36  40
DOCKED: ENDBRANCH  35  36
DOCKED: ENDBRANCH   5  35
DOCKED: BRANCH   4  42
DOCKED: ATOM     42  O   UNL d   1      -7.233  -6.028  13.889 -0.23 +0.06    -0.278 OA
DOCKED: BRANCH  42  43
DOCKED: ATOM     43  P   UNL d   1      -8.250  -5.202  14.799 -0.11 -0.01    +0.473 P 
DOCKED: ATOM     44  O   UNL d   1      -9.229  -4.318  14.107 -0.46 +0.05    -0.228 OA
DOCKED: BRANCH  43  45
DOCKED: ATOM     45  O   UNL d   1      -8.916  -6.336  15.695 -0.01 +0.03    -0.303 OA
DOCKED: ATOM     46  H   UNL d   1      -9.869  -6.435  15.496 +0.03 -0.03    +0.222 HD
DOCKED: ENDBRANCH  43  45
DOCKED: BRANCH  43  47
DOCKED: ATOM     47  O   UNL d   1      -7.288  -4.476  15.857 -0.14 -0.11    -0.303 OA
DOCKED: ATOM     48  H   UNL d   1      -6.355  -4.614  15.592 +0.09 +0.06    +0.222 HD
DOCKED: ENDBRANCH  43  47
DOCKED: ENDBRANCH  42  43
DOCKED: ENDBRANCH   4  42
DOCKED: TORSDOF 24
DOCKED: TER
DOCKED: ENDMDL
________________________________________________________________________________


	BEGINNING GENETIC ALGORITHM DOCKING 98 of 100
Run: 98 Seed: 665804543 743606934 [ Run 98 of 100 GA/GALS ]
Beginning LAMARCKIAN GENETIC ALGORITHM (LGA), with a maximum of 25000000 energy evaluations.

Final-Value: -17.942


	FINAL GENETIC ALGORITHM DOCKED STATE
	_______________________________________________


Detailed state:  trans 14.546 12.427 -4.687 quatxyzw 0.375754 0.348979 0.843510 0.159728 center 0.035 0.082 -0.065 ntor 24 -107.7193 47.5145 69.5942 13.9165 142.9584 102.3555 -82.9264 -8.4502 104.0378 -89.0405 15.5925 -122.7632 -177.6971 153.9757 -145.3890 175.8400 -141.5946 -52.0676 55.2440 3.9522 -3.1358 11.0699 -12.0921 1.2781
State:	 14.546  12.427  -4.687   0.381  0.354  0.854 161.618   -107.72   47.51   69.59   13.92  142.96  102.36  -82.93   -8.45  104.04  -89.04   15.59 -122.76 -177.70  153.98 -145.39  175.84 -141.59  -52.07   55.24    3.95   -3.14   11.07  -12.09    1.28

DOCKED: MODEL       98
DOCKED: USER    Run = 98
DOCKED: USER    DPF = D:/Protein_go_brrr/autodock/final/mut_N102T/IHP/dock.dpf
DOCKED: USER  
DOCKED: USER    Estimated Free Energy of Binding    =   +3.22 kcal/mol  [=(1)+(2)+(3)-(4)]
DOCKED: USER    
DOCKED: USER    (1) Final Intermolecular Energy     =   -3.94 kcal/mol
DOCKED: USER        vdW + Hbond + desolv Energy     =   -3.74 kcal/mol
DOCKED: USER        Electrostatic Energy            =   -0.19 kcal/mol
DOCKED: USER    (2) Final Total Internal Energy     =  -14.01 kcal/mol
DOCKED: USER    (3) Torsional Free Energy           =   +7.16 kcal/mol
DOCKED: USER    (4) Unbound System's Energy  [=(2)] =  -14.01 kcal/mol
DOCKED: USER    
DOCKED: USER    
DOCKED: USER    NEWDPF move IHP_ideal_opt.pdbqt
DOCKED: USER    NEWDPF about 0.035000 0.082000 -0.065000
DOCKED: USER    NEWDPF tran0 14.546066 12.427420 -4.686909
DOCKED: USER    NEWDPF quaternion0 0.375754 0.348979 0.843510 0.159728
DOCKED: USER    NEWDPF axisangle0 0.380641 0.353518 0.854481 161.617756
DOCKED: USER    NEWDPF quat0 0.380641 0.353518 0.854481 161.617756
DOCKED: USER    NEWDPF dihe0 -107.72 47.51 69.59 13.92 142.96 102.36 -82.93 -8.45 104.04 -89.04 15.59 -122.76 -177.70 153.98 -145.39 175.84 -141.59 -52.07 55.24 3.95 -3.14 11.07 -12.09 1.28 
DOCKED: USER  keepresnum = 1 
DOCKED: USER  
DOCKED: REMARK  24 active torsions:
DOCKED: REMARK  status: ('A' for Active; 'I' for Inactive)
DOCKED: REMARK    1  A    between atoms: C_1  and  O_7 
DOCKED: REMARK    2  A    between atoms: C_2  and  O_12 
DOCKED: REMARK    3  A    between atoms: C_3  and  O_17 
DOCKED: REMARK    4  A    between atoms: C_4  and  O_22 
DOCKED: REMARK    5  A    between atoms: C_5  and  O_27 
DOCKED: REMARK    6  A    between atoms: C_6  and  O_32 
DOCKED: REMARK    7  A    between atoms: O_7  and  P_8 
DOCKED: REMARK    8  A    between atoms: P_8  and  O_10 
DOCKED: REMARK    9  A    between atoms: P_8  and  O_11 
DOCKED: REMARK   10  A    between atoms: O_12  and  P_13 
DOCKED: REMARK   11  A    between atoms: P_13  and  O_15 
DOCKED: REMARK   12  A    between atoms: P_13  and  O_16 
DOCKED: REMARK   13  A    between atoms: O_17  and  P_18 
DOCKED: REMARK   14  A    between atoms: P_18  and  O_20 
DOCKED: REMARK   15  A    between atoms: P_18  and  O_21 
DOCKED: REMARK   16  A    between atoms: O_22  and  P_23 
DOCKED: REMARK   17  A    between atoms: P_23  and  O_25 
DOCKED: REMARK   18  A    between atoms: P_23  and  O_26 
DOCKED: REMARK   19  A    between atoms: O_27  and  P_28 
DOCKED: REMARK   20  A    between atoms: P_28  and  O_30 
DOCKED: REMARK   21  A    between atoms: P_28  and  O_31 
DOCKED: REMARK   22  A    between atoms: O_32  and  P_33 
DOCKED: REMARK   23  A    between atoms: P_33  and  O_35 
DOCKED: REMARK   24  A    between atoms: P_33  and  O_36 
DOCKED: USER                              x       y       z     vdW  Elec       q    Type
DOCKED: USER                           _______ _______ _______ _____ _____    ______ ____
DOCKED: ROOT
DOCKED: ATOM      1  C   UNL d   1      13.652  13.605  -3.794 -0.11 -0.09    +0.194 C 
DOCKED: ATOM      2  C   UNL d   1      13.864  13.920  -5.276 -0.08 -0.09    +0.194 C 
DOCKED: ATOM      3  C   UNL d   1      15.294  13.610  -5.723 -0.03 -0.04    +0.194 C 
DOCKED: ATOM      4  C   UNL d   1      15.743  12.196  -5.363 -0.05 -0.03    +0.194 C 
DOCKED: ATOM      5  C   UNL d   1      15.447  11.798  -3.922 -0.04 -0.03    +0.194 C 
DOCKED: ATOM      6  C   UNL d   1      14.036  12.164  -3.457 -0.05 -0.06    +0.194 C 
DOCKED: ENDROOT
DOCKED: BRANCH   1   7
DOCKED: ATOM      7  O   UNL d   1      12.261  13.756  -3.501 -0.14 +0.26    -0.278 OA
DOCKED: BRANCH   7   8
DOCKED: ATOM      8  P   UNL d   1      11.625  15.219  -3.568 -0.04 -0.40    +0.473 P 
DOCKED: ATOM      9  O   UNL d   1      10.905  15.652  -2.339 -0.08 +0.14    -0.228 OA
DOCKED: BRANCH   8  10
DOCKED: ATOM     10  O   UNL d   1      12.858  16.161  -3.938 -0.02 +0.12    -0.303 OA
DOCKED: ATOM     11  H   UNL d   1      12.891  16.292  -4.904 +0.02 -0.09    +0.222 HD
DOCKED: ENDBRANCH   8  10
DOCKED: BRANCH   8  12
DOCKED: ATOM     12  O   UNL d   1      10.777  15.239  -4.912 +0.01 +0.46    -0.303 OA
DOCKED: ATOM     13  H   UNL d   1      10.785  14.377  -5.386 -0.26 -0.52    +0.222 HD
DOCKED: ENDBRANCH   8  12
DOCKED: ENDBRANCH   7   8
DOCKED: ENDBRANCH   1   7
DOCKED: BRANCH   2  14
DOCKED: ATOM     14  O   UNL d   1      12.960  13.126  -6.056 -0.31 +0.22    -0.278 OA
DOCKED: BRANCH  14  15
DOCKED: ATOM     15  P   UNL d   1      12.192  13.876  -7.245 -0.06 -0.36    +0.473 P 
DOCKED: ATOM     16  O   UNL d   1      10.839  13.350  -7.607 -0.12 +0.27    -0.228 OA
DOCKED: BRANCH  15  17
DOCKED: ATOM     17  O   UNL d   1      12.159  15.401  -6.784 -0.04 +0.18    -0.303 OA
DOCKED: ATOM     18  H   UNL d   1      12.201  15.475  -5.811 +0.02 -0.15    +0.222 HD
DOCKED: ENDBRANCH  15  17
DOCKED: BRANCH  15  19
DOCKED: ATOM     19  O   UNL d   1      13.250  13.924  -8.432 -0.01 +0.10    -0.303 OA
DOCKED: ATOM     20  H   UNL d   1      14.130  14.205  -8.119 +0.02 -0.06    +0.222 HD
DOCKED: ENDBRANCH  15  19
DOCKED: ENDBRANCH  14  15
DOCKED: ENDBRANCH   2  14
DOCKED: BRANCH   6  21
DOCKED: ATOM     21  O   UNL d   1      14.029  12.051  -2.035 -0.12 +0.06    -0.278 OA
DOCKED: BRANCH  21  22
DOCKED: ATOM     22  P   UNL d   1      13.303  10.810  -1.343 -0.19 -0.10    +0.473 P 
DOCKED: ATOM     23  O   UNL d   1      12.110  11.078  -0.489 -0.26 +0.03    -0.228 OA
DOCKED: BRANCH  22  24
DOCKED: ATOM     24  O   UNL d   1      13.032   9.856  -2.588 -0.36 +0.09    -0.303 OA
DOCKED: ATOM     25  H   UNL d   1      13.885   9.412  -2.827 -0.25 -0.07    +0.222 HD
DOCKED: ENDBRANCH  22  24
DOCKED: BRANCH  22  26
DOCKED: ATOM     26  O   UNL d   1      14.532  10.075  -0.623 -0.14 +0.07    -0.303 OA
DOCKED: ATOM     27  H   UNL d   1      15.094   9.648  -1.302 +0.05 -0.08    +0.222 HD
DOCKED: ENDBRANCH  22  26
DOCKED: ENDBRANCH  21  22
DOCKED: ENDBRANCH   6  21
DOCKED: BRANCH   3  28
DOCKED: ATOM     28  O   UNL d   1      15.321  13.664  -7.143 -0.01 +0.06    -0.278 OA
DOCKED: BRANCH  28  29
DOCKED: ATOM     29  P   UNL d   1      16.301  14.672  -7.891 +0.01 -0.06    +0.473 P 
DOCKED: ATOM     30  O   UNL d   1      16.782  14.227  -9.225 +0.00 +0.02    -0.228 OA
DOCKED: BRANCH  29  31
DOCKED: ATOM     31  O   UNL d   1      15.419  16.006  -7.846 +0.00 +0.04    -0.303 OA
DOCKED: ATOM     32  H   UNL d   1      14.467  15.754  -7.876 +0.01 -0.04    +0.222 HD
DOCKED: ENDBRANCH  29  31
DOCKED: BRANCH  29  33
DOCKED: ATOM     33  O   UNL d   1      17.410  14.945  -6.782 +0.00 +0.03    -0.303 OA
DOCKED: ATOM     34  H   UNL d   1      17.734  14.079  -6.432 +0.00 -0.02    +0.222 HD
DOCKED: ENDBRANCH  29  33
DOCKED: ENDBRANCH  28  29
DOCKED: ENDBRANCH   3  28
DOCKED: BRANCH   5  35
DOCKED: ATOM     35  O   UNL d   1      15.545  10.376  -3.886 -0.56 +0.03    -0.278 OA
DOCKED: BRANCH  35  36
DOCKED: ATOM     36  P   UNL d   1      16.633   9.669  -2.957 -0.07 -0.12    +0.473 P 
DOCKED: ATOM     37  O   UNL d   1      17.901   9.266  -3.641 -0.02 +0.04    -0.228 OA
DOCKED: BRANCH  36  38
DOCKED: ATOM     38  O   UNL d   1      16.826  10.748  -1.802 -0.02 +0.06    -0.303 OA
DOCKED: ATOM     39  H   UNL d   1      15.970  11.198  -1.637 +0.04 -0.04    +0.222 HD
DOCKED: ENDBRANCH  36  38
DOCKED: BRANCH  36  40
DOCKED: ATOM     40  O   UNL d   1      15.788   8.513  -2.264 -0.09 +0.21    -0.303 OA
DOCKED: ATOM     41  H   UNL d   1      15.916   8.503  -1.289 -0.39 -0.23    +0.222 HD
DOCKED: ENDBRANCH  36  40
DOCKED: ENDBRANCH  35  36
DOCKED: ENDBRANCH   5  35
DOCKED: BRANCH   4  42
DOCKED: ATOM     42  O   UNL d   1      17.165  12.159  -5.526 -0.01 +0.03    -0.278 OA
DOCKED: BRANCH  42  43
DOCKED: ATOM     43  P   UNL d   1      17.781  11.317  -6.732 +0.00 -0.05    +0.473 P 
DOCKED: ATOM     44  O   UNL d   1      16.843  10.493  -7.544 -0.02 +0.03    -0.228 OA
DOCKED: BRANCH  43  45
DOCKED: ATOM     45  O   UNL d   1      18.564  12.423  -7.566 +0.00 +0.03    -0.303 OA
DOCKED: ATOM     46  H   UNL d   1      17.969  13.147  -7.847 +0.00 -0.02    +0.222 HD
DOCKED: ENDBRANCH  43  45
DOCKED: BRANCH  43  47
DOCKED: ATOM     47  O   UNL d   1      18.986  10.516  -6.043 +0.00 +0.03    -0.303 OA
DOCKED: ATOM     48  H   UNL d   1      18.637   9.993  -5.291 +0.01 -0.02    +0.222 HD
DOCKED: ENDBRANCH  43  47
DOCKED: ENDBRANCH  42  43
DOCKED: ENDBRANCH   4  42
DOCKED: TORSDOF 24
DOCKED: TER
DOCKED: ENDMDL
________________________________________________________________________________


	BEGINNING GENETIC ALGORITHM DOCKING 99 of 100
Run: 99 Seed: 440852630 1488949675 [ Run 99 of 100 GA/GALS ]
Beginning LAMARCKIAN GENETIC ALGORITHM (LGA), with a maximum of 25000000 energy evaluations.

Final-Value: -18.502


	FINAL GENETIC ALGORITHM DOCKED STATE
	_______________________________________________


Detailed state:  trans -8.513 -12.821 -1.973 quatxyzw -0.308776 -0.631589 0.705239 -0.091597 center 0.035 0.082 -0.065 ntor 24 -7.3490 129.5808 38.7740 44.7428 22.3097 162.4380 -89.4822 -63.3257 107.3473 87.4216 124.7415 107.7468 -50.2865 -80.8552 -180.0000 -19.8960 120.9739 -123.1468 -23.8798 13.7552 -18.3739 3.1421 -9.3704 170.3133
State:	 -8.513 -12.821  -1.973  -0.310 -0.634  0.708 -169.489     -7.35  129.58   38.77   44.74   22.31  162.44  -89.48  -63.33  107.35   87.42  124.74  107.75  -50.29  -80.86 -180.00  -19.90  120.97 -123.15  -23.88   13.76  -18.37    3.14   -9.37  170.31

DOCKED: MODEL       99
DOCKED: USER    Run = 99
DOCKED: USER    DPF = D:/Protein_go_brrr/autodock/final/mut_N102T/IHP/dock.dpf
DOCKED: USER  
DOCKED: USER    Estimated Free Energy of Binding    =   +2.17 kcal/mol  [=(1)+(2)+(3)-(4)]
DOCKED: USER    
DOCKED: USER    (1) Final Intermolecular Energy     =   -4.99 kcal/mol
DOCKED: USER        vdW + Hbond + desolv Energy     =   -4.69 kcal/mol
DOCKED: USER        Electrostatic Energy            =   -0.29 kcal/mol
DOCKED: USER    (2) Final Total Internal Energy     =  -13.51 kcal/mol
DOCKED: USER    (3) Torsional Free Energy           =   +7.16 kcal/mol
DOCKED: USER    (4) Unbound System's Energy  [=(2)] =  -13.51 kcal/mol
DOCKED: USER    
DOCKED: USER    
DOCKED: USER    NEWDPF move IHP_ideal_opt.pdbqt
DOCKED: USER    NEWDPF about 0.035000 0.082000 -0.065000
DOCKED: USER    NEWDPF tran0 -8.513117 -12.820845 -1.973287
DOCKED: USER    NEWDPF quaternion0 -0.308776 -0.631589 0.705239 -0.091597
DOCKED: USER    NEWDPF axisangle0 -0.310079 -0.634256 0.708217 -169.489043
DOCKED: USER    NEWDPF quat0 -0.310079 -0.634256 0.708217 -169.489043
DOCKED: USER    NEWDPF dihe0 -7.35 129.58 38.77 44.74 22.31 162.44 -89.48 -63.33 107.35 87.42 124.74 107.75 -50.29 -80.86 -180.00 -19.90 120.97 -123.15 -23.88 13.76 -18.37 3.14 -9.37 170.31 
DOCKED: USER  keepresnum = 1 
DOCKED: USER  
DOCKED: REMARK  24 active torsions:
DOCKED: REMARK  status: ('A' for Active; 'I' for Inactive)
DOCKED: REMARK    1  A    between atoms: C_1  and  O_7 
DOCKED: REMARK    2  A    between atoms: C_2  and  O_12 
DOCKED: REMARK    3  A    between atoms: C_3  and  O_17 
DOCKED: REMARK    4  A    between atoms: C_4  and  O_22 
DOCKED: REMARK    5  A    between atoms: C_5  and  O_27 
DOCKED: REMARK    6  A    between atoms: C_6  and  O_32 
DOCKED: REMARK    7  A    between atoms: O_7  and  P_8 
DOCKED: REMARK    8  A    between atoms: P_8  and  O_10 
DOCKED: REMARK    9  A    between atoms: P_8  and  O_11 
DOCKED: REMARK   10  A    between atoms: O_12  and  P_13 
DOCKED: REMARK   11  A    between atoms: P_13  and  O_15 
DOCKED: REMARK   12  A    between atoms: P_13  and  O_16 
DOCKED: REMARK   13  A    between atoms: O_17  and  P_18 
DOCKED: REMARK   14  A    between atoms: P_18  and  O_20 
DOCKED: REMARK   15  A    between atoms: P_18  and  O_21 
DOCKED: REMARK   16  A    between atoms: O_22  and  P_23 
DOCKED: REMARK   17  A    between atoms: P_23  and  O_25 
DOCKED: REMARK   18  A    between atoms: P_23  and  O_26 
DOCKED: REMARK   19  A    between atoms: O_27  and  P_28 
DOCKED: REMARK   20  A    between atoms: P_28  and  O_30 
DOCKED: REMARK   21  A    between atoms: P_28  and  O_31 
DOCKED: REMARK   22  A    between atoms: O_32  and  P_33 
DOCKED: REMARK   23  A    between atoms: P_33  and  O_35 
DOCKED: REMARK   24  A    between atoms: P_33  and  O_36 
DOCKED: USER                              x       y       z     vdW  Elec       q    Type
DOCKED: USER                           _______ _______ _______ _____ _____    ______ ____
DOCKED: ROOT
DOCKED: ATOM      1  C   UNL d   1     -10.174 -12.666  -1.524 -0.08 +0.02    +0.194 C 
DOCKED: ATOM      2  C   UNL d   1      -9.191 -12.857  -0.367 -0.12 +0.02    +0.194 C 
DOCKED: ATOM      3  C   UNL d   1      -8.147 -13.930  -0.682 -0.13 +0.06    +0.194 C 
DOCKED: ATOM      4  C   UNL d   1      -7.435 -13.703  -2.013 -0.13 +0.10    +0.194 C 
DOCKED: ATOM      5  C   UNL d   1      -8.372 -13.395  -3.174 -0.09 +0.08    +0.194 C 
DOCKED: ATOM      6  C   UNL d   1      -9.455 -12.367  -2.840 +0.02 +0.03    +0.194 C 
DOCKED: ENDROOT
DOCKED: BRANCH   1   7
DOCKED: ATOM      7  O   UNL d   1     -11.001 -11.538  -1.225 -0.05 -0.00    -0.278 OA
DOCKED: BRANCH   7   8
DOCKED: ATOM      8  P   UNL d   1     -12.518 -11.557  -1.723 -0.00 +0.01    +0.473 P 
DOCKED: ATOM      9  O   UNL d   1     -12.932 -12.794  -2.440 -0.00 -0.01    -0.228 OA
DOCKED: BRANCH   8  10
DOCKED: ATOM     10  O   UNL d   1     -13.364 -11.287  -0.397 +0.00 +0.00    -0.303 OA
DOCKED: ATOM     11  H   UNL d   1     -14.300 -11.511  -0.555 +0.00 -0.00    +0.222 HD
DOCKED: ENDBRANCH   8  10
DOCKED: BRANCH   8  12
DOCKED: ATOM     12  O   UNL d   1     -12.708 -10.196  -2.521 -0.01 -0.01    -0.303 OA
DOCKED: ATOM     13  H   UNL d   1     -12.415 -10.255  -3.458 +0.01 +0.01    +0.222 HD
DOCKED: ENDBRANCH   8  12
DOCKED: ENDBRANCH   7   8
DOCKED: ENDBRANCH   1   7
DOCKED: BRANCH   2  14
DOCKED: ATOM     14  O   UNL d   1      -8.513 -11.618  -0.121 +0.02 +0.02    -0.278 OA
DOCKED: BRANCH  14  15
DOCKED: ATOM     15  P   UNL d   1      -8.148 -11.293   1.404 -0.15 -0.04    +0.473 P 
DOCKED: ATOM     16  O   UNL d   1      -9.000 -11.938   2.452 -0.37 -0.01    -0.228 OA
DOCKED: BRANCH  15  17
DOCKED: ATOM     17  O   UNL d   1      -6.610 -11.692   1.527 -0.29 +0.00    -0.303 OA
DOCKED: ATOM     18  H   UNL d   1      -6.468 -12.625   1.276 -0.09 -0.00    +0.222 HD
DOCKED: ENDBRANCH  15  17
DOCKED: BRANCH  15  19
DOCKED: ATOM     19  O   UNL d   1      -8.072  -9.705   1.464 -0.17 +0.08    -0.303 OA
DOCKED: ATOM     20  H   UNL d   1      -8.022  -9.313   0.573 -0.44 -0.16    +0.222 HD
DOCKED: ENDBRANCH  15  19
DOCKED: ENDBRANCH  14  15
DOCKED: ENDBRANCH   2  14
DOCKED: BRANCH   6  21
DOCKED: ATOM     21  O   UNL d   1     -10.430 -12.443  -3.876 -0.04 -0.05    -0.278 OA
DOCKED: BRANCH  21  22
DOCKED: ATOM     22  P   UNL d   1     -10.756 -11.152  -4.754 -0.03 +0.08    +0.473 P 
DOCKED: ATOM     23  O   UNL d   1     -12.134 -11.004  -5.307 -0.01 -0.02    -0.228 OA
DOCKED: BRANCH  22  24
DOCKED: ATOM     24  O   UNL d   1     -10.296  -9.976  -3.786 -0.48 -0.07    -0.303 OA
DOCKED: ATOM     25  H   UNL d   1     -10.622 -10.182  -2.874 +0.02 +0.03    +0.222 HD
DOCKED: ENDBRANCH  22  24
DOCKED: BRANCH  22  26
DOCKED: ATOM     26  O   UNL d   1      -9.567 -11.180  -5.829 -0.04 -0.08    -0.303 OA
DOCKED: ATOM     27  H   UNL d   1      -8.895 -11.834  -5.548 +0.04 +0.08    +0.222 HD
DOCKED: ENDBRANCH  22  26
DOCKED: ENDBRANCH  21  22
DOCKED: ENDBRANCH   6  21
DOCKED: BRANCH   3  28
DOCKED: ATOM     28  O   UNL d   1      -7.131 -13.843   0.309 -0.21 -0.07    -0.278 OA
DOCKED: BRANCH  28  29
DOCKED: ATOM     29  P   UNL d   1      -6.913 -15.034   1.344 -0.21 +0.11    +0.473 P 
DOCKED: ATOM     30  O   UNL d   1      -8.148 -15.576   1.966 -0.17 -0.02    -0.228 OA
DOCKED: BRANCH  29  31
DOCKED: ATOM     31  O   UNL d   1      -6.055 -16.037   0.439 -0.19 -0.27    -0.303 OA
DOCKED: ATOM     32  H   UNL d   1      -6.402 -16.003  -0.483 +0.08 +0.28    +0.222 HD
DOCKED: ENDBRANCH  29  31
DOCKED: BRANCH  29  33
DOCKED: ATOM     33  O   UNL d   1      -5.819 -14.425   2.328 -0.18 -0.02    -0.303 OA
DOCKED: ATOM     34  H   UNL d   1      -5.542 -13.538   1.990 -0.22 -0.03    +0.222 HD
DOCKED: ENDBRANCH  29  33
DOCKED: ENDBRANCH  28  29
DOCKED: ENDBRANCH   3  28
DOCKED: BRANCH   5  35
DOCKED: ATOM     35  O   UNL d   1      -7.552 -12.825  -4.193 -0.16 -0.17    -0.278 OA
DOCKED: BRANCH  35  36
DOCKED: ATOM     36  P   UNL d   1      -7.466 -13.507  -5.632 -0.07 +0.38    +0.473 P 
DOCKED: ATOM     37  O   UNL d   1      -6.866 -12.663  -6.711 -0.19 -0.19    -0.228 OA
DOCKED: BRANCH  36  38
DOCKED: ATOM     38  O   UNL d   1      -6.651 -14.838  -5.313 -0.08 -0.41    -0.303 OA
DOCKED: ATOM     39  H   UNL d   1      -6.930 -15.184  -4.438 +0.06 +0.24    +0.222 HD
DOCKED: ENDBRANCH  36  38
DOCKED: BRANCH  36  40
DOCKED: ATOM     40  O   UNL d   1      -8.956 -14.015  -5.857 -0.01 -0.14    -0.303 OA
DOCKED: ATOM     41  H   UNL d   1      -9.616 -13.326  -5.620 +0.03 +0.07    +0.222 HD
DOCKED: ENDBRANCH  36  40
DOCKED: ENDBRANCH  35  36
DOCKED: ENDBRANCH   5  35
DOCKED: BRANCH   4  42
DOCKED: ATOM     42  O   UNL d   1      -6.755 -14.922  -2.333 -0.16 -0.26    -0.278 OA
DOCKED: BRANCH  42  43
DOCKED: ATOM     43  P   UNL d   1      -7.607 -16.262  -2.488 -0.00 +0.48    +0.473 P 
DOCKED: ATOM     44  O   UNL d   1      -8.061 -16.936  -1.240 -0.22 -0.19    -0.228 OA
DOCKED: BRANCH  43  45
DOCKED: ATOM     45  O   UNL d   1      -8.791 -15.813  -3.453 -0.01 -0.16    -0.303 OA
DOCKED: ATOM     46  H   UNL d   1      -8.450 -15.374  -4.258 +0.03 +0.13    +0.222 HD
DOCKED: ENDBRANCH  43  45
DOCKED: BRANCH  43  47
DOCKED: ATOM     47  O   UNL d   1      -6.709 -17.156  -3.470 -0.25 -0.51    -0.303 OA
DOCKED: ATOM     48  H   UNL d   1      -6.765 -16.794  -4.378 +0.04 +0.28    +0.222 HD
DOCKED: ENDBRANCH  43  47
DOCKED: ENDBRANCH  42  43
DOCKED: ENDBRANCH   4  42
DOCKED: TORSDOF 24
DOCKED: TER
DOCKED: ENDMDL
________________________________________________________________________________


	BEGINNING GENETIC ALGORITHM DOCKING 100 of 100
Run: 100 Seed: 1618018176 1922012075 [ Run 100 of 100 GA/GALS ]
Beginning LAMARCKIAN GENETIC ALGORITHM (LGA), with a maximum of 25000000 energy evaluations.

Final-Value: -19.200


	FINAL GENETIC ALGORITHM DOCKED STATE
	_______________________________________________


Detailed state:  trans -11.014 -6.295 3.478 quatxyzw 0.503937 -0.596077 0.140916 -0.609001 center 0.035 0.082 -0.065 ntor 24 101.0897 11.5269 108.6597 91.9058 15.9906 -159.4911 0.0807 -170.8589 140.3035 20.3858 15.7715 -173.0777 -167.5352 114.0029 -32.4371 109.0467 121.7222 -4.5071 4.3201 -16.8016 168.3501 -14.3272 -19.9691 178.6730
State:	-11.014  -6.295   3.478   0.635 -0.752  0.178 -104.965    101.09   11.53  108.66   91.91   15.99 -159.49    0.08 -170.86  140.30   20.39   15.77 -173.08 -167.54  114.00  -32.44  109.05  121.72   -4.51    4.32  -16.80  168.35  -14.33  -19.97  178.67

DOCKED: MODEL      100
DOCKED: USER    Run = 100
DOCKED: USER    DPF = D:/Protein_go_brrr/autodock/final/mut_N102T/IHP/dock.dpf
DOCKED: USER  
DOCKED: USER    Estimated Free Energy of Binding    =   +2.46 kcal/mol  [=(1)+(2)+(3)-(4)]
DOCKED: USER    
DOCKED: USER    (1) Final Intermolecular Energy     =   -4.70 kcal/mol
DOCKED: USER        vdW + Hbond + desolv Energy     =   -4.58 kcal/mol
DOCKED: USER        Electrostatic Energy            =   -0.12 kcal/mol
DOCKED: USER    (2) Final Total Internal Energy     =  -14.50 kcal/mol
DOCKED: USER    (3) Torsional Free Energy           =   +7.16 kcal/mol
DOCKED: USER    (4) Unbound System's Energy  [=(2)] =  -14.50 kcal/mol
DOCKED: USER    
DOCKED: USER    
DOCKED: USER    NEWDPF move IHP_ideal_opt.pdbqt
DOCKED: USER    NEWDPF about 0.035000 0.082000 -0.065000
DOCKED: USER    NEWDPF tran0 -11.013526 -6.295422 3.478329
DOCKED: USER    NEWDPF quaternion0 0.503937 -0.596077 0.140916 -0.609001
DOCKED: USER    NEWDPF axisangle0 0.635346 -0.751513 0.177662 -104.965397
DOCKED: USER    NEWDPF quat0 0.635346 -0.751513 0.177662 -104.965397
DOCKED: USER    NEWDPF dihe0 101.09 11.53 108.66 91.91 15.99 -159.49 0.08 -170.86 140.30 20.39 15.77 -173.08 -167.54 114.00 -32.44 109.05 121.72 -4.51 4.32 -16.80 168.35 -14.33 -19.97 178.67 
DOCKED: USER  keepresnum = 1 
DOCKED: USER  
DOCKED: REMARK  24 active torsions:
DOCKED: REMARK  status: ('A' for Active; 'I' for Inactive)
DOCKED: REMARK    1  A    between atoms: C_1  and  O_7 
DOCKED: REMARK    2  A    between atoms: C_2  and  O_12 
DOCKED: REMARK    3  A    between atoms: C_3  and  O_17 
DOCKED: REMARK    4  A    between atoms: C_4  and  O_22 
DOCKED: REMARK    5  A    between atoms: C_5  and  O_27 
DOCKED: REMARK    6  A    between atoms: C_6  and  O_32 
DOCKED: REMARK    7  A    between atoms: O_7  and  P_8 
DOCKED: REMARK    8  A    between atoms: P_8  and  O_10 
DOCKED: REMARK    9  A    between atoms: P_8  and  O_11 
DOCKED: REMARK   10  A    between atoms: O_12  and  P_13 
DOCKED: REMARK   11  A    between atoms: P_13  and  O_15 
DOCKED: REMARK   12  A    between atoms: P_13  and  O_16 
DOCKED: REMARK   13  A    between atoms: O_17  and  P_18 
DOCKED: REMARK   14  A    between atoms: P_18  and  O_20 
DOCKED: REMARK   15  A    between atoms: P_18  and  O_21 
DOCKED: REMARK   16  A    between atoms: O_22  and  P_23 
DOCKED: REMARK   17  A    between atoms: P_23  and  O_25 
DOCKED: REMARK   18  A    between atoms: P_23  and  O_26 
DOCKED: REMARK   19  A    between atoms: O_27  and  P_28 
DOCKED: REMARK   20  A    between atoms: P_28  and  O_30 
DOCKED: REMARK   21  A    between atoms: P_28  and  O_31 
DOCKED: REMARK   22  A    between atoms: O_32  and  P_33 
DOCKED: REMARK   23  A    between atoms: P_33  and  O_35 
DOCKED: REMARK   24  A    between atoms: P_33  and  O_36 
DOCKED: USER                              x       y       z     vdW  Elec       q    Type
DOCKED: USER                           _______ _______ _______ _____ _____    ______ ____
DOCKED: ROOT
DOCKED: ATOM      1  C   UNL d   1     -10.477  -7.853   3.997 -0.13 -0.06    +0.194 C 
DOCKED: ATOM      2  C   UNL d   1      -9.952  -7.393   2.636 -0.15 -0.05    +0.194 C 
DOCKED: ATOM      3  C   UNL d   1     -11.052  -6.741   1.796 -0.11 -0.05    +0.194 C 
DOCKED: ATOM      4  C   UNL d   1     -11.794  -5.629   2.534 -0.10 -0.11    +0.194 C 
DOCKED: ATOM      5  C   UNL d   1     -12.235  -6.007   3.942 -0.10 -0.12    +0.194 C 
DOCKED: ATOM      6  C   UNL d   1     -11.154  -6.715   4.762 -0.17 -0.11    +0.194 C 
DOCKED: ENDROOT
DOCKED: BRANCH   1   7
DOCKED: ATOM      7  O   UNL d   1      -9.363  -8.289   4.781 -0.20 +0.07    -0.278 OA
DOCKED: BRANCH   7   8
DOCKED: ATOM      8  P   UNL d   1      -9.320  -9.813   5.258 -0.06 -0.05    +0.473 P 
DOCKED: ATOM      9  O   UNL d   1      -9.386 -10.015   6.731 -0.25 +0.04    -0.228 OA
DOCKED: BRANCH   8  10
DOCKED: ATOM     10  O   UNL d   1     -10.531 -10.497   4.476 -0.27 +0.01    -0.303 OA
DOCKED: ATOM     11  H   UNL d   1     -11.360 -10.027   4.681 +0.05 -0.03    +0.222 HD
DOCKED: ENDBRANCH   8  10
DOCKED: BRANCH   8  12
DOCKED: ATOM     12  O   UNL d   1      -8.056 -10.439   4.527 -0.53 -0.01    -0.303 OA
DOCKED: ATOM     13  H   UNL d   1      -7.898 -10.056   3.634 +0.15 -0.01    +0.222 HD
DOCKED: ENDBRANCH   8  12
DOCKED: ENDBRANCH   7   8
DOCKED: ENDBRANCH   1   7
DOCKED: BRANCH   2  14
DOCKED: ATOM     14  O   UNL d   1      -8.904  -6.436   2.839 -0.28 +0.11    -0.278 OA
DOCKED: BRANCH  14  15
DOCKED: ATOM     15  P   UNL d   1      -7.439  -6.867   2.358 -0.33 -0.11    +0.473 P 
DOCKED: ATOM     16  O   UNL d   1      -6.395  -5.795   2.342 -0.61 +0.04    -0.228 OA
DOCKED: BRANCH  15  17
DOCKED: ATOM     17  O   UNL d   1      -7.059  -8.083   3.315 -0.30 +0.05    -0.303 OA
DOCKED: ATOM     18  H   UNL d   1      -7.842  -8.406   3.801 +0.16 -0.03    +0.222 HD
DOCKED: ENDBRANCH  15  17
DOCKED: BRANCH  15  19
DOCKED: ATOM     19  O   UNL d   1      -7.678  -7.612   0.974 -0.27 +0.08    -0.303 OA
DOCKED: ATOM     20  H   UNL d   1      -8.440  -7.241   0.492 +0.06 -0.05    +0.222 HD
DOCKED: ENDBRANCH  15  19
DOCKED: ENDBRANCH  14  15
DOCKED: ENDBRANCH   2  14
DOCKED: BRANCH   6  21
DOCKED: ATOM     21  O   UNL d   1     -11.806  -7.298   5.888 -0.06 +0.11    -0.278 OA
DOCKED: BRANCH  21  22
DOCKED: ATOM     22  P   UNL d   1     -12.856  -8.480   5.672 +0.01 -0.11    +0.473 P 
DOCKED: ATOM     23  O   UNL d   1     -13.160  -8.905   4.275 -0.01 +0.04    -0.228 OA
DOCKED: BRANCH  22  24
DOCKED: ATOM     24  O   UNL d   1     -12.254  -9.623   6.601 -0.04 +0.06    -0.303 OA
DOCKED: ATOM     25  H   UNL d   1     -11.293  -9.724   6.383 +0.06 -0.05    +0.222 HD
DOCKED: ENDBRANCH  22  24
DOCKED: BRANCH  22  26
DOCKED: ATOM     26  O   UNL d   1     -14.104  -7.970   6.539 +0.00 +0.06    -0.303 OA
DOCKED: ATOM     27  H   UNL d   1     -14.082  -6.992   6.590 +0.02 -0.06    +0.222 HD
DOCKED: ENDBRANCH  22  26
DOCKED: ENDBRANCH  21  22
DOCKED: ENDBRANCH   6  21
DOCKED: BRANCH   3  28
DOCKED: ATOM     28  O   UNL d   1     -10.425  -6.105   0.689 -0.07 +0.01    -0.278 OA
DOCKED: BRANCH  28  29
DOCKED: ATOM     29  P   UNL d   1     -10.329  -6.848  -0.717 -0.07 -0.01    +0.473 P 
DOCKED: ATOM     30  O   UNL d   1     -11.535  -6.747  -1.578 -0.05 -0.01    -0.228 OA
DOCKED: BRANCH  29  31
DOCKED: ATOM     31  O   UNL d   1      -8.977  -6.204  -1.281 -0.20 -0.01    -0.303 OA
DOCKED: ATOM     32  H   UNL d   1      -8.274  -6.301  -0.598 +0.11 -0.01    +0.222 HD
DOCKED: ENDBRANCH  29  31
DOCKED: BRANCH  29  33
DOCKED: ATOM     33  O   UNL d   1      -9.870  -8.312  -0.290 -0.09 +0.06    -0.303 OA
DOCKED: ATOM     34  H   UNL d   1      -8.946  -8.463  -0.607 -0.51 -0.13    +0.222 HD
DOCKED: ENDBRANCH  29  33
DOCKED: ENDBRANCH  28  29
DOCKED: ENDBRANCH   3  28
DOCKED: BRANCH   5  35
DOCKED: ATOM     35  O   UNL d   1     -12.523  -4.776   4.601 -0.06 +0.30    -0.278 OA
DOCKED: BRANCH  35  36
DOCKED: ATOM     36  P   UNL d   1     -14.026  -4.394   4.973 -0.06 -0.23    +0.473 P 
DOCKED: ATOM     37  O   UNL d   1     -14.185  -3.259   5.934 -0.09 +0.11    -0.228 OA
DOCKED: BRANCH  36  38
DOCKED: ATOM     38  O   UNL d   1     -14.660  -4.129   3.537 -0.04 +0.09    -0.303 OA
DOCKED: ATOM     39  H   UNL d   1     -14.739  -4.982   3.058 +0.03 -0.05    +0.222 HD
DOCKED: ENDBRANCH  36  38
DOCKED: BRANCH  36  40
DOCKED: ATOM     40  O   UNL d   1     -14.636  -5.797   5.408 -0.01 +0.08    -0.303 OA
DOCKED: ATOM     41  H   UNL d   1     -14.118  -6.548   5.042 +0.03 -0.06    +0.222 HD
DOCKED: ENDBRANCH  36  40
DOCKED: ENDBRANCH  35  36
DOCKED: ENDBRANCH   5  35
DOCKED: BRANCH   4  42
DOCKED: ATOM     42  O   UNL d   1     -12.979  -5.351   1.782 -0.10 +0.06    -0.278 OA
DOCKED: BRANCH  42  43
DOCKED: ATOM     43  P   UNL d   1     -14.124  -6.459   1.707 +0.01 -0.05    +0.473 P 
DOCKED: ATOM     44  O   UNL d   1     -14.443  -7.202   2.958 -0.00 +0.03    -0.228 OA
DOCKED: BRANCH  43  45
DOCKED: ATOM     45  O   UNL d   1     -15.352  -5.652   1.098 +0.00 +0.01    -0.303 OA
DOCKED: ATOM     46  H   UNL d   1     -15.579  -4.876   1.649 +0.02 -0.01    +0.222 HD
DOCKED: ENDBRANCH  43  45
DOCKED: BRANCH  43  47
DOCKED: ATOM     47  O   UNL d   1     -13.678  -7.363   0.461 -0.00 +0.01    -0.303 OA
DOCKED: ATOM     48  H   UNL d   1     -12.800  -7.066   0.144 +0.03 -0.01    +0.222 HD
DOCKED: ENDBRANCH  43  47
DOCKED: ENDBRANCH  42  43
DOCKED: ENDBRANCH   4  42
DOCKED: TORSDOF 24
DOCKED: TER
DOCKED: ENDMDL
________________________________________________________________________________

DPF> analysis                             # perform a ranked cluster analysis


		CLUSTER ANALYSIS OF CONFORMATIONS
		_________________________________

Number of conformations = 100

RMSD cluster analysis will be performed using the ligand atoms only (48 / 48 total atoms).

Outputting structurally similar clusters, ranked in order of increasing energy.


________________________________________________________________________________

Number of distinct conformational clusters found = 88,  out of 100 runs,
Using an rmsd-tolerance of 2.0 A


	CLUSTERING HISTOGRAM
	____________________

________________________________________________________________________________
     |           |     |           |     |                                    
Clus | Lowest    | Run | Mean      | Num | Histogram                          
-ter | Binding   |     | Binding   | in  |                                    
Rank | Energy    |     | Energy    | Clus|    5    10   15   20   25   30   35
_____|___________|_____|___________|_____|____:____|____:____|____:____|____:___
   1 |     +0.57 |  33 |     +1.77 |   4 |####
   2 |     +0.98 |  63 |     +1.87 |   3 |###
   3 |     +1.06 |  86 |     +1.06 |   1 |#
   4 |     +1.08 |  30 |     +2.13 |   3 |###
   5 |     +1.23 |  25 |     +1.23 |   1 |#
   6 |     +1.23 |  59 |     +1.23 |   1 |#
   7 |     +1.24 |  80 |     +1.74 |   2 |##
   8 |     +1.40 |  94 |     +1.40 |   1 |#
   9 |     +1.43 |  61 |     +1.43 |   1 |#
  10 |     +1.44 |  48 |     +1.44 |   1 |#
  11 |     +1.61 |  41 |     +1.99 |   2 |##
  12 |     +1.68 |  95 |     +1.68 |   1 |#
  13 |     +1.71 |  45 |     +1.71 |   1 |#
  14 |     +1.84 |  24 |     +1.84 |   1 |#
  15 |     +1.86 |  53 |     +1.86 |   1 |#
  16 |     +1.87 |  22 |     +1.87 |   1 |#
  17 |     +1.99 |  83 |     +1.99 |   1 |#
  18 |     +2.05 |  90 |     +2.05 |   1 |#
  19 |     +2.07 |  67 |     +2.49 |   4 |####
  20 |     +2.11 |  55 |     +2.11 |   1 |#
  21 |     +2.14 |  60 |     +2.14 |   1 |#
  22 |     +2.17 |  99 |     +2.17 |   1 |#
  23 |     +2.18 |  29 |     +2.18 |   1 |#
  24 |     +2.22 |  96 |     +2.22 |   1 |#
  25 |     +2.28 |   9 |     +2.28 |   1 |#
  26 |     +2.28 |  35 |     +2.28 |   1 |#
  27 |     +2.32 |  73 |     +2.32 |   1 |#
  28 |     +2.38 |  40 |     +2.38 |   1 |#
  29 |     +2.39 |  43 |     +2.39 |   1 |#
  30 |     +2.42 |  13 |     +2.42 |   1 |#
  31 |     +2.42 |  87 |     +2.42 |   1 |#
  32 |     +2.46 | 100 |     +2.46 |   1 |#
  33 |     +2.52 |  23 |     +2.52 |   1 |#
  34 |     +2.53 |  14 |     +2.53 |   1 |#
  35 |     +2.55 |  75 |     +2.55 |   1 |#
  36 |     +2.57 |  88 |     +2.57 |   1 |#
  37 |     +2.62 |  15 |     +2.62 |   1 |#
  38 |     +2.64 |  32 |     +2.64 |   1 |#
  39 |     +2.72 |  62 |     +2.72 |   1 |#
  40 |     +2.80 |  69 |     +2.80 |   1 |#
  41 |     +2.81 |  66 |     +2.81 |   1 |#
  42 |     +2.86 |  70 |     +2.86 |   1 |#
  43 |     +2.89 |  74 |     +2.89 |   1 |#
  44 |     +2.92 |  93 |     +2.92 |   1 |#
  45 |     +2.94 |  84 |     +2.94 |   1 |#
  46 |     +3.02 |   1 |     +3.02 |   1 |#
  47 |     +3.06 |  20 |     +3.06 |   1 |#
  48 |     +3.08 |  42 |     +3.08 |   1 |#
  49 |     +3.10 |  58 |     +3.10 |   1 |#
  50 |     +3.14 |  54 |     +3.14 |   1 |#
  51 |     +3.17 |  37 |     +3.17 |   1 |#
  52 |     +3.19 |  34 |     +3.19 |   1 |#
  53 |     +3.22 |  98 |     +3.22 |   1 |#
  54 |     +3.27 |  56 |     +3.27 |   1 |#
  55 |     +3.28 |   3 |     +3.28 |   1 |#
  56 |     +3.33 |   5 |     +3.33 |   1 |#
  57 |     +3.38 |  16 |     +3.38 |   1 |#
  58 |     +3.47 |  19 |     +3.47 |   1 |#
  59 |     +3.48 |  72 |     +3.48 |   1 |#
  60 |     +3.48 |  51 |     +3.48 |   1 |#
  61 |     +3.52 |  12 |     +3.52 |   1 |#
  62 |     +3.64 |  31 |     +3.64 |   1 |#
  63 |     +3.69 |  77 |     +3.69 |   1 |#
  64 |     +3.72 |  47 |     +3.72 |   1 |#
  65 |     +3.75 |  89 |     +3.75 |   1 |#
  66 |     +3.77 |  79 |     +3.77 |   1 |#
  67 |     +3.79 |  81 |     +3.79 |   1 |#
  68 |     +3.83 |  17 |     +3.83 |   1 |#
  69 |     +3.85 |  26 |     +3.85 |   1 |#
  70 |     +3.87 |  52 |     +3.87 |   1 |#
  71 |     +3.94 |  28 |     +3.94 |   1 |#
  72 |     +3.96 |  10 |     +3.96 |   1 |#
  73 |     +3.97 |   2 |     +3.97 |   1 |#
  74 |     +3.98 |  57 |     +3.98 |   1 |#
  75 |     +4.01 |   4 |     +4.01 |   1 |#
  76 |     +4.01 |  49 |     +4.01 |   1 |#
  77 |     +4.09 |  44 |     +4.09 |   1 |#
  78 |     +4.15 |   6 |     +4.15 |   1 |#
  79 |     +4.19 |  82 |     +4.19 |   1 |#
  80 |     +4.23 |  21 |     +4.23 |   1 |#
  81 |     +4.57 |  68 |     +4.57 |   1 |#
  82 |     +4.71 |  78 |     +4.71 |   1 |#
  83 |     +4.79 |  76 |     +4.79 |   1 |#
  84 |     +4.84 |  50 |     +4.84 |   1 |#
  85 |     +4.90 |  65 |     +4.90 |   1 |#
  86 |     +4.93 |  46 |     +4.93 |   1 |#
  87 |     +5.02 |  18 |     +5.02 |   1 |#
  88 |     +5.06 |  27 |     +5.06 |   1 |#
_____|___________|_____|___________|_____|______________________________________


Number of multi-member conformational clusters found = 6, out of 100 runs.

	RMSD TABLE
	__________

_____________________________________________________________________
     |      |      |           |         |                 |
Rank | Sub- | Run  | Binding   | Cluster | Reference       | Grep
     | Rank |      | Energy    | RMSD    | RMSD            | Pattern
_____|______|______|___________|_________|_________________|___________
   1      1     33       +0.57      0.00     17.60           RANKING
   1      2     39       +0.94      1.90     17.69           RANKING
   1      3     11       +2.31      1.99     17.31           RANKING
   1      4     71       +3.24      1.86     18.35           RANKING
   2      1     63       +0.98      0.00     11.73           RANKING
   2      2     85       +2.00      1.55     12.43           RANKING
   2      3     92       +2.63      1.55     11.87           RANKING
   3      1     86       +1.06      0.00     18.88           RANKING
   4      1     30       +1.08      0.00     15.71           RANKING
   4      2     64       +2.64      1.90     16.38           RANKING
   4      3     97       +2.66      1.89     15.10           RANKING
   5      1     25       +1.23      0.00     15.94           RANKING
   6      1     59       +1.23      0.00     15.82           RANKING
   7      1     80       +1.24      0.00     16.14           RANKING
   7      2      7       +2.23      1.96     16.25           RANKING
   8      1     94       +1.40      0.00     12.01           RANKING
   9      1     61       +1.43      0.00     17.41           RANKING
  10      1     48       +1.44      0.00     10.16           RANKING
  11      1     41       +1.61      0.00     15.49           RANKING
  11      2     36       +2.36      1.95     16.21           RANKING
  12      1     95       +1.68      0.00     17.68           RANKING
  13      1     45       +1.71      0.00     17.47           RANKING
  14      1     24       +1.84      0.00     18.95           RANKING
  15      1     53       +1.86      0.00     18.34           RANKING
  16      1     22       +1.87      0.00     13.82           RANKING
  17      1     83       +1.99      0.00     20.77           RANKING
  18      1     90       +2.05      0.00     19.79           RANKING
  19      1     67       +2.07      0.00     14.67           RANKING
  19      2     38       +2.42      2.00     14.94           RANKING
  19      3     91       +2.59      1.79     15.87           RANKING
  19      4      8       +2.88      1.67     15.04           RANKING
  20      1     55       +2.11      0.00     17.47           RANKING
  21      1     60       +2.14      0.00     18.73           RANKING
  22      1     99       +2.17      0.00     12.29           RANKING
  23      1     29       +2.18      0.00     12.15           RANKING
  24      1     96       +2.22      0.00     22.10           RANKING
  25      1      9       +2.28      0.00     21.35           RANKING
  26      1     35       +2.28      0.00     22.07           RANKING
  27      1     73       +2.32      0.00     15.98           RANKING
  28      1     40       +2.38      0.00     17.46           RANKING
  29      1     43       +2.39      0.00     15.79           RANKING
  30      1     13       +2.42      0.00     18.03           RANKING
  31      1     87       +2.42      0.00     21.11           RANKING
  32      1    100       +2.46      0.00     10.14           RANKING
  33      1     23       +2.52      0.00     17.78           RANKING
  34      1     14       +2.53      0.00     14.02           RANKING
  35      1     75       +2.55      0.00     15.67           RANKING
  36      1     88       +2.57      0.00     15.98           RANKING
  37      1     15       +2.62      0.00     14.10           RANKING
  38      1     32       +2.64      0.00     15.59           RANKING
  39      1     62       +2.72      0.00     15.25           RANKING
  40      1     69       +2.80      0.00     13.62           RANKING
  41      1     66       +2.81      0.00     10.96           RANKING
  42      1     70       +2.86      0.00     14.78           RANKING
  43      1     74       +2.89      0.00     19.16           RANKING
  44      1     93       +2.92      0.00     19.27           RANKING
  45      1     84       +2.94      0.00     15.73           RANKING
  46      1      1       +3.02      0.00     12.72           RANKING
  47      1     20       +3.06      0.00     20.29           RANKING
  48      1     42       +3.08      0.00     23.79           RANKING
  49      1     58       +3.10      0.00     15.10           RANKING
  50      1     54       +3.14      0.00     19.75           RANKING
  51      1     37       +3.17      0.00     13.49           RANKING
  52      1     34       +3.19      0.00     16.34           RANKING
  53      1     98       +3.22      0.00     16.35           RANKING
  54      1     56       +3.27      0.00     19.80           RANKING
  55      1      3       +3.28      0.00     15.36           RANKING
  56      1      5       +3.33      0.00     20.72           RANKING
  57      1     16       +3.38      0.00     18.09           RANKING
  58      1     19       +3.47      0.00     10.21           RANKING
  59      1     72       +3.48      0.00     17.48           RANKING
  60      1     51       +3.48      0.00     14.28           RANKING
  61      1     12       +3.52      0.00     16.52           RANKING
  62      1     31       +3.64      0.00     21.27           RANKING
  63      1     77       +3.69      0.00     20.44           RANKING
  64      1     47       +3.72      0.00     20.28           RANKING
  65      1     89       +3.75      0.00     15.25           RANKING
  66      1     79       +3.77      0.00     11.92           RANKING
  67      1     81       +3.79      0.00     22.85           RANKING
  68      1     17       +3.83      0.00     19.03           RANKING
  69      1     26       +3.85      0.00     20.37           RANKING
  70      1     52       +3.87      0.00     16.17           RANKING
  71      1     28       +3.94      0.00     15.44           RANKING
  72      1     10       +3.96      0.00     11.20           RANKING
  73      1      2       +3.97      0.00     18.27           RANKING
  74      1     57       +3.98      0.00     10.19           RANKING
  75      1      4       +4.01      0.00     18.53           RANKING
  76      1     49       +4.01      0.00     18.50           RANKING
  77      1     44       +4.09      0.00     23.15           RANKING
  78      1      6       +4.15      0.00     15.78           RANKING
  79      1     82       +4.19      0.00     10.84           RANKING
  80      1     21       +4.23      0.00     17.55           RANKING
  81      1     68       +4.57      0.00     17.83           RANKING
  82      1     78       +4.71      0.00     18.60           RANKING
  83      1     76       +4.79      0.00     14.04           RANKING
  84      1     50       +4.84      0.00     17.02           RANKING
  85      1     65       +4.90      0.00     22.48           RANKING
  86      1     46       +4.93      0.00     14.62           RANKING
  87      1     18       +5.02      0.00     23.24           RANKING
  88      1     27       +5.06      0.00     22.24           RANKING
_______________________________________________________________________



	INFORMATION ENTROPY ANALYSIS FOR THIS CLUSTERING
	________________________________________________


Information entropy for this clustering = 0.96  (rmstol = 2.00 Angstrom)

_______________________________________________________________________


	STATISTICAL MECHANICAL ANALYSIS
	_______________________________


Partition function, Q =    99.52            at Temperature, T = 298.15 K
Free energy,        A ~ -2725.60 kcal/mol   at Temperature, T = 298.15 K
Internal energy,    U =     2.88 kcal/mol   at Temperature, T = 298.15 K
Entropy,            S =     9.15 kcal/mol/K at Temperature, T = 298.15 K

_______________________________________________________________________


	LOWEST ENERGY DOCKED CONFORMATION from EACH CLUSTER
	___________________________________________________



Keeping original residue number (specified in the input PDBQ file) for outputting.

MODEL       33
USER    Run = 33
USER    Cluster Rank = 1
USER    Number of conformations in this cluster = 4
USER  
USER    RMSD from reference structure       = 17.601 A
USER  
USER    Estimated Free Energy of Binding    =   +0.57 kcal/mol  [=(1)+(2)+(3)-(4)]
USER    
USER    (1) Final Intermolecular Energy     =   -6.58 kcal/mol
USER        vdW + Hbond + desolv Energy     =   -6.36 kcal/mol
USER        Electrostatic Energy            =   -0.23 kcal/mol
USER    (2) Final Total Internal Energy     =  -11.55 kcal/mol
USER    (3) Torsional Free Energy           =   +7.16 kcal/mol
USER    (4) Unbound System's Energy  [=(2)] =  -11.55 kcal/mol
USER    
USER    
USER  
USER    DPF = D:/Protein_go_brrr/autodock/final/mut_N102T/IHP/dock.dpf
USER    NEWDPF move	IHP_ideal_opt.pdbqt
USER    NEWDPF about	0.035000 0.082000 -0.065000
USER    NEWDPF tran0	-6.405105 14.117543 12.891139
USER    NEWDPF axisangle0	0.234760 0.620180 0.748508 107.982396
USER    NEWDPF quaternion0	0.189904 0.501680 0.605488 0.587910
USER    NEWDPF dihe0	74.68 -158.06 60.59 82.06 41.53 36.77 160.01 -88.92 3.78 72.41 -25.32 -69.74 -154.15 -35.70 131.38 -52.28 -86.69 -91.32 -30.99 10.24 146.15 145.12 -175.80 -150.61 
USER  
USER                              x       y       z    vdW   Elec        q     RMS 
ATOM      1  C   UNL d   1      -7.788  13.949  13.913 -0.05 -0.02    +0.194    17.601
ATOM      2  C   UNL d   1      -8.085  14.136  12.424 -0.06 -0.02    +0.194    17.601
ATOM      3  C   UNL d   1      -7.200  15.218  11.802 -0.06 -0.02    +0.194    17.601
ATOM      4  C   UNL d   1      -5.712  15.007  12.071 -0.14 -0.02    +0.194    17.601
ATOM      5  C   UNL d   1      -5.382  14.702  13.526 -0.14 -0.03    +0.194    17.601
ATOM      6  C   UNL d   1      -6.307  13.665  14.167 -0.09 -0.02    +0.194    17.601
ATOM      7  O   UNL d   1      -8.524  12.814  14.376 -0.04 +0.02    -0.278    17.601
ATOM      8  P   UNL d   1      -8.928  12.749  15.920 -0.01 -0.03    +0.473    17.601
ATOM      9  O   UNL d   1      -8.091  11.844  16.753 -0.02 +0.02    -0.228    17.601
ATOM     10  O   UNL d   1      -8.875  14.271  16.398 -0.00 +0.02    -0.303    17.601
ATOM     11  H   UNL d   1      -7.957  14.511  16.620 +0.01 -0.02    +0.222    17.601
ATOM     12  O   UNL d   1     -10.489  12.453  15.926 -0.01 +0.02    -0.303    17.601
ATOM     13  H   UNL d   1     -10.799  12.037  16.762 +0.01 -0.01    +0.222    17.601
ATOM     14  O   UNL d   1      -7.844  12.900  11.741 -0.08 +0.02    -0.278    17.601
ATOM     15  P   UNL d   1      -8.862  12.523  10.563 -0.06 -0.05    +0.473    17.601
ATOM     16  O   UNL d   1      -9.661  13.647   9.980 -0.05 +0.02    -0.228    17.601
ATOM     17  O   UNL d   1      -7.950  11.789   9.483 -0.17 +0.09    -0.303    17.601
ATOM     18  H   UNL d   1      -7.057  12.182   9.451 -0.44 -0.12    +0.222    17.601
ATOM     19  O   UNL d   1      -9.709  11.309  11.144 -0.10 +0.01    -0.303    17.601
ATOM     20  H   UNL d   1      -9.697  11.295  12.119 +0.04 -0.00    +0.222    17.601
ATOM     21  O   UNL d   1      -6.101  13.744  15.576 -0.04 +0.04    -0.278    17.601
ATOM     22  P   UNL d   1      -6.007  15.171  16.283 -0.02 -0.08    +0.473    17.601
ATOM     23  O   UNL d   1      -6.212  15.241  17.759 -0.02 +0.03    -0.228    17.601
ATOM     24  O   UNL d   1      -4.588  15.689  15.781 -0.05 +0.11    -0.303    17.601
ATOM     25  H   UNL d   1      -4.035  14.900  15.551 -0.48 -0.13    +0.222    17.601
ATOM     26  O   UNL d   1      -7.013  16.044  15.391 -0.01 +0.03    -0.303    17.601
ATOM     27  H   UNL d   1      -6.612  16.920  15.218 +0.02 -0.03    +0.222    17.601
ATOM     28  O   UNL d   1      -7.345  15.129  10.390 -0.05 +0.03    -0.278    17.601
ATOM     29  P   UNL d   1      -6.194  14.477   9.503 -0.15 -0.07    +0.473    17.601
ATOM     30  O   UNL d   1      -5.018  15.345   9.240 -0.18 +0.01    -0.228    17.601
ATOM     31  O   UNL d   1      -5.933  13.131  10.330 -0.17 +0.09    -0.303    17.601
ATOM     32  H   UNL d   1      -4.984  12.886  10.239 -0.24 -0.07    +0.222    17.601
ATOM     33  O   UNL d   1      -7.004  13.958   8.234 -0.17 +0.06    -0.303    17.601
ATOM     34  H   UNL d   1      -7.924  13.728   8.512 +0.06 -0.04    +0.222    17.601
ATOM     35  O   UNL d   1      -4.069  14.145  13.517 -0.22 +0.08    -0.278    17.601
ATOM     36  P   UNL d   1      -3.675  13.031  12.446 -0.35 -0.09    +0.473    17.601
ATOM     37  O   UNL d   1      -4.707  11.976  12.204 -0.28 +0.03    -0.228    17.601
ATOM     38  O   UNL d   1      -3.331  13.915  11.167 -0.37 +0.04    -0.303    17.601
ATOM     39  H   UNL d   1      -4.150  14.357  10.852 +0.12 -0.02    +0.222    17.601
ATOM     40  O   UNL d   1      -2.254  12.545  12.968 -0.84 +0.09    -0.303    17.601
ATOM     41  H   UNL d   1      -2.181  12.616  13.946 -0.42 -0.12    +0.222    17.601
ATOM     42  O   UNL d   1      -5.052  16.232  11.737 -0.13 +0.02    -0.278    17.601
ATOM     43  P   UNL d   1      -4.691  17.257  12.905 -0.11 -0.05    +0.473    17.601
ATOM     44  O   UNL d   1      -5.745  17.542  13.918 -0.05 +0.03    -0.228    17.601
ATOM     45  O   UNL d   1      -3.356  16.638  13.511 -0.14 +0.07    -0.303    17.601
ATOM     46  H   UNL d   1      -3.538  16.111  14.314 -0.51 -0.13    +0.222    17.601
ATOM     47  O   UNL d   1      -4.129  18.532  12.113 -0.10 +0.01    -0.303    17.601
ATOM     48  H   UNL d   1      -4.778  19.263  12.177 +0.04 -0.02    +0.222    17.601
TER
ENDMDL
MODEL       63
USER    Run = 63
USER    Cluster Rank = 2
USER    Number of conformations in this cluster = 3
USER  
USER    RMSD from reference structure       = 11.734 A
USER  
USER    Estimated Free Energy of Binding    =   +0.98 kcal/mol  [=(1)+(2)+(3)-(4)]
USER    
USER    (1) Final Intermolecular Energy     =   -6.18 kcal/mol
USER        vdW + Hbond + desolv Energy     =   -6.08 kcal/mol
USER        Electrostatic Energy            =   -0.10 kcal/mol
USER    (2) Final Total Internal Energy     =  -12.09 kcal/mol
USER    (3) Torsional Free Energy           =   +7.16 kcal/mol
USER    (4) Unbound System's Energy  [=(2)] =  -12.09 kcal/mol
USER    
USER    
USER  
USER    DPF = D:/Protein_go_brrr/autodock/final/mut_N102T/IHP/dock.dpf
USER    NEWDPF move	IHP_ideal_opt.pdbqt
USER    NEWDPF about	0.035000 0.082000 -0.065000
USER    NEWDPF tran0	-9.677011 -7.865663 -8.456181
USER    NEWDPF axisangle0	-0.369261 -0.545449 -0.752417 136.513005
USER    NEWDPF quaternion0	-0.342989 -0.506641 -0.698884 0.370452
USER    NEWDPF dihe0	161.70 -180.00 39.02 -180.00 82.75 126.42 -45.88 171.45 136.43 -1.65 124.56 85.07 108.43 -115.11 -125.14 -54.07 -159.47 30.71 9.45 -4.46 -21.56 6.09 8.15 -175.42 
USER  
USER                              x       y       z    vdW   Elec        q     RMS 
ATOM      1  C   UNL d   1      -9.464  -6.234  -8.982 -0.17 +0.03    +0.194    11.734
ATOM      2  C   UNL d   1      -9.031  -7.311  -9.978 -0.15 +0.04    +0.194    11.734
ATOM      3  C   UNL d   1      -8.262  -8.442  -9.291 -0.19 +0.04    +0.194    11.734
ATOM      4  C   UNL d   1      -9.001  -9.029  -8.091 -0.08 +0.04    +0.194    11.734
ATOM      5  C   UNL d   1      -9.552  -7.984  -7.129 -0.09 +0.03    +0.194    11.734
ATOM      6  C   UNL d   1     -10.267  -6.821  -7.820 -0.07 +0.02    +0.194    11.734
ATOM      7  O   UNL d   1     -10.316  -5.311  -9.665 -0.09 -0.04    -0.278    11.734
ATOM      8  P   UNL d   1      -9.795  -3.817  -9.885 -0.18 +0.07    +0.473    11.734
ATOM      9  O   UNL d   1     -10.484  -3.062 -10.967 -0.13 -0.03    -0.228    11.734
ATOM     10  O   UNL d   1      -9.948  -3.138  -8.449 -0.13 -0.06    -0.303    11.734
ATOM     11  H   UNL d   1     -10.253  -3.803  -7.804 +0.07 +0.03    +0.222    11.734
ATOM     12  O   UNL d   1      -8.218  -3.946 -10.025 -0.15 -0.04    -0.303    11.734
ATOM     13  H   UNL d   1      -7.852  -3.418 -10.770 -0.13 +0.01    +0.222    11.734
ATOM     14  O   UNL d   1     -10.195  -7.864 -10.603 -0.06 -0.06    -0.278    11.734
ATOM     15  P   UNL d   1     -10.209  -7.880 -12.204 -0.06 +0.15    +0.473    11.734
ATOM     16  O   UNL d   1     -10.095  -6.555 -12.891 -0.07 -0.11    -0.228    11.734
ATOM     17  O   UNL d   1      -9.030  -8.880 -12.592 -0.14 -0.12    -0.303    11.734
ATOM     18  H   UNL d   1      -8.182  -8.591 -12.203 +0.08 +0.10    +0.222    11.734
ATOM     19  O   UNL d   1     -11.493  -8.740 -12.582 -0.02 -0.06    -0.303    11.734
ATOM     20  H   UNL d   1     -12.127  -8.226 -13.114 +0.02 +0.04    +0.222    11.734
ATOM     21  O   UNL d   1     -10.411  -5.789  -6.847 -0.06 -0.03    -0.278    11.734
ATOM     22  P   UNL d   1     -11.860  -5.209  -6.516 +0.00 +0.05    +0.473    11.734
ATOM     23  O   UNL d   1     -12.306  -3.978  -7.231 -0.02 -0.02    -0.228    11.734
ATOM     24  O   UNL d   1     -12.782  -6.486  -6.747 -0.00 -0.02    -0.303    11.734
ATOM     25  H   UNL d   1     -12.201  -7.289  -6.751 +0.02 +0.02    +0.222    11.734
ATOM     26  O   UNL d   1     -11.816  -5.117  -4.916 -0.01 -0.03    -0.303    11.734
ATOM     27  H   UNL d   1     -11.471  -5.959  -4.555 +0.04 +0.02    +0.222    11.734
ATOM     28  O   UNL d   1      -8.148  -9.509 -10.223 -0.13 -0.07    -0.278    11.734
ATOM     29  P   UNL d   1      -6.715  -9.975 -10.740 -0.17 +0.21    +0.473    11.734
ATOM     30  O   UNL d   1      -6.118  -9.139 -11.813 -0.63 -0.09    -0.228    11.734
ATOM     31  O   UNL d   1      -5.926 -10.046  -9.350 -0.39 -0.11    -0.303    11.734
ATOM     32  H   UNL d   1      -6.564  -9.880  -8.618 +0.13 +0.06    +0.222    11.734
ATOM     33  O   UNL d   1      -6.966 -11.510 -11.080 -0.77 -0.15    -0.303    11.734
ATOM     34  H   UNL d   1      -6.265 -12.055 -10.645 -0.47 +0.08    +0.222    11.734
ATOM     35  O   UNL d   1     -10.523  -8.662  -6.335 -0.03 -0.04    -0.278    11.734
ATOM     36  P   UNL d   1     -10.617  -8.385  -4.767 -0.05 +0.06    +0.473    11.734
ATOM     37  O   UNL d   1     -10.288  -9.547  -3.886 -0.60 -0.05    -0.228    11.734
ATOM     38  O   UNL d   1      -9.641  -7.138  -4.598 -0.11 -0.04    -0.303    11.734
ATOM     39  H   UNL d   1     -10.026  -6.363  -5.062 +0.06 +0.03    +0.222    11.734
ATOM     40  O   UNL d   1     -12.071  -7.756  -4.620 -0.01 -0.02    -0.303    11.734
ATOM     41  H   UNL d   1     -12.257  -7.100  -5.329 +0.02 +0.02    +0.222    11.734
ATOM     42  O   UNL d   1      -8.051  -9.814  -7.362 -0.09 -0.07    -0.278    11.734
ATOM     43  P   UNL d   1      -6.930  -9.069  -6.506 -0.16 +0.11    +0.473    11.734
ATOM     44  O   UNL d   1      -7.343  -8.472  -5.206 -0.11 -0.05    -0.228    11.734
ATOM     45  O   UNL d   1      -5.793 -10.175  -6.383 -0.32 -0.14    -0.303    11.734
ATOM     46  H   UNL d   1      -5.555 -10.543  -7.258 +0.12 +0.11    +0.222    11.734
ATOM     47  O   UNL d   1      -6.281  -8.050  -7.560 -0.28 -0.02    -0.303    11.734
ATOM     48  H   UNL d   1      -5.478  -8.455  -7.948 -0.33 +0.00    +0.222    11.734
TER
ENDMDL
MODEL       86
USER    Run = 86
USER    Cluster Rank = 3
USER    Number of conformations in this cluster = 1
USER  
USER    RMSD from reference structure       = 18.876 A
USER  
USER    Estimated Free Energy of Binding    =   +1.06 kcal/mol  [=(1)+(2)+(3)-(4)]
USER    
USER    (1) Final Intermolecular Energy     =   -6.10 kcal/mol
USER        vdW + Hbond + desolv Energy     =   -5.45 kcal/mol
USER        Electrostatic Energy            =   -0.65 kcal/mol
USER    (2) Final Total Internal Energy     =  -12.92 kcal/mol
USER    (3) Torsional Free Energy           =   +7.16 kcal/mol
USER    (4) Unbound System's Energy  [=(2)] =  -12.92 kcal/mol
USER    
USER    
USER  
USER    DPF = D:/Protein_go_brrr/autodock/final/mut_N102T/IHP/dock.dpf
USER    NEWDPF move	IHP_ideal_opt.pdbqt
USER    NEWDPF about	0.035000 0.082000 -0.065000
USER    NEWDPF tran0	0.535102 -16.625770 -15.428421
USER    NEWDPF axisangle0	0.349742 -0.014256 -0.936738 80.776263
USER    NEWDPF quaternion0	0.226620 -0.009237 -0.606970 0.761673
USER    NEWDPF dihe0	80.57 35.70 -169.21 31.26 176.37 70.45 34.74 -75.59 35.86 78.66 161.67 131.96 -173.76 161.63 -112.76 91.26 -16.53 105.94 -19.33 -12.77 141.88 -17.30 157.46 -39.69 
USER  
USER                              x       y       z    vdW   Elec        q     RMS 
ATOM      1  C   UNL d   1       1.483 -15.333 -14.785 -0.11 +0.01    +0.194    18.876
ATOM      2  C   UNL d   1       1.998 -16.742 -14.486 -0.03 -0.02    +0.194    18.876
ATOM      3  C   UNL d   1       0.862 -17.688 -14.089 -0.13 -0.01    +0.194    18.876
ATOM      4  C   UNL d   1      -0.292 -17.695 -15.087 -0.08 -0.00    +0.194    18.876
ATOM      5  C   UNL d   1      -0.763 -16.306 -15.502 -0.10 +0.00    +0.194    18.876
ATOM      6  C   UNL d   1       0.376 -15.342 -15.840 -0.06 +0.01    +0.194    18.876
ATOM      7  O   UNL d   1       2.567 -14.564 -15.311 -0.10 -0.06    -0.278    18.876
ATOM      8  P   UNL d   1       2.690 -13.031 -14.880 -0.13 +0.32    +0.473    18.876
ATOM      9  O   UNL d   1       2.680 -12.057 -16.005 -0.54 -0.28    -0.228    18.876
ATOM     10  O   UNL d   1       1.485 -12.819 -13.855 -0.26 -0.07    -0.303    18.876
ATOM     11  H   UNL d   1       0.648 -12.736 -14.348 +0.14 +0.03    +0.222    18.876
ATOM     12  O   UNL d   1       3.956 -12.971 -13.922 -0.57 -0.22    -0.303    18.876
ATOM     13  H   UNL d   1       4.295 -13.861 -13.676 +0.08 -0.01    +0.222    18.876
ATOM     14  O   UNL d   1       2.637 -17.264 -15.658 -0.04 +0.03    -0.278    18.876
ATOM     15  P   UNL d   1       4.190 -17.629 -15.523 -0.04 -0.13    +0.473    18.876
ATOM     16  O   UNL d   1       5.053 -17.345 -16.713 -0.01 +0.02    -0.228    18.876
ATOM     17  O   UNL d   1       4.661 -16.846 -14.218 +0.13 +0.31    -0.303    18.876
ATOM     18  H   UNL d   1       4.625 -17.422 -13.430 -0.43 -0.48    +0.222    18.876
ATOM     19  O   UNL d   1       4.200 -19.136 -15.013 -0.03 +0.09    -0.303    18.876
ATOM     20  H   UNL d   1       3.403 -19.345 -14.492 +0.03 -0.06    +0.222    18.876
ATOM     21  O   UNL d   1      -0.187 -14.032 -15.866 -0.09 -0.02    -0.278    18.876
ATOM     22  P   UNL d   1      -1.281 -13.619 -14.782 -0.25 +0.01    +0.473    18.876
ATOM     23  O   UNL d   1      -2.699 -14.013 -15.026 -0.52 -0.04    -0.228    18.876
ATOM     24  O   UNL d   1      -0.648 -14.200 -13.442 -0.29 +0.01    -0.303    18.876
ATOM     25  H   UNL d   1      -0.360 -13.436 -12.881 -0.13 -0.03    +0.222    18.876
ATOM     26  O   UNL d   1      -1.005 -12.047 -14.624 -0.90 -0.04    -0.303    18.876
ATOM     27  H   UNL d   1      -0.523 -11.888 -13.787 -0.28 -0.02    +0.222    18.876
ATOM     28  O   UNL d   1       1.382 -19.011 -14.104 -0.07 +0.03    -0.278    18.876
ATOM     29  P   UNL d   1       1.962 -19.663 -12.771 -0.09 -0.09    +0.473    18.876
ATOM     30  O   UNL d   1       0.973 -19.892 -11.687 -0.10 +0.02    -0.228    18.876
ATOM     31  O   UNL d   1       2.682 -20.955 -13.383 -0.01 +0.04    -0.303    18.876
ATOM     32  H   UNL d   1       3.593 -20.705 -13.661 +0.02 -0.05    +0.222    18.876
ATOM     33  O   UNL d   1       3.188 -18.703 -12.436 -0.13 +0.20    -0.303    18.876
ATOM     34  H   UNL d   1       3.409 -18.173 -13.241 -0.13 -0.17    +0.222    18.876
ATOM     35  O   UNL d   1      -1.521 -16.494 -16.694 -0.04 -0.01    -0.278    18.876
ATOM     36  P   UNL d   1      -0.791 -16.866 -18.063 +0.01 +0.01    +0.473    18.876
ATOM     37  O   UNL d   1       0.500 -17.609 -17.923 -0.00 -0.00    -0.228    18.876
ATOM     38  O   UNL d   1      -1.929 -17.671 -18.832 -0.00 -0.00    -0.303    18.876
ATOM     39  H   UNL d   1      -2.462 -18.176 -18.181 +0.01 +0.00    +0.222    18.876
ATOM     40  O   UNL d   1      -0.739 -15.464 -18.812 -0.01 -0.00    -0.303    18.876
ATOM     41  H   UNL d   1      -0.577 -14.723 -18.187 +0.05 +0.00    +0.222    18.876
ATOM     42  O   UNL d   1      -1.396 -18.337 -14.441 -0.07 +0.01    -0.278    18.876
ATOM     43  P   UNL d   1      -2.459 -19.126 -15.331 -0.06 +0.00    +0.473    18.876
ATOM     44  O   UNL d   1      -3.173 -20.269 -14.697 -0.05 -0.01    -0.228    18.876
ATOM     45  O   UNL d   1      -3.417 -17.963 -15.843 -0.09 -0.01    -0.303    18.876
ATOM     46  H   UNL d   1      -3.091 -17.573 -16.679 +0.03 +0.01    +0.222    18.876
ATOM     47  O   UNL d   1      -1.634 -19.478 -16.660 -0.01 -0.00    -0.303    18.876
ATOM     48  H   UNL d   1      -1.187 -18.669 -16.986 +0.02 +0.00    +0.222    18.876
TER
ENDMDL
MODEL       30
USER    Run = 30
USER    Cluster Rank = 4
USER    Number of conformations in this cluster = 3
USER  
USER    RMSD from reference structure       = 15.714 A
USER  
USER    Estimated Free Energy of Binding    =   +1.08 kcal/mol  [=(1)+(2)+(3)-(4)]
USER    
USER    (1) Final Intermolecular Energy     =   -6.08 kcal/mol
USER        vdW + Hbond + desolv Energy     =   -6.00 kcal/mol
USER        Electrostatic Energy            =   -0.08 kcal/mol
USER    (2) Final Total Internal Energy     =  -13.60 kcal/mol
USER    (3) Torsional Free Energy           =   +7.16 kcal/mol
USER    (4) Unbound System's Energy  [=(2)] =  -13.60 kcal/mol
USER    
USER    
USER  
USER    DPF = D:/Protein_go_brrr/autodock/final/mut_N102T/IHP/dock.dpf
USER    NEWDPF move	IHP_ideal_opt.pdbqt
USER    NEWDPF about	0.035000 0.082000 -0.065000
USER    NEWDPF tran0	-7.630018 -11.045175 13.140393
USER    NEWDPF axisangle0	-0.840797 0.453017 -0.296371 -136.458373
USER    NEWDPF quaternion0	-0.780827 0.420705 -0.275232 -0.370895
USER    NEWDPF dihe0	30.63 75.44 136.62 95.13 38.89 -140.57 -29.06 -82.58 -10.47 89.58 153.11 120.18 -150.05 115.07 158.33 -63.26 -15.97 -163.78 17.25 -14.46 -10.27 -2.62 -24.33 13.48 
USER  
USER                              x       y       z    vdW   Elec        q     RMS 
ATOM      1  C   UNL d   1      -6.021 -11.520  13.554 -0.18 -0.04    +0.194    15.714
ATOM      2  C   UNL d   1      -6.548 -10.275  14.271 -0.13 -0.04    +0.194    15.714
ATOM      3  C   UNL d   1      -7.297  -9.345  13.314 -0.16 -0.05    +0.194    15.714
ATOM      4  C   UNL d   1      -8.387 -10.056  12.515 -0.13 -0.05    +0.194    15.714
ATOM      5  C   UNL d   1      -7.936 -11.363  11.877 -0.20 -0.05    +0.194    15.714
ATOM      6  C   UNL d   1      -7.133 -12.266  12.816 -0.18 -0.05    +0.194    15.714
ATOM      7  O   UNL d   1      -5.491 -12.411  14.539 -0.09 +0.07    -0.278    15.714
ATOM      8  P   UNL d   1      -3.905 -12.539  14.671 -0.16 -0.16    +0.473    15.714
ATOM      9  O   UNL d   1      -3.306 -13.711  13.976 -0.25 +0.13    -0.228    15.714
ATOM     10  O   UNL d   1      -3.357 -11.141  14.130 -0.84 +0.07    -0.303    15.714
ATOM     11  H   UNL d   1      -2.690 -11.298  13.436 -0.40 -0.12    +0.222    15.714
ATOM     12  O   UNL d   1      -3.610 -12.431  16.229 -0.20 +0.09    -0.303    15.714
ATOM     13  H   UNL d   1      -4.343 -12.778  16.785 +0.06 -0.06    +0.222    15.714
ATOM     14  O   UNL d   1      -7.447 -10.680  15.311 -0.02 +0.05    -0.278    15.714
ATOM     15  P   UNL d   1      -7.018 -10.316  16.810 -0.00 -0.07    +0.473    15.714
ATOM     16  O   UNL d   1      -8.044 -10.539  17.876 -0.00 +0.03    -0.228    15.714
ATOM     17  O   UNL d   1      -5.688 -11.160  17.048 -0.06 +0.05    -0.303    15.714
ATOM     18  H   UNL d   1      -5.115 -11.144  16.258 +0.06 -0.04    +0.222    15.714
ATOM     19  O   UNL d   1      -6.443  -8.836  16.710 -0.04 +0.04    -0.303    15.714
ATOM     20  H   UNL d   1      -6.929  -8.305  16.052 +0.06 -0.03    +0.222    15.714
ATOM     21  O   UNL d   1      -6.505 -13.254  12.001 -0.25 +0.09    -0.278    15.714
ATOM     22  P   UNL d   1      -6.953 -14.780  12.120 -0.09 -0.21    +0.473    15.714
ATOM     23  O   UNL d   1      -6.148 -15.809  11.400 -0.27 +0.13    -0.228    15.714
ATOM     24  O   UNL d   1      -7.027 -14.976  13.698 -0.04 +0.09    -0.303    15.714
ATOM     25  H   UNL d   1      -6.396 -14.337  14.118 +0.06 -0.06    +0.222    15.714
ATOM     26  O   UNL d   1      -8.504 -14.696  11.724 -0.10 +0.16    -0.303    15.714
ATOM     27  H   UNL d   1      -8.603 -14.132  10.930 -0.46 -0.18    +0.222    15.714
ATOM     28  O   UNL d   1      -7.978  -8.378  14.103 -0.05 +0.06    -0.278    15.714
ATOM     29  P   UNL d   1      -7.472  -6.868  14.138 -0.12 -0.11    +0.473    15.714
ATOM     30  O   UNL d   1      -6.462  -6.555  15.182 -0.16 +0.03    -0.228    15.714
ATOM     31  O   UNL d   1      -7.020  -6.689  12.613 -0.20 +0.12    -0.303    15.714
ATOM     32  H   UNL d   1      -7.497  -7.355  12.065 +0.10 -0.10    +0.222    15.714
ATOM     33  O   UNL d   1      -8.841  -6.058  14.197 -0.10 +0.10    -0.303    15.714
ATOM     34  H   UNL d   1      -9.564  -6.620  13.823 +0.06 -0.09    +0.222    15.714
ATOM     35  O   UNL d   1      -9.132 -12.064  11.542 -0.12 +0.08    -0.278    15.714
ATOM     36  P   UNL d   1      -9.603 -12.171  10.022 -0.16 -0.16    +0.473    15.714
ATOM     37  O   UNL d   1      -8.508 -12.129   9.003 -0.24 +0.08    -0.228    15.714
ATOM     38  O   UNL d   1     -10.435 -13.529  10.033 -0.19 +0.12    -0.303    15.714
ATOM     39  H   UNL d   1      -9.813 -14.287   9.981 -0.48 -0.15    +0.222    15.714
ATOM     40  O   UNL d   1     -10.718 -11.040   9.930 -0.07 +0.07    -0.303    15.714
ATOM     41  H   UNL d   1     -10.409 -10.192  10.320 +0.07 -0.06    +0.222    15.714
ATOM     42  O   UNL d   1      -8.761  -9.175  11.450 -0.15 +0.09    -0.278    15.714
ATOM     43  P   UNL d   1     -10.053  -8.255  11.628 -0.08 -0.21    +0.473    15.714
ATOM     44  O   UNL d   1     -11.179  -8.462  10.675 -0.06 +0.09    -0.228    15.714
ATOM     45  O   UNL d   1     -10.440  -8.489  13.154 -0.02 +0.08    -0.303    15.714
ATOM     46  H   UNL d   1      -9.882  -7.951  13.751 +0.04 -0.06    +0.222    15.714
ATOM     47  O   UNL d   1      -9.444  -6.773  11.669 -0.16 +0.31    -0.303    15.714
ATOM     48  H   UNL d   1      -8.833  -6.696  12.431 +0.08 -0.17    +0.222    15.714
TER
ENDMDL
MODEL       25
USER    Run = 25
USER    Cluster Rank = 5
USER    Number of conformations in this cluster = 1
USER  
USER    RMSD from reference structure       = 15.936 A
USER  
USER    Estimated Free Energy of Binding    =   +1.23 kcal/mol  [=(1)+(2)+(3)-(4)]
USER    
USER    (1) Final Intermolecular Energy     =   -5.93 kcal/mol
USER        vdW + Hbond + desolv Energy     =   -5.66 kcal/mol
USER        Electrostatic Energy            =   -0.26 kcal/mol
USER    (2) Final Total Internal Energy     =  -13.93 kcal/mol
USER    (3) Torsional Free Energy           =   +7.16 kcal/mol
USER    (4) Unbound System's Energy  [=(2)] =  -13.93 kcal/mol
USER    
USER    
USER  
USER    DPF = D:/Protein_go_brrr/autodock/final/mut_N102T/IHP/dock.dpf
USER    NEWDPF move	IHP_ideal_opt.pdbqt
USER    NEWDPF about	0.035000 0.082000 -0.065000
USER    NEWDPF tran0	7.249771 13.674860 -10.782975
USER    NEWDPF axisangle0	0.835706 -0.473405 -0.278359 -118.038695
USER    NEWDPF quaternion0	0.716485 -0.405869 -0.238649 -0.514749
USER    NEWDPF dihe0	123.49 22.54 178.81 -13.30 162.43 136.61 -92.70 153.89 25.64 -61.34 15.52 173.37 -20.15 87.31 55.41 32.43 -45.72 -157.80 17.85 -48.67 -29.57 22.44 178.81 -8.34 
USER  
USER                              x       y       z    vdW   Elec        q     RMS 
ATOM      1  C   UNL d   1       7.645  12.333 -11.797 -0.19 -0.06    +0.194    15.936
ATOM      2  C   UNL d   1       7.500  13.679 -12.509 -0.09 -0.06    +0.194    15.936
ATOM      3  C   UNL d   1       6.287  14.461 -12.002 -0.07 -0.08    +0.194    15.936
ATOM      4  C   UNL d   1       6.257  14.606 -10.482 -0.13 -0.08    +0.194    15.936
ATOM      5  C   UNL d   1       6.511  13.306  -9.730 -0.16 -0.08    +0.194    15.936
ATOM      6  C   UNL d   1       7.687  12.494 -10.276 -0.22 -0.07    +0.194    15.936
ATOM      7  O   UNL d   1       8.885  11.747 -12.198 -0.09 +0.07    -0.278    15.936
ATOM      8  P   UNL d   1       8.851  10.537 -13.241 -0.14 -0.11    +0.473    15.936
ATOM      9  O   UNL d   1       7.735  10.583 -14.224 -0.25 +0.08    -0.228    15.936
ATOM     10  O   UNL d   1      10.292  10.576 -13.925 -0.10 +0.04    -0.303    15.936
ATOM     11  H   UNL d   1      10.594  11.500 -14.000 +0.04 -0.03    +0.222    15.936
ATOM     12  O   UNL d   1       8.939   9.223 -12.353 -0.05 +0.10    -0.303    15.936
ATOM     13  H   UNL d   1       9.339   9.382 -11.468 -0.35 -0.11    +0.222    15.936
ATOM     14  O   UNL d   1       8.678  14.461 -12.273 -0.01 +0.06    -0.278    15.936
ATOM     15  P   UNL d   1       9.933  14.168 -13.223 +0.01 -0.08    +0.473    15.936
ATOM     16  O   UNL d   1      10.757  15.349 -13.632 -0.00 +0.03    -0.228    15.936
ATOM     17  O   UNL d   1      10.775  13.075 -12.427 -0.00 +0.06    -0.303    15.936
ATOM     18  H   UNL d   1      10.422  12.178 -12.581 +0.05 -0.04    +0.222    15.936
ATOM     19  O   UNL d   1       9.335  13.303 -14.416 -0.01 +0.06    -0.303    15.936
ATOM     20  H   UNL d   1       9.125  12.394 -14.132 +0.05 -0.05    +0.222    15.936
ATOM     21  O   UNL d   1       7.582  11.187  -9.715 -0.47 +0.08    -0.278    15.936
ATOM     22  P   UNL d   1       8.865  10.502  -9.059 -0.27 -0.17    +0.473    15.936
ATOM     23  O   UNL d   1       9.173  10.806  -7.631 -0.45 +0.18    -0.228    15.936
ATOM     24  O   UNL d   1       8.609   8.963  -9.374 -0.87 +0.06    -0.303    15.936
ATOM     25  H   UNL d   1       9.110   8.730 -10.196 -0.39 -0.13    +0.222    15.936
ATOM     26  O   UNL d   1      10.009  10.872 -10.119 -0.12 +0.10    -0.303    15.936
ATOM     27  H   UNL d   1       9.636  10.828 -11.023 +0.09 -0.07    +0.222    15.936
ATOM     28  O   UNL d   1       6.391  15.787 -12.505 -0.03 +0.07    -0.278    15.936
ATOM     29  P   UNL d   1       5.131  16.494 -13.176 -0.01 -0.09    +0.473    15.936
ATOM     30  O   UNL d   1       3.854  15.740 -13.094 -0.12 +0.06    -0.228    15.936
ATOM     31  O   UNL d   1       5.184  17.915 -12.442 -0.00 +0.04    -0.303    15.936
ATOM     32  H   UNL d   1       5.404  17.770 -11.493 +0.02 -0.04    +0.222    15.936
ATOM     33  O   UNL d   1       5.676  16.831 -14.634 -0.00 +0.04    -0.303    15.936
ATOM     34  H   UNL d   1       5.259  17.671 -14.946 +0.01 -0.01    +0.222    15.936
ATOM     35  O   UNL d   1       6.848  13.689  -8.398 -0.23 +0.14    -0.278    15.936
ATOM     36  P   UNL d   1       7.973  14.789  -8.138 -0.09 -0.31    +0.473    15.936
ATOM     37  O   UNL d   1       8.636  15.336  -9.362 -0.03 +0.09    -0.228    15.936
ATOM     38  O   UNL d   1       7.178  15.874  -7.285 -0.07 +0.19    -0.303    15.936
ATOM     39  H   UNL d   1       6.299  16.024  -7.697 +0.06 -0.11    +0.222    15.936
ATOM     40  O   UNL d   1       8.909  14.073  -7.069 -0.13 +0.46    -0.303    15.936
ATOM     41  H   UNL d   1       8.755  14.419  -6.162 -0.48 -0.57    +0.222    15.936
ATOM     42  O   UNL d   1       4.939  15.043 -10.133 -0.17 +0.12    -0.278    15.936
ATOM     43  P   UNL d   1       4.763  16.441  -9.385 -0.08 -0.15    +0.473    15.936
ATOM     44  O   UNL d   1       4.294  16.409  -7.972 -0.16 +0.08    -0.228    15.936
ATOM     45  O   UNL d   1       6.187  17.124  -9.583 -0.01 +0.08    -0.303    15.936
ATOM     46  H   UNL d   1       6.905  16.567  -9.222 +0.04 -0.07    +0.222    15.936
ATOM     47  O   UNL d   1       3.853  17.286 -10.398 -0.04 +0.07    -0.303    15.936
ATOM     48  H   UNL d   1       3.752  16.788 -11.235 +0.06 -0.05    +0.222    15.936
TER
ENDMDL
MODEL       59
USER    Run = 59
USER    Cluster Rank = 6
USER    Number of conformations in this cluster = 1
USER  
USER    RMSD from reference structure       = 15.817 A
USER  
USER    Estimated Free Energy of Binding    =   +1.23 kcal/mol  [=(1)+(2)+(3)-(4)]
USER    
USER    (1) Final Intermolecular Energy     =   -5.93 kcal/mol
USER        vdW + Hbond + desolv Energy     =   -5.46 kcal/mol
USER        Electrostatic Energy            =   -0.47 kcal/mol
USER    (2) Final Total Internal Energy     =  -11.94 kcal/mol
USER    (3) Torsional Free Energy           =   +7.16 kcal/mol
USER    (4) Unbound System's Energy  [=(2)] =  -11.94 kcal/mol
USER    
USER    
USER  
USER    DPF = D:/Protein_go_brrr/autodock/final/mut_N102T/IHP/dock.dpf
USER    NEWDPF move	IHP_ideal_opt.pdbqt
USER    NEWDPF about	0.035000 0.082000 -0.065000
USER    NEWDPF tran0	8.421866 14.198094 -9.762311
USER    NEWDPF axisangle0	0.376151 -0.445108 -0.812643 -61.494792
USER    NEWDPF quaternion0	0.192309 -0.227563 -0.415467 -0.859430
USER    NEWDPF dihe0	110.07 10.96 32.87 131.07 58.92 -147.42 6.73 45.14 137.06 -34.46 132.99 164.66 32.04 -0.36 -4.53 137.46 -159.68 177.82 6.99 -30.49 -22.36 -176.28 13.04 -14.48 
USER  
USER                              x       y       z    vdW   Elec        q     RMS 
ATOM      1  C   UNL d   1       8.120  12.566  -9.283 -0.19 -0.08    +0.194    15.817
ATOM      2  C   UNL d   1       7.132  13.152 -10.293 -0.21 -0.07    +0.194    15.817
ATOM      3  C   UNL d   1       6.733  14.584  -9.930 -0.16 -0.08    +0.194    15.817
ATOM      4  C   UNL d   1       7.930  15.501  -9.696 -0.03 -0.07    +0.194    15.817
ATOM      5  C   UNL d   1       8.997  14.908  -8.784 -0.06 -0.10    +0.194    15.817
ATOM      6  C   UNL d   1       9.352  13.456  -9.109 -0.10 -0.10    +0.194    15.817
ATOM      7  O   UNL d   1       8.573  11.305  -9.782 -0.22 +0.09    -0.278    15.817
ATOM      8  P   UNL d   1       8.207   9.987  -8.957 -0.35 -0.13    +0.473    15.817
ATOM      9  O   UNL d   1       6.859   9.422  -9.236 -0.41 +0.05    -0.228    15.817
ATOM     10  O   UNL d   1       9.394   8.976  -9.296 -0.67 +0.05    -0.303    15.817
ATOM     11  H   UNL d   1       9.545   8.961 -10.259 -0.43 -0.14    +0.222    15.817
ATOM     12  O   UNL d   1       8.505  10.353  -7.440 -0.52 +0.18    -0.303    15.817
ATOM     13  H   UNL d   1       9.271  10.961  -7.333 +0.04 -0.23    +0.222    15.817
ATOM     14  O   UNL d   1       7.741  13.163 -11.590 -0.09 +0.09    -0.278    15.817
ATOM     15  P   UNL d   1       7.309  11.992 -12.594 -0.15 -0.17    +0.473    15.817
ATOM     16  O   UNL d   1       5.844  11.841 -12.860 -0.23 +0.13    -0.228    15.817
ATOM     17  O   UNL d   1       8.149  12.284 -13.916 -0.07 +0.09    -0.303    15.817
ATOM     18  H   UNL d   1       7.902  13.144 -14.306 +0.06 -0.07    +0.222    15.817
ATOM     19  O   UNL d   1       8.040  10.696 -12.031 -0.18 +0.09    -0.303    15.817
ATOM     20  H   UNL d   1       7.639  10.390 -11.196 +0.13 -0.06    +0.222    15.817
ATOM     21  O   UNL d   1      10.079  12.949  -7.992 -0.14 +0.29    -0.278    15.817
ATOM     22  P   UNL d   1      11.526  12.315  -8.210 -0.07 -0.31    +0.473    15.817
ATOM     23  O   UNL d   1      12.320  12.762  -9.391 -0.03 +0.07    -0.228    15.817
ATOM     24  O   UNL d   1      12.216  12.585  -6.802 -0.50 +0.32    -0.303    15.817
ATOM     25  H   UNL d   1      11.607  13.153  -6.264 -0.48 -0.46    +0.222    15.817
ATOM     26  O   UNL d   1      11.210  10.746  -8.129 -0.16 +0.13    -0.303    15.817
ATOM     27  H   UNL d   1      10.355  10.566  -8.572 +0.11 -0.09    +0.222    15.817
ATOM     28  O   UNL d   1       6.049  15.134 -11.049 -0.10 +0.10    -0.278    15.817
ATOM     29  P   UNL d   1       6.818  15.378 -12.422 -0.02 -0.12    +0.473    15.817
ATOM     30  O   UNL d   1       6.407  14.504 -13.551 -0.07 +0.07    -0.228    15.817
ATOM     31  O   UNL d   1       6.583  16.951 -12.598 -0.01 +0.05    -0.303    15.817
ATOM     32  H   UNL d   1       6.954  17.414 -11.812 +0.01 -0.04    +0.222    15.817
ATOM     33  O   UNL d   1       8.343  15.299 -11.969 -0.01 +0.07    -0.303    15.817
ATOM     34  H   UNL d   1       8.717  14.429 -12.253 +0.03 -0.05    +0.222    15.817
ATOM     35  O   UNL d   1      10.171  15.687  -9.006 -0.01 +0.11    -0.278    15.817
ATOM     36  P   UNL d   1      11.157  16.017  -7.796 -0.01 -0.22    +0.473    15.817
ATOM     37  O   UNL d   1      11.267  17.464  -7.430 -0.00 +0.07    -0.228    15.817
ATOM     38  O   UNL d   1      10.574  15.092  -6.638 -0.09 +0.35    -0.303    15.817
ATOM     39  H   UNL d   1      10.716  14.151  -6.877 -0.14 -0.33    +0.222    15.817
ATOM     40  O   UNL d   1      12.496  15.281  -8.237 -0.00 +0.11    -0.303    15.817
ATOM     41  H   UNL d   1      12.437  14.308  -8.104 +0.03 -0.10    +0.222    15.817
ATOM     42  O   UNL d   1       7.431  16.677  -9.051 -0.01 +0.09    -0.278    15.817
ATOM     43  P   UNL d   1       7.743  18.102  -9.697 +0.01 -0.09    +0.473    15.817
ATOM     44  O   UNL d   1       8.157  19.198  -8.777 +0.00 +0.04    -0.228    15.817
ATOM     45  O   UNL d   1       8.818  17.750 -10.817 +0.00 +0.05    -0.303    15.817
ATOM     46  H   UNL d   1       8.458  17.121 -11.473 +0.01 -0.04    +0.222    15.817
ATOM     47  O   UNL d   1       6.437  18.397 -10.580 -0.00 +0.05    -0.303    15.817
ATOM     48  H   UNL d   1       5.939  17.563 -10.708 +0.03 -0.04    +0.222    15.817
TER
ENDMDL
MODEL       80
USER    Run = 80
USER    Cluster Rank = 7
USER    Number of conformations in this cluster = 2
USER  
USER    RMSD from reference structure       = 16.144 A
USER  
USER    Estimated Free Energy of Binding    =   +1.24 kcal/mol  [=(1)+(2)+(3)-(4)]
USER    
USER    (1) Final Intermolecular Energy     =   -5.92 kcal/mol
USER        vdW + Hbond + desolv Energy     =   -5.21 kcal/mol
USER        Electrostatic Energy            =   -0.71 kcal/mol
USER    (2) Final Total Internal Energy     =  -11.60 kcal/mol
USER    (3) Torsional Free Energy           =   +7.16 kcal/mol
USER    (4) Unbound System's Energy  [=(2)] =  -11.60 kcal/mol
USER    
USER    
USER  
USER    DPF = D:/Protein_go_brrr/autodock/final/mut_N102T/IHP/dock.dpf
USER    NEWDPF move	IHP_ideal_opt.pdbqt
USER    NEWDPF about	0.035000 0.082000 -0.065000
USER    NEWDPF tran0	8.899051 14.134938 -11.817825
USER    NEWDPF axisangle0	-0.077222 0.728456 -0.680726 100.520688
USER    NEWDPF quaternion0	-0.059381 0.560152 -0.523449 0.639300
USER    NEWDPF dihe0	18.37 -179.96 147.42 34.96 -29.88 139.19 -15.99 99.50 101.97 -41.60 -32.22 125.85 117.88 -168.47 -156.26 136.26 170.00 -74.89 37.63 -19.30 157.40 -24.28 7.68 172.42 
USER  
USER                              x       y       z    vdW   Elec        q     RMS 
ATOM      1  C   UNL d   1       8.815  13.971 -10.100 -0.05 -0.07    +0.194    16.144
ATOM      2  C   UNL d   1       9.867  13.106 -10.796 -0.03 -0.06    +0.194    16.144
ATOM      3  C   UNL d   1       9.319  12.465 -12.073 -0.06 -0.05    +0.194    16.144
ATOM      4  C   UNL d   1       8.680  13.473 -13.025 -0.04 -0.05    +0.194    16.144
ATOM      5  C   UNL d   1       7.708  14.433 -12.351 -0.06 -0.05    +0.194    16.144
ATOM      6  C   UNL d   1       8.232  15.026 -11.041 -0.03 -0.05    +0.194    16.144
ATOM      7  O   UNL d   1       9.450  14.665  -9.023 -0.03 +0.14    -0.278    16.144
ATOM      8  P   UNL d   1       9.592  13.918  -7.618 -0.01 -0.55    +0.473    16.144
ATOM      9  O   UNL d   1      10.471  14.598  -6.628 -0.09 +0.34    -0.228    16.144
ATOM     10  O   UNL d   1       8.088  13.752  -7.114 -0.24 +0.40    -0.303    16.144
ATOM     11  H   UNL d   1       8.043  13.927  -6.156 -0.33 -0.55    +0.222    16.144
ATOM     12  O   UNL d   1       9.987  12.423  -7.984 -0.16 +0.32    -0.303    16.144
ATOM     13  H   UNL d   1      10.720  12.071  -7.430 -0.34 -0.33    +0.222    16.144
ATOM     14  O   UNL d   1      10.991  13.925 -11.142 +0.00 +0.06    -0.278    16.144
ATOM     15  P   UNL d   1      12.357  13.634 -10.358 +0.02 -0.11    +0.473    16.144
ATOM     16  O   UNL d   1      12.840  14.705  -9.431 -0.00 +0.06    -0.228    16.144
ATOM     17  O   UNL d   1      12.091  12.250  -9.616 -0.03 +0.09    -0.303    16.144
ATOM     18  H   UNL d   1      11.763  11.574 -10.240 +0.06 -0.06    +0.222    16.144
ATOM     19  O   UNL d   1      13.381  13.197 -11.493 +0.00 +0.04    -0.303    16.144
ATOM     20  H   UNL d   1      12.922  12.831 -12.272 +0.01 -0.03    +0.222    16.144
ATOM     21  O   UNL d   1       7.113  15.607 -10.375 -0.03 +0.08    -0.278    16.144
ATOM     22  P   UNL d   1       5.821  14.721 -10.077 -0.05 -0.20    +0.473    16.144
ATOM     23  O   UNL d   1       4.498  15.222 -10.549 -0.20 +0.10    -0.228    16.144
ATOM     24  O   UNL d   1       6.251  13.309 -10.672 -0.01 +0.16    -0.303    16.144
ATOM     25  H   UNL d   1       5.889  13.239 -11.592 -0.42 -0.17    +0.222    16.144
ATOM     26  O   UNL d   1       5.955  14.470  -8.499 -0.22 +0.15    -0.303    16.144
ATOM     27  H   UNL d   1       6.902  14.387  -8.266 +0.07 -0.13    +0.222    16.144
ATOM     28  O   UNL d   1      10.422  11.920 -12.786 -0.03 +0.05    -0.278    16.144
ATOM     29  P   UNL d   1      10.942  10.450 -12.462 -0.09 -0.10    +0.473    16.144
ATOM     30  O   UNL d   1      10.693   9.435 -13.518 -0.22 +0.03    -0.228    16.144
ATOM     31  O   UNL d   1      12.470  10.767 -12.105 -0.03 +0.05    -0.303    16.144
ATOM     32  H   UNL d   1      12.510  11.634 -11.640 +0.03 -0.04    +0.222    16.144
ATOM     33  O   UNL d   1      10.297  10.175 -11.033 -0.14 +0.11    -0.303    16.144
ATOM     34  H   UNL d   1      10.257   9.199 -10.881 -0.45 -0.16    +0.222    16.144
ATOM     35  O   UNL d   1       7.537  15.515 -13.263 -0.01 +0.06    -0.278    16.144
ATOM     36  P   UNL d   1       6.090  16.140 -13.509 -0.00 -0.09    +0.473    16.144
ATOM     37  O   UNL d   1       5.824  16.621 -14.900 -0.01 +0.03    -0.228    16.144
ATOM     38  O   UNL d   1       5.139  14.956 -13.033 -0.10 +0.11    -0.303    16.144
ATOM     39  H   UNL d   1       5.579  14.461 -12.308 -0.16 -0.11    +0.222    16.144
ATOM     40  O   UNL d   1       5.980  17.213 -12.341 -0.01 +0.05    -0.303    16.144
ATOM     41  H   UNL d   1       5.690  16.804 -11.496 +0.03 -0.05    +0.222    16.144
ATOM     42  O   UNL d   1       7.930  12.719 -13.984 -0.06 +0.09    -0.278    16.144
ATOM     43  P   UNL d   1       6.727  11.803 -13.475 -0.15 -0.21    +0.473    16.144
ATOM     44  O   UNL d   1       6.826  11.242 -12.099 -0.30 +0.08    -0.228    16.144
ATOM     45  O   UNL d   1       5.457  12.733 -13.709 -0.24 +0.17    -0.303    16.144
ATOM     46  H   UNL d   1       5.120  13.098 -12.867 -0.48 -0.18    +0.222    16.144
ATOM     47  O   UNL d   1       6.564  10.726 -14.651 -0.22 +0.22    -0.303    16.144
ATOM     48  H   UNL d   1       6.432  11.195 -15.501 -0.30 -0.32    +0.222    16.144
TER
ENDMDL
MODEL       94
USER    Run = 94
USER    Cluster Rank = 8
USER    Number of conformations in this cluster = 1
USER  
USER    RMSD from reference structure       = 12.012 A
USER  
USER    Estimated Free Energy of Binding    =   +1.40 kcal/mol  [=(1)+(2)+(3)-(4)]
USER    
USER    (1) Final Intermolecular Energy     =   -5.76 kcal/mol
USER        vdW + Hbond + desolv Energy     =   -5.53 kcal/mol
USER        Electrostatic Energy            =   -0.23 kcal/mol
USER    (2) Final Total Internal Energy     =  -14.25 kcal/mol
USER    (3) Torsional Free Energy           =   +7.16 kcal/mol
USER    (4) Unbound System's Energy  [=(2)] =  -14.25 kcal/mol
USER    
USER    
USER  
USER    DPF = D:/Protein_go_brrr/autodock/final/mut_N102T/IHP/dock.dpf
USER    NEWDPF move	IHP_ideal_opt.pdbqt
USER    NEWDPF about	0.035000 0.082000 -0.065000
USER    NEWDPF tran0	10.954517 -10.944387 3.984179
USER    NEWDPF axisangle0	0.647248 0.195619 -0.736752 -159.261678
USER    NEWDPF quaternion0	0.636678 0.192424 -0.724719 -0.179990
USER    NEWDPF dihe0	67.25 27.36 49.56 84.20 -14.12 -168.82 -148.88 44.68 -5.62 19.42 136.29 131.27 -173.42 124.34 16.05 32.44 -176.60 59.96 12.57 -14.13 158.22 168.70 -31.16 -9.77 
USER  
USER                              x       y       z    vdW   Elec        q     RMS 
ATOM      1  C   UNL d   1       9.674 -10.601   2.876 -0.22 -0.01    +0.194    12.012
ATOM      2  C   UNL d   1       9.738  -9.702   4.112 -0.21 +0.01    +0.194    12.012
ATOM      3  C   UNL d   1      10.017 -10.505   5.384 -0.23 +0.03    +0.194    12.012
ATOM      4  C   UNL d   1      11.240 -11.411   5.266 -0.12 +0.02    +0.194    12.012
ATOM      5  C   UNL d   1      11.275 -12.244   3.991 -0.12 +0.01    +0.194    12.012
ATOM      6  C   UNL d   1      10.935 -11.453   2.726 -0.10 -0.02    +0.194    12.012
ATOM      7  O   UNL d   1       9.584  -9.766   1.720 -0.15 +0.06    -0.278    12.012
ATOM      8  P   UNL d   1       8.207  -9.735   0.911 -0.30 -0.11    +0.473    12.012
ATOM      9  O   UNL d   1       8.308 -10.125  -0.522 -0.42 +0.09    -0.228    12.012
ATOM     10  O   UNL d   1       7.242 -10.686   1.753 -0.43 +0.03    -0.303    12.012
ATOM     11  H   UNL d   1       7.314 -11.601   1.422 -0.43 -0.08    +0.222    12.012
ATOM     12  O   UNL d   1       7.591  -8.299   1.197 -0.21 +0.03    -0.303    12.012
ATOM     13  H   UNL d   1       7.988  -7.859   1.982 +0.14 -0.01    +0.222    12.012
ATOM     14  O   UNL d   1      10.788  -8.743   3.938 -0.08 -0.02    -0.278    12.012
ATOM     15  P   UNL d   1      10.352  -7.202   3.900 -0.12 +0.08    +0.473    12.012
ATOM     16  O   UNL d   1      11.447  -6.198   3.722 -0.15 -0.05    -0.228    12.012
ATOM     17  O   UNL d   1       9.260  -7.137   2.742 -0.16 -0.00    -0.303    12.012
ATOM     18  H   UNL d   1       9.561  -7.618   1.947 +0.12 -0.04    +0.222    12.012
ATOM     19  O   UNL d   1       9.452  -7.013   5.199 -0.12 -0.12    -0.303    12.012
ATOM     20  H   UNL d   1       9.666  -7.673   5.884 +0.08 +0.10    +0.222    12.012
ATOM     21  O   UNL d   1      10.674 -12.409   1.700 -0.08 +0.04    -0.278    12.012
ATOM     22  P   UNL d   1       9.559 -13.527   1.925 -0.19 -0.07    +0.473    12.012
ATOM     23  O   UNL d   1       8.239 -13.105   2.478 -0.59 +0.01    -0.228    12.012
ATOM     24  O   UNL d   1       9.492 -14.213   0.490 -0.17 +0.09    -0.303    12.012
ATOM     25  H   UNL d   1       8.935 -13.642  -0.099 -0.42 -0.13    +0.222    12.012
ATOM     26  O   UNL d   1      10.361 -14.621   2.778 -0.12 -0.01    -0.303    12.012
ATOM     27  H   UNL d   1      11.169 -14.211   3.150 +0.05 +0.02    +0.222    12.012
ATOM     28  O   UNL d   1      10.332  -9.578   6.415 -0.13 -0.07    -0.278    12.012
ATOM     29  P   UNL d   1      11.796  -8.959   6.520 -0.05 +0.16    +0.473    12.012
ATOM     30  O   UNL d   1      12.717  -9.298   5.405 -0.02 -0.04    -0.228    12.012
ATOM     31  O   UNL d   1      11.431  -7.413   6.717 -0.20 -0.26    -0.303    12.012
ATOM     32  H   UNL d   1      11.490  -6.963   5.842 +0.05 +0.17    +0.222    12.012
ATOM     33  O   UNL d   1      12.242  -9.403   7.983 -0.03 -0.10    -0.303    12.012
ATOM     34  H   UNL d   1      12.877 -10.157   7.910 +0.03 +0.05    +0.222    12.012
ATOM     35  O   UNL d   1      12.623 -12.690   3.857 -0.03 -0.00    -0.278    12.012
ATOM     36  P   UNL d   1      13.031 -14.164   4.310 -0.05 +0.02    +0.473    12.012
ATOM     37  O   UNL d   1      14.257 -14.261   5.162 -0.01 -0.00    -0.228    12.012
ATOM     38  O   UNL d   1      11.698 -14.667   5.021 -0.30 -0.07    -0.303    12.012
ATOM     39  H   UNL d   1      11.626 -14.244   5.904 +0.04 +0.04    +0.222    12.012
ATOM     40  O   UNL d   1      13.049 -14.952   2.929 -0.02 +0.00    -0.303    12.012
ATOM     41  H   UNL d   1      12.500 -14.504   2.247 +0.03 -0.01    +0.222    12.012
ATOM     42  O   UNL d   1      11.185 -12.327   6.365 +0.02 -0.04    -0.278    12.012
ATOM     43  P   UNL d   1      12.396 -12.360   7.403 -0.03 +0.06    +0.473    12.012
ATOM     44  O   UNL d   1      12.169 -11.748   8.742 -0.04 -0.04    -0.228    12.012
ATOM     45  O   UNL d   1      12.774 -13.905   7.450 -0.04 -0.02    -0.303    12.012
ATOM     46  H   UNL d   1      13.088 -14.223   6.580 +0.02 +0.01    +0.222    12.012
ATOM     47  O   UNL d   1      13.617 -11.751   6.562 -0.01 -0.03    -0.303    12.012
ATOM     48  H   UNL d   1      13.675 -12.211   5.699 +0.02 +0.01    +0.222    12.012
TER
ENDMDL
MODEL       61
USER    Run = 61
USER    Cluster Rank = 9
USER    Number of conformations in this cluster = 1
USER  
USER    RMSD from reference structure       = 17.407 A
USER  
USER    Estimated Free Energy of Binding    =   +1.43 kcal/mol  [=(1)+(2)+(3)-(4)]
USER    
USER    (1) Final Intermolecular Energy     =   -5.73 kcal/mol
USER        vdW + Hbond + desolv Energy     =   -5.66 kcal/mol
USER        Electrostatic Energy            =   -0.07 kcal/mol
USER    (2) Final Total Internal Energy     =  -12.30 kcal/mol
USER    (3) Torsional Free Energy           =   +7.16 kcal/mol
USER    (4) Unbound System's Energy  [=(2)] =  -12.30 kcal/mol
USER    
USER    
USER  
USER    DPF = D:/Protein_go_brrr/autodock/final/mut_N102T/IHP/dock.dpf
USER    NEWDPF move	IHP_ideal_opt.pdbqt
USER    NEWDPF about	0.035000 0.082000 -0.065000
USER    NEWDPF tran0	-6.453572 -14.111684 13.273536
USER    NEWDPF axisangle0	-0.722694 -0.651836 -0.229833 159.614433
USER    NEWDPF quaternion0	-0.711288 -0.641549 -0.226205 0.176961
USER    NEWDPF dihe0	-115.34 -23.01 98.65 116.20 -10.50 162.69 -19.77 8.45 7.69 93.47 -3.53 -107.83 176.11 55.88 -133.96 152.45 -68.31 -2.09 68.98 24.44 -52.07 25.97 39.02 -37.32 
USER  
USER                              x       y       z    vdW   Elec        q     RMS 
ATOM      1  C   UNL d   1      -6.665 -12.736  12.250 -0.21 -0.06    +0.194    17.407
ATOM      2  C   UNL d   1      -7.630 -13.897  12.005 -0.12 -0.08    +0.194    17.407
ATOM      3  C   UNL d   1      -6.911 -15.248  12.036 -0.15 -0.09    +0.194    17.407
ATOM      4  C   UNL d   1      -6.071 -15.452  13.294 -0.12 -0.07    +0.194    17.407
ATOM      5  C   UNL d   1      -5.177 -14.269  13.642 -0.15 -0.07    +0.194    17.407
ATOM      6  C   UNL d   1      -5.880 -12.913  13.550 -0.17 -0.05    +0.194    17.407
ATOM      7  O   UNL d   1      -7.434 -11.537  12.377 -0.15 +0.07    -0.278    17.407
ATOM      8  P   UNL d   1      -8.462 -11.168  11.212 -0.15 -0.12    +0.473    17.407
ATOM      9  O   UNL d   1      -8.390  -9.763  10.728 -0.22 +0.06    -0.228    17.407
ATOM     10  O   UNL d   1      -8.157 -12.241  10.072 -0.13 +0.11    -0.303    17.407
ATOM     11  H   UNL d   1      -8.677 -13.050  10.235 -0.42 -0.14    +0.222    17.407
ATOM     12  O   UNL d   1      -9.880 -11.646  11.746 -0.05 +0.07    -0.303    17.407
ATOM     13  H   UNL d   1      -9.958 -12.624  11.813 +0.05 -0.06    +0.222    17.407
ATOM     14  O   UNL d   1      -8.637 -13.892  13.025 -0.06 +0.08    -0.278    17.407
ATOM     15  P   UNL d   1     -10.029 -14.596  12.660 -0.02 -0.13    +0.473    17.407
ATOM     16  O   UNL d   1     -10.349 -15.865  13.385 -0.01 +0.06    -0.228    17.407
ATOM     17  O   UNL d   1     -11.115 -13.456  12.902 -0.01 +0.06    -0.303    17.407
ATOM     18  H   UNL d   1     -10.690 -12.615  13.160 +0.02 -0.04    +0.222    17.407
ATOM     19  O   UNL d   1     -10.019 -14.696  11.073 -0.10 +0.14    -0.303    17.407
ATOM     20  H   UNL d   1      -9.236 -15.177  10.747 -0.41 -0.18    +0.222    17.407
ATOM     21  O   UNL d   1      -4.859 -11.918  13.561 -0.23 +0.08    -0.278    17.407
ATOM     22  P   UNL d   1      -5.192 -10.447  14.082 -0.20 -0.10    +0.473    17.407
ATOM     23  O   UNL d   1      -5.368  -9.364  13.072 -0.35 +0.06    -0.228    17.407
ATOM     24  O   UNL d   1      -6.459 -10.709  15.008 -0.05 +0.06    -0.303    17.407
ATOM     25  H   UNL d   1      -7.247 -10.843  14.421 +0.07 -0.04    +0.222    17.407
ATOM     26  O   UNL d   1      -4.033 -10.216  15.165 -0.37 +0.04    -0.303    17.407
ATOM     27  H   UNL d   1      -3.579 -11.066  15.337 +0.08 -0.01    +0.222    17.407
ATOM     28  O   UNL d   1      -7.907 -16.262  12.079 -0.12 +0.14    -0.278    17.407
ATOM     29  P   UNL d   1      -7.769 -17.563  11.171 -0.14 -0.36    +0.473    17.407
ATOM     30  O   UNL d   1      -7.862 -18.859  11.891 -0.07 +0.13    -0.228    17.407
ATOM     31  O   UNL d   1      -8.893 -17.259  10.074 -0.14 +0.32    -0.303    17.407
ATOM     32  H   UNL d   1      -8.948 -16.285   9.942 -0.42 -0.24    +0.222    17.407
ATOM     33  O   UNL d   1      -6.418 -17.276  10.379 -0.25 +0.29    -0.303    17.407
ATOM     34  H   UNL d   1      -5.662 -17.295  11.016 +0.00 -0.17    +0.222    17.407
ATOM     35  O   UNL d   1      -4.801 -14.455  15.005 -0.06 +0.09    -0.278    17.407
ATOM     36  P   UNL d   1      -3.664 -13.547  15.658 -0.13 -0.17    +0.473    17.407
ATOM     37  O   UNL d   1      -2.687 -12.946  14.697 -0.57 +0.13    -0.228    17.407
ATOM     38  O   UNL d   1      -4.524 -12.480  16.469 -0.11 +0.07    -0.303    17.407
ATOM     39  H   UNL d   1      -5.073 -11.965  15.840 +0.07 -0.05    +0.222    17.407
ATOM     40  O   UNL d   1      -3.073 -14.500  16.786 -0.09 +0.10    -0.303    17.407
ATOM     41  H   UNL d   1      -2.826 -15.381  16.426 +0.06 -0.09    +0.222    17.407
ATOM     42  O   UNL d   1      -5.212 -16.569  13.042 -0.09 +0.13    -0.278    17.407
ATOM     43  P   UNL d   1      -4.790 -17.508  14.261 +0.00 -0.18    +0.473    17.407
ATOM     44  O   UNL d   1      -5.854 -17.897  15.228 -0.00 +0.06    -0.228    17.407
ATOM     45  O   UNL d   1      -4.095 -18.738  13.529 -0.01 +0.12    -0.303    17.407
ATOM     46  H   UNL d   1      -4.757 -19.338  13.129 +0.03 -0.08    +0.222    17.407
ATOM     47  O   UNL d   1      -3.527 -16.747  14.889 -0.04 +0.15    -0.303    17.407
ATOM     48  H   UNL d   1      -3.833 -15.932  15.339 +0.06 -0.09    +0.222    17.407
TER
ENDMDL
MODEL       48
USER    Run = 48
USER    Cluster Rank = 10
USER    Number of conformations in this cluster = 1
USER  
USER    RMSD from reference structure       = 10.162 A
USER  
USER    Estimated Free Energy of Binding    =   +1.44 kcal/mol  [=(1)+(2)+(3)-(4)]
USER    
USER    (1) Final Intermolecular Energy     =   -5.72 kcal/mol
USER        vdW + Hbond + desolv Energy     =   -5.40 kcal/mol
USER        Electrostatic Energy            =   -0.32 kcal/mol
USER    (2) Final Total Internal Energy     =  -11.64 kcal/mol
USER    (3) Torsional Free Energy           =   +7.16 kcal/mol
USER    (4) Unbound System's Energy  [=(2)] =  -11.64 kcal/mol
USER    
USER    
USER  
USER    DPF = D:/Protein_go_brrr/autodock/final/mut_N102T/IHP/dock.dpf
USER    NEWDPF move	IHP_ideal_opt.pdbqt
USER    NEWDPF about	0.035000 0.082000 -0.065000
USER    NEWDPF tran0	-10.782096 -8.203607 2.013117
USER    NEWDPF axisangle0	-0.955419 -0.294697 -0.018115 115.699452
USER    NEWDPF quaternion0	-0.808911 -0.249507 -0.015337 0.532142
USER    NEWDPF dihe0	82.22 27.01 41.79 20.82 60.22 -75.04 161.98 49.30 -153.53 -42.99 21.67 167.50 -164.21 171.33 123.09 136.67 99.76 -146.73 44.86 -9.47 -46.27 56.70 162.53 -36.45 
USER  
USER                              x       y       z    vdW   Elec        q     RMS 
ATOM      1  C   UNL d   1      -9.800  -8.078   0.598 -0.11 -0.04    +0.194    10.162
ATOM      2  C   UNL d   1     -11.311  -8.039   0.360 -0.05 -0.02    +0.194    10.162
ATOM      3  C   UNL d   1     -12.044  -9.085   1.201 -0.02 -0.02    +0.194    10.162
ATOM      4  C   UNL d   1     -11.692  -9.019   2.685 -0.03 -0.03    +0.194    10.162
ATOM      5  C   UNL d   1     -10.196  -8.941   2.964 -0.10 -0.03    +0.194    10.162
ATOM      6  C   UNL d   1      -9.453  -7.938   2.080 -0.15 -0.04    +0.194    10.162
ATOM      7  O   UNL d   1      -9.212  -6.968  -0.085 -0.17 +0.03    -0.278    10.162
ATOM      8  P   UNL d   1      -9.014  -7.067  -1.667 -0.09 -0.03    +0.473    10.162
ATOM      9  O   UNL d   1      -7.598  -7.125  -2.123 -0.34 +0.04    -0.228    10.162
ATOM     10  O   UNL d   1      -9.860  -8.354  -2.082 -0.36 +0.01    -0.303    10.162
ATOM     11  H   UNL d   1      -9.375  -9.161  -1.827 -0.49 -0.04    +0.222    10.162
ATOM     12  O   UNL d   1      -9.889  -5.885  -2.268 -0.11 -0.04    -0.303    10.162
ATOM     13  H   UNL d   1     -10.562  -5.544  -1.636 +0.07 +0.04    +0.222    10.162
ATOM     14  O   UNL d   1     -11.805  -6.741   0.713 -0.05 +0.02    -0.278    10.162
ATOM     15  P   UNL d   1     -12.568  -5.928  -0.437 -0.03 +0.02    +0.473    10.162
ATOM     16  O   UNL d   1     -12.178  -4.495  -0.618 -0.03 -0.06    -0.228    10.162
ATOM     17  O   UNL d   1     -12.335  -6.802  -1.749 -0.01 -0.01    -0.303    10.162
ATOM     18  H   UNL d   1     -11.385  -6.971  -1.894 +0.04 +0.01    +0.222    10.162
ATOM     19  O   UNL d   1     -14.111  -6.188  -0.150 -0.00 +0.00    -0.303    10.162
ATOM     20  H   UNL d   1     -14.275  -7.106   0.136 +0.02 -0.01    +0.222    10.162
ATOM     21  O   UNL d   1      -8.062  -8.223   2.213 -0.22 +0.06    -0.278    10.162
ATOM     22  P   UNL d   1      -6.996  -7.042   2.094 -0.34 -0.09    +0.473    10.162
ATOM     23  O   UNL d   1      -5.692  -7.196   2.801 -0.58 +0.06    -0.228    10.162
ATOM     24  O   UNL d   1      -6.884  -6.862   0.517 -0.26 +0.03    -0.303    10.162
ATOM     25  H   UNL d   1      -7.416  -7.578   0.086 -0.26 -0.08    +0.222    10.162
ATOM     26  O   UNL d   1      -7.875  -5.767   2.511 -0.36 +0.09    -0.303    10.162
ATOM     27  H   UNL d   1      -7.567  -5.434   3.379 -0.08 -0.11    +0.222    10.162
ATOM     28  O   UNL d   1     -13.434  -8.795   1.129 -0.00 +0.02    -0.278    10.162
ATOM     29  P   UNL d   1     -14.505  -9.856   1.641 +0.01 -0.03    +0.473    10.162
ATOM     30  O   UNL d   1     -15.239  -9.481   2.877 +0.00 +0.02    -0.228    10.162
ATOM     31  O   UNL d   1     -15.373 -10.042   0.309 +0.00 +0.01    -0.303    10.162
ATOM     32  H   UNL d   1     -16.310 -10.203   0.565 +0.00 -0.01    +0.222    10.162
ATOM     33  O   UNL d   1     -13.648 -11.197   1.692 -0.00 +0.02    -0.303    10.162
ATOM     34  H   UNL d   1     -13.486 -11.439   2.637 +0.02 -0.02    +0.222    10.162
ATOM     35  O   UNL d   1     -10.078  -8.483   4.310 -0.11 +0.06    -0.278    10.162
ATOM     36  P   UNL d   1     -10.536  -7.006   4.701 -0.14 -0.24    +0.473    10.162
ATOM     37  O   UNL d   1     -11.161  -6.861   6.052 -0.17 +0.12    -0.228    10.162
ATOM     38  O   UNL d   1      -9.185  -6.185   4.512 -0.27 +0.22    -0.303    10.162
ATOM     39  H   UNL d   1      -9.383  -5.343   4.049 -0.46 -0.29    +0.222    10.162
ATOM     40  O   UNL d   1     -11.419  -6.582   3.448 -0.10 +0.16    -0.303    10.162
ATOM     41  H   UNL d   1     -10.867  -6.223   2.718 +0.05 -0.12    +0.222    10.162
ATOM     42  O   UNL d   1     -12.168 -10.232   3.278 -0.03 +0.03    -0.278    10.162
ATOM     43  P   UNL d   1     -12.680 -10.201   4.789 -0.03 -0.07    +0.473    10.162
ATOM     44  O   UNL d   1     -11.751 -10.705   5.839 -0.09 +0.04    -0.228    10.162
ATOM     45  O   UNL d   1     -13.117  -8.683   4.979 -0.00 +0.06    -0.303    10.162
ATOM     46  H   UNL d   1     -12.406  -8.069   4.705 +0.05 -0.06    +0.222    10.162
ATOM     47  O   UNL d   1     -14.100 -10.941   4.709 -0.01 +0.03    -0.303    10.162
ATOM     48  H   UNL d   1     -14.373 -11.015   3.771 +0.01 -0.02    +0.222    10.162
TER
ENDMDL
MODEL       41
USER    Run = 41
USER    Cluster Rank = 11
USER    Number of conformations in this cluster = 2
USER  
USER    RMSD from reference structure       = 15.487 A
USER  
USER    Estimated Free Energy of Binding    =   +1.61 kcal/mol  [=(1)+(2)+(3)-(4)]
USER    
USER    (1) Final Intermolecular Energy     =   -5.55 kcal/mol
USER        vdW + Hbond + desolv Energy     =   -5.29 kcal/mol
USER        Electrostatic Energy            =   -0.26 kcal/mol
USER    (2) Final Total Internal Energy     =  -12.40 kcal/mol
USER    (3) Torsional Free Energy           =   +7.16 kcal/mol
USER    (4) Unbound System's Energy  [=(2)] =  -12.40 kcal/mol
USER    
USER    
USER  
USER    DPF = D:/Protein_go_brrr/autodock/final/mut_N102T/IHP/dock.dpf
USER    NEWDPF move	IHP_ideal_opt.pdbqt
USER    NEWDPF about	0.035000 0.082000 -0.065000
USER    NEWDPF tran0	15.997823 7.638308 -8.135312
USER    NEWDPF axisangle0	0.628749 0.626736 -0.460301 119.500119
USER    NEWDPF quaternion0	0.543136 0.541397 -0.397624 0.503773
USER    NEWDPF dihe0	-106.09 10.30 108.76 172.28 111.57 179.82 -71.73 -82.23 69.71 41.24 -126.59 -86.20 20.35 80.47 31.14 -154.13 130.89 -37.78 -127.43 -18.11 -179.97 -21.88 -1.14 172.91 
USER  
USER                              x       y       z    vdW   Elec        q     RMS 
ATOM      1  C   UNL d   1      15.180   8.886  -7.264 -0.06 -0.03    +0.194    15.487
ATOM      2  C   UNL d   1      15.269   7.534  -6.555 -0.13 -0.04    +0.194    15.487
ATOM      3  C   UNL d   1      14.979   6.373  -7.509 -0.18 -0.03    +0.194    15.487
ATOM      4  C   UNL d   1      15.824   6.415  -8.780 -0.05 -0.03    +0.194    15.487
ATOM      5  C   UNL d   1      15.857   7.778  -9.459 -0.03 -0.02    +0.194    15.487
ATOM      6  C   UNL d   1      16.086   8.944  -8.495 -0.05 -0.02    +0.194    15.487
ATOM      7  O   UNL d   1      15.630   9.896  -6.357 -0.07 +0.05    -0.278    15.487
ATOM      8  P   UNL d   1      17.024  10.616  -6.653 -0.02 -0.06    +0.473    15.487
ATOM      9  O   UNL d   1      17.015  11.560  -7.804 -0.01 +0.03    -0.228    15.487
ATOM     10  O   UNL d   1      17.399  11.317  -5.270 -0.01 +0.04    -0.303    15.487
ATOM     11  H   UNL d   1      18.002  10.741  -4.765 +0.02 -0.03    +0.222    15.487
ATOM     12  O   UNL d   1      18.089   9.440  -6.729 -0.00 +0.03    -0.303    15.487
ATOM     13  H   UNL d   1      17.896   8.704  -6.106 +0.02 -0.03    +0.222    15.487
ATOM     14  O   UNL d   1      16.590   7.370  -6.025 -0.05 +0.05    -0.278    15.487
ATOM     15  P   UNL d   1      16.723   7.342  -4.429 -0.09 -0.15    +0.473    15.487
ATOM     16  O   UNL d   1      17.618   6.293  -3.847 -0.08 +0.06    -0.228    15.487
ATOM     17  O   UNL d   1      17.179   8.821  -4.052 -0.05 +0.07    -0.303    15.487
ATOM     18  H   UNL d   1      17.071   9.426  -4.810 +0.04 -0.04    +0.222    15.487
ATOM     19  O   UNL d   1      15.220   7.328  -3.906 -0.25 +0.18    -0.303    15.487
ATOM     20  H   UNL d   1      14.996   6.483  -3.475 +0.03 -0.19    +0.222    15.487
ATOM     21  O   UNL d   1      15.752  10.136  -9.204 -0.02 +0.03    -0.278    15.487
ATOM     22  P   UNL d   1      14.220  10.533  -9.408 -0.05 -0.07    +0.473    15.487
ATOM     23  O   UNL d   1      13.390  10.785  -8.195 -0.31 +0.04    -0.228    15.487
ATOM     24  O   UNL d   1      14.335  11.767 -10.406 -0.00 +0.05    -0.303    15.487
ATOM     25  H   UNL d   1      14.975  11.526 -11.123 +0.01 -0.03    +0.222    15.487
ATOM     26  O   UNL d   1      13.708   9.366 -10.380 -0.07 +0.05    -0.303    15.487
ATOM     27  H   UNL d   1      14.423   8.708 -10.498 +0.05 -0.03    +0.222    15.487
ATOM     28  O   UNL d   1      15.351   5.171  -6.847 -0.10 +0.04    -0.278    15.487
ATOM     29  P   UNL d   1      14.302   4.399  -5.932 -0.22 -0.07    +0.473    15.487
ATOM     30  O   UNL d   1      14.803   3.154  -5.293 -0.18 +0.04    -0.228    15.487
ATOM     31  O   UNL d   1      13.854   5.586  -4.957 -0.65 +0.08    -0.303    15.487
ATOM     32  H   UNL d   1      14.545   6.288  -4.979 -0.01 -0.09    +0.222    15.487
ATOM     33  O   UNL d   1      13.051   4.254  -6.907 -0.71 +0.04    -0.303    15.487
ATOM     34  H   UNL d   1      13.102   4.956  -7.601 -0.38 -0.08    +0.222    15.487
ATOM     35  O   UNL d   1      16.973   7.741 -10.346 -0.00 +0.03    -0.278    15.487
ATOM     36  P   UNL d   1      16.802   8.170 -11.873 +0.01 -0.04    +0.473    15.487
ATOM     37  O   UNL d   1      18.061   8.198 -12.680 -0.00 +0.01    -0.228    15.487
ATOM     38  O   UNL d   1      15.718   7.123 -12.386 -0.02 +0.04    -0.303    15.487
ATOM     39  H   UNL d   1      15.474   6.525 -11.647 +0.04 -0.03    +0.222    15.487
ATOM     40  O   UNL d   1      15.991   9.533 -11.754 -0.00 +0.03    -0.303    15.487
ATOM     41  H   UNL d   1      15.798   9.762 -10.818 +0.02 -0.02    +0.222    15.487
ATOM     42  O   UNL d   1      15.227   5.499  -9.704 -0.05 +0.05    -0.278    15.487
ATOM     43  P   UNL d   1      13.734   5.764 -10.198 -0.21 -0.14    +0.473    15.487
ATOM     44  O   UNL d   1      13.101   7.055  -9.809 -0.31 +0.06    -0.228    15.487
ATOM     45  O   UNL d   1      13.841   5.540 -11.770 -0.17 +0.11    -0.303    15.487
ATOM     46  H   UNL d   1      12.964   5.366 -12.167 -0.48 -0.13    +0.222    15.487
ATOM     47  O   UNL d   1      12.954   4.443  -9.733 -0.20 +0.15    -0.303    15.487
ATOM     48  H   UNL d   1      12.563   4.594  -8.848 -0.28 -0.20    +0.222    15.487
TER
ENDMDL
MODEL       95
USER    Run = 95
USER    Cluster Rank = 12
USER    Number of conformations in this cluster = 1
USER  
USER    RMSD from reference structure       = 17.682 A
USER  
USER    Estimated Free Energy of Binding    =   +1.68 kcal/mol  [=(1)+(2)+(3)-(4)]
USER    
USER    (1) Final Intermolecular Energy     =   -5.48 kcal/mol
USER        vdW + Hbond + desolv Energy     =   -5.08 kcal/mol
USER        Electrostatic Energy            =   -0.39 kcal/mol
USER    (2) Final Total Internal Energy     =  -14.12 kcal/mol
USER    (3) Torsional Free Energy           =   +7.16 kcal/mol
USER    (4) Unbound System's Energy  [=(2)] =  -14.12 kcal/mol
USER    
USER    
USER  
USER    DPF = D:/Protein_go_brrr/autodock/final/mut_N102T/IHP/dock.dpf
USER    NEWDPF move	IHP_ideal_opt.pdbqt
USER    NEWDPF about	0.035000 0.082000 -0.065000
USER    NEWDPF tran0	11.702308 13.091192 -11.323939
USER    NEWDPF axisangle0	-0.935985 -0.329280 -0.124528 113.037651
USER    NEWDPF quaternion0	-0.780674 -0.274641 -0.103865 0.551663
USER    NEWDPF dihe0	126.94 58.50 172.91 5.82 -30.56 -152.70 42.45 -123.32 -13.57 102.20 62.35 -97.89 -27.61 75.14 -31.61 -101.49 -80.21 -8.86 23.75 -36.46 168.44 32.89 10.14 -25.62 
USER  
USER                              x       y       z    vdW   Elec        q     RMS 
ATOM      1  C   UNL d   1      12.828  13.349 -12.608 +0.00 -0.02    +0.194    17.682
ATOM      2  C   UNL d   1      11.371  13.161 -13.035 -0.01 -0.03    +0.194    17.682
ATOM      3  C   UNL d   1      10.697  12.024 -12.263 -0.04 -0.04    +0.194    17.682
ATOM      4  C   UNL d   1      10.844  12.155 -10.749 -0.04 -0.05    +0.194    17.682
ATOM      5  C   UNL d   1      12.263  12.458 -10.287 -0.02 -0.05    +0.194    17.682
ATOM      6  C   UNL d   1      12.959  13.553 -11.098 +0.01 -0.03    +0.194    17.682
ATOM      7  O   UNL d   1      13.330  14.529 -13.242 +0.00 +0.03    -0.278    17.682
ATOM      8  P   UNL d   1      14.202  14.364 -14.570 +0.00 -0.03    +0.473    17.682
ATOM      9  O   UNL d   1      13.963  13.108 -15.331 -0.00 +0.01    -0.228    17.682
ATOM     10  O   UNL d   1      13.876  15.680 -15.412 +0.00 +0.02    -0.303    17.682
ATOM     11  H   UNL d   1      12.965  15.972 -15.222 +0.00 -0.01    +0.222    17.682
ATOM     12  O   UNL d   1      15.702  14.625 -14.114 +0.00 +0.02    -0.303    17.682
ATOM     13  H   UNL d   1      15.814  14.617 -13.137 +0.00 -0.02    +0.222    17.682
ATOM     14  O   UNL d   1      10.650  14.374 -12.782 +0.00 +0.04    -0.278    17.682
ATOM     15  P   UNL d   1      10.507  15.391 -14.011 +0.00 -0.06    +0.473    17.682
ATOM     16  O   UNL d   1       9.133  15.909 -14.297 -0.00 +0.03    -0.228    17.682
ATOM     17  O   UNL d   1      11.547  16.550 -13.678 +0.00 +0.03    -0.303    17.682
ATOM     18  H   UNL d   1      12.462  16.269 -13.873 +0.00 -0.02    +0.222    17.682
ATOM     19  O   UNL d   1      11.228  14.653 -15.222 +0.00 +0.03    -0.303    17.682
ATOM     20  H   UNL d   1      12.137  14.387 -14.992 +0.00 -0.02    +0.222    17.682
ATOM     21  O   UNL d   1      14.348  13.478 -10.785 +0.00 +0.04    -0.278    17.682
ATOM     22  P   UNL d   1      15.189  12.193 -11.216 +0.01 -0.05    +0.473    17.682
ATOM     23  O   UNL d   1      14.475  11.085 -11.913 -0.01 +0.03    -0.228    17.682
ATOM     24  O   UNL d   1      16.379  12.847 -12.047 +0.00 +0.02    -0.303    17.682
ATOM     25  H   UNL d   1      16.144  12.804 -13.008 +0.00 -0.02    +0.222    17.682
ATOM     26  O   UNL d   1      15.918  11.806  -9.842 +0.00 +0.04    -0.303    17.682
ATOM     27  H   UNL d   1      15.330  12.028  -9.092 +0.02 -0.03    +0.222    17.682
ATOM     28  O   UNL d   1       9.300  12.104 -12.516 -0.05 +0.07    -0.278    17.682
ATOM     29  P   UNL d   1       8.431  10.777 -12.659 -0.09 -0.13    +0.473    17.682
ATOM     30  O   UNL d   1       7.603  10.684 -13.889 -0.23 +0.08    -0.228    17.682
ATOM     31  O   UNL d   1       9.574   9.673 -12.468 -0.20 +0.09    -0.303    17.682
ATOM     32  H   UNL d   1       9.600   9.410 -11.519 -0.40 -0.12    +0.222    17.682
ATOM     33  O   UNL d   1       7.661  10.731 -11.267 -0.24 +0.09    -0.303    17.682
ATOM     34  H   UNL d   1       8.320  10.617 -10.539 +0.12 -0.07    +0.222    17.682
ATOM     35  O   UNL d   1      12.140  12.940  -8.950 -0.04 +0.11    -0.278    17.682
ATOM     36  P   UNL d   1      13.205  12.515  -7.841 -0.05 -0.17    +0.473    17.682
ATOM     37  O   UNL d   1      13.728  11.118  -7.950 -0.36 +0.04    -0.228    17.682
ATOM     38  O   UNL d   1      14.316  13.645  -8.006 -0.01 +0.08    -0.303    17.682
ATOM     39  H   UNL d   1      14.923  13.394  -8.735 +0.01 -0.04    +0.222    17.682
ATOM     40  O   UNL d   1      12.462  12.904  -6.490 -0.40 +0.30    -0.303    17.682
ATOM     41  H   UNL d   1      11.616  12.413  -6.385 -0.50 -0.50    +0.222    17.682
ATOM     42  O   UNL d   1      10.478  10.891 -10.187 -0.12 +0.09    -0.278    17.682
ATOM     43  P   UNL d   1       9.552  10.863  -8.888 -0.21 -0.21    +0.473    17.682
ATOM     44  O   UNL d   1       8.477  11.890  -8.789 -0.72 +0.10    -0.228    17.682
ATOM     45  O   UNL d   1       9.023   9.362  -8.869 -0.89 +0.04    -0.303    17.682
ATOM     46  H   UNL d   1       9.236   8.897  -9.703 -0.34 -0.08    +0.222    17.682
ATOM     47  O   UNL d   1      10.610  10.850  -7.684 -0.07 +0.22    -0.303    17.682
ATOM     48  H   UNL d   1      10.924  11.764  -7.521 -0.22 -0.26    +0.222    17.682
TER
ENDMDL
MODEL       45
USER    Run = 45
USER    Cluster Rank = 13
USER    Number of conformations in this cluster = 1
USER  
USER    RMSD from reference structure       = 17.475 A
USER  
USER    Estimated Free Energy of Binding    =   +1.71 kcal/mol  [=(1)+(2)+(3)-(4)]
USER    
USER    (1) Final Intermolecular Energy     =   -5.45 kcal/mol
USER        vdW + Hbond + desolv Energy     =   -5.38 kcal/mol
USER        Electrostatic Energy            =   -0.07 kcal/mol
USER    (2) Final Total Internal Energy     =  -11.26 kcal/mol
USER    (3) Torsional Free Energy           =   +7.16 kcal/mol
USER    (4) Unbound System's Energy  [=(2)] =  -11.26 kcal/mol
USER    
USER    
USER  
USER    DPF = D:/Protein_go_brrr/autodock/final/mut_N102T/IHP/dock.dpf
USER    NEWDPF move	IHP_ideal_opt.pdbqt
USER    NEWDPF about	0.035000 0.082000 -0.065000
USER    NEWDPF tran0	-6.475114 14.217757 12.612745
USER    NEWDPF axisangle0	0.770282 -0.345057 0.536284 101.349413
USER    NEWDPF quaternion0	0.595860 -0.266922 0.414848 0.633722
USER    NEWDPF dihe0	176.06 -61.58 31.43 78.34 -26.12 -139.18 -102.98 0.36 131.72 2.21 -23.92 -6.67 143.14 -179.84 -4.87 48.78 -180.00 -96.62 2.53 -34.77 151.19 155.19 166.19 -100.56 
USER  
USER                              x       y       z    vdW   Elec        q     RMS 
ATOM      1  C   UNL d   1      -5.358  13.631  13.792 -0.16 -0.03    +0.194    17.475
ATOM      2  C   UNL d   1      -6.473  14.531  14.328 -0.06 -0.03    +0.194    17.475
ATOM      3  C   UNL d   1      -6.709  15.741  13.422 -0.05 -0.02    +0.194    17.475
ATOM      4  C   UNL d   1      -6.925  15.364  11.959 -0.07 -0.02    +0.194    17.475
ATOM      5  C   UNL d   1      -5.900  14.377  11.415 -0.18 -0.02    +0.194    17.475
ATOM      6  C   UNL d   1      -5.619  13.198  12.349 -0.19 -0.03    +0.194    17.475
ATOM      7  O   UNL d   1      -5.318  12.446  14.591 -0.13 +0.04    -0.278    17.475
ATOM      8  P   UNL d   1      -3.970  12.108  15.380 -0.21 -0.13    +0.473    17.475
ATOM      9  O   UNL d   1      -3.876  10.717  15.901 -0.22 +0.08    -0.228    17.475
ATOM     10  O   UNL d   1      -2.814  12.469  14.342 -0.83 +0.11    -0.303    17.475
ATOM     11  H   UNL d   1      -3.170  13.051  13.645 +0.11 -0.07    +0.222    17.475
ATOM     12  O   UNL d   1      -3.821  13.265  16.459 -0.15 +0.08    -0.303    17.475
ATOM     13  H   UNL d   1      -3.112  13.909  16.237 -0.44 -0.11    +0.222    17.475
ATOM     14  O   UNL d   1      -7.687  13.774  14.405 -0.03 +0.02    -0.278    17.475
ATOM     15  P   UNL d   1      -8.049  13.144  15.832 -0.01 -0.04    +0.473    17.475
ATOM     16  O   UNL d   1      -8.276  11.666  15.876 -0.04 +0.01    -0.228    17.475
ATOM     17  O   UNL d   1      -6.856  13.614  16.777 -0.01 +0.03    -0.303    17.475
ATOM     18  H   UNL d   1      -6.007  13.228  16.489 +0.04 -0.03    +0.222    17.475
ATOM     19  O   UNL d   1      -9.251  14.039  16.367 -0.00 +0.02    -0.303    17.475
ATOM     20  H   UNL d   1      -9.679  14.536  15.645 +0.01 -0.01    +0.222    17.475
ATOM     21  O   UNL d   1      -4.427  12.574  11.877 -0.32 +0.05    -0.278    17.475
ATOM     22  P   UNL d   1      -3.141  13.463  11.557 -0.43 -0.08    +0.473    17.475
ATOM     23  O   UNL d   1      -2.994  14.769  12.260 -0.34 +0.04    -0.228    17.475
ATOM     24  O   UNL d   1      -1.958  12.429  11.814 -0.59 +0.07    -0.303    17.475
ATOM     25  H   UNL d   1      -1.666  12.524  12.756 -0.24 -0.10    +0.222    17.475
ATOM     26  O   UNL d   1      -3.181  13.527   9.955 -0.31 +0.02    -0.303    17.475
ATOM     27  H   UNL d   1      -4.091  13.742   9.665 +0.07 -0.02    +0.222    17.475
ATOM     28  O   UNL d   1      -7.922  16.356  13.837 -0.01 +0.02    -0.278    17.475
ATOM     29  P   UNL d   1      -9.297  15.982  13.125 -0.00 -0.03    +0.473    17.475
ATOM     30  O   UNL d   1      -9.328  14.662  12.444 -0.02 +0.02    -0.228    17.475
ATOM     31  O   UNL d   1     -10.310  16.194  14.346 -0.00 +0.02    -0.303    17.475
ATOM     32  H   UNL d   1      -9.973  15.691  15.124 +0.00 -0.01    +0.222    17.475
ATOM     33  O   UNL d   1      -9.564  17.265  12.221 -0.00 +0.02    -0.303    17.475
ATOM     34  H   UNL d   1      -8.810  17.378  11.592 +0.01 -0.01    +0.222    17.475
ATOM     35  O   UNL d   1      -6.474  13.841  10.224 -0.18 +0.05    -0.278    17.475
ATOM     36  P   UNL d   1      -7.821  12.990  10.292 -0.09 -0.08    +0.473    17.475
ATOM     37  O   UNL d   1      -7.834  11.737   9.475 -0.14 +0.07    -0.228    17.475
ATOM     38  O   UNL d   1      -7.977  12.751  11.859 -0.05 +0.02    -0.303    17.475
ATOM     39  H   UNL d   1      -8.070  13.619  12.308 +0.04 -0.02    +0.222    17.475
ATOM     40  O   UNL d   1      -8.929  14.081   9.959 -0.04 +0.03    -0.303    17.475
ATOM     41  H   UNL d   1      -8.730  14.944  10.384 +0.03 -0.02    +0.222    17.475
ATOM     42  O   UNL d   1      -6.795  16.569  11.197 -0.04 +0.02    -0.278    17.475
ATOM     43  P   UNL d   1      -6.215  16.484   9.713 -0.07 -0.03    +0.473    17.475
ATOM     44  O   UNL d   1      -4.934  15.749   9.518 -0.04 +0.01    -0.228    17.475
ATOM     45  O   UNL d   1      -7.440  15.886   8.893 -0.04 +0.02    -0.303    17.475
ATOM     46  H   UNL d   1      -7.357  14.918   8.780 +0.06 -0.03    +0.222    17.475
ATOM     47  O   UNL d   1      -6.216  18.013   9.232 -0.06 +0.02    -0.303    17.475
ATOM     48  H   UNL d   1      -5.758  18.080   8.368 +0.03 -0.01    +0.222    17.475
TER
ENDMDL
MODEL       24
USER    Run = 24
USER    Cluster Rank = 14
USER    Number of conformations in this cluster = 1
USER  
USER    RMSD from reference structure       = 18.950 A
USER  
USER    Estimated Free Energy of Binding    =   +1.84 kcal/mol  [=(1)+(2)+(3)-(4)]
USER    
USER    (1) Final Intermolecular Energy     =   -5.32 kcal/mol
USER        vdW + Hbond + desolv Energy     =   -5.27 kcal/mol
USER        Electrostatic Energy            =   -0.05 kcal/mol
USER    (2) Final Total Internal Energy     =  -13.06 kcal/mol
USER    (3) Torsional Free Energy           =   +7.16 kcal/mol
USER    (4) Unbound System's Energy  [=(2)] =  -13.06 kcal/mol
USER    
USER    
USER  
USER    DPF = D:/Protein_go_brrr/autodock/final/mut_N102T/IHP/dock.dpf
USER    NEWDPF move	IHP_ideal_opt.pdbqt
USER    NEWDPF about	0.035000 0.082000 -0.065000
USER    NEWDPF tran0	-1.990687 7.741521 18.640693
USER    NEWDPF axisangle0	0.207338 0.572353 0.793362 90.494620
USER    NEWDPF quaternion0	0.147242 0.406458 0.563408 0.704048
USER    NEWDPF dihe0	156.71 -15.98 -17.67 65.20 129.33 152.07 -67.59 -27.41 123.52 -16.75 -3.59 179.83 29.24 -21.09 68.51 171.15 107.69 -35.71 -135.12 -14.92 26.72 0.28 -28.55 179.68 
USER  
USER                              x       y       z    vdW   Elec        q     RMS 
ATOM      1  C   UNL d   1      -3.079   7.138  19.838 -0.04 -0.04    +0.194    18.950
ATOM      2  C   UNL d   1      -3.707   7.474  18.485 -0.10 -0.04    +0.194    18.950
ATOM      3  C   UNL d   1      -3.177   8.797  17.928 -0.13 -0.05    +0.194    18.950
ATOM      4  C   UNL d   1      -1.652   8.866  17.890 -0.16 -0.07    +0.194    18.950
ATOM      5  C   UNL d   1      -0.979   8.429  19.185 -0.09 -0.05    +0.194    18.950
ATOM      6  C   UNL d   1      -1.552   7.138  19.775 -0.07 -0.05    +0.194    18.950
ATOM      7  O   UNL d   1      -3.491   5.819  20.205 -0.04 +0.07    -0.278    18.950
ATOM      8  P   UNL d   1      -2.452   4.620  20.016 -0.12 -0.25    +0.473    18.950
ATOM      9  O   UNL d   1      -1.440   4.484  21.099 -0.14 +0.21    -0.228    18.950
ATOM     10  O   UNL d   1      -3.376   3.329  19.855 -0.15 +0.14    -0.303    18.950
ATOM     11  H   UNL d   1      -4.314   3.588  19.929 +0.06 -0.05    +0.222    18.950
ATOM     12  O   UNL d   1      -1.875   4.801  18.547 -0.25 +0.11    -0.303    18.950
ATOM     13  H   UNL d   1      -2.567   4.740  17.850 +0.11 -0.05    +0.222    18.950
ATOM     14  O   UNL d   1      -3.396   6.430  17.554 -0.22 +0.05    -0.278    18.950
ATOM     15  P   UNL d   1      -4.635   5.599  16.971 -0.28 -0.04    +0.473    18.950
ATOM     16  O   UNL d   1      -5.909   6.354  16.756 -0.24 +0.02    -0.228    18.950
ATOM     17  O   UNL d   1      -4.070   4.949  15.631 -0.51 -0.00    -0.303    18.950
ATOM     18  H   UNL d   1      -4.514   5.320  14.845 -0.45 -0.08    +0.222    18.950
ATOM     19  O   UNL d   1      -4.743   4.328  17.922 -0.18 +0.01    -0.303    18.950
ATOM     20  H   UNL d   1      -4.116   4.382  18.667 +0.08 -0.03    +0.222    18.950
ATOM     21  O   UNL d   1      -1.077   7.052  21.116 -0.03 +0.08    -0.278    18.950
ATOM     22  P   UNL d   1       0.435   6.627  21.396 -0.06 -0.16    +0.473    18.950
ATOM     23  O   UNL d   1       1.431   7.704  21.667 -0.04 +0.06    -0.228    18.950
ATOM     24  O   UNL d   1       0.264   5.565  22.569 -0.08 +0.15    -0.303    18.950
ATOM     25  H   UNL d   1      -0.258   4.800  22.217 +0.03 -0.18    +0.222    18.950
ATOM     26  O   UNL d   1       0.746   5.684  20.137 -0.12 +0.12    -0.303    18.950
ATOM     27  H   UNL d   1      -0.097   5.347  19.771 +0.09 -0.11    +0.222    18.950
ATOM     28  O   UNL d   1      -3.592   8.888  16.571 -0.17 +0.11    -0.278    18.950
ATOM     29  P   UNL d   1      -4.683   9.962  16.133 -0.15 -0.11    +0.473    18.950
ATOM     30  O   UNL d   1      -4.498  10.549  14.781 -0.27 +0.05    -0.228    18.950
ATOM     31  O   UNL d   1      -6.020   9.119  16.381 -0.13 +0.03    -0.303    18.950
ATOM     32  H   UNL d   1      -5.780   8.167  16.464 +0.08 -0.03    +0.222    18.950
ATOM     33  O   UNL d   1      -4.670  10.972  17.364 -0.05 +0.05    -0.303    18.950
ATOM     34  H   UNL d   1      -3.759  11.000  17.747 +0.06 -0.05    +0.222    18.950
ATOM     35  O   UNL d   1       0.381   8.168  18.845 -0.11 +0.08    -0.278    18.950
ATOM     36  P   UNL d   1       1.516   9.232  19.197 -0.15 -0.14    +0.473    18.950
ATOM     37  O   UNL d   1       2.883   8.667  19.418 -0.18 +0.10    -0.228    18.950
ATOM     38  O   UNL d   1       1.414  10.237  17.966 -0.70 +0.07    -0.303    18.950
ATOM     39  H   UNL d   1       0.486  10.544  17.878 +0.09 -0.06    +0.222    18.950
ATOM     40  O   UNL d   1       0.865  10.038  20.404 -0.04 +0.07    -0.303    18.950
ATOM     41  H   UNL d   1       0.010  10.450  20.147 +0.07 -0.05    +0.222    18.950
ATOM     42  O   UNL d   1      -1.304  10.239  17.678 -0.23 +0.10    -0.278    18.950
ATOM     43  P   UNL d   1      -1.589  11.295  18.839 -0.10 -0.10    +0.473    18.950
ATOM     44  O   UNL d   1      -1.992  10.761  20.170 -0.03 +0.04    -0.228    18.950
ATOM     45  O   UNL d   1      -0.252  12.158  18.862 -0.14 +0.07    -0.303    18.950
ATOM     46  H   UNL d   1       0.476  11.677  19.304 +0.08 -0.07    +0.222    18.950
ATOM     47  O   UNL d   1      -2.623  12.315  18.161 -0.13 +0.05    -0.303    18.950
ATOM     48  H   UNL d   1      -2.787  12.040  17.235 +0.07 -0.05    +0.222    18.950
TER
ENDMDL
MODEL       53
USER    Run = 53
USER    Cluster Rank = 15
USER    Number of conformations in this cluster = 1
USER  
USER    RMSD from reference structure       = 18.338 A
USER  
USER    Estimated Free Energy of Binding    =   +1.86 kcal/mol  [=(1)+(2)+(3)-(4)]
USER    
USER    (1) Final Intermolecular Energy     =   -5.30 kcal/mol
USER        vdW + Hbond + desolv Energy     =   -5.16 kcal/mol
USER        Electrostatic Energy            =   -0.14 kcal/mol
USER    (2) Final Total Internal Energy     =  -12.85 kcal/mol
USER    (3) Torsional Free Energy           =   +7.16 kcal/mol
USER    (4) Unbound System's Energy  [=(2)] =  -12.85 kcal/mol
USER    
USER    
USER  
USER    DPF = D:/Protein_go_brrr/autodock/final/mut_N102T/IHP/dock.dpf
USER    NEWDPF move	IHP_ideal_opt.pdbqt
USER    NEWDPF about	0.035000 0.082000 -0.065000
USER    NEWDPF tran0	-8.537925 -15.310197 12.921774
USER    NEWDPF axisangle0	0.719242 0.646640 0.254063 153.953175
USER    NEWDPF quaternion0	0.700741 0.630007 0.247528 0.225349
USER    NEWDPF dihe0	179.84 -15.54 58.36 96.08 96.55 73.60 -12.95 -101.79 -3.23 21.74 137.01 104.12 17.94 107.96 112.37 -83.78 177.00 57.39 -135.80 -16.74 159.50 0.46 -21.66 -19.18 
USER  
USER                              x       y       z    vdW   Elec        q     RMS 
ATOM      1  C   UNL d   1      -9.266 -13.754  13.102 -0.06 -0.05    +0.194    18.338
ATOM      2  C   UNL d   1     -10.194 -14.864  12.604 -0.05 -0.06    +0.194    18.338
ATOM      3  C   UNL d   1      -9.515 -15.737  11.546 -0.08 -0.10    +0.194    18.338
ATOM      4  C   UNL d   1      -8.157 -16.275  11.990 -0.13 -0.10    +0.194    18.338
ATOM      5  C   UNL d   1      -7.242 -15.221  12.600 -0.15 -0.08    +0.194    18.338
ATOM      6  C   UNL d   1      -7.936 -14.309  13.613 -0.06 -0.05    +0.194    18.338
ATOM      7  O   UNL d   1      -9.905 -13.099  14.200 -0.01 +0.05    -0.278    18.338
ATOM      8  P   UNL d   1      -9.430 -13.462  15.682 +0.00 -0.07    +0.473    18.338
ATOM      9  O   UNL d   1      -8.066 -12.985  16.041 -0.01 +0.04    -0.228    18.338
ATOM     10  O   UNL d   1     -10.573 -12.856  16.614 -0.00 +0.04    -0.303    18.338
ATOM     11  H   UNL d   1     -11.394 -12.749  16.098 +0.00 -0.03    +0.222    18.338
ATOM     12  O   UNL d   1      -9.678 -15.025  15.823 -0.00 +0.05    -0.303    18.338
ATOM     13  H   UNL d   1     -10.622 -15.277  15.712 +0.00 -0.03    +0.222    18.338
ATOM     14  O   UNL d   1     -10.564 -15.695  13.712 -0.01 +0.06    -0.278    18.338
ATOM     15  P   UNL d   1     -12.112 -15.692  14.122 +0.00 -0.07    +0.473    18.338
ATOM     16  O   UNL d   1     -12.577 -16.812  14.999 -0.00 +0.03    -0.228    18.338
ATOM     17  O   UNL d   1     -12.335 -14.259  14.781 +0.00 +0.04    -0.303    18.338
ATOM     18  H   UNL d   1     -11.557 -13.988  15.307 +0.00 -0.03    +0.222    18.338
ATOM     19  O   UNL d   1     -12.888 -15.533  12.743 +0.00 +0.05    -0.303    18.338
ATOM     20  H   UNL d   1     -12.443 -16.014  12.021 +0.02 -0.05    +0.222    18.338
ATOM     21  O   UNL d   1      -7.072 -13.195  13.824 -0.05 +0.07    -0.278    18.338
ATOM     22  P   UNL d   1      -6.620 -12.297  12.585 -0.09 -0.12    +0.473    18.338
ATOM     23  O   UNL d   1      -6.497 -10.825  12.789 -0.18 +0.05    -0.228    18.338
ATOM     24  O   UNL d   1      -5.278 -13.023  12.130 -0.24 +0.10    -0.303    18.338
ATOM     25  H   UNL d   1      -5.362 -13.987  12.344 +0.07 -0.09    +0.222    18.338
ATOM     26  O   UNL d   1      -7.651 -12.766  11.451 -0.22 +0.11    -0.303    18.338
ATOM     27  H   UNL d   1      -7.206 -13.403  10.855 -0.40 -0.10    +0.222    18.338
ATOM     28  O   UNL d   1     -10.331 -16.885  11.351 -0.08 +0.13    -0.278    18.338
ATOM     29  P   UNL d   1     -11.119 -17.090   9.982 -0.13 -0.24    +0.473    18.338
ATOM     30  O   UNL d   1     -12.594 -16.940  10.064 -0.03 +0.07    -0.228    18.338
ATOM     31  O   UNL d   1     -10.334 -16.052   9.051 -0.70 +0.16    -0.303    18.338
ATOM     32  H   UNL d   1      -9.376 -16.090   9.276 -0.51 -0.22    +0.222    18.338
ATOM     33  O   UNL d   1     -10.565 -18.497   9.485 -0.08 +0.32    -0.303    18.338
ATOM     34  H   UNL d   1      -9.587 -18.527   9.630 -0.34 -0.37    +0.222    18.338
ATOM     35  O   UNL d   1      -6.236 -15.945  13.307 -0.06 +0.11    -0.278    18.338
ATOM     36  P   UNL d   1      -4.740 -15.989  12.756 -0.09 -0.26    +0.473    18.338
ATOM     37  O   UNL d   1      -4.058 -17.317  12.847 -0.11 +0.13    -0.228    18.338
ATOM     38  O   UNL d   1      -4.924 -15.449  11.269 -0.21 +0.21    -0.303    18.338
ATOM     39  H   UNL d   1      -5.352 -16.144  10.725 -0.35 -0.18    +0.222    18.338
ATOM     40  O   UNL d   1      -4.059 -14.774  13.523 -0.11 +0.17    -0.303    18.338
ATOM     41  H   UNL d   1      -4.727 -14.136  13.861 +0.08 -0.09    +0.222    18.338
ATOM     42  O   UNL d   1      -7.504 -16.772  10.817 -0.13 +0.23    -0.278    18.338
ATOM     43  P   UNL d   1      -6.872 -18.236  10.849 -0.17 -0.41    +0.473    18.338
ATOM     44  O   UNL d   1      -7.625 -19.325  10.165 -0.02 +0.32    -0.228    18.338
ATOM     45  O   UNL d   1      -5.408 -17.997  10.273 -0.26 +0.30    -0.303    18.338
ATOM     46  H   UNL d   1      -4.883 -17.418  10.861 -0.25 -0.20    +0.222    18.338
ATOM     47  O   UNL d   1      -6.575 -18.474  12.406 -0.04 +0.14    -0.303    18.338
ATOM     48  H   UNL d   1      -5.769 -17.978  12.660 +0.05 -0.10    +0.222    18.338
TER
ENDMDL
MODEL       22
USER    Run = 22
USER    Cluster Rank = 16
USER    Number of conformations in this cluster = 1
USER  
USER    RMSD from reference structure       = 13.820 A
USER  
USER    Estimated Free Energy of Binding    =   +1.87 kcal/mol  [=(1)+(2)+(3)-(4)]
USER    
USER    (1) Final Intermolecular Energy     =   -5.29 kcal/mol
USER        vdW + Hbond + desolv Energy     =   -5.33 kcal/mol
USER        Electrostatic Energy            =   +0.05 kcal/mol
USER    (2) Final Total Internal Energy     =  -13.41 kcal/mol
USER    (3) Torsional Free Energy           =   +7.16 kcal/mol
USER    (4) Unbound System's Energy  [=(2)] =  -13.41 kcal/mol
USER    
USER    
USER  
USER    DPF = D:/Protein_go_brrr/autodock/final/mut_N102T/IHP/dock.dpf
USER    NEWDPF move	IHP_ideal_opt.pdbqt
USER    NEWDPF about	0.035000 0.082000 -0.065000
USER    NEWDPF tran0	13.336892 11.472358 -0.810545
USER    NEWDPF axisangle0	0.493981 -0.346631 0.797390 93.114894
USER    NEWDPF quaternion0	0.358662 -0.251676 0.578956 0.687627
USER    NEWDPF dihe0	162.33 71.14 112.55 91.07 -9.28 -175.34 -49.66 -148.25 132.23 32.79 145.93 134.58 134.89 79.54 -180.00 125.70 173.23 -172.90 49.92 5.48 172.92 -14.18 17.07 10.88 
USER  
USER                              x       y       z    vdW   Elec        q     RMS 
ATOM      1  C   UNL d   1      13.647  10.344   0.460 -0.18 -0.02    +0.194    13.820
ATOM      2  C   UNL d   1      12.617  11.430   0.777 -0.17 +0.01    +0.194    13.820
ATOM      3  C   UNL d   1      13.072  12.804   0.279 -0.06 +0.00    +0.194    13.820
ATOM      4  C   UNL d   1      13.478  12.806  -1.193 -0.09 -0.04    +0.194    13.820
ATOM      5  C   UNL d   1      14.415  11.669  -1.579 -0.12 -0.04    +0.194    13.820
ATOM      6  C   UNL d   1      13.994  10.304  -1.029 -0.19 -0.04    +0.194    13.820
ATOM      7  O   UNL d   1      13.077   9.077   0.799 -0.01 +0.03    -0.278    13.820
ATOM      8  P   UNL d   1      12.919   8.704   2.344 -0.22 -0.01    +0.473    13.820
ATOM      9  O   UNL d   1      12.461   7.314   2.614 -0.48 +0.02    -0.228    13.820
ATOM     10  O   UNL d   1      14.352   9.026   2.968 -0.10 -0.00    -0.303    13.820
ATOM     11  H   UNL d   1      14.923   9.426   2.286 +0.08 -0.01    +0.222    13.820
ATOM     12  O   UNL d   1      12.021   9.862   2.958 -0.15 -0.07    -0.303    13.820
ATOM     13  H   UNL d   1      11.437  10.291   2.293 +0.12 +0.04    +0.222    13.820
ATOM     14  O   UNL d   1      11.378  11.100   0.139 -0.23 +0.02    -0.278    13.820
ATOM     15  P   UNL d   1      10.048  11.311   1.005 -0.21 +0.02    +0.473    13.820
ATOM     16  O   UNL d   1       8.898  11.979   0.319 -0.30 +0.03    -0.228    13.820
ATOM     17  O   UNL d   1       9.690   9.850   1.529 -0.39 +0.03    -0.303    13.820
ATOM     18  H   UNL d   1      10.455   9.249   1.444 -0.21 -0.07    +0.222    13.820
ATOM     19  O   UNL d   1      10.552  12.014   2.340 -0.13 -0.18    -0.303    13.820
ATOM     20  H   UNL d   1      11.330  12.579   2.179 +0.07 +0.14    +0.222    13.820
ATOM     21  O   UNL d   1      15.116   9.437  -1.174 -0.10 +0.12    -0.278    13.820
ATOM     22  P   UNL d   1      16.404   9.648  -0.256 -0.02 -0.17    +0.473    13.820
ATOM     23  O   UNL d   1      17.734   9.266  -0.810 -0.06 +0.07    -0.228    13.820
ATOM     24  O   UNL d   1      16.265  11.180   0.152 -0.01 +0.03    -0.303    13.820
ATOM     25  H   UNL d   1      16.523  11.731  -0.631 +0.03 -0.02    +0.222    13.820
ATOM     26  O   UNL d   1      15.965   8.905   1.096 -0.10 +0.12    -0.303    13.820
ATOM     27  H   UNL d   1      15.142   8.401   0.933 -0.20 -0.15    +0.222    13.820
ATOM     28  O   UNL d   1      11.955  13.681   0.363 -0.05 -0.01    -0.278    13.820
ATOM     29  P   UNL d   1      11.774  14.633   1.627 -0.04 +0.23    +0.473    13.820
ATOM     30  O   UNL d   1      12.205  16.042   1.435 -0.02 -0.06    -0.228    13.820
ATOM     31  O   UNL d   1      10.226  14.384   1.945 -0.11 -0.20    -0.303    13.820
ATOM     32  H   UNL d   1       9.878  13.718   1.307 +0.08 +0.06    +0.222    13.820
ATOM     33  O   UNL d   1      12.506  13.807   2.775 -0.65 -0.30    -0.303    13.820
ATOM     34  H   UNL d   1      11.851  13.204   3.204 +0.05 +0.37    +0.222    13.820
ATOM     35  O   UNL d   1      14.355  11.584  -3.001 -0.51 +0.05    -0.278    13.820
ATOM     36  P   UNL d   1      15.637  11.131  -3.835 +0.07 -0.06    +0.473    13.820
ATOM     37  O   UNL d   1      15.842  11.837  -5.138 -0.10 +0.04    -0.228    13.820
ATOM     38  O   UNL d   1      16.808  11.353  -2.779 -0.02 +0.04    -0.303    13.820
ATOM     39  H   UNL d   1      16.658  10.767  -2.006 +0.04 -0.04    +0.222    13.820
ATOM     40  O   UNL d   1      15.466   9.551  -3.890 -0.46 +0.06    -0.303    13.820
ATOM     41  H   UNL d   1      14.736   9.243  -3.308 -0.12 -0.07    +0.222    13.820
ATOM     42  O   UNL d   1      14.182  14.030  -1.427 -0.01 +0.04    -0.278    13.820
ATOM     43  P   UNL d   1      13.410  15.244  -2.116 -0.00 -0.11    +0.473    13.820
ATOM     44  O   UNL d   1      14.035  15.860  -3.320 -0.01 +0.05    -0.228    13.820
ATOM     45  O   UNL d   1      11.962  14.636  -2.374 -0.09 +0.17    -0.303    13.820
ATOM     46  H   UNL d   1      11.458  14.548  -1.540 +0.04 -0.09    +0.222    13.820
ATOM     47  O   UNL d   1      13.132  16.242  -0.894 +0.00 +0.03    -0.303    13.820
ATOM     48  H   UNL d   1      12.782  15.732  -0.134 +0.02 -0.01    +0.222    13.820
TER
ENDMDL
MODEL       83
USER    Run = 83
USER    Cluster Rank = 17
USER    Number of conformations in this cluster = 1
USER  
USER    RMSD from reference structure       = 20.772 A
USER  
USER    Estimated Free Energy of Binding    =   +1.99 kcal/mol  [=(1)+(2)+(3)-(4)]
USER    
USER    (1) Final Intermolecular Energy     =   -5.17 kcal/mol
USER        vdW + Hbond + desolv Energy     =   -4.85 kcal/mol
USER        Electrostatic Energy            =   -0.32 kcal/mol
USER    (2) Final Total Internal Energy     =  -12.91 kcal/mol
USER    (3) Torsional Free Energy           =   +7.16 kcal/mol
USER    (4) Unbound System's Energy  [=(2)] =  -12.91 kcal/mol
USER    
USER    
USER  
USER    DPF = D:/Protein_go_brrr/autodock/final/mut_N102T/IHP/dock.dpf
USER    NEWDPF move	IHP_ideal_opt.pdbqt
USER    NEWDPF about	0.035000 0.082000 -0.065000
USER    NEWDPF tran0	6.410589 -13.258817 18.695794
USER    NEWDPF axisangle0	-0.269822 0.075828 0.959920 -132.000344
USER    NEWDPF quaternion0	-0.246495 0.069272 0.876932 -0.406734
USER    NEWDPF dihe0	64.64 49.91 109.85 -14.23 47.59 122.43 -126.43 -11.15 174.94 125.00 -128.21 175.97 -22.35 84.64 60.08 53.15 91.28 160.52 42.55 -13.64 -176.88 158.32 14.03 180.00 
USER  
USER                              x       y       z    vdW   Elec        q     RMS 
ATOM      1  C   UNL d   1       6.091 -11.567  18.841 -0.16 +0.03    +0.194    20.772
ATOM      2  C   UNL d   1       7.514 -12.004  19.194 -0.10 +0.05    +0.194    20.772
ATOM      3  C   UNL d   1       7.523 -13.282  20.035 -0.04 +0.03    +0.194    20.772
ATOM      4  C   UNL d   1       6.708 -14.415  19.415 -0.06 +0.03    +0.194    20.772
ATOM      5  C   UNL d   1       5.322 -13.997  18.944 -0.13 +0.01    +0.194    20.772
ATOM      6  C   UNL d   1       5.305 -12.686  18.155 +0.08 +0.03    +0.194    20.772
ATOM      7  O   UNL d   1       6.174 -10.478  17.919 -0.15 -0.06    -0.278    20.772
ATOM      8  P   UNL d   1       6.473  -9.018  18.495 -0.13 +0.03    +0.473    20.772
ATOM      9  O   UNL d   1       7.280  -8.986  19.745 -0.04 -0.01    -0.228    20.772
ATOM     10  O   UNL d   1       7.170  -8.258  17.278 -0.15 -0.04    -0.303    20.772
ATOM     11  H   UNL d   1       8.139  -8.344  17.351 +0.05 +0.04    +0.222    20.772
ATOM     12  O   UNL d   1       5.056  -8.303  18.566 -0.12 +0.06    -0.303    20.772
ATOM     13  H   UNL d   1       4.311  -8.899  18.326 -0.46 -0.10    +0.222    20.772
ATOM     14  O   UNL d   1       8.241 -12.249  17.983 -0.13 -0.20    -0.278    20.772
ATOM     15  P   UNL d   1       9.522 -11.326  17.718 -0.06 +0.36    +0.473    20.772
ATOM     16  O   UNL d   1      10.725 -11.997  17.134 -0.60 -0.26    -0.228    20.772
ATOM     17  O   UNL d   1       8.967 -10.146  16.802 -0.15 -0.20    -0.303    20.772
ATOM     18  H   UNL d   1       7.991 -10.129  16.804 +0.05 +0.13    +0.222    20.772
ATOM     19  O   UNL d   1       9.760 -10.572  19.099 -0.02 -0.08    -0.303    20.772
ATOM     20  H   UNL d   1       9.097  -9.873  19.247 +0.02 +0.04    +0.222    20.772
ATOM     21  O   UNL d   1       3.946 -12.262  18.088 -0.16 +0.05    -0.278    20.772
ATOM     22  P   UNL d   1       3.291 -11.504  19.330 -0.20 -0.08    +0.473    20.772
ATOM     23  O   UNL d   1       3.381 -10.016  19.375 -0.23 +0.05    -0.228    20.772
ATOM     24  O   UNL d   1       1.808 -12.083  19.320 -0.52 +0.04    -0.303    20.772
ATOM     25  H   UNL d   1       1.636 -12.474  18.426 -0.46 -0.13    +0.222    20.772
ATOM     26  O   UNL d   1       3.943 -12.286  20.569 -0.04 +0.02    -0.303    20.772
ATOM     27  H   UNL d   1       3.810 -13.248  20.448 +0.04 -0.02    +0.222    20.772
ATOM     28  O   UNL d   1       8.862 -13.758  20.076 -0.02 -0.06    -0.278    20.772
ATOM     29  P   UNL d   1       9.381 -14.793  18.983 -0.04 +0.18    +0.473    20.772
ATOM     30  O   UNL d   1       8.694 -14.734  17.667 -0.06 -0.19    -0.228    20.772
ATOM     31  O   UNL d   1      10.946 -14.456  19.000 -0.01 -0.11    -0.303    20.772
ATOM     32  H   UNL d   1      11.088 -13.602  18.531 +0.01 +0.11    +0.222    20.772
ATOM     33  O   UNL d   1       9.311 -16.175  19.771 -0.00 -0.05    -0.303    20.772
ATOM     34  H   UNL d   1       8.430 -16.247  20.214 +0.01 +0.02    +0.222    20.772
ATOM     35  O   UNL d   1       4.888 -15.026  18.057 -0.12 +0.00    -0.278    20.772
ATOM     36  P   UNL d   1       3.351 -15.449  18.005 -0.09 -0.12    +0.473    20.772
ATOM     37  O   UNL d   1       2.778 -15.633  16.636 -0.17 +0.10    -0.228    20.772
ATOM     38  O   UNL d   1       3.345 -16.766  18.899 -0.02 +0.05    -0.303    20.772
ATOM     39  H   UNL d   1       2.949 -16.560  19.773 +0.03 -0.03    +0.222    20.772
ATOM     40  O   UNL d   1       2.666 -14.353  18.933 -0.11 +0.09    -0.303    20.772
ATOM     41  H   UNL d   1       2.480 -13.523  18.440 -0.42 -0.12    +0.222    20.772
ATOM     42  O   UNL d   1       6.526 -15.401  20.437 -0.01 -0.01    -0.278    20.772
ATOM     43  P   UNL d   1       5.587 -15.058  21.680 +0.00 -0.01    +0.473    20.772
ATOM     44  O   UNL d   1       5.856 -15.770  22.961 -0.00 +0.00    -0.228    20.772
ATOM     45  O   UNL d   1       5.703 -13.474  21.779 -0.00 +0.00    -0.303    20.772
ATOM     46  H   UNL d   1       4.945 -13.090  22.264 +0.01 -0.01    +0.222    20.772
ATOM     47  O   UNL d   1       4.110 -15.241  21.085 -0.01 +0.02    -0.303    20.772
ATOM     48  H   UNL d   1       4.170 -15.427  20.125 +0.03 -0.02    +0.222    20.772
TER
ENDMDL
MODEL       90
USER    Run = 90
USER    Cluster Rank = 18
USER    Number of conformations in this cluster = 1
USER  
USER    RMSD from reference structure       = 19.791 A
USER  
USER    Estimated Free Energy of Binding    =   +2.05 kcal/mol  [=(1)+(2)+(3)-(4)]
USER    
USER    (1) Final Intermolecular Energy     =   -5.11 kcal/mol
USER        vdW + Hbond + desolv Energy     =   -4.43 kcal/mol
USER        Electrostatic Energy            =   -0.68 kcal/mol
USER    (2) Final Total Internal Energy     =  -15.67 kcal/mol
USER    (3) Torsional Free Energy           =   +7.16 kcal/mol
USER    (4) Unbound System's Energy  [=(2)] =  -15.67 kcal/mol
USER    
USER    
USER  
USER    DPF = D:/Protein_go_brrr/autodock/final/mut_N102T/IHP/dock.dpf
USER    NEWDPF move	IHP_ideal_opt.pdbqt
USER    NEWDPF about	0.035000 0.082000 -0.065000
USER    NEWDPF tran0	9.391152 -13.480393 -15.553271
USER    NEWDPF axisangle0	0.676093 -0.637781 -0.368963 65.222466
USER    NEWDPF quaternion0	0.364371 -0.343723 -0.198848 0.842347
USER    NEWDPF dihe0	86.12 98.39 76.31 95.13 113.76 86.85 35.92 -65.43 98.28 -24.64 -171.23 149.99 -67.33 -79.44 -171.33 -70.90 45.41 179.94 -150.83 -22.19 9.22 -23.42 -170.75 32.12 
USER  
USER                              x       y       z    vdW   Elec        q     RMS 
ATOM      1  C   UNL d   1      11.112 -13.363 -15.643 +0.00 +0.01    +0.194    19.791
ATOM      2  C   UNL d   1      10.568 -14.272 -14.539 -0.00 -0.01    +0.194    19.791
ATOM      3  C   UNL d   1       9.376 -13.639 -13.820 -0.06 -0.02    +0.194    19.791
ATOM      4  C   UNL d   1       8.280 -13.168 -14.772 -0.08 +0.07    +0.194    19.791
ATOM      5  C   UNL d   1       8.791 -12.353 -15.953 -0.05 +0.10    +0.194    19.791
ATOM      6  C   UNL d   1      10.022 -12.955 -16.634 -0.00 +0.03    +0.194    19.791
ATOM      7  O   UNL d   1      12.102 -14.091 -16.373 +0.00 -0.00    -0.278    19.791
ATOM      8  P   UNL d   1      11.624 -15.012 -17.588 +0.01 +0.00    +0.473    19.791
ATOM      9  O   UNL d   1      10.166 -15.310 -17.618 +0.00 -0.01    -0.228    19.791
ATOM     10  O   UNL d   1      12.133 -14.236 -18.886 +0.00 -0.01    -0.303    19.791
ATOM     11  H   UNL d   1      11.595 -13.434 -19.019 +0.00 +0.01    +0.222    19.791
ATOM     12  O   UNL d   1      12.589 -16.274 -17.554 +0.00 +0.01    -0.303    19.791
ATOM     13  H   UNL d   1      12.618 -16.714 -16.675 +0.00 -0.01    +0.222    19.791
ATOM     14  O   UNL d   1      10.145 -15.511 -15.122 +0.00 +0.02    -0.278    19.791
ATOM     15  P   UNL d   1      11.039 -16.798 -14.795 +0.01 -0.04    +0.473    19.791
ATOM     16  O   UNL d   1      12.465 -16.547 -14.416 +0.00 +0.02    -0.228    19.791
ATOM     17  O   UNL d   1      10.223 -17.560 -13.659 +0.00 +0.05    -0.303    19.791
ATOM     18  H   UNL d   1       9.586 -16.961 -13.222 +0.03 -0.06    +0.222    19.791
ATOM     19  O   UNL d   1      10.821 -17.760 -16.044 +0.00 +0.02    -0.303    19.791
ATOM     20  H   UNL d   1      10.729 -17.257 -16.874 +0.00 -0.01    +0.222    19.791
ATOM     21  O   UNL d   1      10.573 -11.935 -17.465 -0.00 -0.04    -0.278    19.791
ATOM     22  P   UNL d   1      10.143 -11.846 -18.999 +0.01 +0.07    +0.473    19.791
ATOM     23  O   UNL d   1      11.187 -11.498 -20.005 +0.00 -0.01    -0.228    19.791
ATOM     24  O   UNL d   1       9.443 -13.258 -19.224 +0.00 -0.04    -0.303    19.791
ATOM     25  H   UNL d   1       8.812 -13.412 -18.475 +0.01 +0.05    +0.222    19.791
ATOM     26  O   UNL d   1       8.881 -10.859 -18.926 -0.02 -0.09    -0.303    19.791
ATOM     27  H   UNL d   1       8.072 -11.383 -18.752 +0.01 +0.11    +0.222    19.791
ATOM     28  O   UNL d   1       8.773 -14.648 -13.020 -0.09 +0.10    -0.278    19.791
ATOM     29  P   UNL d   1       9.293 -14.919 -11.539 -0.11 -0.19    +0.473    19.791
ATOM     30  O   UNL d   1      10.263 -16.035 -11.396 -0.09 +0.06    -0.228    19.791
ATOM     31  O   UNL d   1       9.809 -13.455 -11.152 -0.19 +0.12    -0.303    19.791
ATOM     32  H   UNL d   1       9.054 -12.945 -10.777 -0.42 -0.18    +0.222    19.791
ATOM     33  O   UNL d   1       7.931 -15.040 -10.724 -0.74 +0.29    -0.303    19.791
ATOM     34  H   UNL d   1       7.177 -14.816 -11.322 -0.43 -0.44    +0.222    19.791
ATOM     35  O   UNL d   1       7.736 -12.356 -16.912 -0.07 -0.30    -0.278    19.791
ATOM     36  P   UNL d   1       6.888 -13.683 -17.170 +0.01 +0.36    +0.473    19.791
ATOM     37  O   UNL d   1       5.675 -13.849 -16.312 -0.07 -0.23    -0.228    19.791
ATOM     38  O   UNL d   1       6.578 -13.573 -18.729 -0.06 -0.15    -0.303    19.791
ATOM     39  H   UNL d   1       7.295 -13.064 -19.164 +0.01 +0.09    +0.222    19.791
ATOM     40  O   UNL d   1       7.998 -14.819 -17.080 -0.00 -0.06    -0.303    19.791
ATOM     41  H   UNL d   1       8.647 -14.753 -17.815 +0.01 +0.03    +0.222    19.791
ATOM     42  O   UNL d   1       7.412 -12.316 -14.017 -0.63 -0.22    -0.278    19.791
ATOM     43  P   UNL d   1       6.331 -12.979 -13.049 -0.17 -0.05    +0.473    19.791
ATOM     44  O   UNL d   1       4.945 -12.435 -13.094 -0.52 -0.10    -0.228    19.791
ATOM     45  O   UNL d   1       6.436 -14.524 -13.415 -0.05 +0.26    -0.303    19.791
ATOM     46  H   UNL d   1       6.755 -15.051 -12.656 -0.11 -0.39    +0.222    19.791
ATOM     47  O   UNL d   1       7.046 -12.934 -11.616 -0.18 +0.27    -0.303    19.791
ATOM     48  H   UNL d   1       8.015 -13.011 -11.736 -0.43 -0.17    +0.222    19.791
TER
ENDMDL
MODEL       67
USER    Run = 67
USER    Cluster Rank = 19
USER    Number of conformations in this cluster = 4
USER  
USER    RMSD from reference structure       = 14.665 A
USER  
USER    Estimated Free Energy of Binding    =   +2.07 kcal/mol  [=(1)+(2)+(3)-(4)]
USER    
USER    (1) Final Intermolecular Energy     =   -5.09 kcal/mol
USER        vdW + Hbond + desolv Energy     =   -4.78 kcal/mol
USER        Electrostatic Energy            =   -0.31 kcal/mol
USER    (2) Final Total Internal Energy     =  -13.60 kcal/mol
USER    (3) Torsional Free Energy           =   +7.16 kcal/mol
USER    (4) Unbound System's Energy  [=(2)] =  -13.60 kcal/mol
USER    
USER    
USER  
USER    DPF = D:/Protein_go_brrr/autodock/final/mut_N102T/IHP/dock.dpf
USER    NEWDPF move	IHP_ideal_opt.pdbqt
USER    NEWDPF about	0.035000 0.082000 -0.065000
USER    NEWDPF tran0	13.165603 0.546113 12.388616
USER    NEWDPF axisangle0	0.831362 0.039450 -0.554329 148.903318
USER    NEWDPF quaternion0	0.800938 0.038006 -0.534043 0.268051
USER    NEWDPF dihe0	114.64 27.00 149.79 -7.29 -112.90 -148.12 -35.04 35.02 -9.05 64.94 91.19 -99.95 162.74 -174.63 13.37 120.28 -95.66 -109.81 48.81 6.42 166.33 -1.56 2.16 161.87 
USER  
USER                              x       y       z    vdW   Elec        q     RMS 
ATOM      1  C   UNL d   1      13.208   2.046  11.533 -0.11 +0.05    +0.194    14.665
ATOM      2  C   UNL d   1      13.180   2.156  13.059 -0.10 +0.06    +0.194    14.665
ATOM      3  C   UNL d   1      12.181   1.176  13.679 -0.09 +0.06    +0.194    14.665
ATOM      4  C   UNL d   1      12.379  -0.263  13.207 -0.03 +0.05    +0.194    14.665
ATOM      5  C   UNL d   1      12.527  -0.406  11.698 -0.05 +0.07    +0.194    14.665
ATOM      6  C   UNL d   1      13.478   0.615  11.069 -0.05 +0.06    +0.194    14.665
ATOM      7  O   UNL d   1      14.277   2.861  11.048 -0.07 -0.06    -0.278    14.665
ATOM      8  P   UNL d   1      14.092   4.448  11.068 -0.14 +0.12    +0.473    14.665
ATOM      9  O   UNL d   1      14.736   5.173   9.939 -0.15 -0.04    -0.228    14.665
ATOM     10  O   UNL d   1      12.511   4.652  11.125 -0.14 -0.11    -0.303    14.665
ATOM     11  H   UNL d   1      12.079   4.036  10.505 +0.09 +0.06    +0.222    14.665
ATOM     12  O   UNL d   1      14.539   4.897  12.525 -0.12 -0.10    -0.303    14.665
ATOM     13  H   UNL d   1      14.550   4.155  13.171 +0.05 +0.08    +0.222    14.665
ATOM     14  O   UNL d   1      14.485   1.863  13.572 -0.02 -0.07    -0.278    14.665
ATOM     15  P   UNL d   1      15.015   2.801  14.758 -0.03 +0.15    +0.473    14.665
ATOM     16  O   UNL d   1      16.263   3.581  14.491 -0.02 -0.05    -0.228    14.665
ATOM     17  O   UNL d   1      13.768   3.730  15.103 -0.09 -0.21    -0.303    14.665
ATOM     18  H   UNL d   1      12.973   3.196  15.295 +0.05 +0.17    +0.222    14.665
ATOM     19  O   UNL d   1      15.062   1.844  16.028 -0.01 -0.08    -0.303    14.665
ATOM     20  H   UNL d   1      14.169   1.568  16.305 +0.02 +0.07    +0.222    14.665
ATOM     21  O   UNL d   1      13.249   0.581   9.663 -0.08 -0.10    -0.278    14.665
ATOM     22  P   UNL d   1      11.829   1.017   9.081 -0.24 +0.18    +0.473    14.665
ATOM     23  O   UNL d   1      11.184   2.241   9.641 -0.43 -0.06    -0.228    14.665
ATOM     24  O   UNL d   1      12.120   1.072   7.517 -0.29 -0.08    -0.303    14.665
ATOM     25  H   UNL d   1      11.289   1.355   7.059 -0.11 +0.03    +0.222    14.665
ATOM     26  O   UNL d   1      10.990  -0.343   9.214 -0.72 -0.24    -0.303    14.665
ATOM     27  H   UNL d   1      11.241  -0.795  10.045 +0.07 +0.17    +0.222    14.665
ATOM     28  O   UNL d   1      12.421   1.149  15.080 -0.05 -0.10    -0.278    14.665
ATOM     29  P   UNL d   1      11.376   1.804  16.088 -0.18 +0.25    +0.473    14.665
ATOM     30  O   UNL d   1      10.368   0.875  16.660 -0.14 -0.11    -0.228    14.665
ATOM     31  O   UNL d   1      12.382   2.507  17.116 -0.16 -0.23    -0.303    14.665
ATOM     32  H   UNL d   1      13.271   2.562  16.696 +0.04 +0.14    +0.222    14.665
ATOM     33  O   UNL d   1      10.822   3.034  15.242 -0.40 -0.24    -0.303    14.665
ATOM     34  H   UNL d   1       9.996   2.757  14.775 +0.06 +0.10    +0.222    14.665
ATOM     35  O   UNL d   1      13.095  -1.696  11.485 -0.02 -0.14    -0.278    14.665
ATOM     36  P   UNL d   1      12.478  -2.677  10.389 +0.13 +0.61    +0.473    14.665
ATOM     37  O   UNL d   1      11.001  -2.896  10.478 -0.24 -0.34    -0.228    14.665
ATOM     38  O   UNL d   1      12.957  -1.993   9.033 -0.45 -0.41    -0.303    14.665
ATOM     39  H   UNL d   1      12.372  -1.230   8.834 +0.06 +0.22    +0.222    14.665
ATOM     40  O   UNL d   1      13.408  -3.961  10.519 -0.32 -0.35    -0.303    14.665
ATOM     41  H   UNL d   1      13.837  -4.012  11.402 +0.01 +0.14    +0.222    14.665
ATOM     42  O   UNL d   1      11.204  -0.988  13.585 -0.02 -0.08    -0.278    14.665
ATOM     43  P   UNL d   1       9.774  -0.396  13.197 -0.08 +0.12    +0.473    14.665
ATOM     44  O   UNL d   1       9.380   0.904  13.808 -0.05 -0.05    -0.228    14.665
ATOM     45  O   UNL d   1       9.823  -0.380  11.607 -0.29 -0.12    -0.303    14.665
ATOM     46  H   UNL d   1      10.528  -0.965  11.264 +0.07 +0.12    +0.222    14.665
ATOM     47  O   UNL d   1       8.781  -1.623  13.480 -0.06 -0.06    -0.303    14.665
ATOM     48  H   UNL d   1       8.605  -1.680  14.442 +0.07 +0.04    +0.222    14.665
TER
ENDMDL
MODEL       55
USER    Run = 55
USER    Cluster Rank = 20
USER    Number of conformations in this cluster = 1
USER  
USER    RMSD from reference structure       = 17.469 A
USER  
USER    Estimated Free Energy of Binding    =   +2.11 kcal/mol  [=(1)+(2)+(3)-(4)]
USER    
USER    (1) Final Intermolecular Energy     =   -5.05 kcal/mol
USER        vdW + Hbond + desolv Energy     =   -4.65 kcal/mol
USER        Electrostatic Energy            =   -0.41 kcal/mol
USER    (2) Final Total Internal Energy     =  -13.43 kcal/mol
USER    (3) Torsional Free Energy           =   +7.16 kcal/mol
USER    (4) Unbound System's Energy  [=(2)] =  -13.43 kcal/mol
USER    
USER    
USER  
USER    DPF = D:/Protein_go_brrr/autodock/final/mut_N102T/IHP/dock.dpf
USER    NEWDPF move	IHP_ideal_opt.pdbqt
USER    NEWDPF about	0.035000 0.082000 -0.065000
USER    NEWDPF tran0	5.191507 14.570760 -13.749692
USER    NEWDPF axisangle0	-0.773404 0.586310 0.241012 -93.872761
USER    NEWDPF quaternion0	-0.565046 0.428356 0.176082 -0.682810
USER    NEWDPF dihe0	-143.16 -179.23 -145.08 31.51 0.58 112.38 -42.62 18.63 24.17 19.92 53.09 -91.21 34.00 173.86 -176.13 174.16 -123.68 -33.95 -131.44 -14.61 22.06 -15.54 -53.50 177.41 
USER  
USER                              x       y       z    vdW   Elec        q     RMS 
ATOM      1  C   UNL d   1       6.856  14.729 -14.185 -0.04 -0.05    +0.194    17.469
ATOM      2  C   UNL d   1       6.583  14.452 -12.706 -0.09 -0.07    +0.194    17.469
ATOM      3  C   UNL d   1       5.414  15.287 -12.179 -0.09 -0.07    +0.194    17.469
ATOM      4  C   UNL d   1       4.154  15.162 -13.031 -0.14 -0.07    +0.194    17.469
ATOM      5  C   UNL d   1       4.398  15.318 -14.527 -0.10 -0.04    +0.194    17.469
ATOM      6  C   UNL d   1       5.605  14.531 -15.042 -0.09 -0.06    +0.194    17.469
ATOM      7  O   UNL d   1       7.837  13.795 -14.641 -0.03 +0.08    -0.278    17.469
ATOM      8  P   UNL d   1       7.362  12.592 -15.579 -0.04 -0.28    +0.473    17.469
ATOM      9  O   UNL d   1       7.298  12.913 -17.031 -0.08 +0.16    -0.228    17.469
ATOM     10  O   UNL d   1       8.380  11.412 -15.240 -0.12 +0.11    -0.303    17.469
ATOM     11  H   UNL d   1       8.327  11.197 -14.291 +0.08 -0.07    +0.222    17.469
ATOM     12  O   UNL d   1       6.013  12.066 -14.925 -0.21 +0.26    -0.303    17.469
ATOM     13  H   UNL d   1       5.303  11.899 -15.586 -0.33 -0.34    +0.222    17.469
ATOM     14  O   UNL d   1       6.264  13.065 -12.541 -0.12 +0.15    -0.278    17.469
ATOM     15  P   UNL d   1       7.268  12.201 -11.642 -0.16 -0.17    +0.473    17.469
ATOM     16  O   UNL d   1       7.747  10.907 -12.223 -0.22 +0.07    -0.228    17.469
ATOM     17  O   UNL d   1       8.459  13.208 -11.314 -0.04 +0.09    -0.303    17.469
ATOM     18  H   UNL d   1       8.543  13.351 -10.352 +0.07 -0.08    +0.222    17.469
ATOM     19  O   UNL d   1       6.543  12.092 -10.230 -0.29 +0.11    -0.303    17.469
ATOM     20  H   UNL d   1       5.963  12.858 -10.063 -0.27 -0.11    +0.222    17.469
ATOM     21  O   UNL d   1       5.903  15.038 -16.341 -0.02 +0.07    -0.278    17.469
ATOM     22  P   UNL d   1       5.052  14.546 -17.598 -0.03 -0.14    +0.473    17.469
ATOM     23  O   UNL d   1       5.747  14.416 -18.911 -0.04 +0.06    -0.228    17.469
ATOM     24  O   UNL d   1       4.408  13.199 -17.047 -0.13 +0.25    -0.303    17.469
ATOM     25  H   UNL d   1       5.140  12.551 -16.884 -0.51 -0.41    +0.222    17.469
ATOM     26  O   UNL d   1       3.804  15.551 -17.559 -0.04 +0.01    -0.303    17.469
ATOM     27  H   UNL d   1       3.317  15.426 -16.719 +0.07 -0.01    +0.222    17.469
ATOM     28  O   UNL d   1       5.059  14.770 -10.903 +0.00 +0.15    -0.278    17.469
ATOM     29  P   UNL d   1       5.653  15.423  -9.577 -0.11 -0.18    +0.473    17.469
ATOM     30  O   UNL d   1       4.766  15.376  -8.386 -0.25 +0.10    -0.228    17.469
ATOM     31  O   UNL d   1       7.044  14.636  -9.477 -0.11 +0.12    -0.303    17.469
ATOM     32  H   UNL d   1       7.174  14.122 -10.307 +0.06 -0.08    +0.222    17.469
ATOM     33  O   UNL d   1       6.100  16.864 -10.085 -0.01 +0.08    -0.303    17.469
ATOM     34  H   UNL d   1       5.300  17.439 -10.162 +0.04 -0.05    +0.222    17.469
ATOM     35  O   UNL d   1       3.242  14.780 -15.166 -0.17 +0.05    -0.278    17.469
ATOM     36  P   UNL d   1       1.888  15.621 -15.220 -0.16 +0.04    +0.473    17.469
ATOM     37  O   UNL d   1       1.069  15.606 -13.969 -0.21 -0.01    -0.228    17.469
ATOM     38  O   UNL d   1       2.417  17.063 -15.639 -0.03 -0.03    -0.303    17.469
ATOM     39  H   UNL d   1       3.201  17.288 -15.094 +0.04 +0.00    +0.222    17.469
ATOM     40  O   UNL d   1       1.197  15.068 -16.542 -0.75 -0.12    -0.303    17.469
ATOM     41  H   UNL d   1       1.851  14.658 -17.150 +0.07 +0.04    +0.222    17.469
ATOM     42  O   UNL d   1       3.278  16.223 -12.635 -0.09 +0.06    -0.278    17.469
ATOM     43  P   UNL d   1       3.710  17.730 -12.932 +0.01 -0.05    +0.473    17.469
ATOM     44  O   UNL d   1       4.869  17.946 -13.841 -0.01 +0.02    -0.228    17.469
ATOM     45  O   UNL d   1       2.353  18.388 -13.439 -0.00 +0.01    -0.303    17.469
ATOM     46  H   UNL d   1       1.718  17.709 -13.744 +0.04 +0.00    +0.222    17.469
ATOM     47  O   UNL d   1       3.852  18.366 -11.467 -0.00 +0.04    -0.303    17.469
ATOM     48  H   UNL d   1       4.760  18.212 -11.135 +0.02 -0.03    +0.222    17.469
TER
ENDMDL
MODEL       60
USER    Run = 60
USER    Cluster Rank = 21
USER    Number of conformations in this cluster = 1
USER  
USER    RMSD from reference structure       = 18.733 A
USER  
USER    Estimated Free Energy of Binding    =   +2.14 kcal/mol  [=(1)+(2)+(3)-(4)]
USER    
USER    (1) Final Intermolecular Energy     =   -5.02 kcal/mol
USER        vdW + Hbond + desolv Energy     =   -4.77 kcal/mol
USER        Electrostatic Energy            =   -0.25 kcal/mol
USER    (2) Final Total Internal Energy     =  -13.85 kcal/mol
USER    (3) Torsional Free Energy           =   +7.16 kcal/mol
USER    (4) Unbound System's Energy  [=(2)] =  -13.85 kcal/mol
USER    
USER    
USER  
USER    DPF = D:/Protein_go_brrr/autodock/final/mut_N102T/IHP/dock.dpf
USER    NEWDPF move	IHP_ideal_opt.pdbqt
USER    NEWDPF about	0.035000 0.082000 -0.065000
USER    NEWDPF tran0	-4.740863 -17.102293 12.315578
USER    NEWDPF axisangle0	-0.064513 -0.260220 0.963392 130.236609
USER    NEWDPF quaternion0	-0.058525 -0.236066 0.873968 0.420746
USER    NEWDPF dihe0	44.75 159.74 -167.25 -25.83 100.21 -156.79 -117.57 -50.74 156.27 -47.07 80.93 129.82 -23.06 172.22 118.03 -164.08 -152.14 31.61 -166.44 25.58 -10.78 18.72 6.48 -175.81 
USER  
USER                              x       y       z    vdW   Elec        q     RMS 
ATOM      1  C   UNL d   1      -6.143 -17.880  12.959 -0.06 -0.08    +0.194    18.733
ATOM      2  C   UNL d   1      -5.995 -16.396  13.301 -0.09 -0.08    +0.194    18.733
ATOM      3  C   UNL d   1      -4.556 -16.045  13.686 -0.11 -0.09    +0.194    18.733
ATOM      4  C   UNL d   1      -3.528 -16.505  12.656 -0.10 -0.15    +0.194    18.733
ATOM      5  C   UNL d   1      -3.709 -17.947  12.199 -0.13 -0.12    +0.194    18.733
ATOM      6  C   UNL d   1      -5.158 -18.316  11.873 -0.12 -0.11    +0.194    18.733
ATOM      7  O   UNL d   1      -7.461 -18.090  12.447 -0.05 +0.13    -0.278    18.733
ATOM      8  P   UNL d   1      -7.814 -17.516  10.998 -0.13 -0.38    +0.473    18.733
ATOM      9  O   UNL d   1      -6.662 -17.418  10.061 -0.20 +0.26    -0.228    18.733
ATOM     10  O   UNL d   1      -8.971 -18.480  10.472 -0.14 +0.33    -0.303    18.733
ATOM     11  H   UNL d   1      -8.644 -19.000   9.714 -0.17 -0.48    +0.222    18.733
ATOM     12  O   UNL d   1      -8.604 -16.165  11.270 -0.12 +0.20    -0.303    18.733
ATOM     13  H   UNL d   1      -8.122 -15.367  10.958 -0.23 -0.21    +0.222    18.733
ATOM     14  O   UNL d   1      -6.365 -15.614  12.159 -0.19 +0.13    -0.278    18.733
ATOM     15  P   UNL d   1      -6.824 -14.106  12.442 -0.15 -0.17    +0.473    18.733
ATOM     16  O   UNL d   1      -8.084 -13.651  11.777 -0.19 +0.10    -0.228    18.733
ATOM     17  O   UNL d   1      -6.897 -14.016  14.031 -0.04 +0.08    -0.303    18.733
ATOM     18  H   UNL d   1      -6.078 -13.631  14.399 +0.06 -0.06    +0.222    18.733
ATOM     19  O   UNL d   1      -5.530 -13.234  12.132 -0.26 +0.10    -0.303    18.733
ATOM     20  H   UNL d   1      -4.940 -13.176  12.906 +0.07 -0.08    +0.222    18.733
ATOM     21  O   UNL d   1      -5.216 -19.739  11.803 -0.03 +0.13    -0.278    18.733
ATOM     22  P   UNL d   1      -5.512 -20.452  10.407 -0.06 -0.31    +0.473    18.733
ATOM     23  O   UNL d   1      -4.897 -21.786  10.152 -0.02 +0.09    -0.228    18.733
ATOM     24  O   UNL d   1      -7.103 -20.430  10.362 -0.09 +0.28    -0.303    18.733
ATOM     25  H   UNL d   1      -7.413 -19.599  10.803 +0.04 -0.20    +0.222    18.733
ATOM     26  O   UNL d   1      -5.136 -19.294   9.364 -0.19 +0.36    -0.303    18.733
ATOM     27  H   UNL d   1      -4.444 -18.722   9.754 -0.01 -0.20    +0.222    18.733
ATOM     28  O   UNL d   1      -4.454 -14.627  13.714 -0.12 +0.13    -0.278    18.733
ATOM     29  P   UNL d   1      -3.832 -13.890  14.981 -0.13 -0.19    +0.473    18.733
ATOM     30  O   UNL d   1      -3.561 -12.439  14.809 -0.69 +0.07    -0.228    18.733
ATOM     31  O   UNL d   1      -4.902 -14.301  16.097 -0.03 +0.08    -0.303    18.733
ATOM     32  H   UNL d   1      -5.765 -13.882  15.874 +0.04 -0.05    +0.222    18.733
ATOM     33  O   UNL d   1      -2.586 -14.818  15.329 -0.18 +0.18    -0.303    18.733
ATOM     34  H   UNL d   1      -2.470 -15.484  14.608 +0.07 -0.18    +0.222    18.733
ATOM     35  O   UNL d   1      -2.963 -18.067  10.990 -0.14 +0.20    -0.278    18.733
ATOM     36  P   UNL d   1      -2.058 -19.354  10.727 -0.10 -0.16    +0.473    18.733
ATOM     37  O   UNL d   1      -0.582 -19.133  10.813 -0.19 +0.08    -0.228    18.733
ATOM     38  O   UNL d   1      -2.630 -20.380  11.803 -0.01 +0.10    -0.303    18.733
ATOM     39  H   UNL d   1      -3.401 -20.851  11.419 +0.04 -0.07    +0.222    18.733
ATOM     40  O   UNL d   1      -2.628 -19.893   9.343 -0.13 +0.05    -0.303    18.733
ATOM     41  H   UNL d   1      -3.375 -20.518   9.476 +0.06 -0.07    +0.222    18.733
ATOM     42  O   UNL d   1      -2.244 -16.421  13.284 -0.15 +0.35    -0.278    18.733
ATOM     43  P   UNL d   1      -1.858 -17.498  14.396 -0.05 -0.43    +0.473    18.733
ATOM     44  O   UNL d   1      -1.452 -18.853  13.928 -0.08 +0.16    -0.228    18.733
ATOM     45  O   UNL d   1      -0.743 -16.741  15.242 -0.12 +0.34    -0.303    18.733
ATOM     46  H   UNL d   1      -0.663 -15.805  14.972 -0.19 -0.34    +0.222    18.733
ATOM     47  O   UNL d   1      -3.110 -17.458  15.396 -0.02 +0.14    -0.303    18.733
ATOM     48  H   UNL d   1      -3.287 -16.529  15.653 +0.04 -0.10    +0.222    18.733
TER
ENDMDL
MODEL       99
USER    Run = 99
USER    Cluster Rank = 22
USER    Number of conformations in this cluster = 1
USER  
USER    RMSD from reference structure       = 12.294 A
USER  
USER    Estimated Free Energy of Binding    =   +2.17 kcal/mol  [=(1)+(2)+(3)-(4)]
USER    
USER    (1) Final Intermolecular Energy     =   -4.99 kcal/mol
USER        vdW + Hbond + desolv Energy     =   -4.69 kcal/mol
USER        Electrostatic Energy            =   -0.29 kcal/mol
USER    (2) Final Total Internal Energy     =  -13.51 kcal/mol
USER    (3) Torsional Free Energy           =   +7.16 kcal/mol
USER    (4) Unbound System's Energy  [=(2)] =  -13.51 kcal/mol
USER    
USER    
USER  
USER    DPF = D:/Protein_go_brrr/autodock/final/mut_N102T/IHP/dock.dpf
USER    NEWDPF move	IHP_ideal_opt.pdbqt
USER    NEWDPF about	0.035000 0.082000 -0.065000
USER    NEWDPF tran0	-8.513117 -12.820845 -1.973287
USER    NEWDPF axisangle0	-0.310079 -0.634256 0.708217 -169.489043
USER    NEWDPF quaternion0	-0.308776 -0.631589 0.705239 -0.091597
USER    NEWDPF dihe0	-7.35 129.58 38.77 44.74 22.31 162.44 -89.48 -63.33 107.35 87.42 124.74 107.75 -50.29 -80.86 -180.00 -19.90 120.97 -123.15 -23.88 13.76 -18.37 3.14 -9.37 170.31 
USER  
USER                              x       y       z    vdW   Elec        q     RMS 
ATOM      1  C   UNL d   1     -10.174 -12.666  -1.524 -0.08 +0.02    +0.194    12.294
ATOM      2  C   UNL d   1      -9.191 -12.857  -0.367 -0.12 +0.02    +0.194    12.294
ATOM      3  C   UNL d   1      -8.147 -13.930  -0.682 -0.13 +0.06    +0.194    12.294
ATOM      4  C   UNL d   1      -7.435 -13.703  -2.013 -0.13 +0.10    +0.194    12.294
ATOM      5  C   UNL d   1      -8.372 -13.395  -3.174 -0.09 +0.08    +0.194    12.294
ATOM      6  C   UNL d   1      -9.455 -12.367  -2.840 +0.02 +0.03    +0.194    12.294
ATOM      7  O   UNL d   1     -11.001 -11.538  -1.225 -0.05 -0.00    -0.278    12.294
ATOM      8  P   UNL d   1     -12.518 -11.557  -1.723 -0.00 +0.01    +0.473    12.294
ATOM      9  O   UNL d   1     -12.932 -12.794  -2.440 -0.00 -0.01    -0.228    12.294
ATOM     10  O   UNL d   1     -13.364 -11.287  -0.397 +0.00 +0.00    -0.303    12.294
ATOM     11  H   UNL d   1     -14.300 -11.511  -0.555 +0.00 -0.00    +0.222    12.294
ATOM     12  O   UNL d   1     -12.708 -10.196  -2.521 -0.01 -0.01    -0.303    12.294
ATOM     13  H   UNL d   1     -12.415 -10.255  -3.458 +0.01 +0.01    +0.222    12.294
ATOM     14  O   UNL d   1      -8.513 -11.618  -0.121 +0.02 +0.02    -0.278    12.294
ATOM     15  P   UNL d   1      -8.148 -11.293   1.404 -0.15 -0.04    +0.473    12.294
ATOM     16  O   UNL d   1      -9.000 -11.938   2.452 -0.37 -0.01    -0.228    12.294
ATOM     17  O   UNL d   1      -6.610 -11.692   1.527 -0.29 +0.00    -0.303    12.294
ATOM     18  H   UNL d   1      -6.468 -12.625   1.276 -0.09 -0.00    +0.222    12.294
ATOM     19  O   UNL d   1      -8.072  -9.705   1.464 -0.17 +0.08    -0.303    12.294
ATOM     20  H   UNL d   1      -8.022  -9.313   0.573 -0.44 -0.16    +0.222    12.294
ATOM     21  O   UNL d   1     -10.430 -12.443  -3.876 -0.04 -0.05    -0.278    12.294
ATOM     22  P   UNL d   1     -10.756 -11.152  -4.754 -0.03 +0.08    +0.473    12.294
ATOM     23  O   UNL d   1     -12.134 -11.004  -5.307 -0.01 -0.02    -0.228    12.294
ATOM     24  O   UNL d   1     -10.296  -9.976  -3.786 -0.48 -0.07    -0.303    12.294
ATOM     25  H   UNL d   1     -10.622 -10.182  -2.874 +0.02 +0.03    +0.222    12.294
ATOM     26  O   UNL d   1      -9.567 -11.180  -5.829 -0.04 -0.08    -0.303    12.294
ATOM     27  H   UNL d   1      -8.895 -11.834  -5.548 +0.04 +0.08    +0.222    12.294
ATOM     28  O   UNL d   1      -7.131 -13.843   0.309 -0.21 -0.07    -0.278    12.294
ATOM     29  P   UNL d   1      -6.913 -15.034   1.344 -0.21 +0.11    +0.473    12.294
ATOM     30  O   UNL d   1      -8.148 -15.576   1.966 -0.17 -0.02    -0.228    12.294
ATOM     31  O   UNL d   1      -6.055 -16.037   0.439 -0.19 -0.27    -0.303    12.294
ATOM     32  H   UNL d   1      -6.402 -16.003  -0.483 +0.08 +0.28    +0.222    12.294
ATOM     33  O   UNL d   1      -5.819 -14.425   2.328 -0.18 -0.02    -0.303    12.294
ATOM     34  H   UNL d   1      -5.542 -13.538   1.990 -0.22 -0.03    +0.222    12.294
ATOM     35  O   UNL d   1      -7.552 -12.825  -4.193 -0.16 -0.17    -0.278    12.294
ATOM     36  P   UNL d   1      -7.466 -13.507  -5.632 -0.07 +0.38    +0.473    12.294
ATOM     37  O   UNL d   1      -6.866 -12.663  -6.711 -0.19 -0.19    -0.228    12.294
ATOM     38  O   UNL d   1      -6.651 -14.838  -5.313 -0.08 -0.41    -0.303    12.294
ATOM     39  H   UNL d   1      -6.930 -15.184  -4.438 +0.06 +0.24    +0.222    12.294
ATOM     40  O   UNL d   1      -8.956 -14.015  -5.857 -0.01 -0.14    -0.303    12.294
ATOM     41  H   UNL d   1      -9.616 -13.326  -5.620 +0.03 +0.07    +0.222    12.294
ATOM     42  O   UNL d   1      -6.755 -14.922  -2.333 -0.16 -0.26    -0.278    12.294
ATOM     43  P   UNL d   1      -7.607 -16.262  -2.488 -0.00 +0.48    +0.473    12.294
ATOM     44  O   UNL d   1      -8.061 -16.936  -1.240 -0.22 -0.19    -0.228    12.294
ATOM     45  O   UNL d   1      -8.791 -15.813  -3.453 -0.01 -0.16    -0.303    12.294
ATOM     46  H   UNL d   1      -8.450 -15.374  -4.258 +0.03 +0.13    +0.222    12.294
ATOM     47  O   UNL d   1      -6.709 -17.156  -3.470 -0.25 -0.51    -0.303    12.294
ATOM     48  H   UNL d   1      -6.765 -16.794  -4.378 +0.04 +0.28    +0.222    12.294
TER
ENDMDL
MODEL       29
USER    Run = 29
USER    Cluster Rank = 23
USER    Number of conformations in this cluster = 1
USER  
USER    RMSD from reference structure       = 12.148 A
USER  
USER    Estimated Free Energy of Binding    =   +2.18 kcal/mol  [=(1)+(2)+(3)-(4)]
USER    
USER    (1) Final Intermolecular Energy     =   -4.98 kcal/mol
USER        vdW + Hbond + desolv Energy     =   -4.82 kcal/mol
USER        Electrostatic Energy            =   -0.17 kcal/mol
USER    (2) Final Total Internal Energy     =  -12.12 kcal/mol
USER    (3) Torsional Free Energy           =   +7.16 kcal/mol
USER    (4) Unbound System's Energy  [=(2)] =  -12.12 kcal/mol
USER    
USER    
USER  
USER    DPF = D:/Protein_go_brrr/autodock/final/mut_N102T/IHP/dock.dpf
USER    NEWDPF move	IHP_ideal_opt.pdbqt
USER    NEWDPF about	0.035000 0.082000 -0.065000
USER    NEWDPF tran0	13.662811 0.328417 -5.277748
USER    NEWDPF axisangle0	-0.637413 -0.491576 -0.593345 130.786894
USER    NEWDPF quaternion0	-0.579528 -0.446935 -0.539463 0.416385
USER    NEWDPF dihe0	146.55 103.59 -174.05 53.98 58.15 111.20 -108.65 -47.11 74.94 108.96 -0.33 -65.77 -54.55 47.19 61.80 -166.78 -159.58 20.23 48.84 -3.44 -175.47 -17.60 7.81 -168.83 
USER  
USER                              x       y       z    vdW   Elec        q     RMS 
ATOM      1  C   UNL d   1      14.414   1.765  -5.874 -0.12 -0.02    +0.194    12.148
ATOM      2  C   UNL d   1      13.967   0.762  -6.939 -0.10 -0.02    +0.194    12.148
ATOM      3  C   UNL d   1      14.312  -0.675  -6.544 -0.07 -0.02    +0.194    12.148
ATOM      4  C   UNL d   1      13.813  -1.052  -5.151 -0.14 -0.02    +0.194    12.148
ATOM      5  C   UNL d   1      14.136  -0.022  -4.076 -0.14 -0.02    +0.194    12.148
ATOM      6  C   UNL d   1      13.849   1.422  -4.495 +0.06 -0.02    +0.194    12.148
ATOM      7  O   UNL d   1      13.907   3.053  -6.233 -0.28 +0.03    -0.278    12.148
ATOM      8  P   UNL d   1      14.594   3.828  -7.449 -0.11 -0.08    +0.473    12.148
ATOM      9  O   UNL d   1      15.766   3.138  -8.054 -0.03 +0.03    -0.228    12.148
ATOM     10  O   UNL d   1      13.401   4.063  -8.481 -0.16 +0.12    -0.303    12.148
ATOM     11  H   UNL d   1      12.626   3.537  -8.211 -0.38 -0.13    +0.222    12.148
ATOM     12  O   UNL d   1      14.859   5.297  -6.905 -0.16 +0.05    -0.303    12.148
ATOM     13  H   UNL d   1      15.427   5.315  -6.103 +0.08 -0.04    +0.222    12.148
ATOM     14  O   UNL d   1      12.548   0.862  -7.108 -0.09 +0.03    -0.278    12.148
ATOM     15  P   UNL d   1      12.018   1.058  -8.606 -0.24 -0.11    +0.473    12.148
ATOM     16  O   UNL d   1      11.445  -0.150  -9.280 -0.26 +0.05    -0.228    12.148
ATOM     17  O   UNL d   1      10.973   2.255  -8.494 -0.43 +0.14    -0.303    12.148
ATOM     18  H   UNL d   1      11.411   3.117  -8.631 -0.45 -0.18    +0.222    12.148
ATOM     19  O   UNL d   1      13.227   1.758  -9.367 -0.13 +0.07    -0.303    12.148
ATOM     20  H   UNL d   1      13.952   1.987  -8.757 +0.08 -0.04    +0.222    12.148
ATOM     21  O   UNL d   1      14.509   2.263  -3.551 -0.22 +0.06    -0.278    12.148
ATOM     22  P   UNL d   1      16.064   2.575  -3.720 -0.10 -0.05    +0.473    12.148
ATOM     23  O   UNL d   1      16.460   3.788  -4.491 -0.09 +0.04    -0.228    12.148
ATOM     24  O   UNL d   1      16.566   2.551  -2.209 -0.20 -0.11    -0.303    12.148
ATOM     25  H   UNL d   1      15.771   2.485  -1.621 +0.01 +0.08    +0.222    12.148
ATOM     26  O   UNL d   1      16.618   1.177  -4.275 -0.02 +0.01    -0.303    12.148
ATOM     27  H   UNL d   1      16.474   0.483  -3.600 +0.04 -0.00    +0.222    12.148
ATOM     28  O   UNL d   1      13.625  -1.541  -7.438 -0.06 +0.03    -0.278    12.148
ATOM     29  P   UNL d   1      14.342  -2.065  -8.760 +0.01 -0.05    +0.473    12.148
ATOM     30  O   UNL d   1      13.657  -3.182  -9.461 -0.03 +0.03    -0.228    12.148
ATOM     31  O   UNL d   1      14.492  -0.688  -9.561 -0.01 +0.03    -0.303    12.148
ATOM     32  H   UNL d   1      13.598  -0.288  -9.667 +0.06 -0.03    +0.222    12.148
ATOM     33  O   UNL d   1      15.825  -2.338  -8.250 +0.00 +0.03    -0.303    12.148
ATOM     34  H   UNL d   1      15.837  -2.302  -7.262 +0.02 -0.03    +0.222    12.148
ATOM     35  O   UNL d   1      13.273  -0.321  -2.981 -0.21 +0.02    -0.278    12.148
ATOM     36  P   UNL d   1      13.823  -0.266  -1.485 -0.17 -0.01    +0.473    12.148
ATOM     37  O   UNL d   1      13.842  -1.573  -0.756 -0.18 +0.01    -0.228    12.148
ATOM     38  O   UNL d   1      15.259   0.390  -1.689 -0.11 -0.03    -0.303    12.148
ATOM     39  H   UNL d   1      15.367   0.641  -2.632 +0.07 +0.00    +0.222    12.148
ATOM     40  O   UNL d   1      12.955   0.904  -0.846 -0.33 +0.04    -0.303    12.148
ATOM     41  H   UNL d   1      12.007   0.655  -0.772 -0.27 -0.09    +0.222    12.148
ATOM     42  O   UNL d   1      14.479  -2.265  -4.786 -0.05 +0.05    -0.278    12.148
ATOM     43  P   UNL d   1      15.975  -2.189  -4.237 +0.02 -0.06    +0.473    12.148
ATOM     44  O   UNL d   1      16.192  -1.511  -2.928 -0.02 +0.01    -0.228    12.148
ATOM     45  O   UNL d   1      16.435  -3.712  -4.266 -0.00 +0.06    -0.303    12.148
ATOM     46  H   UNL d   1      16.012  -4.227  -3.551 +0.03 -0.06    +0.222    12.148
ATOM     47  O   UNL d   1      16.789  -1.578  -5.476 -0.00 +0.03    -0.303    12.148
ATOM     48  H   UNL d   1      17.113  -0.685  -5.240 +0.01 -0.01    +0.222    12.148
TER
ENDMDL
MODEL       96
USER    Run = 96
USER    Cluster Rank = 24
USER    Number of conformations in this cluster = 1
USER  
USER    RMSD from reference structure       = 22.105 A
USER  
USER    Estimated Free Energy of Binding    =   +2.22 kcal/mol  [=(1)+(2)+(3)-(4)]
USER    
USER    (1) Final Intermolecular Energy     =   -4.94 kcal/mol
USER        vdW + Hbond + desolv Energy     =   -4.36 kcal/mol
USER        Electrostatic Energy            =   -0.58 kcal/mol
USER    (2) Final Total Internal Energy     =  -13.69 kcal/mol
USER    (3) Torsional Free Energy           =   +7.16 kcal/mol
USER    (4) Unbound System's Energy  [=(2)] =  -13.69 kcal/mol
USER    
USER    
USER  
USER    DPF = D:/Protein_go_brrr/autodock/final/mut_N102T/IHP/dock.dpf
USER    NEWDPF move	IHP_ideal_opt.pdbqt
USER    NEWDPF about	0.035000 0.082000 -0.065000
USER    NEWDPF tran0	2.968850 7.557345 -22.914771
USER    NEWDPF axisangle0	0.686501 -0.038945 0.726085 81.011215
USER    NEWDPF quaternion0	0.445898 -0.025296 0.471608 0.760342
USER    NEWDPF dihe0	-131.41 148.49 160.33 7.29 -10.23 -149.06 -19.57 -132.59 169.22 -36.23 39.15 -143.56 108.84 179.65 -77.66 113.49 43.29 142.91 55.38 8.97 180.00 -0.15 -26.49 -5.70 
USER  
USER                              x       y       z    vdW   Elec        q     RMS 
ATOM      1  C   UNL d   1       3.409   7.008 -21.337 -0.10 -0.01    +0.194    22.105
ATOM      2  C   UNL d   1       1.990   7.563 -21.472 -0.12 -0.01    +0.194    22.105
ATOM      3  C   UNL d   1       1.959   8.841 -22.313 -0.07 -0.01    +0.194    22.105
ATOM      4  C   UNL d   1       2.649   8.687 -23.666 -0.01 -0.00    +0.194    22.105
ATOM      5  C   UNL d   1       4.022   8.032 -23.591 -0.00 +0.00    +0.194    22.105
ATOM      6  C   UNL d   1       4.067   6.788 -22.700 -0.02 +0.01    +0.194    22.105
ATOM      7  O   UNL d   1       3.331   5.735 -20.692 -0.07 +0.00    -0.278    22.105
ATOM      8  P   UNL d   1       2.863   5.685 -19.165 -0.19 -0.06    +0.473    22.105
ATOM      9  O   UNL d   1       2.372   4.360 -18.699 -0.26 +0.02    -0.228    22.105
ATOM     10  O   UNL d   1       4.135   6.204 -18.354 -0.42 +0.05    -0.303    22.105
ATOM     11  H   UNL d   1       4.256   7.159 -18.511 -0.49 -0.23    +0.222    22.105
ATOM     12  O   UNL d   1       1.849   6.898 -19.004 -0.05 +0.07    -0.303    22.105
ATOM     13  H   UNL d   1       0.908   6.613 -18.986 -0.45 -0.09    +0.222    22.105
ATOM     14  O   UNL d   1       1.162   6.580 -22.104 -0.04 +0.01    -0.278    22.105
ATOM     15  P   UNL d   1      -0.329   6.429 -21.540 -0.09 -0.01    +0.473    22.105
ATOM     16  O   UNL d   1      -0.745   5.061 -21.098 -0.18 -0.01    -0.228    22.105
ATOM     17  O   UNL d   1      -0.412   7.508 -20.370 -0.18 +0.03    -0.303    22.105
ATOM     18  H   UNL d   1      -0.320   8.414 -20.721 +0.04 -0.02    +0.222    22.105
ATOM     19  O   UNL d   1      -1.245   7.097 -22.656 -0.06 -0.01    -0.303    22.105
ATOM     20  H   UNL d   1      -0.942   7.997 -22.879 +0.04 +0.00    +0.222    22.105
ATOM     21  O   UNL d   1       5.443   6.503 -22.459 -0.02 -0.04    -0.278    22.105
ATOM     22  P   UNL d   1       6.255   7.366 -21.391 +0.00 +0.25    +0.473    22.105
ATOM     23  O   UNL d   1       6.136   8.852 -21.448 -0.13 -0.03    -0.228    22.105
ATOM     24  O   UNL d   1       5.785   6.711 -20.019 +0.10 -0.29    -0.303    22.105
ATOM     25  H   UNL d   1       4.871   7.038 -19.819 -0.24 -0.01    +0.222    22.105
ATOM     26  O   UNL d   1       7.736   6.773 -21.551 -0.54 -0.23    -0.303    22.105
ATOM     27  H   UNL d   1       7.900   6.567 -22.494 +0.02 +0.07    +0.222    22.105
ATOM     28  O   UNL d   1       0.598   9.123 -22.613 -0.05 +0.00    -0.278    22.105
ATOM     29  P   UNL d   1      -0.128  10.378 -21.954 -0.12 -0.01    +0.473    22.105
ATOM     30  O   UNL d   1       0.014  11.660 -22.691 -0.07 -0.02    -0.228    22.105
ATOM     31  O   UNL d   1      -1.609   9.792 -21.795 -0.13 +0.01    -0.303    22.105
ATOM     32  H   UNL d   1      -1.547   8.823 -21.631 +0.06 -0.01    +0.222    22.105
ATOM     33  O   UNL d   1       0.427  10.340 -20.463 -0.22 +0.04    -0.303    22.105
ATOM     34  H   UNL d   1      -0.003   9.593 -19.979 -0.31 -0.06    +0.222    22.105
ATOM     35  O   UNL d   1       4.321   7.607 -24.920 +0.00 -0.00    -0.278    22.105
ATOM     36  P   UNL d   1       5.360   8.425 -25.811 +0.01 +0.01    +0.473    22.105
ATOM     37  O   UNL d   1       6.794   8.026 -25.659 +0.00 -0.01    -0.228    22.105
ATOM     38  O   UNL d   1       4.773   8.211 -27.276 +0.00 -0.00    -0.303    22.105
ATOM     39  H   UNL d   1       4.253   9.003 -27.532 +0.00 +0.00    +0.222    22.105
ATOM     40  O   UNL d   1       4.991   9.933 -25.467 +0.00 -0.00    -0.303    22.105
ATOM     41  H   UNL d   1       4.183  10.228 -25.943 +0.00 +0.00    +0.222    22.105
ATOM     42  O   UNL d   1       2.841  10.007 -24.186 -0.00 -0.00    -0.278    22.105
ATOM     43  P   UNL d   1       2.104  10.417 -25.540 +0.00 +0.01    +0.473    22.105
ATOM     44  O   UNL d   1       2.477  11.721 -26.157 -0.00 -0.01    -0.228    22.105
ATOM     45  O   UNL d   1       2.366   9.156 -26.475 +0.00 -0.00    -0.303    22.105
ATOM     46  H   UNL d   1       3.239   8.753 -26.296 +0.00 +0.00    +0.222    22.105
ATOM     47  O   UNL d   1       0.552  10.240 -25.181 -0.00 -0.01    -0.303    22.105
ATOM     48  H   UNL d   1       0.406  10.495 -24.246 +0.02 +0.01    +0.222    22.105
TER
ENDMDL
MODEL        9
USER    Run = 9
USER    Cluster Rank = 25
USER    Number of conformations in this cluster = 1
USER  
USER    RMSD from reference structure       = 21.348 A
USER  
USER    Estimated Free Energy of Binding    =   +2.28 kcal/mol  [=(1)+(2)+(3)-(4)]
USER    
USER    (1) Final Intermolecular Energy     =   -4.88 kcal/mol
USER        vdW + Hbond + desolv Energy     =   -4.87 kcal/mol
USER        Electrostatic Energy            =   -0.01 kcal/mol
USER    (2) Final Total Internal Energy     =  -14.12 kcal/mol
USER    (3) Torsional Free Energy           =   +7.16 kcal/mol
USER    (4) Unbound System's Energy  [=(2)] =  -14.12 kcal/mol
USER    
USER    
USER  
USER    DPF = D:/Protein_go_brrr/autodock/final/mut_N102T/IHP/dock.dpf
USER    NEWDPF move	IHP_ideal_opt.pdbqt
USER    NEWDPF about	0.035000 0.082000 -0.065000
USER    NEWDPF tran0	1.413542 10.726058 19.792570
USER    NEWDPF axisangle0	-0.073754 -0.305188 0.949432 -174.652165
USER    NEWDPF quaternion0	-0.073674 -0.304855 0.948398 -0.046652
USER    NEWDPF dihe0	-169.49 -174.53 141.19 8.42 88.97 -129.38 -12.84 37.39 154.40 -38.00 24.50 169.38 -107.62 -179.87 117.40 123.51 -149.40 12.73 51.28 7.75 -12.69 -2.85 4.90 169.32 
USER  
USER                              x       y       z    vdW   Elec        q     RMS 
ATOM      1  C   UNL d   1       0.085  11.160  20.808 -0.05 -0.04    +0.194    21.348
ATOM      2  C   UNL d   1       1.411  11.856  21.121 -0.07 -0.05    +0.194    21.348
ATOM      3  C   UNL d   1       2.589  10.880  21.067 -0.11 -0.05    +0.194    21.348
ATOM      4  C   UNL d   1       2.649  10.081  19.768 -0.21 -0.07    +0.194    21.348
ATOM      5  C   UNL d   1       1.318   9.464  19.357 -0.20 -0.06    +0.194    21.348
ATOM      6  C   UNL d   1       0.130  10.422  19.470 -0.15 -0.05    +0.194    21.348
ATOM      7  O   UNL d   1      -0.931  12.161  20.709 -0.04 +0.05    -0.278    21.348
ATOM      8  P   UNL d   1      -1.408  12.894  22.046 +0.00 -0.07    +0.473    21.348
ATOM      9  O   UNL d   1      -1.895  11.988  23.122 -0.00 +0.03    -0.228    21.348
ATOM     10  O   UNL d   1      -0.145  13.766  22.481 -0.01 +0.05    -0.303    21.348
ATOM     11  H   UNL d   1       0.335  14.065  21.687 +0.04 -0.05    +0.222    21.348
ATOM     12  O   UNL d   1      -2.432  14.009  21.562 -0.01 +0.04    -0.303    21.348
ATOM     13  H   UNL d   1      -3.210  14.101  22.157 +0.01 -0.02    +0.222    21.348
ATOM     14  O   UNL d   1       1.633  12.893  20.158 -0.19 +0.14    -0.278    21.348
ATOM     15  P   UNL d   1       2.234  14.269  20.713 -0.12 -0.27    +0.473    21.348
ATOM     16  O   UNL d   1       1.453  15.511  20.419 -0.22 +0.09    -0.228    21.348
ATOM     17  O   UNL d   1       2.417  14.010  22.275 -0.02 +0.08    -0.303    21.348
ATOM     18  H   UNL d   1       2.829  13.141  22.441 +0.04 -0.05    +0.222    21.348
ATOM     19  O   UNL d   1       3.744  14.274  20.212 -0.15 +0.27    -0.303    21.348
ATOM     20  H   UNL d   1       4.204  13.446  20.444 +0.05 -0.13    +0.222    21.348
ATOM     21  O   UNL d   1      -1.050   9.626  19.391 -0.05 +0.06    -0.278    21.348
ATOM     22  P   UNL d   1      -2.043   9.803  18.155 -0.10 -0.14    +0.473    21.348
ATOM     23  O   UNL d   1      -2.788   8.604  17.673 -0.16 +0.07    -0.228    21.348
ATOM     24  O   UNL d   1      -2.961  11.007  18.644 -0.06 +0.06    -0.303    21.348
ATOM     25  H   UNL d   1      -2.459  11.518  19.329 +0.05 -0.04    +0.222    21.348
ATOM     26  O   UNL d   1      -1.098  10.523  17.078 -0.27 +0.14    -0.303    21.348
ATOM     27  H   UNL d   1      -0.306   9.968  16.923 -0.07 -0.10    +0.222    21.348
ATOM     28  O   UNL d   1       3.784  11.650  21.092 -0.13 +0.08    -0.278    21.348
ATOM     29  P   UNL d   1       4.699  11.674  22.396 -0.02 -0.08    +0.473    21.348
ATOM     30  O   UNL d   1       5.861  10.749  22.380 -0.05 +0.02    -0.228    21.348
ATOM     31  O   UNL d   1       5.018  13.240  22.484 -0.02 +0.06    -0.303    21.348
ATOM     32  H   UNL d   1       4.207  13.740  22.235 +0.04 -0.06    +0.222    21.348
ATOM     33  O   UNL d   1       3.630  11.468  23.557 -0.00 +0.04    -0.303    21.348
ATOM     34  H   UNL d   1       3.603  10.510  23.803 +0.02 -0.03    +0.222    21.348
ATOM     35  O   UNL d   1       1.457   9.128  17.978 -0.34 +0.09    -0.278    21.348
ATOM     36  P   UNL d   1       0.946   7.717  17.438 -0.25 -0.14    +0.473    21.348
ATOM     37  O   UNL d   1       2.015   6.714  17.141 -0.48 +0.07    -0.228    21.348
ATOM     38  O   UNL d   1      -0.065   7.275  18.587 -0.13 +0.09    -0.303    21.348
ATOM     39  H   UNL d   1      -0.941   7.684  18.419 +0.11 -0.06    +0.222    21.348
ATOM     40  O   UNL d   1      -0.004   8.137  16.234 -0.15 +0.12    -0.303    21.348
ATOM     41  H   UNL d   1      -0.887   8.429  16.551 -0.45 -0.14    +0.222    21.348
ATOM     42  O   UNL d   1       3.564   9.002  19.987 -0.10 +0.11    -0.278    21.348
ATOM     43  P   UNL d   1       3.273   7.973  21.171 -0.10 -0.12    +0.473    21.348
ATOM     44  O   UNL d   1       1.981   7.233  21.137 -0.10 +0.06    -0.228    21.348
ATOM     45  O   UNL d   1       4.560   7.037  21.144 -0.14 +0.10    -0.303    21.348
ATOM     46  H   UNL d   1       4.758   6.727  20.238 -0.50 -0.14    +0.222    21.348
ATOM     47  O   UNL d   1       3.534   8.848  22.489 -0.02 +0.05    -0.303    21.348
ATOM     48  H   UNL d   1       3.971   9.688  22.237 +0.04 -0.04    +0.222    21.348
TER
ENDMDL
MODEL       35
USER    Run = 35
USER    Cluster Rank = 26
USER    Number of conformations in this cluster = 1
USER  
USER    RMSD from reference structure       = 22.067 A
USER  
USER    Estimated Free Energy of Binding    =   +2.28 kcal/mol  [=(1)+(2)+(3)-(4)]
USER    
USER    (1) Final Intermolecular Energy     =   -4.88 kcal/mol
USER        vdW + Hbond + desolv Energy     =   -4.30 kcal/mol
USER        Electrostatic Energy            =   -0.58 kcal/mol
USER    (2) Final Total Internal Energy     =  -11.12 kcal/mol
USER    (3) Torsional Free Energy           =   +7.16 kcal/mol
USER    (4) Unbound System's Energy  [=(2)] =  -11.12 kcal/mol
USER    
USER    
USER  
USER    DPF = D:/Protein_go_brrr/autodock/final/mut_N102T/IHP/dock.dpf
USER    NEWDPF move	IHP_ideal_opt.pdbqt
USER    NEWDPF about	0.035000 0.082000 -0.065000
USER    NEWDPF tran0	-3.920810 -12.665136 -22.404678
USER    NEWDPF axisangle0	0.552410 0.197309 0.809884 130.633817
USER    NEWDPF quaternion0	0.501937 0.179281 0.735886 0.417599
USER    NEWDPF dihe0	167.80 119.77 -0.69 21.20 155.57 66.78 32.41 -89.21 -79.43 37.97 -55.43 54.57 127.21 -176.21 -119.66 -70.29 9.91 -96.14 12.11 -44.31 151.52 -42.18 103.88 65.35 
USER  
USER                              x       y       z    vdW   Elec        q     RMS 
ATOM      1  C   UNL d   1      -4.345 -12.148 -20.812 -0.18 -0.01    +0.194    22.067
ATOM      2  C   UNL d   1      -5.017 -11.386 -21.955 -0.13 -0.01    +0.194    22.067
ATOM      3  C   UNL d   1      -4.030 -11.064 -23.079 -0.16 -0.04    +0.194    22.067
ATOM      4  C   UNL d   1      -3.262 -12.287 -23.574 -0.10 -0.03    +0.194    22.067
ATOM      5  C   UNL d   1      -2.671 -13.141 -22.460 -0.10 -0.01    +0.194    22.067
ATOM      6  C   UNL d   1      -3.640 -13.412 -21.306 -0.09 -0.01    +0.194    22.067
ATOM      7  O   UNL d   1      -5.360 -12.559 -19.892 -0.09 +0.00    -0.278    22.067
ATOM      8  P   UNL d   1      -5.410 -11.861 -18.456 -0.20 +0.00    +0.473    22.067
ATOM      9  O   UNL d   1      -6.511 -12.324 -17.568 -0.18 -0.02    -0.228    22.067
ATOM     10  O   UNL d   1      -3.959 -12.123 -17.847 -0.23 +0.04    -0.303    22.067
ATOM     11  H   UNL d   1      -3.375 -12.486 -18.539 -0.00 -0.04    +0.222    22.067
ATOM     12  O   UNL d   1      -5.369 -10.301 -18.754 -0.09 +0.01    -0.303    22.067
ATOM     13  H   UNL d   1      -6.221  -9.952 -19.101 +0.09 +0.01    +0.222    22.067
ATOM     14  O   UNL d   1      -6.076 -12.189 -22.493 -0.03 +0.02    -0.278    22.067
ATOM     15  P   UNL d   1      -7.507 -12.053 -21.787 -0.01 -0.01    +0.473    22.067
ATOM     16  O   UNL d   1      -8.089 -13.303 -21.204 -0.01 +0.00    -0.228    22.067
ATOM     17  O   UNL d   1      -7.296 -10.906 -20.702 -0.05 +0.00    -0.303    22.067
ATOM     18  H   UNL d   1      -7.105 -11.284 -19.823 +0.06 +0.00    +0.222    22.067
ATOM     19  O   UNL d   1      -8.412 -11.312 -22.865 -0.01 +0.01    -0.303    22.067
ATOM     20  H   UNL d   1      -7.914 -10.622 -23.341 +0.02 -0.02    +0.222    22.067
ATOM     21  O   UNL d   1      -2.859 -13.907 -20.221 -0.06 +0.01    -0.278    22.067
ATOM     22  P   UNL d   1      -1.538 -13.131 -19.776 -0.13 -0.03    +0.473    22.067
ATOM     23  O   UNL d   1      -0.249 -13.505 -20.426 -0.11 +0.00    -0.228    22.067
ATOM     24  O   UNL d   1      -1.971 -11.612 -19.974 -0.18 +0.04    -0.303    22.067
ATOM     25  H   UNL d   1      -2.377 -11.294 -19.128 -0.45 -0.11    +0.222    22.067
ATOM     26  O   UNL d   1      -1.592 -13.285 -18.181 -0.12 +0.03    -0.303    22.067
ATOM     27  H   UNL d   1      -1.828 -12.423 -17.782 -0.39 -0.09    +0.222    22.067
ATOM     28  O   UNL d   1      -4.786 -10.615 -24.197 -0.09 +0.08    -0.278    22.067
ATOM     29  P   UNL d   1      -5.550  -9.219 -24.143 -0.09 -0.18    +0.473    22.067
ATOM     30  O   UNL d   1      -6.987  -9.289 -23.772 -0.06 +0.04    -0.228    22.067
ATOM     31  O   UNL d   1      -4.584  -8.410 -23.156 +0.06 +0.25    -0.303    22.067
ATOM     32  H   UNL d   1      -3.844  -8.030 -23.684 -0.41 -0.45    +0.222    22.067
ATOM     33  O   UNL d   1      -5.204  -8.593 -25.566 -0.07 +0.16    -0.303    22.067
ATOM     34  H   UNL d   1      -4.317  -8.922 -25.854 +0.04 -0.15    +0.222    22.067
ATOM     35  O   UNL d   1      -2.368 -14.400 -23.057 -0.03 +0.01    -0.278    22.067
ATOM     36  P   UNL d   1      -2.947 -15.748 -22.431 -0.00 -0.01    +0.473    22.067
ATOM     37  O   UNL d   1      -4.431 -15.790 -22.250 -0.00 +0.00    -0.228    22.067
ATOM     38  O   UNL d   1      -2.379 -16.845 -23.436 -0.00 +0.01    -0.303    22.067
ATOM     39  H   UNL d   1      -3.007 -17.598 -23.478 +0.00 -0.00    +0.222    22.067
ATOM     40  O   UNL d   1      -2.056 -15.927 -21.126 -0.00 +0.00    -0.303    22.067
ATOM     41  H   UNL d   1      -1.363 -15.234 -21.060 +0.02 -0.00    +0.222    22.067
ATOM     42  O   UNL d   1      -2.168 -11.801 -24.357 -0.09 +0.06    -0.278    22.067
ATOM     43  P   UNL d   1      -2.438 -10.651 -25.430 -0.11 -0.23    +0.473    22.067
ATOM     44  O   UNL d   1      -3.562 -10.855 -26.386 -0.04 +0.08    -0.228    22.067
ATOM     45  O   UNL d   1      -2.583  -9.353 -24.521 -0.20 +0.38    -0.303    22.067
ATOM     46  H   UNL d   1      -3.404  -8.862 -24.727 -0.09 -0.30    +0.222    22.067
ATOM     47  O   UNL d   1      -0.997 -10.424 -26.094 -0.13 +0.16    -0.303    22.067
ATOM     48  H   UNL d   1      -0.763  -9.474 -26.041 -0.10 -0.22    +0.222    22.067
TER
ENDMDL
MODEL       73
USER    Run = 73
USER    Cluster Rank = 27
USER    Number of conformations in this cluster = 1
USER  
USER    RMSD from reference structure       = 15.983 A
USER  
USER    Estimated Free Energy of Binding    =   +2.32 kcal/mol  [=(1)+(2)+(3)-(4)]
USER    
USER    (1) Final Intermolecular Energy     =   -4.84 kcal/mol
USER        vdW + Hbond + desolv Energy     =   -4.72 kcal/mol
USER        Electrostatic Energy            =   -0.12 kcal/mol
USER    (2) Final Total Internal Energy     =  -13.99 kcal/mol
USER    (3) Torsional Free Energy           =   +7.16 kcal/mol
USER    (4) Unbound System's Energy  [=(2)] =  -13.99 kcal/mol
USER    
USER    
USER  
USER    DPF = D:/Protein_go_brrr/autodock/final/mut_N102T/IHP/dock.dpf
USER    NEWDPF move	IHP_ideal_opt.pdbqt
USER    NEWDPF about	0.035000 0.082000 -0.065000
USER    NEWDPF tran0	-5.456476 12.121660 -12.797852
USER    NEWDPF axisangle0	0.678658 0.458983 -0.573375 135.741888
USER    NEWDPF quaternion0	0.628666 0.425173 -0.531138 0.376694
USER    NEWDPF dihe0	104.28 71.87 97.11 95.06 12.15 -140.24 38.70 -88.04 -0.82 8.73 140.76 137.96 -171.69 124.30 -28.16 -135.65 -78.72 31.08 4.44 -9.80 165.41 5.19 7.50 176.68 
USER  
USER                              x       y       z    vdW   Elec        q     RMS 
ATOM      1  C   UNL d   1      -6.264  13.625 -12.532 -0.03 -0.00    +0.194    15.983
ATOM      2  C   UNL d   1      -6.101  12.736 -11.298 -0.06 -0.01    +0.194    15.983
ATOM      3  C   UNL d   1      -6.405  11.269 -11.612 -0.10 -0.02    +0.194    15.983
ATOM      4  C   UNL d   1      -5.627  10.738 -12.814 -0.21 -0.03    +0.194    15.983
ATOM      5  C   UNL d   1      -5.669  11.652 -14.033 -0.16 -0.02    +0.194    15.983
ATOM      6  C   UNL d   1      -5.425  13.127 -13.709 -0.10 -0.01    +0.194    15.983
ATOM      7  O   UNL d   1      -5.799  14.936 -12.202 -0.01 -0.00    -0.278    15.983
ATOM      8  P   UNL d   1      -6.838  16.148 -12.263 +0.00 +0.01    +0.473    15.983
ATOM      9  O   UNL d   1      -6.482  17.236 -13.214 -0.00 -0.01    -0.228    15.983
ATOM     10  O   UNL d   1      -8.230  15.447 -12.603 -0.00 -0.00    -0.303    15.983
ATOM     11  H   UNL d   1      -8.133  14.897 -13.403 +0.00 +0.00    +0.222    15.983
ATOM     12  O   UNL d   1      -7.048  16.589 -10.752 +0.00 -0.00    -0.303    15.983
ATOM     13  H   UNL d   1      -6.275  16.384 -10.179 +0.01 +0.00    +0.222    15.983
ATOM     14  O   UNL d   1      -4.750  12.832 -10.830 -0.13 +0.02    -0.278    15.983
ATOM     15  P   UNL d   1      -4.549  13.332  -9.322 -0.12 -0.02    +0.473    15.983
ATOM     16  O   UNL d   1      -3.140  13.429  -8.828 -0.28 +0.01    -0.228    15.983
ATOM     17  O   UNL d   1      -5.318  14.726  -9.271 -0.02 +0.00    -0.303    15.983
ATOM     18  H   UNL d   1      -5.734  14.930 -10.130 +0.03 -0.00    +0.222    15.983
ATOM     19  O   UNL d   1      -5.514  12.403  -8.464 -0.09 +0.01    -0.303    15.983
ATOM     20  H   UNL d   1      -5.555  11.498  -8.822 +0.09 -0.01    +0.222    15.983
ATOM     21  O   UNL d   1      -5.830  13.873 -14.856 -0.04 -0.01    -0.278    15.983
ATOM     22  P   UNL d   1      -7.354  13.841 -15.324 +0.00 +0.02    +0.473    15.983
ATOM     23  O   UNL d   1      -8.326  13.057 -14.507 -0.01 -0.00    -0.228    15.983
ATOM     24  O   UNL d   1      -7.688  15.392 -15.451 -0.00 -0.02    -0.303    15.983
ATOM     25  H   UNL d   1      -7.460  15.828 -14.591 +0.01 +0.01    +0.222    15.983
ATOM     26  O   UNL d   1      -7.214  13.405 -16.860 -0.02 -0.02    -0.303    15.983
ATOM     27  H   UNL d   1      -6.585  12.658 -16.927 +0.06 +0.01    +0.222    15.983
ATOM     28  O   UNL d   1      -5.964  10.494 -10.505 -0.11 +0.02    -0.278    15.983
ATOM     29  P   UNL d   1      -7.011   9.674  -9.629 -0.10 -0.03    +0.473    15.983
ATOM     30  O   UNL d   1      -6.535   9.258  -8.285 -0.20 +0.01    -0.228    15.983
ATOM     31  O   UNL d   1      -8.260  10.674  -9.680 -0.02 +0.01    -0.303    15.983
ATOM     32  H   UNL d   1      -8.818  10.440 -10.457 +0.03 -0.01    +0.222    15.983
ATOM     33  O   UNL d   1      -7.448   8.515 -10.629 -0.13 +0.08    -0.303    15.983
ATOM     34  H   UNL d   1      -7.369   8.844 -11.557 -0.08 -0.07    +0.222    15.983
ATOM     35  O   UNL d   1      -4.599  11.224 -14.873 -0.27 +0.08    -0.278    15.983
ATOM     36  P   UNL d   1      -4.807  11.119 -16.451 -0.29 -0.05    +0.473    15.983
ATOM     37  O   UNL d   1      -6.172  10.698 -16.894 -0.21 +0.00    -0.228    15.983
ATOM     38  O   UNL d   1      -4.383  12.576 -16.934 -0.23 -0.02    -0.303    15.983
ATOM     39  H   UNL d   1      -5.068  13.220 -16.652 +0.07 +0.02    +0.222    15.983
ATOM     40  O   UNL d   1      -3.589  10.199 -16.895 -0.45 +0.08    -0.303    15.983
ATOM     41  H   UNL d   1      -2.797  10.346 -16.331 -0.45 -0.11    +0.222    15.983
ATOM     42  O   UNL d   1      -6.243   9.503 -13.193 -0.21 +0.07    -0.278    15.983
ATOM     43  P   UNL d   1      -7.737   9.525 -13.751 -0.14 -0.07    +0.473    15.983
ATOM     44  O   UNL d   1      -7.939   9.977 -15.156 -0.15 +0.01    -0.228    15.983
ATOM     45  O   UNL d   1      -8.238   8.042 -13.467 -0.14 +0.09    -0.303    15.983
ATOM     46  H   UNL d   1      -8.323   7.870 -12.508 -0.49 -0.13    +0.222    15.983
ATOM     47  O   UNL d   1      -8.533  10.357 -12.635 -0.04 +0.02    -0.303    15.983
ATOM     48  H   UNL d   1      -8.245  10.061 -11.747 +0.05 -0.02    +0.222    15.983
TER
ENDMDL
MODEL       40
USER    Run = 40
USER    Cluster Rank = 28
USER    Number of conformations in this cluster = 1
USER  
USER    RMSD from reference structure       = 17.458 A
USER  
USER    Estimated Free Energy of Binding    =   +2.38 kcal/mol  [=(1)+(2)+(3)-(4)]
USER    
USER    (1) Final Intermolecular Energy     =   -4.78 kcal/mol
USER        vdW + Hbond + desolv Energy     =   -4.64 kcal/mol
USER        Electrostatic Energy            =   -0.14 kcal/mol
USER    (2) Final Total Internal Energy     =  -14.92 kcal/mol
USER    (3) Torsional Free Energy           =   +7.16 kcal/mol
USER    (4) Unbound System's Energy  [=(2)] =  -14.92 kcal/mol
USER    
USER    
USER  
USER    DPF = D:/Protein_go_brrr/autodock/final/mut_N102T/IHP/dock.dpf
USER    NEWDPF move	IHP_ideal_opt.pdbqt
USER    NEWDPF about	0.035000 0.082000 -0.065000
USER    NEWDPF tran0	3.296251 -5.257760 17.719413
USER    NEWDPF axisangle0	0.987138 -0.018297 -0.158823 57.701210
USER    NEWDPF quaternion0	0.476321 -0.008829 -0.076636 0.875881
USER    NEWDPF dihe0	137.60 54.38 136.88 21.31 63.21 16.90 20.80 179.93 44.12 -59.53 121.27 85.35 159.63 -175.49 124.37 121.03 179.92 -134.27 44.72 1.95 158.56 -17.13 -26.30 154.64 
USER  
USER                              x       y       z    vdW   Elec        q     RMS 
ATOM      1  C   UNL d   1       4.616  -4.914  18.780 -0.07 -0.03    +0.194    17.458
ATOM      2  C   UNL d   1       3.518  -5.809  19.359 -0.09 -0.04    +0.194    17.458
ATOM      3  C   UNL d   1       2.122  -5.295  19.004 -0.13 -0.05    +0.194    17.458
ATOM      4  C   UNL d   1       1.935  -5.045  17.509 -0.25 -0.06    +0.194    17.458
ATOM      5  C   UNL d   1       3.066  -4.253  16.866 -0.24 -0.04    +0.194    17.458
ATOM      6  C   UNL d   1       4.463  -4.728  17.270 -0.16 -0.02    +0.194    17.458
ATOM      7  O   UNL d   1       5.876  -5.550  19.006 -0.03 +0.02    -0.278    17.458
ATOM      8  P   UNL d   1       6.517  -5.468  20.467 -0.00 -0.02    +0.473    17.458
ATOM      9  O   UNL d   1       8.004  -5.460  20.504 -0.00 +0.00    -0.228    17.458
ATOM     10  O   UNL d   1       5.866  -4.157  21.102 +0.00 +0.03    -0.303    17.458
ATOM     11  H   UNL d   1       5.527  -3.582  20.390 +0.02 -0.03    +0.222    17.458
ATOM     12  O   UNL d   1       5.808  -6.625  21.294 -0.00 +0.02    -0.303    17.458
ATOM     13  H   UNL d   1       5.262  -7.220  20.734 +0.03 -0.02    +0.222    17.458
ATOM     14  O   UNL d   1       3.667  -7.132  18.828 -0.11 +0.09    -0.278    17.458
ATOM     15  P   UNL d   1       3.579  -8.338  19.878 -0.08 -0.10    +0.473    17.458
ATOM     16  O   UNL d   1       4.782  -9.221  19.989 -0.10 +0.02    -0.228    17.458
ATOM     17  O   UNL d   1       3.205  -7.628  21.254 -0.02 +0.04    -0.303    17.458
ATOM     18  H   UNL d   1       2.538  -6.927  21.118 +0.04 -0.03    +0.222    17.458
ATOM     19  O   UNL d   1       2.216  -9.077  19.519 -0.21 +0.08    -0.303    17.458
ATOM     20  H   UNL d   1       1.516  -8.444  19.276 +0.03 -0.07    +0.222    17.458
ATOM     21  O   UNL d   1       5.375  -3.705  16.880 -0.08 +0.02    -0.278    17.458
ATOM     22  P   UNL d   1       5.170  -2.215  17.414 -0.05 -0.05    +0.473    17.458
ATOM     23  O   UNL d   1       6.365  -1.326  17.498 -0.13 -0.00    -0.228    17.458
ATOM     24  O   UNL d   1       4.009  -1.686  16.464 -0.15 +0.08    -0.303    17.458
ATOM     25  H   UNL d   1       3.797  -2.399  15.809 +0.04 -0.06    +0.222    17.458
ATOM     26  O   UNL d   1       4.384  -2.468  18.788 -0.03 +0.06    -0.303    17.458
ATOM     27  H   UNL d   1       3.889  -1.659  19.029 +0.08 -0.07    +0.222    17.458
ATOM     28  O   UNL d   1       1.192  -6.318  19.335 -0.13 +0.06    -0.278    17.458
ATOM     29  P   UNL d   1       0.474  -6.324  20.757 -0.03 -0.08    +0.473    17.458
ATOM     30  O   UNL d   1      -0.865  -5.684  20.801 -0.04 +0.04    -0.228    17.458
ATOM     31  O   UNL d   1       0.545  -7.886  21.098 -0.07 +0.04    -0.303    17.458
ATOM     32  H   UNL d   1       1.476  -8.118  21.318 +0.04 -0.03    +0.222    17.458
ATOM     33  O   UNL d   1       1.599  -5.707  21.700 -0.00 +0.05    -0.303    17.458
ATOM     34  H   UNL d   1       1.816  -6.360  22.410 +0.02 -0.03    +0.222    17.458
ATOM     35  O   UNL d   1       2.939  -4.468  15.462 -0.24 +0.04    -0.278    17.458
ATOM     36  P   UNL d   1       2.340  -3.325  14.524 -0.28 -0.09    +0.473    17.458
ATOM     37  O   UNL d   1       1.343  -3.783  13.506 -0.43 +0.04    -0.228    17.458
ATOM     38  O   UNL d   1       1.758  -2.297  15.593 -0.20 +0.07    -0.303    17.458
ATOM     39  H   UNL d   1       1.541  -2.782  16.418 +0.13 -0.06    +0.222    17.458
ATOM     40  O   UNL d   1       3.651  -2.610  13.979 -0.25 +0.06    -0.303    17.458
ATOM     41  H   UNL d   1       3.834  -1.771  14.458 -0.43 -0.11    +0.222    17.458
ATOM     42  O   UNL d   1       0.741  -4.268  17.364 -0.20 +0.09    -0.278    17.458
ATOM     43  P   UNL d   1       0.489  -3.049  18.361 -0.11 -0.17    +0.473    17.458
ATOM     44  O   UNL d   1      -0.219  -3.341  19.639 -0.06 +0.08    -0.228    17.458
ATOM     45  O   UNL d   1       1.949  -2.444  18.549 -0.10 +0.12    -0.303    17.458
ATOM     46  H   UNL d   1       2.399  -2.320  17.689 +0.11 -0.07    +0.222    17.458
ATOM     47  O   UNL d   1      -0.201  -1.947  17.424 -0.25 +0.14    -0.303    17.458
ATOM     48  H   UNL d   1       0.483  -1.326  17.098 -0.41 -0.12    +0.222    17.458
TER
ENDMDL
MODEL       43
USER    Run = 43
USER    Cluster Rank = 29
USER    Number of conformations in this cluster = 1
USER  
USER    RMSD from reference structure       = 15.791 A
USER  
USER    Estimated Free Energy of Binding    =   +2.39 kcal/mol  [=(1)+(2)+(3)-(4)]
USER    
USER    (1) Final Intermolecular Energy     =   -4.76 kcal/mol
USER        vdW + Hbond + desolv Energy     =   -4.73 kcal/mol
USER        Electrostatic Energy            =   -0.03 kcal/mol
USER    (2) Final Total Internal Energy     =  -15.08 kcal/mol
USER    (3) Torsional Free Energy           =   +7.16 kcal/mol
USER    (4) Unbound System's Energy  [=(2)] =  -15.08 kcal/mol
USER    
USER    
USER  
USER    DPF = D:/Protein_go_brrr/autodock/final/mut_N102T/IHP/dock.dpf
USER    NEWDPF move	IHP_ideal_opt.pdbqt
USER    NEWDPF about	0.035000 0.082000 -0.065000
USER    NEWDPF tran0	-7.139655 -17.409288 -6.286548
USER    NEWDPF axisangle0	0.681836 -0.513857 0.520625 117.050070
USER    NEWDPF quaternion0	0.581517 -0.438252 0.444024 0.522126
USER    NEWDPF dihe0	112.43 -154.58 156.05 -3.75 36.42 -129.16 -94.45 -111.56 122.23 -22.97 145.81 136.52 -161.11 175.60 -31.75 45.22 173.37 -164.48 -6.00 8.54 160.78 -2.42 2.34 15.58 
USER  
USER                              x       y       z    vdW   Elec        q     RMS 
ATOM      1  C   UNL d   1      -6.051 -18.394  -5.376 -0.09 +0.22    +0.194    15.791
ATOM      2  C   UNL d   1      -6.650 -17.203  -4.626 -0.08 +0.25    +0.194    15.791
ATOM      3  C   UNL d   1      -6.662 -15.938  -5.488 -0.08 +0.28    +0.194    15.791
ATOM      4  C   UNL d   1      -7.313 -16.147  -6.853 -0.07 +0.23    +0.194    15.791
ATOM      5  C   UNL d   1      -6.827 -17.390  -7.588 -0.10 +0.20    +0.194    15.791
ATOM      6  C   UNL d   1      -6.757 -18.641  -6.710 -0.04 +0.14    +0.194    15.791
ATOM      7  O   UNL d   1      -6.233 -19.563  -4.574 -0.07 -0.27    -0.278    15.791
ATOM      8  P   UNL d   1      -4.963 -20.485  -4.276 -0.03 +0.46    +0.473    15.791
ATOM      9  O   UNL d   1      -4.966 -21.805  -4.963 -0.01 -0.10    -0.228    15.791
ATOM     10  O   UNL d   1      -3.719 -19.571  -4.679 -0.28 -0.36    -0.303    15.791
ATOM     11  H   UNL d   1      -3.893 -19.141  -5.537 +0.05 +0.23    +0.222    15.791
ATOM     12  O   UNL d   1      -4.845 -20.527  -2.692 -0.44 -0.48    -0.303    15.791
ATOM     13  H   UNL d   1      -4.313 -21.287  -2.365 +0.02 +0.21    +0.222    15.791
ATOM     14  O   UNL d   1      -7.998 -17.515  -4.254 -0.02 -0.21    -0.278    15.791
ATOM     15  P   UNL d   1      -8.470 -17.033  -2.802 -0.01 +0.33    +0.473    15.791
ATOM     16  O   UNL d   1      -9.108 -18.065  -1.926 -0.02 -0.11    -0.228    15.791
ATOM     17  O   UNL d   1      -7.158 -16.401  -2.158 -0.60 -0.44    -0.303    15.791
ATOM     18  H   UNL d   1      -6.831 -15.650  -2.690 +0.05 +0.27    +0.222    15.791
ATOM     19  O   UNL d   1      -9.346 -15.734  -3.081 +0.00 -0.12    -0.303    15.791
ATOM     20  H   UNL d   1      -8.815 -15.020  -3.479 +0.03 +0.10    +0.222    15.791
ATOM     21  O   UNL d   1      -5.980 -19.602  -7.422 -0.02 -0.16    -0.278    15.791
ATOM     22  P   UNL d   1      -4.485 -19.249  -7.852 -0.09 +0.34    +0.473    15.791
ATOM     23  O   UNL d   1      -3.956 -17.895  -7.519 -0.40 -0.36    -0.228    15.791
ATOM     24  O   UNL d   1      -3.670 -20.459  -7.214 -0.03 -0.14    -0.303    15.791
ATOM     25  H   UNL d   1      -4.152 -20.763  -6.404 +0.03 +0.11    +0.222    15.791
ATOM     26  O   UNL d   1      -4.492 -19.638  -9.407 -0.11 -0.13    -0.303    15.791
ATOM     27  H   UNL d   1      -5.200 -19.137  -9.860 +0.04 +0.10    +0.222    15.791
ATOM     28  O   UNL d   1      -7.473 -14.977  -4.826 -0.04 -0.25    -0.278    15.791
ATOM     29  P   UNL d   1      -6.811 -13.707  -4.130 -0.09 +0.40    +0.473    15.791
ATOM     30  O   UNL d   1      -5.437 -13.370  -4.586 -0.39 -0.29    -0.228    15.791
ATOM     31  O   UNL d   1      -7.952 -12.616  -4.394 -0.13 -0.16    -0.303    15.791
ATOM     32  H   UNL d   1      -8.274 -12.718  -5.319 +0.05 +0.11    +0.222    15.791
ATOM     33  O   UNL d   1      -6.994 -14.040  -2.584 -0.13 -0.21    -0.303    15.791
ATOM     34  H   UNL d   1      -7.944 -14.252  -2.411 +0.06 +0.11    +0.222    15.791
ATOM     35  O   UNL d   1      -7.798 -17.643  -8.602 -0.06 -0.16    -0.278    15.791
ATOM     36  P   UNL d   1      -7.337 -17.953 -10.097 -0.08 +0.22    +0.473    15.791
ATOM     37  O   UNL d   1      -8.198 -17.370 -11.172 -0.50 -0.09    -0.228    15.791
ATOM     38  O   UNL d   1      -5.838 -17.414 -10.095 -0.47 -0.23    -0.303    15.791
ATOM     39  H   UNL d   1      -5.355 -17.812  -9.339 +0.05 +0.20    +0.222    15.791
ATOM     40  O   UNL d   1      -7.174 -19.535 -10.082 -0.03 -0.09    -0.303    15.791
ATOM     41  H   UNL d   1      -6.454 -19.821  -9.476 +0.03 +0.07    +0.222    15.791
ATOM     42  O   UNL d   1      -6.959 -15.017  -7.658 -0.41 -0.49    -0.278    15.791
ATOM     43  P   UNL d   1      -7.976 -13.792  -7.754 -0.07 +0.31    +0.473    15.791
ATOM     44  O   UNL d   1      -8.519 -13.454  -9.100 -0.12 -0.08    -0.228    15.791
ATOM     45  O   UNL d   1      -9.086 -14.174  -6.681 -0.01 -0.14    -0.303    15.791
ATOM     46  H   UNL d   1      -8.753 -14.066  -5.767 +0.04 +0.11    +0.222    15.791
ATOM     47  O   UNL d   1      -7.194 -12.608  -7.008 -0.13 -0.21    -0.303    15.791
ATOM     48  H   UNL d   1      -6.798 -12.954  -6.181 +0.08 +0.22    +0.222    15.791
TER
ENDMDL
MODEL       13
USER    Run = 13
USER    Cluster Rank = 30
USER    Number of conformations in this cluster = 1
USER  
USER    RMSD from reference structure       = 18.029 A
USER  
USER    Estimated Free Energy of Binding    =   +2.42 kcal/mol  [=(1)+(2)+(3)-(4)]
USER    
USER    (1) Final Intermolecular Energy     =   -4.74 kcal/mol
USER        vdW + Hbond + desolv Energy     =   -4.68 kcal/mol
USER        Electrostatic Energy            =   -0.06 kcal/mol
USER    (2) Final Total Internal Energy     =  -13.32 kcal/mol
USER    (3) Torsional Free Energy           =   +7.16 kcal/mol
USER    (4) Unbound System's Energy  [=(2)] =  -13.32 kcal/mol
USER    
USER    
USER  
USER    DPF = D:/Protein_go_brrr/autodock/final/mut_N102T/IHP/dock.dpf
USER    NEWDPF move	IHP_ideal_opt.pdbqt
USER    NEWDPF about	0.035000 0.082000 -0.065000
USER    NEWDPF tran0	-6.165316 11.417176 15.309382
USER    NEWDPF axisangle0	0.586050 -0.030871 0.809687 64.708416
USER    NEWDPF quaternion0	0.313626 -0.016521 0.433305 0.844756
USER    NEWDPF dihe0	-180.00 115.06 179.80 -17.67 38.89 159.16 -115.44 3.73 -20.69 -5.09 166.52 148.65 100.88 83.37 -73.83 18.36 169.07 -179.87 26.20 -40.85 153.92 177.50 -29.52 -4.30 
USER  
USER                              x       y       z    vdW   Elec        q     RMS 
ATOM      1  C   UNL d   1      -5.787  10.515  16.733 -0.10 -0.02    +0.194    18.029
ATOM      2  C   UNL d   1      -7.257  10.907  16.570 -0.06 -0.01    +0.194    18.029
ATOM      3  C   UNL d   1      -7.408  12.353  16.092 -0.04 -0.02    +0.194    18.029
ATOM      4  C   UNL d   1      -6.586  12.662  14.843 -0.09 -0.02    +0.194    18.029
ATOM      5  C   UNL d   1      -5.141  12.184  14.917 -0.19 -0.03    +0.194    18.029
ATOM      6  C   UNL d   1      -4.986  10.760  15.454 -0.20 -0.03    +0.194    18.029
ATOM      7  O   UNL d   1      -5.728   9.114  17.012 -0.09 +0.04    -0.278    18.029
ATOM      8  P   UNL d   1      -5.622   8.647  18.536 -0.00 -0.06    +0.473    18.029
ATOM      9  O   UNL d   1      -6.187   7.300  18.824 -0.03 +0.02    -0.228    18.029
ATOM     10  O   UNL d   1      -4.065   8.758  18.867 -0.02 +0.05    -0.303    18.029
ATOM     11  H   UNL d   1      -3.642   9.380  18.245 +0.06 -0.05    +0.222    18.029
ATOM     12  O   UNL d   1      -6.228   9.849  19.379 -0.00 +0.03    -0.303    18.029
ATOM     13  H   UNL d   1      -7.200   9.947  19.267 +0.01 -0.02    +0.222    18.029
ATOM     14  O   UNL d   1      -7.867  10.041  15.605 -0.10 +0.01    -0.278    18.029
ATOM     15  P   UNL d   1      -8.547   8.706  16.171 -0.08 -0.01    +0.473    18.029
ATOM     16  O   UNL d   1      -9.860   8.314  15.569 -0.07 -0.00    -0.228    18.029
ATOM     17  O   UNL d   1      -7.425   7.591  15.985 -0.19 +0.00    -0.303    18.029
ATOM     18  H   UNL d   1      -6.797   7.595  16.732 +0.08 -0.01    +0.222    18.029
ATOM     19  O   UNL d   1      -8.547   8.899  17.750 -0.01 +0.01    -0.303    18.029
ATOM     20  H   UNL d   1      -7.665   8.734  18.133 +0.03 -0.01    +0.222    18.029
ATOM     21  O   UNL d   1      -3.610  10.590  15.783 -0.16 +0.12    -0.278    18.029
ATOM     22  P   UNL d   1      -2.881  11.661  16.716 -0.18 -0.15    +0.473    18.029
ATOM     23  O   UNL d   1      -3.135  13.108  16.458 -0.18 +0.07    -0.228    18.029
ATOM     24  O   UNL d   1      -3.293  11.159  18.169 -0.07 +0.06    -0.303    18.029
ATOM     25  H   UNL d   1      -4.159  10.683  18.097 +0.05 -0.04    +0.222    18.029
ATOM     26  O   UNL d   1      -1.353  11.187  16.622 -0.27 +0.16    -0.303    18.029
ATOM     27  H   UNL d   1      -1.318  10.283  16.248 -0.46 -0.21    +0.222    18.029
ATOM     28  O   UNL d   1      -8.764  12.537  15.706 -0.02 +0.02    -0.278    18.029
ATOM     29  P   UNL d   1      -9.320  11.863  14.374 -0.05 -0.02    +0.473    18.029
ATOM     30  O   UNL d   1      -8.302  11.208  13.514 +0.06 -0.00    -0.228    18.029
ATOM     31  O   UNL d   1     -10.461  10.926  14.992 -0.02 +0.01    -0.303    18.029
ATOM     32  H   UNL d   1     -10.035  10.255  15.573 +0.03 -0.01    +0.222    18.029
ATOM     33  O   UNL d   1     -10.156  13.051  13.723 -0.02 +0.02    -0.303    18.029
ATOM     34  H   UNL d   1      -9.542  13.796  13.508 +0.02 -0.01    +0.222    18.029
ATOM     35  O   UNL d   1      -4.666  12.180  13.572 -0.27 +0.04    -0.278    18.029
ATOM     36  P   UNL d   1      -3.746  13.370  13.040 -0.29 -0.11    +0.473    18.029
ATOM     37  O   UNL d   1      -3.926  13.728  11.599 -0.34 +0.04    -0.228    18.029
ATOM     38  O   UNL d   1      -4.109  14.541  14.056 -0.10 +0.11    -0.303    18.029
ATOM     39  H   UNL d   1      -4.857  15.061  13.693 +0.06 -0.05    +0.222    18.029
ATOM     40  O   UNL d   1      -2.294  12.906  13.493 -0.82 +0.13    -0.303    18.029
ATOM     41  H   UNL d   1      -2.284  12.601  14.427 -0.40 -0.12    +0.222    18.029
ATOM     42  O   UNL d   1      -6.552  14.087  14.711 -0.04 +0.04    -0.278    18.029
ATOM     43  P   UNL d   1      -7.249  14.761  13.444 -0.01 -0.05    +0.473    18.029
ATOM     44  O   UNL d   1      -6.488  15.819  12.723 -0.05 +0.02    -0.228    18.029
ATOM     45  O   UNL d   1      -7.628  13.504  12.545 -0.07 +0.03    -0.303    18.029
ATOM     46  H   UNL d   1      -8.542  13.201  12.720 +0.04 -0.01    +0.222    18.029
ATOM     47  O   UNL d   1      -8.683  15.203  14.008 -0.01 +0.02    -0.303    18.029
ATOM     48  H   UNL d   1      -8.972  14.564  14.692 +0.01 -0.02    +0.222    18.029
TER
ENDMDL
MODEL       87
USER    Run = 87
USER    Cluster Rank = 31
USER    Number of conformations in this cluster = 1
USER  
USER    RMSD from reference structure       = 21.107 A
USER  
USER    Estimated Free Energy of Binding    =   +2.42 kcal/mol  [=(1)+(2)+(3)-(4)]
USER    
USER    (1) Final Intermolecular Energy     =   -4.74 kcal/mol
USER        vdW + Hbond + desolv Energy     =   -4.59 kcal/mol
USER        Electrostatic Energy            =   -0.15 kcal/mol
USER    (2) Final Total Internal Energy     =  -13.51 kcal/mol
USER    (3) Torsional Free Energy           =   +7.16 kcal/mol
USER    (4) Unbound System's Energy  [=(2)] =  -13.51 kcal/mol
USER    
USER    
USER  
USER    DPF = D:/Protein_go_brrr/autodock/final/mut_N102T/IHP/dock.dpf
USER    NEWDPF move	IHP_ideal_opt.pdbqt
USER    NEWDPF about	0.035000 0.082000 -0.065000
USER    NEWDPF tran0	-7.347404 9.749916 -19.275331
USER    NEWDPF axisangle0	0.301458 0.847932 0.436044 170.948167
USER    NEWDPF quaternion0	0.300518 0.845288 0.434685 0.078910
USER    NEWDPF dihe0	136.42 91.96 155.33 5.40 141.55 98.39 -134.45 -0.35 -141.11 136.49 67.13 -154.35 -82.18 -176.03 112.45 2.72 4.44 -47.87 47.43 5.78 -50.19 -11.32 -43.43 169.11 
USER  
USER                              x       y       z    vdW   Elec        q     RMS 
ATOM      1  C   UNL d   1      -8.769  10.527 -19.873 -0.07 +0.02    +0.194    21.107
ATOM      2  C   UNL d   1      -8.273   9.335 -20.694 -0.10 +0.02    +0.194    21.107
ATOM      3  C   UNL d   1      -6.753   9.358 -20.864 -0.15 +0.02    +0.194    21.107
ATOM      4  C   UNL d   1      -6.002   9.502 -19.542 -0.17 +0.03    +0.194    21.107
ATOM      5  C   UNL d   1      -6.538  10.607 -18.641 -0.18 +0.02    +0.194    21.107
ATOM      6  C   UNL d   1      -8.064  10.622 -18.520 -0.10 +0.02    +0.194    21.107
ATOM      7  O   UNL d   1     -10.163  10.342 -19.615 -0.04 -0.02    -0.278    21.107
ATOM      8  P   UNL d   1     -11.196  10.595 -20.807 -0.01 +0.02    +0.473    21.107
ATOM      9  O   UNL d   1     -10.777  11.623 -21.798 -0.00 -0.01    -0.228    21.107
ATOM     10  O   UNL d   1     -11.406   9.151 -21.451 -0.01 -0.01    -0.303    21.107
ATOM     11  H   UNL d   1     -10.651   8.578 -21.221 +0.03 +0.01    +0.222    21.107
ATOM     12  O   UNL d   1     -12.594  10.847 -20.094 -0.00 -0.01    -0.303    21.107
ATOM     13  H   UNL d   1     -12.535  11.479 -19.343 +0.01 +0.01    +0.222    21.107
ATOM     14  O   UNL d   1      -8.639   8.123 -20.024 -0.06 -0.05    -0.278    21.107
ATOM     15  P   UNL d   1      -9.208   6.941 -20.943 -0.12 +0.06    +0.473    21.107
ATOM     16  O   UNL d   1     -10.589   6.455 -20.635 -0.11 -0.02    -0.228    21.107
ATOM     17  O   UNL d   1      -9.067   7.502 -22.427 -0.04 -0.02    -0.303    21.107
ATOM     18  H   UNL d   1      -8.136   7.709 -22.638 +0.04 +0.02    +0.222    21.107
ATOM     19  O   UNL d   1      -8.068   5.831 -20.912 -0.22 -0.06    -0.303    21.107
ATOM     20  H   UNL d   1      -7.203   6.195 -21.179 +0.06 +0.04    +0.222    21.107
ATOM     21  O   UNL d   1      -8.420  11.879 -17.949 -0.03 -0.02    -0.278    21.107
ATOM     22  P   UNL d   1      -9.761  12.009 -17.095 -0.02 +0.02    +0.473    21.107
ATOM     23  O   UNL d   1      -9.748  12.892 -15.893 -0.01 -0.01    -0.228    21.107
ATOM     24  O   UNL d   1     -10.819  12.417 -18.211 -0.01 -0.01    -0.303    21.107
ATOM     25  H   UNL d   1     -11.035  11.608 -18.742 +0.01 +0.01    +0.222    21.107
ATOM     26  O   UNL d   1     -10.131  10.471 -16.834 -0.06 -0.01    -0.303    21.107
ATOM     27  H   UNL d   1     -10.502  10.086 -17.653 +0.03 +0.01    +0.222    21.107
ATOM     28  O   UNL d   1      -6.361   8.094 -21.385 -0.15 -0.04    -0.278    21.107
ATOM     29  P   UNL d   1      -6.075   7.920 -22.942 -0.05 +0.04    +0.473    21.107
ATOM     30  O   UNL d   1      -6.732   8.914 -23.829 -0.02 -0.01    -0.228    21.107
ATOM     31  O   UNL d   1      -4.475   7.901 -22.931 -0.07 -0.03    -0.303    21.107
ATOM     32  H   UNL d   1      -4.150   8.830 -22.915 +0.04 +0.02    +0.222    21.107
ATOM     33  O   UNL d   1      -6.443   6.389 -23.179 -0.06 -0.03    -0.303    21.107
ATOM     34  H   UNL d   1      -7.386   6.241 -22.919 +0.05 +0.02    +0.222    21.107
ATOM     35  O   UNL d   1      -6.017  10.334 -17.342 -0.23 -0.01    -0.278    21.107
ATOM     36  P   UNL d   1      -4.585  10.892 -16.916 -0.33 -0.05    +0.473    21.107
ATOM     37  O   UNL d   1      -4.351  12.344 -17.190 -0.26 -0.01    -0.228    21.107
ATOM     38  O   UNL d   1      -4.527  10.499 -15.374 -0.28 +0.11    -0.303    21.107
ATOM     39  H   UNL d   1      -3.595  10.323 -15.122 -0.36 -0.15    +0.222    21.107
ATOM     40  O   UNL d   1      -3.596   9.858 -17.611 -0.28 +0.07    -0.303    21.107
ATOM     41  H   UNL d   1      -3.290  10.180 -18.488 -0.37 -0.10    +0.222    21.107
ATOM     42  O   UNL d   1      -4.650   9.844 -19.868 -0.13 -0.02    -0.278    21.107
ATOM     43  P   UNL d   1      -4.373  11.158 -20.729 -0.12 +0.03    +0.473    21.107
ATOM     44  O   UNL d   1      -5.555  11.938 -21.191 -0.05 -0.03    -0.228    21.107
ATOM     45  O   UNL d   1      -3.374  11.979 -19.802 -0.14 -0.03    -0.303    21.107
ATOM     46  H   UNL d   1      -3.256  11.546 -18.932 -0.41 -0.02    +0.222    21.107
ATOM     47  O   UNL d   1      -3.393  10.639 -21.886 -0.10 -0.02    -0.303    21.107
ATOM     48  H   UNL d   1      -3.529   9.677 -22.017 +0.06 +0.01    +0.222    21.107
TER
ENDMDL
MODEL      100
USER    Run = 100
USER    Cluster Rank = 32
USER    Number of conformations in this cluster = 1
USER  
USER    RMSD from reference structure       = 10.141 A
USER  
USER    Estimated Free Energy of Binding    =   +2.46 kcal/mol  [=(1)+(2)+(3)-(4)]
USER    
USER    (1) Final Intermolecular Energy     =   -4.70 kcal/mol
USER        vdW + Hbond + desolv Energy     =   -4.58 kcal/mol
USER        Electrostatic Energy            =   -0.12 kcal/mol
USER    (2) Final Total Internal Energy     =  -14.50 kcal/mol
USER    (3) Torsional Free Energy           =   +7.16 kcal/mol
USER    (4) Unbound System's Energy  [=(2)] =  -14.50 kcal/mol
USER    
USER    
USER  
USER    DPF = D:/Protein_go_brrr/autodock/final/mut_N102T/IHP/dock.dpf
USER    NEWDPF move	IHP_ideal_opt.pdbqt
USER    NEWDPF about	0.035000 0.082000 -0.065000
USER    NEWDPF tran0	-11.013526 -6.295422 3.478329
USER    NEWDPF axisangle0	0.635346 -0.751513 0.177662 -104.965397
USER    NEWDPF quaternion0	0.503937 -0.596077 0.140916 -0.609001
USER    NEWDPF dihe0	101.09 11.53 108.66 91.91 15.99 -159.49 0.08 -170.86 140.30 20.39 15.77 -173.08 -167.54 114.00 -32.44 109.05 121.72 -4.51 4.32 -16.80 168.35 -14.33 -19.97 178.67 
USER  
USER                              x       y       z    vdW   Elec        q     RMS 
ATOM      1  C   UNL d   1     -10.477  -7.853   3.997 -0.13 -0.06    +0.194    10.141
ATOM      2  C   UNL d   1      -9.952  -7.393   2.636 -0.15 -0.05    +0.194    10.141
ATOM      3  C   UNL d   1     -11.052  -6.741   1.796 -0.11 -0.05    +0.194    10.141
ATOM      4  C   UNL d   1     -11.794  -5.629   2.534 -0.10 -0.11    +0.194    10.141
ATOM      5  C   UNL d   1     -12.235  -6.007   3.942 -0.10 -0.12    +0.194    10.141
ATOM      6  C   UNL d   1     -11.154  -6.715   4.762 -0.17 -0.11    +0.194    10.141
ATOM      7  O   UNL d   1      -9.363  -8.289   4.781 -0.20 +0.07    -0.278    10.141
ATOM      8  P   UNL d   1      -9.320  -9.813   5.258 -0.06 -0.05    +0.473    10.141
ATOM      9  O   UNL d   1      -9.386 -10.015   6.731 -0.25 +0.04    -0.228    10.141
ATOM     10  O   UNL d   1     -10.531 -10.497   4.476 -0.27 +0.01    -0.303    10.141
ATOM     11  H   UNL d   1     -11.360 -10.027   4.681 +0.05 -0.03    +0.222    10.141
ATOM     12  O   UNL d   1      -8.056 -10.439   4.527 -0.53 -0.01    -0.303    10.141
ATOM     13  H   UNL d   1      -7.898 -10.056   3.634 +0.15 -0.01    +0.222    10.141
ATOM     14  O   UNL d   1      -8.904  -6.436   2.839 -0.28 +0.11    -0.278    10.141
ATOM     15  P   UNL d   1      -7.439  -6.867   2.358 -0.33 -0.11    +0.473    10.141
ATOM     16  O   UNL d   1      -6.395  -5.795   2.342 -0.61 +0.04    -0.228    10.141
ATOM     17  O   UNL d   1      -7.059  -8.083   3.315 -0.30 +0.05    -0.303    10.141
ATOM     18  H   UNL d   1      -7.842  -8.406   3.801 +0.16 -0.03    +0.222    10.141
ATOM     19  O   UNL d   1      -7.678  -7.612   0.974 -0.27 +0.08    -0.303    10.141
ATOM     20  H   UNL d   1      -8.440  -7.241   0.492 +0.06 -0.05    +0.222    10.141
ATOM     21  O   UNL d   1     -11.806  -7.298   5.888 -0.06 +0.11    -0.278    10.141
ATOM     22  P   UNL d   1     -12.856  -8.480   5.672 +0.01 -0.11    +0.473    10.141
ATOM     23  O   UNL d   1     -13.160  -8.905   4.275 -0.01 +0.04    -0.228    10.141
ATOM     24  O   UNL d   1     -12.254  -9.623   6.601 -0.04 +0.06    -0.303    10.141
ATOM     25  H   UNL d   1     -11.293  -9.724   6.383 +0.06 -0.05    +0.222    10.141
ATOM     26  O   UNL d   1     -14.104  -7.970   6.539 +0.00 +0.06    -0.303    10.141
ATOM     27  H   UNL d   1     -14.082  -6.992   6.590 +0.02 -0.06    +0.222    10.141
ATOM     28  O   UNL d   1     -10.425  -6.105   0.689 -0.07 +0.01    -0.278    10.141
ATOM     29  P   UNL d   1     -10.329  -6.848  -0.717 -0.07 -0.01    +0.473    10.141
ATOM     30  O   UNL d   1     -11.535  -6.747  -1.578 -0.05 -0.01    -0.228    10.141
ATOM     31  O   UNL d   1      -8.977  -6.204  -1.281 -0.20 -0.01    -0.303    10.141
ATOM     32  H   UNL d   1      -8.274  -6.301  -0.598 +0.11 -0.01    +0.222    10.141
ATOM     33  O   UNL d   1      -9.870  -8.312  -0.290 -0.09 +0.06    -0.303    10.141
ATOM     34  H   UNL d   1      -8.946  -8.463  -0.607 -0.51 -0.13    +0.222    10.141
ATOM     35  O   UNL d   1     -12.523  -4.776   4.601 -0.06 +0.30    -0.278    10.141
ATOM     36  P   UNL d   1     -14.026  -4.394   4.973 -0.06 -0.23    +0.473    10.141
ATOM     37  O   UNL d   1     -14.185  -3.259   5.934 -0.09 +0.11    -0.228    10.141
ATOM     38  O   UNL d   1     -14.660  -4.129   3.537 -0.04 +0.09    -0.303    10.141
ATOM     39  H   UNL d   1     -14.739  -4.982   3.058 +0.03 -0.05    +0.222    10.141
ATOM     40  O   UNL d   1     -14.636  -5.797   5.408 -0.01 +0.08    -0.303    10.141
ATOM     41  H   UNL d   1     -14.118  -6.548   5.042 +0.03 -0.06    +0.222    10.141
ATOM     42  O   UNL d   1     -12.979  -5.351   1.782 -0.10 +0.06    -0.278    10.141
ATOM     43  P   UNL d   1     -14.124  -6.459   1.707 +0.01 -0.05    +0.473    10.141
ATOM     44  O   UNL d   1     -14.443  -7.202   2.958 -0.00 +0.03    -0.228    10.141
ATOM     45  O   UNL d   1     -15.352  -5.652   1.098 +0.00 +0.01    -0.303    10.141
ATOM     46  H   UNL d   1     -15.579  -4.876   1.649 +0.02 -0.01    +0.222    10.141
ATOM     47  O   UNL d   1     -13.678  -7.363   0.461 -0.00 +0.01    -0.303    10.141
ATOM     48  H   UNL d   1     -12.800  -7.066   0.144 +0.03 -0.01    +0.222    10.141
TER
ENDMDL
MODEL       23
USER    Run = 23
USER    Cluster Rank = 33
USER    Number of conformations in this cluster = 1
USER  
USER    RMSD from reference structure       = 17.785 A
USER  
USER    Estimated Free Energy of Binding    =   +2.52 kcal/mol  [=(1)+(2)+(3)-(4)]
USER    
USER    (1) Final Intermolecular Energy     =   -4.64 kcal/mol
USER        vdW + Hbond + desolv Energy     =   -4.57 kcal/mol
USER        Electrostatic Energy            =   -0.08 kcal/mol
USER    (2) Final Total Internal Energy     =  -15.32 kcal/mol
USER    (3) Torsional Free Energy           =   +7.16 kcal/mol
USER    (4) Unbound System's Energy  [=(2)] =  -15.32 kcal/mol
USER    
USER    
USER  
USER    DPF = D:/Protein_go_brrr/autodock/final/mut_N102T/IHP/dock.dpf
USER    NEWDPF move	IHP_ideal_opt.pdbqt
USER    NEWDPF about	0.035000 0.082000 -0.065000
USER    NEWDPF tran0	-7.651597 11.276532 -15.482603
USER    NEWDPF axisangle0	-0.625825 -0.685908 -0.371312 -92.787111
USER    NEWDPF quaternion0	-0.453156 -0.496662 -0.268865 -0.689701
USER    NEWDPF dihe0	79.44 148.47 -158.44 40.69 88.28 73.97 21.41 -66.81 29.59 88.58 151.28 122.00 -72.79 163.39 -173.25 88.06 -69.23 -171.75 -147.30 -14.70 14.71 -20.66 179.94 18.26 
USER  
USER                              x       y       z    vdW   Elec        q     RMS 
ATOM      1  C   UNL d   1      -8.276  11.687 -13.925 -0.03 -0.01    +0.194    17.785
ATOM      2  C   UNL d   1      -9.225  10.901 -14.832 -0.05 -0.00    +0.194    17.785
ATOM      3  C   UNL d   1      -9.197  11.424 -16.270 -0.05 +0.01    +0.194    17.785
ATOM      4  C   UNL d   1      -7.788  11.514 -16.849 -0.08 +0.01    +0.194    17.785
ATOM      5  C   UNL d   1      -6.780  12.189 -15.928 -0.08 +0.00    +0.194    17.785
ATOM      6  C   UNL d   1      -6.850  11.711 -14.477 -0.08 -0.01    +0.194    17.785
ATOM      7  O   UNL d   1      -8.231  11.033 -12.654 -0.03 +0.02    -0.278    17.785
ATOM      8  P   UNL d   1      -7.128   9.901 -12.422 -0.09 -0.07    +0.473    17.785
ATOM      9  O   UNL d   1      -6.580   9.289 -13.663 -0.25 +0.06    -0.228    17.785
ATOM     10  O   UNL d   1      -6.015  10.622 -11.534 -0.11 +0.03    -0.303    17.785
ATOM     11  H   UNL d   1      -5.459  11.187 -12.102 +0.10 -0.03    +0.222    17.785
ATOM     12  O   UNL d   1      -7.782   8.894 -11.382 -0.10 +0.08    -0.303    17.785
ATOM     13  H   UNL d   1      -8.109   8.066 -11.801 -0.50 -0.12    +0.222    17.785
ATOM     14  O   UNL d   1      -8.830   9.523 -14.839 -0.12 +0.01    -0.278    17.785
ATOM     15  P   UNL d   1      -9.886   8.473 -14.250 -0.11 -0.02    +0.473    17.785
ATOM     16  O   UNL d   1      -9.331   7.347 -13.436 -0.19 +0.05    -0.228    17.785
ATOM     17  O   UNL d   1     -10.916   9.375 -13.435 -0.03 +0.01    -0.303    17.785
ATOM     18  H   UNL d   1     -11.763   9.461 -13.914 +0.02 -0.00    +0.222    17.785
ATOM     19  O   UNL d   1     -10.762   8.044 -15.507 -0.07 -0.02    -0.303    17.785
ATOM     20  H   UNL d   1     -10.687   8.688 -16.235 +0.04 +0.02    +0.222    17.785
ATOM     21  O   UNL d   1      -6.116  12.651 -13.696 -0.04 +0.01    -0.278    17.785
ATOM     22  P   UNL d   1      -4.544  12.461 -13.499 -0.13 -0.06    +0.473    17.785
ATOM     23  O   UNL d   1      -3.951  12.815 -12.177 -0.24 +0.03    -0.228    17.785
ATOM     24  O   UNL d   1      -4.342  10.944 -13.937 -0.26 +0.10    -0.303    17.785
ATOM     25  H   UNL d   1      -5.103  10.687 -14.517 +0.09 -0.06    +0.222    17.785
ATOM     26  O   UNL d   1      -3.959  13.251 -14.766 -0.16 +0.01    -0.303    17.785
ATOM     27  H   UNL d   1      -3.722  12.608 -15.465 -0.01 -0.03    +0.222    17.785
ATOM     28  O   UNL d   1      -9.880  10.477 -17.082 -0.07 -0.01    -0.278    17.785
ATOM     29  P   UNL d   1     -11.449  10.607 -17.323 -0.03 +0.02    +0.473    17.785
ATOM     30  O   UNL d   1     -11.891  11.845 -18.013 -0.01 -0.01    -0.228    17.785
ATOM     31  O   UNL d   1     -11.732   9.219 -18.069 -0.05 -0.02    -0.303    17.785
ATOM     32  H   UNL d   1     -11.677   8.491 -17.408 +0.02 +0.01    +0.222    17.785
ATOM     33  O   UNL d   1     -12.033  10.347 -15.864 -0.02 -0.01    -0.303    17.785
ATOM     34  H   UNL d   1     -11.296  10.063 -15.270 +0.02 +0.00    +0.222    17.785
ATOM     35  O   UNL d   1      -5.495  11.827 -16.428 -0.15 +0.01    -0.278    17.785
ATOM     36  P   UNL d   1      -5.156  10.300 -16.744 -0.28 -0.05    +0.473    17.785
ATOM     37  O   UNL d   1      -5.957   9.291 -15.984 -0.32 +0.03    -0.228    17.785
ATOM     38  O   UNL d   1      -5.356  10.241 -18.323 -0.26 -0.02    -0.303    17.785
ATOM     39  H   UNL d   1      -6.147  10.769 -18.566 +0.08 +0.02    +0.222    17.785
ATOM     40  O   UNL d   1      -3.577  10.257 -16.557 -0.41 +0.10    -0.303    17.785
ATOM     41  H   UNL d   1      -3.296  10.703 -15.727 -0.40 -0.14    +0.222    17.785
ATOM     42  O   UNL d   1      -7.877  12.313 -18.034 -0.03 -0.02    -0.278    17.785
ATOM     43  P   UNL d   1      -8.095  11.589 -19.438 -0.03 +0.04    +0.473    17.785
ATOM     44  O   UNL d   1      -7.127  11.898 -20.527 -0.03 -0.02    -0.228    17.785
ATOM     45  O   UNL d   1      -8.151  10.051 -19.033 -0.10 -0.04    -0.303    17.785
ATOM     46  H   UNL d   1      -9.022   9.812 -18.658 +0.04 +0.02    +0.222    17.785
ATOM     47  O   UNL d   1      -9.633  11.894 -19.773 -0.01 -0.02    -0.303    17.785
ATOM     48  H   UNL d   1     -10.196  11.534 -19.058 +0.02 +0.01    +0.222    17.785
TER
ENDMDL
MODEL       14
USER    Run = 14
USER    Cluster Rank = 34
USER    Number of conformations in this cluster = 1
USER  
USER    RMSD from reference structure       = 14.018 A
USER  
USER    Estimated Free Energy of Binding    =   +2.53 kcal/mol  [=(1)+(2)+(3)-(4)]
USER    
USER    (1) Final Intermolecular Energy     =   -4.63 kcal/mol
USER        vdW + Hbond + desolv Energy     =   -3.98 kcal/mol
USER        Electrostatic Energy            =   -0.66 kcal/mol
USER    (2) Final Total Internal Energy     =  -14.16 kcal/mol
USER    (3) Torsional Free Energy           =   +7.16 kcal/mol
USER    (4) Unbound System's Energy  [=(2)] =  -14.16 kcal/mol
USER    
USER    
USER  
USER    DPF = D:/Protein_go_brrr/autodock/final/mut_N102T/IHP/dock.dpf
USER    NEWDPF move	IHP_ideal_opt.pdbqt
USER    NEWDPF about	0.035000 0.082000 -0.065000
USER    NEWDPF tran0	-13.079964 0.480892 11.988591
USER    NEWDPF axisangle0	0.768269 -0.498191 -0.401957 -84.476827
USER    NEWDPF quaternion0	0.516443 -0.334892 -0.270202 -0.740354
USER    NEWDPF dihe0	-127.69 -4.90 41.12 51.77 31.41 180.00 26.84 -71.60 39.57 88.96 147.53 123.71 -24.31 160.21 135.40 92.49 -66.19 -174.21 24.27 -20.17 -21.30 -23.63 170.54 16.19 
USER  
USER                              x       y       z    vdW   Elec        q     RMS 
ATOM      1  C   UNL d   1     -12.952  -1.200  11.612 -0.04 -0.04    +0.194    14.018
ATOM      2  C   UNL d   1     -13.496  -0.312  10.492 -0.04 -0.04    +0.194    14.018
ATOM      3  C   UNL d   1     -14.507   0.709  11.018 -0.01 -0.02    +0.194    14.018
ATOM      4  C   UNL d   1     -13.982   1.523  12.198 -0.02 -0.01    +0.194    14.018
ATOM      5  C   UNL d   1     -13.327   0.685  13.288 -0.02 -0.01    +0.194    14.018
ATOM      6  C   UNL d   1     -12.361  -0.377  12.757 -0.07 -0.02    +0.194    14.018
ATOM      7  O   UNL d   1     -11.897  -2.001  11.074 -0.10 +0.15    -0.278    14.018
ATOM      8  P   UNL d   1     -12.230  -3.499  10.633 -0.04 -0.33    +0.473    14.018
ATOM      9  O   UNL d   1     -13.641  -3.737  10.223 -0.02 +0.08    -0.228    14.018
ATOM     10  O   UNL d   1     -11.178  -3.803   9.472 -0.19 +0.37    -0.303    14.018
ATOM     11  H   UNL d   1     -10.295  -3.944   9.860 -0.39 -0.58    +0.222    14.018
ATOM     12  O   UNL d   1     -11.689  -4.409  11.818 -0.07 +0.27    -0.303    14.018
ATOM     13  H   UNL d   1     -10.762  -4.199  12.073 -0.46 -0.39    +0.222    14.018
ATOM     14  O   UNL d   1     -12.406   0.396   9.887 -0.10 +0.06    -0.278    14.018
ATOM     15  P   UNL d   1     -12.031  -0.015   8.386 -0.13 -0.14    +0.473    14.018
ATOM     16  O   UNL d   1     -10.579   0.016   8.023 -0.24 +0.07    -0.228    14.018
ATOM     17  O   UNL d   1     -12.682  -1.458   8.205 -0.10 +0.12    -0.303    14.018
ATOM     18  H   UNL d   1     -12.379  -2.070   8.902 +0.07 -0.10    +0.222    14.018
ATOM     19  O   UNL d   1     -12.983   0.881   7.479 -0.07 +0.07    -0.303    14.018
ATOM     20  H   UNL d   1     -13.641   1.363   8.014 +0.05 -0.03    +0.222    14.018
ATOM     21  O   UNL d   1     -12.108  -1.278  13.833 -0.03 +0.01    -0.278    14.018
ATOM     22  P   UNL d   1     -10.608  -1.541  14.309 -0.02 +0.16    +0.473    14.018
ATOM     23  O   UNL d   1     -10.393  -2.216  15.621 -0.66 -0.15    -0.228    14.018
ATOM     24  O   UNL d   1      -9.999  -2.309  13.055 -0.45 +0.12    -0.303    14.018
ATOM     25  H   UNL d   1     -10.713  -2.874  12.663 -0.24 -0.20    +0.222    14.018
ATOM     26  O   UNL d   1      -9.957  -0.084  14.152 -0.23 -0.16    -0.303    14.018
ATOM     27  H   UNL d   1     -10.656   0.557  13.912 +0.07 +0.05    +0.222    14.018
ATOM     28  O   UNL d   1     -14.741   1.653   9.982 -0.01 +0.03    -0.278    14.018
ATOM     29  P   UNL d   1     -15.857   1.377   8.879 +0.01 -0.04    +0.473    14.018
ATOM     30  O   UNL d   1     -17.258   1.366   9.373 +0.00 +0.02    -0.228    14.018
ATOM     31  O   UNL d   1     -15.474   2.503   7.807 -0.00 +0.02    -0.303    14.018
ATOM     32  H   UNL d   1     -14.698   2.190   7.287 +0.03 -0.02    +0.222    14.018
ATOM     33  O   UNL d   1     -15.324   0.043   8.192 -0.00 +0.04    -0.303    14.018
ATOM     34  H   UNL d   1     -14.393  -0.118   8.483 +0.03 -0.04    +0.222    14.018
ATOM     35  O   UNL d   1     -12.559   1.598  14.069 -0.04 -0.01    -0.278    14.018
ATOM     36  P   UNL d   1     -11.405   2.465  13.390 -0.10 +0.03    +0.473    14.018
ATOM     37  O   UNL d   1     -10.859   1.921  12.108 -0.22 +0.00    -0.228    14.018
ATOM     38  O   UNL d   1     -12.105   3.888  13.252 -0.11 -0.01    -0.303    14.018
ATOM     39  H   UNL d   1     -13.070   3.761  13.131 +0.03 -0.00    +0.222    14.018
ATOM     40  O   UNL d   1     -10.376   2.659  14.588 -0.13 -0.07    -0.303    14.018
ATOM     41  H   UNL d   1     -10.195   1.812  15.053 +0.07 +0.07    +0.222    14.018
ATOM     42  O   UNL d   1     -15.112   2.174  12.788 -0.00 +0.01    -0.278    14.018
ATOM     43  P   UNL d   1     -15.459   3.668  12.349 +0.00 -0.02    +0.473    14.018
ATOM     44  O   UNL d   1     -15.646   4.676  13.429 -0.00 +0.01    -0.228    14.018
ATOM     45  O   UNL d   1     -14.284   4.014  11.332 -0.01 +0.01    -0.303    14.018
ATOM     46  H   UNL d   1     -14.409   3.562  10.474 +0.02 -0.01    +0.222    14.018
ATOM     47  O   UNL d   1     -16.703   3.478  11.356 +0.00 +0.01    -0.303    14.018
ATOM     48  H   UNL d   1     -16.443   2.882  10.624 +0.00 -0.01    +0.222    14.018
TER
ENDMDL
MODEL       75
USER    Run = 75
USER    Cluster Rank = 35
USER    Number of conformations in this cluster = 1
USER  
USER    RMSD from reference structure       = 15.668 A
USER  
USER    Estimated Free Energy of Binding    =   +2.55 kcal/mol  [=(1)+(2)+(3)-(4)]
USER    
USER    (1) Final Intermolecular Energy     =   -4.61 kcal/mol
USER        vdW + Hbond + desolv Energy     =   -4.63 kcal/mol
USER        Electrostatic Energy            =   +0.02 kcal/mol
USER    (2) Final Total Internal Energy     =  -14.67 kcal/mol
USER    (3) Torsional Free Energy           =   +7.16 kcal/mol
USER    (4) Unbound System's Energy  [=(2)] =  -14.67 kcal/mol
USER    
USER    
USER  
USER    DPF = D:/Protein_go_brrr/autodock/final/mut_N102T/IHP/dock.dpf
USER    NEWDPF move	IHP_ideal_opt.pdbqt
USER    NEWDPF about	0.035000 0.082000 -0.065000
USER    NEWDPF tran0	7.628746 16.672577 4.533875
USER    NEWDPF axisangle0	0.022168 0.897233 0.441000 -177.774803
USER    NEWDPF quaternion0	0.022163 0.897064 0.440917 -0.019417
USER    NEWDPF dihe0	139.59 96.97 89.64 37.80 161.92 82.83 8.92 -111.59 100.49 72.52 12.75 -117.15 -24.40 18.91 -144.42 -124.11 105.64 -58.87 -10.61 -24.16 5.81 29.25 -12.11 173.04 
USER  
USER                              x       y       z    vdW   Elec        q     RMS 
ATOM      1  C   UNL d   1       6.401  16.827   3.329 -0.13 +0.01    +0.194    15.668
ATOM      2  C   UNL d   1       7.608  15.974   2.936 -0.14 +0.05    +0.194    15.668
ATOM      3  C   UNL d   1       8.925  16.620   3.373 -0.10 +0.12    +0.194    15.668
ATOM      4  C   UNL d   1       8.945  17.005   4.850 -0.13 +0.15    +0.194    15.668
ATOM      5  C   UNL d   1       7.705  17.759   5.312 -0.15 +0.04    +0.194    15.668
ATOM      6  C   UNL d   1       6.390  17.147   4.824 -0.19 +0.01    +0.194    15.668
ATOM      7  O   UNL d   1       5.216  16.080   3.044 -0.15 +0.00    -0.278    15.668
ATOM      8  P   UNL d   1       4.024  16.812   2.271 -0.05 -0.04    +0.473    15.668
ATOM      9  O   UNL d   1       4.442  17.932   1.384 -0.02 +0.03    -0.228    15.668
ATOM     10  O   UNL d   1       3.289  15.632   1.489 -0.11 +0.03    -0.303    15.668
ATOM     11  H   UNL d   1       3.881  14.859   1.430 +0.10 -0.02    +0.222    15.668
ATOM     12  O   UNL d   1       2.964  17.176   3.397 -0.11 +0.04    -0.303    15.668
ATOM     13  H   UNL d   1       3.359  17.660   4.157 +0.07 -0.05    +0.222    15.668
ATOM     14  O   UNL d   1       7.499  14.691   3.566 -0.23 -0.12    -0.278    15.668
ATOM     15  P   UNL d   1       7.127  13.457   2.617 -0.20 +0.08    +0.473    15.668
ATOM     16  O   UNL d   1       8.212  12.948   1.721 -0.21 -0.03    -0.228    15.668
ATOM     17  O   UNL d   1       6.583  12.346   3.621 -0.38 -0.03    -0.303    15.668
ATOM     18  H   UNL d   1       6.692  12.627   4.549 -0.44 -0.01    +0.222    15.668
ATOM     19  O   UNL d   1       5.789  13.908   1.885 -0.16 +0.01    -0.303    15.668
ATOM     20  H   UNL d   1       5.322  14.605   2.383 +0.10 +0.00    +0.222    15.668
ATOM     21  O   UNL d   1       5.376  18.126   5.035 -0.13 +0.06    -0.278    15.668
ATOM     22  P   UNL d   1       4.475  18.062   6.350 -0.16 -0.26    +0.473    15.668
ATOM     23  O   UNL d   1       3.019  17.780   6.194 -0.35 +0.18    -0.228    15.668
ATOM     24  O   UNL d   1       5.268  17.005   7.237 -0.22 +0.09    -0.303    15.668
ATOM     25  H   UNL d   1       5.859  17.505   7.856 -0.41 -0.10    +0.222    15.668
ATOM     26  O   UNL d   1       4.849  19.445   7.069 -0.15 +0.27    -0.303    15.668
ATOM     27  H   UNL d   1       5.600  19.298   7.680 +0.06 -0.12    +0.222    15.668
ATOM     28  O   UNL d   1       9.951  15.647   3.222 -0.02 -0.39    -0.278    15.668
ATOM     29  P   UNL d   1      11.379  16.066   2.656 -0.01 +0.36    +0.473    15.668
ATOM     30  O   UNL d   1      12.105  15.010   1.905 -0.13 -0.12    -0.228    15.668
ATOM     31  O   UNL d   1      10.983  17.390   1.849 -0.00 -0.07    -0.303    15.668
ATOM     32  H   UNL d   1      10.600  18.040   2.482 +0.01 +0.05    +0.222    15.668
ATOM     33  O   UNL d   1      12.095  16.646   3.955 -0.06 -0.26    -0.303    15.668
ATOM     34  H   UNL d   1      11.512  17.331   4.364 +0.02 +0.15    +0.222    15.668
ATOM     35  O   UNL d   1       7.706  17.670   6.736 -0.17 -0.03    -0.278    15.668
ATOM     36  P   UNL d   1       7.796  18.991   7.624 -0.08 -0.04    +0.473    15.668
ATOM     37  O   UNL d   1       7.122  18.919   8.958 -0.21 +0.05    -0.228    15.668
ATOM     38  O   UNL d   1       9.369  19.228   7.698 -0.03 -0.01    -0.303    15.668
ATOM     39  H   UNL d   1       9.784  18.887   6.877 +0.04 +0.03    +0.222    15.668
ATOM     40  O   UNL d   1       7.287  20.113   6.618 -0.03 +0.05    -0.303    15.668
ATOM     41  H   UNL d   1       6.630  19.757   5.978 +0.05 -0.05    +0.222    15.668
ATOM     42  O   UNL d   1      10.063  17.880   5.036 -0.09 -0.15    -0.278    15.668
ATOM     43  P   UNL d   1      10.092  19.270   4.255 +0.01 +0.07    +0.473    15.668
ATOM     44  O   UNL d   1       9.110  19.458   3.150 -0.00 -0.01    -0.228    15.668
ATOM     45  O   UNL d   1       9.960  20.334   5.431 +0.00 -0.01    -0.303    15.668
ATOM     46  H   UNL d   1       9.126  20.216   5.928 +0.03 +0.00    +0.222    15.668
ATOM     47  O   UNL d   1      11.633  19.428   3.844 +0.00 -0.04    -0.303    15.668
ATOM     48  H   UNL d   1      11.888  18.688   3.255 +0.01 +0.04    +0.222    15.668
TER
ENDMDL
MODEL       88
USER    Run = 88
USER    Cluster Rank = 36
USER    Number of conformations in this cluster = 1
USER  
USER    RMSD from reference structure       = 15.977 A
USER  
USER    Estimated Free Energy of Binding    =   +2.57 kcal/mol  [=(1)+(2)+(3)-(4)]
USER    
USER    (1) Final Intermolecular Energy     =   -4.59 kcal/mol
USER        vdW + Hbond + desolv Energy     =   -4.38 kcal/mol
USER        Electrostatic Energy            =   -0.21 kcal/mol
USER    (2) Final Total Internal Energy     =  -12.73 kcal/mol
USER    (3) Torsional Free Energy           =   +7.16 kcal/mol
USER    (4) Unbound System's Energy  [=(2)] =  -12.73 kcal/mol
USER    
USER    
USER  
USER    DPF = D:/Protein_go_brrr/autodock/final/mut_N102T/IHP/dock.dpf
USER    NEWDPF move	IHP_ideal_opt.pdbqt
USER    NEWDPF about	0.035000 0.082000 -0.065000
USER    NEWDPF tran0	-2.986031 16.638476 -9.550580
USER    NEWDPF axisangle0	-0.546246 -0.705079 0.452194 -148.432283
USER    NEWDPF quaternion0	-0.525650 -0.678493 0.435144 -0.272009
USER    NEWDPF dihe0	-153.15 -49.62 16.52 57.84 111.43 102.33 -144.87 -16.71 -0.24 88.09 142.18 -118.34 79.88 -171.90 180.00 66.12 -53.88 -10.97 -33.31 -45.05 7.99 -37.88 170.67 150.14 
USER  
USER                              x       y       z    vdW   Elec        q     RMS 
ATOM      1  C   UNL d   1      -4.438  17.527  -9.257 -0.02 +0.00    +0.194    15.977
ATOM      2  C   UNL d   1      -4.143  16.399  -8.268 -0.07 +0.01    +0.194    15.977
ATOM      3  C   UNL d   1      -3.653  15.135  -8.979 -0.16 +0.00    +0.194    15.977
ATOM      4  C   UNL d   1      -2.483  15.394  -9.926 -0.23 -0.01    +0.194    15.977
ATOM      5  C   UNL d   1      -2.688  16.584 -10.854 -0.07 -0.00    +0.194    15.977
ATOM      6  C   UNL d   1      -3.236  17.829 -10.154 -0.02 -0.00    +0.194    15.977
ATOM      7  O   UNL d   1      -4.721  18.713  -8.510 -0.00 -0.00    -0.278    15.977
ATOM      8  P   UNL d   1      -5.606  19.850  -9.198 +0.00 +0.00    +0.473    15.977
ATOM      9  O   UNL d   1      -6.726  20.368  -8.366 +0.00 +0.00    -0.228    15.977
ATOM     10  O   UNL d   1      -4.548  20.975  -9.598 +0.00 +0.00    -0.303    15.977
ATOM     11  H   UNL d   1      -3.797  20.566 -10.067 +0.00 +0.00    +0.222    15.977
ATOM     12  O   UNL d   1      -6.012  19.257 -10.615 +0.00 -0.00    -0.303    15.977
ATOM     13  H   UNL d   1      -5.406  19.536 -11.338 +0.00 +0.00    +0.222    15.977
ATOM     14  O   UNL d   1      -3.127  16.832  -7.355 -0.42 -0.03    -0.278    15.977
ATOM     15  P   UNL d   1      -3.622  17.633  -6.060 -0.04 +0.02    +0.473    15.977
ATOM     16  O   UNL d   1      -3.168  19.053  -5.934 -0.04 -0.00    -0.228    15.977
ATOM     17  O   UNL d   1      -5.209  17.494  -6.102 -0.01 -0.01    -0.303    15.977
ATOM     18  H   UNL d   1      -5.600  18.122  -6.738 +0.01 +0.00    +0.222    15.977
ATOM     19  O   UNL d   1      -3.250  16.683  -4.840 -0.09 -0.03    -0.303    15.977
ATOM     20  H   UNL d   1      -2.849  15.848  -5.142 +0.04 +0.02    +0.222    15.977
ATOM     21  O   UNL d   1      -3.689  18.712 -11.177 -0.00 -0.00    -0.278    15.977
ATOM     22  P   UNL d   1      -2.719  19.853 -11.725 +0.01 +0.01    +0.473    15.977
ATOM     23  O   UNL d   1      -3.330  21.119 -12.224 +0.00 -0.01    -0.228    15.977
ATOM     24  O   UNL d   1      -1.710  20.035 -10.507 -0.00 +0.00    -0.303    15.977
ATOM     25  H   UNL d   1      -1.437  19.134 -10.196 +0.02 -0.01    +0.222    15.977
ATOM     26  O   UNL d   1      -1.824  19.042 -12.778 -0.00 -0.02    -0.303    15.977
ATOM     27  H   UNL d   1      -1.213  18.450 -12.293 +0.03 +0.00    +0.222    15.977
ATOM     28  O   UNL d   1      -3.146  14.254  -7.985 -0.52 -0.02    -0.278    15.977
ATOM     29  P   UNL d   1      -4.141  13.492  -7.002 -0.15 +0.01    +0.473    15.977
ATOM     30  O   UNL d   1      -5.387  12.977  -7.625 -0.09 +0.00    -0.228    15.977
ATOM     31  O   UNL d   1      -3.141  12.410  -6.376 -0.20 +0.01    -0.303    15.977
ATOM     32  H   UNL d   1      -3.202  11.583  -6.906 -0.38 -0.05    +0.222    15.977
ATOM     33  O   UNL d   1      -4.310  14.542  -5.818 -0.09 -0.03    -0.303    15.977
ATOM     34  H   UNL d   1      -4.410  15.447  -6.202 +0.05 +0.02    +0.222    15.977
ATOM     35  O   UNL d   1      -1.392  16.917 -11.348 -0.06 +0.01    -0.278    15.977
ATOM     36  P   UNL d   1      -0.221  17.306 -10.336 -0.09 -0.07    +0.473    15.977
ATOM     37  O   UNL d   1      -0.638  17.507  -8.914 -0.14 +0.03    -0.228    15.977
ATOM     38  O   UNL d   1       0.808  16.111 -10.554 -0.11 +0.12    -0.303    15.977
ATOM     39  H   UNL d   1       0.429  15.288 -10.177 -0.49 -0.19    +0.222    15.977
ATOM     40  O   UNL d   1       0.465  18.540 -11.069 -0.01 +0.02    -0.303    15.977
ATOM     41  H   UNL d   1      -0.200  19.186 -11.394 +0.02 -0.01    +0.222    15.977
ATOM     42  O   UNL d   1      -2.355  14.232 -10.753 -0.26 +0.05    -0.278    15.977
ATOM     43  P   UNL d   1      -3.676  13.504 -11.270 -0.13 -0.06    +0.473    15.977
ATOM     44  O   UNL d   1      -4.854  14.360 -11.584 -0.05 +0.01    -0.228    15.977
ATOM     45  O   UNL d   1      -3.144  12.649 -12.502 -0.22 +0.05    -0.303    15.977
ATOM     46  H   UNL d   1      -2.568  11.916 -12.208 -0.32 -0.09    +0.222    15.977
ATOM     47  O   UNL d   1      -3.923  12.366 -10.167 -0.15 +0.04    -0.303    15.977
ATOM     48  H   UNL d   1      -4.053  12.787  -9.293 +0.09 -0.02    +0.222    15.977
TER
ENDMDL
MODEL       15
USER    Run = 15
USER    Cluster Rank = 37
USER    Number of conformations in this cluster = 1
USER  
USER    RMSD from reference structure       = 14.102 A
USER  
USER    Estimated Free Energy of Binding    =   +2.62 kcal/mol  [=(1)+(2)+(3)-(4)]
USER    
USER    (1) Final Intermolecular Energy     =   -4.54 kcal/mol
USER        vdW + Hbond + desolv Energy     =   -4.42 kcal/mol
USER        Electrostatic Energy            =   -0.11 kcal/mol
USER    (2) Final Total Internal Energy     =  -12.69 kcal/mol
USER    (3) Torsional Free Energy           =   +7.16 kcal/mol
USER    (4) Unbound System's Energy  [=(2)] =  -12.69 kcal/mol
USER    
USER    
USER  
USER    DPF = D:/Protein_go_brrr/autodock/final/mut_N102T/IHP/dock.dpf
USER    NEWDPF move	IHP_ideal_opt.pdbqt
USER    NEWDPF about	0.035000 0.082000 -0.065000
USER    NEWDPF tran0	-6.892364 12.985070 -10.600832
USER    NEWDPF axisangle0	-0.479067 0.191121 -0.856719 92.390873
USER    NEWDPF quaternion0	-0.345745 0.137933 -0.618299 0.692201
USER    NEWDPF dihe0	-97.01 18.03 54.19 -4.15 -9.47 168.38 47.50 -98.44 141.29 -24.42 -180.00 165.90 62.46 -179.82 179.93 104.02 98.76 7.28 35.14 -27.42 -180.00 -34.89 -39.25 155.76 
USER  
USER                              x       y       z    vdW   Elec        q     RMS 
ATOM      1  C   UNL d   1      -5.613  13.428  -9.528 -0.08 -0.01    +0.194    14.102
ATOM      2  C   UNL d   1      -5.182  12.721 -10.814 -0.13 -0.01    +0.194    14.102
ATOM      3  C   UNL d   1      -6.093  11.537 -11.142 -0.10 -0.01    +0.194    14.102
ATOM      4  C   UNL d   1      -7.575  11.903 -11.154 -0.03 -0.01    +0.194    14.102
ATOM      5  C   UNL d   1      -8.025  12.709  -9.943 -0.01 -0.00    +0.194    14.102
ATOM      6  C   UNL d   1      -7.080  13.856  -9.577 -0.01 -0.00    +0.194    14.102
ATOM      7  O   UNL d   1      -4.827  14.614  -9.385 -0.05 +0.00    -0.278    14.102
ATOM      8  P   UNL d   1      -3.417  14.505  -8.643 -0.13 +0.01    +0.473    14.102
ATOM      9  O   UNL d   1      -2.230  14.767  -9.502 -0.40 +0.01    -0.228    14.102
ATOM     10  O   UNL d   1      -3.544  15.522  -7.420 -0.60 -0.04    -0.303    14.102
ATOM     11  H   UNL d   1      -3.665  15.023  -6.591 +0.06 +0.02    +0.222    14.102
ATOM     12  O   UNL d   1      -3.444  13.097  -7.908 -0.23 +0.00    -0.303    14.102
ATOM     13  H   UNL d   1      -4.354  12.797  -7.682 +0.09 -0.00    +0.222    14.102
ATOM     14  O   UNL d   1      -5.237  13.654 -11.900 -0.05 +0.01    -0.278    14.102
ATOM     15  P   UNL d   1      -3.836  14.232 -12.419 -0.09 -0.01    +0.473    14.102
ATOM     16  O   UNL d   1      -3.687  15.721 -12.434 -0.06 -0.01    -0.228    14.102
ATOM     17  O   UNL d   1      -2.755  13.512 -11.497 -0.19 +0.06    -0.303    14.102
ATOM     18  H   UNL d   1      -3.053  13.475 -10.568 -0.01 -0.05    +0.222    14.102
ATOM     19  O   UNL d   1      -3.600  13.505 -13.814 -0.16 -0.00    -0.303    14.102
ATOM     20  H   UNL d   1      -3.502  12.541 -13.707 +0.00 -0.04    +0.222    14.102
ATOM     21  O   UNL d   1      -7.436  14.281  -8.263 -0.00 +0.00    -0.278    14.102
ATOM     22  P   UNL d   1      -6.972  13.423  -7.001 +0.00 +0.00    +0.473    14.102
ATOM     23  O   UNL d   1      -7.838  13.430  -5.787 -0.01 -0.00    -0.228    14.102
ATOM     24  O   UNL d   1      -6.743  11.988  -7.649 -0.04 +0.00    -0.303    14.102
ATOM     25  H   UNL d   1      -7.630  11.578  -7.812 +0.04 -0.00    +0.222    14.102
ATOM     26  O   UNL d   1      -5.467  13.937  -6.794 -0.03 -0.01    -0.303    14.102
ATOM     27  H   UNL d   1      -5.230  14.540  -7.527 +0.05 +0.00    +0.222    14.102
ATOM     28  O   UNL d   1      -5.796  11.123 -12.470 -0.11 +0.03    -0.278    14.102
ATOM     29  P   UNL d   1      -4.472  10.293 -12.777 -0.24 -0.12    +0.473    14.102
ATOM     30  O   UNL d   1      -4.525   8.850 -12.430 -0.20 +0.07    -0.228    14.102
ATOM     31  O   UNL d   1      -4.263  10.662 -14.320 -0.23 +0.13    -0.303    14.102
ATOM     32  H   UNL d   1      -3.588  11.377 -14.384 -0.18 -0.12    +0.222    14.102
ATOM     33  O   UNL d   1      -3.355  11.167 -12.053 -0.26 +0.08    -0.303    14.102
ATOM     34  H   UNL d   1      -3.556  12.125 -12.192 +0.05 -0.05    +0.222    14.102
ATOM     35  O   UNL d   1      -9.273  13.294 -10.308 -0.00 +0.00    -0.278    14.102
ATOM     36  P   UNL d   1     -10.640  12.533  -9.995 +0.00 -0.01    +0.473    14.102
ATOM     37  O   UNL d   1     -11.786  13.405  -9.592 +0.00 +0.00    -0.228    14.102
ATOM     38  O   UNL d   1     -10.878  11.722 -11.345 +0.00 +0.00    -0.303    14.102
ATOM     39  H   UNL d   1     -10.221  10.994 -11.402 +0.01 -0.01    +0.222    14.102
ATOM     40  O   UNL d   1     -10.179  11.420  -8.956 -0.00 +0.00    -0.303    14.102
ATOM     41  H   UNL d   1      -9.577  10.763  -9.370 +0.02 -0.01    +0.222    14.102
ATOM     42  O   UNL d   1      -8.307  10.672 -11.136 -0.03 +0.02    -0.278    14.102
ATOM     43  P   UNL d   1      -7.850   9.519 -10.133 -0.09 -0.04    +0.473    14.102
ATOM     44  O   UNL d   1      -7.705   9.877  -8.695 -0.08 +0.01    -0.228    14.102
ATOM     45  O   UNL d   1      -8.916   8.371 -10.413 -0.30 +0.03    -0.303    14.102
ATOM     46  H   UNL d   1      -8.520   7.628 -10.911 -0.49 -0.09    +0.222    14.102
ATOM     47  O   UNL d   1      -6.538   8.922 -10.834 -0.19 +0.06    -0.303    14.102
ATOM     48  H   UNL d   1      -6.501   9.229 -11.763 +0.09 -0.05    +0.222    14.102
TER
ENDMDL
MODEL       32
USER    Run = 32
USER    Cluster Rank = 38
USER    Number of conformations in this cluster = 1
USER  
USER    RMSD from reference structure       = 15.591 A
USER  
USER    Estimated Free Energy of Binding    =   +2.64 kcal/mol  [=(1)+(2)+(3)-(4)]
USER    
USER    (1) Final Intermolecular Energy     =   -4.52 kcal/mol
USER        vdW + Hbond + desolv Energy     =   -4.26 kcal/mol
USER        Electrostatic Energy            =   -0.25 kcal/mol
USER    (2) Final Total Internal Energy     =  -13.77 kcal/mol
USER    (3) Torsional Free Energy           =   +7.16 kcal/mol
USER    (4) Unbound System's Energy  [=(2)] =  -13.77 kcal/mol
USER    
USER    
USER  
USER    DPF = D:/Protein_go_brrr/autodock/final/mut_N102T/IHP/dock.dpf
USER    NEWDPF move	IHP_ideal_opt.pdbqt
USER    NEWDPF about	0.035000 0.082000 -0.065000
USER    NEWDPF tran0	15.805947 5.979201 -7.900551
USER    NEWDPF axisangle0	0.083673 0.845570 0.527267 -149.077040
USER    NEWDPF quaternion0	0.080645 0.814969 0.508185 -0.266590
USER    NEWDPF dihe0	148.56 -62.31 159.00 17.54 -22.96 -30.29 -84.21 6.79 38.47 -91.87 89.45 -108.61 -88.48 172.92 -70.10 6.78 -86.64 95.49 55.69 13.70 -170.56 -9.35 175.05 18.51 
USER  
USER                              x       y       z    vdW   Elec        q     RMS 
ATOM      1  C   UNL d   1      15.280   6.687  -9.386 -0.08 -0.03    +0.194    15.591
ATOM      2  C   UNL d   1      16.256   5.517  -9.521 -0.02 -0.03    +0.194    15.591
ATOM      3  C   UNL d   1      17.396   5.610  -8.505 -0.00 -0.02    +0.194    15.591
ATOM      4  C   UNL d   1      16.910   5.794  -7.070 -0.02 -0.02    +0.194    15.591
ATOM      5  C   UNL d   1      15.849   6.875  -6.907 -0.11 -0.03    +0.194    15.591
ATOM      6  C   UNL d   1      14.741   6.819  -7.961 -0.19 -0.03    +0.194    15.591
ATOM      7  O   UNL d   1      14.163   6.437 -10.242 -0.14 +0.06    -0.278    15.591
ATOM      8  P   UNL d   1      14.401   6.441 -11.822 -0.11 -0.10    +0.473    15.591
ATOM      9  O   UNL d   1      15.380   7.450 -12.310 -0.03 +0.03    -0.228    15.591
ATOM     10  O   UNL d   1      14.830   4.940 -12.152 -0.09 +0.08    -0.303    15.591
ATOM     11  H   UNL d   1      14.981   4.453 -11.321 +0.04 -0.05    +0.222    15.591
ATOM     12  O   UNL d   1      12.948   6.519 -12.459 -0.21 +0.08    -0.303    15.591
ATOM     13  H   UNL d   1      12.661   5.673 -12.872 -0.51 -0.12    +0.222    15.591
ATOM     14  O   UNL d   1      15.548   4.290  -9.300 -0.03 +0.04    -0.278    15.591
ATOM     15  P   UNL d   1      16.023   3.025 -10.159 -0.00 -0.06    +0.473    15.591
ATOM     16  O   UNL d   1      14.951   2.241 -10.849 -0.06 +0.04    -0.228    15.591
ATOM     17  O   UNL d   1      17.097   3.625 -11.171 -0.00 +0.03    -0.303    15.591
ATOM     18  H   UNL d   1      17.868   3.985 -10.692 +0.00 -0.02    +0.222    15.591
ATOM     19  O   UNL d   1      16.947   2.196  -9.166 -0.00 +0.03    -0.303    15.591
ATOM     20  H   UNL d   1      17.538   2.778  -8.652 +0.01 -0.02    +0.222    15.591
ATOM     21  O   UNL d   1      14.042   8.060  -7.891 -0.14 +0.03    -0.278    15.591
ATOM     22  P   UNL d   1      14.561   9.309  -8.738 -0.08 -0.06    +0.473    15.591
ATOM     23  O   UNL d   1      16.032   9.539  -8.826 -0.03 +0.03    -0.228    15.591
ATOM     24  O   UNL d   1      13.836   9.078 -10.136 -0.08 +0.05    -0.303    15.591
ATOM     25  H   UNL d   1      14.425   8.514 -10.699 +0.05 -0.03    +0.222    15.591
ATOM     26  O   UNL d   1      13.699  10.507  -8.111 -0.20 +0.04    -0.303    15.591
ATOM     27  H   UNL d   1      14.173  11.352  -8.252 +0.03 -0.04    +0.222    15.591
ATOM     28  O   UNL d   1      18.082   4.365  -8.514 -0.00 +0.02    -0.278    15.591
ATOM     29  P   UNL d   1      19.460   4.211  -9.297 -0.00 -0.03    +0.473    15.591
ATOM     30  O   UNL d   1      19.730   5.245 -10.329 -0.00 +0.01    -0.228    15.591
ATOM     31  O   UNL d   1      20.476   4.136  -8.062 +0.00 +0.01    -0.303    15.591
ATOM     32  H   UNL d   1      20.121   4.692  -7.330 +0.00 -0.01    +0.222    15.591
ATOM     33  O   UNL d   1      19.397   2.699  -9.792 -0.00 +0.02    -0.303    15.591
ATOM     34  H   UNL d   1      18.661   2.606 -10.446 +0.00 -0.01    +0.222    15.591
ATOM     35  O   UNL d   1      15.238   6.632  -5.642 -0.20 +0.08    -0.278    15.591
ATOM     36  P   UNL d   1      14.623   5.198  -5.308 -0.27 -0.12    +0.473    15.591
ATOM     37  O   UNL d   1      13.845   4.557  -6.413 -0.80 +0.02    -0.228    15.591
ATOM     38  O   UNL d   1      15.917   4.384  -4.862 -0.10 +0.08    -0.303    15.591
ATOM     39  H   UNL d   1      16.696   4.723  -5.355 +0.06 -0.04    +0.222    15.591
ATOM     40  O   UNL d   1      13.852   5.468  -3.944 -0.80 +0.16    -0.303    15.591
ATOM     41  H   UNL d   1      14.040   4.773  -3.275 -0.23 -0.30    +0.222    15.591
ATOM     42  O   UNL d   1      18.044   6.198  -6.296 +0.00 +0.03    -0.278    15.591
ATOM     43  P   UNL d   1      18.911   5.081  -5.557 +0.02 -0.03    +0.473    15.591
ATOM     44  O   UNL d   1      20.390   5.261  -5.536 +0.00 +0.01    -0.228    15.591
ATOM     45  O   UNL d   1      18.242   5.018  -4.114 -0.02 +0.02    -0.303    15.591
ATOM     46  H   UNL d   1      17.361   5.442  -4.109 +0.05 -0.05    +0.222    15.591
ATOM     47  O   UNL d   1      18.390   3.717  -6.217 +0.00 +0.02    -0.303    15.591
ATOM     48  H   UNL d   1      18.699   3.669  -7.146 +0.01 -0.01    +0.222    15.591
TER
ENDMDL
MODEL       62
USER    Run = 62
USER    Cluster Rank = 39
USER    Number of conformations in this cluster = 1
USER  
USER    RMSD from reference structure       = 15.246 A
USER  
USER    Estimated Free Energy of Binding    =   +2.72 kcal/mol  [=(1)+(2)+(3)-(4)]
USER    
USER    (1) Final Intermolecular Energy     =   -4.44 kcal/mol
USER        vdW + Hbond + desolv Energy     =   -4.27 kcal/mol
USER        Electrostatic Energy            =   -0.17 kcal/mol
USER    (2) Final Total Internal Energy     =  -11.37 kcal/mol
USER    (3) Torsional Free Energy           =   +7.16 kcal/mol
USER    (4) Unbound System's Energy  [=(2)] =  -11.37 kcal/mol
USER    
USER    
USER  
USER    DPF = D:/Protein_go_brrr/autodock/final/mut_N102T/IHP/dock.dpf
USER    NEWDPF move	IHP_ideal_opt.pdbqt
USER    NEWDPF about	0.035000 0.082000 -0.065000
USER    NEWDPF tran0	16.043362 3.279700 -9.983198
USER    NEWDPF axisangle0	-0.453898 -0.743383 0.491282 -121.871644
USER    NEWDPF quaternion0	-0.396741 -0.649774 0.429418 -0.485789
USER    NEWDPF dihe0	105.92 180.00 150.35 -0.88 -43.36 -3.22 -82.59 2.56 37.18 180.00 -167.43 -173.33 -86.69 179.56 -75.91 146.66 -87.46 162.76 60.14 18.50 -162.36 32.19 -137.90 -169.50 
USER  
USER                              x       y       z    vdW   Elec        q     RMS 
ATOM      1  C   UNL d   1      14.920   4.031  -8.907 -0.09 -0.04    +0.194    15.246
ATOM      2  C   UNL d   1      15.466   2.676  -8.453 -0.04 -0.03    +0.194    15.246
ATOM      3  C   UNL d   1      15.508   1.668  -9.602 -0.02 -0.02    +0.194    15.246
ATOM      4  C   UNL d   1      16.231   2.196 -10.839 -0.02 -0.02    +0.194    15.246
ATOM      5  C   UNL d   1      15.799   3.594 -11.261 -0.05 -0.03    +0.194    15.246
ATOM      6  C   UNL d   1      15.697   4.587 -10.101 -0.04 -0.03    +0.194    15.246
ATOM      7  O   UNL d   1      15.074   4.958  -7.830 -0.09 +0.05    -0.278    15.246
ATOM      8  P   UNL d   1      14.295   4.672  -6.465 -0.22 -0.07    +0.473    15.246
ATOM      9  O   UNL d   1      12.955   4.042  -6.623 -0.88 +0.00    -0.228    15.246
ATOM     10  O   UNL d   1      15.312   3.780  -5.619 -0.10 +0.05    -0.303    15.246
ATOM     11  H   UNL d   1      15.610   3.024  -6.159 +0.06 -0.03    +0.222    15.246
ATOM     12  O   UNL d   1      14.325   6.050  -5.675 -0.33 +0.08    -0.303    15.246
ATOM     13  H   UNL d   1      13.455   6.289  -5.283 -0.27 -0.07    +0.222    15.246
ATOM     14  O   UNL d   1      16.797   2.853  -7.951 -0.00 +0.03    -0.278    15.246
ATOM     15  P   UNL d   1      17.270   1.840  -6.805 +0.01 -0.03    +0.473    15.246
ATOM     16  O   UNL d   1      17.772   2.450  -5.534 -0.01 +0.01    -0.228    15.246
ATOM     17  O   UNL d   1      16.010   0.893  -6.580 -0.01 +0.03    -0.303    15.246
ATOM     18  H   UNL d   1      15.723   0.484  -7.419 +0.02 -0.02    +0.222    15.246
ATOM     19  O   UNL d   1      18.282   0.856  -7.539 +0.00 +0.02    -0.303    15.246
ATOM     20  H   UNL d   1      17.850   0.371  -8.266 +0.00 -0.01    +0.222    15.246
ATOM     21  O   UNL d   1      14.969   5.713 -10.586 -0.07 +0.05    -0.278    15.246
ATOM     22  P   UNL d   1      13.396   5.805 -10.340 -0.23 -0.16    +0.473    15.246
ATOM     23  O   UNL d   1      12.569   4.592 -10.604 -0.37 +0.12    -0.228    15.246
ATOM     24  O   UNL d   1      13.331   6.344  -8.843 -0.24 +0.09    -0.303    15.246
ATOM     25  H   UNL d   1      13.003   5.608  -8.265 -0.33 -0.10    +0.222    15.246
ATOM     26  O   UNL d   1      13.011   7.115 -11.180 -0.24 +0.09    -0.303    15.246
ATOM     27  H   UNL d   1      12.056   7.300 -11.068 -0.10 -0.11    +0.222    15.246
ATOM     28  O   UNL d   1      16.273   0.552  -9.165 -0.00 +0.03    -0.278    15.246
ATOM     29  P   UNL d   1      15.862  -0.925  -9.598 +0.01 -0.04    +0.473    15.246
ATOM     30  O   UNL d   1      16.891  -1.681 -10.356 -0.00 +0.02    -0.228    15.246
ATOM     31  O   UNL d   1      15.424  -1.519  -8.178 -0.00 +0.03    -0.303    15.246
ATOM     32  H   UNL d   1      15.960  -1.083  -7.476 +0.01 -0.02    +0.222    15.246
ATOM     33  O   UNL d   1      14.465  -0.683 -10.324 -0.01 +0.03    -0.303    15.246
ATOM     34  H   UNL d   1      14.608  -0.098 -11.108 +0.04 -0.02    +0.222    15.246
ATOM     35  O   UNL d   1      16.823   4.069 -12.132 -0.01 +0.03    -0.278    15.246
ATOM     36  P   UNL d   1      18.166   3.231 -12.328 +0.00 -0.03    +0.473    15.246
ATOM     37  O   UNL d   1      18.760   2.663 -11.079 -0.00 +0.01    -0.228    15.246
ATOM     38  O   UNL d   1      17.714   2.137 -13.394 -0.00 +0.02    -0.303    15.246
ATOM     39  H   UNL d   1      16.769   1.915 -13.246 +0.01 -0.02    +0.222    15.246
ATOM     40  O   UNL d   1      19.072   4.232 -13.168 +0.00 +0.02    -0.303    15.246
ATOM     41  H   UNL d   1      20.003   4.233 -12.853 +0.00 -0.01    +0.222    15.246
ATOM     42  O   UNL d   1      15.907   1.311 -11.918 -0.02 +0.03    -0.278    15.246
ATOM     43  P   UNL d   1      14.497   1.469 -12.647 -0.05 -0.08    +0.473    15.246
ATOM     44  O   UNL d   1      13.900   0.248 -13.258 -0.09 +0.02    -0.228    15.246
ATOM     45  O   UNL d   1      13.595   2.141 -11.521 -0.12 +0.09    -0.303    15.246
ATOM     46  H   UNL d   1      13.256   3.013 -11.807 -0.32 -0.14    +0.222    15.246
ATOM     47  O   UNL d   1      14.738   2.697 -13.648 -0.09 +0.07    -0.303    15.246
ATOM     48  H   UNL d   1      15.681   2.959 -13.617 +0.02 -0.03    +0.222    15.246
TER
ENDMDL
MODEL       69
USER    Run = 69
USER    Cluster Rank = 40
USER    Number of conformations in this cluster = 1
USER  
USER    RMSD from reference structure       = 13.616 A
USER  
USER    Estimated Free Energy of Binding    =   +2.80 kcal/mol  [=(1)+(2)+(3)-(4)]
USER    
USER    (1) Final Intermolecular Energy     =   -4.36 kcal/mol
USER        vdW + Hbond + desolv Energy     =   -4.07 kcal/mol
USER        Electrostatic Energy            =   -0.29 kcal/mol
USER    (2) Final Total Internal Energy     =  -12.55 kcal/mol
USER    (3) Torsional Free Energy           =   +7.16 kcal/mol
USER    (4) Unbound System's Energy  [=(2)] =  -12.55 kcal/mol
USER    
USER    
USER  
USER    DPF = D:/Protein_go_brrr/autodock/final/mut_N102T/IHP/dock.dpf
USER    NEWDPF move	IHP_ideal_opt.pdbqt
USER    NEWDPF about	0.035000 0.082000 -0.065000
USER    NEWDPF tran0	13.674580 -0.853116 9.945197
USER    NEWDPF axisangle0	0.714571 0.661794 -0.226754 148.766131
USER    NEWDPF quaternion0	0.688191 0.637363 -0.218383 0.269204
USER    NEWDPF dihe0	91.25 156.78 29.31 120.47 83.83 138.27 79.75 -30.69 26.74 121.19 -14.71 3.74 -38.32 -38.08 -95.80 51.09 114.95 -180.00 42.00 -33.29 -23.05 -39.19 5.92 -38.20 
USER  
USER                              x       y       z    vdW   Elec        q     RMS 
ATOM      1  C   UNL d   1      12.606   0.504   9.974 -0.15 +0.07    +0.194    13.616
ATOM      2  C   UNL d   1      12.118  -0.737  10.723 -0.12 +0.11    +0.194    13.616
ATOM      3  C   UNL d   1      12.381  -2.018   9.928 -0.05 +0.24    +0.194    13.616
ATOM      4  C   UNL d   1      13.831  -2.154   9.469 -0.08 +0.17    +0.194    13.616
ATOM      5  C   UNL d   1      14.396  -0.898   8.819 -0.08 +0.09    +0.194    13.616
ATOM      6  C   UNL d   1      14.080   0.390   9.581 -0.07 +0.06    +0.194    13.616
ATOM      7  O   UNL d   1      12.484   1.629  10.847 -0.11 -0.08    -0.278    13.616
ATOM      8  P   UNL d   1      11.049   2.312  11.009 -0.29 +0.12    +0.473    13.616
ATOM      9  O   UNL d   1       9.909   1.521  10.469 -0.47 -0.08    -0.228    13.616
ATOM     10  O   UNL d   1      10.930   2.598  12.574 -0.26 -0.10    -0.303    13.616
ATOM     11  H   UNL d   1      10.887   1.752  13.058 +0.10 +0.07    +0.222    13.616
ATOM     12  O   UNL d   1      11.219   3.776  10.416 -0.29 -0.05    -0.303    13.616
ATOM     13  H   UNL d   1      10.721   3.914   9.578 -0.45 -0.03    +0.222    13.616
ATOM     14  O   UNL d   1      12.807  -0.828  11.976 -0.02 -0.10    -0.278    13.616
ATOM     15  P   UNL d   1      12.029  -0.274  13.262 +0.01 +0.13    +0.473    13.616
ATOM     16  O   UNL d   1      10.550  -0.094  13.127 -0.10 -0.06    -0.228    13.616
ATOM     17  O   UNL d   1      12.424  -1.292  14.422 +0.00 -0.07    -0.303    13.616
ATOM     18  H   UNL d   1      12.057  -2.181  14.249 +0.02 +0.05    +0.222    13.616
ATOM     19  O   UNL d   1      12.842   1.026  13.688 -0.03 -0.09    -0.303    13.616
ATOM     20  H   UNL d   1      12.847   1.696  12.980 +0.07 +0.07    +0.222    13.616
ATOM     21  O   UNL d   1      14.362   1.473   8.697 -0.09 -0.07    -0.278    13.616
ATOM     22  P   UNL d   1      15.359   2.630   9.155 -0.03 +0.09    +0.473    13.616
ATOM     23  O   UNL d   1      14.948   3.506  10.291 -0.09 -0.04    -0.228    13.616
ATOM     24  O   UNL d   1      16.710   1.822   9.391 -0.01 -0.05    -0.303    13.616
ATOM     25  H   UNL d   1      16.632   0.950   8.927 +0.02 +0.04    +0.222    13.616
ATOM     26  O   UNL d   1      15.656   3.374   7.766 -0.06 -0.06    -0.303    13.616
ATOM     27  H   UNL d   1      15.686   2.711   7.047 +0.06 +0.04    +0.222    13.616
ATOM     28  O   UNL d   1      12.158  -3.117  10.802 -0.19 -0.34    -0.278    13.616
ATOM     29  P   UNL d   1      10.679  -3.495  11.258 -0.05 +0.47    +0.473    13.616
ATOM     30  O   UNL d   1       9.596  -3.075  10.332 -0.62 -0.28    -0.228    13.616
ATOM     31  O   UNL d   1      10.855  -5.067  11.503 -0.05 -0.26    -0.303    13.616
ATOM     32  H   UNL d   1      10.470  -5.292  12.381 +0.04 +0.11    +0.222    13.616
ATOM     33  O   UNL d   1      10.626  -2.911  12.738 -0.02 -0.13    -0.303    13.616
ATOM     34  H   UNL d   1      11.243  -2.141  12.802 +0.03 +0.08    +0.222    13.616
ATOM     35  O   UNL d   1      15.813  -1.058   8.835 -0.01 -0.08    -0.278    13.616
ATOM     36  P   UNL d   1      16.680  -0.682   7.549 +0.00 +0.10    +0.473    13.616
ATOM     37  O   UNL d   1      18.131  -0.423   7.803 -0.00 -0.03    -0.228    13.616
ATOM     38  O   UNL d   1      16.394  -1.921   6.590 -0.02 -0.08    -0.303    13.616
ATOM     39  H   UNL d   1      16.437  -2.750   7.115 +0.02 +0.06    +0.222    13.616
ATOM     40  O   UNL d   1      15.837   0.502   6.905 -0.03 -0.06    -0.303    13.616
ATOM     41  H   UNL d   1      15.996   1.356   7.366 +0.05 +0.04    +0.222    13.616
ATOM     42  O   UNL d   1      13.857  -3.189   8.480 -0.50 -0.44    -0.278    13.616
ATOM     43  P   UNL d   1      15.172  -4.079   8.331 -0.06 +0.32    +0.473    13.616
ATOM     44  O   UNL d   1      15.682  -4.326   6.953 -0.05 -0.10    -0.228    13.616
ATOM     45  O   UNL d   1      16.207  -3.337   9.284 -0.01 -0.11    -0.303    13.616
ATOM     46  H   UNL d   1      16.687  -2.628   8.810 +0.01 +0.06    +0.222    13.616
ATOM     47  O   UNL d   1      14.825  -5.391   9.185 -0.05 -0.21    -0.303    13.616
ATOM     48  H   UNL d   1      15.601  -5.988   9.189 +0.01 +0.09    +0.222    13.616
TER
ENDMDL
MODEL       66
USER    Run = 66
USER    Cluster Rank = 41
USER    Number of conformations in this cluster = 1
USER  
USER    RMSD from reference structure       = 10.960 A
USER  
USER    Estimated Free Energy of Binding    =   +2.81 kcal/mol  [=(1)+(2)+(3)-(4)]
USER    
USER    (1) Final Intermolecular Energy     =   -4.35 kcal/mol
USER        vdW + Hbond + desolv Energy     =   -4.29 kcal/mol
USER        Electrostatic Energy            =   -0.06 kcal/mol
USER    (2) Final Total Internal Energy     =  -13.94 kcal/mol
USER    (3) Torsional Free Energy           =   +7.16 kcal/mol
USER    (4) Unbound System's Energy  [=(2)] =  -13.94 kcal/mol
USER    
USER    
USER  
USER    DPF = D:/Protein_go_brrr/autodock/final/mut_N102T/IHP/dock.dpf
USER    NEWDPF move	IHP_ideal_opt.pdbqt
USER    NEWDPF about	0.035000 0.082000 -0.065000
USER    NEWDPF tran0	-10.041489 -10.945289 0.934307
USER    NEWDPF axisangle0	-0.610341 0.111839 0.784204 142.191208
USER    NEWDPF quaternion0	-0.577419 0.105806 0.741904 0.323990
USER    NEWDPF dihe0	-136.78 -21.39 133.30 118.25 6.73 -133.06 -123.74 -7.76 -132.24 48.61 90.70 105.74 62.64 84.06 -58.33 21.89 -2.18 -177.69 -21.86 -14.02 -13.93 -32.18 169.78 14.47 
USER  
USER                              x       y       z    vdW   Elec        q     RMS 
ATOM      1  C   UNL d   1     -11.246 -11.191  -0.279 -0.05 -0.01    +0.194    10.960
ATOM      2  C   UNL d   1     -11.039  -9.741   0.163 -0.07 -0.02    +0.194    10.960
ATOM      3  C   UNL d   1     -10.897  -9.627   1.682 -0.06 -0.02    +0.194    10.960
ATOM      4  C   UNL d   1      -9.839 -10.563   2.259 -0.14 -0.01    +0.194    10.960
ATOM      5  C   UNL d   1      -9.937 -11.997   1.755 -0.13 -0.01    +0.194    10.960
ATOM      6  C   UNL d   1     -10.141 -12.110   0.243 -0.10 -0.00    +0.194    10.960
ATOM      7  O   UNL d   1     -11.196 -11.233  -1.707 -0.05 -0.01    -0.278    10.960
ATOM      8  P   UNL d   1     -12.153 -12.260  -2.470 -0.00 +0.03    +0.473    10.960
ATOM      9  O   UNL d   1     -13.207 -11.632  -3.314 -0.00 -0.01    -0.228    10.960
ATOM     10  O   UNL d   1     -11.149 -13.181  -3.300 -0.01 -0.04    -0.303    10.960
ATOM     11  H   UNL d   1     -10.597 -13.698  -2.686 +0.02 +0.04    +0.222    10.960
ATOM     12  O   UNL d   1     -12.668 -13.258  -1.346 +0.00 -0.01    -0.303    10.960
ATOM     13  H   UNL d   1     -11.952 -13.819  -0.972 +0.02 +0.01    +0.222    10.960
ATOM     14  O   UNL d   1      -9.846  -9.233  -0.447 +0.01 +0.08    -0.278    10.960
ATOM     15  P   UNL d   1     -10.024  -7.995  -1.447 +0.02 -0.04    +0.473    10.960
ATOM     16  O   UNL d   1      -8.991  -6.915  -1.371 -0.23 +0.02    -0.228    10.960
ATOM     17  O   UNL d   1     -10.106  -8.670  -2.888 -0.58 -0.04    -0.303    10.960
ATOM     18  H   UNL d   1     -10.602  -9.511  -2.855 +0.02 +0.02    +0.222    10.960
ATOM     19  O   UNL d   1     -11.528  -7.523  -1.230 -0.03 +0.00    -0.303    10.960
ATOM     20  H   UNL d   1     -11.697  -7.274  -0.302 +0.04 -0.01    +0.222    10.960
ATOM     21  O   UNL d   1     -10.552 -13.449  -0.019 -0.03 -0.01    -0.278    10.960
ATOM     22  P   UNL d   1      -9.625 -14.404  -0.898 -0.00 +0.09    +0.473    10.960
ATOM     23  O   UNL d   1      -8.737 -13.779  -1.921 -0.09 -0.07    -0.228    10.960
ATOM     24  O   UNL d   1      -8.866 -15.243   0.221 -0.04 -0.07    -0.303    10.960
ATOM     25  H   UNL d   1      -8.367 -14.608   0.796 +0.09 +0.04    +0.222    10.960
ATOM     26  O   UNL d   1     -10.687 -15.472  -1.448 +0.00 -0.05    -0.303    10.960
ATOM     27  H   UNL d   1     -11.430 -14.998  -1.874 +0.01 +0.03    +0.222    10.960
ATOM     28  O   UNL d   1     -10.437  -8.313   1.971 -0.05 +0.05    -0.278    10.960
ATOM     29  P   UNL d   1     -11.450  -7.084   1.953 -0.03 -0.10    +0.473    10.960
ATOM     30  O   UNL d   1     -12.838  -7.403   1.530 -0.02 +0.03    -0.228    10.960
ATOM     31  O   UNL d   1     -11.254  -6.538   3.445 -0.11 +0.17    -0.303    10.960
ATOM     32  H   UNL d   1     -11.676  -7.172   4.069 +0.07 -0.09    +0.222    10.960
ATOM     33  O   UNL d   1     -10.660  -6.012   1.080 -0.07 +0.04    -0.303    10.960
ATOM     34  H   UNL d   1     -10.368  -6.437   0.237 +0.08 -0.01    +0.222    10.960
ATOM     35  O   UNL d   1      -8.680 -12.600   2.056 -0.20 +0.00    -0.278    10.960
ATOM     36  P   UNL d   1      -7.334 -11.999   1.447 -0.22 -0.00    +0.473    10.960
ATOM     37  O   UNL d   1      -7.231 -10.507   1.458 -0.33 +0.03    -0.228    10.960
ATOM     38  O   UNL d   1      -6.224 -12.738   2.318 -0.38 +0.03    -0.303    10.960
ATOM     39  H   UNL d   1      -5.375 -12.735   1.826 -0.44 -0.08    +0.222    10.960
ATOM     40  O   UNL d   1      -7.250 -12.718   0.031 -0.19 -0.06    -0.303    10.960
ATOM     41  H   UNL d   1      -8.061 -13.238  -0.162 +0.08 +0.04    +0.222    10.960
ATOM     42  O   UNL d   1     -10.045 -10.599   3.676 -0.54 -0.01    -0.278    10.960
ATOM     43  P   UNL d   1      -9.167  -9.648   4.607 -0.09 -0.04    +0.473    10.960
ATOM     44  O   UNL d   1      -8.524 -10.261   5.803 -0.36 +0.02    -0.228    10.960
ATOM     45  O   UNL d   1      -8.142  -9.000   3.577 -0.21 +0.04    -0.303    10.960
ATOM     46  H   UNL d   1      -8.451  -9.098   2.655 +0.12 -0.03    +0.222    10.960
ATOM     47  O   UNL d   1     -10.151  -8.418   4.905 -0.12 +0.08    -0.303    10.960
ATOM     48  H   UNL d   1     -10.205  -7.848   4.110 +0.10 -0.07    +0.222    10.960
TER
ENDMDL
MODEL       70
USER    Run = 70
USER    Cluster Rank = 42
USER    Number of conformations in this cluster = 1
USER  
USER    RMSD from reference structure       = 14.778 A
USER  
USER    Estimated Free Energy of Binding    =   +2.86 kcal/mol  [=(1)+(2)+(3)-(4)]
USER    
USER    (1) Final Intermolecular Energy     =   -4.30 kcal/mol
USER        vdW + Hbond + desolv Energy     =   -4.10 kcal/mol
USER        Electrostatic Energy            =   -0.19 kcal/mol
USER    (2) Final Total Internal Energy     =  -14.58 kcal/mol
USER    (3) Torsional Free Energy           =   +7.16 kcal/mol
USER    (4) Unbound System's Energy  [=(2)] =  -14.58 kcal/mol
USER    
USER    
USER  
USER    DPF = D:/Protein_go_brrr/autodock/final/mut_N102T/IHP/dock.dpf
USER    NEWDPF move	IHP_ideal_opt.pdbqt
USER    NEWDPF about	0.035000 0.082000 -0.065000
USER    NEWDPF tran0	-9.366462 -6.995105 12.448980
USER    NEWDPF axisangle0	-0.699504 -0.330836 0.633437 69.258758
USER    NEWDPF quaternion0	-0.397504 -0.188003 0.359960 0.822845
USER    NEWDPF dihe0	61.94 66.47 40.92 11.85 -18.46 163.29 -11.29 -167.04 98.42 72.17 37.82 -180.00 166.53 -179.70 180.00 -58.12 104.59 158.34 41.27 -4.03 169.98 15.92 -10.01 -15.31 
USER  
USER                              x       y       z    vdW   Elec        q     RMS 
ATOM      1  C   UNL d   1      -9.167  -8.552  11.727 -0.17 -0.08    +0.194    14.778
ATOM      2  C   UNL d   1     -10.609  -8.049  11.827 -0.08 -0.08    +0.194    14.778
ATOM      3  C   UNL d   1     -10.890  -7.403  13.185 -0.04 -0.07    +0.194    14.778
ATOM      4  C   UNL d   1      -9.876  -6.325  13.560 -0.09 -0.10    +0.194    14.778
ATOM      5  C   UNL d   1      -8.425  -6.745  13.366 -0.17 -0.09    +0.194    14.778
ATOM      6  C   UNL d   1      -8.155  -7.447  12.034 -0.20 -0.11    +0.194    14.778
ATOM      7  O   UNL d   1      -8.936  -8.980  10.383 -0.15 +0.10    -0.278    14.778
ATOM      8  P   UNL d   1      -9.437 -10.435   9.953 -0.14 -0.12    +0.473    14.778
ATOM      9  O   UNL d   1      -8.526 -11.169   9.033 -0.36 +0.05    -0.228    14.778
ATOM     10  O   UNL d   1      -9.670 -11.189  11.339 -0.07 +0.08    -0.303    14.778
ATOM     11  H   UNL d   1      -8.880 -11.715  11.563 +0.08 -0.06    +0.222    14.778
ATOM     12  O   UNL d   1     -10.924 -10.223   9.435 -0.06 +0.08    -0.303    14.778
ATOM     13  H   UNL d   1     -11.110  -9.296   9.166 +0.07 -0.07    +0.222    14.778
ATOM     14  O   UNL d   1     -10.835  -7.074  10.801 -0.12 +0.20    -0.278    14.778
ATOM     15  P   UNL d   1     -12.107  -7.311   9.857 -0.02 -0.21    +0.473    14.778
ATOM     16  O   UNL d   1     -11.848  -7.370   8.384 -0.07 +0.10    -0.228    14.778
ATOM     17  O   UNL d   1     -12.766  -8.647  10.422 -0.00 +0.08    -0.303    14.778
ATOM     18  H   UNL d   1     -12.117  -9.376  10.448 +0.04 -0.05    +0.222    14.778
ATOM     19  O   UNL d   1     -13.158  -6.213  10.325 -0.01 +0.12    -0.303    14.778
ATOM     20  H   UNL d   1     -13.254  -6.196  11.295 +0.02 -0.07    +0.222    14.778
ATOM     21  O   UNL d   1      -6.878  -8.069  12.146 -0.34 +0.09    -0.278    14.778
ATOM     22  P   UNL d   1      -6.679  -9.294  13.148 -0.16 -0.11    +0.473    14.778
ATOM     23  O   UNL d   1      -5.336  -9.487  13.769 -0.30 +0.05    -0.228    14.778
ATOM     24  O   UNL d   1      -7.866  -9.064  14.183 -0.04 +0.06    -0.303    14.778
ATOM     25  H   UNL d   1      -7.555  -8.420  14.870 +0.07 -0.04    +0.222    14.778
ATOM     26  O   UNL d   1      -7.234 -10.521  12.277 -0.16 +0.07    -0.303    14.778
ATOM     27  H   UNL d   1      -7.684 -10.172  11.481 +0.10 -0.05    +0.222    14.778
ATOM     28  O   UNL d   1     -12.139  -6.729  13.088 -0.01 +0.09    -0.278    14.778
ATOM     29  P   UNL d   1     -13.297  -7.024  14.140 +0.01 -0.08    +0.473    14.778
ATOM     30  O   UNL d   1     -14.145  -8.207  13.844 +0.00 +0.03    -0.228    14.778
ATOM     31  O   UNL d   1     -12.441  -7.064  15.492 +0.00 +0.04    -0.303    14.778
ATOM     32  H   UNL d   1     -11.767  -6.347  15.458 +0.01 -0.03    +0.222    14.778
ATOM     33  O   UNL d   1     -14.033  -5.615  14.231 +0.00 +0.04    -0.303    14.778
ATOM     34  H   UNL d   1     -13.825  -5.200  15.104 +0.01 -0.02    +0.222    14.778
ATOM     35  O   UNL d   1      -7.669  -5.535  13.364 -0.16 +0.12    -0.278    14.778
ATOM     36  P   UNL d   1      -6.520  -5.302  14.446 -0.24 +0.00    +0.473    14.778
ATOM     37  O   UNL d   1      -5.369  -4.461  13.993 -0.43 -0.05    -0.228    14.778
ATOM     38  O   UNL d   1      -7.340  -4.687  15.665 -0.13 -0.09    -0.303    14.778
ATOM     39  H   UNL d   1      -8.261  -5.025  15.635 +0.06 +0.03    +0.222    14.778
ATOM     40  O   UNL d   1      -6.190  -6.785  14.916 -0.17 +0.06    -0.303    14.778
ATOM     41  H   UNL d   1      -6.337  -7.437  14.195 +0.11 -0.05    +0.222    14.778
ATOM     42  O   UNL d   1     -10.054  -6.057  14.955 -0.02 +0.05    -0.278    14.778
ATOM     43  P   UNL d   1     -10.296  -4.552  15.426 -0.05 +0.00    +0.473    14.778
ATOM     44  O   UNL d   1      -9.938  -4.205  16.830 -0.05 -0.04    -0.228    14.778
ATOM     45  O   UNL d   1      -9.509  -3.712  14.327 -0.62 -0.04    -0.303    14.778
ATOM     46  H   UNL d   1      -8.699  -4.175  14.034 -0.04 -0.01    +0.222    14.778
ATOM     47  O   UNL d   1     -11.821  -4.280  15.013 -0.01 +0.03    -0.303    14.778
ATOM     48  H   UNL d   1     -12.185  -5.079  14.579 +0.02 -0.04    +0.222    14.778
TER
ENDMDL
MODEL       74
USER    Run = 74
USER    Cluster Rank = 43
USER    Number of conformations in this cluster = 1
USER  
USER    RMSD from reference structure       = 19.161 A
USER  
USER    Estimated Free Energy of Binding    =   +2.89 kcal/mol  [=(1)+(2)+(3)-(4)]
USER    
USER    (1) Final Intermolecular Energy     =   -4.27 kcal/mol
USER        vdW + Hbond + desolv Energy     =   -3.69 kcal/mol
USER        Electrostatic Energy            =   -0.59 kcal/mol
USER    (2) Final Total Internal Energy     =  -15.45 kcal/mol
USER    (3) Torsional Free Energy           =   +7.16 kcal/mol
USER    (4) Unbound System's Energy  [=(2)] =  -15.45 kcal/mol
USER    
USER    
USER  
USER    DPF = D:/Protein_go_brrr/autodock/final/mut_N102T/IHP/dock.dpf
USER    NEWDPF move	IHP_ideal_opt.pdbqt
USER    NEWDPF about	0.035000 0.082000 -0.065000
USER    NEWDPF tran0	10.819805 -14.440730 -11.561687
USER    NEWDPF axisangle0	-0.019179 -0.972100 0.233779 -161.499326
USER    NEWDPF quaternion0	-0.018930 -0.959459 0.230739 -0.160748
USER    NEWDPF dihe0	79.62 74.76 174.52 -9.20 -27.70 179.99 -116.50 -90.25 101.78 78.22 22.59 -118.79 142.05 -179.57 177.30 -146.47 106.67 -76.80 52.34 9.95 167.37 4.51 -9.33 172.33 
USER  
USER                              x       y       z    vdW   Elec        q     RMS 
ATOM      1  C   UNL d   1       9.415 -15.440 -11.453 -0.14 -0.07    +0.194    19.161
ATOM      2  C   UNL d   1      10.745 -16.135 -11.156 -0.07 -0.04    +0.194    19.161
ATOM      3  C   UNL d   1      11.833 -15.728 -12.152 -0.03 -0.03    +0.194    19.161
ATOM      4  C   UNL d   1      11.989 -14.215 -12.287 -0.06 -0.02    +0.194    19.161
ATOM      5  C   UNL d   1      10.673 -13.469 -12.470 -0.12 -0.04    +0.194    19.161
ATOM      6  C   UNL d   1       9.567 -13.920 -11.514 -0.12 -0.07    +0.194    19.161
ATOM      7  O   UNL d   1       8.510 -15.736 -10.388 -0.71 +0.16    -0.278    19.161
ATOM      8  P   UNL d   1       7.950 -17.227 -10.258 -0.09 -0.35    +0.473    19.161
ATOM      9  O   UNL d   1       6.788 -17.387  -9.342 -0.27 +0.17    -0.228    19.161
ATOM     10  O   UNL d   1       7.628 -17.651 -11.762 -0.04 +0.33    -0.303    19.161
ATOM     11  H   UNL d   1       6.784 -17.248 -12.042 -0.41 -0.60    +0.222    19.161
ATOM     12  O   UNL d   1       9.223 -18.118  -9.927 -0.03 +0.09    -0.303    19.161
ATOM     13  H   UNL d   1       9.918 -17.629  -9.431 +0.05 -0.05    +0.222    19.161
ATOM     14  O   UNL d   1      11.176 -15.774  -9.838 -0.06 +0.05    -0.278    19.161
ATOM     15  P   UNL d   1      11.866 -16.929  -8.969 -0.03 -0.06    +0.473    19.161
ATOM     16  O   UNL d   1      11.256 -17.222  -7.634 -0.06 +0.03    -0.228    19.161
ATOM     17  O   UNL d   1      11.869 -18.194  -9.938 -0.00 +0.03    -0.303    19.161
ATOM     18  H   UNL d   1      12.591 -18.134 -10.592 +0.01 -0.02    +0.222    19.161
ATOM     19  O   UNL d   1      13.409 -16.540  -8.947 -0.03 +0.03    -0.303    19.161
ATOM     20  H   UNL d   1      13.819 -16.643  -9.826 +0.01 -0.02    +0.222    19.161
ATOM     21  O   UNL d   1       8.343 -13.397 -12.025 -0.23 +0.16    -0.278    19.161
ATOM     22  P   UNL d   1       7.791 -13.906 -13.433 -0.12 -0.13    +0.473    19.161
ATOM     23  O   UNL d   1       6.929 -12.983 -14.227 -0.46 -0.17    -0.228    19.161
ATOM     24  O   UNL d   1       9.130 -14.361 -14.162 -0.02 +0.03    -0.303    19.161
ATOM     25  H   UNL d   1       9.459 -13.601 -14.706 +0.04 +0.01    +0.222    19.161
ATOM     26  O   UNL d   1       7.134 -15.313 -13.036 -0.03 +0.36    -0.303    19.161
ATOM     27  H   UNL d   1       7.166 -15.421 -12.064 -0.32 -0.42    +0.222    19.161
ATOM     28  O   UNL d   1      13.076 -16.191 -11.643 -0.01 +0.03    -0.278    19.161
ATOM     29  P   UNL d   1      13.901 -17.306 -12.426 +0.01 -0.03    +0.473    19.161
ATOM     30  O   UNL d   1      15.093 -17.839 -11.716 -0.00 +0.01    -0.228    19.161
ATOM     31  O   UNL d   1      12.727 -18.344 -12.753 +0.00 +0.02    -0.303    19.161
ATOM     32  H   UNL d   1      12.388 -18.711 -11.905 +0.00 -0.02    +0.222    19.161
ATOM     33  O   UNL d   1      14.155 -16.607 -13.834 +0.00 +0.02    -0.303    19.161
ATOM     34  H   UNL d   1      13.397 -16.005 -14.035 +0.00 -0.01    +0.222    19.161
ATOM     35  O   UNL d   1      10.957 -12.104 -12.170 -0.14 +0.07    -0.278    19.161
ATOM     36  P   UNL d   1      10.703 -10.970 -13.262 -0.06 -0.04    +0.473    19.161
ATOM     37  O   UNL d   1      10.373  -9.615 -12.721 -0.16 +0.02    -0.228    19.161
ATOM     38  O   UNL d   1      12.050 -11.026 -14.110 -0.01 +0.01    -0.303    19.161
ATOM     39  H   UNL d   1      12.390 -11.947 -14.113 +0.02 -0.01    +0.222    19.161
ATOM     40  O   UNL d   1       9.624 -11.650 -14.213 -0.07 -0.04    -0.303    19.161
ATOM     41  H   UNL d   1       8.989 -12.202 -13.707 +0.04 +0.01    +0.222    19.161
ATOM     42  O   UNL d   1      12.772 -13.982 -13.462 -0.01 +0.02    -0.278    19.161
ATOM     43  P   UNL d   1      12.212 -14.473 -14.872 +0.01 -0.02    +0.473    19.161
ATOM     44  O   UNL d   1      11.353 -15.690 -14.884 +0.00 +0.01    -0.228    19.161
ATOM     45  O   UNL d   1      11.500 -13.168 -15.439 +0.00 -0.00    -0.303    19.161
ATOM     46  H   UNL d   1      10.889 -12.779 -14.782 +0.03 +0.00    +0.222    19.161
ATOM     47  O   UNL d   1      13.529 -14.547 -15.784 +0.00 +0.01    -0.303    19.161
ATOM     48  H   UNL d   1      14.159 -15.185 -15.389 +0.00 -0.01    +0.222    19.161
TER
ENDMDL
MODEL       93
USER    Run = 93
USER    Cluster Rank = 44
USER    Number of conformations in this cluster = 1
USER  
USER    RMSD from reference structure       = 19.270 A
USER  
USER    Estimated Free Energy of Binding    =   +2.92 kcal/mol  [=(1)+(2)+(3)-(4)]
USER    
USER    (1) Final Intermolecular Energy     =   -4.24 kcal/mol
USER        vdW + Hbond + desolv Energy     =   -4.02 kcal/mol
USER        Electrostatic Energy            =   -0.22 kcal/mol
USER    (2) Final Total Internal Energy     =  -11.14 kcal/mol
USER    (3) Torsional Free Energy           =   +7.16 kcal/mol
USER    (4) Unbound System's Energy  [=(2)] =  -11.14 kcal/mol
USER    
USER    
USER  
USER    DPF = D:/Protein_go_brrr/autodock/final/mut_N102T/IHP/dock.dpf
USER    NEWDPF move	IHP_ideal_opt.pdbqt
USER    NEWDPF about	0.035000 0.082000 -0.065000
USER    NEWDPF tran0	-8.970050 10.994518 -17.162594
USER    NEWDPF axisangle0	-0.768122 0.138420 -0.625162 -61.463321
USER    NEWDPF quaternion0	-0.392524 0.070735 -0.319469 -0.859570
USER    NEWDPF dihe0	-12.28 96.76 27.26 85.35 -29.32 53.67 -178.83 -111.66 15.94 -113.78 -29.72 -74.17 -56.59 -25.92 -70.81 -50.38 -85.92 -115.27 43.67 11.94 -169.73 143.18 -178.71 156.03 
USER  
USER                              x       y       z    vdW   Elec        q     RMS 
ATOM      1  C   UNL d   1      -8.129  10.302 -15.822 -0.13 +0.00    +0.194    19.270
ATOM      2  C   UNL d   1      -9.644  10.432 -15.656 -0.08 +0.00    +0.194    19.270
ATOM      3  C   UNL d   1     -10.156  11.783 -16.161 -0.03 +0.00    +0.194    19.270
ATOM      4  C   UNL d   1      -9.701  12.105 -17.582 -0.02 +0.01    +0.194    19.270
ATOM      5  C   UNL d   1      -8.214  11.879 -17.824 -0.06 +0.01    +0.194    19.270
ATOM      6  C   UNL d   1      -7.690  10.554 -17.265 -0.12 +0.01    +0.194    19.270
ATOM      7  O   UNL d   1      -7.758   8.961 -15.492 -0.15 +0.00    -0.278    19.270
ATOM      8  P   UNL d   1      -7.644   8.563 -13.949 -0.21 -0.10    +0.473    19.270
ATOM      9  O   UNL d   1      -7.832   9.686 -12.992 -0.11 +0.03    -0.228    19.270
ATOM     10  O   UNL d   1      -8.721   7.399 -13.770 -0.20 +0.07    -0.303    19.270
ATOM     11  H   UNL d   1      -8.832   7.199 -12.822 -0.41 -0.12    +0.222    19.270
ATOM     12  O   UNL d   1      -6.273   7.769 -13.828 -0.42 +0.14    -0.303    19.270
ATOM     13  H   UNL d   1      -5.511   8.254 -14.218 -0.41 -0.17    +0.222    19.270
ATOM     14  O   UNL d   1     -10.287   9.392 -16.404 -0.08 -0.02    -0.278    19.270
ATOM     15  P   UNL d   1     -11.606   8.755 -15.756 -0.05 +0.02    +0.473    19.270
ATOM     16  O   UNL d   1     -12.424   9.651 -14.880 -0.02 -0.00    -0.228    19.270
ATOM     17  O   UNL d   1     -12.423   8.200 -17.006 -0.05 -0.01    -0.303    19.270
ATOM     18  H   UNL d   1     -12.758   8.932 -17.560 +0.02 +0.01    +0.222    19.270
ATOM     19  O   UNL d   1     -11.103   7.406 -15.079 -0.10 -0.01    -0.303    19.270
ATOM     20  H   UNL d   1     -10.158   7.451 -14.844 +0.05 +0.01    +0.222    19.270
ATOM     21  O   UNL d   1      -6.267  10.644 -17.259 -0.18 -0.01    -0.278    19.270
ATOM     22  P   UNL d   1      -5.518  11.266 -15.996 -0.20 -0.04    +0.473    19.270
ATOM     23  O   UNL d   1      -6.113  12.469 -15.345 -0.08 +0.00    -0.228    19.270
ATOM     24  O   UNL d   1      -5.372   9.997 -15.046 -0.16 +0.10    -0.303    19.270
ATOM     25  H   UNL d   1      -6.131  10.000 -14.408 +0.07 -0.05    +0.222    19.270
ATOM     26  O   UNL d   1      -4.024  11.435 -16.553 -0.34 +0.04    -0.303    19.270
ATOM     27  H   UNL d   1      -3.412  10.911 -15.998 -0.39 -0.11    +0.222    19.270
ATOM     28  O   UNL d   1     -11.574  11.707 -16.227 -0.01 -0.01    -0.278    19.270
ATOM     29  P   UNL d   1     -12.309  11.591 -17.635 -0.01 +0.01    +0.473    19.270
ATOM     30  O   UNL d   1     -12.390  12.849 -18.420 -0.00 -0.01    -0.228    19.270
ATOM     31  O   UNL d   1     -11.483  10.383 -18.282 -0.03 -0.01    -0.303    19.270
ATOM     32  H   UNL d   1     -11.155  10.665 -19.167 +0.01 +0.01    +0.222    19.270
ATOM     33  O   UNL d   1     -13.687  10.900 -17.236 -0.00 -0.00    -0.303    19.270
ATOM     34  H   UNL d   1     -13.497  10.082 -16.716 +0.01 +0.00    +0.222    19.270
ATOM     35  O   UNL d   1      -8.056  11.828 -19.241 -0.03 -0.02    -0.278    19.270
ATOM     36  P   UNL d   1      -9.022  10.918 -20.126 -0.03 +0.03    +0.473    19.270
ATOM     37  O   UNL d   1      -9.332   9.568 -19.561 -0.10 -0.02    -0.228    19.270
ATOM     38  O   UNL d   1     -10.292  11.863 -20.299 -0.01 -0.01    -0.303    19.270
ATOM     39  H   UNL d   1     -10.603  12.148 -19.413 +0.01 +0.01    +0.222    19.270
ATOM     40  O   UNL d   1      -8.316  10.959 -21.551 -0.01 -0.02    -0.303    19.270
ATOM     41  H   UNL d   1      -8.954  10.786 -22.278 +0.01 +0.01    +0.222    19.270
ATOM     42  O   UNL d   1      -9.954  13.498 -17.793 -0.00 -0.01    -0.278    19.270
ATOM     43  P   UNL d   1      -9.550  14.537 -16.652 -0.00 +0.02    +0.473    19.270
ATOM     44  O   UNL d   1     -10.339  14.510 -15.388 -0.00 -0.01    -0.228    19.270
ATOM     45  O   UNL d   1      -7.997  14.253 -16.456 -0.01 -0.02    -0.303    19.270
ATOM     46  H   UNL d   1      -7.828  13.725 -15.650 +0.02 +0.01    +0.222    19.270
ATOM     47  O   UNL d   1      -9.530  15.941 -17.425 -0.00 -0.02    -0.303    19.270
ATOM     48  H   UNL d   1     -10.329  16.454 -17.184 +0.00 +0.01    +0.222    19.270
TER
ENDMDL
MODEL       84
USER    Run = 84
USER    Cluster Rank = 45
USER    Number of conformations in this cluster = 1
USER  
USER    RMSD from reference structure       = 15.733 A
USER  
USER    Estimated Free Energy of Binding    =   +2.94 kcal/mol  [=(1)+(2)+(3)-(4)]
USER    
USER    (1) Final Intermolecular Energy     =   -4.22 kcal/mol
USER        vdW + Hbond + desolv Energy     =   -3.91 kcal/mol
USER        Electrostatic Energy            =   -0.32 kcal/mol
USER    (2) Final Total Internal Energy     =  -13.07 kcal/mol
USER    (3) Torsional Free Energy           =   +7.16 kcal/mol
USER    (4) Unbound System's Energy  [=(2)] =  -13.07 kcal/mol
USER    
USER    
USER  
USER    DPF = D:/Protein_go_brrr/autodock/final/mut_N102T/IHP/dock.dpf
USER    NEWDPF move	IHP_ideal_opt.pdbqt
USER    NEWDPF about	0.035000 0.082000 -0.065000
USER    NEWDPF tran0	18.684926 6.045289 -2.711015
USER    NEWDPF axisangle0	-0.052661 -0.990278 -0.128752 -174.920905
USER    NEWDPF quaternion0	-0.052609 -0.989305 -0.128626 -0.044309
USER    NEWDPF dihe0	160.95 60.54 -180.00 140.11 0.10 167.85 -122.66 -2.81 56.92 -30.34 33.42 -23.83 -6.83 102.16 29.01 33.08 156.63 -93.78 13.11 -31.05 170.22 -53.86 -0.27 154.96 
USER  
USER                              x       y       z    vdW   Elec        q     RMS 
ATOM      1  C   UNL d   1      17.283   5.513  -3.568 -0.12 -0.05    +0.194    15.733
ATOM      2  C   UNL d   1      18.453   4.528  -3.540 -0.06 +0.00    +0.194    15.733
ATOM      3  C   UNL d   1      19.791   5.232  -3.781 +0.00 -0.00    +0.194    15.733
ATOM      4  C   UNL d   1      20.018   6.426  -2.858 -0.00 -0.00    +0.194    15.733
ATOM      5  C   UNL d   1      18.830   7.375  -2.766 -0.03 -0.03    +0.194    15.733
ATOM      6  C   UNL d   1      17.485   6.668  -2.586 -0.02 -0.09    +0.194    15.733
ATOM      7  O   UNL d   1      16.102   4.814  -3.166 -0.11 +0.19    -0.278    15.733
ATOM      8  P   UNL d   1      14.986   4.512  -4.268 -0.18 -0.23    +0.473    15.733
ATOM      9  O   UNL d   1      15.502   4.000  -5.566 -0.11 +0.04    -0.228    15.733
ATOM     10  O   UNL d   1      13.991   3.497  -3.543 -0.15 +0.18    -0.303    15.733
ATOM     11  H   UNL d   1      14.279   3.359  -2.621 -0.38 -0.26    +0.222    15.733
ATOM     12  O   UNL d   1      14.112   5.837  -4.343 -0.89 +0.14    -0.303    15.733
ATOM     13  H   UNL d   1      14.547   6.611  -3.919 -0.19 -0.16    +0.222    15.733
ATOM     14  O   UNL d   1      18.498   3.892  -2.256 -0.41 -0.13    -0.278    15.733
ATOM     15  P   UNL d   1      17.883   2.416  -2.168 -0.00 +0.23    +0.473    15.733
ATOM     16  O   UNL d   1      18.360   1.556  -1.040 -0.20 -0.12    -0.228    15.733
ATOM     17  O   UNL d   1      16.308   2.654  -2.140 -0.17 -0.09    -0.303    15.733
ATOM     18  H   UNL d   1      15.951   2.752  -3.043 +0.05 -0.03    +0.222    15.733
ATOM     19  O   UNL d   1      18.089   1.813  -3.625 -0.01 -0.02    -0.303    15.733
ATOM     20  H   UNL d   1      18.998   1.487  -3.755 +0.01 +0.01    +0.222    15.733
ATOM     21  O   UNL d   1      16.472   7.633  -2.861 -0.11 +0.19    -0.278    15.733
ATOM     22  P   UNL d   1      16.289   8.188  -4.346 -0.10 -0.15    +0.473    15.733
ATOM     23  O   UNL d   1      15.984   7.211  -5.431 -0.14 +0.06    -0.228    15.733
ATOM     24  O   UNL d   1      15.189   9.319  -4.137 -0.25 +0.07    -0.303    15.733
ATOM     25  H   UNL d   1      14.344   8.880  -3.862 -0.42 -0.12    +0.222    15.733
ATOM     26  O   UNL d   1      17.624   9.055  -4.535 -0.02 +0.05    -0.303    15.733
ATOM     27  H   UNL d   1      18.111   9.087  -3.686 +0.03 -0.04    +0.222    15.733
ATOM     28  O   UNL d   1      20.824   4.307  -3.465 +0.00 -0.01    -0.278    15.733
ATOM     29  P   UNL d   1      20.890   2.894  -4.196 +0.02 +0.01    +0.473    15.733
ATOM     30  O   UNL d   1      19.925   2.702  -5.309 +0.00 +0.00    -0.228    15.733
ATOM     31  O   UNL d   1      22.446   2.844  -4.567 +0.00 +0.00    -0.303    15.733
ATOM     32  H   UNL d   1      22.619   3.498  -5.283 +0.00 -0.00    +0.222    15.733
ATOM     33  O   UNL d   1      20.788   1.880  -2.972 +0.00 -0.02    -0.303    15.733
ATOM     34  H   UNL d   1      19.964   2.074  -2.462 +0.01 +0.03    +0.222    15.733
ATOM     35  O   UNL d   1      19.051   8.160  -1.597 -0.03 +0.04    -0.278    15.733
ATOM     36  P   UNL d   1      18.936   9.750  -1.662 +0.01 -0.06    +0.473    15.733
ATOM     37  O   UNL d   1      19.640  10.493  -0.570 +0.00 +0.01    -0.228    15.733
ATOM     38  O   UNL d   1      19.488  10.057  -3.124 +0.00 +0.03    -0.303    15.733
ATOM     39  H   UNL d   1      19.927   9.254  -3.477 +0.01 -0.02    +0.222    15.733
ATOM     40  O   UNL d   1      17.367   9.972  -1.791 -0.03 +0.07    -0.303    15.733
ATOM     41  H   UNL d   1      17.034   9.713  -2.679 +0.04 -0.06    +0.222    15.733
ATOM     42  O   UNL d   1      21.111   7.171  -3.405 +0.00 +0.01    -0.278    15.733
ATOM     43  P   UNL d   1      21.155   7.433  -4.978 +0.01 -0.02    +0.473    15.733
ATOM     44  O   UNL d   1      20.923   6.266  -5.875 +0.00 +0.01    -0.228    15.733
ATOM     45  O   UNL d   1      20.108   8.616  -5.164 +0.00 +0.02    -0.303    15.733
ATOM     46  H   UNL d   1      19.323   8.493  -4.593 +0.01 -0.02    +0.222    15.733
ATOM     47  O   UNL d   1      22.549   8.197  -5.183 +0.00 +0.01    -0.303    15.733
ATOM     48  H   UNL d   1      22.862   8.057  -6.101 +0.00 -0.01    +0.222    15.733
TER
ENDMDL
MODEL        1
USER    Run = 1
USER    Cluster Rank = 46
USER    Number of conformations in this cluster = 1
USER  
USER    RMSD from reference structure       = 12.724 A
USER  
USER    Estimated Free Energy of Binding    =   +3.02 kcal/mol  [=(1)+(2)+(3)-(4)]
USER    
USER    (1) Final Intermolecular Energy     =   -4.14 kcal/mol
USER        vdW + Hbond + desolv Energy     =   -4.09 kcal/mol
USER        Electrostatic Energy            =   -0.05 kcal/mol
USER    (2) Final Total Internal Energy     =  -13.62 kcal/mol
USER    (3) Torsional Free Energy           =   +7.16 kcal/mol
USER    (4) Unbound System's Energy  [=(2)] =  -13.62 kcal/mol
USER    
USER    
USER  
USER    DPF = D:/Protein_go_brrr/autodock/final/mut_N102T/IHP/dock.dpf
USER    NEWDPF move	IHP_ideal_opt.pdbqt
USER    NEWDPF about	0.035000 0.082000 -0.065000
USER    NEWDPF tran0	-9.691960 -12.242108 -5.178894
USER    NEWDPF axisangle0	-0.748606 0.348509 -0.564031 -29.136362
USER    NEWDPF quaternion0	-0.188298 0.087661 -0.141872 -0.967849
USER    NEWDPF dihe0	109.34 91.92 37.40 56.94 -8.98 180.00 -41.80 -148.73 131.80 9.18 -121.37 152.02 -63.48 140.44 -166.88 110.97 -141.68 165.15 1.54 -20.04 -40.12 -16.78 7.40 -178.63 
USER  
USER                              x       y       z    vdW   Elec        q     RMS 
ATOM      1  C   UNL d   1      -8.547 -13.148  -4.256 -0.07 +0.08    +0.194    12.724
ATOM      2  C   UNL d   1     -10.002 -13.604  -4.135 -0.02 +0.05    +0.194    12.724
ATOM      3  C   UNL d   1     -10.958 -12.418  -3.997 -0.03 +0.03    +0.194    12.724
ATOM      4  C   UNL d   1     -10.771 -11.365  -5.087 -0.04 +0.03    +0.194    12.724
ATOM      5  C   UNL d   1      -9.321 -10.964  -5.321 -0.01 +0.05    +0.194    12.724
ATOM      6  C   UNL d   1      -8.355 -12.149  -5.398 -0.05 +0.09    +0.194    12.724
ATOM      7  O   UNL d   1      -7.744 -14.293  -4.553 -0.05 -0.20    -0.278    12.724
ATOM      8  P   UNL d   1      -6.567 -14.678  -3.543 -0.09 +0.47    +0.473    12.724
ATOM      9  O   UNL d   1      -6.245 -13.641  -2.525 -0.19 -0.18    -0.228    12.724
ATOM     10  O   UNL d   1      -7.043 -16.060  -2.903 -0.33 -0.38    -0.303    12.724
ATOM     11  H   UNL d   1      -7.968 -15.980  -2.604 +0.04 +0.17    +0.222    12.724
ATOM     12  O   UNL d   1      -5.362 -15.138  -4.470 -0.14 -0.52    -0.303    12.724
ATOM     13  H   UNL d   1      -5.195 -14.523  -5.219 +0.09 +0.52    +0.222    12.724
ATOM     14  O   UNL d   1     -10.359 -14.344  -5.310 +0.00 -0.07    -0.278    12.724
ATOM     15  P   UNL d   1     -10.619 -15.912  -5.117 +0.02 +0.12    +0.473    12.724
ATOM     16  O   UNL d   1     -10.627 -16.749  -6.357 +0.00 -0.06    -0.228    12.724
ATOM     17  O   UNL d   1      -9.504 -16.364  -4.073 +0.01 -0.12    -0.303    12.724
ATOM     18  H   UNL d   1      -8.608 -16.169  -4.409 +0.03 +0.13    +0.222    12.724
ATOM     19  O   UNL d   1     -11.937 -15.989  -4.229 +0.00 -0.04    -0.303    12.724
ATOM     20  H   UNL d   1     -12.252 -15.102  -3.974 +0.00 +0.03    +0.222    12.724
ATOM     21  O   UNL d   1      -7.039 -11.617  -5.271 -0.51 -0.21    -0.278    12.724
ATOM     22  P   UNL d   1      -5.846 -12.243  -6.126 -0.17 +0.50    +0.473    12.724
ATOM     23  O   UNL d   1      -4.539 -12.476  -5.446 -0.88 -0.31    -0.228    12.724
ATOM     24  O   UNL d   1      -6.528 -13.550  -6.727 -0.11 -0.45    -0.303    12.724
ATOM     25  H   UNL d   1      -6.596 -14.223  -6.003 +0.06 +0.35    +0.222    12.724
ATOM     26  O   UNL d   1      -5.813 -11.271  -7.400 -0.27 -0.17    -0.303    12.724
ATOM     27  H   UNL d   1      -6.442 -10.535  -7.259 +0.12 +0.09    +0.222    12.724
ATOM     28  O   UNL d   1     -12.280 -12.910  -4.170 -0.00 -0.03    -0.278    12.724
ATOM     29  P   UNL d   1     -13.153 -13.334  -2.907 +0.01 +0.03    +0.473    12.724
ATOM     30  O   UNL d   1     -13.891 -12.232  -2.239 +0.00 -0.01    -0.228    12.724
ATOM     31  O   UNL d   1     -14.028 -14.508  -3.554 +0.00 -0.02    -0.303    12.724
ATOM     32  H   UNL d   1     -13.666 -14.714  -4.446 +0.00 +0.02    +0.222    12.724
ATOM     33  O   UNL d   1     -12.095 -14.132  -2.023 +0.00 -0.02    -0.303    12.724
ATOM     34  H   UNL d   1     -12.116 -15.086  -2.280 +0.01 +0.02    +0.222    12.724
ATOM     35  O   UNL d   1      -9.297 -10.321  -6.594 -0.04 -0.06    -0.278    12.724
ATOM     36  P   UNL d   1      -8.435  -8.996  -6.810 -0.10 +0.10    +0.473    12.724
ATOM     37  O   UNL d   1      -9.191  -7.710  -6.704 -0.11 -0.04    -0.228    12.724
ATOM     38  O   UNL d   1      -7.287  -9.173  -5.720 -0.25 -0.08    -0.303    12.724
ATOM     39  H   UNL d   1      -6.771  -9.982  -5.926 +0.11 +0.09    +0.222    12.724
ATOM     40  O   UNL d   1      -7.701  -9.291  -8.190 -0.11 -0.07    -0.303    12.724
ATOM     41  H   UNL d   1      -7.507 -10.248  -8.303 +0.11 +0.06    +0.222    12.724
ATOM     42  O   UNL d   1     -11.468 -10.192  -4.654 -0.03 -0.03    -0.278    12.724
ATOM     43  P   UNL d   1     -10.883  -9.356  -3.428 -0.04 +0.06    +0.473    12.724
ATOM     44  O   UNL d   1     -11.856  -8.638  -2.558 -0.04 -0.01    -0.228    12.724
ATOM     45  O   UNL d   1      -9.998 -10.434  -2.661 -0.12 -0.04    -0.303    12.724
ATOM     46  H   UNL d   1      -9.398 -10.011  -2.015 -0.36 -0.01    +0.222    12.724
ATOM     47  O   UNL d   1      -9.759  -8.440  -4.112 -0.59 -0.07    -0.303    12.724
ATOM     48  H   UNL d   1      -9.400  -8.902  -4.897 +0.05 +0.06    +0.222    12.724
TER
ENDMDL
MODEL       20
USER    Run = 20
USER    Cluster Rank = 47
USER    Number of conformations in this cluster = 1
USER  
USER    RMSD from reference structure       = 20.294 A
USER  
USER    Estimated Free Energy of Binding    =   +3.06 kcal/mol  [=(1)+(2)+(3)-(4)]
USER    
USER    (1) Final Intermolecular Energy     =   -4.10 kcal/mol
USER        vdW + Hbond + desolv Energy     =   -3.94 kcal/mol
USER        Electrostatic Energy            =   -0.17 kcal/mol
USER    (2) Final Total Internal Energy     =  -12.62 kcal/mol
USER    (3) Torsional Free Energy           =   +7.16 kcal/mol
USER    (4) Unbound System's Energy  [=(2)] =  -12.62 kcal/mol
USER    
USER    
USER  
USER    DPF = D:/Protein_go_brrr/autodock/final/mut_N102T/IHP/dock.dpf
USER    NEWDPF move	IHP_ideal_opt.pdbqt
USER    NEWDPF about	0.035000 0.082000 -0.065000
USER    NEWDPF tran0	-1.575553 -16.283004 -16.980001
USER    NEWDPF axisangle0	0.441337 -0.734932 -0.514876 -133.301324
USER    NEWDPF quaternion0	0.405194 -0.674745 -0.472710 -0.396336
USER    NEWDPF dihe0	168.63 -166.86 -180.00 -1.51 3.90 159.00 -34.14 10.38 149.59 46.13 47.08 -145.37 -99.02 -180.00 179.58 175.61 -144.83 171.99 54.26 13.86 -36.78 18.99 158.46 -9.93 
USER  
USER                              x       y       z    vdW   Elec        q     RMS 
ATOM      1  C   UNL d   1      -2.597 -17.387 -17.831 -0.02 +0.00    +0.194    20.294
ATOM      2  C   UNL d   1      -1.674 -16.534 -18.703 -0.01 +0.00    +0.194    20.294
ATOM      3  C   UNL d   1      -1.637 -15.078 -18.235 -0.05 +0.00    +0.194    20.294
ATOM      4  C   UNL d   1      -1.323 -14.932 -16.748 -0.10 +0.01    +0.194    20.294
ATOM      5  C   UNL d   1      -2.142 -15.849 -15.848 -0.15 +0.02    +0.194    20.294
ATOM      6  C   UNL d   1      -2.229 -17.292 -16.349 -0.09 +0.01    +0.194    20.294
ATOM      7  O   UNL d   1      -2.443 -18.753 -18.221 -0.00 -0.00    -0.278    20.294
ATOM      8  P   UNL d   1      -2.971 -19.195 -19.662 +0.00 +0.00    +0.473    20.294
ATOM      9  O   UNL d   1      -4.341 -18.726 -20.004 +0.00 -0.00    -0.228    20.294
ATOM     10  O   UNL d   1      -1.854 -18.655 -20.666 +0.00 +0.00    -0.303    20.294
ATOM     11  H   UNL d   1      -1.075 -18.359 -20.159 +0.00 -0.00    +0.222    20.294
ATOM     12  O   UNL d   1      -2.740 -20.766 -19.723 +0.00 -0.00    -0.303    20.294
ATOM     13  H   UNL d   1      -3.415 -21.234 -20.264 +0.00 -0.00    +0.222    20.294
ATOM     14  O   UNL d   1      -0.345 -17.068 -18.638 -0.00 -0.00    -0.278    20.294
ATOM     15  P   UNL d   1       0.534 -16.966 -19.972 +0.00 +0.01    +0.473    20.294
ATOM     16  O   UNL d   1       1.101 -18.245 -20.503 -0.00 -0.00    -0.228    20.294
ATOM     17  O   UNL d   1      -0.427 -16.237 -21.014 -0.00 -0.00    -0.303    20.294
ATOM     18  H   UNL d   1      -0.387 -15.267 -20.909 +0.02 +0.00    +0.222    20.294
ATOM     19  O   UNL d   1       1.595 -15.822 -19.662 -0.00 -0.01    -0.303    20.294
ATOM     20  H   UNL d   1       1.161 -14.967 -19.483 +0.03 +0.01    +0.222    20.294
ATOM     21  O   UNL d   1      -3.279 -17.919 -15.617 -0.11 -0.01    -0.278    20.294
ATOM     22  P   UNL d   1      -3.097 -19.417 -15.097 -0.06 +0.01    +0.473    20.294
ATOM     23  O   UNL d   1      -4.314 -20.269 -14.962 -0.04 -0.01    -0.228    20.294
ATOM     24  O   UNL d   1      -1.998 -19.978 -16.102 -0.01 -0.00    -0.303    20.294
ATOM     25  H   UNL d   1      -2.374 -19.951 -17.018 +0.01 +0.00    +0.222    20.294
ATOM     26  O   UNL d   1      -2.241 -19.195 -13.760 -0.02 +0.00    -0.303    20.294
ATOM     27  H   UNL d   1      -1.872 -18.289 -13.761 -0.04 -0.02    +0.222    20.294
ATOM     28  O   UNL d   1      -0.563 -14.437 -18.912 -0.04 -0.00    -0.278    20.294
ATOM     29  P   UNL d   1      -0.799 -13.055 -19.668 -0.14 -0.02    +0.473    20.294
ATOM     30  O   UNL d   1       0.374 -12.146 -19.722 -0.26 -0.00    -0.228    20.294
ATOM     31  O   UNL d   1      -1.366 -13.594 -21.064 -0.09 +0.01    -0.303    20.294
ATOM     32  H   UNL d   1      -1.660 -14.527 -20.945 +0.03 -0.00    +0.222    20.294
ATOM     33  O   UNL d   1      -2.107 -12.500 -18.949 -0.13 +0.07    -0.303    20.294
ATOM     34  H   UNL d   1      -1.880 -12.245 -18.021 -0.39 -0.11    +0.222    20.294
ATOM     35  O   UNL d   1      -1.455 -15.879 -14.599 -0.18 -0.00    -0.278    20.294
ATOM     36  P   UNL d   1      -0.059 -16.640 -14.467 -0.07 -0.01    +0.473    20.294
ATOM     37  O   UNL d   1      -0.122 -18.002 -13.852 -0.12 +0.01    -0.228    20.294
ATOM     38  O   UNL d   1       0.465 -16.624 -15.970 -0.02 -0.00    -0.303    20.294
ATOM     39  H   UNL d   1       0.850 -15.743 -16.167 +0.05 +0.01    +0.222    20.294
ATOM     40  O   UNL d   1       0.849 -15.559 -13.734 -0.16 -0.01    -0.303    20.294
ATOM     41  H   UNL d   1       0.335 -14.758 -13.488 +0.12 +0.01    +0.222    20.294
ATOM     42  O   UNL d   1      -1.649 -13.586 -16.386 -0.21 -0.01    -0.278    20.294
ATOM     43  P   UNL d   1      -0.506 -12.651 -15.782 -0.18 +0.02    +0.473    20.294
ATOM     44  O   UNL d   1      -0.892 -11.711 -14.692 -0.99 -0.04    -0.228    20.294
ATOM     45  O   UNL d   1       0.619 -13.698 -15.370 -0.08 -0.04    -0.303    20.294
ATOM     46  H   UNL d   1       0.238 -14.580 -15.185 +0.10 +0.01    +0.222    20.294
ATOM     47  O   UNL d   1       0.139 -11.974 -17.083 -0.17 +0.00    -0.303    20.294
ATOM     48  H   UNL d   1      -0.560 -11.839 -17.757 -0.38 -0.08    +0.222    20.294
TER
ENDMDL
MODEL       42
USER    Run = 42
USER    Cluster Rank = 48
USER    Number of conformations in this cluster = 1
USER  
USER    RMSD from reference structure       = 23.787 A
USER  
USER    Estimated Free Energy of Binding    =   +3.08 kcal/mol  [=(1)+(2)+(3)-(4)]
USER    
USER    (1) Final Intermolecular Energy     =   -4.08 kcal/mol
USER        vdW + Hbond + desolv Energy     =   -3.68 kcal/mol
USER        Electrostatic Energy            =   -0.40 kcal/mol
USER    (2) Final Total Internal Energy     =  -12.83 kcal/mol
USER    (3) Torsional Free Energy           =   +7.16 kcal/mol
USER    (4) Unbound System's Energy  [=(2)] =  -12.83 kcal/mol
USER    
USER    
USER  
USER    DPF = D:/Protein_go_brrr/autodock/final/mut_N102T/IHP/dock.dpf
USER    NEWDPF move	IHP_ideal_opt.pdbqt
USER    NEWDPF about	0.035000 0.082000 -0.065000
USER    NEWDPF tran0	0.402899 13.988121 -22.169785
USER    NEWDPF axisangle0	0.989762 -0.128990 0.061095 -174.612347
USER    NEWDPF quaternion0	0.988668 -0.128847 0.061028 -0.046999
USER    NEWDPF dihe0	134.46 32.70 -180.00 -15.42 52.36 -140.64 -142.11 89.96 133.23 133.03 50.30 -113.49 -26.27 82.18 -52.09 -1.28 -144.67 -85.61 10.99 -43.12 -33.82 55.04 3.65 178.30 
USER  
USER                              x       y       z    vdW   Elec        q     RMS 
ATOM      1  C   UNL d   1       1.922  14.445 -22.854 -0.04 +0.04    +0.194    23.787
ATOM      2  C   UNL d   1       0.894  15.569 -22.717 -0.08 +0.10    +0.194    23.787
ATOM      3  C   UNL d   1      -0.504  15.114 -23.140 -0.09 +0.11    +0.194    23.787
ATOM      4  C   UNL d   1      -0.955  13.832 -22.444 -0.12 +0.08    +0.194    23.787
ATOM      5  C   UNL d   1       0.086  12.720 -22.457 -0.11 +0.03    +0.194    23.787
ATOM      6  C   UNL d   1       1.497  13.188 -22.093 -0.09 +0.03    +0.194    23.787
ATOM      7  O   UNL d   1       3.153  14.893 -22.281 -0.01 -0.04    -0.278    23.787
ATOM      8  P   UNL d   1       4.392  15.155 -23.254 +0.01 +0.03    +0.473    23.787
ATOM      9  O   UNL d   1       4.032  15.480 -24.661 +0.00 -0.02    -0.228    23.787
ATOM     10  O   UNL d   1       5.213  16.317 -22.532 +0.00 -0.02    -0.303    23.787
ATOM     11  H   UNL d   1       4.620  16.816 -21.939 +0.01 +0.02    +0.222    23.787
ATOM     12  O   UNL d   1       5.346  13.900 -23.055 +0.00 -0.00    -0.303    23.787
ATOM     13  H   UNL d   1       5.104  13.352 -22.275 +0.02 -0.01    +0.222    23.787
ATOM     14  O   UNL d   1       0.842  15.990 -21.348 -0.09 -0.24    -0.278    23.787
ATOM     15  P   UNL d   1       1.867  17.142 -20.914 -0.07 +0.33    +0.473    23.787
ATOM     16  O   UNL d   1       1.330  18.220 -20.026 -0.62 -0.26    -0.228    23.787
ATOM     17  O   UNL d   1       3.084  16.350 -20.257 -0.03 -0.08    -0.303    23.787
ATOM     18  H   UNL d   1       3.712  16.044 -20.939 +0.03 +0.03    +0.222    23.787
ATOM     19  O   UNL d   1       2.509  17.638 -22.282 -0.02 -0.12    -0.303    23.787
ATOM     20  H   UNL d   1       3.161  16.999 -22.626 +0.01 +0.05    +0.222    23.787
ATOM     21  O   UNL d   1       2.389  12.145 -22.477 -0.03 -0.01    -0.278    23.787
ATOM     22  P   UNL d   1       3.567  11.707 -21.494 -0.06 -0.05    +0.473    23.787
ATOM     23  O   UNL d   1       4.019  12.682 -20.459 -0.11 +0.05    -0.228    23.787
ATOM     24  O   UNL d   1       3.015  10.330 -20.918 -0.12 +0.05    -0.303    23.787
ATOM     25  H   UNL d   1       2.053  10.264 -21.145 +0.06 -0.02    +0.222    23.787
ATOM     26  O   UNL d   1       4.686  11.209 -22.528 -0.02 +0.02    -0.303    23.787
ATOM     27  H   UNL d   1       4.762  11.857 -23.257 +0.02 -0.00    +0.222    23.787
ATOM     28  O   UNL d   1      -1.425  16.113 -22.723 -0.49 -0.35    -0.278    23.787
ATOM     29  P   UNL d   1      -2.911  16.127 -23.294 -0.06 +0.38    +0.473    23.787
ATOM     30  O   UNL d   1      -3.085  15.528 -24.642 -0.02 -0.08    -0.228    23.787
ATOM     31  O   UNL d   1      -3.683  15.423 -22.082 -0.14 -0.23    -0.303    23.787
ATOM     32  H   UNL d   1      -3.698  14.451 -22.241 +0.03 +0.10    +0.222    23.787
ATOM     33  O   UNL d   1      -3.318  17.657 -23.130 -0.40 -0.34    -0.303    23.787
ATOM     34  H   UNL d   1      -3.952  17.900 -23.848 +0.01 +0.13    +0.222    23.787
ATOM     35  O   UNL d   1      -0.322  11.796 -21.450 -0.18 -0.02    -0.278    23.787
ATOM     36  P   UNL d   1      -0.326  10.229 -21.749 -0.13 -0.02    +0.473    23.787
ATOM     37  O   UNL d   1      -1.661   9.639 -22.076 -0.13 +0.00    -0.228    23.787
ATOM     38  O   UNL d   1       0.744  10.119 -22.923 -0.03 -0.00    -0.303    23.787
ATOM     39  H   UNL d   1       1.621  10.402 -22.586 +0.05 -0.00    +0.222    23.787
ATOM     40  O   UNL d   1       0.433   9.639 -20.482 -0.24 +0.04    -0.303    23.787
ATOM     41  H   UNL d   1      -0.192   9.402 -19.761 -0.36 -0.08    +0.222    23.787
ATOM     42  O   UNL d   1      -2.095  13.349 -23.163 -0.05 -0.07    -0.278    23.787
ATOM     43  P   UNL d   1      -1.899  12.821 -24.656 -0.00 +0.07    +0.473    23.787
ATOM     44  O   UNL d   1      -0.967  13.581 -25.536 -0.00 -0.03    -0.228    23.787
ATOM     45  O   UNL d   1      -1.492  11.299 -24.437 -0.01 -0.02    -0.303    23.787
ATOM     46  H   UNL d   1      -1.118  11.153 -23.545 +0.03 +0.02    +0.222    23.787
ATOM     47  O   UNL d   1      -3.402  12.683 -25.196 -0.00 -0.03    -0.303    23.787
ATOM     48  H   UNL d   1      -3.811  13.571 -25.243 +0.01 +0.03    +0.222    23.787
TER
ENDMDL
MODEL       58
USER    Run = 58
USER    Cluster Rank = 49
USER    Number of conformations in this cluster = 1
USER  
USER    RMSD from reference structure       = 15.102 A
USER  
USER    Estimated Free Energy of Binding    =   +3.10 kcal/mol  [=(1)+(2)+(3)-(4)]
USER    
USER    (1) Final Intermolecular Energy     =   -4.06 kcal/mol
USER        vdW + Hbond + desolv Energy     =   -3.98 kcal/mol
USER        Electrostatic Energy            =   -0.09 kcal/mol
USER    (2) Final Total Internal Energy     =  -12.44 kcal/mol
USER    (3) Torsional Free Energy           =   +7.16 kcal/mol
USER    (4) Unbound System's Energy  [=(2)] =  -12.44 kcal/mol
USER    
USER    
USER  
USER    DPF = D:/Protein_go_brrr/autodock/final/mut_N102T/IHP/dock.dpf
USER    NEWDPF move	IHP_ideal_opt.pdbqt
USER    NEWDPF about	0.035000 0.082000 -0.065000
USER    NEWDPF tran0	-13.499294 4.956250 11.910918
USER    NEWDPF axisangle0	-0.313143 -0.491642 -0.812545 85.824762
USER    NEWDPF quaternion0	-0.213212 -0.334749 -0.553245 0.732396
USER    NEWDPF dihe0	145.35 -83.39 124.57 59.72 -10.91 -46.25 -95.75 -25.20 1.77 59.23 0.97 157.01 -76.97 -127.59 -76.89 33.24 -40.04 -151.11 33.20 -0.97 12.16 24.11 177.09 -11.64 
USER  
USER                              x       y       z    vdW   Elec        q     RMS 
ATOM      1  C   UNL d   1     -12.127   5.933  11.528 -0.13 -0.00    +0.194    15.102
ATOM      2  C   UNL d   1     -12.062   4.483  11.044 -0.10 -0.01    +0.194    15.102
ATOM      3  C   UNL d   1     -12.557   3.506  12.112 -0.13 -0.00    +0.194    15.102
ATOM      4  C   UNL d   1     -13.932   3.869  12.668 -0.03 -0.00    +0.194    15.102
ATOM      5  C   UNL d   1     -14.078   5.334  13.057 -0.02 -0.00    +0.194    15.102
ATOM      6  C   UNL d   1     -13.527   6.310  12.015 -0.03 -0.00    +0.194    15.102
ATOM      7  O   UNL d   1     -11.816   6.786  10.424 -0.11 +0.00    -0.278    15.102
ATOM      8  P   UNL d   1     -10.287   7.173  10.170 -0.28 +0.00    +0.473    15.102
ATOM      9  O   UNL d   1      -9.415   7.120  11.374 -0.78 -0.04    -0.228    15.102
ATOM     10  O   UNL d   1      -9.823   6.175   9.014 -0.34 -0.01    -0.303    15.102
ATOM     11  H   UNL d   1     -10.491   5.475   8.899 +0.11 +0.01    +0.222    15.102
ATOM     12  O   UNL d   1     -10.334   8.566   9.408 -0.25 +0.04    -0.303    15.102
ATOM     13  H   UNL d   1      -9.799   8.572   8.582 -0.47 -0.09    +0.222    15.102
ATOM     14  O   UNL d   1     -12.887   4.342   9.880 -0.09 +0.01    -0.278    15.102
ATOM     15  P   UNL d   1     -12.222   3.618   8.616 -0.13 -0.02    +0.473    15.102
ATOM     16  O   UNL d   1     -11.182   4.391   7.868 -0.63 -0.01    -0.228    15.102
ATOM     17  O   UNL d   1     -11.668   2.245   9.203 -0.19 +0.04    -0.303    15.102
ATOM     18  H   UNL d   1     -12.201   1.948   9.966 +0.07 -0.03    +0.222    15.102
ATOM     19  O   UNL d   1     -13.460   3.118   7.750 -0.04 +0.02    -0.303    15.102
ATOM     20  H   UNL d   1     -14.309   3.355   8.165 +0.03 -0.01    +0.222    15.102
ATOM     21  O   UNL d   1     -13.419   7.579  12.655 -0.01 +0.01    -0.278    15.102
ATOM     22  P   UNL d   1     -14.649   8.594  12.611 +0.00 -0.01    +0.473    15.102
ATOM     23  O   UNL d   1     -15.326   8.825  11.303 -0.00 +0.01    -0.228    15.102
ATOM     24  O   UNL d   1     -15.590   8.015  13.757 -0.00 +0.01    -0.303    15.102
ATOM     25  H   UNL d   1     -16.052   7.214  13.400 +0.00 -0.01    +0.222    15.102
ATOM     26  O   UNL d   1     -14.026   9.891  13.319 -0.00 +0.01    -0.303    15.102
ATOM     27  H   UNL d   1     -14.328  10.693  12.845 +0.00 -0.01    +0.222    15.102
ATOM     28  O   UNL d   1     -12.724   2.239  11.490 -0.10 +0.02    -0.278    15.102
ATOM     29  P   UNL d   1     -12.187   0.918  12.199 -0.10 -0.03    +0.473    15.102
ATOM     30  O   UNL d   1     -11.677   1.095  13.583 -0.11 -0.01    -0.228    15.102
ATOM     31  O   UNL d   1     -13.457  -0.037  12.009 -0.01 +0.03    -0.303    15.102
ATOM     32  H   UNL d   1     -14.270   0.477  12.223 +0.02 -0.02    +0.222    15.102
ATOM     33  O   UNL d   1     -11.160   0.354  11.121 -0.22 +0.05    -0.303    15.102
ATOM     34  H   UNL d   1     -10.729   1.115  10.659 +0.08 -0.04    +0.222    15.102
ATOM     35  O   UNL d   1     -15.481   5.572  13.154 -0.00 +0.01    -0.278    15.102
ATOM     36  P   UNL d   1     -16.448   5.181  11.947 +0.00 -0.02    +0.473    15.102
ATOM     37  O   UNL d   1     -15.795   4.478  10.799 -0.00 +0.01    -0.228    15.102
ATOM     38  O   UNL d   1     -17.565   4.323  12.689 +0.00 +0.01    -0.303    15.102
ATOM     39  H   UNL d   1     -17.169   3.481  13.001 +0.00 -0.01    +0.222    15.102
ATOM     40  O   UNL d   1     -17.172   6.561  11.631 +0.00 +0.01    -0.303    15.102
ATOM     41  H   UNL d   1     -16.685   7.324  12.014 +0.00 -0.01    +0.222    15.102
ATOM     42  O   UNL d   1     -14.115   3.097  13.860 -0.01 +0.00    -0.278    15.102
ATOM     43  P   UNL d   1     -15.378   2.128  13.965 +0.00 -0.02    +0.473    15.102
ATOM     44  O   UNL d   1     -16.503   2.560  14.841 +0.00 +0.01    -0.228    15.102
ATOM     45  O   UNL d   1     -15.783   1.916  12.441 -0.00 +0.02    -0.303    15.102
ATOM     46  H   UNL d   1     -16.187   2.722  12.063 +0.00 -0.01    +0.222    15.102
ATOM     47  O   UNL d   1     -14.723   0.711  14.329 +0.00 +0.01    -0.303    15.102
ATOM     48  H   UNL d   1     -13.792   0.697  14.023 +0.02 -0.00    +0.222    15.102
TER
ENDMDL
MODEL       54
USER    Run = 54
USER    Cluster Rank = 50
USER    Number of conformations in this cluster = 1
USER  
USER    RMSD from reference structure       = 19.753 A
USER  
USER    Estimated Free Energy of Binding    =   +3.14 kcal/mol  [=(1)+(2)+(3)-(4)]
USER    
USER    (1) Final Intermolecular Energy     =   -4.02 kcal/mol
USER        vdW + Hbond + desolv Energy     =   -3.76 kcal/mol
USER        Electrostatic Energy            =   -0.27 kcal/mol
USER    (2) Final Total Internal Energy     =  -13.88 kcal/mol
USER    (3) Torsional Free Energy           =   +7.16 kcal/mol
USER    (4) Unbound System's Energy  [=(2)] =  -13.88 kcal/mol
USER    
USER    
USER  
USER    DPF = D:/Protein_go_brrr/autodock/final/mut_N102T/IHP/dock.dpf
USER    NEWDPF move	IHP_ideal_opt.pdbqt
USER    NEWDPF about	0.035000 0.082000 -0.065000
USER    NEWDPF tran0	-5.151701 -13.508953 17.286753
USER    NEWDPF axisangle0	-0.707005 -0.050472 -0.705405 -177.256443
USER    NEWDPF quaternion0	-0.706803 -0.050458 -0.705203 -0.023940
USER    NEWDPF dihe0	135.00 -150.59 67.92 3.06 101.40 106.33 -109.40 -114.07 89.03 -25.25 -128.39 138.48 -53.80 167.36 -132.09 -149.08 -137.54 8.68 49.30 -9.35 -3.78 -25.03 -8.05 -179.32 
USER  
USER                              x       y       z    vdW   Elec        q     RMS 
ATOM      1  C   UNL d   1      -4.458 -12.496  18.502 -0.09 -0.04    +0.194    19.753
ATOM      2  C   UNL d   1      -4.910 -11.783  17.227 -0.12 -0.04    +0.194    19.753
ATOM      3  C   UNL d   1      -4.515 -12.563  15.971 -0.15 -0.05    +0.194    19.753
ATOM      4  C   UNL d   1      -4.961 -14.023  16.005 -0.06 -0.05    +0.194    19.753
ATOM      5  C   UNL d   1      -4.632 -14.742  17.307 -0.03 -0.04    +0.194    19.753
ATOM      6  C   UNL d   1      -4.970 -13.936  18.563 -0.02 -0.03    +0.194    19.753
ATOM      7  O   UNL d   1      -5.010 -11.800  19.622 -0.03 +0.04    -0.278    19.753
ATOM      8  P   UNL d   1      -4.388 -10.383  20.017 -0.07 -0.07    +0.473    19.753
ATOM      9  O   UNL d   1      -3.235  -9.946  19.184 -0.14 +0.05    -0.228    19.753
ATOM     10  O   UNL d   1      -5.629  -9.383  19.945 -0.02 +0.03    -0.303    19.753
ATOM     11  H   UNL d   1      -6.316  -9.755  19.362 +0.02 -0.02    +0.222    19.753
ATOM     12  O   UNL d   1      -4.122 -10.470  21.581 -0.02 +0.03    -0.303    19.753
ATOM     13  H   UNL d   1      -3.519  -9.765  21.909 +0.02 -0.02    +0.222    19.753
ATOM     14  O   UNL d   1      -6.336 -11.645  17.249 -0.02 +0.04    -0.278    19.753
ATOM     15  P   UNL d   1      -6.913 -10.155  17.141 -0.01 -0.06    +0.473    19.753
ATOM     16  O   UNL d   1      -8.048  -9.806  18.052 -0.01 +0.02    -0.228    19.753
ATOM     17  O   UNL d   1      -5.636  -9.228  17.362 -0.08 +0.04    -0.303    19.753
ATOM     18  H   UNL d   1      -4.968  -9.677  17.914 +0.04 -0.03    +0.222    19.753
ATOM     19  O   UNL d   1      -7.192  -9.950  15.588 -0.02 +0.05    -0.303    19.753
ATOM     20  H   UNL d   1      -6.389 -10.100  15.055 +0.08 -0.04    +0.222    19.753
ATOM     21  O   UNL d   1      -4.305 -14.571  19.652 -0.01 +0.04    -0.278    19.753
ATOM     22  P   UNL d   1      -5.147 -15.427  20.703 +0.01 -0.05    +0.473    19.753
ATOM     23  O   UNL d   1      -5.463 -14.809  22.023 -0.00 +0.02    -0.228    19.753
ATOM     24  O   UNL d   1      -6.417 -15.844  19.840 +0.00 +0.04    -0.303    19.753
ATOM     25  H   UNL d   1      -6.120 -15.997  18.907 +0.00 -0.03    +0.222    19.753
ATOM     26  O   UNL d   1      -4.314 -16.796  20.749 +0.00 +0.03    -0.303    19.753
ATOM     27  H   UNL d   1      -4.399 -17.254  19.888 +0.00 -0.03    +0.222    19.753
ATOM     28  O   UNL d   1      -5.205 -11.983  14.872 -0.12 +0.07    -0.278    19.753
ATOM     29  P   UNL d   1      -4.593 -10.726  14.110 -0.25 -0.10    +0.473    19.753
ATOM     30  O   UNL d   1      -5.454 -10.135  13.054 -0.27 +0.05    -0.228    19.753
ATOM     31  O   UNL d   1      -4.231  -9.792  15.359 -0.18 +0.04    -0.303    19.753
ATOM     32  H   UNL d   1      -5.053  -9.630  15.878 +0.08 -0.04    +0.222    19.753
ATOM     33  O   UNL d   1      -3.168 -11.272  13.655 -0.74 +0.11    -0.303    19.753
ATOM     34  H   UNL d   1      -2.684 -11.606  14.450 -0.35 -0.06    +0.222    19.753
ATOM     35  O   UNL d   1      -5.453 -15.908  17.323 -0.00 +0.06    -0.278    19.753
ATOM     36  P   UNL d   1      -4.794 -17.355  17.447 +0.01 -0.10    +0.473    19.753
ATOM     37  O   UNL d   1      -4.512 -18.048  16.151 -0.00 +0.06    -0.228    19.753
ATOM     38  O   UNL d   1      -3.498 -17.049  18.321 +0.00 +0.06    -0.303    19.753
ATOM     39  H   UNL d   1      -3.616 -16.190  18.780 +0.02 -0.04    +0.222    19.753
ATOM     40  O   UNL d   1      -5.774 -18.090  18.460 +0.00 +0.04    -0.303    19.753
ATOM     41  H   UNL d   1      -5.733 -17.695  19.359 +0.00 -0.03    +0.222    19.753
ATOM     42  O   UNL d   1      -4.252 -14.698  14.961 -0.08 +0.11    -0.278    19.753
ATOM     43  P   UNL d   1      -2.680 -14.920  15.115 -0.17 -0.30    +0.473    19.753
ATOM     44  O   UNL d   1      -2.201 -15.603  16.349 -0.11 +0.11    -0.228    19.753
ATOM     45  O   UNL d   1      -2.300 -15.673  13.765 -0.15 +0.36    -0.303    19.753
ATOM     46  H   UNL d   1      -1.348 -15.580  13.559 -0.41 -0.56    +0.222    19.753
ATOM     47  O   UNL d   1      -2.076 -13.459  14.854 -0.25 +0.22    -0.303    19.753
ATOM     48  H   UNL d   1      -2.541 -13.047  14.096 -0.04 -0.16    +0.222    19.753
TER
ENDMDL
MODEL       37
USER    Run = 37
USER    Cluster Rank = 51
USER    Number of conformations in this cluster = 1
USER  
USER    RMSD from reference structure       = 13.493 A
USER  
USER    Estimated Free Energy of Binding    =   +3.17 kcal/mol  [=(1)+(2)+(3)-(4)]
USER    
USER    (1) Final Intermolecular Energy     =   -3.98 kcal/mol
USER        vdW + Hbond + desolv Energy     =   -3.98 kcal/mol
USER        Electrostatic Energy            =   -0.00 kcal/mol
USER    (2) Final Total Internal Energy     =  -13.51 kcal/mol
USER    (3) Torsional Free Energy           =   +7.16 kcal/mol
USER    (4) Unbound System's Energy  [=(2)] =  -13.51 kcal/mol
USER    
USER    
USER  
USER    DPF = D:/Protein_go_brrr/autodock/final/mut_N102T/IHP/dock.dpf
USER    NEWDPF move	IHP_ideal_opt.pdbqt
USER    NEWDPF about	0.035000 0.082000 -0.065000
USER    NEWDPF tran0	-11.555595 5.180601 10.394436
USER    NEWDPF axisangle0	0.094055 0.937248 0.335738 124.872393
USER    NEWDPF quaternion0	0.083379 0.830867 0.297631 0.462736
USER    NEWDPF dihe0	-108.12 39.50 59.34 7.57 20.89 -155.02 -95.11 -20.55 132.65 -43.21 -174.95 -82.92 -156.99 -180.00 -53.27 -148.03 161.49 95.13 35.61 -25.04 -179.22 -35.06 27.45 165.26 
USER  
USER                              x       y       z    vdW   Elec        q     RMS 
ATOM      1  C   UNL d   1     -13.191   4.743  10.737 -0.08 -0.01    +0.194    13.493
ATOM      2  C   UNL d   1     -12.562   4.052   9.526 -0.15 -0.01    +0.194    13.493
ATOM      3  C   UNL d   1     -11.755   5.032   8.671 -0.23 -0.00    +0.194    13.493
ATOM      4  C   UNL d   1     -10.732   5.830   9.476 -0.00 +0.00    +0.194    13.493
ATOM      5  C   UNL d   1     -11.289   6.442  10.755 -0.18 +0.00    +0.194    13.493
ATOM      6  C   UNL d   1     -12.148   5.480  11.579 -0.14 -0.00    +0.194    13.493
ATOM      7  O   UNL d   1     -13.777   3.739  11.569 -0.03 +0.01    -0.278    13.493
ATOM      8  P   UNL d   1     -15.276   3.278  11.262 +0.00 -0.02    +0.473    13.493
ATOM      9  O   UNL d   1     -16.300   3.790  12.213 -0.00 +0.01    -0.228    13.493
ATOM     10  O   UNL d   1     -15.525   3.749   9.758 -0.00 +0.02    -0.303    13.493
ATOM     11  H   UNL d   1     -15.326   3.015   9.149 +0.01 -0.01    +0.222    13.493
ATOM     12  O   UNL d   1     -15.199   1.699  11.108 -0.00 +0.02    -0.303    13.493
ATOM     13  H   UNL d   1     -14.279   1.353  11.138 +0.02 -0.02    +0.222    13.493
ATOM     14  O   UNL d   1     -11.686   3.015   9.982 -0.16 +0.03    -0.278    13.493
ATOM     15  P   UNL d   1     -12.199   1.510   9.793 -0.13 -0.07    +0.473    13.493
ATOM     16  O   UNL d   1     -12.250   0.657  11.022 -0.13 +0.03    -0.228    13.493
ATOM     17  O   UNL d   1     -13.621   1.670   9.094 -0.03 +0.04    -0.303    13.493
ATOM     18  H   UNL d   1     -14.094   2.454   9.434 +0.03 -0.02    +0.222    13.493
ATOM     19  O   UNL d   1     -11.318   0.938   8.598 -0.22 +0.07    -0.303    13.493
ATOM     20  H   UNL d   1     -11.346   1.523   7.818 +0.10 -0.04    +0.222    13.493
ATOM     21  O   UNL d   1     -12.859   6.272  12.527 -0.04 +0.00    -0.278    13.493
ATOM     22  P   UNL d   1     -14.150   7.089  12.067 +0.00 -0.01    +0.473    13.493
ATOM     23  O   UNL d   1     -14.286   7.437  10.623 -0.01 +0.01    -0.228    13.493
ATOM     24  O   UNL d   1     -15.328   6.194  12.653 -0.00 +0.01    -0.303    13.493
ATOM     25  H   UNL d   1     -15.129   5.246  12.442 +0.01 -0.01    +0.222    13.493
ATOM     26  O   UNL d   1     -14.133   8.325  13.089 -0.00 +0.01    -0.303    13.493
ATOM     27  H   UNL d   1     -13.207   8.532  13.328 +0.02 -0.00    +0.222    13.493
ATOM     28  O   UNL d   1     -10.993   4.266   7.747 -0.66 -0.03    -0.278    13.493
ATOM     29  P   UNL d   1     -11.694   3.606   6.478 -0.14 -0.01    +0.473    13.493
ATOM     30  O   UNL d   1     -10.831   2.716   5.660 -0.23 +0.02    -0.228    13.493
ATOM     31  O   UNL d   1     -12.968   2.938   7.180 -0.06 +0.03    -0.303    13.493
ATOM     32  H   UNL d   1     -12.675   2.502   8.013 +0.07 -0.02    +0.222    13.493
ATOM     33  O   UNL d   1     -12.321   4.874   5.746 -0.10 -0.00    -0.303    13.493
ATOM     34  H   UNL d   1     -11.688   5.630   5.816 +0.08 +0.01    +0.222    13.493
ATOM     35  O   UNL d   1     -10.154   6.777  11.551 -0.37 -0.03    -0.278    13.493
ATOM     36  P   UNL d   1     -10.271   7.881  12.696 -0.21 +0.03    +0.473    13.493
ATOM     37  O   UNL d   1      -8.999   8.584  13.046 -0.19 -0.03    -0.228    13.493
ATOM     38  O   UNL d   1     -11.407   8.834  12.114 -0.06 +0.00    -0.303    13.493
ATOM     39  H   UNL d   1     -12.241   8.324  12.029 +0.05 -0.00    +0.222    13.493
ATOM     40  O   UNL d   1     -11.001   7.084  13.863 -0.09 -0.01    -0.303    13.493
ATOM     41  H   UNL d   1     -11.978   7.091  13.753 +0.05 +0.00    +0.222    13.493
ATOM     42  O   UNL d   1     -10.303   6.913   8.644 -0.36 +0.02    -0.278    13.493
ATOM     43  P   UNL d   1     -11.401   7.884   8.015 -0.16 -0.05    +0.473    13.493
ATOM     44  O   UNL d   1     -11.079   9.337   7.957 -0.17 +0.05    -0.228    13.493
ATOM     45  O   UNL d   1     -11.681   7.222   6.595 -0.16 +0.02    -0.303    13.493
ATOM     46  H   UNL d   1     -12.583   6.846   6.547 +0.06 -0.01    +0.222    13.493
ATOM     47  O   UNL d   1     -12.733   7.502   8.821 -0.04 +0.01    -0.303    13.493
ATOM     48  H   UNL d   1     -12.850   8.128   9.566 +0.05 -0.01    +0.222    13.493
TER
ENDMDL
MODEL       34
USER    Run = 34
USER    Cluster Rank = 52
USER    Number of conformations in this cluster = 1
USER  
USER    RMSD from reference structure       = 16.337 A
USER  
USER    Estimated Free Energy of Binding    =   +3.19 kcal/mol  [=(1)+(2)+(3)-(4)]
USER    
USER    (1) Final Intermolecular Energy     =   -3.97 kcal/mol
USER        vdW + Hbond + desolv Energy     =   -3.17 kcal/mol
USER        Electrostatic Energy            =   -0.80 kcal/mol
USER    (2) Final Total Internal Energy     =  -13.10 kcal/mol
USER    (3) Torsional Free Energy           =   +7.16 kcal/mol
USER    (4) Unbound System's Energy  [=(2)] =  -13.10 kcal/mol
USER    
USER    
USER  
USER    DPF = D:/Protein_go_brrr/autodock/final/mut_N102T/IHP/dock.dpf
USER    NEWDPF move	IHP_ideal_opt.pdbqt
USER    NEWDPF about	0.035000 0.082000 -0.065000
USER    NEWDPF tran0	0.359341 19.239538 2.096511
USER    NEWDPF axisangle0	-0.924225 0.326104 -0.198655 -109.385608
USER    NEWDPF quaternion0	-0.754228 0.266122 -0.162116 -0.577960
USER    NEWDPF dihe0	-90.93 -34.19 -156.93 -3.68 28.30 179.75 -74.96 19.36 104.74 -47.75 26.44 -162.45 180.00 54.18 162.09 138.51 -122.10 -28.39 69.81 21.94 -14.52 8.34 -12.41 167.64 
USER  
USER                              x       y       z    vdW   Elec        q     RMS 
ATOM      1  C   UNL d   1       1.996  19.292   2.647 -0.02 -0.04    +0.194    16.337
ATOM      2  C   UNL d   1       0.959  19.890   3.599 -0.04 -0.07    +0.194    16.337
ATOM      3  C   UNL d   1      -0.066  20.748   2.854 -0.00 -0.04    +0.194    16.337
ATOM      4  C   UNL d   1      -0.714  20.024   1.676 +0.01 -0.02    +0.194    16.337
ATOM      5  C   UNL d   1       0.278  19.315   0.763 +0.01 -0.01    +0.194    16.337
ATOM      6  C   UNL d   1       1.341  18.507   1.510 -0.01 -0.02    +0.194    16.337
ATOM      7  O   UNL d   1       2.804  18.375   3.388 -0.06 +0.07    -0.278    16.337
ATOM      8  P   UNL d   1       3.493  18.886   4.735 -0.10 -0.26    +0.473    16.337
ATOM      9  O   UNL d   1       4.957  18.639   4.829 -0.11 +0.07    -0.228    16.337
ATOM     10  O   UNL d   1       3.113  20.434   4.800 -0.07 +0.23    -0.303    16.337
ATOM     11  H   UNL d   1       2.491  20.588   5.536 -0.28 -0.32    +0.222    16.337
ATOM     12  O   UNL d   1       2.610  18.278   5.907 -0.20 +0.32    -0.303    16.337
ATOM     13  H   UNL d   1       1.781  18.782   6.067 -0.45 -0.36    +0.222    16.337
ATOM     14  O   UNL d   1       0.266  18.826   4.264 -0.06 +0.09    -0.278    16.337
ATOM     15  P   UNL d   1      -0.351  19.162   5.703 -0.12 -0.27    +0.473    16.337
ATOM     16  O   UNL d   1      -1.843  19.241   5.792 -0.10 +0.06    -0.228    16.337
ATOM     17  O   UNL d   1       0.267  18.047   6.659 -0.08 +0.21    -0.303    16.337
ATOM     18  H   UNL d   1       0.946  18.427   7.249 -0.31 -0.37    +0.222    16.337
ATOM     19  O   UNL d   1       0.435  20.461   6.178 +0.00 +0.40    -0.303    16.337
ATOM     20  H   UNL d   1       1.387  20.285   6.290 -0.50 -0.56    +0.222    16.337
ATOM     21  O   UNL d   1       2.366  18.202   0.567 -0.01 +0.02    -0.278    16.337
ATOM     22  P   UNL d   1       2.668  16.682   0.190 -0.06 -0.06    +0.473    16.337
ATOM     23  O   UNL d   1       3.912  16.379  -0.575 -0.08 +0.07    -0.228    16.337
ATOM     24  O   UNL d   1       2.565  15.968   1.609 -0.11 +0.01    -0.303    16.337
ATOM     25  H   UNL d   1       2.956  16.575   2.288 +0.07 -0.02    +0.222    16.337
ATOM     26  O   UNL d   1       1.292  16.239  -0.503 -0.10 -0.04    -0.303    16.337
ATOM     27  H   UNL d   1       0.706  17.019  -0.584 +0.04 +0.04    +0.222    16.337
ATOM     28  O   UNL d   1      -1.129  21.025   3.757 -0.01 +0.06    -0.278    16.337
ATOM     29  P   UNL d   1      -1.473  22.528   4.158 +0.01 -0.10    +0.473    16.337
ATOM     30  O   UNL d   1      -2.780  23.039   3.670 +0.00 +0.03    -0.228    16.337
ATOM     31  O   UNL d   1      -1.271  22.447   5.743 -0.01 +0.11    -0.303    16.337
ATOM     32  H   UNL d   1      -1.380  21.510   6.026 +0.03 -0.10    +0.222    16.337
ATOM     33  O   UNL d   1      -0.171  23.308   3.676 +0.00 +0.07    -0.303    16.337
ATOM     34  H   UNL d   1      -0.216  23.436   2.697 +0.00 -0.04    +0.222    16.337
ATOM     35  O   UNL d   1      -0.493  18.390  -0.001 -0.01 -0.02    -0.278    16.337
ATOM     36  P   UNL d   1      -0.565  18.521  -1.589 -0.02 +0.05    +0.473    16.337
ATOM     37  O   UNL d   1      -1.476  19.588  -2.107 -0.01 -0.01    -0.228    16.337
ATOM     38  O   UNL d   1       0.968  18.728  -1.969 -0.02 +0.00    -0.303    16.337
ATOM     39  H   UNL d   1       1.524  18.204  -1.354 +0.04 -0.01    +0.222    16.337
ATOM     40  O   UNL d   1      -0.873  17.027  -2.040 -0.49 -0.15    -0.303    16.337
ATOM     41  H   UNL d   1      -0.048  16.514  -2.189 +0.05 +0.12    +0.222    16.337
ATOM     42  O   UNL d   1      -1.373  21.021   0.889 +0.00 +0.02    -0.278    16.337
ATOM     43  P   UNL d   1      -0.524  22.251   0.332 +0.00 -0.04    +0.473    16.337
ATOM     44  O   UNL d   1       0.959  22.109   0.315 +0.00 +0.02    -0.228    16.337
ATOM     45  O   UNL d   1      -1.170  22.502  -1.100 +0.00 +0.02    -0.303    16.337
ATOM     46  H   UNL d   1      -1.281  21.665  -1.595 +0.00 -0.01    +0.222    16.337
ATOM     47  O   UNL d   1      -1.090  23.496   1.168 +0.00 +0.03    -0.303    16.337
ATOM     48  H   UNL d   1      -1.581  23.164   1.948 +0.00 -0.02    +0.222    16.337
TER
ENDMDL
MODEL       98
USER    Run = 98
USER    Cluster Rank = 53
USER    Number of conformations in this cluster = 1
USER  
USER    RMSD from reference structure       = 16.354 A
USER  
USER    Estimated Free Energy of Binding    =   +3.22 kcal/mol  [=(1)+(2)+(3)-(4)]
USER    
USER    (1) Final Intermolecular Energy     =   -3.94 kcal/mol
USER        vdW + Hbond + desolv Energy     =   -3.74 kcal/mol
USER        Electrostatic Energy            =   -0.19 kcal/mol
USER    (2) Final Total Internal Energy     =  -14.01 kcal/mol
USER    (3) Torsional Free Energy           =   +7.16 kcal/mol
USER    (4) Unbound System's Energy  [=(2)] =  -14.01 kcal/mol
USER    
USER    
USER  
USER    DPF = D:/Protein_go_brrr/autodock/final/mut_N102T/IHP/dock.dpf
USER    NEWDPF move	IHP_ideal_opt.pdbqt
USER    NEWDPF about	0.035000 0.082000 -0.065000
USER    NEWDPF tran0	14.546066 12.427420 -4.686909
USER    NEWDPF axisangle0	0.380641 0.353518 0.854481 161.617756
USER    NEWDPF quaternion0	0.375754 0.348979 0.843510 0.159728
USER    NEWDPF dihe0	-107.72 47.51 69.59 13.92 142.96 102.36 -82.93 -8.45 104.04 -89.04 15.59 -122.76 -177.70 153.98 -145.39 175.84 -141.59 -52.07 55.24 3.95 -3.14 11.07 -12.09 1.28 
USER  
USER                              x       y       z    vdW   Elec        q     RMS 
ATOM      1  C   UNL d   1      13.652  13.605  -3.794 -0.11 -0.09    +0.194    16.354
ATOM      2  C   UNL d   1      13.864  13.920  -5.276 -0.08 -0.09    +0.194    16.354
ATOM      3  C   UNL d   1      15.294  13.610  -5.723 -0.03 -0.04    +0.194    16.354
ATOM      4  C   UNL d   1      15.743  12.196  -5.363 -0.05 -0.03    +0.194    16.354
ATOM      5  C   UNL d   1      15.447  11.798  -3.922 -0.04 -0.03    +0.194    16.354
ATOM      6  C   UNL d   1      14.036  12.164  -3.457 -0.05 -0.06    +0.194    16.354
ATOM      7  O   UNL d   1      12.261  13.756  -3.501 -0.14 +0.26    -0.278    16.354
ATOM      8  P   UNL d   1      11.625  15.219  -3.568 -0.04 -0.40    +0.473    16.354
ATOM      9  O   UNL d   1      10.905  15.652  -2.339 -0.08 +0.14    -0.228    16.354
ATOM     10  O   UNL d   1      12.858  16.161  -3.938 -0.02 +0.12    -0.303    16.354
ATOM     11  H   UNL d   1      12.891  16.292  -4.904 +0.02 -0.09    +0.222    16.354
ATOM     12  O   UNL d   1      10.777  15.239  -4.912 +0.01 +0.46    -0.303    16.354
ATOM     13  H   UNL d   1      10.785  14.377  -5.386 -0.26 -0.52    +0.222    16.354
ATOM     14  O   UNL d   1      12.960  13.126  -6.056 -0.31 +0.22    -0.278    16.354
ATOM     15  P   UNL d   1      12.192  13.876  -7.245 -0.06 -0.36    +0.473    16.354
ATOM     16  O   UNL d   1      10.839  13.350  -7.607 -0.12 +0.27    -0.228    16.354
ATOM     17  O   UNL d   1      12.159  15.401  -6.784 -0.04 +0.18    -0.303    16.354
ATOM     18  H   UNL d   1      12.201  15.475  -5.811 +0.02 -0.15    +0.222    16.354
ATOM     19  O   UNL d   1      13.250  13.924  -8.432 -0.01 +0.10    -0.303    16.354
ATOM     20  H   UNL d   1      14.130  14.205  -8.119 +0.02 -0.06    +0.222    16.354
ATOM     21  O   UNL d   1      14.029  12.051  -2.035 -0.12 +0.06    -0.278    16.354
ATOM     22  P   UNL d   1      13.303  10.810  -1.343 -0.19 -0.10    +0.473    16.354
ATOM     23  O   UNL d   1      12.110  11.078  -0.489 -0.26 +0.03    -0.228    16.354
ATOM     24  O   UNL d   1      13.032   9.856  -2.588 -0.36 +0.09    -0.303    16.354
ATOM     25  H   UNL d   1      13.885   9.412  -2.827 -0.25 -0.07    +0.222    16.354
ATOM     26  O   UNL d   1      14.532  10.075  -0.623 -0.14 +0.07    -0.303    16.354
ATOM     27  H   UNL d   1      15.094   9.648  -1.302 +0.05 -0.08    +0.222    16.354
ATOM     28  O   UNL d   1      15.321  13.664  -7.143 -0.01 +0.06    -0.278    16.354
ATOM     29  P   UNL d   1      16.301  14.672  -7.891 +0.01 -0.06    +0.473    16.354
ATOM     30  O   UNL d   1      16.782  14.227  -9.225 +0.00 +0.02    -0.228    16.354
ATOM     31  O   UNL d   1      15.419  16.006  -7.846 +0.00 +0.04    -0.303    16.354
ATOM     32  H   UNL d   1      14.467  15.754  -7.876 +0.01 -0.04    +0.222    16.354
ATOM     33  O   UNL d   1      17.410  14.945  -6.782 +0.00 +0.03    -0.303    16.354
ATOM     34  H   UNL d   1      17.734  14.079  -6.432 +0.00 -0.02    +0.222    16.354
ATOM     35  O   UNL d   1      15.545  10.376  -3.886 -0.56 +0.03    -0.278    16.354
ATOM     36  P   UNL d   1      16.633   9.669  -2.957 -0.07 -0.12    +0.473    16.354
ATOM     37  O   UNL d   1      17.901   9.266  -3.641 -0.02 +0.04    -0.228    16.354
ATOM     38  O   UNL d   1      16.826  10.748  -1.802 -0.02 +0.06    -0.303    16.354
ATOM     39  H   UNL d   1      15.970  11.198  -1.637 +0.04 -0.04    +0.222    16.354
ATOM     40  O   UNL d   1      15.788   8.513  -2.264 -0.09 +0.21    -0.303    16.354
ATOM     41  H   UNL d   1      15.916   8.503  -1.289 -0.39 -0.23    +0.222    16.354
ATOM     42  O   UNL d   1      17.165  12.159  -5.526 -0.01 +0.03    -0.278    16.354
ATOM     43  P   UNL d   1      17.781  11.317  -6.732 +0.00 -0.05    +0.473    16.354
ATOM     44  O   UNL d   1      16.843  10.493  -7.544 -0.02 +0.03    -0.228    16.354
ATOM     45  O   UNL d   1      18.564  12.423  -7.566 +0.00 +0.03    -0.303    16.354
ATOM     46  H   UNL d   1      17.969  13.147  -7.847 +0.00 -0.02    +0.222    16.354
ATOM     47  O   UNL d   1      18.986  10.516  -6.043 +0.00 +0.03    -0.303    16.354
ATOM     48  H   UNL d   1      18.637   9.993  -5.291 +0.01 -0.02    +0.222    16.354
TER
ENDMDL
MODEL       56
USER    Run = 56
USER    Cluster Rank = 54
USER    Number of conformations in this cluster = 1
USER  
USER    RMSD from reference structure       = 19.803 A
USER  
USER    Estimated Free Energy of Binding    =   +3.27 kcal/mol  [=(1)+(2)+(3)-(4)]
USER    
USER    (1) Final Intermolecular Energy     =   -3.89 kcal/mol
USER        vdW + Hbond + desolv Energy     =   -3.64 kcal/mol
USER        Electrostatic Energy            =   -0.25 kcal/mol
USER    (2) Final Total Internal Energy     =  -12.38 kcal/mol
USER    (3) Torsional Free Energy           =   +7.16 kcal/mol
USER    (4) Unbound System's Energy  [=(2)] =  -12.38 kcal/mol
USER    
USER    
USER  
USER    DPF = D:/Protein_go_brrr/autodock/final/mut_N102T/IHP/dock.dpf
USER    NEWDPF move	IHP_ideal_opt.pdbqt
USER    NEWDPF about	0.035000 0.082000 -0.065000
USER    NEWDPF tran0	10.043504 -11.534030 -16.706599
USER    NEWDPF axisangle0	-0.006222 -0.720640 0.693282 -90.229749
USER    NEWDPF quaternion0	-0.004409 -0.510590 0.491206 -0.705688
USER    NEWDPF dihe0	100.41 52.13 31.38 132.85 -53.15 21.04 1.57 -124.26 40.50 106.83 67.90 -141.37 156.94 -63.82 -72.32 110.87 -79.96 108.55 49.02 9.83 -151.97 -13.37 -5.94 -11.44 
USER  
USER                              x       y       z    vdW   Elec        q     RMS 
ATOM      1  C   UNL d   1      10.077 -11.511 -14.980 -0.04 +0.03    +0.194    19.803
ATOM      2  C   UNL d   1      10.903 -12.615 -15.642 -0.00 +0.01    +0.194    19.803
ATOM      3  C   UNL d   1      10.149 -13.269 -16.801 +0.00 +0.03    +0.194    19.803
ATOM      4  C   UNL d   1       9.614 -12.261 -17.816 -0.01 +0.05    +0.194    19.803
ATOM      5  C   UNL d   1       8.881 -11.081 -17.191 -0.06 +0.10    +0.194    19.803
ATOM      6  C   UNL d   1       9.606 -10.466 -15.992 -0.05 +0.06    +0.194    19.803
ATOM      7  O   UNL d   1      10.909 -10.840 -14.030 -0.05 -0.00    -0.278    19.803
ATOM      8  P   UNL d   1      11.261 -11.592 -12.665 -0.08 -0.07    +0.473    19.803
ATOM      9  O   UNL d   1      11.519 -10.699 -11.502 -0.19 +0.04    -0.228    19.803
ATOM     10  O   UNL d   1      10.029 -12.579 -12.438 -0.10 +0.10    -0.303    19.803
ATOM     11  H   UNL d   1       9.200 -12.066 -12.410 -0.47 -0.12    +0.222    19.803
ATOM     12  O   UNL d   1      12.431 -12.600 -13.039 -0.02 +0.03    -0.303    19.803
ATOM     13  H   UNL d   1      12.761 -12.483 -13.959 +0.02 -0.01    +0.222    19.803
ATOM     14  O   UNL d   1      12.118 -12.049 -16.149 +0.00 -0.01    -0.278    19.803
ATOM     15  P   UNL d   1      13.440 -12.939 -15.999 +0.00 -0.01    +0.473    19.803
ATOM     16  O   UNL d   1      13.322 -14.184 -15.177 +0.00 +0.01    -0.228    19.803
ATOM     17  O   UNL d   1      13.884 -13.230 -17.501 +0.00 +0.00    -0.303    19.803
ATOM     18  H   UNL d   1      13.216 -13.768 -17.967 +0.00 +0.00    +0.222    19.803
ATOM     19  O   UNL d   1      14.559 -11.911 -15.528 -0.00 +0.01    -0.303    19.803
ATOM     20  H   UNL d   1      14.435 -11.643 -14.599 +0.01 -0.01    +0.222    19.803
ATOM     21  O   UNL d   1       8.663  -9.631 -15.324 -0.11 -0.14    -0.278    19.803
ATOM     22  P   UNL d   1       8.023 -10.108 -13.942 -0.11 +0.24    +0.473    19.803
ATOM     23  O   UNL d   1       7.601 -11.533 -13.815 -0.75 -0.17    -0.228    19.803
ATOM     24  O   UNL d   1       9.127  -9.642 -12.894 -0.15 +0.01    -0.303    19.803
ATOM     25  H   UNL d   1       9.463 -10.447 -12.423 -0.47 -0.08    +0.222    19.803
ATOM     26  O   UNL d   1       6.873  -9.012 -13.721 -0.20 -0.15    -0.303    19.803
ATOM     27  H   UNL d   1       6.698  -8.919 -12.762 -0.42 -0.01    +0.222    19.803
ATOM     28  O   UNL d   1      11.078 -14.070 -17.520 +0.00 -0.01    -0.278    19.803
ATOM     29  P   UNL d   1      11.177 -15.635 -17.240 +0.01 -0.00    +0.473    19.803
ATOM     30  O   UNL d   1      10.210 -16.481 -17.985 +0.00 -0.00    -0.228    19.803
ATOM     31  O   UNL d   1      12.731 -15.874 -17.537 +0.00 +0.00    -0.303    19.803
ATOM     32  H   UNL d   1      13.256 -15.239 -16.996 +0.00 -0.00    +0.222    19.803
ATOM     33  O   UNL d   1      11.110 -15.694 -15.650 +0.01 +0.01    -0.303    19.803
ATOM     34  H   UNL d   1      11.913 -15.255 -15.278 +0.01 -0.01    +0.222    19.803
ATOM     35  O   UNL d   1       8.823 -10.080 -18.205 -0.04 -0.10    -0.278    19.803
ATOM     36  P   UNL d   1       7.420  -9.463 -18.647 -0.06 +0.25    +0.473    19.803
ATOM     37  O   UNL d   1       6.267 -10.416 -18.646 -0.29 -0.24    -0.228    19.803
ATOM     38  O   UNL d   1       7.264  -8.247 -17.630 -0.12 -0.15    -0.303    19.803
ATOM     39  H   UNL d   1       7.727  -8.467 -16.793 +0.05 +0.12    +0.222    19.803
ATOM     40  O   UNL d   1       7.776  -8.763 -20.030 -0.03 -0.06    -0.303    19.803
ATOM     41  H   UNL d   1       8.040  -9.419 -20.712 +0.03 +0.03    +0.222    19.803
ATOM     42  O   UNL d   1       8.668 -12.958 -18.634 -0.01 -0.08    -0.278    19.803
ATOM     43  P   UNL d   1       8.896 -12.998 -20.212 +0.01 +0.07    +0.473    19.803
ATOM     44  O   UNL d   1       8.309 -14.143 -20.962 +0.00 -0.02    -0.228    19.803
ATOM     45  O   UNL d   1       8.364 -11.573 -20.678 -0.00 -0.05    -0.303    19.803
ATOM     46  H   UNL d   1       7.968 -11.078 -19.933 +0.02 +0.06    +0.222    19.803
ATOM     47  O   UNL d   1      10.482 -12.817 -20.358 +0.00 -0.02    -0.303    19.803
ATOM     48  H   UNL d   1      10.930 -13.302 -19.635 +0.00 +0.01    +0.222    19.803
TER
ENDMDL
MODEL        3
USER    Run = 3
USER    Cluster Rank = 55
USER    Number of conformations in this cluster = 1
USER  
USER    RMSD from reference structure       = 15.357 A
USER  
USER    Estimated Free Energy of Binding    =   +3.28 kcal/mol  [=(1)+(2)+(3)-(4)]
USER    
USER    (1) Final Intermolecular Energy     =   -3.88 kcal/mol
USER        vdW + Hbond + desolv Energy     =   -3.96 kcal/mol
USER        Electrostatic Energy            =   +0.08 kcal/mol
USER    (2) Final Total Internal Energy     =  -14.92 kcal/mol
USER    (3) Torsional Free Energy           =   +7.16 kcal/mol
USER    (4) Unbound System's Energy  [=(2)] =  -14.92 kcal/mol
USER    
USER    
USER  
USER    DPF = D:/Protein_go_brrr/autodock/final/mut_N102T/IHP/dock.dpf
USER    NEWDPF move	IHP_ideal_opt.pdbqt
USER    NEWDPF about	0.035000 0.082000 -0.065000
USER    NEWDPF tran0	-11.343567 1.885228 13.860739
USER    NEWDPF axisangle0	-0.780236 -0.371808 -0.502981 -158.125929
USER    NEWDPF quaternion0	-0.766064 -0.365055 -0.493845 -0.189730
USER    NEWDPF dihe0	85.39 84.16 64.95 39.47 79.92 -147.43 -105.26 -7.28 26.49 118.12 149.77 106.72 150.42 140.16 114.88 169.09 -67.85 -154.76 -8.06 -14.83 -12.93 13.97 176.42 7.88 
USER  
USER                              x       y       z    vdW   Elec        q     RMS 
ATOM      1  C   UNL d   1     -11.210   3.454  14.572 -0.12 +0.02    +0.194    15.357
ATOM      2  C   UNL d   1     -12.345   3.281  13.561 -0.10 +0.01    +0.194    15.357
ATOM      3  C   UNL d   1     -11.890   2.500  12.327 -0.17 -0.00    +0.194    15.357
ATOM      4  C   UNL d   1     -11.215   1.174  12.669 -0.23 +0.00    +0.194    15.357
ATOM      5  C   UNL d   1     -10.154   1.280  13.757 -0.22 +0.05    +0.194    15.357
ATOM      6  C   UNL d   1     -10.587   2.113  14.965 -0.17 +0.04    +0.194    15.357
ATOM      7  O   UNL d   1     -11.754   4.035  15.759 -0.04 -0.02    -0.278    15.357
ATOM      8  P   UNL d   1     -11.018   5.305  16.390 -0.02 +0.02    +0.473    15.357
ATOM      9  O   UNL d   1     -11.292   5.540  17.833 -0.01 -0.00    -0.228    15.357
ATOM     10  O   UNL d   1      -9.475   5.052  16.076 -0.10 -0.04    -0.303    15.357
ATOM     11  H   UNL d   1      -9.138   4.336  16.646 +0.07 +0.03    +0.222    15.357
ATOM     12  O   UNL d   1     -11.364   6.509  15.413 -0.04 -0.01    -0.303    15.357
ATOM     13  H   UNL d   1     -12.289   6.482  15.079 +0.03 +0.00    +0.222    15.357
ATOM     14  O   UNL d   1     -13.420   2.566  14.183 -0.02 -0.00    -0.278    15.357
ATOM     15  P   UNL d   1     -14.808   3.349  14.334 +0.00 -0.01    +0.473    15.357
ATOM     16  O   UNL d   1     -15.808   2.768  15.284 -0.00 +0.01    -0.228    15.357
ATOM     17  O   UNL d   1     -14.376   4.833  14.722 -0.00 +0.00    -0.303    15.357
ATOM     18  H   UNL d   1     -13.544   4.834  15.233 +0.01 -0.00    +0.222    15.357
ATOM     19  O   UNL d   1     -15.316   3.546  12.839 -0.00 +0.01    -0.303    15.357
ATOM     20  H   UNL d   1     -14.588   3.462  12.197 +0.02 -0.01    +0.222    15.357
ATOM     21  O   UNL d   1      -9.407   2.403  15.710 -0.20 -0.10    -0.278    15.357
ATOM     22  P   UNL d   1      -9.237   1.815  17.184 -0.08 +0.20    +0.473    15.357
ATOM     23  O   UNL d   1      -7.870   1.420  17.631 -0.59 -0.17    -0.228    15.357
ATOM     24  O   UNL d   1      -9.927   2.945  18.066 -0.02 -0.04    -0.303    15.357
ATOM     25  H   UNL d   1     -10.441   3.539  17.461 +0.04 +0.02    +0.222    15.357
ATOM     26  O   UNL d   1     -10.345   0.657  17.202 -0.06 -0.12    -0.303    15.357
ATOM     27  H   UNL d   1     -10.361   0.213  16.330 +0.04 +0.13    +0.222    15.357
ATOM     28  O   UNL d   1     -13.054   2.151  11.588 -0.06 +0.02    -0.278    15.357
ATOM     29  P   UNL d   1     -13.187   2.564  10.055 -0.07 -0.04    +0.473    15.357
ATOM     30  O   UNL d   1     -13.860   1.569   9.180 -0.03 +0.03    -0.228    15.357
ATOM     31  O   UNL d   1     -13.895   3.991  10.210 -0.03 +0.02    -0.303    15.357
ATOM     32  H   UNL d   1     -14.704   3.881  10.761 +0.02 -0.01    +0.222    15.357
ATOM     33  O   UNL d   1     -11.689   2.953   9.682 -0.16 +0.04    -0.303    15.357
ATOM     34  H   UNL d   1     -11.089   2.214   9.949 +0.09 -0.05    +0.222    15.357
ATOM     35  O   UNL d   1      -9.940  -0.051  14.220 -0.24 -0.15    -0.278    15.357
ATOM     36  P   UNL d   1     -11.172  -0.945  14.697 -0.07 +0.12    +0.473    15.357
ATOM     37  O   UNL d   1     -12.384  -0.188  15.142 -0.03 -0.02    -0.228    15.357
ATOM     38  O   UNL d   1     -11.412  -1.875  13.427 -0.09 +0.04    -0.303    15.357
ATOM     39  H   UNL d   1     -11.357  -1.328  12.614 +0.07 -0.05    +0.222    15.357
ATOM     40  O   UNL d   1     -10.497  -1.916  15.760 -0.64 -0.21    -0.303    15.357
ATOM     41  H   UNL d   1     -10.328  -1.459  16.614 +0.03 +0.17    +0.222    15.357
ATOM     42  O   UNL d   1     -10.556   0.726  11.480 -0.20 +0.03    -0.278    15.357
ATOM     43  P   UNL d   1     -11.221  -0.443  10.623 -0.17 -0.15    +0.473    15.357
ATOM     44  O   UNL d   1     -10.553  -1.775  10.642 -0.26 +0.21    -0.228    15.357
ATOM     45  O   UNL d   1     -12.720  -0.459  11.159 -0.04 +0.06    -0.303    15.357
ATOM     46  H   UNL d   1     -13.241   0.281  10.788 +0.05 -0.03    +0.222    15.357
ATOM     47  O   UNL d   1     -11.401   0.220   9.175 -0.20 +0.08    -0.303    15.357
ATOM     48  H   UNL d   1     -12.145   0.856   9.201 +0.08 -0.04    +0.222    15.357
TER
ENDMDL
MODEL        5
USER    Run = 5
USER    Cluster Rank = 56
USER    Number of conformations in this cluster = 1
USER  
USER    RMSD from reference structure       = 20.716 A
USER  
USER    Estimated Free Energy of Binding    =   +3.33 kcal/mol  [=(1)+(2)+(3)-(4)]
USER    
USER    (1) Final Intermolecular Energy     =   -3.83 kcal/mol
USER        vdW + Hbond + desolv Energy     =   -3.70 kcal/mol
USER        Electrostatic Energy            =   -0.12 kcal/mol
USER    (2) Final Total Internal Energy     =  -14.51 kcal/mol
USER    (3) Torsional Free Energy           =   +7.16 kcal/mol
USER    (4) Unbound System's Energy  [=(2)] =  -14.51 kcal/mol
USER    
USER    
USER  
USER    DPF = D:/Protein_go_brrr/autodock/final/mut_N102T/IHP/dock.dpf
USER    NEWDPF move	IHP_ideal_opt.pdbqt
USER    NEWDPF about	0.035000 0.082000 -0.065000
USER    NEWDPF tran0	-4.035080 13.034675 18.251098
USER    NEWDPF axisangle0	0.752276 0.268019 0.601869 -154.149548
USER    NEWDPF quaternion0	0.733216 0.261228 0.586620 -0.223679
USER    NEWDPF dihe0	59.57 120.34 178.98 50.02 88.81 87.20 14.82 -41.91 71.79 -18.00 60.08 -177.90 -80.28 161.85 -178.95 84.32 57.32 170.94 -139.27 -15.88 22.31 -24.97 -172.01 17.89 
USER  
USER                              x       y       z    vdW   Elec        q     RMS 
ATOM      1  C   UNL d   1      -3.150  14.504  18.452 -0.08 -0.03    +0.194    20.716
ATOM      2  C   UNL d   1      -3.826  14.321  17.092 +0.05 -0.06    +0.194    20.716
ATOM      3  C   UNL d   1      -3.649  12.897  16.559 -0.19 -0.05    +0.194    20.716
ATOM      4  C   UNL d   1      -4.067  11.824  17.561 -0.11 -0.04    +0.194    20.716
ATOM      5  C   UNL d   1      -3.507  12.032  18.963 -0.06 -0.03    +0.194    20.716
ATOM      6  C   UNL d   1      -3.628  13.470  19.471 -0.06 -0.02    +0.194    20.716
ATOM      7  O   UNL d   1      -3.504  15.794  18.955 -0.09 +0.04    -0.278    20.716
ATOM      8  P   UNL d   1      -4.696  15.894  20.015 -0.01 -0.05    +0.473    20.716
ATOM      9  O   UNL d   1      -5.733  14.833  19.900 -0.01 +0.02    -0.228    20.716
ATOM     10  O   UNL d   1      -3.957  15.900  21.429 -0.00 +0.03    -0.303    20.716
ATOM     11  H   UNL d   1      -3.972  15.003  21.809 +0.01 -0.02    +0.222    20.716
ATOM     12  O   UNL d   1      -5.220  17.390  19.907 -0.00 +0.03    -0.303    20.716
ATOM     13  H   UNL d   1      -5.758  17.553  19.100 +0.01 -0.02    +0.222    20.716
ATOM     14  O   UNL d   1      -5.228  14.587  17.228 -0.06 +0.05    -0.278    20.716
ATOM     15  P   UNL d   1      -5.799  15.845  16.419 -0.03 -0.08    +0.473    20.716
ATOM     16  O   UNL d   1      -6.859  16.655  17.097 -0.01 +0.02    -0.228    20.716
ATOM     17  O   UNL d   1      -4.502  16.699  16.064 -0.10 +0.09    -0.303    20.716
ATOM     18  H   UNL d   1      -4.065  16.357  15.261 -0.40 -0.10    +0.222    20.716
ATOM     19  O   UNL d   1      -6.193  15.255  14.995 -0.03 +0.05    -0.303    20.716
ATOM     20  H   UNL d   1      -5.869  14.343  14.881 +0.05 -0.04    +0.222    20.716
ATOM     21  O   UNL d   1      -2.775  13.578  20.609 -0.03 +0.03    -0.278    20.716
ATOM     22  P   UNL d   1      -3.271  13.035  22.024 +0.00 -0.05    +0.473    20.716
ATOM     23  O   UNL d   1      -2.782  13.724  23.254 -0.00 +0.02    -0.228    20.716
ATOM     24  O   UNL d   1      -4.852  13.042  21.840 -0.00 +0.03    -0.303    20.716
ATOM     25  H   UNL d   1      -5.050  13.006  20.870 +0.01 -0.02    +0.222    20.716
ATOM     26  O   UNL d   1      -2.932  11.473  21.911 -0.00 +0.04    -0.303    20.716
ATOM     27  H   UNL d   1      -3.684  11.010  21.489 +0.01 -0.03    +0.222    20.716
ATOM     28  O   UNL d   1      -4.528  12.742  15.452 -0.15 +0.06    -0.278    20.716
ATOM     29  P   UNL d   1      -4.072  13.191  13.994 -0.21 -0.13    +0.473    20.716
ATOM     30  O   UNL d   1      -2.845  12.533  13.476 -0.98 +0.06    -0.228    20.716
ATOM     31  O   UNL d   1      -5.429  12.935  13.185 -0.14 +0.04    -0.303    20.716
ATOM     32  H   UNL d   1      -6.111  13.569  13.509 +0.08 -0.03    +0.222    20.716
ATOM     33  O   UNL d   1      -4.036  14.777  14.128 +0.01 +0.13    -0.303    20.716
ATOM     34  H   UNL d   1      -4.021  15.018  15.087 -0.43 -0.13    +0.222    20.716
ATOM     35  O   UNL d   1      -4.300  11.215  19.821 -0.01 +0.04    -0.278    20.716
ATOM     36  P   UNL d   1      -5.880  11.134  19.622 +0.00 -0.05    +0.473    20.716
ATOM     37  O   UNL d   1      -6.381   9.908  18.926 -0.01 +0.02    -0.228    20.716
ATOM     38  O   UNL d   1      -6.407  11.300  21.115 -0.00 +0.03    -0.303    20.716
ATOM     39  H   UNL d   1      -5.639  11.429  21.714 +0.00 -0.02    +0.222    20.716
ATOM     40  O   UNL d   1      -6.209  12.534  18.943 -0.00 +0.03    -0.303    20.716
ATOM     41  H   UNL d   1      -5.943  13.288  19.515 +0.01 -0.02    +0.222    20.716
ATOM     42  O   UNL d   1      -3.545  10.581  17.079 -0.13 +0.08    -0.278    20.716
ATOM     43  P   UNL d   1      -4.469   9.660  16.162 -0.15 -0.12    +0.473    20.716
ATOM     44  O   UNL d   1      -4.361   8.185  16.340 -0.29 +0.06    -0.228    20.716
ATOM     45  O   UNL d   1      -5.924  10.243  16.436 -0.08 +0.04    -0.303    20.716
ATOM     46  H   UNL d   1      -5.930  10.842  17.209 +0.04 -0.03    +0.222    20.716
ATOM     47  O   UNL d   1      -4.174  10.202  14.683 -0.08 +0.09    -0.303    20.716
ATOM     48  H   UNL d   1      -3.511  10.922  14.729 -0.07 -0.08    +0.222    20.716
TER
ENDMDL
MODEL       16
USER    Run = 16
USER    Cluster Rank = 57
USER    Number of conformations in this cluster = 1
USER  
USER    RMSD from reference structure       = 18.089 A
USER  
USER    Estimated Free Energy of Binding    =   +3.38 kcal/mol  [=(1)+(2)+(3)-(4)]
USER    
USER    (1) Final Intermolecular Energy     =   -3.78 kcal/mol
USER        vdW + Hbond + desolv Energy     =   -3.45 kcal/mol
USER        Electrostatic Energy            =   -0.33 kcal/mol
USER    (2) Final Total Internal Energy     =  -14.48 kcal/mol
USER    (3) Torsional Free Energy           =   +7.16 kcal/mol
USER    (4) Unbound System's Energy  [=(2)] =  -14.48 kcal/mol
USER    
USER    
USER  
USER    DPF = D:/Protein_go_brrr/autodock/final/mut_N102T/IHP/dock.dpf
USER    NEWDPF move	IHP_ideal_opt.pdbqt
USER    NEWDPF about	0.035000 0.082000 -0.065000
USER    NEWDPF tran0	-9.933891 -15.351652 12.160377
USER    NEWDPF axisangle0	0.429013 -0.862124 0.269611 161.630637
USER    NEWDPF quaternion0	0.423513 -0.851071 0.266154 0.159617
USER    NEWDPF dihe0	-108.48 -48.34 154.64 9.25 70.54 -68.00 -84.46 -0.46 -38.65 129.52 58.44 179.83 99.92 177.71 122.30 5.08 -72.44 133.52 -19.61 11.68 156.71 -8.37 -35.12 0.53 
USER  
USER                              x       y       z    vdW   Elec        q     RMS 
ATOM      1  C   UNL d   1      -9.716 -17.056  11.986 -0.08 -0.08    +0.194    18.089
ATOM      2  C   UNL d   1      -8.651 -16.335  12.815 -0.07 -0.07    +0.194    18.089
ATOM      3  C   UNL d   1      -8.226 -15.016  12.166 -0.12 -0.09    +0.194    18.089
ATOM      4  C   UNL d   1      -9.404 -14.108  11.823 -0.10 -0.08    +0.194    18.089
ATOM      5  C   UNL d   1     -10.541 -14.814  11.096 -0.11 -0.07    +0.194    18.089
ATOM      6  C   UNL d   1     -10.925 -16.162  11.708 -0.06 -0.06    +0.194    18.089
ATOM      7  O   UNL d   1     -10.180 -18.180  12.738 -0.01 +0.09    -0.278    18.089
ATOM      8  P   UNL d   1     -10.510 -19.533  11.955 -0.00 -0.18    +0.473    18.089
ATOM      9  O   UNL d   1     -10.340 -20.779  12.751 -0.00 +0.06    -0.228    18.089
ATOM     10  O   UNL d   1     -12.002 -19.322  11.430 -0.00 +0.09    -0.303    18.089
ATOM     11  H   UNL d   1     -11.981 -18.963  10.523 +0.02 -0.09    +0.222    18.089
ATOM     12  O   UNL d   1      -9.668 -19.448  10.611 -0.08 +0.27    -0.303    18.089
ATOM     13  H   UNL d   1     -10.179 -19.071   9.859 -0.14 -0.26    +0.222    18.089
ATOM     14  O   UNL d   1      -9.183 -16.054  14.115 -0.01 +0.07    -0.278    18.089
ATOM     15  P   UNL d   1      -8.166 -16.173  15.346 +0.00 -0.10    +0.473    18.089
ATOM     16  O   UNL d   1      -8.587 -17.049  16.484 -0.00 +0.04    -0.228    18.089
ATOM     17  O   UNL d   1      -6.800 -16.646  14.676 -0.01 +0.08    -0.303    18.089
ATOM     18  H   UNL d   1      -6.497 -16.004  14.004 +0.04 -0.07    +0.222    18.089
ATOM     19  O   UNL d   1      -7.828 -14.666  15.729 -0.00 +0.06    -0.303    18.089
ATOM     20  H   UNL d   1      -7.560 -14.147  14.948 +0.02 -0.05    +0.222    18.089
ATOM     21  O   UNL d   1     -11.732 -16.837  10.746 -0.04 +0.10    -0.278    18.089
ATOM     22  P   UNL d   1     -11.185 -17.050   9.263 -0.15 -0.26    +0.473    18.089
ATOM     23  O   UNL d   1     -11.687 -18.221   8.488 -0.13 +0.15    -0.228    18.089
ATOM     24  O   UNL d   1     -11.482 -15.634   8.600 -0.73 +0.06    -0.303    18.089
ATOM     25  H   UNL d   1     -11.840 -15.034   9.303 +0.04 -0.05    +0.222    18.089
ATOM     26  O   UNL d   1      -9.599 -16.983   9.488 -0.06 +0.30    -0.303    18.089
ATOM     27  H   UNL d   1      -9.201 -17.840   9.232 -0.32 -0.41    +0.222    18.089
ATOM     28  O   UNL d   1      -7.460 -14.296  13.123 -0.08 +0.09    -0.278    18.089
ATOM     29  P   UNL d   1      -5.871 -14.256  13.017 -0.14 -0.17    +0.473    18.089
ATOM     30  O   UNL d   1      -5.255 -15.349  12.222 -0.25 +0.12    -0.228    18.089
ATOM     31  O   UNL d   1      -5.664 -12.762  12.482 -0.22 +0.09    -0.303    18.089
ATOM     32  H   UNL d   1      -6.428 -12.526  11.906 +0.10 -0.06    +0.222    18.089
ATOM     33  O   UNL d   1      -5.437 -14.145  14.545 -0.05 +0.09    -0.303    18.089
ATOM     34  H   UNL d   1      -5.795 -14.924  15.038 +0.04 -0.06    +0.222    18.089
ATOM     35  O   UNL d   1     -11.673 -13.957  11.224 -0.03 +0.07    -0.278    18.089
ATOM     36  P   UNL d   1     -12.036 -12.923  10.064 -0.05 -0.10    +0.473    18.089
ATOM     37  O   UNL d   1     -10.881 -12.444   9.244 -0.16 +0.06    -0.228    18.089
ATOM     38  O   UNL d   1     -13.134 -13.730   9.240 -0.04 +0.05    -0.303    18.089
ATOM     39  H   UNL d   1     -12.750 -14.008   8.381 +0.03 -0.04    +0.222    18.089
ATOM     40  O   UNL d   1     -12.875 -11.819  10.843 -0.01 +0.05    -0.303    18.089
ATOM     41  H   UNL d   1     -12.296 -11.122  11.222 +0.02 -0.04    +0.222    18.089
ATOM     42  O   UNL d   1      -8.904 -13.096  10.941 -0.12 +0.13    -0.278    18.089
ATOM     43  P   UNL d   1      -8.798 -11.595  11.470 -0.13 -0.12    +0.473    18.089
ATOM     44  O   UNL d   1      -8.258 -10.573  10.531 -0.27 +0.05    -0.228    18.089
ATOM     45  O   UNL d   1     -10.278 -11.298  11.974 -0.03 +0.07    -0.303    18.089
ATOM     46  H   UNL d   1     -10.910 -11.967  11.642 +0.04 -0.05    +0.222    18.089
ATOM     47  O   UNL d   1      -8.006 -11.750  12.855 -0.08 +0.07    -0.303    18.089
ATOM     48  H   UNL d   1      -7.820 -12.698  13.016 +0.06 -0.06    +0.222    18.089
TER
ENDMDL
MODEL       19
USER    Run = 19
USER    Cluster Rank = 58
USER    Number of conformations in this cluster = 1
USER  
USER    RMSD from reference structure       = 10.208 A
USER  
USER    Estimated Free Energy of Binding    =   +3.47 kcal/mol  [=(1)+(2)+(3)-(4)]
USER    
USER    (1) Final Intermolecular Energy     =   -3.69 kcal/mol
USER        vdW + Hbond + desolv Energy     =   -3.66 kcal/mol
USER        Electrostatic Energy            =   -0.03 kcal/mol
USER    (2) Final Total Internal Energy     =  -14.20 kcal/mol
USER    (3) Torsional Free Energy           =   +7.16 kcal/mol
USER    (4) Unbound System's Energy  [=(2)] =  -14.20 kcal/mol
USER    
USER    
USER  
USER    DPF = D:/Protein_go_brrr/autodock/final/mut_N102T/IHP/dock.dpf
USER    NEWDPF move	IHP_ideal_opt.pdbqt
USER    NEWDPF about	0.035000 0.082000 -0.065000
USER    NEWDPF tran0	-8.826473 10.071261 0.596228
USER    NEWDPF axisangle0	0.213321 -0.910004 -0.355509 161.789029
USER    NEWDPF quaternion0	0.210632 -0.898537 -0.351029 0.158253
USER    NEWDPF dihe0	55.28 -21.05 72.35 86.40 -42.72 169.58 7.01 -85.89 146.48 -49.56 27.61 -112.93 -164.97 116.36 179.99 -136.01 166.55 -80.19 21.90 -6.62 166.05 2.62 13.82 164.84 
USER  
USER                              x       y       z    vdW   Elec        q     RMS 
ATOM      1  C   UNL d   1      -9.363   9.698  -1.003 -0.06 +0.00    +0.194    10.208
ATOM      2  C   UNL d   1      -7.945   9.239  -0.657 -0.14 +0.00    +0.194    10.208
ATOM      3  C   UNL d   1      -7.173  10.315   0.110 -0.15 +0.02    +0.194    10.208
ATOM      4  C   UNL d   1      -7.924  10.838   1.331 -0.07 +0.01    +0.194    10.208
ATOM      5  C   UNL d   1      -9.378  11.200   1.058 -0.08 +0.00    +0.194    10.208
ATOM      6  C   UNL d   1     -10.133  10.152   0.238 -0.06 +0.00    +0.194    10.208
ATOM      7  O   UNL d   1     -10.068   8.585  -1.559 -0.03 -0.00    -0.278    10.208
ATOM      8  P   UNL d   1     -10.229   8.505  -3.146 -0.01 -0.00    +0.473    10.208
ATOM      9  O   UNL d   1     -11.622   8.650  -3.647 -0.01 -0.00    -0.228    10.208
ATOM     10  O   UNL d   1      -9.244   9.635  -3.692 -0.04 +0.00    -0.303    10.208
ATOM     11  H   UNL d   1      -9.761  10.420  -3.955 +0.01 +0.00    +0.222    10.208
ATOM     12  O   UNL d   1      -9.474   7.173  -3.571 -0.05 +0.00    -0.303    10.208
ATOM     13  H   UNL d   1      -8.503   7.214  -3.418 -0.03 -0.02    +0.222    10.208
ATOM     14  O   UNL d   1      -8.020   8.063   0.157 -0.18 +0.01    -0.278    10.208
ATOM     15  P   UNL d   1      -7.219   6.778  -0.365 -0.27 -0.01    +0.473    10.208
ATOM     16  O   UNL d   1      -7.137   5.611   0.568 -0.43 +0.03    -0.228    10.208
ATOM     17  O   UNL d   1      -7.926   6.416  -1.746 -0.21 +0.00    -0.303    10.208
ATOM     18  H   UNL d   1      -8.838   6.764  -1.776 +0.07 +0.00    +0.222    10.208
ATOM     19  O   UNL d   1      -5.823   7.357  -0.863 -0.31 -0.01    -0.303    10.208
ATOM     20  H   UNL d   1      -5.587   8.180  -0.396 +0.14 +0.02    +0.222    10.208
ATOM     21  O   UNL d   1     -11.333  10.772  -0.219 -0.01 -0.00    -0.278    10.208
ATOM     22  P   UNL d   1     -11.252  12.016  -1.214 -0.00 +0.00    +0.473    10.208
ATOM     23  O   UNL d   1     -12.335  13.040  -1.152 -0.00 +0.00    -0.228    10.208
ATOM     24  O   UNL d   1      -9.790  12.572  -0.921 -0.01 -0.01    -0.303    10.208
ATOM     25  H   UNL d   1      -9.879  13.430  -0.434 +0.01 +0.00    +0.222    10.208
ATOM     26  O   UNL d   1     -11.053  11.289  -2.629 -0.00 -0.00    -0.303    10.208
ATOM     27  H   UNL d   1     -10.965  10.325  -2.486 +0.01 +0.00    +0.222    10.208
ATOM     28  O   UNL d   1      -5.992   9.711   0.623 -0.20 -0.03    -0.278    10.208
ATOM     29  P   UNL d   1      -4.562  10.153   0.080 -0.26 +0.15    +0.473    10.208
ATOM     30  O   UNL d   1      -3.452   9.204   0.355 -0.33 -0.07    -0.228    10.208
ATOM     31  O   UNL d   1      -4.919  10.428  -1.456 -0.18 -0.09    -0.303    10.208
ATOM     32  H   UNL d   1      -5.619  11.119  -1.496 +0.08 +0.05    +0.222    10.208
ATOM     33  O   UNL d   1      -4.417  11.622   0.676 -0.69 -0.19    -0.303    10.208
ATOM     34  H   UNL d   1      -5.319  12.005   0.807 +0.08 +0.08    +0.222    10.208
ATOM     35  O   UNL d   1     -10.008  11.266   2.336 -0.07 +0.00    -0.278    10.208
ATOM     36  P   UNL d   1     -11.151  12.343   2.615 -0.02 -0.01    +0.473    10.208
ATOM     37  O   UNL d   1     -11.240  12.837   4.024 -0.03 +0.01    -0.228    10.208
ATOM     38  O   UNL d   1     -10.803  13.471   1.547 -0.01 +0.00    -0.303    10.208
ATOM     39  H   UNL d   1     -11.095  13.173   0.658 +0.01 -0.00    +0.222    10.208
ATOM     40  O   UNL d   1     -12.441  11.633   2.016 -0.01 +0.00    -0.303    10.208
ATOM     41  H   UNL d   1     -12.583  11.870   1.073 +0.01 -0.00    +0.222    10.208
ATOM     42  O   UNL d   1      -7.262  12.039   1.742 -0.07 -0.03    -0.278    10.208
ATOM     43  P   UNL d   1      -7.039  13.202   0.673 -0.04 +0.06    +0.473    10.208
ATOM     44  O   UNL d   1      -6.775  12.797  -0.736 -0.04 -0.04    -0.228    10.208
ATOM     45  O   UNL d   1      -8.338  14.102   0.859 -0.01 -0.02    -0.303    10.208
ATOM     46  H   UNL d   1      -9.148  13.555   0.909 +0.01 +0.01    +0.222    10.208
ATOM     47  O   UNL d   1      -5.910  14.114   1.353 -0.05 -0.06    -0.303    10.208
ATOM     48  H   UNL d   1      -5.075  13.605   1.410 +0.06 +0.08    +0.222    10.208
TER
ENDMDL
MODEL       72
USER    Run = 72
USER    Cluster Rank = 59
USER    Number of conformations in this cluster = 1
USER  
USER    RMSD from reference structure       = 17.482 A
USER  
USER    Estimated Free Energy of Binding    =   +3.48 kcal/mol  [=(1)+(2)+(3)-(4)]
USER    
USER    (1) Final Intermolecular Energy     =   -3.68 kcal/mol
USER        vdW + Hbond + desolv Energy     =   -3.32 kcal/mol
USER        Electrostatic Energy            =   -0.36 kcal/mol
USER    (2) Final Total Internal Energy     =  -12.75 kcal/mol
USER    (3) Torsional Free Energy           =   +7.16 kcal/mol
USER    (4) Unbound System's Energy  [=(2)] =  -12.75 kcal/mol
USER    
USER    
USER  
USER    DPF = D:/Protein_go_brrr/autodock/final/mut_N102T/IHP/dock.dpf
USER    NEWDPF move	IHP_ideal_opt.pdbqt
USER    NEWDPF about	0.035000 0.082000 -0.065000
USER    NEWDPF tran0	-10.035251 -4.953110 16.188353
USER    NEWDPF axisangle0	-0.021013 -0.756418 0.653751 167.484100
USER    NEWDPF quaternion0	-0.020888 -0.751911 0.649855 0.109005
USER    NEWDPF dihe0	169.26 96.45 31.64 36.91 -37.39 149.36 -11.13 -163.35 94.91 102.07 168.70 -147.77 -75.72 178.17 -134.49 -44.45 -1.31 -10.76 39.68 -8.02 -66.22 142.35 139.66 135.48 
USER  
USER                              x       y       z    vdW   Elec        q     RMS 
ATOM      1  C   UNL d   1     -11.303  -6.005  16.709 +0.01 -0.01    +0.194    17.482
ATOM      2  C   UNL d   1     -10.275  -5.629  17.778 +0.01 +0.00    +0.194    17.482
ATOM      3  C   UNL d   1      -8.846  -5.679  17.232 -0.01 +0.01    +0.194    17.482
ATOM      4  C   UNL d   1      -8.664  -4.874  15.948 -0.10 +0.03    +0.194    17.482
ATOM      5  C   UNL d   1      -9.735  -5.132  14.896 -0.09 -0.02    +0.194    17.482
ATOM      6  C   UNL d   1     -11.160  -5.144  15.453 -0.01 -0.02    +0.194    17.482
ATOM      7  O   UNL d   1     -12.608  -5.768  17.242 +0.00 +0.01    -0.278    17.482
ATOM      8  P   UNL d   1     -13.265  -6.893  18.167 +0.00 -0.03    +0.473    17.482
ATOM      9  O   UNL d   1     -12.746  -8.270  17.952 +0.00 +0.02    -0.228    17.482
ATOM     10  O   UNL d   1     -13.030  -6.358  19.652 +0.00 +0.01    -0.303    17.482
ATOM     11  H   UNL d   1     -12.726  -5.431  19.621 +0.00 -0.01    +0.222    17.482
ATOM     12  O   UNL d   1     -14.833  -6.707  17.991 +0.00 +0.02    -0.303    17.482
ATOM     13  H   UNL d   1     -15.116  -6.683  17.049 +0.00 -0.01    +0.222    17.482
ATOM     14  O   UNL d   1     -10.543  -4.298  18.236 -0.00 -0.02    -0.278    17.482
ATOM     15  P   UNL d   1     -10.784  -4.117  19.808 +0.01 +0.01    +0.473    17.482
ATOM     16  O   UNL d   1     -12.046  -3.426  20.220 +0.00 -0.00    -0.228    17.482
ATOM     17  O   UNL d   1     -10.672  -5.596  20.390 +0.00 +0.01    -0.303    17.482
ATOM     18  H   UNL d   1     -11.383  -6.166  20.042 +0.00 -0.01    +0.222    17.482
ATOM     19  O   UNL d   1      -9.437  -3.460  20.343 +0.00 -0.02    -0.303    17.482
ATOM     20  H   UNL d   1      -8.687  -3.640  19.746 +0.01 +0.02    +0.222    17.482
ATOM     21  O   UNL d   1     -11.990  -5.726  14.450 -0.00 +0.06    -0.278    17.482
ATOM     22  P   UNL d   1     -13.577  -5.644  14.590 +0.01 -0.07    +0.473    17.482
ATOM     23  O   UNL d   1     -14.312  -6.872  15.011 +0.00 +0.02    -0.228    17.482
ATOM     24  O   UNL d   1     -13.755  -4.394  15.559 +0.01 +0.02    -0.303    17.482
ATOM     25  H   UNL d   1     -13.972  -4.734  16.464 +0.00 -0.01    +0.222    17.482
ATOM     26  O   UNL d   1     -13.997  -5.025  13.172 +0.00 +0.06    -0.303    17.482
ATOM     27  H   UNL d   1     -13.243  -4.521  12.804 +0.02 -0.06    +0.222    17.482
ATOM     28  O   UNL d   1      -8.000  -5.057  18.191 -0.01 -0.02    -0.278    17.482
ATOM     29  P   UNL d   1      -7.388  -3.615  17.908 -0.06 +0.16    +0.473    17.482
ATOM     30  O   UNL d   1      -6.343  -3.558  16.854 -0.17 -0.13    -0.228    17.482
ATOM     31  O   UNL d   1      -8.732  -2.788  17.643 -0.04 -0.17    -0.303    17.482
ATOM     32  H   UNL d   1      -9.415  -3.083  18.290 +0.02 +0.06    +0.222    17.482
ATOM     33  O   UNL d   1      -6.964  -3.139  19.367 -0.04 -0.05    -0.303    17.482
ATOM     34  H   UNL d   1      -7.620  -2.474  19.692 +0.02 +0.04    +0.222    17.482
ATOM     35  O   UNL d   1      -9.651  -4.041  13.982 -0.53 +0.09    -0.278    17.482
ATOM     36  P   UNL d   1     -10.510  -2.720  14.224 -0.02 +0.05    +0.473    17.482
ATOM     37  O   UNL d   1     -10.545  -2.222  15.634 -0.65 -0.13    -0.228    17.482
ATOM     38  O   UNL d   1      -9.849  -1.707  13.188 -0.49 -0.01    -0.303    17.482
ATOM     39  H   UNL d   1      -9.432  -2.217  12.461 -0.44 -0.22    +0.222    17.482
ATOM     40  O   UNL d   1     -11.904  -3.094  13.556 -0.04 +0.08    -0.303    17.482
ATOM     41  H   UNL d   1     -12.315  -3.877  13.985 +0.02 -0.05    +0.222    17.482
ATOM     42  O   UNL d   1      -7.412  -5.274  15.382 -0.13 -0.02    -0.278    17.482
ATOM     43  P   UNL d   1      -6.827  -6.713  15.744 -0.05 -0.05    +0.473    17.482
ATOM     44  O   UNL d   1      -7.801  -7.824  15.931 -0.03 +0.03    -0.228    17.482
ATOM     45  O   UNL d   1      -5.771  -6.963  14.580 -0.21 +0.08    -0.303    17.482
ATOM     46  H   UNL d   1      -4.867  -6.710  14.856 -0.35 -0.12    +0.222    17.482
ATOM     47  O   UNL d   1      -5.869  -6.415  16.994 -0.07 +0.02    -0.303    17.482
ATOM     48  H   UNL d   1      -6.231  -5.661  17.505 +0.06 +0.00    +0.222    17.482
TER
ENDMDL
MODEL       51
USER    Run = 51
USER    Cluster Rank = 60
USER    Number of conformations in this cluster = 1
USER  
USER    RMSD from reference structure       = 14.284 A
USER  
USER    Estimated Free Energy of Binding    =   +3.48 kcal/mol  [=(1)+(2)+(3)-(4)]
USER    
USER    (1) Final Intermolecular Energy     =   -3.68 kcal/mol
USER        vdW + Hbond + desolv Energy     =   -3.33 kcal/mol
USER        Electrostatic Energy            =   -0.34 kcal/mol
USER    (2) Final Total Internal Energy     =  -14.70 kcal/mol
USER    (3) Torsional Free Energy           =   +7.16 kcal/mol
USER    (4) Unbound System's Energy  [=(2)] =  -14.70 kcal/mol
USER    
USER    
USER  
USER    DPF = D:/Protein_go_brrr/autodock/final/mut_N102T/IHP/dock.dpf
USER    NEWDPF move	IHP_ideal_opt.pdbqt
USER    NEWDPF about	0.035000 0.082000 -0.065000
USER    NEWDPF tran0	16.341190 1.226810 -5.789072
USER    NEWDPF axisangle0	-0.036228 -0.803137 0.594692 -99.365086
USER    NEWDPF quaternion0	-0.027623 -0.612369 0.453435 -0.647022
USER    NEWDPF dihe0	54.49 120.23 -148.76 27.19 67.73 -149.09 -60.05 -26.25 3.65 17.72 48.18 110.10 -83.49 163.99 58.42 -169.32 -179.03 180.00 -134.52 -9.11 33.75 -14.73 180.00 18.88 
USER  
USER                              x       y       z    vdW   Elec        q     RMS 
ATOM      1  C   UNL d   1      15.984   1.072  -4.106 -0.06 -0.01    +0.194    14.284
ATOM      2  C   UNL d   1      16.931   0.017  -4.680 -0.01 -0.01    +0.194    14.284
ATOM      3  C   UNL d   1      16.454  -0.492  -6.042 -0.01 -0.02    +0.194    14.284
ATOM      4  C   UNL d   1      16.168   0.630  -7.037 -0.01 -0.02    +0.194    14.284
ATOM      5  C   UNL d   1      15.321   1.762  -6.470 -0.06 -0.02    +0.194    14.284
ATOM      6  C   UNL d   1      15.760   2.229  -5.081 -0.08 -0.02    +0.194    14.284
ATOM      7  O   UNL d   1      16.584   1.617  -2.928 -0.08 -0.03    -0.278    14.284
ATOM      8  P   UNL d   1      17.267   3.058  -3.022 -0.08 +0.07    +0.473    14.284
ATOM      9  O   UNL d   1      17.874   3.384  -4.341 -0.03 +0.01    -0.228    14.284
ATOM     10  O   UNL d   1      16.104   4.065  -2.599 +0.02 +0.15    -0.303    14.284
ATOM     11  H   UNL d   1      15.744   4.501  -3.393 -0.03 -0.16    +0.222    14.284
ATOM     12  O   UNL d   1      18.244   3.133  -1.771 -0.62 -0.27    -0.303    14.284
ATOM     13  H   UNL d   1      19.061   2.599  -1.887 +0.02 +0.09    +0.222    14.284
ATOM     14  O   UNL d   1      18.233   0.595  -4.839 +0.00 +0.01    -0.278    14.284
ATOM     15  P   UNL d   1      19.437  -0.132  -4.075 +0.01 +0.00    +0.473    14.284
ATOM     16  O   UNL d   1      20.467   0.755  -3.448 +0.00 -0.01    -0.228    14.284
ATOM     17  O   UNL d   1      18.711  -1.078  -3.018 +0.00 -0.00    -0.303    14.284
ATOM     18  H   UNL d   1      18.884  -2.019  -3.212 +0.00 -0.01    +0.222    14.284
ATOM     19  O   UNL d   1      19.991  -1.191  -5.124 +0.00 +0.01    -0.303    14.284
ATOM     20  H   UNL d   1      19.281  -1.537  -5.696 +0.00 -0.01    +0.222    14.284
ATOM     21  O   UNL d   1      14.696   3.019  -4.556 -0.20 +0.06    -0.278    14.284
ATOM     22  P   UNL d   1      14.366   4.437  -5.208 -0.25 -0.10    +0.473    14.284
ATOM     23  O   UNL d   1      13.405   4.481  -6.348 -0.89 -0.00    -0.228    14.284
ATOM     24  O   UNL d   1      13.931   5.288  -3.935 -0.77 +0.17    -0.303    14.284
ATOM     25  H   UNL d   1      14.017   4.710  -3.135 -0.25 -0.35    +0.222    14.284
ATOM     26  O   UNL d   1      15.834   5.009  -5.503 -0.08 +0.07    -0.303    14.284
ATOM     27  H   UNL d   1      16.416   4.274  -5.784 +0.06 -0.03    +0.222    14.284
ATOM     28  O   UNL d   1      17.517  -1.243  -6.615 -0.00 +0.02    -0.278    14.284
ATOM     29  P   UNL d   1      17.557  -2.827  -6.461 +0.01 -0.05    +0.473    14.284
ATOM     30  O   UNL d   1      18.488  -3.537  -7.374 +0.00 +0.02    -0.228    14.284
ATOM     31  O   UNL d   1      17.846  -2.948  -4.891 +0.00 +0.03    -0.303    14.284
ATOM     32  H   UNL d   1      18.044  -2.049  -4.539 +0.00 -0.01    +0.222    14.284
ATOM     33  O   UNL d   1      16.015  -3.212  -6.564 +0.00 +0.05    -0.303    14.284
ATOM     34  H   UNL d   1      15.566  -2.579  -7.176 +0.02 -0.03    +0.222    14.284
ATOM     35  O   UNL d   1      15.500   2.863  -7.359 -0.03 +0.04    -0.278    14.284
ATOM     36  P   UNL d   1      16.966   3.313  -7.797 +0.01 -0.05    +0.473    14.284
ATOM     37  O   UNL d   1      17.227   4.785  -7.757 -0.01 +0.02    -0.228    14.284
ATOM     38  O   UNL d   1      17.878   2.460  -6.809 +0.00 +0.02    -0.303    14.284
ATOM     39  H   UNL d   1      17.733   2.771  -5.889 +0.02 -0.01    +0.222    14.284
ATOM     40  O   UNL d   1      17.139   2.587  -9.201 -0.00 +0.03    -0.303    14.284
ATOM     41  H   UNL d   1      16.556   1.800  -9.279 +0.01 -0.02    +0.222    14.284
ATOM     42  O   UNL d   1      15.428   0.050  -8.116 -0.01 +0.03    -0.278    14.284
ATOM     43  P   UNL d   1      16.220  -0.501  -9.387 +0.01 -0.04    +0.473    14.284
ATOM     44  O   UNL d   1      15.694  -0.140 -10.733 -0.01 +0.02    -0.228    14.284
ATOM     45  O   UNL d   1      17.707  -0.004  -9.113 -0.00 +0.02    -0.303    14.284
ATOM     46  H   UNL d   1      17.720   0.783  -8.533 +0.00 -0.02    +0.222    14.284
ATOM     47  O   UNL d   1      16.342  -2.071  -9.090 +0.00 +0.03    -0.303    14.284
ATOM     48  H   UNL d   1      16.976  -2.213  -8.357 +0.00 -0.02    +0.222    14.284
TER
ENDMDL
MODEL       12
USER    Run = 12
USER    Cluster Rank = 61
USER    Number of conformations in this cluster = 1
USER  
USER    RMSD from reference structure       = 16.522 A
USER  
USER    Estimated Free Energy of Binding    =   +3.52 kcal/mol  [=(1)+(2)+(3)-(4)]
USER    
USER    (1) Final Intermolecular Energy     =   -3.64 kcal/mol
USER        vdW + Hbond + desolv Energy     =   -3.44 kcal/mol
USER        Electrostatic Energy            =   -0.19 kcal/mol
USER    (2) Final Total Internal Energy     =  -12.93 kcal/mol
USER    (3) Torsional Free Energy           =   +7.16 kcal/mol
USER    (4) Unbound System's Energy  [=(2)] =  -12.93 kcal/mol
USER    
USER    
USER  
USER    DPF = D:/Protein_go_brrr/autodock/final/mut_N102T/IHP/dock.dpf
USER    NEWDPF move	IHP_ideal_opt.pdbqt
USER    NEWDPF about	0.035000 0.082000 -0.065000
USER    NEWDPF tran0	-10.985895 14.578227 8.456734
USER    NEWDPF axisangle0	-0.287796 0.923023 0.255347 -125.190062
USER    NEWDPF quaternion0	-0.255499 0.819437 0.226691 -0.460277
USER    NEWDPF dihe0	88.99 72.39 179.95 -159.48 21.60 -58.28 -115.78 8.04 32.30 80.90 177.01 -110.89 -72.28 41.10 -111.27 41.97 -76.08 80.06 69.45 24.25 -9.64 2.57 -180.00 23.49 
USER  
USER                              x       y       z    vdW   Elec        q     RMS 
ATOM      1  C   UNL d   1     -10.482  14.114   6.871 -0.03 -0.01    +0.194    16.522
ATOM      2  C   UNL d   1      -9.657  13.536   8.022 -0.08 -0.02    +0.194    16.522
ATOM      3  C   UNL d   1      -9.366  14.588   9.095 -0.04 -0.02    +0.194    16.522
ATOM      4  C   UNL d   1     -10.619  15.307   9.587 -0.01 -0.01    +0.194    16.522
ATOM      5  C   UNL d   1     -11.531  15.801   8.471 -0.00 -0.01    +0.194    16.522
ATOM      6  C   UNL d   1     -11.772  14.769   7.367 -0.01 -0.01    +0.194    16.522
ATOM      7  O   UNL d   1     -10.855  13.039   6.006 -0.03 +0.02    -0.278    16.522
ATOM      8  P   UNL d   1      -9.707  12.078   5.451 -0.13 -0.04    +0.473    16.522
ATOM      9  O   UNL d   1      -8.333  12.650   5.485 -0.23 +0.01    -0.228    16.522
ATOM     10  O   UNL d   1      -9.857  10.751   6.325 -0.14 +0.08    -0.303    16.522
ATOM     11  H   UNL d   1      -9.594  10.935   7.246 -0.29 -0.08    +0.222    16.522
ATOM     12  O   UNL d   1     -10.223  11.597   4.027 -0.09 +0.01    -0.303    16.522
ATOM     13  H   UNL d   1     -10.831  12.242   3.600 +0.03 -0.01    +0.222    16.522
ATOM     14  O   UNL d   1     -10.386  12.459   8.624 -0.06 +0.03    -0.278    16.522
ATOM     15  P   UNL d   1      -9.523  11.359   9.405 -0.13 -0.08    +0.473    16.522
ATOM     16  O   UNL d   1      -9.405  11.526  10.888 -0.13 +0.01    -0.228    16.522
ATOM     17  O   UNL d   1     -10.194   9.975   8.991 -0.18 +0.07    -0.303    16.522
ATOM     18  H   UNL d   1      -9.841   9.654   8.140 -0.41 -0.12    +0.222    16.522
ATOM     19  O   UNL d   1      -8.147  11.297   8.610 -0.23 +0.12    -0.303    16.522
ATOM     20  H   UNL d   1      -7.386  11.201   9.213 -0.44 -0.12    +0.222    16.522
ATOM     21  O   UNL d   1     -12.336  15.472   6.262 -0.00 +0.01    -0.278    16.522
ATOM     22  P   UNL d   1     -13.850  15.201   5.840 -0.00 -0.02    +0.473    16.522
ATOM     23  O   UNL d   1     -14.146  14.002   5.004 -0.00 +0.01    -0.228    16.522
ATOM     24  O   UNL d   1     -14.590  15.232   7.249 +0.00 +0.01    -0.303    16.522
ATOM     25  H   UNL d   1     -14.050  14.707   7.892 +0.00 -0.01    +0.222    16.522
ATOM     26  O   UNL d   1     -14.272  16.616   5.214 +0.00 +0.01    -0.303    16.522
ATOM     27  H   UNL d   1     -14.649  16.474   4.322 +0.00 -0.01    +0.222    16.522
ATOM     28  O   UNL d   1      -8.850  13.908  10.232 -0.06 +0.03    -0.278    16.522
ATOM     29  P   UNL d   1      -7.339  14.132  10.685 -0.09 -0.06    +0.473    16.522
ATOM     30  O   UNL d   1      -6.665  15.321  10.104 -0.10 +0.02    -0.228    16.522
ATOM     31  O   UNL d   1      -7.518  14.102  12.275 -0.05 +0.03    -0.303    16.522
ATOM     32  H   UNL d   1      -8.077  14.868  12.543 +0.03 -0.02    +0.222    16.522
ATOM     33  O   UNL d   1      -6.685  12.713  10.379 -0.11 +0.09    -0.303    16.522
ATOM     34  H   UNL d   1      -6.674  12.569   9.401 -0.42 -0.13    +0.222    16.522
ATOM     35  O   UNL d   1     -12.791  16.059   9.086 +0.00 +0.01    -0.278    16.522
ATOM     36  P   UNL d   1     -13.465  14.965  10.031 +0.00 -0.02    +0.473    16.522
ATOM     37  O   UNL d   1     -13.177  13.541   9.677 -0.00 +0.01    -0.228    16.522
ATOM     38  O   UNL d   1     -12.932  15.403  11.467 -0.00 +0.01    -0.303    16.522
ATOM     39  H   UNL d   1     -12.004  15.711  11.385 +0.00 -0.01    +0.222    16.522
ATOM     40  O   UNL d   1     -14.991  15.413  10.036 +0.00 +0.01    -0.303    16.522
ATOM     41  H   UNL d   1     -15.283  15.720   9.149 +0.00 -0.01    +0.222    16.522
ATOM     42  O   UNL d   1     -10.178  16.461  10.311 -0.00 +0.02    -0.278    16.522
ATOM     43  P   UNL d   1      -9.853  16.318  11.866 -0.00 -0.03    +0.473    16.522
ATOM     44  O   UNL d   1      -8.510  16.764  12.331 -0.01 +0.02    -0.228    16.522
ATOM     45  O   UNL d   1     -11.067  17.088  12.548 +0.00 +0.02    -0.303    16.522
ATOM     46  H   UNL d   1     -11.719  16.465  12.927 +0.00 -0.01    +0.222    16.522
ATOM     47  O   UNL d   1     -10.221  14.789  12.178 -0.01 +0.02    -0.303    16.522
ATOM     48  H   UNL d   1      -9.581  14.204  11.721 +0.02 -0.02    +0.222    16.522
TER
ENDMDL
MODEL       31
USER    Run = 31
USER    Cluster Rank = 62
USER    Number of conformations in this cluster = 1
USER  
USER    RMSD from reference structure       = 21.275 A
USER  
USER    Estimated Free Energy of Binding    =   +3.64 kcal/mol  [=(1)+(2)+(3)-(4)]
USER    
USER    (1) Final Intermolecular Energy     =   -3.52 kcal/mol
USER        vdW + Hbond + desolv Energy     =   -3.41 kcal/mol
USER        Electrostatic Energy            =   -0.11 kcal/mol
USER    (2) Final Total Internal Energy     =  -15.40 kcal/mol
USER    (3) Torsional Free Energy           =   +7.16 kcal/mol
USER    (4) Unbound System's Energy  [=(2)] =  -15.40 kcal/mol
USER    
USER    
USER  
USER    DPF = D:/Protein_go_brrr/autodock/final/mut_N102T/IHP/dock.dpf
USER    NEWDPF move	IHP_ideal_opt.pdbqt
USER    NEWDPF about	0.035000 0.082000 -0.065000
USER    NEWDPF tran0	-4.937684 14.566228 -18.025415
USER    NEWDPF axisangle0	0.565980 -0.466210 -0.679937 -129.743900
USER    NEWDPF quaternion0	0.512416 -0.422089 -0.615589 -0.424643
USER    NEWDPF dihe0	-108.58 14.11 167.14 6.74 7.62 163.41 -49.19 -113.28 6.32 43.86 138.89 81.01 -138.29 75.70 175.28 -36.69 149.82 -127.61 23.37 -35.25 -21.77 4.89 -18.52 1.11 
USER  
USER                              x       y       z    vdW   Elec        q     RMS 
ATOM      1  C   UNL d   1      -5.944  13.687 -19.121 -0.09 +0.04    +0.194    21.275
ATOM      2  C   UNL d   1      -5.508  15.076 -19.592 -0.10 +0.07    +0.194    21.275
ATOM      3  C   UNL d   1      -5.605  16.111 -18.470 -0.09 +0.08    +0.194    21.275
ATOM      4  C   UNL d   1      -4.885  15.683 -17.193 -0.11 +0.07    +0.194    21.275
ATOM      5  C   UNL d   1      -5.202  14.261 -16.749 -0.14 +0.03    +0.194    21.275
ATOM      6  C   UNL d   1      -5.166  13.235 -17.884 -0.17 +0.03    +0.194    21.275
ATOM      7  O   UNL d   1      -5.662  12.753 -20.166 -0.06 -0.04    -0.278    21.275
ATOM      8  P   UNL d   1      -6.858  12.306 -21.126 -0.01 +0.05    +0.473    21.275
ATOM      9  O   UNL d   1      -7.667  11.159 -20.634 -0.04 -0.02    -0.228    21.275
ATOM     10  O   UNL d   1      -7.713  13.638 -21.326 -0.00 -0.03    -0.303    21.275
ATOM     11  H   UNL d   1      -7.417  14.099 -22.133 +0.01 +0.03    +0.222    21.275
ATOM     12  O   UNL d   1      -6.191  12.122 -22.557 -0.01 -0.03    -0.303    21.275
ATOM     13  H   UNL d   1      -5.429  12.726 -22.708 +0.02 +0.03    +0.222    21.275
ATOM     14  O   UNL d   1      -4.148  15.013 -20.039 -0.02 -0.19    -0.278    21.275
ATOM     15  P   UNL d   1      -3.920  14.828 -21.613 -0.04 +0.28    +0.473    21.275
ATOM     16  O   UNL d   1      -2.944  15.757 -22.265 -0.37 -0.25    -0.228    21.275
ATOM     17  O   UNL d   1      -3.512  13.296 -21.769 -0.11 -0.09    -0.303    21.275
ATOM     18  H   UNL d   1      -4.277  12.710 -21.611 +0.04 +0.04    +0.222    21.275
ATOM     19  O   UNL d   1      -5.386  14.832 -22.230 -0.03 -0.09    -0.303    21.275
ATOM     20  H   UNL d   1      -5.964  14.180 -21.791 +0.02 +0.05    +0.222    21.275
ATOM     21  O   UNL d   1      -5.804  12.058 -17.396 -0.10 -0.01    -0.278    21.275
ATOM     22  P   UNL d   1      -5.026  10.665 -17.424 -0.30 -0.01    +0.473    21.275
ATOM     23  O   UNL d   1      -5.829   9.410 -17.473 -0.20 -0.03    -0.228    21.275
ATOM     24  O   UNL d   1      -4.035  10.872 -18.652 -0.27 +0.02    -0.303    21.275
ATOM     25  H   UNL d   1      -4.579  11.064 -19.458 +0.06 +0.01    +0.222    21.275
ATOM     26  O   UNL d   1      -4.037  10.820 -16.172 -0.39 +0.09    -0.303    21.275
ATOM     27  H   UNL d   1      -4.056  11.747 -15.859 -0.03 -0.05    +0.222    21.275
ATOM     28  O   UNL d   1      -4.930  17.283 -18.909 -0.06 -0.21    -0.278    21.275
ATOM     29  P   UNL d   1      -5.734  18.640 -19.130 -0.04 +0.23    +0.473    21.275
ATOM     30  O   UNL d   1      -6.784  18.599 -20.180 -0.01 -0.07    -0.228    21.275
ATOM     31  O   UNL d   1      -6.217  18.925 -17.631 -0.01 -0.08    -0.303    21.275
ATOM     32  H   UNL d   1      -5.850  18.224 -17.044 +0.02 +0.06    +0.222    21.275
ATOM     33  O   UNL d   1      -4.559  19.696 -19.327 -0.15 -0.25    -0.303    21.275
ATOM     34  H   UNL d   1      -3.942  19.638 -18.557 +0.01 +0.20    +0.222    21.275
ATOM     35  O   UNL d   1      -4.173  13.905 -15.828 -0.21 -0.03    -0.278    21.275
ATOM     36  P   UNL d   1      -4.513  13.695 -14.284 -0.11 +0.00    +0.473    21.275
ATOM     37  O   UNL d   1      -3.334  13.653 -13.364 -0.13 -0.01    -0.228    21.275
ATOM     38  O   UNL d   1      -5.517  14.899 -14.005 -0.03 -0.01    -0.303    21.275
ATOM     39  H   UNL d   1      -5.043  15.749 -14.132 +0.04 +0.02    +0.222    21.275
ATOM     40  O   UNL d   1      -5.452  12.412 -14.314 -0.09 +0.02    -0.303    21.275
ATOM     41  H   UNL d   1      -5.557  12.059 -15.225 +0.09 -0.02    +0.222    21.275
ATOM     42  O   UNL d   1      -5.332  16.559 -16.152 -0.05 -0.06    -0.278    21.275
ATOM     43  P   UNL d   1      -4.311  17.630 -15.555 -0.04 +0.12    +0.473    21.275
ATOM     44  O   UNL d   1      -3.352  17.160 -14.517 -0.06 -0.04    -0.228    21.275
ATOM     45  O   UNL d   1      -3.620  18.219 -16.861 -0.08 -0.18    -0.303    21.275
ATOM     46  H   UNL d   1      -4.259  18.712 -17.414 +0.02 +0.13    +0.222    21.275
ATOM     47  O   UNL d   1      -5.266  18.841 -15.117 -0.01 -0.05    -0.303    21.275
ATOM     48  H   UNL d   1      -5.237  19.539 -15.804 +0.01 +0.04    +0.222    21.275
TER
ENDMDL
MODEL       77
USER    Run = 77
USER    Cluster Rank = 63
USER    Number of conformations in this cluster = 1
USER  
USER    RMSD from reference structure       = 20.436 A
USER  
USER    Estimated Free Energy of Binding    =   +3.69 kcal/mol  [=(1)+(2)+(3)-(4)]
USER    
USER    (1) Final Intermolecular Energy     =   -3.47 kcal/mol
USER        vdW + Hbond + desolv Energy     =   -3.25 kcal/mol
USER        Electrostatic Energy            =   -0.22 kcal/mol
USER    (2) Final Total Internal Energy     =  -14.35 kcal/mol
USER    (3) Torsional Free Energy           =   +7.16 kcal/mol
USER    (4) Unbound System's Energy  [=(2)] =  -14.35 kcal/mol
USER    
USER    
USER  
USER    DPF = D:/Protein_go_brrr/autodock/final/mut_N102T/IHP/dock.dpf
USER    NEWDPF move	IHP_ideal_opt.pdbqt
USER    NEWDPF about	0.035000 0.082000 -0.065000
USER    NEWDPF tran0	-8.325738 -0.139511 -20.495845
USER    NEWDPF axisangle0	-0.757481 0.651065 -0.048342 96.044703
USER    NEWDPF quaternion0	-0.563116 0.484006 -0.035938 0.668841
USER    NEWDPF dihe0	115.69 117.61 146.33 -1.74 38.99 -132.06 -13.51 -144.82 -171.36 20.55 -154.39 171.77 101.19 -176.24 -57.98 116.92 96.30 164.14 52.94 6.70 175.66 -3.48 8.43 180.00 
USER  
USER                              x       y       z    vdW   Elec        q     RMS 
ATOM      1  C   UNL d   1      -7.616  -1.708 -20.353 -0.12 -0.02    +0.194    20.436
ATOM      2  C   UNL d   1      -7.576  -1.089 -21.751 -0.08 -0.01    +0.194    20.436
ATOM      3  C   UNL d   1      -8.903  -0.420 -22.114 -0.07 -0.00    +0.194    20.436
ATOM      4  C   UNL d   1      -9.385   0.571 -21.058 -0.11 +0.01    +0.194    20.436
ATOM      5  C   UNL d   1      -9.334   0.034 -19.633 -0.15 +0.00    +0.194    20.436
ATOM      6  C   UNL d   1      -8.030  -0.689 -19.290 -0.14 -0.00    +0.194    20.436
ATOM      7  O   UNL d   1      -6.299  -2.155 -20.025 -0.17 +0.07    -0.278    20.436
ATOM      8  P   UNL d   1      -5.705  -3.411 -20.814 -0.11 -0.14    +0.473    20.436
ATOM      9  O   UNL d   1      -4.221  -3.446 -20.918 -0.34 +0.06    -0.228    20.436
ATOM     10  O   UNL d   1      -6.311  -4.672 -20.046 -0.19 +0.17    -0.303    20.436
ATOM     11  H   UNL d   1      -6.272  -4.518 -19.084 -0.10 -0.31    +0.222    20.436
ATOM     12  O   UNL d   1      -6.498  -3.447 -22.190 -0.05 +0.06    -0.303    20.436
ATOM     13  H   UNL d   1      -6.234  -2.727 -22.806 +0.06 -0.03    +0.222    20.436
ATOM     14  O   UNL d   1      -6.539  -0.100 -21.794 -0.08 -0.01    -0.278    20.436
ATOM     15  P   UNL d   1      -5.634  -0.068 -23.115 -0.04 -0.01    +0.473    20.436
ATOM     16  O   UNL d   1      -4.164  -0.278 -22.927 -0.08 +0.01    -0.228    20.436
ATOM     17  O   UNL d   1      -6.298  -1.160 -24.066 -0.02 +0.02    -0.303    20.436
ATOM     18  H   UNL d   1      -7.261  -1.019 -24.145 +0.02 -0.01    +0.222    20.436
ATOM     19  O   UNL d   1      -6.046   1.284 -23.845 -0.05 -0.00    -0.303    20.436
ATOM     20  H   UNL d   1      -6.989   1.287 -24.092 +0.02 +0.00    +0.222    20.436
ATOM     21  O   UNL d   1      -8.265  -1.414 -18.085 -0.19 +0.03    -0.278    20.436
ATOM     22  P   UNL d   1      -9.165  -2.731 -18.116 -0.07 -0.05    +0.473    20.436
ATOM     23  O   UNL d   1     -10.217  -2.841 -19.167 -0.02 +0.01    -0.228    20.436
ATOM     24  O   UNL d   1      -8.063  -3.878 -18.152 -0.06 +0.16    -0.303    20.436
ATOM     25  H   UNL d   1      -7.247  -3.508 -18.575 -0.29 -0.21    +0.222    20.436
ATOM     26  O   UNL d   1      -9.677  -2.811 -16.598 -0.10 -0.02    -0.303    20.436
ATOM     27  H   UNL d   1     -10.098  -1.961 -16.356 +0.06 +0.01    +0.222    20.436
ATOM     28  O   UNL d   1      -8.687   0.354 -23.287 -0.04 +0.00    -0.278    20.436
ATOM     29  P   UNL d   1      -9.271  -0.128 -24.688 -0.01 -0.01    +0.473    20.436
ATOM     30  O   UNL d   1     -10.629   0.375 -25.022 -0.00 +0.00    -0.228    20.436
ATOM     31  O   UNL d   1      -8.075   0.312 -25.656 -0.00 +0.01    -0.303    20.436
ATOM     32  H   UNL d   1      -7.221   0.144 -25.195 +0.01 -0.01    +0.222    20.436
ATOM     33  O   UNL d   1      -9.090  -1.707 -24.600 -0.00 +0.01    -0.303    20.436
ATOM     34  H   UNL d   1      -8.178  -1.943 -24.899 +0.01 -0.01    +0.222    20.436
ATOM     35  O   UNL d   1      -9.416   1.177 -18.785 -0.24 -0.01    -0.278    20.436
ATOM     36  P   UNL d   1     -10.309   1.138 -17.464 -0.18 +0.01    +0.473    20.436
ATOM     37  O   UNL d   1      -9.725   1.823 -16.270 -0.28 +0.01    -0.228    20.436
ATOM     38  O   UNL d   1     -11.678   1.769 -17.977 -0.06 -0.01    -0.303    20.436
ATOM     39  H   UNL d   1     -12.395   1.106 -17.878 +0.03 +0.00    +0.222    20.436
ATOM     40  O   UNL d   1     -10.633  -0.413 -17.320 -0.07 -0.01    -0.303    20.436
ATOM     41  H   UNL d   1     -10.528  -0.888 -18.174 +0.05 +0.00    +0.222    20.436
ATOM     42  O   UNL d   1     -10.757   0.855 -21.351 -0.04 -0.00    -0.278    20.436
ATOM     43  P   UNL d   1     -11.845  -0.293 -21.143 -0.00 +0.00    +0.473    20.436
ATOM     44  O   UNL d   1     -13.045  -0.271 -22.025 -0.00 +0.00    -0.228    20.436
ATOM     45  O   UNL d   1     -10.976  -1.622 -21.258 -0.00 +0.00    -0.303    20.436
ATOM     46  H   UNL d   1     -11.175  -2.244 -20.530 +0.01 -0.00    +0.222    20.436
ATOM     47  O   UNL d   1     -12.142  -0.234 -19.569 -0.01 -0.00    -0.303    20.436
ATOM     48  H   UNL d   1     -11.494   0.362 -19.140 +0.04 +0.00    +0.222    20.436
TER
ENDMDL
MODEL       47
USER    Run = 47
USER    Cluster Rank = 64
USER    Number of conformations in this cluster = 1
USER  
USER    RMSD from reference structure       = 20.278 A
USER  
USER    Estimated Free Energy of Binding    =   +3.72 kcal/mol  [=(1)+(2)+(3)-(4)]
USER    
USER    (1) Final Intermolecular Energy     =   -3.44 kcal/mol
USER        vdW + Hbond + desolv Energy     =   -3.42 kcal/mol
USER        Electrostatic Energy            =   -0.02 kcal/mol
USER    (2) Final Total Internal Energy     =  -11.86 kcal/mol
USER    (3) Torsional Free Energy           =   +7.16 kcal/mol
USER    (4) Unbound System's Energy  [=(2)] =  -11.86 kcal/mol
USER    
USER    
USER  
USER    DPF = D:/Protein_go_brrr/autodock/final/mut_N102T/IHP/dock.dpf
USER    NEWDPF move	IHP_ideal_opt.pdbqt
USER    NEWDPF about	0.035000 0.082000 -0.065000
USER    NEWDPF tran0	11.606076 15.669230 14.394264
USER    NEWDPF axisangle0	-0.078969 -0.968877 0.234610 -179.973752
USER    NEWDPF quaternion0	-0.078969 -0.968877 0.234610 -0.000229
USER    NEWDPF dihe0	-179.91 118.43 11.89 31.15 -69.22 104.14 29.29 -111.36 32.83 -171.62 63.73 -120.83 77.93 -179.68 -177.19 125.23 -87.73 -85.19 55.36 -10.91 178.93 -24.02 -138.42 -167.84 
USER  
USER                              x       y       z    vdW   Elec        q     RMS 
ATOM      1  C   UNL d   1      10.203  14.722  14.048 -0.13 -0.01    +0.194    20.278
ATOM      2  C   UNL d   1      11.327  13.994  14.788 -0.09 +0.00    +0.194    20.278
ATOM      3  C   UNL d   1      12.700  14.329  14.204 -0.08 +0.01    +0.194    20.278
ATOM      4  C   UNL d   1      12.958  15.830  14.097 -0.03 +0.00    +0.194    20.278
ATOM      5  C   UNL d   1      11.813  16.613  13.468 -0.03 -0.01    +0.194    20.278
ATOM      6  C   UNL d   1      10.433  16.234  14.009 -0.05 -0.02    +0.194    20.278
ATOM      7  O   UNL d   1       8.982  14.495  14.756 -0.12 +0.05    -0.278    20.278
ATOM      8  P   UNL d   1       8.385  13.014  14.784 -0.25 -0.08    +0.473    20.278
ATOM      9  O   UNL d   1       8.029  12.502  16.136 -0.53 -0.00    -0.228    20.278
ATOM     10  O   UNL d   1       7.140  13.080  13.789 -0.46 +0.12    -0.303    20.278
ATOM     11  H   UNL d   1       7.254  13.826  13.172 -0.25 -0.10    +0.222    20.278
ATOM     12  O   UNL d   1       9.423  12.135  13.961 -0.25 +0.00    -0.303    20.278
ATOM     13  H   UNL d   1      10.261  11.970  14.449 +0.12 +0.01    +0.222    20.278
ATOM     14  O   UNL d   1      11.309  14.385  16.166 -0.02 +0.01    -0.278    20.278
ATOM     15  P   UNL d   1      11.101  13.215  17.240 +0.01 +0.01    +0.473    20.278
ATOM     16  O   UNL d   1       9.957  13.372  18.192 -0.07 -0.00    -0.228    20.278
ATOM     17  O   UNL d   1      10.993  11.893  16.357 -0.07 -0.03    -0.303    20.278
ATOM     18  H   UNL d   1      10.083  11.764  16.027 +0.10 +0.02    +0.222    20.278
ATOM     19  O   UNL d   1      12.532  13.034  17.911 -0.00 -0.02    -0.303    20.278
ATOM     20  H   UNL d   1      13.251  13.276  17.298 +0.02 +0.01    +0.222    20.278
ATOM     21  O   UNL d   1       9.473  16.780  13.108 -0.06 +0.04    -0.278    20.278
ATOM     22  P   UNL d   1       9.207  16.066  11.706 -0.13 -0.04    +0.473    20.278
ATOM     23  O   UNL d   1       8.850  16.920  10.537 -0.16 +0.00    -0.228    20.278
ATOM     24  O   UNL d   1      10.533  15.205  11.523 -0.18 +0.02    -0.303    20.278
ATOM     25  H   UNL d   1      10.846  15.316  10.589 -0.17 -0.04    +0.222    20.278
ATOM     26  O   UNL d   1       8.136  14.943  12.110 -0.33 +0.07    -0.303    20.278
ATOM     27  H   UNL d   1       8.577  14.259  12.654 +0.09 -0.03    +0.222    20.278
ATOM     28  O   UNL d   1      13.682  13.841  15.109 -0.03 -0.02    -0.278    20.278
ATOM     29  P   UNL d   1      14.191  12.335  15.009 -0.04 +0.06    +0.473    20.278
ATOM     30  O   UNL d   1      15.484  12.141  14.304 -0.06 -0.03    -0.228    20.278
ATOM     31  O   UNL d   1      14.136  11.919  16.554 -0.01 -0.04    -0.303    20.278
ATOM     32  H   UNL d   1      13.207  11.685  16.783 +0.04 +0.04    +0.222    20.278
ATOM     33  O   UNL d   1      12.920  11.593  14.400 -0.07 -0.06    -0.303    20.278
ATOM     34  H   UNL d   1      12.128  11.809  14.950 +0.08 +0.04    +0.222    20.278
ATOM     35  O   UNL d   1      12.040  17.977  13.817 -0.00 +0.01    -0.278    20.278
ATOM     36  P   UNL d   1      13.194  18.363  14.849 +0.00 -0.02    +0.473    20.278
ATOM     37  O   UNL d   1      13.293  17.491  16.060 -0.00 +0.01    -0.228    20.278
ATOM     38  O   UNL d   1      14.485  18.339  13.918 -0.00 +0.00    -0.303    20.278
ATOM     39  H   UNL d   1      14.401  17.607  13.270 +0.01 -0.00    +0.222    20.278
ATOM     40  O   UNL d   1      12.927  19.911  15.095 +0.00 +0.02    -0.303    20.278
ATOM     41  H   UNL d   1      13.155  20.179  16.012 +0.00 -0.01    +0.222    20.278
ATOM     42  O   UNL d   1      14.098  15.995  13.246 -0.02 -0.01    -0.278    20.278
ATOM     43  P   UNL d   1      13.896  15.933  11.665 -0.03 +0.02    +0.473    20.278
ATOM     44  O   UNL d   1      12.941  14.921  11.134 -0.16 -0.02    -0.228    20.278
ATOM     45  O   UNL d   1      13.519  17.436  11.302 -0.01 -0.01    -0.303    20.278
ATOM     46  H   UNL d   1      13.360  17.970  12.107 +0.01 -0.00    +0.222    20.278
ATOM     47  O   UNL d   1      15.395  15.830  11.108 -0.01 -0.02    -0.303    20.278
ATOM     48  H   UNL d   1      15.827  15.037  11.489 +0.02 +0.01    +0.222    20.278
TER
ENDMDL
MODEL       89
USER    Run = 89
USER    Cluster Rank = 65
USER    Number of conformations in this cluster = 1
USER  
USER    RMSD from reference structure       = 15.248 A
USER  
USER    Estimated Free Energy of Binding    =   +3.75 kcal/mol  [=(1)+(2)+(3)-(4)]
USER    
USER    (1) Final Intermolecular Energy     =   -3.41 kcal/mol
USER        vdW + Hbond + desolv Energy     =   -3.20 kcal/mol
USER        Electrostatic Energy            =   -0.21 kcal/mol
USER    (2) Final Total Internal Energy     =  -14.16 kcal/mol
USER    (3) Torsional Free Energy           =   +7.16 kcal/mol
USER    (4) Unbound System's Energy  [=(2)] =  -14.16 kcal/mol
USER    
USER    
USER  
USER    DPF = D:/Protein_go_brrr/autodock/final/mut_N102T/IHP/dock.dpf
USER    NEWDPF move	IHP_ideal_opt.pdbqt
USER    NEWDPF about	0.035000 0.082000 -0.065000
USER    NEWDPF tran0	14.331993 12.013934 3.570357
USER    NEWDPF axisangle0	0.781767 -0.368298 0.503187 -177.304440
USER    NEWDPF quaternion0	0.781550 -0.368196 0.503048 -0.023521
USER    NEWDPF dihe0	-155.84 10.63 8.01 145.51 54.95 -157.49 -82.82 -5.64 68.79 80.30 179.96 113.32 -106.85 -14.97 -8.01 15.24 143.45 49.76 30.39 -28.73 -40.06 170.35 -6.94 -24.88 
USER  
USER                              x       y       z    vdW   Elec        q     RMS 
ATOM      1  C   UNL d   1      15.751  11.647   4.484 -0.03 +0.03    +0.194    15.248
ATOM      2  C   UNL d   1      15.671  13.071   3.931 -0.02 +0.04    +0.194    15.248
ATOM      3  C   UNL d   1      15.167  13.090   2.486 -0.02 +0.03    +0.194    15.248
ATOM      4  C   UNL d   1      13.861  12.322   2.295 -0.07 +0.05    +0.194    15.248
ATOM      5  C   UNL d   1      13.856  10.938   2.931 -0.11 +0.04    +0.194    15.248
ATOM      6  C   UNL d   1      14.418  10.909   4.354 -0.11 +0.05    +0.194    15.248
ATOM      7  O   UNL d   1      16.061  11.726   5.877 -0.03 -0.05    -0.278    15.248
ATOM      8  P   UNL d   1      17.595  11.675   6.318 +0.00 +0.04    +0.473    15.248
ATOM      9  O   UNL d   1      18.353  10.490   5.831 -0.00 -0.01    -0.228    15.248
ATOM     10  O   UNL d   1      18.193  13.060   5.799 -0.00 -0.02    -0.303    15.248
ATOM     11  H   UNL d   1      17.589  13.787   6.039 +0.01 +0.02    +0.222    15.248
ATOM     12  O   UNL d   1      17.580  11.889   7.893 -0.01 -0.03    -0.303    15.248
ATOM     13  H   UNL d   1      16.869  12.500   8.192 +0.03 +0.03    +0.222    15.248
ATOM     14  O   UNL d   1      14.769  13.836   4.740 -0.04 -0.12    -0.278    15.248
ATOM     15  P   UNL d   1      15.431  14.853   5.785 -0.00 +0.13    +0.473    15.248
ATOM     16  O   UNL d   1      16.625  15.621   5.311 +0.00 -0.03    -0.228    15.248
ATOM     17  O   UNL d   1      14.225  15.795   6.226 -0.03 -0.14    -0.303    15.248
ATOM     18  H   UNL d   1      14.135  16.556   5.621 +0.02 +0.09    +0.222    15.248
ATOM     19  O   UNL d   1      15.653  13.983   7.098 -0.02 -0.07    -0.303    15.248
ATOM     20  H   UNL d   1      16.500  13.499   7.072 +0.03 +0.03    +0.222    15.248
ATOM     21  O   UNL d   1      14.665   9.541   4.672 -0.10 -0.04    -0.278    15.248
ATOM     22  P   UNL d   1      14.382   9.007   6.148 -0.21 +0.07    +0.473    15.248
ATOM     23  O   UNL d   1      13.427   9.771   7.003 -0.30 -0.06    -0.228    15.248
ATOM     24  O   UNL d   1      13.970   7.495   5.875 -0.24 -0.03    -0.303    15.248
ATOM     25  H   UNL d   1      13.833   7.384   4.900 +0.11 +0.02    +0.222    15.248
ATOM     26  O   UNL d   1      15.868   8.847   6.727 -0.07 -0.04    -0.303    15.248
ATOM     27  H   UNL d   1      16.458   9.490   6.282 +0.05 +0.02    +0.222    15.248
ATOM     28  O   UNL d   1      14.863  14.440   2.157 -0.01 -0.05    -0.278    15.248
ATOM     29  P   UNL d   1      13.500  15.100   2.650 -0.04 +0.23    +0.473    15.248
ATOM     30  O   UNL d   1      12.506  14.162   3.231 -0.66 -0.33    -0.228    15.248
ATOM     31  O   UNL d   1      14.075  16.239   3.617 -0.01 -0.11    -0.303    15.248
ATOM     32  H   UNL d   1      14.918  15.918   4.013 +0.01 +0.06    +0.222    15.248
ATOM     33  O   UNL d   1      13.046  15.926   1.366 -0.01 -0.06    -0.303    15.248
ATOM     34  H   UNL d   1      13.027  15.320   0.585 +0.02 +0.02    +0.222    15.248
ATOM     35  O   UNL d   1      12.485  10.555   3.014 -0.15 -0.09    -0.278    15.248
ATOM     36  P   UNL d   1      11.987   9.198   2.339 -0.18 +0.01    +0.473    15.248
ATOM     37  O   UNL d   1      10.506   8.989   2.330 -0.43 +0.01    -0.228    15.248
ATOM     38  O   UNL d   1      12.644   9.293   0.892 -0.16 +0.03    -0.303    15.248
ATOM     39  H   UNL d   1      13.135  10.140   0.817 +0.10 -0.01    +0.222    15.248
ATOM     40  O   UNL d   1      12.866   8.104   3.087 -0.30 -0.00    -0.303    15.248
ATOM     41  H   UNL d   1      12.978   8.317   4.040 +0.13 +0.03    +0.222    15.248
ATOM     42  O   UNL d   1      13.692  12.138   0.885 -0.04 -0.01    -0.278    15.248
ATOM     43  P   UNL d   1      12.254  12.389   0.243 -0.08 -0.00    +0.473    15.248
ATOM     44  O   UNL d   1      11.991  13.730  -0.351 -0.07 +0.02    -0.228    15.248
ATOM     45  O   UNL d   1      12.117  11.183  -0.787 -0.22 +0.05    -0.303    15.248
ATOM     46  H   UNL d   1      11.483  10.510  -0.468 +0.14 -0.03    +0.222    15.248
ATOM     47  O   UNL d   1      11.248  11.939   1.407 -0.16 -0.07    -0.303    15.248
ATOM     48  H   UNL d   1      11.318  10.970   1.537 +0.11 +0.03    +0.222    15.248
TER
ENDMDL
MODEL       79
USER    Run = 79
USER    Cluster Rank = 66
USER    Number of conformations in this cluster = 1
USER  
USER    RMSD from reference structure       = 11.923 A
USER  
USER    Estimated Free Energy of Binding    =   +3.77 kcal/mol  [=(1)+(2)+(3)-(4)]
USER    
USER    (1) Final Intermolecular Energy     =   -3.39 kcal/mol
USER        vdW + Hbond + desolv Energy     =   -3.30 kcal/mol
USER        Electrostatic Energy            =   -0.08 kcal/mol
USER    (2) Final Total Internal Energy     =  -15.31 kcal/mol
USER    (3) Torsional Free Energy           =   +7.16 kcal/mol
USER    (4) Unbound System's Energy  [=(2)] =  -15.31 kcal/mol
USER    
USER    
USER  
USER    DPF = D:/Protein_go_brrr/autodock/final/mut_N102T/IHP/dock.dpf
USER    NEWDPF move	IHP_ideal_opt.pdbqt
USER    NEWDPF about	0.035000 0.082000 -0.065000
USER    NEWDPF tran0	-10.921794 6.494261 -8.712740
USER    NEWDPF axisangle0	0.298855 0.236281 -0.924585 126.205745
USER    NEWDPF quaternion0	0.266525 0.210720 -0.824564 0.452390
USER    NEWDPF dihe0	-156.67 -12.05 120.45 -40.75 -28.33 -179.92 -34.13 -143.58 76.80 70.13 17.75 180.00 -147.07 80.46 -180.00 -48.52 109.58 154.33 37.34 -23.37 168.24 9.32 -10.35 -10.99 
USER  
USER                              x       y       z    vdW   Elec        q     RMS 
ATOM      1  C   UNL d   1     -11.420   7.931  -7.893 -0.02 +0.00    +0.194    11.923
ATOM      2  C   UNL d   1     -10.118   7.303  -7.393 -0.07 +0.01    +0.194    11.923
ATOM      3  C   UNL d   1     -10.229   5.781  -7.284 -0.08 +0.01    +0.194    11.923
ATOM      4  C   UNL d   1     -10.734   5.121  -8.565 -0.00 +0.01    +0.194    11.923
ATOM      5  C   UNL d   1     -11.966   5.788  -9.163 -0.05 +0.00    +0.194    11.923
ATOM      6  C   UNL d   1     -11.880   7.315  -9.215 -0.04 +0.00    +0.194    11.923
ATOM      7  O   UNL d   1     -11.182   9.321  -8.132 -0.01 +0.00    -0.278    11.923
ATOM      8  P   UNL d   1     -11.311  10.334  -6.904 +0.00 -0.00    +0.473    11.923
ATOM      9  O   UNL d   1     -12.633  11.007  -6.777 -0.00 +0.00    -0.228    11.923
ATOM     10  O   UNL d   1     -10.931   9.451  -5.631 -0.01 +0.00    -0.303    11.923
ATOM     11  H   UNL d   1     -10.132   8.926  -5.824 +0.02 -0.00    +0.222    11.923
ATOM     12  O   UNL d   1     -10.052  11.296  -7.028 -0.00 +0.00    -0.303    11.923
ATOM     13  H   UNL d   1      -9.196  10.813  -7.024 +0.02 -0.00    +0.222    11.923
ATOM     14  O   UNL d   1      -9.064   7.619  -8.312 -0.40 -0.02    -0.278    11.923
ATOM     15  P   UNL d   1      -7.973   8.679  -7.812 -0.12 -0.01    +0.473    11.923
ATOM     16  O   UNL d   1      -6.539   8.351  -8.090 -0.28 +0.01    -0.228    11.923
ATOM     17  O   UNL d   1      -8.432  10.051  -8.477 -0.03 +0.01    -0.303    11.923
ATOM     18  H   UNL d   1      -9.389  10.045  -8.673 +0.03 -0.00    +0.222    11.923
ATOM     19  O   UNL d   1      -8.334   8.929  -6.283 -0.07 +0.01    -0.303    11.923
ATOM     20  H   UNL d   1      -8.831   9.759  -6.161 +0.03 -0.00    +0.222    11.923
ATOM     21  O   UNL d   1     -13.199   7.794  -9.463 -0.00 -0.00    -0.278    11.923
ATOM     22  P   UNL d   1     -14.338   7.582  -8.366 +0.01 +0.00    +0.473    11.923
ATOM     23  O   UNL d   1     -15.747   7.436  -8.831 +0.00 -0.00    -0.228    11.923
ATOM     24  O   UNL d   1     -13.773   6.340  -7.546 +0.00 -0.00    -0.303    11.923
ATOM     25  H   UNL d   1     -14.172   5.515  -7.924 +0.00 +0.00    +0.222    11.923
ATOM     26  O   UNL d   1     -14.052   8.799  -7.362 +0.00 +0.00    -0.303    11.923
ATOM     27  H   UNL d   1     -13.350   9.368  -7.738 +0.00 -0.00    +0.222    11.923
ATOM     28  O   UNL d   1      -8.917   5.269  -7.087 -0.16 -0.01    -0.278    11.923
ATOM     29  P   UNL d   1      -8.567   4.436  -5.776 -0.22 -0.02    +0.473    11.923
ATOM     30  O   UNL d   1      -8.427   5.232  -4.530 -0.22 +0.00    -0.228    11.923
ATOM     31  O   UNL d   1      -9.739   3.347  -5.815 -0.14 +0.01    -0.303    11.923
ATOM     32  H   UNL d   1     -10.120   3.329  -6.723 +0.07 -0.00    +0.222    11.923
ATOM     33  O   UNL d   1      -7.295   3.599  -6.241 -0.29 +0.06    -0.303    11.923
ATOM     34  H   UNL d   1      -7.600   2.781  -6.704 -0.36 -0.15    +0.222    11.923
ATOM     35  O   UNL d   1     -12.041   5.325 -10.510 -0.05 -0.00    -0.278    11.923
ATOM     36  P   UNL d   1     -13.325   4.524 -11.014 +0.00 +0.00    +0.473    11.923
ATOM     37  O   UNL d   1     -13.604   4.611 -12.481 -0.01 -0.00    -0.228    11.923
ATOM     38  O   UNL d   1     -13.017   3.052 -10.492 -0.01 -0.01    -0.303    11.923
ATOM     39  H   UNL d   1     -12.211   3.072  -9.933 +0.03 +0.01    +0.222    11.923
ATOM     40  O   UNL d   1     -14.461   5.049 -10.032 +0.00 -0.00    -0.303    11.923
ATOM     41  H   UNL d   1     -14.277   5.961  -9.717 +0.00 +0.00    +0.222    11.923
ATOM     42  O   UNL d   1     -11.104   3.781  -8.223 -0.06 -0.01    -0.278    11.923
ATOM     43  P   UNL d   1     -10.404   2.568  -8.987 -0.14 +0.02    +0.473    11.923
ATOM     44  O   UNL d   1     -11.097   1.250  -8.963 -0.11 -0.01    -0.228    11.923
ATOM     45  O   UNL d   1     -10.179   3.159 -10.447 -0.14 -0.01    -0.303    11.923
ATOM     46  H   UNL d   1     -11.016   3.482 -10.836 +0.05 +0.00    +0.222    11.923
ATOM     47  O   UNL d   1      -8.913   2.577  -8.399 -0.52 +0.01    -0.303    11.923
ATOM     48  H   UNL d   1      -8.823   3.312  -7.758 +0.02 +0.00    +0.222    11.923
TER
ENDMDL
MODEL       81
USER    Run = 81
USER    Cluster Rank = 67
USER    Number of conformations in this cluster = 1
USER  
USER    RMSD from reference structure       = 22.846 A
USER  
USER    Estimated Free Energy of Binding    =   +3.79 kcal/mol  [=(1)+(2)+(3)-(4)]
USER    
USER    (1) Final Intermolecular Energy     =   -3.36 kcal/mol
USER        vdW + Hbond + desolv Energy     =   -3.19 kcal/mol
USER        Electrostatic Energy            =   -0.18 kcal/mol
USER    (2) Final Total Internal Energy     =  -15.44 kcal/mol
USER    (3) Torsional Free Energy           =   +7.16 kcal/mol
USER    (4) Unbound System's Energy  [=(2)] =  -15.44 kcal/mol
USER    
USER    
USER  
USER    DPF = D:/Protein_go_brrr/autodock/final/mut_N102T/IHP/dock.dpf
USER    NEWDPF move	IHP_ideal_opt.pdbqt
USER    NEWDPF about	0.035000 0.082000 -0.065000
USER    NEWDPF tran0	2.482045 16.834462 -19.526088
USER    NEWDPF axisangle0	-0.533006 -0.301639 -0.790518 168.866504
USER    NEWDPF quaternion0	-0.530492 -0.300216 -0.786790 0.097005
USER    NEWDPF dihe0	-104.46 -9.87 145.82 -17.29 11.46 -174.52 -108.11 -36.24 67.68 94.78 -6.10 -115.62 29.67 -178.30 14.29 9.98 131.85 -31.13 -8.16 12.74 -10.00 1.72 -5.15 163.63 
USER  
USER                              x       y       z    vdW   Elec        q     RMS 
ATOM      1  C   UNL d   1       2.517  18.428 -18.861 -0.05 +0.08    +0.194    22.846
ATOM      2  C   UNL d   1       2.576  18.348 -20.387 -0.05 +0.09    +0.194    22.846
ATOM      3  C   UNL d   1       3.523  17.243 -20.860 -0.02 +0.05    +0.194    22.846
ATOM      4  C   UNL d   1       3.232  15.887 -20.221 -0.05 +0.04    +0.194    22.846
ATOM      5  C   UNL d   1       3.051  15.939 -18.710 -0.09 +0.03    +0.194    22.846
ATOM      6  C   UNL d   1       2.153  17.082 -18.233 -0.11 +0.07    +0.194    22.846
ATOM      7  O   UNL d   1       1.491  19.357 -18.503 -0.06 -0.16    -0.278    22.846
ATOM      8  P   UNL d   1       1.837  20.498 -17.439 -0.00 +0.12    +0.473    22.846
ATOM      9  O   UNL d   1       2.548  21.682 -17.993 -0.00 -0.04    -0.228    22.846
ATOM     10  O   UNL d   1       0.427  20.860 -16.788 -0.01 -0.09    -0.303    22.846
ATOM     11  H   UNL d   1       0.324  20.382 -15.943 +0.02 +0.05    +0.222    22.846
ATOM     12  O   UNL d   1       2.570  19.743 -16.248 -0.00 -0.04    -0.303    22.846
ATOM     13  H   UNL d   1       2.042  19.000 -15.880 +0.02 +0.03    +0.222    22.846
ATOM     14  O   UNL d   1       1.264  18.071 -20.892 -0.65 -0.35    -0.278    22.846
ATOM     15  P   UNL d   1       0.869  18.765 -22.280 -0.02 +0.47    +0.473    22.846
ATOM     16  O   UNL d   1      -0.352  19.631 -22.275 -0.07 -0.31    -0.228    22.846
ATOM     17  O   UNL d   1       2.185  19.555 -22.706 -0.01 -0.11    -0.303    22.846
ATOM     18  H   UNL d   1       2.971  18.978 -22.662 +0.01 +0.06    +0.222    22.846
ATOM     19  O   UNL d   1       0.858  17.571 -23.331 -0.04 -0.19    -0.303    22.846
ATOM     20  H   UNL d   1       1.762  17.314 -23.593 +0.01 +0.08    +0.222    22.846
ATOM     21  O   UNL d   1       2.357  17.208 -16.827 -0.05 -0.06    -0.278    22.846
ATOM     22  P   UNL d   1       1.176  16.841 -15.819 -0.11 +0.11    +0.473    22.846
ATOM     23  O   UNL d   1       0.402  15.590 -16.066 -0.78 -0.11    -0.228    22.846
ATOM     24  O   UNL d   1       1.919  16.899 -14.413 -0.04 -0.01    -0.303    22.846
ATOM     25  H   UNL d   1       2.706  16.298 -14.454 +0.06 -0.01    +0.222    22.846
ATOM     26  O   UNL d   1       0.328  18.201 -15.802 -0.05 -0.09    -0.303    22.846
ATOM     27  H   UNL d   1       0.643  18.786 -16.522 +0.03 +0.08    +0.222    22.846
ATOM     28  O   UNL d   1       3.305  17.059 -22.253 -0.01 -0.07    -0.278    22.846
ATOM     29  P   UNL d   1       4.436  17.452 -23.304 +0.01 +0.05    +0.473    22.846
ATOM     30  O   UNL d   1       5.515  18.330 -22.784 +0.00 -0.02    -0.228    22.846
ATOM     31  O   UNL d   1       4.864  15.995 -23.810 +0.00 -0.02    -0.303    22.846
ATOM     32  H   UNL d   1       5.137  15.459 -23.030 +0.01 +0.01    +0.222    22.846
ATOM     33  O   UNL d   1       3.578  18.010 -24.524 +0.00 -0.04    -0.303    22.846
ATOM     34  H   UNL d   1       2.696  18.304 -24.188 +0.01 +0.05    +0.222    22.846
ATOM     35  O   UNL d   1       2.402  14.720 -18.355 -0.18 -0.04    -0.278    22.846
ATOM     36  P   UNL d   1       3.039  13.761 -17.252 -0.25 -0.10    +0.473    22.846
ATOM     37  O   UNL d   1       2.228  12.555 -16.899 -0.54 +0.05    -0.228    22.846
ATOM     38  O   UNL d   1       4.461  13.429 -17.889 -0.13 +0.18    -0.303    22.846
ATOM     39  H   UNL d   1       4.527  13.860 -18.768 +0.05 -0.07    +0.222    22.846
ATOM     40  O   UNL d   1       3.375  14.775 -16.073 -0.13 +0.04    -0.303    22.846
ATOM     41  H   UNL d   1       2.591  15.308 -15.817 +0.08 +0.00    +0.222    22.846
ATOM     42  O   UNL d   1       4.367  15.054 -20.481 -0.01 -0.00    -0.278    22.846
ATOM     43  P   UNL d   1       5.820  15.588 -20.095 +0.01 -0.02    +0.473    22.846
ATOM     44  O   UNL d   1       5.900  16.768 -19.190 -0.00 +0.00    -0.228    22.846
ATOM     45  O   UNL d   1       6.531  14.283 -19.527 -0.02 +0.06    -0.303    22.846
ATOM     46  H   UNL d   1       6.258  14.098 -18.607 +0.03 -0.08    +0.222    22.846
ATOM     47  O   UNL d   1       6.538  15.757 -21.519 +0.00 +0.00    -0.303    22.846
ATOM     48  H   UNL d   1       6.064  16.438 -22.040 +0.00 +0.01    +0.222    22.846
TER
ENDMDL
MODEL       17
USER    Run = 17
USER    Cluster Rank = 68
USER    Number of conformations in this cluster = 1
USER  
USER    RMSD from reference structure       = 19.035 A
USER  
USER    Estimated Free Energy of Binding    =   +3.83 kcal/mol  [=(1)+(2)+(3)-(4)]
USER    
USER    (1) Final Intermolecular Energy     =   -3.33 kcal/mol
USER        vdW + Hbond + desolv Energy     =   -3.29 kcal/mol
USER        Electrostatic Energy            =   -0.03 kcal/mol
USER    (2) Final Total Internal Energy     =  -14.38 kcal/mol
USER    (3) Torsional Free Energy           =   +7.16 kcal/mol
USER    (4) Unbound System's Energy  [=(2)] =  -14.38 kcal/mol
USER    
USER    
USER  
USER    DPF = D:/Protein_go_brrr/autodock/final/mut_N102T/IHP/dock.dpf
USER    NEWDPF move	IHP_ideal_opt.pdbqt
USER    NEWDPF about	0.035000 0.082000 -0.065000
USER    NEWDPF tran0	12.504038 8.480480 -15.929590
USER    NEWDPF axisangle0	0.452495 0.051619 0.890271 149.845797
USER    NEWDPF quaternion0	0.436919 0.049842 0.859625 0.260119
USER    NEWDPF dihe0	-177.68 -38.32 131.03 140.04 21.52 179.58 -124.56 -13.24 49.65 -4.06 -8.10 180.00 -120.77 86.15 -51.37 14.04 158.46 2.99 43.66 -8.97 -179.96 -30.77 -5.84 163.64 
USER  
USER                              x       y       z    vdW   Elec        q     RMS 
ATOM      1  C   UNL d   1      12.037   8.986 -14.345 -0.16 -0.01    +0.194    19.035
ATOM      2  C   UNL d   1      11.977  10.065 -15.427 -0.08 -0.00    +0.194    19.035
ATOM      3  C   UNL d   1      13.204  10.020 -16.340 -0.03 -0.00    +0.194    19.035
ATOM      4  C   UNL d   1      13.471   8.634 -16.922 -0.04 +0.01    +0.194    19.035
ATOM      5  C   UNL d   1      13.426   7.511 -15.894 -0.10 -0.00    +0.194    19.035
ATOM      6  C   UNL d   1      12.231   7.591 -14.941 -0.09 +0.00    +0.194    19.035
ATOM      7  O   UNL d   1      10.788   8.982 -13.650 -0.18 +0.03    -0.278    19.035
ATOM      8  P   UNL d   1      10.531  10.105 -12.544 -0.09 -0.12    +0.473    19.035
ATOM      9  O   UNL d   1      11.356   9.979 -11.312 -0.15 +0.07    -0.228    19.035
ATOM     10  O   UNL d   1      10.770  11.477 -13.323 -0.03 +0.05    -0.303    19.035
ATOM     11  H   UNL d   1      10.621  11.341 -14.278 +0.05 -0.03    +0.222    19.035
ATOM     12  O   UNL d   1       8.957  10.118 -12.326 -0.23 +0.08    -0.303    19.035
ATOM     13  H   UNL d   1       8.480  10.664 -12.990 +0.10 -0.06    +0.222    19.035
ATOM     14  O   UNL d   1      10.806   9.861 -16.227 -0.11 -0.02    -0.278    19.035
ATOM     15  P   UNL d   1       9.775  11.083 -16.312 -0.08 -0.04    +0.473    19.035
ATOM     16  O   UNL d   1       9.123  11.322 -17.638 -0.12 +0.03    -0.228    19.035
ATOM     17  O   UNL d   1       8.724  10.785 -15.152 -0.15 +0.07    -0.303    19.035
ATOM     18  H   UNL d   1       9.158  10.372 -14.382 +0.08 -0.03    +0.222    19.035
ATOM     19  O   UNL d   1      10.575  12.319 -15.708 -0.01 +0.03    -0.303    19.035
ATOM     20  H   UNL d   1      11.182  12.710 -16.363 +0.02 -0.02    +0.222    19.035
ATOM     21  O   UNL d   1      12.509   6.708 -13.857 -0.13 +0.03    -0.278    19.035
ATOM     22  P   UNL d   1      13.523   7.157 -12.710 -0.15 -0.09    +0.473    19.035
ATOM     23  O   UNL d   1      14.503   8.238 -13.019 -0.05 +0.03    -0.228    19.035
ATOM     24  O   UNL d   1      12.532   7.477 -11.506 -0.16 +0.10    -0.303    19.035
ATOM     25  H   UNL d   1      11.772   8.002 -11.865 -0.34 -0.11    +0.222    19.035
ATOM     26  O   UNL d   1      14.148   5.750 -12.259 -0.13 +0.09    -0.303    19.035
ATOM     27  H   UNL d   1      13.814   5.046 -12.851 -0.49 -0.12    +0.222    19.035
ATOM     28  O   UNL d   1      12.935  10.854 -17.460 -0.01 -0.00    -0.278    19.035
ATOM     29  P   UNL d   1      13.095  12.434 -17.344 +0.00 -0.02    +0.473    19.035
ATOM     30  O   UNL d   1      13.258  12.962 -15.965 -0.00 +0.01    -0.228    19.035
ATOM     31  O   UNL d   1      14.309  12.669 -18.359 +0.00 +0.01    -0.303    19.035
ATOM     32  H   UNL d   1      15.137  12.337 -17.941 +0.00 -0.01    +0.222    19.035
ATOM     33  O   UNL d   1      11.839  12.958 -18.170 +0.00 +0.01    -0.303    19.035
ATOM     34  H   UNL d   1      11.039  12.445 -17.899 +0.02 -0.01    +0.222    19.035
ATOM     35  O   UNL d   1      13.285   6.306 -16.643 -0.09 -0.00    -0.278    19.035
ATOM     36  P   UNL d   1      14.329   5.115 -16.456 -0.05 -0.03    +0.473    19.035
ATOM     37  O   UNL d   1      14.432   4.160 -17.603 -0.02 +0.00    -0.228    19.035
ATOM     38  O   UNL d   1      15.675   5.907 -16.141 -0.01 +0.02    -0.303    19.035
ATOM     39  H   UNL d   1      15.586   6.830 -16.463 +0.02 -0.01    +0.222    19.035
ATOM     40  O   UNL d   1      13.904   4.509 -15.048 -0.10 +0.07    -0.303    19.035
ATOM     41  H   UNL d   1      13.754   5.213 -14.379 -0.18 -0.07    +0.222    19.035
ATOM     42  O   UNL d   1      14.797   8.659 -17.461 -0.01 +0.00    -0.278    19.035
ATOM     43  P   UNL d   1      15.998   9.150 -16.532 -0.00 -0.01    +0.473    19.035
ATOM     44  O   UNL d   1      16.097   8.559 -15.169 -0.01 +0.01    -0.228    19.035
ATOM     45  O   UNL d   1      17.274   8.893 -17.448 -0.00 +0.01    -0.303    19.035
ATOM     46  H   UNL d   1      17.555   7.957 -17.415 +0.00 -0.01    +0.222    19.035
ATOM     47  O   UNL d   1      15.874  10.747 -16.587 -0.00 +0.01    -0.303    19.035
ATOM     48  H   UNL d   1      15.127  10.993 -17.172 +0.00 -0.01    +0.222    19.035
TER
ENDMDL
MODEL       26
USER    Run = 26
USER    Cluster Rank = 69
USER    Number of conformations in this cluster = 1
USER  
USER    RMSD from reference structure       = 20.365 A
USER  
USER    Estimated Free Energy of Binding    =   +3.85 kcal/mol  [=(1)+(2)+(3)-(4)]
USER    
USER    (1) Final Intermolecular Energy     =   -3.31 kcal/mol
USER        vdW + Hbond + desolv Energy     =   -3.18 kcal/mol
USER        Electrostatic Energy            =   -0.14 kcal/mol
USER    (2) Final Total Internal Energy     =  -12.52 kcal/mol
USER    (3) Torsional Free Energy           =   +7.16 kcal/mol
USER    (4) Unbound System's Energy  [=(2)] =  -12.52 kcal/mol
USER    
USER    
USER  
USER    DPF = D:/Protein_go_brrr/autodock/final/mut_N102T/IHP/dock.dpf
USER    NEWDPF move	IHP_ideal_opt.pdbqt
USER    NEWDPF about	0.035000 0.082000 -0.065000
USER    NEWDPF tran0	9.291139 -7.686227 -19.284855
USER    NEWDPF axisangle0	0.415922 -0.783717 -0.461298 -111.557658
USER    NEWDPF quaternion0	0.343915 -0.648034 -0.381435 -0.562389
USER    NEWDPF dihe0	-149.11 -21.23 175.65 16.67 2.07 148.70 -36.33 -71.65 -23.62 125.21 -89.36 88.93 51.48 -164.70 -173.84 -42.53 -36.34 1.69 -12.86 7.51 -23.86 132.95 161.93 174.05 
USER  
USER                              x       y       z    vdW   Elec        q     RMS 
ATOM      1  C   UNL d   1       8.358  -9.117 -19.543 -0.04 +0.04    +0.194    20.365
ATOM      2  C   UNL d   1       8.900  -8.445 -20.806 -0.01 +0.02    +0.194    20.365
ATOM      3  C   UNL d   1       8.742  -6.924 -20.750 -0.03 +0.01    +0.194    20.365
ATOM      4  C   UNL d   1       9.313  -6.306 -19.477 -0.06 +0.01    +0.194    20.365
ATOM      5  C   UNL d   1       8.890  -7.017 -18.198 -0.10 +0.02    +0.194    20.365
ATOM      6  C   UNL d   1       8.989  -8.542 -18.275 -0.05 +0.04    +0.194    20.365
ATOM      7  O   UNL d   1       8.697 -10.505 -19.596 -0.01 -0.07    -0.278    20.365
ATOM      8  P   UNL d   1       7.576 -11.575 -19.208 -0.05 +0.23    +0.473    20.365
ATOM      9  O   UNL d   1       6.943 -12.271 -20.361 -0.02 -0.06    -0.228    20.365
ATOM     10  O   UNL d   1       8.320 -12.568 -18.206 -0.03 -0.14    -0.303    20.365
ATOM     11  H   UNL d   1       8.732 -12.057 -17.485 +0.01 +0.11    +0.222    20.365
ATOM     12  O   UNL d   1       6.585 -10.802 -18.236 -0.24 -0.42    -0.303    20.365
ATOM     13  H   UNL d   1       7.001 -10.554 -17.379 +0.04 +0.39    +0.222    20.365
ATOM     14  O   UNL d   1      10.293  -8.754 -20.938 -0.00 -0.01    -0.278    20.365
ATOM     15  P   UNL d   1      10.815  -9.089 -22.414 +0.00 +0.01    +0.473    20.365
ATOM     16  O   UNL d   1      11.187 -10.512 -22.689 +0.00 -0.00    -0.228    20.365
ATOM     17  O   UNL d   1       9.653  -8.559 -23.366 +0.00 -0.00    -0.303    20.365
ATOM     18  H   UNL d   1       9.712  -7.592 -23.488 +0.00 +0.00    +0.222    20.365
ATOM     19  O   UNL d   1      11.960  -8.017 -22.682 +0.00 -0.00    -0.303    20.365
ATOM     20  H   UNL d   1      11.700  -7.128 -22.378 +0.00 +0.00    +0.222    20.365
ATOM     21  O   UNL d   1       8.253  -9.059 -17.169 -0.09 -0.14    -0.278    20.365
ATOM     22  P   UNL d   1       8.950 -10.080 -16.161 -0.05 +0.23    +0.473    20.365
ATOM     23  O   UNL d   1       8.124 -11.184 -15.591 -0.32 -0.28    -0.228    20.365
ATOM     24  O   UNL d   1      10.213 -10.559 -17.004 -0.01 -0.06    -0.303    20.365
ATOM     25  H   UNL d   1       9.884 -11.041 -17.805 +0.01 +0.05    +0.222    20.365
ATOM     26  O   UNL d   1       9.620  -9.083 -15.099 -0.05 -0.06    -0.303    20.365
ATOM     27  H   UNL d   1       9.784  -8.219 -15.529 +0.05 +0.03    +0.222    20.365
ATOM     28  O   UNL d   1       9.510  -6.374 -21.813 -0.01 -0.00    -0.278    20.365
ATOM     29  P   UNL d   1      10.752  -5.426 -21.502 +0.01 -0.00    +0.473    20.365
ATOM     30  O   UNL d   1      10.416  -4.099 -20.925 -0.02 +0.00    -0.228    20.365
ATOM     31  O   UNL d   1      11.634  -6.409 -20.599 -0.00 -0.00    -0.303    20.365
ATOM     32  H   UNL d   1      11.297  -7.327 -20.712 +0.01 +0.00    +0.222    20.365
ATOM     33  O   UNL d   1      11.531  -5.430 -22.891 +0.00 +0.00    -0.303    20.365
ATOM     34  H   UNL d   1      11.164  -6.148 -23.463 +0.00 -0.00    +0.222    20.365
ATOM     35  O   UNL d   1       9.806  -6.586 -17.194 -0.07 -0.01    -0.278    20.365
ATOM     36  P   UNL d   1      11.341  -7.015 -17.268 -0.01 +0.01    +0.473    20.365
ATOM     37  O   UNL d   1      11.756  -7.710 -18.525 -0.00 -0.01    -0.228    20.365
ATOM     38  O   UNL d   1      12.079  -5.627 -17.013 -0.02 -0.00    -0.303    20.365
ATOM     39  H   UNL d   1      12.284  -5.209 -17.877 +0.01 -0.00    +0.222    20.365
ATOM     40  O   UNL d   1      11.538  -7.810 -15.904 -0.01 -0.01    -0.303    20.365
ATOM     41  H   UNL d   1      11.250  -8.746 -15.984 +0.02 +0.01    +0.222    20.365
ATOM     42  O   UNL d   1       8.808  -4.968 -19.402 -0.10 -0.00    -0.278    20.365
ATOM     43  P   UNL d   1       7.235  -4.745 -19.266 -0.16 +0.00    +0.473    20.365
ATOM     44  O   UNL d   1       6.511  -5.557 -18.249 -0.39 +0.00    -0.228    20.365
ATOM     45  O   UNL d   1       7.123  -3.173 -19.043 -0.34 +0.02    -0.303    20.365
ATOM     46  H   UNL d   1       6.253  -2.925 -18.672 -0.44 -0.05    +0.222    20.365
ATOM     47  O   UNL d   1       6.711  -4.898 -20.773 -0.14 +0.01    -0.303    20.365
ATOM     48  H   UNL d   1       6.691  -4.015 -21.199 -0.50 -0.06    +0.222    20.365
TER
ENDMDL
MODEL       52
USER    Run = 52
USER    Cluster Rank = 70
USER    Number of conformations in this cluster = 1
USER  
USER    RMSD from reference structure       = 16.166 A
USER  
USER    Estimated Free Energy of Binding    =   +3.87 kcal/mol  [=(1)+(2)+(3)-(4)]
USER    
USER    (1) Final Intermolecular Energy     =   -3.29 kcal/mol
USER        vdW + Hbond + desolv Energy     =   -3.12 kcal/mol
USER        Electrostatic Energy            =   -0.17 kcal/mol
USER    (2) Final Total Internal Energy     =  -13.35 kcal/mol
USER    (3) Torsional Free Energy           =   +7.16 kcal/mol
USER    (4) Unbound System's Energy  [=(2)] =  -13.35 kcal/mol
USER    
USER    
USER  
USER    DPF = D:/Protein_go_brrr/autodock/final/mut_N102T/IHP/dock.dpf
USER    NEWDPF move	IHP_ideal_opt.pdbqt
USER    NEWDPF about	0.035000 0.082000 -0.065000
USER    NEWDPF tran0	14.761027 2.970536 11.823286
USER    NEWDPF axisangle0	0.536928 0.729997 -0.422863 -98.771245
USER    NEWDPF quaternion0	0.407586 0.554146 -0.320999 -0.650965
USER    NEWDPF dihe0	126.13 -62.59 134.94 58.08 28.60 -125.34 -91.67 -50.33 139.08 1.68 68.83 -84.20 -70.68 32.99 -40.59 -5.83 166.59 -29.60 70.17 18.53 159.40 38.08 5.93 -43.56 
USER  
USER                              x       y       z    vdW   Elec        q     RMS 
ATOM      1  C   UNL d   1      14.578   1.902  10.479 -0.06 +0.04    +0.194    16.166
ATOM      2  C   UNL d   1      13.485   1.816  11.545 -0.08 +0.05    +0.194    16.166
ATOM      3  C   UNL d   1      14.069   1.847  12.959 -0.04 +0.05    +0.194    16.166
ATOM      4  C   UNL d   1      15.012   3.025  13.193 -0.05 +0.05    +0.194    16.166
ATOM      5  C   UNL d   1      16.048   3.218  12.094 -0.03 +0.04    +0.194    16.166
ATOM      6  C   UNL d   1      15.474   3.125  10.678 -0.06 +0.04    +0.194    16.166
ATOM      7  O   UNL d   1      13.947   2.040   9.203 -0.11 -0.07    -0.278    16.166
ATOM      8  P   UNL d   1      12.822   0.982   8.794 -0.18 +0.16    +0.473    16.166
ATOM      9  O   UNL d   1      12.840  -0.289   9.568 -0.12 -0.12    -0.228    16.166
ATOM     10  O   UNL d   1      11.456   1.792   8.948 -0.33 -0.09    -0.303    16.166
ATOM     11  H   UNL d   1      11.543   2.447   9.665 +0.11 +0.05    +0.222    16.166
ATOM     12  O   UNL d   1      12.946   0.836   7.217 -0.28 -0.08    -0.303    16.166
ATOM     13  H   UNL d   1      12.203   1.259   6.731 -0.08 +0.01    +0.222    16.166
ATOM     14  O   UNL d   1      12.595   2.929  11.393 -0.18 -0.08    -0.278    16.166
ATOM     15  P   UNL d   1      11.073   2.694  11.833 -0.23 +0.14    +0.473    16.166
ATOM     16  O   UNL d   1      10.738   2.968  13.266 -0.34 -0.10    -0.228    16.166
ATOM     17  O   UNL d   1      10.234   3.593  10.820 -0.26 -0.04    -0.303    16.166
ATOM     18  H   UNL d   1      10.611   3.554   9.920 -0.41 +0.00    +0.222    16.166
ATOM     19  O   UNL d   1      10.733   1.229  11.317 -0.24 -0.10    -0.303    16.166
ATOM     20  H   UNL d   1      11.486   0.829  10.845 +0.10 +0.08    +0.222    16.166
ATOM     21  O   UNL d   1      16.582   2.980   9.793 -0.02 -0.04    -0.278    16.166
ATOM     22  P   UNL d   1      17.602   1.769   9.991 -0.00 +0.06    +0.473    16.166
ATOM     23  O   UNL d   1      17.500   0.960  11.240 -0.00 -0.03    -0.228    16.166
ATOM     24  O   UNL d   1      17.397   0.947   8.644 -0.00 -0.04    -0.303    16.166
ATOM     25  H   UNL d   1      16.435   0.979   8.407 +0.03 +0.04    +0.222    16.166
ATOM     26  O   UNL d   1      19.012   2.486   9.731 -0.00 -0.03    -0.303    16.166
ATOM     27  H   UNL d   1      19.137   3.199  10.389 +0.00 +0.02    +0.222    16.166
ATOM     28  O   UNL d   1      12.989   2.043  13.864 -0.07 -0.10    -0.278    16.166
ATOM     29  P   UNL d   1      13.046   1.421  15.329 -0.03 +0.17    +0.473    16.166
ATOM     30  O   UNL d   1      13.787   0.140  15.454 -0.01 -0.05    -0.228    16.166
ATOM     31  O   UNL d   1      13.620   2.675  16.142 -0.07 -0.17    -0.303    16.166
ATOM     32  H   UNL d   1      14.313   3.113  15.596 +0.03 +0.11    +0.222    16.166
ATOM     33  O   UNL d   1      11.509   1.407  15.745 -0.11 -0.13    -0.303    16.166
ATOM     34  H   UNL d   1      10.960   1.640  14.956 +0.08 +0.09    +0.222    16.166
ATOM     35  O   UNL d   1      16.545   4.545  12.258 -0.02 -0.05    -0.278    16.166
ATOM     36  P   UNL d   1      18.109   4.838  12.149 -0.00 +0.06    +0.473    16.166
ATOM     37  O   UNL d   1      18.613   5.969  12.988 -0.01 -0.02    -0.228    16.166
ATOM     38  O   UNL d   1      18.733   3.420  12.517 -0.00 -0.03    -0.303    16.166
ATOM     39  H   UNL d   1      18.537   2.785  11.795 +0.00 +0.02    +0.222    16.166
ATOM     40  O   UNL d   1      18.323   4.954  10.577 -0.00 -0.03    -0.303    16.166
ATOM     41  H   UNL d   1      17.797   4.284  10.087 +0.02 +0.02    +0.222    16.166
ATOM     42  O   UNL d   1      15.728   2.748  14.402 -0.01 -0.07    -0.278    16.166
ATOM     43  P   UNL d   1      16.313   3.967  15.248 -0.02 +0.13    +0.473    16.166
ATOM     44  O   UNL d   1      15.783   5.327  14.950 -0.06 -0.09    -0.228    16.166
ATOM     45  O   UNL d   1      16.081   3.493  16.750 -0.01 -0.09    -0.303    16.166
ATOM     46  H   UNL d   1      15.597   2.643  16.786 +0.01 +0.06    +0.222    16.166
ATOM     47  O   UNL d   1      17.898   3.793  15.093 -0.00 -0.04    -0.303    16.166
ATOM     48  H   UNL d   1      18.213   4.351  14.352 +0.01 +0.03    +0.222    16.166
TER
ENDMDL
MODEL       28
USER    Run = 28
USER    Cluster Rank = 71
USER    Number of conformations in this cluster = 1
USER  
USER    RMSD from reference structure       = 15.442 A
USER  
USER    Estimated Free Energy of Binding    =   +3.94 kcal/mol  [=(1)+(2)+(3)-(4)]
USER    
USER    (1) Final Intermolecular Energy     =   -3.22 kcal/mol
USER        vdW + Hbond + desolv Energy     =   -3.10 kcal/mol
USER        Electrostatic Energy            =   -0.12 kcal/mol
USER    (2) Final Total Internal Energy     =  -14.04 kcal/mol
USER    (3) Torsional Free Energy           =   +7.16 kcal/mol
USER    (4) Unbound System's Energy  [=(2)] =  -14.04 kcal/mol
USER    
USER    
USER  
USER    DPF = D:/Protein_go_brrr/autodock/final/mut_N102T/IHP/dock.dpf
USER    NEWDPF move	IHP_ideal_opt.pdbqt
USER    NEWDPF about	0.035000 0.082000 -0.065000
USER    NEWDPF tran0	15.340939 5.560828 -9.462679
USER    NEWDPF axisangle0	0.638041 -0.602307 -0.479719 -101.786624
USER    NEWDPF quaternion0	0.495102 -0.467374 -0.372249 -0.630766
USER    NEWDPF dihe0	-158.82 1.26 -179.95 -29.77 117.46 141.00 -105.06 -52.81 20.85 -152.87 154.67 179.83 109.89 -180.00 -99.26 -131.47 -79.39 -139.72 0.15 13.55 148.00 -2.75 176.24 7.29 
USER  
USER                              x       y       z    vdW   Elec        q     RMS 
ATOM      1  C   UNL d   1      14.935   3.967  -9.992 -0.10 -0.04    +0.194    15.442
ATOM      2  C   UNL d   1      14.926   5.046 -11.076 -0.11 -0.04    +0.194    15.442
ATOM      3  C   UNL d   1      14.262   6.335 -10.588 -0.18 -0.04    +0.194    15.442
ATOM      4  C   UNL d   1      14.837   6.846  -9.270 -0.13 -0.03    +0.194    15.442
ATOM      5  C   UNL d   1      14.971   5.776  -8.194 -0.15 -0.03    +0.194    15.442
ATOM      6  C   UNL d   1      15.580   4.465  -8.697 -0.05 -0.03    +0.194    15.442
ATOM      7  O   UNL d   1      15.719   2.868 -10.462 -0.02 +0.04    -0.278    15.442
ATOM      8  P   UNL d   1      15.033   1.428 -10.546 -0.02 -0.07    +0.473    15.442
ATOM      9  O   UNL d   1      15.730   0.447 -11.421 -0.01 +0.02    -0.228    15.442
ATOM     10  O   UNL d   1      14.937   0.956  -9.025 -0.01 +0.04    -0.303    15.442
ATOM     11  H   UNL d   1      14.635   1.699  -8.471 +0.06 -0.03    +0.222    15.442
ATOM     12  O   UNL d   1      13.511   1.715 -10.901 -0.14 +0.07    -0.303    15.442
ATOM     13  H   UNL d   1      13.126   2.455 -10.379 +0.08 -0.07    +0.222    15.442
ATOM     14  O   UNL d   1      16.278   5.343 -11.451 -0.02 +0.04    -0.278    15.442
ATOM     15  P   UNL d   1      16.531   5.703 -12.990 -0.01 -0.05    +0.473    15.442
ATOM     16  O   UNL d   1      17.548   4.879 -13.715 -0.01 +0.02    -0.228    15.442
ATOM     17  O   UNL d   1      15.084   5.618 -13.651 -0.06 +0.05    -0.303    15.442
ATOM     18  H   UNL d   1      14.594   6.455 -13.533 +0.04 -0.04    +0.222    15.442
ATOM     19  O   UNL d   1      16.792   7.272 -12.993 -0.00 +0.03    -0.303    15.442
ATOM     20  H   UNL d   1      15.963   7.775 -13.097 +0.02 -0.02    +0.222    15.442
ATOM     21  O   UNL d   1      15.324   3.482  -7.697 -0.04 +0.04    -0.278    15.442
ATOM     22  P   UNL d   1      13.871   3.373  -7.047 -0.14 -0.08    +0.473    15.442
ATOM     23  O   UNL d   1      13.412   4.479  -6.158 -0.86 -0.01    -0.228    15.442
ATOM     24  O   UNL d   1      12.960   3.123  -8.328 -0.20 +0.11    -0.303    15.442
ATOM     25  H   UNL d   1      13.349   2.371  -8.841 +0.09 -0.06    +0.222    15.442
ATOM     26  O   UNL d   1      13.920   1.913  -6.386 -0.11 +0.04    -0.303    15.442
ATOM     27  H   UNL d   1      14.478   1.328  -6.937 +0.07 -0.03    +0.222    15.442
ATOM     28  O   UNL d   1      14.544   7.350 -11.543 -0.06 +0.05    -0.278    15.442
ATOM     29  P   UNL d   1      13.397   7.889 -12.507 -0.13 -0.08    +0.473    15.442
ATOM     30  O   UNL d   1      13.864   8.525 -13.765 -0.06 +0.02    -0.228    15.442
ATOM     31  O   UNL d   1      12.507   6.567 -12.649 +0.15 +0.07    -0.303    15.442
ATOM     32  H   UNL d   1      13.089   5.827 -12.940 -0.46 -0.09    +0.222    15.442
ATOM     33  O   UNL d   1      12.530   8.792 -11.523 -0.15 +0.08    -0.303    15.442
ATOM     34  H   UNL d   1      12.989   8.847 -10.649 +0.06 -0.05    +0.222    15.442
ATOM     35  O   UNL d   1      15.870   6.311  -7.225 -0.06 +0.04    -0.278    15.442
ATOM     36  P   UNL d   1      17.299   6.862  -7.672 +0.02 -0.05    +0.473    15.442
ATOM     37  O   UNL d   1      17.953   6.124  -8.796 -0.00 +0.02    -0.228    15.442
ATOM     38  O   UNL d   1      16.975   8.388  -7.992 -0.01 +0.04    -0.303    15.442
ATOM     39  H   UNL d   1      16.187   8.433  -8.576 +0.03 -0.03    +0.222    15.442
ATOM     40  O   UNL d   1      18.087   6.920  -6.291 +0.00 +0.04    -0.303    15.442
ATOM     41  H   UNL d   1      19.055   7.025  -6.428 +0.01 -0.02    +0.222    15.442
ATOM     42  O   UNL d   1      13.924   7.830  -8.773 -0.19 +0.04    -0.278    15.442
ATOM     43  P   UNL d   1      14.304   9.374  -8.909 -0.08 -0.07    +0.473    15.442
ATOM     44  O   UNL d   1      14.983  10.019  -7.751 -0.10 +0.04    -0.228    15.442
ATOM     45  O   UNL d   1      15.146   9.408 -10.259 -0.01 +0.04    -0.303    15.442
ATOM     46  H   UNL d   1      14.564   9.429 -11.044 +0.04 -0.03    +0.222    15.442
ATOM     47  O   UNL d   1      12.926  10.051  -9.369 -0.13 +0.06    -0.303    15.442
ATOM     48  H   UNL d   1      12.240   9.357  -9.460 +0.07 -0.05    +0.222    15.442
TER
ENDMDL
MODEL       10
USER    Run = 10
USER    Cluster Rank = 72
USER    Number of conformations in this cluster = 1
USER  
USER    RMSD from reference structure       = 11.198 A
USER  
USER    Estimated Free Energy of Binding    =   +3.96 kcal/mol  [=(1)+(2)+(3)-(4)]
USER    
USER    (1) Final Intermolecular Energy     =   -3.20 kcal/mol
USER        vdW + Hbond + desolv Energy     =   -3.07 kcal/mol
USER        Electrostatic Energy            =   -0.12 kcal/mol
USER    (2) Final Total Internal Energy     =  -14.14 kcal/mol
USER    (3) Torsional Free Energy           =   +7.16 kcal/mol
USER    (4) Unbound System's Energy  [=(2)] =  -14.14 kcal/mol
USER    
USER    
USER  
USER    DPF = D:/Protein_go_brrr/autodock/final/mut_N102T/IHP/dock.dpf
USER    NEWDPF move	IHP_ideal_opt.pdbqt
USER    NEWDPF about	0.035000 0.082000 -0.065000
USER    NEWDPF tran0	-7.201708 11.404025 -5.287870
USER    NEWDPF axisangle0	0.444700 0.705418 -0.551931 -110.572163
USER    NEWDPF quaternion0	0.365546 0.579858 -0.453690 -0.569479
USER    NEWDPF dihe0	180.00 156.17 127.73 -41.49 2.74 176.63 28.73 -59.68 16.02 -39.50 94.81 167.67 93.02 70.22 167.05 -60.30 -121.69 -115.86 0.92 -42.35 -23.40 22.48 -0.74 -12.87 
USER  
USER                              x       y       z    vdW   Elec        q     RMS 
ATOM      1  C   UNL d   1      -7.882  10.257  -6.386 -0.08 -0.00    +0.194    11.198
ATOM      2  C   UNL d   1      -8.655  10.463  -5.082 -0.05 -0.00    +0.194    11.198
ATOM      3  C   UNL d   1      -7.719  10.531  -3.873 +0.07 +0.00    +0.194    11.198
ATOM      4  C   UNL d   1      -6.592  11.547  -4.043 -0.09 +0.02    +0.194    11.198
ATOM      5  C   UNL d   1      -5.867  11.453  -5.379 -0.14 +0.01    +0.194    11.198
ATOM      6  C   UNL d   1      -6.803  11.322  -6.583 -0.11 +0.00    +0.194    11.198
ATOM      7  O   UNL d   1      -8.803  10.377  -7.473 -0.02 +0.00    -0.278    11.198
ATOM      8  P   UNL d   1      -8.963   9.141  -8.472 -0.06 -0.01    +0.473    11.198
ATOM      9  O   UNL d   1     -10.339   8.927  -8.997 -0.05 +0.00    -0.228    11.198
ATOM     10  O   UNL d   1      -7.891   9.429  -9.618 -0.09 +0.02    -0.303    11.198
ATOM     11  H   UNL d   1      -7.202  10.030  -9.278 +0.07 -0.01    +0.222    11.198
ATOM     12  O   UNL d   1      -8.311   7.908  -7.711 -0.15 +0.00    -0.303    11.198
ATOM     13  H   UNL d   1      -8.972   7.234  -7.432 +0.06 +0.01    +0.222    11.198
ATOM     14  O   UNL d   1      -9.388  11.691  -5.162 -0.01 -0.00    -0.278    11.198
ATOM     15  P   UNL d   1     -10.866  11.605  -5.771 -0.00 -0.00    +0.473    11.198
ATOM     16  O   UNL d   1     -11.973  12.164  -4.933 -0.00 +0.00    -0.228    11.198
ATOM     17  O   UNL d   1     -10.743  12.321  -7.189 -0.00 +0.00    -0.303    11.198
ATOM     18  H   UNL d   1      -9.856  12.186  -7.575 +0.01 -0.00    +0.222    11.198
ATOM     19  O   UNL d   1     -11.031  10.081  -6.197 -0.00 +0.00    -0.303    11.198
ATOM     20  H   UNL d   1     -10.910   9.960  -7.157 +0.01 -0.00    +0.222    11.198
ATOM     21  O   UNL d   1      -6.001  10.906  -7.686 -0.14 +0.00    -0.278    11.198
ATOM     22  P   UNL d   1      -6.017  11.748  -9.040 -0.05 -0.01    +0.473    11.198
ATOM     23  O   UNL d   1      -5.497  11.101 -10.279 -0.11 +0.01    -0.228    11.198
ATOM     24  O   UNL d   1      -7.538  12.211  -9.117 -0.01 +0.01    -0.303    11.198
ATOM     25  H   UNL d   1      -8.103  11.401  -9.201 +0.03 -0.01    +0.222    11.198
ATOM     26  O   UNL d   1      -5.282  13.100  -8.591 -0.08 +0.01    -0.303    11.198
ATOM     27  H   UNL d   1      -5.000  13.019  -7.657 +0.08 -0.00    +0.222    11.198
ATOM     28  O   UNL d   1      -8.481  10.995  -2.766 -0.04 -0.01    -0.278    11.198
ATOM     29  P   UNL d   1      -8.385  10.258  -1.358 -0.04 +0.01    +0.473    11.198
ATOM     30  O   UNL d   1      -9.294   9.097  -1.179 -0.06 -0.00    -0.228    11.198
ATOM     31  O   UNL d   1      -6.813   9.964  -1.303 -0.10 -0.02    -0.303    11.198
ATOM     32  H   UNL d   1      -6.350  10.785  -1.017 +0.08 +0.03    +0.222    11.198
ATOM     33  O   UNL d   1      -8.553  11.467  -0.336 -0.03 -0.01    -0.303    11.198
ATOM     34  H   UNL d   1      -8.656  12.307  -0.846 +0.02 +0.01    +0.222    11.198
ATOM     35  O   UNL d   1      -5.164  12.685  -5.526 -0.10 -0.02    -0.278    11.198
ATOM     36  P   UNL d   1      -3.614  12.687  -5.903 -0.14 +0.01    +0.473    11.198
ATOM     37  O   UNL d   1      -2.678  12.366  -4.782 -0.36 -0.02    -0.228    11.198
ATOM     38  O   UNL d   1      -3.571  11.649  -7.110 -0.24 +0.05    -0.303    11.198
ATOM     39  H   UNL d   1      -3.981  10.805  -6.822 -0.41 -0.05    +0.222    11.198
ATOM     40  O   UNL d   1      -3.438  14.102  -6.609 -0.26 -0.03    -0.303    11.198
ATOM     41  H   UNL d   1      -3.728  14.079  -7.548 +0.07 +0.01    +0.222    11.198
ATOM     42  O   UNL d   1      -5.628  11.271  -3.021 -0.12 -0.05    -0.278    11.198
ATOM     43  P   UNL d   1      -5.214  12.437  -2.015 -0.07 +0.17    +0.473    11.198
ATOM     44  O   UNL d   1      -4.402  13.560  -2.563 -0.13 -0.12    -0.228    11.198
ATOM     45  O   UNL d   1      -6.613  12.883  -1.403 -0.03 -0.06    -0.303    11.198
ATOM     46  H   UNL d   1      -7.284  12.177  -1.491 +0.04 +0.02    +0.222    11.198
ATOM     47  O   UNL d   1      -4.558  11.645  -0.786 -0.33 -0.19    -0.303    11.198
ATOM     48  H   UNL d   1      -4.771  10.693  -0.865 +0.11 +0.08    +0.222    11.198
TER
ENDMDL
MODEL        2
USER    Run = 2
USER    Cluster Rank = 73
USER    Number of conformations in this cluster = 1
USER  
USER    RMSD from reference structure       = 18.268 A
USER  
USER    Estimated Free Energy of Binding    =   +3.97 kcal/mol  [=(1)+(2)+(3)-(4)]
USER    
USER    (1) Final Intermolecular Energy     =   -3.19 kcal/mol
USER        vdW + Hbond + desolv Energy     =   -2.90 kcal/mol
USER        Electrostatic Energy            =   -0.30 kcal/mol
USER    (2) Final Total Internal Energy     =  -14.46 kcal/mol
USER    (3) Torsional Free Energy           =   +7.16 kcal/mol
USER    (4) Unbound System's Energy  [=(2)] =  -14.46 kcal/mol
USER    
USER    
USER  
USER    DPF = D:/Protein_go_brrr/autodock/final/mut_N102T/IHP/dock.dpf
USER    NEWDPF move	IHP_ideal_opt.pdbqt
USER    NEWDPF about	0.035000 0.082000 -0.065000
USER    NEWDPF tran0	-13.169046 -16.985634 5.224348
USER    NEWDPF axisangle0	-0.562504 -0.663741 -0.492988 136.230751
USER    NEWDPF quaternion0	-0.521968 -0.615909 -0.457461 0.372739
USER    NEWDPF dihe0	179.70 -13.37 115.59 180.00 56.04 -127.71 -119.44 -17.59 36.80 78.73 114.87 109.28 31.19 -123.49 131.46 23.53 146.26 37.67 -8.39 -3.03 -11.07 22.43 -7.97 -20.65 
USER  
USER                              x       y       z    vdW   Elec        q     RMS 
ATOM      1  C   UNL d   1     -12.918 -15.647   4.161 -0.11 -0.03    +0.194    18.268
ATOM      2  C   UNL d   1     -13.286 -16.969   3.484 -0.03 -0.02    +0.194    18.268
ATOM      3  C   UNL d   1     -12.529 -18.149   4.098 -0.05 -0.04    +0.194    18.268
ATOM      4  C   UNL d   1     -12.661 -18.223   5.618 -0.08 -0.06    +0.194    18.268
ATOM      5  C   UNL d   1     -12.415 -16.897   6.327 -0.14 -0.06    +0.194    18.268
ATOM      6  C   UNL d   1     -13.122 -15.706   5.676 -0.11 -0.04    +0.194    18.268
ATOM      7  O   UNL d   1     -13.786 -14.630   3.654 -0.03 +0.03    -0.278    18.268
ATOM      8  P   UNL d   1     -13.135 -13.263   3.144 -0.06 -0.05    +0.473    18.268
ATOM      9  O   UNL d   1     -12.609 -13.295   1.752 -0.03 +0.01    -0.228    18.268
ATOM     10  O   UNL d   1     -14.291 -12.183   3.354 -0.01 +0.03    -0.303    18.268
ATOM     11  H   UNL d   1     -14.924 -12.508   4.021 +0.01 -0.02    +0.222    18.268
ATOM     12  O   UNL d   1     -12.092 -12.856   4.271 -0.06 +0.06    -0.303    18.268
ATOM     13  H   UNL d   1     -12.505 -12.745   5.157 +0.02 -0.04    +0.222    18.268
ATOM     14  O   UNL d   1     -14.692 -17.198   3.639 -0.00 +0.02    -0.278    18.268
ATOM     15  P   UNL d   1     -15.513 -17.533   2.306 +0.00 -0.02    +0.473    18.268
ATOM     16  O   UNL d   1     -15.652 -16.429   1.306 -0.00 +0.01    -0.228    18.268
ATOM     17  O   UNL d   1     -14.778 -18.816   1.711 -0.00 +0.01    -0.303    18.268
ATOM     18  H   UNL d   1     -14.252 -19.270   2.397 +0.01 -0.01    +0.222    18.268
ATOM     19  O   UNL d   1     -16.878 -18.161   2.828 +0.00 +0.01    -0.303    18.268
ATOM     20  H   UNL d   1     -17.649 -17.643   2.533 +0.00 -0.01    +0.222    18.268
ATOM     21  O   UNL d   1     -12.534 -14.528   6.223 -0.08 +0.07    -0.278    18.268
ATOM     22  P   UNL d   1     -13.405 -13.566   7.151 -0.05 -0.08    +0.473    18.268
ATOM     23  O   UNL d   1     -12.689 -12.599   8.032 -0.09 +0.04    -0.228    18.268
ATOM     24  O   UNL d   1     -14.394 -12.902   6.095 -0.03 +0.04    -0.303    18.268
ATOM     25  H   UNL d   1     -14.080 -13.142   5.186 +0.02 -0.03    +0.222    18.268
ATOM     26  O   UNL d   1     -14.367 -14.613   7.893 -0.02 +0.04    -0.303    18.268
ATOM     27  H   UNL d   1     -13.821 -15.266   8.375 +0.03 -0.04    +0.222    18.268
ATOM     28  O   UNL d   1     -13.129 -19.342   3.610 -0.01 +0.04    -0.278    18.268
ATOM     29  P   UNL d   1     -12.223 -20.527   3.051 +0.01 -0.06    +0.473    18.268
ATOM     30  O   UNL d   1     -10.761 -20.262   3.032 -0.02 +0.04    -0.228    18.268
ATOM     31  O   UNL d   1     -12.731 -21.729   3.978 +0.00 +0.04    -0.303    18.268
ATOM     32  H   UNL d   1     -12.444 -21.553   4.904 +0.01 -0.05    +0.222    18.268
ATOM     33  O   UNL d   1     -12.914 -20.845   1.653 +0.00 +0.01    -0.303    18.268
ATOM     34  H   UNL d   1     -13.157 -19.994   1.213 +0.00 -0.01    +0.222    18.268
ATOM     35  O   UNL d   1     -12.966 -17.049   7.633 -0.07 +0.08    -0.278    18.268
ATOM     36  P   UNL d   1     -12.050 -16.836   8.922 -0.12 -0.18    +0.473    18.268
ATOM     37  O   UNL d   1     -12.658 -17.259  10.222 -0.03 +0.07    -0.228    18.268
ATOM     38  O   UNL d   1     -10.734 -17.638   8.523 -0.19 +0.29    -0.303    18.268
ATOM     39  H   UNL d   1     -10.983 -18.409   7.970 -0.26 -0.26    +0.222    18.268
ATOM     40  O   UNL d   1     -11.624 -15.309   8.787 -0.69 +0.06    -0.303    18.268
ATOM     41  H   UNL d   1     -12.355 -14.757   8.431 +0.03 -0.04    +0.222    18.268
ATOM     42  O   UNL d   1     -11.660 -19.137   6.077 -0.11 +0.16    -0.278    18.268
ATOM     43  P   UNL d   1     -12.076 -20.284   7.104 -0.03 -0.24    +0.473    18.268
ATOM     44  O   UNL d   1     -12.669 -21.529   6.540 -0.01 +0.06    -0.228    18.268
ATOM     45  O   UNL d   1     -10.734 -20.518   7.928 -0.02 +0.35    -0.303    18.268
ATOM     46  H   UNL d   1     -10.295 -19.672   8.145 -0.53 -0.51    +0.222    18.268
ATOM     47  O   UNL d   1     -12.983 -19.507   8.173 -0.02 +0.11    -0.303    18.268
ATOM     48  H   UNL d   1     -12.412 -18.932   8.723 +0.03 -0.10    +0.222    18.268
TER
ENDMDL
MODEL       57
USER    Run = 57
USER    Cluster Rank = 74
USER    Number of conformations in this cluster = 1
USER  
USER    RMSD from reference structure       = 10.194 A
USER  
USER    Estimated Free Energy of Binding    =   +3.98 kcal/mol  [=(1)+(2)+(3)-(4)]
USER    
USER    (1) Final Intermolecular Energy     =   -3.17 kcal/mol
USER        vdW + Hbond + desolv Energy     =   -3.08 kcal/mol
USER        Electrostatic Energy            =   -0.09 kcal/mol
USER    (2) Final Total Internal Energy     =  -12.87 kcal/mol
USER    (3) Torsional Free Energy           =   +7.16 kcal/mol
USER    (4) Unbound System's Energy  [=(2)] =  -12.87 kcal/mol
USER    
USER    
USER  
USER    DPF = D:/Protein_go_brrr/autodock/final/mut_N102T/IHP/dock.dpf
USER    NEWDPF move	IHP_ideal_opt.pdbqt
USER    NEWDPF about	0.035000 0.082000 -0.065000
USER    NEWDPF tran0	-10.323271 8.725628 0.557497
USER    NEWDPF axisangle0	-0.193581 -0.800687 0.566944 71.380698
USER    NEWDPF quaternion0	-0.112936 -0.467125 0.330758 0.812182
USER    NEWDPF dihe0	178.13 -5.72 -48.74 56.61 -179.75 -170.06 -0.29 -128.14 11.25 103.65 105.54 -179.91 19.84 -18.27 -179.77 -46.74 4.02 -125.50 -128.25 -16.77 -176.07 12.65 153.80 -6.16 
USER  
USER                              x       y       z    vdW   Elec        q     RMS 
ATOM      1  C   UNL d   1      -9.921   7.124   0.050 -0.11 -0.00    +0.194    10.194
ATOM      2  C   UNL d   1     -11.120   7.237   0.993 -0.07 +0.02    +0.194    10.194
ATOM      3  C   UNL d   1     -10.852   8.218   2.136 -0.15 +0.00    +0.194    10.194
ATOM      4  C   UNL d   1     -10.365   9.582   1.656 -0.12 -0.00    +0.194    10.194
ATOM      5  C   UNL d   1      -9.244   9.514   0.627 -0.12 -0.00    +0.194    10.194
ATOM      6  C   UNL d   1      -9.485   8.489  -0.484 -0.10 -0.00    +0.194    10.194
ATOM      7  O   UNL d   1     -10.310   6.332  -1.074 -0.06 -0.01    -0.278    10.194
ATOM      8  P   UNL d   1     -10.490   7.055  -2.487 -0.01 +0.01    +0.473    10.194
ATOM      9  O   UNL d   1      -9.225   7.494  -3.137 -0.07 +0.01    -0.228    10.194
ATOM     10  O   UNL d   1     -11.312   6.001  -3.359 -0.01 -0.01    -0.303    10.194
ATOM     11  H   UNL d   1     -11.764   5.370  -2.769 +0.03 +0.02    +0.222    10.194
ATOM     12  O   UNL d   1     -11.571   8.192  -2.234 -0.01 -0.00    -0.303    10.194
ATOM     13  H   UNL d   1     -12.384   7.859  -1.791 +0.01 +0.00    +0.222    10.194
ATOM     14  O   UNL d   1     -12.255   7.701   0.251 -0.02 -0.01    -0.278    10.194
ATOM     15  P   UNL d   1     -13.484   6.683   0.111 +0.01 +0.03    +0.473    10.194
ATOM     16  O   UNL d   1     -13.787   5.828   1.302 -0.02 -0.02    -0.228    10.194
ATOM     17  O   UNL d   1     -14.708   7.609  -0.313 +0.00 -0.01    -0.303    10.194
ATOM     18  H   UNL d   1     -15.542   7.294   0.085 +0.00 +0.00    +0.222    10.194
ATOM     19  O   UNL d   1     -13.195   5.896  -1.241 +0.00 -0.02    -0.303    10.194
ATOM     20  H   UNL d   1     -12.396   6.231  -1.689 +0.02 +0.01    +0.222    10.194
ATOM     21  O   UNL d   1      -8.237   8.299  -1.147 -0.10 +0.00    -0.278    10.194
ATOM     22  P   UNL d   1      -7.149   7.315  -0.521 -0.24 -0.01    +0.473    10.194
ATOM     23  O   UNL d   1      -5.707   7.612  -0.762 -0.37 -0.01    -0.228    10.194
ATOM     24  O   UNL d   1      -7.578   7.288   1.012 -0.25 +0.04    -0.303    10.194
ATOM     25  H   UNL d   1      -7.887   6.372   1.229 -0.42 -0.11    +0.222    10.194
ATOM     26  O   UNL d   1      -7.668   5.887  -1.035 -0.30 -0.01    -0.303    10.194
ATOM     27  H   UNL d   1      -8.310   6.021  -1.761 +0.10 +0.01    +0.222    10.194
ATOM     28  O   UNL d   1     -12.092   8.467   2.787 -0.08 -0.00    -0.278    10.194
ATOM     29  P   UNL d   1     -12.251   8.192   4.347 -0.11 -0.00    +0.473    10.194
ATOM     30  O   UNL d   1     -12.308   6.761   4.742 -0.13 -0.01    -0.228    10.194
ATOM     31  O   UNL d   1     -11.025   9.052   4.909 -0.19 +0.03    -0.303    10.194
ATOM     32  H   UNL d   1     -11.081   9.961   4.534 +0.05 -0.01    +0.222    10.194
ATOM     33  O   UNL d   1     -13.511   9.091   4.718 -0.02 +0.01    -0.303    10.194
ATOM     34  H   UNL d   1     -13.258  10.044   4.647 +0.02 -0.01    +0.222    10.194
ATOM     35  O   UNL d   1      -9.206  10.800   0.010 -0.04 -0.01    -0.278    10.194
ATOM     36  P   UNL d   1     -10.316  11.212  -1.060 -0.01 +0.00    +0.473    10.194
ATOM     37  O   UNL d   1     -11.731  10.950  -0.654 -0.01 -0.00    -0.228    10.194
ATOM     38  O   UNL d   1      -9.978  12.749  -1.304 -0.00 -0.01    -0.303    10.194
ATOM     39  H   UNL d   1     -10.040  13.231  -0.451 +0.01 +0.00    +0.222    10.194
ATOM     40  O   UNL d   1      -9.798  10.492  -2.380 -0.02 -0.00    -0.303    10.194
ATOM     41  H   UNL d   1      -9.772   9.515  -2.276 +0.03 +0.00    +0.222    10.194
ATOM     42  O   UNL d   1      -9.842  10.263   2.802 -0.05 +0.00    -0.278    10.194
ATOM     43  P   UNL d   1     -10.540  11.615   3.281 -0.06 -0.01    +0.473    10.194
ATOM     44  O   UNL d   1     -10.198  12.863   2.543 -0.04 +0.00    -0.228    10.194
ATOM     45  O   UNL d   1     -12.086  11.241   3.246 -0.02 +0.01    -0.303    10.194
ATOM     46  H   UNL d   1     -12.232  10.298   3.463 +0.03 -0.01    +0.222    10.194
ATOM     47  O   UNL d   1     -10.246  11.641   4.857 -0.11 +0.02    -0.303    10.194
ATOM     48  H   UNL d   1      -9.745  10.837   5.105 +0.03 -0.02    +0.222    10.194
TER
ENDMDL
MODEL        4
USER    Run = 4
USER    Cluster Rank = 75
USER    Number of conformations in this cluster = 1
USER  
USER    RMSD from reference structure       = 18.526 A
USER  
USER    Estimated Free Energy of Binding    =   +4.01 kcal/mol  [=(1)+(2)+(3)-(4)]
USER    
USER    (1) Final Intermolecular Energy     =   -3.15 kcal/mol
USER        vdW + Hbond + desolv Energy     =   -2.88 kcal/mol
USER        Electrostatic Energy            =   -0.27 kcal/mol
USER    (2) Final Total Internal Energy     =  -13.32 kcal/mol
USER    (3) Torsional Free Energy           =   +7.16 kcal/mol
USER    (4) Unbound System's Energy  [=(2)] =  -13.32 kcal/mol
USER    
USER    
USER  
USER    DPF = D:/Protein_go_brrr/autodock/final/mut_N102T/IHP/dock.dpf
USER    NEWDPF move	IHP_ideal_opt.pdbqt
USER    NEWDPF about	0.035000 0.082000 -0.065000
USER    NEWDPF tran0	10.678290 -11.823977 -14.694833
USER    NEWDPF axisangle0	0.928668 -0.007788 -0.370829 41.186749
USER    NEWDPF quaternion0	0.326644 -0.002739 -0.130433 0.936100
USER    NEWDPF dihe0	140.80 108.89 79.92 138.20 62.63 -134.14 -123.56 106.37 134.64 61.47 -154.73 178.88 -94.03 93.68 -64.73 -119.10 62.63 156.34 -135.84 -16.17 180.00 -30.33 29.22 -164.79 
USER  
USER                              x       y       z    vdW   Elec        q     RMS 
ATOM      1  C   UNL d   1      12.044 -11.704 -13.643 -0.03 -0.01    +0.194    18.526
ATOM      2  C   UNL d   1      11.066 -12.838 -13.330 -0.06 -0.02    +0.194    18.526
ATOM      3  C   UNL d   1       9.611 -12.376 -13.436 -0.09 -0.02    +0.194    18.526
ATOM      4  C   UNL d   1       9.292 -11.689 -14.762 -0.08 +0.06    +0.194    18.526
ATOM      5  C   UNL d   1      10.307 -10.629 -15.171 -0.04 +0.03    +0.194    18.526
ATOM      6  C   UNL d   1      11.763 -11.070 -15.006 -0.01 +0.00    +0.194    18.526
ATOM      7  O   UNL d   1      13.362 -12.254 -13.693 -0.01 +0.01    -0.278    18.526
ATOM      8  P   UNL d   1      14.016 -12.532 -15.124 +0.00 -0.01    +0.473    18.526
ATOM      9  O   UNL d   1      13.101 -13.138 -16.128 +0.00 +0.00    -0.228    18.526
ATOM     10  O   UNL d   1      14.586 -11.110 -15.571 -0.00 +0.01    -0.303    18.526
ATOM     11  H   UNL d   1      14.175 -10.409 -15.031 +0.00 -0.01    +0.222    18.526
ATOM     12  O   UNL d   1      15.348 -13.343 -14.819 -0.00 +0.01    -0.303    18.526
ATOM     13  H   UNL d   1      15.179 -14.219 -14.405 +0.00 -0.01    +0.222    18.526
ATOM     14  O   UNL d   1      11.274 -13.906 -14.262 -0.00 +0.02    -0.278    18.526
ATOM     15  P   UNL d   1      11.801 -15.292 -13.656 +0.01 -0.04    +0.473    18.526
ATOM     16  O   UNL d   1      11.373 -16.540 -14.363 +0.00 +0.02    -0.228    18.526
ATOM     17  O   UNL d   1      13.384 -15.119 -13.612 +0.00 +0.02    -0.303    18.526
ATOM     18  H   UNL d   1      13.671 -14.369 -14.168 +0.01 -0.01    +0.222    18.526
ATOM     19  O   UNL d   1      11.428 -15.216 -12.112 -0.03 +0.05    -0.303    18.526
ATOM     20  H   UNL d   1      10.485 -15.409 -11.958 +0.04 -0.05    +0.222    18.526
ATOM     21  O   UNL d   1      12.562  -9.892 -15.092 -0.01 -0.00    -0.278    18.526
ATOM     22  P   UNL d   1      12.660  -8.909 -13.839 -0.01 -0.01    +0.473    18.526
ATOM     23  O   UNL d   1      11.454  -8.742 -12.977 -0.09 +0.01    -0.228    18.526
ATOM     24  O   UNL d   1      13.946  -9.469 -13.086 -0.01 +0.02    -0.303    18.526
ATOM     25  H   UNL d   1      14.261 -10.274 -13.571 +0.01 -0.01    +0.222    18.526
ATOM     26  O   UNL d   1      13.230  -7.573 -14.517 -0.01 +0.01    -0.303    18.526
ATOM     27  H   UNL d   1      12.672  -7.339 -15.286 +0.02 -0.00    +0.222    18.526
ATOM     28  O   UNL d   1       8.790 -13.537 -13.405 -0.09 +0.04    -0.278    18.526
ATOM     29  P   UNL d   1       8.443 -14.241 -12.019 -0.16 -0.28    +0.473    18.526
ATOM     30  O   UNL d   1       8.332 -15.721 -12.063 -0.16 +0.18    -0.228    18.526
ATOM     31  O   UNL d   1       9.598 -13.626 -11.097 -0.24 +0.12    -0.303    18.526
ATOM     32  H   UNL d   1      10.456 -14.035 -11.355 +0.04 -0.06    +0.222    18.526
ATOM     33  O   UNL d   1       7.152 -13.436 -11.550 -0.23 +0.34    -0.303    18.526
ATOM     34  H   UNL d   1       6.710 -13.934 -10.819 -0.43 -0.50    +0.222    18.526
ATOM     35  O   UNL d   1      10.091 -10.403 -16.562 -0.02 -0.06    -0.278    18.526
ATOM     36  P   UNL d   1      10.605  -9.058 -17.248 +0.00 +0.06    +0.473    18.526
ATOM     37  O   UNL d   1      11.797  -9.203 -18.139 -0.00 -0.01    -0.228    18.526
ATOM     38  O   UNL d   1       9.291  -8.548 -17.990 -0.03 -0.06    -0.303    18.526
ATOM     39  H   UNL d   1       8.608  -8.330 -17.320 +0.05 +0.06    +0.222    18.526
ATOM     40  O   UNL d   1      10.748  -8.076 -16.005 -0.02 -0.02    -0.303    18.526
ATOM     41  H   UNL d   1      10.807  -8.569 -15.157 +0.03 +0.01    +0.222    18.526
ATOM     42  O   UNL d   1       8.035 -11.026 -14.594 -0.59 -0.27    -0.278    18.526
ATOM     43  P   UNL d   1       8.011  -9.573 -13.935 -0.14 +0.20    +0.473    18.526
ATOM     44  O   UNL d   1       6.734  -9.121 -13.316 -0.36 -0.08    -0.228    18.526
ATOM     45  O   UNL d   1       9.240  -9.628 -12.925 -0.15 +0.01    -0.303    18.526
ATOM     46  H   UNL d   1       9.810  -8.838 -13.011 +0.06 -0.00    +0.222    18.526
ATOM     47  O   UNL d   1       8.588  -8.634 -15.098 -0.10 -0.10    -0.303    18.526
ATOM     48  H   UNL d   1       8.828  -9.187 -15.870 +0.05 +0.09    +0.222    18.526
TER
ENDMDL
MODEL       49
USER    Run = 49
USER    Cluster Rank = 76
USER    Number of conformations in this cluster = 1
USER  
USER    RMSD from reference structure       = 18.503 A
USER  
USER    Estimated Free Energy of Binding    =   +4.01 kcal/mol  [=(1)+(2)+(3)-(4)]
USER    
USER    (1) Final Intermolecular Energy     =   -3.15 kcal/mol
USER        vdW + Hbond + desolv Energy     =   -2.85 kcal/mol
USER        Electrostatic Energy            =   -0.30 kcal/mol
USER    (2) Final Total Internal Energy     =  -13.43 kcal/mol
USER    (3) Torsional Free Energy           =   +7.16 kcal/mol
USER    (4) Unbound System's Energy  [=(2)] =  -13.43 kcal/mol
USER    
USER    
USER  
USER    DPF = D:/Protein_go_brrr/autodock/final/mut_N102T/IHP/dock.dpf
USER    NEWDPF move	IHP_ideal_opt.pdbqt
USER    NEWDPF about	0.035000 0.082000 -0.065000
USER    NEWDPF tran0	-8.847555 -19.547552 -0.070678
USER    NEWDPF axisangle0	0.708113 0.043293 0.704771 -40.649049
USER    NEWDPF quaternion0	0.245954 0.015037 0.244793 -0.937740
USER    NEWDPF dihe0	132.91 89.43 135.05 -8.35 -74.97 176.54 -124.08 -22.64 19.93 13.14 155.25 -155.13 136.92 179.95 24.44 179.97 156.18 -149.49 56.06 13.04 170.00 13.75 -12.93 5.92 
USER  
USER                              x       y       z    vdW   Elec        q     RMS 
ATOM      1  C   UNL d   1      -7.227 -19.996   0.324 -0.09 +0.10    +0.194    18.503
ATOM      2  C   UNL d   1      -8.016 -21.021  -0.492 -0.01 +0.06    +0.194    18.503
ATOM      3  C   UNL d   1      -9.447 -21.179   0.028 +0.01 +0.02    +0.194    18.503
ATOM      4  C   UNL d   1     -10.188 -19.851   0.160 +0.01 +0.02    +0.194    18.503
ATOM      5  C   UNL d   1      -9.392 -18.763   0.867 -0.02 +0.02    +0.194    18.503
ATOM      6  C   UNL d   1      -7.942 -18.646   0.390 -0.08 +0.09    +0.194    18.503
ATOM      7  O   UNL d   1      -5.971 -19.781  -0.325 -0.39 -0.40    -0.278    18.503
ATOM      8  P   UNL d   1      -4.926 -20.988  -0.375 +0.04 +0.47    +0.473    18.503
ATOM      9  O   UNL d   1      -3.574 -20.632  -0.886 -0.58 -0.30    -0.228    18.503
ATOM     10  O   UNL d   1      -4.905 -21.544   1.120 -0.29 -0.12    -0.303    18.503
ATOM     11  H   UNL d   1      -5.173 -20.836   1.736 +0.04 +0.07    +0.222    18.503
ATOM     12  O   UNL d   1      -5.677 -22.153  -1.152 -0.02 -0.14    -0.303    18.503
ATOM     13  H   UNL d   1      -6.154 -21.837  -1.953 +0.02 +0.12    +0.222    18.503
ATOM     14  O   UNL d   1      -8.072 -20.589  -1.857 -0.01 -0.13    -0.278    18.503
ATOM     15  P   UNL d   1      -8.020 -21.735  -2.974 +0.01 +0.15    +0.473    18.503
ATOM     16  O   UNL d   1      -6.945 -21.617  -4.009 -0.00 -0.10    -0.228    18.503
ATOM     17  O   UNL d   1      -7.927 -23.087  -2.138 +0.01 -0.06    -0.303    18.503
ATOM     18  H   UNL d   1      -8.495 -23.050  -1.344 +0.00 +0.03    +0.222    18.503
ATOM     19  O   UNL d   1      -9.507 -21.809  -3.536 +0.00 -0.06    -0.303    18.503
ATOM     20  H   UNL d   1     -10.128 -22.155  -2.868 +0.00 +0.03    +0.222    18.503
ATOM     21  O   UNL d   1      -7.253 -17.854   1.354 -0.13 -0.10    -0.278    18.503
ATOM     22  P   UNL d   1      -7.014 -18.426   2.824 -0.19 -0.08    +0.473    18.503
ATOM     23  O   UNL d   1      -6.335 -19.747   2.964 -0.18 +0.05    -0.228    18.503
ATOM     24  O   UNL d   1      -6.262 -17.212   3.527 -0.34 +0.13    -0.303    18.503
ATOM     25  H   UNL d   1      -5.556 -17.585   4.114 -0.48 -0.22    +0.222    18.503
ATOM     26  O   UNL d   1      -8.482 -18.319   3.458 -0.13 +0.10    -0.303    18.503
ATOM     27  H   UNL d   1      -9.102 -17.983   2.779 +0.06 -0.03    +0.222    18.503
ATOM     28  O   UNL d   1     -10.175 -21.924  -0.941 +0.00 -0.03    -0.278    18.503
ATOM     29  P   UNL d   1     -10.927 -23.265  -0.525 +0.00 +0.02    +0.473    18.503
ATOM     30  O   UNL d   1     -12.094 -23.632  -1.367 +0.00 -0.01    -0.228    18.503
ATOM     31  O   UNL d   1      -9.693 -24.284  -0.511 +0.00 -0.01    -0.303    18.503
ATOM     32  H   UNL d   1      -9.420 -24.460  -1.441 +0.00 +0.01    +0.222    18.503
ATOM     33  O   UNL d   1     -11.204 -23.026   1.024 +0.00 +0.00    -0.303    18.503
ATOM     34  H   UNL d   1     -11.412 -22.071   1.170 +0.00 -0.00    +0.222    18.503
ATOM     35  O   UNL d   1     -10.040 -17.535   0.543 -0.01 -0.03    -0.278    18.503
ATOM     36  P   UNL d   1     -10.690 -16.640   1.692 -0.03 -0.01    +0.473    18.503
ATOM     37  O   UNL d   1     -11.728 -15.663   1.239 -0.03 +0.00    -0.228    18.503
ATOM     38  O   UNL d   1     -11.229 -17.747   2.702 -0.05 +0.03    -0.303    18.503
ATOM     39  H   UNL d   1     -11.756 -18.408   2.203 +0.02 -0.02    +0.222    18.503
ATOM     40  O   UNL d   1      -9.409 -16.045   2.424 -0.11 +0.01    -0.303    18.503
ATOM     41  H   UNL d   1      -8.635 -16.646   2.350 +0.08 -0.00    +0.222    18.503
ATOM     42  O   UNL d   1     -11.353 -20.104   0.953 +0.00 -0.00    -0.278    18.503
ATOM     43  P   UNL d   1     -12.776 -20.169   0.236 +0.00 +0.00    +0.473    18.503
ATOM     44  O   UNL d   1     -13.675 -18.991   0.387 -0.00 +0.00    -0.228    18.503
ATOM     45  O   UNL d   1     -12.392 -20.506  -1.271 +0.00 -0.02    -0.303    18.503
ATOM     46  H   UNL d   1     -12.239 -21.464  -1.396 +0.00 +0.01    +0.222    18.503
ATOM     47  O   UNL d   1     -13.377 -21.567   0.740 +0.00 +0.01    -0.303    18.503
ATOM     48  H   UNL d   1     -12.952 -21.814   1.587 +0.00 -0.01    +0.222    18.503
TER
ENDMDL
MODEL       44
USER    Run = 44
USER    Cluster Rank = 77
USER    Number of conformations in this cluster = 1
USER  
USER    RMSD from reference structure       = 23.154 A
USER  
USER    Estimated Free Energy of Binding    =   +4.09 kcal/mol  [=(1)+(2)+(3)-(4)]
USER    
USER    (1) Final Intermolecular Energy     =   -3.07 kcal/mol
USER        vdW + Hbond + desolv Energy     =   -2.94 kcal/mol
USER        Electrostatic Energy            =   -0.12 kcal/mol
USER    (2) Final Total Internal Energy     =  -15.59 kcal/mol
USER    (3) Torsional Free Energy           =   +7.16 kcal/mol
USER    (4) Unbound System's Energy  [=(2)] =  -15.59 kcal/mol
USER    
USER    
USER  
USER    DPF = D:/Protein_go_brrr/autodock/final/mut_N102T/IHP/dock.dpf
USER    NEWDPF move	IHP_ideal_opt.pdbqt
USER    NEWDPF about	0.035000 0.082000 -0.065000
USER    NEWDPF tran0	12.262108 10.703395 19.674153
USER    NEWDPF axisangle0	0.548469 -0.835906 -0.021022 144.764542
USER    NEWDPF quaternion0	0.522745 -0.796700 -0.020036 0.302665
USER    NEWDPF dihe0	91.95 49.13 170.89 5.15 29.07 -149.17 -77.15 -7.91 23.43 8.09 102.39 146.56 152.67 176.23 -62.94 -0.83 141.34 -133.49 48.54 14.04 166.65 -3.89 -12.50 0.03 
USER  
USER                              x       y       z    vdW   Elec        q     RMS 
ATOM      1  C   UNL d   1      13.039   9.548  18.651 -0.05 +0.08    +0.194    23.154
ATOM      2  C   UNL d   1      13.885  10.080  19.809 -0.00 +0.04    +0.194    23.154
ATOM      3  C   UNL d   1      13.727  11.593  19.978 +0.00 +0.02    +0.194    23.154
ATOM      4  C   UNL d   1      12.270  12.038  20.076 +0.00 +0.02    +0.194    23.154
ATOM      5  C   UNL d   1      11.365  11.439  19.007 -0.03 +0.03    +0.194    23.154
ATOM      6  C   UNL d   1      11.567   9.938  18.795 -0.09 +0.07    +0.194    23.154
ATOM      7  O   UNL d   1      13.106   8.121  18.669 -0.16 -0.25    -0.278    23.154
ATOM      8  P   UNL d   1      14.454   7.418  18.179 -0.03 +0.35    +0.473    23.154
ATOM      9  O   UNL d   1      14.296   6.022  17.688 -0.36 -0.27    -0.228    23.154
ATOM     10  O   UNL d   1      15.028   8.412  17.071 -0.04 -0.13    -0.303    23.154
ATOM     11  H   UNL d   1      14.424   8.433  16.306 +0.04 +0.13    +0.222    23.154
ATOM     12  O   UNL d   1      15.483   7.620  19.373 -0.01 -0.09    -0.303    23.154
ATOM     13  H   UNL d   1      15.081   8.058  20.157 +0.01 +0.06    +0.222    23.154
ATOM     14  O   UNL d   1      13.472   9.440  21.022 +0.00 -0.05    -0.278    23.154
ATOM     15  P   UNL d   1      14.617   9.149  22.104 +0.01 +0.05    +0.473    23.154
ATOM     16  O   UNL d   1      14.708   7.749  22.626 +0.00 -0.03    -0.228    23.154
ATOM     17  O   UNL d   1      15.956   9.630  21.389 +0.00 -0.03    -0.303    23.154
ATOM     18  H   UNL d   1      16.018  10.604  21.377 +0.00 +0.01    +0.222    23.154
ATOM     19  O   UNL d   1      14.418  10.280  23.205 +0.00 -0.01    -0.303    23.154
ATOM     20  H   UNL d   1      14.431  11.172  22.812 +0.00 +0.01    +0.222    23.154
ATOM     21  O   UNL d   1      10.924   9.605  17.566 -0.20 -0.15    -0.278    23.154
ATOM     22  P   UNL d   1      11.463  10.223  16.198 -0.17 +0.16    +0.473    23.154
ATOM     23  O   UNL d   1      12.050  11.594  16.227 -0.07 -0.04    -0.228    23.154
ATOM     24  O   UNL d   1      12.452   9.084  15.693 -0.11 -0.21    -0.303    23.154
ATOM     25  H   UNL d   1      12.910   8.700  16.484 +0.06 +0.19    +0.222    23.154
ATOM     26  O   UNL d   1      10.201  10.019  15.230 -0.30 -0.03    -0.303    23.154
ATOM     27  H   UNL d   1       9.378  10.162  15.740 -0.45 -0.02    +0.222    23.154
ATOM     28  O   UNL d   1      14.315  11.948  21.223 +0.00 -0.01    -0.278    23.154
ATOM     29  P   UNL d   1      15.710  12.716  21.264 +0.00 +0.01    +0.473    23.154
ATOM     30  O   UNL d   1      16.602  12.488  20.099 +0.00 -0.01    -0.228    23.154
ATOM     31  O   UNL d   1      15.197  14.213  21.503 +0.00 -0.00    -0.303    23.154
ATOM     32  H   UNL d   1      14.280  14.291  21.153 +0.00 +0.00    +0.222    23.154
ATOM     33  O   UNL d   1      16.275  12.306  22.695 +0.00 -0.01    -0.303    23.154
ATOM     34  H   UNL d   1      16.237  11.322  22.785 +0.00 +0.01    +0.222    23.154
ATOM     35  O   UNL d   1      10.033  11.621  19.482 -0.07 -0.03    -0.278    23.154
ATOM     36  P   UNL d   1       8.999  12.513  18.657 -0.04 +0.06    +0.473    23.154
ATOM     37  O   UNL d   1       7.676  12.742  19.316 -0.24 -0.01    -0.228    23.154
ATOM     38  O   UNL d   1       9.842  13.840  18.404 -0.04 +0.01    -0.303    23.154
ATOM     39  H   UNL d   1      10.269  14.114  19.244 +0.03 -0.01    +0.222    23.154
ATOM     40  O   UNL d   1       8.985  11.792  17.239 -0.73 -0.07    -0.303    23.154
ATOM     41  H   UNL d   1       9.863  11.413  17.015 +0.08 +0.03    +0.222    23.154
ATOM     42  O   UNL d   1      12.257  13.458  19.892 +0.00 -0.01    -0.278    23.154
ATOM     43  P   UNL d   1      11.889  14.393  21.130 +0.00 -0.01    +0.473    23.154
ATOM     44  O   UNL d   1      10.449  14.698  21.356 -0.00 +0.01    -0.228    23.154
ATOM     45  O   UNL d   1      12.596  13.653  22.349 +0.00 +0.00    -0.303    23.154
ATOM     46  H   UNL d   1      13.392  13.165  22.058 +0.00 +0.00    +0.222    23.154
ATOM     47  O   UNL d   1      12.842  15.665  20.925 +0.00 +0.01    -0.303    23.154
ATOM     48  H   UNL d   1      13.693  15.372  20.538 +0.00 -0.00    +0.222    23.154
TER
ENDMDL
MODEL        6
USER    Run = 6
USER    Cluster Rank = 78
USER    Number of conformations in this cluster = 1
USER  
USER    RMSD from reference structure       = 15.783 A
USER  
USER    Estimated Free Energy of Binding    =   +4.15 kcal/mol  [=(1)+(2)+(3)-(4)]
USER    
USER    (1) Final Intermolecular Energy     =   -3.01 kcal/mol
USER        vdW + Hbond + desolv Energy     =   -2.94 kcal/mol
USER        Electrostatic Energy            =   -0.07 kcal/mol
USER    (2) Final Total Internal Energy     =  -15.31 kcal/mol
USER    (3) Torsional Free Energy           =   +7.16 kcal/mol
USER    (4) Unbound System's Energy  [=(2)] =  -15.31 kcal/mol
USER    
USER    
USER  
USER    DPF = D:/Protein_go_brrr/autodock/final/mut_N102T/IHP/dock.dpf
USER    NEWDPF move	IHP_ideal_opt.pdbqt
USER    NEWDPF about	0.035000 0.082000 -0.065000
USER    NEWDPF tran0	-13.213006 5.155279 11.932022
USER    NEWDPF axisangle0	-0.843292 -0.532630 0.071858 -106.922668
USER    NEWDPF quaternion0	-0.677548 -0.427944 0.057735 -0.595365
USER    NEWDPF dihe0	174.99 13.28 55.04 49.86 149.67 118.33 47.69 -78.10 39.11 22.70 -8.52 -151.29 23.99 158.26 45.19 96.81 168.96 -20.24 -1.47 -18.27 -23.32 -23.76 -12.23 169.97 
USER  
USER                              x       y       z    vdW   Elec        q     RMS 
ATOM      1  C   UNL d   1     -13.346   6.500  13.008 -0.03 -0.00    +0.194    15.783
ATOM      2  C   UNL d   1     -14.323   5.351  13.263 -0.01 -0.00    +0.194    15.783
ATOM      3  C   UNL d   1     -14.920   4.815  11.960 -0.01 -0.01    +0.194    15.783
ATOM      4  C   UNL d   1     -13.864   4.455  10.918 -0.04 -0.01    +0.194    15.783
ATOM      5  C   UNL d   1     -12.802   5.528  10.714 -0.10 -0.00    +0.194    15.783
ATOM      6  C   UNL d   1     -12.249   6.107  12.018 -0.11 +0.00    +0.194    15.783
ATOM      7  O   UNL d   1     -12.707   6.826  14.245 -0.02 +0.00    -0.278    15.783
ATOM      8  P   UNL d   1     -12.799   8.330  14.774 +0.00 -0.01    +0.473    15.783
ATOM      9  O   UNL d   1     -14.113   8.715  15.357 -0.00 +0.01    -0.228    15.783
ATOM     10  O   UNL d   1     -11.592   8.450  15.810 -0.01 +0.00    -0.303    15.783
ATOM     11  H   UNL d   1     -10.963   7.718  15.665 +0.04 +0.00    +0.222    15.783
ATOM     12  O   UNL d   1     -12.288   9.225  13.564 -0.01 +0.01    -0.303    15.783
ATOM     13  H   UNL d   1     -11.605   8.778  13.016 +0.05 -0.00    +0.222    15.783
ATOM     14  O   UNL d   1     -13.627   4.284  13.919 -0.02 +0.00    -0.278    15.783
ATOM     15  P   UNL d   1     -14.063   3.965  15.426 +0.00 -0.00    +0.473    15.783
ATOM     16  O   UNL d   1     -12.984   3.499  16.353 -0.01 -0.01    -0.228    15.783
ATOM     17  O   UNL d   1     -14.763   5.308  15.919 -0.00 +0.01    -0.303    15.783
ATOM     18  H   UNL d   1     -14.276   6.094  15.606 +0.01 -0.00    +0.222    15.783
ATOM     19  O   UNL d   1     -15.310   2.989  15.280 -0.00 +0.01    -0.303    15.783
ATOM     20  H   UNL d   1     -15.618   2.932  14.357 +0.00 -0.01    +0.222    15.783
ATOM     21  O   UNL d   1     -11.549   7.301  11.674 -0.10 -0.00    -0.278    15.783
ATOM     22  P   UNL d   1     -10.029   7.485  12.124 -0.22 +0.05    +0.473    15.783
ATOM     23  O   UNL d   1      -8.978   6.728  11.384 -0.81 -0.07    -0.228    15.783
ATOM     24  O   UNL d   1      -9.867   9.067  12.082 -0.16 -0.02    -0.303    15.783
ATOM     25  H   UNL d   1     -10.207   9.435  12.937 +0.06 +0.00    +0.222    15.783
ATOM     26  O   UNL d   1     -10.120   7.203  13.700 -0.20 -0.03    -0.303    15.783
ATOM     27  H   UNL d   1     -10.778   7.809  14.097 +0.06 +0.01    +0.222    15.783
ATOM     28  O   UNL d   1     -15.583   3.594  12.263 -0.00 +0.01    -0.278    15.783
ATOM     29  P   UNL d   1     -17.098   3.602  12.754 +0.00 -0.02    +0.473    15.783
ATOM     30  O   UNL d   1     -18.105   3.957  11.720 +0.00 +0.01    -0.228    15.783
ATOM     31  O   UNL d   1     -17.194   2.135  13.387 +0.00 +0.01    -0.303    15.783
ATOM     32  H   UNL d   1     -17.091   2.208  14.364 +0.00 -0.01    +0.222    15.783
ATOM     33  O   UNL d   1     -17.028   4.537  14.041 +0.00 +0.01    -0.303    15.783
ATOM     34  H   UNL d   1     -16.090   4.589  14.349 +0.00 -0.01    +0.222    15.783
ATOM     35  O   UNL d   1     -11.719   4.879  10.050 -0.14 +0.01    -0.278    15.783
ATOM     36  P   UNL d   1     -11.264   5.357   8.598 -0.14 +0.01    +0.473    15.783
ATOM     37  O   UNL d   1     -10.751   4.279   7.696 -0.74 -0.03    -0.228    15.783
ATOM     38  O   UNL d   1     -12.577   6.085   8.068 -0.08 +0.01    -0.303    15.783
ATOM     39  H   UNL d   1     -13.365   5.653   8.461 +0.05 -0.01    +0.222    15.783
ATOM     40  O   UNL d   1     -10.270   6.553   8.930 -0.36 +0.00    -0.303    15.783
ATOM     41  H   UNL d   1     -10.403   6.895   9.842 +0.11 +0.00    +0.222    15.783
ATOM     42  O   UNL d   1     -14.549   4.299   9.670 -0.01 +0.01    -0.278    15.783
ATOM     43  P   UNL d   1     -15.381   5.529   9.088 +0.00 -0.02    +0.473    15.783
ATOM     44  O   UNL d   1     -14.968   6.897   9.507 -0.00 +0.01    -0.228    15.783
ATOM     45  O   UNL d   1     -15.315   5.282   7.517 -0.00 +0.01    -0.303    15.783
ATOM     46  H   UNL d   1     -14.473   5.605   7.139 +0.02 -0.01    +0.222    15.783
ATOM     47  O   UNL d   1     -16.899   5.133   9.417 +0.00 +0.01    -0.303    15.783
ATOM     48  H   UNL d   1     -16.918   4.557  10.209 +0.00 -0.01    +0.222    15.783
TER
ENDMDL
MODEL       82
USER    Run = 82
USER    Cluster Rank = 79
USER    Number of conformations in this cluster = 1
USER  
USER    RMSD from reference structure       = 10.840 A
USER  
USER    Estimated Free Energy of Binding    =   +4.19 kcal/mol  [=(1)+(2)+(3)-(4)]
USER    
USER    (1) Final Intermolecular Energy     =   -2.97 kcal/mol
USER        vdW + Hbond + desolv Energy     =   -2.96 kcal/mol
USER        Electrostatic Energy            =   -0.01 kcal/mol
USER    (2) Final Total Internal Energy     =  -12.12 kcal/mol
USER    (3) Torsional Free Energy           =   +7.16 kcal/mol
USER    (4) Unbound System's Energy  [=(2)] =  -12.12 kcal/mol
USER    
USER    
USER  
USER    DPF = D:/Protein_go_brrr/autodock/final/mut_N102T/IHP/dock.dpf
USER    NEWDPF move	IHP_ideal_opt.pdbqt
USER    NEWDPF about	0.035000 0.082000 -0.065000
USER    NEWDPF tran0	-14.260622 -0.960971 -3.024208
USER    NEWDPF axisangle0	0.254525 -0.016897 0.966919 -122.902826
USER    NEWDPF quaternion0	0.223578 -0.014843 0.849353 -0.477904
USER    NEWDPF dihe0	103.11 -17.43 10.96 45.03 112.32 112.66 5.73 151.40 146.60 67.84 56.57 -7.34 -26.39 -153.93 96.54 159.05 156.12 -91.51 35.65 -46.56 -44.86 -44.20 -168.94 -137.15 
USER  
USER                              x       y       z    vdW   Elec        q     RMS 
ATOM      1  C   UNL d   1     -13.800   0.341  -1.986 -0.05 +0.08    +0.194    10.840
ATOM      2  C   UNL d   1     -12.724  -0.139  -2.962 -0.08 +0.08    +0.194    10.840
ATOM      3  C   UNL d   1     -12.669  -1.667  -3.038 -0.08 +0.07    +0.194    10.840
ATOM      4  C   UNL d   1     -14.028  -2.304  -3.319 -0.01 +0.03    +0.194    10.840
ATOM      5  C   UNL d   1     -15.156  -1.770  -2.445 -0.00 +0.03    +0.194    10.840
ATOM      6  C   UNL d   1     -15.173  -0.245  -2.319 -0.01 +0.03    +0.194    10.840
ATOM      7  O   UNL d   1     -13.904   1.762  -2.101 -0.03 -0.08    -0.278    10.840
ATOM      8  P   UNL d   1     -12.931   2.668  -1.216 -0.05 +0.17    +0.473    10.840
ATOM      9  O   UNL d   1     -11.655   2.017  -0.812 -0.61 -0.21    -0.228    10.840
ATOM     10  O   UNL d   1     -12.715   3.980  -2.099 -0.01 -0.05    -0.303    10.840
ATOM     11  H   UNL d   1     -12.390   3.729  -2.983 +0.03 +0.03    +0.222    10.840
ATOM     12  O   UNL d   1     -13.838   3.212  -0.030 -0.02 -0.07    -0.303    10.840
ATOM     13  H   UNL d   1     -14.580   3.779  -0.341 +0.02 +0.03    +0.222    10.840
ATOM     14  O   UNL d   1     -13.015   0.373  -4.268 -0.02 -0.05    -0.278    10.840
ATOM     15  P   UNL d   1     -12.486   1.849  -4.592 -0.01 +0.06    +0.473    10.840
ATOM     16  O   UNL d   1     -13.476   2.963  -4.456 -0.00 -0.02    -0.228    10.840
ATOM     17  O   UNL d   1     -11.223   2.026  -3.637 -0.11 -0.05    -0.303    10.840
ATOM     18  H   UNL d   1     -11.493   2.325  -2.748 +0.05 +0.06    +0.222    10.840
ATOM     19  O   UNL d   1     -11.792   1.718  -6.018 -0.04 -0.02    -0.303    10.840
ATOM     20  H   UNL d   1     -11.636   0.786  -6.258 +0.04 +0.02    +0.222    10.840
ATOM     21  O   UNL d   1     -16.037   0.069  -1.228 +0.00 -0.04    -0.278    10.840
ATOM     22  P   UNL d   1     -16.899   1.410  -1.263 +0.02 +0.03    +0.473    10.840
ATOM     23  O   UNL d   1     -18.372   1.307  -1.050 +0.00 -0.01    -0.228    10.840
ATOM     24  O   UNL d   1     -16.134   2.317  -0.202 +0.01 -0.03    -0.303    10.840
ATOM     25  H   UNL d   1     -15.162   2.253  -0.386 +0.02 +0.04    +0.222    10.840
ATOM     26  O   UNL d   1     -16.434   2.062  -2.652 +0.01 -0.02    -0.303    10.840
ATOM     27  H   UNL d   1     -15.473   2.244  -2.615 +0.01 +0.02    +0.222    10.840
ATOM     28  O   UNL d   1     -11.854  -2.011  -4.151 -0.06 -0.07    -0.278    10.840
ATOM     29  P   UNL d   1     -10.298  -1.674  -4.143 -0.10 +0.15    +0.473    10.840
ATOM     30  O   UNL d   1      -9.400  -2.779  -4.567 -0.70 -0.07    -0.228    10.840
ATOM     31  O   UNL d   1     -10.294  -0.350  -5.043 -0.02 -0.03    -0.303    10.840
ATOM     32  H   UNL d   1     -10.892   0.314  -4.627 +0.05 +0.03    +0.222    10.840
ATOM     33  O   UNL d   1     -10.088  -1.100  -2.673 -0.81 -0.24    -0.303    10.840
ATOM     34  H   UNL d   1      -9.357  -0.434  -2.689 -0.41 +0.12    +0.222    10.840
ATOM     35  O   UNL d   1     -16.365  -2.150  -3.098 +0.00 -0.02    -0.278    10.840
ATOM     36  P   UNL d   1     -16.468  -2.107  -4.690 +0.01 +0.02    +0.473    10.840
ATOM     37  O   UNL d   1     -17.856  -2.053  -5.245 +0.00 -0.01    -0.228    10.840
ATOM     38  O   UNL d   1     -15.574  -0.836  -5.039 +0.00 -0.02    -0.303    10.840
ATOM     39  H   UNL d   1     -14.626  -1.079  -4.961 +0.02 +0.02    +0.222    10.840
ATOM     40  O   UNL d   1     -15.564  -3.342  -5.122 +0.00 -0.02    -0.303    10.840
ATOM     41  H   UNL d   1     -15.524  -4.028  -4.420 +0.00 +0.01    +0.222    10.840
ATOM     42  O   UNL d   1     -13.899  -3.700  -3.032 -0.01 -0.04    -0.278    10.840
ATOM     43  P   UNL d   1     -14.680  -4.306  -1.780 +0.01 +0.04    +0.473    10.840
ATOM     44  O   UNL d   1     -14.615  -3.550  -0.498 -0.04 -0.03    -0.228    10.840
ATOM     45  O   UNL d   1     -16.154  -4.499  -2.349 +0.00 -0.01    -0.303    10.840
ATOM     46  H   UNL d   1     -16.290  -3.987  -3.171 +0.01 +0.01    +0.222    10.840
ATOM     47  O   UNL d   1     -14.155  -5.819  -1.718 -0.00 -0.02    -0.303    10.840
ATOM     48  H   UNL d   1     -14.479  -6.240  -0.895 +0.02 +0.00    +0.222    10.840
TER
ENDMDL
MODEL       21
USER    Run = 21
USER    Cluster Rank = 80
USER    Number of conformations in this cluster = 1
USER  
USER    RMSD from reference structure       = 17.547 A
USER  
USER    Estimated Free Energy of Binding    =   +4.23 kcal/mol  [=(1)+(2)+(3)-(4)]
USER    
USER    (1) Final Intermolecular Energy     =   -2.93 kcal/mol
USER        vdW + Hbond + desolv Energy     =   -2.82 kcal/mol
USER        Electrostatic Energy            =   -0.11 kcal/mol
USER    (2) Final Total Internal Energy     =  -12.27 kcal/mol
USER    (3) Torsional Free Energy           =   +7.16 kcal/mol
USER    (4) Unbound System's Energy  [=(2)] =  -12.27 kcal/mol
USER    
USER    
USER  
USER    DPF = D:/Protein_go_brrr/autodock/final/mut_N102T/IHP/dock.dpf
USER    NEWDPF move	IHP_ideal_opt.pdbqt
USER    NEWDPF about	0.035000 0.082000 -0.065000
USER    NEWDPF tran0	11.282605 -9.295502 14.938874
USER    NEWDPF axisangle0	-0.652360 -0.332634 0.681014 109.424779
USER    NEWDPF quaternion0	-0.532497 -0.271517 0.555886 0.577681
USER    NEWDPF dihe0	54.43 -179.55 155.41 7.23 8.07 -120.08 -79.37 -5.01 24.70 -180.00 179.92 148.32 -147.78 -179.00 16.71 2.68 -86.94 170.13 -38.05 8.81 148.38 -9.63 -133.59 -168.56 
USER  
USER                              x       y       z    vdW   Elec        q     RMS 
ATOM      1  C   UNL d   1      10.529 -10.299  13.752 -0.15 +0.16    +0.194    17.547
ATOM      2  C   UNL d   1       9.590  -9.371  14.525 -0.17 +0.11    +0.194    17.547
ATOM      3  C   UNL d   1       9.918  -9.350  16.019 -0.12 +0.10    +0.194    17.547
ATOM      4  C   UNL d   1      11.388  -9.055  16.308 -0.03 +0.07    +0.194    17.547
ATOM      5  C   UNL d   1      12.362  -9.878  15.474 -0.03 +0.08    +0.194    17.547
ATOM      6  C   UNL d   1      11.999  -9.950  13.990 -0.05 +0.09    +0.194    17.547
ATOM      7  O   UNL d   1      10.272 -10.131  12.355 -0.13 -0.16    -0.278    17.547
ATOM      8  P   UNL d   1      10.750 -11.279  11.352 -0.11 +0.24    +0.473    17.547
ATOM      9  O   UNL d   1      12.067 -11.040  10.701 -0.04 -0.07    -0.228    17.547
ATOM     10  O   UNL d   1      10.719 -12.605  12.239 -0.53 -0.33    -0.303    17.547
ATOM     11  H   UNL d   1      11.628 -12.849  12.494 +0.03 +0.18    +0.222    17.547
ATOM     12  O   UNL d   1       9.522 -11.506  10.370 -0.17 -0.11    -0.303    17.547
ATOM     13  H   UNL d   1       9.790 -11.573   9.426 +0.08 +0.05    +0.222    17.547
ATOM     14  O   UNL d   1       9.721  -8.040  14.010 -0.10 -0.10    -0.278    17.547
ATOM     15  P   UNL d   1       8.371  -7.189  13.875 -0.09 +0.12    +0.473    17.547
ATOM     16  O   UNL d   1       8.050  -6.648  12.517 -0.23 -0.06    -0.228    17.547
ATOM     17  O   UNL d   1       7.242  -8.163  14.435 -0.24 -0.08    -0.303    17.547
ATOM     18  H   UNL d   1       7.420  -8.412  15.362 +0.07 +0.06    +0.222    17.547
ATOM     19  O   UNL d   1       8.466  -6.108  15.038 -0.08 -0.05    -0.303    17.547
ATOM     20  H   UNL d   1       8.645  -6.523  15.902 +0.05 +0.03    +0.222    17.547
ATOM     21  O   UNL d   1      12.776 -11.005  13.426 -0.02 -0.13    -0.278    17.547
ATOM     22  P   UNL d   1      12.876 -12.406  14.182 -0.03 +0.29    +0.473    17.547
ATOM     23  O   UNL d   1      11.617 -13.023  14.691 +0.10 -0.39    -0.228    17.547
ATOM     24  O   UNL d   1      13.673 -13.290  13.125 -0.00 -0.11    -0.303    17.547
ATOM     25  H   UNL d   1      13.156 -13.299  12.280 +0.01 +0.08    +0.222    17.547
ATOM     26  O   UNL d   1      14.005 -12.104  15.279 -0.00 -0.10    -0.303    17.547
ATOM     27  H   UNL d   1      13.667 -11.438  15.913 +0.01 +0.07    +0.222    17.547
ATOM     28  O   UNL d   1       9.196  -8.273  16.601 -0.06 -0.07    -0.278    17.547
ATOM     29  P   UNL d   1       7.849  -8.548  17.405 -0.12 +0.09    +0.473    17.547
ATOM     30  O   UNL d   1       7.144  -9.810  17.061 -0.17 -0.08    -0.228    17.547
ATOM     31  O   UNL d   1       8.385  -8.402  18.906 -0.02 -0.03    -0.303    17.547
ATOM     32  H   UNL d   1       9.341  -8.639  18.922 +0.02 +0.03    +0.222    17.547
ATOM     33  O   UNL d   1       7.045  -7.192  17.185 -0.11 -0.02    -0.303    17.547
ATOM     34  H   UNL d   1       6.983  -7.009  16.215 +0.07 +0.02    +0.222    17.547
ATOM     35  O   UNL d   1      13.616  -9.206  15.568 +0.00 -0.06    -0.278    17.547
ATOM     36  P   UNL d   1      13.735  -7.832  16.370 +0.01 +0.07    +0.473    17.547
ATOM     37  O   UNL d   1      12.623  -6.857  16.147 -0.00 -0.04    -0.228    17.547
ATOM     38  O   UNL d   1      13.866  -8.343  17.873 +0.00 -0.04    -0.303    17.547
ATOM     39  H   UNL d   1      13.198  -9.043  18.034 +0.00 +0.03    +0.222    17.547
ATOM     40  O   UNL d   1      15.204  -7.349  16.000 +0.00 -0.04    -0.303    17.547
ATOM     41  H   UNL d   1      15.235  -6.382  15.821 +0.00 +0.03    +0.222    17.547
ATOM     42  O   UNL d   1      11.617  -9.394  17.680 -0.01 -0.07    -0.278    17.547
ATOM     43  P   UNL d   1      11.847 -10.925  18.068 -0.01 +0.17    +0.473    17.547
ATOM     44  O   UNL d   1      11.294 -11.393  19.369 -0.01 -0.06    -0.228    17.547
ATOM     45  O   UNL d   1      11.272 -11.696  16.801 -0.45 -0.30    -0.303    17.547
ATOM     46  H   UNL d   1      11.990 -12.077  16.257 +0.01 +0.20    +0.222    17.547
ATOM     47  O   UNL d   1      13.427 -11.118  17.877 +0.00 -0.07    -0.303    17.547
ATOM     48  H   UNL d   1      13.736 -10.544  17.146 +0.01 +0.05    +0.222    17.547
TER
ENDMDL
MODEL       68
USER    Run = 68
USER    Cluster Rank = 81
USER    Number of conformations in this cluster = 1
USER  
USER    RMSD from reference structure       = 17.834 A
USER  
USER    Estimated Free Energy of Binding    =   +4.57 kcal/mol  [=(1)+(2)+(3)-(4)]
USER    
USER    (1) Final Intermolecular Energy     =   -2.59 kcal/mol
USER        vdW + Hbond + desolv Energy     =   -2.63 kcal/mol
USER        Electrostatic Energy            =   +0.04 kcal/mol
USER    (2) Final Total Internal Energy     =  -13.89 kcal/mol
USER    (3) Torsional Free Energy           =   +7.16 kcal/mol
USER    (4) Unbound System's Energy  [=(2)] =  -13.89 kcal/mol
USER    
USER    
USER  
USER    DPF = D:/Protein_go_brrr/autodock/final/mut_N102T/IHP/dock.dpf
USER    NEWDPF move	IHP_ideal_opt.pdbqt
USER    NEWDPF about	0.035000 0.082000 -0.065000
USER    NEWDPF tran0	-12.643465 3.124624 -15.878060
USER    NEWDPF axisangle0	-0.703073 -0.173069 -0.689736 168.442938
USER    NEWDPF quaternion0	-0.699500 -0.172190 -0.686231 0.100683
USER    NEWDPF dihe0	176.81 166.13 138.44 1.73 14.17 -140.41 50.06 -72.82 7.52 22.30 9.30 -155.64 135.82 -178.86 -1.90 -102.00 -171.72 -2.61 5.07 2.07 154.44 -20.80 -31.18 163.00 
USER  
USER                              x       y       z    vdW   Elec        q     RMS 
ATOM      1  C   UNL d   1     -11.949   4.492 -15.083 -0.11 +0.01    +0.194    17.834
ATOM      2  C   UNL d   1     -12.397   4.724 -16.528 -0.09 +0.01    +0.194    17.834
ATOM      3  C   UNL d   1     -12.003   3.559 -17.437 -0.11 +0.01    +0.194    17.834
ATOM      4  C   UNL d   1     -12.452   2.201 -16.904 -0.06 +0.01    +0.194    17.834
ATOM      5  C   UNL d   1     -12.127   1.973 -15.434 -0.08 +0.00    +0.194    17.834
ATOM      6  C   UNL d   1     -12.465   3.162 -14.533 -0.06 +0.00    +0.194    17.834
ATOM      7  O   UNL d   1     -12.502   5.532 -14.273 -0.04 -0.00    -0.278    17.834
ATOM      8  P   UNL d   1     -11.499   6.523 -13.522 -0.08 -0.01    +0.473    17.834
ATOM      9  O   UNL d   1     -12.141   7.465 -12.564 -0.03 +0.00    -0.228    17.834
ATOM     10  O   UNL d   1     -10.439   5.551 -12.831 -0.16 +0.03    -0.303    17.834
ATOM     11  H   UNL d   1     -10.470   4.676 -13.261 +0.08 -0.01    +0.222    17.834
ATOM     12  O   UNL d   1     -10.635   7.190 -14.677 -0.13 -0.01    -0.303    17.834
ATOM     13  H   UNL d   1     -10.712   8.170 -14.699 +0.04 +0.00    +0.222    17.834
ATOM     14  O   UNL d   1     -13.823   4.864 -16.557 -0.02 -0.01    -0.278    17.834
ATOM     15  P   UNL d   1     -14.406   6.082 -17.418 -0.01 +0.01    +0.473    17.834
ATOM     16  O   UNL d   1     -15.289   7.052 -16.698 -0.01 -0.00    -0.228    17.834
ATOM     17  O   UNL d   1     -13.111   6.770 -18.041 -0.04 -0.01    -0.303    17.834
ATOM     18  H   UNL d   1     -12.479   6.101 -18.366 +0.03 +0.01    +0.222    17.834
ATOM     19  O   UNL d   1     -15.047   5.391 -18.700 -0.00 -0.00    -0.303    17.834
ATOM     20  H   UNL d   1     -14.391   4.864 -19.192 +0.01 +0.00    +0.222    17.834
ATOM     21  O   UNL d   1     -11.803   2.939 -13.290 -0.05 -0.00    -0.278    17.834
ATOM     22  P   UNL d   1     -10.241   2.616 -13.271 -0.22 +0.00    +0.473    17.834
ATOM     23  O   UNL d   1      -9.397   3.156 -14.376 -0.33 +0.02    -0.228    17.834
ATOM     24  O   UNL d   1      -9.825   3.103 -11.814 -0.21 -0.01    -0.303    17.834
ATOM     25  H   UNL d   1     -10.151   4.031 -11.695 +0.07 -0.01    +0.222    17.834
ATOM     26  O   UNL d   1     -10.241   1.022 -13.101 -0.14 -0.02    -0.303    17.834
ATOM     27  H   UNL d   1     -10.895   0.632 -13.715 +0.07 +0.01    +0.222    17.834
ATOM     28  O   UNL d   1     -12.690   3.726 -18.671 -0.04 -0.01    -0.278    17.834
ATOM     29  P   UNL d   1     -12.027   4.562 -19.854 -0.06 +0.02    +0.473    17.834
ATOM     30  O   UNL d   1     -12.873   5.639 -20.430 -0.03 -0.01    -0.228    17.834
ATOM     31  O   UNL d   1     -10.662   5.009 -19.149 -0.09 -0.04    -0.303    17.834
ATOM     32  H   UNL d   1      -9.935   4.429 -19.476 +0.05 +0.03    +0.222    17.834
ATOM     33  O   UNL d   1     -11.551   3.412 -20.848 -0.04 -0.01    -0.303    17.834
ATOM     34  H   UNL d   1     -11.587   2.544 -20.376 +0.04 +0.01    +0.222    17.834
ATOM     35  O   UNL d   1     -12.951   0.885 -15.019 -0.02 -0.01    -0.278    17.834
ATOM     36  P   UNL d   1     -12.351  -0.590 -14.930 -0.01 +0.02    +0.473    17.834
ATOM     37  O   UNL d   1     -13.116  -1.644 -15.665 -0.01 -0.01    -0.228    17.834
ATOM     38  O   UNL d   1     -10.865  -0.371 -15.460 -0.05 -0.02    -0.303    17.834
ATOM     39  H   UNL d   1     -10.899  -0.059 -16.391 +0.06 +0.01    +0.222    17.834
ATOM     40  O   UNL d   1     -12.172  -0.790 -13.362 -0.03 -0.02    -0.303    17.834
ATOM     41  H   UNL d   1     -12.161   0.069 -12.885 +0.04 +0.01    +0.222    17.834
ATOM     42  O   UNL d   1     -11.743   1.207 -17.651 -0.05 -0.01    -0.278    17.834
ATOM     43  P   UNL d   1     -10.155   1.313 -17.764 -0.20 +0.01    +0.473    17.834
ATOM     44  O   UNL d   1      -9.401   1.660 -16.527 -0.27 +0.01    -0.228    17.834
ATOM     45  O   UNL d   1      -9.755  -0.090 -18.398 -0.13 -0.00    -0.303    17.834
ATOM     46  H   UNL d   1      -9.979  -0.831 -17.799 +0.07 +0.00    +0.222    17.834
ATOM     47  O   UNL d   1      -9.942   2.305 -19.005 -0.23 -0.02    -0.303    17.834
ATOM     48  H   UNL d   1     -10.743   2.856 -19.119 +0.06 +0.02    +0.222    17.834
TER
ENDMDL
MODEL       78
USER    Run = 78
USER    Cluster Rank = 82
USER    Number of conformations in this cluster = 1
USER  
USER    RMSD from reference structure       = 18.597 A
USER  
USER    Estimated Free Energy of Binding    =   +4.71 kcal/mol  [=(1)+(2)+(3)-(4)]
USER    
USER    (1) Final Intermolecular Energy     =   -2.45 kcal/mol
USER        vdW + Hbond + desolv Energy     =   -2.50 kcal/mol
USER        Electrostatic Energy            =   +0.05 kcal/mol
USER    (2) Final Total Internal Energy     =  -15.14 kcal/mol
USER    (3) Torsional Free Energy           =   +7.16 kcal/mol
USER    (4) Unbound System's Energy  [=(2)] =  -15.14 kcal/mol
USER    
USER    
USER  
USER    DPF = D:/Protein_go_brrr/autodock/final/mut_N102T/IHP/dock.dpf
USER    NEWDPF move	IHP_ideal_opt.pdbqt
USER    NEWDPF about	0.035000 0.082000 -0.065000
USER    NEWDPF tran0	-10.946638 0.970986 -17.517126
USER    NEWDPF axisangle0	-0.923427 -0.275041 0.267646 172.654559
USER    NEWDPF quaternion0	-0.921531 -0.274476 0.267096 0.064057
USER    NEWDPF dihe0	174.18 124.24 55.17 151.55 0.28 -134.82 -100.36 9.97 130.67 -43.73 111.08 -117.92 -56.26 -29.11 -55.40 51.05 173.69 94.01 32.25 2.99 -179.87 157.70 17.24 -38.77 
USER  
USER                              x       y       z    vdW   Elec        q     RMS 
ATOM      1  C   UNL d   1     -10.902   2.100 -18.824 -0.17 +0.01    +0.194    18.597
ATOM      2  C   UNL d   1     -12.050   2.285 -17.830 -0.08 +0.01    +0.194    18.597
ATOM      3  C   UNL d   1     -12.686   0.948 -17.443 -0.03 +0.00    +0.194    18.597
ATOM      4  C   UNL d   1     -11.669  -0.086 -16.965 -0.06 +0.01    +0.194    18.597
ATOM      5  C   UNL d   1     -10.450  -0.221 -17.869 -0.12 +0.00    +0.194    18.597
ATOM      6  C   UNL d   1      -9.851   1.117 -18.306 -0.25 +0.01    +0.194    18.597
ATOM      7  O   UNL d   1     -10.256   3.362 -19.000 -0.22 -0.03    -0.278    18.597
ATOM      8  P   UNL d   1     -10.779   4.329 -20.159 -0.13 +0.04    +0.473    18.597
ATOM      9  O   UNL d   1     -11.845   3.755 -21.025 -0.04 -0.01    -0.228    18.597
ATOM     10  O   UNL d   1     -11.240   5.646 -19.385 -0.11 -0.03    -0.303    18.597
ATOM     11  H   UNL d   1     -10.863   5.646 -18.486 +0.06 +0.04    +0.222    18.597
ATOM     12  O   UNL d   1      -9.468   4.825 -20.907 -0.17 -0.04    -0.303    18.597
ATOM     13  H   UNL d   1      -9.107   4.159 -21.535 +0.05 +0.03    +0.222    18.597
ATOM     14  O   UNL d   1     -11.543   2.910 -16.644 -0.11 -0.01    -0.278    18.597
ATOM     15  P   UNL d   1     -12.408   4.118 -16.046 -0.06 +0.02    +0.473    18.597
ATOM     16  O   UNL d   1     -13.874   4.108 -16.347 -0.02 -0.00    -0.228    18.597
ATOM     17  O   UNL d   1     -12.098   4.081 -14.484 -0.05 -0.01    -0.303    18.597
ATOM     18  H   UNL d   1     -12.068   3.162 -14.153 +0.05 +0.00    +0.222    18.597
ATOM     19  O   UNL d   1     -11.625   5.427 -16.496 -0.03 -0.03    -0.303    18.597
ATOM     20  H   UNL d   1     -11.954   5.769 -17.348 +0.03 +0.02    +0.222    18.597
ATOM     21  O   UNL d   1      -8.968   0.839 -19.389 -0.20 -0.02    -0.278    18.597
ATOM     22  P   UNL d   1      -9.561   0.570 -20.846 -0.08 +0.01    +0.473    18.597
ATOM     23  O   UNL d   1     -10.957   0.056 -20.954 -0.03 -0.00    -0.228    18.597
ATOM     24  O   UNL d   1      -9.307   1.967 -21.564 -0.08 -0.02    -0.303    18.597
ATOM     25  H   UNL d   1      -9.869   2.651 -21.117 +0.04 +0.02    +0.222    18.597
ATOM     26  O   UNL d   1      -8.420  -0.349 -21.497 -0.08 -0.00    -0.303    18.597
ATOM     27  H   UNL d   1      -8.219  -1.091 -20.890 +0.05 -0.01    +0.222    18.597
ATOM     28  O   UNL d   1     -13.536   1.185 -16.328 -0.01 -0.01    -0.278    18.597
ATOM     29  P   UNL d   1     -12.978   1.028 -14.844 -0.01 +0.01    +0.473    18.597
ATOM     30  O   UNL d   1     -11.512   1.208 -14.688 -0.09 -0.01    -0.228    18.597
ATOM     31  O   UNL d   1     -13.923   2.069 -14.079 -0.00 -0.01    -0.303    18.597
ATOM     32  H   UNL d   1     -13.927   2.917 -14.581 +0.02 +0.00    +0.222    18.597
ATOM     33  O   UNL d   1     -13.581  -0.380 -14.408 -0.01 -0.01    -0.303    18.597
ATOM     34  H   UNL d   1     -13.137  -1.094 -14.928 +0.01 +0.01    +0.222    18.597
ATOM     35  O   UNL d   1      -9.461  -0.888 -17.087 -0.06 -0.00    -0.278    18.597
ATOM     36  P   UNL d   1      -8.411  -1.866 -17.783 -0.14 -0.07    +0.473    18.597
ATOM     37  O   UNL d   1      -8.062  -3.096 -17.007 -0.23 +0.09    -0.228    18.597
ATOM     38  O   UNL d   1      -9.111  -2.153 -19.184 -0.05 +0.03    -0.303    18.597
ATOM     39  H   UNL d   1      -9.220  -1.306 -19.668 +0.05 -0.01    +0.222    18.597
ATOM     40  O   UNL d   1      -7.217  -0.880 -18.147 -0.24 +0.04    -0.303    18.597
ATOM     41  H   UNL d   1      -7.364  -0.433 -19.010 +0.09 +0.01    +0.222    18.597
ATOM     42  O   UNL d   1     -12.335  -1.353 -16.964 -0.01 -0.01    -0.278    18.597
ATOM     43  P   UNL d   1     -11.886  -2.459 -15.906 -0.01 +0.03    +0.473    18.597
ATOM     44  O   UNL d   1     -12.958  -3.268 -15.261 -0.01 -0.02    -0.228    18.597
ATOM     45  O   UNL d   1     -10.828  -3.318 -16.728 -0.03 -0.03    -0.303    18.597
ATOM     46  H   UNL d   1     -10.278  -2.752 -17.306 +0.05 +0.01    +0.222    18.597
ATOM     47  O   UNL d   1     -10.936  -1.645 -14.904 -0.06 -0.03    -0.303    18.597
ATOM     48  H   UNL d   1     -11.453  -0.928 -14.481 +0.05 +0.02    +0.222    18.597
TER
ENDMDL
MODEL       76
USER    Run = 76
USER    Cluster Rank = 83
USER    Number of conformations in this cluster = 1
USER  
USER    RMSD from reference structure       = 14.045 A
USER  
USER    Estimated Free Energy of Binding    =   +4.79 kcal/mol  [=(1)+(2)+(3)-(4)]
USER    
USER    (1) Final Intermolecular Energy     =   -2.37 kcal/mol
USER        vdW + Hbond + desolv Energy     =   -2.31 kcal/mol
USER        Electrostatic Energy            =   -0.06 kcal/mol
USER    (2) Final Total Internal Energy     =  -14.30 kcal/mol
USER    (3) Torsional Free Energy           =   +7.16 kcal/mol
USER    (4) Unbound System's Energy  [=(2)] =  -14.30 kcal/mol
USER    
USER    
USER  
USER    DPF = D:/Protein_go_brrr/autodock/final/mut_N102T/IHP/dock.dpf
USER    NEWDPF move	IHP_ideal_opt.pdbqt
USER    NEWDPF about	0.035000 0.082000 -0.065000
USER    NEWDPF tran0	-6.639257 16.546296 3.589497
USER    NEWDPF axisangle0	-0.330513 0.713347 -0.617979 -177.523032
USER    NEWDPF quaternion0	-0.330436 0.713180 -0.617834 -0.021614
USER    NEWDPF dihe0	71.26 66.21 154.54 19.98 24.72 -125.48 -142.02 23.57 126.54 -51.77 51.34 -176.07 162.13 -174.65 -57.75 12.90 169.60 3.67 39.35 -3.71 173.93 -22.00 20.01 162.36 
USER  
USER                              x       y       z    vdW   Elec        q     RMS 
ATOM      1  C   UNL d   1      -6.875  15.220   4.671 -0.09 -0.00    +0.194    14.045
ATOM      2  C   UNL d   1      -5.706  16.147   5.007 -0.08 -0.00    +0.194    14.045
ATOM      3  C   UNL d   1      -4.907  16.527   3.758 -0.05 +0.01    +0.194    14.045
ATOM      4  C   UNL d   1      -5.777  17.080   2.633 -0.01 +0.01    +0.194    14.045
ATOM      5  C   UNL d   1      -7.019  16.247   2.341 -0.01 +0.01    +0.194    14.045
ATOM      6  C   UNL d   1      -7.783  15.816   3.594 -0.02 +0.00    +0.194    14.045
ATOM      7  O   UNL d   1      -7.666  15.054   5.851 -0.06 +0.01    -0.278    14.045
ATOM      8  P   UNL d   1      -7.210  13.961   6.922 -0.18 -0.06    +0.473    14.045
ATOM      9  O   UNL d   1      -8.321  13.279   7.640 -0.18 +0.04    -0.228    14.045
ATOM     10  O   UNL d   1      -6.293  12.958   6.086 -0.26 +0.03    -0.303    14.045
ATOM     11  H   UNL d   1      -6.852  12.277   5.667 +0.09 -0.00    +0.222    14.045
ATOM     12  O   UNL d   1      -6.143  14.700   7.839 -0.15 +0.03    -0.303    14.045
ATOM     13  H   UNL d   1      -6.218  15.680   7.804 +0.06 -0.01    +0.222    14.045
ATOM     14  O   UNL d   1      -6.216  17.346   5.604 -0.03 +0.01    -0.278    14.045
ATOM     15  P   UNL d   1      -5.569  17.780   7.004 -0.06 -0.02    +0.473    14.045
ATOM     16  O   UNL d   1      -6.496  17.857   8.177 -0.05 +0.01    -0.228    14.045
ATOM     17  O   UNL d   1      -4.383  16.740   7.221 -0.07 +0.00    -0.303    14.045
ATOM     18  H   UNL d   1      -3.741  16.779   6.486 +0.05 -0.00    +0.222    14.045
ATOM     19  O   UNL d   1      -4.768  19.114   6.674 -0.05 +0.03    -0.303    14.045
ATOM     20  H   UNL d   1      -4.315  19.058   5.812 +0.03 -0.02    +0.222    14.045
ATOM     21  O   UNL d   1      -8.686  14.787   3.193 -0.02 -0.00    -0.278    14.045
ATOM     22  P   UNL d   1      -8.122  13.345   2.808 -0.06 +0.01    +0.473    14.045
ATOM     23  O   UNL d   1      -6.732  13.251   2.275 -0.09 -0.02    -0.228    14.045
ATOM     24  O   UNL d   1      -8.380  12.526   4.148 -0.14 -0.00    -0.303    14.045
ATOM     25  H   UNL d   1      -8.146  13.109   4.915 +0.05 -0.01    +0.222    14.045
ATOM     26  O   UNL d   1      -9.281  12.787   1.851 -0.04 -0.00    -0.303    14.045
ATOM     27  H   UNL d   1      -9.372  13.380   1.077 +0.02 +0.00    +0.222    14.045
ATOM     28  O   UNL d   1      -4.032  17.589   4.116 -0.03 +0.00    -0.278    14.045
ATOM     29  P   UNL d   1      -2.580  17.276   4.691 -0.06 -0.02    +0.473    14.045
ATOM     30  O   UNL d   1      -2.342  15.868   5.100 -0.20 -0.00    -0.228    14.045
ATOM     31  O   UNL d   1      -1.678  17.849   3.500 -0.02 +0.02    -0.303    14.045
ATOM     32  H   UNL d   1      -1.512  17.123   2.855 +0.05 +0.01    +0.222    14.045
ATOM     33  O   UNL d   1      -2.421  18.389   5.819 -0.10 +0.04    -0.303    14.045
ATOM     34  H   UNL d   1      -2.869  18.077   6.643 +0.05 -0.02    +0.222    14.045
ATOM     35  O   UNL d   1      -7.886  17.095   1.591 +0.00 -0.00    -0.278    14.045
ATOM     36  P   UNL d   1      -8.904  16.470   0.533 +0.00 +0.01    +0.473    14.045
ATOM     37  O   UNL d   1      -9.162  17.303  -0.682 +0.00 -0.00    -0.228    14.045
ATOM     38  O   UNL d   1      -8.232  15.059   0.228 -0.00 -0.02    -0.303    14.045
ATOM     39  H   UNL d   1      -8.122  14.567   1.070 +0.01 +0.01    +0.222    14.045
ATOM     40  O   UNL d   1     -10.159  16.109   1.441 -0.00 +0.00    -0.303    14.045
ATOM     41  H   UNL d   1     -10.123  15.179   1.758 +0.01 -0.00    +0.222    14.045
ATOM     42  O   UNL d   1      -4.976  17.072   1.447 -0.01 -0.03    -0.278    14.045
ATOM     43  P   UNL d   1      -4.223  15.727   1.035 -0.04 +0.18    +0.473    14.045
ATOM     44  O   UNL d   1      -5.023  14.471   1.011 -0.08 -0.09    -0.228    14.045
ATOM     45  O   UNL d   1      -3.569  16.108  -0.365 -0.50 -0.20    -0.303    14.045
ATOM     46  H   UNL d   1      -4.030  16.864  -0.782 +0.02 +0.08    +0.222    14.045
ATOM     47  O   UNL d   1      -2.943  15.714   1.999 -0.08 -0.10    -0.303    14.045
ATOM     48  H   UNL d   1      -2.984  16.486   2.601 +0.05 +0.03    +0.222    14.045
TER
ENDMDL
MODEL       50
USER    Run = 50
USER    Cluster Rank = 84
USER    Number of conformations in this cluster = 1
USER  
USER    RMSD from reference structure       = 17.018 A
USER  
USER    Estimated Free Energy of Binding    =   +4.84 kcal/mol  [=(1)+(2)+(3)-(4)]
USER    
USER    (1) Final Intermolecular Energy     =   -2.32 kcal/mol
USER        vdW + Hbond + desolv Energy     =   -2.02 kcal/mol
USER        Electrostatic Energy            =   -0.30 kcal/mol
USER    (2) Final Total Internal Energy     =  -16.20 kcal/mol
USER    (3) Torsional Free Energy           =   +7.16 kcal/mol
USER    (4) Unbound System's Energy  [=(2)] =  -16.20 kcal/mol
USER    
USER    
USER  
USER    DPF = D:/Protein_go_brrr/autodock/final/mut_N102T/IHP/dock.dpf
USER    NEWDPF move	IHP_ideal_opt.pdbqt
USER    NEWDPF about	0.035000 0.082000 -0.065000
USER    NEWDPF tran0	12.776259 -11.101847 12.701869
USER    NEWDPF axisangle0	0.766256 -0.275302 0.580569 113.800984
USER    NEWDPF quaternion0	0.641910 -0.230627 0.486356 0.546095
USER    NEWDPF dihe0	-144.71 -44.13 179.95 -0.22 -5.39 -145.93 -1.31 -107.88 14.47 82.97 105.16 133.72 73.96 177.38 -58.94 -77.32 -48.88 -140.31 -30.69 17.00 0.75 21.22 166.62 -11.27 
USER  
USER                              x       y       z    vdW   Elec        q     RMS 
ATOM      1  C   UNL d   1      13.788 -11.497  14.045 -0.01 +0.07    +0.194    17.018
ATOM      2  C   UNL d   1      12.750 -10.402  14.299 -0.03 +0.08    +0.194    17.018
ATOM      3  C   UNL d   1      12.668  -9.418  13.130 -0.02 +0.07    +0.194    17.018
ATOM      4  C   UNL d   1      12.467 -10.103  11.780 -0.03 +0.07    +0.194    17.018
ATOM      5  C   UNL d   1      13.406 -11.277  11.534 -0.01 +0.05    +0.194    17.018
ATOM      6  C   UNL d   1      13.535 -12.227  12.726 -0.01 +0.07    +0.194    17.018
ATOM      7  O   UNL d   1      13.681 -12.464  15.094 -0.01 -0.11    -0.278    17.018
ATOM      8  P   UNL d   1      14.975 -13.321  15.470 +0.01 +0.10    +0.473    17.018
ATOM      9  O   UNL d   1      15.369 -13.273  16.905 +0.00 -0.03    -0.228    17.018
ATOM     10  O   UNL d   1      14.625 -14.793  14.964 +0.00 -0.07    -0.303    17.018
ATOM     11  H   UNL d   1      14.422 -14.771  14.010 +0.00 +0.05    +0.222    17.018
ATOM     12  O   UNL d   1      16.088 -12.868  14.430 +0.00 -0.04    -0.303    17.018
ATOM     13  H   UNL d   1      16.084 -13.403  13.604 +0.00 +0.03    +0.222    17.018
ATOM     14  O   UNL d   1      11.464 -11.009  14.476 -0.11 -0.26    -0.278    17.018
ATOM     15  P   UNL d   1      10.449 -10.259  15.461 -0.09 +0.41    +0.473    17.018
ATOM     16  O   UNL d   1       9.848 -11.079  16.559 -0.56 -0.29    -0.228    17.018
ATOM     17  O   UNL d   1      11.283  -9.016  16.006 -0.02 -0.11    -0.303    17.018
ATOM     18  H   UNL d   1      11.241  -8.264  15.383 +0.03 +0.07    +0.222    17.018
ATOM     19  O   UNL d   1       9.409  -9.545  14.491 -0.16 -0.20    -0.303    17.018
ATOM     20  H   UNL d   1       9.849  -8.912  13.894 +0.05 +0.10    +0.222    17.018
ATOM     21  O   UNL d   1      14.674 -13.048  12.477 +0.00 -0.06    -0.278    17.018
ATOM     22  P   UNL d   1      14.476 -14.539  11.945 +0.01 +0.08    +0.473    17.018
ATOM     23  O   UNL d   1      13.225 -15.259  12.319 -0.00 -0.06    -0.228    17.018
ATOM     24  O   UNL d   1      14.700 -14.359  10.380 +0.00 -0.03    -0.303    17.018
ATOM     25  H   UNL d   1      13.917 -13.877  10.010 +0.01 +0.03    +0.222    17.018
ATOM     26  O   UNL d   1      15.849 -15.231  12.398 +0.00 -0.03    -0.303    17.018
ATOM     27  H   UNL d   1      16.092 -14.910  13.290 +0.00 +0.02    +0.222    17.018
ATOM     28  O   UNL d   1      11.509  -8.618  13.324 -0.04 -0.10    -0.278    17.018
ATOM     29  P   UNL d   1      11.594  -7.033  13.190 -0.01 +0.16    +0.473    17.018
ATOM     30  O   UNL d   1      11.604  -6.282  14.472 -0.01 -0.06    -0.228    17.018
ATOM     31  O   UNL d   1      12.889  -6.900  12.260 -0.00 -0.12    -0.303    17.018
ATOM     32  H   UNL d   1      12.779  -7.495  11.482 +0.02 +0.10    +0.222    17.018
ATOM     33  O   UNL d   1      10.402  -6.719  12.182 -0.07 -0.14    -0.303    17.018
ATOM     34  H   UNL d   1      10.471  -7.326  11.404 +0.04 +0.12    +0.222    17.018
ATOM     35  O   UNL d   1      12.823 -12.020  10.465 -0.01 -0.07    -0.278    17.018
ATOM     36  P   UNL d   1      11.392 -12.700  10.644 -0.05 +0.16    +0.473    17.018
ATOM     37  O   UNL d   1      10.790 -12.586  12.009 -0.41 -0.21    -0.228    17.018
ATOM     38  O   UNL d   1      10.547 -11.990   9.496 -0.11 -0.07    -0.303    17.018
ATOM     39  H   UNL d   1      10.598 -11.017   9.614 +0.06 +0.06    +0.222    17.018
ATOM     40  O   UNL d   1      11.640 -14.168  10.085 -0.03 -0.06    -0.303    17.018
ATOM     41  H   UNL d   1      12.507 -14.527  10.378 +0.02 +0.04    +0.222    17.018
ATOM     42  O   UNL d   1      12.743  -9.124  10.773 -0.02 -0.10    -0.278    17.018
ATOM     43  P   UNL d   1      11.611  -8.776   9.704 -0.06 +0.23    +0.473    17.018
ATOM     44  O   UNL d   1      11.649  -9.503   8.404 -0.07 -0.08    -0.228    17.018
ATOM     45  O   UNL d   1      10.270  -8.993  10.533 +0.03 -0.13    -0.303    17.018
ATOM     46  H   UNL d   1      10.394  -8.774  11.478 +0.05 +0.09    +0.222    17.018
ATOM     47  O   UNL d   1      11.679  -7.178   9.605 -0.47 -0.34    -0.303    17.018
ATOM     48  H   UNL d   1      11.698  -6.799  10.508 +0.03 +0.21    +0.222    17.018
TER
ENDMDL
MODEL       65
USER    Run = 65
USER    Cluster Rank = 85
USER    Number of conformations in this cluster = 1
USER  
USER    RMSD from reference structure       = 22.477 A
USER  
USER    Estimated Free Energy of Binding    =   +4.90 kcal/mol  [=(1)+(2)+(3)-(4)]
USER    
USER    (1) Final Intermolecular Energy     =   -2.26 kcal/mol
USER        vdW + Hbond + desolv Energy     =   -1.79 kcal/mol
USER        Electrostatic Energy            =   -0.47 kcal/mol
USER    (2) Final Total Internal Energy     =  -14.12 kcal/mol
USER    (3) Torsional Free Energy           =   +7.16 kcal/mol
USER    (4) Unbound System's Energy  [=(2)] =  -14.12 kcal/mol
USER    
USER    
USER  
USER    DPF = D:/Protein_go_brrr/autodock/final/mut_N102T/IHP/dock.dpf
USER    NEWDPF move	IHP_ideal_opt.pdbqt
USER    NEWDPF about	0.035000 0.082000 -0.065000
USER    NEWDPF tran0	4.449318 -22.330947 -12.810017
USER    NEWDPF axisangle0	-0.332705 -0.829314 0.448939 -135.394690
USER    NEWDPF quaternion0	-0.307816 -0.767274 0.415355 -0.379499
USER    NEWDPF dihe0	180.00 -4.72 98.66 40.37 175.38 65.37 -104.64 5.58 172.77 -14.05 25.57 168.94 47.33 127.82 -160.37 -175.33 -122.80 168.93 -1.24 -9.25 -39.94 14.49 154.88 -10.78 
USER  
USER                              x       y       z    vdW   Elec        q     RMS 
ATOM      1  C   UNL d   1       2.992 -22.077 -11.917 -0.01 -0.02    +0.194    22.477
ATOM      2  C   UNL d   1       3.827 -23.285 -11.489 -0.00 -0.01    +0.194    22.477
ATOM      3  C   UNL d   1       4.354 -24.065 -12.696 +0.00 -0.01    +0.194    22.477
ATOM      4  C   UNL d   1       5.086 -23.187 -13.707 +0.00 -0.02    +0.194    22.477
ATOM      5  C   UNL d   1       4.340 -21.911 -14.076 -0.00 -0.02    +0.194    22.477
ATOM      6  C   UNL d   1       3.760 -21.163 -12.874 -0.02 -0.04    +0.194    22.477
ATOM      7  O   UNL d   1       2.686 -21.310 -10.750 -0.03 +0.03    -0.278    22.477
ATOM      8  P   UNL d   1       1.152 -21.013 -10.419 -0.04 -0.02    +0.473    22.477
ATOM      9  O   UNL d   1       0.542 -21.908  -9.397 -0.04 -0.01    -0.228    22.477
ATOM     10  O   UNL d   1       1.139 -19.475  -9.994 -0.10 +0.04    -0.303    22.477
ATOM     11  H   UNL d   1       1.924 -19.028 -10.363 -0.02 -0.07    +0.222    22.477
ATOM     12  O   UNL d   1       0.424 -20.974 -11.830 -0.05 +0.00    -0.303    22.477
ATOM     13  H   UNL d   1       0.877 -20.393 -12.482 +0.04 -0.01    +0.222    22.477
ATOM     14  O   UNL d   1       4.945 -22.830 -10.716 -0.00 +0.03    -0.278    22.477
ATOM     15  P   UNL d   1       5.080 -23.424  -9.236 +0.01 -0.03    +0.473    22.477
ATOM     16  O   UNL d   1       6.202 -22.894  -8.399 -0.01 +0.01    -0.228    22.477
ATOM     17  O   UNL d   1       3.649 -23.169  -8.583 -0.00 +0.01    -0.303    22.477
ATOM     18  H   UNL d   1       3.035 -22.769  -9.228 +0.02 -0.01    +0.222    22.477
ATOM     19  O   UNL d   1       5.062 -25.002  -9.438 +0.00 +0.01    -0.303    22.477
ATOM     20  H   UNL d   1       4.682 -25.250 -10.301 +0.00 -0.01    +0.222    22.477
ATOM     21  O   UNL d   1       2.825 -20.217 -13.389 -0.04 +0.06    -0.278    22.477
ATOM     22  P   UNL d   1       2.707 -18.775 -12.717 -0.07 -0.20    +0.473    22.477
ATOM     23  O   UNL d   1       1.349 -18.278 -12.350 -0.23 +0.04    -0.228    22.477
ATOM     24  O   UNL d   1       3.725 -18.899 -11.500 -0.12 +0.26    -0.303    22.477
ATOM     25  H   UNL d   1       4.514 -18.334 -11.700 -0.43 -0.47    +0.222    22.477
ATOM     26  O   UNL d   1       3.533 -17.867 -13.748 -0.08 +0.22    -0.303    22.477
ATOM     27  H   UNL d   1       4.377 -17.597 -13.334 -0.49 -0.41    +0.222    22.477
ATOM     28  O   UNL d   1       5.329 -24.984 -12.218 +0.00 +0.01    -0.278    22.477
ATOM     29  P   UNL d   1       5.192 -26.539 -12.536 +0.00 -0.01    +0.473    22.477
ATOM     30  O   UNL d   1       6.449 -27.325 -12.441 +0.00 +0.00    -0.228    22.477
ATOM     31  O   UNL d   1       4.015 -26.928 -11.525 +0.00 +0.00    -0.303    22.477
ATOM     32  H   UNL d   1       4.263 -26.624 -10.622 +0.00 -0.00    +0.222    22.477
ATOM     33  O   UNL d   1       4.455 -26.528 -13.947 +0.00 +0.01    -0.303    22.477
ATOM     34  H   UNL d   1       5.051 -26.112 -14.618 +0.00 -0.01    +0.222    22.477
ATOM     35  O   UNL d   1       5.310 -21.055 -14.675 -0.00 +0.05    -0.278    22.477
ATOM     36  P   UNL d   1       6.399 -20.318 -13.773 -0.01 -0.14    +0.473    22.477
ATOM     37  O   UNL d   1       5.917 -19.106 -13.040 -0.04 +0.20    -0.228    22.477
ATOM     38  O   UNL d   1       6.894 -21.500 -12.828 -0.00 +0.06    -0.303    22.477
ATOM     39  H   UNL d   1       7.765 -21.823 -13.146 +0.00 -0.03    +0.222    22.477
ATOM     40  O   UNL d   1       7.603 -20.113 -14.792 -0.00 +0.06    -0.303    22.477
ATOM     41  H   UNL d   1       7.889 -20.964 -15.194 +0.00 -0.03    +0.222    22.477
ATOM     42  O   UNL d   1       5.220 -23.958 -14.906 +0.00 +0.01    -0.278    22.477
ATOM     43  P   UNL d   1       6.680 -24.231 -15.489 +0.00 -0.02    +0.473    22.477
ATOM     44  O   UNL d   1       6.829 -24.286 -16.970 +0.00 +0.01    -0.228    22.477
ATOM     45  O   UNL d   1       7.552 -23.099 -14.789 +0.00 +0.02    -0.303    22.477
ATOM     46  H   UNL d   1       7.120 -22.223 -14.852 +0.00 -0.02    +0.222    22.477
ATOM     47  O   UNL d   1       7.152 -25.542 -14.696 +0.00 +0.01    -0.303    22.477
ATOM     48  H   UNL d   1       6.535 -25.709 -13.954 +0.00 -0.01    +0.222    22.477
TER
ENDMDL
MODEL       46
USER    Run = 46
USER    Cluster Rank = 86
USER    Number of conformations in this cluster = 1
USER  
USER    RMSD from reference structure       = 14.618 A
USER  
USER    Estimated Free Energy of Binding    =   +4.93 kcal/mol  [=(1)+(2)+(3)-(4)]
USER    
USER    (1) Final Intermolecular Energy     =   -2.23 kcal/mol
USER        vdW + Hbond + desolv Energy     =   -2.16 kcal/mol
USER        Electrostatic Energy            =   -0.07 kcal/mol
USER    (2) Final Total Internal Energy     =  -15.56 kcal/mol
USER    (3) Torsional Free Energy           =   +7.16 kcal/mol
USER    (4) Unbound System's Energy  [=(2)] =  -15.56 kcal/mol
USER    
USER    
USER  
USER    DPF = D:/Protein_go_brrr/autodock/final/mut_N102T/IHP/dock.dpf
USER    NEWDPF move	IHP_ideal_opt.pdbqt
USER    NEWDPF about	0.035000 0.082000 -0.065000
USER    NEWDPF tran0	-12.635390 8.260067 -8.977984
USER    NEWDPF axisangle0	0.938025 -0.311343 0.152230 -66.887693
USER    NEWDPF quaternion0	0.516964 -0.171587 0.083897 -0.834426
USER    NEWDPF dihe0	-170.87 7.81 121.01 -2.28 111.10 76.66 6.95 -97.95 14.38 55.19 35.68 142.21 36.85 38.07 -180.00 105.54 -58.50 -177.90 -134.85 -25.44 16.05 -31.38 -174.81 14.62 
USER  
USER                              x       y       z    vdW   Elec        q     RMS 
ATOM      1  C   UNL d   1     -11.350   7.107  -8.929 -0.05 +0.01    +0.194    14.618
ATOM      2  C   UNL d   1     -12.178   7.120 -10.216 -0.04 +0.00    +0.194    14.618
ATOM      3  C   UNL d   1     -13.676   7.234  -9.924 -0.00 +0.00    +0.194    14.618
ATOM      4  C   UNL d   1     -14.022   8.401  -9.003 +0.00 -0.00    +0.194    14.618
ATOM      5  C   UNL d   1     -13.143   8.494  -7.762 +0.00 +0.00    +0.194    14.618
ATOM      6  C   UNL d   1     -11.650   8.319  -8.046 -0.01 +0.00    +0.194    14.618
ATOM      7  O   UNL d   1      -9.968   7.174  -9.288 -0.56 -0.06    -0.278    14.618
ATOM      8  P   UNL d   1      -9.210   8.571  -9.134 -0.06 +0.00    +0.473    14.618
ATOM      9  O   UNL d   1      -8.597   8.813  -7.799 -0.09 +0.00    -0.228    14.618
ATOM     10  O   UNL d   1      -8.145   8.567 -10.322 -0.18 +0.05    -0.303    14.618
ATOM     11  H   UNL d   1      -8.501   8.063 -11.078 -0.49 -0.08    +0.222    14.618
ATOM     12  O   UNL d   1     -10.253   9.663  -9.626 -0.02 +0.01    -0.303    14.618
ATOM     13  H   UNL d   1     -10.795   9.362 -10.390 +0.02 -0.01    +0.222    14.618
ATOM     14  O   UNL d   1     -11.782   8.241 -11.015 -0.02 +0.00    -0.278    14.618
ATOM     15  P   UNL d   1     -10.899   7.920 -12.312 -0.07 -0.03    +0.473    14.618
ATOM     16  O   UNL d   1     -11.638   7.741 -13.601 -0.05 +0.00    -0.228    14.618
ATOM     17  O   UNL d   1      -9.842   9.111 -12.366 -0.06 +0.03    -0.303    14.618
ATOM     18  H   UNL d   1      -9.695   9.491 -11.479 +0.03 -0.02    +0.222    14.618
ATOM     19  O   UNL d   1      -9.980   6.698 -11.873 -0.01 +0.06    -0.303    14.618
ATOM     20  H   UNL d   1      -9.391   6.937 -11.133 -0.45 -0.05    +0.222    14.618
ATOM     21  O   UNL d   1     -11.016   8.088  -6.790 -0.01 -0.00    -0.278    14.618
ATOM     22  P   UNL d   1     -10.554   9.326  -5.897 -0.01 -0.00    +0.473    14.618
ATOM     23  O   UNL d   1      -9.366   9.152  -5.011 -0.05 +0.00    -0.228    14.618
ATOM     24  O   UNL d   1     -10.410  10.478  -6.986 -0.00 +0.00    -0.303    14.618
ATOM     25  H   UNL d   1     -11.204  10.442  -7.578 +0.01 -0.00    +0.222    14.618
ATOM     26  O   UNL d   1     -11.922   9.730  -5.166 -0.00 +0.00    -0.303    14.618
ATOM     27  H   UNL d   1     -12.340  10.471  -5.652 +0.00 -0.00    +0.222    14.618
ATOM     28  O   UNL d   1     -14.331   7.516 -11.154 +0.00 +0.00    -0.278    14.618
ATOM     29  P   UNL d   1     -14.621   6.349 -12.198 +0.01 +0.00    +0.473    14.618
ATOM     30  O   UNL d   1     -15.801   5.498 -11.896 +0.00 -0.00    -0.228    14.618
ATOM     31  O   UNL d   1     -14.662   7.193 -13.556 -0.00 -0.00    -0.303    14.618
ATOM     32  H   UNL d   1     -13.799   7.655 -13.665 +0.01 +0.00    +0.222    14.618
ATOM     33  O   UNL d   1     -13.209   5.617 -12.281 -0.01 +0.00    -0.303    14.618
ATOM     34  H   UNL d   1     -12.493   6.298 -12.258 +0.03 -0.00    +0.222    14.618
ATOM     35  O   UNL d   1     -13.322   9.817  -7.259 +0.00 +0.00    -0.278    14.618
ATOM     36  P   UNL d   1     -13.318  11.063  -8.255 +0.00 -0.00    +0.473    14.618
ATOM     37  O   UNL d   1     -12.797  10.789  -9.630 +0.00 +0.00    -0.228    14.618
ATOM     38  O   UNL d   1     -14.842  11.521  -8.211 +0.00 +0.00    -0.303    14.618
ATOM     39  H   UNL d   1     -15.413  10.760  -8.453 +0.00 -0.00    +0.222    14.618
ATOM     40  O   UNL d   1     -12.560  12.174  -7.405 +0.00 +0.00    -0.303    14.618
ATOM     41  H   UNL d   1     -12.110  11.788  -6.621 +0.00 -0.00    +0.222    14.618
ATOM     42  O   UNL d   1     -15.365   8.190  -8.553 +0.00 +0.00    -0.278    14.618
ATOM     43  P   UNL d   1     -16.558   8.926  -9.314 +0.00 -0.00    +0.473    14.618
ATOM     44  O   UNL d   1     -17.572   9.631  -8.482 +0.00 +0.00    -0.228    14.618
ATOM     45  O   UNL d   1     -15.788   9.869 -10.340 +0.00 +0.00    -0.303    14.618
ATOM     46  H   UNL d   1     -14.974  10.239  -9.944 +0.00 -0.00    +0.222    14.618
ATOM     47  O   UNL d   1     -17.131   7.787 -10.285 +0.00 +0.00    -0.303    14.618
ATOM     48  H   UNL d   1     -16.385   7.264 -10.645 +0.00 -0.00    +0.222    14.618
TER
ENDMDL
MODEL       18
USER    Run = 18
USER    Cluster Rank = 87
USER    Number of conformations in this cluster = 1
USER  
USER    RMSD from reference structure       = 23.243 A
USER  
USER    Estimated Free Energy of Binding    =   +5.02 kcal/mol  [=(1)+(2)+(3)-(4)]
USER    
USER    (1) Final Intermolecular Energy     =   -2.14 kcal/mol
USER        vdW + Hbond + desolv Energy     =   -2.06 kcal/mol
USER        Electrostatic Energy            =   -0.07 kcal/mol
USER    (2) Final Total Internal Energy     =  -14.76 kcal/mol
USER    (3) Torsional Free Energy           =   +7.16 kcal/mol
USER    (4) Unbound System's Energy  [=(2)] =  -14.76 kcal/mol
USER    
USER    
USER  
USER    DPF = D:/Protein_go_brrr/autodock/final/mut_N102T/IHP/dock.dpf
USER    NEWDPF move	IHP_ideal_opt.pdbqt
USER    NEWDPF about	0.035000 0.082000 -0.065000
USER    NEWDPF tran0	-4.867429 17.790137 17.783442
USER    NEWDPF axisangle0	-0.565655 0.083901 -0.820362 -130.473243
USER    NEWDPF quaternion0	-0.513641 0.076186 -0.744926 -0.418872
USER    NEWDPF dihe0	13.87 46.10 163.41 -15.80 10.96 -66.91 -80.41 -49.89 13.17 79.96 93.69 126.41 157.59 175.49 -75.10 12.47 -42.17 99.25 54.53 15.45 6.47 13.45 174.97 -9.95 
USER  
USER                              x       y       z    vdW   Elec        q     RMS 
ATOM      1  C   UNL d   1      -4.848  17.727  19.510 -0.01 -0.02    +0.194    23.243
ATOM      2  C   UNL d   1      -5.442  18.999  18.901 -0.01 -0.02    +0.194    23.243
ATOM      3  C   UNL d   1      -4.603  19.510  17.728 -0.02 -0.02    +0.194    23.243
ATOM      4  C   UNL d   1      -4.329  18.440  16.674 -0.08 -0.03    +0.194    23.243
ATOM      5  C   UNL d   1      -3.844  17.114  17.247 -0.12 -0.05    +0.194    23.243
ATOM      6  C   UNL d   1      -4.645  16.634  18.459 -0.05 -0.03    +0.194    23.243
ATOM      7  O   UNL d   1      -5.773  17.222  20.476 -0.00 +0.02    -0.278    23.243
ATOM      8  P   UNL d   1      -6.011  18.065  21.812 +0.00 -0.04    +0.473    23.243
ATOM      9  O   UNL d   1      -6.387  17.262  23.007 +0.00 +0.02    -0.228    23.243
ATOM     10  O   UNL d   1      -4.652  18.878  22.004 +0.00 +0.02    -0.303    23.243
ATOM     11  H   UNL d   1      -4.445  18.948  22.954 +0.00 -0.02    +0.222    23.243
ATOM     12  O   UNL d   1      -7.030  19.213  21.399 +0.00 +0.02    -0.303    23.243
ATOM     13  H   UNL d   1      -7.304  19.163  20.455 +0.00 -0.02    +0.222    23.243
ATOM     14  O   UNL d   1      -6.765  18.718  18.429 -0.00 +0.02    -0.278    23.243
ATOM     15  P   UNL d   1      -7.827  19.913  18.520 +0.00 -0.03    +0.473    23.243
ATOM     16  O   UNL d   1      -9.135  19.601  19.176 +0.00 +0.01    -0.228    23.243
ATOM     17  O   UNL d   1      -7.032  21.082  19.254 +0.00 +0.02    -0.303    23.243
ATOM     18  H   UNL d   1      -6.314  21.427  18.690 +0.00 -0.02    +0.222    23.243
ATOM     19  O   UNL d   1      -7.921  20.474  17.035 -0.00 +0.02    -0.303    23.243
ATOM     20  H   UNL d   1      -7.141  21.011  16.802 +0.00 -0.02    +0.222    23.243
ATOM     21  O   UNL d   1      -3.880  15.600  19.075 -0.06 +0.04    -0.278    23.243
ATOM     22  P   UNL d   1      -4.188  14.074  18.727 -0.05 -0.07    +0.473    23.243
ATOM     23  O   UNL d   1      -5.612  13.632  18.694 -0.02 +0.03    -0.228    23.243
ATOM     24  O   UNL d   1      -3.399  13.886  17.358 -0.13 +0.07    -0.303    23.243
ATOM     25  H   UNL d   1      -3.714  14.579  16.723 -0.37 -0.09    +0.222    23.243
ATOM     26  O   UNL d   1      -3.238  13.306  19.765 -0.04 +0.04    -0.303    23.243
ATOM     27  H   UNL d   1      -3.788  12.755  20.358 +0.02 -0.03    +0.222    23.243
ATOM     28  O   UNL d   1      -5.364  20.509  17.061 -0.01 +0.03    -0.278    23.243
ATOM     29  P   UNL d   1      -4.765  21.970  16.852 -0.00 -0.04    +0.473    23.243
ATOM     30  O   UNL d   1      -3.551  22.285  17.648 -0.01 +0.02    -0.228    23.243
ATOM     31  O   UNL d   1      -4.612  21.983  15.259 -0.01 +0.03    -0.303    23.243
ATOM     32  H   UNL d   1      -4.464  21.059  14.950 +0.02 -0.02    +0.222    23.243
ATOM     33  O   UNL d   1      -6.041  22.892  17.090 -0.00 +0.02    -0.303    23.243
ATOM     34  H   UNL d   1      -6.780  22.335  17.438 +0.00 -0.02    +0.222    23.243
ATOM     35  O   UNL d   1      -4.034  16.153  16.211 +0.10 +0.12    -0.278    23.243
ATOM     36  P   UNL d   1      -5.467  15.971  15.534 -0.05 -0.10    +0.473    23.243
ATOM     37  O   UNL d   1      -6.534  16.897  16.025 -0.02 +0.03    -0.228    23.243
ATOM     38  O   UNL d   1      -5.120  16.133  13.988 -0.10 +0.06    -0.303    23.243
ATOM     39  H   UNL d   1      -4.684  17.001  13.846 +0.04 -0.04    +0.222    23.243
ATOM     40  O   UNL d   1      -5.729  14.412  15.706 -0.05 +0.06    -0.303    23.243
ATOM     41  H   UNL d   1      -5.404  14.081  16.573 +0.04 -0.04    +0.222    23.243
ATOM     42  O   UNL d   1      -3.284  18.943  15.835 -0.12 +0.04    -0.278    23.243
ATOM     43  P   UNL d   1      -3.562  19.108  14.272 -0.11 -0.05    +0.473    23.243
ATOM     44  O   UNL d   1      -2.920  20.260  13.579 -0.12 +0.02    -0.228    23.243
ATOM     45  O   UNL d   1      -3.147  17.685  13.692 -0.24 +0.03    -0.303    23.243
ATOM     46  H   UNL d   1      -3.152  16.999  14.389 -0.52 -0.09    +0.222    23.243
ATOM     47  O   UNL d   1      -5.160  19.046  14.176 -0.04 +0.03    -0.303    23.243
ATOM     48  H   UNL d   1      -5.478  18.223  14.602 +0.04 -0.03    +0.222    23.243
TER
ENDMDL
MODEL       27
USER    Run = 27
USER    Cluster Rank = 88
USER    Number of conformations in this cluster = 1
USER  
USER    RMSD from reference structure       = 22.238 A
USER  
USER    Estimated Free Energy of Binding    =   +5.06 kcal/mol  [=(1)+(2)+(3)-(4)]
USER    
USER    (1) Final Intermolecular Energy     =   -2.10 kcal/mol
USER        vdW + Hbond + desolv Energy     =   -1.82 kcal/mol
USER        Electrostatic Energy            =   -0.29 kcal/mol
USER    (2) Final Total Internal Energy     =  -14.66 kcal/mol
USER    (3) Torsional Free Energy           =   +7.16 kcal/mol
USER    (4) Unbound System's Energy  [=(2)] =  -14.66 kcal/mol
USER    
USER    
USER  
USER    DPF = D:/Protein_go_brrr/autodock/final/mut_N102T/IHP/dock.dpf
USER    NEWDPF move	IHP_ideal_opt.pdbqt
USER    NEWDPF about	0.035000 0.082000 -0.065000
USER    NEWDPF tran0	12.051340 12.334785 17.656255
USER    NEWDPF axisangle0	0.695802 -0.062580 0.715502 -159.850567
USER    NEWDPF quaternion0	0.685073 -0.061615 0.704469 -0.174932
USER    NEWDPF dihe0	95.71 135.44 128.90 51.00 -16.99 154.47 -122.81 -33.74 124.86 -29.52 177.42 -62.08 117.12 90.96 -172.90 -172.46 177.23 46.05 50.06 -7.12 168.08 3.27 9.84 179.84 
USER  
USER                              x       y       z    vdW   Elec        q     RMS 
ATOM      1  C   UNL d   1      13.091  13.106  18.799 +0.00 +0.01    +0.194    22.238
ATOM      2  C   UNL d   1      13.009  13.773  17.425 -0.00 +0.01    +0.194    22.238
ATOM      3  C   UNL d   1      13.053  12.745  16.293 -0.03 +0.02    +0.194    22.238
ATOM      4  C   UNL d   1      12.025  11.628  16.455 -0.08 +0.03    +0.194    22.238
ATOM      5  C   UNL d   1      11.993  11.011  17.847 -0.05 +0.04    +0.194    22.238
ATOM      6  C   UNL d   1      12.011  12.039  18.981 -0.01 +0.02    +0.194    22.238
ATOM      7  O   UNL d   1      12.872  14.108  19.795 +0.00 -0.00    -0.278    22.238
ATOM      8  P   UNL d   1      14.026  15.179  20.062 +0.00 -0.00    +0.473    22.238
ATOM      9  O   UNL d   1      13.631  16.335  20.913 +0.00 +0.01    -0.228    22.238
ATOM     10  O   UNL d   1      15.216  14.318  20.686 +0.00 -0.00    -0.303    22.238
ATOM     11  H   UNL d   1      14.924  13.920  21.527 +0.00 +0.00    +0.222    22.238
ATOM     12  O   UNL d   1      14.596  15.540  18.624 +0.00 +0.00    -0.303    22.238
ATOM     13  H   UNL d   1      14.132  16.300  18.205 +0.00 -0.00    +0.222    22.238
ATOM     14  O   UNL d   1      11.779  14.503  17.333 -0.00 +0.00    -0.278    22.238
ATOM     15  P   UNL d   1      11.894  16.057  16.968 +0.01 -0.03    +0.473    22.238
ATOM     16  O   UNL d   1      10.789  16.638  16.142 -0.01 +0.02    -0.228    22.238
ATOM     17  O   UNL d   1      12.052  16.776  18.381 +0.00 +0.02    -0.303    22.238
ATOM     18  H   UNL d   1      12.544  16.213  19.009 +0.00 -0.01    +0.222    22.238
ATOM     19  O   UNL d   1      13.357  16.216  16.364 -0.00 +0.01    -0.303    22.238
ATOM     20  H   UNL d   1      13.883  15.402  16.475 +0.00 +0.00    +0.222    22.238
ATOM     21  O   UNL d   1      12.322  11.328  20.177 -0.00 -0.03    -0.278    22.238
ATOM     22  P   UNL d   1      13.756  10.648  20.343 +0.01 +0.07    +0.473    22.238
ATOM     23  O   UNL d   1      13.834   9.331  21.040 -0.00 -0.04    -0.228    22.238
ATOM     24  O   UNL d   1      14.290  10.642  18.844 -0.00 -0.05    -0.303    22.238
ATOM     25  H   UNL d   1      13.913   9.849  18.385 +0.02 +0.07    +0.222    22.238
ATOM     26  O   UNL d   1      14.608  11.839  20.994 +0.00 -0.02    -0.303    22.238
ATOM     27  H   UNL d   1      14.156  12.690  20.822 +0.00 +0.01    +0.222    22.238
ATOM     28  O   UNL d   1      12.695  13.416  15.091 -0.06 -0.02    -0.278    22.238
ATOM     29  P   UNL d   1      13.763  13.597  13.923 -0.04 +0.05    +0.473    22.238
ATOM     30  O   UNL d   1      13.200  13.912  12.585 -0.12 -0.03    -0.228    22.238
ATOM     31  O   UNL d   1      14.719  14.696  14.586 -0.02 -0.01    -0.303    22.238
ATOM     32  H   UNL d   1      14.239  15.556  14.610 +0.01 +0.00    +0.222    22.238
ATOM     33  O   UNL d   1      14.622  12.262  14.046 -0.07 -0.04    -0.303    22.238
ATOM     34  H   UNL d   1      14.067  11.560  14.464 +0.05 +0.04    +0.222    22.238
ATOM     35  O   UNL d   1      10.752  10.314  17.933 -0.13 -0.09    -0.278    22.238
ATOM     36  P   UNL d   1      10.674   8.896  18.660 -0.14 +0.32    +0.473    22.238
ATOM     37  O   UNL d   1       9.829   7.867  17.978 -0.69 -0.31    -0.228    22.238
ATOM     38  O   UNL d   1      12.213   8.506  18.779 -0.09 -0.25    -0.303    22.238
ATOM     39  H   UNL d   1      12.693   9.229  19.237 +0.03 +0.10    +0.222    22.238
ATOM     40  O   UNL d   1      10.265   9.297  20.144 -0.07 -0.09    -0.303    22.238
ATOM     41  H   UNL d   1      11.004   9.737  20.619 +0.04 +0.05    +0.222    22.238
ATOM     42  O   UNL d   1      12.394  10.589  15.542 -0.13 -0.08    -0.278    22.238
ATOM     43  P   UNL d   1      13.728   9.759  15.818 -0.08 +0.18    +0.473    22.238
ATOM     44  O   UNL d   1      13.605   8.507  16.616 -0.08 -0.18    -0.228    22.238
ATOM     45  O   UNL d   1      14.314   9.542  14.354 -0.13 -0.10    -0.303    22.238
ATOM     46  H   UNL d   1      15.074  10.132  14.182 +0.05 +0.05    +0.222    22.238
ATOM     47  O   UNL d   1      14.730  10.861  16.410 -0.02 -0.06    -0.303    22.238
ATOM     48  H   UNL d   1      14.966  10.621  17.331 +0.02 +0.04    +0.222    22.238
TER
ENDMDL


AVSFLD: # AVS field file
AVSFLD: #
AVSFLD: # Created by AutoDock
AVSFLD: #
AVSFLD: ndim=2           # number of dimensions in the field
AVSFLD: nspace=1         # number of physical coordinates
AVSFLD: veclen=7         # vector size
AVSFLD: dim1=48          # atoms
AVSFLD: dim2=88          # conformations
AVSFLD: data=Real       # data type (byte,integer,Real,double)
AVSFLD: field=uniform    # field coordinate layout
AVSFLD: label= x y z vdW Elec q RMS
AVSFLD: variable 1 file = D:/Protein_go_brrr/autodock/final/mut_N102T/IHP/dock.dlg.pdb filetype = ascii offset = 5 stride = 12
AVSFLD: variable 2 file = D:/Protein_go_brrr/autodock/final/mut_N102T/IHP/dock.dlg.pdb filetype = ascii offset = 6 stride = 12
AVSFLD: variable 3 file = D:/Protein_go_brrr/autodock/final/mut_N102T/IHP/dock.dlg.pdb filetype = ascii offset = 7 stride = 12
AVSFLD: variable 4 file = D:/Protein_go_brrr/autodock/final/mut_N102T/IHP/dock.dlg.pdb filetype = ascii offset = 8 stride = 12
AVSFLD: variable 5 file = D:/Protein_go_brrr/autodock/final/mut_N102T/IHP/dock.dlg.pdb filetype = ascii offset = 9 stride = 12
AVSFLD: variable 6 file = D:/Protein_go_brrr/autodock/final/mut_N102T/IHP/dock.dlg.pdb filetype = ascii offset = 10 stride = 12
AVSFLD: variable 7 file = D:/Protein_go_brrr/autodock/final/mut_N102T/IHP/dock.dlg.pdb filetype = ascii offset = 11 stride = 12
AVSFLD: # end of file

>>> Closing the docking parameter file (DPF)...
This docking finished at:			11:04 02" p.m., 10/05/2025


________________________________________________________________________________

D:/autodockScripts/autodock4.exe: Successful Completion on "ACER"

Real= 20h 28m 51.45s,  CPU= 5m 21.88s,  System= 1m 55.83s
________________________________________________________________________________

  2  C   UNL d   1      16.129   5.341  19.808 -0.00 +0.05    +0.194    24.268
ATOM      3  C   UNL d   1      16.342   4.075  20.641 +0.00 +0.03    +0.194    24.268
ATOM      4  C   UNL d   1      16.906   4.358  22.031 +0.00 +0.02    +0.194    24.268
ATOM      5  C   UNL d   1      18.098   5.307  22.036 +0.00 +0.01    +0.194    24.268
ATOM      6  C   UNL d   1      17.909   6.543  21.153 +0.00 +0.02    +0.194    24.268
ATOM      7  O   UNL d   1      17.063   7.436  19.111 +0.00 -0.05    -0.278    24.268
ATOM      8  P   UNL d   1      17.249   7.539  17.527 +0.00 +0.09    +0.473    24.268
ATOM      9  O   UNL d   1      16.211   6.838  16.723 -0.03 -0.08    -0.228    24.268
ATOM     10  O   UNL d   1      17.309   9.108  17.246 -0.00 -0.04    -0.303    24.268
ATOM     11  H   UNL d   1      18.142   9.472  17.599 +0.00 +0.02    +0.222    24.268
ATOM     12  O   UNL d   1      18.751   7.096  17.259 +0.00 -0.03    -0.303    24.268
ATOM     13  H   UNL d   1      19.366   7.360  17.980 +0.00 +0.02    +0.222    24.268
ATOM     14  O   UNL d   1      15.068   6.103  20.397 -0.01 -0.09    -0.278    24.268
ATOM     15  P   UNL d   1      13.616   5.933  19.743 -0.01 +0.39    +0.473    24.268
ATOM     16  O   UNL d   1      12.916   7.188  19.326 -0.47 -0.25    -0.228    24.268
ATOM     17  O   UNL d   1      13.852   4.925  18.532 -0.40 -0.35    -0.303    24.268
ATOM     18  H   UNL d   1      14.258   4.093  18.841 +0.02 +0.14    +0.222    24.268
ATOM     19  O   UNL d   1      12.823   5.015  20.772 -0.04 -0.15    -0.303    24.268
ATOM     20  H   UNL d   1      13.407   4.356  21.192 +0.02 +0.07    +0.222    24.268
ATOM     21  O   UNL d   1      19.197   7.134  20.990 +0.00 -0.02    -0.278    24.268
ATOM     22  P   UNL d   1      19.334   8.721  20.904 +0.00 +0.02    +0.473    24.268
ATOM     23  O   UNL d   1      20.477   9.369  21.610 +0.00 -0.01    -0.228    24.268
ATOM     24  O   UNL d   1      19.297   8.965  19.331 +0.00 -0.02    -0.303    24.268
ATOM     25  H   UNL d   1      18.536   8.452  18.958 +0.00 +0.02    +0.222    24.268
ATOM     26  O   UNL d   1      17.870   9.199  21.348 +0.00 -0.02    -0.303    24.268
ATOM     27  H   UNL d   1      17.217   8.897  20.684 +0.00 +0.02    +0.222    24.268
ATOM     28  O   UNL d   1      15.065   3.490  20.865 +0.00 -0.06    -0.278    24.268
ATOM     29  P   UNL d   1      14.541   2.320  19.920 +0.01 +0.11    +0.473    24.268
ATOM     30  O   UNL d   1      15.253   2.174  18.625 -0.00 -0.06    -0.228    24.268
ATOM     31  O   UNL d   1      14.620   1.085  20.935 +0.00 -0.04    -0.303    24.268
ATOM     32  H   UNL d   1      15.083   1.380  21.753 +0.00 +0.02    +0.222    24.268
ATOM     33  O   UNL d   1      12.978   2.620  19.853 -0.02 -0.12    -0.303    24.268
ATOM     34  H   UNL d   1      12.838   3.598  19.870 +0.03 +0.13    +0.222    24.268
ATOM     35  O   UNL d   1      18.222   5.767  23.380 +0.00 -0.01    -0.278    24.268
ATOM     36  P   UNL d   1      16.949   6.329  24.159 +0.00 +0.02    +0.473    24.268
ATOM     37  O   UNL d   1      17.212   7.476  25.082 +0.00 -0.01    -0.228    24.268
ATOM     38  O   UNL d   1      15.956   6.667  22.960 +0.00 -0.03    -0.303    24.268
ATOM     39  H   UNL d   1      15.616   5.829  22.579 +0.00 +0.02    +0.222    24.268
ATOM     40  O   UNL d   1      16.335   5.010  24.803 +0.00 -0.01    -0.303    24.268
ATOM     41  H   UNL d   1      16.505   4.219  24.244 +0.00 +0.01    +0.222    24.268
ATOM     42  O   UNL d   1      17.362   3.107  22.556 +0.00 -0.02    -0.278    24.268
ATOM     43  P   UNL d   1      16.406   2.286  23.534 +0.00 +0.02    +0.473    24.268
ATOM     44  O   UNL d   1      16.787   2.220  24.972 +0.00 -0.01    -0.228    24.268
ATOM     45  O   UNL d   1      14.984   2.948  23.267 +0.00 -0.02    -0.303    24.268
ATOM     46  H   UNL d   1      14.604   2.651  22.416 +0.00 +0.02    +0.222    24.268
ATOM     47  O   UNL d   1      16.251   0.873  22.794 +0.00 -0.02    -0.303    24.268
ATOM     48  H   UNL d   1      16.572   0.955  21.871 +0.00 +0.01    +0.222    24.268
TER
ENDMDL


AVSFLD: # AVS field file
AVSFLD: #
AVSFLD: # Created by AutoDock
AVSFLD: #
AVSFLD: ndim=2           # number of dimensions in the field
AVSFLD: nspace=1         # number of physical coordinates
AVSFLD: veclen=7         # vector size
AVSFLD: dim1=48          # atoms
AVSFLD: dim2=89          # conformations
AVSFLD: data=Real       # data type (byte,integer,Real,double)
AVSFLD: field=uniform    # field coordinate layout
AVSFLD: label= x y z vdW Elec q RMS
AVSFLD: variable 1 file = D:/Protein_go_brrr/autodock/final/mut_N102T/IHP/dock.dlg.pdb filetype = ascii offset = 5 stride = 12
AVSFLD: variable 2 file = D:/Protein_go_brrr/autodock/final/mut_N102T/IHP/dock.dlg.pdb filetype = ascii offset = 6 stride = 12
AVSFLD: variable 3 file = D:/Protein_go_brrr/autodock/final/mut_N102T/IHP/dock.dlg.pdb filetype = ascii offset = 7 stride = 12
AVSFLD: variable 4 file = D:/Protein_go_brrr/autodock/final/mut_N102T/IHP/dock.dlg.pdb filetype = ascii offset = 8 stride = 12
AVSFLD: variable 5 file = D:/Protein_go_brrr/autodock/final/mut_N102T/IHP/dock.dlg.pdb filetype = ascii offset = 9 stride = 12
AVSFLD: variable 6 file = D:/Protein_go_brrr/autodock/final/mut_N102T/IHP/dock.dlg.pdb filetype = ascii offset = 10 stride = 12
AVSFLD: variable 7 file = D:/Protein_go_brrr/autodock/final/mut_N102T/IHP/dock.dlg.pdb filetype = ascii offset = 11 stride = 12
AVSFLD: # end of file

>>> Closing the docking parameter file (DPF)...
This docking finished at:			11:03 31" p.m., 10/05/2025


________________________________________________________________________________

D:/autodockScripts/autodock4.exe: Successful Completion on "ACER"

Real= 20h 28m 11.67s,  CPU= 4m 24.59s,  System= 1m 56.17s
________________________________________________________________________________

