          AutoDock 4.2 Release 4.2.6   
         (C) 1989-2012 The Scripps Research Institute
        AutoDock comes with ABSOLUTELY NO WARRANTY.
        AutoDock is free software, and you are welcome
        to redistribute it under certain conditions;
        for details type 'autodock4 -C'

                     main.cc  $Revision: 1.213 $

                   Compiled on Jul 18 2014 at 15:34:58


This file was created at:			7:53 37" p.m., 09/27/2025
                   on host:		"ACER"
Current Working Directory = "D:\Protein_go_brrr\autodock\final\2DN3\heme"

      ________________________________________________________________

                   SETTING UP DEFAULT PARAMETER LIBRARY
      ________________________________________________________________


Random number generator was seeded with values 55956, 1758995617.
Docking parameter file (DPF) used for this docking:		D:/Protein_go_brrr/autodock/final/2DN3/heme/dock.dpf
DPF> autodock_parameter_version 4.2       # used by autodock to validate parameter set

	Autodock parameter version 4.2.
DPF> outlev 1                             # diagnostic output level

Output Level = 1  ADT-COMPATIBLE OUTPUT DURING DOCKING.
DPF> intelec                              # calculate internal electrostatics

Electrostatic energies will be calculated for all non-bonds between moving atoms.
DPF> seed pid time                        # seeds for random generator

Random number generator was seeded with values 55956, 1758995617.
DPF> ligand_types A C NA OA N HD          # atoms types in ligand

DPF> fld opt_2DN3.maps.fld                # grid_data_file

Opening Grid Map Dimensions file:		opt_2DN3.maps.fld
Grid Point Spacing =				0.714 Angstroms

Even Number of User-specified Grid Points =	126 x-points
						126 y-points
						126 z-points

Coordinates of Central Grid Point of Maps =	(23.741, 34.005, 11.372)
Macromolecule file used to create Grid Maps =	opt_2DN3.pdbqt
Grid Parameter file used to create Grid Maps =	D:/Protein_go_brrr/autodock/final/2DN3/heme/grid.gpf
Minimum coordinates in grid = (-21.241, -10.977, -33.610)
Maximum coordinates in grid = (68.723, 78.987, 56.354)

DPF> map opt_2DN3.A.map                   # atom-specific affinity map

DPF> map opt_2DN3.C.map                   # atom-specific affinity map

DPF> map opt_2DN3.NA.map                  # atom-specific affinity map

DPF> map opt_2DN3.OA.map                  # atom-specific affinity map

DPF> map opt_2DN3.N.map                   # atom-specific affinity map

DPF> map opt_2DN3.HD.map                  # atom-specific affinity map

DPF> elecmap opt_2DN3.e.map               # electrostatics map

DPF> desolvmap opt_2DN3.d.map             # desolvation map

DPF> move heme_opt.pdbqt                  # small molecule

1,4-interactions will be _ignored_ in the non-bonded internal energy calculation.

Ligand PDBQT file = "heme_opt.pdbqt"

INPUT LIGAND PDBQT FILE:
________________________

INPUT-LIGAND-PDBQT: REMARK  13 active torsions:
INPUT-LIGAND-PDBQT: REMARK  status: ('A' for Active; 'I' for Inactive)
INPUT-LIGAND-PDBQT: REMARK    1  A    between atoms: O_3  and  C_38 
INPUT-LIGAND-PDBQT: REMARK    2  A    between atoms: O_4  and  C_40 
INPUT-LIGAND-PDBQT: REMARK    3  A    between atoms: O_7  and  C_46 
INPUT-LIGAND-PDBQT: REMARK    4  A    between atoms: O_9  and  C_48 
INPUT-LIGAND-PDBQT: REMARK    5  A    between atoms: C_15  and  C_20 
INPUT-LIGAND-PDBQT: REMARK    6  A    between atoms: C_16  and  C_23 
INPUT-LIGAND-PDBQT: REMARK    7  A    between atoms: C_20  and  C_38 
INPUT-LIGAND-PDBQT: REMARK    8  A    between atoms: C_23  and  C_40 
INPUT-LIGAND-PDBQT: REMARK    9  A    between atoms: C_32  and  C_41 
INPUT-LIGAND-PDBQT: REMARK   10  A    between atoms: C_37  and  C_45 
INPUT-LIGAND-PDBQT: REMARK   11  A    between atoms: C_41  and  C_44 
INPUT-LIGAND-PDBQT: REMARK   12  A    between atoms: C_44  and  C_46 
INPUT-LIGAND-PDBQT: REMARK   13  A    between atoms: C_47  and  C_48 
INPUT-LIGAND-PDBQT: ROOT
INPUT-LIGAND-PDBQT: ATOM      1  O   UNL d   1      -5.458   1.707   0.620  0.00  0.00    -0.289 OA
INPUT-LIGAND-PDBQT: ATOM      2  O   UNL d   1      -2.504  -4.828  -1.607  0.00  0.00    -0.289 OA
INPUT-LIGAND-PDBQT: ATOM      3  N   UNL d   1      -2.063   1.218   0.259  0.00  0.00    -0.247 NA
INPUT-LIGAND-PDBQT: ATOM      4  N   UNL d   1      -1.851  -1.684  -0.343  0.00  0.00    -0.247 NA
INPUT-LIGAND-PDBQT: ATOM      5  N   UNL d   1       0.972  -1.489   0.166  0.00  0.00    -0.354 N 
INPUT-LIGAND-PDBQT: ATOM      6  N   UNL d   1       0.740   1.517   0.808  0.00  0.00    -0.354 N 
INPUT-LIGAND-PDBQT: ATOM      7  C   UNL d   1      -3.467   3.037   1.112  0.00  0.00     0.084 A 
INPUT-LIGAND-PDBQT: ATOM      8  C   UNL d   1      -3.784  -2.753  -1.388  0.00  0.00     0.084 A 
INPUT-LIGAND-PDBQT: ATOM      9  C   UNL d   1      -3.156  -1.511  -0.747  0.00  0.00     0.058 A 
INPUT-LIGAND-PDBQT: ATOM     10  C   UNL d   1      -2.069   2.485   0.818  0.00  0.00     0.058 A 
INPUT-LIGAND-PDBQT: ATOM     11  C   UNL d   1      -4.251   1.865   0.603  0.00  0.00     0.193 A 
INPUT-LIGAND-PDBQT: ATOM     12  C   UNL d   1      -3.288   0.840   0.089  0.00  0.00     0.109 A 
INPUT-LIGAND-PDBQT: ATOM     13  C   UNL d   1      -2.606  -3.674  -1.239  0.00  0.00     0.193 A 
INPUT-LIGAND-PDBQT: ATOM     14  C   UNL d   1      -3.721   3.188   2.614  0.00  0.00     0.026 C 
INPUT-LIGAND-PDBQT: ATOM     15  C   UNL d   1      -3.838  -0.372  -0.551  0.00  0.00     0.055 C 
INPUT-LIGAND-PDBQT: ATOM     16  C   UNL d   1      -4.060  -2.544  -2.880  0.00  0.00     0.026 C 
INPUT-LIGAND-PDBQT: ATOM     17  C   UNL d   1      -1.503  -2.907  -0.585  0.00  0.00     0.109 A 
INPUT-LIGAND-PDBQT: ATOM     18  C   UNL d   1      -0.964   3.229   1.013  0.00  0.00     0.050 C 
INPUT-LIGAND-PDBQT: ATOM     19  C   UNL d   1       0.360   2.835   0.692  0.00  0.00     0.045 A 
INPUT-LIGAND-PDBQT: ATOM     20  C   UNL d   1       0.841  -2.851   0.084  0.00  0.00     0.045 A 
INPUT-LIGAND-PDBQT: ATOM     21  C   UNL d   1      -0.229  -3.570  -0.270  0.00  0.00     0.057 C 
INPUT-LIGAND-PDBQT: ATOM     22  C   UNL d   1       2.967  -2.353   0.755  0.00  0.00    -0.019 A 
INPUT-LIGAND-PDBQT: ATOM     23  C   UNL d   1       2.221  -1.093   0.564  0.00  0.00     0.045 A 
INPUT-LIGAND-PDBQT: ATOM     24  C   UNL d   1       2.145  -3.390   0.468  0.00  0.00    -0.022 A 
INPUT-LIGAND-PDBQT: ATOM     25  C   UNL d   1       2.081   1.375   0.536  0.00  0.00     0.049 A 
INPUT-LIGAND-PDBQT: ATOM     26  C   UNL d   1       1.473   3.562   0.299  0.00  0.00    -0.018 A 
INPUT-LIGAND-PDBQT: ATOM     27  C   UNL d   1       2.552   2.632   0.183  0.00  0.00     0.003 A 
INPUT-LIGAND-PDBQT: ATOM     28  C   UNL d   1       2.739   0.132   0.742  0.00  0.00     0.052 C 
INPUT-LIGAND-PDBQT: ATOM     29  C   UNL d   1       2.440  -4.851   0.501  0.00  0.00     0.046 C 
INPUT-LIGAND-PDBQT: ATOM     30  C   UNL d   1       1.533   5.030   0.044  0.00  0.00     0.046 C 
INPUT-LIGAND-PDBQT: ATOM     31  H   UNL d   1       0.223  -0.870  -0.125  0.00  0.00     0.166 HD
INPUT-LIGAND-PDBQT: ATOM     32  H   UNL d   1       0.112   0.776   1.096  0.00  0.00     0.166 HD
INPUT-LIGAND-PDBQT: ENDROOT
INPUT-LIGAND-PDBQT: BRANCH   7  33
INPUT-LIGAND-PDBQT: ATOM     33  C   UNL d   1      -3.845   4.310   0.347  0.00  0.00     0.141 C 
INPUT-LIGAND-PDBQT: BRANCH  33  34
INPUT-LIGAND-PDBQT: ATOM     34  C   UNL d   1      -3.538   4.215  -1.123  0.00  0.00     0.306 C 
INPUT-LIGAND-PDBQT: ATOM     35  O   UNL d   1      -3.917   3.340  -1.883  0.00  0.00    -0.251 OA
INPUT-LIGAND-PDBQT: BRANCH  34  36
INPUT-LIGAND-PDBQT: ATOM     36  O   UNL d   1      -2.771   5.230  -1.559  0.00  0.00    -0.481 OA
INPUT-LIGAND-PDBQT: ATOM     37  H   UNL d   1      -2.612   5.030  -2.506  0.00  0.00     0.295 HD
INPUT-LIGAND-PDBQT: ENDBRANCH  34  36
INPUT-LIGAND-PDBQT: ENDBRANCH  33  34
INPUT-LIGAND-PDBQT: ENDBRANCH   7  33
INPUT-LIGAND-PDBQT: BRANCH  27  38
INPUT-LIGAND-PDBQT: ATOM     38  C   UNL d   1       3.894   2.967  -0.187  0.00  0.00     0.017 C 
INPUT-LIGAND-PDBQT: ATOM     39  C   UNL d   1       4.701   2.208  -0.944  0.00  0.00     0.092 C 
INPUT-LIGAND-PDBQT: BRANCH  39  40
INPUT-LIGAND-PDBQT: ATOM     40  C   UNL d   1       6.052   2.675  -1.266  0.00  0.00     0.330 C 
INPUT-LIGAND-PDBQT: ATOM     41  O   UNL d   1       6.568   3.731  -0.953  0.00  0.00    -0.246 OA
INPUT-LIGAND-PDBQT: BRANCH  40  42
INPUT-LIGAND-PDBQT: ATOM     42  O   UNL d   1       6.703   1.746  -1.983  0.00  0.00    -0.477 OA
INPUT-LIGAND-PDBQT: ATOM     43  H   UNL d   1       7.581   2.148  -2.146  0.00  0.00     0.295 HD
INPUT-LIGAND-PDBQT: ENDBRANCH  40  42
INPUT-LIGAND-PDBQT: ENDBRANCH  39  40
INPUT-LIGAND-PDBQT: ENDBRANCH  27  38
INPUT-LIGAND-PDBQT: BRANCH   8  44
INPUT-LIGAND-PDBQT: ATOM     44  C   UNL d   1      -5.015  -3.316  -0.670  0.00  0.00     0.141 C 
INPUT-LIGAND-PDBQT: BRANCH  44  45
INPUT-LIGAND-PDBQT: ATOM     45  C   UNL d   1      -4.806  -3.504   0.809  0.00  0.00     0.306 C 
INPUT-LIGAND-PDBQT: ATOM     46  O   UNL d   1      -3.825  -3.985   1.349  0.00  0.00    -0.251 OA
INPUT-LIGAND-PDBQT: BRANCH  45  47
INPUT-LIGAND-PDBQT: ATOM     47  O   UNL d   1      -5.864  -3.098   1.534  0.00  0.00    -0.481 OA
INPUT-LIGAND-PDBQT: ATOM     48  H   UNL d   1      -5.613  -3.283   2.464  0.00  0.00     0.295 HD
INPUT-LIGAND-PDBQT: ENDBRANCH  45  47
INPUT-LIGAND-PDBQT: ENDBRANCH  44  45
INPUT-LIGAND-PDBQT: ENDBRANCH   8  44
INPUT-LIGAND-PDBQT: BRANCH  22  49
INPUT-LIGAND-PDBQT: ATOM     49  C   UNL d   1       4.395  -2.426   1.210  0.00  0.00     0.048 C 
INPUT-LIGAND-PDBQT: BRANCH  49  50
INPUT-LIGAND-PDBQT: ATOM     50  C   UNL d   1       5.372  -2.242   0.049  0.00  0.00     0.125 C 
INPUT-LIGAND-PDBQT: BRANCH  50  51
INPUT-LIGAND-PDBQT: ATOM     51  C   UNL d   1       6.794  -2.339   0.524  0.00  0.00     0.305 C 
INPUT-LIGAND-PDBQT: ATOM     52  O   UNL d   1       7.189  -2.431   1.673  0.00  0.00    -0.251 OA
INPUT-LIGAND-PDBQT: BRANCH  51  53
INPUT-LIGAND-PDBQT: ATOM     53  O   UNL d   1       7.671  -2.302  -0.499  0.00  0.00    -0.481 OA
INPUT-LIGAND-PDBQT: ATOM     54  H   UNL d   1       8.547  -2.365  -0.064  0.00  0.00     0.295 HD
INPUT-LIGAND-PDBQT: ENDBRANCH  51  53
INPUT-LIGAND-PDBQT: ENDBRANCH  50  51
INPUT-LIGAND-PDBQT: ENDBRANCH  49  50
INPUT-LIGAND-PDBQT: ENDBRANCH  22  49
INPUT-LIGAND-PDBQT: TORSDOF 13
________________________________________________________________________________

Total charge on ligand                               =	-0.002 e
REMARK  13 active torsions:
REMARK  status: ('A' for Active; 'I' for Inactive)
REMARK    1  A    between atoms: O_3  and  C_38 
REMARK    2  A    between atoms: O_4  and  C_40 
REMARK    3  A    between atoms: O_7  and  C_46 
REMARK    4  A    between atoms: O_9  and  C_48 
REMARK    5  A    between atoms: C_15  and  C_20 
REMARK    6  A    between atoms: C_16  and  C_23 
REMARK    7  A    between atoms: C_20  and  C_38 
REMARK    8  A    between atoms: C_23  and  C_40 
REMARK    9  A    between atoms: C_32  and  C_41 
REMARK   10  A    between atoms: C_37  and  C_45 
REMARK   11  A    between atoms: C_41  and  C_44 
REMARK   12  A    between atoms: C_44  and  C_46 
REMARK   13  A    between atoms: C_47  and  C_48 


Number of Rotatable Bonds in Small Molecule =	13 torsions
Number of atoms in ligand:  54

Number of non-hydrogen atoms in ligand:  48

Number of vibrational degrees of freedom of ligand:  156


Number of torsional degrees of freedom = 13
Estimated loss of torsional free energy upon binding = +3.8779 kcal/mol


DPF> about 0.153 0.018 -0.028            # small molecule center

Small molecule center of rotation =	(+0.153, +0.018, -0.028)

DPF> tran0 random                         # initial coordinates/A or random

Initial translation =			(12.737, 53.615, -33.283) Angstroms
DPF> quaternion0 random                   # initial orientation

Each run will begin with a new, random initial orientation.
Initial quaternion,  (x,y,z,w) =	( 0.119, 0.094, -0.168, 0.974 ),
DPF> dihe0 random                         # initial dihedrals (relative) or random

DPF> torsdof 13                            # torsional degrees of freedom

Number of torsional degrees of freedom = 13
Free energy coefficient for torsional degrees of freedom = 0.2983, the factory default value.

Estimated loss of torsional free energy upon binding = +3.8779 kcal/mol

DPF> rmstol 2.0                           # cluster_tolerance/A

Maximum RMS tolerance for conformational cluster analysis = 2.00 Angstroms
DPF> extnrg 1000.0                        # external grid energy

External grid energy (beyond grid map walls) = 1000.00

DPF> e0max 0.0 10000                      # max initial energy; max number of retries

Using user-specified maximum number of retries for simanneal initialization, 10000 retries.
If the simanneal initial energy is greater than e0max, 0.000,
then a new, random initial state will be created.

DPF> ga_pop_size 150                      # number of individuals in population

A population of 150 individuals will be used
DPF> ga_num_evals 25000000                # maximum number of energy evaluations

There will be at most 25000000 function evaluations used.
DPF> ga_num_generations 27000             # maximum number of generations

The GA will run for at most 27000 generations.
DPF> ga_elitism 1                         # number of top individuals to survive to next generation

The 1 best will be preserved each GA generation.
DPF> ga_mutation_rate 0.02                # rate of gene mutation

The mutation rate is 0.020000.
DPF> ga_crossover_rate 0.8                # rate of crossover

The crossover rate is 0.800000.
DPF> ga_window_size 10                    # 

The GA's selection window is 10 generations.
DPF> ga_cauchy_alpha 0.0                  # Alpha parameter of Cauchy distribution

The alpha parameter (for the Cauchy distribution) is being set to 0.000000.
DPF> ga_cauchy_beta 1.0                   # Beta parameter Cauchy distribution

The beta parameter (for the Cauchy distribution) is being set to 1.000000.
DPF> set_ga                               # set the above parameters for GA or LGA

DPF> sw_max_its 300                       # iterations of Solis & Wets local search

Solis & Wets algorithms will perform at most 300 iterations.
DPF> sw_max_succ 4                        # consecutive successes before changing rho

Solis & Wets algorithms expand rho every 4 in a row successes.
DPF> sw_max_fail 4                        # consecutive failures before changing rho

Solis & Wets algorithms contract rho every 4 in a row failures.
DPF> sw_rho 1.0                           # size of local search space to sample

rho is set to 1.000000.
DPF> sw_lb_rho 0.01                       # lower bound on rho

rho will never get smaller than 0.010000.
DPF> ls_search_freq 0.06                  # probability of performing local search on individual

Local search will be performed with frequency 0.060000.
DPF> set_psw1                             # set the above pseudo-Solis & Wets parameters

Creating a new Local Search object using the pseudo-Solis-Wets algorithm (pSW1) with the current settings.

DPF> unbound_model bound                  # state of unbound ligand

DPF> ga_run 100                           # do this many hybrid GA-LS runs

centering ligand on specified point: 0.153 0.018 -0.028
Furthest true ligand atom from "about" center is 8.726 Angstroms (maxrad).
Number of requested GA dockings = 100 runs
Unbound model to be used is 'same as bound' [AutoDock 4.2 default].

	BEGINNING GENETIC ALGORITHM DOCKING 1 of 100
Run: 1 Seed: 1226032842 2093325030 [ Run 1 of 100 GA/GALS ]
Beginning LAMARCKIAN GENETIC ALGORITHM (LGA), with a maximum of 25000000 energy evaluations.

Final-Value: -10.399


	FINAL GENETIC ALGORITHM DOCKED STATE
	_______________________________________________


Detailed state:  trans 0.445 23.435 15.660 quatxyzw 0.058594 -0.980044 -0.152791 0.112847 center 0.153 0.018 -0.028 ntor 13 114.3635 -160.7277 -96.0639 -123.2491 -138.2711 94.8711 135.1073 -29.2109 47.4106 -57.5712 133.9212 -72.5789 37.7120
State:	  0.445  23.435  15.660   0.059 -0.986 -0.154 167.041    114.36 -160.73  -96.06 -123.25 -138.27   94.87  135.11  -29.21   47.41  -57.57  133.92  -72.58   37.71

DOCKED: MODEL        1
DOCKED: USER    Run = 1
DOCKED: USER    DPF = D:/Protein_go_brrr/autodock/final/2DN3/heme/dock.dpf
DOCKED: USER  
DOCKED: USER    Estimated Free Energy of Binding    =   -2.55 kcal/mol  [=(1)+(2)+(3)-(4)]
DOCKED: USER    Estimated Inhibition Constant, Ki   =   13.44 mM (millimolar)  [Temperature = 298.15 K]
DOCKED: USER    
DOCKED: USER    (1) Final Intermolecular Energy     =   -6.43 kcal/mol
DOCKED: USER        vdW + Hbond + desolv Energy     =   -6.30 kcal/mol
DOCKED: USER        Electrostatic Energy            =   -0.13 kcal/mol
DOCKED: USER    (2) Final Total Internal Energy     =   -3.97 kcal/mol
DOCKED: USER    (3) Torsional Free Energy           =   +3.88 kcal/mol
DOCKED: USER    (4) Unbound System's Energy  [=(2)] =   -3.97 kcal/mol
DOCKED: USER    
DOCKED: USER    
DOCKED: USER    NEWDPF move heme_opt.pdbqt
DOCKED: USER    NEWDPF about 0.153000 0.018000 -0.028000
DOCKED: USER    NEWDPF tran0 0.444680 23.435423 15.659898
DOCKED: USER    NEWDPF quaternion0 0.058594 -0.980044 -0.152791 0.112847
DOCKED: USER    NEWDPF axisangle0 0.058970 -0.986345 -0.153774 167.041105
DOCKED: USER    NEWDPF quat0 0.058970 -0.986345 -0.153774 167.041105
DOCKED: USER    NEWDPF dihe0 114.36 -160.73 -96.06 -123.25 -138.27 94.87 135.11 -29.21 47.41 -57.57 133.92 -72.58 37.71 
DOCKED: USER  keepresnum = 1 
DOCKED: USER  
DOCKED: REMARK  13 active torsions:
DOCKED: REMARK  status: ('A' for Active; 'I' for Inactive)
DOCKED: REMARK    1  A    between atoms: O_3  and  C_38 
DOCKED: REMARK    2  A    between atoms: O_4  and  C_40 
DOCKED: REMARK    3  A    between atoms: O_7  and  C_46 
DOCKED: REMARK    4  A    between atoms: O_9  and  C_48 
DOCKED: REMARK    5  A    between atoms: C_15  and  C_20 
DOCKED: REMARK    6  A    between atoms: C_16  and  C_23 
DOCKED: REMARK    7  A    between atoms: C_20  and  C_38 
DOCKED: REMARK    8  A    between atoms: C_23  and  C_40 
DOCKED: REMARK    9  A    between atoms: C_32  and  C_41 
DOCKED: REMARK   10  A    between atoms: C_37  and  C_45 
DOCKED: REMARK   11  A    between atoms: C_41  and  C_44 
DOCKED: REMARK   12  A    between atoms: C_44  and  C_46 
DOCKED: REMARK   13  A    between atoms: C_47  and  C_48 
DOCKED: USER                              x       y       z     vdW  Elec       q    Type
DOCKED: USER                           _______ _______ _______ _____ _____    ______ ____
DOCKED: ROOT
DOCKED: ATOM      1  O   UNL d   1       5.754  25.688  16.884 -0.32 -0.01    -0.289 OA
DOCKED: ATOM      2  O   UNL d   1       3.418  18.569  16.373 -0.05 +0.01    -0.289 OA
DOCKED: ATOM      3  N   UNL d   1       2.468  24.839  16.267 -0.12 +0.02    -0.247 NA
DOCKED: ATOM      4  N   UNL d   1       2.574  21.887  15.944 -0.12 +0.03    -0.247 NA
DOCKED: ATOM      5  N   UNL d   1      -0.083  22.004  14.853 -0.06 +0.05    -0.354 N 
DOCKED: ATOM      6  N   UNL d   1      -0.177  25.068  15.173 -0.02 +0.03    -0.354 N 
DOCKED: ATOM      7  C   UNL d   1       3.729  26.940  16.332 -0.31 -0.01    +0.084 A 
DOCKED: ATOM      8  C   UNL d   1       4.392  20.704  17.070 -0.19 -0.00    +0.084 A 
DOCKED: ATOM      9  C   UNL d   1       3.729  22.029  16.680 -0.24 -0.01    +0.058 A 
DOCKED: ATOM     10  C   UNL d   1       2.398  26.213  16.112 -0.20 -0.00    +0.058 A 
DOCKED: ATOM     11  C   UNL d   1       4.559  25.735  16.656 -0.29 -0.01    +0.193 A 
DOCKED: ATOM     12  C   UNL d   1       3.675  24.527  16.609 -0.26 -0.01    +0.109 A 
DOCKED: ATOM     13  C   UNL d   1       3.420  19.784  16.386 -0.11 -0.02    +0.193 A 
DOCKED: ATOM     14  C   UNL d   1       4.257  27.573  15.042 -0.50 -0.00    +0.026 C 
DOCKED: ATOM     15  C   UNL d   1       4.259  23.223  16.988 -0.29 -0.01    +0.055 C 
DOCKED: ATOM     16  C   UNL d   1       4.324  20.457  18.580 -0.14 +0.00    +0.026 C 
DOCKED: ATOM     17  C   UNL d   1       2.371  20.626  15.735 -0.13 -0.02    +0.109 A 
DOCKED: ATOM     18  C   UNL d   1       1.258  26.890  15.880 -0.14 -0.00    +0.050 C 
DOCKED: ATOM     19  C   UNL d   1      -0.030  26.310  15.749 -0.05 -0.00    +0.045 A 
DOCKED: ATOM     20  C   UNL d   1       0.230  20.700  14.570 -0.11 -0.01    +0.045 A 
DOCKED: ATOM     21  C   UNL d   1       1.301  19.995  14.949 -0.01 -0.01    +0.057 C 
DOCKED: ATOM     22  C   UNL d   1      -1.765  21.210  13.582 -0.09 +0.00    -0.019 A 
DOCKED: ATOM     23  C   UNL d   1      -1.270  22.403  14.298 -0.09 -0.01    +0.045 A 
DOCKED: ATOM     24  C   UNL d   1      -0.873  20.205  13.748 -0.12 +0.00    -0.022 A 
DOCKED: ATOM     25  C   UNL d   1      -1.509  24.741  15.064 -0.04 -0.00    +0.049 A 
DOCKED: ATOM     26  C   UNL d   1      -1.295  26.786  16.055 -0.02 +0.00    -0.018 A 
DOCKED: ATOM     27  C   UNL d   1      -2.224  25.783  15.639 -0.02 -0.00    +0.003 A 
DOCKED: ATOM     28  C   UNL d   1      -1.918  23.576  14.360 -0.06 -0.00    +0.052 C 
DOCKED: ATOM     29  C   UNL d   1      -0.934  18.809  13.228 -0.10 -0.01    +0.046 C 
DOCKED: ATOM     30  C   UNL d   1      -1.625  28.091  16.698 -0.01 -0.00    +0.046 C 
DOCKED: ATOM     31  H   UNL d   1       0.490  22.559  15.479 +0.03 -0.02    +0.166 HD
DOCKED: ATOM     32  H   UNL d   1       0.600  24.508  14.844 +0.06 -0.01    +0.166 HD
DOCKED: ENDROOT
DOCKED: BRANCH   7  33
DOCKED: ATOM     33  C   UNL d   1       3.749  27.936  17.496 -0.17 -0.00    +0.141 C 
DOCKED: BRANCH  33  34
DOCKED: ATOM     34  C   UNL d   1       4.283  27.331  18.766 -0.25 +0.01    +0.306 C 
DOCKED: ATOM     35  O   UNL d   1       3.647  26.679  19.577 -0.20 -0.00    -0.251 OA
DOCKED: BRANCH  34  36
DOCKED: ATOM     36  O   UNL d   1       5.593  27.579  18.947 -0.12 -0.04    -0.481 OA
DOCKED: ATOM     37  H   UNL d   1       6.040  27.066  18.241 +0.21 +0.04    +0.295 HD
DOCKED: ENDBRANCH  34  36
DOCKED: ENDBRANCH  33  34
DOCKED: ENDBRANCH   7  33
DOCKED: BRANCH  27  38
DOCKED: ATOM     38  C   UNL d   1      -3.648  25.876  15.757 -0.00 -0.00    +0.017 C 
DOCKED: ATOM     39  C   UNL d   1      -4.532  25.394  14.871 -0.00 -0.00    +0.092 C 
DOCKED: BRANCH  39  40
DOCKED: ATOM     40  C   UNL d   1      -5.969  25.540  15.119 +0.00 -0.01    +0.330 C 
DOCKED: ATOM     41  O   UNL d   1      -6.702  26.434  14.740 +0.00 +0.01    -0.246 OA
DOCKED: BRANCH  40  42
DOCKED: ATOM     42  O   UNL d   1      -6.419  24.508  15.850 +0.00 +0.01    -0.477 OA
DOCKED: ATOM     43  H   UNL d   1      -5.608  24.138  16.257 +0.00 -0.01    +0.295 HD
DOCKED: ENDBRANCH  40  42
DOCKED: ENDBRANCH  39  40
DOCKED: ENDBRANCH  27  38
DOCKED: BRANCH   8  44
DOCKED: ATOM     44  C   UNL d   1       5.813  20.495  16.537 -0.32 -0.00    +0.141 C 
DOCKED: BRANCH  44  45
DOCKED: ATOM     45  C   UNL d   1       5.887  19.482  15.425 -0.30 +0.01    +0.306 C 
DOCKED: ATOM     46  O   UNL d   1       5.798  19.706  14.231 -1.00 -0.01    -0.251 OA
DOCKED: BRANCH  45  47
DOCKED: ATOM     47  O   UNL d   1       6.044  18.227  15.882 -0.12 -0.10    -0.481 OA
DOCKED: ATOM     48  H   UNL d   1       5.137  17.929  16.107 +0.11 +0.04    +0.295 HD
DOCKED: ENDBRANCH  45  47
DOCKED: ENDBRANCH  44  45
DOCKED: ENDBRANCH   8  44
DOCKED: BRANCH  22  49
DOCKED: ATOM     49  C   UNL d   1      -3.044  21.169  12.797 -0.05 -0.00    +0.048 C 
DOCKED: BRANCH  49  50
DOCKED: ATOM     50  C   UNL d   1      -4.202  21.807  13.563 -0.01 -0.01    +0.125 C 
DOCKED: BRANCH  50  51
DOCKED: ATOM     51  C   UNL d   1      -4.221  21.343  14.992 +0.00 -0.01    +0.305 C 
DOCKED: ATOM     52  O   UNL d   1      -3.928  20.240  15.419 -0.00 +0.01    -0.251 OA
DOCKED: BRANCH  51  53
DOCKED: ATOM     53  O   UNL d   1      -4.632  22.314  15.832 +0.00 +0.01    -0.481 OA
DOCKED: ATOM     54  H   UNL d   1      -5.511  22.574  15.484 +0.00 -0.01    +0.295 HD
DOCKED: ENDBRANCH  51  53
DOCKED: ENDBRANCH  50  51
DOCKED: ENDBRANCH  49  50
DOCKED: ENDBRANCH  22  49
DOCKED: TORSDOF 13
DOCKED: TER
DOCKED: ENDMDL
________________________________________________________________________________


	BEGINNING GENETIC ALGORITHM DOCKING 2 of 100
Run: 2 Seed: 811065089 1541833436 [ Run 2 of 100 GA/GALS ]
Beginning LAMARCKIAN GENETIC ALGORITHM (LGA), with a maximum of 25000000 energy evaluations.

Final-Value: -10.507


	FINAL GENETIC ALGORITHM DOCKED STATE
	_______________________________________________


Detailed state:  trans 38.568 53.292 16.509 quatxyzw 0.374943 -0.431814 -0.270261 0.774540 center 0.153 0.018 -0.028 ntor 13 -93.5659 117.0152 130.4178 -65.7449 36.2239 -8.2124 -44.1006 -95.3030 122.3941 -141.4493 -131.1123 6.8611 -16.9343
State:	 38.568  53.292  16.509   0.593 -0.683 -0.427 78.473    -93.57  117.02  130.42  -65.74   36.22   -8.21  -44.10  -95.30  122.39 -141.45 -131.11    6.86  -16.93

DOCKED: MODEL        2
DOCKED: USER    Run = 2
DOCKED: USER    DPF = D:/Protein_go_brrr/autodock/final/2DN3/heme/dock.dpf
DOCKED: USER  
DOCKED: USER    Estimated Free Energy of Binding    =   -2.87 kcal/mol  [=(1)+(2)+(3)-(4)]
DOCKED: USER    Estimated Inhibition Constant, Ki   =    7.91 mM (millimolar)  [Temperature = 298.15 K]
DOCKED: USER    
DOCKED: USER    (1) Final Intermolecular Energy     =   -6.75 kcal/mol
DOCKED: USER        vdW + Hbond + desolv Energy     =   -6.12 kcal/mol
DOCKED: USER        Electrostatic Energy            =   -0.63 kcal/mol
DOCKED: USER    (2) Final Total Internal Energy     =   -3.76 kcal/mol
DOCKED: USER    (3) Torsional Free Energy           =   +3.88 kcal/mol
DOCKED: USER    (4) Unbound System's Energy  [=(2)] =   -3.76 kcal/mol
DOCKED: USER    
DOCKED: USER    
DOCKED: USER    NEWDPF move heme_opt.pdbqt
DOCKED: USER    NEWDPF about 0.153000 0.018000 -0.028000
DOCKED: USER    NEWDPF tran0 38.567927 53.291861 16.508648
DOCKED: USER    NEWDPF quaternion0 0.374943 -0.431814 -0.270261 0.774540
DOCKED: USER    NEWDPF axisangle0 0.592773 -0.682684 -0.427274 78.473223
DOCKED: USER    NEWDPF quat0 0.592773 -0.682684 -0.427274 78.473223
DOCKED: USER    NEWDPF dihe0 -93.57 117.02 130.42 -65.74 36.22 -8.21 -44.10 -95.30 122.39 -141.45 -131.11 6.86 -16.93 
DOCKED: USER  keepresnum = 1 
DOCKED: USER  
DOCKED: REMARK  13 active torsions:
DOCKED: REMARK  status: ('A' for Active; 'I' for Inactive)
DOCKED: REMARK    1  A    between atoms: O_3  and  C_38 
DOCKED: REMARK    2  A    between atoms: O_4  and  C_40 
DOCKED: REMARK    3  A    between atoms: O_7  and  C_46 
DOCKED: REMARK    4  A    between atoms: O_9  and  C_48 
DOCKED: REMARK    5  A    between atoms: C_15  and  C_20 
DOCKED: REMARK    6  A    between atoms: C_16  and  C_23 
DOCKED: REMARK    7  A    between atoms: C_20  and  C_38 
DOCKED: REMARK    8  A    between atoms: C_23  and  C_40 
DOCKED: REMARK    9  A    between atoms: C_32  and  C_41 
DOCKED: REMARK   10  A    between atoms: C_37  and  C_45 
DOCKED: REMARK   11  A    between atoms: C_41  and  C_44 
DOCKED: REMARK   12  A    between atoms: C_44  and  C_46 
DOCKED: REMARK   13  A    between atoms: C_47  and  C_48 
DOCKED: USER                              x       y       z     vdW  Elec       q    Type
DOCKED: USER                           _______ _______ _______ _____ _____    ______ ____
DOCKED: ROOT
DOCKED: ATOM      1  O   UNL d   1      34.917  54.255  21.036 -0.04 -0.04    -0.289 OA
DOCKED: ATOM      2  O   UNL d   1      40.152  48.979  19.962 -0.12 -0.07    -0.289 OA
DOCKED: ATOM      3  N   UNL d   1      36.745  54.003  18.122 -0.04 -0.08    -0.247 NA
DOCKED: ATOM      4  N   UNL d   1      38.721  51.870  18.738 -0.08 -0.11    -0.247 NA
DOCKED: ATOM      5  N   UNL d   1      40.171  52.664  16.385 -0.08 -0.24    -0.354 N 
DOCKED: ATOM      6  N   UNL d   1      38.127  54.887  15.765 -0.01 -0.15    -0.354 N 
DOCKED: ATOM      7  C   UNL d   1      35.117  55.606  19.009 -0.07 +0.01    +0.084 A 
DOCKED: ATOM      8  C   UNL d   1      38.098  50.224  20.432 -0.16 +0.02    +0.084 A 
DOCKED: ATOM      9  C   UNL d   1      37.776  51.517  19.675 -0.14 +0.02    +0.058 A 
DOCKED: ATOM     10  C   UNL d   1      36.062  55.183  17.881 -0.12 +0.01    +0.058 A 
DOCKED: ATOM     11  C   UNL d   1      35.373  54.446  19.924 -0.08 +0.03    +0.193 A 
DOCKED: ATOM     12  C   UNL d   1      36.357  53.532  19.263 -0.14 +0.03    +0.109 A 
DOCKED: ATOM     13  C   UNL d   1      39.417  49.930  19.777 -0.12 +0.05    +0.193 A 
DOCKED: ATOM     14  C   UNL d   1      35.583  56.891  19.698 -0.03 +0.00    +0.026 C 
DOCKED: ATOM     15  C   UNL d   1      36.694  52.264  19.942 -0.22 +0.01    +0.055 C 
DOCKED: ATOM     16  C   UNL d   1      37.114  49.103  20.084 -0.42 +0.01    +0.026 C 
DOCKED: ATOM     17  C   UNL d   1      39.683  51.006  18.775 -0.18 +0.04    +0.109 A 
DOCKED: ATOM     18  C   UNL d   1      36.132  55.873  16.727 -0.13 +0.01    +0.050 C 
DOCKED: ATOM     19  C   UNL d   1      36.912  55.511  15.599 -0.13 +0.01    +0.045 A 
DOCKED: ATOM     20  C   UNL d   1      41.081  51.805  16.944 -0.23 +0.02    +0.045 A 
DOCKED: ATOM     21  C   UNL d   1      40.935  51.004  18.004 -0.25 +0.02    +0.057 C 
DOCKED: ATOM     22  C   UNL d   1      42.047  52.838  15.151 -0.14 -0.00    -0.019 A 
DOCKED: ATOM     23  C   UNL d   1      40.664  53.334  15.297 -0.12 +0.02    +0.045 A 
DOCKED: ATOM     24  C   UNL d   1      42.288  51.933  16.128 -0.18 -0.00    -0.022 A 
DOCKED: ATOM     25  C   UNL d   1      38.751  54.711  14.552 -0.09 +0.02    +0.049 A 
DOCKED: ATOM     26  C   UNL d   1      36.724  55.713  14.240 -0.18 -0.00    -0.018 A 
DOCKED: ATOM     27  C   UNL d   1      37.879  55.188  13.583 -0.14 +0.00    +0.003 A 
DOCKED: ATOM     28  C   UNL d   1      40.086  54.229  14.481 -0.11 +0.02    +0.052 C 
DOCKED: ATOM     29  C   UNL d   1      43.530  51.151  16.390 +0.22 -0.00    +0.046 C 
DOCKED: ATOM     30  C   UNL d   1      35.544  56.352  13.590 -0.04 +0.00    +0.046 C 
DOCKED: ATOM     31  H   UNL d   1      39.216  52.711  16.723 +0.15 +0.13    +0.166 HD
DOCKED: ATOM     32  H   UNL d   1      38.509  54.637  16.670 +0.03 +0.06    +0.166 HD
DOCKED: ENDROOT
DOCKED: BRANCH   7  33
DOCKED: ATOM     33  C   UNL d   1      33.633  55.676  18.632 -0.12 +0.02    +0.141 C 
DOCKED: BRANCH  33  34
DOCKED: ATOM     34  C   UNL d   1      32.739  55.862  19.828 -0.04 +0.04    +0.306 C 
DOCKED: ATOM     35  O   UNL d   1      32.377  56.927  20.298 -0.02 -0.03    -0.251 OA
DOCKED: BRANCH  34  36
DOCKED: ATOM     36  O   UNL d   1      32.347  54.694  20.368 -0.04 -0.08    -0.481 OA
DOCKED: ATOM     37  H   UNL d   1      33.084  54.436  20.961 +0.08 +0.04    +0.295 HD
DOCKED: ENDBRANCH  34  36
DOCKED: ENDBRANCH  33  34
DOCKED: ENDBRANCH   7  33
DOCKED: BRANCH  27  38
DOCKED: ATOM     38  C   UNL d   1      38.104  55.206  12.169 -0.17 +0.00    +0.017 C 
DOCKED: ATOM     39  C   UNL d   1      38.583  54.181  11.447 -0.23 +0.03    +0.092 C 
DOCKED: BRANCH  39  40
DOCKED: ATOM     40  C   UNL d   1      38.750  54.323   9.999 -0.10 +0.07    +0.330 C 
DOCKED: ATOM     41  O   UNL d   1      38.347  55.224   9.288 -0.15 -0.07    -0.246 OA
DOCKED: BRANCH  40  42
DOCKED: ATOM     42  O   UNL d   1      39.449  53.286   9.511 -0.11 +0.10    -0.477 OA
DOCKED: ATOM     43  H   UNL d   1      40.322  53.367   9.947 -0.41 -0.33    +0.295 HD
DOCKED: ENDBRANCH  40  42
DOCKED: ENDBRANCH  39  40
DOCKED: ENDBRANCH  27  38
DOCKED: BRANCH   8  44
DOCKED: ATOM     44  C   UNL d   1      38.258  50.369  21.949 -0.07 +0.02    +0.141 C 
DOCKED: BRANCH  44  45
DOCKED: ATOM     45  C   UNL d   1      38.308  49.049  22.671 -0.04 +0.03    +0.306 C 
DOCKED: ATOM     46  O   UNL d   1      37.356  48.416  23.094 -0.12 -0.02    -0.251 OA
DOCKED: BRANCH  45  47
DOCKED: ATOM     47  O   UNL d   1      39.565  48.605  22.847 +0.02 -0.05    -0.481 OA
DOCKED: ATOM     48  H   UNL d   1      39.975  48.663  21.958 +0.08 +0.04    +0.295 HD
DOCKED: ENDBRANCH  45  47
DOCKED: ENDBRANCH  44  45
DOCKED: ENDBRANCH   8  44
DOCKED: BRANCH  22  49
DOCKED: ATOM     49  C   UNL d   1      43.000  53.302  14.089 -0.09 +0.00    +0.048 C 
DOCKED: BRANCH  49  50
DOCKED: ATOM     50  C   UNL d   1      43.089  52.309  12.931 -0.18 -0.00    +0.125 C 
DOCKED: BRANCH  50  51
DOCKED: ATOM     51  C   UNL d   1      41.720  51.928  12.443 -0.23 +0.03    +0.305 C 
DOCKED: ATOM     52  O   UNL d   1      41.103  50.906  12.685 -0.47 -0.15    -0.251 OA
DOCKED: BRANCH  51  53
DOCKED: ATOM     53  O   UNL d   1      41.188  52.875  11.645 -0.06 +0.10    -0.481 OA
DOCKED: ATOM     54  H   UNL d   1      41.133  52.443  10.767 -0.22 -0.31    +0.295 HD
DOCKED: ENDBRANCH  51  53
DOCKED: ENDBRANCH  50  51
DOCKED: ENDBRANCH  49  50
DOCKED: ENDBRANCH  22  49
DOCKED: TORSDOF 13
DOCKED: TER
DOCKED: ENDMDL
________________________________________________________________________________


	BEGINNING GENETIC ALGORITHM DOCKING 3 of 100
Run: 3 Seed: 7806827 308523176 [ Run 3 of 100 GA/GALS ]
Beginning LAMARCKIAN GENETIC ALGORITHM (LGA), with a maximum of 25000000 energy evaluations.

Final-Value: -11.903


	FINAL GENETIC ALGORITHM DOCKED STATE
	_______________________________________________


Detailed state:  trans 22.801 43.794 28.513 quatxyzw -0.920872 -0.297238 -0.072507 0.241632 center 0.153 0.018 -0.028 ntor 13 106.1355 49.6206 101.6634 -114.5848 -131.0161 168.8711 -45.1507 127.0408 33.9058 -124.6770 88.3597 -72.9505 10.0695
State:	 22.801  43.794  28.513  -0.949 -0.306 -0.075 152.034    106.14   49.62  101.66 -114.58 -131.02  168.87  -45.15  127.04   33.91 -124.68   88.36  -72.95   10.07

DOCKED: MODEL        3
DOCKED: USER    Run = 3
DOCKED: USER    DPF = D:/Protein_go_brrr/autodock/final/2DN3/heme/dock.dpf
DOCKED: USER  
DOCKED: USER    Estimated Free Energy of Binding    =   -5.45 kcal/mol  [=(1)+(2)+(3)-(4)]
DOCKED: USER    Estimated Inhibition Constant, Ki   =  100.85 uM (micromolar)  [Temperature = 298.15 K]
DOCKED: USER    
DOCKED: USER    (1) Final Intermolecular Energy     =   -9.33 kcal/mol
DOCKED: USER        vdW + Hbond + desolv Energy     =   -8.76 kcal/mol
DOCKED: USER        Electrostatic Energy            =   -0.57 kcal/mol
DOCKED: USER    (2) Final Total Internal Energy     =   -2.57 kcal/mol
DOCKED: USER    (3) Torsional Free Energy           =   +3.88 kcal/mol
DOCKED: USER    (4) Unbound System's Energy  [=(2)] =   -2.57 kcal/mol
DOCKED: USER    
DOCKED: USER    
DOCKED: USER    NEWDPF move heme_opt.pdbqt
DOCKED: USER    NEWDPF about 0.153000 0.018000 -0.028000
DOCKED: USER    NEWDPF tran0 22.801157 43.794307 28.513275
DOCKED: USER    NEWDPF quaternion0 -0.920872 -0.297238 -0.072507 0.241632
DOCKED: USER    NEWDPF axisangle0 -0.948993 -0.306315 -0.074721 152.034208
DOCKED: USER    NEWDPF quat0 -0.948993 -0.306315 -0.074721 152.034208
DOCKED: USER    NEWDPF dihe0 106.14 49.62 101.66 -114.58 -131.02 168.87 -45.15 127.04 33.91 -124.68 88.36 -72.95 10.07 
DOCKED: USER  keepresnum = 1 
DOCKED: USER  
DOCKED: REMARK  13 active torsions:
DOCKED: REMARK  status: ('A' for Active; 'I' for Inactive)
DOCKED: REMARK    1  A    between atoms: O_3  and  C_38 
DOCKED: REMARK    2  A    between atoms: O_4  and  C_40 
DOCKED: REMARK    3  A    between atoms: O_7  and  C_46 
DOCKED: REMARK    4  A    between atoms: O_9  and  C_48 
DOCKED: REMARK    5  A    between atoms: C_15  and  C_20 
DOCKED: REMARK    6  A    between atoms: C_16  and  C_23 
DOCKED: REMARK    7  A    between atoms: C_20  and  C_38 
DOCKED: REMARK    8  A    between atoms: C_23  and  C_40 
DOCKED: REMARK    9  A    between atoms: C_32  and  C_41 
DOCKED: REMARK   10  A    between atoms: C_37  and  C_45 
DOCKED: REMARK   11  A    between atoms: C_41  and  C_44 
DOCKED: REMARK   12  A    between atoms: C_44  and  C_46 
DOCKED: REMARK   13  A    between atoms: C_47  and  C_48 
DOCKED: USER                              x       y       z     vdW  Elec       q    Type
DOCKED: USER                           _______ _______ _______ _____ _____    ______ ____
DOCKED: ROOT
DOCKED: ATOM      1  O   UNL d   1      19.286  39.072  28.829 -0.49 -0.03    -0.289 OA
DOCKED: ATOM      2  O   UNL d   1      17.721  46.305  27.553 -0.04 +0.02    -0.289 OA
DOCKED: ATOM      3  N   UNL d   1      21.694  41.540  28.871 -0.11 +0.04    -0.247 NA
DOCKED: ATOM      4  N   UNL d   1      20.213  43.956  27.978 -0.09 +0.03    -0.247 NA
DOCKED: ATOM      5  N   UNL d   1      22.748  45.258  27.600 -0.11 +0.11    -0.354 N 
DOCKED: ATOM      6  N   UNL d   1      24.278  42.741  28.509 -0.11 +0.13    -0.354 N 
DOCKED: ATOM      7  C   UNL d   1      21.722  39.095  29.029 -0.27 -0.01    +0.084 A 
DOCKED: ATOM      8  C   UNL d   1      17.804  44.005  28.387 -0.06 -0.01    +0.084 A 
DOCKED: ATOM      9  C   UNL d   1      19.129  43.236  28.428 -0.09 -0.00    +0.058 A 
DOCKED: ATOM     10  C   UNL d   1      22.494  40.417  29.002 -0.25 -0.01    +0.058 A 
DOCKED: ATOM     11  C   UNL d   1      20.343  39.671  28.909 -0.17 -0.01    +0.193 A 
DOCKED: ATOM     12  C   UNL d   1      20.458  41.162  28.847 -0.13 -0.01    +0.109 A 
DOCKED: ATOM     13  C   UNL d   1      18.331  45.282  27.796 -0.06 -0.01    +0.193 A 
DOCKED: ATOM     14  C   UNL d   1      22.009  38.236  27.794 -0.43 -0.01    +0.026 C 
DOCKED: ATOM     15  C   UNL d   1      19.213  41.955  28.820 -0.10 -0.00    +0.055 C 
DOCKED: ATOM     16  C   UNL d   1      17.274  44.297  29.794 -0.02 -0.00    +0.026 C 
DOCKED: ATOM     17  C   UNL d   1      19.802  45.120  27.588 -0.02 -0.01    +0.109 A 
DOCKED: ATOM     18  C   UNL d   1      23.827  40.457  29.183 -0.20 -0.01    +0.050 C 
DOCKED: ATOM     19  C   UNL d   1      24.612  41.635  29.258 -0.28 -0.01    +0.045 A 
DOCKED: ATOM     20  C   UNL d   1      21.921  46.177  27.008 -0.26 -0.01    +0.045 A 
DOCKED: ATOM     21  C   UNL d   1      20.585  46.204  26.977 -0.20 -0.01    +0.057 C 
DOCKED: ATOM     22  C   UNL d   1      24.090  46.794  26.644 -0.31 +0.01    -0.019 A 
DOCKED: ATOM     23  C   UNL d   1      24.077  45.546  27.433 -0.20 -0.02    +0.045 A 
DOCKED: ATOM     24  C   UNL d   1      22.811  47.163  26.397 -0.34 +0.01    -0.022 A 
DOCKED: ATOM     25  C   UNL d   1      25.220  43.732  28.664 -0.25 -0.01    +0.049 A 
DOCKED: ATOM     26  C   UNL d   1      25.781  41.928  29.944 -0.28 +0.01    -0.018 A 
DOCKED: ATOM     27  C   UNL d   1      26.149  43.260  29.581 -0.27 -0.00    +0.003 A 
DOCKED: ATOM     28  C   UNL d   1      25.175  44.911  27.871 -0.17 -0.02    +0.052 C 
DOCKED: ATOM     29  C   UNL d   1      22.312  48.354  25.652 -0.20 -0.03    +0.046 C 
DOCKED: ATOM     30  C   UNL d   1      26.511  41.028  30.883 -0.15 -0.02    +0.046 C 
DOCKED: ATOM     31  H   UNL d   1      22.376  44.501  28.164 +0.02 -0.04    +0.166 HD
DOCKED: ATOM     32  H   UNL d   1      23.468  42.783  27.903 -0.44 -0.10    +0.166 HD
DOCKED: ENDROOT
DOCKED: BRANCH   7  33
DOCKED: ATOM     33  C   UNL d   1      21.855  38.282  30.321 -0.18 +0.01    +0.141 C 
DOCKED: BRANCH  33  34
DOCKED: ATOM     34  C   UNL d   1      20.933  38.768  31.408 -0.07 +0.02    +0.306 C 
DOCKED: ATOM     35  O   UNL d   1      21.093  39.760  32.098 -0.03 -0.00    -0.251 OA
DOCKED: BRANCH  34  36
DOCKED: ATOM     36  O   UNL d   1      19.857  37.978  31.565 -0.05 -0.08    -0.481 OA
DOCKED: ATOM     37  H   UNL d   1      19.271  38.206  30.813 +0.07 +0.04    +0.295 HD
DOCKED: ENDBRANCH  34  36
DOCKED: ENDBRANCH  33  34
DOCKED: ENDBRANCH   7  33
DOCKED: BRANCH  27  38
DOCKED: ATOM     38  C   UNL d   1      27.309  43.954  30.054 -0.23 -0.00    +0.017 C 
DOCKED: ATOM     39  C   UNL d   1      28.052  44.804  29.329 -0.30 -0.02    +0.092 C 
DOCKED: BRANCH  39  40
DOCKED: ATOM     40  C   UNL d   1      29.209  45.464  29.938 -0.16 -0.05    +0.330 C 
DOCKED: ATOM     41  O   UNL d   1      30.098  46.075  29.376 -0.27 +0.05    -0.246 OA
DOCKED: BRANCH  40  42
DOCKED: ATOM     42  O   UNL d   1      29.173  45.320  31.272 -0.11 +0.01    -0.477 OA
DOCKED: ATOM     43  H   UNL d   1      29.312  46.229  31.610 +0.07 -0.01    +0.295 HD
DOCKED: ENDBRANCH  40  42
DOCKED: ENDBRANCH  39  40
DOCKED: ENDBRANCH  27  38
DOCKED: BRANCH   8  44
DOCKED: ATOM     44  C   UNL d   1      16.714  43.398  27.498 -0.07 -0.01    +0.141 C 
DOCKED: BRANCH  44  45
DOCKED: ATOM     45  C   UNL d   1      15.487  44.262  27.389 -0.02 -0.03    +0.306 C 
DOCKED: ATOM     46  O   UNL d   1      14.514  44.239  28.122 -0.01 +0.02    -0.251 OA
DOCKED: BRANCH  45  47
DOCKED: ATOM     47  O   UNL d   1      15.538  45.097  26.336 -0.01 +0.04    -0.481 OA
DOCKED: ATOM     48  H   UNL d   1      16.115  45.834  26.631 +0.04 -0.02    +0.295 HD
DOCKED: ENDBRANCH  45  47
DOCKED: ENDBRANCH  44  45
DOCKED: ENDBRANCH   8  44
DOCKED: BRANCH  22  49
DOCKED: ATOM     49  C   UNL d   1      25.340  47.494  26.197 -0.25 -0.03    +0.048 C 
DOCKED: BRANCH  49  50
DOCKED: ATOM     50  C   UNL d   1      26.041  48.202  27.356 -0.25 -0.02    +0.125 C 
DOCKED: BRANCH  50  51
DOCKED: ATOM     51  C   UNL d   1      25.558  49.617  27.492 -0.13 +0.04    +0.305 C 
DOCKED: ATOM     52  O   UNL d   1      25.025  50.131  28.461 -0.04 -0.03    -0.251 OA
DOCKED: BRANCH  51  53
DOCKED: ATOM     53  O   UNL d   1      25.764  50.331  26.368 -0.35 -0.41    -0.481 OA
DOCKED: ATOM     54  H   UNL d   1      25.190  49.898  25.702 -0.32 -0.06    +0.295 HD
DOCKED: ENDBRANCH  51  53
DOCKED: ENDBRANCH  50  51
DOCKED: ENDBRANCH  49  50
DOCKED: ENDBRANCH  22  49
DOCKED: TORSDOF 13
DOCKED: TER
DOCKED: ENDMDL
________________________________________________________________________________


	BEGINNING GENETIC ALGORITHM DOCKING 4 of 100
Run: 4 Seed: 2098542142 2089165450 [ Run 4 of 100 GA/GALS ]
Beginning LAMARCKIAN GENETIC ALGORITHM (LGA), with a maximum of 25000000 energy evaluations.

Final-Value: -11.466


	FINAL GENETIC ALGORITHM DOCKED STATE
	_______________________________________________


Detailed state:  trans 36.201 49.822 22.254 quatxyzw 0.155597 -0.575016 -0.379123 0.708104 center 0.153 0.018 -0.028 ntor 13 -118.0420 60.4747 104.2922 -1.5341 37.4452 -164.0293 -44.2019 -155.5014 90.4303 -117.1173 -53.4321 -96.3510 -179.7539
State:	 36.201  49.822  22.254   0.220 -0.814 -0.537 89.838   -118.04   60.47  104.29   -1.53   37.45 -164.03  -44.20 -155.50   90.43 -117.12  -53.43  -96.35 -179.75

DOCKED: MODEL        4
DOCKED: USER    Run = 4
DOCKED: USER    DPF = D:/Protein_go_brrr/autodock/final/2DN3/heme/dock.dpf
DOCKED: USER  
DOCKED: USER    Estimated Free Energy of Binding    =   -5.58 kcal/mol  [=(1)+(2)+(3)-(4)]
DOCKED: USER    Estimated Inhibition Constant, Ki   =   81.61 uM (micromolar)  [Temperature = 298.15 K]
DOCKED: USER    
DOCKED: USER    (1) Final Intermolecular Energy     =   -9.46 kcal/mol
DOCKED: USER        vdW + Hbond + desolv Energy     =   -9.16 kcal/mol
DOCKED: USER        Electrostatic Energy            =   -0.29 kcal/mol
DOCKED: USER    (2) Final Total Internal Energy     =   -2.01 kcal/mol
DOCKED: USER    (3) Torsional Free Energy           =   +3.88 kcal/mol
DOCKED: USER    (4) Unbound System's Energy  [=(2)] =   -2.01 kcal/mol
DOCKED: USER    
DOCKED: USER    
DOCKED: USER    NEWDPF move heme_opt.pdbqt
DOCKED: USER    NEWDPF about 0.153000 0.018000 -0.028000
DOCKED: USER    NEWDPF tran0 36.200622 49.822265 22.253888
DOCKED: USER    NEWDPF quaternion0 0.155597 -0.575016 -0.379123 0.708104
DOCKED: USER    NEWDPF axisangle0 0.220359 -0.814346 -0.536920 89.838212
DOCKED: USER    NEWDPF quat0 0.220359 -0.814346 -0.536920 89.838212
DOCKED: USER    NEWDPF dihe0 -118.04 60.47 104.29 -1.53 37.45 -164.03 -44.20 -155.50 90.43 -117.12 -53.43 -96.35 -179.75 
DOCKED: USER  keepresnum = 1 
DOCKED: USER  
DOCKED: REMARK  13 active torsions:
DOCKED: REMARK  status: ('A' for Active; 'I' for Inactive)
DOCKED: REMARK    1  A    between atoms: O_3  and  C_38 
DOCKED: REMARK    2  A    between atoms: O_4  and  C_40 
DOCKED: REMARK    3  A    between atoms: O_7  and  C_46 
DOCKED: REMARK    4  A    between atoms: O_9  and  C_48 
DOCKED: REMARK    5  A    between atoms: C_15  and  C_20 
DOCKED: REMARK    6  A    between atoms: C_16  and  C_23 
DOCKED: REMARK    7  A    between atoms: C_20  and  C_38 
DOCKED: REMARK    8  A    between atoms: C_23  and  C_40 
DOCKED: REMARK    9  A    between atoms: C_32  and  C_41 
DOCKED: REMARK   10  A    between atoms: C_37  and  C_45 
DOCKED: REMARK   11  A    between atoms: C_41  and  C_44 
DOCKED: REMARK   12  A    between atoms: C_44  and  C_46 
DOCKED: REMARK   13  A    between atoms: C_47  and  C_48 
DOCKED: USER                              x       y       z     vdW  Elec       q    Type
DOCKED: USER                           _______ _______ _______ _____ _____    ______ ____
DOCKED: ROOT
DOCKED: ATOM      1  O   UNL d   1      35.155  49.361  28.037 -0.08 -0.01    -0.289 OA
DOCKED: ATOM      2  O   UNL d   1      38.434  44.616  23.228 -0.38 -0.07    -0.289 OA
DOCKED: ATOM      3  N   UNL d   1      35.428  50.014  24.662 -0.01 -0.01    -0.247 NA
DOCKED: ATOM      4  N   UNL d   1      37.097  47.768  23.664 -0.13 -0.02    -0.247 NA
DOCKED: ATOM      5  N   UNL d   1      37.456  49.242  21.222 -0.07 -0.06    -0.354 N 
DOCKED: ATOM      6  N   UNL d   1      35.740  51.577  22.273 -0.06 -0.04    -0.354 N 
DOCKED: ATOM      7  C   UNL d   1      34.648  51.280  26.611 -0.08 +0.00    +0.084 A 
DOCKED: ATOM      8  C   UNL d   1      37.035  45.680  24.932 -0.28 +0.00    +0.084 A 
DOCKED: ATOM      9  C   UNL d   1      36.625  47.150  24.801 -0.26 +0.00    +0.058 A 
DOCKED: ATOM     10  C   UNL d   1      34.910  51.220  25.103 -0.11 +0.00    +0.058 A 
DOCKED: ATOM     11  C   UNL d   1      35.092  49.887  26.941 -0.07 -0.00    +0.193 A 
DOCKED: ATOM     12  C   UNL d   1      35.517  49.213  25.673 +0.09 -0.00    +0.109 A 
DOCKED: ATOM     13  C   UNL d   1      37.859  45.588  23.678 -0.17 +0.02    +0.193 A 
DOCKED: ATOM     14  C   UNL d   1      35.573  52.275  27.316 -0.03 +0.00    +0.026 C 
DOCKED: ATOM     15  C   UNL d   1      35.911  47.791  25.739 -0.28 +0.00    +0.055 C 
DOCKED: ATOM     16  C   UNL d   1      35.833  44.741  24.801 -0.60 -0.00    +0.026 C 
DOCKED: ATOM     17  C   UNL d   1      37.822  46.921  23.005 -0.19 +0.01    +0.109 A 
DOCKED: ATOM     18  C   UNL d   1      34.570  52.238  24.290 -0.13 +0.01    +0.050 C 
DOCKED: ATOM     19  C   UNL d   1      34.696  52.240  22.877 -0.15 +0.01    +0.045 A 
DOCKED: ATOM     20  C   UNL d   1      38.368  48.237  21.026 -0.22 +0.01    +0.045 A 
DOCKED: ATOM     21  C   UNL d   1      38.581  47.144  21.766 -0.26 +0.01    +0.057 C 
DOCKED: ATOM     22  C   UNL d   1      38.587  49.769  19.346 -0.27 -0.01    -0.019 A 
DOCKED: ATOM     23  C   UNL d   1      37.514  50.213  20.258 -0.24 +0.01    +0.045 A 
DOCKED: ATOM     24  C   UNL d   1      39.088  48.598  19.806 -0.27 -0.01    -0.022 A 
DOCKED: ATOM     25  C   UNL d   1      35.721  51.784  20.913 -0.22 +0.01    +0.049 A 
DOCKED: ATOM     26  C   UNL d   1      33.959  52.863  21.882 -0.21 -0.00    -0.018 A 
DOCKED: ATOM     27  C   UNL d   1      34.599  52.556  20.642 -0.28 +0.00    +0.003 A 
DOCKED: ATOM     28  C   UNL d   1      36.788  51.329  20.091 -0.26 +0.01    +0.052 C 
DOCKED: ATOM     29  C   UNL d   1      40.172  47.755  19.225 -0.38 +0.01    +0.046 C 
DOCKED: ATOM     30  C   UNL d   1      32.734  53.692  22.069 -0.18 +0.01    +0.046 C 
DOCKED: ATOM     31  H   UNL d   1      36.772  49.194  21.969 +0.07 +0.02    +0.166 HD
DOCKED: ATOM     32  H   UNL d   1      36.439  51.049  22.782 +0.05 +0.02    +0.166 HD
DOCKED: ENDROOT
DOCKED: BRANCH   7  33
DOCKED: ATOM     33  C   UNL d   1      33.184  51.488  27.016 -0.11 +0.01    +0.141 C 
DOCKED: BRANCH  33  34
DOCKED: ATOM     34  C   UNL d   1      32.777  50.625  28.180 -0.07 +0.01    +0.306 C 
DOCKED: ATOM     35  O   UNL d   1      32.830  50.934  29.358 -0.02 -0.02    -0.251 OA
DOCKED: BRANCH  34  36
DOCKED: ATOM     36  O   UNL d   1      32.323  49.419  27.797 -0.12 +0.02    -0.481 OA
DOCKED: ATOM     37  H   UNL d   1      33.072  49.017  27.307 -0.28 -0.07    +0.295 HD
DOCKED: ENDBRANCH  34  36
DOCKED: ENDBRANCH  33  34
DOCKED: ENDBRANCH   7  33
DOCKED: BRANCH  27  38
DOCKED: ATOM     38  C   UNL d   1      34.171  53.016  19.356 -0.16 +0.00    +0.017 C 
DOCKED: ATOM     39  C   UNL d   1      34.905  53.760  18.515 -0.20 +0.02    +0.092 C 
DOCKED: BRANCH  39  40
DOCKED: ATOM     40  C   UNL d   1      34.354  54.152  17.215 -0.20 +0.08    +0.330 C 
DOCKED: ATOM     41  O   UNL d   1      34.953  54.612  16.262 -0.26 -0.07    -0.246 OA
DOCKED: BRANCH  40  42
DOCKED: ATOM     42  O   UNL d   1      33.032  53.924  17.187 -0.22 -0.06    -0.477 OA
DOCKED: ATOM     43  H   UNL d   1      32.919  53.285  16.454 -0.38 -0.01    +0.295 HD
DOCKED: ENDBRANCH  40  42
DOCKED: ENDBRANCH  39  40
DOCKED: ENDBRANCH  27  38
DOCKED: BRANCH   8  44
DOCKED: ATOM     44  C   UNL d   1      37.875  45.337  26.167 -0.17 +0.01    +0.141 C 
DOCKED: BRANCH  44  45
DOCKED: ATOM     45  C   UNL d   1      38.513  43.975  26.092 -0.11 +0.04    +0.306 C 
DOCKED: ATOM     46  O   UNL d   1      38.021  42.921  26.457 -0.17 -0.04    -0.251 OA
DOCKED: BRANCH  45  47
DOCKED: ATOM     47  O   UNL d   1      39.757  44.017  25.582 +0.01 -0.07    -0.481 OA
DOCKED: ATOM     48  H   UNL d   1      39.626  44.129  24.617 +0.12 +0.03    +0.295 HD
DOCKED: ENDBRANCH  45  47
DOCKED: ENDBRANCH  44  45
DOCKED: ENDBRANCH   8  44
DOCKED: BRANCH  22  49
DOCKED: ATOM     49  C   UNL d   1      39.030  50.530  18.131 +0.07 +0.03    +0.048 C 
DOCKED: BRANCH  49  50
DOCKED: ATOM     50  C   UNL d   1      40.259  51.393  18.417 -0.19 +0.05    +0.125 C 
DOCKED: BRANCH  50  51
DOCKED: ATOM     51  C   UNL d   1      41.349  51.121  17.419 -0.17 +0.13    +0.305 C 
DOCKED: ATOM     52  O   UNL d   1      42.533  51.387  17.522 -0.13 -0.05    -0.251 OA
DOCKED: BRANCH  51  53
DOCKED: ATOM     53  O   UNL d   1      40.877  50.522  16.308 -0.54 -0.41    -0.481 OA
DOCKED: ATOM     54  H   UNL d   1      41.666  50.430  15.734 -0.19 +0.13    +0.295 HD
DOCKED: ENDBRANCH  51  53
DOCKED: ENDBRANCH  50  51
DOCKED: ENDBRANCH  49  50
DOCKED: ENDBRANCH  22  49
DOCKED: TORSDOF 13
DOCKED: TER
DOCKED: ENDMDL
________________________________________________________________________________


	BEGINNING GENETIC ALGORITHM DOCKING 5 of 100
Run: 5 Seed: 2017269284 1582174128 [ Run 5 of 100 GA/GALS ]
Beginning LAMARCKIAN GENETIC ALGORITHM (LGA), with a maximum of 25000000 energy evaluations.

Final-Value: -13.686


	FINAL GENETIC ALGORITHM DOCKED STATE
	_______________________________________________


Detailed state:  trans 12.224 40.413 24.981 quatxyzw -0.720451 0.493034 -0.417978 0.251321 center 0.153 0.018 -0.028 ntor 13 92.9642 -108.5089 115.2018 62.0362 -130.5997 23.2667 -53.2069 -95.7927 48.2802 -137.7753 -86.1991 -71.5907 -7.1640
State:	 12.224  40.413  24.981  -0.744  0.509 -0.432 150.889     92.96 -108.51  115.20   62.04 -130.60   23.27  -53.21  -95.79   48.28 -137.78  -86.20  -71.59   -7.16

DOCKED: MODEL        5
DOCKED: USER    Run = 5
DOCKED: USER    DPF = D:/Protein_go_brrr/autodock/final/2DN3/heme/dock.dpf
DOCKED: USER  
DOCKED: USER    Estimated Free Energy of Binding    =   -5.18 kcal/mol  [=(1)+(2)+(3)-(4)]
DOCKED: USER    Estimated Inhibition Constant, Ki   =  158.43 uM (micromolar)  [Temperature = 298.15 K]
DOCKED: USER    
DOCKED: USER    (1) Final Intermolecular Energy     =   -9.06 kcal/mol
DOCKED: USER        vdW + Hbond + desolv Energy     =   -8.97 kcal/mol
DOCKED: USER        Electrostatic Energy            =   -0.09 kcal/mol
DOCKED: USER    (2) Final Total Internal Energy     =   -4.62 kcal/mol
DOCKED: USER    (3) Torsional Free Energy           =   +3.88 kcal/mol
DOCKED: USER    (4) Unbound System's Energy  [=(2)] =   -4.62 kcal/mol
DOCKED: USER    
DOCKED: USER    
DOCKED: USER    NEWDPF move heme_opt.pdbqt
DOCKED: USER    NEWDPF about 0.153000 0.018000 -0.028000
DOCKED: USER    NEWDPF tran0 12.223786 40.412544 24.981433
DOCKED: USER    NEWDPF quaternion0 -0.720451 0.493034 -0.417978 0.251321
DOCKED: USER    NEWDPF axisangle0 -0.744342 0.509383 -0.431839 150.888662
DOCKED: USER    NEWDPF quat0 -0.744342 0.509383 -0.431839 150.888662
DOCKED: USER    NEWDPF dihe0 92.96 -108.51 115.20 62.04 -130.60 23.27 -53.21 -95.79 48.28 -137.78 -86.20 -71.59 -7.16 
DOCKED: USER  keepresnum = 1 
DOCKED: USER  
DOCKED: REMARK  13 active torsions:
DOCKED: REMARK  status: ('A' for Active; 'I' for Inactive)
DOCKED: REMARK    1  A    between atoms: O_3  and  C_38 
DOCKED: REMARK    2  A    between atoms: O_4  and  C_40 
DOCKED: REMARK    3  A    between atoms: O_7  and  C_46 
DOCKED: REMARK    4  A    between atoms: O_9  and  C_48 
DOCKED: REMARK    5  A    between atoms: C_15  and  C_20 
DOCKED: REMARK    6  A    between atoms: C_16  and  C_23 
DOCKED: REMARK    7  A    between atoms: C_20  and  C_38 
DOCKED: REMARK    8  A    between atoms: C_23  and  C_40 
DOCKED: REMARK    9  A    between atoms: C_32  and  C_41 
DOCKED: REMARK   10  A    between atoms: C_37  and  C_45 
DOCKED: REMARK   11  A    between atoms: C_41  and  C_44 
DOCKED: REMARK   12  A    between atoms: C_44  and  C_46 
DOCKED: REMARK   13  A    between atoms: C_47  and  C_48 
DOCKED: USER                              x       y       z     vdW  Elec       q    Type
DOCKED: USER                           _______ _______ _______ _____ _____    ______ ____
DOCKED: ROOT
DOCKED: ATOM      1  O   UNL d   1       9.976  42.064  19.787 -0.17 +0.14    -0.289 OA
DOCKED: ATOM      2  O   UNL d   1      15.688  44.842  23.793 -0.12 +0.04    -0.289 OA
DOCKED: ATOM      3  N   UNL d   1      10.857  40.834  22.887 -0.17 +0.07    -0.247 NA
DOCKED: ATOM      4  N   UNL d   1      13.349  42.319  23.528 -0.12 +0.08    -0.247 NA
DOCKED: ATOM      5  N   UNL d   1      13.814  40.437  25.651 -0.02 +0.16    -0.354 N 
DOCKED: ATOM      6  N   UNL d   1      11.237  38.891  24.967 -0.13 +0.15    -0.354 N 
DOCKED: ATOM      7  C   UNL d   1       9.254  40.171  21.155 -0.32 -0.02    +0.084 A 
DOCKED: ATOM      8  C   UNL d   1      13.645  44.509  22.486 -0.14 -0.02    +0.084 A 
DOCKED: ATOM      9  C   UNL d   1      12.832  43.217  22.622 -0.21 -0.01    +0.058 A 
DOCKED: ATOM     10  C   UNL d   1       9.887  39.913  22.526 -0.30 -0.01    +0.058 A 
DOCKED: ATOM     11  C   UNL d   1      10.023  41.412  20.814 -0.16 -0.06    +0.193 A 
DOCKED: ATOM     12  C   UNL d   1      10.943  41.725  21.954 -0.20 -0.03    +0.109 A 
DOCKED: ATOM     13  C   UNL d   1      14.739  44.161  23.456 -0.14 -0.04    +0.193 A 
DOCKED: ATOM     14  C   UNL d   1       9.605  39.077  20.145 -0.51 -0.00    +0.026 C 
DOCKED: ATOM     15  C   UNL d   1      11.741  42.965  21.882 -0.23 -0.01    +0.055 C 
DOCKED: ATOM     16  C   UNL d   1      12.879  45.721  23.023 -0.05 -0.00    +0.026 C 
DOCKED: ATOM     17  C   UNL d   1      14.447  42.806  24.012 -0.21 -0.03    +0.109 A 
DOCKED: ATOM     18  C   UNL d   1       9.453  38.921  23.325 -0.35 -0.01    +0.050 C 
DOCKED: ATOM     19  C   UNL d   1       9.920  38.660  24.639 -0.24 -0.01    +0.045 A 
DOCKED: ATOM     20  C   UNL d   1      15.018  41.093  25.651 -0.25 -0.01    +0.045 A 
DOCKED: ATOM     21  C   UNL d   1      15.378  42.181  24.963 -0.28 -0.02    +0.057 C 
DOCKED: ATOM     22  C   UNL d   1      15.147  39.317  27.082 -0.25 +0.01    -0.019 A 
DOCKED: ATOM     23  C   UNL d   1      13.796  39.350  26.485 -0.26 -0.02    +0.045 A 
DOCKED: ATOM     24  C   UNL d   1      15.864  40.353  26.585 -0.27 +0.00    -0.022 A 
DOCKED: ATOM     25  C   UNL d   1      11.492  38.485  26.257 -0.26 -0.02    +0.049 A 
DOCKED: ATOM     26  C   UNL d   1       9.294  38.126  25.755 -0.23 +0.00    -0.018 A 
DOCKED: ATOM     27  C   UNL d   1      10.287  38.036  26.779 -0.21 -0.00    +0.003 A 
DOCKED: ATOM     28  C   UNL d   1      12.817  38.478  26.770 -0.32 -0.03    +0.052 C 
DOCKED: ATOM     29  C   UNL d   1      17.269  40.746  26.892 -0.27 -0.01    +0.046 C 
DOCKED: ATOM     30  C   UNL d   1       7.863  37.724  25.866 -0.24 -0.00    +0.046 C 
DOCKED: ATOM     31  H   UNL d   1      13.018  40.797  25.136 -0.24 -0.08    +0.166 HD
DOCKED: ATOM     32  H   UNL d   1      11.918  39.269  24.319 -0.37 -0.12    +0.166 HD
DOCKED: ENDROOT
DOCKED: BRANCH   7  33
DOCKED: ATOM     33  C   UNL d   1       7.749  40.459  21.171 -0.26 -0.03    +0.141 C 
DOCKED: BRANCH  33  34
DOCKED: ATOM     34  C   UNL d   1       7.441  41.932  21.168 -0.11 -0.11    +0.306 C 
DOCKED: ATOM     35  O   UNL d   1       7.531  42.689  22.120 -0.05 +0.08    -0.251 OA
DOCKED: BRANCH  34  36
DOCKED: ATOM     36  O   UNL d   1       7.038  42.375  19.964 -0.16 +0.40    -0.481 OA
DOCKED: ATOM     37  H   UNL d   1       7.866  42.637  19.508 -0.18 -0.36    +0.295 HD
DOCKED: ENDBRANCH  34  36
DOCKED: ENDBRANCH  33  34
DOCKED: ENDBRANCH   7  33
DOCKED: BRANCH  27  38
DOCKED: ATOM     38  C   UNL d   1      10.068  37.521  28.097 -0.16 -0.01    +0.017 C 
DOCKED: ATOM     39  C   UNL d   1      10.963  36.827  28.816 -0.09 -0.05    +0.092 C 
DOCKED: BRANCH  39  40
DOCKED: ATOM     40  C   UNL d   1      10.620  36.370  30.165 -0.06 -0.08    +0.330 C 
DOCKED: ATOM     41  O   UNL d   1       9.510  36.215  30.638 -0.03 +0.01    -0.246 OA
DOCKED: BRANCH  40  42
DOCKED: ATOM     42  O   UNL d   1      11.736  36.116  30.865 -0.03 +0.11    -0.477 OA
DOCKED: ATOM     43  H   UNL d   1      12.111  37.003  31.040 +0.04 -0.05    +0.295 HD
DOCKED: ENDBRANCH  40  42
DOCKED: ENDBRANCH  39  40
DOCKED: ENDBRANCH  27  38
DOCKED: BRANCH   8  44
DOCKED: ATOM     44  C   UNL d   1      14.215  44.787  21.092 -0.17 -0.03    +0.141 C 
DOCKED: BRANCH  44  45
DOCKED: ATOM     45  C   UNL d   1      14.850  46.147  20.969 -0.06 -0.05    +0.306 C 
DOCKED: ATOM     46  O   UNL d   1      14.332  47.153  20.517 -0.05 +0.04    -0.251 OA
DOCKED: BRANCH  45  47
DOCKED: ATOM     47  O   UNL d   1      16.124  46.161  21.402 -0.12 +0.08    -0.481 OA
DOCKED: ATOM     48  H   UNL d   1      16.061  45.981  22.364 +0.11 -0.04    +0.295 HD
DOCKED: ENDBRANCH  45  47
DOCKED: ENDBRANCH  44  45
DOCKED: ENDBRANCH   8  44
DOCKED: BRANCH  22  49
DOCKED: ATOM     49  C   UNL d   1      15.610  38.279  28.061 -0.23 -0.01    +0.048 C 
DOCKED: BRANCH  49  50
DOCKED: ATOM     50  C   UNL d   1      15.345  38.701  29.506 -0.12 -0.01    +0.125 C 
DOCKED: BRANCH  50  51
DOCKED: ATOM     51  C   UNL d   1      14.040  38.142  29.998 -0.04 -0.05    +0.305 C 
DOCKED: ATOM     52  O   UNL d   1      12.977  38.727  30.112 -0.02 +0.04    -0.251 OA
DOCKED: BRANCH  51  53
DOCKED: ATOM     53  O   UNL d   1      14.146  36.843  30.342 -0.03 +0.10    -0.481 OA
DOCKED: ATOM     54  H   UNL d   1      13.528  36.385  29.735 +0.07 -0.13    +0.295 HD
DOCKED: ENDBRANCH  51  53
DOCKED: ENDBRANCH  50  51
DOCKED: ENDBRANCH  49  50
DOCKED: ENDBRANCH  22  49
DOCKED: TORSDOF 13
DOCKED: TER
DOCKED: ENDMDL
________________________________________________________________________________


	BEGINNING GENETIC ALGORITHM DOCKING 6 of 100
Run: 6 Seed: 143949310 447506556 [ Run 6 of 100 GA/GALS ]
Beginning LAMARCKIAN GENETIC ALGORITHM (LGA), with a maximum of 25000000 energy evaluations.

Final-Value: -13.558


	FINAL GENETIC ALGORITHM DOCKED STATE
	_______________________________________________


Detailed state:  trans 12.413 40.156 25.101 quatxyzw -0.735763 0.452310 -0.415651 0.285136 center 0.153 0.018 -0.028 ntor 13 96.0834 -179.6083 -1.9680 20.0211 -132.1424 19.6204 -31.9382 32.2645 36.8770 131.8183 -67.3045 -72.3370 2.3381
State:	 12.413  40.156  25.101  -0.768  0.472 -0.434 146.866     96.08 -179.61   -1.97   20.02 -132.14   19.62  -31.94   32.26   36.88  131.82  -67.30  -72.34    2.34

DOCKED: MODEL        6
DOCKED: USER    Run = 6
DOCKED: USER    DPF = D:/Protein_go_brrr/autodock/final/2DN3/heme/dock.dpf
DOCKED: USER  
DOCKED: USER    Estimated Free Energy of Binding    =   -5.66 kcal/mol  [=(1)+(2)+(3)-(4)]
DOCKED: USER    Estimated Inhibition Constant, Ki   =   71.06 uM (micromolar)  [Temperature = 298.15 K]
DOCKED: USER    
DOCKED: USER    (1) Final Intermolecular Energy     =   -9.54 kcal/mol
DOCKED: USER        vdW + Hbond + desolv Energy     =   -9.47 kcal/mol
DOCKED: USER        Electrostatic Energy            =   -0.07 kcal/mol
DOCKED: USER    (2) Final Total Internal Energy     =   -4.02 kcal/mol
DOCKED: USER    (3) Torsional Free Energy           =   +3.88 kcal/mol
DOCKED: USER    (4) Unbound System's Energy  [=(2)] =   -4.02 kcal/mol
DOCKED: USER    
DOCKED: USER    
DOCKED: USER    NEWDPF move heme_opt.pdbqt
DOCKED: USER    NEWDPF about 0.153000 0.018000 -0.028000
DOCKED: USER    NEWDPF tran0 12.413319 40.156278 25.101384
DOCKED: USER    NEWDPF quaternion0 -0.735763 0.452310 -0.415651 0.285136
DOCKED: USER    NEWDPF axisangle0 -0.767629 0.471900 -0.433653 146.865998
DOCKED: USER    NEWDPF quat0 -0.767629 0.471900 -0.433653 146.865998
DOCKED: USER    NEWDPF dihe0 96.08 -179.61 -1.97 20.02 -132.14 19.62 -31.94 32.26 36.88 131.82 -67.30 -72.34 2.34 
DOCKED: USER  keepresnum = 1 
DOCKED: USER  
DOCKED: REMARK  13 active torsions:
DOCKED: REMARK  status: ('A' for Active; 'I' for Inactive)
DOCKED: REMARK    1  A    between atoms: O_3  and  C_38 
DOCKED: REMARK    2  A    between atoms: O_4  and  C_40 
DOCKED: REMARK    3  A    between atoms: O_7  and  C_46 
DOCKED: REMARK    4  A    between atoms: O_9  and  C_48 
DOCKED: REMARK    5  A    between atoms: C_15  and  C_20 
DOCKED: REMARK    6  A    between atoms: C_16  and  C_23 
DOCKED: REMARK    7  A    between atoms: C_20  and  C_38 
DOCKED: REMARK    8  A    between atoms: C_23  and  C_40 
DOCKED: REMARK    9  A    between atoms: C_32  and  C_41 
DOCKED: REMARK   10  A    between atoms: C_37  and  C_45 
DOCKED: REMARK   11  A    between atoms: C_41  and  C_44 
DOCKED: REMARK   12  A    between atoms: C_44  and  C_46 
DOCKED: REMARK   13  A    between atoms: C_47  and  C_48 
DOCKED: USER                              x       y       z     vdW  Elec       q    Type
DOCKED: USER                           _______ _______ _______ _____ _____    ______ ____
DOCKED: ROOT
DOCKED: ATOM      1  O   UNL d   1       9.742  41.322  19.977 -0.19 +0.10    -0.289 OA
DOCKED: ATOM      2  O   UNL d   1      15.577  44.626  23.356 -0.15 +0.05    -0.289 OA
DOCKED: ATOM      3  N   UNL d   1      10.888  40.364  23.086 -0.18 +0.07    -0.247 NA
DOCKED: ATOM      4  N   UNL d   1      13.347  41.995  23.440 -0.08 +0.09    -0.247 NA
DOCKED: ATOM      5  N   UNL d   1      14.043  40.296  25.652 -0.02 +0.16    -0.354 N 
DOCKED: ATOM      6  N   UNL d   1      11.500  38.598  25.266 -0.15 +0.16    -0.354 N 
DOCKED: ATOM      7  C   UNL d   1       9.204  39.508  21.524 -0.37 -0.02    +0.084 A 
DOCKED: ATOM      8  C   UNL d   1      13.468  44.112  22.226 -0.18 -0.02    +0.084 A 
DOCKED: ATOM      9  C   UNL d   1      12.727  42.801  22.511 -0.24 -0.01    +0.058 A 
DOCKED: ATOM     10  C   UNL d   1       9.941  39.379  22.861 -0.33 -0.01    +0.058 A 
DOCKED: ATOM     11  C   UNL d   1       9.889  40.751  21.042 -0.19 -0.05    +0.193 A 
DOCKED: ATOM     12  C   UNL d   1      10.869  41.186  22.087 -0.23 -0.03    +0.109 A 
DOCKED: ATOM     13  C   UNL d   1      14.641  43.883  23.137 -0.18 -0.04    +0.193 A 
DOCKED: ATOM     14  C   UNL d   1       9.536  38.357  20.571 -0.61 -0.00    +0.026 C 
DOCKED: ATOM     15  C   UNL d   1      11.601  42.450  21.871 -0.25 -0.01    +0.055 C 
DOCKED: ATOM     16  C   UNL d   1      12.684  45.328  22.729 -0.07 -0.00    +0.026 C 
DOCKED: ATOM     17  C   UNL d   1      14.450  42.562  23.808 -0.24 -0.03    +0.109 A 
DOCKED: ATOM     18  C   UNL d   1       9.609  38.432  23.758 -0.27 -0.01    +0.050 C 
DOCKED: ATOM     19  C   UNL d   1      10.176  38.288  25.050 -0.26 -0.01    +0.045 A 
DOCKED: ATOM     20  C   UNL d   1      15.211  41.001  25.520 -0.25 -0.01    +0.045 A 
DOCKED: ATOM     21  C   UNL d   1      15.473  42.049  24.732 -0.31 -0.02    +0.057 C 
DOCKED: ATOM     22  C   UNL d   1      15.521  39.343  27.060 -0.23 +0.00    -0.019 A 
DOCKED: ATOM     23  C   UNL d   1      14.133  39.275  26.560 -0.25 -0.02    +0.045 A 
DOCKED: ATOM     24  C   UNL d   1      16.154  40.367  26.441 -0.29 +0.00    -0.022 A 
DOCKED: ATOM     25  C   UNL d   1      11.861  38.300  26.560 -0.27 -0.02    +0.049 A 
DOCKED: ATOM     26  C   UNL d   1       9.654  37.813  26.243 -0.23 +0.00    -0.018 A 
DOCKED: ATOM     27  C   UNL d   1      10.717  37.841  27.198 -0.20 -0.00    +0.003 A 
DOCKED: ATOM     28  C   UNL d   1      13.217  38.387  26.976 -0.33 -0.03    +0.052 C 
DOCKED: ATOM     29  C   UNL d   1      17.556  40.840  26.618 -0.29 -0.01    +0.046 C 
DOCKED: ATOM     30  C   UNL d   1       8.253  37.361  26.484 -0.23 -0.00    +0.046 C 
DOCKED: ATOM     31  H   UNL d   1      13.198  40.584  25.171 -0.28 -0.09    +0.166 HD
DOCKED: ATOM     32  H   UNL d   1      12.117  38.955  24.546 -0.39 -0.12    +0.166 HD
DOCKED: ENDROOT
DOCKED: BRANCH   7  33
DOCKED: ATOM     33  C   UNL d   1       7.691  39.733  21.627 -0.30 -0.03    +0.141 C 
DOCKED: BRANCH  33  34
DOCKED: ATOM     34  C   UNL d   1       7.333  41.183  21.817 -0.10 -0.08    +0.306 C 
DOCKED: ATOM     35  O   UNL d   1       7.409  41.813  22.857 -0.04 +0.06    -0.251 OA
DOCKED: BRANCH  34  36
DOCKED: ATOM     36  O   UNL d   1       6.900  41.762  20.683 -0.17 +0.18    -0.481 OA
DOCKED: ATOM     37  H   UNL d   1       7.718  42.065  20.233 +0.10 -0.18    +0.295 HD
DOCKED: ENDBRANCH  34  36
DOCKED: ENDBRANCH  33  34
DOCKED: ENDBRANCH   7  33
DOCKED: BRANCH  27  38
DOCKED: ATOM     38  C   UNL d   1      10.613  37.417  28.561 -0.14 -0.01    +0.017 C 
DOCKED: ATOM     39  C   UNL d   1      11.582  36.803  29.257 -0.11 -0.05    +0.092 C 
DOCKED: BRANCH  39  40
DOCKED: ATOM     40  C   UNL d   1      11.354  36.435  30.657 -0.04 -0.07    +0.330 C 
DOCKED: ATOM     41  O   UNL d   1      10.289  36.341  31.237 -0.02 +0.02    -0.246 OA
DOCKED: BRANCH  40  42
DOCKED: ATOM     42  O   UNL d   1      12.524  36.187  31.266 -0.02 +0.09    -0.477 OA
DOCKED: ATOM     43  H   UNL d   1      13.190  36.339  30.565 +0.07 -0.08    +0.295 HD
DOCKED: ENDBRANCH  40  42
DOCKED: ENDBRANCH  39  40
DOCKED: ENDBRANCH  27  38
DOCKED: BRANCH   8  44
DOCKED: ATOM     44  C   UNL d   1      13.928  44.310  20.778 -0.18 -0.03    +0.141 C 
DOCKED: BRANCH  44  45
DOCKED: ATOM     45  C   UNL d   1      12.841  44.828  19.874 -0.12 -0.08    +0.306 C 
DOCKED: ATOM     46  O   UNL d   1      11.910  44.188  19.417 -0.15 +0.10    -0.251 OA
DOCKED: BRANCH  45  47
DOCKED: ATOM     47  O   UNL d   1      13.001  46.128  19.570 -0.01 +0.12    -0.481 OA
DOCKED: ATOM     48  H   UNL d   1      12.268  46.330  18.950 +0.07 -0.09    +0.295 HD
DOCKED: ENDBRANCH  45  47
DOCKED: ENDBRANCH  44  45
DOCKED: ENDBRANCH   8  44
DOCKED: BRANCH  22  49
DOCKED: ATOM     49  C   UNL d   1      16.098  38.400  28.075 -0.24 -0.01    +0.048 C 
DOCKED: BRANCH  49  50
DOCKED: ATOM     50  C   UNL d   1      15.713  38.794  29.501 -0.13 -0.01    +0.125 C 
DOCKED: BRANCH  50  51
DOCKED: ATOM     51  C   UNL d   1      14.813  37.761  30.118 -0.07 -0.04    +0.305 C 
DOCKED: ATOM     52  O   UNL d   1      14.741  36.577  29.841 -0.17 +0.05    -0.251 OA
DOCKED: BRANCH  51  53
DOCKED: ATOM     53  O   UNL d   1      14.017  38.290  31.069 +0.01 +0.05    -0.481 OA
DOCKED: ATOM     54  H   UNL d   1      13.733  37.516  31.599 +0.04 -0.03    +0.295 HD
DOCKED: ENDBRANCH  51  53
DOCKED: ENDBRANCH  50  51
DOCKED: ENDBRANCH  49  50
DOCKED: ENDBRANCH  22  49
DOCKED: TORSDOF 13
DOCKED: TER
DOCKED: ENDMDL
________________________________________________________________________________


	BEGINNING GENETIC ALGORITHM DOCKING 7 of 100
Run: 7 Seed: 1164947852 1750524506 [ Run 7 of 100 GA/GALS ]
Beginning LAMARCKIAN GENETIC ALGORITHM (LGA), with a maximum of 25000000 energy evaluations.

Final-Value: -12.629


	FINAL GENETIC ALGORITHM DOCKED STATE
	_______________________________________________


Detailed state:  trans 27.627 38.765 0.045 quatxyzw 0.385053 0.542658 0.413564 -0.621467 center 0.153 0.018 -0.028 ntor 13 -131.0796 -137.6372 -177.2720 29.0284 -135.9350 5.1150 143.9033 64.3985 135.9647 -8.9404 -66.6183 -80.3249 4.0594
State:	 27.627  38.765   0.045   0.491  0.693  0.528 -103.153   -131.08 -137.64 -177.27   29.03 -135.93    5.12  143.90   64.40  135.96   -8.94  -66.62  -80.32    4.06

DOCKED: MODEL        7
DOCKED: USER    Run = 7
DOCKED: USER    DPF = D:/Protein_go_brrr/autodock/final/2DN3/heme/dock.dpf
DOCKED: USER  
DOCKED: USER    Estimated Free Energy of Binding    =   -4.95 kcal/mol  [=(1)+(2)+(3)-(4)]
DOCKED: USER    Estimated Inhibition Constant, Ki   =  236.59 uM (micromolar)  [Temperature = 298.15 K]
DOCKED: USER    
DOCKED: USER    (1) Final Intermolecular Energy     =   -8.82 kcal/mol
DOCKED: USER        vdW + Hbond + desolv Energy     =   -7.87 kcal/mol
DOCKED: USER        Electrostatic Energy            =   -0.95 kcal/mol
DOCKED: USER    (2) Final Total Internal Energy     =   -3.80 kcal/mol
DOCKED: USER    (3) Torsional Free Energy           =   +3.88 kcal/mol
DOCKED: USER    (4) Unbound System's Energy  [=(2)] =   -3.80 kcal/mol
DOCKED: USER    
DOCKED: USER    
DOCKED: USER    NEWDPF move heme_opt.pdbqt
DOCKED: USER    NEWDPF about 0.153000 0.018000 -0.028000
DOCKED: USER    NEWDPF tran0 27.627329 38.765054 0.044979
DOCKED: USER    NEWDPF quaternion0 0.385053 0.542658 0.413564 -0.621467
DOCKED: USER    NEWDPF axisangle0 0.491489 0.692661 0.527882 -103.153276
DOCKED: USER    NEWDPF quat0 0.491489 0.692661 0.527882 -103.153276
DOCKED: USER    NEWDPF dihe0 -131.08 -137.64 -177.27 29.03 -135.93 5.12 143.90 64.40 135.96 -8.94 -66.62 -80.32 4.06 
DOCKED: USER  keepresnum = 1 
DOCKED: USER  
DOCKED: REMARK  13 active torsions:
DOCKED: REMARK  status: ('A' for Active; 'I' for Inactive)
DOCKED: REMARK    1  A    between atoms: O_3  and  C_38 
DOCKED: REMARK    2  A    between atoms: O_4  and  C_40 
DOCKED: REMARK    3  A    between atoms: O_7  and  C_46 
DOCKED: REMARK    4  A    between atoms: O_9  and  C_48 
DOCKED: REMARK    5  A    between atoms: C_15  and  C_20 
DOCKED: REMARK    6  A    between atoms: C_16  and  C_23 
DOCKED: REMARK    7  A    between atoms: C_20  and  C_38 
DOCKED: REMARK    8  A    between atoms: C_23  and  C_40 
DOCKED: REMARK    9  A    between atoms: C_32  and  C_41 
DOCKED: REMARK   10  A    between atoms: C_37  and  C_45 
DOCKED: REMARK   11  A    between atoms: C_41  and  C_44 
DOCKED: REMARK   12  A    between atoms: C_44  and  C_46 
DOCKED: REMARK   13  A    between atoms: C_47  and  C_48 
DOCKED: USER                              x       y       z     vdW  Elec       q    Type
DOCKED: USER                           _______ _______ _______ _____ _____    ______ ____
DOCKED: ROOT
DOCKED: ATOM      1  O   UNL d   1      27.721  34.127   3.683 -0.19 -0.17    -0.289 OA
DOCKED: ATOM      2  O   UNL d   1      26.342  34.585  -3.684 -0.04 +0.01    -0.289 OA
DOCKED: ATOM      3  N   UNL d   1      27.644  37.125   1.980 -0.14 -0.01    -0.247 NA
DOCKED: ATOM      4  N   UNL d   1      27.340  36.292  -0.856 -0.11 -0.04    -0.247 NA
DOCKED: ATOM      5  N   UNL d   1      28.021  38.978  -1.622 -0.06 -0.05    -0.354 N 
DOCKED: ATOM      6  N   UNL d   1      28.354  39.829   1.322 -0.06 -0.03    -0.354 N 
DOCKED: ATOM      7  C   UNL d   1      28.219  36.449   4.264 -0.23 -0.02    +0.084 A 
DOCKED: ATOM      8  C   UNL d   1      26.272  34.135  -1.279 -0.18 +0.01    +0.084 A 
DOCKED: ATOM      9  C   UNL d   1      26.832  35.150  -0.277 -0.20 +0.01    +0.058 A 
DOCKED: ATOM     10  C   UNL d   1      28.077  37.561   3.221 -0.25 -0.01    +0.058 A 
DOCKED: ATOM     11  C   UNL d   1      27.773  35.310   3.398 -0.17 +0.04    +0.193 A 
DOCKED: ATOM     12  C   UNL d   1      27.427  35.852   2.046 -0.21 +0.02    +0.109 A 
DOCKED: ATOM     13  C   UNL d   1      26.589  34.896  -2.536 -0.09 +0.01    +0.193 A 
DOCKED: ATOM     14  C   UNL d   1      29.679  36.222   4.667 -0.24 -0.00    +0.026 C 
DOCKED: ATOM     15  C   UNL d   1      26.870  34.920   1.044 -0.29 +0.01    +0.055 C 
DOCKED: ATOM     16  C   UNL d   1      24.751  33.998  -1.158 -0.38 -0.00    +0.026 C 
DOCKED: ATOM     17  C   UNL d   1      27.241  36.181  -2.142 -0.15 +0.01    +0.109 A 
DOCKED: ATOM     18  C   UNL d   1      28.275  38.854   3.540 -0.33 -0.02    +0.050 C 
DOCKED: ATOM     19  C   UNL d   1      28.086  39.955   2.666 -0.30 -0.01    +0.045 A 
DOCKED: ATOM     20  C   UNL d   1      28.062  38.366  -2.848 -0.15 +0.01    +0.045 A 
DOCKED: ATOM     21  C   UNL d   1      27.706  37.120  -3.174 -0.15 +0.01    +0.057 C 
DOCKED: ATOM     22  C   UNL d   1      28.827  40.507  -3.066 -0.09 -0.00    -0.019 A 
DOCKED: ATOM     23  C   UNL d   1      28.465  40.273  -1.654 -0.09 +0.01    +0.045 A 
DOCKED: ATOM     24  C   UNL d   1      28.585  39.375  -3.768 -0.09 -0.00    -0.022 A 
DOCKED: ATOM     25  C   UNL d   1      28.190  41.035   0.682 -0.15 +0.01    +0.049 A 
DOCKED: ATOM     26  C   UNL d   1      27.702  41.266   2.899 -0.41 +0.00    -0.018 A 
DOCKED: ATOM     27  C   UNL d   1      27.751  41.939   1.639 -0.33 +0.00    +0.003 A 
DOCKED: ATOM     28  C   UNL d   1      28.559  41.193  -0.682 -0.14 +0.01    +0.052 C 
DOCKED: ATOM     29  C   UNL d   1      28.778  39.121  -5.224 -0.04 +0.00    +0.046 C 
DOCKED: ATOM     30  C   UNL d   1      27.312  41.860   4.210 -0.57 -0.01    +0.046 C 
DOCKED: ATOM     31  H   UNL d   1      27.621  38.512  -0.815 +0.05 +0.02    +0.166 HD
DOCKED: ATOM     32  H   UNL d   1      28.668  38.967   0.891 +0.06 +0.02    +0.166 HD
DOCKED: ENDROOT
DOCKED: BRANCH   7  33
DOCKED: ATOM     33  C   UNL d   1      27.311  36.579   5.492 -0.22 -0.12    +0.141 C 
DOCKED: BRANCH  33  34
DOCKED: ATOM     34  C   UNL d   1      27.563  35.505   6.515 -0.17 -0.14    +0.306 C 
DOCKED: ATOM     35  O   UNL d   1      27.120  34.369   6.491 -0.28 -0.03    -0.251 OA
DOCKED: BRANCH  34  36
DOCKED: ATOM     36  O   UNL d   1      28.363  35.918   7.514 -0.05 +0.37    -0.481 OA
DOCKED: ATOM     37  H   UNL d   1      28.003  36.793   7.773 -0.25 -0.66    +0.295 HD
DOCKED: ENDBRANCH  34  36
DOCKED: ENDBRANCH  33  34
DOCKED: ENDBRANCH   7  33
DOCKED: BRANCH  27  38
DOCKED: ATOM     38  C   UNL d   1      27.444  43.322   1.430 -0.33 +0.01    +0.017 C 
DOCKED: ATOM     39  C   UNL d   1      28.155  44.166   0.667 -0.19 +0.05    +0.092 C 
DOCKED: BRANCH  39  40
DOCKED: ATOM     40  C   UNL d   1      27.723  45.559   0.521 -0.06 +0.19    +0.330 C 
DOCKED: ATOM     41  O   UNL d   1      26.781  46.106   1.063 -0.13 -0.18    -0.246 OA
DOCKED: BRANCH  40  42
DOCKED: ATOM     42  O   UNL d   1      28.537  46.209  -0.325 -0.01 -0.19    -0.477 OA
DOCKED: ATOM     43  H   UNL d   1      28.683  45.567  -1.050 +0.06 +0.10    +0.295 HD
DOCKED: ENDBRANCH  40  42
DOCKED: ENDBRANCH  39  40
DOCKED: ENDBRANCH  27  38
DOCKED: BRANCH   8  44
DOCKED: ATOM     44  C   UNL d   1      26.954  32.763  -1.281 -0.13 +0.03    +0.141 C 
DOCKED: BRANCH  44  45
DOCKED: ATOM     45  C   UNL d   1      28.429  32.833  -1.574 -0.04 +0.14    +0.306 C 
DOCKED: ATOM     46  O   UNL d   1      29.334  32.792  -0.759 -0.33 -0.27    -0.251 OA
DOCKED: BRANCH  45  47
DOCKED: ATOM     47  O   UNL d   1      28.686  32.981  -2.886 +0.02 -0.09    -0.481 OA
DOCKED: ATOM     48  H   UNL d   1      27.803  33.034  -3.308 +0.05 +0.02    +0.295 HD
DOCKED: ENDBRANCH  45  47
DOCKED: ENDBRANCH  44  45
DOCKED: ENDBRANCH   8  44
DOCKED: BRANCH  22  49
DOCKED: ATOM     49  C   UNL d   1      29.384  41.798  -3.590 -0.04 +0.01    +0.048 C 
DOCKED: BRANCH  49  50
DOCKED: ATOM     50  C   UNL d   1      28.290  42.844  -3.806 -0.06 +0.02    +0.125 C 
DOCKED: BRANCH  50  51
DOCKED: ATOM     51  C   UNL d   1      28.464  44.004  -2.867 -0.02 +0.07    +0.305 C 
DOCKED: ATOM     52  O   UNL d   1      29.434  44.733  -2.758 -0.01 -0.07    -0.251 OA
DOCKED: BRANCH  51  53
DOCKED: ATOM     53  O   UNL d   1      27.382  44.183  -2.083 -0.02 -0.12    -0.481 OA
DOCKED: ATOM     54  H   UNL d   1      27.386  45.144  -1.889 +0.07 +0.08    +0.295 HD
DOCKED: ENDBRANCH  51  53
DOCKED: ENDBRANCH  50  51
DOCKED: ENDBRANCH  49  50
DOCKED: ENDBRANCH  22  49
DOCKED: TORSDOF 13
DOCKED: TER
DOCKED: ENDMDL
________________________________________________________________________________


	BEGINNING GENETIC ALGORITHM DOCKING 8 of 100
Run: 8 Seed: 441896263 495039570 [ Run 8 of 100 GA/GALS ]
Beginning LAMARCKIAN GENETIC ALGORITHM (LGA), with a maximum of 25000000 energy evaluations.

Final-Value: -9.343


	FINAL GENETIC ALGORITHM DOCKED STATE
	_______________________________________________


Detailed state:  trans 38.847 13.552 19.144 quatxyzw 0.660147 0.264651 -0.381360 -0.590534 center 0.153 0.018 -0.028 ntor 13 104.8467 -31.4192 116.4551 28.0723 -140.8243 149.6084 -47.6841 -78.6249 50.9905 -118.5395 135.0513 6.0268 11.5355
State:	 38.847  13.552  19.144   0.818  0.328 -0.473 -107.610    104.85  -31.42  116.46   28.07 -140.82  149.61  -47.68  -78.62   50.99 -118.54  135.05    6.03   11.54

DOCKED: MODEL        8
DOCKED: USER    Run = 8
DOCKED: USER    DPF = D:/Protein_go_brrr/autodock/final/2DN3/heme/dock.dpf
DOCKED: USER  
DOCKED: USER    Estimated Free Energy of Binding    =   -2.77 kcal/mol  [=(1)+(2)+(3)-(4)]
DOCKED: USER    Estimated Inhibition Constant, Ki   =    9.25 mM (millimolar)  [Temperature = 298.15 K]
DOCKED: USER    
DOCKED: USER    (1) Final Intermolecular Energy     =   -6.65 kcal/mol
DOCKED: USER        vdW + Hbond + desolv Energy     =   -6.23 kcal/mol
DOCKED: USER        Electrostatic Energy            =   -0.42 kcal/mol
DOCKED: USER    (2) Final Total Internal Energy     =   -2.69 kcal/mol
DOCKED: USER    (3) Torsional Free Energy           =   +3.88 kcal/mol
DOCKED: USER    (4) Unbound System's Energy  [=(2)] =   -2.69 kcal/mol
DOCKED: USER    
DOCKED: USER    
DOCKED: USER    NEWDPF move heme_opt.pdbqt
DOCKED: USER    NEWDPF about 0.153000 0.018000 -0.028000
DOCKED: USER    NEWDPF tran0 38.846644 13.551906 19.143792
DOCKED: USER    NEWDPF quaternion0 0.660147 0.264651 -0.381360 -0.590534
DOCKED: USER    NEWDPF axisangle0 0.818013 0.327940 -0.472557 -107.610225
DOCKED: USER    NEWDPF quat0 0.818013 0.327940 -0.472557 -107.610225
DOCKED: USER    NEWDPF dihe0 104.85 -31.42 116.46 28.07 -140.82 149.61 -47.68 -78.62 50.99 -118.54 135.05 6.03 11.54 
DOCKED: USER  keepresnum = 1 
DOCKED: USER  
DOCKED: REMARK  13 active torsions:
DOCKED: REMARK  status: ('A' for Active; 'I' for Inactive)
DOCKED: REMARK    1  A    between atoms: O_3  and  C_38 
DOCKED: REMARK    2  A    between atoms: O_4  and  C_40 
DOCKED: REMARK    3  A    between atoms: O_7  and  C_46 
DOCKED: REMARK    4  A    between atoms: O_9  and  C_48 
DOCKED: REMARK    5  A    between atoms: C_15  and  C_20 
DOCKED: REMARK    6  A    between atoms: C_16  and  C_23 
DOCKED: REMARK    7  A    between atoms: C_20  and  C_38 
DOCKED: REMARK    8  A    between atoms: C_23  and  C_40 
DOCKED: REMARK    9  A    between atoms: C_32  and  C_41 
DOCKED: REMARK   10  A    between atoms: C_37  and  C_45 
DOCKED: REMARK   11  A    between atoms: C_41  and  C_44 
DOCKED: REMARK   12  A    between atoms: C_44  and  C_46 
DOCKED: REMARK   13  A    between atoms: C_47  and  C_48 
DOCKED: USER                              x       y       z     vdW  Elec       q    Type
DOCKED: USER                           _______ _______ _______ _____ _____    ______ ____
DOCKED: ROOT
DOCKED: ATOM      1  O   UNL d   1      36.881  13.208  24.691 -0.03 +0.04    -0.289 OA
DOCKED: ATOM      2  O   UNL d   1      33.760  16.157  18.530 -0.28 -0.11    -0.289 OA
DOCKED: ATOM      3  N   UNL d   1      38.491  13.299  21.642 -0.10 +0.02    -0.247 NA
DOCKED: ATOM      4  N   UNL d   1      36.405  14.340  19.799 -0.13 -0.02    -0.247 NA
DOCKED: ATOM      5  N   UNL d   1      38.070  13.524  17.602 -0.05 -0.05    -0.354 N 
DOCKED: ATOM      6  N   UNL d   1      40.220  12.429  19.521 -0.02 -0.04    -0.354 N 
DOCKED: ATOM      7  C   UNL d   1      38.984  12.308  23.829 -0.07 -0.01    +0.084 A 
DOCKED: ATOM      8  C   UNL d   1      34.650  15.735  20.771 -0.22 +0.01    +0.084 A 
DOCKED: ATOM      9  C   UNL d   1      35.878  14.840  20.969 -0.21 +0.00    +0.058 A 
DOCKED: ATOM     10  C   UNL d   1      39.394  12.545  22.373 -0.12 -0.00    +0.058 A 
DOCKED: ATOM     11  C   UNL d   1      37.697  13.077  23.798 -0.06 -0.02    +0.193 A 
DOCKED: ATOM     12  C   UNL d   1      37.524  13.651  22.426 -0.04 -0.02    +0.109 A 
DOCKED: ATOM     13  C   UNL d   1      34.555  15.619  19.276 -0.22 +0.04    +0.193 A 
DOCKED: ATOM     14  C   UNL d   1      38.673  10.835  24.106 -0.02 -0.00    +0.026 C 
DOCKED: ATOM     15  C   UNL d   1      36.363  14.532  22.182 -0.23 -0.01    +0.055 C 
DOCKED: ATOM     16  C   UNL d   1      34.945  17.193  21.135 -0.46 -0.00    +0.026 C 
DOCKED: ATOM     17  C   UNL d   1      35.671  14.741  18.812 -0.22 +0.02    +0.109 A 
DOCKED: ATOM     18  C   UNL d   1      40.581  12.121  21.899 -0.13 +0.00    +0.050 C 
DOCKED: ATOM     19  C   UNL d   1      41.080  12.367  20.594 -0.13 +0.00    +0.045 A 
DOCKED: ATOM     20  C   UNL d   1      36.922  13.839  16.923 -0.22 +0.01    +0.045 A 
DOCKED: ATOM     21  C   UNL d   1      35.806  14.411  17.385 -0.28 +0.01    +0.057 C 
DOCKED: ATOM     22  C   UNL d   1      38.402  12.884  15.468 -0.11 -0.00    -0.019 A 
DOCKED: ATOM     23  C   UNL d   1      39.022  12.942  16.807 -0.11 +0.01    +0.045 A 
DOCKED: ATOM     24  C   UNL d   1      37.160  13.418  15.543 -0.17 -0.00    -0.022 A 
DOCKED: ATOM     25  C   UNL d   1      40.921  12.583  18.348 -0.01 +0.01    +0.049 A 
DOCKED: ATOM     26  C   UNL d   1      42.370  12.522  20.111 -0.13 -0.00    -0.018 A 
DOCKED: ATOM     27  C   UNL d   1      42.262  12.678  18.694 -0.09 +0.00    +0.003 A 
DOCKED: ATOM     28  C   UNL d   1      40.262  12.516  17.090 -0.11 +0.01    +0.052 C 
DOCKED: ATOM     29  C   UNL d   1      36.153  13.593  14.458 -0.02 +0.01    +0.046 C 
DOCKED: ATOM     30  C   UNL d   1      43.627  12.528  20.913 -0.09 +0.00    +0.046 C 
DOCKED: ATOM     31  H   UNL d   1      38.195  13.784  18.575 +0.06 +0.03    +0.166 HD
DOCKED: ATOM     32  H   UNL d   1      39.215  12.330  19.602 +0.03 +0.02    +0.166 HD
DOCKED: ENDROOT
DOCKED: BRANCH   7  33
DOCKED: ATOM     33  C   UNL d   1      39.933  12.890  24.882 -0.08 -0.01    +0.141 C 
DOCKED: BRANCH  33  34
DOCKED: ATOM     34  C   UNL d   1      39.457  14.212  25.423 -0.10 -0.05    +0.306 C 
DOCKED: ATOM     35  O   UNL d   1      39.680  15.309  24.941 -0.27 +0.07    -0.251 OA
DOCKED: BRANCH  34  36
DOCKED: ATOM     36  O   UNL d   1      38.724  14.080  26.542 +0.00 +0.07    -0.481 OA
DOCKED: ATOM     37  H   UNL d   1      37.842  13.787  26.226 +0.07 -0.05    +0.295 HD
DOCKED: ENDBRANCH  34  36
DOCKED: ENDBRANCH  33  34
DOCKED: ENDBRANCH   7  33
DOCKED: BRANCH  27  38
DOCKED: ATOM     38  C   UNL d   1      43.365  12.851  17.797 -0.09 +0.00    +0.017 C 
DOCKED: ATOM     39  C   UNL d   1      43.402  13.720  16.775 -0.09 +0.02    +0.092 C 
DOCKED: BRANCH  39  40
DOCKED: ATOM     40  C   UNL d   1      44.602  13.812  15.939 -0.02 +0.06    +0.330 C 
DOCKED: ATOM     41  O   UNL d   1      44.663  14.075  14.753 -0.01 -0.04    -0.246 OA
DOCKED: BRANCH  40  42
DOCKED: ATOM     42  O   UNL d   1      45.697  13.567  16.674 +0.00 -0.08    -0.477 OA
DOCKED: ATOM     43  H   UNL d   1      46.316  13.149  16.041 +0.01 +0.05    +0.295 HD
DOCKED: ENDBRANCH  40  42
DOCKED: ENDBRANCH  39  40
DOCKED: ENDBRANCH  27  38
DOCKED: BRANCH   8  44
DOCKED: ATOM     44  C   UNL d   1      33.362  15.246  21.442 -0.12 +0.04    +0.141 C 
DOCKED: BRANCH  44  45
DOCKED: ATOM     45  C   UNL d   1      32.136  15.994  20.991 -0.10 +0.24    +0.306 C 
DOCKED: ATOM     46  O   UNL d   1      31.656  16.985  21.514 -0.40 -0.23    -0.251 OA
DOCKED: BRANCH  45  47
DOCKED: ATOM     47  O   UNL d   1      31.558  15.434  19.914 -0.27 -0.58    -0.481 OA
DOCKED: ATOM     48  H   UNL d   1      32.224  15.524  19.200 +0.10 +0.24    +0.295 HD
DOCKED: ENDBRANCH  45  47
DOCKED: ENDBRANCH  44  45
DOCKED: ENDBRANCH   8  44
DOCKED: BRANCH  22  49
DOCKED: ATOM     49  C   UNL d   1      39.069  12.305  14.255 -0.05 +0.00    +0.048 C 
DOCKED: BRANCH  49  50
DOCKED: ATOM     50  C   UNL d   1      40.196  13.202  13.744 -0.05 +0.01    +0.125 C 
DOCKED: BRANCH  50  51
DOCKED: ATOM     51  C   UNL d   1      39.772  14.643  13.732 -0.11 +0.02    +0.305 C 
DOCKED: ATOM     52  O   UNL d   1      39.158  15.230  12.858 -0.15 -0.02    -0.251 OA
DOCKED: BRANCH  51  53
DOCKED: ATOM     53  O   UNL d   1      40.163  15.293  14.847 -0.11 -0.00    -0.481 OA
DOCKED: ATOM     54  H   UNL d   1      39.498  16.005  14.953 -0.40 -0.11    +0.295 HD
DOCKED: ENDBRANCH  51  53
DOCKED: ENDBRANCH  50  51
DOCKED: ENDBRANCH  49  50
DOCKED: ENDBRANCH  22  49
DOCKED: TORSDOF 13
DOCKED: TER
DOCKED: ENDMDL
________________________________________________________________________________


	BEGINNING GENETIC ALGORITHM DOCKING 9 of 100
Run: 9 Seed: 679647536 120982891 [ Run 9 of 100 GA/GALS ]
Beginning LAMARCKIAN GENETIC ALGORITHM (LGA), with a maximum of 25000000 energy evaluations.

Final-Value: -13.198


	FINAL GENETIC ALGORITHM DOCKED STATE
	_______________________________________________


Detailed state:  trans 12.351 40.345 25.149 quatxyzw -0.779951 0.447859 -0.387752 0.201859 center 0.153 0.018 -0.028 ntor 13 100.6645 -152.4801 -109.3201 -23.4665 -130.9504 -69.8159 172.9053 -35.7266 44.2693 22.8326 -59.9511 -3.7481 17.0726
State:	 12.351  40.345  25.149  -0.796  0.457 -0.396 156.709    100.66 -152.48 -109.32  -23.47 -130.95  -69.82  172.91  -35.73   44.27   22.83  -59.95   -3.75   17.07

DOCKED: MODEL        9
DOCKED: USER    Run = 9
DOCKED: USER    DPF = D:/Protein_go_brrr/autodock/final/2DN3/heme/dock.dpf
DOCKED: USER  
DOCKED: USER    Estimated Free Energy of Binding    =   -4.91 kcal/mol  [=(1)+(2)+(3)-(4)]
DOCKED: USER    Estimated Inhibition Constant, Ki   =  251.45 uM (micromolar)  [Temperature = 298.15 K]
DOCKED: USER    
DOCKED: USER    (1) Final Intermolecular Energy     =   -8.79 kcal/mol
DOCKED: USER        vdW + Hbond + desolv Energy     =   -8.78 kcal/mol
DOCKED: USER        Electrostatic Energy            =   -0.01 kcal/mol
DOCKED: USER    (2) Final Total Internal Energy     =   -4.41 kcal/mol
DOCKED: USER    (3) Torsional Free Energy           =   +3.88 kcal/mol
DOCKED: USER    (4) Unbound System's Energy  [=(2)] =   -4.41 kcal/mol
DOCKED: USER    
DOCKED: USER    
DOCKED: USER    NEWDPF move heme_opt.pdbqt
DOCKED: USER    NEWDPF about 0.153000 0.018000 -0.028000
DOCKED: USER    NEWDPF tran0 12.350999 40.345298 25.149383
DOCKED: USER    NEWDPF quaternion0 -0.779951 0.447859 -0.387752 0.201859
DOCKED: USER    NEWDPF axisangle0 -0.796344 0.457272 -0.395902 156.708679
DOCKED: USER    NEWDPF quat0 -0.796344 0.457272 -0.395902 156.708679
DOCKED: USER    NEWDPF dihe0 100.66 -152.48 -109.32 -23.47 -130.95 -69.82 172.91 -35.73 44.27 22.83 -59.95 -3.75 17.07 
DOCKED: USER  keepresnum = 1 
DOCKED: USER  
DOCKED: REMARK  13 active torsions:
DOCKED: REMARK  status: ('A' for Active; 'I' for Inactive)
DOCKED: REMARK    1  A    between atoms: O_3  and  C_38 
DOCKED: REMARK    2  A    between atoms: O_4  and  C_40 
DOCKED: REMARK    3  A    between atoms: O_7  and  C_46 
DOCKED: REMARK    4  A    between atoms: O_9  and  C_48 
DOCKED: REMARK    5  A    between atoms: C_15  and  C_20 
DOCKED: REMARK    6  A    between atoms: C_16  and  C_23 
DOCKED: REMARK    7  A    between atoms: C_20  and  C_38 
DOCKED: REMARK    8  A    between atoms: C_23  and  C_40 
DOCKED: REMARK    9  A    between atoms: C_32  and  C_41 
DOCKED: REMARK   10  A    between atoms: C_37  and  C_45 
DOCKED: REMARK   11  A    between atoms: C_41  and  C_44 
DOCKED: REMARK   12  A    between atoms: C_44  and  C_46 
DOCKED: REMARK   13  A    between atoms: C_47  and  C_48 
DOCKED: USER                              x       y       z     vdW  Elec       q    Type
DOCKED: USER                           _______ _______ _______ _____ _____    ______ ____
DOCKED: ROOT
DOCKED: ATOM      1  O   UNL d   1       9.509  42.084  20.286 -0.17 +0.13    -0.289 OA
DOCKED: ATOM      2  O   UNL d   1      15.033  45.338  24.195 -0.06 +0.03    -0.289 OA
DOCKED: ATOM      3  N   UNL d   1      10.786  40.736  23.192 -0.15 +0.07    -0.247 NA
DOCKED: ATOM      4  N   UNL d   1      13.075  42.521  23.825 -0.12 +0.07    -0.247 NA
DOCKED: ATOM      5  N   UNL d   1      13.966  40.553  25.722 -0.05 +0.14    -0.354 N 
DOCKED: ATOM      6  N   UNL d   1      11.599  38.698  25.045 -0.14 +0.17    -0.354 N 
DOCKED: ATOM      7  C   UNL d   1       9.173  39.991  21.503 -0.31 -0.02    +0.084 A 
DOCKED: ATOM      8  C   UNL d   1      12.970  44.814  22.986 -0.06 -0.01    +0.084 A 
DOCKED: ATOM      9  C   UNL d   1      12.367  43.406  23.043 -0.14 -0.01    +0.058 A 
DOCKED: ATOM     10  C   UNL d   1       9.938  39.713  22.801 -0.31 -0.01    +0.058 A 
DOCKED: ATOM     11  C   UNL d   1       9.726  41.359  21.240 -0.17 -0.05    +0.193 A 
DOCKED: ATOM     12  C   UNL d   1      10.672  41.708  22.347 -0.18 -0.03    +0.109 A 
DOCKED: ATOM     13  C   UNL d   1      14.172  44.553  23.850 -0.06 -0.03    +0.193 A 
DOCKED: ATOM     14  C   UNL d   1       9.605  39.056  20.371 -0.54 -0.00    +0.026 C 
DOCKED: ATOM     15  C   UNL d   1      11.273  43.057  22.350 -0.17 -0.01    +0.055 C 
DOCKED: ATOM     16  C   UNL d   1      12.076  45.843  23.684 -0.02 -0.00    +0.026 C 
DOCKED: ATOM     17  C   UNL d   1      14.122  43.125  24.287 -0.15 -0.02    +0.109 A 
DOCKED: ATOM     18  C   UNL d   1       9.713  38.600  23.525 -0.27 -0.01    +0.050 C 
DOCKED: ATOM     19  C   UNL d   1      10.309  38.299  24.776 -0.24 -0.01    +0.045 A 
DOCKED: ATOM     20  C   UNL d   1      15.057  41.382  25.714 -0.23 -0.01    +0.045 A 
DOCKED: ATOM     21  C   UNL d   1      15.203  42.569  25.115 -0.23 -0.01    +0.057 C 
DOCKED: ATOM     22  C   UNL d   1      15.550  39.528  26.953 -0.22 +0.00    -0.019 A 
DOCKED: ATOM     23  C   UNL d   1      14.169  39.407  26.444 -0.26 -0.02    +0.045 A 
DOCKED: ATOM     24  C   UNL d   1      16.070  40.700  26.519 -0.26 +0.00    -0.022 A 
DOCKED: ATOM     25  C   UNL d   1      12.005  38.225  26.272 -0.30 -0.03    +0.049 A 
DOCKED: ATOM     26  C   UNL d   1       9.853  37.580  25.869 -0.27 +0.01    -0.018 A 
DOCKED: ATOM     27  C   UNL d   1      10.920  37.553  26.819 -0.25 -0.00    +0.003 A 
DOCKED: ATOM     28  C   UNL d   1      13.351  38.375  26.702 -0.34 -0.03    +0.052 C 
DOCKED: ATOM     29  C   UNL d   1      17.421  41.274  26.777 -0.25 -0.01    +0.046 C 
DOCKED: ATOM     30  C   UNL d   1       8.507  36.957  26.027 -0.26 -0.00    +0.046 C 
DOCKED: ATOM     31  H   UNL d   1      13.090  40.831  25.293 -0.17 -0.08    +0.166 HD
DOCKED: ATOM     32  H   UNL d   1      12.167  39.231  24.398 -0.41 -0.14    +0.166 HD
DOCKED: ENDROOT
DOCKED: BRANCH   7  33
DOCKED: ATOM     33  C   UNL d   1       7.648  40.044  21.637 -0.27 -0.03    +0.141 C 
DOCKED: BRANCH  33  34
DOCKED: ATOM     34  C   UNL d   1       7.137  41.436  21.893 -0.09 -0.08    +0.306 C 
DOCKED: ATOM     35  O   UNL d   1       7.181  42.036  22.953 -0.03 +0.06    -0.251 OA
DOCKED: BRANCH  34  36
DOCKED: ATOM     36  O   UNL d   1       6.598  42.000  20.797 -0.25 +0.19    -0.481 OA
DOCKED: ATOM     37  H   UNL d   1       7.367  42.343  20.293 +0.05 -0.21    +0.295 HD
DOCKED: ENDBRANCH  34  36
DOCKED: ENDBRANCH  33  34
DOCKED: ENDBRANCH   7  33
DOCKED: BRANCH  27  38
DOCKED: ATOM     38  C   UNL d   1      10.877  36.897  28.091 -0.10 -0.01    +0.017 C 
DOCKED: ATOM     39  C   UNL d   1      11.505  37.317  29.200 -0.11 -0.04    +0.092 C 
DOCKED: BRANCH  39  40
DOCKED: ATOM     40  C   UNL d   1      11.365  36.561  30.448 -0.05 -0.09    +0.330 C 
DOCKED: ATOM     41  O   UNL d   1      10.385  36.484  31.165 -0.02 +0.02    -0.246 OA
DOCKED: BRANCH  40  42
DOCKED: ATOM     42  O   UNL d   1      12.507  35.914  30.727 -0.05 +0.13    -0.477 OA
DOCKED: ATOM     43  H   UNL d   1      13.197  36.463  30.301 +0.07 -0.09    +0.295 HD
DOCKED: ENDBRANCH  40  42
DOCKED: ENDBRANCH  39  40
DOCKED: ENDBRANCH  27  38
DOCKED: BRANCH   8  44
DOCKED: ATOM     44  C   UNL d   1      13.389  45.297  21.594 -0.11 -0.03    +0.141 C 
DOCKED: BRANCH  44  45
DOCKED: ATOM     45  C   UNL d   1      13.743  44.173  20.657 -0.15 -0.07    +0.306 C 
DOCKED: ATOM     46  O   UNL d   1      13.309  44.001  19.531 -0.05 +0.07    -0.251 OA
DOCKED: BRANCH  45  47
DOCKED: ATOM     47  O   UNL d   1      14.613  43.303  21.202 -0.18 +0.13    -0.481 OA
DOCKED: ATOM     48  H   UNL d   1      14.098  42.840  21.896 +0.12 -0.08    +0.295 HD
DOCKED: ENDBRANCH  45  47
DOCKED: ENDBRANCH  44  45
DOCKED: ENDBRANCH   8  44
DOCKED: BRANCH  22  49
DOCKED: ATOM     49  C   UNL d   1      16.231  38.490  27.797 -0.22 -0.01    +0.048 C 
DOCKED: BRANCH  49  50
DOCKED: ATOM     50  C   UNL d   1      15.575  38.355  29.171 -0.19 -0.02    +0.125 C 
DOCKED: BRANCH  50  51
DOCKED: ATOM     51  C   UNL d   1      15.080  36.954  29.393 -0.20 -0.06    +0.305 C 
DOCKED: ATOM     52  O   UNL d   1      14.503  36.235  28.596 -0.22 +0.13    -0.251 OA
DOCKED: BRANCH  51  53
DOCKED: ATOM     53  O   UNL d   1      15.331  36.522  30.645 -0.05 +0.03    -0.481 OA
DOCKED: ATOM     54  H   UNL d   1      14.661  35.823  30.795 +0.08 -0.03    +0.295 HD
DOCKED: ENDBRANCH  51  53
DOCKED: ENDBRANCH  50  51
DOCKED: ENDBRANCH  49  50
DOCKED: ENDBRANCH  22  49
DOCKED: TORSDOF 13
DOCKED: TER
DOCKED: ENDMDL
________________________________________________________________________________


	BEGINNING GENETIC ALGORITHM DOCKING 10 of 100
Run: 10 Seed: 599918312 57080127 [ Run 10 of 100 GA/GALS ]
Beginning LAMARCKIAN GENETIC ALGORITHM (LGA), with a maximum of 25000000 energy evaluations.

Final-Value: -13.613


	FINAL GENETIC ALGORITHM DOCKED STATE
	_______________________________________________


Detailed state:  trans 11.361 40.153 25.021 quatxyzw -0.708259 0.558715 -0.399244 0.163738 center 0.153 0.018 -0.028 ntor 13 115.4177 157.5746 -170.5551 -25.3105 -106.7894 52.4386 143.2726 -69.5278 32.2924 -6.2037 -87.0802 -71.6118 -13.3622
State:	 11.361  40.153  25.021  -0.718  0.566 -0.405 161.152    115.42  157.57 -170.56  -25.31 -106.79   52.44  143.27  -69.53   32.29   -6.20  -87.08  -71.61  -13.36

DOCKED: MODEL       10
DOCKED: USER    Run = 10
DOCKED: USER    DPF = D:/Protein_go_brrr/autodock/final/2DN3/heme/dock.dpf
DOCKED: USER  
DOCKED: USER    Estimated Free Energy of Binding    =   -5.49 kcal/mol  [=(1)+(2)+(3)-(4)]
DOCKED: USER    Estimated Inhibition Constant, Ki   =   94.85 uM (micromolar)  [Temperature = 298.15 K]
DOCKED: USER    
DOCKED: USER    (1) Final Intermolecular Energy     =   -9.37 kcal/mol
DOCKED: USER        vdW + Hbond + desolv Energy     =   -9.13 kcal/mol
DOCKED: USER        Electrostatic Energy            =   -0.24 kcal/mol
DOCKED: USER    (2) Final Total Internal Energy     =   -4.25 kcal/mol
DOCKED: USER    (3) Torsional Free Energy           =   +3.88 kcal/mol
DOCKED: USER    (4) Unbound System's Energy  [=(2)] =   -4.25 kcal/mol
DOCKED: USER    
DOCKED: USER    
DOCKED: USER    NEWDPF move heme_opt.pdbqt
DOCKED: USER    NEWDPF about 0.153000 0.018000 -0.028000
DOCKED: USER    NEWDPF tran0 11.360978 40.152714 25.021256
DOCKED: USER    NEWDPF quaternion0 -0.708259 0.558715 -0.399244 0.163738
DOCKED: USER    NEWDPF axisangle0 -0.717949 0.566359 -0.404706 161.152114
DOCKED: USER    NEWDPF quat0 -0.717949 0.566359 -0.404706 161.152114
DOCKED: USER    NEWDPF dihe0 115.42 157.57 -170.56 -25.31 -106.79 52.44 143.27 -69.53 32.29 -6.20 -87.08 -71.61 -13.36 
DOCKED: USER  keepresnum = 1 
DOCKED: USER  
DOCKED: REMARK  13 active torsions:
DOCKED: REMARK  status: ('A' for Active; 'I' for Inactive)
DOCKED: REMARK    1  A    between atoms: O_3  and  C_38 
DOCKED: REMARK    2  A    between atoms: O_4  and  C_40 
DOCKED: REMARK    3  A    between atoms: O_7  and  C_46 
DOCKED: REMARK    4  A    between atoms: O_9  and  C_48 
DOCKED: REMARK    5  A    between atoms: C_15  and  C_20 
DOCKED: REMARK    6  A    between atoms: C_16  and  C_23 
DOCKED: REMARK    7  A    between atoms: C_20  and  C_38 
DOCKED: REMARK    8  A    between atoms: C_23  and  C_40 
DOCKED: REMARK    9  A    between atoms: C_32  and  C_41 
DOCKED: REMARK   10  A    between atoms: C_37  and  C_45 
DOCKED: REMARK   11  A    between atoms: C_41  and  C_44 
DOCKED: REMARK   12  A    between atoms: C_44  and  C_46 
DOCKED: REMARK   13  A    between atoms: C_47  and  C_48 
DOCKED: USER                              x       y       z     vdW  Elec       q    Type
DOCKED: USER                           _______ _______ _______ _____ _____    ______ ____
DOCKED: ROOT
DOCKED: ATOM      1  O   UNL d   1       9.732  42.876  20.053 -0.15 +0.16    -0.289 OA
DOCKED: ATOM      2  O   UNL d   1      15.075  44.539  25.061 -0.06 +0.04    -0.289 OA
DOCKED: ATOM      3  N   UNL d   1      10.238  41.036  22.925 -0.11 +0.06    -0.247 NA
DOCKED: ATOM      4  N   UNL d   1      12.696  42.238  24.083 -0.10 +0.07    -0.247 NA
DOCKED: ATOM      5  N   UNL d   1      12.871  39.965  25.835 -0.00 +0.16    -0.354 N 
DOCKED: ATOM      6  N   UNL d   1      10.332  38.715  24.615 -0.13 +0.11    -0.354 N 
DOCKED: ATOM      7  C   UNL d   1       8.807  40.799  20.950 -0.26 -0.02    +0.084 A 
DOCKED: ATOM      8  C   UNL d   1      13.172  44.568  23.521 -0.06 -0.01    +0.084 A 
DOCKED: ATOM      9  C   UNL d   1      12.308  43.319  23.323 -0.12 -0.01    +0.058 A 
DOCKED: ATOM     10  C   UNL d   1       9.283  40.253  22.299 -0.24 -0.01    +0.058 A 
DOCKED: ATOM     11  C   UNL d   1       9.649  42.040  20.933 -0.14 -0.07    +0.193 A 
DOCKED: ATOM     12  C   UNL d   1      10.452  42.082  22.196 -0.15 -0.03    +0.109 A 
DOCKED: ATOM     13  C   UNL d   1      14.145  43.986  24.507 -0.06 -0.03    +0.193 A 
DOCKED: ATOM     14  C   UNL d   1       9.228  39.900  19.784 -0.42 -0.00    +0.026 C 
DOCKED: ATOM     15  C   UNL d   1      11.294  43.270  22.446 -0.14 -0.01    +0.055 C 
DOCKED: ATOM     16  C   UNL d   1      12.393  45.695  24.206 -0.02 -0.00    +0.026 C 
DOCKED: ATOM     17  C   UNL d   1      13.751  42.567  24.758 -0.14 -0.03    +0.109 A 
DOCKED: ATOM     18  C   UNL d   1       8.735  39.151  22.844 -0.34 -0.01    +0.050 C 
DOCKED: ATOM     19  C   UNL d   1       9.050  38.621  24.121 -0.27 -0.01    +0.045 A 
DOCKED: ATOM     20  C   UNL d   1      14.089  40.546  26.080 -0.13 -0.02    +0.045 A 
DOCKED: ATOM     21  C   UNL d   1      14.555  41.725  25.656 -0.20 -0.02    +0.057 C 
DOCKED: ATOM     22  C   UNL d   1      14.007  38.526  27.144 -0.27 +0.01    -0.019 A 
DOCKED: ATOM     23  C   UNL d   1      12.730  38.743  26.436 -0.29 -0.02    +0.045 A 
DOCKED: ATOM     24  C   UNL d   1      14.807  39.598  26.931 -0.25 +0.01    -0.022 A 
DOCKED: ATOM     25  C   UNL d   1      10.435  38.059  25.820 -0.24 -0.02    +0.049 A 
DOCKED: ATOM     26  C   UNL d   1       8.293  37.918  25.045 -0.26 +0.00    -0.018 A 
DOCKED: ATOM     27  C   UNL d   1       9.168  37.583  26.125 -0.26 -0.00    +0.003 A 
DOCKED: ATOM     28  C   UNL d   1      11.698  37.885  26.449 -0.33 -0.03    +0.052 C 
DOCKED: ATOM     29  C   UNL d   1      16.184  39.851  27.444 -0.26 -0.01    +0.046 C 
DOCKED: ATOM     30  C   UNL d   1       6.845  37.578  24.935 -0.21 -0.01    +0.046 C 
DOCKED: ATOM     31  H   UNL d   1      12.147  40.458  25.325 -0.12 -0.07    +0.166 HD
DOCKED: ATOM     32  H   UNL d   1      11.090  39.174  24.123 -0.08 -0.07    +0.166 HD
DOCKED: ENDROOT
DOCKED: BRANCH   7  33
DOCKED: ATOM     33  C   UNL d   1       7.319  41.158  20.874 -0.19 -0.04    +0.141 C 
DOCKED: BRANCH  33  34
DOCKED: ATOM     34  C   UNL d   1       7.014  42.496  21.490 -0.09 -0.12    +0.306 C 
DOCKED: ATOM     35  O   UNL d   1       7.328  42.862  22.611 -0.03 +0.07    -0.251 OA
DOCKED: BRANCH  34  36
DOCKED: ATOM     36  O   UNL d   1       6.331  43.305  20.661 -0.44 +0.34    -0.481 OA
DOCKED: ATOM     37  H   UNL d   1       6.962  43.506  19.938 -0.35 -0.43    +0.295 HD
DOCKED: ENDBRANCH  34  36
DOCKED: ENDBRANCH  33  34
DOCKED: ENDBRANCH   7  33
DOCKED: BRANCH  27  38
DOCKED: ATOM     38  C   UNL d   1       8.793  36.839  27.290 -0.25 -0.00    +0.017 C 
DOCKED: ATOM     39  C   UNL d   1       9.584  35.975  27.943 -0.16 -0.02    +0.092 C 
DOCKED: BRANCH  39  40
DOCKED: ATOM     40  C   UNL d   1       9.085  35.288  29.138 -0.09 +0.08    +0.330 C 
DOCKED: ATOM     41  O   UNL d   1       8.040  34.677  29.262 -0.60 -0.16    -0.246 OA
DOCKED: BRANCH  40  42
DOCKED: ATOM     42  O   UNL d   1       9.967  35.407  30.142 -0.07 +0.03    -0.477 OA
DOCKED: ATOM     43  H   UNL d   1      10.816  35.588  29.688 +0.05 -0.13    +0.295 HD
DOCKED: ENDBRANCH  40  42
DOCKED: ENDBRANCH  39  40
DOCKED: ENDBRANCH  27  38
DOCKED: BRANCH   8  44
DOCKED: ATOM     44  C   UNL d   1      13.896  45.076  22.270 -0.13 -0.03    +0.141 C 
DOCKED: BRANCH  44  45
DOCKED: ATOM     45  C   UNL d   1      14.766  44.032  21.622 -0.18 -0.07    +0.306 C 
DOCKED: ATOM     46  O   UNL d   1      14.482  43.348  20.654 -0.20 +0.06    -0.251 OA
DOCKED: BRANCH  45  47
DOCKED: ATOM     47  O   UNL d   1      15.947  43.884  22.249 -0.18 +0.13    -0.481 OA
DOCKED: ATOM     48  H   UNL d   1      15.862  44.419  23.067 +0.13 -0.05    +0.295 HD
DOCKED: ENDBRANCH  45  47
DOCKED: ENDBRANCH  44  45
DOCKED: ENDBRANCH   8  44
DOCKED: BRANCH  22  49
DOCKED: ATOM     49  C   UNL d   1      14.330  37.298  27.943 -0.24 -0.03    +0.048 C 
DOCKED: BRANCH  49  50
DOCKED: ATOM     50  C   UNL d   1      14.069  37.505  29.435 -0.17 -0.04    +0.125 C 
DOCKED: BRANCH  50  51
DOCKED: ATOM     51  C   UNL d   1      12.691  37.037  29.808 -0.07 -0.12    +0.305 C 
DOCKED: ATOM     52  O   UNL d   1      11.631  37.598  29.590 -0.06 +0.08    -0.251 OA
DOCKED: BRANCH  51  53
DOCKED: ATOM     53  O   UNL d   1      12.718  35.861  30.466 -0.05 +0.17    -0.481 OA
DOCKED: ATOM     54  H   UNL d   1      11.898  35.870  31.003 +0.05 -0.07    +0.295 HD
DOCKED: ENDBRANCH  51  53
DOCKED: ENDBRANCH  50  51
DOCKED: ENDBRANCH  49  50
DOCKED: ENDBRANCH  22  49
DOCKED: TORSDOF 13
DOCKED: TER
DOCKED: ENDMDL
________________________________________________________________________________


	BEGINNING GENETIC ALGORITHM DOCKING 11 of 100
Run: 11 Seed: 1280191374 1858010753 [ Run 11 of 100 GA/GALS ]
Beginning LAMARCKIAN GENETIC ALGORITHM (LGA), with a maximum of 25000000 energy evaluations.

Final-Value: -11.778


	FINAL GENETIC ALGORITHM DOCKED STATE
	_______________________________________________


Detailed state:  trans 25.506 38.298 -4.196 quatxyzw -0.848660 0.291259 -0.400979 0.184823 center 0.153 0.018 -0.028 ntor 13 115.1736 154.2646 -113.3723 -13.9090 -138.8259 108.4092 121.6003 -134.9497 18.0838 -25.8017 -88.9697 -97.9997 -7.4763
State:	 25.506  38.298  -4.196  -0.864  0.296 -0.408 158.698    115.17  154.26 -113.37  -13.91 -138.83  108.41  121.60 -134.95   18.08  -25.80  -88.97  -98.00   -7.48

DOCKED: MODEL       11
DOCKED: USER    Run = 11
DOCKED: USER    DPF = D:/Protein_go_brrr/autodock/final/2DN3/heme/dock.dpf
DOCKED: USER  
DOCKED: USER    Estimated Free Energy of Binding    =   -3.26 kcal/mol  [=(1)+(2)+(3)-(4)]
DOCKED: USER    Estimated Inhibition Constant, Ki   =    4.05 mM (millimolar)  [Temperature = 298.15 K]
DOCKED: USER    
DOCKED: USER    (1) Final Intermolecular Energy     =   -7.14 kcal/mol
DOCKED: USER        vdW + Hbond + desolv Energy     =   -7.06 kcal/mol
DOCKED: USER        Electrostatic Energy            =   -0.08 kcal/mol
DOCKED: USER    (2) Final Total Internal Energy     =   -4.64 kcal/mol
DOCKED: USER    (3) Torsional Free Energy           =   +3.88 kcal/mol
DOCKED: USER    (4) Unbound System's Energy  [=(2)] =   -4.64 kcal/mol
DOCKED: USER    
DOCKED: USER    
DOCKED: USER    NEWDPF move heme_opt.pdbqt
DOCKED: USER    NEWDPF about 0.153000 0.018000 -0.028000
DOCKED: USER    NEWDPF tran0 25.506409 38.297650 -4.195594
DOCKED: USER    NEWDPF quaternion0 -0.848660 0.291259 -0.400979 0.184823
DOCKED: USER    NEWDPF axisangle0 -0.863537 0.296365 -0.408009 158.698401
DOCKED: USER    NEWDPF quat0 -0.863537 0.296365 -0.408009 158.698401
DOCKED: USER    NEWDPF dihe0 115.17 154.26 -113.37 -13.91 -138.83 108.41 121.60 -134.95 18.08 -25.80 -88.97 -98.00 -7.48 
DOCKED: USER  keepresnum = 1 
DOCKED: USER  
DOCKED: REMARK  13 active torsions:
DOCKED: REMARK  status: ('A' for Active; 'I' for Inactive)
DOCKED: REMARK    1  A    between atoms: O_3  and  C_38 
DOCKED: REMARK    2  A    between atoms: O_4  and  C_40 
DOCKED: REMARK    3  A    between atoms: O_7  and  C_46 
DOCKED: REMARK    4  A    between atoms: O_9  and  C_48 
DOCKED: REMARK    5  A    between atoms: C_15  and  C_20 
DOCKED: REMARK    6  A    between atoms: C_16  and  C_23 
DOCKED: REMARK    7  A    between atoms: C_20  and  C_38 
DOCKED: REMARK    8  A    between atoms: C_23  and  C_40 
DOCKED: REMARK    9  A    between atoms: C_32  and  C_41 
DOCKED: REMARK   10  A    between atoms: C_37  and  C_45 
DOCKED: REMARK   11  A    between atoms: C_41  and  C_44 
DOCKED: REMARK   12  A    between atoms: C_44  and  C_46 
DOCKED: REMARK   13  A    between atoms: C_47  and  C_48 
DOCKED: USER                              x       y       z     vdW  Elec       q    Type
DOCKED: USER                           _______ _______ _______ _____ _____    ______ ____
DOCKED: ROOT
DOCKED: ATOM      1  O   UNL d   1      21.938  38.598  -8.879 -0.11 -0.13    -0.289 OA
DOCKED: ATOM      2  O   UNL d   1      26.364  43.774  -5.715 -0.03 -0.04    -0.289 OA
DOCKED: ATOM      3  N   UNL d   1      23.772  37.993  -6.021 -0.13 -0.03    -0.247 NA
DOCKED: ATOM      4  N   UNL d   1      25.400  40.461  -5.719 -0.12 -0.04    -0.247 NA
DOCKED: ATOM      5  N   UNL d   1      27.003  39.056  -3.789 -0.12 -0.04    -0.354 N 
DOCKED: ATOM      6  N   UNL d   1      25.321  36.495  -4.123 -0.13 +0.00    -0.354 N 
DOCKED: ATOM      7  C   UNL d   1      22.378  36.626  -7.503 -0.10 +0.01    +0.084 A 
DOCKED: ATOM      8  C   UNL d   1      24.505  42.516  -6.691 -0.11 +0.01    +0.084 A 
DOCKED: ATOM      9  C   UNL d   1      24.393  41.002  -6.488 -0.08 +0.01    +0.058 A 
DOCKED: ATOM     10  C   UNL d   1      23.275  36.724  -6.266 -0.15 +0.00    +0.058 A 
DOCKED: ATOM     11  C   UNL d   1      22.440  38.069  -7.904 -0.09 +0.05    +0.193 A 
DOCKED: ATOM     12  C   UNL d   1      23.295  38.798  -6.913 -0.14 +0.02    +0.109 A 
DOCKED: ATOM     13  C   UNL d   1      25.781  42.729  -5.927 -0.08 +0.03    +0.193 A 
DOCKED: ATOM     14  C   UNL d   1      23.012  35.777  -8.607 -0.05 +0.00    +0.026 C 
DOCKED: ATOM     15  C   UNL d   1      23.427  40.263  -7.054 -0.08 +0.01    +0.055 C 
DOCKED: ATOM     16  C   UNL d   1      23.375  43.269  -5.982 -0.14 +0.01    +0.026 C 
DOCKED: ATOM     17  C   UNL d   1      26.224  41.405  -5.395 -0.13 +0.02    +0.109 A 
DOCKED: ATOM     18  C   UNL d   1      23.471  35.668  -5.454 -0.23 -0.00    +0.050 C 
DOCKED: ATOM     19  C   UNL d   1      24.214  35.685  -4.246 -0.24 -0.00    +0.045 A 
DOCKED: ATOM     20  C   UNL d   1      27.764  40.184  -3.951 -0.13 +0.01    +0.045 A 
DOCKED: ATOM     21  C   UNL d   1      27.479  41.296  -4.637 -0.12 +0.01    +0.057 C 
DOCKED: ATOM     22  C   UNL d   1      28.910  38.702  -2.645 -0.10 -0.00    -0.019 A 
DOCKED: ATOM     23  C   UNL d   1      27.612  38.104  -3.016 -0.17 +0.01    +0.045 A 
DOCKED: ATOM     24  C   UNL d   1      28.994  39.934  -3.201 -0.08 -0.00    -0.022 A 
DOCKED: ATOM     25  C   UNL d   1      25.938  36.288  -2.911 -0.23 +0.00    +0.049 A 
DOCKED: ATOM     26  C   UNL d   1      24.088  34.961  -3.071 -0.32 +0.00    -0.018 A 
DOCKED: ATOM     27  C   UNL d   1      25.168  35.360  -2.224 -0.26 -0.00    +0.003 A 
DOCKED: ATOM     28  C   UNL d   1      27.190  36.894  -2.618 -0.20 +0.00    +0.052 C 
DOCKED: ATOM     29  C   UNL d   1      30.102  40.927  -3.106 -0.03 +0.01    +0.046 C 
DOCKED: ATOM     30  C   UNL d   1      23.029  33.961  -2.750 -0.48 -0.01    +0.046 C 
DOCKED: ATOM     31  H   UNL d   1      26.057  39.003  -4.152 +0.03 +0.02    +0.166 HD
DOCKED: ATOM     32  H   UNL d   1      25.642  37.119  -4.853 +0.04 +0.01    +0.166 HD
DOCKED: ENDROOT
DOCKED: BRANCH   7  33
DOCKED: ATOM     33  C   UNL d   1      20.929  36.206  -7.232 -0.23 +0.04    +0.141 C 
DOCKED: BRANCH  33  34
DOCKED: ATOM     34  C   UNL d   1      20.169  37.228  -6.431 -0.24 +0.10    +0.306 C 
DOCKED: ATOM     35  O   UNL d   1      20.163  37.332  -5.216 -0.32 -0.05    -0.251 OA
DOCKED: BRANCH  34  36
DOCKED: ATOM     36  O   UNL d   1      19.459  38.069  -7.204 -0.64 -0.35    -0.481 OA
DOCKED: ATOM     37  H   UNL d   1      20.135  38.592  -7.685 +0.14 +0.22    +0.295 HD
DOCKED: ENDBRANCH  34  36
DOCKED: ENDBRANCH  33  34
DOCKED: ENDBRANCH   7  33
DOCKED: BRANCH  27  38
DOCKED: ATOM     38  C   UNL d   1      25.424  34.843  -0.913 -0.22 +0.00    +0.017 C 
DOCKED: ATOM     39  C   UNL d   1      26.534  34.187  -0.543 -0.23 +0.01    +0.092 C 
DOCKED: BRANCH  39  40
DOCKED: ATOM     40  C   UNL d   1      26.680  33.722   0.839 -0.18 +0.11    +0.330 C 
DOCKED: ATOM     41  O   UNL d   1      26.600  32.581   1.253 -0.55 -0.08    -0.246 OA
DOCKED: BRANCH  40  42
DOCKED: ATOM     42  O   UNL d   1      26.938  34.760   1.650 -0.08 -0.15    -0.477 OA
DOCKED: ATOM     43  H   UNL d   1      27.358  35.420   1.061 +0.12 +0.07    +0.295 HD
DOCKED: ENDBRANCH  40  42
DOCKED: ENDBRANCH  39  40
DOCKED: ENDBRANCH  27  38
DOCKED: BRANCH   8  44
DOCKED: ATOM     44  C   UNL d   1      24.652  42.978  -8.145 -0.04 +0.02    +0.141 C 
DOCKED: BRANCH  44  45
DOCKED: ATOM     45  C   UNL d   1      26.028  42.744  -8.707 -0.00 +0.03    +0.306 C 
DOCKED: ATOM     46  O   UNL d   1      26.484  41.682  -9.095 -0.01 -0.03    -0.251 OA
DOCKED: BRANCH  45  47
DOCKED: ATOM     47  O   UNL d   1      26.775  43.863  -8.724 +0.00 -0.05    -0.481 OA
DOCKED: ATOM     48  H   UNL d   1      26.909  44.086  -7.779 +0.01 +0.03    +0.295 HD
DOCKED: ENDBRANCH  45  47
DOCKED: ENDBRANCH  44  45
DOCKED: ENDBRANCH   8  44
DOCKED: BRANCH  22  49
DOCKED: ATOM     49  C   UNL d   1      29.944  38.014  -1.803 -0.05 +0.01    +0.048 C 
DOCKED: BRANCH  49  50
DOCKED: ATOM     50  C   UNL d   1      29.764  38.322  -0.317 -0.07 +0.02    +0.125 C 
DOCKED: BRANCH  50  51
DOCKED: ATOM     51  C   UNL d   1      28.893  37.292   0.343 -0.07 +0.05    +0.305 C 
DOCKED: ATOM     52  O   UNL d   1      28.044  37.474   1.198 -0.14 -0.02    -0.251 OA
DOCKED: BRANCH  51  53
DOCKED: ATOM     53  O   UNL d   1      29.150  36.049  -0.111 -0.00 -0.13    -0.481 OA
DOCKED: ATOM     54  H   UNL d   1      28.710  35.462   0.539 +0.08 +0.11    +0.295 HD
DOCKED: ENDBRANCH  51  53
DOCKED: ENDBRANCH  50  51
DOCKED: ENDBRANCH  49  50
DOCKED: ENDBRANCH  22  49
DOCKED: TORSDOF 13
DOCKED: TER
DOCKED: ENDMDL
________________________________________________________________________________


	BEGINNING GENETIC ALGORITHM DOCKING 12 of 100
Run: 12 Seed: 741232096 915923438 [ Run 12 of 100 GA/GALS ]
Beginning LAMARCKIAN GENETIC ALGORITHM (LGA), with a maximum of 25000000 energy evaluations.

Final-Value: -14.061


	FINAL GENETIC ALGORITHM DOCKED STATE
	_______________________________________________


Detailed state:  trans 11.423 40.218 24.918 quatxyzw -0.711738 0.547502 -0.404935 0.172333 center 0.153 0.018 -0.028 ntor 13 137.0674 -165.1837 -110.6818 65.0402 -132.6539 60.3739 119.0128 -80.7332 26.0812 -35.0629 -90.2312 -72.7988 -12.3167
State:	 11.423  40.218  24.918  -0.723  0.556 -0.411 160.153    137.07 -165.18 -110.68   65.04 -132.65   60.37  119.01  -80.73   26.08  -35.06  -90.23  -72.80  -12.32

DOCKED: MODEL       12
DOCKED: USER    Run = 12
DOCKED: USER    DPF = D:/Protein_go_brrr/autodock/final/2DN3/heme/dock.dpf
DOCKED: USER  
DOCKED: USER    Estimated Free Energy of Binding    =   -5.46 kcal/mol  [=(1)+(2)+(3)-(4)]
DOCKED: USER    Estimated Inhibition Constant, Ki   =   98.96 uM (micromolar)  [Temperature = 298.15 K]
DOCKED: USER    
DOCKED: USER    (1) Final Intermolecular Energy     =   -9.34 kcal/mol
DOCKED: USER        vdW + Hbond + desolv Energy     =   -9.07 kcal/mol
DOCKED: USER        Electrostatic Energy            =   -0.27 kcal/mol
DOCKED: USER    (2) Final Total Internal Energy     =   -4.72 kcal/mol
DOCKED: USER    (3) Torsional Free Energy           =   +3.88 kcal/mol
DOCKED: USER    (4) Unbound System's Energy  [=(2)] =   -4.72 kcal/mol
DOCKED: USER    
DOCKED: USER    
DOCKED: USER    NEWDPF move heme_opt.pdbqt
DOCKED: USER    NEWDPF about 0.153000 0.018000 -0.028000
DOCKED: USER    NEWDPF tran0 11.423471 40.217579 24.918488
DOCKED: USER    NEWDPF quaternion0 -0.711738 0.547502 -0.404935 0.172333
DOCKED: USER    NEWDPF axisangle0 -0.722548 0.555817 -0.411086 160.153063
DOCKED: USER    NEWDPF quat0 -0.722548 0.555817 -0.411086 160.153063
DOCKED: USER    NEWDPF dihe0 137.07 -165.18 -110.68 65.04 -132.65 60.37 119.01 -80.73 26.08 -35.06 -90.23 -72.80 -12.32 
DOCKED: USER  keepresnum = 1 
DOCKED: USER  
DOCKED: REMARK  13 active torsions:
DOCKED: REMARK  status: ('A' for Active; 'I' for Inactive)
DOCKED: REMARK    1  A    between atoms: O_3  and  C_38 
DOCKED: REMARK    2  A    between atoms: O_4  and  C_40 
DOCKED: REMARK    3  A    between atoms: O_7  and  C_46 
DOCKED: REMARK    4  A    between atoms: O_9  and  C_48 
DOCKED: REMARK    5  A    between atoms: C_15  and  C_20 
DOCKED: REMARK    6  A    between atoms: C_16  and  C_23 
DOCKED: REMARK    7  A    between atoms: C_20  and  C_38 
DOCKED: REMARK    8  A    between atoms: C_23  and  C_40 
DOCKED: REMARK    9  A    between atoms: C_32  and  C_41 
DOCKED: REMARK   10  A    between atoms: C_37  and  C_45 
DOCKED: REMARK   11  A    between atoms: C_41  and  C_44 
DOCKED: REMARK   12  A    between atoms: C_44  and  C_46 
DOCKED: REMARK   13  A    between atoms: C_47  and  C_48 
DOCKED: USER                              x       y       z     vdW  Elec       q    Type
DOCKED: USER                           _______ _______ _______ _____ _____    ______ ____
DOCKED: ROOT
DOCKED: ATOM      1  O   UNL d   1       9.716  42.785  19.894 -0.17 +0.16    -0.289 OA
DOCKED: ATOM      2  O   UNL d   1      15.072  44.658  24.813 -0.06 +0.04    -0.289 OA
DOCKED: ATOM      3  N   UNL d   1      10.271  41.028  22.809 -0.12 +0.06    -0.247 NA
DOCKED: ATOM      4  N   UNL d   1      12.720  42.297  23.915 -0.11 +0.07    -0.247 NA
DOCKED: ATOM      5  N   UNL d   1      12.943  40.074  25.725 +0.01 +0.16    -0.354 N 
DOCKED: ATOM      6  N   UNL d   1      10.413  38.755  24.558 -0.14 +0.11    -0.354 N 
DOCKED: ATOM      7  C   UNL d   1       8.829  40.719  20.852 -0.28 -0.02    +0.084 A 
DOCKED: ATOM      8  C   UNL d   1      13.157  44.618  23.288 -0.07 -0.01    +0.084 A 
DOCKED: ATOM      9  C   UNL d   1      12.310  43.351  23.130 -0.13 -0.01    +0.058 A 
DOCKED: ATOM     10  C   UNL d   1       9.323  40.215  22.211 -0.25 -0.01    +0.058 A 
DOCKED: ATOM     11  C   UNL d   1       9.651  41.971  20.796 -0.15 -0.07    +0.193 A 
DOCKED: ATOM     12  C   UNL d   1      10.464  42.058  22.051 -0.16 -0.03    +0.109 A 
DOCKED: ATOM     13  C   UNL d   1      14.146  44.076  24.281 -0.06 -0.03    +0.193 A 
DOCKED: ATOM     14  C   UNL d   1       9.254  39.795  19.708 -0.40 -0.00    +0.026 C 
DOCKED: ATOM     15  C   UNL d   1      11.290  43.264  22.263 -0.15 -0.01    +0.055 C 
DOCKED: ATOM     16  C   UNL d   1      12.366  45.751  23.950 -0.03 -0.00    +0.026 C 
DOCKED: ATOM     17  C   UNL d   1      13.775  42.658  24.572 -0.14 -0.03    +0.109 A 
DOCKED: ATOM     18  C   UNL d   1       8.795  39.120  22.790 -0.35 -0.01    +0.050 C 
DOCKED: ATOM     19  C   UNL d   1       9.129  38.628  24.078 -0.27 -0.01    +0.045 A 
DOCKED: ATOM     20  C   UNL d   1      14.153  40.679  25.945 -0.13 -0.02    +0.045 A 
DOCKED: ATOM     21  C   UNL d   1      14.599  41.852  25.485 -0.21 -0.02    +0.057 C 
DOCKED: ATOM     22  C   UNL d   1      14.110  38.687  27.062 -0.25 +0.01    -0.019 A 
DOCKED: ATOM     23  C   UNL d   1      12.824  38.866  26.358 -0.28 -0.02    +0.045 A 
DOCKED: ATOM     24  C   UNL d   1      14.892  39.764  26.814 -0.26 +0.01    -0.022 A 
DOCKED: ATOM     25  C   UNL d   1      10.535  38.133  25.779 -0.25 -0.02    +0.049 A 
DOCKED: ATOM     26  C   UNL d   1       8.389  37.939  25.026 -0.26 +0.00    -0.018 A 
DOCKED: ATOM     27  C   UNL d   1       9.277  37.646  26.107 -0.25 -0.00    +0.003 A 
DOCKED: ATOM     28  C   UNL d   1      11.805  37.994  26.403 -0.34 -0.03    +0.052 C 
DOCKED: ATOM     29  C   UNL d   1      16.269  40.051  27.309 -0.26 -0.01    +0.046 C 
DOCKED: ATOM     30  C   UNL d   1       6.946  37.576  24.937 -0.21 -0.01    +0.046 C 
DOCKED: ATOM     31  H   UNL d   1      12.207  40.542  25.207 -0.16 -0.07    +0.166 HD
DOCKED: ATOM     32  H   UNL d   1      11.160  39.211  24.048 -0.11 -0.07    +0.166 HD
DOCKED: ENDROOT
DOCKED: BRANCH   7  33
DOCKED: ATOM     33  C   UNL d   1       7.335  41.053  20.780 -0.19 -0.04    +0.141 C 
DOCKED: BRANCH  33  34
DOCKED: ATOM     34  C   UNL d   1       6.992  42.332  21.494 -0.09 -0.11    +0.306 C 
DOCKED: ATOM     35  O   UNL d   1       6.867  42.473  22.699 -0.03 +0.06    -0.251 OA
DOCKED: BRANCH  34  36
DOCKED: ATOM     36  O   UNL d   1       6.828  43.368  20.652 -0.24 +0.38    -0.481 OA
DOCKED: ATOM     37  H   UNL d   1       7.587  43.306  20.034 -0.21 -0.36    +0.295 HD
DOCKED: ENDBRANCH  34  36
DOCKED: ENDBRANCH  33  34
DOCKED: ENDBRANCH   7  33
DOCKED: BRANCH  27  38
DOCKED: ATOM     38  C   UNL d   1       8.923  36.928  27.294 -0.25 -0.00    +0.017 C 
DOCKED: ATOM     39  C   UNL d   1       9.724  36.075  27.951 -0.14 -0.03    +0.092 C 
DOCKED: BRANCH  39  40
DOCKED: ATOM     40  C   UNL d   1       9.246  35.415  29.169 -0.13 +0.04    +0.330 C 
DOCKED: ATOM     41  O   UNL d   1       8.270  34.700  29.292 -0.59 -0.16    -0.246 OA
DOCKED: BRANCH  40  42
DOCKED: ATOM     42  O   UNL d   1      10.060  35.697  30.197 -0.05 +0.05    -0.477 OA
DOCKED: ATOM     43  H   UNL d   1      10.593  36.453  29.875 +0.05 -0.08    +0.295 HD
DOCKED: ENDBRANCH  40  42
DOCKED: ENDBRANCH  39  40
DOCKED: ENDBRANCH  27  38
DOCKED: BRANCH   8  44
DOCKED: ATOM     44  C   UNL d   1      13.863  45.103  22.018 -0.14 -0.03    +0.141 C 
DOCKED: BRANCH  44  45
DOCKED: ATOM     45  C   UNL d   1      15.183  44.422  21.775 -0.13 -0.07    +0.306 C 
DOCKED: ATOM     46  O   UNL d   1      15.350  43.284  21.370 -0.38 +0.09    -0.251 OA
DOCKED: BRANCH  45  47
DOCKED: ATOM     47  O   UNL d   1      16.232  45.206  22.083 -0.12 +0.08    -0.481 OA
DOCKED: ATOM     48  H   UNL d   1      16.198  45.293  23.060 +0.12 -0.04    +0.295 HD
DOCKED: ENDBRANCH  45  47
DOCKED: ENDBRANCH  44  45
DOCKED: ENDBRANCH   8  44
DOCKED: BRANCH  22  49
DOCKED: ATOM     49  C   UNL d   1      14.457  37.485  27.890 -0.27 -0.02    +0.048 C 
DOCKED: BRANCH  49  50
DOCKED: ATOM     50  C   UNL d   1      14.181  37.718  29.375 -0.16 -0.03    +0.125 C 
DOCKED: BRANCH  50  51
DOCKED: ATOM     51  C   UNL d   1      12.784  37.296  29.733 -0.07 -0.11    +0.305 C 
DOCKED: ATOM     52  O   UNL d   1      11.765  37.960  29.663 -0.04 +0.07    -0.251 OA
DOCKED: BRANCH  51  53
DOCKED: ATOM     53  O   UNL d   1      12.742  36.027  30.186 -0.05 +0.20    -0.481 OA
DOCKED: ATOM     54  H   UNL d   1      12.210  35.551  29.514 +0.01 -0.27    +0.295 HD
DOCKED: ENDBRANCH  51  53
DOCKED: ENDBRANCH  50  51
DOCKED: ENDBRANCH  49  50
DOCKED: ENDBRANCH  22  49
DOCKED: TORSDOF 13
DOCKED: TER
DOCKED: ENDMDL
________________________________________________________________________________


	BEGINNING GENETIC ALGORITHM DOCKING 13 of 100
Run: 13 Seed: 1245205669 479366921 [ Run 13 of 100 GA/GALS ]
Beginning LAMARCKIAN GENETIC ALGORITHM (LGA), with a maximum of 25000000 energy evaluations.

Final-Value: -11.860


	FINAL GENETIC ALGORITHM DOCKED STATE
	_______________________________________________


Detailed state:  trans 19.320 49.542 -3.716 quatxyzw -0.019915 -0.378324 0.500887 -0.778195 center 0.153 0.018 -0.028 ntor 13 106.2480 179.5087 -115.2999 119.2777 -131.9234 -67.4625 19.9113 -91.5091 33.1245 138.7623 -108.5624 12.6122 -27.9682
State:	 19.320  49.542  -3.716  -0.032 -0.602  0.798 -77.809    106.25  179.51 -115.30  119.28 -131.92  -67.46   19.91  -91.51   33.12  138.76 -108.56   12.61  -27.97

DOCKED: MODEL       13
DOCKED: USER    Run = 13
DOCKED: USER    DPF = D:/Protein_go_brrr/autodock/final/2DN3/heme/dock.dpf
DOCKED: USER  
DOCKED: USER    Estimated Free Energy of Binding    =   -5.23 kcal/mol  [=(1)+(2)+(3)-(4)]
DOCKED: USER    Estimated Inhibition Constant, Ki   =  147.30 uM (micromolar)  [Temperature = 298.15 K]
DOCKED: USER    
DOCKED: USER    (1) Final Intermolecular Energy     =   -9.11 kcal/mol
DOCKED: USER        vdW + Hbond + desolv Energy     =   -8.93 kcal/mol
DOCKED: USER        Electrostatic Energy            =   -0.17 kcal/mol
DOCKED: USER    (2) Final Total Internal Energy     =   -2.75 kcal/mol
DOCKED: USER    (3) Torsional Free Energy           =   +3.88 kcal/mol
DOCKED: USER    (4) Unbound System's Energy  [=(2)] =   -2.75 kcal/mol
DOCKED: USER    
DOCKED: USER    
DOCKED: USER    NEWDPF move heme_opt.pdbqt
DOCKED: USER    NEWDPF about 0.153000 0.018000 -0.028000
DOCKED: USER    NEWDPF tran0 19.320416 49.542137 -3.715523
DOCKED: USER    NEWDPF quaternion0 -0.019915 -0.378324 0.500887 -0.778195
DOCKED: USER    NEWDPF axisangle0 -0.031711 -0.602404 0.797561 -77.808835
DOCKED: USER    NEWDPF quat0 -0.031711 -0.602404 0.797561 -77.808835
DOCKED: USER    NEWDPF dihe0 106.25 179.51 -115.30 119.28 -131.92 -67.46 19.91 -91.51 33.12 138.76 -108.56 12.61 -27.97 
DOCKED: USER  keepresnum = 1 
DOCKED: USER  
DOCKED: REMARK  13 active torsions:
DOCKED: REMARK  status: ('A' for Active; 'I' for Inactive)
DOCKED: REMARK    1  A    between atoms: O_3  and  C_38 
DOCKED: REMARK    2  A    between atoms: O_4  and  C_40 
DOCKED: REMARK    3  A    between atoms: O_7  and  C_46 
DOCKED: REMARK    4  A    between atoms: O_9  and  C_48 
DOCKED: REMARK    5  A    between atoms: C_15  and  C_20 
DOCKED: REMARK    6  A    between atoms: C_16  and  C_23 
DOCKED: REMARK    7  A    between atoms: C_20  and  C_38 
DOCKED: REMARK    8  A    between atoms: C_23  and  C_40 
DOCKED: REMARK    9  A    between atoms: C_32  and  C_41 
DOCKED: REMARK   10  A    between atoms: C_37  and  C_45 
DOCKED: REMARK   11  A    between atoms: C_41  and  C_44 
DOCKED: REMARK   12  A    between atoms: C_44  and  C_46 
DOCKED: REMARK   13  A    between atoms: C_47  and  C_48 
DOCKED: USER                              x       y       z     vdW  Elec       q    Type
DOCKED: USER                           _______ _______ _______ _____ _____    ______ ____
DOCKED: ROOT
DOCKED: ATOM      1  O   UNL d   1      16.445  45.698  -7.138 -0.23 +0.06    -0.289 OA
DOCKED: ATOM      2  O   UNL d   1      23.423  45.570  -4.366 -0.16 -0.03    -0.289 OA
DOCKED: ATOM      3  N   UNL d   1      17.759  48.278  -5.264 -0.12 +0.04    -0.247 NA
DOCKED: ATOM      4  N   UNL d   1      20.389  47.213  -4.382 -0.17 +0.03    -0.247 NA
DOCKED: ATOM      5  N   UNL d   1      20.528  49.376  -2.493 -0.06 +0.07    -0.354 N 
DOCKED: ATOM      6  N   UNL d   1      17.790  50.463  -3.400 -0.12 +0.10    -0.354 N 
DOCKED: ATOM      7  C   UNL d   1      15.551  47.771  -6.200 -0.30 -0.02    +0.084 A 
DOCKED: ATOM      8  C   UNL d   1      21.432  45.509  -5.789 -0.21 +0.00    +0.084 A 
DOCKED: ATOM      9  C   UNL d   1      20.226  46.402  -5.484 -0.25 -0.00    +0.058 A 
DOCKED: ATOM     10  C   UNL d   1      16.448  48.709  -5.388 -0.21 -0.01    +0.058 A 
DOCKED: ATOM     11  C   UNL d   1      16.591  46.742  -6.528 -0.24 -0.03    +0.193 A 
DOCKED: ATOM     12  C   UNL d   1      17.891  47.176  -5.927 -0.23 -0.01    +0.109 A 
DOCKED: ATOM     13  C   UNL d   1      22.295  45.935  -4.635 -0.18 +0.00    +0.193 A 
DOCKED: ATOM     14  C   UNL d   1      14.467  47.121  -5.335 -0.41 -0.01    +0.026 C 
DOCKED: ATOM     15  C   UNL d   1      19.091  46.359  -6.199 -0.29 -0.00    +0.055 C 
DOCKED: ATOM     16  C   UNL d   1      22.122  45.912  -7.095 -0.09 +0.00    +0.026 C 
DOCKED: ATOM     17  C   UNL d   1      21.545  46.965  -3.855 -0.24 -0.01    +0.109 A 
DOCKED: ATOM     18  C   UNL d   1      15.995  49.890  -4.925 -0.23 -0.01    +0.050 C 
DOCKED: ATOM     19  C   UNL d   1      16.772  50.857  -4.239 -0.20 -0.01    +0.045 A 
DOCKED: ATOM     20  C   UNL d   1      21.591  48.623  -2.068 -0.21 -0.00    +0.045 A 
DOCKED: ATOM     21  C   UNL d   1      22.130  47.538  -2.634 -0.20 +0.00    +0.057 C 
DOCKED: ATOM     22  C   UNL d   1      21.253  50.326  -0.584 -0.22 +0.00    -0.019 A 
DOCKED: ATOM     23  C   UNL d   1      20.248  50.427  -1.662 -0.23 -0.01    +0.045 A 
DOCKED: ATOM     24  C   UNL d   1      22.046  49.257  -0.831 -0.19 -0.00    -0.022 A 
DOCKED: ATOM     25  C   UNL d   1      18.348  51.553  -2.773 -0.24 -0.01    +0.049 A 
DOCKED: ATOM     26  C   UNL d   1      16.692  52.240  -4.184 -0.17 +0.00    -0.018 A 
DOCKED: ATOM     27  C   UNL d   1      17.702  52.675  -3.272 -0.20 -0.00    +0.003 A 
DOCKED: ATOM     28  C   UNL d   1      19.313  51.386  -1.742 -0.25 -0.01    +0.052 C 
DOCKED: ATOM     29  C   UNL d   1      23.206  48.753  -0.041 -0.15 +0.00    +0.046 C 
DOCKED: ATOM     30  C   UNL d   1      15.737  53.107  -4.934 -0.12 -0.01    +0.046 C 
DOCKED: ATOM     31  H   UNL d   1      20.073  49.190  -3.381 -0.02 -0.04    +0.166 HD
DOCKED: ATOM     32  H   UNL d   1      18.048  49.495  -3.248 -0.36 -0.09    +0.166 HD
DOCKED: ENDROOT
DOCKED: BRANCH   7  33
DOCKED: ATOM     33  C   UNL d   1      14.963  48.370  -7.482 -0.16 -0.02    +0.141 C 
DOCKED: BRANCH  33  34
DOCKED: ATOM     34  C   UNL d   1      15.938  48.353  -8.629 -0.07 -0.03    +0.306 C 
DOCKED: ATOM     35  O   UNL d   1      16.868  49.124  -8.795 -0.03 +0.02    -0.251 OA
DOCKED: BRANCH  34  36
DOCKED: ATOM     36  O   UNL d   1      15.690  47.362  -9.504 -0.03 +0.09    -0.481 OA
DOCKED: ATOM     37  H   UNL d   1      16.023  46.553  -9.062 +0.10 -0.06    +0.295 HD
DOCKED: ENDBRANCH  34  36
DOCKED: ENDBRANCH  33  34
DOCKED: ENDBRANCH   7  33
DOCKED: BRANCH  27  38
DOCKED: ATOM     38  C   UNL d   1      17.956  54.037  -2.910 -0.01 -0.00    +0.017 C 
DOCKED: ATOM     39  C   UNL d   1      19.161  54.627  -2.911 -0.11 -0.01    +0.092 C 
DOCKED: BRANCH  39  40
DOCKED: ATOM     40  C   UNL d   1      19.283  56.038  -2.535 -0.01 -0.02    +0.330 C 
DOCKED: ATOM     41  O   UNL d   1      18.893  57.010  -3.154 -0.04 +0.02    -0.246 OA
DOCKED: BRANCH  40  42
DOCKED: ATOM     42  O   UNL d   1      19.905  56.147  -1.350 -0.07 +0.05    -0.477 OA
DOCKED: ATOM     43  H   UNL d   1      20.082  55.220  -1.092 -0.07 -0.05    +0.295 HD
DOCKED: ENDBRANCH  40  42
DOCKED: ENDBRANCH  39  40
DOCKED: ENDBRANCH  27  38
DOCKED: BRANCH   8  44
DOCKED: ATOM     44  C   UNL d   1      21.165  44.000  -5.746 -0.27 +0.01    +0.141 C 
DOCKED: BRANCH  44  45
DOCKED: ATOM     45  C   UNL d   1      20.715  43.439  -7.069 -0.12 +0.06    +0.306 C 
DOCKED: ATOM     46  O   UNL d   1      20.171  44.052  -7.971 -0.19 -0.05    -0.251 OA
DOCKED: BRANCH  45  47
DOCKED: ATOM     47  O   UNL d   1      20.952  42.119  -7.175 -0.16 -0.13    -0.481 OA
DOCKED: ATOM     48  H   UNL d   1      20.394  41.710  -6.480 -0.30 +0.04    +0.295 HD
DOCKED: ENDBRANCH  45  47
DOCKED: ENDBRANCH  44  45
DOCKED: ENDBRANCH   8  44
DOCKED: BRANCH  22  49
DOCKED: ATOM     49  C   UNL d   1      21.334  51.266   0.582 -0.21 -0.01    +0.048 C 
DOCKED: BRANCH  49  50
DOCKED: ATOM     50  C   UNL d   1      22.587  52.141   0.522 -0.10 -0.01    +0.125 C 
DOCKED: BRANCH  50  51
DOCKED: ATOM     51  C   UNL d   1      22.466  53.178  -0.558 -0.05 -0.03    +0.305 C 
DOCKED: ATOM     52  O   UNL d   1      22.917  53.129  -1.689 -0.02 +0.01    -0.251 OA
DOCKED: BRANCH  51  53
DOCKED: ATOM     53  O   UNL d   1      21.773  54.258  -0.145 -0.03 +0.11    -0.481 OA
DOCKED: ATOM     54  H   UNL d   1      20.888  53.902   0.080 -0.49 -0.18    +0.295 HD
DOCKED: ENDBRANCH  51  53
DOCKED: ENDBRANCH  50  51
DOCKED: ENDBRANCH  49  50
DOCKED: ENDBRANCH  22  49
DOCKED: TORSDOF 13
DOCKED: TER
DOCKED: ENDMDL
________________________________________________________________________________


	BEGINNING GENETIC ALGORITHM DOCKING 14 of 100
Run: 14 Seed: 1361551058 447184462 [ Run 14 of 100 GA/GALS ]
Beginning LAMARCKIAN GENETIC ALGORITHM (LGA), with a maximum of 25000000 energy evaluations.

Final-Value: -11.449


	FINAL GENETIC ALGORITHM DOCKED STATE
	_______________________________________________


Detailed state:  trans 14.578 48.482 -9.034 quatxyzw 0.122689 -0.501182 0.402985 -0.755888 center 0.153 0.018 -0.028 ntor 13 133.4418 149.9375 97.6378 -52.8656 -134.2641 77.0110 -40.9081 -8.0877 21.4262 -114.9747 -70.4369 -112.8308 16.3293
State:	 14.578  48.482  -9.034   0.187 -0.766  0.616 -81.794    133.44  149.94   97.64  -52.87 -134.26   77.01  -40.91   -8.09   21.43 -114.97  -70.44 -112.83   16.33

DOCKED: MODEL       14
DOCKED: USER    Run = 14
DOCKED: USER    DPF = D:/Protein_go_brrr/autodock/final/2DN3/heme/dock.dpf
DOCKED: USER  
DOCKED: USER    Estimated Free Energy of Binding    =   -2.92 kcal/mol  [=(1)+(2)+(3)-(4)]
DOCKED: USER    Estimated Inhibition Constant, Ki   =    7.26 mM (millimolar)  [Temperature = 298.15 K]
DOCKED: USER    
DOCKED: USER    (1) Final Intermolecular Energy     =   -6.80 kcal/mol
DOCKED: USER        vdW + Hbond + desolv Energy     =   -6.63 kcal/mol
DOCKED: USER        Electrostatic Energy            =   -0.17 kcal/mol
DOCKED: USER    (2) Final Total Internal Energy     =   -4.65 kcal/mol
DOCKED: USER    (3) Torsional Free Energy           =   +3.88 kcal/mol
DOCKED: USER    (4) Unbound System's Energy  [=(2)] =   -4.65 kcal/mol
DOCKED: USER    
DOCKED: USER    
DOCKED: USER    NEWDPF move heme_opt.pdbqt
DOCKED: USER    NEWDPF about 0.153000 0.018000 -0.028000
DOCKED: USER    NEWDPF tran0 14.578225 48.482220 -9.033723
DOCKED: USER    NEWDPF quaternion0 0.122689 -0.501182 0.402985 -0.755888
DOCKED: USER    NEWDPF axisangle0 0.187397 -0.765513 0.615525 -81.793935
DOCKED: USER    NEWDPF quat0 0.187397 -0.765513 0.615525 -81.793935
DOCKED: USER    NEWDPF dihe0 133.44 149.94 97.64 -52.87 -134.26 77.01 -40.91 -8.09 21.43 -114.97 -70.44 -112.83 16.33 
DOCKED: USER  keepresnum = 1 
DOCKED: USER  
DOCKED: REMARK  13 active torsions:
DOCKED: REMARK  status: ('A' for Active; 'I' for Inactive)
DOCKED: REMARK    1  A    between atoms: O_3  and  C_38 
DOCKED: REMARK    2  A    between atoms: O_4  and  C_40 
DOCKED: REMARK    3  A    between atoms: O_7  and  C_46 
DOCKED: REMARK    4  A    between atoms: O_9  and  C_48 
DOCKED: REMARK    5  A    between atoms: C_15  and  C_20 
DOCKED: REMARK    6  A    between atoms: C_16  and  C_23 
DOCKED: REMARK    7  A    between atoms: C_20  and  C_38 
DOCKED: REMARK    8  A    between atoms: C_23  and  C_40 
DOCKED: REMARK    9  A    between atoms: C_32  and  C_41 
DOCKED: REMARK   10  A    between atoms: C_37  and  C_45 
DOCKED: REMARK   11  A    between atoms: C_41  and  C_44 
DOCKED: REMARK   12  A    between atoms: C_44  and  C_46 
DOCKED: REMARK   13  A    between atoms: C_47  and  C_48 
DOCKED: USER                              x       y       z     vdW  Elec       q    Type
DOCKED: USER                           _______ _______ _______ _____ _____    ______ ____
DOCKED: ROOT
DOCKED: ATOM      1  O   UNL d   1      11.945  46.462 -13.906 -0.03 +0.09    -0.289 OA
DOCKED: ATOM      2  O   UNL d   1      18.707  44.995 -10.989 -0.06 -0.03    -0.289 OA
DOCKED: ATOM      3  N   UNL d   1      13.127  48.010 -11.060 -0.07 +0.07    -0.247 NA
DOCKED: ATOM      4  N   UNL d   1      15.686  46.595 -10.526 -0.07 +0.07    -0.247 NA
DOCKED: ATOM      5  N   UNL d   1      15.695  47.794  -7.912 -0.07 +0.05    -0.354 N 
DOCKED: ATOM      6  N   UNL d   1      13.031  49.242  -8.468 +0.03 +0.04    -0.354 N 
DOCKED: ATOM      7  C   UNL d   1      10.991  47.998 -12.261 -0.08 -0.02    +0.084 A 
DOCKED: ATOM      8  C   UNL d   1      16.823  45.582 -12.436 -0.05 -0.01    +0.084 A 
DOCKED: ATOM      9  C   UNL d   1      15.600  46.311 -11.870 -0.10 -0.02    +0.058 A 
DOCKED: ATOM     10  C   UNL d   1      11.830  48.495 -11.080 -0.10 -0.01    +0.058 A 
DOCKED: ATOM     11  C   UNL d   1      12.049  47.160 -12.914 -0.06 -0.07    +0.193 A 
DOCKED: ATOM     12  C   UNL d   1      13.305  47.270 -12.106 -0.09 -0.05    +0.109 A 
DOCKED: ATOM     13  C   UNL d   1      17.602  45.473 -11.157 -0.07 -0.01    +0.193 A 
DOCKED: ATOM     14  C   UNL d   1       9.847  47.086 -11.809 -0.13 -0.01    +0.026 C 
DOCKED: ATOM     15  C   UNL d   1      14.519  46.598 -12.612 -0.10 -0.02    +0.055 C 
DOCKED: ATOM     16  C   UNL d   1      17.605  46.462 -13.416 -0.02 -0.00    +0.026 C 
DOCKED: ATOM     17  C   UNL d   1      16.801  46.118 -10.074 -0.14 -0.02    +0.109 A 
DOCKED: ATOM     18  C   UNL d   1      11.348  49.397 -10.205 -0.14 -0.01    +0.050 C 
DOCKED: ATOM     19  C   UNL d   1      12.077  49.976  -9.135 -0.13 -0.01    +0.045 A 
DOCKED: ATOM     20  C   UNL d   1      16.724  46.900  -7.765 -0.24 -0.01    +0.045 A 
DOCKED: ATOM     21  C   UNL d   1      17.299  46.124  -8.690 -0.25 -0.00    +0.057 C 
DOCKED: ATOM     22  C   UNL d   1      16.285  47.859  -5.739 -0.30 +0.00    -0.019 A 
DOCKED: ATOM     23  C   UNL d   1      15.359  48.422  -6.743 -0.22 -0.01    +0.045 A 
DOCKED: ATOM     24  C   UNL d   1      17.091  46.960  -6.351 -0.30 +0.00    -0.022 A 
DOCKED: ATOM     25  C   UNL d   1      13.546  49.963  -7.415 -0.18 -0.01    +0.049 A 
DOCKED: ATOM     26  C   UNL d   1      11.996  51.218  -8.524 -0.11 +0.00    -0.018 A 
DOCKED: ATOM     27  C   UNL d   1      12.940  51.211  -7.451 -0.14 -0.00    +0.003 A 
DOCKED: ATOM     28  C   UNL d   1      14.434  49.359  -6.484 -0.26 -0.01    +0.052 C 
DOCKED: ATOM     29  C   UNL d   1      18.190  46.141  -5.764 -0.34 -0.00    +0.046 C 
DOCKED: ATOM     30  C   UNL d   1      11.100  52.344  -8.913 -0.06 -0.00    +0.046 C 
DOCKED: ATOM     31  H   UNL d   1      15.304  48.001  -8.825 +0.04 -0.02    +0.166 HD
DOCKED: ATOM     32  H   UNL d   1      13.276  48.289  -8.709 +0.09 -0.01    +0.166 HD
DOCKED: ENDROOT
DOCKED: BRANCH   7  33
DOCKED: ATOM     33  C   UNL d   1      10.498  49.086 -13.221 -0.02 -0.01    +0.141 C 
DOCKED: BRANCH  33  34
DOCKED: ATOM     34  C   UNL d   1      11.614  49.706 -14.017 -0.00 -0.02    +0.306 C 
DOCKED: ATOM     35  O   UNL d   1      12.384  50.568 -13.628 -0.00 +0.01    -0.251 OA
DOCKED: BRANCH  34  36
DOCKED: ATOM     36  O   UNL d   1      11.703  49.205 -15.261 +0.00 +0.02    -0.481 OA
DOCKED: ATOM     37  H   UNL d   1      11.687  48.232 -15.137 +0.01 -0.02    +0.295 HD
DOCKED: ENDBRANCH  34  36
DOCKED: ENDBRANCH  33  34
DOCKED: ENDBRANCH   7  33
DOCKED: BRANCH  27  38
DOCKED: ATOM     38  C   UNL d   1      13.170  52.297  -6.548 -0.14 -0.00    +0.017 C 
DOCKED: ATOM     39  C   UNL d   1      12.731  52.358  -5.282 -0.06 -0.02    +0.092 C 
DOCKED: BRANCH  39  40
DOCKED: ATOM     40  C   UNL d   1      13.051  53.523  -4.453 -0.11 -0.09    +0.330 C 
DOCKED: ATOM     41  O   UNL d   1      12.562  54.635  -4.513 -0.14 +0.05    -0.246 OA
DOCKED: BRANCH  40  42
DOCKED: ATOM     42  O   UNL d   1      13.999  53.206  -3.557 -0.38 +0.16    -0.477 OA
DOCKED: ATOM     43  H   UNL d   1      13.847  52.255  -3.382 -0.18 -0.09    +0.295 HD
DOCKED: ENDBRANCH  40  42
DOCKED: ENDBRANCH  39  40
DOCKED: ENDBRANCH  27  38
DOCKED: BRANCH   8  44
DOCKED: ATOM     44  C   UNL d   1      16.549  44.197 -13.032 -0.06 -0.01    +0.141 C 
DOCKED: BRANCH  44  45
DOCKED: ATOM     45  C   UNL d   1      17.797  43.380 -13.234 -0.05 +0.06    +0.306 C 
DOCKED: ATOM     46  O   UNL d   1      18.542  43.416 -14.198 -0.02 -0.04    -0.251 OA
DOCKED: BRANCH  45  47
DOCKED: ATOM     47  O   UNL d   1      18.029  42.533 -12.214 -0.46 -0.27    -0.481 OA
DOCKED: ATOM     48  H   UNL d   1      18.484  43.078 -11.538 +0.05 +0.13    +0.295 HD
DOCKED: ENDBRANCH  45  47
DOCKED: ENDBRANCH  44  45
DOCKED: ENDBRANCH   8  44
DOCKED: BRANCH  22  49
DOCKED: ATOM     49  C   UNL d   1      16.285  48.239  -4.287 -0.31 -0.01    +0.048 C 
DOCKED: BRANCH  49  50
DOCKED: ATOM     50  C   UNL d   1      16.722  49.688  -4.078 -0.24 -0.03    +0.125 C 
DOCKED: BRANCH  50  51
DOCKED: ATOM     51  C   UNL d   1      15.569  50.536  -3.624 -0.25 -0.06    +0.305 C 
DOCKED: ATOM     52  O   UNL d   1      14.383  50.256  -3.655 -0.37 +0.07    -0.251 OA
DOCKED: BRANCH  51  53
DOCKED: ATOM     53  O   UNL d   1      15.976  51.731  -3.151 -0.32 +0.09    -0.481 OA
DOCKED: ATOM     54  H   UNL d   1      15.451  52.381  -3.662 +0.12 -0.06    +0.295 HD
DOCKED: ENDBRANCH  51  53
DOCKED: ENDBRANCH  50  51
DOCKED: ENDBRANCH  49  50
DOCKED: ENDBRANCH  22  49
DOCKED: TORSDOF 13
DOCKED: TER
DOCKED: ENDMDL
________________________________________________________________________________


	BEGINNING GENETIC ALGORITHM DOCKING 15 of 100
Run: 15 Seed: 354033048 1332162474 [ Run 15 of 100 GA/GALS ]
Beginning LAMARCKIAN GENETIC ALGORITHM (LGA), with a maximum of 25000000 energy evaluations.

Final-Value: -10.714


	FINAL GENETIC ALGORITHM DOCKED STATE
	_______________________________________________


Detailed state:  trans 45.429 33.722 -0.690 quatxyzw 0.251134 -0.938033 -0.220425 0.091863 center 0.153 0.018 -0.028 ntor 13 175.9566 -160.6088 -165.9212 -120.6390 -150.8492 -42.1959 140.5253 -40.2189 13.0074 -4.7815 143.5625 33.5469 31.1728
State:	 45.429  33.722  -0.690   0.252 -0.942 -0.221 169.458    175.96 -160.61 -165.92 -120.64 -150.85  -42.20  140.53  -40.22   13.01   -4.78  143.56   33.55   31.17

DOCKED: MODEL       15
DOCKED: USER    Run = 15
DOCKED: USER    DPF = D:/Protein_go_brrr/autodock/final/2DN3/heme/dock.dpf
DOCKED: USER  
DOCKED: USER    Estimated Free Energy of Binding    =   -2.92 kcal/mol  [=(1)+(2)+(3)-(4)]
DOCKED: USER    Estimated Inhibition Constant, Ki   =    7.27 mM (millimolar)  [Temperature = 298.15 K]
DOCKED: USER    
DOCKED: USER    (1) Final Intermolecular Energy     =   -6.80 kcal/mol
DOCKED: USER        vdW + Hbond + desolv Energy     =   -6.67 kcal/mol
DOCKED: USER        Electrostatic Energy            =   -0.12 kcal/mol
DOCKED: USER    (2) Final Total Internal Energy     =   -3.92 kcal/mol
DOCKED: USER    (3) Torsional Free Energy           =   +3.88 kcal/mol
DOCKED: USER    (4) Unbound System's Energy  [=(2)] =   -3.92 kcal/mol
DOCKED: USER    
DOCKED: USER    
DOCKED: USER    NEWDPF move heme_opt.pdbqt
DOCKED: USER    NEWDPF about 0.153000 0.018000 -0.028000
DOCKED: USER    NEWDPF tran0 45.429089 33.721569 -0.690343
DOCKED: USER    NEWDPF quaternion0 0.251134 -0.938033 -0.220425 0.091863
DOCKED: USER    NEWDPF axisangle0 0.252201 -0.942016 -0.221361 169.458375
DOCKED: USER    NEWDPF quat0 0.252201 -0.942016 -0.221361 169.458375
DOCKED: USER    NEWDPF dihe0 175.96 -160.61 -165.92 -120.64 -150.85 -42.20 140.53 -40.22 13.01 -4.78 143.56 33.55 31.17 
DOCKED: USER  keepresnum = 1 
DOCKED: USER  
DOCKED: REMARK  13 active torsions:
DOCKED: REMARK  status: ('A' for Active; 'I' for Inactive)
DOCKED: REMARK    1  A    between atoms: O_3  and  C_38 
DOCKED: REMARK    2  A    between atoms: O_4  and  C_40 
DOCKED: REMARK    3  A    between atoms: O_7  and  C_46 
DOCKED: REMARK    4  A    between atoms: O_9  and  C_48 
DOCKED: REMARK    5  A    between atoms: C_15  and  C_20 
DOCKED: REMARK    6  A    between atoms: C_16  and  C_23 
DOCKED: REMARK    7  A    between atoms: C_20  and  C_38 
DOCKED: REMARK    8  A    between atoms: C_23  and  C_40 
DOCKED: REMARK    9  A    between atoms: C_32  and  C_41 
DOCKED: REMARK   10  A    between atoms: C_37  and  C_45 
DOCKED: REMARK   11  A    between atoms: C_41  and  C_44 
DOCKED: REMARK   12  A    between atoms: C_44  and  C_46 
DOCKED: REMARK   13  A    between atoms: C_47  and  C_48 
DOCKED: USER                              x       y       z     vdW  Elec       q    Type
DOCKED: USER                           _______ _______ _______ _____ _____    ______ ____
DOCKED: ROOT
DOCKED: ATOM      1  O   UNL d   1      49.413  37.748   0.944 -0.02 -0.07    -0.289 OA
DOCKED: ATOM      2  O   UNL d   1      50.088  30.376  -0.320 -0.20 -0.07    -0.289 OA
DOCKED: ATOM      3  N   UNL d   1      46.732  35.740   0.124 -0.13 -0.03    -0.247 NA
DOCKED: ATOM      4  N   UNL d   1      47.998  33.118  -0.469 -0.14 -0.01    -0.247 NA
DOCKED: ATOM      5  N   UNL d   1      45.510  32.288  -1.648 -0.04 +0.05    -0.354 N 
DOCKED: ATOM      6  N   UNL d   1      44.211  35.017  -1.046 -0.06 -0.02    -0.354 N 
DOCKED: ATOM      7  C   UNL d   1      47.057  38.149   0.433 -0.07 +0.02    +0.084 A 
DOCKED: ATOM      8  C   UNL d   1      50.137  32.640   0.611 -0.16 +0.02    +0.084 A 
DOCKED: ATOM      9  C   UNL d   1      49.003  33.629   0.322 -0.18 +0.01    +0.058 A 
DOCKED: ATOM     10  C   UNL d   1      46.123  36.983   0.095 -0.13 +0.01    +0.058 A 
DOCKED: ATOM     11  C   UNL d   1      48.297  37.343   0.676 -0.05 +0.04    +0.193 A 
DOCKED: ATOM     12  C   UNL d   1      47.965  35.896   0.482 -0.13 +0.02    +0.109 A 
DOCKED: ATOM     13  C   UNL d   1      49.608  31.486  -0.193 -0.19 +0.04    +0.193 A 
DOCKED: ATOM     14  C   UNL d   1      47.290  39.066  -0.770 -0.03 +0.00    +0.026 C 
DOCKED: ATOM     15  C   UNL d   1      49.017  34.897   0.759 -0.15 +0.02    +0.055 C 
DOCKED: ATOM     16  C   UNL d   1      50.175  32.235   2.088 -0.12 +0.01    +0.026 C 
DOCKED: ATOM     17  C   UNL d   1      48.310  31.907  -0.803 -0.23 +0.01    +0.109 A 
DOCKED: ATOM     18  C   UNL d   1      44.808  37.175  -0.117 -0.15 +0.01    +0.050 C 
DOCKED: ATOM     19  C   UNL d   1      43.855  36.151  -0.352 +0.03 +0.01    +0.045 A 
DOCKED: ATOM     20  C   UNL d   1      46.314  31.248  -2.038 -0.22 -0.00    +0.045 A 
DOCKED: ATOM     21  C   UNL d   1      47.577  30.988  -1.686 -0.14 -0.00    +0.057 C 
DOCKED: ATOM     22  C   UNL d   1      44.279  31.028  -3.052 -0.12 -0.00    -0.019 A 
DOCKED: ATOM     23  C   UNL d   1      44.262  32.240  -2.208 -0.16 -0.00    +0.045 A 
DOCKED: ATOM     24  C   UNL d   1      45.496  30.445  -2.946 -0.17 +0.00    -0.022 A 
DOCKED: ATOM     25  C   UNL d   1      43.117  34.205  -1.237 -0.12 +0.00    +0.049 A 
DOCKED: ATOM     26  C   UNL d   1      42.505  36.056  -0.052 -0.07 -0.00    -0.018 A 
DOCKED: ATOM     27  C   UNL d   1      42.049  34.816  -0.596 -0.14 +0.00    +0.003 A 
DOCKED: ATOM     28  C   UNL d   1      43.202  33.050  -2.063 -0.15 +0.00    +0.052 C 
DOCKED: ATOM     29  C   UNL d   1      45.993  29.198  -3.595 -0.18 +0.00    +0.046 C 
DOCKED: ATOM     30  C   UNL d   1      41.687  37.053   0.697 -0.23 +0.01    +0.046 C 
DOCKED: ATOM     31  H   UNL d   1      45.817  32.957  -0.950 -0.39 -0.06    +0.166 HD
DOCKED: ATOM     32  H   UNL d   1      45.146  34.845  -1.396 -0.04 +0.00    +0.166 HD
DOCKED: ENDROOT
DOCKED: BRANCH   7  33
DOCKED: ATOM     33  C   UNL d   1      46.682  38.949   1.686 -0.14 +0.04    +0.141 C 
DOCKED: BRANCH  33  34
DOCKED: ATOM     34  C   UNL d   1      46.682  38.107   2.933 -0.19 +0.13    +0.306 C 
DOCKED: ATOM     35  O   UNL d   1      45.710  37.580   3.446 -0.72 -0.17    -0.251 OA
DOCKED: BRANCH  34  36
DOCKED: ATOM     36  O   UNL d   1      47.909  37.970   3.466 -0.07 -0.26    -0.481 OA
DOCKED: ATOM     37  H   UNL d   1      48.510  38.388   2.813 +0.11 +0.11    +0.295 HD
DOCKED: ENDBRANCH  34  36
DOCKED: ENDBRANCH  33  34
DOCKED: ENDBRANCH   7  33
DOCKED: BRANCH  27  38
DOCKED: ATOM     38  C   UNL d   1      40.704  34.328  -0.525 -0.26 +0.00    +0.017 C 
DOCKED: ATOM     39  C   UNL d   1      40.296  33.288   0.218 -0.28 +0.01    +0.092 C 
DOCKED: BRANCH  39  40
DOCKED: ATOM     40  C   UNL d   1      38.884  32.899   0.216 -0.14 +0.04    +0.330 C 
DOCKED: ATOM     41  O   UNL d   1      37.912  33.627   0.290 -0.15 -0.03    -0.246 OA
DOCKED: BRANCH  40  42
DOCKED: ATOM     42  O   UNL d   1      38.772  31.566   0.108 -0.08 -0.04    -0.477 OA
DOCKED: ATOM     43  H   UNL d   1      39.653  31.234   0.378 +0.03 +0.00    +0.295 HD
DOCKED: ENDBRANCH  40  42
DOCKED: ENDBRANCH  39  40
DOCKED: ENDBRANCH  27  38
DOCKED: BRANCH   8  44
DOCKED: ATOM     44  C   UNL d   1      51.524  33.063   0.116 -0.05 +0.03    +0.141 C 
DOCKED: BRANCH  44  45
DOCKED: ATOM     45  C   UNL d   1      51.555  33.397  -1.351 -0.00 +0.05    +0.306 C 
DOCKED: ATOM     46  O   UNL d   1      51.468  34.508  -1.845 -0.00 -0.03    -0.251 OA
DOCKED: BRANCH  45  47
DOCKED: ATOM     47  O   UNL d   1      51.668  32.303  -2.126 +0.01 -0.08    -0.481 OA
DOCKED: ATOM     48  H   UNL d   1      51.484  31.552  -1.523 +0.06 +0.06    +0.295 HD
DOCKED: ENDBRANCH  45  47
DOCKED: ENDBRANCH  44  45
DOCKED: ENDBRANCH   8  44
DOCKED: BRANCH  22  49
DOCKED: ATOM     49  C   UNL d   1      43.121  30.566  -3.886 -0.05 +0.00    +0.048 C 
DOCKED: BRANCH  49  50
DOCKED: ATOM     50  C   UNL d   1      41.835  30.462  -3.066 -0.06 +0.01    +0.125 C 
DOCKED: BRANCH  50  51
DOCKED: ATOM     51  C   UNL d   1      42.126  29.998  -1.667 -0.15 +0.02    +0.305 C 
DOCKED: ATOM     52  O   UNL d   1      42.842  29.073  -1.325 -0.25 -0.03    -0.251 OA
DOCKED: BRANCH  51  53
DOCKED: ATOM     53  O   UNL d   1      41.474  30.734  -0.745 -0.11 -0.01    -0.481 OA
DOCKED: ATOM     54  H   UNL d   1      40.529  30.624  -0.978 +0.10 +0.01    +0.295 HD
DOCKED: ENDBRANCH  51  53
DOCKED: ENDBRANCH  50  51
DOCKED: ENDBRANCH  49  50
DOCKED: ENDBRANCH  22  49
DOCKED: TORSDOF 13
DOCKED: TER
DOCKED: ENDMDL
________________________________________________________________________________


	BEGINNING GENETIC ALGORITHM DOCKING 16 of 100
Run: 16 Seed: 1531793698 6763133 [ Run 16 of 100 GA/GALS ]
Beginning LAMARCKIAN GENETIC ALGORITHM (LGA), with a maximum of 25000000 energy evaluations.

Final-Value: -10.143


	FINAL GENETIC ALGORITHM DOCKED STATE
	_______________________________________________


Detailed state:  trans 28.296 37.983 -0.410 quatxyzw -0.775555 0.170709 -0.484699 0.366661 center 0.153 0.018 -0.028 ntor 13 -96.9902 83.2098 -117.6516 -180.0000 24.3295 -70.5760 121.6190 77.6359 109.4292 -24.7382 97.1618 179.4264 177.0051
State:	 28.296  37.983  -0.410  -0.834  0.183 -0.521 136.980    -96.99   83.21 -117.65 -180.00   24.33  -70.58  121.62   77.64  109.43  -24.74   97.16  179.43  177.01

DOCKED: MODEL       16
DOCKED: USER    Run = 16
DOCKED: USER    DPF = D:/Protein_go_brrr/autodock/final/2DN3/heme/dock.dpf
DOCKED: USER  
DOCKED: USER    Estimated Free Energy of Binding    =   -3.82 kcal/mol  [=(1)+(2)+(3)-(4)]
DOCKED: USER    Estimated Inhibition Constant, Ki   =    1.59 mM (millimolar)  [Temperature = 298.15 K]
DOCKED: USER    
DOCKED: USER    (1) Final Intermolecular Energy     =   -7.69 kcal/mol
DOCKED: USER        vdW + Hbond + desolv Energy     =   -7.25 kcal/mol
DOCKED: USER        Electrostatic Energy            =   -0.44 kcal/mol
DOCKED: USER    (2) Final Total Internal Energy     =   -2.45 kcal/mol
DOCKED: USER    (3) Torsional Free Energy           =   +3.88 kcal/mol
DOCKED: USER    (4) Unbound System's Energy  [=(2)] =   -2.45 kcal/mol
DOCKED: USER    
DOCKED: USER    
DOCKED: USER    NEWDPF move heme_opt.pdbqt
DOCKED: USER    NEWDPF about 0.153000 0.018000 -0.028000
DOCKED: USER    NEWDPF tran0 28.295989 37.983010 -0.409930
DOCKED: USER    NEWDPF quaternion0 -0.775555 0.170709 -0.484699 0.366661
DOCKED: USER    NEWDPF axisangle0 -0.833612 0.183488 -0.520983 136.980366
DOCKED: USER    NEWDPF quat0 -0.833612 0.183488 -0.520983 136.980366
DOCKED: USER    NEWDPF dihe0 -96.99 83.21 -117.65 -180.00 24.33 -70.58 121.62 77.64 109.43 -24.74 97.16 179.43 177.01 
DOCKED: USER  keepresnum = 1 
DOCKED: USER  
DOCKED: REMARK  13 active torsions:
DOCKED: REMARK  status: ('A' for Active; 'I' for Inactive)
DOCKED: REMARK    1  A    between atoms: O_3  and  C_38 
DOCKED: REMARK    2  A    between atoms: O_4  and  C_40 
DOCKED: REMARK    3  A    between atoms: O_7  and  C_46 
DOCKED: REMARK    4  A    between atoms: O_9  and  C_48 
DOCKED: REMARK    5  A    between atoms: C_15  and  C_20 
DOCKED: REMARK    6  A    between atoms: C_16  and  C_23 
DOCKED: REMARK    7  A    between atoms: C_20  and  C_38 
DOCKED: REMARK    8  A    between atoms: C_23  and  C_40 
DOCKED: REMARK    9  A    between atoms: C_32  and  C_41 
DOCKED: REMARK   10  A    between atoms: C_37  and  C_45 
DOCKED: REMARK   11  A    between atoms: C_41  and  C_44 
DOCKED: REMARK   12  A    between atoms: C_44  and  C_46 
DOCKED: REMARK   13  A    between atoms: C_47  and  C_48 
DOCKED: USER                              x       y       z     vdW  Elec       q    Type
DOCKED: USER                           _______ _______ _______ _____ _____    ______ ____
DOCKED: ROOT
DOCKED: ATOM      1  O   UNL d   1      25.007  35.862  -4.819 -0.10 +0.01    -0.289 OA
DOCKED: ATOM      2  O   UNL d   1      29.058  42.162  -4.282 -0.01 -0.05    -0.289 OA
DOCKED: ATOM      3  N   UNL d   1      26.686  36.764  -1.944 -0.11 -0.02    -0.247 NA
DOCKED: ATOM      4  N   UNL d   1      28.209  39.178  -2.771 -0.10 -0.03    -0.247 NA
DOCKED: ATOM      5  N   UNL d   1      29.739  38.929  -0.350 -0.03 -0.06    -0.354 N 
DOCKED: ATOM      6  N   UNL d   1      28.167  36.414   0.491 -0.06 -0.07    -0.354 N 
DOCKED: ATOM      7  C   UNL d   1      25.430  34.787  -2.665 -0.20 -0.00    +0.084 A 
DOCKED: ATOM      8  C   UNL d   1      27.305  40.489  -4.625 -0.13 +0.01    +0.084 A 
DOCKED: ATOM      9  C   UNL d   1      27.232  39.240  -3.741 -0.18 +0.01    +0.058 A 
DOCKED: ATOM     10  C   UNL d   1      26.248  35.501  -1.585 -0.16 +0.00    +0.058 A 
DOCKED: ATOM     11  C   UNL d   1      25.468  35.878  -3.692 -0.16 -0.00    +0.193 A 
DOCKED: ATOM     12  C   UNL d   1      26.236  37.032  -3.127 -0.18 +0.01    +0.109 A 
DOCKED: ATOM     13  C   UNL d   1      28.525  41.106  -4.002 -0.05 +0.03    +0.193 A 
DOCKED: ATOM     14  C   UNL d   1      26.157  33.559  -3.219 -0.13 -0.00    +0.026 C 
DOCKED: ATOM     15  C   UNL d   1      26.327  38.268  -3.931 -0.22 +0.01    +0.055 C 
DOCKED: ATOM     16  C   UNL d   1      26.110  41.419  -4.393 -0.24 +0.00    +0.026 C 
DOCKED: ATOM     17  C   UNL d   1      28.980  40.210  -2.896 -0.08 +0.02    +0.109 A 
DOCKED: ATOM     18  C   UNL d   1      26.430  34.957  -0.367 -0.25 +0.01    +0.050 C 
DOCKED: ATOM     19  C   UNL d   1      27.098  35.578   0.719 -0.20 +0.01    +0.045 A 
DOCKED: ATOM     20  C   UNL d   1      30.470  39.894  -0.993 -0.03 +0.01    +0.045 A 
DOCKED: ATOM     21  C   UNL d   1      30.189  40.540  -2.129 -0.04 +0.01    +0.057 C 
DOCKED: ATOM     22  C   UNL d   1      31.585  39.259   0.897 -0.06 -0.00    -0.019 A 
DOCKED: ATOM     23  C   UNL d   1      30.332  38.483   0.801 -0.06 +0.01    +0.045 A 
DOCKED: ATOM     24  C   UNL d   1      31.660  40.092  -0.167 -0.03 -0.01    -0.022 A 
DOCKED: ATOM     25  C   UNL d   1      28.717  36.831   1.681 -0.14 +0.01    +0.049 A 
DOCKED: ATOM     26  C   UNL d   1      26.926  35.478   2.091 -0.30 -0.00    -0.018 A 
DOCKED: ATOM     27  C   UNL d   1      27.939  36.287   2.693 -0.23 +0.00    +0.003 A 
DOCKED: ATOM     28  C   UNL d   1      29.928  37.575   1.703 -0.11 +0.01    +0.052 C 
DOCKED: ATOM     29  C   UNL d   1      32.726  41.078  -0.506 -0.04 +0.02    +0.046 C 
DOCKED: ATOM     30  C   UNL d   1      25.884  34.683   2.803 -0.01 +0.01    +0.046 C 
DOCKED: ATOM     31  H   UNL d   1      28.819  38.658  -0.681 +0.03 +0.02    +0.166 HD
DOCKED: ATOM     32  H   UNL d   1      28.511  36.644  -0.434 +0.04 +0.03    +0.166 HD
DOCKED: ENDROOT
DOCKED: BRANCH   7  33
DOCKED: ATOM     33  C   UNL d   1      23.983  34.457  -2.283 -0.39 -0.02    +0.141 C 
DOCKED: BRANCH  33  34
DOCKED: ATOM     34  C   UNL d   1      23.093  34.281  -3.484 -0.27 -0.05    +0.306 C 
DOCKED: ATOM     35  O   UNL d   1      23.028  33.292  -4.194 -0.29 +0.10    -0.251 OA
DOCKED: BRANCH  34  36
DOCKED: ATOM     36  O   UNL d   1      22.328  35.361  -3.726 -0.62 -0.01    -0.481 OA
DOCKED: ATOM     37  H   UNL d   1      22.923  35.984  -4.195 +0.14 -0.02    +0.295 HD
DOCKED: ENDBRANCH  34  36
DOCKED: ENDBRANCH  33  34
DOCKED: ENDBRANCH   7  33
DOCKED: BRANCH  27  38
DOCKED: ATOM     38  C   UNL d   1      28.132  36.455   4.102 -0.31 -0.00    +0.017 C 
DOCKED: ATOM     39  C   UNL d   1      27.954  35.500   5.027 -0.29 -0.01    +0.092 C 
DOCKED: BRANCH  39  40
DOCKED: ATOM     40  C   UNL d   1      28.204  35.797   6.440 -0.15 -0.17    +0.330 C 
DOCKED: ATOM     41  O   UNL d   1      29.278  35.957   6.988 -0.27 +0.10    -0.246 OA
DOCKED: BRANCH  40  42
DOCKED: ATOM     42  O   UNL d   1      27.042  35.887   7.105 -0.01 +0.49    -0.477 OA
DOCKED: ATOM     43  H   UNL d   1      26.860  36.849   7.130 -0.34 -0.73    +0.295 HD
DOCKED: ENDBRANCH  40  42
DOCKED: ENDBRANCH  39  40
DOCKED: ENDBRANCH  27  38
DOCKED: BRANCH   8  44
DOCKED: ATOM     44  C   UNL d   1      27.523  40.229  -6.119 -0.05 +0.02    +0.141 C 
DOCKED: BRANCH  44  45
DOCKED: ATOM     45  C   UNL d   1      28.932  39.815  -6.451 -0.01 +0.03    +0.306 C 
DOCKED: ATOM     46  O   UNL d   1      29.425  38.713  -6.281 -0.01 -0.02    -0.251 OA
DOCKED: BRANCH  45  47
DOCKED: ATOM     47  O   UNL d   1      29.660  40.827  -6.956 +0.00 -0.05    -0.481 OA
DOCKED: ATOM     48  H   UNL d   1      29.680  41.499  -6.243 +0.01 +0.04    +0.295 HD
DOCKED: ENDBRANCH  45  47
DOCKED: ENDBRANCH  44  45
DOCKED: ENDBRANCH   8  44
DOCKED: BRANCH  22  49
DOCKED: ATOM     49  C   UNL d   1      32.589  39.103   2.001 -0.16 +0.01    +0.048 C 
DOCKED: BRANCH  49  50
DOCKED: ATOM     50  C   UNL d   1      33.692  38.111   1.632 -0.16 +0.02    +0.125 C 
DOCKED: BRANCH  50  51
DOCKED: ATOM     51  C   UNL d   1      33.242  36.697   1.866 -0.09 +0.04    +0.305 C 
DOCKED: ATOM     52  O   UNL d   1      32.425  36.061   1.225 -0.05 -0.06    -0.251 OA
DOCKED: BRANCH  51  53
DOCKED: ATOM     53  O   UNL d   1      33.853  36.144   2.933 -0.09 +0.00    -0.481 OA
DOCKED: ATOM     54  H   UNL d   1      34.447  36.852   3.261 -0.29 -0.10    +0.295 HD
DOCKED: ENDBRANCH  51  53
DOCKED: ENDBRANCH  50  51
DOCKED: ENDBRANCH  49  50
DOCKED: ENDBRANCH  22  49
DOCKED: TORSDOF 13
DOCKED: TER
DOCKED: ENDMDL
________________________________________________________________________________


	BEGINNING GENETIC ALGORITHM DOCKING 17 of 100
Run: 17 Seed: 1302901005 1204167491 [ Run 17 of 100 GA/GALS ]
Beginning LAMARCKIAN GENETIC ALGORITHM (LGA), with a maximum of 25000000 energy evaluations.

Final-Value: -10.123


	FINAL GENETIC ALGORITHM DOCKED STATE
	_______________________________________________


Detailed state:  trans 5.322 19.390 21.006 quatxyzw 0.218303 -0.550425 -0.089388 -0.800866 center 0.153 0.018 -0.028 ntor 13 91.5304 -151.1051 -75.6887 21.3204 -167.9466 5.1850 179.1548 31.5428 96.1872 -111.7883 -64.6244 -80.0278 8.4203
State:	  5.322  19.390  21.006   0.365 -0.919 -0.149 -73.574     91.53 -151.11  -75.69   21.32 -167.95    5.19  179.15   31.54   96.19 -111.79  -64.62  -80.03    8.42

DOCKED: MODEL       17
DOCKED: USER    Run = 17
DOCKED: USER    DPF = D:/Protein_go_brrr/autodock/final/2DN3/heme/dock.dpf
DOCKED: USER  
DOCKED: USER    Estimated Free Energy of Binding    =   -2.02 kcal/mol  [=(1)+(2)+(3)-(4)]
DOCKED: USER    Estimated Inhibition Constant, Ki   =   33.13 mM (millimolar)  [Temperature = 298.15 K]
DOCKED: USER    
DOCKED: USER    (1) Final Intermolecular Energy     =   -5.90 kcal/mol
DOCKED: USER        vdW + Hbond + desolv Energy     =   -5.65 kcal/mol
DOCKED: USER        Electrostatic Energy            =   -0.24 kcal/mol
DOCKED: USER    (2) Final Total Internal Energy     =   -4.23 kcal/mol
DOCKED: USER    (3) Torsional Free Energy           =   +3.88 kcal/mol
DOCKED: USER    (4) Unbound System's Energy  [=(2)] =   -4.23 kcal/mol
DOCKED: USER    
DOCKED: USER    
DOCKED: USER    NEWDPF move heme_opt.pdbqt
DOCKED: USER    NEWDPF about 0.153000 0.018000 -0.028000
DOCKED: USER    NEWDPF tran0 5.322287 19.389544 21.005794
DOCKED: USER    NEWDPF quaternion0 0.218303 -0.550425 -0.089388 -0.800866
DOCKED: USER    NEWDPF axisangle0 0.364540 -0.919146 -0.149268 -73.574244
DOCKED: USER    NEWDPF quat0 0.364540 -0.919146 -0.149268 -73.574244
DOCKED: USER    NEWDPF dihe0 91.53 -151.11 -75.69 21.32 -167.95 5.19 179.15 31.54 96.19 -111.79 -64.62 -80.03 8.42 
DOCKED: USER  keepresnum = 1 
DOCKED: USER  
DOCKED: REMARK  13 active torsions:
DOCKED: REMARK  status: ('A' for Active; 'I' for Inactive)
DOCKED: REMARK    1  A    between atoms: O_3  and  C_38 
DOCKED: REMARK    2  A    between atoms: O_4  and  C_40 
DOCKED: REMARK    3  A    between atoms: O_7  and  C_46 
DOCKED: REMARK    4  A    between atoms: O_9  and  C_48 
DOCKED: REMARK    5  A    between atoms: C_15  and  C_20 
DOCKED: REMARK    6  A    between atoms: C_16  and  C_23 
DOCKED: REMARK    7  A    between atoms: C_20  and  C_38 
DOCKED: REMARK    8  A    between atoms: C_23  and  C_40 
DOCKED: REMARK    9  A    between atoms: C_32  and  C_41 
DOCKED: REMARK   10  A    between atoms: C_37  and  C_45 
DOCKED: REMARK   11  A    between atoms: C_41  and  C_44 
DOCKED: REMARK   12  A    between atoms: C_44  and  C_46 
DOCKED: REMARK   13  A    between atoms: C_47  and  C_48 
DOCKED: USER                              x       y       z     vdW  Elec       q    Type
DOCKED: USER                           _______ _______ _______ _____ _____    ______ ____
DOCKED: ROOT
DOCKED: ATOM      1  O   UNL d   1       2.440  22.880  17.228 -0.09 +0.02    -0.289 OA
DOCKED: ATOM      2  O   UNL d   1       6.242  16.499  16.124 -0.14 -0.19    -0.289 OA
DOCKED: ATOM      3  N   UNL d   1       4.104  21.234  19.762 -0.07 +0.00    -0.247 NA
DOCKED: ATOM      4  N   UNL d   1       5.020  18.725  18.460 -0.06 -0.05    -0.247 NA
DOCKED: ATOM      5  N   UNL d   1       5.600  17.687  21.079 -0.03 -0.07    -0.354 N 
DOCKED: ATOM      6  N   UNL d   1       4.629  20.287  22.422 -0.02 +0.00    -0.354 N 
DOCKED: ATOM      7  C   UNL d   1       2.611  23.174  19.649 -0.07 -0.00    +0.084 A 
DOCKED: ATOM      8  C   UNL d   1       5.355  18.778  16.041 -0.25 +0.01    +0.084 A 
DOCKED: ATOM      9  C   UNL d   1       4.882  19.480  17.318 -0.16 +0.00    +0.058 A 
DOCKED: ATOM     10  C   UNL d   1       3.464  22.222  20.492 -0.10 -0.00    +0.058 A 
DOCKED: ATOM     11  C   UNL d   1       2.897  22.561  18.311 -0.08 -0.01    +0.193 A 
DOCKED: ATOM     12  C   UNL d   1       3.834  21.410  18.510 -0.10 -0.00    +0.109 A 
DOCKED: ATOM     13  C   UNL d   1       5.753  17.471  16.665 -0.13 +0.08    +0.193 A 
DOCKED: ATOM     14  C   UNL d   1       1.117  23.029  19.951 -0.03 -0.00    +0.026 C 
DOCKED: ATOM     15  C   UNL d   1       4.333  20.705  17.312 -0.21 -0.00    +0.055 C 
DOCKED: ATOM     16  C   UNL d   1       6.604  19.445  15.456 -0.22 +0.00    +0.026 C 
DOCKED: ATOM     17  C   UNL d   1       5.493  17.565  18.133 -0.12 +0.05    +0.109 A 
DOCKED: ATOM     18  C   UNL d   1       3.630  22.410  21.814 -0.12 -0.00    +0.050 C 
DOCKED: ATOM     19  C   UNL d   1       4.464  21.633  22.658 -0.13 -0.00    +0.045 A 
DOCKED: ATOM     20  C   UNL d   1       5.758  16.548  20.333 -0.11 +0.02    +0.045 A 
DOCKED: ATOM     21  C   UNL d   1       5.749  16.408  19.004 -0.14 +0.03    +0.057 C 
DOCKED: ATOM     22  C   UNL d   1       5.896  16.007  22.548 -0.08 -0.00    -0.019 A 
DOCKED: ATOM     23  C   UNL d   1       5.667  17.460  22.427 -0.08 +0.01    +0.045 A 
DOCKED: ATOM     24  C   UNL d   1       5.950  15.472  21.305 -0.09 -0.01    -0.022 A 
DOCKED: ATOM     25  C   UNL d   1       5.400  19.714  23.407 -0.10 +0.00    +0.049 A 
DOCKED: ATOM     26  C   UNL d   1       5.176  21.951  23.804 -0.17 +0.00    -0.018 A 
DOCKED: ATOM     27  C   UNL d   1       5.781  20.740  24.261 -0.17 -0.00    +0.003 A 
DOCKED: ATOM     28  C   UNL d   1       5.580  18.306  23.466 -0.09 +0.00    +0.052 C 
DOCKED: ATOM     29  C   UNL d   1       6.173  14.052  20.909 -0.09 +0.01    +0.046 C 
DOCKED: ATOM     30  C   UNL d   1       5.291  23.296  24.436 -0.22 -0.00    +0.046 C 
DOCKED: ATOM     31  H   UNL d   1       5.524  18.598  20.638 +0.05 +0.03    +0.166 HD
DOCKED: ATOM     32  H   UNL d   1       4.198  19.796  21.647 +0.03 +0.00    +0.166 HD
DOCKED: ENDROOT
DOCKED: BRANCH   7  33
DOCKED: ATOM     33  C   UNL d   1       3.049  24.643  19.672 -0.12 +0.00    +0.141 C 
DOCKED: BRANCH  33  34
DOCKED: ATOM     34  C   UNL d   1       2.857  25.325  18.345 -0.08 -0.00    +0.306 C 
DOCKED: ATOM     35  O   UNL d   1       3.741  25.745  17.617 -0.17 +0.00    -0.251 OA
DOCKED: BRANCH  34  36
DOCKED: ATOM     36  O   UNL d   1       1.562  25.441  18.003 +0.01 +0.01    -0.481 OA
DOCKED: ATOM     37  H   UNL d   1       1.369  24.629  17.488 +0.06 -0.01    +0.295 HD
DOCKED: ENDBRANCH  34  36
DOCKED: ENDBRANCH  33  34
DOCKED: ENDBRANCH   7  33
DOCKED: BRANCH  27  38
DOCKED: ATOM     38  C   UNL d   1       6.597  20.616  25.432 -0.15 +0.00    +0.017 C 
DOCKED: ATOM     39  C   UNL d   1       6.518  19.620  26.328 -0.10 +0.00    +0.092 C 
DOCKED: BRANCH  39  40
DOCKED: ATOM     40  C   UNL d   1       7.426  19.601  27.478 -0.04 +0.02    +0.330 C 
DOCKED: ATOM     41  O   UNL d   1       8.259  20.434  27.783 -0.13 -0.05    -0.246 OA
DOCKED: BRANCH  40  42
DOCKED: ATOM     42  O   UNL d   1       7.219  18.496  28.212 +0.00 -0.01    -0.477 OA
DOCKED: ATOM     43  H   UNL d   1       6.897  17.839  27.560 +0.04 +0.01    +0.295 HD
DOCKED: ENDBRANCH  40  42
DOCKED: ENDBRANCH  39  40
DOCKED: ENDBRANCH  27  38
DOCKED: BRANCH   8  44
DOCKED: ATOM     44  C   UNL d   1       4.283  18.570  14.966 -0.26 -0.02    +0.141 C 
DOCKED: BRANCH  44  45
DOCKED: ATOM     45  C   UNL d   1       4.653  17.518  13.954 -0.24 -0.06    +0.306 C 
DOCKED: ATOM     46  O   UNL d   1       3.932  16.632  13.530 -0.16 +0.05    -0.251 OA
DOCKED: BRANCH  45  47
DOCKED: ATOM     47  O   UNL d   1       5.931  17.623  13.547 -0.32 +0.21    -0.481 OA
DOCKED: ATOM     48  H   UNL d   1       6.402  16.904  14.021 -0.39 -0.34    +0.295 HD
DOCKED: ENDBRANCH  45  47
DOCKED: ENDBRANCH  44  45
DOCKED: ENDBRANCH   8  44
DOCKED: BRANCH  22  49
DOCKED: ATOM     49  C   UNL d   1       6.024  15.280  23.855 -0.07 +0.00    +0.048 C 
DOCKED: BRANCH  49  50
DOCKED: ATOM     50  C   UNL d   1       7.379  15.531  24.515 -0.11 +0.01    +0.125 C 
DOCKED: BRANCH  50  51
DOCKED: ATOM     51  C   UNL d   1       7.214  16.252  25.822 -0.05 +0.02    +0.305 C 
DOCKED: ATOM     52  O   UNL d   1       6.239  16.253  26.552 -0.01 -0.01    -0.251 OA
DOCKED: BRANCH  51  53
DOCKED: ATOM     53  O   UNL d   1       8.312  16.964  26.148 -0.04 -0.02    -0.481 OA
DOCKED: ATOM     54  H   UNL d   1       8.234  17.091  27.116 +0.06 +0.01    +0.295 HD
DOCKED: ENDBRANCH  51  53
DOCKED: ENDBRANCH  50  51
DOCKED: ENDBRANCH  49  50
DOCKED: ENDBRANCH  22  49
DOCKED: TORSDOF 13
DOCKED: TER
DOCKED: ENDMDL
________________________________________________________________________________


	BEGINNING GENETIC ALGORITHM DOCKING 18 of 100
Run: 18 Seed: 665306650 1627226094 [ Run 18 of 100 GA/GALS ]
Beginning LAMARCKIAN GENETIC ALGORITHM (LGA), with a maximum of 25000000 energy evaluations.

Final-Value: -10.809


	FINAL GENETIC ALGORITHM DOCKED STATE
	_______________________________________________


Detailed state:  trans 40.522 29.971 -1.200 quatxyzw -0.128076 -0.005093 -0.888685 0.440239 center 0.153 0.018 -0.028 ntor 13 -173.9073 -160.5171 119.6341 -64.6069 -158.0766 89.5862 131.2136 -109.6466 8.8367 -163.6886 -96.3433 -103.1504 2.1408
State:	 40.522  29.971  -1.200  -0.143 -0.006 -0.990 127.762   -173.91 -160.52  119.63  -64.61 -158.08   89.59  131.21 -109.65    8.84 -163.69  -96.34 -103.15    2.14

DOCKED: MODEL       18
DOCKED: USER    Run = 18
DOCKED: USER    DPF = D:/Protein_go_brrr/autodock/final/2DN3/heme/dock.dpf
DOCKED: USER  
DOCKED: USER    Estimated Free Energy of Binding    =   -2.97 kcal/mol  [=(1)+(2)+(3)-(4)]
DOCKED: USER    Estimated Inhibition Constant, Ki   =    6.69 mM (millimolar)  [Temperature = 298.15 K]
DOCKED: USER    
DOCKED: USER    (1) Final Intermolecular Energy     =   -6.84 kcal/mol
DOCKED: USER        vdW + Hbond + desolv Energy     =   -6.77 kcal/mol
DOCKED: USER        Electrostatic Energy            =   -0.07 kcal/mol
DOCKED: USER    (2) Final Total Internal Energy     =   -3.97 kcal/mol
DOCKED: USER    (3) Torsional Free Energy           =   +3.88 kcal/mol
DOCKED: USER    (4) Unbound System's Energy  [=(2)] =   -3.97 kcal/mol
DOCKED: USER    
DOCKED: USER    
DOCKED: USER    NEWDPF move heme_opt.pdbqt
DOCKED: USER    NEWDPF about 0.153000 0.018000 -0.028000
DOCKED: USER    NEWDPF tran0 40.522340 29.971141 -1.200301
DOCKED: USER    NEWDPF quaternion0 -0.128076 -0.005093 -0.888685 0.440239
DOCKED: USER    NEWDPF axisangle0 -0.142642 -0.005672 -0.989758 127.761794
DOCKED: USER    NEWDPF quat0 -0.142642 -0.005672 -0.989758 127.761794
DOCKED: USER    NEWDPF dihe0 -173.91 -160.52 119.63 -64.61 -158.08 89.59 131.21 -109.65 8.84 -163.69 -96.34 -103.15 2.14 
DOCKED: USER  keepresnum = 1 
DOCKED: USER  
DOCKED: REMARK  13 active torsions:
DOCKED: REMARK  status: ('A' for Active; 'I' for Inactive)
DOCKED: REMARK    1  A    between atoms: O_3  and  C_38 
DOCKED: REMARK    2  A    between atoms: O_4  and  C_40 
DOCKED: REMARK    3  A    between atoms: O_7  and  C_46 
DOCKED: REMARK    4  A    between atoms: O_9  and  C_48 
DOCKED: REMARK    5  A    between atoms: C_15  and  C_20 
DOCKED: REMARK    6  A    between atoms: C_16  and  C_23 
DOCKED: REMARK    7  A    between atoms: C_20  and  C_38 
DOCKED: REMARK    8  A    between atoms: C_23  and  C_40 
DOCKED: REMARK    9  A    between atoms: C_32  and  C_41 
DOCKED: REMARK   10  A    between atoms: C_37  and  C_45 
DOCKED: REMARK   11  A    between atoms: C_41  and  C_44 
DOCKED: REMARK   12  A    between atoms: C_44  and  C_46 
DOCKED: REMARK   13  A    between atoms: C_47  and  C_48 
DOCKED: USER                              x       y       z     vdW  Elec       q    Type
DOCKED: USER                           _______ _______ _______ _____ _____    ______ ____
DOCKED: ROOT
DOCKED: ATOM      1  O   UNL d   1      42.605  24.472  -1.620 -0.10 -0.05    -0.289 OA
DOCKED: ATOM      2  O   UNL d   1      45.481  31.020  -3.911 -0.03 -0.01    -0.289 OA
DOCKED: ATOM      3  N   UNL d   1      40.936  27.470  -1.271 -0.12 -0.03    -0.247 NA
DOCKED: ATOM      4  N   UNL d   1      42.940  29.475  -2.159 -0.13 -0.02    -0.247 NA
DOCKED: ATOM      5  N   UNL d   1      41.270  31.516  -1.013 -0.10 -0.01    -0.354 N 
DOCKED: ATOM      6  N   UNL d   1      39.205  29.427  -0.078 -0.14 -0.03    -0.354 N 
DOCKED: ATOM      7  C   UNL d   1      40.527  25.167  -0.538 -0.18 +0.01    +0.084 A 
DOCKED: ATOM      8  C   UNL d   1      44.653  28.723  -3.732 -0.13 +0.00    +0.084 A 
DOCKED: ATOM      9  C   UNL d   1      43.468  28.388  -2.820 -0.18 +0.00    +0.058 A 
DOCKED: ATOM     10  C   UNL d   1      40.079  26.631  -0.577 -0.19 +0.01    +0.058 A 
DOCKED: ATOM     11  C   UNL d   1      41.778  25.323  -1.348 -0.12 +0.03    +0.193 A 
DOCKED: ATOM     12  C   UNL d   1      41.902  26.759  -1.755 -0.15 +0.02    +0.109 A 
DOCKED: ATOM     13  C   UNL d   1      44.724  30.195  -3.437 -0.08 +0.01    +0.193 A 
DOCKED: ATOM     14  C   UNL d   1      40.905  24.720   0.877 -0.30 +0.00    +0.026 C 
DOCKED: ATOM     15  C   UNL d   1      43.019  27.136  -2.644 -0.20 +0.01    +0.055 C 
DOCKED: ATOM     16  C   UNL d   1      44.303  28.534  -5.211 -0.05 +0.00    +0.026 C 
DOCKED: ATOM     17  C   UNL d   1      43.638  30.522  -2.465 -0.16 +0.00    +0.109 A 
DOCKED: ATOM     18  C   UNL d   1      38.903  27.022  -0.052 -0.21 +0.01    +0.050 C 
DOCKED: ATOM     19  C   UNL d   1      38.369  28.334  -0.115 -0.19 +0.01    +0.045 A 
DOCKED: ATOM     20  C   UNL d   1      42.391  32.256  -1.288 -0.22 +0.00    +0.045 A 
DOCKED: ATOM     21  C   UNL d   1      43.490  31.894  -1.957 -0.20 +0.00    +0.057 C 
DOCKED: ATOM     22  C   UNL d   1      40.925  33.547  -0.104 -0.28 -0.00    -0.019 A 
DOCKED: ATOM     23  C   UNL d   1      40.329  32.211  -0.302 -0.19 +0.00    +0.045 A 
DOCKED: ATOM     24  C   UNL d   1      42.145  33.568  -0.691 -0.13 -0.00    -0.022 A 
DOCKED: ATOM     25  C   UNL d   1      38.476  30.593  -0.059 -0.23 +0.00    +0.049 A 
DOCKED: ATOM     26  C   UNL d   1      37.065  28.802  -0.158 -0.13 -0.00    -0.018 A 
DOCKED: ATOM     27  C   UNL d   1      37.139  30.229  -0.142 -0.16 +0.00    +0.003 A 
DOCKED: ATOM     28  C   UNL d   1      39.113  31.848   0.135 -0.27 +0.00    +0.052 C 
DOCKED: ATOM     29  C   UNL d   1      43.123  34.690  -0.771 -0.16 +0.01    +0.046 C 
DOCKED: ATOM     30  C   UNL d   1      35.824  27.976  -0.212 -0.12 +0.00    +0.046 C 
DOCKED: ATOM     31  H   UNL d   1      41.153  30.580  -1.387 +0.05 +0.01    +0.166 HD
DOCKED: ATOM     32  H   UNL d   1      40.215  29.358  -0.030 +0.05 +0.01    +0.166 HD
DOCKED: ENDROOT
DOCKED: BRANCH   7  33
DOCKED: ATOM     33  C   UNL d   1      39.574  24.171  -1.207 -0.07 +0.01    +0.141 C 
DOCKED: BRANCH  33  34
DOCKED: ATOM     34  C   UNL d   1      39.296  24.512  -2.646 -0.02 +0.02    +0.306 C 
DOCKED: ATOM     35  O   UNL d   1      38.277  25.018  -3.083 -0.01 -0.01    -0.251 OA
DOCKED: BRANCH  34  36
DOCKED: ATOM     36  O   UNL d   1      40.320  24.198  -3.460 +0.00 -0.04    -0.481 OA
DOCKED: ATOM     37  H   UNL d   1      40.976  23.762  -2.875 +0.03 +0.03    +0.295 HD
DOCKED: ENDBRANCH  34  36
DOCKED: ENDBRANCH  33  34
DOCKED: ENDBRANCH   7  33
DOCKED: BRANCH  27  38
DOCKED: ATOM     38  C   UNL d   1      36.014  31.114  -0.160 -0.11 +0.00    +0.017 C 
DOCKED: ATOM     39  C   UNL d   1      35.652  31.927   0.844 -0.14 +0.02    +0.092 C 
DOCKED: BRANCH  39  40
DOCKED: ATOM     40  C   UNL d   1      34.485  32.800   0.693 -0.02 +0.09    +0.330 C 
DOCKED: ATOM     41  O   UNL d   1      33.322  32.536   0.935 -0.08 -0.14    -0.246 OA
DOCKED: BRANCH  40  42
DOCKED: ATOM     42  O   UNL d   1      34.864  34.003   0.237 +0.01 -0.09    -0.477 OA
DOCKED: ATOM     43  H   UNL d   1      35.748  33.838  -0.153 +0.06 +0.04    +0.295 HD
DOCKED: ENDBRANCH  40  42
DOCKED: ENDBRANCH  39  40
DOCKED: ENDBRANCH  27  38
DOCKED: BRANCH   8  44
DOCKED: ATOM     44  C   UNL d   1      45.973  28.029  -3.381 -0.13 +0.01    +0.141 C 
DOCKED: BRANCH  44  45
DOCKED: ATOM     45  C   UNL d   1      46.815  27.708  -4.587 -0.11 +0.04    +0.306 C 
DOCKED: ATOM     46  O   UNL d   1      47.625  28.444  -5.124 -0.05 -0.03    -0.251 OA
DOCKED: BRANCH  45  47
DOCKED: ATOM     47  O   UNL d   1      46.571  26.478  -5.073 -0.05 -0.07    -0.481 OA
DOCKED: ATOM     48  H   UNL d   1      46.805  25.870  -4.340 -0.49 +0.05    +0.295 HD
DOCKED: ENDBRANCH  45  47
DOCKED: ENDBRANCH  44  45
DOCKED: ENDBRANCH   8  44
DOCKED: BRANCH  22  49
DOCKED: ATOM     49  C   UNL d   1      40.260  34.664   0.646 -0.39 +0.01    +0.048 C 
DOCKED: BRANCH  49  50
DOCKED: ATOM     50  C   UNL d   1      39.242  35.404  -0.221 -0.12 +0.02    +0.125 C 
DOCKED: BRANCH  50  51
DOCKED: ATOM     51  C   UNL d   1      37.914  34.703  -0.206 -0.11 +0.04    +0.305 C 
DOCKED: ATOM     52  O   UNL d   1      37.340  34.177  -1.143 -0.04 -0.03    -0.251 OA
DOCKED: BRANCH  51  53
DOCKED: ATOM     53  O   UNL d   1      37.354  34.711   1.020 -0.12 -0.03    -0.481 OA
DOCKED: ATOM     54  H   UNL d   1      36.545  35.253   0.909 -0.03 +0.00    +0.295 HD
DOCKED: ENDBRANCH  51  53
DOCKED: ENDBRANCH  50  51
DOCKED: ENDBRANCH  49  50
DOCKED: ENDBRANCH  22  49
DOCKED: TORSDOF 13
DOCKED: TER
DOCKED: ENDMDL
________________________________________________________________________________


	BEGINNING GENETIC ALGORITHM DOCKING 19 of 100
Run: 19 Seed: 1143118480 1641488673 [ Run 19 of 100 GA/GALS ]
Beginning LAMARCKIAN GENETIC ALGORITHM (LGA), with a maximum of 25000000 energy evaluations.

Final-Value: -13.374


	FINAL GENETIC ALGORITHM DOCKED STATE
	_______________________________________________


Detailed state:  trans 11.764 39.892 25.318 quatxyzw 0.701907 -0.541631 0.412717 -0.208870 center 0.153 0.018 -0.028 ntor 13 86.3770 -121.2855 -97.9182 42.8464 -132.9952 -72.0464 127.5222 -113.4761 54.6363 -63.1033 -95.9988 6.3168 -7.6162
State:	 11.764  39.892  25.318   0.718 -0.554  0.422 -155.888     86.38 -121.29  -97.92   42.85 -133.00  -72.05  127.52 -113.48   54.64  -63.10  -96.00    6.32   -7.62

DOCKED: MODEL       19
DOCKED: USER    Run = 19
DOCKED: USER    DPF = D:/Protein_go_brrr/autodock/final/2DN3/heme/dock.dpf
DOCKED: USER  
DOCKED: USER    Estimated Free Energy of Binding    =   -4.88 kcal/mol  [=(1)+(2)+(3)-(4)]
DOCKED: USER    Estimated Inhibition Constant, Ki   =  264.80 uM (micromolar)  [Temperature = 298.15 K]
DOCKED: USER    
DOCKED: USER    (1) Final Intermolecular Energy     =   -8.76 kcal/mol
DOCKED: USER        vdW + Hbond + desolv Energy     =   -8.79 kcal/mol
DOCKED: USER        Electrostatic Energy            =   +0.03 kcal/mol
DOCKED: USER    (2) Final Total Internal Energy     =   -4.62 kcal/mol
DOCKED: USER    (3) Torsional Free Energy           =   +3.88 kcal/mol
DOCKED: USER    (4) Unbound System's Energy  [=(2)] =   -4.62 kcal/mol
DOCKED: USER    
DOCKED: USER    
DOCKED: USER    NEWDPF move heme_opt.pdbqt
DOCKED: USER    NEWDPF about 0.153000 0.018000 -0.028000
DOCKED: USER    NEWDPF tran0 11.763998 39.891617 25.317798
DOCKED: USER    NEWDPF quaternion0 0.701907 -0.541631 0.412717 -0.208870
DOCKED: USER    NEWDPF axisangle0 0.717738 -0.553847 0.422025 -155.887731
DOCKED: USER    NEWDPF quat0 0.717738 -0.553847 0.422025 -155.887731
DOCKED: USER    NEWDPF dihe0 86.38 -121.29 -97.92 42.85 -133.00 -72.05 127.52 -113.48 54.64 -63.10 -96.00 6.32 -7.62 
DOCKED: USER  keepresnum = 1 
DOCKED: USER  
DOCKED: REMARK  13 active torsions:
DOCKED: REMARK  status: ('A' for Active; 'I' for Inactive)
DOCKED: REMARK    1  A    between atoms: O_3  and  C_38 
DOCKED: REMARK    2  A    between atoms: O_4  and  C_40 
DOCKED: REMARK    3  A    between atoms: O_7  and  C_46 
DOCKED: REMARK    4  A    between atoms: O_9  and  C_48 
DOCKED: REMARK    5  A    between atoms: C_15  and  C_20 
DOCKED: REMARK    6  A    between atoms: C_16  and  C_23 
DOCKED: REMARK    7  A    between atoms: C_20  and  C_38 
DOCKED: REMARK    8  A    between atoms: C_23  and  C_40 
DOCKED: REMARK    9  A    between atoms: C_32  and  C_41 
DOCKED: REMARK   10  A    between atoms: C_37  and  C_45 
DOCKED: REMARK   11  A    between atoms: C_41  and  C_44 
DOCKED: REMARK   12  A    between atoms: C_44  and  C_46 
DOCKED: REMARK   13  A    between atoms: C_47  and  C_48 
DOCKED: USER                              x       y       z     vdW  Elec       q    Type
DOCKED: USER                           _______ _______ _______ _____ _____    ______ ____
DOCKED: ROOT
DOCKED: ATOM      1  O   UNL d   1      10.010  42.160  20.167 -0.19 +0.12    -0.289 OA
DOCKED: ATOM      2  O   UNL d   1      15.534  44.203  24.826 -0.09 +0.04    -0.289 OA
DOCKED: ATOM      3  N   UNL d   1      10.585  40.591  23.184 -0.15 +0.07    -0.247 NA
DOCKED: ATOM      4  N   UNL d   1      13.095  41.858  24.145 -0.09 +0.09    -0.247 NA
DOCKED: ATOM      5  N   UNL d   1      13.298  39.758  26.099 -0.02 +0.15    -0.354 N 
DOCKED: ATOM      6  N   UNL d   1      10.704  38.439  25.082 -0.15 +0.13    -0.354 N 
DOCKED: ATOM      7  C   UNL d   1       9.088  40.192  21.285 -0.30 -0.02    +0.084 A 
DOCKED: ATOM      8  C   UNL d   1      13.583  44.117  23.350 -0.11 -0.02    +0.084 A 
DOCKED: ATOM      9  C   UNL d   1      12.696  42.868  23.299 -0.18 -0.01    +0.058 A 
DOCKED: ATOM     10  C   UNL d   1       9.600  39.767  22.664 -0.29 -0.01    +0.058 A 
DOCKED: ATOM     11  C   UNL d   1       9.944  41.412  21.125 -0.17 -0.05    +0.193 A 
DOCKED: ATOM     12  C   UNL d   1      10.789  41.560  22.352 -0.20 -0.03    +0.109 A 
DOCKED: ATOM     13  C   UNL d   1      14.580  43.614  24.356 -0.11 -0.04    +0.193 A 
DOCKED: ATOM     14  C   UNL d   1       9.459  39.180  20.198 -0.59 -0.00    +0.026 C 
DOCKED: ATOM     15  C   UNL d   1      11.653  42.752  22.462 -0.21 -0.01    +0.055 C 
DOCKED: ATOM     16  C   UNL d   1      12.841  45.315  23.949 -0.04 -0.00    +0.026 C 
DOCKED: ATOM     17  C   UNL d   1      14.175  42.231  24.752 -0.15 -0.03    +0.109 A 
DOCKED: ATOM     18  C   UNL d   1       9.055  38.731  23.328 -0.33 -0.01    +0.050 C 
DOCKED: ATOM     19  C   UNL d   1       9.406  38.319  24.639 -0.26 -0.01    +0.045 A 
DOCKED: ATOM     20  C   UNL d   1      14.530  40.340  26.249 -0.21 -0.01    +0.045 A 
DOCKED: ATOM     21  C   UNL d   1      14.998  41.465  25.701 -0.25 -0.02    +0.057 C 
DOCKED: ATOM     22  C   UNL d   1      14.456  38.430  27.502 -0.23 +0.01    -0.019 A 
DOCKED: ATOM     23  C   UNL d   1      13.159  38.600  26.816 -0.28 -0.02    +0.045 A 
DOCKED: ATOM     24  C   UNL d   1      15.263  39.464  27.163 -0.25 +0.01    -0.022 A 
DOCKED: ATOM     25  C   UNL d   1      10.837  37.898  26.340 -0.25 -0.02    +0.049 A 
DOCKED: ATOM     26  C   UNL d   1       8.670  37.718  25.649 -0.26 +0.00    -0.018 A 
DOCKED: ATOM     27  C   UNL d   1       9.574  37.473  26.728 -0.24 -0.00    +0.003 A 
DOCKED: ATOM     28  C   UNL d   1      12.117  37.764  26.943 -0.30 -0.04    +0.052 C 
DOCKED: ATOM     29  C   UNL d   1      16.658  39.743  27.607 -0.27 -0.00    +0.046 C 
DOCKED: ATOM     30  C   UNL d   1       7.215  37.393  25.617 -0.15 -0.00    +0.046 C 
DOCKED: ATOM     31  H   UNL d   1      12.563  40.212  25.566 -0.11 -0.07    +0.166 HD
DOCKED: ATOM     32  H   UNL d   1      11.451  38.837  24.525 -0.14 -0.08    +0.166 HD
DOCKED: ENDROOT
DOCKED: BRANCH   7  33
DOCKED: ATOM     33  C   UNL d   1       7.603  40.565  21.222 -0.24 -0.03    +0.141 C 
DOCKED: BRANCH  33  34
DOCKED: ATOM     34  C   UNL d   1       7.381  42.053  21.190 -0.11 -0.12    +0.306 C 
DOCKED: ATOM     35  O   UNL d   1       7.426  42.809  22.145 -0.04 +0.08    -0.251 OA
DOCKED: BRANCH  34  36
DOCKED: ATOM     36  O   UNL d   1       7.115  42.511  19.953 -0.18 +0.44    -0.481 OA
DOCKED: ATOM     37  H   UNL d   1       7.981  42.824  19.615 -0.16 -0.36    +0.295 HD
DOCKED: ENDBRANCH  34  36
DOCKED: ENDBRANCH  33  34
DOCKED: ENDBRANCH   7  33
DOCKED: BRANCH  27  38
DOCKED: ATOM     38  C   UNL d   1       9.229  36.848  27.969 -0.21 -0.00    +0.017 C 
DOCKED: ATOM     39  C   UNL d   1       9.634  37.257  29.181 -0.09 -0.01    +0.092 C 
DOCKED: BRANCH  39  40
DOCKED: ATOM     40  C   UNL d   1       9.194  36.538  30.379 -0.02 -0.01    +0.330 C 
DOCKED: ATOM     41  O   UNL d   1       8.093  36.560  30.897 -0.01 -0.01    -0.246 OA
DOCKED: BRANCH  40  42
DOCKED: ATOM     42  O   UNL d   1      10.200  35.798  30.870 -0.02 +0.04    -0.477 OA
DOCKED: ATOM     43  H   UNL d   1      10.905  36.452  31.052 +0.04 -0.04    +0.295 HD
DOCKED: ENDBRANCH  40  42
DOCKED: ENDBRANCH  39  40
DOCKED: ENDBRANCH  27  38
DOCKED: BRANCH   8  44
DOCKED: ATOM     44  C   UNL d   1      14.272  44.492  22.035 -0.22 -0.03    +0.141 C 
DOCKED: BRANCH  44  45
DOCKED: ATOM     45  C   UNL d   1      15.768  44.335  22.081 -0.21 -0.07    +0.306 C 
DOCKED: ATOM     46  O   UNL d   1      16.397  43.306  21.903 -0.24 +0.10    -0.251 OA
DOCKED: BRANCH  45  47
DOCKED: ATOM     47  O   UNL d   1      16.398  45.485  22.380 -0.11 +0.07    -0.481 OA
DOCKED: ATOM     48  H   UNL d   1      16.336  45.556  23.356 +0.11 -0.03    +0.295 HD
DOCKED: ENDBRANCH  45  47
DOCKED: ENDBRANCH  44  45
DOCKED: ENDBRANCH   8  44
DOCKED: BRANCH  22  49
DOCKED: ATOM     49  C   UNL d   1      14.789  37.278  28.403 -0.24 -0.02    +0.048 C 
DOCKED: BRANCH  49  50
DOCKED: ATOM     50  C   UNL d   1      14.447  37.580  29.862 -0.14 -0.02    +0.125 C 
DOCKED: BRANCH  50  51
DOCKED: ATOM     51  C   UNL d   1      13.002  37.279  30.147 -0.06 -0.09    +0.305 C 
DOCKED: ATOM     52  O   UNL d   1      12.144  38.053  30.532 -0.02 +0.04    -0.251 OA
DOCKED: BRANCH  51  53
DOCKED: ATOM     53  O   UNL d   1      12.707  35.980  29.940 -0.05 +0.24    -0.481 OA
DOCKED: ATOM     54  H   UNL d   1      11.842  36.003  29.481 +0.03 -0.22    +0.295 HD
DOCKED: ENDBRANCH  51  53
DOCKED: ENDBRANCH  50  51
DOCKED: ENDBRANCH  49  50
DOCKED: ENDBRANCH  22  49
DOCKED: TORSDOF 13
DOCKED: TER
DOCKED: ENDMDL
________________________________________________________________________________


	BEGINNING GENETIC ALGORITHM DOCKING 20 of 100
Run: 20 Seed: 746806679 927584377 [ Run 20 of 100 GA/GALS ]
Beginning LAMARCKIAN GENETIC ALGORITHM (LGA), with a maximum of 25000000 energy evaluations.

Final-Value: -11.302


	FINAL GENETIC ALGORITHM DOCKED STATE
	_______________________________________________


Detailed state:  trans 47.583 40.296 18.362 quatxyzw -0.455674 0.688076 0.391036 0.407435 center 0.153 0.018 -0.028 ntor 13 128.8552 147.4210 -99.7534 60.5244 -134.2759 -51.7076 127.7498 57.6589 22.9928 -23.3929 -93.0124 15.3751 -2.8444
State:	 47.583  40.296  18.362  -0.499  0.753  0.428 131.912    128.86  147.42  -99.75   60.52 -134.28  -51.71  127.75   57.66   22.99  -23.39  -93.01   15.38   -2.84

DOCKED: MODEL       20
DOCKED: USER    Run = 20
DOCKED: USER    DPF = D:/Protein_go_brrr/autodock/final/2DN3/heme/dock.dpf
DOCKED: USER  
DOCKED: USER    Estimated Free Energy of Binding    =   -2.50 kcal/mol  [=(1)+(2)+(3)-(4)]
DOCKED: USER    Estimated Inhibition Constant, Ki   =   14.61 mM (millimolar)  [Temperature = 298.15 K]
DOCKED: USER    
DOCKED: USER    (1) Final Intermolecular Energy     =   -6.38 kcal/mol
DOCKED: USER        vdW + Hbond + desolv Energy     =   -6.39 kcal/mol
DOCKED: USER        Electrostatic Energy            =   +0.00 kcal/mol
DOCKED: USER    (2) Final Total Internal Energy     =   -4.92 kcal/mol
DOCKED: USER    (3) Torsional Free Energy           =   +3.88 kcal/mol
DOCKED: USER    (4) Unbound System's Energy  [=(2)] =   -4.92 kcal/mol
DOCKED: USER    
DOCKED: USER    
DOCKED: USER    NEWDPF move heme_opt.pdbqt
DOCKED: USER    NEWDPF about 0.153000 0.018000 -0.028000
DOCKED: USER    NEWDPF tran0 47.582556 40.295904 18.362492
DOCKED: USER    NEWDPF quaternion0 -0.455674 0.688076 0.391036 0.407435
DOCKED: USER    NEWDPF axisangle0 -0.498968 0.753450 0.428188 131.912353
DOCKED: USER    NEWDPF quat0 -0.498968 0.753450 0.428188 131.912353
DOCKED: USER    NEWDPF dihe0 128.86 147.42 -99.75 60.52 -134.28 -51.71 127.75 57.66 22.99 -23.39 -93.01 15.38 -2.84 
DOCKED: USER  keepresnum = 1 
DOCKED: USER  
DOCKED: REMARK  13 active torsions:
DOCKED: REMARK  status: ('A' for Active; 'I' for Inactive)
DOCKED: REMARK    1  A    between atoms: O_3  and  C_38 
DOCKED: REMARK    2  A    between atoms: O_4  and  C_40 
DOCKED: REMARK    3  A    between atoms: O_7  and  C_46 
DOCKED: REMARK    4  A    between atoms: O_9  and  C_48 
DOCKED: REMARK    5  A    between atoms: C_15  and  C_20 
DOCKED: REMARK    6  A    between atoms: C_16  and  C_23 
DOCKED: REMARK    7  A    between atoms: C_20  and  C_38 
DOCKED: REMARK    8  A    between atoms: C_23  and  C_40 
DOCKED: REMARK    9  A    between atoms: C_32  and  C_41 
DOCKED: REMARK   10  A    between atoms: C_37  and  C_45 
DOCKED: REMARK   11  A    between atoms: C_41  and  C_44 
DOCKED: REMARK   12  A    between atoms: C_44  and  C_46 
DOCKED: REMARK   13  A    between atoms: C_47  and  C_48 
DOCKED: USER                              x       y       z     vdW  Elec       q    Type
DOCKED: USER                           _______ _______ _______ _____ _____    ______ ____
DOCKED: ROOT
DOCKED: ATOM      1  O   UNL d   1      47.885  46.182  18.517 -0.08 +0.01    -0.289 OA
DOCKED: ATOM      2  O   UNL d   1      51.197  41.194  13.984 -0.07 +0.02    -0.289 OA
DOCKED: ATOM      3  N   UNL d   1      47.509  42.774  18.897 -0.09 +0.02    -0.247 NA
DOCKED: ATOM      4  N   UNL d   1      48.903  41.664  16.519 -0.15 +0.02    -0.247 NA
DOCKED: ATOM      5  N   UNL d   1      47.662  39.133  17.089 -0.03 -0.01    -0.354 N 
DOCKED: ATOM      6  N   UNL d   1      46.205  40.298  19.543 -0.11 +0.01    -0.354 N 
DOCKED: ATOM      7  C   UNL d   1      46.521  44.752  19.956 -0.12 -0.00    +0.084 A 
DOCKED: ATOM      8  C   UNL d   1      50.679  43.020  15.531 -0.06 -0.01    +0.084 A 
DOCKED: ATOM      9  C   UNL d   1      49.550  42.879  16.556 -0.13 -0.00    +0.058 A 
DOCKED: ATOM     10  C   UNL d   1      46.607  43.226  19.846 -0.15 -0.00    +0.058 A 
DOCKED: ATOM     11  C   UNL d   1      47.547  45.081  18.914 -0.09 -0.01    +0.193 A 
DOCKED: ATOM     12  C   UNL d   1      48.091  43.799  18.365 -0.12 -0.01    +0.109 A 
DOCKED: ATOM     13  C   UNL d   1      50.529  41.673  14.880 -0.08 -0.01    +0.193 A 
DOCKED: ATOM     14  C   UNL d   1      45.161  45.284  19.497 -0.33 +0.00    +0.026 C 
DOCKED: ATOM     15  C   UNL d   1      49.191  43.874  17.382 -0.15 -0.01    +0.055 C 
DOCKED: ATOM     16  C   UNL d   1      52.053  43.090  16.205 -0.02 -0.00    +0.026 C 
DOCKED: ATOM     17  C   UNL d   1      49.414  40.953  15.566 -0.15 -0.00    +0.109 A 
DOCKED: ATOM     18  C   UNL d   1      45.920  42.421  20.677 -0.20 -0.00    +0.050 C 
DOCKED: ATOM     19  C   UNL d   1      46.001  41.006  20.706 -0.20 -0.00    +0.045 A 
DOCKED: ATOM     20  C   UNL d   1      48.191  38.864  15.853 -0.16 +0.00    +0.045 A 
DOCKED: ATOM     21  C   UNL d   1      49.008  39.616  15.109 -0.07 -0.00    +0.057 C 
DOCKED: ATOM     22  C   UNL d   1      46.885  37.104  16.498 -0.27 -0.00    -0.019 A 
DOCKED: ATOM     23  C   UNL d   1      46.860  38.129  17.560 -0.19 +0.00    +0.045 A 
DOCKED: ATOM     24  C   UNL d   1      47.675  37.544  15.490 -0.32 -0.00    -0.022 A 
DOCKED: ATOM     25  C   UNL d   1      46.160  38.945  19.786 -0.21 -0.00    +0.049 A 
DOCKED: ATOM     26  C   UNL d   1      45.856  40.091  21.737 -0.17 +0.00    -0.018 A 
DOCKED: ATOM     27  C   UNL d   1      45.977  38.791  21.154 -0.18 -0.00    +0.003 A 
DOCKED: ATOM     28  C   UNL d   1      46.188  38.011  18.716 -0.26 +0.00    +0.052 C 
DOCKED: ATOM     29  C   UNL d   1      48.021  36.863  14.210 -0.51 +0.01    +0.046 C 
DOCKED: ATOM     30  C   UNL d   1      45.622  40.401  23.176 -0.12 -0.02    +0.046 C 
DOCKED: ATOM     31  H   UNL d   1      47.928  39.966  17.604 +0.04 -0.00    +0.166 HD
DOCKED: ATOM     32  H   UNL d   1      46.328  40.734  18.636 +0.06 +0.00    +0.166 HD
DOCKED: ENDROOT
DOCKED: BRANCH   7  33
DOCKED: ATOM     33  C   UNL d   1      46.925  45.337  21.313 -0.03 +0.00    +0.141 C 
DOCKED: BRANCH  33  34
DOCKED: ATOM     34  C   UNL d   1      48.404  45.234  21.570 +0.00 +0.01    +0.306 C 
DOCKED: ATOM     35  O   UNL d   1      49.001  44.243  21.956 -0.00 -0.00    -0.251 OA
DOCKED: BRANCH  34  36
DOCKED: ATOM     36  O   UNL d   1      49.054  46.386  21.326 +0.01 -0.01    -0.481 OA
DOCKED: ATOM     37  H   UNL d   1      48.799  46.623  20.409 +0.03 +0.00    +0.295 HD
DOCKED: ENDBRANCH  34  36
DOCKED: ENDBRANCH  33  34
DOCKED: ENDBRANCH   7  33
DOCKED: BRANCH  27  38
DOCKED: ATOM     38  C   UNL d   1      45.873  37.554  21.866 -0.16 -0.00    +0.017 C 
DOCKED: ATOM     39  C   UNL d   1      46.773  36.559  21.825 -0.13 -0.01    +0.092 C 
DOCKED: BRANCH  39  40
DOCKED: ATOM     40  C   UNL d   1      46.557  35.346  22.618 -0.09 +0.00    +0.330 C 
DOCKED: ATOM     41  O   UNL d   1      46.341  35.268  23.813 -0.13 +0.02    -0.246 OA
DOCKED: BRANCH  40  42
DOCKED: ATOM     42  O   UNL d   1      46.618  34.262  21.830 -0.05 -0.10    -0.477 OA
DOCKED: ATOM     43  H   UNL d   1      46.263  34.574  20.973 +0.10 +0.05    +0.295 HD
DOCKED: ENDBRANCH  40  42
DOCKED: ENDBRANCH  39  40
DOCKED: ENDBRANCH  27  38
DOCKED: BRANCH   8  44
DOCKED: ATOM     44  C   UNL d   1      50.506  44.146  14.507 -0.13 -0.02    +0.141 C 
DOCKED: BRANCH  44  45
DOCKED: ATOM     45  C   UNL d   1      49.455  43.851  13.470 -0.22 -0.06    +0.306 C 
DOCKED: ATOM     46  O   UNL d   1      48.254  44.023  13.584 -0.30 +0.05    -0.251 OA
DOCKED: BRANCH  45  47
DOCKED: ATOM     47  O   UNL d   1      49.974  43.324  12.347 -0.12 +0.12    -0.481 OA
DOCKED: ATOM     48  H   UNL d   1      50.123  42.379  12.562 +0.11 -0.07    +0.295 HD
DOCKED: ENDBRANCH  45  47
DOCKED: ENDBRANCH  44  45
DOCKED: ENDBRANCH   8  44
DOCKED: BRANCH  22  49
DOCKED: ATOM     49  C   UNL d   1      46.129  35.809  16.558 -0.27 +0.01    +0.048 C 
DOCKED: BRANCH  49  50
DOCKED: ATOM     50  C   UNL d   1      46.920  34.722  17.285 -0.17 +0.02    +0.125 C 
DOCKED: BRANCH  50  51
DOCKED: ATOM     51  C   UNL d   1      46.661  34.769  18.765 -0.07 +0.05    +0.305 C 
DOCKED: ATOM     52  O   UNL d   1      45.582  34.779  19.330 -0.15 -0.03    -0.251 OA
DOCKED: BRANCH  51  53
DOCKED: ATOM     53  O   UNL d   1      47.805  34.814  19.476 +0.01 -0.07    -0.481 OA
DOCKED: ATOM     54  H   UNL d   1      47.771  34.007  20.032 +0.06 +0.06    +0.295 HD
DOCKED: ENDBRANCH  51  53
DOCKED: ENDBRANCH  50  51
DOCKED: ENDBRANCH  49  50
DOCKED: ENDBRANCH  22  49
DOCKED: TORSDOF 13
DOCKED: TER
DOCKED: ENDMDL
________________________________________________________________________________


	BEGINNING GENETIC ALGORITHM DOCKING 21 of 100
Run: 21 Seed: 744368782 1971587972 [ Run 21 of 100 GA/GALS ]
Beginning LAMARCKIAN GENETIC ALGORITHM (LGA), with a maximum of 25000000 energy evaluations.

Final-Value: -10.455


	FINAL GENETIC ALGORITHM DOCKED STATE
	_______________________________________________


Detailed state:  trans 26.469 37.248 -2.018 quatxyzw -0.136659 -0.883082 0.175357 0.413207 center 0.153 0.018 -0.028 ntor 13 113.0374 -132.4370 -60.4905 10.4179 -132.6284 11.6818 138.0889 150.0556 29.6171 -179.9992 -47.9747 -72.2344 9.4763
State:	 26.469  37.248  -2.018  -0.150 -0.970  0.193 131.187    113.04 -132.44  -60.49   10.42 -132.63   11.68  138.09  150.06   29.62 -180.00  -47.97  -72.23    9.48

DOCKED: MODEL       21
DOCKED: USER    Run = 21
DOCKED: USER    DPF = D:/Protein_go_brrr/autodock/final/2DN3/heme/dock.dpf
DOCKED: USER  
DOCKED: USER    Estimated Free Energy of Binding    =   -2.77 kcal/mol  [=(1)+(2)+(3)-(4)]
DOCKED: USER    Estimated Inhibition Constant, Ki   =    9.33 mM (millimolar)  [Temperature = 298.15 K]
DOCKED: USER    
DOCKED: USER    (1) Final Intermolecular Energy     =   -6.65 kcal/mol
DOCKED: USER        vdW + Hbond + desolv Energy     =   -6.59 kcal/mol
DOCKED: USER        Electrostatic Energy            =   -0.06 kcal/mol
DOCKED: USER    (2) Final Total Internal Energy     =   -3.81 kcal/mol
DOCKED: USER    (3) Torsional Free Energy           =   +3.88 kcal/mol
DOCKED: USER    (4) Unbound System's Energy  [=(2)] =   -3.81 kcal/mol
DOCKED: USER    
DOCKED: USER    
DOCKED: USER    NEWDPF move heme_opt.pdbqt
DOCKED: USER    NEWDPF about 0.153000 0.018000 -0.028000
DOCKED: USER    NEWDPF tran0 26.468843 37.247926 -2.018082
DOCKED: USER    NEWDPF quaternion0 -0.136659 -0.883082 0.175357 0.413207
DOCKED: USER    NEWDPF axisangle0 -0.150070 -0.969741 0.192565 131.187047
DOCKED: USER    NEWDPF quat0 -0.150070 -0.969741 0.192565 131.187047
DOCKED: USER    NEWDPF dihe0 113.04 -132.44 -60.49 10.42 -132.63 11.68 138.09 150.06 29.62 -180.00 -47.97 -72.23 9.48 
DOCKED: USER  keepresnum = 1 
DOCKED: USER  
DOCKED: REMARK  13 active torsions:
DOCKED: REMARK  status: ('A' for Active; 'I' for Inactive)
DOCKED: REMARK    1  A    between atoms: O_3  and  C_38 
DOCKED: REMARK    2  A    between atoms: O_4  and  C_40 
DOCKED: REMARK    3  A    between atoms: O_7  and  C_46 
DOCKED: REMARK    4  A    between atoms: O_9  and  C_48 
DOCKED: REMARK    5  A    between atoms: C_15  and  C_20 
DOCKED: REMARK    6  A    between atoms: C_16  and  C_23 
DOCKED: REMARK    7  A    between atoms: C_20  and  C_38 
DOCKED: REMARK    8  A    between atoms: C_23  and  C_40 
DOCKED: REMARK    9  A    between atoms: C_32  and  C_41 
DOCKED: REMARK   10  A    between atoms: C_37  and  C_45 
DOCKED: REMARK   11  A    between atoms: C_41  and  C_44 
DOCKED: REMARK   12  A    between atoms: C_44  and  C_46 
DOCKED: REMARK   13  A    between atoms: C_47  and  C_48 
DOCKED: USER                              x       y       z     vdW  Elec       q    Type
DOCKED: USER                           _______ _______ _______ _____ _____    ______ ____
DOCKED: ROOT
DOCKED: ATOM      1  O   UNL d   1      31.048  37.955   1.626 -0.04 -0.05    -0.289 OA
DOCKED: ATOM      2  O   UNL d   1      25.171  33.292   1.945 -0.17 +0.02    -0.289 OA
DOCKED: ATOM      3  N   UNL d   1      28.505  37.994  -0.702 -0.09 -0.04    -0.247 NA
DOCKED: ATOM      4  N   UNL d   1      26.841  35.654   0.063 -0.11 -0.04    -0.247 NA
DOCKED: ATOM      5  N   UNL d   1      25.510  35.887  -2.474 -0.07 +0.00    -0.354 N 
DOCKED: ATOM      6  N   UNL d   1      27.253  38.302  -3.269 -0.12 -0.04    -0.354 N 
DOCKED: ATOM      7  C   UNL d   1      30.661  39.138  -0.477 -0.03 +0.02    +0.084 A 
DOCKED: ATOM      8  C   UNL d   1      26.917  34.946   2.401 -0.27 +0.02    +0.084 A 
DOCKED: ATOM      9  C   UNL d   1      27.443  35.855   1.286 -0.21 +0.01    +0.058 A 
DOCKED: ATOM     10  C   UNL d   1      29.379  38.899  -1.281 -0.09 +0.01    +0.058 A 
DOCKED: ATOM     11  C   UNL d   1      30.348  38.221   0.667 -0.03 +0.03    +0.193 A 
DOCKED: ATOM     12  C   UNL d   1      29.004  37.607   0.426 -0.10 +0.02    +0.109 A 
DOCKED: ATOM     13  C   UNL d   1      25.931  34.167   1.577 -0.22 +0.03    +0.193 A 
DOCKED: ATOM     14  C   UNL d   1      31.901  38.614  -1.206 -0.02 +0.01    +0.026 C 
DOCKED: ATOM     15  C   UNL d   1      28.441  36.733   1.475 -0.18 +0.01    +0.055 C 
DOCKED: ATOM     16  C   UNL d   1      26.151  35.738   3.465 -0.09 +0.00    +0.026 C 
DOCKED: ATOM     17  C   UNL d   1      25.988  34.688   0.178 -0.25 +0.01    +0.109 A 
DOCKED: ATOM     18  C   UNL d   1      29.113  39.594  -2.403 -0.10 +0.01    +0.050 C 
DOCKED: ATOM     19  C   UNL d   1      27.919  39.502  -3.163 -0.15 +0.01    +0.045 A 
DOCKED: ATOM     20  C   UNL d   1      25.010  34.682  -2.055 -0.29 -0.00    +0.045 A 
DOCKED: ATOM     21  C   UNL d   1      25.155  34.080  -0.870 -0.34 -0.00    +0.057 C 
DOCKED: ATOM     22  C   UNL d   1      24.339  35.052  -4.208 -0.24 +0.00    -0.019 A 
DOCKED: ATOM     23  C   UNL d   1      25.159  36.196  -3.761 -0.25 -0.00    +0.045 A 
DOCKED: ATOM     24  C   UNL d   1      24.253  34.159  -3.193 -0.31 +0.00    -0.022 A 
DOCKED: ATOM     25  C   UNL d   1      26.180  38.418  -4.121 -0.19 +0.00    +0.049 A 
DOCKED: ATOM     26  C   UNL d   1      27.241  40.431  -3.937 -0.17 -0.00    -0.018 A 
DOCKED: ATOM     27  C   UNL d   1      26.132  39.746  -4.524 -0.20 +0.00    +0.003 A 
DOCKED: ATOM     28  C   UNL d   1      25.432  37.275  -4.511 -0.25 +0.00    +0.052 C 
DOCKED: ATOM     29  C   UNL d   1      23.528  32.857  -3.154 -0.29 -0.02    +0.046 C 
DOCKED: ATOM     30  C   UNL d   1      27.597  41.867  -4.121 -0.13 +0.01    +0.046 C 
DOCKED: ATOM     31  H   UNL d   1      26.016  36.495  -1.840 +0.05 +0.01    +0.166 HD
DOCKED: ATOM     32  H   UNL d   1      27.554  37.452  -2.806 +0.03 +0.02    +0.166 HD
DOCKED: ENDROOT
DOCKED: BRANCH   7  33
DOCKED: ATOM     33  C   UNL d   1      30.866  40.572   0.023 -0.03 +0.04    +0.141 C 
DOCKED: BRANCH  33  34
DOCKED: ATOM     34  C   UNL d   1      30.020  40.892   1.225 -0.04 +0.07    +0.306 C 
DOCKED: ATOM     35  O   UNL d   1      28.832  41.166   1.218 -0.11 -0.05    -0.251 OA
DOCKED: BRANCH  34  36
DOCKED: ATOM     36  O   UNL d   1      30.716  40.847   2.375 -0.01 -0.10    -0.481 OA
DOCKED: ATOM     37  H   UNL d   1      30.917  39.896   2.505 +0.11 +0.04    +0.295 HD
DOCKED: ENDBRANCH  34  36
DOCKED: ENDBRANCH  33  34
DOCKED: ENDBRANCH   7  33
DOCKED: BRANCH  27  38
DOCKED: ATOM     38  C   UNL d   1      25.176  40.333  -5.413 -0.08 +0.00    +0.017 C 
DOCKED: ATOM     39  C   UNL d   1      24.596  39.709  -6.449 -0.15 +0.02    +0.092 C 
DOCKED: BRANCH  39  40
DOCKED: ATOM     40  C   UNL d   1      23.616  40.420  -7.275 -0.09 +0.07    +0.330 C 
DOCKED: ATOM     41  O   UNL d   1      23.346  41.606  -7.252 -0.12 -0.05    -0.246 OA
DOCKED: BRANCH  40  42
DOCKED: ATOM     42  O   UNL d   1      23.017  39.566  -8.119 -0.02 -0.12    -0.477 OA
DOCKED: ATOM     43  H   UNL d   1      22.769  38.808  -7.550 +0.10 +0.07    +0.295 HD
DOCKED: ENDBRANCH  40  42
DOCKED: ENDBRANCH  39  40
DOCKED: ENDBRANCH  27  38
DOCKED: BRANCH   8  44
DOCKED: ATOM     44  C   UNL d   1      27.953  34.016   3.040 -0.15 +0.11    +0.141 C 
DOCKED: BRANCH  44  45
DOCKED: ATOM     45  C   UNL d   1      27.951  34.070   4.545 -0.12 +0.17    +0.306 C 
DOCKED: ATOM     46  O   UNL d   1      27.341  33.331   5.298 -0.58 -0.20    -0.251 OA
DOCKED: BRANCH  45  47
DOCKED: ATOM     47  O   UNL d   1      28.704  35.076   5.025 -0.05 -0.07    -0.481 OA
DOCKED: ATOM     48  H   UNL d   1      28.074  35.643   5.520 +0.17 -0.07    +0.295 HD
DOCKED: ENDBRANCH  45  47
DOCKED: ENDBRANCH  44  45
DOCKED: ENDBRANCH   8  44
DOCKED: BRANCH  22  49
DOCKED: ATOM     49  C   UNL d   1      23.734  34.931  -5.575 -0.19 -0.00    +0.048 C 
DOCKED: BRANCH  49  50
DOCKED: ATOM     50  C   UNL d   1      22.535  35.864  -5.751 -0.23 +0.01    +0.125 C 
DOCKED: BRANCH  50  51
DOCKED: ATOM     51  C   UNL d   1      22.627  36.616  -7.049 -0.06 +0.04    +0.305 C 
DOCKED: ATOM     52  O   UNL d   1      21.713  36.930  -7.791 -0.10 -0.07    -0.251 OA
DOCKED: BRANCH  51  53
DOCKED: ATOM     53  O   UNL d   1      23.900  36.932  -7.360 +0.01 -0.04    -0.481 OA
DOCKED: ATOM     54  H   UNL d   1      23.814  37.547  -8.118 +0.06 +0.04    +0.295 HD
DOCKED: ENDBRANCH  51  53
DOCKED: ENDBRANCH  50  51
DOCKED: ENDBRANCH  49  50
DOCKED: ENDBRANCH  22  49
DOCKED: TORSDOF 13
DOCKED: TER
DOCKED: ENDMDL
________________________________________________________________________________


	BEGINNING GENETIC ALGORITHM DOCKING 22 of 100
Run: 22 Seed: 63391671 958085499 [ Run 22 of 100 GA/GALS ]
Beginning LAMARCKIAN GENETIC ALGORITHM (LGA), with a maximum of 25000000 energy evaluations.

Final-Value: -10.637


	FINAL GENETIC ALGORITHM DOCKED STATE
	_______________________________________________


Detailed state:  trans 0.224 32.733 7.231 quatxyzw 0.000129 -0.747417 -0.122447 0.652973 center 0.153 0.018 -0.028 ntor 13 134.3244 76.2110 -46.8530 28.8509 -137.7682 138.5746 126.1197 -89.3531 16.2693 -123.5960 125.4484 -56.5509 -179.9501
State:	  0.224  32.733   7.231   0.000 -0.987 -0.162 98.468    134.32   76.21  -46.85   28.85 -137.77  138.57  126.12  -89.35   16.27 -123.60  125.45  -56.55 -179.95

DOCKED: MODEL       22
DOCKED: USER    Run = 22
DOCKED: USER    DPF = D:/Protein_go_brrr/autodock/final/2DN3/heme/dock.dpf
DOCKED: USER  
DOCKED: USER    Estimated Free Energy of Binding    =   -4.85 kcal/mol  [=(1)+(2)+(3)-(4)]
DOCKED: USER    Estimated Inhibition Constant, Ki   =  279.28 uM (micromolar)  [Temperature = 298.15 K]
DOCKED: USER    
DOCKED: USER    (1) Final Intermolecular Energy     =   -8.73 kcal/mol
DOCKED: USER        vdW + Hbond + desolv Energy     =   -8.65 kcal/mol
DOCKED: USER        Electrostatic Energy            =   -0.08 kcal/mol
DOCKED: USER    (2) Final Total Internal Energy     =   -1.91 kcal/mol
DOCKED: USER    (3) Torsional Free Energy           =   +3.88 kcal/mol
DOCKED: USER    (4) Unbound System's Energy  [=(2)] =   -1.91 kcal/mol
DOCKED: USER    
DOCKED: USER    
DOCKED: USER    NEWDPF move heme_opt.pdbqt
DOCKED: USER    NEWDPF about 0.153000 0.018000 -0.028000
DOCKED: USER    NEWDPF tran0 0.223787 32.732606 7.231106
DOCKED: USER    NEWDPF quaternion0 0.000129 -0.747417 -0.122447 0.652973
DOCKED: USER    NEWDPF axisangle0 0.000170 -0.986845 -0.161671 98.467678
DOCKED: USER    NEWDPF quat0 0.000170 -0.986845 -0.161671 98.467678
DOCKED: USER    NEWDPF dihe0 134.32 76.21 -46.85 28.85 -137.77 138.57 126.12 -89.35 16.27 -123.60 125.45 -56.55 -179.95 
DOCKED: USER  keepresnum = 1 
DOCKED: USER  
DOCKED: REMARK  13 active torsions:
DOCKED: REMARK  status: ('A' for Active; 'I' for Inactive)
DOCKED: REMARK    1  A    between atoms: O_3  and  C_38 
DOCKED: REMARK    2  A    between atoms: O_4  and  C_40 
DOCKED: REMARK    3  A    between atoms: O_7  and  C_46 
DOCKED: REMARK    4  A    between atoms: O_9  and  C_48 
DOCKED: REMARK    5  A    between atoms: C_15  and  C_20 
DOCKED: REMARK    6  A    between atoms: C_16  and  C_23 
DOCKED: REMARK    7  A    between atoms: C_20  and  C_38 
DOCKED: REMARK    8  A    between atoms: C_23  and  C_40 
DOCKED: REMARK    9  A    between atoms: C_32  and  C_41 
DOCKED: REMARK   10  A    between atoms: C_37  and  C_45 
DOCKED: REMARK   11  A    between atoms: C_41  and  C_44 
DOCKED: REMARK   12  A    between atoms: C_44  and  C_46 
DOCKED: REMARK   13  A    between atoms: C_47  and  C_48 
DOCKED: USER                              x       y       z     vdW  Elec       q    Type
DOCKED: USER                           _______ _______ _______ _____ _____    ______ ____
DOCKED: ROOT
DOCKED: ATOM      1  O   UNL d   1       1.412  33.594  12.941 -0.26 -0.02    -0.289 OA
DOCKED: ATOM      2  O   UNL d   1      -0.150  27.318   9.124 -0.13 +0.23    -0.289 OA
DOCKED: ATOM      3  N   UNL d   1       0.638  33.595   9.580 -0.03 -0.02    -0.247 NA
DOCKED: ATOM      4  N   UNL d   1       0.484  30.704   8.913 -0.10 +0.04    -0.247 NA
DOCKED: ATOM      5  N   UNL d   1       0.534  31.437   6.133 -0.07 +0.04    -0.354 N 
DOCKED: ATOM      6  N   UNL d   1       0.713  34.434   6.834 -0.17 -0.04    -0.354 N 
DOCKED: ATOM      7  C   UNL d   1       1.386  35.292  11.183 -0.35 +0.00    +0.084 A 
DOCKED: ATOM      8  C   UNL d   1      -0.080  29.167  10.727 -0.17 -0.02    +0.084 A 
DOCKED: ATOM      9  C   UNL d   1       0.254  30.589  10.266 -0.18 -0.01    +0.058 A 
DOCKED: ATOM     10  C   UNL d   1       0.982  34.926   9.752 -0.27 +0.00    +0.058 A 
DOCKED: ATOM     11  C   UNL d   1       1.192  33.936  11.794 -0.20 +0.01    +0.193 A 
DOCKED: ATOM     12  C   UNL d   1       0.713  33.002  10.727 -0.15 +0.01    +0.109 A 
DOCKED: ATOM     13  C   UNL d   1       0.039  28.489   9.391 -0.17 -0.08    +0.193 A 
DOCKED: ATOM     14  C   UNL d   1       2.865  35.673  11.282 -0.54 -0.00    +0.026 C 
DOCKED: ATOM     15  C   UNL d   1       0.363  31.621  11.117 -0.20 +0.00    +0.055 C 
DOCKED: ATOM     16  C   UNL d   1      -1.529  29.052  11.209 -0.06 -0.00    +0.026 C 
DOCKED: ATOM     17  C   UNL d   1       0.392  29.529   8.378 -0.16 -0.04    +0.109 A 
DOCKED: ATOM     18  C   UNL d   1       0.890  35.860   8.787 -0.33 +0.01    +0.050 C 
DOCKED: ATOM     19  C   UNL d   1       0.445  35.630   7.460 -0.31 +0.01    +0.045 A 
DOCKED: ATOM     20  C   UNL d   1       0.691  30.080   6.022 -0.21 -0.02    +0.045 A 
DOCKED: ATOM     21  C   UNL d   1       0.618  29.147   6.976 -0.25 -0.04    +0.057 C 
DOCKED: ATOM     22  C   UNL d   1       0.953  31.026   3.959 -0.13 +0.00    -0.019 A 
DOCKED: ATOM     23  C   UNL d   1       0.675  32.094   4.940 -0.17 -0.00    +0.045 A 
DOCKED: ATOM     24  C   UNL d   1       0.960  29.836   4.605 -0.17 +0.01    -0.022 A 
DOCKED: ATOM     25  C   UNL d   1       0.273  34.460   5.531 -0.22 +0.01    +0.049 A 
DOCKED: ATOM     26  C   UNL d   1      -0.219  36.441   6.552 -0.28 -0.01    -0.018 A 
DOCKED: ATOM     27  C   UNL d   1      -0.342  35.690   5.343 -0.20 +0.00    +0.003 A 
DOCKED: ATOM     28  C   UNL d   1       0.576  33.397   4.637 -0.22 +0.01    +0.052 C 
DOCKED: ATOM     29  C   UNL d   1       1.183  28.472   4.046 -0.18 -0.03    +0.046 C 
DOCKED: ATOM     30  C   UNL d   1      -0.712  37.828   6.792 -0.25 +0.02    +0.046 C 
DOCKED: ATOM     31  H   UNL d   1       0.261  31.865   7.012 +0.06 -0.01    +0.166 HD
DOCKED: ATOM     32  H   UNL d   1       1.206  33.667   7.278 +0.07 +0.02    +0.166 HD
DOCKED: ENDROOT
DOCKED: BRANCH   7  33
DOCKED: ATOM     33  C   UNL d   1       0.491  36.326  11.875 -0.23 +0.00    +0.141 C 
DOCKED: BRANCH  33  34
DOCKED: ATOM     34  C   UNL d   1      -0.916  35.833  12.074 -0.11 +0.02    +0.306 C 
DOCKED: ATOM     35  O   UNL d   1      -1.815  35.866  11.251 -0.07 -0.05    -0.251 OA
DOCKED: BRANCH  34  36
DOCKED: ATOM     36  O   UNL d   1      -1.117  35.321  13.301 -0.02 +0.01    -0.481 OA
DOCKED: ATOM     37  H   UNL d   1      -0.361  34.711  13.441 +0.08 -0.00    +0.295 HD
DOCKED: ENDBRANCH  34  36
DOCKED: ENDBRANCH  33  34
DOCKED: ENDBRANCH   7  33
DOCKED: BRANCH  27  38
DOCKED: ATOM     38  C   UNL d   1      -0.954  36.162   4.137 -0.15 +0.01    +0.017 C 
DOCKED: ATOM     39  C   UNL d   1      -0.755  35.647   2.915 -0.11 +0.04    +0.092 C 
DOCKED: BRANCH  39  40
DOCKED: ATOM     40  C   UNL d   1      -1.459  36.212   1.760 -0.07 +0.21    +0.330 C 
DOCKED: ATOM     41  O   UNL d   1      -1.004  36.459   0.660 -0.13 -0.24    -0.246 OA
DOCKED: BRANCH  40  42
DOCKED: ATOM     42  O   UNL d   1      -2.746  36.434   2.068 -0.02 -0.20    -0.477 OA
DOCKED: ATOM     43  H   UNL d   1      -3.223  35.702   1.626 +0.02 +0.09    +0.295 HD
DOCKED: ENDBRANCH  40  42
DOCKED: ENDBRANCH  39  40
DOCKED: ENDBRANCH  27  38
DOCKED: BRANCH   8  44
DOCKED: ATOM     44  C   UNL d   1       0.892  28.556  11.741 -0.23 -0.02    +0.141 C 
DOCKED: BRANCH  44  45
DOCKED: ATOM     45  C   UNL d   1       0.610  27.107  12.036 -0.18 -0.08    +0.306 C 
DOCKED: ATOM     46  O   UNL d   1       0.958  26.148  11.369 -0.32 +0.11    -0.251 OA
DOCKED: BRANCH  45  47
DOCKED: ATOM     47  O   UNL d   1      -0.126  26.942  13.151 -0.02 +0.07    -0.481 OA
DOCKED: ATOM     48  H   UNL d   1      -0.834  26.315  12.890 +0.08 -0.05    +0.295 HD
DOCKED: ENDBRANCH  45  47
DOCKED: ENDBRANCH  44  45
DOCKED: ENDBRANCH   8  44
DOCKED: BRANCH  22  49
DOCKED: ATOM     49  C   UNL d   1       1.199  31.266   2.498 -0.12 -0.00    +0.048 C 
DOCKED: BRANCH  49  50
DOCKED: ATOM     50  C   UNL d   1       2.691  31.326   2.175 -0.19 -0.00    +0.125 C 
DOCKED: BRANCH  50  51
DOCKED: ATOM     51  C   UNL d   1       3.389  32.332   3.045 -0.21 -0.00    +0.305 C 
DOCKED: ATOM     52  O   UNL d   1       3.647  33.493   2.778 -0.26 -0.02    -0.251 OA
DOCKED: BRANCH  51  53
DOCKED: ATOM     53  O   UNL d   1       3.748  31.808   4.234 -0.08 +0.06    -0.481 OA
DOCKED: ATOM     54  H   UNL d   1       3.742  32.576   4.843 -0.32 -0.11    +0.295 HD
DOCKED: ENDBRANCH  51  53
DOCKED: ENDBRANCH  50  51
DOCKED: ENDBRANCH  49  50
DOCKED: ENDBRANCH  22  49
DOCKED: TORSDOF 13
DOCKED: TER
DOCKED: ENDMDL
________________________________________________________________________________


	BEGINNING GENETIC ALGORITHM DOCKING 23 of 100
Run: 23 Seed: 1002216922 163055854 [ Run 23 of 100 GA/GALS ]
Beginning LAMARCKIAN GENETIC ALGORITHM (LGA), with a maximum of 25000000 energy evaluations.

Final-Value: -10.097


	FINAL GENETIC ALGORITHM DOCKED STATE
	_______________________________________________


Detailed state:  trans 41.751 18.072 7.751 quatxyzw -0.251465 0.646103 0.672667 -0.258526 center 0.153 0.018 -0.028 ntor 13 -179.3364 -179.9075 -146.1433 -61.5432 -21.1456 -1.9140 126.9704 108.9403 -6.9602 -33.6882 144.2149 -85.9570 -170.6531
State:	 41.751  18.072   7.751  -0.260  0.669  0.696 -150.035   -179.34 -179.91 -146.14  -61.54  -21.15   -1.91  126.97  108.94   -6.96  -33.69  144.21  -85.96 -170.65

DOCKED: MODEL       23
DOCKED: USER    Run = 23
DOCKED: USER    DPF = D:/Protein_go_brrr/autodock/final/2DN3/heme/dock.dpf
DOCKED: USER  
DOCKED: USER    Estimated Free Energy of Binding    =   -4.12 kcal/mol  [=(1)+(2)+(3)-(4)]
DOCKED: USER    Estimated Inhibition Constant, Ki   =  951.96 uM (micromolar)  [Temperature = 298.15 K]
DOCKED: USER    
DOCKED: USER    (1) Final Intermolecular Energy     =   -8.00 kcal/mol
DOCKED: USER        vdW + Hbond + desolv Energy     =   -7.57 kcal/mol
DOCKED: USER        Electrostatic Energy            =   -0.43 kcal/mol
DOCKED: USER    (2) Final Total Internal Energy     =   -2.10 kcal/mol
DOCKED: USER    (3) Torsional Free Energy           =   +3.88 kcal/mol
DOCKED: USER    (4) Unbound System's Energy  [=(2)] =   -2.10 kcal/mol
DOCKED: USER    
DOCKED: USER    
DOCKED: USER    NEWDPF move heme_opt.pdbqt
DOCKED: USER    NEWDPF about 0.153000 0.018000 -0.028000
DOCKED: USER    NEWDPF tran0 41.751261 18.071799 7.750748
DOCKED: USER    NEWDPF quaternion0 -0.251465 0.646103 0.672667 -0.258526
DOCKED: USER    NEWDPF axisangle0 -0.260315 0.668840 0.696339 -150.034823
DOCKED: USER    NEWDPF quat0 -0.260315 0.668840 0.696339 -150.034823
DOCKED: USER    NEWDPF dihe0 -179.34 -179.91 -146.14 -61.54 -21.15 -1.91 126.97 108.94 -6.96 -33.69 144.21 -85.96 -170.65 
DOCKED: USER  keepresnum = 1 
DOCKED: USER  
DOCKED: REMARK  13 active torsions:
DOCKED: REMARK  status: ('A' for Active; 'I' for Inactive)
DOCKED: REMARK    1  A    between atoms: O_3  and  C_38 
DOCKED: REMARK    2  A    between atoms: O_4  and  C_40 
DOCKED: REMARK    3  A    between atoms: O_7  and  C_46 
DOCKED: REMARK    4  A    between atoms: O_9  and  C_48 
DOCKED: REMARK    5  A    between atoms: C_15  and  C_20 
DOCKED: REMARK    6  A    between atoms: C_16  and  C_23 
DOCKED: REMARK    7  A    between atoms: C_20  and  C_38 
DOCKED: REMARK    8  A    between atoms: C_23  and  C_40 
DOCKED: REMARK    9  A    between atoms: C_32  and  C_41 
DOCKED: REMARK   10  A    between atoms: C_37  and  C_45 
DOCKED: REMARK   11  A    between atoms: C_41  and  C_44 
DOCKED: REMARK   12  A    between atoms: C_44  and  C_46 
DOCKED: REMARK   13  A    between atoms: C_47  and  C_48 
DOCKED: USER                              x       y       z     vdW  Elec       q    Type
DOCKED: USER                           _______ _______ _______ _____ _____    ______ ____
DOCKED: ROOT
DOCKED: ATOM      1  O   UNL d   1      44.764  18.538  12.797 -0.08 -0.10    -0.289 OA
DOCKED: ATOM      2  O   UNL d   1      46.984  16.586   5.894 -0.07 -0.17    -0.289 OA
DOCKED: ATOM      3  N   UNL d   1      42.582  18.270  10.139 -0.12 -0.03    -0.247 NA
DOCKED: ATOM      4  N   UNL d   1      44.380  17.765   7.828 -0.05 -0.10    -0.247 NA
DOCKED: ATOM      5  N   UNL d   1      42.158  18.332   6.094 -0.05 -0.09    -0.354 N 
DOCKED: ATOM      6  N   UNL d   1      40.305  18.873   8.496 -0.14 -0.01    -0.354 N 
DOCKED: ATOM      7  C   UNL d   1      42.394  19.033  12.460 -0.25 +0.01    +0.084 A 
DOCKED: ATOM      8  C   UNL d   1      46.534  16.710   8.297 -0.06 +0.03    +0.084 A 
DOCKED: ATOM      9  C   UNL d   1      45.231  17.326   8.818 -0.11 +0.02    +0.058 A 
DOCKED: ATOM     10  C   UNL d   1      41.732  18.789  11.101 -0.26 +0.00    +0.058 A 
DOCKED: ATOM     11  C   UNL d   1      43.764  18.544  12.102 -0.12 +0.04    +0.193 A 
DOCKED: ATOM     12  C   UNL d   1      43.744  18.084  10.677 -0.14 +0.02    +0.109 A 
DOCKED: ATOM     13  C   UNL d   1      46.281  16.915   6.830 -0.07 +0.10    +0.193 A 
DOCKED: ATOM     14  C   UNL d   1      42.474  20.524  12.801 -0.43 +0.00    +0.026 C 
DOCKED: ATOM     15  C   UNL d   1      44.969  17.470  10.126 -0.12 +0.01    +0.055 C 
DOCKED: ATOM     16  C   UNL d   1      46.604  15.206   8.579 -0.01 +0.01    +0.026 C 
DOCKED: ATOM     17  C   UNL d   1      44.947  17.569   6.681 -0.12 +0.06    +0.109 A 
DOCKED: ATOM     18  C   UNL d   1      40.413  18.986  10.916 -0.19 +0.00    +0.050 C 
DOCKED: ATOM     19  C   UNL d   1      39.700  18.707   9.722 -0.18 +0.00    +0.045 A 
DOCKED: ATOM     20  C   UNL d   1      43.172  18.290   5.172 -0.13 +0.02    +0.045 A 
DOCKED: ATOM     21  C   UNL d   1      44.449  17.934   5.346 -0.11 +0.04    +0.057 C 
DOCKED: ATOM     22  C   UNL d   1      41.261  18.993   4.136 -0.10 -0.00    -0.019 A 
DOCKED: ATOM     23  C   UNL d   1      40.966  18.746   5.562 -0.13 +0.01    +0.045 A 
DOCKED: ATOM     24  C   UNL d   1      42.568  18.720   3.911 -0.12 -0.01    -0.022 A 
DOCKED: ATOM     25  C   UNL d   1      39.410  18.637   7.479 -0.19 -0.00    +0.049 A 
DOCKED: ATOM     26  C   UNL d   1      38.389  18.317   9.496 -0.25 -0.00    -0.018 A 
DOCKED: ATOM     27  C   UNL d   1      38.217  18.255   8.078 -0.18 -0.00    +0.003 A 
DOCKED: ATOM     28  C   UNL d   1      39.758  18.897   6.126 -0.18 -0.00    +0.052 C 
DOCKED: ATOM     29  C   UNL d   1      43.333  18.806   2.634 -0.10 +0.02    +0.046 C 
DOCKED: ATOM     30  C   UNL d   1      37.358  18.018  10.531 -0.14 +0.00    +0.046 C 
DOCKED: ATOM     31  H   UNL d   1      42.297  18.004   7.044 +0.04 +0.04    +0.166 HD
DOCKED: ATOM     32  H   UNL d   1      41.267  19.170   8.382 +0.04 +0.01    +0.166 HD
DOCKED: ENDROOT
DOCKED: BRANCH   7  33
DOCKED: ATOM     33  C   UNL d   1      41.820  18.220  13.626 -0.28 +0.02    +0.141 C 
DOCKED: BRANCH  33  34
DOCKED: ATOM     34  C   UNL d   1      41.507  16.799  13.242 -0.11 +0.03    +0.306 C 
DOCKED: ATOM     35  O   UNL d   1      42.116  16.121  12.432 -0.04 -0.03    -0.251 OA
DOCKED: BRANCH  34  36
DOCKED: ATOM     36  O   UNL d   1      40.443  16.307  13.902 -0.02 +0.01    -0.481 OA
DOCKED: ATOM     37  H   UNL d   1      40.168  17.032  14.502 -0.40 -0.07    +0.295 HD
DOCKED: ENDBRANCH  34  36
DOCKED: ENDBRANCH  33  34
DOCKED: ENDBRANCH   7  33
DOCKED: BRANCH  27  38
DOCKED: ATOM     38  C   UNL d   1      37.000  17.906   7.409 -0.13 -0.00    +0.017 C 
DOCKED: ATOM     39  C   UNL d   1      36.440  18.601   6.408 -0.13 -0.03    +0.092 C 
DOCKED: BRANCH  39  40
DOCKED: ATOM     40  C   UNL d   1      35.197  18.125   5.794 -0.02 -0.11    +0.330 C 
DOCKED: ATOM     41  O   UNL d   1      34.597  17.095   6.035 -0.01 +0.04    -0.246 OA
DOCKED: BRANCH  40  42
DOCKED: ATOM     42  O   UNL d   1      34.761  19.011   4.886 -0.03 +0.37    -0.477 OA
DOCKED: ATOM     43  H   UNL d   1      35.431  19.726   4.915 -0.47 -0.42    +0.295 HD
DOCKED: ENDBRANCH  40  42
DOCKED: ENDBRANCH  39  40
DOCKED: ENDBRANCH  27  38
DOCKED: BRANCH   8  44
DOCKED: ATOM     44  C   UNL d   1      47.821  17.417   8.736 -0.08 +0.06    +0.141 C 
DOCKED: BRANCH  44  45
DOCKED: ATOM     45  C   UNL d   1      48.169  18.603   7.878 -0.05 +0.21    +0.306 C 
DOCKED: ATOM     46  O   UNL d   1      47.722  19.732   7.982 -0.55 -0.22    -0.251 OA
DOCKED: BRANCH  45  47
DOCKED: ATOM     47  O   UNL d   1      49.050  18.296   6.909 -0.03 -0.35    -0.481 OA
DOCKED: ATOM     48  H   UNL d   1      48.838  17.370   6.665 +0.04 +0.18    +0.295 HD
DOCKED: ENDBRANCH  45  47
DOCKED: ENDBRANCH  44  45
DOCKED: ENDBRANCH   8  44
DOCKED: BRANCH  22  49
DOCKED: ATOM     49  C   UNL d   1      40.252  19.483   3.140 -0.07 +0.00    +0.048 C 
DOCKED: BRANCH  49  50
DOCKED: ATOM     50  C   UNL d   1      40.475  20.951   2.778 -0.10 +0.01    +0.125 C 
DOCKED: BRANCH  50  51
DOCKED: ATOM     51  C   UNL d   1      40.970  21.727   3.966 -0.21 +0.03    +0.305 C 
DOCKED: ATOM     52  O   UNL d   1      42.110  22.092   4.193 -0.32 -0.09    -0.251 OA
DOCKED: BRANCH  51  53
DOCKED: ATOM     53  O   UNL d   1      39.978  22.001   4.837 -0.20 +0.08    -0.481 OA
DOCKED: ATOM     54  H   UNL d   1      40.251  21.542   5.660 -0.21 -0.08    +0.295 HD
DOCKED: ENDBRANCH  51  53
DOCKED: ENDBRANCH  50  51
DOCKED: ENDBRANCH  49  50
DOCKED: ENDBRANCH  22  49
DOCKED: TORSDOF 13
DOCKED: TER
DOCKED: ENDMDL
________________________________________________________________________________


	BEGINNING GENETIC ALGORITHM DOCKING 24 of 100
Run: 24 Seed: 932108724 739241795 [ Run 24 of 100 GA/GALS ]
Beginning LAMARCKIAN GENETIC ALGORITHM (LGA), with a maximum of 25000000 energy evaluations.

Final-Value: -11.333


	FINAL GENETIC ALGORITHM DOCKED STATE
	_______________________________________________


Detailed state:  trans 8.404 36.813 -12.426 quatxyzw -0.264547 0.226701 -0.503707 0.790507 center 0.153 0.018 -0.028 ntor 13 -180.0000 164.9478 -117.8746 -40.2943 -152.8071 68.3246 126.0087 -97.6458 11.8392 -36.3773 -95.9341 -60.7816 -15.5132
State:	  8.404  36.813 -12.426  -0.432  0.370 -0.822 75.534   -180.00  164.95 -117.87  -40.29 -152.81   68.32  126.01  -97.65   11.84  -36.38  -95.93  -60.78  -15.51

DOCKED: MODEL       24
DOCKED: USER    Run = 24
DOCKED: USER    DPF = D:/Protein_go_brrr/autodock/final/2DN3/heme/dock.dpf
DOCKED: USER  
DOCKED: USER    Estimated Free Energy of Binding    =   -2.68 kcal/mol  [=(1)+(2)+(3)-(4)]
DOCKED: USER    Estimated Inhibition Constant, Ki   =   10.80 mM (millimolar)  [Temperature = 298.15 K]
DOCKED: USER    
DOCKED: USER    (1) Final Intermolecular Energy     =   -6.56 kcal/mol
DOCKED: USER        vdW + Hbond + desolv Energy     =   -6.28 kcal/mol
DOCKED: USER        Electrostatic Energy            =   -0.28 kcal/mol
DOCKED: USER    (2) Final Total Internal Energy     =   -4.77 kcal/mol
DOCKED: USER    (3) Torsional Free Energy           =   +3.88 kcal/mol
DOCKED: USER    (4) Unbound System's Energy  [=(2)] =   -4.77 kcal/mol
DOCKED: USER    
DOCKED: USER    
DOCKED: USER    NEWDPF move heme_opt.pdbqt
DOCKED: USER    NEWDPF about 0.153000 0.018000 -0.028000
DOCKED: USER    NEWDPF tran0 8.404149 36.812988 -12.426146
DOCKED: USER    NEWDPF quaternion0 -0.264547 0.226701 -0.503707 0.790507
DOCKED: USER    NEWDPF axisangle0 -0.431946 0.370152 -0.822441 75.534207
DOCKED: USER    NEWDPF quat0 -0.431946 0.370152 -0.822441 75.534207
DOCKED: USER    NEWDPF dihe0 -180.00 164.95 -117.87 -40.29 -152.81 68.32 126.01 -97.65 11.84 -36.38 -95.93 -60.78 -15.51 
DOCKED: USER  keepresnum = 1 
DOCKED: USER  
DOCKED: REMARK  13 active torsions:
DOCKED: REMARK  status: ('A' for Active; 'I' for Inactive)
DOCKED: REMARK    1  A    between atoms: O_3  and  C_38 
DOCKED: REMARK    2  A    between atoms: O_4  and  C_40 
DOCKED: REMARK    3  A    between atoms: O_7  and  C_46 
DOCKED: REMARK    4  A    between atoms: O_9  and  C_48 
DOCKED: REMARK    5  A    between atoms: C_15  and  C_20 
DOCKED: REMARK    6  A    between atoms: C_16  and  C_23 
DOCKED: REMARK    7  A    between atoms: C_20  and  C_38 
DOCKED: REMARK    8  A    between atoms: C_23  and  C_40 
DOCKED: REMARK    9  A    between atoms: C_32  and  C_41 
DOCKED: REMARK   10  A    between atoms: C_37  and  C_45 
DOCKED: REMARK   11  A    between atoms: C_41  and  C_44 
DOCKED: REMARK   12  A    between atoms: C_44  and  C_46 
DOCKED: REMARK   13  A    between atoms: C_47  and  C_48 
DOCKED: USER                              x       y       z     vdW  Elec       q    Type
DOCKED: USER                           _______ _______ _______ _____ _____    ______ ____
DOCKED: ROOT
DOCKED: ATOM      1  O   UNL d   1       4.610  33.194 -15.121 -0.24 -0.27    -0.289 OA
DOCKED: ATOM      2  O   UNL d   1      11.954  34.328 -16.202 -0.10 -0.01    -0.289 OA
DOCKED: ATOM      3  N   UNL d   1       6.414  35.552 -13.366 -0.07 -0.07    -0.247 NA
DOCKED: ATOM      4  N   UNL d   1       9.212  35.061 -14.240 -0.11 -0.02    -0.247 NA
DOCKED: ATOM      5  N   UNL d   1      10.086  36.710 -12.054 -0.09 +0.02    -0.354 N 
DOCKED: ATOM      6  N   UNL d   1       7.183  37.198 -11.142 -0.05 -0.02    -0.354 N 
DOCKED: ATOM      7  C   UNL d   1       4.122  34.692 -13.252 -0.08 +0.04    +0.084 A 
DOCKED: ATOM      8  C   UNL d   1       9.534  34.052 -16.442 -0.06 +0.01    +0.084 A 
DOCKED: ATOM      9  C   UNL d   1       8.582  34.501 -15.329 -0.11 +0.01    +0.058 A 
DOCKED: ATOM     10  C   UNL d   1       5.200  35.633 -12.706 -0.09 +0.02    +0.058 A 
DOCKED: ATOM     11  C   UNL d   1       4.937  34.077 -14.350 -0.01 +0.12    +0.193 A 
DOCKED: ATOM     12  C   UNL d   1       6.299  34.700 -14.332 -0.03 +0.05    +0.109 A 
DOCKED: ATOM     13  C   UNL d   1      10.823  34.428 -15.768 -0.08 +0.01    +0.193 A 
DOCKED: ATOM     14  C   UNL d   1       3.747  33.602 -12.245 -0.11 +0.02    +0.026 C 
DOCKED: ATOM     15  C   UNL d   1       7.254  34.314 -15.390 -0.10 +0.02    +0.055 C 
DOCKED: ATOM     16  C   UNL d   1       9.372  34.904 -17.705 -0.02 +0.00    +0.026 C 
DOCKED: ATOM     17  C   UNL d   1      10.490  35.022 -14.438 -0.16 -0.00    +0.109 A 
DOCKED: ATOM     18  C   UNL d   1       4.931  36.516 -11.726 -0.08 +0.01    +0.050 C 
DOCKED: ATOM     19  C   UNL d   1       5.837  37.481 -11.217 -0.06 +0.00    +0.045 A 
DOCKED: ATOM     20  C   UNL d   1      11.291  36.194 -12.456 -0.25 -0.00    +0.045 A 
DOCKED: ATOM     21  C   UNL d   1      11.565  35.446 -13.529 -0.25 -0.00    +0.057 C 
DOCKED: ATOM     22  C   UNL d   1      11.602  37.374 -10.525 -0.28 +0.00    -0.019 A 
DOCKED: ATOM     23  C   UNL d   1      10.174  37.437 -10.896 -0.16 -0.00    +0.045 A 
DOCKED: ATOM     24  C   UNL d   1      12.258  36.638 -11.453 -0.31 +0.00    -0.022 A 
DOCKED: ATOM     25  C   UNL d   1       7.860  38.231 -10.537 -0.09 -0.00    +0.049 A 
DOCKED: ATOM     26  C   UNL d   1       5.641  38.744 -10.681 -0.03 -0.00    -0.018 A 
DOCKED: ATOM     27  C   UNL d   1       6.925  39.221 -10.271 -0.04 -0.00    +0.003 A 
DOCKED: ATOM     28  C   UNL d   1       9.237  38.105 -10.205 -0.03 -0.00    +0.052 C 
DOCKED: ATOM     29  C   UNL d   1      13.708  36.301 -11.521 -0.29 -0.00    +0.046 C 
DOCKED: ATOM     30  C   UNL d   1       4.343  39.467 -10.558 -0.01 +0.00    +0.046 C 
DOCKED: ATOM     31  H   UNL d   1       9.254  36.610 -12.624 +0.04 -0.00    +0.166 HD
DOCKED: ATOM     32  H   UNL d   1       7.590  36.326 -11.457 +0.04 +0.02    +0.166 HD
DOCKED: ENDROOT
DOCKED: BRANCH   7  33
DOCKED: ATOM     33  C   UNL d   1       2.879  35.379 -13.826 -0.02 +0.04    +0.141 C 
DOCKED: BRANCH  33  34
DOCKED: ATOM     34  C   UNL d   1       3.203  36.303 -14.968 -0.00 +0.05    +0.306 C 
DOCKED: ATOM     35  O   UNL d   1       3.333  37.514 -14.902 -0.00 -0.03    -0.251 OA
DOCKED: BRANCH  34  36
DOCKED: ATOM     36  O   UNL d   1       3.350  35.652 -16.136 +0.01 -0.09    -0.481 OA
DOCKED: ATOM     37  H   UNL d   1       3.240  34.705 -15.906 +0.02 +0.08    +0.295 HD
DOCKED: ENDBRANCH  34  36
DOCKED: ENDBRANCH  33  34
DOCKED: ENDBRANCH   7  33
DOCKED: BRANCH  27  38
DOCKED: ATOM     38  C   UNL d   1       7.175  40.486  -9.649 -0.04 -0.00    +0.017 C 
DOCKED: ATOM     39  C   UNL d   1       8.226  40.769  -8.865 -0.11 -0.02    +0.092 C 
DOCKED: BRANCH  39  40
DOCKED: ATOM     40  C   UNL d   1       8.376  42.114  -8.302 -0.14 -0.12    +0.330 C 
DOCKED: ATOM     41  O   UNL d   1       7.662  42.660  -7.482 -0.16 +0.03    -0.246 OA
DOCKED: BRANCH  40  42
DOCKED: ATOM     42  O   UNL d   1       9.462  42.712  -8.816 -0.15 +0.43    -0.477 OA
DOCKED: ATOM     43  H   UNL d   1       9.962  41.977  -9.226 -0.02 -0.33    +0.295 HD
DOCKED: ENDBRANCH  40  42
DOCKED: ENDBRANCH  39  40
DOCKED: ENDBRANCH  27  38
DOCKED: BRANCH   8  44
DOCKED: ATOM     44  C   UNL d   1       9.504  32.557 -16.775 -0.08 +0.02    +0.141 C 
DOCKED: BRANCH  44  45
DOCKED: ATOM     45  C   UNL d   1      10.413  31.735 -15.900 -0.05 +0.05    +0.306 C 
DOCKED: ATOM     46  O   UNL d   1      10.168  31.327 -14.778 -0.54 -0.02    -0.251 OA
DOCKED: BRANCH  45  47
DOCKED: ATOM     47  O   UNL d   1      11.603  31.493 -16.479 -0.44 -0.06    -0.481 OA
DOCKED: ATOM     48  H   UNL d   1      11.997  32.381 -16.617 +0.05 +0.03    +0.295 HD
DOCKED: ENDBRANCH  45  47
DOCKED: ENDBRANCH  44  45
DOCKED: ENDBRANCH   8  44
DOCKED: BRANCH  22  49
DOCKED: ATOM     49  C   UNL d   1      12.183  38.020  -9.302 -0.34 -0.01    +0.048 C 
DOCKED: BRANCH  49  50
DOCKED: ATOM     50  C   UNL d   1      12.847  39.358  -9.626 -0.34 -0.04    +0.125 C 
DOCKED: BRANCH  50  51
DOCKED: ATOM     51  C   UNL d   1      11.838  40.471  -9.631 -0.17 -0.26    +0.305 C 
DOCKED: ATOM     52  O   UNL d   1      11.351  41.028 -10.599 -0.15 +0.23    -0.251 OA
DOCKED: BRANCH  51  53
DOCKED: ATOM     53  O   UNL d   1      11.493  40.844  -8.383 +0.07 +0.60    -0.481 OA
DOCKED: ATOM     54  H   UNL d   1      11.444  41.821  -8.431 -0.34 -0.82    +0.295 HD
DOCKED: ENDBRANCH  51  53
DOCKED: ENDBRANCH  50  51
DOCKED: ENDBRANCH  49  50
DOCKED: ENDBRANCH  22  49
DOCKED: TORSDOF 13
DOCKED: TER
DOCKED: ENDMDL
________________________________________________________________________________


	BEGINNING GENETIC ALGORITHM DOCKING 25 of 100
Run: 25 Seed: 1332838164 636001653 [ Run 25 of 100 GA/GALS ]
Beginning LAMARCKIAN GENETIC ALGORITHM (LGA), with a maximum of 25000000 energy evaluations.

Final-Value: -10.724


	FINAL GENETIC ALGORITHM DOCKED STATE
	_______________________________________________


Detailed state:  trans 39.043 14.043 22.418 quatxyzw -0.510265 0.126041 -0.018500 0.850530 center 0.153 0.018 -0.028 ntor 13 93.7432 164.0280 -69.9431 -46.1059 -175.9479 38.6681 156.5877 -79.7327 105.1403 -92.8897 -104.8382 -27.3853 -12.5793
State:	 39.043  14.043  22.418  -0.970  0.240 -0.035 63.461     93.74  164.03  -69.94  -46.11 -175.95   38.67  156.59  -79.73  105.14  -92.89 -104.84  -27.39  -12.58

DOCKED: MODEL       25
DOCKED: USER    Run = 25
DOCKED: USER    DPF = D:/Protein_go_brrr/autodock/final/2DN3/heme/dock.dpf
DOCKED: USER  
DOCKED: USER    Estimated Free Energy of Binding    =   -2.51 kcal/mol  [=(1)+(2)+(3)-(4)]
DOCKED: USER    Estimated Inhibition Constant, Ki   =   14.35 mM (millimolar)  [Temperature = 298.15 K]
DOCKED: USER    
DOCKED: USER    (1) Final Intermolecular Energy     =   -6.39 kcal/mol
DOCKED: USER        vdW + Hbond + desolv Energy     =   -6.29 kcal/mol
DOCKED: USER        Electrostatic Energy            =   -0.10 kcal/mol
DOCKED: USER    (2) Final Total Internal Energy     =   -4.33 kcal/mol
DOCKED: USER    (3) Torsional Free Energy           =   +3.88 kcal/mol
DOCKED: USER    (4) Unbound System's Energy  [=(2)] =   -4.33 kcal/mol
DOCKED: USER    
DOCKED: USER    
DOCKED: USER    NEWDPF move heme_opt.pdbqt
DOCKED: USER    NEWDPF about 0.153000 0.018000 -0.028000
DOCKED: USER    NEWDPF tran0 39.042988 14.043327 22.418321
DOCKED: USER    NEWDPF quaternion0 -0.510265 0.126041 -0.018500 0.850530
DOCKED: USER    NEWDPF axisangle0 -0.970221 0.239655 -0.035175 63.461291
DOCKED: USER    NEWDPF quat0 -0.970221 0.239655 -0.035175 63.461291
DOCKED: USER    NEWDPF dihe0 93.74 164.03 -69.94 -46.11 -175.95 38.67 156.59 -79.73 105.14 -92.89 -104.84 -27.39 -12.58 
DOCKED: USER  keepresnum = 1 
DOCKED: USER  
DOCKED: REMARK  13 active torsions:
DOCKED: REMARK  status: ('A' for Active; 'I' for Inactive)
DOCKED: REMARK    1  A    between atoms: O_3  and  C_38 
DOCKED: REMARK    2  A    between atoms: O_4  and  C_40 
DOCKED: REMARK    3  A    between atoms: O_7  and  C_46 
DOCKED: REMARK    4  A    between atoms: O_9  and  C_48 
DOCKED: REMARK    5  A    between atoms: C_15  and  C_20 
DOCKED: REMARK    6  A    between atoms: C_16  and  C_23 
DOCKED: REMARK    7  A    between atoms: C_20  and  C_38 
DOCKED: REMARK    8  A    between atoms: C_23  and  C_40 
DOCKED: REMARK    9  A    between atoms: C_32  and  C_41 
DOCKED: REMARK   10  A    between atoms: C_37  and  C_45 
DOCKED: REMARK   11  A    between atoms: C_41  and  C_44 
DOCKED: REMARK   12  A    between atoms: C_44  and  C_46 
DOCKED: REMARK   13  A    between atoms: C_47  and  C_48 
DOCKED: USER                              x       y       z     vdW  Elec       q    Type
DOCKED: USER                           _______ _______ _______ _____ _____    ______ ____
DOCKED: ROOT
DOCKED: ATOM      1  O   UNL d   1      33.217  14.831  22.858 -0.03 -0.03    -0.289 OA
DOCKED: ATOM      2  O   UNL d   1      37.557  13.360  16.908 -0.11 -0.04    -0.289 OA
DOCKED: ATOM      3  N   UNL d   1      36.651  14.582  23.066 -0.13 +0.05    -0.247 NA
DOCKED: ATOM      4  N   UNL d   1      37.438  13.698  20.340 -0.10 -0.01    -0.247 NA
DOCKED: ATOM      5  N   UNL d   1      40.039  13.073  21.395 -0.03 +0.02    -0.354 N 
DOCKED: ATOM      6  N   UNL d   1      39.207  13.974  24.223 -0.03 +0.10    -0.354 N 
DOCKED: ATOM      7  C   UNL d   1      34.834  14.845  24.690 -0.14 -0.02    +0.084 A 
DOCKED: ATOM      8  C   UNL d   1      35.943  14.287  18.499 -0.20 +0.01    +0.084 A 
DOCKED: ATOM      9  C   UNL d   1      36.227  14.261  20.005 -0.18 +0.00    +0.058 A 
DOCKED: ATOM     10  C   UNL d   1      36.333  14.702  24.408 -0.18 -0.01    +0.058 A 
DOCKED: ATOM     11  C   UNL d   1      34.363  14.805  23.268 -0.06 -0.01    +0.193 A 
DOCKED: ATOM     12  C   UNL d   1      35.559  14.669  22.378 -0.13 -0.01    +0.109 A 
DOCKED: ATOM     13  C   UNL d   1      37.201  13.601  18.045 -0.13 +0.03    +0.193 A 
DOCKED: ATOM     14  C   UNL d   1      34.271  13.631  25.434 -0.06 -0.01    +0.026 C 
DOCKED: ATOM     15  C   UNL d   1      35.346  14.701  20.917 -0.19 +0.00    +0.055 C 
DOCKED: ATOM     16  C   UNL d   1      35.935  15.715  17.947 -0.35 +0.00    +0.026 C 
DOCKED: ATOM     17  C   UNL d   1      38.018  13.290  19.258 -0.04 +0.01    +0.109 A 
DOCKED: ATOM     18  C   UNL d   1      37.245  14.780  25.396 -0.23 -0.01    +0.050 C 
DOCKED: ATOM     19  C   UNL d   1      38.651  14.743  25.221 -0.22 -0.01    +0.045 A 
DOCKED: ATOM     20  C   UNL d   1      40.146  12.506  20.152 -0.05 +0.00    +0.045 A 
DOCKED: ATOM     21  C   UNL d   1      39.295  12.574  19.123 -0.02 +0.01    +0.057 C 
DOCKED: ATOM     22  C   UNL d   1      41.992  11.952  21.378 -0.09 -0.00    -0.019 A 
DOCKED: ATOM     23  C   UNL d   1      41.106  12.794  22.207 -0.12 -0.00    +0.045 A 
DOCKED: ATOM     24  C   UNL d   1      41.419  11.786  20.163 -0.10 -0.00    -0.022 A 
DOCKED: ATOM     25  C   UNL d   1      40.581  14.013  24.292 -0.06 -0.01    +0.049 A 
DOCKED: ATOM     26  C   UNL d   1      39.689  15.326  25.932 -0.27 +0.00    -0.018 A 
DOCKED: ATOM     27  C   UNL d   1      40.904  14.877  25.329 -0.22 -0.00    +0.003 A 
DOCKED: ATOM     28  C   UNL d   1      41.376  13.175  23.465 -0.15 -0.00    +0.052 C 
DOCKED: ATOM     29  C   UNL d   1      41.932  11.029  18.985 -0.05 +0.00    +0.046 C 
DOCKED: ATOM     30  C   UNL d   1      39.562  16.245  27.099 -0.32 -0.01    +0.046 C 
DOCKED: ATOM     31  H   UNL d   1      39.272  13.696  21.625 -0.33 -0.04    +0.166 HD
DOCKED: ATOM     32  H   UNL d   1      38.662  13.429  23.566 -0.07 -0.04    +0.166 HD
DOCKED: ENDROOT
DOCKED: BRANCH   7  33
DOCKED: ATOM     33  C   UNL d   1      34.414  16.159  25.359 -0.19 -0.08    +0.141 C 
DOCKED: BRANCH  33  34
DOCKED: ATOM     34  C   UNL d   1      32.996  16.545  25.036 -0.19 -0.09    +0.306 C 
DOCKED: ATOM     35  O   UNL d   1      32.635  17.581  24.505 -0.76 -0.01    -0.251 OA
DOCKED: BRANCH  34  36
DOCKED: ATOM     36  O   UNL d   1      32.107  15.603  25.399 -0.04 +0.12    -0.481 OA
DOCKED: ATOM     37  H   UNL d   1      32.042  15.012  24.619 +0.07 -0.01    +0.295 HD
DOCKED: ENDBRANCH  34  36
DOCKED: ENDBRANCH  33  34
DOCKED: ENDBRANCH   7  33
DOCKED: BRANCH  27  38
DOCKED: ATOM     38  C   UNL d   1      42.222  15.230  25.766 -0.21 -0.00    +0.017 C 
DOCKED: ATOM     39  C   UNL d   1      43.356  14.957  25.103 -0.15 +0.01    +0.092 C 
DOCKED: BRANCH  39  40
DOCKED: ATOM     40  C   UNL d   1      44.644  15.390  25.652 -0.05 +0.03    +0.330 C 
DOCKED: ATOM     41  O   UNL d   1      44.981  15.425  26.820 -0.02 -0.02    -0.246 OA
DOCKED: BRANCH  40  42
DOCKED: ATOM     42  O   UNL d   1      45.468  15.760  24.659 -0.03 -0.06    -0.477 OA
DOCKED: ATOM     43  H   UNL d   1      45.052  15.383  23.857 +0.06 +0.04    +0.295 HD
DOCKED: ENDBRANCH  40  42
DOCKED: ENDBRANCH  39  40
DOCKED: ENDBRANCH  27  38
DOCKED: BRANCH   8  44
DOCKED: ATOM     44  C   UNL d   1      34.702  13.510  18.047 -0.10 +0.03    +0.141 C 
DOCKED: BRANCH  44  45
DOCKED: ATOM     45  C   UNL d   1      34.889  12.804  16.731 -0.05 +0.05    +0.306 C 
DOCKED: ATOM     46  O   UNL d   1      34.930  11.599  16.551 -0.02 -0.03    -0.251 OA
DOCKED: BRANCH  45  47
DOCKED: ATOM     47  O   UNL d   1      35.044  13.661  15.705 -0.05 -0.11    -0.481 OA
DOCKED: ATOM     48  H   UNL d   1      35.987  13.572  15.448 +0.07 +0.06    +0.295 HD
DOCKED: ENDBRANCH  45  47
DOCKED: ENDBRANCH  44  45
DOCKED: ENDBRANCH   8  44
DOCKED: BRANCH  22  49
DOCKED: ATOM     49  C   UNL d   1      43.297  11.381  21.852 -0.04 +0.00    +0.048 C 
DOCKED: BRANCH  49  50
DOCKED: ATOM     50  C   UNL d   1      44.482  12.254  21.441 -0.04 +0.01    +0.125 C 
DOCKED: BRANCH  50  51
DOCKED: ATOM     51  C   UNL d   1      44.571  13.479  22.307 -0.05 +0.03    +0.305 C 
DOCKED: ATOM     52  O   UNL d   1      43.995  14.542  22.152 -0.15 -0.04    -0.251 OA
DOCKED: BRANCH  51  53
DOCKED: ATOM     53  O   UNL d   1      45.413  13.304  23.345 +0.01 -0.05    -0.481 OA
DOCKED: ATOM     54  H   UNL d   1      45.962  14.116  23.346 +0.03 +0.04    +0.295 HD
DOCKED: ENDBRANCH  51  53
DOCKED: ENDBRANCH  50  51
DOCKED: ENDBRANCH  49  50
DOCKED: ENDBRANCH  22  49
DOCKED: TORSDOF 13
DOCKED: TER
DOCKED: ENDMDL
________________________________________________________________________________


	BEGINNING GENETIC ALGORITHM DOCKING 26 of 100
Run: 26 Seed: 905019510 1760381254 [ Run 26 of 100 GA/GALS ]
Beginning LAMARCKIAN GENETIC ALGORITHM (LGA), with a maximum of 25000000 energy evaluations.

Final-Value: -12.235


	FINAL GENETIC ALGORITHM DOCKED STATE
	_______________________________________________


Detailed state:  trans 11.666 39.898 24.821 quatxyzw 0.220381 0.356652 0.559366 0.715082 center 0.153 0.018 -0.028 ntor 13 -150.8657 -154.4791 -118.7909 -14.8923 55.8210 60.0354 123.6139 21.8523 154.9118 -20.7509 67.8996 -111.8213 115.5692
State:	 11.666  39.898  24.821   0.315  0.510  0.800 88.700   -150.87 -154.48 -118.79  -14.89   55.82   60.04  123.61   21.85  154.91  -20.75   67.90 -111.82  115.57

DOCKED: MODEL       26
DOCKED: USER    Run = 26
DOCKED: USER    DPF = D:/Protein_go_brrr/autodock/final/2DN3/heme/dock.dpf
DOCKED: USER  
DOCKED: USER    Estimated Free Energy of Binding    =   -4.13 kcal/mol  [=(1)+(2)+(3)-(4)]
DOCKED: USER    Estimated Inhibition Constant, Ki   =  932.94 uM (micromolar)  [Temperature = 298.15 K]
DOCKED: USER    
DOCKED: USER    (1) Final Intermolecular Energy     =   -8.01 kcal/mol
DOCKED: USER        vdW + Hbond + desolv Energy     =   -8.02 kcal/mol
DOCKED: USER        Electrostatic Energy            =   +0.01 kcal/mol
DOCKED: USER    (2) Final Total Internal Energy     =   -4.22 kcal/mol
DOCKED: USER    (3) Torsional Free Energy           =   +3.88 kcal/mol
DOCKED: USER    (4) Unbound System's Energy  [=(2)] =   -4.22 kcal/mol
DOCKED: USER    
DOCKED: USER    
DOCKED: USER    NEWDPF move heme_opt.pdbqt
DOCKED: USER    NEWDPF about 0.153000 0.018000 -0.028000
DOCKED: USER    NEWDPF tran0 11.666022 39.898246 24.821241
DOCKED: USER    NEWDPF quaternion0 0.220381 0.356652 0.559366 0.715082
DOCKED: USER    NEWDPF axisangle0 0.315262 0.510201 0.800190 88.700214
DOCKED: USER    NEWDPF quat0 0.315262 0.510201 0.800190 88.700214
DOCKED: USER    NEWDPF dihe0 -150.87 -154.48 -118.79 -14.89 55.82 60.04 123.61 21.85 154.91 -20.75 67.90 -111.82 115.57 
DOCKED: USER  keepresnum = 1 
DOCKED: USER  
DOCKED: REMARK  13 active torsions:
DOCKED: REMARK  status: ('A' for Active; 'I' for Inactive)
DOCKED: REMARK    1  A    between atoms: O_3  and  C_38 
DOCKED: REMARK    2  A    between atoms: O_4  and  C_40 
DOCKED: REMARK    3  A    between atoms: O_7  and  C_46 
DOCKED: REMARK    4  A    between atoms: O_9  and  C_48 
DOCKED: REMARK    5  A    between atoms: C_15  and  C_20 
DOCKED: REMARK    6  A    between atoms: C_16  and  C_23 
DOCKED: REMARK    7  A    between atoms: C_20  and  C_38 
DOCKED: REMARK    8  A    between atoms: C_23  and  C_40 
DOCKED: REMARK    9  A    between atoms: C_32  and  C_41 
DOCKED: REMARK   10  A    between atoms: C_37  and  C_45 
DOCKED: REMARK   11  A    between atoms: C_41  and  C_44 
DOCKED: REMARK   12  A    between atoms: C_44  and  C_46 
DOCKED: REMARK   13  A    between atoms: C_47  and  C_48 
DOCKED: USER                              x       y       z     vdW  Elec       q    Type
DOCKED: USER                           _______ _______ _______ _____ _____    ______ ____
DOCKED: ROOT
DOCKED: ATOM      1  O   UNL d   1      12.440  44.436  21.138 -0.10 +0.07    -0.289 OA
DOCKED: ATOM      2  O   UNL d   1       7.125  39.136  21.381 -0.17 +0.09    -0.289 OA
DOCKED: ATOM      3  N   UNL d   1      12.473  41.860  23.431 -0.13 +0.08    -0.247 NA
DOCKED: ATOM      4  N   UNL d   1       9.880  40.490  22.958 -0.12 +0.06    -0.247 NA
DOCKED: ATOM      5  N   UNL d   1      10.271  39.093  25.440 -0.08 +0.10    -0.354 N 
DOCKED: ATOM      6  N   UNL d   1      12.951  40.533  25.933 -0.04 +0.13    -0.354 N 
DOCKED: ATOM      7  C   UNL d   1      13.822  43.876  23.075 -0.17 -0.02    +0.084 A 
DOCKED: ATOM      8  C   UNL d   1       8.900  40.690  20.728 -0.29 -0.02    +0.084 A 
DOCKED: ATOM      9  C   UNL d   1       9.995  41.088  21.723 -0.24 -0.01    +0.058 A 
DOCKED: ATOM     10  C   UNL d   1      13.538  42.614  23.895 -0.20 -0.02    +0.058 A 
DOCKED: ATOM     11  C   UNL d   1      12.740  43.691  22.053 -0.15 -0.04    +0.193 A 
DOCKED: ATOM     12  C   UNL d   1      12.010  42.421  22.362 -0.20 -0.03    +0.109 A 
DOCKED: ATOM     13  C   UNL d   1       8.121  39.784  21.639 -0.23 -0.04    +0.193 A 
DOCKED: ATOM     14  C   UNL d   1      13.540  45.154  23.869 -0.07 -0.00    +0.026 C 
DOCKED: ATOM     15  C   UNL d   1      10.952  41.982  21.430 -0.25 -0.01    +0.055 C 
DOCKED: ATOM     16  C   UNL d   1       9.460  39.860  19.569 -0.27 -0.00    +0.026 C 
DOCKED: ATOM     17  C   UNL d   1       8.815  39.754  22.962 -0.20 -0.02    +0.109 A 
DOCKED: ATOM     18  C   UNL d   1      14.331  42.249  24.920 -0.22 -0.01    +0.050 C 
DOCKED: ATOM     19  C   UNL d   1      14.197  41.060  25.681 -0.17 -0.02    +0.045 A 
DOCKED: ATOM     20  C   UNL d   1       8.973  38.741  25.174 -0.19 -0.01    +0.045 A 
DOCKED: ATOM     21  C   UNL d   1       8.250  38.977  24.075 -0.25 -0.01    +0.057 C 
DOCKED: ATOM     22  C   UNL d   1       9.527  37.992  27.259 -0.15 +0.00    -0.019 A 
DOCKED: ATOM     23  C   UNL d   1      10.694  38.684  26.677 -0.16 -0.01    +0.045 A 
DOCKED: ATOM     24  C   UNL d   1       8.512  38.028  26.364 -0.17 +0.00    -0.022 A 
DOCKED: ATOM     25  C   UNL d   1      13.047  39.438  26.759 -0.20 -0.02    +0.049 A 
DOCKED: ATOM     26  C   UNL d   1      15.130  40.265  26.329 -0.28 +0.01    -0.018 A 
DOCKED: ATOM     27  C   UNL d   1      14.400  39.231  26.992 -0.27 -0.00    +0.003 A 
DOCKED: ATOM     28  C   UNL d   1      11.882  38.818  27.287 -0.18 -0.02    +0.052 C 
DOCKED: ATOM     29  C   UNL d   1       7.140  37.457  26.487 -0.18 -0.00    +0.046 C 
DOCKED: ATOM     30  C   UNL d   1      16.610  40.451  26.332 -0.34 -0.01    +0.046 C 
DOCKED: ATOM     31  H   UNL d   1      10.850  39.538  24.737 +0.04 -0.06    +0.166 HD
DOCKED: ATOM     32  H   UNL d   1      12.090  40.937  25.583 +0.01 -0.05    +0.166 HD
DOCKED: ENDROOT
DOCKED: BRANCH   7  33
DOCKED: ATOM     33  C   UNL d   1      15.196  43.925  22.399 -0.33 -0.03    +0.141 C 
DOCKED: BRANCH  33  34
DOCKED: ATOM     34  C   UNL d   1      15.637  45.329  22.084 -0.18 -0.05    +0.306 C 
DOCKED: ATOM     35  O   UNL d   1      16.539  45.941  22.631 -0.23 +0.03    -0.251 OA
DOCKED: BRANCH  34  36
DOCKED: ATOM     36  O   UNL d   1      14.918  45.888  21.094 -0.03 +0.08    -0.481 OA
DOCKED: ATOM     37  H   UNL d   1      14.052  45.430  21.129 +0.10 -0.06    +0.295 HD
DOCKED: ENDBRANCH  34  36
DOCKED: ENDBRANCH  33  34
DOCKED: ENDBRANCH   7  33
DOCKED: BRANCH  27  38
DOCKED: ATOM     38  C   UNL d   1      14.979  38.197  27.796 -0.23 -0.01    +0.017 C 
DOCKED: ATOM     39  C   UNL d   1      14.945  38.147  29.136 -0.19 -0.02    +0.092 C 
DOCKED: BRANCH  39  40
DOCKED: ATOM     40  C   UNL d   1      15.562  37.021  29.841 -0.17 -0.03    +0.330 C 
DOCKED: ATOM     41  O   UNL d   1      16.721  36.654  29.785 -0.29 -0.02    -0.246 OA
DOCKED: BRANCH  40  42
DOCKED: ATOM     42  O   UNL d   1      14.654  36.404  30.611 -0.04 +0.06    -0.477 OA
DOCKED: ATOM     43  H   UNL d   1      13.800  36.607  30.176 +0.08 -0.08    +0.295 HD
DOCKED: ENDBRANCH  40  42
DOCKED: ENDBRANCH  39  40
DOCKED: ENDBRANCH  27  38
DOCKED: BRANCH   8  44
DOCKED: ATOM     44  C   UNL d   1       8.025  41.838  20.215 -0.25 -0.07    +0.141 C 
DOCKED: BRANCH  44  45
DOCKED: ATOM     45  C   UNL d   1       7.098  42.393  21.264 -0.10 -0.13    +0.306 C 
DOCKED: ATOM     46  O   UNL d   1       7.390  43.175  22.151 -0.04 +0.09    -0.251 OA
DOCKED: BRANCH  45  47
DOCKED: ATOM     47  O   UNL d   1       5.848  41.906  21.155 -0.34 +0.11    -0.481 OA
DOCKED: ATOM     48  H   UNL d   1       5.948  40.937  21.270 +0.11 -0.05    +0.295 HD
DOCKED: ENDBRANCH  45  47
DOCKED: ENDBRANCH  44  45
DOCKED: ENDBRANCH   8  44
DOCKED: BRANCH  22  49
DOCKED: ATOM     49  C   UNL d   1       9.509  37.379  28.629 -0.12 -0.01    +0.048 C 
DOCKED: BRANCH  49  50
DOCKED: ATOM     50  C   UNL d   1      10.397  38.146  29.608 -0.04 -0.02    +0.125 C 
DOCKED: BRANCH  50  51
DOCKED: ATOM     51  C   UNL d   1      11.598  37.330  29.995 -0.04 -0.09    +0.305 C 
DOCKED: ATOM     52  O   UNL d   1      12.030  36.335  29.441 -0.10 +0.17    -0.251 OA
DOCKED: BRANCH  51  53
DOCKED: ATOM     53  O   UNL d   1      12.203  37.816  31.098 +0.01 +0.07    -0.481 OA
DOCKED: ATOM     54  H   UNL d   1      12.788  37.086  31.389 +0.04 -0.04    +0.295 HD
DOCKED: ENDBRANCH  51  53
DOCKED: ENDBRANCH  50  51
DOCKED: ENDBRANCH  49  50
DOCKED: ENDBRANCH  22  49
DOCKED: TORSDOF 13
DOCKED: TER
DOCKED: ENDMDL
________________________________________________________________________________


	BEGINNING GENETIC ALGORITHM DOCKING 27 of 100
Run: 27 Seed: 562608172 1438727399 [ Run 27 of 100 GA/GALS ]
Beginning LAMARCKIAN GENETIC ALGORITHM (LGA), with a maximum of 25000000 energy evaluations.

Final-Value: -9.906


	FINAL GENETIC ALGORITHM DOCKED STATE
	_______________________________________________


Detailed state:  trans 37.766 29.108 -0.568 quatxyzw -0.035481 0.129942 -0.973201 0.186374 center 0.153 0.018 -0.028 ntor 13 -96.7234 -61.3702 174.6619 0.2176 30.7739 151.9118 -54.4157 127.0016 125.8819 -151.8279 95.2251 -74.0680 -151.4747
State:	 37.766  29.108  -0.568  -0.036  0.132 -0.991 158.518    -96.72  -61.37  174.66    0.22   30.77  151.91  -54.42  127.00  125.88 -151.83   95.23  -74.07 -151.47

DOCKED: MODEL       27
DOCKED: USER    Run = 27
DOCKED: USER    DPF = D:/Protein_go_brrr/autodock/final/2DN3/heme/dock.dpf
DOCKED: USER  
DOCKED: USER    Estimated Free Energy of Binding    =   -3.77 kcal/mol  [=(1)+(2)+(3)-(4)]
DOCKED: USER    Estimated Inhibition Constant, Ki   =    1.72 mM (millimolar)  [Temperature = 298.15 K]
DOCKED: USER    
DOCKED: USER    (1) Final Intermolecular Energy     =   -7.65 kcal/mol
DOCKED: USER        vdW + Hbond + desolv Energy     =   -7.39 kcal/mol
DOCKED: USER        Electrostatic Energy            =   -0.26 kcal/mol
DOCKED: USER    (2) Final Total Internal Energy     =   -2.26 kcal/mol
DOCKED: USER    (3) Torsional Free Energy           =   +3.88 kcal/mol
DOCKED: USER    (4) Unbound System's Energy  [=(2)] =   -2.26 kcal/mol
DOCKED: USER    
DOCKED: USER    
DOCKED: USER    NEWDPF move heme_opt.pdbqt
DOCKED: USER    NEWDPF about 0.153000 0.018000 -0.028000
DOCKED: USER    NEWDPF tran0 37.766354 29.108041 -0.567666
DOCKED: USER    NEWDPF quaternion0 -0.035481 0.129942 -0.973201 0.186374
DOCKED: USER    NEWDPF axisangle0 -0.036114 0.132259 -0.990557 158.517514
DOCKED: USER    NEWDPF quat0 -0.036114 0.132259 -0.990557 158.517514
DOCKED: USER    NEWDPF dihe0 -96.72 -61.37 174.66 0.22 30.77 151.91 -54.42 127.00 125.88 -151.83 95.23 -74.07 -151.47 
DOCKED: USER  keepresnum = 1 
DOCKED: USER  
DOCKED: REMARK  13 active torsions:
DOCKED: REMARK  status: ('A' for Active; 'I' for Inactive)
DOCKED: REMARK    1  A    between atoms: O_3  and  C_38 
DOCKED: REMARK    2  A    between atoms: O_4  and  C_40 
DOCKED: REMARK    3  A    between atoms: O_7  and  C_46 
DOCKED: REMARK    4  A    between atoms: O_9  and  C_48 
DOCKED: REMARK    5  A    between atoms: C_15  and  C_20 
DOCKED: REMARK    6  A    between atoms: C_16  and  C_23 
DOCKED: REMARK    7  A    between atoms: C_20  and  C_38 
DOCKED: REMARK    8  A    between atoms: C_23  and  C_40 
DOCKED: REMARK    9  A    between atoms: C_32  and  C_41 
DOCKED: REMARK   10  A    between atoms: C_37  and  C_45 
DOCKED: REMARK   11  A    between atoms: C_41  and  C_44 
DOCKED: REMARK   12  A    between atoms: C_44  and  C_46 
DOCKED: REMARK   13  A    between atoms: C_47  and  C_48 
DOCKED: USER                              x       y       z     vdW  Elec       q    Type
DOCKED: USER                           _______ _______ _______ _____ _____    ______ ____
DOCKED: ROOT
DOCKED: ATOM      1  O   UNL d   1      42.359  25.437  -1.007 -0.15 -0.06    -0.289 OA
DOCKED: ATOM      2  O   UNL d   1      42.002  32.935  -1.240 -0.14 -0.02    -0.289 OA
DOCKED: ATOM      3  N   UNL d   1      39.382  27.172  -0.839 -0.13 -0.02    -0.247 NA
DOCKED: ATOM      4  N   UNL d   1      40.253  30.010  -0.699 -0.15 -0.01    -0.247 NA
DOCKED: ATOM      5  N   UNL d   1      37.571  30.697   0.077 -0.07 -0.04    -0.354 N 
DOCKED: ATOM      6  N   UNL d   1      36.681  27.749  -0.052 +0.03 -0.04    -0.354 N 
DOCKED: ATOM      7  C   UNL d   1      40.026  24.818  -0.618 -0.15 +0.01    +0.084 A 
DOCKED: ATOM      8  C   UNL d   1      42.423  30.563  -1.677 -0.21 +0.00    +0.084 A 
DOCKED: ATOM      9  C   UNL d   1      41.391  29.501  -1.283 -0.20 +0.00    +0.058 A 
DOCKED: ATOM     10  C   UNL d   1      38.928  25.885  -0.605 -0.16 +0.00    +0.058 A 
DOCKED: ATOM     11  C   UNL d   1      41.179  25.727  -0.920 -0.14 +0.03    +0.193 A 
DOCKED: ATOM     12  C   UNL d   1      40.656  27.123  -1.056 -0.15 +0.01    +0.109 A 
DOCKED: ATOM     13  C   UNL d   1      41.675  31.766  -1.174 -0.16 +0.01    +0.193 A 
DOCKED: ATOM     14  C   UNL d   1      40.237  24.193   0.763 -0.29 +0.00    +0.026 C 
DOCKED: ATOM     15  C   UNL d   1      41.604  28.186  -1.447 -0.22 +0.01    +0.055 C 
DOCKED: ATOM     16  C   UNL d   1      42.570  30.675  -3.197 -0.08 +0.00    +0.026 C 
DOCKED: ATOM     17  C   UNL d   1      40.380  31.294  -0.598 -0.15 +0.00    +0.109 A 
DOCKED: ATOM     18  C   UNL d   1      37.630  25.557  -0.465 -0.11 +0.00    +0.050 C 
DOCKED: ATOM     19  C   UNL d   1      36.541  26.463  -0.525 -0.01 +0.00    +0.045 A 
DOCKED: ATOM     20  C   UNL d   1      38.197  31.894   0.309 -0.21 +0.00    +0.045 A 
DOCKED: ATOM     21  C   UNL d   1      39.451  32.255   0.014 -0.28 +0.00    +0.057 C 
DOCKED: ATOM     22  C   UNL d   1      36.053  32.021   1.086 -0.18 -0.00    -0.019 A 
DOCKED: ATOM     23  C   UNL d   1      36.273  30.678   0.512 -0.16 +0.01    +0.045 A 
DOCKED: ATOM     24  C   UNL d   1      37.196  32.736   0.961 -0.19 -0.00    -0.022 A 
DOCKED: ATOM     25  C   UNL d   1      35.484  28.423  -0.123 -0.12 +0.01    +0.049 A 
DOCKED: ATOM     26  C   UNL d   1      35.230  26.310  -0.947 -0.10 -0.00    -0.018 A 
DOCKED: ATOM     27  C   UNL d   1      34.572  27.556  -0.709 -0.10 +0.00    +0.003 A 
DOCKED: ATOM     28  C   UNL d   1      35.340  29.715   0.451 -0.16 +0.01    +0.052 C 
DOCKED: ATOM     29  C   UNL d   1      37.466  34.142   1.378 -0.30 +0.00    +0.046 C 
DOCKED: ATOM     30  C   UNL d   1      34.623  25.082  -1.537 -0.05 -0.00    +0.046 C 
DOCKED: ATOM     31  H   UNL d   1      38.030  29.955  -0.440 +0.05 +0.02    +0.166 HD
DOCKED: ATOM     32  H   UNL d   1      37.546  28.115   0.329 +0.07 +0.02    +0.166 HD
DOCKED: ENDROOT
DOCKED: BRANCH   7  33
DOCKED: ATOM     33  C   UNL d   1      39.888  23.746  -1.705 -0.05 +0.01    +0.141 C 
DOCKED: BRANCH  33  34
DOCKED: ATOM     34  C   UNL d   1      41.074  22.822  -1.762 -0.02 +0.03    +0.306 C 
DOCKED: ATOM     35  O   UNL d   1      41.245  21.826  -1.080 -0.01 -0.03    -0.251 OA
DOCKED: BRANCH  34  36
DOCKED: ATOM     36  O   UNL d   1      41.983  23.201  -2.678 +0.00 -0.06    -0.481 OA
DOCKED: ATOM     37  H   UNL d   1      42.498  23.910  -2.236 +0.05 +0.04    +0.295 HD
DOCKED: ENDBRANCH  34  36
DOCKED: ENDBRANCH  33  34
DOCKED: ENDBRANCH   7  33
DOCKED: BRANCH  27  38
DOCKED: ATOM     38  C   UNL d   1      33.194  27.828  -0.988 -0.07 +0.00    +0.017 C 
DOCKED: ATOM     39  C   UNL d   1      32.385  28.584  -0.230 -0.11 +0.04    +0.092 C 
DOCKED: BRANCH  39  40
DOCKED: ATOM     40  C   UNL d   1      30.995  28.800  -0.638 -0.04 +0.19    +0.330 C 
DOCKED: ATOM     41  O   UNL d   1      30.030  28.988   0.080 -0.27 -0.26    -0.246 OA
DOCKED: BRANCH  40  42
DOCKED: ATOM     42  O   UNL d   1      30.896  28.775  -1.976 +0.01 -0.13    -0.477 OA
DOCKED: ATOM     43  H   UNL d   1      30.297  28.022  -2.153 +0.02 +0.05    +0.295 HD
DOCKED: ENDBRANCH  40  42
DOCKED: ENDBRANCH  39  40
DOCKED: ENDBRANCH  27  38
DOCKED: BRANCH   8  44
DOCKED: ATOM     44  C   UNL d   1      43.789  30.442  -0.994 -0.39 +0.00    +0.141 C 
DOCKED: BRANCH  44  45
DOCKED: ATOM     45  C   UNL d   1      44.893  31.135  -1.747 -0.20 -0.02    +0.306 C 
DOCKED: ATOM     46  O   UNL d   1      45.695  30.616  -2.503 -0.15 +0.02    -0.251 OA
DOCKED: BRANCH  45  47
DOCKED: ATOM     47  O   UNL d   1      44.945  32.454  -1.485 -0.03 +0.07    -0.481 OA
DOCKED: ATOM     48  H   UNL d   1      44.157  32.627  -0.927 -0.18 -0.06    +0.295 HD
DOCKED: ENDBRANCH  45  47
DOCKED: ENDBRANCH  44  45
DOCKED: ENDBRANCH   8  44
DOCKED: BRANCH  22  49
DOCKED: ATOM     49  C   UNL d   1      34.764  32.470   1.710 -0.19 +0.01    +0.048 C 
DOCKED: BRANCH  49  50
DOCKED: ATOM     50  C   UNL d   1      34.972  32.988   3.133 -0.32 +0.02    +0.125 C 
DOCKED: BRANCH  50  51
DOCKED: ATOM     51  C   UNL d   1      34.982  31.855   4.120 -0.33 +0.05    +0.305 C 
DOCKED: ATOM     52  O   UNL d   1      35.879  31.544   4.883 -0.45 -0.01    -0.251 OA
DOCKED: BRANCH  51  53
DOCKED: ATOM     53  O   UNL d   1      33.837  31.146   4.086 -0.19 -0.14    -0.481 OA
DOCKED: ATOM     54  H   UNL d   1      33.969  30.448   4.760 -0.13 -0.02    +0.295 HD
DOCKED: ENDBRANCH  51  53
DOCKED: ENDBRANCH  50  51
DOCKED: ENDBRANCH  49  50
DOCKED: ENDBRANCH  22  49
DOCKED: TORSDOF 13
DOCKED: TER
DOCKED: ENDMDL
________________________________________________________________________________


	BEGINNING GENETIC ALGORITHM DOCKING 28 of 100
Run: 28 Seed: 129710151 163863729 [ Run 28 of 100 GA/GALS ]
Beginning LAMARCKIAN GENETIC ALGORITHM (LGA), with a maximum of 25000000 energy evaluations.

Final-Value: -9.708


	FINAL GENETIC ALGORITHM DOCKED STATE
	_______________________________________________


Detailed state:  trans 41.779 18.070 6.885 quatxyzw 0.716896 0.040170 0.325999 0.614956 center 0.153 0.018 -0.028 ntor 13 122.4391 14.4162 159.0452 180.0000 -132.4175 -116.9282 -45.4755 -43.4021 26.2890 -132.2050 -55.2456 -93.5668 -180.0000
State:	 41.779  18.070   6.885   0.909  0.051  0.413 104.103    122.44   14.42  159.05  180.00 -132.42 -116.93  -45.48  -43.40   26.29 -132.21  -55.25  -93.57 -180.00

DOCKED: MODEL       28
DOCKED: USER    Run = 28
DOCKED: USER    DPF = D:/Protein_go_brrr/autodock/final/2DN3/heme/dock.dpf
DOCKED: USER  
DOCKED: USER    Estimated Free Energy of Binding    =   -3.40 kcal/mol  [=(1)+(2)+(3)-(4)]
DOCKED: USER    Estimated Inhibition Constant, Ki   =    3.24 mM (millimolar)  [Temperature = 298.15 K]
DOCKED: USER    
DOCKED: USER    (1) Final Intermolecular Energy     =   -7.27 kcal/mol
DOCKED: USER        vdW + Hbond + desolv Energy     =   -6.82 kcal/mol
DOCKED: USER        Electrostatic Energy            =   -0.46 kcal/mol
DOCKED: USER    (2) Final Total Internal Energy     =   -2.43 kcal/mol
DOCKED: USER    (3) Torsional Free Energy           =   +3.88 kcal/mol
DOCKED: USER    (4) Unbound System's Energy  [=(2)] =   -2.43 kcal/mol
DOCKED: USER    
DOCKED: USER    
DOCKED: USER    NEWDPF move heme_opt.pdbqt
DOCKED: USER    NEWDPF about 0.153000 0.018000 -0.028000
DOCKED: USER    NEWDPF tran0 41.778927 18.069523 6.884957
DOCKED: USER    NEWDPF quaternion0 0.716896 0.040170 0.325999 0.614956
DOCKED: USER    NEWDPF axisangle0 0.909119 0.050941 0.413409 104.102525
DOCKED: USER    NEWDPF quat0 0.909119 0.050941 0.413409 104.102525
DOCKED: USER    NEWDPF dihe0 122.44 14.42 159.05 180.00 -132.42 -116.93 -45.48 -43.40 26.29 -132.21 -55.25 -93.57 -180.00 
DOCKED: USER  keepresnum = 1 
DOCKED: USER  
DOCKED: REMARK  13 active torsions:
DOCKED: REMARK  status: ('A' for Active; 'I' for Inactive)
DOCKED: REMARK    1  A    between atoms: O_3  and  C_38 
DOCKED: REMARK    2  A    between atoms: O_4  and  C_40 
DOCKED: REMARK    3  A    between atoms: O_7  and  C_46 
DOCKED: REMARK    4  A    between atoms: O_9  and  C_48 
DOCKED: REMARK    5  A    between atoms: C_15  and  C_20 
DOCKED: REMARK    6  A    between atoms: C_16  and  C_23 
DOCKED: REMARK    7  A    between atoms: C_20  and  C_38 
DOCKED: REMARK    8  A    between atoms: C_23  and  C_40 
DOCKED: REMARK    9  A    between atoms: C_32  and  C_41 
DOCKED: REMARK   10  A    between atoms: C_37  and  C_45 
DOCKED: REMARK   11  A    between atoms: C_41  and  C_44 
DOCKED: REMARK   12  A    between atoms: C_44  and  C_46 
DOCKED: REMARK   13  A    between atoms: C_47  and  C_48 
DOCKED: USER                              x       y       z     vdW  Elec       q    Type
DOCKED: USER                           _______ _______ _______ _____ _____    ______ ____
DOCKED: ROOT
DOCKED: ATOM      1  O   UNL d   1      38.424  20.178   2.520 -0.05 +0.06    -0.289 OA
DOCKED: ATOM      2  O   UNL d   1      36.813  18.713   9.707 -0.20 +0.03    -0.289 OA
DOCKED: ATOM      3  N   UNL d   1      40.711  18.802   4.704 -0.05 -0.02    -0.247 NA
DOCKED: ATOM      4  N   UNL d   1      39.295  18.881   7.315 -0.13 +0.01    -0.247 NA
DOCKED: ATOM      5  N   UNL d   1      41.811  18.327   8.591 -0.09 -0.04    -0.354 N 
DOCKED: ATOM      6  N   UNL d   1      43.276  18.267   5.880 -0.06 -0.15    -0.354 N 
DOCKED: ATOM      7  C   UNL d   1      40.801  19.622   2.396 -0.03 +0.01    +0.084 A 
DOCKED: ATOM      8  C   UNL d   1      36.852  18.853   7.263 -0.17 -0.02    +0.084 A 
DOCKED: ATOM      9  C   UNL d   1      38.182  18.921   6.505 -0.17 -0.01    +0.058 A 
DOCKED: ATOM     10  C   UNL d   1      41.521  19.007   3.600 -0.07 +0.01    +0.058 A 
DOCKED: ATOM     11  C   UNL d   1      39.436  19.710   3.009 -0.02 -0.01    +0.193 A 
DOCKED: ATOM     12  C   UNL d   1      39.506  19.160   4.400 -0.07 -0.01    +0.109 A 
DOCKED: ATOM     13  C   UNL d   1      37.416  18.805   8.655 -0.06 -0.02    +0.193 A 
DOCKED: ATOM     14  C   UNL d   1      41.299  21.036   2.089 -0.11 +0.00    +0.026 C 
DOCKED: ATOM     15  C   UNL d   1      38.252  19.059   5.172 -0.14 -0.01    +0.055 C 
DOCKED: ATOM     16  C   UNL d   1      36.108  17.543   6.988 -0.07 -0.00    +0.026 C 
DOCKED: ATOM     17  C   UNL d   1      38.906  18.836   8.549 -0.21 -0.00    +0.109 A 
DOCKED: ATOM     18  C   UNL d   1      42.810  18.626   3.528 -0.12 +0.02    +0.050 C 
DOCKED: ATOM     19  C   UNL d   1      43.534  17.975   4.560 -0.13 +0.02    +0.045 A 
DOCKED: ATOM     20  C   UNL d   1      41.050  18.625   9.692 -0.27 +0.00    +0.045 A 
DOCKED: ATOM     21  C   UNL d   1      39.733  18.844   9.765 -0.19 +0.00    +0.057 C 
DOCKED: ATOM     22  C   UNL d   1      43.226  18.384  10.343 -0.21 -0.00    -0.019 A 
DOCKED: ATOM     23  C   UNL d   1      43.139  18.164   8.886 -0.17 +0.01    +0.045 A 
DOCKED: ATOM     24  C   UNL d   1      41.986  18.655  10.815 -0.26 -0.00    -0.022 A 
DOCKED: ATOM     25  C   UNL d   1      44.149  17.593   6.703 -0.12 +0.02    +0.049 A 
DOCKED: ATOM     26  C   UNL d   1      44.576  17.061   4.525 -0.10 -0.01    -0.018 A 
DOCKED: ATOM     27  C   UNL d   1      44.947  16.809   5.882 -0.10 +0.00    +0.003 A 
DOCKED: ATOM     28  C   UNL d   1      44.181  17.853   8.100 -0.06 +0.02    +0.052 C 
DOCKED: ATOM     29  C   UNL d   1      41.561  18.935  12.216 -0.35 +0.01    +0.046 C 
DOCKED: ATOM     30  C   UNL d   1      45.189  16.456   3.308 -0.05 +0.02    +0.046 C 
DOCKED: ATOM     31  H   UNL d   1      41.386  18.171   7.684 +0.05 +0.02    +0.166 HD
DOCKED: ATOM     32  H   UNL d   1      42.564  18.922   6.180 +0.04 +0.06    +0.166 HD
DOCKED: ENDROOT
DOCKED: BRANCH   7  33
DOCKED: ATOM     33  C   UNL d   1      40.768  18.751   1.135 -0.00 +0.01    +0.141 C 
DOCKED: BRANCH  33  34
DOCKED: ATOM     34  C   UNL d   1      39.805  17.601   1.250 +0.00 +0.02    +0.306 C 
DOCKED: ATOM     35  O   UNL d   1      39.996  16.559   1.854 -0.00 -0.02    -0.251 OA
DOCKED: BRANCH  34  36
DOCKED: ATOM     36  O   UNL d   1      38.649  17.826   0.601 +0.00 -0.00    -0.481 OA
DOCKED: ATOM     37  H   UNL d   1      38.278  18.627   1.028 +0.01 -0.02    +0.295 HD
DOCKED: ENDBRANCH  34  36
DOCKED: ENDBRANCH  33  34
DOCKED: ENDBRANCH   7  33
DOCKED: BRANCH  27  38
DOCKED: ATOM     38  C   UNL d   1      45.998  15.932   6.300 -0.06 +0.01    +0.017 C 
DOCKED: ATOM     39  C   UNL d   1      47.043  16.284   7.065 -0.06 +0.04    +0.092 C 
DOCKED: BRANCH  39  40
DOCKED: ATOM     40  C   UNL d   1      48.045  15.283   7.439 +0.00 +0.10    +0.330 C 
DOCKED: ATOM     41  O   UNL d   1      48.346  14.913   8.558 +0.00 -0.06    -0.246 OA
DOCKED: BRANCH  40  42
DOCKED: ATOM     42  O   UNL d   1      48.627  14.780   6.339 +0.01 -0.13    -0.477 OA
DOCKED: ATOM     43  H   UNL d   1      49.089  13.980   6.664 +0.00 +0.06    +0.295 HD
DOCKED: ENDBRANCH  40  42
DOCKED: ENDBRANCH  39  40
DOCKED: ENDBRANCH  27  38
DOCKED: BRANCH   8  44
DOCKED: ATOM     44  C   UNL d   1      35.929  20.063   7.086 -0.08 -0.08    +0.141 C 
DOCKED: BRANCH  44  45
DOCKED: ATOM     45  C   UNL d   1      34.620  19.923   7.817 -0.19 -0.11    +0.306 C 
DOCKED: ATOM     46  O   UNL d   1      33.593  19.431   7.381 -0.13 +0.08    -0.251 OA
DOCKED: BRANCH  45  47
DOCKED: ATOM     47  O   UNL d   1      34.665  20.439   9.058 -0.58 +0.09    -0.481 OA
DOCKED: ATOM     48  H   UNL d   1      35.619  20.450   9.287 -0.22 -0.10    +0.295 HD
DOCKED: ENDBRANCH  45  47
DOCKED: ENDBRANCH  44  45
DOCKED: ENDBRANCH   8  44
DOCKED: BRANCH  22  49
DOCKED: ATOM     49  C   UNL d   1      44.502  18.325  11.130 -0.20 +0.01    +0.048 C 
DOCKED: BRANCH  49  50
DOCKED: ATOM     50  C   UNL d   1      45.105  19.713  11.342 -0.23 +0.03    +0.125 C 
DOCKED: BRANCH  50  51
DOCKED: ATOM     51  C   UNL d   1      45.344  19.977  12.802 -0.22 +0.18    +0.305 C 
DOCKED: ATOM     52  O   UNL d   1      44.560  19.825  13.722 -0.18 -0.14    -0.251 OA
DOCKED: BRANCH  51  53
DOCKED: ATOM     53  O   UNL d   1      46.588  20.442  13.033 -0.71 -0.61    -0.481 OA
DOCKED: ATOM     54  H   UNL d   1      47.001  20.470  12.145 -0.26 +0.18    +0.295 HD
DOCKED: ENDBRANCH  51  53
DOCKED: ENDBRANCH  50  51
DOCKED: ENDBRANCH  49  50
DOCKED: ENDBRANCH  22  49
DOCKED: TORSDOF 13
DOCKED: TER
DOCKED: ENDMDL
________________________________________________________________________________


	BEGINNING GENETIC ALGORITHM DOCKING 29 of 100
Run: 29 Seed: 30657276 1969156724 [ Run 29 of 100 GA/GALS ]
Beginning LAMARCKIAN GENETIC ALGORITHM (LGA), with a maximum of 25000000 energy evaluations.

Final-Value: -10.962


	FINAL GENETIC ALGORITHM DOCKED STATE
	_______________________________________________


Detailed state:  trans 4.083 23.207 21.575 quatxyzw 0.628317 -0.549478 0.408356 0.369510 center 0.153 0.018 -0.028 ntor 13 -160.2691 -140.3883 105.6711 -10.6813 43.5742 63.8720 -46.7763 -116.3290 157.9995 -125.8624 40.3892 -103.0833 135.5436
State:	  4.083  23.207  21.575   0.676 -0.591  0.439 136.629   -160.27 -140.39  105.67  -10.68   43.57   63.87  -46.78 -116.33  158.00 -125.86   40.39 -103.08  135.54

DOCKED: MODEL       29
DOCKED: USER    Run = 29
DOCKED: USER    DPF = D:/Protein_go_brrr/autodock/final/2DN3/heme/dock.dpf
DOCKED: USER  
DOCKED: USER    Estimated Free Energy of Binding    =   -3.40 kcal/mol  [=(1)+(2)+(3)-(4)]
DOCKED: USER    Estimated Inhibition Constant, Ki   =    3.19 mM (millimolar)  [Temperature = 298.15 K]
DOCKED: USER    
DOCKED: USER    (1) Final Intermolecular Energy     =   -7.28 kcal/mol
DOCKED: USER        vdW + Hbond + desolv Energy     =   -7.24 kcal/mol
DOCKED: USER        Electrostatic Energy            =   -0.05 kcal/mol
DOCKED: USER    (2) Final Total Internal Energy     =   -3.68 kcal/mol
DOCKED: USER    (3) Torsional Free Energy           =   +3.88 kcal/mol
DOCKED: USER    (4) Unbound System's Energy  [=(2)] =   -3.68 kcal/mol
DOCKED: USER    
DOCKED: USER    
DOCKED: USER    NEWDPF move heme_opt.pdbqt
DOCKED: USER    NEWDPF about 0.153000 0.018000 -0.028000
DOCKED: USER    NEWDPF tran0 4.083154 23.207090 21.574734
DOCKED: USER    NEWDPF quaternion0 0.628317 -0.549478 0.408356 0.369510
DOCKED: USER    NEWDPF axisangle0 0.676171 -0.591329 0.439457 136.629227
DOCKED: USER    NEWDPF quat0 0.676171 -0.591329 0.439457 136.629227
DOCKED: USER    NEWDPF dihe0 -160.27 -140.39 105.67 -10.68 43.57 63.87 -46.78 -116.33 158.00 -125.86 40.39 -103.08 135.54 
DOCKED: USER  keepresnum = 1 
DOCKED: USER  
DOCKED: REMARK  13 active torsions:
DOCKED: REMARK  status: ('A' for Active; 'I' for Inactive)
DOCKED: REMARK    1  A    between atoms: O_3  and  C_38 
DOCKED: REMARK    2  A    between atoms: O_4  and  C_40 
DOCKED: REMARK    3  A    between atoms: O_7  and  C_46 
DOCKED: REMARK    4  A    between atoms: O_9  and  C_48 
DOCKED: REMARK    5  A    between atoms: C_15  and  C_20 
DOCKED: REMARK    6  A    between atoms: C_16  and  C_23 
DOCKED: REMARK    7  A    between atoms: C_20  and  C_38 
DOCKED: REMARK    8  A    between atoms: C_23  and  C_40 
DOCKED: REMARK    9  A    between atoms: C_32  and  C_41 
DOCKED: REMARK   10  A    between atoms: C_37  and  C_45 
DOCKED: REMARK   11  A    between atoms: C_41  and  C_44 
DOCKED: REMARK   12  A    between atoms: C_44  and  C_46 
DOCKED: REMARK   13  A    between atoms: C_47  and  C_48 
DOCKED: USER                              x       y       z     vdW  Elec       q    Type
DOCKED: USER                           _______ _______ _______ _____ _____    ______ ____
DOCKED: ROOT
DOCKED: ATOM      1  O   UNL d   1       3.671  28.577  19.177 -0.26 +0.01    -0.289 OA
DOCKED: ATOM      2  O   UNL d   1       4.349  26.415  26.336 -0.06 -0.02    -0.289 OA
DOCKED: ATOM      3  N   UNL d   1       3.742  25.263  20.129 -0.05 -0.01    -0.247 NA
DOCKED: ATOM      4  N   UNL d   1       4.330  25.400  23.038 -0.21 -0.03    -0.247 NA
DOCKED: ATOM      5  N   UNL d   1       4.899  22.583  22.962 +0.07 +0.06    -0.354 N 
DOCKED: ATOM      6  N   UNL d   1       4.306  22.453  19.940 +0.04 +0.02    -0.354 N 
DOCKED: ATOM      7  C   UNL d   1       3.731  26.445  17.982 -0.23 +0.00    +0.084 A 
DOCKED: ATOM      8  C   UNL d   1       3.664  27.434  24.218 -0.19 +0.00    +0.084 A 
DOCKED: ATOM      9  C   UNL d   1       3.809  26.668  22.899 -0.22 -0.00    +0.058 A 
DOCKED: ATOM     10  C   UNL d   1       3.763  25.121  18.751 -0.13 +0.00    +0.058 A 
DOCKED: ATOM     11  C   UNL d   1       3.669  27.360  19.168 -0.22 -0.00    +0.193 A 
DOCKED: ATOM     12  C   UNL d   1       3.656  26.522  20.410 -0.18 +0.00    +0.109 A 
DOCKED: ATOM     13  C   UNL d   1       4.232  26.380  25.127 -0.12 +0.01    +0.193 A 
DOCKED: ATOM     14  C   UNL d   1       5.037  26.702  17.226 -0.51 +0.00    +0.026 C 
DOCKED: ATOM     15  C   UNL d   1       3.504  27.207  21.709 -0.26 -0.00    +0.055 C 
DOCKED: ATOM     16  C   UNL d   1       2.193  27.658  24.585 -0.07 +0.00    +0.026 C 
DOCKED: ATOM     17  C   UNL d   1       4.604  25.202  24.287 -0.19 +0.01    +0.109 A 
DOCKED: ATOM     18  C   UNL d   1       3.722  23.936  18.114 -0.21 -0.00    +0.050 C 
DOCKED: ATOM     19  C   UNL d   1       3.663  22.666  18.741 -0.13 -0.00    +0.045 A 
DOCKED: ATOM     20  C   UNL d   1       5.344  22.879  24.224 -0.20 -0.00    +0.045 A 
DOCKED: ATOM     21  C   UNL d   1       5.231  24.024  24.905 -0.23 +0.00    +0.057 C 
DOCKED: ATOM     22  C   UNL d   1       5.901  20.719  23.733 -0.20 +0.00    -0.019 A 
DOCKED: ATOM     23  C   UNL d   1       5.189  21.301  22.578 -0.17 -0.00    +0.045 A 
DOCKED: ATOM     24  C   UNL d   1       5.989  21.658  24.705 -0.19 +0.00    -0.022 A 
DOCKED: ATOM     25  C   UNL d   1       4.195  21.136  20.320 -0.12 -0.00    +0.049 A 
DOCKED: ATOM     26  C   UNL d   1       3.089  21.466  18.351 -0.09 +0.00    -0.018 A 
DOCKED: ATOM     27  C   UNL d   1       3.411  20.508  19.362 -0.07 +0.00    +0.003 A 
DOCKED: ATOM     28  C   UNL d   1       4.909  20.639  21.445 -0.17 -0.00    +0.052 C 
DOCKED: ATOM     29  C   UNL d   1       6.605  21.545  26.057 -0.14 -0.00    +0.046 C 
DOCKED: ATOM     30  C   UNL d   1       2.288  21.222  17.118 -0.13 -0.00    +0.046 C 
DOCKED: ATOM     31  H   UNL d   1       4.344  23.245  22.431 -0.21 -0.02    +0.166 HD
DOCKED: ATOM     32  H   UNL d   1       4.819  23.172  20.436 -0.14 -0.03    +0.166 HD
DOCKED: ENDROOT
DOCKED: BRANCH   7  33
DOCKED: ATOM     33  C   UNL d   1       2.509  26.652  17.080 -0.14 -0.01    +0.141 C 
DOCKED: BRANCH  33  34
DOCKED: ATOM     34  C   UNL d   1       2.786  27.589  15.936 -0.18 -0.02    +0.306 C 
DOCKED: ATOM     35  O   UNL d   1       3.072  27.268  14.795 -0.31 +0.04    -0.251 OA
DOCKED: BRANCH  34  36
DOCKED: ATOM     36  O   UNL d   1       2.684  28.883  16.289 -0.06 +0.03    -0.481 OA
DOCKED: ATOM     37  H   UNL d   1       2.729  28.875  17.269 +0.13 -0.02    +0.295 HD
DOCKED: ENDBRANCH  34  36
DOCKED: ENDBRANCH  33  34
DOCKED: ENDBRANCH   7  33
DOCKED: BRANCH  27  38
DOCKED: ATOM     38  C   UNL d   1       3.025  19.130  19.345 -0.04 +0.00    +0.017 C 
DOCKED: ATOM     39  C   UNL d   1       3.867  18.091  19.230 -0.04 +0.01    +0.092 C 
DOCKED: BRANCH  39  40
DOCKED: ATOM     40  C   UNL d   1       3.343  16.722  19.244 +0.00 +0.04    +0.330 C 
DOCKED: ATOM     41  O   UNL d   1       2.570  16.214  18.455 +0.00 -0.02    -0.246 OA
DOCKED: BRANCH  40  42
DOCKED: ATOM     42  O   UNL d   1       3.850  16.045  20.285 +0.01 -0.07    -0.477 OA
DOCKED: ATOM     43  H   UNL d   1       3.856  16.701  21.012 +0.02 +0.03    +0.295 HD
DOCKED: ENDBRANCH  40  42
DOCKED: ENDBRANCH  39  40
DOCKED: ENDBRANCH  27  38
DOCKED: BRANCH   8  44
DOCKED: ATOM     44  C   UNL d   1       4.465  28.735  24.318 -0.31 +0.00    +0.141 C 
DOCKED: BRANCH  44  45
DOCKED: ATOM     45  C   UNL d   1       4.370  29.390  25.671 -0.16 +0.02    +0.306 C 
DOCKED: ATOM     46  O   UNL d   1       3.551  30.222  26.019 -0.10 -0.02    -0.251 OA
DOCKED: BRANCH  45  47
DOCKED: ATOM     47  O   UNL d   1       5.337  28.978  26.511 -0.09 -0.07    -0.481 OA
DOCKED: ATOM     48  H   UNL d   1       5.061  28.077  26.783 +0.08 +0.04    +0.295 HD
DOCKED: ENDBRANCH  45  47
DOCKED: ENDBRANCH  44  45
DOCKED: ENDBRANCH   8  44
DOCKED: BRANCH  22  49
DOCKED: ATOM     49  C   UNL d   1       6.437  19.318  23.774 -0.20 +0.00    +0.048 C 
DOCKED: BRANCH  49  50
DOCKED: ATOM     50  C   UNL d   1       7.316  19.010  22.562 -0.33 +0.01    +0.125 C 
DOCKED: BRANCH  50  51
DOCKED: ATOM     51  C   UNL d   1       7.045  17.628  22.039 -0.18 +0.06    +0.305 C 
DOCKED: ATOM     52  O   UNL d   1       7.841  16.716  21.902 -0.26 -0.08    -0.251 OA
DOCKED: BRANCH  51  53
DOCKED: ATOM     53  O   UNL d   1       5.752  17.464  21.696 -0.00 -0.08    -0.481 OA
DOCKED: ATOM     54  H   UNL d   1       5.740  16.612  21.211 +0.07 +0.07    +0.295 HD
DOCKED: ENDBRANCH  51  53
DOCKED: ENDBRANCH  50  51
DOCKED: ENDBRANCH  49  50
DOCKED: ENDBRANCH  22  49
DOCKED: TORSDOF 13
DOCKED: TER
DOCKED: ENDMDL
________________________________________________________________________________


	BEGINNING GENETIC ALGORITHM DOCKING 30 of 100
Run: 30 Seed: 1152111905 818841752 [ Run 30 of 100 GA/GALS ]
Beginning LAMARCKIAN GENETIC ALGORITHM (LGA), with a maximum of 25000000 energy evaluations.

Final-Value: -9.750


	FINAL GENETIC ALGORITHM DOCKED STATE
	_______________________________________________


Detailed state:  trans 45.147 17.674 7.621 quatxyzw -0.461765 -0.190582 0.221695 0.837438 center 0.153 0.018 -0.028 ntor 13 178.5035 -144.0489 113.0789 -126.2416 -144.5996 -45.3825 -46.7619 -80.9083 -126.8607 -141.2355 -160.3811 17.8315 -4.3150
State:	 45.147  17.674   7.621  -0.845 -0.349  0.406 66.259    178.50 -144.05  113.08 -126.24 -144.60  -45.38  -46.76  -80.91 -126.86 -141.24 -160.38   17.83   -4.32

DOCKED: MODEL       30
DOCKED: USER    Run = 30
DOCKED: USER    DPF = D:/Protein_go_brrr/autodock/final/2DN3/heme/dock.dpf
DOCKED: USER  
DOCKED: USER    Estimated Free Energy of Binding    =   -2.95 kcal/mol  [=(1)+(2)+(3)-(4)]
DOCKED: USER    Estimated Inhibition Constant, Ki   =    6.90 mM (millimolar)  [Temperature = 298.15 K]
DOCKED: USER    
DOCKED: USER    (1) Final Intermolecular Energy     =   -6.83 kcal/mol
DOCKED: USER        vdW + Hbond + desolv Energy     =   -6.31 kcal/mol
DOCKED: USER        Electrostatic Energy            =   -0.51 kcal/mol
DOCKED: USER    (2) Final Total Internal Energy     =   -2.92 kcal/mol
DOCKED: USER    (3) Torsional Free Energy           =   +3.88 kcal/mol
DOCKED: USER    (4) Unbound System's Energy  [=(2)] =   -2.92 kcal/mol
DOCKED: USER    
DOCKED: USER    
DOCKED: USER    NEWDPF move heme_opt.pdbqt
DOCKED: USER    NEWDPF about 0.153000 0.018000 -0.028000
DOCKED: USER    NEWDPF tran0 45.147294 17.674101 7.621229
DOCKED: USER    NEWDPF quaternion0 -0.461765 -0.190582 0.221695 0.837438
DOCKED: USER    NEWDPF axisangle0 -0.844900 -0.348711 0.405640 66.258812
DOCKED: USER    NEWDPF quat0 -0.844900 -0.348711 0.405640 66.258812
DOCKED: USER    NEWDPF dihe0 178.50 -144.05 113.08 -126.24 -144.60 -45.38 -46.76 -80.91 -126.86 -141.24 -160.38 17.83 -4.32 
DOCKED: USER  keepresnum = 1 
DOCKED: USER  
DOCKED: REMARK  13 active torsions:
DOCKED: REMARK  status: ('A' for Active; 'I' for Inactive)
DOCKED: REMARK    1  A    between atoms: O_3  and  C_38 
DOCKED: REMARK    2  A    between atoms: O_4  and  C_40 
DOCKED: REMARK    3  A    between atoms: O_7  and  C_46 
DOCKED: REMARK    4  A    between atoms: O_9  and  C_48 
DOCKED: REMARK    5  A    between atoms: C_15  and  C_20 
DOCKED: REMARK    6  A    between atoms: C_16  and  C_23 
DOCKED: REMARK    7  A    between atoms: C_20  and  C_38 
DOCKED: REMARK    8  A    between atoms: C_23  and  C_40 
DOCKED: REMARK    9  A    between atoms: C_32  and  C_41 
DOCKED: REMARK   10  A    between atoms: C_37  and  C_45 
DOCKED: REMARK   11  A    between atoms: C_41  and  C_44 
DOCKED: REMARK   12  A    between atoms: C_44  and  C_46 
DOCKED: REMARK   13  A    between atoms: C_47  and  C_48 
DOCKED: USER                              x       y       z     vdW  Elec       q    Type
DOCKED: USER                           _______ _______ _______ _____ _____    ______ ____
DOCKED: ROOT
DOCKED: ATOM      1  O   UNL d   1      41.494  19.017  12.049 -0.22 -0.03    -0.289 OA
DOCKED: ATOM      2  O   UNL d   1      40.111  17.245   4.884 -0.01 -0.02    -0.289 OA
DOCKED: ATOM      3  N   UNL d   1      44.000  18.431   9.753 -0.14 -0.05    -0.247 NA
DOCKED: ATOM      4  N   UNL d   1      42.518  17.527   7.341 -0.07 -0.05    -0.247 NA
DOCKED: ATOM      5  N   UNL d   1      45.024  16.632   6.251 -0.04 -0.15    -0.354 N 
DOCKED: ATOM      6  N   UNL d   1      46.550  17.555   8.765 -0.05 -0.15    -0.354 N 
DOCKED: ATOM      7  C   UNL d   1      43.929  18.838  12.169 -0.19 +0.02    +0.084 A 
DOCKED: ATOM      8  C   UNL d   1      40.211  18.293   7.094 -0.13 +0.00    +0.084 A 
DOCKED: ATOM      9  C   UNL d   1      41.485  18.211   7.941 -0.17 +0.01    +0.058 A 
DOCKED: ATOM     10  C   UNL d   1      44.752  18.555  10.909 -0.20 +0.01    +0.058 A 
DOCKED: ATOM     11  C   UNL d   1      42.579  18.871  11.517 -0.18 +0.02    +0.193 A 
DOCKED: ATOM     12  C   UNL d   1      42.758  18.636  10.049 -0.20 +0.01    +0.109 A 
DOCKED: ATOM     13  C   UNL d   1      40.701  17.497   5.917 -0.03 +0.02    +0.193 A 
DOCKED: ATOM     14  C   UNL d   1      43.973  17.671  13.158 -0.11 +0.01    +0.026 C 
DOCKED: ATOM     15  C   UNL d   1      41.565  18.717   9.182 -0.30 +0.00    +0.055 C 
DOCKED: ATOM     16  C   UNL d   1      39.926  19.726   6.635 -0.25 -0.00    +0.026 C 
DOCKED: ATOM     17  C   UNL d   1      42.110  17.085   6.195 -0.05 +0.02    +0.109 A 
DOCKED: ATOM     18  C   UNL d   1      46.098  18.525  10.940 -0.19 +0.01    +0.050 C 
DOCKED: ATOM     19  C   UNL d   1      46.943  18.355   9.814 -0.16 +0.02    +0.045 A 
DOCKED: ATOM     20  C   UNL d   1      44.160  16.080   5.340 -0.04 +0.01    +0.045 A 
DOCKED: ATOM     21  C   UNL d   1      42.839  16.251   5.228 -0.03 +0.01    +0.057 C 
DOCKED: ATOM     22  C   UNL d   1      46.272  15.326   4.906 -0.02 -0.01    -0.019 A 
DOCKED: ATOM     23  C   UNL d   1      46.321  16.234   6.069 -0.06 +0.02    +0.045 A 
DOCKED: ATOM     24  C   UNL d   1      44.990  15.240   4.478 -0.01 -0.01    -0.022 A 
DOCKED: ATOM     25  C   UNL d   1      47.553  17.459   7.828 -0.11 +0.03    +0.049 A 
DOCKED: ATOM     26  C   UNL d   1      48.219  18.820   9.535 -0.19 -0.01    -0.018 A 
DOCKED: ATOM     27  C   UNL d   1      48.591  18.267   8.271 -0.13 +0.00    +0.003 A 
DOCKED: ATOM     28  C   UNL d   1      47.442  16.563   6.731 -0.07 +0.03    +0.052 C 
DOCKED: ATOM     29  C   UNL d   1      44.439  14.460   3.334 -0.00 +0.01    +0.046 C 
DOCKED: ATOM     30  C   UNL d   1      49.043  19.725  10.387 -0.21 +0.02    +0.046 C 
DOCKED: ATOM     31  H   UNL d   1      44.708  17.322   6.924 +0.03 +0.08    +0.166 HD
DOCKED: ATOM     32  H   UNL d   1      45.657  17.078   8.728 +0.03 +0.06    +0.166 HD
DOCKED: ENDROOT
DOCKED: BRANCH   7  33
DOCKED: ATOM     33  C   UNL d   1      44.225  20.173  12.861 -0.31 +0.06    +0.141 C 
DOCKED: BRANCH  33  34
DOCKED: ATOM     34  C   UNL d   1      45.472  20.126  13.702 -0.18 +0.29    +0.306 C 
DOCKED: ATOM     35  O   UNL d   1      45.533  19.826  14.882 -0.15 -0.27    -0.251 OA
DOCKED: BRANCH  34  36
DOCKED: ATOM     36  O   UNL d   1      46.576  20.456  13.010 -0.70 -0.60    -0.481 OA
DOCKED: ATOM     37  H   UNL d   1      46.262  20.582  12.089 -0.29 +0.12    +0.295 HD
DOCKED: ENDBRANCH  34  36
DOCKED: ENDBRANCH  33  34
DOCKED: ENDBRANCH   7  33
DOCKED: BRANCH  27  38
DOCKED: ATOM     38  C   UNL d   1      49.845  18.481   7.613 -0.11 +0.01    +0.017 C 
DOCKED: ATOM     39  C   UNL d   1      49.994  18.943   6.362 -0.06 +0.06    +0.092 C 
DOCKED: BRANCH  39  40
DOCKED: ATOM     40  C   UNL d   1      51.338  19.136   5.810 -0.01 +0.17    +0.330 C 
DOCKED: ATOM     41  O   UNL d   1      52.285  19.688   6.336 -0.01 -0.10    -0.246 OA
DOCKED: BRANCH  40  42
DOCKED: ATOM     42  O   UNL d   1      51.416  18.592   4.586 +0.00 -0.23    -0.477 OA
DOCKED: ATOM     43  H   UNL d   1      50.532  18.759   4.198 +0.03 +0.20    +0.295 HD
DOCKED: ENDBRANCH  40  42
DOCKED: ENDBRANCH  39  40
DOCKED: ENDBRANCH  27  38
DOCKED: BRANCH   8  44
DOCKED: ATOM     44  C   UNL d   1      38.964  17.650   7.711 -0.09 +0.00    +0.141 C 
DOCKED: BRANCH  44  45
DOCKED: ATOM     45  C   UNL d   1      37.697  17.981   6.969 -0.05 -0.03    +0.306 C 
DOCKED: ATOM     46  O   UNL d   1      36.951  18.919   7.188 -0.14 +0.06    -0.251 OA
DOCKED: BRANCH  45  47
DOCKED: ATOM     47  O   UNL d   1      37.418  17.089   6.002 +0.02 +0.03    -0.481 OA
DOCKED: ATOM     48  H   UNL d   1      38.124  17.220   5.333 +0.03 -0.02    +0.295 HD
DOCKED: ENDBRANCH  45  47
DOCKED: ENDBRANCH  44  45
DOCKED: ENDBRANCH   8  44
DOCKED: BRANCH  22  49
DOCKED: ATOM     49  C   UNL d   1      47.468  14.622   4.335 -0.00 +0.01    +0.048 C 
DOCKED: BRANCH  49  50
DOCKED: ATOM     50  C   UNL d   1      48.185  15.476   3.290 -0.01 +0.04    +0.125 C 
DOCKED: BRANCH  50  51
DOCKED: ATOM     51  C   UNL d   1      47.837  16.928   3.452 -0.04 +0.20    +0.305 C 
DOCKED: ATOM     52  O   UNL d   1      46.891  17.524   2.968 -0.15 -0.20    -0.251 OA
DOCKED: BRANCH  51  53
DOCKED: ATOM     53  O   UNL d   1      48.729  17.577   4.228 -0.63 -0.45    -0.481 OA
DOCKED: ATOM     54  H   UNL d   1      49.594  17.378   3.813 +0.02 +0.18    +0.295 HD
DOCKED: ENDBRANCH  51  53
DOCKED: ENDBRANCH  50  51
DOCKED: ENDBRANCH  49  50
DOCKED: ENDBRANCH  22  49
DOCKED: TORSDOF 13
DOCKED: TER
DOCKED: ENDMDL
________________________________________________________________________________


	BEGINNING GENETIC ALGORITHM DOCKING 31 of 100
Run: 31 Seed: 257858744 390552498 [ Run 31 of 100 GA/GALS ]
Beginning LAMARCKIAN GENETIC ALGORITHM (LGA), with a maximum of 25000000 energy evaluations.

Final-Value: -13.129


	FINAL GENETIC ALGORITHM DOCKED STATE
	_______________________________________________


Detailed state:  trans 6.327 37.105 -2.042 quatxyzw 0.871462 -0.273555 0.093889 -0.396115 center 0.153 0.018 -0.028 ntor 13 -69.1817 161.4372 97.7166 16.6973 42.1464 115.2457 -38.0247 123.9254 114.1970 -106.1091 -67.1543 -129.0730 -12.0943
State:	  6.327  37.105  -2.042   0.949 -0.298  0.102 -133.329    -69.18  161.44   97.72   16.70   42.15  115.25  -38.02  123.93  114.20 -106.11  -67.15 -129.07  -12.09

DOCKED: MODEL       31
DOCKED: USER    Run = 31
DOCKED: USER    DPF = D:/Protein_go_brrr/autodock/final/2DN3/heme/dock.dpf
DOCKED: USER  
DOCKED: USER    Estimated Free Energy of Binding    =   -5.76 kcal/mol  [=(1)+(2)+(3)-(4)]
DOCKED: USER    Estimated Inhibition Constant, Ki   =   60.01 uM (micromolar)  [Temperature = 298.15 K]
DOCKED: USER    
DOCKED: USER    (1) Final Intermolecular Energy     =   -9.64 kcal/mol
DOCKED: USER        vdW + Hbond + desolv Energy     =   -9.45 kcal/mol
DOCKED: USER        Electrostatic Energy            =   -0.19 kcal/mol
DOCKED: USER    (2) Final Total Internal Energy     =   -3.49 kcal/mol
DOCKED: USER    (3) Torsional Free Energy           =   +3.88 kcal/mol
DOCKED: USER    (4) Unbound System's Energy  [=(2)] =   -3.49 kcal/mol
DOCKED: USER    
DOCKED: USER    
DOCKED: USER    NEWDPF move heme_opt.pdbqt
DOCKED: USER    NEWDPF about 0.153000 0.018000 -0.028000
DOCKED: USER    NEWDPF tran0 6.327357 37.104601 -2.041637
DOCKED: USER    NEWDPF quaternion0 0.871462 -0.273555 0.093889 -0.396115
DOCKED: USER    NEWDPF axisangle0 0.949097 -0.297925 0.102253 -133.328985
DOCKED: USER    NEWDPF quat0 0.949097 -0.297925 0.102253 -133.328985
DOCKED: USER    NEWDPF dihe0 -69.18 161.44 97.72 16.70 42.15 115.25 -38.02 123.93 114.20 -106.11 -67.15 -129.07 -12.09 
DOCKED: USER  keepresnum = 1 
DOCKED: USER  
DOCKED: REMARK  13 active torsions:
DOCKED: REMARK  status: ('A' for Active; 'I' for Inactive)
DOCKED: REMARK    1  A    between atoms: O_3  and  C_38 
DOCKED: REMARK    2  A    between atoms: O_4  and  C_40 
DOCKED: REMARK    3  A    between atoms: O_7  and  C_46 
DOCKED: REMARK    4  A    between atoms: O_9  and  C_48 
DOCKED: REMARK    5  A    between atoms: C_15  and  C_20 
DOCKED: REMARK    6  A    between atoms: C_16  and  C_23 
DOCKED: REMARK    7  A    between atoms: C_20  and  C_38 
DOCKED: REMARK    8  A    between atoms: C_23  and  C_40 
DOCKED: REMARK    9  A    between atoms: C_32  and  C_41 
DOCKED: REMARK   10  A    between atoms: C_37  and  C_45 
DOCKED: REMARK   11  A    between atoms: C_41  and  C_44 
DOCKED: REMARK   12  A    between atoms: C_44  and  C_46 
DOCKED: REMARK   13  A    between atoms: C_47  and  C_48 
DOCKED: USER                              x       y       z     vdW  Elec       q    Type
DOCKED: USER                           _______ _______ _______ _____ _____    ______ ____
DOCKED: ROOT
DOCKED: ATOM      1  O   UNL d   1       0.690  37.976  -3.530 -0.03 -0.18    -0.289 OA
DOCKED: ATOM      2  O   UNL d   1       6.870  41.945  -5.093 -0.19 -0.01    -0.289 OA
DOCKED: ATOM      3  N   UNL d   1       3.805  37.140  -2.310 -0.08 -0.12    -0.247 NA
DOCKED: ATOM      4  N   UNL d   1       5.613  39.058  -3.681 -0.10 -0.05    -0.247 NA
DOCKED: ATOM      5  N   UNL d   1       7.830  37.440  -2.823 -0.06 -0.05    -0.354 N 
DOCKED: ATOM      6  N   UNL d   1       5.946  35.444  -1.419 -0.11 -0.07    -0.354 N 
DOCKED: ATOM      7  C   UNL d   1       1.588  36.096  -2.251 -0.08 +0.05    +0.084 A 
DOCKED: ATOM      8  C   UNL d   1       4.648  41.184  -4.401 -0.11 +0.02    +0.084 A 
DOCKED: ATOM      9  C   UNL d   1       4.453  39.790  -3.797 -0.11 +0.02    +0.058 A 
DOCKED: ATOM     10  C   UNL d   1       3.072  36.048  -1.876 -0.14 +0.03    +0.058 A 
DOCKED: ATOM     11  C   UNL d   1       1.609  37.418  -2.958 -0.06 +0.14    +0.193 A 
DOCKED: ATOM     12  C   UNL d   1       3.003  37.961  -2.903 -0.11 +0.07    +0.109 A 
DOCKED: ATOM     13  C   UNL d   1       6.129  41.094  -4.641 -0.14 +0.02    +0.193 A 
DOCKED: ATOM     14  C   UNL d   1       1.214  35.003  -3.256 -0.05 +0.01    +0.026 C 
DOCKED: ATOM     15  C   UNL d   1       3.247  39.308  -3.459 -0.11 +0.03    +0.055 C 
DOCKED: ATOM     16  C   UNL d   1       4.383  42.290  -3.375 -0.21 +0.01    +0.026 C 
DOCKED: ATOM     17  C   UNL d   1       6.590  39.753  -4.168 -0.19 +0.01    +0.109 A 
DOCKED: ATOM     18  C   UNL d   1       3.572  35.059  -1.111 -0.20 +0.02    +0.050 C 
DOCKED: ATOM     19  C   UNL d   1       4.909  34.976  -0.644 -0.24 +0.01    +0.045 A 
DOCKED: ATOM     20  C   UNL d   1       8.476  38.284  -3.688 -0.34 +0.00    +0.045 A 
DOCKED: ATOM     21  C   UNL d   1       8.000  39.363  -4.318 -0.33 -0.00    +0.057 C 
DOCKED: ATOM     22  C   UNL d   1       9.936  36.664  -3.010 -0.36 -0.00    -0.019 A 
DOCKED: ATOM     23  C   UNL d   1       8.630  36.429  -2.361 -0.30 +0.01    +0.045 A 
DOCKED: ATOM     24  C   UNL d   1       9.838  37.764  -3.793 -0.41 +0.00    -0.022 A 
DOCKED: ATOM     25  C   UNL d   1       7.155  35.182  -0.818 -0.22 +0.01    +0.049 A 
DOCKED: ATOM     26  C   UNL d   1       5.456  34.429   0.507 -0.33 -0.00    -0.018 A 
DOCKED: ATOM     27  C   UNL d   1       6.873  34.580   0.400 -0.38 +0.00    +0.003 A 
DOCKED: ATOM     28  C   UNL d   1       8.377  35.432  -1.500 -0.26 +0.01    +0.052 C 
DOCKED: ATOM     29  C   UNL d   1      10.887  38.404  -4.637 -0.26 -0.01    +0.046 C 
DOCKED: ATOM     30  C   UNL d   1       4.710  33.807   1.638 -0.38 +0.01    +0.046 C 
DOCKED: ATOM     31  H   UNL d   1       6.880  37.625  -2.518 +0.08 +0.03    +0.166 HD
DOCKED: ATOM     32  H   UNL d   1       5.816  35.881  -2.324 +0.06 +0.03    +0.166 HD
DOCKED: ENDROOT
DOCKED: BRANCH   7  33
DOCKED: ATOM     33  C   UNL d   1       0.613  36.132  -1.070 -0.09 +0.14    +0.141 C 
DOCKED: BRANCH  33  34
DOCKED: ATOM     34  C   UNL d   1      -0.758  36.610  -1.466 -0.04 +0.28    +0.306 C 
DOCKED: ATOM     35  O   UNL d   1      -1.714  35.905  -1.744 -0.02 -0.11    -0.251 OA
DOCKED: BRANCH  34  36
DOCKED: ATOM     36  O   UNL d   1      -0.854  37.951  -1.489 -0.22 -0.73    -0.481 OA
DOCKED: ATOM     37  H   UNL d   1      -0.906  38.178  -2.442 +0.02 +0.28    +0.295 HD
DOCKED: ENDBRANCH  34  36
DOCKED: ENDBRANCH  33  34
DOCKED: ENDBRANCH   7  33
DOCKED: BRANCH  27  38
DOCKED: ATOM     38  C   UNL d   1       7.826  34.135   1.372 -0.43 +0.00    +0.017 C 
DOCKED: ATOM     39  C   UNL d   1       8.371  32.910   1.417 -0.34 +0.01    +0.092 C 
DOCKED: BRANCH  39  40
DOCKED: ATOM     40  C   UNL d   1       9.351  32.585   2.457 -0.27 +0.02    +0.330 C 
DOCKED: ATOM     41  O   UNL d   1       9.227  31.797   3.375 -0.34 -0.01    -0.246 OA
DOCKED: BRANCH  40  42
DOCKED: ATOM     42  O   UNL d   1      10.477  33.291   2.267 -0.13 -0.04    -0.477 OA
DOCKED: ATOM     43  H   UNL d   1      10.420  33.578   1.333 +0.17 +0.04    +0.295 HD
DOCKED: ENDBRANCH  40  42
DOCKED: ENDBRANCH  39  40
DOCKED: ENDBRANCH  27  38
DOCKED: BRANCH   8  44
DOCKED: ATOM     44  C   UNL d   1       3.896  41.449  -5.709 -0.04 +0.03    +0.141 C 
DOCKED: BRANCH  44  45
DOCKED: ATOM     45  C   UNL d   1       4.524  42.529  -6.548 -0.04 +0.09    +0.306 C 
DOCKED: ATOM     46  O   UNL d   1       4.379  43.732  -6.413 -0.45 -0.12    -0.251 OA
DOCKED: BRANCH  45  47
DOCKED: ATOM     47  O   UNL d   1       5.288  42.033  -7.538 -0.08 -0.08    -0.481 OA
DOCKED: ATOM     48  H   UNL d   1       6.152  41.845  -7.114 +0.08 +0.03    +0.295 HD
DOCKED: ENDBRANCH  45  47
DOCKED: ENDBRANCH  44  45
DOCKED: ENDBRANCH   8  44
DOCKED: BRANCH  22  49
DOCKED: ATOM     49  C   UNL d   1      11.141  35.791  -2.818 -0.38 +0.00    +0.048 C 
DOCKED: BRANCH  49  50
DOCKED: ATOM     50  C   UNL d   1      12.072  36.337  -1.735 -0.36 +0.01    +0.125 C 
DOCKED: BRANCH  50  51
DOCKED: ATOM     51  C   UNL d   1      12.115  35.415  -0.550 -0.21 +0.03    +0.305 C 
DOCKED: ATOM     52  O   UNL d   1      13.080  34.814  -0.110 -0.25 -0.02    -0.251 OA
DOCKED: BRANCH  51  53
DOCKED: ATOM     53  O   UNL d   1      10.905  35.282   0.030 -0.47 -0.12    -0.481 OA
DOCKED: ATOM     54  H   UNL d   1      11.104  34.898   0.910 +0.17 +0.05    +0.295 HD
DOCKED: ENDBRANCH  51  53
DOCKED: ENDBRANCH  50  51
DOCKED: ENDBRANCH  49  50
DOCKED: ENDBRANCH  22  49
DOCKED: TORSDOF 13
DOCKED: TER
DOCKED: ENDMDL
________________________________________________________________________________


	BEGINNING GENETIC ALGORITHM DOCKING 32 of 100
Run: 32 Seed: 850670368 1736381695 [ Run 32 of 100 GA/GALS ]
Beginning LAMARCKIAN GENETIC ALGORITHM (LGA), with a maximum of 25000000 energy evaluations.

Final-Value: -10.551


	FINAL GENETIC ALGORITHM DOCKED STATE
	_______________________________________________


Detailed state:  trans 24.919 39.828 -5.348 quatxyzw -0.694499 -0.568389 -0.231205 0.375698 center 0.153 0.018 -0.028 ntor 13 -105.9012 180.0000 133.8480 -9.3828 41.8716 91.6546 -37.8880 -15.8013 134.0310 -119.8560 69.1746 -123.2780 119.0085
State:	 24.919  39.828  -5.348  -0.749 -0.613 -0.249 135.865   -105.90  180.00  133.85   -9.38   41.87   91.65  -37.89  -15.80  134.03 -119.86   69.17 -123.28  119.01

DOCKED: MODEL       32
DOCKED: USER    Run = 32
DOCKED: USER    DPF = D:/Protein_go_brrr/autodock/final/2DN3/heme/dock.dpf
DOCKED: USER  
DOCKED: USER    Estimated Free Energy of Binding    =   -2.72 kcal/mol  [=(1)+(2)+(3)-(4)]
DOCKED: USER    Estimated Inhibition Constant, Ki   =   10.17 mM (millimolar)  [Temperature = 298.15 K]
DOCKED: USER    
DOCKED: USER    (1) Final Intermolecular Energy     =   -6.60 kcal/mol
DOCKED: USER        vdW + Hbond + desolv Energy     =   -6.40 kcal/mol
DOCKED: USER        Electrostatic Energy            =   -0.20 kcal/mol
DOCKED: USER    (2) Final Total Internal Energy     =   -3.95 kcal/mol
DOCKED: USER    (3) Torsional Free Energy           =   +3.88 kcal/mol
DOCKED: USER    (4) Unbound System's Energy  [=(2)] =   -3.95 kcal/mol
DOCKED: USER    
DOCKED: USER    
DOCKED: USER    NEWDPF move heme_opt.pdbqt
DOCKED: USER    NEWDPF about 0.153000 0.018000 -0.028000
DOCKED: USER    NEWDPF tran0 24.918588 39.828057 -5.347656
DOCKED: USER    NEWDPF quaternion0 -0.694499 -0.568389 -0.231205 0.375698
DOCKED: USER    NEWDPF axisangle0 -0.749399 -0.613319 -0.249482 135.865054
DOCKED: USER    NEWDPF quat0 -0.749399 -0.613319 -0.249482 135.865054
DOCKED: USER    NEWDPF dihe0 -105.90 180.00 133.85 -9.38 41.87 91.65 -37.89 -15.80 134.03 -119.86 69.17 -123.28 119.01 
DOCKED: USER  keepresnum = 1 
DOCKED: USER  
DOCKED: REMARK  13 active torsions:
DOCKED: REMARK  status: ('A' for Active; 'I' for Inactive)
DOCKED: REMARK    1  A    between atoms: O_3  and  C_38 
DOCKED: REMARK    2  A    between atoms: O_4  and  C_40 
DOCKED: REMARK    3  A    between atoms: O_7  and  C_46 
DOCKED: REMARK    4  A    between atoms: O_9  and  C_48 
DOCKED: REMARK    5  A    between atoms: C_15  and  C_20 
DOCKED: REMARK    6  A    between atoms: C_16  and  C_23 
DOCKED: REMARK    7  A    between atoms: C_20  and  C_38 
DOCKED: REMARK    8  A    between atoms: C_23  and  C_40 
DOCKED: REMARK    9  A    between atoms: C_32  and  C_41 
DOCKED: REMARK   10  A    between atoms: C_37  and  C_45 
DOCKED: REMARK   11  A    between atoms: C_41  and  C_44 
DOCKED: REMARK   12  A    between atoms: C_44  and  C_46 
DOCKED: REMARK   13  A    between atoms: C_47  and  C_48 
DOCKED: USER                              x       y       z     vdW  Elec       q    Type
DOCKED: USER                           _______ _______ _______ _____ _____    ______ ____
DOCKED: ROOT
DOCKED: ATOM      1  O   UNL d   1      25.058  34.135  -3.824 -0.09 +0.04    -0.289 OA
DOCKED: ATOM      2  O   UNL d   1      20.097  38.025  -7.904 -0.40 -0.24    -0.289 OA
DOCKED: ATOM      3  N   UNL d   1      25.325  37.533  -4.347 -0.20 -0.01    -0.247 NA
DOCKED: ATOM      4  N   UNL d   1      23.140  38.101  -6.278 -0.12 -0.04    -0.247 NA
DOCKED: ATOM      5  N   UNL d   1      24.338  40.675  -6.735 -0.05 -0.07    -0.354 N 
DOCKED: ATOM      6  N   UNL d   1      26.612  40.070  -4.744 -0.10 -0.05    -0.354 N 
DOCKED: ATOM      7  C   UNL d   1      26.737  35.830  -3.292 -0.13 +0.00    +0.084 A 
DOCKED: ATOM      8  C   UNL d   1      21.222  36.586  -6.274 -0.25 +0.02    +0.084 A 
DOCKED: ATOM      9  C   UNL d   1      22.622  36.936  -5.758 -0.17 +0.01    +0.058 A 
DOCKED: ATOM     10  C   UNL d   1      26.522  37.292  -3.693 -0.21 +0.00    +0.058 A 
DOCKED: ATOM     11  C   UNL d   1      25.440  35.290  -3.817 -0.13 -0.01    +0.193 A 
DOCKED: ATOM     12  C   UNL d   1      24.663  36.424  -4.410 -0.20 -0.00    +0.109 A 
DOCKED: ATOM     13  C   UNL d   1      21.058  37.748  -7.213 -0.21 +0.07    +0.193 A 
DOCKED: ATOM     14  C   UNL d   1      27.891  35.185  -4.064 -0.05 +0.00    +0.026 C 
DOCKED: ATOM     15  C   UNL d   1      23.302  36.147  -4.911 -0.24 -0.00    +0.055 C 
DOCKED: ATOM     16  C   UNL d   1      20.167  36.692  -5.170 -0.44 +0.01    +0.026 C 
DOCKED: ATOM     17  C   UNL d   1      22.292  38.587  -7.127 -0.19 +0.03    +0.109 A 
DOCKED: ATOM     18  C   UNL d   1      27.399  38.253  -3.346 -0.20 +0.01    +0.050 C 
DOCKED: ATOM     19  C   UNL d   1      27.243  39.639  -3.599 -0.17 +0.01    +0.045 A 
DOCKED: ATOM     20  C   UNL d   1      23.406  40.667  -7.740 -0.13 +0.01    +0.045 A 
DOCKED: ATOM     21  C   UNL d   1      22.434  39.780  -7.975 -0.21 +0.02    +0.057 C 
DOCKED: ATOM     22  C   UNL d   1      24.739  42.505  -7.984 -0.06 -0.00    -0.019 A 
DOCKED: ATOM     23  C   UNL d   1      25.188  41.746  -6.800 -0.11 +0.01    +0.045 A 
DOCKED: ATOM     24  C   UNL d   1      23.683  41.862  -8.536 -0.08 -0.00    -0.022 A 
DOCKED: ATOM     25  C   UNL d   1      26.652  41.442  -4.832 -0.16 +0.01    +0.049 A 
DOCKED: ATOM     26  C   UNL d   1      27.672  40.761  -2.906 -0.14 -0.00    -0.018 A 
DOCKED: ATOM     27  C   UNL d   1      27.279  41.897  -3.680 -0.16 +0.00    +0.003 A 
DOCKED: ATOM     28  C   UNL d   1      26.204  42.111  -6.002 -0.11 +0.01    +0.052 C 
DOCKED: ATOM     29  C   UNL d   1      22.881  42.242  -9.734 -0.08 +0.01    +0.046 C 
DOCKED: ATOM     30  C   UNL d   1      28.399  40.780  -1.605 -0.12 +0.01    +0.046 C 
DOCKED: ATOM     31  H   UNL d   1      24.316  39.984  -5.993 +0.05 +0.04    +0.166 HD
DOCKED: ATOM     32  H   UNL d   1      26.216  39.443  -5.435 +0.03 +0.02    +0.166 HD
DOCKED: ENDROOT
DOCKED: BRANCH   7  33
DOCKED: ATOM     33  C   UNL d   1      26.855  35.573  -1.785 -0.17 +0.01    +0.141 C 
DOCKED: BRANCH  33  34
DOCKED: ATOM     34  C   UNL d   1      27.105  34.124  -1.463 -0.07 +0.05    +0.306 C 
DOCKED: ATOM     35  O   UNL d   1      28.190  33.609  -1.256 -0.06 -0.10    -0.251 OA
DOCKED: BRANCH  34  36
DOCKED: ATOM     36  O   UNL d   1      25.972  33.401  -1.415 -0.04 -0.01    -0.481 OA
DOCKED: ATOM     37  H   UNL d   1      25.684  33.332  -2.350 +0.12 -0.02    +0.295 HD
DOCKED: ENDBRANCH  34  36
DOCKED: ENDBRANCH  33  34
DOCKED: ENDBRANCH   7  33
DOCKED: BRANCH  27  38
DOCKED: ATOM     38  C   UNL d   1      27.539  43.262  -3.333 -0.13 +0.00    +0.017 C 
DOCKED: ATOM     39  C   UNL d   1      28.598  43.976  -3.744 -0.03 +0.02    +0.092 C 
DOCKED: BRANCH  39  40
DOCKED: ATOM     40  C   UNL d   1      28.740  45.375  -3.330 +0.00 +0.07    +0.330 C 
DOCKED: ATOM     41  O   UNL d   1      29.298  45.804  -2.338 -0.01 -0.07    -0.246 OA
DOCKED: BRANCH  40  42
DOCKED: ATOM     42  O   UNL d   1      28.157  46.183  -4.228 +0.01 -0.08    -0.477 OA
DOCKED: ATOM     43  H   UNL d   1      27.806  45.568  -4.905 +0.02 +0.04    +0.295 HD
DOCKED: ENDBRANCH  40  42
DOCKED: ENDBRANCH  39  40
DOCKED: ENDBRANCH  27  38
DOCKED: BRANCH   8  44
DOCKED: ATOM     44  C   UNL d   1      21.109  35.255  -7.024 -0.23 +0.02    +0.141 C 
DOCKED: BRANCH  44  45
DOCKED: ATOM     45  C   UNL d   1      19.787  35.077  -7.722 -0.23 +0.08    +0.306 C 
DOCKED: ATOM     46  O   UNL d   1      18.745  34.695  -7.218 -0.77 -0.07    -0.251 OA
DOCKED: BRANCH  45  47
DOCKED: ATOM     47  O   UNL d   1      19.855  35.365  -9.034 -0.08 -0.22    -0.481 OA
DOCKED: ATOM     48  H   UNL d   1      20.335  36.219  -9.076 +0.11 +0.18    +0.295 HD
DOCKED: ENDBRANCH  45  47
DOCKED: ENDBRANCH  44  45
DOCKED: ENDBRANCH   8  44
DOCKED: BRANCH  22  49
DOCKED: ATOM     49  C   UNL d   1      25.388  43.768  -8.471 -0.02 +0.01    +0.048 C 
DOCKED: BRANCH  49  50
DOCKED: ATOM     50  C   UNL d   1      26.902  43.746  -8.266 -0.01 +0.01    +0.125 C 
DOCKED: BRANCH  50  51
DOCKED: ATOM     51  C   UNL d   1      27.313  44.714  -7.193 -0.00 +0.03    +0.305 C 
DOCKED: ATOM     52  O   UNL d   1      26.697  45.688  -6.796 -0.00 -0.02    -0.251 OA
DOCKED: BRANCH  51  53
DOCKED: ATOM     53  O   UNL d   1      28.516  44.406  -6.669 +0.00 -0.06    -0.481 OA
DOCKED: ATOM     54  H   UNL d   1      28.739  45.182  -6.114 +0.00 +0.04    +0.295 HD
DOCKED: ENDBRANCH  51  53
DOCKED: ENDBRANCH  50  51
DOCKED: ENDBRANCH  49  50
DOCKED: ENDBRANCH  22  49
DOCKED: TORSDOF 13
DOCKED: TER
DOCKED: ENDMDL
________________________________________________________________________________


	BEGINNING GENETIC ALGORITHM DOCKING 33 of 100
Run: 33 Seed: 1221215607 760547545 [ Run 33 of 100 GA/GALS ]
Beginning LAMARCKIAN GENETIC ALGORITHM (LGA), with a maximum of 25000000 energy evaluations.

Final-Value: -9.832


	FINAL GENETIC ALGORITHM DOCKED STATE
	_______________________________________________


Detailed state:  trans 14.368 27.514 -14.442 quatxyzw 0.134311 -0.343663 -0.868330 -0.331451 center 0.153 0.018 -0.028 ntor 13 179.7826 167.1248 -142.9662 54.9931 55.8557 117.9925 128.4391 77.0469 161.1910 -11.4196 -57.7901 -167.4493 19.6344
State:	 14.368  27.514 -14.442   0.142 -0.364 -0.920 -141.286    179.78  167.12 -142.97   54.99   55.86  117.99  128.44   77.05  161.19  -11.42  -57.79 -167.45   19.63

DOCKED: MODEL       33
DOCKED: USER    Run = 33
DOCKED: USER    DPF = D:/Protein_go_brrr/autodock/final/2DN3/heme/dock.dpf
DOCKED: USER  
DOCKED: USER    Estimated Free Energy of Binding    =   -2.14 kcal/mol  [=(1)+(2)+(3)-(4)]
DOCKED: USER    Estimated Inhibition Constant, Ki   =   26.80 mM (millimolar)  [Temperature = 298.15 K]
DOCKED: USER    
DOCKED: USER    (1) Final Intermolecular Energy     =   -6.02 kcal/mol
DOCKED: USER        vdW + Hbond + desolv Energy     =   -5.93 kcal/mol
DOCKED: USER        Electrostatic Energy            =   -0.09 kcal/mol
DOCKED: USER    (2) Final Total Internal Energy     =   -3.81 kcal/mol
DOCKED: USER    (3) Torsional Free Energy           =   +3.88 kcal/mol
DOCKED: USER    (4) Unbound System's Energy  [=(2)] =   -3.81 kcal/mol
DOCKED: USER    
DOCKED: USER    
DOCKED: USER    NEWDPF move heme_opt.pdbqt
DOCKED: USER    NEWDPF about 0.153000 0.018000 -0.028000
DOCKED: USER    NEWDPF tran0 14.367635 27.514217 -14.442060
DOCKED: USER    NEWDPF quaternion0 0.134311 -0.343663 -0.868330 -0.331451
DOCKED: USER    NEWDPF axisangle0 0.142358 -0.364253 -0.920355 -141.286308
DOCKED: USER    NEWDPF quat0 0.142358 -0.364253 -0.920355 -141.286308
DOCKED: USER    NEWDPF dihe0 179.78 167.12 -142.97 54.99 55.86 117.99 128.44 77.05 161.19 -11.42 -57.79 -167.45 19.63 
DOCKED: USER  keepresnum = 1 
DOCKED: USER  
DOCKED: REMARK  13 active torsions:
DOCKED: REMARK  status: ('A' for Active; 'I' for Inactive)
DOCKED: REMARK    1  A    between atoms: O_3  and  C_38 
DOCKED: REMARK    2  A    between atoms: O_4  and  C_40 
DOCKED: REMARK    3  A    between atoms: O_7  and  C_46 
DOCKED: REMARK    4  A    between atoms: O_9  and  C_48 
DOCKED: REMARK    5  A    between atoms: C_15  and  C_20 
DOCKED: REMARK    6  A    between atoms: C_16  and  C_23 
DOCKED: REMARK    7  A    between atoms: C_20  and  C_38 
DOCKED: REMARK    8  A    between atoms: C_23  and  C_40 
DOCKED: REMARK    9  A    between atoms: C_32  and  C_41 
DOCKED: REMARK   10  A    between atoms: C_37  and  C_45 
DOCKED: REMARK   11  A    between atoms: C_41  and  C_44 
DOCKED: REMARK   12  A    between atoms: C_44  and  C_46 
DOCKED: REMARK   13  A    between atoms: C_47  and  C_48 
DOCKED: USER                              x       y       z     vdW  Elec       q    Type
DOCKED: USER                           _______ _______ _______ _____ _____    ______ ____
DOCKED: ROOT
DOCKED: ATOM      1  O   UNL d   1      19.061  30.672 -12.782 -0.06 +0.02    -0.289 OA
DOCKED: ATOM      2  O   UNL d   1      14.731  31.124 -18.900 -0.01 -0.00    -0.289 OA
DOCKED: ATOM      3  N   UNL d   1      16.464  28.487 -13.398 -0.14 +0.03    -0.247 NA
DOCKED: ATOM      4  N   UNL d   1      15.182  29.619 -15.828 -0.05 +0.03    -0.247 NA
DOCKED: ATOM      5  N   UNL d   1      12.940  27.886 -15.339 -0.02 +0.07    -0.354 N 
DOCKED: ATOM      6  N   UNL d   1      14.270  26.731 -12.809 -0.15 +0.16    -0.354 N 
DOCKED: ATOM      7  C   UNL d   1      17.995  28.868 -11.522 -0.23 -0.01    +0.084 A 
DOCKED: ATOM      8  C   UNL d   1      16.585  30.961 -17.311 -0.03 -0.00    +0.084 A 
DOCKED: ATOM      9  C   UNL d   1      16.423  30.191 -15.996 -0.10 -0.00    +0.058 A 
DOCKED: ATOM     10  C   UNL d   1      16.823  28.086 -12.122 -0.24 -0.01    +0.058 A 
DOCKED: ATOM     11  C   UNL d   1      18.247  29.771 -12.692 -0.11 -0.02    +0.193 A 
DOCKED: ATOM     12  C   UNL d   1      17.272  29.425 -13.774 -0.12 -0.01    +0.109 A 
DOCKED: ATOM     13  C   UNL d   1      15.195  30.751 -17.841 -0.03 -0.00    +0.193 A 
DOCKED: ATOM     14  C   UNL d   1      17.565  29.719 -10.324 -0.35 -0.01    +0.026 C 
DOCKED: ATOM     15  C   UNL d   1      17.390  30.127 -15.068 -0.12 -0.00    +0.055 C 
DOCKED: ATOM     16  C   UNL d   1      17.580  30.274 -18.252 -0.01 -0.00    +0.026 C 
DOCKED: ATOM     17  C   UNL d   1      14.443  29.929 -16.845 -0.07 -0.01    +0.109 A 
DOCKED: ATOM     18  C   UNL d   1      16.271  27.042 -11.476 -0.22 -0.01    +0.050 C 
DOCKED: ATOM     19  C   UNL d   1      15.243  26.209 -11.987 -0.28 -0.02    +0.045 A 
DOCKED: ATOM     20  C   UNL d   1      12.417  28.672 -16.332 -0.09 -0.00    +0.045 A 
DOCKED: ATOM     21  C   UNL d   1      13.029  29.599 -17.077 -0.09 -0.00    +0.057 C 
DOCKED: ATOM     22  C   UNL d   1      10.767  27.322 -15.514 -0.14 +0.00    -0.019 A 
DOCKED: ATOM     23  C   UNL d   1      12.019  27.038 -14.784 -0.18 -0.01    +0.045 A 
DOCKED: ATOM     24  C   UNL d   1      11.009  28.290 -16.429 -0.10 +0.00    -0.022 A 
DOCKED: ATOM     25  C   UNL d   1      13.329  25.775 -13.111 -0.16 -0.04    +0.049 A 
DOCKED: ATOM     26  C   UNL d   1      14.947  24.870 -11.781 -0.27 +0.01    -0.018 A 
DOCKED: ATOM     27  C   UNL d   1      13.748  24.597 -12.509 -0.17 -0.00    +0.003 A 
DOCKED: ATOM     28  C   UNL d   1      12.143  26.116 -13.818 -0.22 -0.03    +0.052 C 
DOCKED: ATOM     29  C   UNL d   1      10.069  28.904 -17.409 -0.05 +0.00    +0.046 C 
DOCKED: ATOM     30  C   UNL d   1      15.730  23.902 -10.960 -0.31 -0.02    +0.046 C 
DOCKED: ATOM     31  H   UNL d   1      13.931  27.901 -15.122 +0.04 -0.03    +0.166 HD
DOCKED: ATOM     32  H   UNL d   1      14.246  27.700 -13.104 +0.06 -0.06    +0.166 HD
DOCKED: ENDROOT
DOCKED: BRANCH   7  33
DOCKED: ATOM     33  C   UNL d   1      19.244  28.040 -11.204 -0.14 -0.03    +0.141 C 
DOCKED: BRANCH  33  34
DOCKED: ATOM     34  C   UNL d   1      20.040  28.608 -10.060 -0.12 -0.10    +0.306 C 
DOCKED: ATOM     35  O   UNL d   1      20.154  28.119  -8.949 -0.24 +0.12    -0.251 OA
DOCKED: BRANCH  34  36
DOCKED: ATOM     36  O   UNL d   1      20.652  29.762 -10.377 -0.01 +0.16    -0.481 OA
DOCKED: ATOM     37  H   UNL d   1      20.439  29.903 -11.324 +0.08 -0.06    +0.295 HD
DOCKED: ENDBRANCH  34  36
DOCKED: ENDBRANCH  33  34
DOCKED: ENDBRANCH   7  33
DOCKED: BRANCH  27  38
DOCKED: ATOM     38  C   UNL d   1      13.082  23.330 -12.556 -0.13 -0.01    +0.017 C 
DOCKED: ATOM     39  C   UNL d   1      12.771  22.579 -11.488 -0.21 -0.08    +0.092 C 
DOCKED: BRANCH  39  40
DOCKED: ATOM     40  C   UNL d   1      12.070  21.305 -11.671 -0.10 -0.06    +0.330 C 
DOCKED: ATOM     41  O   UNL d   1      12.477  20.189 -11.413 -0.13 +0.03    -0.246 OA
DOCKED: BRANCH  40  42
DOCKED: ATOM     42  O   UNL d   1      10.847  21.520 -12.180 -0.35 -0.07    -0.477 OA
DOCKED: ATOM     43  H   UNL d   1      10.716  22.485 -12.077 +0.00 -0.15    +0.295 HD
DOCKED: ENDBRANCH  40  42
DOCKED: ENDBRANCH  39  40
DOCKED: ENDBRANCH  27  38
DOCKED: BRANCH   8  44
DOCKED: ATOM     44  C   UNL d   1      16.898  32.454 -17.168 -0.03 +0.00    +0.141 C 
DOCKED: BRANCH  44  45
DOCKED: ATOM     45  C   UNL d   1      15.821  33.220 -16.447 -0.06 +0.00    +0.306 C 
DOCKED: ATOM     46  O   UNL d   1      15.694  33.334 -15.241 -0.12 +0.00    -0.251 OA
DOCKED: BRANCH  45  47
DOCKED: ATOM     47  O   UNL d   1      14.939  33.785 -17.291 -0.01 -0.01    -0.481 OA
DOCKED: ATOM     48  H   UNL d   1      14.846  33.137 -18.022 +0.02 +0.01    +0.295 HD
DOCKED: ENDBRANCH  45  47
DOCKED: ENDBRANCH  44  45
DOCKED: ENDBRANCH   8  44
DOCKED: BRANCH  22  49
DOCKED: ATOM     49  C   UNL d   1       9.459  26.639 -15.240 -0.14 -0.00    +0.048 C 
DOCKED: BRANCH  49  50
DOCKED: ATOM     50  C   UNL d   1       9.526  25.142 -15.539 -0.05 -0.02    +0.125 C 
DOCKED: BRANCH  50  51
DOCKED: ATOM     51  C   UNL d   1       9.156  24.336 -14.326 -0.07 -0.10    +0.305 C 
DOCKED: ATOM     52  O   UNL d   1       8.054  24.217 -13.820 -0.10 +0.07    -0.251 OA
DOCKED: BRANCH  51  53
DOCKED: ATOM     53  O   UNL d   1      10.224  23.713 -13.790 -0.06 +0.28    -0.481 OA
DOCKED: ATOM     54  H   UNL d   1       9.957  22.770 -13.754 +0.06 -0.09    +0.295 HD
DOCKED: ENDBRANCH  51  53
DOCKED: ENDBRANCH  50  51
DOCKED: ENDBRANCH  49  50
DOCKED: ENDBRANCH  22  49
DOCKED: TORSDOF 13
DOCKED: TER
DOCKED: ENDMDL
________________________________________________________________________________


	BEGINNING GENETIC ALGORITHM DOCKING 34 of 100
Run: 34 Seed: 1765449209 12006700 [ Run 34 of 100 GA/GALS ]
Beginning LAMARCKIAN GENETIC ALGORITHM (LGA), with a maximum of 25000000 energy evaluations.

Final-Value: -8.894


	FINAL GENETIC ALGORITHM DOCKED STATE
	_______________________________________________


Detailed state:  trans 46.100 34.185 -0.198 quatxyzw -0.940962 -0.112024 -0.282467 -0.149178 center 0.153 0.018 -0.028 ntor 13 150.4556 -85.9599 -110.3145 -88.4696 -139.1842 3.6402 121.2434 -65.8670 18.5528 -31.8655 146.1195 170.5923 -176.9499
State:	 46.100  34.185  -0.198  -0.952 -0.113 -0.286 -162.841    150.46  -85.96 -110.31  -88.47 -139.18    3.64  121.24  -65.87   18.55  -31.87  146.12  170.59 -176.95

DOCKED: MODEL       34
DOCKED: USER    Run = 34
DOCKED: USER    DPF = D:/Protein_go_brrr/autodock/final/2DN3/heme/dock.dpf
DOCKED: USER  
DOCKED: USER    Estimated Free Energy of Binding    =   -2.29 kcal/mol  [=(1)+(2)+(3)-(4)]
DOCKED: USER    Estimated Inhibition Constant, Ki   =   20.82 mM (millimolar)  [Temperature = 298.15 K]
DOCKED: USER    
DOCKED: USER    (1) Final Intermolecular Energy     =   -6.17 kcal/mol
DOCKED: USER        vdW + Hbond + desolv Energy     =   -6.11 kcal/mol
DOCKED: USER        Electrostatic Energy            =   -0.06 kcal/mol
DOCKED: USER    (2) Final Total Internal Energy     =   -2.72 kcal/mol
DOCKED: USER    (3) Torsional Free Energy           =   +3.88 kcal/mol
DOCKED: USER    (4) Unbound System's Energy  [=(2)] =   -2.72 kcal/mol
DOCKED: USER    
DOCKED: USER    
DOCKED: USER    NEWDPF move heme_opt.pdbqt
DOCKED: USER    NEWDPF about 0.153000 0.018000 -0.028000
DOCKED: USER    NEWDPF tran0 46.099847 34.184861 -0.198067
DOCKED: USER    NEWDPF quaternion0 -0.940962 -0.112024 -0.282467 -0.149178
DOCKED: USER    NEWDPF axisangle0 -0.951610 -0.113292 -0.285664 -162.841409
DOCKED: USER    NEWDPF quat0 -0.951610 -0.113292 -0.285664 -162.841409
DOCKED: USER    NEWDPF dihe0 150.46 -85.96 -110.31 -88.47 -139.18 3.64 121.24 -65.87 18.55 -31.87 146.12 170.59 -176.95 
DOCKED: USER  keepresnum = 1 
DOCKED: USER  
DOCKED: REMARK  13 active torsions:
DOCKED: REMARK  status: ('A' for Active; 'I' for Inactive)
DOCKED: REMARK    1  A    between atoms: O_3  and  C_38 
DOCKED: REMARK    2  A    between atoms: O_4  and  C_40 
DOCKED: REMARK    3  A    between atoms: O_7  and  C_46 
DOCKED: REMARK    4  A    between atoms: O_9  and  C_48 
DOCKED: REMARK    5  A    between atoms: C_15  and  C_20 
DOCKED: REMARK    6  A    between atoms: C_16  and  C_23 
DOCKED: REMARK    7  A    between atoms: C_20  and  C_38 
DOCKED: REMARK    8  A    between atoms: C_23  and  C_40 
DOCKED: REMARK    9  A    between atoms: C_32  and  C_41 
DOCKED: REMARK   10  A    between atoms: C_37  and  C_45 
DOCKED: REMARK   11  A    between atoms: C_41  and  C_44 
DOCKED: REMARK   12  A    between atoms: C_44  and  C_46 
DOCKED: REMARK   13  A    between atoms: C_47  and  C_48 
DOCKED: USER                              x       y       z     vdW  Elec       q    Type
DOCKED: USER                           _______ _______ _______ _____ _____    ______ ____
DOCKED: ROOT
DOCKED: ATOM      1  O   UNL d   1      42.346  32.126  -4.251 -0.00 -0.02    -0.289 OA
DOCKED: ATOM      2  O   UNL d   1      41.717  37.814   0.611 -0.14 -0.06    -0.289 OA
DOCKED: ATOM      3  N   UNL d   1      44.790  32.887  -1.939 -0.06 +0.02    -0.247 NA
DOCKED: ATOM      4  N   UNL d   1      43.807  35.406  -0.710 -0.08 -0.03    -0.247 NA
DOCKED: ATOM      5  N   UNL d   1      46.420  35.757   0.438 -0.10 -0.05    -0.354 N 
DOCKED: ATOM      6  N   UNL d   1      47.437  33.152  -0.858 -0.07 +0.01    -0.354 N 
DOCKED: ATOM      7  C   UNL d   1      44.607  31.310  -3.807 -0.05 +0.00    +0.084 A 
DOCKED: ATOM      8  C   UNL d   1      41.395  35.797  -0.737 -0.14 +0.01    +0.084 A 
DOCKED: ATOM      9  C   UNL d   1      42.593  34.941  -1.163 -0.14 +0.01    +0.058 A 
DOCKED: ATOM     10  C   UNL d   1      45.438  31.899  -2.663 -0.13 -0.00    +0.058 A 
DOCKED: ATOM     11  C   UNL d   1      43.369  32.126  -3.590 -0.02 +0.01    +0.193 A 
DOCKED: ATOM     12  C   UNL d   1      43.595  33.025  -2.414 -0.10 +0.00    +0.109 A 
DOCKED: ATOM     13  C   UNL d   1      42.158  36.854   0.010 -0.12 +0.04    +0.193 A 
DOCKED: ATOM     14  C   UNL d   1      45.193  31.654  -5.179 -0.02 +0.00    +0.026 C 
DOCKED: ATOM     15  C   UNL d   1      42.470  33.863  -1.952 -0.13 +0.00    +0.055 C 
DOCKED: ATOM     16  C   UNL d   1      40.488  35.054   0.249 -0.31 +0.00    +0.026 C 
DOCKED: ATOM     17  C   UNL d   1      43.609  36.505  -0.054 +0.04 +0.02    +0.109 A 
DOCKED: ATOM     18  C   UNL d   1      46.655  31.414  -2.356 -0.21 -0.00    +0.050 C 
DOCKED: ATOM     19  C   UNL d   1      47.459  31.838  -1.267 -0.25 -0.00    +0.045 A 
DOCKED: ATOM     20  C   UNL d   1      45.870  36.980   0.725 -0.17 +0.01    +0.045 A 
DOCKED: ATOM     21  C   UNL d   1      44.609  37.392   0.559 -0.09 +0.01    +0.057 C 
DOCKED: ATOM     22  C   UNL d   1      48.085  37.016   1.284 -0.14 -0.01    -0.019 A 
DOCKED: ATOM     23  C   UNL d   1      47.753  35.684   0.741 -0.19 +0.01    +0.045 A 
DOCKED: ATOM     24  C   UNL d   1      46.965  37.778   1.274 -0.15 -0.01    -0.022 A 
DOCKED: ATOM     25  C   UNL d   1      48.353  33.360   0.147 -0.21 +0.01    +0.049 A 
DOCKED: ATOM     26  C   UNL d   1      48.385  31.167  -0.483 -0.34 -0.00    -0.018 A 
DOCKED: ATOM     27  C   UNL d   1      48.932  32.129   0.421 -0.32 +0.00    +0.003 A 
DOCKED: ATOM     28  C   UNL d   1      48.626  34.671   0.625 -0.20 +0.01    +0.052 C 
DOCKED: ATOM     29  C   UNL d   1      46.791  39.186   1.732 -0.16 +0.01    +0.046 C 
DOCKED: ATOM     30  C   UNL d   1      48.740  29.721  -0.566 +0.30 +0.00    +0.046 C 
DOCKED: ATOM     31  H   UNL d   1      45.847  34.987   0.112 -0.30 -0.02    +0.166 HD
DOCKED: ATOM     32  H   UNL d   1      46.850  33.861  -1.281 -0.06 -0.01    +0.166 HD
DOCKED: ENDROOT
DOCKED: BRANCH   7  33
DOCKED: ATOM     33  C   UNL d   1      44.294  29.815  -3.689 -0.09 +0.01    +0.141 C 
DOCKED: BRANCH  33  34
DOCKED: ATOM     34  C   UNL d   1      43.390  29.503  -2.527 -0.13 +0.02    +0.306 C 
DOCKED: ATOM     35  O   UNL d   1      43.737  29.318  -1.373 -0.28 -0.01    -0.251 OA
DOCKED: BRANCH  34  36
DOCKED: ATOM     36  O   UNL d   1      42.093  29.442  -2.880 -0.00 -0.04    -0.481 OA
DOCKED: ATOM     37  H   UNL d   1      42.007  30.090  -3.612 +0.04 +0.02    +0.295 HD
DOCKED: ENDBRANCH  34  36
DOCKED: ENDBRANCH  33  34
DOCKED: ENDBRANCH   7  33
DOCKED: BRANCH  27  38
DOCKED: ATOM     38  C   UNL d   1      49.941  31.860   1.401 -0.36 +0.00    +0.017 C 
DOCKED: ATOM     39  C   UNL d   1      50.870  30.896   1.311 -0.32 +0.03    +0.092 C 
DOCKED: BRANCH  39  40
DOCKED: ATOM     40  C   UNL d   1      51.861  30.735   2.379 -0.15 +0.14    +0.330 C 
DOCKED: ATOM     41  O   UNL d   1      51.953  31.373   3.410 -0.21 -0.04    -0.246 OA
DOCKED: BRANCH  40  42
DOCKED: ATOM     42  O   UNL d   1      52.705  29.736   2.079 -0.49 -0.39    -0.477 OA
DOCKED: ATOM     43  H   UNL d   1      53.457  30.187   1.644 +0.08 +0.17    +0.295 HD
DOCKED: ENDBRANCH  40  42
DOCKED: ENDBRANCH  39  40
DOCKED: ENDBRANCH  27  38
DOCKED: BRANCH   8  44
DOCKED: ATOM     44  C   UNL d   1      40.583  36.412  -1.882 -0.05 +0.02    +0.141 C 
DOCKED: BRANCH  44  45
DOCKED: ATOM     45  C   UNL d   1      41.194  37.672  -2.434 -0.01 +0.04    +0.306 C 
DOCKED: ATOM     46  O   UNL d   1      42.149  37.746  -3.188 -0.01 -0.03    -0.251 OA
DOCKED: BRANCH  45  47
DOCKED: ATOM     47  O   UNL d   1      40.582  38.782  -1.983 -0.00 -0.07    -0.481 OA
DOCKED: ATOM     48  H   UNL d   1      40.813  38.822  -1.031 +0.05 +0.05    +0.295 HD
DOCKED: ENDBRANCH  45  47
DOCKED: ENDBRANCH  44  45
DOCKED: ENDBRANCH   8  44
DOCKED: BRANCH  22  49
DOCKED: ATOM     49  C   UNL d   1      49.454  37.421   1.745 -0.10 +0.02    +0.048 C 
DOCKED: BRANCH  49  50
DOCKED: ATOM     50  C   UNL d   1      50.191  38.240   0.685 -0.02 +0.02    +0.125 C 
DOCKED: BRANCH  50  51
DOCKED: ATOM     51  C   UNL d   1      49.811  37.794  -0.698 +0.00 +0.04    +0.305 C 
DOCKED: ATOM     52  O   UNL d   1      50.128  36.760  -1.259 -0.00 -0.03    -0.251 OA
DOCKED: BRANCH  51  53
DOCKED: ATOM     53  O   UNL d   1      49.039  38.703  -1.326 +0.00 -0.06    -0.481 OA
DOCKED: ATOM     54  H   UNL d   1      49.680  39.272  -1.801 +0.00 +0.03    +0.295 HD
DOCKED: ENDBRANCH  51  53
DOCKED: ENDBRANCH  50  51
DOCKED: ENDBRANCH  49  50
DOCKED: ENDBRANCH  22  49
DOCKED: TORSDOF 13
DOCKED: TER
DOCKED: ENDMDL
________________________________________________________________________________


	BEGINNING GENETIC ALGORITHM DOCKING 35 of 100
Run: 35 Seed: 981906053 667128984 [ Run 35 of 100 GA/GALS ]
Beginning LAMARCKIAN GENETIC ALGORITHM (LGA), with a maximum of 25000000 energy evaluations.

Final-Value: -11.145


	FINAL GENETIC ALGORITHM DOCKED STATE
	_______________________________________________


Detailed state:  trans 38.174 14.076 23.179 quatxyzw -0.112357 -0.764831 -0.630251 0.072064 center 0.153 0.018 -0.028 ntor 13 -107.1429 178.3813 -152.0841 11.6954 34.7550 -73.3882 131.2343 -180.0000 132.5156 -14.4195 70.6656 -0.6905 114.6510
State:	 38.174  14.076  23.179  -0.113 -0.767 -0.632 171.735   -107.14  178.38 -152.08   11.70   34.76  -73.39  131.23 -180.00  132.52  -14.42   70.67   -0.69  114.65

DOCKED: MODEL       35
DOCKED: USER    Run = 35
DOCKED: USER    DPF = D:/Protein_go_brrr/autodock/final/2DN3/heme/dock.dpf
DOCKED: USER  
DOCKED: USER    Estimated Free Energy of Binding    =   -3.09 kcal/mol  [=(1)+(2)+(3)-(4)]
DOCKED: USER    Estimated Inhibition Constant, Ki   =    5.41 mM (millimolar)  [Temperature = 298.15 K]
DOCKED: USER    
DOCKED: USER    (1) Final Intermolecular Energy     =   -6.97 kcal/mol
DOCKED: USER        vdW + Hbond + desolv Energy     =   -6.89 kcal/mol
DOCKED: USER        Electrostatic Energy            =   -0.08 kcal/mol
DOCKED: USER    (2) Final Total Internal Energy     =   -4.18 kcal/mol
DOCKED: USER    (3) Torsional Free Energy           =   +3.88 kcal/mol
DOCKED: USER    (4) Unbound System's Energy  [=(2)] =   -4.18 kcal/mol
DOCKED: USER    
DOCKED: USER    
DOCKED: USER    NEWDPF move heme_opt.pdbqt
DOCKED: USER    NEWDPF about 0.153000 0.018000 -0.028000
DOCKED: USER    NEWDPF tran0 38.174461 14.076018 23.179254
DOCKED: USER    NEWDPF quaternion0 -0.112357 -0.764831 -0.630251 0.072064
DOCKED: USER    NEWDPF axisangle0 -0.112650 -0.766825 -0.631894 171.734855
DOCKED: USER    NEWDPF quat0 -0.112650 -0.766825 -0.631894 171.734855
DOCKED: USER    NEWDPF dihe0 -107.14 178.38 -152.08 11.70 34.76 -73.39 131.23 -180.00 132.52 -14.42 70.67 -0.69 114.65 
DOCKED: USER  keepresnum = 1 
DOCKED: USER  
DOCKED: REMARK  13 active torsions:
DOCKED: REMARK  status: ('A' for Active; 'I' for Inactive)
DOCKED: REMARK    1  A    between atoms: O_3  and  C_38 
DOCKED: REMARK    2  A    between atoms: O_4  and  C_40 
DOCKED: REMARK    3  A    between atoms: O_7  and  C_46 
DOCKED: REMARK    4  A    between atoms: O_9  and  C_48 
DOCKED: REMARK    5  A    between atoms: C_15  and  C_20 
DOCKED: REMARK    6  A    between atoms: C_16  and  C_23 
DOCKED: REMARK    7  A    between atoms: C_20  and  C_38 
DOCKED: REMARK    8  A    between atoms: C_23  and  C_40 
DOCKED: REMARK    9  A    between atoms: C_32  and  C_41 
DOCKED: REMARK   10  A    between atoms: C_37  and  C_45 
DOCKED: REMARK   11  A    between atoms: C_41  and  C_44 
DOCKED: REMARK   12  A    between atoms: C_44  and  C_46 
DOCKED: REMARK   13  A    between atoms: C_47  and  C_48 
DOCKED: USER                              x       y       z     vdW  Elec       q    Type
DOCKED: USER                           _______ _______ _______ _____ _____    ______ ____
DOCKED: ROOT
DOCKED: ATOM      1  O   UNL d   1      43.886  13.521  24.532 -0.03 -0.02    -0.289 OA
DOCKED: ATOM      2  O   UNL d   1      39.946  11.007  18.654 -0.03 -0.03    -0.289 OA
DOCKED: ATOM      3  N   UNL d   1      40.481  13.982  24.230 -0.09 +0.05    -0.247 NA
DOCKED: ATOM      4  N   UNL d   1      39.890  12.944  21.509 -0.07 +0.01    -0.247 NA
DOCKED: ATOM      5  N   UNL d   1      37.311  14.203  21.690 -0.09 +0.04    -0.354 N 
DOCKED: ATOM      6  N   UNL d   1      37.940  15.293  24.504 -0.15 +0.14    -0.354 N 
DOCKED: ATOM      7  C   UNL d   1      42.197  14.750  25.803 -0.14 -0.00    +0.084 A 
DOCKED: ATOM      8  C   UNL d   1      41.404  11.253  20.605 -0.06 +0.01    +0.084 A 
DOCKED: ATOM      9  C   UNL d   1      41.061  12.249  21.717 -0.12 +0.00    +0.058 A 
DOCKED: ATOM     10  C   UNL d   1      40.730  14.739  25.363 -0.19 -0.01    +0.058 A 
DOCKED: ATOM     11  C   UNL d   1      42.730  13.850  24.728 -0.08 +0.00    +0.193 A 
DOCKED: ATOM     12  C   UNL d   1      41.589  13.431  23.854 -0.12 -0.01    +0.109 A 
DOCKED: ATOM     13  C   UNL d   1      40.231  11.538  19.710 -0.07 +0.02    +0.193 A 
DOCKED: ATOM     14  C   UNL d   1      42.833  16.134  25.649 -0.18 +0.00    +0.026 C 
DOCKED: ATOM     15  C   UNL d   1      41.860  12.461  22.774 -0.12 +0.00    +0.055 C 
DOCKED: ATOM     16  C   UNL d   1      41.311   9.804  21.092 -0.02 +0.00    +0.026 C 
DOCKED: ATOM     17  C   UNL d   1      39.394  12.586  20.369 -0.09 +0.01    +0.109 A 
DOCKED: ATOM     18  C   UNL d   1      39.774  15.348  26.089 -0.28 -0.01    +0.050 C 
DOCKED: ATOM     19  C   UNL d   1      38.384  15.321  25.807 -0.27 -0.01    +0.045 A 
DOCKED: ATOM     20  C   UNL d   1      37.307  13.846  20.367 -0.16 +0.00    +0.045 A 
DOCKED: ATOM     21  C   UNL d   1      38.191  13.099  19.697 -0.00 +0.01    +0.057 C 
DOCKED: ATOM     22  C   UNL d   1      35.466  15.130  20.791 -0.23 -0.00    -0.019 A 
DOCKED: ATOM     23  C   UNL d   1      36.239  14.980  22.040 -0.24 -0.01    +0.045 A 
DOCKED: ATOM     24  C   UNL d   1      36.102  14.455  19.804 -0.21 -0.00    -0.022 A 
DOCKED: ATOM     25  C   UNL d   1      36.567  15.362  24.460 -0.25 -0.02    +0.049 A 
DOCKED: ATOM     26  C   UNL d   1      37.271  15.372  26.631 -0.22 +0.01    -0.018 A 
DOCKED: ATOM     27  C   UNL d   1      36.126  15.378  25.776 -0.24 -0.00    +0.003 A 
DOCKED: ATOM     28  C   UNL d   1      35.884  15.506  23.222 -0.29 -0.01    +0.052 C 
DOCKED: ATOM     29  C   UNL d   1      35.708  14.300  18.375 -0.24 +0.01    +0.046 C 
DOCKED: ATOM     30  C   UNL d   1      37.268  15.411  28.122 -0.15 -0.02    +0.046 C 
DOCKED: ATOM     31  H   UNL d   1      38.011  13.842  22.330 -0.20 -0.04    +0.166 HD
DOCKED: ATOM     32  H   UNL d   1      38.559  15.267  23.702 -0.35 -0.12    +0.166 HD
DOCKED: ENDROOT
DOCKED: BRANCH   7  33
DOCKED: ATOM     33  C   UNL d   1      42.472  14.155  27.188 -0.03 +0.00    +0.141 C 
DOCKED: BRANCH  33  34
DOCKED: ATOM     34  C   UNL d   1      43.930  14.201  27.559 -0.00 +0.01    +0.306 C 
DOCKED: ATOM     35  O   UNL d   1      44.500  15.117  28.127 -0.01 -0.01    -0.251 OA
DOCKED: BRANCH  34  36
DOCKED: ATOM     36  O   UNL d   1      44.592  13.088  27.196 +0.00 -0.03    -0.481 OA
DOCKED: ATOM     37  H   UNL d   1      44.634  13.134  26.217 +0.02 +0.02    +0.295 HD
DOCKED: ENDBRANCH  34  36
DOCKED: ENDBRANCH  33  34
DOCKED: ENDBRANCH   7  33
DOCKED: BRANCH  27  38
DOCKED: ATOM     38  C   UNL d   1      34.766  15.440  26.219 +0.04 -0.01    +0.017 C 
DOCKED: ATOM     39  C   UNL d   1      33.733  14.808  25.640 -0.13 -0.04    +0.092 C 
DOCKED: BRANCH  39  40
DOCKED: ATOM     40  C   UNL d   1      32.387  14.940  26.204 -0.05 -0.14    +0.330 C 
DOCKED: ATOM     41  O   UNL d   1      31.944  14.408  27.203 -0.05 +0.10    -0.246 OA
DOCKED: BRANCH  40  42
DOCKED: ATOM     42  O   UNL d   1      31.652  15.774  25.452 -0.03 +0.10    -0.477 OA
DOCKED: ATOM     43  H   UNL d   1      32.271  16.067  24.752 +0.10 -0.04    +0.295 HD
DOCKED: ENDBRANCH  40  42
DOCKED: ENDBRANCH  39  40
DOCKED: ENDBRANCH  27  38
DOCKED: BRANCH   8  44
DOCKED: ATOM     44  C   UNL d   1      42.726  11.509  19.874 -0.05 +0.01    +0.141 C 
DOCKED: BRANCH  44  45
DOCKED: ATOM     45  C   UNL d   1      42.744  12.808  19.114 -0.06 +0.04    +0.306 C 
DOCKED: ATOM     46  O   UNL d   1      43.054  13.902  19.552 -0.15 -0.05    -0.251 OA
DOCKED: BRANCH  45  47
DOCKED: ATOM     47  O   UNL d   1      42.340  12.664  17.839 -0.04 -0.07    -0.481 OA
DOCKED: ATOM     48  H   UNL d   1      41.742  11.887  17.855 +0.03 +0.04    +0.295 HD
DOCKED: ENDBRANCH  45  47
DOCKED: ENDBRANCH  44  45
DOCKED: ENDBRANCH   8  44
DOCKED: BRANCH  22  49
DOCKED: ATOM     49  C   UNL d   1      34.197  15.923  20.675 -0.30 +0.01    +0.048 C 
DOCKED: BRANCH  49  50
DOCKED: ATOM     50  C   UNL d   1      34.178  17.109  21.639 -0.27 +0.01    +0.125 C 
DOCKED: BRANCH  50  51
DOCKED: ATOM     51  C   UNL d   1      33.205  16.874  22.759 -0.21 +0.05    +0.305 C 
DOCKED: ATOM     52  O   UNL d   1      33.024  17.568  23.744 -0.77 -0.04    -0.251 OA
DOCKED: BRANCH  51  53
DOCKED: ATOM     53  O   UNL d   1      32.497  15.741  22.583 -0.02 -0.13    -0.481 OA
DOCKED: ATOM     54  H   UNL d   1      31.788  15.795  23.257 +0.09 +0.08    +0.295 HD
DOCKED: ENDBRANCH  51  53
DOCKED: ENDBRANCH  50  51
DOCKED: ENDBRANCH  49  50
DOCKED: ENDBRANCH  22  49
DOCKED: TORSDOF 13
DOCKED: TER
DOCKED: ENDMDL
________________________________________________________________________________


	BEGINNING GENETIC ALGORITHM DOCKING 36 of 100
Run: 36 Seed: 341256079 1803142086 [ Run 36 of 100 GA/GALS ]
Beginning LAMARCKIAN GENETIC ALGORITHM (LGA), with a maximum of 25000000 energy evaluations.

Final-Value: -12.591


	FINAL GENETIC ALGORITHM DOCKED STATE
	_______________________________________________


Detailed state:  trans 11.932 40.374 24.362 quatxyzw 0.221629 0.348535 0.519231 0.748200 center 0.153 0.018 -0.028 ntor 13 -162.3283 161.6112 132.9548 -51.2248 53.2611 55.1050 52.6405 -180.0000 162.9976 -10.6403 65.5641 -96.7528 125.5407
State:	 11.932  40.374  24.362   0.334  0.525  0.783 83.131   -162.33  161.61  132.95  -51.22   53.26   55.11   52.64 -180.00  163.00  -10.64   65.56  -96.75  125.54

DOCKED: MODEL       36
DOCKED: USER    Run = 36
DOCKED: USER    DPF = D:/Protein_go_brrr/autodock/final/2DN3/heme/dock.dpf
DOCKED: USER  
DOCKED: USER    Estimated Free Energy of Binding    =   -5.15 kcal/mol  [=(1)+(2)+(3)-(4)]
DOCKED: USER    Estimated Inhibition Constant, Ki   =  168.55 uM (micromolar)  [Temperature = 298.15 K]
DOCKED: USER    
DOCKED: USER    (1) Final Intermolecular Energy     =   -9.03 kcal/mol
DOCKED: USER        vdW + Hbond + desolv Energy     =   -8.71 kcal/mol
DOCKED: USER        Electrostatic Energy            =   -0.31 kcal/mol
DOCKED: USER    (2) Final Total Internal Energy     =   -3.57 kcal/mol
DOCKED: USER    (3) Torsional Free Energy           =   +3.88 kcal/mol
DOCKED: USER    (4) Unbound System's Energy  [=(2)] =   -3.57 kcal/mol
DOCKED: USER    
DOCKED: USER    
DOCKED: USER    NEWDPF move heme_opt.pdbqt
DOCKED: USER    NEWDPF about 0.153000 0.018000 -0.028000
DOCKED: USER    NEWDPF tran0 11.932346 40.374281 24.362453
DOCKED: USER    NEWDPF quaternion0 0.221629 0.348535 0.519231 0.748200
DOCKED: USER    NEWDPF axisangle0 0.334044 0.525319 0.782595 83.130570
DOCKED: USER    NEWDPF quat0 0.334044 0.525319 0.782595 83.130570
DOCKED: USER    NEWDPF dihe0 -162.33 161.61 132.95 -51.22 53.26 55.11 52.64 -180.00 163.00 -10.64 65.56 -96.75 125.54 
DOCKED: USER  keepresnum = 1 
DOCKED: USER  
DOCKED: REMARK  13 active torsions:
DOCKED: REMARK  status: ('A' for Active; 'I' for Inactive)
DOCKED: REMARK    1  A    between atoms: O_3  and  C_38 
DOCKED: REMARK    2  A    between atoms: O_4  and  C_40 
DOCKED: REMARK    3  A    between atoms: O_7  and  C_46 
DOCKED: REMARK    4  A    between atoms: O_9  and  C_48 
DOCKED: REMARK    5  A    between atoms: C_15  and  C_20 
DOCKED: REMARK    6  A    between atoms: C_16  and  C_23 
DOCKED: REMARK    7  A    between atoms: C_20  and  C_38 
DOCKED: REMARK    8  A    between atoms: C_23  and  C_40 
DOCKED: REMARK    9  A    between atoms: C_32  and  C_41 
DOCKED: REMARK   10  A    between atoms: C_37  and  C_45 
DOCKED: REMARK   11  A    between atoms: C_41  and  C_44 
DOCKED: REMARK   12  A    between atoms: C_44  and  C_46 
DOCKED: REMARK   13  A    between atoms: C_47  and  C_48 
DOCKED: USER                              x       y       z     vdW  Elec       q    Type
DOCKED: USER                           _______ _______ _______ _____ _____    ______ ____
DOCKED: ROOT
DOCKED: ATOM      1  O   UNL d   1      12.094  44.929  20.623 -0.07 +0.08    -0.289 OA
DOCKED: ATOM      2  O   UNL d   1       7.300  39.176  21.178 -0.24 +0.07    -0.289 OA
DOCKED: ATOM      3  N   UNL d   1      12.484  42.388  22.922 -0.16 +0.07    -0.247 NA
DOCKED: ATOM      4  N   UNL d   1      10.002  40.786  22.597 -0.13 +0.06    -0.247 NA
DOCKED: ATOM      5  N   UNL d   1      10.651  39.453  25.060 -0.09 +0.11    -0.354 N 
DOCKED: ATOM      6  N   UNL d   1      13.213  41.132  25.400 +0.01 +0.13    -0.354 N 
DOCKED: ATOM      7  C   UNL d   1      13.624  44.513  22.484 -0.14 -0.02    +0.084 A 
DOCKED: ATOM      8  C   UNL d   1       8.890  40.877  20.423 -0.30 -0.02    +0.084 A 
DOCKED: ATOM      9  C   UNL d   1       9.997  41.381  21.355 -0.24 -0.02    +0.058 A 
DOCKED: ATOM     10  C   UNL d   1      13.500  43.239  23.324 -0.20 -0.01    +0.058 A 
DOCKED: ATOM     11  C   UNL d   1      12.510  44.223  21.524 -0.12 -0.04    +0.193 A 
DOCKED: ATOM     12  C   UNL d   1      11.914  42.895  21.878 -0.19 -0.03    +0.109 A 
DOCKED: ATOM     13  C   UNL d   1       8.245  39.913  21.379 -0.24 -0.04    +0.193 A 
DOCKED: ATOM     14  C   UNL d   1      13.271  45.768  23.287 -0.06 -0.00    +0.026 C 
DOCKED: ATOM     15  C   UNL d   1      10.852  42.354  21.006 -0.22 -0.02    +0.055 C 
DOCKED: ATOM     16  C   UNL d   1       9.459  40.090  19.239 -0.08 -0.00    +0.026 C 
DOCKED: ATOM     17  C   UNL d   1       9.009  39.958  22.662 -0.21 -0.02    +0.109 A 
DOCKED: ATOM     18  C   UNL d   1      14.377  42.956  24.306 -0.23 -0.01    +0.050 C 
DOCKED: ATOM     19  C   UNL d   1      14.392  41.766  25.078 -0.16 -0.01    +0.045 A 
DOCKED: ATOM     20  C   UNL d   1       9.377  38.984  24.866 -0.20 -0.01    +0.045 A 
DOCKED: ATOM     21  C   UNL d   1       8.578  39.143  23.807 -0.26 -0.01    +0.057 C 
DOCKED: ATOM     22  C   UNL d   1      10.109  38.306  26.922 -0.16 +0.01    -0.019 A 
DOCKED: ATOM     23  C   UNL d   1      11.175  39.095  26.273 -0.19 -0.01    +0.045 A 
DOCKED: ATOM     24  C   UNL d   1       9.047  38.243  26.083 -0.19 +0.00    -0.022 A 
DOCKED: ATOM     25  C   UNL d   1      13.452  40.057  26.224 -0.09 -0.02    +0.049 A 
DOCKED: ATOM     26  C   UNL d   1      15.426  41.064  25.677 -0.29 +0.01    -0.018 A 
DOCKED: ATOM     27  C   UNL d   1      14.828  39.975  26.384 -0.28 -0.00    +0.003 A 
DOCKED: ATOM     28  C   UNL d   1      12.378  39.340  26.817 -0.21 -0.02    +0.052 C 
DOCKED: ATOM     29  C   UNL d   1       7.741  37.552  26.283 -0.21 -0.00    +0.046 C 
DOCKED: ATOM     30  C   UNL d   1      16.881  41.382  25.599 -0.36 -0.01    +0.046 C 
DOCKED: ATOM     31  H   UNL d   1      11.149  39.941  24.324 -0.09 -0.07    +0.166 HD
DOCKED: ATOM     32  H   UNL d   1      12.302  41.454  25.095 -0.01 -0.05    +0.166 HD
DOCKED: ENDROOT
DOCKED: BRANCH   7  33
DOCKED: ATOM     33  C   UNL d   1      14.950  44.679  21.734 -0.20 -0.03    +0.141 C 
DOCKED: BRANCH  33  34
DOCKED: ATOM     34  C   UNL d   1      15.340  46.122  21.560 -0.12 -0.05    +0.306 C 
DOCKED: ATOM     35  O   UNL d   1      16.236  46.702  22.150 -0.20 +0.03    -0.251 OA
DOCKED: BRANCH  34  36
DOCKED: ATOM     36  O   UNL d   1      14.582  46.758  20.649 -0.01 +0.08    -0.481 OA
DOCKED: ATOM     37  H   UNL d   1      13.810  46.168  20.516 +0.08 -0.06    +0.295 HD
DOCKED: ENDBRANCH  34  36
DOCKED: ENDBRANCH  33  34
DOCKED: ENDBRANCH   7  33
DOCKED: BRANCH  27  38
DOCKED: ATOM     38  C   UNL d   1      15.541  39.004  27.159 -0.27 -0.00    +0.017 C 
DOCKED: ATOM     39  C   UNL d   1      15.364  38.780  28.470 -0.21 -0.02    +0.092 C 
DOCKED: BRANCH  39  40
DOCKED: ATOM     40  C   UNL d   1      16.148  37.741  29.145 -0.20 -0.02    +0.330 C 
DOCKED: ATOM     41  O   UNL d   1      17.357  37.608  29.150 -0.47 -0.04    -0.246 OA
DOCKED: BRANCH  40  42
DOCKED: ATOM     42  O   UNL d   1      15.333  36.905  29.806 -0.10 +0.06    -0.477 OA
DOCKED: ATOM     43  H   UNL d   1      14.496  37.407  29.887 +0.09 -0.06    +0.295 HD
DOCKED: ENDBRANCH  40  42
DOCKED: ENDBRANCH  39  40
DOCKED: ENDBRANCH  27  38
DOCKED: BRANCH   8  44
DOCKED: ATOM     44  C   UNL d   1       7.888  41.937  19.954 -0.21 -0.09    +0.141 C 
DOCKED: BRANCH  44  45
DOCKED: ATOM     45  C   UNL d   1       7.140  42.590  21.085 -0.10 -0.15    +0.306 C 
DOCKED: ATOM     46  O   UNL d   1       7.363  42.458  22.276 -0.05 +0.07    -0.251 OA
DOCKED: BRANCH  45  47
DOCKED: ATOM     47  O   UNL d   1       6.124  43.359  20.654 -0.52 +0.33    -0.481 OA
DOCKED: ATOM     48  H   UNL d   1       6.513  43.907  19.940 -0.40 -0.47    +0.295 HD
DOCKED: ENDBRANCH  45  47
DOCKED: ENDBRANCH  44  45
DOCKED: ENDBRANCH   8  44
DOCKED: BRANCH  22  49
DOCKED: ATOM     49  C   UNL d   1      10.219  37.706  28.293 -0.13 -0.01    +0.048 C 
DOCKED: BRANCH  49  50
DOCKED: ATOM     50  C   UNL d   1      10.875  38.668  29.283 -0.04 -0.02    +0.125 C 
DOCKED: BRANCH  50  51
DOCKED: ATOM     51  C   UNL d   1      12.208  38.145  29.736 -0.03 -0.08    +0.305 C 
DOCKED: ATOM     52  O   UNL d   1      13.030  38.711  30.436 -0.01 +0.04    -0.251 OA
DOCKED: BRANCH  51  53
DOCKED: ATOM     53  O   UNL d   1      12.452  36.907  29.262 -0.05 +0.28    -0.481 OA
DOCKED: ATOM     54  H   UNL d   1      13.338  36.981  28.849 +0.06 -0.18    +0.295 HD
DOCKED: ENDBRANCH  51  53
DOCKED: ENDBRANCH  50  51
DOCKED: ENDBRANCH  49  50
DOCKED: ENDBRANCH  22  49
DOCKED: TORSDOF 13
DOCKED: TER
DOCKED: ENDMDL
________________________________________________________________________________


	BEGINNING GENETIC ALGORITHM DOCKING 37 of 100
Run: 37 Seed: 1934122219 568731084 [ Run 37 of 100 GA/GALS ]
Beginning LAMARCKIAN GENETIC ALGORITHM (LGA), with a maximum of 25000000 energy evaluations.

Final-Value: -13.383


	FINAL GENETIC ALGORITHM DOCKED STATE
	_______________________________________________


Detailed state:  trans 12.403 40.194 25.079 quatxyzw -0.748688 0.460199 -0.405026 0.252263 center 0.153 0.018 -0.028 ntor 13 99.7880 132.8935 122.0274 97.4856 -131.1091 -87.2749 -58.0781 58.2662 38.6638 -136.0355 -46.2094 34.6536 23.3975
State:	 12.403  40.194  25.079  -0.774  0.476 -0.419 150.777     99.79  132.89  122.03   97.49 -131.11  -87.27  -58.08   58.27   38.66 -136.04  -46.21   34.65   23.40

DOCKED: MODEL       37
DOCKED: USER    Run = 37
DOCKED: USER    DPF = D:/Protein_go_brrr/autodock/final/2DN3/heme/dock.dpf
DOCKED: USER  
DOCKED: USER    Estimated Free Energy of Binding    =   -5.59 kcal/mol  [=(1)+(2)+(3)-(4)]
DOCKED: USER    Estimated Inhibition Constant, Ki   =   80.50 uM (micromolar)  [Temperature = 298.15 K]
DOCKED: USER    
DOCKED: USER    (1) Final Intermolecular Energy     =   -9.46 kcal/mol
DOCKED: USER        vdW + Hbond + desolv Energy     =   -9.42 kcal/mol
DOCKED: USER        Electrostatic Energy            =   -0.04 kcal/mol
DOCKED: USER    (2) Final Total Internal Energy     =   -3.92 kcal/mol
DOCKED: USER    (3) Torsional Free Energy           =   +3.88 kcal/mol
DOCKED: USER    (4) Unbound System's Energy  [=(2)] =   -3.92 kcal/mol
DOCKED: USER    
DOCKED: USER    
DOCKED: USER    NEWDPF move heme_opt.pdbqt
DOCKED: USER    NEWDPF about 0.153000 0.018000 -0.028000
DOCKED: USER    NEWDPF tran0 12.402850 40.193779 25.078671
DOCKED: USER    NEWDPF quaternion0 -0.748688 0.460199 -0.405026 0.252263
DOCKED: USER    NEWDPF axisangle0 -0.773711 0.475580 -0.418563 150.777119
DOCKED: USER    NEWDPF quat0 -0.773711 0.475580 -0.418563 150.777119
DOCKED: USER    NEWDPF dihe0 99.79 132.89 122.03 97.49 -131.11 -87.27 -58.08 58.27 38.66 -136.04 -46.21 34.65 23.40 
DOCKED: USER  keepresnum = 1 
DOCKED: USER  
DOCKED: REMARK  13 active torsions:
DOCKED: REMARK  status: ('A' for Active; 'I' for Inactive)
DOCKED: REMARK    1  A    between atoms: O_3  and  C_38 
DOCKED: REMARK    2  A    between atoms: O_4  and  C_40 
DOCKED: REMARK    3  A    between atoms: O_7  and  C_46 
DOCKED: REMARK    4  A    between atoms: O_9  and  C_48 
DOCKED: REMARK    5  A    between atoms: C_15  and  C_20 
DOCKED: REMARK    6  A    between atoms: C_16  and  C_23 
DOCKED: REMARK    7  A    between atoms: C_20  and  C_38 
DOCKED: REMARK    8  A    between atoms: C_23  and  C_40 
DOCKED: REMARK    9  A    between atoms: C_32  and  C_41 
DOCKED: REMARK   10  A    between atoms: C_37  and  C_45 
DOCKED: REMARK   11  A    between atoms: C_41  and  C_44 
DOCKED: REMARK   12  A    between atoms: C_44  and  C_46 
DOCKED: REMARK   13  A    between atoms: C_47  and  C_48 
DOCKED: USER                              x       y       z     vdW  Elec       q    Type
DOCKED: USER                           _______ _______ _______ _____ _____    ______ ____
DOCKED: ROOT
DOCKED: ATOM      1  O   UNL d   1       9.743  41.669  20.028 -0.20 +0.12    -0.289 OA
DOCKED: ATOM      2  O   UNL d   1      15.482  44.843  23.686 -0.12 +0.04    -0.289 OA
DOCKED: ATOM      3  N   UNL d   1      10.888  40.514  23.070 -0.17 +0.07    -0.247 NA
DOCKED: ATOM      4  N   UNL d   1      13.308  42.166  23.561 -0.10 +0.08    -0.247 NA
DOCKED: ATOM      5  N   UNL d   1      14.025  40.328  25.652 -0.03 +0.16    -0.354 N 
DOCKED: ATOM      6  N   UNL d   1      11.522  38.609  25.123 -0.15 +0.16    -0.354 N 
DOCKED: ATOM      7  C   UNL d   1       9.233  39.737  21.437 -0.35 -0.02    +0.084 A 
DOCKED: ATOM      8  C   UNL d   1      13.392  44.368  22.504 -0.13 -0.02    +0.084 A 
DOCKED: ATOM      9  C   UNL d   1      12.678  43.024  22.688 -0.21 -0.01    +0.058 A 
DOCKED: ATOM     10  C   UNL d   1       9.964  39.528  22.767 -0.33 -0.01    +0.058 A 
DOCKED: ATOM     11  C   UNL d   1       9.895  41.025  21.051 -0.18 -0.05    +0.193 A 
DOCKED: ATOM     12  C   UNL d   1      10.858  41.405  22.133 -0.22 -0.03    +0.109 A 
DOCKED: ATOM     13  C   UNL d   1      14.563  44.098  23.406 -0.13 -0.04    +0.193 A 
DOCKED: ATOM     14  C   UNL d   1       9.597  38.665  20.406 -0.59 -0.00    +0.026 C 
DOCKED: ATOM     15  C   UNL d   1      11.564  42.696  22.014 -0.24 -0.01    +0.055 C 
DOCKED: ATOM     16  C   UNL d   1      12.578  45.527  23.086 -0.05 -0.00    +0.026 C 
DOCKED: ATOM     17  C   UNL d   1      14.396  42.728  23.979 -0.21 -0.03    +0.109 A 
DOCKED: ATOM     18  C   UNL d   1       9.646  38.512  23.591 -0.27 -0.01    +0.050 C 
DOCKED: ATOM     19  C   UNL d   1      10.207  38.288  24.874 -0.25 -0.01    +0.045 A 
DOCKED: ATOM     20  C   UNL d   1      15.179  41.065  25.580 -0.26 -0.01    +0.045 A 
DOCKED: ATOM     21  C   UNL d   1      15.423  42.172  24.872 -0.29 -0.02    +0.057 C 
DOCKED: ATOM     22  C   UNL d   1      15.513  39.307  27.000 -0.20 +0.00    -0.019 A 
DOCKED: ATOM     23  C   UNL d   1      14.131  39.246  26.485 -0.26 -0.02    +0.045 A 
DOCKED: ATOM     24  C   UNL d   1      16.128  40.387  26.462 -0.29 +0.00    -0.022 A 
DOCKED: ATOM     25  C   UNL d   1      11.880  38.226  26.395 -0.29 -0.02    +0.049 A 
DOCKED: ATOM     26  C   UNL d   1       9.687  37.717  26.025 -0.25 +0.01    -0.018 A 
DOCKED: ATOM     27  C   UNL d   1      10.742  37.698  26.989 -0.23 -0.00    +0.003 A 
DOCKED: ATOM     28  C   UNL d   1      13.231  38.311  26.829 -0.35 -0.03    +0.052 C 
DOCKED: ATOM     29  C   UNL d   1      17.519  40.875  26.684 -0.28 -0.01    +0.046 C 
DOCKED: ATOM     30  C   UNL d   1       8.295  37.220  26.222 -0.24 -0.00    +0.046 C 
DOCKED: ATOM     31  H   UNL d   1      13.177  40.632  25.186 -0.26 -0.09    +0.166 HD
DOCKED: ATOM     32  H   UNL d   1      12.136  39.030  24.436 -0.40 -0.13    +0.166 HD
DOCKED: ENDROOT
DOCKED: BRANCH   7  33
DOCKED: ATOM     33  C   UNL d   1       7.716  39.923  21.543 -0.29 -0.03    +0.141 C 
DOCKED: BRANCH  33  34
DOCKED: ATOM     34  C   UNL d   1       7.323  41.354  21.790 -0.10 -0.08    +0.306 C 
DOCKED: ATOM     35  O   UNL d   1       7.398  41.948  22.852 -0.03 +0.06    -0.251 OA
DOCKED: BRANCH  34  36
DOCKED: ATOM     36  O   UNL d   1       6.859  41.963  20.684 -0.21 +0.20    -0.481 OA
DOCKED: ATOM     37  H   UNL d   1       7.665  42.250  20.204 +0.07 -0.20    +0.295 HD
DOCKED: ENDBRANCH  34  36
DOCKED: ENDBRANCH  33  34
DOCKED: ENDBRANCH   7  33
DOCKED: BRANCH  27  38
DOCKED: ATOM     38  C   UNL d   1      10.638  37.175  28.317 -0.15 -0.01    +0.017 C 
DOCKED: ATOM     39  C   UNL d   1      10.618  37.910  29.440 -0.06 -0.02    +0.092 C 
DOCKED: BRANCH  39  40
DOCKED: ATOM     40  C   UNL d   1      10.489  37.251  30.742 -0.01 -0.04    +0.330 C 
DOCKED: ATOM     41  O   UNL d   1       9.465  36.973  31.337 -0.00 +0.01    -0.246 OA
DOCKED: BRANCH  40  42
DOCKED: ATOM     42  O   UNL d   1      11.703  36.959  31.234 +0.00 +0.07    -0.477 OA
DOCKED: ATOM     43  H   UNL d   1      12.170  36.546  30.479 +0.05 -0.09    +0.295 HD
DOCKED: ENDBRANCH  40  42
DOCKED: ENDBRANCH  39  40
DOCKED: ENDBRANCH  27  38
DOCKED: BRANCH   8  44
DOCKED: ATOM     44  C   UNL d   1      13.858  44.678  21.078 -0.20 -0.03    +0.141 C 
DOCKED: BRANCH  44  45
DOCKED: ATOM     45  C   UNL d   1      14.429  46.063  20.928 -0.07 -0.05    +0.306 C 
DOCKED: ATOM     46  O   UNL d   1      13.869  47.031  20.443 -0.04 +0.04    -0.251 OA
DOCKED: BRANCH  45  47
DOCKED: ATOM     47  O   UNL d   1      15.695  46.149  21.374 -0.09 +0.08    -0.481 OA
DOCKED: ATOM     48  H   UNL d   1      15.644  45.882  22.317 +0.11 -0.04    +0.295 HD
DOCKED: ENDBRANCH  45  47
DOCKED: ENDBRANCH  44  45
DOCKED: ENDBRANCH   8  44
DOCKED: BRANCH  22  49
DOCKED: ATOM     49  C   UNL d   1      16.103  38.306  27.950 -0.21 -0.01    +0.048 C 
DOCKED: BRANCH  49  50
DOCKED: ATOM     50  C   UNL d   1      15.331  38.248  29.267 -0.18 -0.02    +0.125 C 
DOCKED: BRANCH  50  51
DOCKED: ATOM     51  C   UNL d   1      15.084  36.825  29.682 -0.18 -0.05    +0.305 C 
DOCKED: ATOM     52  O   UNL d   1      15.904  35.929  29.787 -0.29 +0.01    -0.251 OA
DOCKED: BRANCH  51  53
DOCKED: ATOM     53  O   UNL d   1      13.782  36.593  29.940 -0.06 +0.15    -0.481 OA
DOCKED: ATOM     54  H   UNL d   1      13.662  36.903  30.862 +0.06 -0.05    +0.295 HD
DOCKED: ENDBRANCH  51  53
DOCKED: ENDBRANCH  50  51
DOCKED: ENDBRANCH  49  50
DOCKED: ENDBRANCH  22  49
DOCKED: TORSDOF 13
DOCKED: TER
DOCKED: ENDMDL
________________________________________________________________________________


	BEGINNING GENETIC ALGORITHM DOCKING 38 of 100
Run: 38 Seed: 1786776840 2126033104 [ Run 38 of 100 GA/GALS ]
Beginning LAMARCKIAN GENETIC ALGORITHM (LGA), with a maximum of 25000000 energy evaluations.

Final-Value: -10.832


	FINAL GENETIC ALGORITHM DOCKED STATE
	_______________________________________________


Detailed state:  trans 22.189 52.929 0.872 quatxyzw -0.024795 -0.446835 -0.209139 -0.869474 center 0.153 0.018 -0.028 ntor 13 144.5339 112.3950 -109.7147 33.0485 -137.5061 37.5374 122.6974 179.4423 17.9885 -22.7271 -77.7781 -30.3581 -33.7513
State:	 22.189  52.929   0.872  -0.050 -0.905 -0.423 -59.205    144.53  112.39 -109.71   33.05 -137.51   37.54  122.70  179.44   17.99  -22.73  -77.78  -30.36  -33.75

DOCKED: MODEL       38
DOCKED: USER    Run = 38
DOCKED: USER    DPF = D:/Protein_go_brrr/autodock/final/2DN3/heme/dock.dpf
DOCKED: USER  
DOCKED: USER    Estimated Free Energy of Binding    =   -3.08 kcal/mol  [=(1)+(2)+(3)-(4)]
DOCKED: USER    Estimated Inhibition Constant, Ki   =    5.48 mM (millimolar)  [Temperature = 298.15 K]
DOCKED: USER    
DOCKED: USER    (1) Final Intermolecular Energy     =   -6.96 kcal/mol
DOCKED: USER        vdW + Hbond + desolv Energy     =   -6.83 kcal/mol
DOCKED: USER        Electrostatic Energy            =   -0.14 kcal/mol
DOCKED: USER    (2) Final Total Internal Energy     =   -3.87 kcal/mol
DOCKED: USER    (3) Torsional Free Energy           =   +3.88 kcal/mol
DOCKED: USER    (4) Unbound System's Energy  [=(2)] =   -3.87 kcal/mol
DOCKED: USER    
DOCKED: USER    
DOCKED: USER    NEWDPF move heme_opt.pdbqt
DOCKED: USER    NEWDPF about 0.153000 0.018000 -0.028000
DOCKED: USER    NEWDPF tran0 22.188562 52.929306 0.872148
DOCKED: USER    NEWDPF quaternion0 -0.024795 -0.446835 -0.209139 -0.869474
DOCKED: USER    NEWDPF axisangle0 -0.050195 -0.904562 -0.423376 -59.204870
DOCKED: USER    NEWDPF quat0 -0.050195 -0.904562 -0.423376 -59.204870
DOCKED: USER    NEWDPF dihe0 144.53 112.39 -109.71 33.05 -137.51 37.54 122.70 179.44 17.99 -22.73 -77.78 -30.36 -33.75 
DOCKED: USER  keepresnum = 1 
DOCKED: USER  
DOCKED: REMARK  13 active torsions:
DOCKED: REMARK  status: ('A' for Active; 'I' for Inactive)
DOCKED: REMARK    1  A    between atoms: O_3  and  C_38 
DOCKED: REMARK    2  A    between atoms: O_4  and  C_40 
DOCKED: REMARK    3  A    between atoms: O_7  and  C_46 
DOCKED: REMARK    4  A    between atoms: O_9  and  C_48 
DOCKED: REMARK    5  A    between atoms: C_15  and  C_20 
DOCKED: REMARK    6  A    between atoms: C_16  and  C_23 
DOCKED: REMARK    7  A    between atoms: C_20  and  C_38 
DOCKED: REMARK    8  A    between atoms: C_23  and  C_40 
DOCKED: REMARK    9  A    between atoms: C_32  and  C_41 
DOCKED: REMARK   10  A    between atoms: C_37  and  C_45 
DOCKED: REMARK   11  A    between atoms: C_41  and  C_44 
DOCKED: REMARK   12  A    between atoms: C_44  and  C_46 
DOCKED: REMARK   13  A    between atoms: C_47  and  C_48 
DOCKED: USER                              x       y       z     vdW  Elec       q    Type
DOCKED: USER                           _______ _______ _______ _____ _____    ______ ____
DOCKED: ROOT
DOCKED: ATOM      1  O   UNL d   1      19.464  56.534  -2.915 -0.05 +0.02    -0.289 OA
DOCKED: ATOM      2  O   UNL d   1      20.166  49.057  -2.863 -0.12 +0.08    -0.289 OA
DOCKED: ATOM      3  N   UNL d   1      21.294  54.846  -0.528 +0.06 +0.06    -0.247 NA
DOCKED: ATOM      4  N   UNL d   1      20.745  51.990  -1.139 -0.12 +0.05    -0.247 NA
DOCKED: ATOM      5  N   UNL d   1      21.879  51.321   1.417 -0.08 +0.04    -0.354 N 
DOCKED: ATOM      6  N   UNL d   1      22.427  54.287   2.051 -0.08 +0.05    -0.354 N 
DOCKED: ATOM      7  C   UNL d   1      20.622  57.179  -0.861 -0.09 -0.01    +0.084 A 
DOCKED: ATOM      8  C   UNL d   1      20.142  51.436  -3.441 -0.08 -0.01    +0.084 A 
DOCKED: ATOM      9  C   UNL d   1      20.452  52.501  -2.384 -0.13 -0.01    +0.058 A 
DOCKED: ATOM     10  C   UNL d   1      21.352  56.131  -0.016 -0.12 -0.01    +0.058 A 
DOCKED: ATOM     11  C   UNL d   1      20.157  56.262  -1.952 -0.07 -0.01    +0.193 A 
DOCKED: ATOM     12  C   UNL d   1      20.650  54.880  -1.649 -0.10 -0.01    +0.109 A 
DOCKED: ATOM     13  C   UNL d   1      20.277  50.229  -2.557 -0.12 -0.04    +0.193 A 
DOCKED: ATOM     14  C   UNL d   1      19.398  57.749  -0.139 -0.16 -0.00    +0.026 C 
DOCKED: ATOM     15  C   UNL d   1      20.391  53.817  -2.640 -0.12 -0.00    +0.055 C 
DOCKED: ATOM     16  C   UNL d   1      21.224  51.377  -4.523 -0.03 -0.00    +0.026 C 
DOCKED: ATOM     17  C   UNL d   1      20.637  50.701  -1.186 -0.20 -0.02    +0.109 A 
DOCKED: ATOM     18  C   UNL d   1      22.056  56.476   1.078 -0.11 -0.00    +0.050 C 
DOCKED: ATOM     19  C   UNL d   1      22.830  55.591   1.872 -0.10 -0.00    +0.045 A 
DOCKED: ATOM     20  C   UNL d   1      21.349  50.106   1.068 -0.26 -0.00    +0.045 A 
DOCKED: ATOM     21  C   UNL d   1      20.794  49.734  -0.090 -0.27 -0.00    +0.057 C 
DOCKED: ATOM     22  C   UNL d   1      22.118  49.988   3.216 -0.28 -0.00    -0.019 A 
DOCKED: ATOM     23  C   UNL d   1      22.367  51.347   2.696 -0.20 -0.00    +0.045 A 
DOCKED: ATOM     24  C   UNL d   1      21.516  49.257   2.248 -0.34 -0.00    -0.022 A 
DOCKED: ATOM     25  C   UNL d   1      23.269  53.637   2.923 -0.12 -0.00    +0.049 A 
DOCKED: ATOM     26  C   UNL d   1      23.983  55.783   2.617 -0.04 +0.00    -0.018 A 
DOCKED: ATOM     27  C   UNL d   1      24.267  54.541   3.263 -0.05 +0.00    +0.003 A 
DOCKED: ATOM     28  C   UNL d   1      22.969  52.327   3.386 -0.18 +0.00    +0.052 C 
DOCKED: ATOM     29  C   UNL d   1      21.078  47.833   2.290 -0.42 +0.00    +0.046 C 
DOCKED: ATOM     30  C   UNL d   1      24.775  57.042   2.723 -0.02 +0.00    +0.046 C 
DOCKED: ATOM     31  H   UNL d   1      21.956  52.074   0.741 +0.01 -0.03    +0.166 HD
DOCKED: ATOM     32  H   UNL d   1      21.598  53.893   1.623 -0.46 -0.06    +0.166 HD
DOCKED: ENDROOT
DOCKED: BRANCH   7  33
DOCKED: ATOM     33  C   UNL d   1      21.505  58.292  -1.434 -0.02 -0.01    +0.141 C 
DOCKED: BRANCH  33  34
DOCKED: ATOM     34  C   UNL d   1      22.501  57.781  -2.440 -0.00 -0.01    +0.306 C 
DOCKED: ATOM     35  O   UNL d   1      23.586  57.284  -2.191 -0.00 +0.00    -0.251 OA
DOCKED: BRANCH  34  36
DOCKED: ATOM     36  O   UNL d   1      22.075  57.921  -3.708 +0.00 +0.01    -0.481 OA
DOCKED: ATOM     37  H   UNL d   1      21.115  57.726  -3.669 +0.01 -0.01    +0.295 HD
DOCKED: ENDBRANCH  34  36
DOCKED: ENDBRANCH  33  34
DOCKED: ENDBRANCH   7  33
DOCKED: BRANCH  27  38
DOCKED: ATOM     38  C   UNL d   1      25.368  54.302   4.146 -0.04 +0.00    +0.017 C 
DOCKED: ATOM     39  C   UNL d   1      25.706  53.109   4.659 -0.05 +0.00    +0.092 C 
DOCKED: BRANCH  39  40
DOCKED: ATOM     40  C   UNL d   1      26.871  52.997   5.541 -0.06 +0.01    +0.330 C 
DOCKED: ATOM     41  O   UNL d   1      27.267  53.807   6.357 -0.03 -0.02    -0.246 OA
DOCKED: BRANCH  40  42
DOCKED: ATOM     42  O   UNL d   1      27.488  51.822   5.342 -0.25 +0.04    -0.477 OA
DOCKED: ATOM     43  H   UNL d   1      26.847  51.161   5.676 +0.13 -0.07    +0.295 HD
DOCKED: ENDBRANCH  40  42
DOCKED: ENDBRANCH  39  40
DOCKED: ENDBRANCH  27  38
DOCKED: BRANCH   8  44
DOCKED: ATOM     44  C   UNL d   1      18.742  51.508  -4.061 -0.10 -0.02    +0.141 C 
DOCKED: BRANCH  44  45
DOCKED: ATOM     45  C   UNL d   1      17.652  51.067  -3.121 -0.20 -0.07    +0.306 C 
DOCKED: ATOM     46  O   UNL d   1      17.166  51.721  -2.215 -0.23 +0.06    -0.251 OA
DOCKED: BRANCH  45  47
DOCKED: ATOM     47  O   UNL d   1      17.249  49.806  -3.357 -0.05 +0.18    -0.481 OA
DOCKED: ATOM     48  H   UNL d   1      18.007  49.247  -3.081 -0.38 -0.22    +0.295 HD
DOCKED: ENDBRANCH  45  47
DOCKED: ENDBRANCH  44  45
DOCKED: ENDBRANCH   8  44
DOCKED: BRANCH  22  49
DOCKED: ATOM     49  C   UNL d   1      22.473  49.538   4.603 -0.31 +0.01    +0.048 C 
DOCKED: BRANCH  49  50
DOCKED: ATOM     50  C   UNL d   1      23.506  48.412   4.588 -0.30 +0.03    +0.125 C 
DOCKED: BRANCH  50  51
DOCKED: ATOM     51  C   UNL d   1      24.871  48.931   4.941 -0.14 +0.10    +0.305 C 
DOCKED: ATOM     52  O   UNL d   1      25.887  48.284   5.130 -0.49 -0.18    -0.251 OA
DOCKED: BRANCH  51  53
DOCKED: ATOM     53  O   UNL d   1      24.887  50.274   5.053 +0.02 -0.04    -0.481 OA
DOCKED: ATOM     54  H   UNL d   1      25.784  50.528   4.750 +0.11 +0.01    +0.295 HD
DOCKED: ENDBRANCH  51  53
DOCKED: ENDBRANCH  50  51
DOCKED: ENDBRANCH  49  50
DOCKED: ENDBRANCH  22  49
DOCKED: TORSDOF 13
DOCKED: TER
DOCKED: ENDMDL
________________________________________________________________________________


	BEGINNING GENETIC ALGORITHM DOCKING 39 of 100
Run: 39 Seed: 1924603158 197704317 [ Run 39 of 100 GA/GALS ]
Beginning LAMARCKIAN GENETIC ALGORITHM (LGA), with a maximum of 25000000 energy evaluations.

Final-Value: -11.403


	FINAL GENETIC ALGORITHM DOCKED STATE
	_______________________________________________


Detailed state:  trans 36.179 49.451 22.672 quatxyzw 0.144327 -0.574737 -0.392178 0.703593 center 0.153 0.018 -0.028 ntor 13 -101.4897 31.3023 -144.0869 31.9589 42.0615 177.0926 -91.3709 150.2404 78.0637 -142.2174 -19.7830 -102.6840 -164.8647
State:	 36.179  49.451  22.672   0.203 -0.809 -0.552 90.568   -101.49   31.30 -144.09   31.96   42.06  177.09  -91.37  150.24   78.06 -142.22  -19.78 -102.68 -164.86

DOCKED: MODEL       39
DOCKED: USER    Run = 39
DOCKED: USER    DPF = D:/Protein_go_brrr/autodock/final/2DN3/heme/dock.dpf
DOCKED: USER  
DOCKED: USER    Estimated Free Energy of Binding    =   -5.82 kcal/mol  [=(1)+(2)+(3)-(4)]
DOCKED: USER    Estimated Inhibition Constant, Ki   =   54.09 uM (micromolar)  [Temperature = 298.15 K]
DOCKED: USER    
DOCKED: USER    (1) Final Intermolecular Energy     =   -9.70 kcal/mol
DOCKED: USER        vdW + Hbond + desolv Energy     =   -9.42 kcal/mol
DOCKED: USER        Electrostatic Energy            =   -0.28 kcal/mol
DOCKED: USER    (2) Final Total Internal Energy     =   -1.70 kcal/mol
DOCKED: USER    (3) Torsional Free Energy           =   +3.88 kcal/mol
DOCKED: USER    (4) Unbound System's Energy  [=(2)] =   -1.70 kcal/mol
DOCKED: USER    
DOCKED: USER    
DOCKED: USER    NEWDPF move heme_opt.pdbqt
DOCKED: USER    NEWDPF about 0.153000 0.018000 -0.028000
DOCKED: USER    NEWDPF tran0 36.178992 49.451217 22.672346
DOCKED: USER    NEWDPF quaternion0 0.144327 -0.574737 -0.392178 0.703593
DOCKED: USER    NEWDPF axisangle0 0.203105 -0.808802 -0.551894 90.568017
DOCKED: USER    NEWDPF quat0 0.203105 -0.808802 -0.551894 90.568017
DOCKED: USER    NEWDPF dihe0 -101.49 31.30 -144.09 31.96 42.06 177.09 -91.37 150.24 78.06 -142.22 -19.78 -102.68 -164.86 
DOCKED: USER  keepresnum = 1 
DOCKED: USER  
DOCKED: REMARK  13 active torsions:
DOCKED: REMARK  status: ('A' for Active; 'I' for Inactive)
DOCKED: REMARK    1  A    between atoms: O_3  and  C_38 
DOCKED: REMARK    2  A    between atoms: O_4  and  C_40 
DOCKED: REMARK    3  A    between atoms: O_7  and  C_46 
DOCKED: REMARK    4  A    between atoms: O_9  and  C_48 
DOCKED: REMARK    5  A    between atoms: C_15  and  C_20 
DOCKED: REMARK    6  A    between atoms: C_16  and  C_23 
DOCKED: REMARK    7  A    between atoms: C_20  and  C_38 
DOCKED: REMARK    8  A    between atoms: C_23  and  C_40 
DOCKED: REMARK    9  A    between atoms: C_32  and  C_41 
DOCKED: REMARK   10  A    between atoms: C_37  and  C_45 
DOCKED: REMARK   11  A    between atoms: C_41  and  C_44 
DOCKED: REMARK   12  A    between atoms: C_44  and  C_46 
DOCKED: REMARK   13  A    between atoms: C_47  and  C_48 
DOCKED: USER                              x       y       z     vdW  Elec       q    Type
DOCKED: USER                           _______ _______ _______ _____ _____    ______ ____
DOCKED: ROOT
DOCKED: ATOM      1  O   UNL d   1      35.239  48.808  28.457 -0.08 -0.02    -0.289 OA
DOCKED: ATOM      2  O   UNL d   1      38.475  44.240  23.452 -0.36 -0.06    -0.289 OA
DOCKED: ATOM      3  N   UNL d   1      35.447  49.564  25.098 -0.03 +0.00    -0.247 NA
DOCKED: ATOM      4  N   UNL d   1      37.118  47.364  24.005 -0.13 -0.02    -0.247 NA
DOCKED: ATOM      5  N   UNL d   1      37.422  48.914  21.602 -0.07 -0.05    -0.354 N 
DOCKED: ATOM      6  N   UNL d   1      35.703  51.200  22.751 -0.06 -0.04    -0.354 N 
DOCKED: ATOM      7  C   UNL d   1      34.690  50.764  27.097 -0.09 +0.00    +0.084 A 
DOCKED: ATOM      8  C   UNL d   1      37.097  45.239  25.211 -0.28 +0.00    +0.084 A 
DOCKED: ATOM      9  C   UNL d   1      36.671  46.709  25.130 -0.27 +0.00    +0.058 A 
DOCKED: ATOM     10  C   UNL d   1      34.926  50.752  25.584 -0.07 +0.00    +0.058 A 
DOCKED: ATOM     11  C   UNL d   1      35.152  49.366  27.378 -0.10 +0.00    +0.193 A 
DOCKED: ATOM     12  C   UNL d   1      35.561  48.735  26.083 +0.00 -0.00    +0.109 A 
DOCKED: ATOM     13  C   UNL d   1      37.899  45.192  23.941 -0.16 +0.02    +0.193 A 
DOCKED: ATOM     14  C   UNL d   1      35.618  51.746  27.816 -0.03 +0.00    +0.026 C 
DOCKED: ATOM     15  C   UNL d   1      35.968  47.315  26.100 -0.19 +0.00    +0.055 C 
DOCKED: ATOM     16  C   UNL d   1      35.900  44.293  25.073 -0.48 -0.00    +0.026 C 
DOCKED: ATOM     17  C   UNL d   1      37.838  46.544  23.309 -0.19 +0.01    +0.109 A 
DOCKED: ATOM     18  C   UNL d   1      34.563  51.790  24.807 -0.14 +0.00    +0.050 C 
DOCKED: ATOM     19  C   UNL d   1      34.664  51.835  23.394 -0.15 +0.01    +0.045 A 
DOCKED: ATOM     20  C   UNL d   1      38.338  47.923  21.361 -0.22 +0.01    +0.045 A 
DOCKED: ATOM     21  C   UNL d   1      38.574  46.811  22.064 -0.26 +0.01    +0.057 C 
DOCKED: ATOM     22  C   UNL d   1      38.515  49.506  19.724 -0.25 -0.01    -0.019 A 
DOCKED: ATOM     23  C   UNL d   1      37.454  49.914  20.667 -0.23 +0.01    +0.045 A 
DOCKED: ATOM     24  C   UNL d   1      39.033  48.327  20.139 -0.27 -0.01    -0.022 A 
DOCKED: ATOM     25  C   UNL d   1      35.658  51.447  21.399 -0.22 +0.01    +0.049 A 
DOCKED: ATOM     26  C   UNL d   1      33.905  52.481  22.431 -0.21 -0.00    -0.018 A 
DOCKED: ATOM     27  C   UNL d   1      34.526  52.216  21.171 -0.26 +0.00    +0.003 A 
DOCKED: ATOM     28  C   UNL d   1      36.715  51.027  20.546 -0.26 +0.01    +0.052 C 
DOCKED: ATOM     29  C   UNL d   1      40.114  47.511  19.515 -0.39 +0.01    +0.046 C 
DOCKED: ATOM     30  C   UNL d   1      32.675  53.292  22.663 -0.19 +0.01    +0.046 C 
DOCKED: ATOM     31  H   UNL d   1      36.751  48.837  22.359 +0.07 +0.02    +0.166 HD
DOCKED: ATOM     32  H   UNL d   1      36.415  50.664  23.233 +0.05 +0.02    +0.166 HD
DOCKED: ENDROOT
DOCKED: BRANCH   7  33
DOCKED: ATOM     33  C   UNL d   1      33.232  50.946  27.533 -0.11 +0.00    +0.141 C 
DOCKED: BRANCH  33  34
DOCKED: ATOM     34  C   UNL d   1      32.765  49.858  28.462 -0.10 +0.01    +0.306 C 
DOCKED: ATOM     35  O   UNL d   1      32.741  49.912  29.680 -0.04 -0.01    -0.251 OA
DOCKED: BRANCH  34  36
DOCKED: ATOM     36  O   UNL d   1      32.351  48.760  27.806 -0.16 +0.04    -0.481 OA
DOCKED: ATOM     37  H   UNL d   1      33.177  48.319  27.515 -0.18 -0.05    +0.295 HD
DOCKED: ENDBRANCH  34  36
DOCKED: ENDBRANCH  33  34
DOCKED: ENDBRANCH   7  33
DOCKED: BRANCH  27  38
DOCKED: ATOM     38  C   UNL d   1      34.070  52.710  19.906 -0.22 +0.00    +0.017 C 
DOCKED: ATOM     39  C   UNL d   1      34.734  53.582  19.131 -0.25 +0.02    +0.092 C 
DOCKED: BRANCH  39  40
DOCKED: ATOM     40  C   UNL d   1      34.165  53.996  17.846 -0.22 +0.07    +0.330 C 
DOCKED: ATOM     41  O   UNL d   1      34.598  54.831  17.076 -0.21 -0.05    -0.246 OA
DOCKED: BRANCH  40  42
DOCKED: ATOM     42  O   UNL d   1      33.045  53.301  17.592 -0.17 -0.05    -0.477 OA
DOCKED: ATOM     43  H   UNL d   1      33.028  53.233  16.615 -0.37 +0.00    +0.295 HD
DOCKED: ENDBRANCH  40  42
DOCKED: ENDBRANCH  39  40
DOCKED: ENDBRANCH  27  38
DOCKED: BRANCH   8  44
DOCKED: ATOM     44  C   UNL d   1      37.961  44.867  26.420 -0.18 +0.01    +0.141 C 
DOCKED: BRANCH  44  45
DOCKED: ATOM     45  C   UNL d   1      38.114  43.381  26.607 -0.13 +0.03    +0.306 C 
DOCKED: ATOM     46  O   UNL d   1      38.027  42.768  27.656 -0.24 -0.04    -0.251 OA
DOCKED: BRANCH  45  47
DOCKED: ATOM     47  O   UNL d   1      38.398  42.744  25.456 +0.00 -0.09    -0.481 OA
DOCKED: ATOM     48  H   UNL d   1      38.966  43.371  24.959 +0.16 +0.04    +0.295 HD
DOCKED: ENDBRANCH  45  47
DOCKED: ENDBRANCH  44  45
DOCKED: ENDBRANCH   8  44
DOCKED: BRANCH  22  49
DOCKED: ATOM     49  C   UNL d   1      38.929  50.308  18.525 -0.26 +0.03    +0.048 C 
DOCKED: BRANCH  49  50
DOCKED: ATOM     50  C   UNL d   1      40.337  50.882  18.683 -0.20 +0.05    +0.125 C 
DOCKED: BRANCH  50  51
DOCKED: ATOM     51  C   UNL d   1      40.910  51.271  17.350 -0.20 +0.15    +0.305 C 
DOCKED: ATOM     52  O   UNL d   1      41.631  52.221  17.100 -0.11 -0.08    -0.251 OA
DOCKED: BRANCH  51  53
DOCKED: ATOM     53  O   UNL d   1      40.525  50.429  16.370 -0.66 -0.52    -0.481 OA
DOCKED: ATOM     54  H   UNL d   1      41.282  50.427  15.747 -0.06 +0.21    +0.295 HD
DOCKED: ENDBRANCH  51  53
DOCKED: ENDBRANCH  50  51
DOCKED: ENDBRANCH  49  50
DOCKED: ENDBRANCH  22  49
DOCKED: TORSDOF 13
DOCKED: TER
DOCKED: ENDMDL
________________________________________________________________________________


	BEGINNING GENETIC ALGORITHM DOCKING 40 of 100
Run: 40 Seed: 1849560818 1818177598 [ Run 40 of 100 GA/GALS ]
Beginning LAMARCKIAN GENETIC ALGORITHM (LGA), with a maximum of 25000000 energy evaluations.

Final-Value: -12.408


	FINAL GENETIC ALGORITHM DOCKED STATE
	_______________________________________________


Detailed state:  trans 19.398 49.666 -3.571 quatxyzw 0.005726 0.318039 -0.447605 0.835744 center 0.153 0.018 -0.028 ntor 13 122.8912 -137.7692 -48.9014 -31.9228 -133.6856 -46.3458 145.9834 -179.9543 22.8056 -154.9637 -70.6701 -11.5910 -15.8689
State:	 19.398  49.666  -3.571   0.010  0.579 -0.815 66.613    122.89 -137.77  -48.90  -31.92 -133.69  -46.35  145.98 -179.95   22.81 -154.96  -70.67  -11.59  -15.87

DOCKED: MODEL       40
DOCKED: USER    Run = 40
DOCKED: USER    DPF = D:/Protein_go_brrr/autodock/final/2DN3/heme/dock.dpf
DOCKED: USER  
DOCKED: USER    Estimated Free Energy of Binding    =   -4.71 kcal/mol  [=(1)+(2)+(3)-(4)]
DOCKED: USER    Estimated Inhibition Constant, Ki   =  355.45 uM (micromolar)  [Temperature = 298.15 K]
DOCKED: USER    
DOCKED: USER    (1) Final Intermolecular Energy     =   -8.58 kcal/mol
DOCKED: USER        vdW + Hbond + desolv Energy     =   -8.56 kcal/mol
DOCKED: USER        Electrostatic Energy            =   -0.03 kcal/mol
DOCKED: USER    (2) Final Total Internal Energy     =   -3.82 kcal/mol
DOCKED: USER    (3) Torsional Free Energy           =   +3.88 kcal/mol
DOCKED: USER    (4) Unbound System's Energy  [=(2)] =   -3.82 kcal/mol
DOCKED: USER    
DOCKED: USER    
DOCKED: USER    NEWDPF move heme_opt.pdbqt
DOCKED: USER    NEWDPF about 0.153000 0.018000 -0.028000
DOCKED: USER    NEWDPF tran0 19.397783 49.665505 -3.570803
DOCKED: USER    NEWDPF quaternion0 0.005726 0.318039 -0.447605 0.835744
DOCKED: USER    NEWDPF axisangle0 0.010427 0.579180 -0.815133 66.613206
DOCKED: USER    NEWDPF quat0 0.010427 0.579180 -0.815133 66.613206
DOCKED: USER    NEWDPF dihe0 122.89 -137.77 -48.90 -31.92 -133.69 -46.35 145.98 -179.95 22.81 -154.96 -70.67 -11.59 -15.87 
DOCKED: USER  keepresnum = 1 
DOCKED: USER  
DOCKED: REMARK  13 active torsions:
DOCKED: REMARK  status: ('A' for Active; 'I' for Inactive)
DOCKED: REMARK    1  A    between atoms: O_3  and  C_38 
DOCKED: REMARK    2  A    between atoms: O_4  and  C_40 
DOCKED: REMARK    3  A    between atoms: O_7  and  C_46 
DOCKED: REMARK    4  A    between atoms: O_9  and  C_48 
DOCKED: REMARK    5  A    between atoms: C_15  and  C_20 
DOCKED: REMARK    6  A    between atoms: C_16  and  C_23 
DOCKED: REMARK    7  A    between atoms: C_20  and  C_38 
DOCKED: REMARK    8  A    between atoms: C_23  and  C_40 
DOCKED: REMARK    9  A    between atoms: C_32  and  C_41 
DOCKED: REMARK   10  A    between atoms: C_37  and  C_45 
DOCKED: REMARK   11  A    between atoms: C_41  and  C_44 
DOCKED: REMARK   12  A    between atoms: C_44  and  C_46 
DOCKED: REMARK   13  A    between atoms: C_47  and  C_48 
DOCKED: USER                              x       y       z     vdW  Elec       q    Type
DOCKED: USER                           _______ _______ _______ _____ _____    ______ ____
DOCKED: ROOT
DOCKED: ATOM      1  O   UNL d   1      15.565  46.281  -6.505 -0.34 +0.09    -0.289 OA
DOCKED: ATOM      2  O   UNL d   1      22.798  45.199  -4.803 -0.19 -0.02    -0.289 OA
DOCKED: ATOM      3  N   UNL d   1      17.471  48.640  -4.862 -0.12 +0.06    -0.247 NA
DOCKED: ATOM      4  N   UNL d   1      20.038  47.226  -4.376 -0.18 +0.04    -0.247 NA
DOCKED: ATOM      5  N   UNL d   1      20.741  49.325  -2.541 -0.07 +0.06    -0.354 N 
DOCKED: ATOM      6  N   UNL d   1      18.066  50.775  -3.036 -0.14 +0.10    -0.354 N 
DOCKED: ATOM      7  C   UNL d   1      15.101  48.439  -5.456 -0.31 -0.02    +0.084 A 
DOCKED: ATOM      8  C   UNL d   1      20.628  45.419  -5.913 -0.28 +0.00    +0.084 A 
DOCKED: ATOM      9  C   UNL d   1      19.608  46.459  -5.436 -0.28 -0.00    +0.058 A 
DOCKED: ATOM     10  C   UNL d   1      16.225  49.241  -4.792 -0.23 -0.01    +0.058 A 
DOCKED: ATOM     11  C   UNL d   1      15.936  47.288  -5.930 -0.26 -0.04    +0.193 A 
DOCKED: ATOM     12  C   UNL d   1      17.357  47.539  -5.531 -0.23 -0.02    +0.109 A 
DOCKED: ATOM     13  C   UNL d   1      21.701  45.712  -4.903 -0.19 -0.00    +0.193 A 
DOCKED: ATOM     14  C   UNL d   1      14.082  47.926  -4.436 -0.39 -0.01    +0.026 C 
DOCKED: ATOM     15  C   UNL d   1      18.384  46.575  -5.974 -0.32 -0.00    +0.055 C 
DOCKED: ATOM     16  C   UNL d   1      21.163  45.748  -7.310 -0.13 +0.00    +0.026 C 
DOCKED: ATOM     17  C   UNL d   1      21.217  46.821  -4.026 -0.24 -0.01    +0.109 A 
DOCKED: ATOM     18  C   UNL d   1      16.005  50.463  -4.273 -0.29 -0.01    +0.050 C 
DOCKED: ATOM     19  C   UNL d   1      16.996  51.311  -3.717 -0.25 -0.01    +0.045 A 
DOCKED: ATOM     20  C   UNL d   1      21.747  48.433  -2.275 -0.21 -0.00    +0.045 A 
DOCKED: ATOM     21  C   UNL d   1      22.047  47.295  -2.909 -0.25 -0.00    +0.057 C 
DOCKED: ATOM     22  C   UNL d   1      21.860  50.145  -0.767 -0.16 +0.00    -0.019 A 
DOCKED: ATOM     23  C   UNL d   1      20.728  50.392  -1.683 -0.20 -0.01    +0.045 A 
DOCKED: ATOM     24  C   UNL d   1      22.460  48.984  -1.124 -0.17 -0.00    -0.022 A 
DOCKED: ATOM     25  C   UNL d   1      18.850  51.773  -2.505 -0.23 -0.01    +0.049 A 
DOCKED: ATOM     26  C   UNL d   1      17.108  52.692  -3.658 -0.21 +0.00    -0.018 A 
DOCKED: ATOM     27  C   UNL d   1      18.291  52.977  -2.909 -0.18 -0.00    +0.003 A 
DOCKED: ATOM     28  C   UNL d   1      19.926  51.466  -1.629 -0.26 -0.01    +0.052 C 
DOCKED: ATOM     29  C   UNL d   1      23.647  48.322  -0.512 -0.13 +0.01    +0.046 C 
DOCKED: ATOM     30  C   UNL d   1      16.175  53.687  -4.262 -0.16 -0.01    +0.046 C 
DOCKED: ATOM     31  H   UNL d   1      20.139  49.213  -3.350 -0.01 -0.04    +0.166 HD
DOCKED: ATOM     32  H   UNL d   1      18.214  49.780  -2.919 -0.42 -0.08    +0.166 HD
DOCKED: ENDROOT
DOCKED: BRANCH   7  33
DOCKED: ATOM     33  C   UNL d   1      14.414  49.129  -6.640 -0.22 -0.02    +0.141 C 
DOCKED: BRANCH  33  34
DOCKED: ATOM     34  C   UNL d   1      15.300  49.217  -7.852 -0.07 -0.03    +0.306 C 
DOCKED: ATOM     35  O   UNL d   1      16.188  50.032  -8.038 -0.03 +0.02    -0.251 OA
DOCKED: BRANCH  34  36
DOCKED: ATOM     36  O   UNL d   1      15.023  48.272  -8.767 -0.05 +0.06    -0.481 OA
DOCKED: ATOM     37  H   UNL d   1      15.163  47.423  -8.296 +0.11 -0.05    +0.295 HD
DOCKED: ENDBRANCH  34  36
DOCKED: ENDBRANCH  33  34
DOCKED: ENDBRANCH   7  33
DOCKED: BRANCH  27  38
DOCKED: ATOM     38  C   UNL d   1      18.773  54.289  -2.596 +0.20 -0.00    +0.017 C 
DOCKED: ATOM     39  C   UNL d   1      20.051  54.603  -2.336 -0.12 -0.01    +0.092 C 
DOCKED: BRANCH  39  40
DOCKED: ATOM     40  C   UNL d   1      20.418  55.991  -2.046 -0.06 -0.03    +0.330 C 
DOCKED: ATOM     41  O   UNL d   1      20.107  56.988  -2.670 -0.03 +0.01    -0.246 OA
DOCKED: BRANCH  40  42
DOCKED: ATOM     42  O   UNL d   1      21.175  56.047  -0.939 -0.05 +0.05    -0.477 OA
DOCKED: ATOM     43  H   UNL d   1      21.791  55.292  -1.038 +0.03 -0.03    +0.295 HD
DOCKED: ENDBRANCH  40  42
DOCKED: ENDBRANCH  39  40
DOCKED: ENDBRANCH  27  38
DOCKED: BRANCH   8  44
DOCKED: ATOM     44  C   UNL d   1      20.173  43.959  -5.823 -0.37 +0.01    +0.141 C 
DOCKED: BRANCH  44  45
DOCKED: ATOM     45  C   UNL d   1      20.887  43.053  -6.790 -0.19 +0.06    +0.306 C 
DOCKED: ATOM     46  O   UNL d   1      21.801  42.290  -6.531 -0.23 -0.06    -0.251 OA
DOCKED: BRANCH  45  47
DOCKED: ATOM     47  O   UNL d   1      20.427  43.178  -8.048 +0.00 -0.14    -0.481 OA
DOCKED: ATOM     48  H   UNL d   1      21.232  43.298  -8.595 +0.08 +0.07    +0.295 HD
DOCKED: ENDBRANCH  45  47
DOCKED: ENDBRANCH  44  45
DOCKED: ENDBRANCH   8  44
DOCKED: BRANCH  22  49
DOCKED: ATOM     49  C   UNL d   1      22.237  51.050   0.369 -0.15 -0.00    +0.048 C 
DOCKED: BRANCH  49  50
DOCKED: ATOM     50  C   UNL d   1      23.401  51.969   0.002 -0.05 -0.00    +0.125 C 
DOCKED: BRANCH  50  51
DOCKED: ATOM     51  C   UNL d   1      22.940  53.394  -0.123 -0.04 -0.03    +0.305 C 
DOCKED: ATOM     52  O   UNL d   1      23.627  54.384  -0.300 -0.02 +0.01    -0.251 OA
DOCKED: BRANCH  51  53
DOCKED: ATOM     53  O   UNL d   1      21.602  53.504  -0.002 +0.00 +0.14    -0.481 OA
DOCKED: ATOM     54  H   UNL d   1      21.472  54.378   0.421 -0.29 -0.11    +0.295 HD
DOCKED: ENDBRANCH  51  53
DOCKED: ENDBRANCH  50  51
DOCKED: ENDBRANCH  49  50
DOCKED: ENDBRANCH  22  49
DOCKED: TORSDOF 13
DOCKED: TER
DOCKED: ENDMDL
________________________________________________________________________________


	BEGINNING GENETIC ALGORITHM DOCKING 41 of 100
Run: 41 Seed: 1803003881 1931726100 [ Run 41 of 100 GA/GALS ]
Beginning LAMARCKIAN GENETIC ALGORITHM (LGA), with a maximum of 25000000 energy evaluations.

Final-Value: -9.846


	FINAL GENETIC ALGORITHM DOCKED STATE
	_______________________________________________


Detailed state:  trans 19.624 47.661 -5.623 quatxyzw 0.258871 -0.222927 0.042867 -0.938857 center 0.153 0.018 -0.028 ntor 13 -115.4331 -31.8900 105.9851 -110.5283 4.8450 -162.1306 102.2811 -15.8198 -133.9247 -150.2719 42.6244 -89.7452 -49.1965
State:	 19.624  47.661  -5.623   0.752 -0.647  0.125 -40.279   -115.43  -31.89  105.99 -110.53    4.85 -162.13  102.28  -15.82 -133.92 -150.27   42.62  -89.75  -49.20

DOCKED: MODEL       41
DOCKED: USER    Run = 41
DOCKED: USER    DPF = D:/Protein_go_brrr/autodock/final/2DN3/heme/dock.dpf
DOCKED: USER  
DOCKED: USER    Estimated Free Energy of Binding    =   -5.05 kcal/mol  [=(1)+(2)+(3)-(4)]
DOCKED: USER    Estimated Inhibition Constant, Ki   =  197.73 uM (micromolar)  [Temperature = 298.15 K]
DOCKED: USER    
DOCKED: USER    (1) Final Intermolecular Energy     =   -8.93 kcal/mol
DOCKED: USER        vdW + Hbond + desolv Energy     =   -8.34 kcal/mol
DOCKED: USER        Electrostatic Energy            =   -0.59 kcal/mol
DOCKED: USER    (2) Final Total Internal Energy     =   -0.91 kcal/mol
DOCKED: USER    (3) Torsional Free Energy           =   +3.88 kcal/mol
DOCKED: USER    (4) Unbound System's Energy  [=(2)] =   -0.91 kcal/mol
DOCKED: USER    
DOCKED: USER    
DOCKED: USER    NEWDPF move heme_opt.pdbqt
DOCKED: USER    NEWDPF about 0.153000 0.018000 -0.028000
DOCKED: USER    NEWDPF tran0 19.623768 47.661073 -5.622821
DOCKED: USER    NEWDPF quaternion0 0.258871 -0.222927 0.042867 -0.938857
DOCKED: USER    NEWDPF axisangle0 0.751857 -0.647464 0.124502 -40.279169
DOCKED: USER    NEWDPF quat0 0.751857 -0.647464 0.124502 -40.279169
DOCKED: USER    NEWDPF dihe0 -115.43 -31.89 105.99 -110.53 4.85 -162.13 102.28 -15.82 -133.92 -150.27 42.62 -89.75 -49.20 
DOCKED: USER  keepresnum = 1 
DOCKED: USER  
DOCKED: REMARK  13 active torsions:
DOCKED: REMARK  status: ('A' for Active; 'I' for Inactive)
DOCKED: REMARK    1  A    between atoms: O_3  and  C_38 
DOCKED: REMARK    2  A    between atoms: O_4  and  C_40 
DOCKED: REMARK    3  A    between atoms: O_7  and  C_46 
DOCKED: REMARK    4  A    between atoms: O_9  and  C_48 
DOCKED: REMARK    5  A    between atoms: C_15  and  C_20 
DOCKED: REMARK    6  A    between atoms: C_16  and  C_23 
DOCKED: REMARK    7  A    between atoms: C_20  and  C_38 
DOCKED: REMARK    8  A    between atoms: C_23  and  C_40 
DOCKED: REMARK    9  A    between atoms: C_32  and  C_41 
DOCKED: REMARK   10  A    between atoms: C_37  and  C_45 
DOCKED: REMARK   11  A    between atoms: C_41  and  C_44 
DOCKED: REMARK   12  A    between atoms: C_44  and  C_46 
DOCKED: REMARK   13  A    between atoms: C_47  and  C_48 
DOCKED: USER                              x       y       z     vdW  Elec       q    Type
DOCKED: USER                           _______ _______ _______ _____ _____    ______ ____
DOCKED: ROOT
DOCKED: ATOM      1  O   UNL d   1      14.003  48.986  -6.811 -0.18 +0.04    -0.289 OA
DOCKED: ATOM      2  O   UNL d   1      18.816  44.373 -10.267 -0.10 -0.05    -0.289 OA
DOCKED: ATOM      3  N   UNL d   1      17.287  48.628  -5.819 -0.08 +0.04    -0.247 NA
DOCKED: ATOM      4  N   UNL d   1      18.285  46.423  -7.542 -0.12 +0.01    -0.247 NA
DOCKED: ATOM      5  N   UNL d   1      20.577  46.235  -5.817 -0.08 +0.00    -0.354 N 
DOCKED: ATOM      6  N   UNL d   1      19.525  48.511  -4.023 +0.05 +0.10    -0.354 N 
DOCKED: ATOM      7  C   UNL d   1      15.334  49.815  -4.935 -0.22 -0.02    +0.084 A 
DOCKED: ATOM      8  C   UNL d   1      17.175  46.096  -9.695 -0.15 -0.01    +0.084 A 
DOCKED: ATOM      9  C   UNL d   1      17.240  46.821  -8.347 -0.17 -0.01    +0.058 A 
DOCKED: ATOM     10  C   UNL d   1      16.812  49.439  -4.802 -0.19 -0.01    +0.058 A 
DOCKED: ATOM     11  C   UNL d   1      15.062  49.089  -6.218 -0.14 -0.03    +0.193 A 
DOCKED: ATOM     12  C   UNL d   1      16.330  48.431  -6.666 -0.14 -0.01    +0.109 A 
DOCKED: ATOM     13  C   UNL d   1      18.352  45.186  -9.491 -0.10 +0.01    +0.193 A 
DOCKED: ATOM     14  C   UNL d   1      14.481  49.195  -3.825 -0.20 -0.01    +0.026 C 
DOCKED: ATOM     15  C   UNL d   1      16.328  47.728  -7.965 -0.19 -0.01    +0.055 C 
DOCKED: ATOM     16  C   UNL d   1      17.477  47.040 -10.863 -0.06 -0.00    +0.026 C 
DOCKED: ATOM     17  C   UNL d   1      18.932  45.478  -8.146 -0.17 +0.01    +0.109 A 
DOCKED: ATOM     18  C   UNL d   1      17.580  49.943  -3.818 -0.18 -0.01    +0.050 C 
DOCKED: ATOM     19  C   UNL d   1      18.972  49.719  -3.664 -0.08 -0.01    +0.045 A 
DOCKED: ATOM     20  C   UNL d   1      20.759  45.107  -6.573 -0.25 +0.00    +0.045 A 
DOCKED: ATOM     21  C   UNL d   1      20.080  44.703  -7.652 -0.25 +0.01    +0.057 C 
DOCKED: ATOM     22  C   UNL d   1      22.302  45.123  -4.889 -0.25 -0.00    -0.019 A 
DOCKED: ATOM     23  C   UNL d   1      21.462  46.332  -4.776 -0.24 -0.00    +0.045 A 
DOCKED: ATOM     24  C   UNL d   1      21.882  44.402  -5.956 -0.26 -0.00    -0.022 A 
DOCKED: ATOM     25  C   UNL d   1      20.864  48.479  -3.707 -0.17 -0.01    +0.049 A 
DOCKED: ATOM     26  C   UNL d   1      19.984  50.506  -3.135 -0.15 +0.00    -0.018 A 
DOCKED: ATOM     27  C   UNL d   1      21.180  49.725  -3.183 -0.12 -0.00    +0.003 A 
DOCKED: ATOM     28  C   UNL d   1      21.616  47.280  -3.839 -0.26 -0.00    +0.052 C 
DOCKED: ATOM     29  C   UNL d   1      22.419  43.115  -6.483 -0.24 +0.01    +0.046 C 
DOCKED: ATOM     30  C   UNL d   1      19.851  51.898  -2.619 -0.18 -0.01    +0.046 C 
DOCKED: ATOM     31  H   UNL d   1      19.899  46.942  -6.081 +0.06 -0.01    +0.166 HD
DOCKED: ATOM     32  H   UNL d   1      18.993  47.748  -4.425 -0.03 -0.04    +0.166 HD
DOCKED: ENDROOT
DOCKED: BRANCH   7  33
DOCKED: ATOM     33  C   UNL d   1      15.048  51.312  -5.093 -0.16 -0.02    +0.141 C 
DOCKED: BRANCH  33  34
DOCKED: ATOM     34  C   UNL d   1      14.938  52.024  -3.772 -0.21 -0.07    +0.306 C 
DOCKED: ATOM     35  O   UNL d   1      15.801  52.085  -2.913 -0.57 +0.05    -0.251 OA
DOCKED: BRANCH  34  36
DOCKED: ATOM     36  O   UNL d   1      13.746  52.624  -3.605 -0.53 +0.17    -0.481 OA
DOCKED: ATOM     37  H   UNL d   1      13.096  51.890  -3.623 -0.23 -0.23    +0.295 HD
DOCKED: ENDBRANCH  34  36
DOCKED: ENDBRANCH  33  34
DOCKED: ENDBRANCH   7  33
DOCKED: BRANCH  27  38
DOCKED: ATOM     38  C   UNL d   1      22.464  50.154  -2.719 -0.07 -0.00    +0.017 C 
DOCKED: ATOM     39  C   UNL d   1      23.238  49.483  -1.851 -0.08 +0.00    +0.092 C 
DOCKED: BRANCH  39  40
DOCKED: ATOM     40  C   UNL d   1      24.544  50.025  -1.468 -0.01 +0.02    +0.330 C 
DOCKED: ATOM     41  O   UNL d   1      25.460  49.440  -0.921 -0.02 -0.03    -0.246 OA
DOCKED: BRANCH  40  42
DOCKED: ATOM     42  O   UNL d   1      24.629  51.317  -1.818 +0.01 -0.02    -0.477 OA
DOCKED: ATOM     43  H   UNL d   1      25.205  51.710  -1.130 +0.01 +0.01    +0.295 HD
DOCKED: ENDBRANCH  40  42
DOCKED: ENDBRANCH  39  40
DOCKED: ENDBRANCH  27  38
DOCKED: BRANCH   8  44
DOCKED: ATOM     44  C   UNL d   1      15.896  45.291  -9.950 -0.13 -0.06    +0.141 C 
DOCKED: BRANCH  44  45
DOCKED: ATOM     45  C   UNL d   1      15.656  45.003 -11.408 -0.08 -0.15    +0.306 C 
DOCKED: ATOM     46  O   UNL d   1      16.406  44.410 -12.164 -0.08 +0.04    -0.251 OA
DOCKED: BRANCH  45  47
DOCKED: ATOM     47  O   UNL d   1      14.488  45.505 -11.847 -0.02 +0.41    -0.481 OA
DOCKED: ATOM     48  H   UNL d   1      13.806  44.905 -11.477 -0.41 -0.68    +0.295 HD
DOCKED: ENDBRANCH  45  47
DOCKED: ENDBRANCH  44  45
DOCKED: ENDBRANCH   8  44
DOCKED: BRANCH  22  49
DOCKED: ATOM     49  C   UNL d   1      23.417  44.780  -3.945 -0.22 +0.01    +0.048 C 
DOCKED: BRANCH  49  50
DOCKED: ATOM     50  C   UNL d   1      24.687  44.370  -4.690 -0.20 +0.02    +0.125 C 
DOCKED: BRANCH  50  51
DOCKED: ATOM     51  C   UNL d   1      25.318  43.165  -4.052 -0.19 +0.06    +0.305 C 
DOCKED: ATOM     52  O   UNL d   1      25.173  42.768  -2.910 -0.32 -0.07    -0.251 OA
DOCKED: BRANCH  51  53
DOCKED: ATOM     53  O   UNL d   1      26.130  42.510  -4.905 -0.05 -0.08    -0.481 OA
DOCKED: ATOM     54  H   UNL d   1      26.886  43.122  -5.030 +0.06 +0.04    +0.295 HD
DOCKED: ENDBRANCH  51  53
DOCKED: ENDBRANCH  50  51
DOCKED: ENDBRANCH  49  50
DOCKED: ENDBRANCH  22  49
DOCKED: TORSDOF 13
DOCKED: TER
DOCKED: ENDMDL
________________________________________________________________________________


	BEGINNING GENETIC ALGORITHM DOCKING 42 of 100
Run: 42 Seed: 1323483354 1775374006 [ Run 42 of 100 GA/GALS ]
Beginning LAMARCKIAN GENETIC ALGORITHM (LGA), with a maximum of 25000000 energy evaluations.

Final-Value: -11.095


	FINAL GENETIC ALGORITHM DOCKED STATE
	_______________________________________________


Detailed state:  trans 42.839 26.174 17.697 quatxyzw 0.241685 -0.925552 -0.025727 0.290311 center 0.153 0.018 -0.028 ntor 13 87.7194 26.1371 -125.7639 135.4093 4.6873 -120.9708 122.0633 1.5463 -131.0018 -23.0565 -65.2736 -85.7134 -153.1059
State:	 42.839  26.174  17.697   0.253 -0.967 -0.027 146.247     87.72   26.14 -125.76  135.41    4.69 -120.97  122.06    1.55 -131.00  -23.06  -65.27  -85.71 -153.11

DOCKED: MODEL       42
DOCKED: USER    Run = 42
DOCKED: USER    DPF = D:/Protein_go_brrr/autodock/final/2DN3/heme/dock.dpf
DOCKED: USER  
DOCKED: USER    Estimated Free Energy of Binding    =   -5.40 kcal/mol  [=(1)+(2)+(3)-(4)]
DOCKED: USER    Estimated Inhibition Constant, Ki   =  109.38 uM (micromolar)  [Temperature = 298.15 K]
DOCKED: USER    
DOCKED: USER    (1) Final Intermolecular Energy     =   -9.28 kcal/mol
DOCKED: USER        vdW + Hbond + desolv Energy     =   -9.24 kcal/mol
DOCKED: USER        Electrostatic Energy            =   -0.05 kcal/mol
DOCKED: USER    (2) Final Total Internal Energy     =   -1.81 kcal/mol
DOCKED: USER    (3) Torsional Free Energy           =   +3.88 kcal/mol
DOCKED: USER    (4) Unbound System's Energy  [=(2)] =   -1.81 kcal/mol
DOCKED: USER    
DOCKED: USER    
DOCKED: USER    NEWDPF move heme_opt.pdbqt
DOCKED: USER    NEWDPF about 0.153000 0.018000 -0.028000
DOCKED: USER    NEWDPF tran0 42.838707 26.173607 17.696579
DOCKED: USER    NEWDPF quaternion0 0.241685 -0.925552 -0.025727 0.290311
DOCKED: USER    NEWDPF axisangle0 0.252562 -0.967207 -0.026885 146.246879
DOCKED: USER    NEWDPF quat0 0.252562 -0.967207 -0.026885 146.246879
DOCKED: USER    NEWDPF dihe0 87.72 26.14 -125.76 135.41 4.69 -120.97 122.06 1.55 -131.00 -23.06 -65.27 -85.71 -153.11 
DOCKED: USER  keepresnum = 1 
DOCKED: USER  
DOCKED: REMARK  13 active torsions:
DOCKED: REMARK  status: ('A' for Active; 'I' for Inactive)
DOCKED: REMARK    1  A    between atoms: O_3  and  C_38 
DOCKED: REMARK    2  A    between atoms: O_4  and  C_40 
DOCKED: REMARK    3  A    between atoms: O_7  and  C_46 
DOCKED: REMARK    4  A    between atoms: O_9  and  C_48 
DOCKED: REMARK    5  A    between atoms: C_15  and  C_20 
DOCKED: REMARK    6  A    between atoms: C_16  and  C_23 
DOCKED: REMARK    7  A    between atoms: C_20  and  C_38 
DOCKED: REMARK    8  A    between atoms: C_23  and  C_40 
DOCKED: REMARK    9  A    between atoms: C_32  and  C_41 
DOCKED: REMARK   10  A    between atoms: C_37  and  C_45 
DOCKED: REMARK   11  A    between atoms: C_41  and  C_44 
DOCKED: REMARK   12  A    between atoms: C_44  and  C_46 
DOCKED: REMARK   13  A    between atoms: C_47  and  C_48 
DOCKED: USER                              x       y       z     vdW  Elec       q    Type
DOCKED: USER                           _______ _______ _______ _____ _____    ______ ____
DOCKED: ROOT
DOCKED: ATOM      1  O   UNL d   1      46.408  30.211  20.087 -0.14 -0.22    -0.289 OA
DOCKED: ATOM      2  O   UNL d   1      46.149  22.752  20.917 -0.14 -0.14    -0.289 OA
DOCKED: ATOM      3  N   UNL d   1      44.018  28.244  18.566 +0.10 -0.11    -0.247 NA
DOCKED: ATOM      4  N   UNL d   1      44.892  25.480  19.218 -0.09 -0.13    -0.247 NA
DOCKED: ATOM      5  N   UNL d   1      43.052  24.527  17.225 -0.13 -0.13    -0.354 N 
DOCKED: ATOM      6  N   UNL d   1      42.165  27.399  16.541 -0.18 -0.12    -0.354 N 
DOCKED: ATOM      7  C   UNL d   1      44.628  30.616  18.461 -0.24 +0.03    +0.084 A 
DOCKED: ATOM      8  C   UNL d   1      46.219  25.177  21.247 -0.10 +0.06    +0.084 A 
DOCKED: ATOM      9  C   UNL d   1      45.533  26.121  20.255 -0.14 +0.04    +0.058 A 
DOCKED: ATOM     10  C   UNL d   1      43.730  29.469  17.987 -0.23 +0.02    +0.058 A 
DOCKED: ATOM     11  C   UNL d   1      45.463  29.825  19.423 -0.15 +0.12    +0.193 A 
DOCKED: ATOM     12  C   UNL d   1      44.979  28.409  19.415 -0.09 +0.07    +0.109 A 
DOCKED: ATOM     13  C   UNL d   1      45.881  23.883  20.561 -0.08 +0.11    +0.193 A 
DOCKED: ATOM     14  C   UNL d   1      45.529  31.141  17.340 +0.17 +0.01    +0.026 C 
DOCKED: ATOM     15  C   UNL d   1      45.596  27.457  20.361 -0.20 +0.05    +0.055 C 
DOCKED: ATOM     16  C   UNL d   1      45.537  25.200  22.618 -0.21 +0.02    +0.026 C 
DOCKED: ATOM     17  C   UNL d   1      45.082  24.206  19.341 -0.15 +0.06    +0.109 A 
DOCKED: ATOM     18  C   UNL d   1      42.699  29.684  17.149 -0.37 +0.02    +0.050 C 
DOCKED: ATOM     19  C   UNL d   1      41.766  28.704  16.724 +0.07 +0.02    +0.045 A 
DOCKED: ATOM     20  C   UNL d   1      43.732  23.367  17.491 -0.29 +0.02    +0.045 A 
DOCKED: ATOM     21  C   UNL d   1      44.643  23.129  18.440 -0.21 +0.03    +0.057 C 
DOCKED: ATOM     22  C   UNL d   1      42.335  23.013  15.719 -0.33 -0.00    -0.019 A 
DOCKED: ATOM     23  C   UNL d   1      42.185  24.411  16.171 -0.26 +0.01    +0.045 A 
DOCKED: ATOM     24  C   UNL d   1      43.251  22.400  16.506 -0.25 -0.01    -0.022 A 
DOCKED: ATOM     25  C   UNL d   1      41.130  26.643  16.043 -0.37 +0.01    +0.049 A 
DOCKED: ATOM     26  C   UNL d   1      40.429  28.790  16.371 -0.08 -0.01    -0.018 A 
DOCKED: ATOM     27  C   UNL d   1      40.027  27.481  15.960 -0.37 +0.00    +0.003 A 
DOCKED: ATOM     28  C   UNL d   1      41.342  25.301  15.625 -0.35 +0.01    +0.052 C 
DOCKED: ATOM     29  C   UNL d   1      43.733  20.990  16.451 -0.35 +0.02    +0.046 C 
DOCKED: ATOM     30  C   UNL d   1      39.573  30.010  16.413 -0.35 +0.01    +0.046 C 
DOCKED: ATOM     31  H   UNL d   1      43.148  25.342  17.821 +0.09 +0.06    +0.166 HD
DOCKED: ATOM     32  H   UNL d   1      43.108  27.071  16.716 +0.08 +0.06    +0.166 HD
DOCKED: ENDROOT
DOCKED: BRANCH   7  33
DOCKED: ATOM     33  C   UNL d   1      43.908  31.758  19.186 -0.30 +0.05    +0.141 C 
DOCKED: BRANCH  33  34
DOCKED: ATOM     34  C   UNL d   1      43.307  32.758  18.236 -0.23 +0.06    +0.306 C 
DOCKED: ATOM     35  O   UNL d   1      42.477  32.525  17.374 -0.29 -0.05    -0.251 OA
DOCKED: BRANCH  34  36
DOCKED: ATOM     36  O   UNL d   1      43.781  34.002  18.425 -0.16 -0.06    -0.481 OA
DOCKED: ATOM     37  H   UNL d   1      43.128  34.428  19.020 +0.03 -0.02    +0.295 HD
DOCKED: ENDBRANCH  34  36
DOCKED: ENDBRANCH  33  34
DOCKED: ENDBRANCH   7  33
DOCKED: BRANCH  27  38
DOCKED: ATOM     38  C   UNL d   1      38.718  27.127  15.498 -0.30 +0.00    +0.017 C 
DOCKED: ATOM     39  C   UNL d   1      38.453  26.430  14.383 -0.43 +0.02    +0.092 C 
DOCKED: BRANCH  39  40
DOCKED: ATOM     40  C   UNL d   1      37.066  26.116  14.030 -0.28 +0.06    +0.330 C 
DOCKED: ATOM     41  O   UNL d   1      36.577  25.019  13.839 -0.43 -0.04    -0.246 OA
DOCKED: BRANCH  40  42
DOCKED: ATOM     42  O   UNL d   1      36.346  27.245  13.943 -0.09 -0.07    -0.477 OA
DOCKED: ATOM     43  H   UNL d   1      35.430  26.955  14.134 +0.24 +0.04    +0.295 HD
DOCKED: ENDBRANCH  40  42
DOCKED: ENDBRANCH  39  40
DOCKED: ENDBRANCH  27  38
DOCKED: BRANCH   8  44
DOCKED: ATOM     44  C   UNL d   1      47.736  25.348  21.380 -0.03 +0.08    +0.141 C 
DOCKED: BRANCH  44  45
DOCKED: ATOM     45  C   UNL d   1      48.499  24.835  20.188 -0.00 +0.16    +0.306 C 
DOCKED: ATOM     46  O   UNL d   1      48.630  25.395  19.113 -0.04 -0.14    -0.251 OA
DOCKED: BRANCH  45  47
DOCKED: ATOM     47  O   UNL d   1      49.037  23.621  20.404 +0.01 -0.23    -0.481 OA
DOCKED: ATOM     48  H   UNL d   1      48.286  23.066  20.703 +0.04 +0.14    +0.295 HD
DOCKED: ENDBRANCH  45  47
DOCKED: ENDBRANCH  44  45
DOCKED: ENDBRANCH   8  44
DOCKED: BRANCH  22  49
DOCKED: ATOM     49  C   UNL d   1      41.587  22.417  14.563 -0.39 +0.01    +0.048 C 
DOCKED: BRANCH  49  50
DOCKED: ATOM     50  C   UNL d   1      42.533  21.838  13.511 -0.22 +0.04    +0.125 C 
DOCKED: BRANCH  50  51
DOCKED: ATOM     51  C   UNL d   1      42.365  20.349  13.399 -0.29 +0.06    +0.305 C 
DOCKED: ATOM     52  O   UNL d   1      41.658  19.628  14.081 -0.32 -0.04    -0.251 OA
DOCKED: BRANCH  51  53
DOCKED: ATOM     53  O   UNL d   1      43.126  19.828  12.416 -0.10 -0.08    -0.481 OA
DOCKED: ATOM     54  H   UNL d   1      42.991  20.439  11.662 -0.29 -0.04    +0.295 HD
DOCKED: ENDBRANCH  51  53
DOCKED: ENDBRANCH  50  51
DOCKED: ENDBRANCH  49  50
DOCKED: ENDBRANCH  22  49
DOCKED: TORSDOF 13
DOCKED: TER
DOCKED: ENDMDL
________________________________________________________________________________


	BEGINNING GENETIC ALGORITHM DOCKING 43 of 100
Run: 43 Seed: 289882018 1354452507 [ Run 43 of 100 GA/GALS ]
Beginning LAMARCKIAN GENETIC ALGORITHM (LGA), with a maximum of 25000000 energy evaluations.

Final-Value: -11.166


	FINAL GENETIC ALGORITHM DOCKED STATE
	_______________________________________________


Detailed state:  trans 2.076 31.286 19.573 quatxyzw -0.727066 0.138546 0.530899 0.412705 center 0.153 0.018 -0.028 ntor 13 129.5677 -139.3635 -116.6155 -16.6619 -134.9922 -69.0670 122.1673 -22.0629 24.8181 -26.0290 67.1886 -31.7038 119.9384
State:	  2.076  31.286  19.573  -0.798  0.152  0.583 131.250    129.57 -139.36 -116.62  -16.66 -134.99  -69.07  122.17  -22.06   24.82  -26.03   67.19  -31.70  119.94

DOCKED: MODEL       43
DOCKED: USER    Run = 43
DOCKED: USER    DPF = D:/Protein_go_brrr/autodock/final/2DN3/heme/dock.dpf
DOCKED: USER  
DOCKED: USER    Estimated Free Energy of Binding    =   -2.92 kcal/mol  [=(1)+(2)+(3)-(4)]
DOCKED: USER    Estimated Inhibition Constant, Ki   =    7.28 mM (millimolar)  [Temperature = 298.15 K]
DOCKED: USER    
DOCKED: USER    (1) Final Intermolecular Energy     =   -6.79 kcal/mol
DOCKED: USER        vdW + Hbond + desolv Energy     =   -6.75 kcal/mol
DOCKED: USER        Electrostatic Energy            =   -0.05 kcal/mol
DOCKED: USER    (2) Final Total Internal Energy     =   -4.37 kcal/mol
DOCKED: USER    (3) Torsional Free Energy           =   +3.88 kcal/mol
DOCKED: USER    (4) Unbound System's Energy  [=(2)] =   -4.37 kcal/mol
DOCKED: USER    
DOCKED: USER    
DOCKED: USER    NEWDPF move heme_opt.pdbqt
DOCKED: USER    NEWDPF about 0.153000 0.018000 -0.028000
DOCKED: USER    NEWDPF tran0 2.076169 31.285845 19.573029
DOCKED: USER    NEWDPF quaternion0 -0.727066 0.138546 0.530899 0.412705
DOCKED: USER    NEWDPF axisangle0 -0.798215 0.152104 0.582852 131.250239
DOCKED: USER    NEWDPF quat0 -0.798215 0.152104 0.582852 131.250239
DOCKED: USER    NEWDPF dihe0 129.57 -139.36 -116.62 -16.66 -134.99 -69.07 122.17 -22.06 24.82 -26.03 67.19 -31.70 119.94 
DOCKED: USER  keepresnum = 1 
DOCKED: USER  
DOCKED: REMARK  13 active torsions:
DOCKED: REMARK  status: ('A' for Active; 'I' for Inactive)
DOCKED: REMARK    1  A    between atoms: O_3  and  C_38 
DOCKED: REMARK    2  A    between atoms: O_4  and  C_40 
DOCKED: REMARK    3  A    between atoms: O_7  and  C_46 
DOCKED: REMARK    4  A    between atoms: O_9  and  C_48 
DOCKED: REMARK    5  A    between atoms: C_15  and  C_20 
DOCKED: REMARK    6  A    between atoms: C_16  and  C_23 
DOCKED: REMARK    7  A    between atoms: C_20  and  C_38 
DOCKED: REMARK    8  A    between atoms: C_23  and  C_40 
DOCKED: REMARK    9  A    between atoms: C_32  and  C_41 
DOCKED: REMARK   10  A    between atoms: C_37  and  C_45 
DOCKED: REMARK   11  A    between atoms: C_41  and  C_44 
DOCKED: REMARK   12  A    between atoms: C_44  and  C_46 
DOCKED: REMARK   13  A    between atoms: C_47  and  C_48 
DOCKED: USER                              x       y       z     vdW  Elec       q    Type
DOCKED: USER                           _______ _______ _______ _____ _____    ______ ____
DOCKED: ROOT
DOCKED: ATOM      1  O   UNL d   1      -0.331  33.533  24.463 -0.02 +0.02    -0.289 OA
DOCKED: ATOM      2  O   UNL d   1       1.271  36.710  17.850 -0.47 +0.04    -0.289 OA
DOCKED: ATOM      3  N   UNL d   1       1.224  31.828  21.900 -0.04 +0.03    -0.247 NA
DOCKED: ATOM      4  N   UNL d   1       1.155  33.767  19.649 -0.11 +0.05    -0.247 NA
DOCKED: ATOM      5  N   UNL d   1       1.873  31.610  17.890 -0.08 +0.04    -0.354 N 
DOCKED: ATOM      6  N   UNL d   1       1.924  29.601  20.227 -0.05 +0.01    -0.354 N 
DOCKED: ATOM      7  C   UNL d   1       0.340  31.210  24.101 -0.05 -0.00    +0.084 A 
DOCKED: ATOM      8  C   UNL d   1       1.059  36.141  20.222 -0.16 -0.02    +0.084 A 
DOCKED: ATOM      9  C   UNL d   1       1.035  34.678  20.675 -0.14 -0.01    +0.058 A 
DOCKED: ATOM     10  C   UNL d   1       1.026  30.792  22.797 -0.09 -0.00    +0.058 A 
DOCKED: ATOM     11  C   UNL d   1       0.202  32.670  23.789 -0.05 -0.02    +0.193 A 
DOCKED: ATOM     12  C   UNL d   1       0.798  32.924  22.439 -0.03 -0.02    +0.109 A 
DOCKED: ATOM     13  C   UNL d   1       1.178  35.892  18.744 -0.18 -0.04    +0.193 A 
DOCKED: ATOM     14  C   UNL d   1      -1.057  30.599  24.237 -0.01 -0.00    +0.026 C 
DOCKED: ATOM     15  C   UNL d   1       0.859  34.318  21.956 -0.09 -0.01    +0.055 C 
DOCKED: ATOM     16  C   UNL d   1       2.321  36.864  20.702 -0.33 -0.01    +0.026 C 
DOCKED: ATOM     17  C   UNL d   1       1.218  34.414  18.530 -0.19 -0.02    +0.109 A 
DOCKED: ATOM     18  C   UNL d   1       1.469  29.535  22.607 -0.12 -0.00    +0.050 C 
DOCKED: ATOM     19  C   UNL d   1       2.187  29.078  21.473 -0.08 +0.00    +0.045 A 
DOCKED: ATOM     20  C   UNL d   1       1.571  32.577  16.966 -0.18 -0.00    +0.045 A 
DOCKED: ATOM     21  C   UNL d   1       1.289  33.868  17.166 +0.18 -0.01    +0.057 C 
DOCKED: ATOM     22  C   UNL d   1       1.941  30.603  15.876 -0.23 +0.00    -0.019 A 
DOCKED: ATOM     23  C   UNL d   1       2.111  30.385  17.326 -0.20 -0.00    +0.045 A 
DOCKED: ATOM     24  C   UNL d   1       1.622  31.903  15.669 -0.23 +0.00    -0.022 A 
DOCKED: ATOM     25  C   UNL d   1       2.665  28.954  19.265 -0.21 -0.00    +0.049 A 
DOCKED: ATOM     26  C   UNL d   1       3.151  28.093  21.322 -0.22 +0.00    -0.018 A 
DOCKED: ATOM     27  C   UNL d   1       3.463  28.032  19.928 -0.31 -0.00    +0.003 A 
DOCKED: ATOM     28  C   UNL d   1       2.450  29.212  17.884 -0.21 -0.00    +0.052 C 
DOCKED: ATOM     29  C   UNL d   1       1.365  32.607  14.380 -0.22 +0.00    +0.046 C 
DOCKED: ATOM     30  C   UNL d   1       3.748  27.258  22.404 -0.28 -0.00    +0.046 C 
DOCKED: ATOM     31  H   UNL d   1       1.980  31.836  18.873 +0.06 -0.02    +0.166 HD
DOCKED: ATOM     32  H   UNL d   1       1.243  30.332  20.059 +0.04 -0.01    +0.166 HD
DOCKED: ENDROOT
DOCKED: BRANCH   7  33
DOCKED: ATOM     33  C   UNL d   1       1.169  31.008  25.374 -0.06 -0.00    +0.141 C 
DOCKED: BRANCH  33  34
DOCKED: ATOM     34  C   UNL d   1       2.294  32.000  25.496 -0.09 -0.01    +0.306 C 
DOCKED: ATOM     35  O   UNL d   1       3.377  31.933  24.939 -0.21 +0.00    -0.251 OA
DOCKED: BRANCH  34  36
DOCKED: ATOM     36  O   UNL d   1       1.994  33.026  26.311 -0.01 +0.01    -0.481 OA
DOCKED: ATOM     37  H   UNL d   1       1.145  33.376  25.967 +0.04 -0.01    +0.295 HD
DOCKED: ENDBRANCH  34  36
DOCKED: ENDBRANCH  33  34
DOCKED: ENDBRANCH   7  33
DOCKED: BRANCH  27  38
DOCKED: ATOM     38  C   UNL d   1       4.404  27.134  19.332 -0.37 +0.00    +0.017 C 
DOCKED: ATOM     39  C   UNL d   1       4.767  27.138  18.040 -0.38 +0.00    +0.092 C 
DOCKED: BRANCH  39  40
DOCKED: ATOM     40  C   UNL d   1       5.758  26.173  17.557 -0.15 +0.03    +0.330 C 
DOCKED: ATOM     41  O   UNL d   1       6.952  26.153  17.789 -0.42 -0.04    -0.246 OA
DOCKED: BRANCH  40  42
DOCKED: ATOM     42  O   UNL d   1       5.163  25.247  16.788 -0.18 +0.01    -0.477 OA
DOCKED: ATOM     43  H   UNL d   1       4.521  25.761  16.256 +0.19 -0.02    +0.295 HD
DOCKED: ENDBRANCH  40  42
DOCKED: ENDBRANCH  39  40
DOCKED: ENDBRANCH  27  38
DOCKED: BRANCH   8  44
DOCKED: ATOM     44  C   UNL d   1      -0.200  36.953  20.542 -0.05 -0.02    +0.141 C 
DOCKED: BRANCH  44  45
DOCKED: ATOM     45  C   UNL d   1      -1.359  36.635  19.634 -0.01 -0.04    +0.306 C 
DOCKED: ATOM     46  O   UNL d   1      -2.090  35.663  19.702 -0.01 +0.02    -0.251 OA
DOCKED: BRANCH  45  47
DOCKED: ATOM     47  O   UNL d   1      -1.518  37.553  18.663 +0.01 +0.09    -0.481 OA
DOCKED: ATOM     48  H   UNL d   1      -0.691  37.505  18.138 +0.07 -0.07    +0.295 HD
DOCKED: ENDBRANCH  45  47
DOCKED: ENDBRANCH  44  45
DOCKED: ENDBRANCH   8  44
DOCKED: BRANCH  22  49
DOCKED: ATOM     49  C   UNL d   1       2.088  29.529  14.839 -0.17 -0.00    +0.048 C 
DOCKED: BRANCH  49  50
DOCKED: ATOM     50  C   UNL d   1       1.559  28.183  15.334 -0.17 -0.01    +0.125 C 
DOCKED: BRANCH  50  51
DOCKED: ATOM     51  C   UNL d   1       2.681  27.201  15.518 -0.20 -0.03    +0.305 C 
DOCKED: ATOM     52  O   UNL d   1       3.742  27.165  14.920 -0.39 +0.04    -0.251 OA
DOCKED: BRANCH  51  53
DOCKED: ATOM     53  O   UNL d   1       2.397  26.282  16.462 -0.02 +0.03    -0.481 OA
DOCKED: ATOM     54  H   UNL d   1       3.043  25.563  16.297 +0.14 -0.02    +0.295 HD
DOCKED: ENDBRANCH  51  53
DOCKED: ENDBRANCH  50  51
DOCKED: ENDBRANCH  49  50
DOCKED: ENDBRANCH  22  49
DOCKED: TORSDOF 13
DOCKED: TER
DOCKED: ENDMDL
________________________________________________________________________________


	BEGINNING GENETIC ALGORITHM DOCKING 44 of 100
Run: 44 Seed: 252747977 1508650805 [ Run 44 of 100 GA/GALS ]
Beginning LAMARCKIAN GENETIC ALGORITHM (LGA), with a maximum of 25000000 energy evaluations.

Final-Value: -11.101


	FINAL GENETIC ALGORITHM DOCKED STATE
	_______________________________________________


Detailed state:  trans 37.589 13.139 18.344 quatxyzw 0.438663 -0.643344 -0.367197 0.508773 center 0.153 0.018 -0.028 ntor 13 -117.6270 180.0000 -110.1201 -45.5855 64.5605 -1.7975 120.2334 -106.1529 153.5780 -37.3321 -96.6694 -12.2532 -15.7685
State:	 37.589  13.139  18.344   0.510 -0.747 -0.427 118.836   -117.63  180.00 -110.12  -45.59   64.56   -1.80  120.23 -106.15  153.58  -37.33  -96.67  -12.25  -15.77

DOCKED: MODEL       44
DOCKED: USER    Run = 44
DOCKED: USER    DPF = D:/Protein_go_brrr/autodock/final/2DN3/heme/dock.dpf
DOCKED: USER  
DOCKED: USER    Estimated Free Energy of Binding    =   -2.63 kcal/mol  [=(1)+(2)+(3)-(4)]
DOCKED: USER    Estimated Inhibition Constant, Ki   =   11.83 mM (millimolar)  [Temperature = 298.15 K]
DOCKED: USER    
DOCKED: USER    (1) Final Intermolecular Energy     =   -6.51 kcal/mol
DOCKED: USER        vdW + Hbond + desolv Energy     =   -6.44 kcal/mol
DOCKED: USER        Electrostatic Energy            =   -0.06 kcal/mol
DOCKED: USER    (2) Final Total Internal Energy     =   -4.59 kcal/mol
DOCKED: USER    (3) Torsional Free Energy           =   +3.88 kcal/mol
DOCKED: USER    (4) Unbound System's Energy  [=(2)] =   -4.59 kcal/mol
DOCKED: USER    
DOCKED: USER    
DOCKED: USER    NEWDPF move heme_opt.pdbqt
DOCKED: USER    NEWDPF about 0.153000 0.018000 -0.028000
DOCKED: USER    NEWDPF tran0 37.589462 13.138515 18.344257
DOCKED: USER    NEWDPF quaternion0 0.438663 -0.643344 -0.367197 0.508773
DOCKED: USER    NEWDPF axisangle0 0.509539 -0.747292 -0.426526 118.835736
DOCKED: USER    NEWDPF quat0 0.509539 -0.747292 -0.426526 118.835736
DOCKED: USER    NEWDPF dihe0 -117.63 180.00 -110.12 -45.59 64.56 -1.80 120.23 -106.15 153.58 -37.33 -96.67 -12.25 -15.77 
DOCKED: USER  keepresnum = 1 
DOCKED: USER  
DOCKED: REMARK  13 active torsions:
DOCKED: REMARK  status: ('A' for Active; 'I' for Inactive)
DOCKED: REMARK    1  A    between atoms: O_3  and  C_38 
DOCKED: REMARK    2  A    between atoms: O_4  and  C_40 
DOCKED: REMARK    3  A    between atoms: O_7  and  C_46 
DOCKED: REMARK    4  A    between atoms: O_9  and  C_48 
DOCKED: REMARK    5  A    between atoms: C_15  and  C_20 
DOCKED: REMARK    6  A    between atoms: C_16  and  C_23 
DOCKED: REMARK    7  A    between atoms: C_20  and  C_38 
DOCKED: REMARK    8  A    between atoms: C_23  and  C_40 
DOCKED: REMARK    9  A    between atoms: C_32  and  C_41 
DOCKED: REMARK   10  A    between atoms: C_37  and  C_45 
DOCKED: REMARK   11  A    between atoms: C_41  and  C_44 
DOCKED: REMARK   12  A    between atoms: C_44  and  C_46 
DOCKED: REMARK   13  A    between atoms: C_47  and  C_48 
DOCKED: USER                              x       y       z     vdW  Elec       q    Type
DOCKED: USER                           _______ _______ _______ _____ _____    ______ ____
DOCKED: ROOT
DOCKED: ATOM      1  O   UNL d   1      36.767  15.388  23.731 -0.22 +0.10    -0.289 OA
DOCKED: ATOM      2  O   UNL d   1      41.869  10.520  21.149 -0.01 -0.02    -0.289 OA
DOCKED: ATOM      3  N   UNL d   1      36.775  14.240  20.479 -0.13 -0.01    -0.247 NA
DOCKED: ATOM      4  N   UNL d   1      39.277  12.643  20.324 -0.07 -0.02    -0.247 NA
DOCKED: ATOM      5  N   UNL d   1      38.988  12.640  17.464 -0.04 -0.05    -0.354 N 
DOCKED: ATOM      6  N   UNL d   1      36.404  14.313  17.632 -0.13 -0.06    -0.354 N 
DOCKED: ATOM      7  C   UNL d   1      35.489  15.920  21.717 -0.29 -0.01    +0.084 A 
DOCKED: ATOM      8  C   UNL d   1      40.120  11.683  22.407 -0.07 -0.00    +0.084 A 
DOCKED: ATOM      9  C   UNL d   1      39.107  12.581  21.689 -0.14 -0.00    +0.058 A 
DOCKED: ATOM     10  C   UNL d   1      35.773  15.192  20.399 -0.26 +0.00    +0.058 A 
DOCKED: ATOM     11  C   UNL d   1      36.496  15.197  22.560 -0.20 -0.04    +0.193 A 
DOCKED: ATOM     12  C   UNL d   1      37.193  14.186  21.702 -0.12 -0.01    +0.109 A 
DOCKED: ATOM     13  C   UNL d   1      40.919  11.277  21.200 -0.05 +0.01    +0.193 A 
DOCKED: ATOM     14  C   UNL d   1      35.872  17.400  21.649 -0.25 -0.01    +0.026 C 
DOCKED: ATOM     15  C   UNL d   1      38.170  13.285  22.344 -0.11 -0.01    +0.055 C 
DOCKED: ATOM     16  C   UNL d   1      39.455  10.437  22.999 -0.02 +0.00    +0.026 C 
DOCKED: ATOM     17  C   UNL d   1      40.309  11.932  20.004 -0.09 +0.01    +0.109 A 
DOCKED: ATOM     18  C   UNL d   1      35.032  15.417  19.298 -0.33 +0.01    +0.050 C 
DOCKED: ATOM     19  C   UNL d   1      35.166  14.734  18.063 -0.25 +0.01    +0.045 A 
DOCKED: ATOM     20  C   UNL d   1      40.251  12.119  17.574 -0.08 +0.01    +0.045 A 
DOCKED: ATOM     21  C   UNL d   1      40.912  11.749  18.675 -0.10 +0.01    +0.057 C 
DOCKED: ATOM     22  C   UNL d   1      39.800  12.502  15.367 -0.07 -0.00    -0.019 A 
DOCKED: ATOM     23  C   UNL d   1      38.627  12.904  16.169 -0.12 +0.01    +0.045 A 
DOCKED: ATOM     24  C   UNL d   1      40.757  12.037  16.204 -0.07 -0.00    -0.022 A 
DOCKED: ATOM     25  C   UNL d   1      36.316  13.758  16.377 -0.19 +0.01    +0.049 A 
DOCKED: ATOM     26  C   UNL d   1      34.245  14.412  17.078 -0.22 -0.00    -0.018 A 
DOCKED: ATOM     27  C   UNL d   1      34.974  13.778  16.024 -0.13 +0.00    +0.003 A 
DOCKED: ATOM     28  C   UNL d   1      37.487  13.392  15.658 -0.19 +0.01    +0.052 C 
DOCKED: ATOM     29  C   UNL d   1      42.110  11.506  15.871 -0.03 +0.01    +0.046 C 
DOCKED: ATOM     30  C   UNL d   1      32.777  14.673  17.112 -0.25 +0.02    +0.046 C 
DOCKED: ATOM     31  H   UNL d   1      38.383  12.729  18.273 +0.03 +0.02    +0.166 HD
DOCKED: ATOM     32  H   UNL d   1      37.256  14.441  18.165 +0.06 +0.02    +0.166 HD
DOCKED: ENDROOT
DOCKED: BRANCH   7  33
DOCKED: ATOM     33  C   UNL d   1      34.078  15.729  22.282 -0.18 +0.01    +0.141 C 
DOCKED: BRANCH  33  34
DOCKED: ATOM     34  C   UNL d   1      33.687  16.817  23.245 -0.23 +0.01    +0.306 C 
DOCKED: ATOM     35  O   UNL d   1      32.755  17.593  23.116 -0.47 -0.06    -0.251 OA
DOCKED: BRANCH  34  36
DOCKED: ATOM     36  O   UNL d   1      34.491  16.869  24.322 -0.57 +0.10    -0.481 OA
DOCKED: ATOM     37  H   UNL d   1      35.385  17.037  23.955 -0.22 -0.13    +0.295 HD
DOCKED: ENDBRANCH  34  36
DOCKED: ENDBRANCH  33  34
DOCKED: ENDBRANCH   7  33
DOCKED: BRANCH  27  38
DOCKED: ATOM     38  C   UNL d   1      34.406  13.298  14.801 -0.09 +0.00    +0.017 C 
DOCKED: ATOM     39  C   UNL d   1      34.927  12.329  14.033 -0.07 +0.01    +0.092 C 
DOCKED: BRANCH  39  40
DOCKED: ATOM     40  C   UNL d   1      34.236  11.916  12.809 -0.02 +0.04    +0.330 C 
DOCKED: ATOM     41  O   UNL d   1      33.161  12.307  12.394 -0.03 -0.03    -0.246 OA
DOCKED: BRANCH  40  42
DOCKED: ATOM     42  O   UNL d   1      34.969  11.007  12.148 +0.00 -0.05    -0.477 OA
DOCKED: ATOM     43  H   UNL d   1      35.767  10.899  12.706 +0.01 +0.03    +0.295 HD
DOCKED: ENDBRANCH  40  42
DOCKED: ENDBRANCH  39  40
DOCKED: ENDBRANCH  27  38
DOCKED: BRANCH   8  44
DOCKED: ATOM     44  C   UNL d   1      41.007  12.383  23.442 -0.09 -0.00    +0.141 C 
DOCKED: BRANCH  44  45
DOCKED: ATOM     45  C   UNL d   1      42.251  12.986  22.847 -0.10 +0.01    +0.306 C 
DOCKED: ATOM     46  O   UNL d   1      42.321  14.015  22.197 -0.22 -0.01    -0.251 OA
DOCKED: BRANCH  45  47
DOCKED: ATOM     47  O   UNL d   1      43.347  12.242  23.081 -0.00 -0.03    -0.481 OA
DOCKED: ATOM     48  H   UNL d   1      43.217  11.433  22.542 +0.03 +0.02    +0.295 HD
DOCKED: ENDBRANCH  45  47
DOCKED: ENDBRANCH  44  45
DOCKED: ENDBRANCH   8  44
DOCKED: BRANCH  22  49
DOCKED: ATOM     49  C   UNL d   1      39.880  12.622  13.874 -0.05 +0.00    +0.048 C 
DOCKED: BRANCH  49  50
DOCKED: ATOM     50  C   UNL d   1      39.589  11.292  13.179 -0.01 +0.01    +0.125 C 
DOCKED: BRANCH  50  51
DOCKED: ATOM     51  C   UNL d   1      38.110  11.085  13.015 -0.00 +0.03    +0.305 C 
DOCKED: ATOM     52  O   UNL d   1      37.411  10.252  13.564 -0.00 -0.02    -0.251 OA
DOCKED: BRANCH  51  53
DOCKED: ATOM     53  O   UNL d   1      37.574  11.953  12.135 +0.00 -0.04    -0.481 OA
DOCKED: ATOM     54  H   UNL d   1      37.003  11.395  11.567 +0.01 +0.03    +0.295 HD
DOCKED: ENDBRANCH  51  53
DOCKED: ENDBRANCH  50  51
DOCKED: ENDBRANCH  49  50
DOCKED: ENDBRANCH  22  49
DOCKED: TORSDOF 13
DOCKED: TER
DOCKED: ENDMDL
________________________________________________________________________________


	BEGINNING GENETIC ALGORITHM DOCKING 45 of 100
Run: 45 Seed: 393256524 1294246735 [ Run 45 of 100 GA/GALS ]
Beginning LAMARCKIAN GENETIC ALGORITHM (LGA), with a maximum of 25000000 energy evaluations.

Final-Value: -13.931


	FINAL GENETIC ALGORITHM DOCKED STATE
	_______________________________________________


Detailed state:  trans 11.730 40.135 24.860 quatxyzw 0.693227 -0.544851 0.419269 -0.216304 center 0.153 0.018 -0.028 ntor 13 -179.7599 151.1296 111.8024 24.0904 -149.4809 114.2305 -50.5668 83.8134 22.4837 -130.8892 -83.5244 -108.6910 -2.5669
State:	 11.730  40.135  24.860   0.710 -0.558  0.429 -155.016   -179.76  151.13  111.80   24.09 -149.48  114.23  -50.57   83.81   22.48 -130.89  -83.52 -108.69   -2.57

DOCKED: MODEL       45
DOCKED: USER    Run = 45
DOCKED: USER    DPF = D:/Protein_go_brrr/autodock/final/2DN3/heme/dock.dpf
DOCKED: USER  
DOCKED: USER    Estimated Free Energy of Binding    =   -5.52 kcal/mol  [=(1)+(2)+(3)-(4)]
DOCKED: USER    Estimated Inhibition Constant, Ki   =   90.27 uM (micromolar)  [Temperature = 298.15 K]
DOCKED: USER    
DOCKED: USER    (1) Final Intermolecular Energy     =   -9.40 kcal/mol
DOCKED: USER        vdW + Hbond + desolv Energy     =   -9.30 kcal/mol
DOCKED: USER        Electrostatic Energy            =   -0.09 kcal/mol
DOCKED: USER    (2) Final Total Internal Energy     =   -4.54 kcal/mol
DOCKED: USER    (3) Torsional Free Energy           =   +3.88 kcal/mol
DOCKED: USER    (4) Unbound System's Energy  [=(2)] =   -4.54 kcal/mol
DOCKED: USER    
DOCKED: USER    
DOCKED: USER    NEWDPF move heme_opt.pdbqt
DOCKED: USER    NEWDPF about 0.153000 0.018000 -0.028000
DOCKED: USER    NEWDPF tran0 11.729597 40.134570 24.859661
DOCKED: USER    NEWDPF quaternion0 0.693227 -0.544851 0.419269 -0.216304
DOCKED: USER    NEWDPF axisangle0 0.710036 -0.558062 0.429436 -155.015907
DOCKED: USER    NEWDPF quat0 0.710036 -0.558062 0.429436 -155.015907
DOCKED: USER    NEWDPF dihe0 -179.76 151.13 111.80 24.09 -149.48 114.23 -50.57 83.81 22.48 -130.89 -83.52 -108.69 -2.57 
DOCKED: USER  keepresnum = 1 
DOCKED: USER  
DOCKED: REMARK  13 active torsions:
DOCKED: REMARK  status: ('A' for Active; 'I' for Inactive)
DOCKED: REMARK    1  A    between atoms: O_3  and  C_38 
DOCKED: REMARK    2  A    between atoms: O_4  and  C_40 
DOCKED: REMARK    3  A    between atoms: O_7  and  C_46 
DOCKED: REMARK    4  A    between atoms: O_9  and  C_48 
DOCKED: REMARK    5  A    between atoms: C_15  and  C_20 
DOCKED: REMARK    6  A    between atoms: C_16  and  C_23 
DOCKED: REMARK    7  A    between atoms: C_20  and  C_38 
DOCKED: REMARK    8  A    between atoms: C_23  and  C_40 
DOCKED: REMARK    9  A    between atoms: C_32  and  C_41 
DOCKED: REMARK   10  A    between atoms: C_37  and  C_45 
DOCKED: REMARK   11  A    between atoms: C_41  and  C_44 
DOCKED: REMARK   12  A    between atoms: C_44  and  C_46 
DOCKED: REMARK   13  A    between atoms: C_47  and  C_48 
DOCKED: USER                              x       y       z     vdW  Elec       q    Type
DOCKED: USER                           _______ _______ _______ _____ _____    ______ ____
DOCKED: ROOT
DOCKED: ATOM      1  O   UNL d   1      10.064  42.337  19.651 -0.16 +0.15    -0.289 OA
DOCKED: ATOM      2  O   UNL d   1      15.578  44.370  24.326 -0.11 +0.04    -0.289 OA
DOCKED: ATOM      3  N   UNL d   1      10.583  40.814  22.702 -0.16 +0.06    -0.247 NA
DOCKED: ATOM      4  N   UNL d   1      13.106  42.056  23.664 -0.10 +0.09    -0.247 NA
DOCKED: ATOM      5  N   UNL d   1      13.253  39.989  25.658 +0.07 +0.17    -0.354 N 
DOCKED: ATOM      6  N   UNL d   1      10.646  38.696  24.640 -0.14 +0.12    -0.354 N 
DOCKED: ATOM      7  C   UNL d   1       9.097  40.406  20.796 -0.31 -0.02    +0.084 A 
DOCKED: ATOM      8  C   UNL d   1      13.640  44.290  22.833 -0.13 -0.02    +0.084 A 
DOCKED: ATOM      9  C   UNL d   1      12.732  43.056  22.795 -0.20 -0.01    +0.058 A 
DOCKED: ATOM     10  C   UNL d   1       9.589  39.998  22.188 -0.30 -0.01    +0.058 A 
DOCKED: ATOM     11  C   UNL d   1       9.977  41.608  20.622 -0.15 -0.06    +0.193 A 
DOCKED: ATOM     12  C   UNL d   1      10.812  41.764  21.854 -0.20 -0.03    +0.109 A 
DOCKED: ATOM     13  C   UNL d   1      14.619  43.789  23.857 -0.13 -0.04    +0.193 A 
DOCKED: ATOM     14  C   UNL d   1       9.461  39.368  19.731 -0.46 +0.00    +0.026 C 
DOCKED: ATOM     15  C   UNL d   1      11.696  42.943  21.950 -0.23 -0.01    +0.055 C 
DOCKED: ATOM     16  C   UNL d   1      12.914  45.512  23.402 -0.05 -0.00    +0.026 C 
DOCKED: ATOM     17  C   UNL d   1      14.187  42.421  24.275 -0.17 -0.03    +0.109 A 
DOCKED: ATOM     18  C   UNL d   1       9.020  38.984  22.865 -0.37 -0.01    +0.050 C 
DOCKED: ATOM     19  C   UNL d   1       9.351  38.590  24.187 -0.26 -0.01    +0.045 A 
DOCKED: ATOM     20  C   UNL d   1      14.494  40.552  25.810 -0.16 -0.02    +0.045 A 
DOCKED: ATOM     21  C   UNL d   1      14.986  41.659  25.245 -0.25 -0.02    +0.057 C 
DOCKED: ATOM     22  C   UNL d   1      14.375  38.668  27.096 -0.24 +0.01    -0.019 A 
DOCKED: ATOM     23  C   UNL d   1      13.088  38.847  26.395 -0.29 -0.02    +0.045 A 
DOCKED: ATOM     24  C   UNL d   1      15.203  39.681  26.747 -0.26 +0.01    -0.022 A 
DOCKED: ATOM     25  C   UNL d   1      10.759  38.177  25.909 -0.25 -0.02    +0.049 A 
DOCKED: ATOM     26  C   UNL d   1       8.595  38.021  25.200 -0.26 +0.00    -0.018 A 
DOCKED: ATOM     27  C   UNL d   1       9.485  37.780  26.292 -0.24 -0.00    +0.003 A 
DOCKED: ATOM     28  C   UNL d   1      12.030  38.032  26.527 -0.34 -0.03    +0.052 C 
DOCKED: ATOM     29  C   UNL d   1      16.599  39.944  27.199 -0.28 -0.01    +0.046 C 
DOCKED: ATOM     30  C   UNL d   1       7.135  37.721  25.160 -0.22 -0.01    +0.046 C 
DOCKED: ATOM     31  H   UNL d   1      12.532  40.445  25.110 -0.29 -0.09    +0.166 HD
DOCKED: ATOM     32  H   UNL d   1      11.406  39.070  24.084 -0.22 -0.08    +0.166 HD
DOCKED: ENDROOT
DOCKED: BRANCH   7  33
DOCKED: ATOM     33  C   UNL d   1       7.620  40.804  20.711 -0.22 -0.03    +0.141 C 
DOCKED: BRANCH  33  34
DOCKED: ATOM     34  C   UNL d   1       7.333  42.115  21.392 -0.10 -0.11    +0.306 C 
DOCKED: ATOM     35  O   UNL d   1       6.933  42.261  22.535 -0.05 +0.06    -0.251 OA
DOCKED: BRANCH  34  36
DOCKED: ATOM     36  O   UNL d   1       7.569  43.174  20.597 -0.07 +0.38    -0.481 OA
DOCKED: ATOM     37  H   UNL d   1       7.913  42.786  19.765 -0.10 -0.33    +0.295 HD
DOCKED: ENDBRANCH  34  36
DOCKED: ENDBRANCH  33  34
DOCKED: ENDBRANCH   7  33
DOCKED: BRANCH  27  38
DOCKED: ATOM     38  C   UNL d   1       9.117  37.185  27.541 -0.21 -0.00    +0.017 C 
DOCKED: ATOM     39  C   UNL d   1       9.454  35.949  27.940 -0.23 -0.02    +0.092 C 
DOCKED: BRANCH  39  40
DOCKED: ATOM     40  C   UNL d   1       9.027  35.464  29.254 -0.12 +0.05    +0.330 C 
DOCKED: ATOM     41  O   UNL d   1       8.228  34.579  29.497 -0.50 -0.17    -0.246 OA
DOCKED: BRANCH  40  42
DOCKED: ATOM     42  O   UNL d   1       9.661  36.139  30.225 -0.02 +0.03    -0.477 OA
DOCKED: ATOM     43  H   UNL d   1      10.514  36.393  29.815 +0.05 -0.08    +0.295 HD
DOCKED: ENDBRANCH  40  42
DOCKED: ENDBRANCH  39  40
DOCKED: ENDBRANCH  27  38
DOCKED: BRANCH   8  44
DOCKED: ATOM     44  C   UNL d   1      14.348  44.630  21.517 -0.23 -0.03    +0.141 C 
DOCKED: BRANCH  44  45
DOCKED: ATOM     45  C   UNL d   1      15.215  45.857  21.608 -0.11 -0.05    +0.306 C 
DOCKED: ATOM     46  O   UNL d   1      14.898  46.995  21.311 -0.08 +0.04    -0.251 OA
DOCKED: BRANCH  45  47
DOCKED: ATOM     47  O   UNL d   1      16.456  45.579  22.047 -0.13 +0.07    -0.481 OA
DOCKED: ATOM     48  H   UNL d   1      16.336  45.326  22.987 +0.12 -0.03    +0.295 HD
DOCKED: ENDBRANCH  45  47
DOCKED: ENDBRANCH  44  45
DOCKED: ENDBRANCH   8  44
DOCKED: BRANCH  22  49
DOCKED: ATOM     49  C   UNL d   1      14.679  37.527  28.022 -0.14 -0.02    +0.048 C 
DOCKED: BRANCH  49  50
DOCKED: ATOM     50  C   UNL d   1      14.215  37.814  29.450 -0.15 -0.03    +0.125 C 
DOCKED: BRANCH  50  51
DOCKED: ATOM     51  C   UNL d   1      12.874  37.190  29.714 -0.07 -0.12    +0.305 C 
DOCKED: ATOM     52  O   UNL d   1      12.632  36.019  29.946 -0.12 +0.13    -0.251 OA
DOCKED: BRANCH  51  53
DOCKED: ATOM     53  O   UNL d   1      11.877  38.095  29.657 +0.00 +0.12    -0.481 OA
DOCKED: ATOM     54  H   UNL d   1      11.163  37.698  30.199 +0.04 -0.06    +0.295 HD
DOCKED: ENDBRANCH  51  53
DOCKED: ENDBRANCH  50  51
DOCKED: ENDBRANCH  49  50
DOCKED: ENDBRANCH  22  49
DOCKED: TORSDOF 13
DOCKED: TER
DOCKED: ENDMDL
________________________________________________________________________________


	BEGINNING GENETIC ALGORITHM DOCKING 46 of 100
Run: 46 Seed: 999582185 102290547 [ Run 46 of 100 GA/GALS ]
Beginning LAMARCKIAN GENETIC ALGORITHM (LGA), with a maximum of 25000000 energy evaluations.

Final-Value: -9.995


	FINAL GENETIC ALGORITHM DOCKED STATE
	_______________________________________________


Detailed state:  trans 17.798 11.602 14.080 quatxyzw 0.476716 0.487256 0.621620 0.385892 center 0.153 0.018 -0.028 ntor 13 137.7234 -179.5951 -168.9541 -45.1023 -135.5472 -3.8406 140.6054 -104.1647 24.2774 -7.4350 -96.3638 -11.5326 -15.4033
State:	 17.798  11.602  14.080   0.517  0.528  0.674 134.602    137.72 -179.60 -168.95  -45.10 -135.55   -3.84  140.61 -104.16   24.28   -7.44  -96.36  -11.53  -15.40

DOCKED: MODEL       46
DOCKED: USER    Run = 46
DOCKED: USER    DPF = D:/Protein_go_brrr/autodock/final/2DN3/heme/dock.dpf
DOCKED: USER  
DOCKED: USER    Estimated Free Energy of Binding    =   -1.26 kcal/mol  [=(1)+(2)+(3)-(4)]
DOCKED: USER    Estimated Inhibition Constant, Ki   =  118.27 mM (millimolar)  [Temperature = 298.15 K]
DOCKED: USER    
DOCKED: USER    (1) Final Intermolecular Energy     =   -5.14 kcal/mol
DOCKED: USER        vdW + Hbond + desolv Energy     =   -4.67 kcal/mol
DOCKED: USER        Electrostatic Energy            =   -0.47 kcal/mol
DOCKED: USER    (2) Final Total Internal Energy     =   -4.85 kcal/mol
DOCKED: USER    (3) Torsional Free Energy           =   +3.88 kcal/mol
DOCKED: USER    (4) Unbound System's Energy  [=(2)] =   -4.85 kcal/mol
DOCKED: USER    
DOCKED: USER    
DOCKED: USER    NEWDPF move heme_opt.pdbqt
DOCKED: USER    NEWDPF about 0.153000 0.018000 -0.028000
DOCKED: USER    NEWDPF tran0 17.798392 11.602188 14.080384
DOCKED: USER    NEWDPF quaternion0 0.476716 0.487256 0.621620 0.385892
DOCKED: USER    NEWDPF axisangle0 0.516741 0.528166 0.673810 134.601799
DOCKED: USER    NEWDPF quat0 0.516741 0.528166 0.673810 134.601799
DOCKED: USER    NEWDPF dihe0 137.72 -179.60 -168.95 -45.10 -135.55 -3.84 140.61 -104.16 24.28 -7.44 -96.36 -11.53 -15.40 
DOCKED: USER  keepresnum = 1 
DOCKED: USER  
DOCKED: REMARK  13 active torsions:
DOCKED: REMARK  status: ('A' for Active; 'I' for Inactive)
DOCKED: REMARK    1  A    between atoms: O_3  and  C_38 
DOCKED: REMARK    2  A    between atoms: O_4  and  C_40 
DOCKED: REMARK    3  A    between atoms: O_7  and  C_46 
DOCKED: REMARK    4  A    between atoms: O_9  and  C_48 
DOCKED: REMARK    5  A    between atoms: C_15  and  C_20 
DOCKED: REMARK    6  A    between atoms: C_16  and  C_23 
DOCKED: REMARK    7  A    between atoms: C_20  and  C_38 
DOCKED: REMARK    8  A    between atoms: C_23  and  C_40 
DOCKED: REMARK    9  A    between atoms: C_32  and  C_41 
DOCKED: REMARK   10  A    between atoms: C_37  and  C_45 
DOCKED: REMARK   11  A    between atoms: C_41  and  C_44 
DOCKED: REMARK   12  A    between atoms: C_44  and  C_46 
DOCKED: REMARK   13  A    between atoms: C_47  and  C_48 
DOCKED: USER                              x       y       z     vdW  Elec       q    Type
DOCKED: USER                           _______ _______ _______ _____ _____    ______ ____
DOCKED: ROOT
DOCKED: ATOM      1  O   UNL d   1      20.923  11.934   9.092 -0.04 -0.06    -0.289 OA
DOCKED: ATOM      2  O   UNL d   1      13.538  11.207  10.242 -0.02 -0.05    -0.289 OA
DOCKED: ATOM      3  N   UNL d   1      19.543  11.642  12.239 -0.14 -0.07    -0.247 NA
DOCKED: ATOM      4  N   UNL d   1      16.619  11.713  11.712 -0.52 -0.11    -0.247 NA
DOCKED: ATOM      5  N   UNL d   1      16.214  12.121  14.529 -0.02 -0.11    -0.354 N 
DOCKED: ATOM      6  N   UNL d   1      19.250  12.067  15.065 -0.04 -0.10    -0.354 N 
DOCKED: ATOM      7  C   UNL d   1      21.793  12.081  11.372 -0.06 +0.01    +0.084 A 
DOCKED: ATOM      8  C   UNL d   1      15.862  10.968   9.511 -0.05 +0.02    +0.084 A 
DOCKED: ATOM      9  C   UNL d   1      17.018  11.300  10.460 -0.06 +0.02    +0.058 A 
DOCKED: ATOM     10  C   UNL d   1      20.862  11.899  12.574 -0.09 +0.01    +0.058 A 
DOCKED: ATOM     11  C   UNL d   1      20.770  11.864  10.298 -0.06 +0.04    +0.193 A 
DOCKED: ATOM     12  C   UNL d   1      19.452  11.582  10.951 +0.01 +0.03    +0.109 A 
DOCKED: ATOM     13  C   UNL d   1      14.733  11.304  10.444 -0.05 +0.05    +0.193 A 
DOCKED: ATOM     14  C   UNL d   1      22.324  13.513  11.268 -0.10 +0.00    +0.026 C 
DOCKED: ATOM     15  C   UNL d   1      18.305  11.242  10.084 -0.07 +0.02    +0.055 C 
DOCKED: ATOM     16  C   UNL d   1      15.805   9.472   9.188 -0.01 +0.00    +0.026 C 
DOCKED: ATOM     17  C   UNL d   1      15.326  11.750  11.741 -0.15 +0.03    +0.109 A 
DOCKED: ATOM     18  C   UNL d   1      21.333  11.903  13.836 -0.06 +0.01    +0.050 C 
DOCKED: ATOM     19  C   UNL d   1      20.563  11.660  15.002 -0.04 +0.01    +0.045 A 
DOCKED: ATOM     20  C   UNL d   1      14.943  12.353  14.072 -0.12 +0.01    +0.045 A 
DOCKED: ATOM     21  C   UNL d   1      14.452  12.188  12.840 -0.18 +0.01    +0.057 C 
DOCKED: ATOM     22  C   UNL d   1      15.032  12.861  16.298 -0.27 -0.00    -0.019 A 
DOCKED: ATOM     23  C   UNL d   1      16.365  12.400  15.861 -0.17 +0.01    +0.045 A 
DOCKED: ATOM     24  C   UNL d   1      14.194  12.830  15.235 -0.21 -0.01    -0.022 A 
DOCKED: ATOM     25  C   UNL d   1      18.725  11.814  16.311 -0.06 +0.01    +0.049 A 
DOCKED: ATOM     26  C   UNL d   1      20.889  11.095  16.225 -0.01 -0.00    -0.018 A 
DOCKED: ATOM     27  C   UNL d   1      19.718  11.177  17.041 -0.02 +0.00    +0.003 A 
DOCKED: ATOM     28  C   UNL d   1      17.432  12.287  16.667 -0.15 +0.01    +0.052 C 
DOCKED: ATOM     29  C   UNL d   1      12.749  13.189  15.175 -0.28 +0.01    +0.046 C 
DOCKED: ATOM     30  C   UNL d   1      22.205  10.512  16.614 +0.00 +0.01    +0.046 C 
DOCKED: ATOM     31  H   UNL d   1      16.921  11.709  13.930 +0.03 +0.05    +0.166 HD
DOCKED: ATOM     32  H   UNL d   1      18.768  12.525  14.300 +0.03 +0.06    +0.166 HD
DOCKED: ENDROOT
DOCKED: BRANCH   7  33
DOCKED: ATOM     33  C   UNL d   1      22.923  11.052  11.255 -0.01 +0.02    +0.141 C 
DOCKED: BRANCH  33  34
DOCKED: ATOM     34  C   UNL d   1      22.427   9.692  10.844 +0.00 +0.04    +0.306 C 
DOCKED: ATOM     35  O   UNL d   1      21.932   8.854  11.578 -0.00 -0.03    -0.251 OA
DOCKED: BRANCH  34  36
DOCKED: ATOM     36  O   UNL d   1      22.580   9.460   9.528 +0.00 -0.05    -0.481 OA
DOCKED: ATOM     37  H   UNL d   1      22.273  10.285   9.095 +0.01 +0.04    +0.295 HD
DOCKED: ENDBRANCH  34  36
DOCKED: ENDBRANCH  33  34
DOCKED: ENDBRANCH   7  33
DOCKED: BRANCH  27  38
DOCKED: ATOM     38  C   UNL d   1      19.622  10.720  18.395 -0.01 +0.00    +0.017 C 
DOCKED: ATOM     39  C   UNL d   1      18.488  10.347  19.007 -0.02 +0.01    +0.092 C 
DOCKED: BRANCH  39  40
DOCKED: ATOM     40  C   UNL d   1      18.528   9.880  20.396 -0.00 +0.02    +0.330 C 
DOCKED: ATOM     41  O   UNL d   1      19.510   9.683  21.086 -0.00 -0.01    -0.246 OA
DOCKED: BRANCH  40  42
DOCKED: ATOM     42  O   UNL d   1      17.282   9.691  20.855 +0.00 -0.03    -0.477 OA
DOCKED: ATOM     43  H   UNL d   1      16.713   9.925  20.093 +0.02 +0.02    +0.295 HD
DOCKED: ENDBRANCH  40  42
DOCKED: ENDBRANCH  39  40
DOCKED: ENDBRANCH  27  38
DOCKED: BRANCH   8  44
DOCKED: ATOM     44  C   UNL d   1      15.791  11.814   8.236 -0.06 +0.06    +0.141 C 
DOCKED: BRANCH  44  45
DOCKED: ATOM     45  C   UNL d   1      15.703  13.292   8.507 -0.12 +0.32    +0.306 C 
DOCKED: ATOM     46  O   UNL d   1      16.628  14.085   8.515 -0.60 -0.34    -0.251 OA
DOCKED: BRANCH  45  47
DOCKED: ATOM     47  O   UNL d   1      14.448  13.691   8.783 -0.35 -0.69    -0.481 OA
DOCKED: ATOM     48  H   UNL d   1      13.942  12.858   8.894 +0.07 +0.19    +0.295 HD
DOCKED: ENDBRANCH  45  47
DOCKED: ENDBRANCH  44  45
DOCKED: ENDBRANCH   8  44
DOCKED: BRANCH  22  49
DOCKED: ATOM     49  C   UNL d   1      14.708  13.299  17.696 -0.33 +0.01    +0.048 C 
DOCKED: BRANCH  49  50
DOCKED: ATOM     50  C   UNL d   1      14.031  12.187  18.498 -0.21 +0.02    +0.125 C 
DOCKED: BRANCH  50  51
DOCKED: ATOM     51  C   UNL d   1      15.051  11.265  19.103 -0.07 +0.05    +0.305 C 
DOCKED: ATOM     52  O   UNL d   1      15.280  10.108  18.797 -0.02 -0.03    -0.251 OA
DOCKED: BRANCH  51  53
DOCKED: ATOM     53  O   UNL d   1      15.741  11.859  20.097 -0.06 -0.08    -0.481 OA
DOCKED: ATOM     54  H   UNL d   1      15.752  11.189  20.812 +0.05 +0.03    +0.295 HD
DOCKED: ENDBRANCH  51  53
DOCKED: ENDBRANCH  50  51
DOCKED: ENDBRANCH  49  50
DOCKED: ENDBRANCH  22  49
DOCKED: TORSDOF 13
DOCKED: TER
DOCKED: ENDMDL
________________________________________________________________________________


	BEGINNING GENETIC ALGORITHM DOCKING 47 of 100
Run: 47 Seed: 1268835444 144106396 [ Run 47 of 100 GA/GALS ]
Beginning LAMARCKIAN GENETIC ALGORITHM (LGA), with a maximum of 25000000 energy evaluations.

Final-Value: -13.362


	FINAL GENETIC ALGORITHM DOCKED STATE
	_______________________________________________


Detailed state:  trans 42.994 28.314 17.057 quatxyzw -0.267860 -0.071320 0.960341 -0.030172 center 0.153 0.018 -0.028 ntor 13 138.6825 -155.1287 -175.8480 -58.0537 -139.3869 55.6704 144.1118 -31.3973 16.8131 -6.0250 70.8795 -72.2913 53.9313
State:	 42.994  28.314  17.057  -0.268 -0.071  0.961 -176.542    138.68 -155.13 -175.85  -58.05 -139.39   55.67  144.11  -31.40   16.81   -6.02   70.88  -72.29   53.93

DOCKED: MODEL       47
DOCKED: USER    Run = 47
DOCKED: USER    DPF = D:/Protein_go_brrr/autodock/final/2DN3/heme/dock.dpf
DOCKED: USER  
DOCKED: USER    Estimated Free Energy of Binding    =   -5.82 kcal/mol  [=(1)+(2)+(3)-(4)]
DOCKED: USER    Estimated Inhibition Constant, Ki   =   54.35 uM (micromolar)  [Temperature = 298.15 K]
DOCKED: USER    
DOCKED: USER    (1) Final Intermolecular Energy     =   -9.70 kcal/mol
DOCKED: USER        vdW + Hbond + desolv Energy     =   -9.28 kcal/mol
DOCKED: USER        Electrostatic Energy            =   -0.42 kcal/mol
DOCKED: USER    (2) Final Total Internal Energy     =   -3.67 kcal/mol
DOCKED: USER    (3) Torsional Free Energy           =   +3.88 kcal/mol
DOCKED: USER    (4) Unbound System's Energy  [=(2)] =   -3.67 kcal/mol
DOCKED: USER    
DOCKED: USER    
DOCKED: USER    NEWDPF move heme_opt.pdbqt
DOCKED: USER    NEWDPF about 0.153000 0.018000 -0.028000
DOCKED: USER    NEWDPF tran0 42.994428 28.313693 17.056512
DOCKED: USER    NEWDPF quaternion0 -0.267860 -0.071320 0.960341 -0.030172
DOCKED: USER    NEWDPF axisangle0 -0.267982 -0.071353 0.960778 -176.541981
DOCKED: USER    NEWDPF quat0 -0.267982 -0.071353 0.960778 -176.541981
DOCKED: USER    NEWDPF dihe0 138.68 -155.13 -175.85 -58.05 -139.39 55.67 144.11 -31.40 16.81 -6.02 70.88 -72.29 53.93 
DOCKED: USER  keepresnum = 1 
DOCKED: USER  
DOCKED: REMARK  13 active torsions:
DOCKED: REMARK  status: ('A' for Active; 'I' for Inactive)
DOCKED: REMARK    1  A    between atoms: O_3  and  C_38 
DOCKED: REMARK    2  A    between atoms: O_4  and  C_40 
DOCKED: REMARK    3  A    between atoms: O_7  and  C_46 
DOCKED: REMARK    4  A    between atoms: O_9  and  C_48 
DOCKED: REMARK    5  A    between atoms: C_15  and  C_20 
DOCKED: REMARK    6  A    between atoms: C_16  and  C_23 
DOCKED: REMARK    7  A    between atoms: C_20  and  C_38 
DOCKED: REMARK    8  A    between atoms: C_23  and  C_40 
DOCKED: REMARK    9  A    between atoms: C_32  and  C_41 
DOCKED: REMARK   10  A    between atoms: C_37  and  C_45 
DOCKED: REMARK   11  A    between atoms: C_41  and  C_44 
DOCKED: REMARK   12  A    between atoms: C_44  and  C_46 
DOCKED: REMARK   13  A    between atoms: C_47  and  C_48 
DOCKED: USER                              x       y       z     vdW  Elec       q    Type
DOCKED: USER                           _______ _______ _______ _____ _____    ______ ____
DOCKED: ROOT
DOCKED: ATOM      1  O   UNL d   1      47.421  26.027  20.209 -0.02 -0.18    -0.289 OA
DOCKED: ATOM      2  O   UNL d   1      46.180  33.037  17.818 -0.09 -0.07    -0.289 OA
DOCKED: ATOM      3  N   UNL d   1      44.716  26.880  18.246 -0.12 -0.12    -0.247 NA
DOCKED: ATOM      4  N   UNL d   1      44.904  29.841  18.073 -0.14 -0.10    -0.247 NA
DOCKED: ATOM      5  N   UNL d   1      42.224  29.858  17.034 -0.15 -0.11    -0.354 N 
DOCKED: ATOM      6  N   UNL d   1      42.029  26.788  17.235 -0.14 -0.12    -0.354 N 
DOCKED: ATOM      7  C   UNL d   1      45.437  24.845  19.406 -0.14 +0.05    +0.084 A 
DOCKED: ATOM      8  C   UNL d   1      47.120  30.837  18.338 -0.12 +0.03    +0.084 A 
DOCKED: ATOM      9  C   UNL d   1      46.226  29.593  18.370 -0.08 +0.03    +0.058 A 
DOCKED: ATOM     10  C   UNL d   1      44.406  25.560  18.528 -0.21 +0.03    +0.058 A 
DOCKED: ATOM     11  C   UNL d   1      46.395  25.989  19.554 -0.05 +0.12    +0.193 A 
DOCKED: ATOM     12  C   UNL d   1      45.858  27.157  18.785 -0.13 +0.06    +0.109 A 
DOCKED: ATOM     13  C   UNL d   1      46.054  31.842  18.005 -0.06 +0.06    +0.193 A 
DOCKED: ATOM     14  C   UNL d   1      44.872  24.490  20.783 -0.03 +0.02    +0.026 C 
DOCKED: ATOM     15  C   UNL d   1      46.684  28.378  18.710 -0.14 +0.03    +0.055 C 
DOCKED: ATOM     16  C   UNL d   1      48.125  30.784  17.184 -0.09 +0.01    +0.026 C 
DOCKED: ATOM     17  C   UNL d   1      44.756  31.112  17.878 -0.18 +0.03    +0.109 A 
DOCKED: ATOM     18  C   UNL d   1      43.346  24.908  18.016 -0.35 +0.02    +0.050 C 
DOCKED: ATOM     19  C   UNL d   1      42.388  25.463  17.129 -0.35 +0.01    +0.045 A 
DOCKED: ATOM     20  C   UNL d   1      42.405  31.201  17.240 -0.37 +0.01    +0.045 A 
DOCKED: ATOM     21  C   UNL d   1      43.517  31.851  17.596 +0.04 +0.01    +0.057 C 
DOCKED: ATOM     22  C   UNL d   1      40.230  30.832  16.647 -0.31 -0.01    -0.019 A 
DOCKED: ATOM     23  C   UNL d   1      40.942  29.539  16.673 +0.37 +0.02    +0.045 A 
DOCKED: ATOM     24  C   UNL d   1      41.102  31.812  16.982 -0.43 -0.00    -0.022 A 
DOCKED: ATOM     25  C   UNL d   1      41.027  27.090  16.342 -0.38 +0.02    +0.049 A 
DOCKED: ATOM     26  C   UNL d   1      41.627  24.900  16.117 -0.38 -0.00    -0.018 A 
DOCKED: ATOM     27  C   UNL d   1      40.783  25.936  15.611 -0.43 +0.00    +0.003 A 
DOCKED: ATOM     28  C   UNL d   1      40.383  28.357  16.371 -0.30 +0.02    +0.052 C 
DOCKED: ATOM     29  C   UNL d   1      40.861  33.280  17.083 -0.52 +0.01    +0.046 C 
DOCKED: ATOM     30  C   UNL d   1      41.679  23.486  15.646 -0.53 +0.01    +0.046 C 
DOCKED: ATOM     31  H   UNL d   1      43.002  29.209  17.075 +0.08 +0.05    +0.166 HD
DOCKED: ATOM     32  H   UNL d   1      42.431  27.425  17.913 +0.09 +0.06    +0.166 HD
DOCKED: ENDROOT
DOCKED: BRANCH   7  33
DOCKED: ATOM     33  C   UNL d   1      46.132  23.643  18.756 -0.17 +0.10    +0.141 C 
DOCKED: BRANCH  33  34
DOCKED: ATOM     34  C   UNL d   1      46.975  24.032  17.572 -0.09 +0.35    +0.306 C 
DOCKED: ATOM     35  O   UNL d   1      46.586  24.171  16.425 -0.50 -0.40    -0.251 OA
DOCKED: BRANCH  34  36
DOCKED: ATOM     36  O   UNL d   1      48.265  24.229  17.897 -0.06 -0.47    -0.481 OA
DOCKED: ATOM     37  H   UNL d   1      48.234  24.750  18.727 +0.06 +0.20    +0.295 HD
DOCKED: ENDBRANCH  34  36
DOCKED: ENDBRANCH  33  34
DOCKED: ENDBRANCH   7  33
DOCKED: BRANCH  27  38
DOCKED: ATOM     38  C   UNL d   1      39.821  25.779  14.562 -0.53 +0.00    +0.017 C 
DOCKED: ATOM     39  C   UNL d   1      38.634  26.401  14.500 -0.42 +0.02    +0.092 C 
DOCKED: BRANCH  39  40
DOCKED: ATOM     40  C   UNL d   1      37.745  26.166  13.359 -0.26 +0.06    +0.330 C 
DOCKED: ATOM     41  O   UNL d   1      37.348  25.098  12.933 -0.43 -0.05    -0.246 OA
DOCKED: BRANCH  40  42
DOCKED: ATOM     42  O   UNL d   1      37.387  27.335  12.804 -0.12 -0.08    -0.477 OA
DOCKED: ATOM     43  H   UNL d   1      38.114  27.944  13.050 +0.22 +0.05    +0.295 HD
DOCKED: ENDBRANCH  40  42
DOCKED: ENDBRANCH  39  40
DOCKED: ENDBRANCH  27  38
DOCKED: BRANCH   8  44
DOCKED: ATOM     44  C   UNL d   1      47.810  31.188  19.660 -0.08 +0.06    +0.141 C 
DOCKED: BRANCH  44  45
DOCKED: ATOM     45  C   UNL d   1      46.849  31.357  20.807 -0.06 +0.21    +0.306 C 
DOCKED: ATOM     46  O   UNL d   1      46.596  30.535  21.670 -0.15 -0.38    -0.251 OA
DOCKED: BRANCH  45  47
DOCKED: ATOM     47  O   UNL d   1      46.231  32.552  20.789 -0.06 -0.23    -0.481 OA
DOCKED: ATOM     48  H   UNL d   1      46.552  32.985  19.969 +0.09 +0.09    +0.295 HD
DOCKED: ENDBRANCH  45  47
DOCKED: ENDBRANCH  44  45
DOCKED: ENDBRANCH   8  44
DOCKED: BRANCH  22  49
DOCKED: ATOM     49  C   UNL d   1      38.775  30.987  16.314 -0.31 +0.01    +0.048 C 
DOCKED: BRANCH  49  50
DOCKED: ATOM     50  C   UNL d   1      38.293  29.901  15.353 -0.32 +0.03    +0.125 C 
DOCKED: BRANCH  50  51
DOCKED: ATOM     51  C   UNL d   1      38.038  30.470  13.986 -0.26 +0.04    +0.305 C 
DOCKED: ATOM     52  O   UNL d   1      37.562  31.557  13.710 -0.27 -0.03    -0.251 OA
DOCKED: BRANCH  51  53
DOCKED: ATOM     53  O   UNL d   1      38.394  29.612  13.008 -0.11 -0.07    -0.481 OA
DOCKED: ATOM     54  H   UNL d   1      37.567  29.474  12.500 +0.21 +0.04    +0.295 HD
DOCKED: ENDBRANCH  51  53
DOCKED: ENDBRANCH  50  51
DOCKED: ENDBRANCH  49  50
DOCKED: ENDBRANCH  22  49
DOCKED: TORSDOF 13
DOCKED: TER
DOCKED: ENDMDL
________________________________________________________________________________


	BEGINNING GENETIC ALGORITHM DOCKING 48 of 100
Run: 48 Seed: 623549890 1948226932 [ Run 48 of 100 GA/GALS ]
Beginning LAMARCKIAN GENETIC ALGORITHM (LGA), with a maximum of 25000000 energy evaluations.

Final-Value: -9.821


	FINAL GENETIC ALGORITHM DOCKED STATE
	_______________________________________________


Detailed state:  trans 18.091 44.537 27.266 quatxyzw -0.123886 -0.986913 -0.078873 0.066586 center 0.153 0.018 -0.028 ntor 13 -133.2374 -18.4663 143.7893 -25.4733 43.5634 -133.6345 -39.5977 -118.0089 149.3688 -124.2992 -141.1951 -91.0552 152.5227
State:	 18.091  44.537  27.266  -0.124 -0.989 -0.079 172.364   -133.24  -18.47  143.79  -25.47   43.56 -133.63  -39.60 -118.01  149.37 -124.30 -141.20  -91.06  152.52

DOCKED: MODEL       48
DOCKED: USER    Run = 48
DOCKED: USER    DPF = D:/Protein_go_brrr/autodock/final/2DN3/heme/dock.dpf
DOCKED: USER  
DOCKED: USER    Estimated Free Energy of Binding    =   -3.50 kcal/mol  [=(1)+(2)+(3)-(4)]
DOCKED: USER    Estimated Inhibition Constant, Ki   =    2.72 mM (millimolar)  [Temperature = 298.15 K]
DOCKED: USER    
DOCKED: USER    (1) Final Intermolecular Energy     =   -7.38 kcal/mol
DOCKED: USER        vdW + Hbond + desolv Energy     =   -7.20 kcal/mol
DOCKED: USER        Electrostatic Energy            =   -0.18 kcal/mol
DOCKED: USER    (2) Final Total Internal Energy     =   -2.44 kcal/mol
DOCKED: USER    (3) Torsional Free Energy           =   +3.88 kcal/mol
DOCKED: USER    (4) Unbound System's Energy  [=(2)] =   -2.44 kcal/mol
DOCKED: USER    
DOCKED: USER    
DOCKED: USER    NEWDPF move heme_opt.pdbqt
DOCKED: USER    NEWDPF about 0.153000 0.018000 -0.028000
DOCKED: USER    NEWDPF tran0 18.091018 44.537318 27.266235
DOCKED: USER    NEWDPF quaternion0 -0.123886 -0.986913 -0.078873 0.066586
DOCKED: USER    NEWDPF axisangle0 -0.124161 -0.989108 -0.079048 172.364133
DOCKED: USER    NEWDPF quat0 -0.124161 -0.989108 -0.079048 172.364133
DOCKED: USER    NEWDPF dihe0 -133.24 -18.47 143.79 -25.47 43.56 -133.63 -39.60 -118.01 149.37 -124.30 -141.20 -91.06 152.52 
DOCKED: USER  keepresnum = 1 
DOCKED: USER  
DOCKED: REMARK  13 active torsions:
DOCKED: REMARK  status: ('A' for Active; 'I' for Inactive)
DOCKED: REMARK    1  A    between atoms: O_3  and  C_38 
DOCKED: REMARK    2  A    between atoms: O_4  and  C_40 
DOCKED: REMARK    3  A    between atoms: O_7  and  C_46 
DOCKED: REMARK    4  A    between atoms: O_9  and  C_48 
DOCKED: REMARK    5  A    between atoms: C_15  and  C_20 
DOCKED: REMARK    6  A    between atoms: C_16  and  C_23 
DOCKED: REMARK    7  A    between atoms: C_20  and  C_38 
DOCKED: REMARK    8  A    between atoms: C_23  and  C_40 
DOCKED: REMARK    9  A    between atoms: C_32  and  C_41 
DOCKED: REMARK   10  A    between atoms: C_37  and  C_45 
DOCKED: REMARK   11  A    between atoms: C_41  and  C_44 
DOCKED: REMARK   12  A    between atoms: C_44  and  C_46 
DOCKED: REMARK   13  A    between atoms: C_47  and  C_48 
DOCKED: USER                              x       y       z     vdW  Elec       q    Type
DOCKED: USER                           _______ _______ _______ _____ _____    ______ ____
DOCKED: ROOT
DOCKED: ATOM      1  O   UNL d   1      23.973  44.813  27.551 -0.15 +0.12    -0.289 OA
DOCKED: ATOM      2  O   UNL d   1      19.270  39.003  28.274 -0.66 -0.04    -0.289 OA
DOCKED: ATOM      3  N   UNL d   1      20.544  45.160  27.440 -0.09 +0.03    -0.247 NA
DOCKED: ATOM      4  N   UNL d   1      19.570  42.354  27.506 -0.11 +0.03    -0.247 NA
DOCKED: ATOM      5  N   UNL d   1      16.981  43.331  26.725 -0.03 +0.03    -0.354 N 
DOCKED: ATOM      6  N   UNL d   1      18.004  46.238  26.640 -0.06 +0.02    -0.354 N 
DOCKED: ATOM      7  C   UNL d   1      22.446  46.662  27.075 -0.23 -0.03    +0.084 A 
DOCKED: ATOM      8  C   UNL d   1      21.018  40.692  28.561 -0.21 -0.01    +0.084 A 
DOCKED: ATOM      9  C   UNL d   1      20.803  42.130  28.077 -0.21 -0.01    +0.058 A 
DOCKED: ATOM     10  C   UNL d   1      20.930  46.449  27.112 -0.19 -0.01    +0.058 A 
DOCKED: ATOM     11  C   UNL d   1      22.848  45.269  27.459 -0.14 -0.07    +0.193 A 
DOCKED: ATOM     12  C   UNL d   1      21.606  44.463  27.678 -0.15 -0.03    +0.109 A 
DOCKED: ATOM     13  C   UNL d   1      19.694  40.132  28.124 -0.18 -0.01    +0.193 A 
DOCKED: ATOM     14  C   UNL d   1      22.952  46.950  25.660 -0.40 -0.02    +0.026 C 
DOCKED: ATOM     15  C   UNL d   1      21.754  43.074  28.157 -0.14 -0.01    +0.055 C 
DOCKED: ATOM     16  C   UNL d   1      21.107  40.614  30.088 -0.11 -0.00    +0.026 C 
DOCKED: ATOM     17  C   UNL d   1      18.913  41.239  27.493 -0.18 -0.01    +0.109 A 
DOCKED: ATOM     18  C   UNL d   1      20.072  47.470  26.925 -0.18 -0.01    +0.050 C 
DOCKED: ATOM     19  C   UNL d   1      18.660  47.386  27.023 -0.11 -0.00    +0.045 A 
DOCKED: ATOM     20  C   UNL d   1      16.776  41.983  26.586 -0.16 -0.01    +0.045 A 
DOCKED: ATOM     21  C   UNL d   1      17.582  40.973  26.928 -0.25 -0.01    +0.057 C 
DOCKED: ATOM     22  C   UNL d   1      14.952  43.095  25.777 -0.11 +0.00    -0.019 A 
DOCKED: ATOM     23  C   UNL d   1      15.934  44.084  26.264 -0.09 -0.00    +0.045 A 
DOCKED: ATOM     24  C   UNL d   1      15.455  41.853  25.971 -0.19 +0.00    -0.022 A 
DOCKED: ATOM     25  C   UNL d   1      16.642  46.406  26.732 -0.07 -0.00    +0.049 A 
DOCKED: ATOM     26  C   UNL d   1      17.702  48.311  27.409 -0.04 +0.00    -0.018 A 
DOCKED: ATOM     27  C   UNL d   1      16.431  47.680  27.241 -0.03 -0.00    +0.003 A 
DOCKED: ATOM     28  C   UNL d   1      15.750  45.413  26.243 -0.08 -0.00    +0.052 C 
DOCKED: ATOM     29  C   UNL d   1      14.835  40.535  25.654 -0.26 -0.02    +0.046 C 
DOCKED: ATOM     30  C   UNL d   1      17.949  49.695  27.904 -0.02 -0.00    +0.046 C 
DOCKED: ATOM     31  H   UNL d   1      17.801  43.692  27.200 +0.04 -0.01    +0.166 HD
DOCKED: ATOM     32  H   UNL d   1      18.477  45.409  26.301 +0.06 -0.00    +0.166 HD
DOCKED: ENDROOT
DOCKED: BRANCH   7  33
DOCKED: ATOM     33  C   UNL d   1      22.992  47.677  28.086 -0.08 -0.03    +0.141 C 
DOCKED: BRANCH  33  34
DOCKED: ATOM     34  C   UNL d   1      24.381  48.145  27.744 -0.07 -0.07    +0.306 C 
DOCKED: ATOM     35  O   UNL d   1      24.670  49.175  27.159 -0.14 +0.04    -0.251 OA
DOCKED: BRANCH  34  36
DOCKED: ATOM     36  O   UNL d   1      25.332  47.291  28.160 -0.01 +0.09    -0.481 OA
DOCKED: ATOM     37  H   UNL d   1      24.993  46.404  27.913 +0.12 -0.08    +0.295 HD
DOCKED: ENDBRANCH  34  36
DOCKED: ENDBRANCH  33  34
DOCKED: ENDBRANCH   7  33
DOCKED: BRANCH  27  38
DOCKED: ATOM     38  C   UNL d   1      15.164  48.291  27.511 -0.01 -0.00    +0.017 C 
DOCKED: ATOM     39  C   UNL d   1      14.147  48.380  26.641 -0.01 -0.01    +0.092 C 
DOCKED: BRANCH  39  40
DOCKED: ATOM     40  C   UNL d   1      12.892  49.018  27.049 +0.00 -0.02    +0.330 C 
DOCKED: ATOM     41  O   UNL d   1      11.758  48.628  26.842 +0.00 +0.01    -0.246 OA
DOCKED: BRANCH  40  42
DOCKED: ATOM     42  O   UNL d   1      13.146  50.148  27.726 +0.00 +0.02    -0.477 OA
DOCKED: ATOM     43  H   UNL d   1      12.301  50.641  27.686 +0.00 -0.01    +0.295 HD
DOCKED: ENDBRANCH  40  42
DOCKED: ENDBRANCH  39  40
DOCKED: ENDBRANCH  27  38
DOCKED: BRANCH   8  44
DOCKED: ATOM     44  C   UNL d   1      22.177  39.940  27.899 -0.32 -0.03    +0.141 C 
DOCKED: BRANCH  44  45
DOCKED: ATOM     45  C   UNL d   1      22.254  38.492  28.304 -0.27 -0.06    +0.306 C 
DOCKED: ATOM     46  O   UNL d   1      22.785  38.044  29.305 -0.25 +0.02    -0.251 OA
DOCKED: BRANCH  45  47
DOCKED: ATOM     47  O   UNL d   1      21.677  37.675  27.404 -0.14 +0.13    -0.481 OA
DOCKED: ATOM     48  H   UNL d   1      20.895  38.172  27.083 -0.27 -0.09    +0.295 HD
DOCKED: ENDBRANCH  45  47
DOCKED: ENDBRANCH  44  45
DOCKED: ENDBRANCH   8  44
DOCKED: BRANCH  22  49
DOCKED: ATOM     49  C   UNL d   1      13.632  43.453  25.159 -0.09 -0.01    +0.048 C 
DOCKED: BRANCH  49  50
DOCKED: ATOM     50  C   UNL d   1      13.804  44.108  23.789 -0.11 -0.02    +0.125 C 
DOCKED: BRANCH  50  51
DOCKED: ATOM     51  C   UNL d   1      14.901  43.440  23.009 -0.23 -0.08    +0.305 C 
DOCKED: ATOM     52  O   UNL d   1      15.888  43.961  22.520 -0.31 +0.06    -0.251 OA
DOCKED: BRANCH  51  53
DOCKED: ATOM     53  O   UNL d   1      14.688  42.117  22.871 +0.00 +0.20    -0.481 OA
DOCKED: ATOM     54  H   UNL d   1      15.171  41.882  22.051 -0.27 -0.17    +0.295 HD
DOCKED: ENDBRANCH  51  53
DOCKED: ENDBRANCH  50  51
DOCKED: ENDBRANCH  49  50
DOCKED: ENDBRANCH  22  49
DOCKED: TORSDOF 13
DOCKED: TER
DOCKED: ENDMDL
________________________________________________________________________________


	BEGINNING GENETIC ALGORITHM DOCKING 49 of 100
Run: 49 Seed: 1338099903 1407320491 [ Run 49 of 100 GA/GALS ]
Beginning LAMARCKIAN GENETIC ALGORITHM (LGA), with a maximum of 25000000 energy evaluations.

Final-Value: -10.710


	FINAL GENETIC ALGORITHM DOCKED STATE
	_______________________________________________


Detailed state:  trans 4.714 37.350 -7.261 quatxyzw 0.122503 -0.567236 0.606844 0.543117 center 0.153 0.018 -0.028 ntor 13 60.0434 170.6990 169.4040 29.6308 -148.4773 12.3182 -53.4942 44.4242 59.3198 -126.3268 -81.2157 -20.0128 -14.8810
State:	  4.714  37.350  -7.261   0.146 -0.676  0.723 114.208     60.04  170.70  169.40   29.63 -148.48   12.32  -53.49   44.42   59.32 -126.33  -81.22  -20.01  -14.88

DOCKED: MODEL       49
DOCKED: USER    Run = 49
DOCKED: USER    DPF = D:/Protein_go_brrr/autodock/final/2DN3/heme/dock.dpf
DOCKED: USER  
DOCKED: USER    Estimated Free Energy of Binding    =   -2.53 kcal/mol  [=(1)+(2)+(3)-(4)]
DOCKED: USER    Estimated Inhibition Constant, Ki   =   13.92 mM (millimolar)  [Temperature = 298.15 K]
DOCKED: USER    
DOCKED: USER    (1) Final Intermolecular Energy     =   -6.41 kcal/mol
DOCKED: USER        vdW + Hbond + desolv Energy     =   -5.93 kcal/mol
DOCKED: USER        Electrostatic Energy            =   -0.48 kcal/mol
DOCKED: USER    (2) Final Total Internal Energy     =   -4.30 kcal/mol
DOCKED: USER    (3) Torsional Free Energy           =   +3.88 kcal/mol
DOCKED: USER    (4) Unbound System's Energy  [=(2)] =   -4.30 kcal/mol
DOCKED: USER    
DOCKED: USER    
DOCKED: USER    NEWDPF move heme_opt.pdbqt
DOCKED: USER    NEWDPF about 0.153000 0.018000 -0.028000
DOCKED: USER    NEWDPF tran0 4.713916 37.350263 -7.260940
DOCKED: USER    NEWDPF quaternion0 0.122503 -0.567236 0.606844 0.543117
DOCKED: USER    NEWDPF axisangle0 0.145897 -0.675557 0.722729 114.207787
DOCKED: USER    NEWDPF quat0 0.145897 -0.675557 0.722729 114.207787
DOCKED: USER    NEWDPF dihe0 60.04 170.70 169.40 29.63 -148.48 12.32 -53.49 44.42 59.32 -126.33 -81.22 -20.01 -14.88 
DOCKED: USER  keepresnum = 1 
DOCKED: USER  
DOCKED: REMARK  13 active torsions:
DOCKED: REMARK  status: ('A' for Active; 'I' for Inactive)
DOCKED: REMARK    1  A    between atoms: O_3  and  C_38 
DOCKED: REMARK    2  A    between atoms: O_4  and  C_40 
DOCKED: REMARK    3  A    between atoms: O_7  and  C_46 
DOCKED: REMARK    4  A    between atoms: O_9  and  C_48 
DOCKED: REMARK    5  A    between atoms: C_15  and  C_20 
DOCKED: REMARK    6  A    between atoms: C_16  and  C_23 
DOCKED: REMARK    7  A    between atoms: C_20  and  C_38 
DOCKED: REMARK    8  A    between atoms: C_23  and  C_40 
DOCKED: REMARK    9  A    between atoms: C_32  and  C_41 
DOCKED: REMARK   10  A    between atoms: C_37  and  C_45 
DOCKED: REMARK   11  A    between atoms: C_41  and  C_44 
DOCKED: REMARK   12  A    between atoms: C_44  and  C_46 
DOCKED: REMARK   13  A    between atoms: C_47  and  C_48 
DOCKED: USER                              x       y       z     vdW  Elec       q    Type
DOCKED: USER                           _______ _______ _______ _____ _____    ______ ____
DOCKED: ROOT
DOCKED: ATOM      1  O   UNL d   1       8.221  41.863  -5.814 -0.25 +0.06    -0.289 OA
DOCKED: ATOM      2  O   UNL d   1       1.995  39.217  -2.553 -0.15 -0.34    -0.289 OA
DOCKED: ATOM      3  N   UNL d   1       6.400  39.240  -7.117 -0.03 -0.01    -0.247 NA
DOCKED: ATOM      4  N   UNL d   1       4.349  38.727  -5.029 -0.02 -0.05    -0.247 NA
DOCKED: ATOM      5  N   UNL d   1       3.767  36.237  -6.342 -0.04 -0.05    -0.354 N 
DOCKED: ATOM      6  N   UNL d   1       5.910  36.767  -8.494 -0.07 -0.03    -0.354 N 
DOCKED: ATOM      7  C   UNL d   1       8.532  40.311  -7.677 -0.15 -0.02    +0.084 A 
DOCKED: ATOM      8  C   UNL d   1       3.728  40.601  -3.588 -0.09 +0.04    +0.084 A 
DOCKED: ATOM      9  C   UNL d   1       4.626  40.034  -4.693 -0.07 +0.01    +0.058 A 
DOCKED: ATOM     10  C   UNL d   1       7.489  39.230  -7.973 -0.09 -0.00    +0.058 A 
DOCKED: ATOM     11  C   UNL d   1       7.831  40.946  -6.514 -0.14 -0.03    +0.193 A 
DOCKED: ATOM     12  C   UNL d   1       6.539  40.224  -6.289 -0.07 +0.00    +0.109 A 
DOCKED: ATOM     13  C   UNL d   1       2.916  39.363  -3.334 -0.06 +0.12    +0.193 A 
DOCKED: ATOM     14  C   UNL d   1       9.856  39.715  -7.192 -0.05 -0.01    +0.026 C 
DOCKED: ATOM     15  C   UNL d   1       5.628  40.735  -5.246 -0.13 +0.01    +0.055 C 
DOCKED: ATOM     16  C   UNL d   1       2.801  41.699  -4.118 -0.07 +0.01    +0.026 C 
DOCKED: ATOM     17  C   UNL d   1       3.396  38.298  -4.266 -0.04 +0.04    +0.109 A 
DOCKED: ATOM     18  C   UNL d   1       7.605  38.413  -9.037 -0.10 -0.00    +0.050 C 
DOCKED: ATOM     19  C   UNL d   1       6.651  37.443  -9.437 -0.11 +0.00    +0.045 A 
DOCKED: ATOM     20  C   UNL d   1       3.046  36.069  -5.189 -0.07 +0.01    +0.045 A 
DOCKED: ATOM     21  C   UNL d   1       2.808  36.952  -4.214 -0.06 +0.02    +0.057 C 
DOCKED: ATOM     22  C   UNL d   1       3.010  34.116  -6.373 -0.12 -0.00    -0.019 A 
DOCKED: ATOM     23  C   UNL d   1       3.803  35.112  -7.122 -0.08 +0.01    +0.045 A 
DOCKED: ATOM     24  C   UNL d   1       2.563  34.689  -5.230 -0.10 -0.00    -0.022 A 
DOCKED: ATOM     25  C   UNL d   1       5.118  35.815  -9.093 -0.16 +0.01    +0.049 A 
DOCKED: ATOM     26  C   UNL d   1       6.306  36.942 -10.683 -0.12 -0.00    -0.018 A 
DOCKED: ATOM     27  C   UNL d   1       5.323  35.929 -10.461 -0.15 +0.00    +0.003 A 
DOCKED: ATOM     28  C   UNL d   1       4.379  34.885  -8.312 -0.11 +0.01    +0.052 C 
DOCKED: ATOM     29  C   UNL d   1       1.717  34.094  -4.157 -0.07 +0.01    +0.046 C 
DOCKED: ATOM     30  C   UNL d   1       6.852  37.379 -12.000 -0.09 +0.00    +0.046 C 
DOCKED: ATOM     31  H   UNL d   1       4.151  37.141  -6.596 +0.02 +0.02    +0.166 HD
DOCKED: ATOM     32  H   UNL d   1       5.983  36.936  -7.498 +0.04 +0.01    +0.166 HD
DOCKED: ENDROOT
DOCKED: BRANCH   7  33
DOCKED: ATOM     33  C   UNL d   1       8.753  41.335  -8.796 -0.16 -0.06    +0.141 C 
DOCKED: BRANCH  33  34
DOCKED: ATOM     34  C   UNL d   1       8.167  42.683  -8.471 -0.16 -0.09    +0.306 C 
DOCKED: ATOM     35  O   UNL d   1       7.062  43.084  -8.795 -0.10 +0.01    -0.251 OA
DOCKED: BRANCH  34  36
DOCKED: ATOM     36  O   UNL d   1       9.004  43.453  -7.754 -0.46 +0.23    -0.481 OA
DOCKED: ATOM     37  H   UNL d   1       8.502  43.671  -6.940 -0.10 -0.06    +0.295 HD
DOCKED: ENDBRANCH  34  36
DOCKED: ENDBRANCH  33  34
DOCKED: ENDBRANCH   7  33
DOCKED: BRANCH  27  38
DOCKED: ATOM     38  C   UNL d   1       4.705  35.141 -11.484 -0.11 +0.01    +0.017 C 
DOCKED: ATOM     39  C   UNL d   1       3.579  34.426 -11.337 -0.11 +0.03    +0.092 C 
DOCKED: BRANCH  39  40
DOCKED: ATOM     40  C   UNL d   1       3.038  33.674 -12.472 -0.07 +0.18    +0.330 C 
DOCKED: ATOM     41  O   UNL d   1       3.572  33.459 -13.544 -0.10 -0.19    -0.246 OA
DOCKED: BRANCH  40  42
DOCKED: ATOM     42  O   UNL d   1       1.813  33.211 -12.178 -0.01 -0.19    -0.477 OA
DOCKED: ATOM     43  H   UNL d   1       1.717  33.394 -11.221 +0.03 +0.09    +0.295 HD
DOCKED: ENDBRANCH  40  42
DOCKED: ENDBRANCH  39  40
DOCKED: ENDBRANCH  27  38
DOCKED: BRANCH   8  44
DOCKED: ATOM     44  C   UNL d   1       4.453  41.053  -2.316 -0.22 +0.07    +0.141 C 
DOCKED: BRANCH  44  45
DOCKED: ATOM     45  C   UNL d   1       3.516  41.511  -1.230 -0.06 +0.27    +0.306 C 
DOCKED: ATOM     46  O   UNL d   1       3.207  42.662  -0.974 -0.22 -0.17    -0.251 OA
DOCKED: BRANCH  45  47
DOCKED: ATOM     47  O   UNL d   1       3.035  40.489  -0.500 -1.10 -0.92    -0.481 OA
DOCKED: ATOM     48  H   UNL d   1       3.290  39.685  -1.001 +0.09 +0.51    +0.295 HD
DOCKED: ENDBRANCH  45  47
DOCKED: ENDBRANCH  44  45
DOCKED: ENDBRANCH   8  44
DOCKED: BRANCH  22  49
DOCKED: ATOM     49  C   UNL d   1       2.777  32.706  -6.832 -0.14 +0.01    +0.048 C 
DOCKED: BRANCH  49  50
DOCKED: ATOM     50  C   UNL d   1       1.419  32.547  -7.515 -0.06 +0.02    +0.125 C 
DOCKED: BRANCH  50  51
DOCKED: ATOM     51  C   UNL d   1       1.565  32.566  -9.010 -0.02 +0.06    +0.305 C 
DOCKED: ATOM     52  O   UNL d   1       2.456  32.070  -9.676 -0.06 -0.08    -0.251 OA
DOCKED: BRANCH  51  53
DOCKED: ATOM     53  O   UNL d   1       0.559  33.236  -9.606 +0.01 -0.08    -0.481 OA
DOCKED: ATOM     54  H   UNL d   1       0.473  32.807 -10.483 +0.02 +0.06    +0.295 HD
DOCKED: ENDBRANCH  51  53
DOCKED: ENDBRANCH  50  51
DOCKED: ENDBRANCH  49  50
DOCKED: ENDBRANCH  22  49
DOCKED: TORSDOF 13
DOCKED: TER
DOCKED: ENDMDL
________________________________________________________________________________


	BEGINNING GENETIC ALGORITHM DOCKING 50 of 100
Run: 50 Seed: 1009508793 85848678 [ Run 50 of 100 GA/GALS ]
Beginning LAMARCKIAN GENETIC ALGORITHM (LGA), with a maximum of 25000000 energy evaluations.

Final-Value: -11.885


	FINAL GENETIC ALGORITHM DOCKED STATE
	_______________________________________________


Detailed state:  trans 12.748 42.602 24.354 quatxyzw 0.675038 0.403530 0.293461 -0.543478 center 0.153 0.018 -0.028 ntor 13 -91.7323 -159.4113 -104.9712 -22.7627 50.3558 -72.9442 136.6011 -13.7266 141.4839 -47.3591 68.5514 7.3999 105.4978
State:	 12.748  42.602  24.354   0.804  0.481  0.350 -114.159    -91.73 -159.41 -104.97  -22.76   50.36  -72.94  136.60  -13.73  141.48  -47.36   68.55    7.40  105.50

DOCKED: MODEL       50
DOCKED: USER    Run = 50
DOCKED: USER    DPF = D:/Protein_go_brrr/autodock/final/2DN3/heme/dock.dpf
DOCKED: USER  
DOCKED: USER    Estimated Free Energy of Binding    =   -4.02 kcal/mol  [=(1)+(2)+(3)-(4)]
DOCKED: USER    Estimated Inhibition Constant, Ki   =    1.12 mM (millimolar)  [Temperature = 298.15 K]
DOCKED: USER    
DOCKED: USER    (1) Final Intermolecular Energy     =   -7.90 kcal/mol
DOCKED: USER        vdW + Hbond + desolv Energy     =   -7.55 kcal/mol
DOCKED: USER        Electrostatic Energy            =   -0.35 kcal/mol
DOCKED: USER    (2) Final Total Internal Energy     =   -3.98 kcal/mol
DOCKED: USER    (3) Torsional Free Energy           =   +3.88 kcal/mol
DOCKED: USER    (4) Unbound System's Energy  [=(2)] =   -3.98 kcal/mol
DOCKED: USER    
DOCKED: USER    
DOCKED: USER    NEWDPF move heme_opt.pdbqt
DOCKED: USER    NEWDPF about 0.153000 0.018000 -0.028000
DOCKED: USER    NEWDPF tran0 12.747912 42.602061 24.354312
DOCKED: USER    NEWDPF quaternion0 0.675038 0.403530 0.293461 -0.543478
DOCKED: USER    NEWDPF axisangle0 0.804168 0.480723 0.349598 -114.158525
DOCKED: USER    NEWDPF quat0 0.804168 0.480723 0.349598 -114.158525
DOCKED: USER    NEWDPF dihe0 -91.73 -159.41 -104.97 -22.76 50.36 -72.94 136.60 -13.73 141.48 -47.36 68.55 7.40 105.50 
DOCKED: USER  keepresnum = 1 
DOCKED: USER  
DOCKED: REMARK  13 active torsions:
DOCKED: REMARK  status: ('A' for Active; 'I' for Inactive)
DOCKED: REMARK    1  A    between atoms: O_3  and  C_38 
DOCKED: REMARK    2  A    between atoms: O_4  and  C_40 
DOCKED: REMARK    3  A    between atoms: O_7  and  C_46 
DOCKED: REMARK    4  A    between atoms: O_9  and  C_48 
DOCKED: REMARK    5  A    between atoms: C_15  and  C_20 
DOCKED: REMARK    6  A    between atoms: C_16  and  C_23 
DOCKED: REMARK    7  A    between atoms: C_20  and  C_38 
DOCKED: REMARK    8  A    between atoms: C_23  and  C_40 
DOCKED: REMARK    9  A    between atoms: C_32  and  C_41 
DOCKED: REMARK   10  A    between atoms: C_37  and  C_45 
DOCKED: REMARK   11  A    between atoms: C_41  and  C_44 
DOCKED: REMARK   12  A    between atoms: C_44  and  C_46 
DOCKED: REMARK   13  A    between atoms: C_47  and  C_48 
DOCKED: USER                              x       y       z     vdW  Elec       q    Type
DOCKED: USER                           _______ _______ _______ _____ _____    ______ ____
DOCKED: ROOT
DOCKED: ATOM      1  O   UNL d   1      10.853  37.292  26.078 -0.18 +0.17    -0.289 OA
DOCKED: ATOM      2  O   UNL d   1       9.001  41.497  20.138 -0.20 +0.11    -0.289 OA
DOCKED: ATOM      3  N   UNL d   1      12.146  40.445  25.545 -0.06 +0.09    -0.247 NA
DOCKED: ATOM      4  N   UNL d   1      11.094  41.170  22.862 -0.15 +0.07    -0.247 NA
DOCKED: ATOM      5  N   UNL d   1      12.981  43.339  22.811 -0.09 +0.08    -0.354 N 
DOCKED: ATOM      6  N   UNL d   1      14.079  42.568  25.586 -0.03 +0.07    -0.354 N 
DOCKED: ATOM      7  C   UNL d   1      12.564  38.656  27.168 -0.21 -0.04    +0.084 A 
DOCKED: ATOM      8  C   UNL d   1       9.010  40.109  22.154 -0.24 -0.02    +0.084 A 
DOCKED: ATOM      9  C   UNL d   1      10.141  40.229  23.181 -0.24 -0.01    +0.058 A 
DOCKED: ATOM     10  C   UNL d   1      12.896  40.056  26.642 -0.15 -0.02    +0.058 A 
DOCKED: ATOM     11  C   UNL d   1      11.481  38.330  26.184 -0.21 -0.09    +0.193 A 
DOCKED: ATOM     12  C   UNL d   1      11.304  39.503  25.270 -0.13 -0.04    +0.109 A 
DOCKED: ATOM     13  C   UNL d   1       9.518  41.129  21.175 -0.18 -0.05    +0.193 A 
DOCKED: ATOM     14  C   UNL d   1      13.724  37.678  26.969 -0.32 -0.02    +0.026 C 
DOCKED: ATOM     15  C   UNL d   1      10.219  39.447  24.269 -0.28 -0.02    +0.055 C 
DOCKED: ATOM     16  C   UNL d   1       7.673  40.594  22.722 -0.18 -0.01    +0.026 C 
DOCKED: ATOM     17  C   UNL d   1      10.791  41.693  21.718 -0.20 -0.03    +0.109 A 
DOCKED: ATOM     18  C   UNL d   1      13.781  40.852  27.271 -0.11 -0.01    +0.050 C 
DOCKED: ATOM     19  C   UNL d   1      14.089  42.188  26.909 -0.06 -0.01    +0.045 A 
DOCKED: ATOM     20  C   UNL d   1      12.539  43.381  21.514 -0.23 -0.01    +0.045 A 
DOCKED: ATOM     21  C   UNL d   1      11.544  42.692  20.945 -0.15 -0.02    +0.057 C 
DOCKED: ATOM     22  C   UNL d   1      14.279  44.842  21.748 -0.21 +0.00    -0.019 A 
DOCKED: ATOM     23  C   UNL d   1      14.030  44.187  23.048 -0.17 -0.01    +0.045 A 
DOCKED: ATOM     24  C   UNL d   1      13.393  44.361  20.845 -0.23 +0.01    -0.022 A 
DOCKED: ATOM     25  C   UNL d   1      14.493  43.874  25.456 -0.07 -0.01    +0.049 A 
DOCKED: ATOM     26  C   UNL d   1      14.484  43.284  27.661 -0.02 +0.00    -0.018 A 
DOCKED: ATOM     27  C   UNL d   1      14.719  44.351  26.740 -0.04 -0.00    +0.003 A 
DOCKED: ATOM     28  C   UNL d   1      14.715  44.444  24.173 -0.15 -0.01    +0.052 C 
DOCKED: ATOM     29  C   UNL d   1      13.238  44.722  19.406 -0.21 -0.01    +0.046 C 
DOCKED: ATOM     30  C   UNL d   1      14.633  43.339  29.143 -0.01 -0.00    +0.046 C 
DOCKED: ATOM     31  H   UNL d   1      12.502  42.785  23.512 +0.04 -0.04    +0.166 HD
DOCKED: ATOM     32  H   UNL d   1      13.837  41.945  24.825 +0.02 -0.05    +0.166 HD
DOCKED: ENDROOT
DOCKED: BRANCH   7  33
DOCKED: ATOM     33  C   UNL d   1      12.023  38.604  28.601 -0.08 -0.04    +0.141 C 
DOCKED: BRANCH  33  34
DOCKED: ATOM     34  C   UNL d   1      11.925  37.199  29.132 -0.05 -0.16    +0.306 C 
DOCKED: ATOM     35  O   UNL d   1      12.679  36.679  29.937 -0.11 +0.10    -0.251 OA
DOCKED: BRANCH  34  36
DOCKED: ATOM     36  O   UNL d   1      10.881  36.523  28.621 -0.02 +0.35    -0.481 OA
DOCKED: ATOM     37  H   UNL d   1      11.217  36.149  27.778 -0.30 -0.51    +0.295 HD
DOCKED: ENDBRANCH  34  36
DOCKED: ENDBRANCH  33  34
DOCKED: ENDBRANCH   7  33
DOCKED: BRANCH  27  38
DOCKED: ATOM     38  C   UNL d   1      15.159  45.666  27.096 -0.04 -0.00    +0.017 C 
DOCKED: ATOM     39  C   UNL d   1      14.660  46.810  26.603 -0.02 -0.01    +0.092 C 
DOCKED: BRANCH  39  40
DOCKED: ATOM     40  C   UNL d   1      15.189  48.096  27.064 -0.00 -0.02    +0.330 C 
DOCKED: ATOM     41  O   UNL d   1      14.983  48.646  28.129 -0.00 +0.01    -0.246 OA
DOCKED: BRANCH  40  42
DOCKED: ATOM     42  O   UNL d   1      15.985  48.631  26.126 +0.00 +0.03    -0.477 OA
DOCKED: ATOM     43  H   UNL d   1      15.713  48.179  25.301 +0.04 -0.02    +0.295 HD
DOCKED: ENDBRANCH  40  42
DOCKED: ENDBRANCH  39  40
DOCKED: ENDBRANCH  27  38
DOCKED: BRANCH   8  44
DOCKED: ATOM     44  C   UNL d   1       8.864  38.736  21.490 -0.38 -0.03    +0.141 C 
DOCKED: BRANCH  44  45
DOCKED: ATOM     45  C   UNL d   1       9.539  38.651  20.147 -0.38 -0.00    +0.306 C 
DOCKED: ATOM     46  O   UNL d   1      10.677  38.273  19.928 -0.37 -0.01    -0.251 OA
DOCKED: BRANCH  45  47
DOCKED: ATOM     47  O   UNL d   1       8.748  39.076  19.145 -0.88 -0.10    -0.481 OA
DOCKED: ATOM     48  H   UNL d   1       8.734  40.053  19.238 +0.20 -0.02    +0.295 HD
DOCKED: ENDBRANCH  45  47
DOCKED: ENDBRANCH  44  45
DOCKED: ENDBRANCH   8  44
DOCKED: BRANCH  22  49
DOCKED: ATOM     49  C   UNL d   1      15.359  45.855  21.509 -0.20 -0.01    +0.048 C 
DOCKED: BRANCH  49  50
DOCKED: ATOM     50  C   UNL d   1      16.479  45.748  22.543 -0.08 -0.02    +0.125 C 
DOCKED: BRANCH  50  51
DOCKED: ATOM     51  C   UNL d   1      16.480  46.938  23.460 -0.15 -0.03    +0.305 C 
DOCKED: ATOM     52  O   UNL d   1      15.972  48.028  23.262 -0.07 +0.02    -0.251 OA
DOCKED: BRANCH  51  53
DOCKED: ATOM     53  O   UNL d   1      17.147  46.693  24.605 -0.09 +0.03    -0.481 OA
DOCKED: ATOM     54  H   UNL d   1      17.407  47.583  24.924 +0.07 -0.02    +0.295 HD
DOCKED: ENDBRANCH  51  53
DOCKED: ENDBRANCH  50  51
DOCKED: ENDBRANCH  49  50
DOCKED: ENDBRANCH  22  49
DOCKED: TORSDOF 13
DOCKED: TER
DOCKED: ENDMDL
________________________________________________________________________________


	BEGINNING GENETIC ALGORITHM DOCKING 51 of 100
Run: 51 Seed: 2383427 270980987 [ Run 51 of 100 GA/GALS ]
Beginning LAMARCKIAN GENETIC ALGORITHM (LGA), with a maximum of 25000000 energy evaluations.

Final-Value: -9.564


	FINAL GENETIC ALGORITHM DOCKED STATE
	_______________________________________________


Detailed state:  trans 43.466 16.501 16.703 quatxyzw 0.790023 0.055528 0.593364 -0.143874 center 0.153 0.018 -0.028 ntor 13 146.9514 43.8028 150.4883 128.7886 -139.0919 -34.3323 162.6605 74.8851 16.2997 -7.1900 -106.6787 -79.7127 163.8113
State:	 43.466  16.501  16.703   0.798  0.056  0.600 -163.456    146.95   43.80  150.49  128.79 -139.09  -34.33  162.66   74.89   16.30   -7.19 -106.68  -79.71  163.81

DOCKED: MODEL       51
DOCKED: USER    Run = 51
DOCKED: USER    DPF = D:/Protein_go_brrr/autodock/final/2DN3/heme/dock.dpf
DOCKED: USER  
DOCKED: USER    Estimated Free Energy of Binding    =   -3.24 kcal/mol  [=(1)+(2)+(3)-(4)]
DOCKED: USER    Estimated Inhibition Constant, Ki   =    4.20 mM (millimolar)  [Temperature = 298.15 K]
DOCKED: USER    
DOCKED: USER    (1) Final Intermolecular Energy     =   -7.12 kcal/mol
DOCKED: USER        vdW + Hbond + desolv Energy     =   -6.69 kcal/mol
DOCKED: USER        Electrostatic Energy            =   -0.43 kcal/mol
DOCKED: USER    (2) Final Total Internal Energy     =   -2.44 kcal/mol
DOCKED: USER    (3) Torsional Free Energy           =   +3.88 kcal/mol
DOCKED: USER    (4) Unbound System's Energy  [=(2)] =   -2.44 kcal/mol
DOCKED: USER    
DOCKED: USER    
DOCKED: USER    NEWDPF move heme_opt.pdbqt
DOCKED: USER    NEWDPF about 0.153000 0.018000 -0.028000
DOCKED: USER    NEWDPF tran0 43.466196 16.500588 16.703415
DOCKED: USER    NEWDPF quaternion0 0.790023 0.055528 0.593364 -0.143874
DOCKED: USER    NEWDPF axisangle0 0.798329 0.056112 0.599602 -163.455822
DOCKED: USER    NEWDPF quat0 0.798329 0.056112 0.599602 -163.455822
DOCKED: USER    NEWDPF dihe0 146.95 43.80 150.49 128.79 -139.09 -34.33 162.66 74.89 16.30 -7.19 -106.68 -79.71 163.81 
DOCKED: USER  keepresnum = 1 
DOCKED: USER  
DOCKED: REMARK  13 active torsions:
DOCKED: REMARK  status: ('A' for Active; 'I' for Inactive)
DOCKED: REMARK    1  A    between atoms: O_3  and  C_38 
DOCKED: REMARK    2  A    between atoms: O_4  and  C_40 
DOCKED: REMARK    3  A    between atoms: O_7  and  C_46 
DOCKED: REMARK    4  A    between atoms: O_9  and  C_48 
DOCKED: REMARK    5  A    between atoms: C_15  and  C_20 
DOCKED: REMARK    6  A    between atoms: C_16  and  C_23 
DOCKED: REMARK    7  A    between atoms: C_20  and  C_38 
DOCKED: REMARK    8  A    between atoms: C_23  and  C_40 
DOCKED: REMARK    9  A    between atoms: C_32  and  C_41 
DOCKED: REMARK   10  A    between atoms: C_37  and  C_45 
DOCKED: REMARK   11  A    between atoms: C_41  and  C_44 
DOCKED: REMARK   12  A    between atoms: C_44  and  C_46 
DOCKED: REMARK   13  A    between atoms: C_47  and  C_48 
DOCKED: USER                              x       y       z     vdW  Elec       q    Type
DOCKED: USER                           _______ _______ _______ _____ _____    ______ ____
DOCKED: ROOT
DOCKED: ATOM      1  O   UNL d   1      42.319  13.337  11.863 -0.00 -0.04    -0.289 OA
DOCKED: ATOM      2  O   UNL d   1      41.593  20.684  13.236 -0.24 -0.05    -0.289 OA
DOCKED: ATOM      3  N   UNL d   1      42.998  14.739  14.940 -0.04 -0.04    -0.247 NA
DOCKED: ATOM      4  N   UNL d   1      42.727  17.654  14.438 -0.11 -0.05    -0.247 NA
DOCKED: ATOM      5  N   UNL d   1      44.014  18.116  16.967 -0.10 -0.12    -0.354 N 
DOCKED: ATOM      6  N   UNL d   1      44.309  15.090  17.471 -0.03 -0.08    -0.354 N 
DOCKED: ATOM      7  C   UNL d   1      43.254  12.505  13.963 -0.01 +0.01    +0.084 A 
DOCKED: ATOM      8  C   UNL d   1      41.259  18.342  12.609 -0.28 +0.01    +0.084 A 
DOCKED: ATOM      9  C   UNL d   1      41.949  17.218  13.389 -0.17 +0.01    +0.058 A 
DOCKED: ATOM     10  C   UNL d   1      43.424  13.440  15.164 -0.04 +0.01    +0.058 A 
DOCKED: ATOM     11  C   UNL d   1      42.639  13.501  13.026 -0.01 +0.02    +0.193 A 
DOCKED: ATOM     12  C   UNL d   1      42.513  14.809  13.744 -0.04 +0.02    +0.109 A 
DOCKED: ATOM     13  C   UNL d   1      41.819  19.499  13.386 -0.26 +0.03    +0.193 A 
DOCKED: ATOM     14  C   UNL d   1      44.600  12.054  13.391 -0.00 +0.00    +0.026 C 
DOCKED: ATOM     15  C   UNL d   1      41.844  15.925  13.044 -0.11 +0.01    +0.055 C 
DOCKED: ATOM     16  C   UNL d   1      39.739  18.312  12.795 -0.33 +0.00    +0.026 C 
DOCKED: ATOM     17  C   UNL d   1      42.698  18.948  14.461 -0.24 +0.02    +0.109 A 
DOCKED: ATOM     18  C   UNL d   1      43.869  12.986  16.351 -0.05 +0.01    +0.050 C 
DOCKED: ATOM     19  C   UNL d   1      43.979  13.755  17.537 -0.08 +0.01    +0.045 A 
DOCKED: ATOM     20  C   UNL d   1      44.010  19.393  16.468 -0.25 +0.02    +0.045 A 
DOCKED: ATOM     21  C   UNL d   1      43.423  19.858  15.361 -0.31 +0.02    +0.057 C 
DOCKED: ATOM     22  C   UNL d   1      45.225  19.360  18.402 -0.21 -0.01    -0.019 A 
DOCKED: ATOM     23  C   UNL d   1      44.722  17.998  18.133 -0.23 +0.02    +0.045 A 
DOCKED: ATOM     24  C   UNL d   1      44.799  20.181  17.414 -0.23 -0.01    -0.022 A 
DOCKED: ATOM     25  C   UNL d   1      44.450  15.615  18.735 -0.16 +0.01    +0.049 A 
DOCKED: ATOM     26  C   UNL d   1      43.866  13.414  18.876 -0.10 -0.00    -0.018 A 
DOCKED: ATOM     27  C   UNL d   1      44.145  14.597  19.627 -0.17 +0.00    +0.003 A 
DOCKED: ATOM     28  C   UNL d   1      44.940  16.936  18.924 -0.24 +0.01    +0.052 C 
DOCKED: ATOM     29  C   UNL d   1      45.037  21.644  17.249 -0.29 +0.04    +0.046 C 
DOCKED: ATOM     30  C   UNL d   1      43.519  12.072  19.426 -0.07 +0.01    +0.046 C 
DOCKED: ATOM     31  H   UNL d   1      43.468  17.380  16.532 +0.06 +0.05    +0.166 HD
DOCKED: ATOM     32  H   UNL d   1      44.463  15.587  16.602 +0.03 +0.04    +0.166 HD
DOCKED: ENDROOT
DOCKED: BRANCH   7  33
DOCKED: ATOM     33  C   UNL d   1      42.309  11.319  14.182 -0.01 +0.02    +0.141 C 
DOCKED: BRANCH  33  34
DOCKED: ATOM     34  C   UNL d   1      40.890  11.748  14.435 -0.01 +0.03    +0.306 C 
DOCKED: ATOM     35  O   UNL d   1      40.415  12.071  15.511 -0.03 -0.03    -0.251 OA
DOCKED: BRANCH  34  36
DOCKED: ATOM     36  O   UNL d   1      40.142  11.750  13.318 +0.00 -0.05    -0.481 OA
DOCKED: ATOM     37  H   UNL d   1      40.757  12.038  12.610 +0.01 +0.03    +0.295 HD
DOCKED: ENDBRANCH  34  36
DOCKED: ENDBRANCH  33  34
DOCKED: ENDBRANCH   7  33
DOCKED: BRANCH  27  38
DOCKED: ATOM     38  C   UNL d   1      44.153  14.684  21.056 -0.24 +0.00    +0.017 C 
DOCKED: ATOM     39  C   UNL d   1      45.073  15.333  21.787 -0.15 +0.02    +0.092 C 
DOCKED: BRANCH  39  40
DOCKED: ATOM     40  C   UNL d   1      44.957  15.362  23.247 -0.06 +0.06    +0.330 C 
DOCKED: ATOM     41  O   UNL d   1      43.940  15.431  23.911 -0.15 -0.04    -0.246 OA
DOCKED: BRANCH  40  42
DOCKED: ATOM     42  O   UNL d   1      46.174  15.290  23.809 -0.01 -0.07    -0.477 OA
DOCKED: ATOM     43  H   UNL d   1      46.057  14.650  24.541 +0.03 +0.03    +0.295 HD
DOCKED: ENDBRANCH  40  42
DOCKED: ENDBRANCH  39  40
DOCKED: ENDBRANCH  27  38
DOCKED: BRANCH   8  44
DOCKED: ATOM     44  C   UNL d   1      41.634  18.444  11.127 -0.23 +0.01    +0.141 C 
DOCKED: BRANCH  44  45
DOCKED: ATOM     45  C   UNL d   1      43.112  18.611  10.898 -0.14 +0.04    +0.306 C 
DOCKED: ATOM     46  O   UNL d   1      43.844  17.850  10.290 -0.10 -0.05    -0.251 OA
DOCKED: BRANCH  45  47
DOCKED: ATOM     47  O   UNL d   1      43.600  19.724  11.475 -0.09 -0.04    -0.481 OA
DOCKED: ATOM     48  H   UNL d   1      42.852  20.359  11.460 -0.29 -0.06    +0.295 HD
DOCKED: ENDBRANCH  45  47
DOCKED: ENDBRANCH  44  45
DOCKED: ENDBRANCH   8  44
DOCKED: BRANCH  22  49
DOCKED: ATOM     49  C   UNL d   1      46.078  19.725  19.581 -0.15 +0.02    +0.048 C 
DOCKED: BRANCH  49  50
DOCKED: ATOM     50  C   UNL d   1      47.545  19.360  19.356 -0.08 +0.06    +0.125 C 
DOCKED: BRANCH  50  51
DOCKED: ATOM     51  C   UNL d   1      48.194  20.314  18.393 -0.02 +0.30    +0.305 C 
DOCKED: ATOM     52  O   UNL d   1      48.448  21.492  18.571 -0.15 -0.26    -0.251 OA
DOCKED: BRANCH  51  53
DOCKED: ATOM     53  O   UNL d   1      48.485  19.722  17.217 -0.55 -0.68    -0.481 OA
DOCKED: ATOM     54  H   UNL d   1      48.985  18.919  17.472 +0.03 +0.23    +0.295 HD
DOCKED: ENDBRANCH  51  53
DOCKED: ENDBRANCH  50  51
DOCKED: ENDBRANCH  49  50
DOCKED: ENDBRANCH  22  49
DOCKED: TORSDOF 13
DOCKED: TER
DOCKED: ENDMDL
________________________________________________________________________________


	BEGINNING GENETIC ALGORITHM DOCKING 52 of 100
Run: 52 Seed: 1164810024 1210376431 [ Run 52 of 100 GA/GALS ]
Beginning LAMARCKIAN GENETIC ALGORITHM (LGA), with a maximum of 25000000 energy evaluations.

Final-Value: -9.228


	FINAL GENETIC ALGORITHM DOCKED STATE
	_______________________________________________


Detailed state:  trans 43.003 15.558 16.319 quatxyzw 0.377034 -0.813200 0.431436 0.102048 center 0.153 0.018 -0.028 ntor 13 168.0041 162.8828 136.3994 51.2067 -154.2999 -81.1850 117.2902 81.4633 2.2732 125.4176 -31.9519 14.5399 17.2262
State:	 43.003  15.558  16.319   0.379 -0.817  0.434 168.286    168.00  162.88  136.40   51.21 -154.30  -81.18  117.29   81.46    2.27  125.42  -31.95   14.54   17.23

DOCKED: MODEL       52
DOCKED: USER    Run = 52
DOCKED: USER    DPF = D:/Protein_go_brrr/autodock/final/2DN3/heme/dock.dpf
DOCKED: USER  
DOCKED: USER    Estimated Free Energy of Binding    =   -2.14 kcal/mol  [=(1)+(2)+(3)-(4)]
DOCKED: USER    Estimated Inhibition Constant, Ki   =   26.85 mM (millimolar)  [Temperature = 298.15 K]
DOCKED: USER    
DOCKED: USER    (1) Final Intermolecular Energy     =   -6.02 kcal/mol
DOCKED: USER        vdW + Hbond + desolv Energy     =   -5.46 kcal/mol
DOCKED: USER        Electrostatic Energy            =   -0.56 kcal/mol
DOCKED: USER    (2) Final Total Internal Energy     =   -3.21 kcal/mol
DOCKED: USER    (3) Torsional Free Energy           =   +3.88 kcal/mol
DOCKED: USER    (4) Unbound System's Energy  [=(2)] =   -3.21 kcal/mol
DOCKED: USER    
DOCKED: USER    
DOCKED: USER    NEWDPF move heme_opt.pdbqt
DOCKED: USER    NEWDPF about 0.153000 0.018000 -0.028000
DOCKED: USER    NEWDPF tran0 43.003223 15.558353 16.318696
DOCKED: USER    NEWDPF quaternion0 0.377034 -0.813200 0.431436 0.102048
DOCKED: USER    NEWDPF axisangle0 0.379013 -0.817468 0.433700 168.285796
DOCKED: USER    NEWDPF quat0 0.379013 -0.817468 0.433700 168.285796
DOCKED: USER    NEWDPF dihe0 168.00 162.88 136.40 51.21 -154.30 -81.18 117.29 81.46 2.27 125.42 -31.95 14.54 17.23 
DOCKED: USER  keepresnum = 1 
DOCKED: USER  
DOCKED: REMARK  13 active torsions:
DOCKED: REMARK  status: ('A' for Active; 'I' for Inactive)
DOCKED: REMARK    1  A    between atoms: O_3  and  C_38 
DOCKED: REMARK    2  A    between atoms: O_4  and  C_40 
DOCKED: REMARK    3  A    between atoms: O_7  and  C_46 
DOCKED: REMARK    4  A    between atoms: O_9  and  C_48 
DOCKED: REMARK    5  A    between atoms: C_15  and  C_20 
DOCKED: REMARK    6  A    between atoms: C_16  and  C_23 
DOCKED: REMARK    7  A    between atoms: C_20  and  C_38 
DOCKED: REMARK    8  A    between atoms: C_23  and  C_40 
DOCKED: REMARK    9  A    between atoms: C_32  and  C_41 
DOCKED: REMARK   10  A    between atoms: C_37  and  C_45 
DOCKED: REMARK   11  A    between atoms: C_41  and  C_44 
DOCKED: REMARK   12  A    between atoms: C_44  and  C_46 
DOCKED: REMARK   13  A    between atoms: C_47  and  C_48 
DOCKED: USER                              x       y       z     vdW  Elec       q    Type
DOCKED: USER                           _______ _______ _______ _____ _____    ______ ____
DOCKED: ROOT
DOCKED: ATOM      1  O   UNL d   1      46.333  19.668  13.716 -0.39 -0.32    -0.289 OA
DOCKED: ATOM      2  O   UNL d   1      46.619  16.744  20.627 -0.06 -0.07    -0.289 OA
DOCKED: ATOM      3  N   UNL d   1      44.054  17.345  14.857 -0.04 -0.07    -0.247 NA
DOCKED: ATOM      4  N   UNL d   1      45.135  16.576  17.516 -0.06 -0.07    -0.247 NA
DOCKED: ATOM      5  N   UNL d   1      43.321  14.345  17.505 +0.07 -0.07    -0.354 N 
DOCKED: ATOM      6  N   UNL d   1      42.219  15.139  14.738 -0.05 -0.05    -0.354 N 
DOCKED: ATOM      7  C   UNL d   1      44.493  18.421  12.699 -0.12 +0.03    +0.084 A 
DOCKED: ATOM      8  C   UNL d   1      46.526  18.217  18.674 -0.09 +0.03    +0.084 A 
DOCKED: ATOM      9  C   UNL d   1      45.752  17.803  17.418 -0.09 +0.02    +0.058 A 
DOCKED: ATOM     10  C   UNL d   1      43.667  17.435  13.530 -0.07 +0.01    +0.058 A 
DOCKED: ATOM     11  C   UNL d   1      45.403  18.887  13.796 -0.11 +0.11    +0.193 A 
DOCKED: ATOM     12  C   UNL d   1      45.020  18.181  15.059 -0.07 +0.05    +0.109 A 
DOCKED: ATOM     13  C   UNL d   1      46.264  16.982  19.489 -0.08 +0.05    +0.193 A 
DOCKED: ATOM     14  C   UNL d   1      45.328  17.713  11.630 -0.11 +0.01    +0.026 C 
DOCKED: ATOM     15  C   UNL d   1      45.724  18.550  16.304 -0.12 +0.03    +0.055 C 
DOCKED: ATOM     16  C   UNL d   1      45.875  19.415  19.373 -0.19 +0.01    +0.026 C 
DOCKED: ATOM     17  C   UNL d   1      45.416  16.063  18.670 -0.10 +0.03    +0.109 A 
DOCKED: ATOM     18  C   UNL d   1      42.605  16.794  13.009 -0.11 +0.01    +0.050 C 
DOCKED: ATOM     19  C   UNL d   1      41.734  15.931  13.721 -0.13 +0.01    +0.045 A 
DOCKED: ATOM     20  C   UNL d   1      44.087  14.021  18.594 -0.11 +0.01    +0.045 A 
DOCKED: ATOM     21  C   UNL d   1      45.034  14.745  19.198 -0.12 +0.01    +0.057 C 
DOCKED: ATOM     22  C   UNL d   1      42.678  12.282  18.138 -0.08 -0.00    -0.019 A 
DOCKED: ATOM     23  C   UNL d   1      42.441  13.357  17.154 -0.08 +0.01    +0.045 A 
DOCKED: ATOM     24  C   UNL d   1      43.652  12.681  18.989 -0.08 -0.00    -0.022 A 
DOCKED: ATOM     25  C   UNL d   1      41.228  14.320  15.227 -0.13 +0.01    +0.049 A 
DOCKED: ATOM     26  C   UNL d   1      40.386  15.645  13.571 -0.16 -0.00    -0.018 A 
DOCKED: ATOM     27  C   UNL d   1      40.067  14.642  14.538 -0.19 +0.00    +0.003 A 
DOCKED: ATOM     28  C   UNL d   1      41.525  13.303  16.175 -0.12 +0.01    +0.052 C 
DOCKED: ATOM     29  C   UNL d   1      44.231  11.952  20.153 -0.04 +0.01    +0.046 C 
DOCKED: ATOM     30  C   UNL d   1      39.448  16.267  12.592 -0.24 +0.00    +0.046 C 
DOCKED: ATOM     31  H   UNL d   1      43.373  15.265  17.080 +0.04 +0.04    +0.166 HD
DOCKED: ATOM     32  H   UNL d   1      43.186  15.145  15.040 +0.03 +0.03    +0.166 HD
DOCKED: ENDROOT
DOCKED: BRANCH   7  33
DOCKED: ATOM     33  C   UNL d   1      43.712  19.602  12.112 -0.27 +0.03    +0.141 C 
DOCKED: BRANCH  33  34
DOCKED: ATOM     34  C   UNL d   1      42.868  20.306  13.140 -0.25 +0.07    +0.306 C 
DOCKED: ATOM     35  O   UNL d   1      41.668  20.162  13.308 -0.32 -0.04    -0.251 OA
DOCKED: BRANCH  34  36
DOCKED: ATOM     36  O   UNL d   1      43.580  21.153  13.903 -0.10 -0.22    -0.481 OA
DOCKED: ATOM     37  H   UNL d   1      44.515  20.908  13.737 +0.15 +0.21    +0.295 HD
DOCKED: ENDBRANCH  34  36
DOCKED: ENDBRANCH  33  34
DOCKED: ENDBRANCH   7  33
DOCKED: BRANCH  27  38
DOCKED: ATOM     38  C   UNL d   1      38.777  14.047  14.715 -0.21 +0.00    +0.017 C 
DOCKED: ATOM     39  C   UNL d   1      38.126  13.944  15.884 -0.24 +0.01    +0.092 C 
DOCKED: BRANCH  39  40
DOCKED: ATOM     40  C   UNL d   1      36.798  13.327  15.928 -0.10 +0.05    +0.330 C 
DOCKED: ATOM     41  O   UNL d   1      35.726  13.850  15.689 -0.15 -0.06    -0.246 OA
DOCKED: BRANCH  40  42
DOCKED: ATOM     42  O   UNL d   1      36.901  12.035  16.275 +0.00 -0.06    -0.477 OA
DOCKED: ATOM     43  H   UNL d   1      37.845  11.825  16.121 +0.04 +0.03    +0.295 HD
DOCKED: ENDBRANCH  40  42
DOCKED: ENDBRANCH  39  40
DOCKED: ENDBRANCH  27  38
DOCKED: BRANCH   8  44
DOCKED: ATOM     44  C   UNL d   1      48.030  18.439  18.481 -0.04 +0.07    +0.141 C 
DOCKED: BRANCH  44  45
DOCKED: ATOM     45  C   UNL d   1      48.355  19.736  17.790 -0.02 +0.33    +0.306 C 
DOCKED: ATOM     46  O   UNL d   1      48.280  20.854  18.270 -0.27 -0.30    -0.251 OA
DOCKED: BRANCH  45  47
DOCKED: ATOM     47  O   UNL d   1      48.736  19.558  16.512 -0.40 -0.80    -0.481 OA
DOCKED: ATOM     48  H   UNL d   1      49.360  18.801  16.543 +0.02 +0.26    +0.295 HD
DOCKED: ENDBRANCH  45  47
DOCKED: ENDBRANCH  44  45
DOCKED: ENDBRANCH   8  44
DOCKED: BRANCH  22  49
DOCKED: ATOM     49  C   UNL d   1      41.947  10.971  18.146 -0.04 +0.01    +0.048 C 
DOCKED: BRANCH  49  50
DOCKED: ATOM     50  C   UNL d   1      40.464  11.148  18.468 -0.06 +0.01    +0.125 C 
DOCKED: BRANCH  50  51
DOCKED: ATOM     51  C   UNL d   1      39.636  10.100  17.780 -0.01 +0.03    +0.305 C 
DOCKED: ATOM     52  O   UNL d   1      39.525   8.925  18.083 -0.00 -0.02    -0.251 OA
DOCKED: BRANCH  51  53
DOCKED: ATOM     53  O   UNL d   1      38.983  10.595  16.710 +0.00 -0.05    -0.481 OA
DOCKED: ATOM     54  H   UNL d   1      38.054  10.312  16.846 +0.02 +0.03    +0.295 HD
DOCKED: ENDBRANCH  51  53
DOCKED: ENDBRANCH  50  51
DOCKED: ENDBRANCH  49  50
DOCKED: ENDBRANCH  22  49
DOCKED: TORSDOF 13
DOCKED: TER
DOCKED: ENDMDL
________________________________________________________________________________


	BEGINNING GENETIC ALGORITHM DOCKING 53 of 100
Run: 53 Seed: 337408470 1592195868 [ Run 53 of 100 GA/GALS ]
Beginning LAMARCKIAN GENETIC ALGORITHM (LGA), with a maximum of 25000000 energy evaluations.

Final-Value: -9.776


	FINAL GENETIC ALGORITHM DOCKED STATE
	_______________________________________________


Detailed state:  trans 44.441 48.137 3.846 quatxyzw 0.060124 0.157287 -0.764467 -0.622283 center 0.153 0.018 -0.028 ntor 13 126.3270 58.9205 153.9982 -94.7184 -132.5906 -62.0537 -44.8584 -106.0766 25.3544 -120.4234 -70.4198 -169.6184 -167.5880
State:	 44.441  48.137   3.846   0.077  0.201 -0.977 -103.034    126.33   58.92  154.00  -94.72 -132.59  -62.05  -44.86 -106.08   25.35 -120.42  -70.42 -169.62 -167.59

DOCKED: MODEL       53
DOCKED: USER    Run = 53
DOCKED: USER    DPF = D:/Protein_go_brrr/autodock/final/2DN3/heme/dock.dpf
DOCKED: USER  
DOCKED: USER    Estimated Free Energy of Binding    =   -3.54 kcal/mol  [=(1)+(2)+(3)-(4)]
DOCKED: USER    Estimated Inhibition Constant, Ki   =    2.53 mM (millimolar)  [Temperature = 298.15 K]
DOCKED: USER    
DOCKED: USER    (1) Final Intermolecular Energy     =   -7.42 kcal/mol
DOCKED: USER        vdW + Hbond + desolv Energy     =   -7.04 kcal/mol
DOCKED: USER        Electrostatic Energy            =   -0.38 kcal/mol
DOCKED: USER    (2) Final Total Internal Energy     =   -2.36 kcal/mol
DOCKED: USER    (3) Torsional Free Energy           =   +3.88 kcal/mol
DOCKED: USER    (4) Unbound System's Energy  [=(2)] =   -2.36 kcal/mol
DOCKED: USER    
DOCKED: USER    
DOCKED: USER    NEWDPF move heme_opt.pdbqt
DOCKED: USER    NEWDPF about 0.153000 0.018000 -0.028000
DOCKED: USER    NEWDPF tran0 44.441184 48.136843 3.845799
DOCKED: USER    NEWDPF quaternion0 0.060124 0.157287 -0.764467 -0.622283
DOCKED: USER    NEWDPF axisangle0 0.076807 0.200931 -0.976590 -103.033949
DOCKED: USER    NEWDPF quat0 0.076807 0.200931 -0.976590 -103.033949
DOCKED: USER    NEWDPF dihe0 126.33 58.92 154.00 -94.72 -132.59 -62.05 -44.86 -106.08 25.35 -120.42 -70.42 -169.62 -167.59 
DOCKED: USER  keepresnum = 1 
DOCKED: USER  
DOCKED: REMARK  13 active torsions:
DOCKED: REMARK  status: ('A' for Active; 'I' for Inactive)
DOCKED: REMARK    1  A    between atoms: O_3  and  C_38 
DOCKED: REMARK    2  A    between atoms: O_4  and  C_40 
DOCKED: REMARK    3  A    between atoms: O_7  and  C_46 
DOCKED: REMARK    4  A    between atoms: O_9  and  C_48 
DOCKED: REMARK    5  A    between atoms: C_15  and  C_20 
DOCKED: REMARK    6  A    between atoms: C_16  and  C_23 
DOCKED: REMARK    7  A    between atoms: C_20  and  C_38 
DOCKED: REMARK    8  A    between atoms: C_23  and  C_40 
DOCKED: REMARK    9  A    between atoms: C_32  and  C_41 
DOCKED: REMARK   10  A    between atoms: C_37  and  C_45 
DOCKED: REMARK   11  A    between atoms: C_41  and  C_44 
DOCKED: REMARK   12  A    between atoms: C_44  and  C_46 
DOCKED: REMARK   13  A    between atoms: C_47  and  C_48 
DOCKED: USER                              x       y       z     vdW  Elec       q    Type
DOCKED: USER                           _______ _______ _______ _____ _____    ______ ____
DOCKED: ROOT
DOCKED: ATOM      1  O   UNL d   1      47.372  52.868   5.791 -0.01 +0.04    -0.289 OA
DOCKED: ATOM      2  O   UNL d   1      40.155  51.966   3.923 -0.41 -0.17    -0.289 OA
DOCKED: ATOM      3  N   UNL d   1      46.119  49.902   4.555 -0.05 +0.10    -0.247 NA
DOCKED: ATOM      4  N   UNL d   1      43.194  50.405   4.407 -0.07 +0.07    -0.247 NA
DOCKED: ATOM      5  N   UNL d   1      42.820  47.577   4.043 +0.05 +0.07    -0.354 N 
DOCKED: ATOM      6  N   UNL d   1      45.854  47.062   4.217 -0.13 +0.18    -0.354 N 
DOCKED: ATOM      7  C   UNL d   1      48.279  50.622   5.462 -0.07 -0.03    +0.084 A 
DOCKED: ATOM      8  C   UNL d   1      42.471  52.725   4.155 -0.10 -0.01    +0.084 A 
DOCKED: ATOM      9  C   UNL d   1      43.605  51.718   4.373 -0.13 -0.01    +0.058 A 
DOCKED: ATOM     10  C   UNL d   1      47.408  49.508   4.874 -0.15 -0.03    +0.058 A 
DOCKED: ATOM     11  C   UNL d   1      47.260  51.720   5.402 -0.04 -0.04    +0.193 A 
DOCKED: ATOM     12  C   UNL d   1      46.002  51.164   4.810 -0.10 -0.03    +0.109 A 
DOCKED: ATOM     13  C   UNL d   1      41.335  51.741   4.109 -0.11 +0.00    +0.193 A 
DOCKED: ATOM     14  C   UNL d   1      48.637  50.358   6.927 -0.14 -0.01    +0.026 C 
DOCKED: ATOM     15  C   UNL d   1      44.880  52.092   4.565 -0.11 -0.01    +0.055 C 
DOCKED: ATOM     16  C   UNL d   1      42.579  53.416   2.792 -0.02 +0.00    +0.026 C 
DOCKED: ATOM     17  C   UNL d   1      41.907  50.372   4.281 -0.13 -0.02    +0.109 A 
DOCKED: ATOM     18  C   UNL d   1      47.909  48.285   4.617 -0.14 -0.04    +0.050 C 
DOCKED: ATOM     19  C   UNL d   1      47.204  47.221   3.999 -0.17 -0.03    +0.045 A 
DOCKED: ATOM     20  C   UNL d   1      41.519  47.965   4.229 -0.25 -0.00    +0.045 A 
DOCKED: ATOM     21  C   UNL d   1      41.018  49.201   4.322 -0.27 -0.00    +0.057 C 
DOCKED: ATOM     22  C   UNL d   1      41.608  45.683   4.168 -0.28 -0.00    -0.019 A 
DOCKED: ATOM     23  C   UNL d   1      42.973  46.217   3.993 -0.27 -0.00    +0.045 A 
DOCKED: ATOM     24  C   UNL d   1      40.751  46.723   4.305 -0.26 -0.00    -0.022 A 
DOCKED: ATOM     25  C   UNL d   1      45.396  45.922   3.598 -0.25 -0.01    +0.049 A 
DOCKED: ATOM     26  C   UNL d   1      47.626  46.179   3.187 -0.14 +0.01    -0.018 A 
DOCKED: ATOM     27  C   UNL d   1      46.476  45.373   2.922 -0.19 -0.00    +0.003 A 
DOCKED: ATOM     28  C   UNL d   1      44.067  45.462   3.809 -0.21 -0.00    +0.052 C 
DOCKED: ATOM     29  C   UNL d   1      39.272  46.695   4.493 -0.33 +0.01    +0.046 C 
DOCKED: ATOM     30  C   UNL d   1      49.011  45.945   2.686 -0.07 -0.01    +0.046 C 
DOCKED: ATOM     31  H   UNL d   1      43.554  48.258   3.881 -0.23 -0.06    +0.166 HD
DOCKED: ATOM     32  H   UNL d   1      45.302  47.687   4.792 -0.45 -0.14    +0.166 HD
DOCKED: ENDROOT
DOCKED: BRANCH   7  33
DOCKED: ATOM     33  C   UNL d   1      49.518  50.991   4.639 -0.02 -0.03    +0.141 C 
DOCKED: BRANCH  33  34
DOCKED: ATOM     34  C   UNL d   1      49.175  51.757   3.389 +0.00 -0.03    +0.306 C 
DOCKED: ATOM     35  O   UNL d   1      48.742  51.285   2.351 -0.00 +0.02    -0.251 OA
DOCKED: BRANCH  34  36
DOCKED: ATOM     36  O   UNL d   1      49.393  53.078   3.515 +0.00 +0.02    -0.481 OA
DOCKED: ATOM     37  H   UNL d   1      48.861  53.343   4.295 +0.01 -0.02    +0.295 HD
DOCKED: ENDBRANCH  34  36
DOCKED: ENDBRANCH  33  34
DOCKED: ENDBRANCH   7  33
DOCKED: BRANCH  27  38
DOCKED: ATOM     38  C   UNL d   1      46.470  44.179   2.131 -0.15 +0.00    +0.017 C 
DOCKED: ATOM     39  C   UNL d   1      47.352  43.175   2.239 -0.11 +0.00    +0.092 C 
DOCKED: BRANCH  39  40
DOCKED: ATOM     40  C   UNL d   1      47.225  41.995   1.378 -0.06 +0.04    +0.330 C 
DOCKED: ATOM     41  O   UNL d   1      46.316  41.187   1.355 -0.09 -0.04    -0.246 OA
DOCKED: BRANCH  40  42
DOCKED: ATOM     42  O   UNL d   1      48.284  41.904   0.560 -0.00 -0.04    -0.477 OA
DOCKED: ATOM     43  H   UNL d   1      47.891  41.926  -0.337 +0.02 +0.03    +0.295 HD
DOCKED: ENDBRANCH  40  42
DOCKED: ENDBRANCH  39  40
DOCKED: ENDBRANCH  27  38
DOCKED: BRANCH   8  44
DOCKED: ATOM     44  C   UNL d   1      42.268  53.745   5.279 -0.09 -0.02    +0.141 C 
DOCKED: BRANCH  44  45
DOCKED: ATOM     45  C   UNL d   1      41.004  54.551   5.130 -0.08 +0.05    +0.306 C 
DOCKED: ATOM     46  O   UNL d   1      40.879  55.601   4.524 -0.02 -0.04    -0.251 OA
DOCKED: BRANCH  45  47
DOCKED: ATOM     47  O   UNL d   1      39.963  54.001   5.780 +0.01 -0.41    -0.481 OA
DOCKED: ATOM     48  H   UNL d   1      40.168  53.042   5.809 -0.07 +0.30    +0.295 HD
DOCKED: ENDBRANCH  45  47
DOCKED: ENDBRANCH  44  45
DOCKED: ENDBRANCH   8  44
DOCKED: BRANCH  22  49
DOCKED: ATOM     49  C   UNL d   1      41.272  44.221   4.198 -0.28 +0.01    +0.048 C 
DOCKED: BRANCH  49  50
DOCKED: ATOM     50  C   UNL d   1      40.875  43.758   5.600 -0.33 +0.03    +0.125 C 
DOCKED: BRANCH  50  51
DOCKED: ATOM     51  C   UNL d   1      39.412  43.423   5.660 -0.28 +0.07    +0.305 C 
DOCKED: ATOM     52  O   UNL d   1      38.539  44.014   6.271 -0.31 -0.08    -0.251 OA
DOCKED: BRANCH  51  53
DOCKED: ATOM     53  O   UNL d   1      39.116  42.324   4.937 -0.11 -0.13    -0.481 OA
DOCKED: ATOM     54  H   UNL d   1      39.301  41.581   5.548 +0.14 +0.05    +0.295 HD
DOCKED: ENDBRANCH  51  53
DOCKED: ENDBRANCH  50  51
DOCKED: ENDBRANCH  49  50
DOCKED: ENDBRANCH  22  49
DOCKED: TORSDOF 13
DOCKED: TER
DOCKED: ENDMDL
________________________________________________________________________________


	BEGINNING GENETIC ALGORITHM DOCKING 54 of 100
Run: 54 Seed: 68814672 1627278484 [ Run 54 of 100 GA/GALS ]
Beginning LAMARCKIAN GENETIC ALGORITHM (LGA), with a maximum of 25000000 energy evaluations.

Final-Value: -10.797


	FINAL GENETIC ALGORITHM DOCKED STATE
	_______________________________________________


Detailed state:  trans 19.342 21.488 -8.799 quatxyzw 0.792878 0.339090 0.439251 -0.251837 center 0.153 0.018 -0.028 ntor 13 -139.2296 -127.6905 100.2940 -118.9178 34.0482 -132.3497 -45.4267 -96.2264 105.2678 -123.1744 -59.6462 29.5151 13.5000
State:	 19.342  21.488  -8.799   0.819  0.350  0.454 -150.828   -139.23 -127.69  100.29 -118.92   34.05 -132.35  -45.43  -96.23  105.27 -123.17  -59.65   29.52   13.50

DOCKED: MODEL       54
DOCKED: USER    Run = 54
DOCKED: USER    DPF = D:/Protein_go_brrr/autodock/final/2DN3/heme/dock.dpf
DOCKED: USER  
DOCKED: USER    Estimated Free Energy of Binding    =   -3.81 kcal/mol  [=(1)+(2)+(3)-(4)]
DOCKED: USER    Estimated Inhibition Constant, Ki   =    1.62 mM (millimolar)  [Temperature = 298.15 K]
DOCKED: USER    
DOCKED: USER    (1) Final Intermolecular Energy     =   -7.69 kcal/mol
DOCKED: USER        vdW + Hbond + desolv Energy     =   -7.00 kcal/mol
DOCKED: USER        Electrostatic Energy            =   -0.68 kcal/mol
DOCKED: USER    (2) Final Total Internal Energy     =   -3.11 kcal/mol
DOCKED: USER    (3) Torsional Free Energy           =   +3.88 kcal/mol
DOCKED: USER    (4) Unbound System's Energy  [=(2)] =   -3.11 kcal/mol
DOCKED: USER    
DOCKED: USER    
DOCKED: USER    NEWDPF move heme_opt.pdbqt
DOCKED: USER    NEWDPF about 0.153000 0.018000 -0.028000
DOCKED: USER    NEWDPF tran0 19.341810 21.488452 -8.798851
DOCKED: USER    NEWDPF quaternion0 0.792878 0.339090 0.439251 -0.251837
DOCKED: USER    NEWDPF axisangle0 0.819283 0.350383 0.453880 -150.827561
DOCKED: USER    NEWDPF quat0 0.819283 0.350383 0.453880 -150.827561
DOCKED: USER    NEWDPF dihe0 -139.23 -127.69 100.29 -118.92 34.05 -132.35 -45.43 -96.23 105.27 -123.17 -59.65 29.52 13.50 
DOCKED: USER  keepresnum = 1 
DOCKED: USER  
DOCKED: REMARK  13 active torsions:
DOCKED: REMARK  status: ('A' for Active; 'I' for Inactive)
DOCKED: REMARK    1  A    between atoms: O_3  and  C_38 
DOCKED: REMARK    2  A    between atoms: O_4  and  C_40 
DOCKED: REMARK    3  A    between atoms: O_7  and  C_46 
DOCKED: REMARK    4  A    between atoms: O_9  and  C_48 
DOCKED: REMARK    5  A    between atoms: C_15  and  C_20 
DOCKED: REMARK    6  A    between atoms: C_16  and  C_23 
DOCKED: REMARK    7  A    between atoms: C_20  and  C_38 
DOCKED: REMARK    8  A    between atoms: C_23  and  C_40 
DOCKED: REMARK    9  A    between atoms: C_32  and  C_41 
DOCKED: REMARK   10  A    between atoms: C_37  and  C_45 
DOCKED: REMARK   11  A    between atoms: C_41  and  C_44 
DOCKED: REMARK   12  A    between atoms: C_44  and  C_46 
DOCKED: REMARK   13  A    between atoms: C_47  and  C_48 
DOCKED: USER                              x       y       z     vdW  Elec       q    Type
DOCKED: USER                           _______ _______ _______ _____ _____    ______ ____
DOCKED: ROOT
DOCKED: ATOM      1  O   UNL d   1      18.283  16.078 -10.887 -0.04 +0.15    -0.289 OA
DOCKED: ATOM      2  O   UNL d   1      15.418  22.749 -12.805 -0.04 +0.10    -0.289 OA
DOCKED: ATOM      3  N   UNL d   1      19.119  19.006  -9.267 -0.11 +0.24    -0.247 NA
DOCKED: ATOM      4  N   UNL d   1      17.760  21.094 -10.886 -0.13 +0.14    -0.247 NA
DOCKED: ATOM      5  N   UNL d   1      19.348  23.060  -9.514 -0.06 +0.14    -0.354 N 
DOCKED: ATOM      6  N   UNL d   1      20.767  20.885  -7.852 +0.06 +0.18    -0.354 N 
DOCKED: ATOM      7  C   UNL d   1      19.895  16.684  -9.153 -0.08 -0.06    +0.084 A 
DOCKED: ATOM      8  C   UNL d   1      15.773  20.421 -12.138 -0.09 -0.04    +0.084 A 
DOCKED: ATOM      9  C   UNL d   1      16.963  20.033 -11.254 -0.17 -0.04    +0.058 A 
DOCKED: ATOM     10  C   UNL d   1      20.003  18.129  -8.659 -0.15 -0.04    +0.058 A 
DOCKED: ATOM     11  C   UNL d   1      18.782  16.894 -10.134 -0.08 -0.14    +0.193 A 
DOCKED: ATOM     12  C   UNL d   1      18.382  18.336 -10.092 -0.14 -0.10    +0.109 A 
DOCKED: ATOM     13  C   UNL d   1      16.063  21.892 -12.234 -0.07 -0.07    +0.193 A 
DOCKED: ATOM     14  C   UNL d   1      21.148  16.241  -9.913 -0.03 -0.01    +0.026 C 
DOCKED: ATOM     15  C   UNL d   1      17.232  18.763 -10.914 -0.17 -0.05    +0.055 C 
DOCKED: ATOM     16  C   UNL d   1      14.439  20.228 -11.410 -0.18 -0.01    +0.026 C 
DOCKED: ATOM     17  C   UNL d   1      17.297  22.169 -11.438 -0.16 -0.04    +0.109 A 
DOCKED: ATOM     18  C   UNL d   1      20.832  18.470  -7.655 -0.18 -0.03    +0.050 C 
DOCKED: ATOM     19  C   UNL d   1      20.937  19.761  -7.077 -0.19 -0.02    +0.045 A 
DOCKED: ATOM     20  C   UNL d   1      18.795  23.845 -10.492 -0.19 -0.01    +0.045 A 
DOCKED: ATOM     21  C   UNL d   1      17.850  23.531 -11.383 -0.19 -0.02    +0.057 C 
DOCKED: ATOM     22  C   UNL d   1      20.352  25.070  -9.354 -0.19 +0.00    -0.019 A 
DOCKED: ATOM     23  C   UNL d   1      20.298  23.712  -8.775 -0.21 -0.01    +0.045 A 
DOCKED: ATOM     24  C   UNL d   1      19.459  25.142 -10.369 -0.17 +0.00    -0.022 A 
DOCKED: ATOM     25  C   UNL d   1      21.001  22.022  -7.114 -0.19 -0.02    +0.049 A 
DOCKED: ATOM     26  C   UNL d   1      21.254  20.178  -5.793 -0.19 +0.01    -0.018 A 
DOCKED: ATOM     27  C   UNL d   1      21.274  21.606  -5.818 -0.21 -0.00    +0.003 A 
DOCKED: ATOM     28  C   UNL d   1      21.039  23.300  -7.735 -0.21 -0.01    +0.052 C 
DOCKED: ATOM     29  C   UNL d   1      19.138  26.302 -11.249 -0.14 -0.01    +0.046 C 
DOCKED: ATOM     30  C   UNL d   1      21.521  19.305  -4.614 -0.15 -0.01    +0.046 C 
DOCKED: ATOM     31  H   UNL d   1      19.004  22.123  -9.334 -0.49 -0.12    +0.166 HD
DOCKED: ATOM     32  H   UNL d   1      20.541  20.856  -8.840 -0.14 -0.09    +0.166 HD
DOCKED: ENDROOT
DOCKED: BRANCH   7  33
DOCKED: ATOM     33  C   UNL d   1      19.490  15.656  -8.091 -0.01 -0.13    +0.141 C 
DOCKED: BRANCH  33  34
DOCKED: ATOM     34  C   UNL d   1      18.787  14.462  -8.679 -0.04 -0.19    +0.306 C 
DOCKED: ATOM     35  O   UNL d   1      19.318  13.448  -9.098 -0.01 +0.08    -0.251 OA
DOCKED: BRANCH  34  36
DOCKED: ATOM     36  O   UNL d   1      17.450  14.608  -8.706 -0.05 +0.44    -0.481 OA
DOCKED: ATOM     37  H   UNL d   1      17.310  15.552  -8.936 -0.22 -0.43    +0.295 HD
DOCKED: ENDBRANCH  34  36
DOCKED: ENDBRANCH  33  34
DOCKED: ENDBRANCH   7  33
DOCKED: BRANCH  27  38
DOCKED: ATOM     38  C   UNL d   1      21.574  22.447  -4.698 -0.20 -0.00    +0.017 C 
DOCKED: ATOM     39  C   UNL d   1      20.708  23.277  -4.099 -0.27 -0.01    +0.092 C 
DOCKED: BRANCH  39  40
DOCKED: ATOM     40  C   UNL d   1      21.138  24.074  -2.946 -0.09 -0.04    +0.330 C 
DOCKED: ATOM     41  O   UNL d   1      20.548  24.241  -1.896 -0.38 +0.01    -0.246 OA
DOCKED: BRANCH  40  42
DOCKED: ATOM     42  O   UNL d   1      22.336  24.627  -3.189 -0.03 +0.11    -0.477 OA
DOCKED: ATOM     43  H   UNL d   1      22.216  25.079  -4.049 +0.11 -0.09    +0.295 HD
DOCKED: ENDBRANCH  40  42
DOCKED: ENDBRANCH  39  40
DOCKED: ENDBRANCH  27  38
DOCKED: BRANCH   8  44
DOCKED: ATOM     44  C   UNL d   1      15.745  19.776 -13.528 -0.01 -0.03    +0.141 C 
DOCKED: BRANCH  44  45
DOCKED: ATOM     45  C   UNL d   1      14.655  20.319 -14.413 +0.01 -0.05    +0.306 C 
DOCKED: ATOM     46  O   UNL d   1      13.514  19.898 -14.503 +0.00 +0.03    -0.251 OA
DOCKED: BRANCH  45  47
DOCKED: ATOM     47  O   UNL d   1      15.070  21.355 -15.164 +0.01 +0.07    -0.481 OA
DOCKED: ATOM     48  H   UNL d   1      15.034  22.128 -14.562 +0.02 -0.06    +0.295 HD
DOCKED: ENDBRANCH  45  47
DOCKED: ENDBRANCH  44  45
DOCKED: ENDBRANCH   8  44
DOCKED: BRANCH  22  49
DOCKED: ATOM     49  C   UNL d   1      21.272  26.154  -8.876 -0.18 -0.02    +0.048 C 
DOCKED: BRANCH  49  50
DOCKED: ATOM     50  C   UNL d   1      20.872  26.671  -7.494 -0.29 -0.06    +0.125 C 
DOCKED: BRANCH  50  51
DOCKED: ATOM     51  C   UNL d   1      21.995  26.495  -6.511 -0.13 -0.20    +0.305 C 
DOCKED: ATOM     52  O   UNL d   1      22.102  25.638  -5.651 -0.14 +0.11    -0.251 OA
DOCKED: BRANCH  51  53
DOCKED: ATOM     53  O   UNL d   1      22.945  27.439  -6.656 -0.04 +0.58    -0.481 OA
DOCKED: ATOM     54  H   UNL d   1      22.471  28.281  -6.489 -0.39 -0.79    +0.295 HD
DOCKED: ENDBRANCH  51  53
DOCKED: ENDBRANCH  50  51
DOCKED: ENDBRANCH  49  50
DOCKED: ENDBRANCH  22  49
DOCKED: TORSDOF 13
DOCKED: TER
DOCKED: ENDMDL
________________________________________________________________________________


	BEGINNING GENETIC ALGORITHM DOCKING 55 of 100
Run: 55 Seed: 1249312046 545348823 [ Run 55 of 100 GA/GALS ]
Beginning LAMARCKIAN GENETIC ALGORITHM (LGA), with a maximum of 25000000 energy evaluations.

Final-Value: -10.328


	FINAL GENETIC ALGORITHM DOCKED STATE
	_______________________________________________


Detailed state:  trans 17.864 38.674 30.087 quatxyzw 0.265470 0.834023 -0.375941 -0.304302 center 0.153 0.018 -0.028 ntor 13 -133.7694 152.4349 -127.5666 -88.3023 47.5743 -6.6497 124.7687 -29.8055 152.2109 -17.5257 122.8113 -20.6947 37.7283
State:	 17.864  38.674  30.087   0.279  0.876 -0.395 -144.568   -133.77  152.43 -127.57  -88.30   47.57   -6.65  124.77  -29.81  152.21  -17.53  122.81  -20.69   37.73

DOCKED: MODEL       55
DOCKED: USER    Run = 55
DOCKED: USER    DPF = D:/Protein_go_brrr/autodock/final/2DN3/heme/dock.dpf
DOCKED: USER  
DOCKED: USER    Estimated Free Energy of Binding    =   -2.63 kcal/mol  [=(1)+(2)+(3)-(4)]
DOCKED: USER    Estimated Inhibition Constant, Ki   =   11.81 mM (millimolar)  [Temperature = 298.15 K]
DOCKED: USER    
DOCKED: USER    (1) Final Intermolecular Energy     =   -6.51 kcal/mol
DOCKED: USER        vdW + Hbond + desolv Energy     =   -6.37 kcal/mol
DOCKED: USER        Electrostatic Energy            =   -0.14 kcal/mol
DOCKED: USER    (2) Final Total Internal Energy     =   -3.82 kcal/mol
DOCKED: USER    (3) Torsional Free Energy           =   +3.88 kcal/mol
DOCKED: USER    (4) Unbound System's Energy  [=(2)] =   -3.82 kcal/mol
DOCKED: USER    
DOCKED: USER    
DOCKED: USER    NEWDPF move heme_opt.pdbqt
DOCKED: USER    NEWDPF about 0.153000 0.018000 -0.028000
DOCKED: USER    NEWDPF tran0 17.864079 38.674048 30.087412
DOCKED: USER    NEWDPF quaternion0 0.265470 0.834023 -0.375941 -0.304302
DOCKED: USER    NEWDPF axisangle0 0.278686 0.875545 -0.394657 -144.567623
DOCKED: USER    NEWDPF quat0 0.278686 0.875545 -0.394657 -144.567623
DOCKED: USER    NEWDPF dihe0 -133.77 152.43 -127.57 -88.30 47.57 -6.65 124.77 -29.81 152.21 -17.53 122.81 -20.69 37.73 
DOCKED: USER  keepresnum = 1 
DOCKED: USER  
DOCKED: REMARK  13 active torsions:
DOCKED: REMARK  status: ('A' for Active; 'I' for Inactive)
DOCKED: REMARK    1  A    between atoms: O_3  and  C_38 
DOCKED: REMARK    2  A    between atoms: O_4  and  C_40 
DOCKED: REMARK    3  A    between atoms: O_7  and  C_46 
DOCKED: REMARK    4  A    between atoms: O_9  and  C_48 
DOCKED: REMARK    5  A    between atoms: C_15  and  C_20 
DOCKED: REMARK    6  A    between atoms: C_16  and  C_23 
DOCKED: REMARK    7  A    between atoms: C_20  and  C_38 
DOCKED: REMARK    8  A    between atoms: C_23  and  C_40 
DOCKED: REMARK    9  A    between atoms: C_32  and  C_41 
DOCKED: REMARK   10  A    between atoms: C_37  and  C_45 
DOCKED: REMARK   11  A    between atoms: C_41  and  C_44 
DOCKED: REMARK   12  A    between atoms: C_44  and  C_46 
DOCKED: REMARK   13  A    between atoms: C_47  and  C_48 
DOCKED: USER                              x       y       z     vdW  Elec       q    Type
DOCKED: USER                           _______ _______ _______ _____ _____    ______ ____
DOCKED: ROOT
DOCKED: ATOM      1  O   UNL d   1      22.979  37.936  32.924 -0.05 -0.02    -0.289 OA
DOCKED: ATOM      2  O   UNL d   1      15.914  36.558  35.063 -0.00 -0.01    -0.289 OA
DOCKED: ATOM      3  N   UNL d   1      20.252  38.665  30.943 -0.08 -0.02    -0.247 NA
DOCKED: ATOM      4  N   UNL d   1      17.974  37.513  32.465 -0.06 -0.03    -0.247 NA
DOCKED: ATOM      5  N   UNL d   1      16.360  37.828  30.107 -0.08 +0.00    -0.354 N 
DOCKED: ATOM      6  N   UNL d   1      18.733  39.004  28.530 -0.10 -0.06    -0.354 N 
DOCKED: ATOM      7  C   UNL d   1      22.682  38.740  30.635 -0.15 -0.00    +0.084 A 
DOCKED: ATOM      8  C   UNL d   1      18.237  37.307  34.885 -0.02 +0.01    +0.084 A 
DOCKED: ATOM      9  C   UNL d   1      18.846  37.652  33.522 -0.06 +0.01    +0.058 A 
DOCKED: ATOM     10  C   UNL d   1      21.279  38.953  30.060 -0.17 +0.00    +0.058 A 
DOCKED: ATOM     11  C   UNL d   1      22.267  38.298  32.006 -0.07 +0.01    +0.193 A 
DOCKED: ATOM     12  C   UNL d   1      20.771  38.319  32.076 -0.09 +0.01    +0.109 A 
DOCKED: ATOM     13  C   UNL d   1      16.871  36.911  34.402 -0.01 +0.01    +0.193 A 
DOCKED: ATOM     14  C   UNL d   1      23.417  37.588  29.945 -0.24 -0.00    +0.026 C 
DOCKED: ATOM     15  C   UNL d   1      20.130  38.008  33.370 -0.08 +0.01    +0.055 C 
DOCKED: ATOM     16  C   UNL d   1      18.104  38.545  35.777 -0.01 +0.00    +0.026 C 
DOCKED: ATOM     17  C   UNL d   1      16.844  37.073  32.917 -0.05 +0.01    +0.109 A 
DOCKED: ATOM     18  C   UNL d   1      21.094  39.465  28.829 -0.31 -0.00    +0.050 C 
DOCKED: ATOM     19  C   UNL d   1      19.838  39.774  28.247 -0.27 -0.00    +0.045 A 
DOCKED: ATOM     20  C   UNL d   1      15.508  37.079  30.877 -0.12 -0.00    +0.045 A 
DOCKED: ATOM     21  C   UNL d   1      15.637  36.715  32.157 -0.07 +0.00    +0.057 C 
DOCKED: ATOM     22  C   UNL d   1      14.617  37.292  28.784 -0.28 +0.01    -0.019 A 
DOCKED: ATOM     23  C   UNL d   1      15.907  38.009  28.827 -0.27 -0.01    +0.045 A 
DOCKED: ATOM     24  C   UNL d   1      14.386  36.745  30.001 -0.18 +0.00    -0.022 A 
DOCKED: ATOM     25  C   UNL d   1      17.650  39.424  27.792 -0.18 +0.00    +0.049 A 
DOCKED: ATOM     26  C   UNL d   1      19.456  40.741  27.330 -0.30 +0.00    -0.018 A 
DOCKED: ATOM     27  C   UNL d   1      18.068  40.528  27.062 -0.28 -0.00    +0.003 A 
DOCKED: ATOM     28  C   UNL d   1      16.435  38.686  27.796 -0.26 -0.01    +0.052 C 
DOCKED: ATOM     29  C   UNL d   1      13.216  35.940  30.455 -0.11 -0.01    +0.046 C 
DOCKED: ATOM     30  C   UNL d   1      20.322  41.801  26.740 -0.15 -0.01    +0.046 C 
DOCKED: ATOM     31  H   UNL d   1      17.191  38.254  30.503 +0.04 +0.01    +0.166 HD
DOCKED: ATOM     32  H   UNL d   1      18.747  38.216  29.165 +0.05 +0.05    +0.166 HD
DOCKED: ENDROOT
DOCKED: BRANCH   7  33
DOCKED: ATOM     33  C   UNL d   1      23.556  39.997  30.717 -0.11 -0.02    +0.141 C 
DOCKED: BRANCH  33  34
DOCKED: ATOM     34  C   UNL d   1      25.022  39.676  30.824 -0.12 -0.09    +0.306 C 
DOCKED: ATOM     35  O   UNL d   1      25.839  39.730  29.920 -0.55 +0.12    -0.251 OA
DOCKED: BRANCH  34  36
DOCKED: ATOM     36  O   UNL d   1      25.383  39.306  32.066 -0.01 +0.14    -0.481 OA
DOCKED: ATOM     37  H   UNL d   1      24.675  38.691  32.355 +0.07 -0.05    +0.295 HD
DOCKED: ENDBRANCH  34  36
DOCKED: ENDBRANCH  33  34
DOCKED: ENDBRANCH   7  33
DOCKED: BRANCH  27  38
DOCKED: ATOM     38  C   UNL d   1      17.275  41.300  26.154 -0.32 -0.00    +0.017 C 
DOCKED: ATOM     39  C   UNL d   1      15.934  41.313  26.115 -0.25 -0.02    +0.092 C 
DOCKED: BRANCH  39  40
DOCKED: ATOM     40  C   UNL d   1      15.239  42.164  25.145 -0.14 -0.09    +0.330 C 
DOCKED: ATOM     41  O   UNL d   1      15.723  43.011  24.419 -0.19 +0.06    -0.246 OA
DOCKED: BRANCH  40  42
DOCKED: ATOM     42  O   UNL d   1      13.927  41.881  25.139 -0.05 +0.15    -0.477 OA
DOCKED: ATOM     43  H   UNL d   1      13.888  40.943  25.417 -0.02 -0.12    +0.295 HD
DOCKED: ENDBRANCH  40  42
DOCKED: ENDBRANCH  39  40
DOCKED: ENDBRANCH  27  38
DOCKED: BRANCH   8  44
DOCKED: ATOM     44  C   UNL d   1      18.910  36.153  35.636 -0.02 +0.02    +0.141 C 
DOCKED: BRANCH  44  45
DOCKED: ATOM     45  C   UNL d   1      18.728  34.819  34.961 -0.03 +0.07    +0.306 C 
DOCKED: ATOM     46  O   UNL d   1      19.366  34.390  34.016 -0.10 -0.12    -0.251 OA
DOCKED: BRANCH  45  47
DOCKED: ATOM     47  O   UNL d   1      17.725  34.102  35.500 +0.00 -0.08    -0.481 OA
DOCKED: ATOM     48  H   UNL d   1      16.957  34.713  35.503 +0.01 +0.03    +0.295 HD
DOCKED: ENDBRANCH  45  47
DOCKED: ENDBRANCH  44  45
DOCKED: ENDBRANCH   8  44
DOCKED: BRANCH  22  49
DOCKED: ATOM     49  C   UNL d   1      13.745  37.197  27.566 -0.24 -0.04    +0.048 C 
DOCKED: BRANCH  49  50
DOCKED: ATOM     50  C   UNL d   1      13.588  38.550  26.872 -0.29 -0.06    +0.125 C 
DOCKED: BRANCH  50  51
DOCKED: ATOM     51  C   UNL d   1      13.047  39.580  27.822 -0.06 -0.08    +0.305 C 
DOCKED: ATOM     52  O   UNL d   1      12.228  39.416  28.709 -0.03 +0.05    -0.251 OA
DOCKED: BRANCH  51  53
DOCKED: ATOM     53  O   UNL d   1      13.569  40.801  27.593 +0.00 +0.09    -0.481 OA
DOCKED: ATOM     54  H   UNL d   1      12.944  41.213  26.961 +0.06 -0.06    +0.295 HD
DOCKED: ENDBRANCH  51  53
DOCKED: ENDBRANCH  50  51
DOCKED: ENDBRANCH  49  50
DOCKED: ENDBRANCH  22  49
DOCKED: TORSDOF 13
DOCKED: TER
DOCKED: ENDMDL
________________________________________________________________________________


	BEGINNING GENETIC ALGORITHM DOCKING 56 of 100
Run: 56 Seed: 745221634 1069185254 [ Run 56 of 100 GA/GALS ]
Beginning LAMARCKIAN GENETIC ALGORITHM (LGA), with a maximum of 25000000 energy evaluations.

Final-Value: -10.366


	FINAL GENETIC ALGORITHM DOCKED STATE
	_______________________________________________


Detailed state:  trans 42.343 18.097 7.741 quatxyzw -0.207925 0.652500 0.678247 -0.266444 center 0.153 0.018 -0.028 ntor 13 176.2798 78.9406 -127.3662 -74.6434 55.5039 2.4720 121.5098 128.1221 156.9746 -26.5646 131.0565 -63.9478 -166.4896
State:	 42.343  18.097   7.741  -0.216  0.677  0.704 -149.094    176.28   78.94 -127.37  -74.64   55.50    2.47  121.51  128.12  156.97  -26.56  131.06  -63.95 -166.49

DOCKED: MODEL       56
DOCKED: USER    Run = 56
DOCKED: USER    DPF = D:/Protein_go_brrr/autodock/final/2DN3/heme/dock.dpf
DOCKED: USER  
DOCKED: USER    Estimated Free Energy of Binding    =   -3.97 kcal/mol  [=(1)+(2)+(3)-(4)]
DOCKED: USER    Estimated Inhibition Constant, Ki   =    1.23 mM (millimolar)  [Temperature = 298.15 K]
DOCKED: USER    
DOCKED: USER    (1) Final Intermolecular Energy     =   -7.85 kcal/mol
DOCKED: USER        vdW + Hbond + desolv Energy     =   -7.48 kcal/mol
DOCKED: USER        Electrostatic Energy            =   -0.37 kcal/mol
DOCKED: USER    (2) Final Total Internal Energy     =   -2.52 kcal/mol
DOCKED: USER    (3) Torsional Free Energy           =   +3.88 kcal/mol
DOCKED: USER    (4) Unbound System's Energy  [=(2)] =   -2.52 kcal/mol
DOCKED: USER    
DOCKED: USER    
DOCKED: USER    NEWDPF move heme_opt.pdbqt
DOCKED: USER    NEWDPF about 0.153000 0.018000 -0.028000
DOCKED: USER    NEWDPF tran0 42.342937 18.096911 7.741452
DOCKED: USER    NEWDPF quaternion0 -0.207925 0.652500 0.678247 -0.266444
DOCKED: USER    NEWDPF axisangle0 -0.215723 0.676972 0.703685 -149.094487
DOCKED: USER    NEWDPF quat0 -0.215723 0.676972 0.703685 -149.094487
DOCKED: USER    NEWDPF dihe0 176.28 78.94 -127.37 -74.64 55.50 2.47 121.51 128.12 156.97 -26.56 131.06 -63.95 -166.49 
DOCKED: USER  keepresnum = 1 
DOCKED: USER  
DOCKED: REMARK  13 active torsions:
DOCKED: REMARK  status: ('A' for Active; 'I' for Inactive)
DOCKED: REMARK    1  A    between atoms: O_3  and  C_38 
DOCKED: REMARK    2  A    between atoms: O_4  and  C_40 
DOCKED: REMARK    3  A    between atoms: O_7  and  C_46 
DOCKED: REMARK    4  A    between atoms: O_9  and  C_48 
DOCKED: REMARK    5  A    between atoms: C_15  and  C_20 
DOCKED: REMARK    6  A    between atoms: C_16  and  C_23 
DOCKED: REMARK    7  A    between atoms: C_20  and  C_38 
DOCKED: REMARK    8  A    between atoms: C_23  and  C_40 
DOCKED: REMARK    9  A    between atoms: C_32  and  C_41 
DOCKED: REMARK   10  A    between atoms: C_37  and  C_45 
DOCKED: REMARK   11  A    between atoms: C_41  and  C_44 
DOCKED: REMARK   12  A    between atoms: C_44  and  C_46 
DOCKED: REMARK   13  A    between atoms: C_47  and  C_48 
DOCKED: USER                              x       y       z     vdW  Elec       q    Type
DOCKED: USER                           _______ _______ _______ _____ _____    ______ ____
DOCKED: ROOT
DOCKED: ATOM      1  O   UNL d   1      45.646  18.226  12.623 -0.06 -0.11    -0.289 OA
DOCKED: ATOM      2  O   UNL d   1      47.356  16.317   5.564 -0.06 -0.15    -0.289 OA
DOCKED: ATOM      3  N   UNL d   1      43.312  18.175  10.084 -0.11 -0.04    -0.247 NA
DOCKED: ATOM      4  N   UNL d   1      44.945  17.614   7.666 -0.09 -0.11    -0.247 NA
DOCKED: ATOM      5  N   UNL d   1      42.677  18.374   6.071 -0.02 -0.12    -0.354 N 
DOCKED: ATOM      6  N   UNL d   1      40.996  18.973   8.584 -0.16 -0.01    -0.354 N 
DOCKED: ATOM      7  C   UNL d   1      43.300  18.887  12.430 -0.20 +0.02    +0.084 A 
DOCKED: ATOM      8  C   UNL d   1      47.045  16.406   7.991 -0.04 +0.03    +0.084 A 
DOCKED: ATOM      9  C   UNL d   1      45.816  17.093   8.597 -0.09 +0.02    +0.058 A 
DOCKED: ATOM     10  C   UNL d   1      42.552  18.723  11.103 -0.23 +0.01    +0.058 A 
DOCKED: ATOM     11  C   UNL d   1      44.614  18.317  11.984 -0.10 +0.05    +0.193 A 
DOCKED: ATOM     12  C   UNL d   1      44.485  17.898  10.552 -0.12 +0.02    +0.109 A 
DOCKED: ATOM     13  C   UNL d   1      46.728  16.666   6.545 -0.06 +0.10    +0.193 A 
DOCKED: ATOM     14  C   UNL d   1      43.500  20.358  12.800 -0.40 +0.01    +0.026 C 
DOCKED: ATOM     15  C   UNL d   1      45.635  17.219   9.920 -0.09 +0.02    +0.055 C 
DOCKED: ATOM     16  C   UNL d   1      47.027  14.894   8.234 -0.01 +0.01    +0.026 C 
DOCKED: ATOM     17  C   UNL d   1      45.435  17.412   6.485 -0.10 +0.07    +0.109 A 
DOCKED: ATOM     18  C   UNL d   1      41.241  19.012  10.996 -0.33 +0.00    +0.050 C 
DOCKED: ATOM     19  C   UNL d   1      40.448  18.814   9.837 -0.26 +0.00    +0.045 A 
DOCKED: ATOM     20  C   UNL d   1      43.635  18.289   5.094 -0.14 +0.02    +0.045 A 
DOCKED: ATOM     21  C   UNL d   1      44.892  17.845   5.189 -0.02 +0.04    +0.057 C 
DOCKED: ATOM     22  C   UNL d   1      41.724  19.146   4.182 -0.12 -0.00    -0.019 A 
DOCKED: ATOM     23  C   UNL d   1      41.489  18.880   5.616 -0.14 +0.01    +0.045 A 
DOCKED: ATOM     24  C   UNL d   1      42.995  18.793   3.879 -0.14 -0.01    -0.022 A 
DOCKED: ATOM     25  C   UNL d   1      40.034  18.823   7.613 -0.23 +0.00    +0.049 A 
DOCKED: ATOM     26  C   UNL d   1      39.103  18.518   9.675 -0.18 -0.00    -0.018 A 
DOCKED: ATOM     27  C   UNL d   1      38.852  18.506   8.268 -0.22 -0.00    +0.003 A 
DOCKED: ATOM     28  C   UNL d   1      40.326  19.096   6.249 -0.20 +0.00    +0.052 C 
DOCKED: ATOM     29  C   UNL d   1      43.694  18.861   2.564 -0.12 +0.02    +0.046 C 
DOCKED: ATOM     30  C   UNL d   1      38.111  18.260  10.758 -0.32 +0.00    +0.046 C 
DOCKED: ATOM     31  H   UNL d   1      42.844  18.012   7.004 +0.04 +0.05    +0.166 HD
DOCKED: ATOM     32  H   UNL d   1      41.969  19.208   8.424 +0.04 +0.02    +0.166 HD
DOCKED: ENDROOT
DOCKED: BRANCH   7  33
DOCKED: ATOM     33  C   UNL d   1      42.736  18.082  13.606 -0.17 +0.03    +0.141 C 
DOCKED: BRANCH  33  34
DOCKED: ATOM     34  C   UNL d   1      43.083  18.686  14.940 -0.15 +0.08    +0.306 C 
DOCKED: ATOM     35  O   UNL d   1      42.309  19.236  15.704 -0.23 -0.03    -0.251 OA
DOCKED: BRANCH  34  36
DOCKED: ATOM     36  O   UNL d   1      44.388  18.563  15.241 +0.00 -0.20    -0.481 OA
DOCKED: ATOM     37  H   UNL d   1      44.755  18.003  14.524 +0.09 +0.12    +0.295 HD
DOCKED: ENDBRANCH  34  36
DOCKED: ENDBRANCH  33  34
DOCKED: ENDBRANCH   7  33
DOCKED: BRANCH  27  38
DOCKED: ATOM     38  C   UNL d   1      37.580  18.256   7.659 -0.18 -0.00    +0.017 C 
DOCKED: ATOM     39  C   UNL d   1      37.189  18.722   6.463 -0.15 -0.02    +0.092 C 
DOCKED: BRANCH  39  40
DOCKED: ATOM     40  C   UNL d   1      35.863  18.378   5.943 -0.04 -0.12    +0.330 C 
DOCKED: ATOM     41  O   UNL d   1      35.010  17.694   6.476 -0.03 +0.05    -0.246 OA
DOCKED: BRANCH  40  42
DOCKED: ATOM     42  O   UNL d   1      35.677  18.944   4.741 -0.04 +0.33    -0.477 OA
DOCKED: ATOM     43  H   UNL d   1      35.119  19.726   4.933 -0.51 -0.45    +0.295 HD
DOCKED: ENDBRANCH  40  42
DOCKED: ENDBRANCH  39  40
DOCKED: ENDBRANCH  27  38
DOCKED: BRANCH   8  44
DOCKED: ATOM     44  C   UNL d   1      48.398  17.014   8.375 -0.05 +0.06    +0.141 C 
DOCKED: BRANCH  44  45
DOCKED: ATOM     45  C   UNL d   1      48.702  18.295   7.645 -0.06 +0.19    +0.306 C 
DOCKED: ATOM     46  O   UNL d   1      48.241  19.396   7.887 -0.39 -0.19    -0.251 OA
DOCKED: BRANCH  45  47
DOCKED: ATOM     47  O   UNL d   1      49.558  18.113   6.622 -0.04 -0.31    -0.481 OA
DOCKED: ATOM     48  H   UNL d   1      49.167  17.382   6.099 +0.03 +0.19    +0.295 HD
DOCKED: ENDBRANCH  45  47
DOCKED: ENDBRANCH  44  45
DOCKED: ENDBRANCH   8  44
DOCKED: BRANCH  22  49
DOCKED: ATOM     49  C   UNL d   1      40.698  19.728   3.254 -0.09 +0.00    +0.048 C 
DOCKED: BRANCH  49  50
DOCKED: ATOM     50  C   UNL d   1      41.055  21.153   2.834 -0.13 +0.02    +0.125 C 
DOCKED: BRANCH  50  51
DOCKED: ATOM     51  C   UNL d   1      41.430  21.986   4.027 -0.24 +0.05    +0.305 C 
DOCKED: ATOM     52  O   UNL d   1      42.478  22.577   4.221 -0.38 -0.11    -0.251 OA
DOCKED: BRANCH  51  53
DOCKED: ATOM     53  O   UNL d   1      40.443  22.025   4.945 -0.19 +0.05    -0.481 OA
DOCKED: ATOM     54  H   UNL d   1      40.758  21.432   5.658 -0.26 -0.06    +0.295 HD
DOCKED: ENDBRANCH  51  53
DOCKED: ENDBRANCH  50  51
DOCKED: ENDBRANCH  49  50
DOCKED: ENDBRANCH  22  49
DOCKED: TORSDOF 13
DOCKED: TER
DOCKED: ENDMDL
________________________________________________________________________________


	BEGINNING GENETIC ALGORITHM DOCKING 57 of 100
Run: 57 Seed: 1194572986 1990937098 [ Run 57 of 100 GA/GALS ]
Beginning LAMARCKIAN GENETIC ALGORITHM (LGA), with a maximum of 25000000 energy evaluations.

Final-Value: -13.154


	FINAL GENETIC ALGORITHM DOCKED STATE
	_______________________________________________


Detailed state:  trans 12.501 40.161 25.147 quatxyzw 0.748007 -0.456121 0.395180 -0.276173 center 0.153 0.018 -0.028 ntor 13 -73.5332 -141.0330 130.1568 29.9380 65.7279 -95.3071 -57.5569 -97.2464 59.6572 -145.8498 -100.5096 30.6297 -2.9539
State:	 12.501  40.161  25.147   0.778 -0.475  0.411 -147.936    -73.53 -141.03  130.16   29.94   65.73  -95.31  -57.56  -97.25   59.66 -145.85 -100.51   30.63   -2.95

DOCKED: MODEL       57
DOCKED: USER    Run = 57
DOCKED: USER    DPF = D:/Protein_go_brrr/autodock/final/2DN3/heme/dock.dpf
DOCKED: USER  
DOCKED: USER    Estimated Free Energy of Binding    =   -5.16 kcal/mol  [=(1)+(2)+(3)-(4)]
DOCKED: USER    Estimated Inhibition Constant, Ki   =  166.35 uM (micromolar)  [Temperature = 298.15 K]
DOCKED: USER    
DOCKED: USER    (1) Final Intermolecular Energy     =   -9.03 kcal/mol
DOCKED: USER        vdW + Hbond + desolv Energy     =   -9.02 kcal/mol
DOCKED: USER        Electrostatic Energy            =   -0.02 kcal/mol
DOCKED: USER    (2) Final Total Internal Energy     =   -4.12 kcal/mol
DOCKED: USER    (3) Torsional Free Energy           =   +3.88 kcal/mol
DOCKED: USER    (4) Unbound System's Energy  [=(2)] =   -4.12 kcal/mol
DOCKED: USER    
DOCKED: USER    
DOCKED: USER    NEWDPF move heme_opt.pdbqt
DOCKED: USER    NEWDPF about 0.153000 0.018000 -0.028000
DOCKED: USER    NEWDPF tran0 12.501142 40.160949 25.147440
DOCKED: USER    NEWDPF quaternion0 0.748007 -0.456121 0.395180 -0.276173
DOCKED: USER    NEWDPF axisangle0 0.778276 -0.474579 0.411172 -147.936188
DOCKED: USER    NEWDPF quat0 0.778276 -0.474579 0.411172 -147.936188
DOCKED: USER    NEWDPF dihe0 -73.53 -141.03 130.16 29.94 65.73 -95.31 -57.56 -97.25 59.66 -145.85 -100.51 30.63 -2.95 
DOCKED: USER  keepresnum = 1 
DOCKED: USER  
DOCKED: REMARK  13 active torsions:
DOCKED: REMARK  status: ('A' for Active; 'I' for Inactive)
DOCKED: REMARK    1  A    between atoms: O_3  and  C_38 
DOCKED: REMARK    2  A    between atoms: O_4  and  C_40 
DOCKED: REMARK    3  A    between atoms: O_7  and  C_46 
DOCKED: REMARK    4  A    between atoms: O_9  and  C_48 
DOCKED: REMARK    5  A    between atoms: C_15  and  C_20 
DOCKED: REMARK    6  A    between atoms: C_16  and  C_23 
DOCKED: REMARK    7  A    between atoms: C_20  and  C_38 
DOCKED: REMARK    8  A    between atoms: C_23  and  C_40 
DOCKED: REMARK    9  A    between atoms: C_32  and  C_41 
DOCKED: REMARK   10  A    between atoms: C_37  and  C_45 
DOCKED: REMARK   11  A    between atoms: C_41  and  C_44 
DOCKED: REMARK   12  A    between atoms: C_44  and  C_46 
DOCKED: REMARK   13  A    between atoms: C_47  and  C_48 
DOCKED: USER                              x       y       z     vdW  Elec       q    Type
DOCKED: USER                           _______ _______ _______ _____ _____    ______ ____
DOCKED: ROOT
DOCKED: ATOM      1  O   UNL d   1       9.676  41.535  20.159 -0.19 +0.11    -0.289 OA
DOCKED: ATOM      2  O   UNL d   1      15.608  44.706  23.497 -0.14 +0.04    -0.289 OA
DOCKED: ATOM      3  N   UNL d   1      10.916  40.450  23.189 -0.16 +0.08    -0.247 NA
DOCKED: ATOM      4  N   UNL d   1      13.383  42.069  23.537 -0.09 +0.09    -0.247 NA
DOCKED: ATOM      5  N   UNL d   1      14.147  40.281  25.655 -0.04 +0.16    -0.354 N 
DOCKED: ATOM      6  N   UNL d   1      11.594  38.595  25.274 -0.15 +0.16    -0.354 N 
DOCKED: ATOM      7  C   UNL d   1       9.186  39.657  21.644 -0.34 -0.02    +0.084 A 
DOCKED: ATOM      8  C   UNL d   1      13.466  44.236  22.410 -0.16 -0.02    +0.084 A 
DOCKED: ATOM      9  C   UNL d   1      12.736  42.912  22.662 -0.22 -0.01    +0.058 A 
DOCKED: ATOM     10  C   UNL d   1       9.963  39.473  22.951 -0.32 -0.01    +0.058 A 
DOCKED: ATOM     11  C   UNL d   1       9.856  40.920  21.194 -0.19 -0.05    +0.193 A 
DOCKED: ATOM     12  C   UNL d   1      10.866  41.313  22.227 -0.22 -0.03    +0.109 A 
DOCKED: ATOM     13  C   UNL d   1      14.666  43.971  23.275 -0.16 -0.04    +0.193 A 
DOCKED: ATOM     14  C   UNL d   1       9.490  38.547  20.634 -0.61 -0.00    +0.026 C 
DOCKED: ATOM     15  C   UNL d   1      11.591  42.586  22.042 -0.25 -0.01    +0.055 C 
DOCKED: ATOM     16  C   UNL d   1      12.697  45.428  22.987 -0.06 -0.00    +0.026 C 
DOCKED: ATOM     17  C   UNL d   1      14.497  42.622  23.895 -0.23 -0.03    +0.109 A 
DOCKED: ATOM     18  C   UNL d   1       9.659  38.489  23.818 -0.27 -0.01    +0.050 C 
DOCKED: ATOM     19  C   UNL d   1      10.265  38.293  25.085 -0.26 -0.01    +0.045 A 
DOCKED: ATOM     20  C   UNL d   1      15.310  40.993  25.517 -0.26 -0.01    +0.045 A 
DOCKED: ATOM     21  C   UNL d   1      15.547  42.073  24.766 -0.31 -0.02    +0.057 C 
DOCKED: ATOM     22  C   UNL d   1      15.666  39.272  26.976 -0.16 +0.00    -0.019 A 
DOCKED: ATOM     23  C   UNL d   1      14.264  39.222  26.516 -0.25 -0.02    +0.045 A 
DOCKED: ATOM     24  C   UNL d   1      16.280  40.323  26.382 -0.29 +0.00    -0.022 A 
DOCKED: ATOM     25  C   UNL d   1      11.994  38.244  26.543 -0.29 -0.02    +0.049 A 
DOCKED: ATOM     26  C   UNL d   1       9.779  37.767  26.272 -0.24 +0.01    -0.018 A 
DOCKED: ATOM     27  C   UNL d   1      10.870  37.757  27.195 -0.22 -0.00    +0.003 A 
DOCKED: ATOM     28  C   UNL d   1      13.362  38.316  26.922 -0.34 -0.03    +0.052 C 
DOCKED: ATOM     29  C   UNL d   1      17.687  40.791  26.536 -0.30 -0.01    +0.046 C 
DOCKED: ATOM     30  C   UNL d   1       8.386  37.303  26.536 -0.23 -0.00    +0.046 C 
DOCKED: ATOM     31  H   UNL d   1      13.287  40.587  25.212 -0.25 -0.09    +0.166 HD
DOCKED: ATOM     32  H   UNL d   1      12.189  38.983  24.551 -0.41 -0.13    +0.166 HD
DOCKED: ENDROOT
DOCKED: BRANCH   7  33
DOCKED: ATOM     33  C   UNL d   1       7.677  39.875  21.802 -0.27 -0.03    +0.141 C 
DOCKED: BRANCH  33  34
DOCKED: ATOM     34  C   UNL d   1       7.264  41.294  21.518 -0.12 -0.08    +0.306 C 
DOCKED: ATOM     35  O   UNL d   1       6.485  41.658  20.653 -0.29 +0.08    -0.251 OA
DOCKED: BRANCH  34  36
DOCKED: ATOM     36  O   UNL d   1       7.854  42.180  22.340 +0.01 +0.13    -0.481 OA
DOCKED: ATOM     37  H   UNL d   1       8.552  42.598  21.792 +0.09 -0.10    +0.295 HD
DOCKED: ENDBRANCH  34  36
DOCKED: ENDBRANCH  33  34
DOCKED: ENDBRANCH   7  33
DOCKED: BRANCH  27  38
DOCKED: ATOM     38  C   UNL d   1      10.807  37.276  28.542 -0.15 -0.01    +0.017 C 
DOCKED: ATOM     39  C   UNL d   1      10.921  38.036  29.642 -0.05 -0.02    +0.092 C 
DOCKED: BRANCH  39  40
DOCKED: ATOM     40  C   UNL d   1      10.821  37.421  30.968 -0.00 -0.04    +0.330 C 
DOCKED: ATOM     41  O   UNL d   1       9.844  37.365  31.690 -0.00 +0.01    -0.246 OA
DOCKED: BRANCH  40  42
DOCKED: ATOM     42  O   UNL d   1      12.000  36.883  31.318 +0.00 +0.07    -0.477 OA
DOCKED: ATOM     43  H   UNL d   1      12.659  37.528  30.988 +0.04 -0.05    +0.295 HD
DOCKED: ENDBRANCH  40  42
DOCKED: ENDBRANCH  39  40
DOCKED: ENDBRANCH  27  38
DOCKED: BRANCH   8  44
DOCKED: ATOM     44  C   UNL d   1      13.883  44.494  20.958 -0.20 -0.03    +0.141 C 
DOCKED: BRANCH  44  45
DOCKED: ATOM     45  C   UNL d   1      14.252  45.929  20.692 -0.07 -0.06    +0.306 C 
DOCKED: ATOM     46  O   UNL d   1      13.557  46.770  20.148 -0.04 +0.05    -0.251 OA
DOCKED: BRANCH  45  47
DOCKED: ATOM     47  O   UNL d   1      15.497  46.225  21.106 -0.05 +0.08    -0.481 OA
DOCKED: ATOM     48  H   UNL d   1      15.534  45.904  22.032 +0.11 -0.05    +0.295 HD
DOCKED: ENDBRANCH  45  47
DOCKED: ENDBRANCH  44  45
DOCKED: ENDBRANCH   8  44
DOCKED: BRANCH  22  49
DOCKED: ATOM     49  C   UNL d   1      16.274  38.289  27.933 -0.22 -0.01    +0.048 C 
DOCKED: BRANCH  49  50
DOCKED: ATOM     50  C   UNL d   1      16.042  38.693  29.388 -0.16 -0.01    +0.125 C 
DOCKED: BRANCH  50  51
DOCKED: ATOM     51  C   UNL d   1      14.662  38.307  29.839 -0.05 -0.04    +0.305 C 
DOCKED: ATOM     52  O   UNL d   1      13.695  39.036  29.981 -0.02 +0.04    -0.251 OA
DOCKED: BRANCH  51  53
DOCKED: ATOM     53  O   UNL d   1      14.568  36.989  30.105 -0.04 +0.09    -0.481 OA
DOCKED: ATOM     54  H   UNL d   1      13.633  36.772  29.909 +0.08 -0.10    +0.295 HD
DOCKED: ENDBRANCH  51  53
DOCKED: ENDBRANCH  50  51
DOCKED: ENDBRANCH  49  50
DOCKED: ENDBRANCH  22  49
DOCKED: TORSDOF 13
DOCKED: TER
DOCKED: ENDMDL
________________________________________________________________________________


	BEGINNING GENETIC ALGORITHM DOCKING 58 of 100
Run: 58 Seed: 1595338721 1299646626 [ Run 58 of 100 GA/GALS ]
Beginning LAMARCKIAN GENETIC ALGORITHM (LGA), with a maximum of 25000000 energy evaluations.

Final-Value: -10.560


	FINAL GENETIC ALGORITHM DOCKED STATE
	_______________________________________________


Detailed state:  trans 38.146 13.818 23.133 quatxyzw -0.285369 -0.644362 -0.707110 -0.057942 center 0.153 0.018 -0.028 ntor 13 -151.1001 -179.2690 -80.9777 10.2145 179.8436 -133.6133 156.2594 49.9735 0.1511 -92.4592 -58.0334 34.3308 16.4711
State:	 38.146  13.818  23.133  -0.286 -0.645 -0.708 -173.357   -151.10 -179.27  -80.98   10.21  179.84 -133.61  156.26   49.97    0.15  -92.46  -58.03   34.33   16.47

DOCKED: MODEL       58
DOCKED: USER    Run = 58
DOCKED: USER    DPF = D:/Protein_go_brrr/autodock/final/2DN3/heme/dock.dpf
DOCKED: USER  
DOCKED: USER    Estimated Free Energy of Binding    =   -3.22 kcal/mol  [=(1)+(2)+(3)-(4)]
DOCKED: USER    Estimated Inhibition Constant, Ki   =    4.35 mM (millimolar)  [Temperature = 298.15 K]
DOCKED: USER    
DOCKED: USER    (1) Final Intermolecular Energy     =   -7.10 kcal/mol
DOCKED: USER        vdW + Hbond + desolv Energy     =   -6.78 kcal/mol
DOCKED: USER        Electrostatic Energy            =   -0.32 kcal/mol
DOCKED: USER    (2) Final Total Internal Energy     =   -3.46 kcal/mol
DOCKED: USER    (3) Torsional Free Energy           =   +3.88 kcal/mol
DOCKED: USER    (4) Unbound System's Energy  [=(2)] =   -3.46 kcal/mol
DOCKED: USER    
DOCKED: USER    
DOCKED: USER    NEWDPF move heme_opt.pdbqt
DOCKED: USER    NEWDPF about 0.153000 0.018000 -0.028000
DOCKED: USER    NEWDPF tran0 38.145767 13.818240 23.132963
DOCKED: USER    NEWDPF quaternion0 -0.285369 -0.644362 -0.707110 -0.057942
DOCKED: USER    NEWDPF axisangle0 -0.285850 -0.645447 -0.708300 -173.356606
DOCKED: USER    NEWDPF quat0 -0.285850 -0.645447 -0.708300 -173.356606
DOCKED: USER    NEWDPF dihe0 -151.10 -179.27 -80.98 10.21 179.84 -133.61 156.26 49.97 0.15 -92.46 -58.03 34.33 16.47 
DOCKED: USER  keepresnum = 1 
DOCKED: USER  
DOCKED: REMARK  13 active torsions:
DOCKED: REMARK  status: ('A' for Active; 'I' for Inactive)
DOCKED: REMARK    1  A    between atoms: O_3  and  C_38 
DOCKED: REMARK    2  A    between atoms: O_4  and  C_40 
DOCKED: REMARK    3  A    between atoms: O_7  and  C_46 
DOCKED: REMARK    4  A    between atoms: O_9  and  C_48 
DOCKED: REMARK    5  A    between atoms: C_15  and  C_20 
DOCKED: REMARK    6  A    between atoms: C_16  and  C_23 
DOCKED: REMARK    7  A    between atoms: C_20  and  C_38 
DOCKED: REMARK    8  A    between atoms: C_23  and  C_40 
DOCKED: REMARK    9  A    between atoms: C_32  and  C_41 
DOCKED: REMARK   10  A    between atoms: C_37  and  C_45 
DOCKED: REMARK   11  A    between atoms: C_41  and  C_44 
DOCKED: REMARK   12  A    between atoms: C_44  and  C_46 
DOCKED: REMARK   13  A    between atoms: C_47  and  C_48 
DOCKED: USER                              x       y       z     vdW  Elec       q    Type
DOCKED: USER                           _______ _______ _______ _____ _____    ______ ____
DOCKED: ROOT
DOCKED: ATOM      1  O   UNL d   1      43.778  12.551  21.937 -0.03 -0.03    -0.289 OA
DOCKED: ATOM      2  O   UNL d   1      37.654  12.357  17.596 -0.05 -0.03    -0.289 OA
DOCKED: ATOM      3  N   UNL d   1      40.620  13.260  23.129 -0.07 +0.04    -0.247 NA
DOCKED: ATOM      4  N   UNL d   1      38.941  13.225  20.678 -0.06 -0.01    -0.247 NA
DOCKED: ATOM      5  N   UNL d   1      36.852  14.481  22.203 -0.09 +0.05    -0.354 N 
DOCKED: ATOM      6  N   UNL d   1      38.607  14.531  24.736 -0.06 +0.10    -0.354 N 
DOCKED: ATOM      7  C   UNL d   1      42.884  13.368  24.061 -0.10 +0.00    +0.084 A 
DOCKED: ATOM      8  C   UNL d   1      39.722  11.860  18.807 -0.09 +0.01    +0.084 A 
DOCKED: ATOM      9  C   UNL d   1      39.970  12.443  20.203 -0.07 +0.00    +0.058 A 
DOCKED: ATOM     10  C   UNL d   1      41.379  13.580  24.243 -0.14 -0.00    +0.058 A 
DOCKED: ATOM     11  C   UNL d   1      42.841  12.855  22.653 -0.08 +0.01    +0.193 A 
DOCKED: ATOM     12  C   UNL d   1      41.411  12.811  22.210 -0.12 -0.00    +0.109 A 
DOCKED: ATOM     13  C   UNL d   1      38.378  12.487  18.563 -0.07 +0.02    +0.193 A 
DOCKED: ATOM     14  C   UNL d   1      43.657  14.690  24.082 -0.18 +0.00    +0.026 C 
DOCKED: ATOM     15  C   UNL d   1      41.113  12.247  20.878 -0.14 +0.00    +0.055 C 
DOCKED: ATOM     16  C   UNL d   1      39.554  10.338  18.849 -0.04 +0.00    +0.026 C 
DOCKED: ATOM     17  C   UNL d   1      38.022  13.295  19.769 -0.08 +0.01    +0.109 A 
DOCKED: ATOM     18  C   UNL d   1      40.860  13.959  25.426 -0.15 -0.00    +0.050 C 
DOCKED: ATOM     19  C   UNL d   1      39.478  14.098  25.711 -0.13 -0.01    +0.045 A 
DOCKED: ATOM     20  C   UNL d   1      36.321  14.588  20.943 -0.21 +0.00    +0.045 A 
DOCKED: ATOM     21  C   UNL d   1      36.770  14.065  19.798 -0.20 +0.01    +0.057 C 
DOCKED: ATOM     22  C   UNL d   1      35.000  15.748  22.402 -0.25 +0.00    -0.019 A 
DOCKED: ATOM     23  C   UNL d   1      36.124  15.149  23.150 -0.24 -0.01    +0.045 A 
DOCKED: ATOM     24  C   UNL d   1      35.122  15.411  21.096 -0.23 -0.00    -0.022 A 
DOCKED: ATOM     25  C   UNL d   1      37.340  14.681  25.251 -0.20 -0.01    +0.049 A 
DOCKED: ATOM     26  C   UNL d   1      38.751  13.927  26.879 -0.07 +0.00    -0.018 A 
DOCKED: ATOM     27  C   UNL d   1      37.399  14.277  26.577 -0.13 -0.00    +0.003 A 
DOCKED: ATOM     28  C   UNL d   1      36.303  15.266  24.475 -0.27 -0.02    +0.052 C 
DOCKED: ATOM     29  C   UNL d   1      34.231  15.765  19.954 -0.31 +0.01    +0.046 C 
DOCKED: ATOM     30  C   UNL d   1      39.277  13.464  28.195 -0.03 -0.00    +0.046 C 
DOCKED: ATOM     31  H   UNL d   1      37.656  13.891  22.386 -0.11 -0.03    +0.166 HD
DOCKED: ATOM     32  H   UNL d   1      38.890  14.744  23.787 -0.39 -0.10    +0.166 HD
DOCKED: ENDROOT
DOCKED: BRANCH   7  33
DOCKED: ATOM     33  C   UNL d   1      43.519  12.331  24.993 -0.02 +0.01    +0.141 C 
DOCKED: BRANCH  33  34
DOCKED: ATOM     34  C   UNL d   1      42.740  11.044  25.043 -0.00 +0.01    +0.306 C 
DOCKED: ATOM     35  O   UNL d   1      42.322  10.494  26.048 -0.00 -0.01    -0.251 OA
DOCKED: BRANCH  34  36
DOCKED: ATOM     36  O   UNL d   1      42.526  10.520  23.824 +0.00 -0.02    -0.481 OA
DOCKED: ATOM     37  H   UNL d   1      43.268  10.856  23.277 +0.02 +0.02    +0.295 HD
DOCKED: ENDBRANCH  34  36
DOCKED: ENDBRANCH  33  34
DOCKED: ENDBRANCH   7  33
DOCKED: BRANCH  27  38
DOCKED: ATOM     38  C   UNL d   1      36.313  14.257  27.511 -0.11 -0.01    +0.017 C 
DOCKED: ATOM     39  C   UNL d   1      35.305  13.372  27.507 -0.05 -0.03    +0.092 C 
DOCKED: BRANCH  39  40
DOCKED: ATOM     40  C   UNL d   1      34.261  13.449  28.532 -0.02 -0.15    +0.330 C 
DOCKED: ATOM     41  O   UNL d   1      33.775  12.534  29.169 -0.01 +0.06    -0.246 OA
DOCKED: BRANCH  40  42
DOCKED: ATOM     42  O   UNL d   1      33.882  14.725  28.709 +0.13 +0.58    -0.477 OA
DOCKED: ATOM     43  H   UNL d   1      34.431  15.224  28.070 -0.44 -0.65    +0.295 HD
DOCKED: ENDBRANCH  40  42
DOCKED: ENDBRANCH  39  40
DOCKED: ENDBRANCH  27  38
DOCKED: BRANCH   8  44
DOCKED: ATOM     44  C   UNL d   1      40.727  12.278  17.729 -0.07 +0.02    +0.141 C 
DOCKED: BRANCH  44  45
DOCKED: ATOM     45  C   UNL d   1      40.093  12.507  16.383 -0.06 +0.04    +0.306 C 
DOCKED: ATOM     46  O   UNL d   1      39.982  13.574  15.804 -0.12 -0.03    -0.251 OA
DOCKED: BRANCH  45  47
DOCKED: ATOM     47  O   UNL d   1      39.604  11.376  15.845 +0.00 -0.05    -0.481 OA
DOCKED: ATOM     48  H   UNL d   1      38.646  11.396  16.054 +0.03 +0.03    +0.295 HD
DOCKED: ENDBRANCH  45  47
DOCKED: ENDBRANCH  44  45
DOCKED: ENDBRANCH   8  44
DOCKED: BRANCH  22  49
DOCKED: ATOM     49  C   UNL d   1      33.931  16.598  23.024 -0.35 +0.00    +0.048 C 
DOCKED: BRANCH  49  50
DOCKED: ATOM     50  C   UNL d   1      33.049  15.794  23.978 -0.18 -0.00    +0.125 C 
DOCKED: BRANCH  50  51
DOCKED: ATOM     51  C   UNL d   1      33.058  16.397  25.354 -0.18 -0.14    +0.305 C 
DOCKED: ATOM     52  O   UNL d   1      32.972  17.576  25.649 -0.67 +0.11    -0.251 OA
DOCKED: BRANCH  51  53
DOCKED: ATOM     53  O   UNL d   1      33.192  15.461  26.315 -0.06 +0.39    -0.481 OA
DOCKED: ATOM     54  H   UNL d   1      33.023  15.949  27.148 -0.26 -0.51    +0.295 HD
DOCKED: ENDBRANCH  51  53
DOCKED: ENDBRANCH  50  51
DOCKED: ENDBRANCH  49  50
DOCKED: ENDBRANCH  22  49
DOCKED: TORSDOF 13
DOCKED: TER
DOCKED: ENDMDL
________________________________________________________________________________


	BEGINNING GENETIC ALGORITHM DOCKING 59 of 100
Run: 59 Seed: 1621821257 721758687 [ Run 59 of 100 GA/GALS ]
Beginning LAMARCKIAN GENETIC ALGORITHM (LGA), with a maximum of 25000000 energy evaluations.

Final-Value: -11.445


	FINAL GENETIC ALGORITHM DOCKED STATE
	_______________________________________________


Detailed state:  trans 18.666 47.965 -5.061 quatxyzw -0.904039 -0.038542 -0.304156 -0.297854 center 0.153 0.018 -0.028 ntor 13 145.0857 103.3149 -129.7456 59.9339 67.8466 26.1221 128.9480 -84.8400 152.1762 -45.3410 91.7887 -93.5849 -0.1912
State:	 18.666  47.965  -5.061  -0.947 -0.040 -0.319 -145.343    145.09  103.31 -129.75   59.93   67.85   26.12  128.95  -84.84  152.18  -45.34   91.79  -93.58   -0.19

DOCKED: MODEL       59
DOCKED: USER    Run = 59
DOCKED: USER    DPF = D:/Protein_go_brrr/autodock/final/2DN3/heme/dock.dpf
DOCKED: USER  
DOCKED: USER    Estimated Free Energy of Binding    =   -5.19 kcal/mol  [=(1)+(2)+(3)-(4)]
DOCKED: USER    Estimated Inhibition Constant, Ki   =  157.45 uM (micromolar)  [Temperature = 298.15 K]
DOCKED: USER    
DOCKED: USER    (1) Final Intermolecular Energy     =   -9.07 kcal/mol
DOCKED: USER        vdW + Hbond + desolv Energy     =   -8.83 kcal/mol
DOCKED: USER        Electrostatic Energy            =   -0.24 kcal/mol
DOCKED: USER    (2) Final Total Internal Energy     =   -2.38 kcal/mol
DOCKED: USER    (3) Torsional Free Energy           =   +3.88 kcal/mol
DOCKED: USER    (4) Unbound System's Energy  [=(2)] =   -2.38 kcal/mol
DOCKED: USER    
DOCKED: USER    
DOCKED: USER    NEWDPF move heme_opt.pdbqt
DOCKED: USER    NEWDPF about 0.153000 0.018000 -0.028000
DOCKED: USER    NEWDPF tran0 18.665892 47.964960 -5.060873
DOCKED: USER    NEWDPF quaternion0 -0.904039 -0.038542 -0.304156 -0.297854
DOCKED: USER    NEWDPF axisangle0 -0.947023 -0.040375 -0.318618 -145.342518
DOCKED: USER    NEWDPF quat0 -0.947023 -0.040375 -0.318618 -145.342518
DOCKED: USER    NEWDPF dihe0 145.09 103.31 -129.75 59.93 67.85 26.12 128.95 -84.84 152.18 -45.34 91.79 -93.58 -0.19 
DOCKED: USER  keepresnum = 1 
DOCKED: USER  
DOCKED: REMARK  13 active torsions:
DOCKED: REMARK  status: ('A' for Active; 'I' for Inactive)
DOCKED: REMARK    1  A    between atoms: O_3  and  C_38 
DOCKED: REMARK    2  A    between atoms: O_4  and  C_40 
DOCKED: REMARK    3  A    between atoms: O_7  and  C_46 
DOCKED: REMARK    4  A    between atoms: O_9  and  C_48 
DOCKED: REMARK    5  A    between atoms: C_15  and  C_20 
DOCKED: REMARK    6  A    between atoms: C_16  and  C_23 
DOCKED: REMARK    7  A    between atoms: C_20  and  C_38 
DOCKED: REMARK    8  A    between atoms: C_23  and  C_40 
DOCKED: REMARK    9  A    between atoms: C_32  and  C_41 
DOCKED: REMARK   10  A    between atoms: C_37  and  C_45 
DOCKED: REMARK   11  A    between atoms: C_41  and  C_44 
DOCKED: REMARK   12  A    between atoms: C_44  and  C_46 
DOCKED: REMARK   13  A    between atoms: C_47  and  C_48 
DOCKED: USER                              x       y       z     vdW  Elec       q    Type
DOCKED: USER                           _______ _______ _______ _____ _____    ______ ____
DOCKED: ROOT
DOCKED: ATOM      1  O   UNL d   1      14.875  47.570  -9.559 +0.00 +0.06    -0.289 OA
DOCKED: ATOM      2  O   UNL d   1      14.461  51.346  -3.080 -0.58 +0.04    -0.289 OA
DOCKED: ATOM      3  N   UNL d   1      17.319  47.390  -7.132 -0.10 +0.03    -0.247 NA
DOCKED: ATOM      4  N   UNL d   1      16.446  49.406  -5.131 -0.10 +0.04    -0.247 NA
DOCKED: ATOM      5  N   UNL d   1      19.055  49.218  -3.939 +0.08 +0.11    -0.354 N 
DOCKED: ATOM      6  N   UNL d   1      19.959  47.141  -6.030 -0.04 +0.02    -0.354 N 
DOCKED: ATOM      7  C   UNL d   1      17.085  46.535  -9.417 -0.14 -0.01    +0.084 A 
DOCKED: ATOM      8  C   UNL d   1      14.057  49.911  -5.022 -0.30 -0.02    +0.084 A 
DOCKED: ATOM      9  C   UNL d   1      15.216  49.183  -5.711 -0.22 -0.01    +0.058 A 
DOCKED: ATOM     10  C   UNL d   1      17.926  46.666  -8.144 -0.16 -0.00    +0.058 A 
DOCKED: ATOM     11  C   UNL d   1      15.886  47.297  -8.938 -0.09 -0.03    +0.193 A 
DOCKED: ATOM     12  C   UNL d   1      16.140  47.741  -7.530 -0.17 -0.01    +0.109 A 
DOCKED: ATOM     13  C   UNL d   1      14.861  50.618  -3.968 -0.23 -0.04    +0.193 A 
DOCKED: ATOM     14  C   UNL d   1      17.708  47.284 -10.598 -0.06 -0.00    +0.026 C 
DOCKED: ATOM     15  C   UNL d   1      15.052  48.436  -6.813 -0.26 -0.01    +0.055 C 
DOCKED: ATOM     16  C   UNL d   1      13.099  48.932  -4.337 -0.57 -0.01    +0.026 C 
DOCKED: ATOM     17  C   UNL d   1      16.294  50.234  -4.148 -0.23 -0.02    +0.109 A 
DOCKED: ATOM     18  C   UNL d   1      19.113  46.043  -8.018 -0.18 +0.00    +0.050 C 
DOCKED: ATOM     19  C   UNL d   1      19.920  46.038  -6.852 -0.18 +0.00    +0.045 A 
DOCKED: ATOM     20  C   UNL d   1      18.564  50.303  -3.260 -0.05 -0.01    +0.045 A 
DOCKED: ATOM     21  C   UNL d   1      17.328  50.812  -3.277 -0.31 -0.01    +0.057 C 
DOCKED: ATOM     22  C   UNL d   1      20.769  50.034  -2.727 -0.14 +0.00    -0.019 A 
DOCKED: ATOM     23  C   UNL d   1      20.378  48.978  -3.681 -0.14 -0.01    +0.045 A 
DOCKED: ATOM     24  C   UNL d   1      19.690  50.815  -2.480 -0.21 +0.00    -0.022 A 
DOCKED: ATOM     25  C   UNL d   1      20.869  46.955  -5.015 -0.20 -0.00    +0.049 A 
DOCKED: ATOM     26  C   UNL d   1      20.799  45.097  -6.339 -0.28 -0.00    -0.018 A 
DOCKED: ATOM     27  C   UNL d   1      21.381  45.674  -5.167 -0.29 -0.00    +0.003 A 
DOCKED: ATOM     28  C   UNL d   1      21.200  48.016  -4.129 -0.19 -0.00    +0.052 C 
DOCKED: ATOM     29  C   UNL d   1      19.580  51.998  -1.580 -0.20 -0.01    +0.046 C 
DOCKED: ATOM     30  C   UNL d   1      21.082  43.744  -6.898 -0.34 +0.01    +0.046 C 
DOCKED: ATOM     31  H   UNL d   1      18.449  48.630  -4.502 -0.04 -0.05    +0.166 HD
DOCKED: ATOM     32  H   UNL d   1      19.415  47.980  -6.191 +0.05 -0.01    +0.166 HD
DOCKED: ENDROOT
DOCKED: BRANCH   7  33
DOCKED: ATOM     33  C   UNL d   1      16.694  45.104  -9.801 -0.23 -0.03    +0.141 C 
DOCKED: BRANCH  33  34
DOCKED: ATOM     34  C   UNL d   1      16.303  44.979 -11.249 -0.11 -0.08    +0.306 C 
DOCKED: ATOM     35  O   UNL d   1      16.822  44.247 -12.075 -0.08 +0.02    -0.251 OA
DOCKED: BRANCH  34  36
DOCKED: ATOM     36  O   UNL d   1      15.277  45.783 -11.580 -0.06 +0.23    -0.481 OA
DOCKED: ATOM     37  H   UNL d   1      14.688  45.767 -10.796 -0.08 -0.25    +0.295 HD
DOCKED: ENDBRANCH  34  36
DOCKED: ENDBRANCH  33  34
DOCKED: ENDBRANCH   7  33
DOCKED: BRANCH  27  38
DOCKED: ATOM     38  C   UNL d   1      22.360  45.041  -4.335 -0.21 +0.00    +0.017 C 
DOCKED: ATOM     39  C   UNL d   1      23.569  45.545  -4.042 -0.25 +0.01    +0.092 C 
DOCKED: BRANCH  39  40
DOCKED: ATOM     40  C   UNL d   1      24.474  44.803  -3.161 -0.19 +0.06    +0.330 C 
DOCKED: ATOM     41  O   UNL d   1      24.485  43.607  -2.942 -0.36 -0.06    -0.246 OA
DOCKED: BRANCH  40  42
DOCKED: ATOM     42  O   UNL d   1      25.353  45.642  -2.590 -0.07 -0.10    -0.477 OA
DOCKED: ATOM     43  H   UNL d   1      25.998  45.826  -3.304 +0.06 +0.05    +0.295 HD
DOCKED: ENDBRANCH  40  42
DOCKED: ENDBRANCH  39  40
DOCKED: ENDBRANCH  27  38
DOCKED: BRANCH   8  44
DOCKED: ATOM     44  C   UNL d   1      13.295  50.913  -5.895 -0.23 -0.03    +0.141 C 
DOCKED: BRANCH  44  45
DOCKED: ATOM     45  C   UNL d   1      13.789  52.327  -5.746 -0.08 -0.05    +0.306 C 
DOCKED: ATOM     46  O   UNL d   1      14.724  52.837  -6.339 -0.03 +0.03    -0.251 OA
DOCKED: BRANCH  45  47
DOCKED: ATOM     47  O   UNL d   1      13.091  53.023  -4.830 -0.07 +0.12    -0.481 OA
DOCKED: ATOM     48  H   UNL d   1      13.068  52.441  -4.041 -0.11 -0.14    +0.295 HD
DOCKED: ENDBRANCH  45  47
DOCKED: ENDBRANCH  44  45
DOCKED: ENDBRANCH   8  44
DOCKED: BRANCH  22  49
DOCKED: ATOM     49  C   UNL d   1      22.150  50.191  -2.161 -0.10 -0.00    +0.048 C 
DOCKED: BRANCH  49  50
DOCKED: ATOM     50  C   UNL d   1      22.376  49.282  -0.953 -0.15 +0.00    +0.125 C 
DOCKED: BRANCH  50  51
DOCKED: ATOM     51  C   UNL d   1      21.932  49.955   0.315 -0.11 -0.00    +0.305 C 
DOCKED: ATOM     52  O   UNL d   1      22.602  50.643   1.064 -0.07 +0.00    -0.251 OA
DOCKED: BRANCH  51  53
DOCKED: ATOM     53  O   UNL d   1      20.635  49.710   0.589 -0.55 +0.02    -0.481 OA
DOCKED: ATOM     54  H   UNL d   1      20.224  50.600   0.609 +0.13 -0.07    +0.295 HD
DOCKED: ENDBRANCH  51  53
DOCKED: ENDBRANCH  50  51
DOCKED: ENDBRANCH  49  50
DOCKED: ENDBRANCH  22  49
DOCKED: TORSDOF 13
DOCKED: TER
DOCKED: ENDMDL
________________________________________________________________________________


	BEGINNING GENETIC ALGORITHM DOCKING 60 of 100
Run: 60 Seed: 1189758828 1140589555 [ Run 60 of 100 GA/GALS ]
Beginning LAMARCKIAN GENETIC ALGORITHM (LGA), with a maximum of 25000000 energy evaluations.

Final-Value: -10.360


	FINAL GENETIC ALGORITHM DOCKED STATE
	_______________________________________________


Detailed state:  trans 17.546 26.407 29.111 quatxyzw -0.846364 0.460252 -0.043129 -0.264529 center 0.153 0.018 -0.028 ntor 13 -91.4367 -63.3568 -165.1973 -64.9845 46.4449 -125.6820 135.0215 -83.0657 131.3162 -23.1306 -67.0242 162.0407 8.2203
State:	 17.546  26.407  29.111  -0.878  0.477 -0.045 -149.322    -91.44  -63.36 -165.20  -64.98   46.44 -125.68  135.02  -83.07  131.32  -23.13  -67.02  162.04    8.22

DOCKED: MODEL       60
DOCKED: USER    Run = 60
DOCKED: USER    DPF = D:/Protein_go_brrr/autodock/final/2DN3/heme/dock.dpf
DOCKED: USER  
DOCKED: USER    Estimated Free Energy of Binding    =   -4.03 kcal/mol  [=(1)+(2)+(3)-(4)]
DOCKED: USER    Estimated Inhibition Constant, Ki   =    1.10 mM (millimolar)  [Temperature = 298.15 K]
DOCKED: USER    
DOCKED: USER    (1) Final Intermolecular Energy     =   -7.91 kcal/mol
DOCKED: USER        vdW + Hbond + desolv Energy     =   -7.21 kcal/mol
DOCKED: USER        Electrostatic Energy            =   -0.70 kcal/mol
DOCKED: USER    (2) Final Total Internal Energy     =   -2.45 kcal/mol
DOCKED: USER    (3) Torsional Free Energy           =   +3.88 kcal/mol
DOCKED: USER    (4) Unbound System's Energy  [=(2)] =   -2.45 kcal/mol
DOCKED: USER    
DOCKED: USER    
DOCKED: USER    NEWDPF move heme_opt.pdbqt
DOCKED: USER    NEWDPF about 0.153000 0.018000 -0.028000
DOCKED: USER    NEWDPF tran0 17.546217 26.407412 29.110697
DOCKED: USER    NEWDPF quaternion0 -0.846364 0.460252 -0.043129 -0.264529
DOCKED: USER    NEWDPF axisangle0 -0.877627 0.477253 -0.044723 -149.322019
DOCKED: USER    NEWDPF quat0 -0.877627 0.477253 -0.044723 -149.322019
DOCKED: USER    NEWDPF dihe0 -91.44 -63.36 -165.20 -64.98 46.44 -125.68 135.02 -83.07 131.32 -23.13 -67.02 162.04 8.22 
DOCKED: USER  keepresnum = 1 
DOCKED: USER  
DOCKED: REMARK  13 active torsions:
DOCKED: REMARK  status: ('A' for Active; 'I' for Inactive)
DOCKED: REMARK    1  A    between atoms: O_3  and  C_38 
DOCKED: REMARK    2  A    between atoms: O_4  and  C_40 
DOCKED: REMARK    3  A    between atoms: O_7  and  C_46 
DOCKED: REMARK    4  A    between atoms: O_9  and  C_48 
DOCKED: REMARK    5  A    between atoms: C_15  and  C_20 
DOCKED: REMARK    6  A    between atoms: C_16  and  C_23 
DOCKED: REMARK    7  A    between atoms: C_20  and  C_38 
DOCKED: REMARK    8  A    between atoms: C_23  and  C_40 
DOCKED: REMARK    9  A    between atoms: C_32  and  C_41 
DOCKED: REMARK   10  A    between atoms: C_37  and  C_45 
DOCKED: REMARK   11  A    between atoms: C_41  and  C_44 
DOCKED: REMARK   12  A    between atoms: C_44  and  C_46 
DOCKED: REMARK   13  A    between atoms: C_47  and  C_48 
DOCKED: USER                              x       y       z     vdW  Elec       q    Type
DOCKED: USER                           _______ _______ _______ _____ _____    ______ ____
DOCKED: ROOT
DOCKED: ATOM      1  O   UNL d   1      13.261  30.434  28.689 -0.16 +0.12    -0.289 OA
DOCKED: ATOM      2  O   UNL d   1      19.190  30.008  33.278 -0.03 -0.15    -0.289 OA
DOCKED: ATOM      3  N   UNL d   1      15.461  27.778  28.658 -0.08 -0.00    -0.247 NA
DOCKED: ATOM      4  N   UNL d   1      17.586  28.629  30.552 -0.05 -0.05    -0.247 NA
DOCKED: ATOM      5  N   UNL d   1      19.216  26.487  29.540 -0.06 -0.07    -0.354 N 
DOCKED: ATOM      6  N   UNL d   1      17.013  25.624  27.564 -0.11 -0.04    -0.354 N 
DOCKED: ATOM      7  C   UNL d   1      13.551  28.458  27.280 -0.21 -0.01    +0.084 A 
DOCKED: ATOM      8  C   UNL d   1      16.957  30.219  32.297 -0.04 +0.02    +0.084 A 
DOCKED: ATOM      9  C   UNL d   1      16.580  29.435  31.036 -0.08 +0.01    +0.058 A 
DOCKED: ATOM     10  C   UNL d   1      14.676  27.458  27.562 -0.17 -0.00    +0.058 A 
DOCKED: ATOM     11  C   UNL d   1      13.827  29.390  28.421 -0.15 -0.03    +0.193 A 
DOCKED: ATOM     12  C   UNL d   1      14.991  28.856  29.196 -0.12 -0.00    +0.109 A 
DOCKED: ATOM     13  C   UNL d   1      18.375  29.737  32.418 -0.04 +0.07    +0.193 A 
DOCKED: ATOM     14  C   UNL d   1      13.767  29.209  25.963 -0.47 -0.01    +0.026 C 
DOCKED: ATOM     15  C   UNL d   1      15.390  29.565  30.429 -0.12 +0.00    +0.055 C 
DOCKED: ATOM     16  C   UNL d   1      16.169  29.740  33.520 -0.02 +0.00    +0.026 C 
DOCKED: ATOM     17  C   UNL d   1      18.634  28.784  31.296 -0.07 +0.03    +0.109 A 
DOCKED: ATOM     18  C   UNL d   1      14.808  26.327  26.844 -0.07 +0.00    +0.050 C 
DOCKED: ATOM     19  C   UNL d   1      15.762  25.306  27.086 -0.20 +0.00    +0.045 A 
DOCKED: ATOM     20  C   UNL d   1      20.145  27.153  30.296 -0.10 +0.01    +0.045 A 
DOCKED: ATOM     21  C   UNL d   1      19.964  28.181  31.132 -0.10 +0.02    +0.057 C 
DOCKED: ATOM     22  C   UNL d   1      21.198  25.505  29.116 -0.18 -0.00    -0.019 A 
DOCKED: ATOM     23  C   UNL d   1      19.758  25.475  28.793 -0.20 +0.01    +0.045 A 
DOCKED: ATOM     24  C   UNL d   1      21.421  26.500  30.008 -0.14 -0.00    -0.022 A 
DOCKED: ATOM     25  C   UNL d   1      17.802  24.499  27.638 -0.21 +0.00    +0.049 A 
DOCKED: ATOM     26  C   UNL d   1      15.725  23.936  26.878 -0.19 +0.00    -0.018 A 
DOCKED: ATOM     27  C   UNL d   1      17.010  23.429  27.247 -0.17 -0.00    +0.003 A 
DOCKED: ATOM     28  C   UNL d   1      19.184  24.598  27.955 -0.19 +0.01    +0.052 C 
DOCKED: ATOM     29  C   UNL d   1      22.705  26.914  30.641 -0.16 +0.01    +0.046 C 
DOCKED: ATOM     30  C   UNL d   1      14.569  23.143  26.371 -0.24 -0.00    +0.046 C 
DOCKED: ATOM     31  H   UNL d   1      18.227  26.699  29.615 +0.04 +0.03    +0.166 HD
DOCKED: ATOM     32  H   UNL d   1      17.305  26.568  27.786 +0.06 +0.04    +0.166 HD
DOCKED: ENDROOT
DOCKED: BRANCH   7  33
DOCKED: ATOM     33  C   UNL d   1      12.130  27.893  27.379 -0.20 +0.00    +0.141 C 
DOCKED: BRANCH  33  34
DOCKED: ATOM     34  C   UNL d   1      11.074  28.933  27.114 -0.22 +0.06    +0.306 C 
DOCKED: ATOM     35  O   UNL d   1      10.460  29.087  26.072 -0.23 -0.07    -0.251 OA
DOCKED: BRANCH  34  36
DOCKED: ATOM     36  O   UNL d   1      10.845  29.722  28.179 -0.40 -0.22    -0.481 OA
DOCKED: ATOM     37  H   UNL d   1      11.515  30.434  28.107 -0.37 -0.06    +0.295 HD
DOCKED: ENDBRANCH  34  36
DOCKED: ENDBRANCH  33  34
DOCKED: ENDBRANCH   7  33
DOCKED: BRANCH  27  38
DOCKED: ATOM     38  C   UNL d   1      17.408  22.056  27.171 -0.16 -0.00    +0.017 C 
DOCKED: ATOM     39  C   UNL d   1      16.800  21.112  26.436 -0.21 -0.02    +0.092 C 
DOCKED: BRANCH  39  40
DOCKED: ATOM     40  C   UNL d   1      17.319  19.742  26.433 -0.10 -0.17    +0.330 C 
DOCKED: ATOM     41  O   UNL d   1      17.603  19.057  25.469 -0.19 +0.14    -0.246 OA
DOCKED: BRANCH  40  42
DOCKED: ATOM     42  O   UNL d   1      17.464  19.300  27.691 -0.07 +0.40    -0.477 OA
DOCKED: ATOM     43  H   UNL d   1      16.838  18.550  27.750 -0.12 -0.57    +0.295 HD
DOCKED: ENDBRANCH  40  42
DOCKED: ENDBRANCH  39  40
DOCKED: ENDBRANCH  27  38
DOCKED: BRANCH   8  44
DOCKED: ATOM     44  C   UNL d   1      16.905  31.745  32.167 -0.10 +0.03    +0.141 C 
DOCKED: BRANCH  44  45
DOCKED: ATOM     45  C   UNL d   1      18.031  32.309  31.342 -0.15 +0.15    +0.306 C 
DOCKED: ATOM     46  O   UNL d   1      18.022  32.508  30.140 -0.24 -0.08    -0.251 OA
DOCKED: BRANCH  45  47
DOCKED: ATOM     47  O   UNL d   1      19.127  32.569  32.077 -0.11 -0.54    -0.481 OA
DOCKED: ATOM     48  H   UNL d   1      18.971  32.106  32.927 +0.05 +0.24    +0.295 HD
DOCKED: ENDBRANCH  45  47
DOCKED: ENDBRANCH  44  45
DOCKED: ENDBRANCH   8  44
DOCKED: BRANCH  22  49
DOCKED: ATOM     49  C   UNL d   1      22.215  24.577  28.519 -0.19 -0.00    +0.048 C 
DOCKED: BRANCH  49  50
DOCKED: ATOM     50  C   UNL d   1      22.130  23.176  29.122 -0.11 -0.01    +0.125 C 
DOCKED: BRANCH  50  51
DOCKED: ATOM     51  C   UNL d   1      21.684  22.175  28.093 -0.04 -0.01    +0.305 C 
DOCKED: ATOM     52  O   UNL d   1      20.542  21.850  27.820 -0.08 +0.01    -0.251 OA
DOCKED: BRANCH  51  53
DOCKED: ATOM     53  O   UNL d   1      22.728  21.612  27.453 -0.03 +0.04    -0.481 OA
DOCKED: ATOM     54  H   UNL d   1      22.690  20.669  27.719 +0.05 -0.02    +0.295 HD
DOCKED: ENDBRANCH  51  53
DOCKED: ENDBRANCH  50  51
DOCKED: ENDBRANCH  49  50
DOCKED: ENDBRANCH  22  49
DOCKED: TORSDOF 13
DOCKED: TER
DOCKED: ENDMDL
________________________________________________________________________________


	BEGINNING GENETIC ALGORITHM DOCKING 61 of 100
Run: 61 Seed: 1809012490 322462960 [ Run 61 of 100 GA/GALS ]
Beginning LAMARCKIAN GENETIC ALGORITHM (LGA), with a maximum of 25000000 energy evaluations.

Final-Value: -14.677


	FINAL GENETIC ALGORITHM DOCKED STATE
	_______________________________________________


Detailed state:  trans 42.239 28.383 17.056 quatxyzw 0.330526 0.068180 -0.941330 0.001222 center 0.153 0.018 -0.028 ntor 13 154.0823 147.2377 -82.4241 37.9929 -141.5610 58.9659 153.5739 86.2672 15.7698 -93.0318 -70.7831 -85.8540 -2.4855
State:	 42.239  28.383  17.056   0.331  0.068 -0.941 179.860    154.08  147.24  -82.42   37.99 -141.56   58.97  153.57   86.27   15.77  -93.03  -70.78  -85.85   -2.49

DOCKED: MODEL       61
DOCKED: USER    Run = 61
DOCKED: USER    DPF = D:/Protein_go_brrr/autodock/final/2DN3/heme/dock.dpf
DOCKED: USER  
DOCKED: USER    Estimated Free Energy of Binding    =   -6.22 kcal/mol  [=(1)+(2)+(3)-(4)]
DOCKED: USER    Estimated Inhibition Constant, Ki   =   27.52 uM (micromolar)  [Temperature = 298.15 K]
DOCKED: USER    
DOCKED: USER    (1) Final Intermolecular Energy     =  -10.10 kcal/mol
DOCKED: USER        vdW + Hbond + desolv Energy     =  -10.02 kcal/mol
DOCKED: USER        Electrostatic Energy            =   -0.08 kcal/mol
DOCKED: USER    (2) Final Total Internal Energy     =   -4.58 kcal/mol
DOCKED: USER    (3) Torsional Free Energy           =   +3.88 kcal/mol
DOCKED: USER    (4) Unbound System's Energy  [=(2)] =   -4.58 kcal/mol
DOCKED: USER    
DOCKED: USER    
DOCKED: USER    NEWDPF move heme_opt.pdbqt
DOCKED: USER    NEWDPF about 0.153000 0.018000 -0.028000
DOCKED: USER    NEWDPF tran0 42.238682 28.383368 17.055916
DOCKED: USER    NEWDPF quaternion0 0.330526 0.068180 -0.941330 0.001222
DOCKED: USER    NEWDPF axisangle0 0.330526 0.068180 -0.941331 179.859953
DOCKED: USER    NEWDPF quat0 0.330526 0.068180 -0.941331 179.859953
DOCKED: USER    NEWDPF dihe0 154.08 147.24 -82.42 37.99 -141.56 58.97 153.57 86.27 15.77 -93.03 -70.78 -85.85 -2.49 
DOCKED: USER  keepresnum = 1 
DOCKED: USER  
DOCKED: REMARK  13 active torsions:
DOCKED: REMARK  status: ('A' for Active; 'I' for Inactive)
DOCKED: REMARK    1  A    between atoms: O_3  and  C_38 
DOCKED: REMARK    2  A    between atoms: O_4  and  C_40 
DOCKED: REMARK    3  A    between atoms: O_7  and  C_46 
DOCKED: REMARK    4  A    between atoms: O_9  and  C_48 
DOCKED: REMARK    5  A    between atoms: C_15  and  C_20 
DOCKED: REMARK    6  A    between atoms: C_16  and  C_23 
DOCKED: REMARK    7  A    between atoms: C_20  and  C_38 
DOCKED: REMARK    8  A    between atoms: C_23  and  C_40 
DOCKED: REMARK    9  A    between atoms: C_32  and  C_41 
DOCKED: REMARK   10  A    between atoms: C_37  and  C_45 
DOCKED: REMARK   11  A    between atoms: C_41  and  C_44 
DOCKED: REMARK   12  A    between atoms: C_44  and  C_46 
DOCKED: REMARK   13  A    between atoms: C_47  and  C_48 
DOCKED: USER                              x       y       z     vdW  Elec       q    Type
DOCKED: USER                           _______ _______ _______ _____ _____    ______ ____
DOCKED: ROOT
DOCKED: ATOM      1  O   UNL d   1      46.293  26.362  20.829 -0.06 -0.24    -0.289 OA
DOCKED: ATOM      2  O   UNL d   1      45.091  33.260  18.115 -0.08 -0.06    -0.289 OA
DOCKED: ATOM      3  N   UNL d   1      43.843  27.053  18.501 -0.08 -0.11    -0.247 NA
DOCKED: ATOM      4  N   UNL d   1      43.928  30.015  18.279 -0.17 -0.09    -0.247 NA
DOCKED: ATOM      5  N   UNL d   1      41.413  29.890  16.891 -0.09 -0.13    -0.354 N 
DOCKED: ATOM      6  N   UNL d   1      41.324  26.819  17.143 -0.14 -0.12    -0.354 N 
DOCKED: ATOM      7  C   UNL d   1      44.487  25.076  19.798 -0.21 +0.05    +0.084 A 
DOCKED: ATOM      8  C   UNL d   1      46.043  31.116  18.813 -0.16 +0.03    +0.084 A 
DOCKED: ATOM      9  C   UNL d   1      45.207  29.833  18.757 -0.21 +0.03    +0.058 A 
DOCKED: ATOM     10  C   UNL d   1      43.554  25.726  18.773 -0.22 +0.02    +0.058 A 
DOCKED: ATOM     11  C   UNL d   1      45.367  26.264  20.044 -0.10 +0.13    +0.193 A 
DOCKED: ATOM     12  C   UNL d   1      44.890  27.391  19.181 -0.11 +0.06    +0.109 A 
DOCKED: ATOM     13  C   UNL d   1      44.991  32.065  18.314 -0.06 +0.06    +0.193 A 
DOCKED: ATOM     14  C   UNL d   1      43.757  24.722  21.097 -0.28 +0.02    +0.026 C 
DOCKED: ATOM     15  C   UNL d   1      45.667  28.647  19.185 -0.20 +0.03    +0.055 C 
DOCKED: ATOM     16  C   UNL d   1      47.197  31.086  17.805 -0.18 +0.01    +0.026 C 
DOCKED: ATOM     17  C   UNL d   1      43.754  31.274  18.034 -0.26 +0.03    +0.109 A 
DOCKED: ATOM     18  C   UNL d   1      42.601  25.017  18.140 -0.40 +0.02    +0.050 C 
DOCKED: ATOM     19  C   UNL d   1      41.749  25.511  17.119 -0.34 +0.01    +0.045 A 
DOCKED: ATOM     20  C   UNL d   1      41.509  31.244  17.085 -0.40 +0.01    +0.045 A 
DOCKED: ATOM     21  C   UNL d   1      42.534  31.951  17.570 -0.41 +0.01    +0.057 C 
DOCKED: ATOM     22  C   UNL d   1      39.451  30.766  16.216 -0.32 -0.00    -0.019 A 
DOCKED: ATOM     23  C   UNL d   1      40.207  29.506  16.370 -0.03 +0.02    +0.045 A 
DOCKED: ATOM     24  C   UNL d   1      40.227  31.791  16.640 -0.29 -0.00    -0.022 A 
DOCKED: ATOM     25  C   UNL d   1      40.439  27.058  16.117 -0.34 +0.01    +0.049 A 
DOCKED: ATOM     26  C   UNL d   1      41.155  24.893  16.029 -0.39 -0.00    -0.018 A 
DOCKED: ATOM     27  C   UNL d   1      40.344  25.880  15.389 -0.40 +0.00    +0.003 A 
DOCKED: ATOM     28  C   UNL d   1      39.743  28.295  16.027 -0.15 +0.02    +0.052 C 
DOCKED: ATOM     29  C   UNL d   1      39.914  33.248  16.671 -0.24 +0.01    +0.046 C 
DOCKED: ATOM     30  C   UNL d   1      41.330  23.474  15.606 -0.52 +0.01    +0.046 C 
DOCKED: ATOM     31  H   UNL d   1      42.206  29.279  17.052 +0.08 +0.06    +0.166 HD
DOCKED: ATOM     32  H   UNL d   1      41.604  27.487  17.851 +0.14 +0.09    +0.166 HD
DOCKED: ENDROOT
DOCKED: BRANCH   7  33
DOCKED: ATOM     33  C   UNL d   1      45.313  23.894  19.278 -0.16 +0.08    +0.141 C 
DOCKED: BRANCH  33  34
DOCKED: ATOM     34  C   UNL d   1      46.273  24.293  18.190 -0.13 +0.24    +0.306 C 
DOCKED: ATOM     35  O   UNL d   1      46.029  24.342  16.997 -0.32 -0.26    -0.251 OA
DOCKED: BRANCH  34  36
DOCKED: ATOM     36  O   UNL d   1      47.491  24.611  18.665 -0.02 -0.34    -0.481 OA
DOCKED: ATOM     37  H   UNL d   1      47.323  24.944  19.572 +0.07 +0.18    +0.295 HD
DOCKED: ENDBRANCH  34  36
DOCKED: ENDBRANCH  33  34
DOCKED: ENDBRANCH   7  33
DOCKED: BRANCH  27  38
DOCKED: ATOM     38  C   UNL d   1      39.540  25.659  14.225 -0.57 +0.00    +0.017 C 
DOCKED: ATOM     39  C   UNL d   1      38.252  26.011  14.096 -0.48 +0.02    +0.092 C 
DOCKED: BRANCH  39  40
DOCKED: ATOM     40  C   UNL d   1      37.544  25.742  12.841 -0.23 +0.07    +0.330 C 
DOCKED: ATOM     41  O   UNL d   1      37.396  24.671  12.285 -0.30 -0.06    -0.246 OA
DOCKED: BRANCH  40  42
DOCKED: ATOM     42  O   UNL d   1      37.037  26.881  12.344 -0.05 -0.09    -0.477 OA
DOCKED: ATOM     43  H   UNL d   1      36.812  27.405  13.141 +0.25 +0.05    +0.295 HD
DOCKED: ENDBRANCH  40  42
DOCKED: ENDBRANCH  39  40
DOCKED: ENDBRANCH  27  38
DOCKED: BRANCH   8  44
DOCKED: ATOM     44  C   UNL d   1      46.534  31.523  20.206 -0.14 +0.08    +0.141 C 
DOCKED: BRANCH  44  45
DOCKED: ATOM     45  C   UNL d   1      46.524  33.013  20.427 -0.09 +0.11    +0.306 C 
DOCKED: ATOM     46  O   UNL d   1      45.770  33.634  21.156 -0.16 -0.08    -0.251 OA
DOCKED: BRANCH  45  47
DOCKED: ATOM     47  O   UNL d   1      47.454  33.649  19.692 +0.00 -0.11    -0.481 OA
DOCKED: ATOM     48  H   UNL d   1      46.970  33.963  18.898 +0.09 +0.06    +0.295 HD
DOCKED: ENDBRANCH  45  47
DOCKED: ENDBRANCH  44  45
DOCKED: ENDBRANCH   8  44
DOCKED: BRANCH  22  49
DOCKED: ATOM     49  C   UNL d   1      38.048  30.848  15.689 -0.35 +0.01    +0.048 C 
DOCKED: BRANCH  49  50
DOCKED: ATOM     50  C   UNL d   1      38.018  30.921  14.162 -0.37 +0.02    +0.125 C 
DOCKED: BRANCH  50  51
DOCKED: ATOM     51  C   UNL d   1      37.474  29.650  13.575 -0.27 +0.04    +0.305 C 
DOCKED: ATOM     52  O   UNL d   1      36.305  29.320  13.472 -0.27 -0.03    -0.251 OA
DOCKED: BRANCH  51  53
DOCKED: ATOM     53  O   UNL d   1      38.455  28.832  13.145 -0.10 -0.08    -0.481 OA
DOCKED: ATOM     54  H   UNL d   1      38.092  28.435  12.326 +0.22 +0.05    +0.295 HD
DOCKED: ENDBRANCH  51  53
DOCKED: ENDBRANCH  50  51
DOCKED: ENDBRANCH  49  50
DOCKED: ENDBRANCH  22  49
DOCKED: TORSDOF 13
DOCKED: TER
DOCKED: ENDMDL
________________________________________________________________________________


	BEGINNING GENETIC ALGORITHM DOCKING 62 of 100
Run: 62 Seed: 1480039083 844150087 [ Run 62 of 100 GA/GALS ]
Beginning LAMARCKIAN GENETIC ALGORITHM (LGA), with a maximum of 25000000 energy evaluations.

Final-Value: -9.851


	FINAL GENETIC ALGORITHM DOCKED STATE
	_______________________________________________


Detailed state:  trans 33.987 14.148 15.516 quatxyzw 0.331664 0.564450 -0.708674 -0.263016 center 0.153 0.018 -0.028 ntor 13 -119.0245 -176.4318 -139.2498 -52.5361 41.6148 -64.0342 125.0406 -94.3771 149.6053 -22.1176 -104.4351 28.3265 -6.3138
State:	 33.987  14.148  15.516   0.344  0.585 -0.735 -149.502   -119.02 -176.43 -139.25  -52.54   41.61  -64.03  125.04  -94.38  149.61  -22.12 -104.44   28.33   -6.31

DOCKED: MODEL       62
DOCKED: USER    Run = 62
DOCKED: USER    DPF = D:/Protein_go_brrr/autodock/final/2DN3/heme/dock.dpf
DOCKED: USER  
DOCKED: USER    Estimated Free Energy of Binding    =   -1.25 kcal/mol  [=(1)+(2)+(3)-(4)]
DOCKED: USER    Estimated Inhibition Constant, Ki   =  121.11 mM (millimolar)  [Temperature = 298.15 K]
DOCKED: USER    
DOCKED: USER    (1) Final Intermolecular Energy     =   -5.13 kcal/mol
DOCKED: USER        vdW + Hbond + desolv Energy     =   -5.07 kcal/mol
DOCKED: USER        Electrostatic Energy            =   -0.06 kcal/mol
DOCKED: USER    (2) Final Total Internal Energy     =   -4.72 kcal/mol
DOCKED: USER    (3) Torsional Free Energy           =   +3.88 kcal/mol
DOCKED: USER    (4) Unbound System's Energy  [=(2)] =   -4.72 kcal/mol
DOCKED: USER    
DOCKED: USER    
DOCKED: USER    NEWDPF move heme_opt.pdbqt
DOCKED: USER    NEWDPF about 0.153000 0.018000 -0.028000
DOCKED: USER    NEWDPF tran0 33.987004 14.147773 15.515695
DOCKED: USER    NEWDPF quaternion0 0.331664 0.564450 -0.708674 -0.263016
DOCKED: USER    NEWDPF axisangle0 0.343768 0.585048 -0.734535 -149.501853
DOCKED: USER    NEWDPF quat0 0.343768 0.585048 -0.734535 -149.501853
DOCKED: USER    NEWDPF dihe0 -119.02 -176.43 -139.25 -52.54 41.61 -64.03 125.04 -94.38 149.61 -22.12 -104.44 28.33 -6.31 
DOCKED: USER  keepresnum = 1 
DOCKED: USER  
DOCKED: REMARK  13 active torsions:
DOCKED: REMARK  status: ('A' for Active; 'I' for Inactive)
DOCKED: REMARK    1  A    between atoms: O_3  and  C_38 
DOCKED: REMARK    2  A    between atoms: O_4  and  C_40 
DOCKED: REMARK    3  A    between atoms: O_7  and  C_46 
DOCKED: REMARK    4  A    between atoms: O_9  and  C_48 
DOCKED: REMARK    5  A    between atoms: C_15  and  C_20 
DOCKED: REMARK    6  A    between atoms: C_16  and  C_23 
DOCKED: REMARK    7  A    between atoms: C_20  and  C_38 
DOCKED: REMARK    8  A    between atoms: C_23  and  C_40 
DOCKED: REMARK    9  A    between atoms: C_32  and  C_41 
DOCKED: REMARK   10  A    between atoms: C_37  and  C_45 
DOCKED: REMARK   11  A    between atoms: C_41  and  C_44 
DOCKED: REMARK   12  A    between atoms: C_44  and  C_46 
DOCKED: REMARK   13  A    between atoms: C_47  and  C_48 
DOCKED: USER                              x       y       z     vdW  Elec       q    Type
DOCKED: USER                           _______ _______ _______ _____ _____    ______ ____
DOCKED: ROOT
DOCKED: ATOM      1  O   UNL d   1      38.737  13.128  18.855 +0.04 -0.04    -0.289 OA
DOCKED: ATOM      2  O   UNL d   1      32.344  16.770  20.360 -0.21 -0.24    -0.289 OA
DOCKED: ATOM      3  N   UNL d   1      36.256  13.595  16.506 -0.11 -0.04    -0.247 NA
DOCKED: ATOM      4  N   UNL d   1      34.056  14.833  18.072 -0.14 -0.07    -0.247 NA
DOCKED: ATOM      5  N   UNL d   1      32.302  14.298  15.858 -0.05 -0.12    -0.354 N 
DOCKED: ATOM      6  N   UNL d   1      34.586  12.998  14.247 -0.04 -0.06    -0.354 N 
DOCKED: ATOM      7  C   UNL d   1      38.368  12.353  16.566 -0.08 +0.01    +0.084 A 
DOCKED: ATOM      8  C   UNL d   1      34.678  16.089  20.075 -0.31 +0.01    +0.084 A 
DOCKED: ATOM      9  C   UNL d   1      35.092  15.186  18.908 -0.27 +0.01    +0.058 A 
DOCKED: ATOM     10  C   UNL d   1      37.110  12.766  15.798 -0.10 +0.01    +0.058 A 
DOCKED: ATOM     11  C   UNL d   1      38.084  13.111  17.828 -0.07 +0.03    +0.193 A 
DOCKED: ATOM     12  C   UNL d   1      36.789  13.844  17.657 -0.18 +0.02    +0.109 A 
DOCKED: ATOM     13  C   UNL d   1      33.208  16.152  19.768 -0.21 +0.10    +0.193 A 
DOCKED: ATOM     14  C   UNL d   1      38.384  10.855  16.881 -0.04 +0.00    +0.026 C 
DOCKED: ATOM     15  C   UNL d   1      36.347  14.738  18.746 -0.32 +0.01    +0.055 C 
DOCKED: ATOM     16  C   UNL d   1      35.270  17.495  19.943 -0.43 -0.00    +0.026 C 
DOCKED: ATOM     17  C   UNL d   1      32.960  15.344  18.536 -0.23 +0.06    +0.109 A 
DOCKED: ATOM     18  C   UNL d   1      36.923  12.411  14.512 -0.08 +0.01    +0.050 C 
DOCKED: ATOM     19  C   UNL d   1      35.834  12.814  13.698 -0.09 +0.01    +0.045 A 
DOCKED: ATOM     20  C   UNL d   1      31.382  14.684  16.799 -0.21 +0.03    +0.045 A 
DOCKED: ATOM     21  C   UNL d   1      31.593  15.188  18.019 -0.13 +0.05    +0.057 C 
DOCKED: ATOM     22  C   UNL d   1      30.274  13.921  14.952 -0.12 -0.01    -0.019 A 
DOCKED: ATOM     23  C   UNL d   1      31.727  13.824  14.709 -0.10 +0.01    +0.045 A 
DOCKED: ATOM     24  C   UNL d   1      30.077  14.433  16.191 -0.18 -0.01    -0.022 A 
DOCKED: ATOM     25  C   UNL d   1      33.666  13.297  13.269 -0.04 +0.01    +0.049 A 
DOCKED: ATOM     26  C   UNL d   1      35.731  13.036  12.333 -0.08 -0.00    -0.018 A 
DOCKED: ATOM     27  C   UNL d   1      34.364  13.359  12.071 -0.08 +0.00    +0.003 A 
DOCKED: ATOM     28  C   UNL d   1      32.280  13.376  13.571 -0.09 +0.01    +0.052 C 
DOCKED: ATOM     29  C   UNL d   1      28.790  14.729  16.883 -0.16 +0.05    +0.046 C 
DOCKED: ATOM     30  C   UNL d   1      36.834  12.955  11.332 -0.05 +0.00    +0.046 C 
DOCKED: ATOM     31  H   UNL d   1      33.295  14.442  16.004 +0.05 +0.05    +0.166 HD
DOCKED: ATOM     32  H   UNL d   1      34.385  12.882  15.233 +0.03 +0.03    +0.166 HD
DOCKED: ENDROOT
DOCKED: BRANCH   7  33
DOCKED: ATOM     33  C   UNL d   1      39.694  12.813  15.951 -0.10 +0.02    +0.141 C 
DOCKED: BRANCH  33  34
DOCKED: ATOM     34  C   UNL d   1      40.876  12.053  16.489 -0.05 +0.04    +0.306 C 
DOCKED: ATOM     35  O   UNL d   1      41.402  11.080  15.976 -0.01 -0.03    -0.251 OA
DOCKED: BRANCH  34  36
DOCKED: ATOM     36  O   UNL d   1      41.337  12.562  17.646 -0.05 -0.07    -0.481 OA
DOCKED: ATOM     37  H   UNL d   1      40.570  12.521  18.256 +0.05 +0.04    +0.295 HD
DOCKED: ENDBRANCH  34  36
DOCKED: ENDBRANCH  33  34
DOCKED: ENDBRANCH   7  33
DOCKED: BRANCH  27  38
DOCKED: ATOM     38  C   UNL d   1      33.818  13.647  10.779 -0.08 +0.00    +0.017 C 
DOCKED: ATOM     39  C   UNL d   1      33.308  14.829  10.399 -0.12 +0.01    +0.092 C 
DOCKED: BRANCH  39  40
DOCKED: ATOM     40  C   UNL d   1      32.794  14.998   9.038 -0.03 +0.02    +0.330 C 
DOCKED: ATOM     41  O   UNL d   1      33.422  14.972   7.997 -0.02 -0.01    -0.246 OA
DOCKED: BRANCH  40  42
DOCKED: ATOM     42  O   UNL d   1      31.466  15.191   9.066 -0.03 -0.04    -0.477 OA
DOCKED: ATOM     43  H   UNL d   1      31.252  15.214  10.022 +0.06 +0.04    +0.295 HD
DOCKED: ENDBRANCH  40  42
DOCKED: ENDBRANCH  39  40
DOCKED: ENDBRANCH  27  38
DOCKED: BRANCH   8  44
DOCKED: ATOM     44  C   UNL d   1      34.923  15.513  21.473 -0.20 +0.00    +0.141 C 
DOCKED: BRANCH  44  45
DOCKED: ATOM     45  C   UNL d   1      33.981  14.394  21.829 -0.02 +0.04    +0.306 C 
DOCKED: ATOM     46  O   UNL d   1      34.079  13.227  21.490 -0.01 -0.03    -0.251 OA
DOCKED: BRANCH  45  47
DOCKED: ATOM     47  O   UNL d   1      32.943  14.812  22.575 +0.02 -0.08    -0.481 OA
DOCKED: ATOM     48  H   UNL d   1      32.692  15.677  22.187 +0.10 +0.09    +0.295 HD
DOCKED: ENDBRANCH  45  47
DOCKED: ENDBRANCH  44  45
DOCKED: ENDBRANCH   8  44
DOCKED: BRANCH  22  49
DOCKED: ATOM     49  C   UNL d   1      29.225  13.497  13.968 -0.08 +0.01    +0.048 C 
DOCKED: BRANCH  49  50
DOCKED: ATOM     50  C   UNL d   1      28.825  14.639  13.034 -0.14 +0.03    +0.125 C 
DOCKED: BRANCH  50  51
DOCKED: ATOM     51  C   UNL d   1      29.873  14.864  11.982 -0.11 +0.06    +0.305 C 
DOCKED: ATOM     52  O   UNL d   1      30.734  15.727  11.963 -0.20 -0.06    -0.251 OA
DOCKED: BRANCH  51  53
DOCKED: ATOM     53  O   UNL d   1      29.775  13.975  10.974 -0.01 -0.07    -0.481 OA
DOCKED: ATOM     54  H   UNL d   1      29.735  14.532  10.168 +0.05 +0.04    +0.295 HD
DOCKED: ENDBRANCH  51  53
DOCKED: ENDBRANCH  50  51
DOCKED: ENDBRANCH  49  50
DOCKED: ENDBRANCH  22  49
DOCKED: TORSDOF 13
DOCKED: TER
DOCKED: ENDMDL
________________________________________________________________________________


	BEGINNING GENETIC ALGORITHM DOCKING 63 of 100
Run: 63 Seed: 1287190692 1603748190 [ Run 63 of 100 GA/GALS ]
Beginning LAMARCKIAN GENETIC ALGORITHM (LGA), with a maximum of 25000000 energy evaluations.

Final-Value: -10.610


	FINAL GENETIC ALGORITHM DOCKED STATE
	_______________________________________________


Detailed state:  trans 38.324 16.330 11.077 quatxyzw 0.444511 0.126823 -0.076773 0.883420 center 0.153 0.018 -0.028 ntor 13 152.0758 -162.3165 103.4771 -157.0201 -139.4931 -69.3663 -46.3487 -6.2820 19.2244 -127.5847 75.8849 -30.3509 151.9277
State:	 38.324  16.330  11.077   0.949  0.271 -0.164 55.884    152.08 -162.32  103.48 -157.02 -139.49  -69.37  -46.35   -6.28   19.22 -127.58   75.88  -30.35  151.93

DOCKED: MODEL       63
DOCKED: USER    Run = 63
DOCKED: USER    DPF = D:/Protein_go_brrr/autodock/final/2DN3/heme/dock.dpf
DOCKED: USER  
DOCKED: USER    Estimated Free Energy of Binding    =   -3.42 kcal/mol  [=(1)+(2)+(3)-(4)]
DOCKED: USER    Estimated Inhibition Constant, Ki   =    3.12 mM (millimolar)  [Temperature = 298.15 K]
DOCKED: USER    
DOCKED: USER    (1) Final Intermolecular Energy     =   -7.30 kcal/mol
DOCKED: USER        vdW + Hbond + desolv Energy     =   -7.12 kcal/mol
DOCKED: USER        Electrostatic Energy            =   -0.17 kcal/mol
DOCKED: USER    (2) Final Total Internal Energy     =   -3.31 kcal/mol
DOCKED: USER    (3) Torsional Free Energy           =   +3.88 kcal/mol
DOCKED: USER    (4) Unbound System's Energy  [=(2)] =   -3.31 kcal/mol
DOCKED: USER    
DOCKED: USER    
DOCKED: USER    NEWDPF move heme_opt.pdbqt
DOCKED: USER    NEWDPF about 0.153000 0.018000 -0.028000
DOCKED: USER    NEWDPF tran0 38.323520 16.330499 11.076687
DOCKED: USER    NEWDPF quaternion0 0.444511 0.126823 -0.076773 0.883420
DOCKED: USER    NEWDPF axisangle0 0.948632 0.270653 -0.163840 55.884468
DOCKED: USER    NEWDPF quat0 0.948632 0.270653 -0.163840 55.884468
DOCKED: USER    NEWDPF dihe0 152.08 -162.32 103.48 -157.02 -139.49 -69.37 -46.35 -6.28 19.22 -127.58 75.88 -30.35 151.93 
DOCKED: USER  keepresnum = 1 
DOCKED: USER  
DOCKED: REMARK  13 active torsions:
DOCKED: REMARK  status: ('A' for Active; 'I' for Inactive)
DOCKED: REMARK    1  A    between atoms: O_3  and  C_38 
DOCKED: REMARK    2  A    between atoms: O_4  and  C_40 
DOCKED: REMARK    3  A    between atoms: O_7  and  C_46 
DOCKED: REMARK    4  A    between atoms: O_9  and  C_48 
DOCKED: REMARK    5  A    between atoms: C_15  and  C_20 
DOCKED: REMARK    6  A    between atoms: C_16  and  C_23 
DOCKED: REMARK    7  A    between atoms: C_20  and  C_38 
DOCKED: REMARK    8  A    between atoms: C_23  and  C_40 
DOCKED: REMARK    9  A    between atoms: C_32  and  C_41 
DOCKED: REMARK   10  A    between atoms: C_37  and  C_45 
DOCKED: REMARK   11  A    between atoms: C_41  and  C_44 
DOCKED: REMARK   12  A    between atoms: C_44  and  C_46 
DOCKED: REMARK   13  A    between atoms: C_47  and  C_48 
DOCKED: USER                              x       y       z     vdW  Elec       q    Type
DOCKED: USER                           _______ _______ _______ _____ _____    ______ ____
DOCKED: ROOT
DOCKED: ATOM      1  O   UNL d   1      32.731  16.435   9.214 -0.10 -0.01    -0.289 OA
DOCKED: ATOM      2  O   UNL d   1      36.356  11.587  13.659 -0.02 -0.03    -0.289 OA
DOCKED: ATOM      3  N   UNL d   1      36.094  16.712   9.930 -0.10 +0.02    -0.247 NA
DOCKED: ATOM      4  N   UNL d   1      36.539  14.582  11.954 -0.04 -0.02    -0.247 NA
DOCKED: ATOM      5  N   UNL d   1      39.084  15.789  12.528 -0.11 -0.03    -0.354 N 
DOCKED: ATOM      6  N   UNL d   1      38.606  18.006  10.440 -0.16 -0.03    -0.354 N 
DOCKED: ATOM      7  C   UNL d   1      34.460  18.095   8.736 -0.17 -0.01    +0.084 A 
DOCKED: ATOM      8  C   UNL d   1      35.021  12.668  11.915 -0.06 +0.01    +0.084 A 
DOCKED: ATOM      9  C   UNL d   1      35.405  14.051  11.380 -0.10 +0.00    +0.058 A 
DOCKED: ATOM     10  C   UNL d   1      35.895  17.890   9.229 -0.20 -0.01    +0.058 A 
DOCKED: ATOM     11  C   UNL d   1      33.886  16.815   9.265 -0.11 -0.01    +0.193 A 
DOCKED: ATOM     12  C   UNL d   1      34.981  16.053   9.946 -0.12 -0.01    +0.109 A 
DOCKED: ATOM     13  C   UNL d   1      36.124  12.528  12.925 -0.05 +0.02    +0.193 A 
DOCKED: ATOM     14  C   UNL d   1      33.775  19.272   9.435 -0.39 -0.00    +0.026 C 
DOCKED: ATOM     15  C   UNL d   1      34.670  14.707  10.469 -0.12 +0.00    +0.055 C 
DOCKED: ATOM     16  C   UNL d   1      35.188  11.580  10.849 -0.02 +0.00    +0.026 C 
DOCKED: ATOM     17  C   UNL d   1      36.970  13.758  12.854 -0.09 +0.01    +0.109 A 
DOCKED: ATOM     18  C   UNL d   1      36.878  18.755   8.914 -0.19 -0.01    +0.050 C 
DOCKED: ATOM     19  C   UNL d   1      38.246  18.604   9.254 -0.14 -0.00    +0.045 A 
DOCKED: ATOM     20  C   UNL d   1      39.014  14.886  13.557 -0.15 +0.00    +0.045 A 
DOCKED: ATOM     21  C   UNL d   1      38.111  13.922  13.766 -0.18 +0.01    +0.057 C 
DOCKED: ATOM     22  C   UNL d   1      40.839  16.223  13.872 -0.19 -0.00    -0.019 A 
DOCKED: ATOM     23  C   UNL d   1      40.153  16.639  12.632 -0.22 +0.00    +0.045 A 
DOCKED: ATOM     24  C   UNL d   1      40.161  15.184  14.414 -0.17 -0.00    -0.022 A 
DOCKED: ATOM     25  C   UNL d   1      39.971  18.046  10.608 -0.24 +0.00    +0.049 A 
DOCKED: ATOM     26  C   UNL d   1      39.409  19.011   8.617 -0.28 -0.00    -0.018 A 
DOCKED: ATOM     27  C   UNL d   1      40.496  18.638   9.467 -0.28 +0.00    +0.003 A 
DOCKED: ATOM     28  C   UNL d   1      40.568  17.630  11.829 -0.28 +0.01    +0.052 C 
DOCKED: ATOM     29  C   UNL d   1      40.467  14.416  15.655 -0.19 +0.01    +0.046 C 
DOCKED: ATOM     30  C   UNL d   1      39.507  19.701   7.299 -0.31 -0.00    +0.046 C 
DOCKED: ATOM     31  H   UNL d   1      38.439  15.747  11.747 +0.04 +0.02    +0.166 HD
DOCKED: ATOM     32  H   UNL d   1      37.938  17.631  11.104 +0.05 +0.03    +0.166 HD
DOCKED: ENDROOT
DOCKED: BRANCH   7  33
DOCKED: ATOM     33  C   UNL d   1      34.293  18.170   7.214 -0.08 -0.03    +0.141 C 
DOCKED: BRANCH  33  34
DOCKED: ATOM     34  C   UNL d   1      34.602  16.864   6.532 +0.00 -0.03    +0.306 C 
DOCKED: ATOM     35  O   UNL d   1      35.704  16.474   6.188 -0.01 +0.02    -0.251 OA
DOCKED: BRANCH  34  36
DOCKED: ATOM     36  O   UNL d   1      33.503  16.117   6.323 +0.01 +0.02    -0.481 OA
DOCKED: ATOM     37  H   UNL d   1      32.902  16.350   7.062 +0.04 -0.01    +0.295 HD
DOCKED: ENDBRANCH  34  36
DOCKED: ENDBRANCH  33  34
DOCKED: ENDBRANCH   7  33
DOCKED: BRANCH  27  38
DOCKED: ATOM     38  C   UNL d   1      41.879  18.887   9.195 -0.32 +0.00    +0.017 C 
DOCKED: ATOM     39  C   UNL d   1      42.906  18.435   9.930 -0.23 +0.01    +0.092 C 
DOCKED: BRANCH  39  40
DOCKED: ATOM     40  C   UNL d   1      44.282  18.746   9.532 -0.10 +0.08    +0.330 C 
DOCKED: ATOM     41  O   UNL d   1      44.900  18.302   8.584 -0.16 -0.10    -0.246 OA
DOCKED: BRANCH  40  42
DOCKED: ATOM     42  O   UNL d   1      44.816  19.641  10.378 -0.18 -0.07    -0.477 OA
DOCKED: ATOM     43  H   UNL d   1      44.232  19.599  11.163 +0.09 +0.04    +0.295 HD
DOCKED: ENDBRANCH  40  42
DOCKED: ENDBRANCH  39  40
DOCKED: ENDBRANCH  27  38
DOCKED: BRANCH   8  44
DOCKED: ATOM     44  C   UNL d   1      33.647  12.578  12.587 -0.06 +0.02    +0.141 C 
DOCKED: BRANCH  44  45
DOCKED: ATOM     45  C   UNL d   1      33.349  11.214  13.151 -0.01 +0.04    +0.306 C 
DOCKED: ATOM     46  O   UNL d   1      32.798  10.293  12.574 -0.00 -0.03    -0.251 OA
DOCKED: BRANCH  45  47
DOCKED: ATOM     47  O   UNL d   1      33.740  11.091  14.433 +0.00 -0.06    -0.481 OA
DOCKED: ATOM     48  H   UNL d   1      34.712  10.966  14.385 +0.02 +0.03    +0.295 HD
DOCKED: ENDBRANCH  45  47
DOCKED: ENDBRANCH  44  45
DOCKED: ENDBRANCH   8  44
DOCKED: BRANCH  22  49
DOCKED: ATOM     49  C   UNL d   1      42.073  16.883  14.414 -0.23 +0.01    +0.048 C 
DOCKED: BRANCH  49  50
DOCKED: ATOM     50  C   UNL d   1      41.788  18.299  14.913 -0.33 +0.02    +0.125 C 
DOCKED: BRANCH  50  51
DOCKED: ATOM     51  C   UNL d   1      42.279  19.324  13.929 -0.23 +0.06    +0.305 C 
DOCKED: ATOM     52  O   UNL d   1      43.013  19.144  12.973 -0.16 -0.05    -0.251 OA
DOCKED: BRANCH  51  53
DOCKED: ATOM     53  O   UNL d   1      41.817  20.558  14.213 -0.17 -0.09    -0.481 OA
DOCKED: ATOM     54  H   UNL d   1      41.597  20.515  15.168 -0.34 -0.03    +0.295 HD
DOCKED: ENDBRANCH  51  53
DOCKED: ENDBRANCH  50  51
DOCKED: ENDBRANCH  49  50
DOCKED: ENDBRANCH  22  49
DOCKED: TORSDOF 13
DOCKED: TER
DOCKED: ENDMDL
________________________________________________________________________________


	BEGINNING GENETIC ALGORITHM DOCKING 64 of 100
Run: 64 Seed: 1138137982 87334984 [ Run 64 of 100 GA/GALS ]
Beginning LAMARCKIAN GENETIC ALGORITHM (LGA), with a maximum of 25000000 energy evaluations.

Final-Value: -11.013


	FINAL GENETIC ALGORITHM DOCKED STATE
	_______________________________________________


Detailed state:  trans 25.245 27.193 -1.296 quatxyzw -0.619986 0.204406 0.648755 -0.391091 center 0.153 0.018 -0.028 ntor 13 141.3194 170.7452 17.0868 49.1252 -35.6122 97.5479 62.9115 70.3278 -133.8714 122.3091 -79.8607 -129.4422 10.6967
State:	 25.245  27.193  -1.296  -0.674  0.222  0.705 -133.955    141.32  170.75   17.09   49.13  -35.61   97.55   62.91   70.33 -133.87  122.31  -79.86 -129.44   10.70

DOCKED: MODEL       64
DOCKED: USER    Run = 64
DOCKED: USER    DPF = D:/Protein_go_brrr/autodock/final/2DN3/heme/dock.dpf
DOCKED: USER  
DOCKED: USER    Estimated Free Energy of Binding    =   -4.06 kcal/mol  [=(1)+(2)+(3)-(4)]
DOCKED: USER    Estimated Inhibition Constant, Ki   =    1.05 mM (millimolar)  [Temperature = 298.15 K]
DOCKED: USER    
DOCKED: USER    (1) Final Intermolecular Energy     =   -7.94 kcal/mol
DOCKED: USER        vdW + Hbond + desolv Energy     =   -7.80 kcal/mol
DOCKED: USER        Electrostatic Energy            =   -0.14 kcal/mol
DOCKED: USER    (2) Final Total Internal Energy     =   -3.07 kcal/mol
DOCKED: USER    (3) Torsional Free Energy           =   +3.88 kcal/mol
DOCKED: USER    (4) Unbound System's Energy  [=(2)] =   -3.07 kcal/mol
DOCKED: USER    
DOCKED: USER    
DOCKED: USER    NEWDPF move heme_opt.pdbqt
DOCKED: USER    NEWDPF about 0.153000 0.018000 -0.028000
DOCKED: USER    NEWDPF tran0 25.244895 27.193482 -1.295897
DOCKED: USER    NEWDPF quaternion0 -0.619986 0.204406 0.648755 -0.391091
DOCKED: USER    NEWDPF axisangle0 -0.673640 0.222095 0.704899 -133.955173
DOCKED: USER    NEWDPF quat0 -0.673640 0.222095 0.704899 -133.955173
DOCKED: USER    NEWDPF dihe0 141.32 170.75 17.09 49.13 -35.61 97.55 62.91 70.33 -133.87 122.31 -79.86 -129.44 10.70 
DOCKED: USER  keepresnum = 1 
DOCKED: USER  
DOCKED: REMARK  13 active torsions:
DOCKED: REMARK  status: ('A' for Active; 'I' for Inactive)
DOCKED: REMARK    1  A    between atoms: O_3  and  C_38 
DOCKED: REMARK    2  A    between atoms: O_4  and  C_40 
DOCKED: REMARK    3  A    between atoms: O_7  and  C_46 
DOCKED: REMARK    4  A    between atoms: O_9  and  C_48 
DOCKED: REMARK    5  A    between atoms: C_15  and  C_20 
DOCKED: REMARK    6  A    between atoms: C_16  and  C_23 
DOCKED: REMARK    7  A    between atoms: C_20  and  C_38 
DOCKED: REMARK    8  A    between atoms: C_23  and  C_40 
DOCKED: REMARK    9  A    between atoms: C_32  and  C_41 
DOCKED: REMARK   10  A    between atoms: C_37  and  C_45 
DOCKED: REMARK   11  A    between atoms: C_41  and  C_44 
DOCKED: REMARK   12  A    between atoms: C_44  and  C_46 
DOCKED: REMARK   13  A    between atoms: C_47  and  C_48 
DOCKED: USER                              x       y       z     vdW  Elec       q    Type
DOCKED: USER                           _______ _______ _______ _____ _____    ______ ____
DOCKED: ROOT
DOCKED: ATOM      1  O   UNL d   1      23.123  25.223   3.839 -0.07 -0.04    -0.289 OA
DOCKED: ATOM      2  O   UNL d   1      29.752  28.293   2.098 -0.75 -0.32    -0.289 OA
DOCKED: ATOM      3  N   UNL d   1      23.981  26.113   0.620 -0.09 +0.18    -0.247 NA
DOCKED: ATOM      4  N   UNL d   1      26.593  27.487   0.964 -0.06 +0.15    -0.247 NA
DOCKED: ATOM      5  N   UNL d   1      26.328  28.467  -1.726 -0.06 +0.17    -0.354 N 
DOCKED: ATOM      6  N   UNL d   1      23.609  27.055  -2.068 -0.16 +0.25    -0.354 N 
DOCKED: ATOM      7  C   UNL d   1      21.943  25.286   1.700 -0.17 -0.01    +0.084 A 
DOCKED: ATOM      8  C   UNL d   1      27.936  26.865   2.909 -0.21 +0.02    +0.084 A 
DOCKED: ATOM      9  C   UNL d   1      26.625  26.747   2.125 -0.19 -0.01    +0.058 A 
DOCKED: ATOM     10  C   UNL d   1      22.657  25.758   0.430 -0.21 -0.02    +0.058 A 
DOCKED: ATOM     11  C   UNL d   1      23.104  25.421   2.638 -0.10 -0.02    +0.193 A 
DOCKED: ATOM     12  C   UNL d   1      24.287  25.905   1.859 -0.11 -0.05    +0.109 A 
DOCKED: ATOM     13  C   UNL d   1      28.629  27.838   1.997 -0.16 +0.11    +0.193 A 
DOCKED: ATOM     14  C   UNL d   1      20.841  26.256   2.134 -0.42 -0.00    +0.026 C 
DOCKED: ATOM     15  C   UNL d   1      25.581  26.026   2.561 -0.18 -0.01    +0.055 C 
DOCKED: ATOM     16  C   UNL d   1      28.718  25.548   2.909 +0.02 +0.00    +0.026 C 
DOCKED: ATOM     17  C   UNL d   1      27.706  28.141   0.861 -0.16 +0.01    +0.109 A 
DOCKED: ATOM     18  C   UNL d   1      22.047  25.730  -0.771 -0.31 -0.02    +0.050 C 
DOCKED: ATOM     19  C   UNL d   1      22.653  26.066  -2.008 -0.26 -0.02    +0.045 A 
DOCKED: ATOM     20  C   UNL d   1      27.407  29.204  -1.312 -0.12 -0.00    +0.045 A 
DOCKED: ATOM     21  C   UNL d   1      28.102  29.106  -0.175 -0.16 +0.02    +0.057 C 
DOCKED: ATOM     22  C   UNL d   1      26.754  29.943  -3.373 -0.09 +0.01    -0.019 A 
DOCKED: ATOM     23  C   UNL d   1      25.863  28.841  -2.959 -0.15 -0.02    +0.045 A 
DOCKED: ATOM     24  C   UNL d   1      27.667  30.152  -2.395 -0.07 -0.00    -0.022 A 
DOCKED: ATOM     25  C   UNL d   1      23.993  27.278  -3.370 -0.23 -0.04    +0.049 A 
DOCKED: ATOM     26  C   UNL d   1      22.436  25.610  -3.299 -0.14 +0.01    -0.018 A 
DOCKED: ATOM     27  C   UNL d   1      23.299  26.365  -4.153 -0.22 -0.00    +0.003 A 
DOCKED: ATOM     28  C   UNL d   1      24.855  28.358  -3.701 -0.19 -0.04    +0.052 C 
DOCKED: ATOM     29  C   UNL d   1      28.780  31.144  -2.353 -0.05 +0.01    +0.046 C 
DOCKED: ATOM     30  C   UNL d   1      21.488  24.538  -3.717 -0.06 -0.01    +0.046 C 
DOCKED: ATOM     31  H   UNL d   1      25.988  27.681  -1.183 +0.01 -0.11    +0.166 HD
DOCKED: ATOM     32  H   UNL d   1      23.941  27.563  -1.257 -0.18 -0.18    +0.166 HD
DOCKED: ENDROOT
DOCKED: BRANCH   7  33
DOCKED: ATOM     33  C   UNL d   1      21.439  23.839   1.672 -0.10 -0.00    +0.141 C 
DOCKED: BRANCH  33  34
DOCKED: ATOM     34  C   UNL d   1      20.072  23.714   1.056 -0.16 +0.01    +0.306 C 
DOCKED: ATOM     35  O   UNL d   1      19.527  24.535   0.339 -0.27 +0.00    -0.251 OA
DOCKED: BRANCH  34  36
DOCKED: ATOM     36  O   UNL d   1      19.464  22.557   1.375 -0.71 -0.12    -0.481 OA
DOCKED: ATOM     37  H   UNL d   1      20.172  21.882   1.317 +0.10 +0.06    +0.295 HD
DOCKED: ENDBRANCH  34  36
DOCKED: ENDBRANCH  33  34
DOCKED: ENDBRANCH   7  33
DOCKED: BRANCH  27  38
DOCKED: ATOM     38  C   UNL d   1      23.383  26.224  -5.575 -0.19 -0.01    +0.017 C 
DOCKED: ATOM     39  C   UNL d   1      22.610  26.866  -6.464 -0.21 -0.08    +0.092 C 
DOCKED: BRANCH  39  40
DOCKED: ATOM     40  C   UNL d   1      22.809  26.646  -7.899 -0.07 -0.18    +0.330 C 
DOCKED: ATOM     41  O   UNL d   1      22.214  25.870  -8.621 -0.06 +0.08    -0.246 OA
DOCKED: BRANCH  40  42
DOCKED: ATOM     42  O   UNL d   1      23.777  27.452  -8.359 -0.02 +0.28    -0.477 OA
DOCKED: ATOM     43  H   UNL d   1      23.954  28.059  -7.611 -0.08 -0.29    +0.295 HD
DOCKED: ENDBRANCH  40  42
DOCKED: ENDBRANCH  39  40
DOCKED: ENDBRANCH  27  38
DOCKED: BRANCH   8  44
DOCKED: ATOM     44  C   UNL d   1      27.810  27.435   4.325 -0.30 +0.06    +0.141 C 
DOCKED: BRANCH  44  45
DOCKED: ATOM     45  C   UNL d   1      27.179  26.474   5.298 -0.17 +0.10    +0.306 C 
DOCKED: ATOM     46  O   UNL d   1      27.076  25.267   5.164 -0.13 -0.04    -0.251 OA
DOCKED: BRANCH  45  47
DOCKED: ATOM     47  O   UNL d   1      26.684  27.093   6.385 -0.13 -0.27    -0.481 OA
DOCKED: ATOM     48  H   UNL d   1      26.552  26.376   7.040 +0.16 +0.11    +0.295 HD
DOCKED: ENDBRANCH  45  47
DOCKED: ENDBRANCH  44  45
DOCKED: ENDBRANCH   8  44
DOCKED: BRANCH  22  49
DOCKED: ATOM     49  C   UNL d   1      26.623  30.692  -4.667 -0.07 -0.02    +0.048 C 
DOCKED: BRANCH  49  50
DOCKED: ATOM     50  C   UNL d   1      27.067  29.847  -5.860 -0.02 -0.03    +0.125 C 
DOCKED: BRANCH  50  51
DOCKED: ATOM     51  C   UNL d   1      25.881  29.280  -6.587 -0.04 -0.17    +0.305 C 
DOCKED: ATOM     52  O   UNL d   1      25.011  29.892  -7.180 -0.04 +0.24    -0.251 OA
DOCKED: BRANCH  51  53
DOCKED: ATOM     53  O   UNL d   1      25.843  27.934  -6.519 -0.01 +0.22    -0.481 OA
DOCKED: ATOM     54  H   UNL d   1      25.696  27.652  -7.446 +0.02 -0.11    +0.295 HD
DOCKED: ENDBRANCH  51  53
DOCKED: ENDBRANCH  50  51
DOCKED: ENDBRANCH  49  50
DOCKED: ENDBRANCH  22  49
DOCKED: TORSDOF 13
DOCKED: TER
DOCKED: ENDMDL
________________________________________________________________________________


	BEGINNING GENETIC ALGORITHM DOCKING 65 of 100
Run: 65 Seed: 101728809 1751206399 [ Run 65 of 100 GA/GALS ]
Beginning LAMARCKIAN GENETIC ALGORITHM (LGA), with a maximum of 25000000 energy evaluations.

Final-Value: -9.156


	FINAL GENETIC ALGORITHM DOCKED STATE
	_______________________________________________


Detailed state:  trans 37.390 15.501 10.490 quatxyzw -0.405845 0.246978 0.878845 -0.043843 center 0.153 0.018 -0.028 ntor 13 112.5695 -4.0793 -168.3234 25.4913 -131.7868 -129.8024 -70.3399 111.1046 32.5479 -159.3277 174.0509 -92.9362 -172.0056
State:	 37.390  15.501  10.490  -0.406  0.247  0.880 -174.974    112.57   -4.08 -168.32   25.49 -131.79 -129.80  -70.34  111.10   32.55 -159.33  174.05  -92.94 -172.01

DOCKED: MODEL       65
DOCKED: USER    Run = 65
DOCKED: USER    DPF = D:/Protein_go_brrr/autodock/final/2DN3/heme/dock.dpf
DOCKED: USER  
DOCKED: USER    Estimated Free Energy of Binding    =   -2.85 kcal/mol  [=(1)+(2)+(3)-(4)]
DOCKED: USER    Estimated Inhibition Constant, Ki   =    8.09 mM (millimolar)  [Temperature = 298.15 K]
DOCKED: USER    
DOCKED: USER    (1) Final Intermolecular Energy     =   -6.73 kcal/mol
DOCKED: USER        vdW + Hbond + desolv Energy     =   -6.55 kcal/mol
DOCKED: USER        Electrostatic Energy            =   -0.18 kcal/mol
DOCKED: USER    (2) Final Total Internal Energy     =   -2.42 kcal/mol
DOCKED: USER    (3) Torsional Free Energy           =   +3.88 kcal/mol
DOCKED: USER    (4) Unbound System's Energy  [=(2)] =   -2.42 kcal/mol
DOCKED: USER    
DOCKED: USER    
DOCKED: USER    NEWDPF move heme_opt.pdbqt
DOCKED: USER    NEWDPF about 0.153000 0.018000 -0.028000
DOCKED: USER    NEWDPF tran0 37.389779 15.500954 10.490357
DOCKED: USER    NEWDPF quaternion0 -0.405845 0.246978 0.878845 -0.043843
DOCKED: USER    NEWDPF axisangle0 -0.406236 0.247216 0.879691 -174.974363
DOCKED: USER    NEWDPF quat0 -0.406236 0.247216 0.879691 -174.974363
DOCKED: USER    NEWDPF dihe0 112.57 -4.08 -168.32 25.49 -131.79 -129.80 -70.34 111.10 32.55 -159.33 174.05 -92.94 -172.01 
DOCKED: USER  keepresnum = 1 
DOCKED: USER  
DOCKED: REMARK  13 active torsions:
DOCKED: REMARK  status: ('A' for Active; 'I' for Inactive)
DOCKED: REMARK    1  A    between atoms: O_3  and  C_38 
DOCKED: REMARK    2  A    between atoms: O_4  and  C_40 
DOCKED: REMARK    3  A    between atoms: O_7  and  C_46 
DOCKED: REMARK    4  A    between atoms: O_9  and  C_48 
DOCKED: REMARK    5  A    between atoms: C_15  and  C_20 
DOCKED: REMARK    6  A    between atoms: C_16  and  C_23 
DOCKED: REMARK    7  A    between atoms: C_20  and  C_38 
DOCKED: REMARK    8  A    between atoms: C_23  and  C_40 
DOCKED: REMARK    9  A    between atoms: C_32  and  C_41 
DOCKED: REMARK   10  A    between atoms: C_37  and  C_45 
DOCKED: REMARK   11  A    between atoms: C_41  and  C_44 
DOCKED: REMARK   12  A    between atoms: C_44  and  C_46 
DOCKED: REMARK   13  A    between atoms: C_47  and  C_48 
DOCKED: USER                              x       y       z     vdW  Elec       q    Type
DOCKED: USER                           _______ _______ _______ _____ _____    ______ ____
DOCKED: ROOT
DOCKED: ATOM      1  O   UNL d   1      40.214  15.021  15.643 -0.19 -0.02    -0.289 OA
DOCKED: ATOM      2  O   UNL d   1      41.598  19.323   9.646 -0.27 +0.00    -0.289 OA
DOCKED: ATOM      3  N   UNL d   1      38.336  14.860  12.755 -0.13 -0.02    -0.247 NA
DOCKED: ATOM      4  N   UNL d   1      39.416  17.088  11.112 -0.15 -0.03    -0.247 NA
DOCKED: ATOM      5  N   UNL d   1      37.128  16.808   9.394 -0.05 +0.01    -0.354 N 
DOCKED: ATOM      6  N   UNL d   1      36.004  14.511  11.115 -0.06 -0.02    -0.354 N 
DOCKED: ATOM      7  C   UNL d   1      38.177  13.844  14.980 -0.17 +0.01    +0.084 A 
DOCKED: ATOM      8  C   UNL d   1      41.724  17.770  11.534 -0.15 +0.01    +0.084 A 
DOCKED: ATOM      9  C   UNL d   1      40.518  16.908  11.919 -0.18 +0.01    +0.058 A 
DOCKED: ATOM     10  C   UNL d   1      37.601  14.016  13.571 -0.15 +0.01    +0.058 A 
DOCKED: ATOM     11  C   UNL d   1      39.377  14.726  14.810 -0.15 +0.01    +0.193 A 
DOCKED: ATOM     12  C   UNL d   1      39.375  15.262  13.411 -0.13 +0.00    +0.109 A 
DOCKED: ATOM     13  C   UNL d   1      41.092  18.500  10.383 -0.18 +0.01    +0.193 A 
DOCKED: ATOM     14  C   UNL d   1      37.265  14.449  16.050 -0.25 +0.00    +0.026 C 
DOCKED: ATOM     15  C   UNL d   1      40.521  16.089  12.981 -0.19 +0.00    +0.055 C 
DOCKED: ATOM     16  C   UNL d   1      42.882  16.921  11.001 -0.09 +0.00    +0.026 C 
DOCKED: ATOM     17  C   UNL d   1      39.691  18.001  10.236 -0.21 +0.01    +0.109 A 
DOCKED: ATOM     18  C   UNL d   1      36.523  13.321  13.162 -0.12 +0.01    +0.050 C 
DOCKED: ATOM     19  C   UNL d   1      35.972  13.351  11.856 -0.08 +0.00    +0.045 A 
DOCKED: ATOM     20  C   UNL d   1      37.650  17.977   8.903 -0.19 -0.00    +0.045 A 
DOCKED: ATOM     21  C   UNL d   1      38.808  18.571   9.208 -0.23 +0.00    +0.057 C 
DOCKED: ATOM     22  C   UNL d   1      35.630  17.594   7.907 -0.09 +0.00    -0.019 A 
DOCKED: ATOM     23  C   UNL d   1      35.910  16.495   8.852 -0.09 -0.00    +0.045 A 
DOCKED: ATOM     24  C   UNL d   1      36.664  18.467   7.940 -0.17 +0.00    -0.022 A 
DOCKED: ATOM     25  C   UNL d   1      35.338  14.342   9.923 -0.07 +0.00    +0.049 A 
DOCKED: ATOM     26  C   UNL d   1      35.300  12.394  11.112 -0.03 -0.00    -0.018 A 
DOCKED: ATOM     27  C   UNL d   1      34.919  13.019   9.885 -0.03 +0.00    +0.003 A 
DOCKED: ATOM     28  C   UNL d   1      35.101  15.444   9.057 -0.08 -0.00    +0.052 C 
DOCKED: ATOM     29  C   UNL d   1      36.850  19.723   7.159 -0.21 -0.02    +0.046 C 
DOCKED: ATOM     30  C   UNL d   1      35.029  10.983  11.513 -0.01 +0.00    +0.046 C 
DOCKED: ATOM     31  H   UNL d   1      37.657  16.223  10.032 +0.03 +0.00    +0.166 HD
DOCKED: ATOM     32  H   UNL d   1      36.429  15.371  11.439 -0.07 -0.00    +0.166 HD
DOCKED: ENDROOT
DOCKED: BRANCH   7  33
DOCKED: ATOM     33  C   UNL d   1      38.605  12.419  15.345 -0.07 +0.02    +0.141 C 
DOCKED: BRANCH  33  34
DOCKED: ATOM     34  C   UNL d   1      39.955  12.058  14.788 -0.02 +0.03    +0.306 C 
DOCKED: ATOM     35  O   UNL d   1      40.199  11.747  13.634 -0.01 -0.03    -0.251 OA
DOCKED: BRANCH  34  36
DOCKED: ATOM     36  O   UNL d   1      40.929  12.112  15.713 -0.01 -0.06    -0.481 OA
DOCKED: ATOM     37  H   UNL d   1      41.035  13.068  15.905 +0.05 +0.04    +0.295 HD
DOCKED: ENDBRANCH  34  36
DOCKED: ENDBRANCH  33  34
DOCKED: ENDBRANCH   7  33
DOCKED: BRANCH  27  38
DOCKED: ATOM     38  C   UNL d   1      34.187  12.387   8.829 -0.01 +0.00    +0.017 C 
DOCKED: ATOM     39  C   UNL d   1      33.029  12.830   8.315 -0.01 +0.01    +0.092 C 
DOCKED: BRANCH  39  40
DOCKED: ATOM     40  C   UNL d   1      32.388  12.097   7.220 -0.00 +0.02    +0.330 C 
DOCKED: ATOM     41  O   UNL d   1      31.948  12.550   6.181 -0.00 -0.01    -0.246 OA
DOCKED: BRANCH  40  42
DOCKED: ATOM     42  O   UNL d   1      32.345  10.787   7.505 +0.00 -0.03    -0.477 OA
DOCKED: ATOM     43  H   UNL d   1      31.845  10.400   6.757 +0.00 +0.02    +0.295 HD
DOCKED: ENDBRANCH  40  42
DOCKED: ENDBRANCH  39  40
DOCKED: ENDBRANCH  27  38
DOCKED: BRANCH   8  44
DOCKED: ATOM     44  C   UNL d   1      42.205  18.752  12.608 -0.25 +0.02    +0.141 C 
DOCKED: BRANCH  44  45
DOCKED: ATOM     45  C   UNL d   1      43.679  19.048  12.526 -0.14 +0.07    +0.306 C 
DOCKED: ATOM     46  O   UNL d   1      44.525  18.757  13.353 -0.09 -0.10    -0.251 OA
DOCKED: BRANCH  45  47
DOCKED: ATOM     47  O   UNL d   1      44.006  19.724  11.410 -0.12 -0.06    -0.481 OA
DOCKED: ATOM     48  H   UNL d   1      43.147  19.998  11.025 -0.14 -0.05    +0.295 HD
DOCKED: ENDBRANCH  45  47
DOCKED: ENDBRANCH  44  45
DOCKED: ENDBRANCH   8  44
DOCKED: BRANCH  22  49
DOCKED: ATOM     49  C   UNL d   1      34.383  17.695   7.078 -0.07 -0.01    +0.048 C 
DOCKED: BRANCH  49  50
DOCKED: ATOM     50  C   UNL d   1      33.419  18.746   7.627 -0.14 -0.02    +0.125 C 
DOCKED: BRANCH  50  51
DOCKED: ATOM     51  C   UNL d   1      33.923  19.312   8.924 -0.22 -0.05    +0.305 C 
DOCKED: ATOM     52  O   UNL d   1      34.432  20.403   9.111 -0.81 +0.04    -0.251 OA
DOCKED: BRANCH  51  53
DOCKED: ATOM     53  O   UNL d   1      33.769  18.446   9.945 -0.15 +0.07    -0.481 OA
DOCKED: ATOM     54  H   UNL d   1      33.729  19.019  10.739 -0.20 -0.11    +0.295 HD
DOCKED: ENDBRANCH  51  53
DOCKED: ENDBRANCH  50  51
DOCKED: ENDBRANCH  49  50
DOCKED: ENDBRANCH  22  49
DOCKED: TORSDOF 13
DOCKED: TER
DOCKED: ENDMDL
________________________________________________________________________________


	BEGINNING GENETIC ALGORITHM DOCKING 66 of 100
Run: 66 Seed: 124179624 229969681 [ Run 66 of 100 GA/GALS ]
Beginning LAMARCKIAN GENETIC ALGORITHM (LGA), with a maximum of 25000000 energy evaluations.

Final-Value: -10.226


	FINAL GENETIC ALGORITHM DOCKED STATE
	_______________________________________________


Detailed state:  trans 26.475 37.524 -3.558 quatxyzw -0.001779 -0.324688 -0.491244 -0.808241 center 0.153 0.018 -0.028 ntor 13 -102.9586 122.8819 102.0327 -172.3793 31.6806 -115.0757 -52.4287 29.3859 129.1282 -118.4943 -61.3212 43.3279 38.8276
State:	 26.475  37.524  -3.558  -0.003 -0.551 -0.834 -72.151   -102.96  122.88  102.03 -172.38   31.68 -115.08  -52.43   29.39  129.13 -118.49  -61.32   43.33   38.83

DOCKED: MODEL       66
DOCKED: USER    Run = 66
DOCKED: USER    DPF = D:/Protein_go_brrr/autodock/final/2DN3/heme/dock.dpf
DOCKED: USER  
DOCKED: USER    Estimated Free Energy of Binding    =   -2.75 kcal/mol  [=(1)+(2)+(3)-(4)]
DOCKED: USER    Estimated Inhibition Constant, Ki   =    9.67 mM (millimolar)  [Temperature = 298.15 K]
DOCKED: USER    
DOCKED: USER    (1) Final Intermolecular Energy     =   -6.63 kcal/mol
DOCKED: USER        vdW + Hbond + desolv Energy     =   -6.11 kcal/mol
DOCKED: USER        Electrostatic Energy            =   -0.52 kcal/mol
DOCKED: USER    (2) Final Total Internal Energy     =   -3.60 kcal/mol
DOCKED: USER    (3) Torsional Free Energy           =   +3.88 kcal/mol
DOCKED: USER    (4) Unbound System's Energy  [=(2)] =   -3.60 kcal/mol
DOCKED: USER    
DOCKED: USER    
DOCKED: USER    NEWDPF move heme_opt.pdbqt
DOCKED: USER    NEWDPF about 0.153000 0.018000 -0.028000
DOCKED: USER    NEWDPF tran0 26.475129 37.523686 -3.558388
DOCKED: USER    NEWDPF quaternion0 -0.001779 -0.324688 -0.491244 -0.808241
DOCKED: USER    NEWDPF axisangle0 -0.003021 -0.551392 -0.834241 -72.151064
DOCKED: USER    NEWDPF quat0 -0.003021 -0.551392 -0.834241 -72.151064
DOCKED: USER    NEWDPF dihe0 -102.96 122.88 102.03 -172.38 31.68 -115.08 -52.43 29.39 129.13 -118.49 -61.32 43.33 38.83 
DOCKED: USER  keepresnum = 1 
DOCKED: USER  
DOCKED: REMARK  13 active torsions:
DOCKED: REMARK  status: ('A' for Active; 'I' for Inactive)
DOCKED: REMARK    1  A    between atoms: O_3  and  C_38 
DOCKED: REMARK    2  A    between atoms: O_4  and  C_40 
DOCKED: REMARK    3  A    between atoms: O_7  and  C_46 
DOCKED: REMARK    4  A    between atoms: O_9  and  C_48 
DOCKED: REMARK    5  A    between atoms: C_15  and  C_20 
DOCKED: REMARK    6  A    between atoms: C_16  and  C_23 
DOCKED: REMARK    7  A    between atoms: C_20  and  C_38 
DOCKED: REMARK    8  A    between atoms: C_23  and  C_40 
DOCKED: REMARK    9  A    between atoms: C_32  and  C_41 
DOCKED: REMARK   10  A    between atoms: C_37  and  C_45 
DOCKED: REMARK   11  A    between atoms: C_41  and  C_44 
DOCKED: REMARK   12  A    between atoms: C_44  and  C_46 
DOCKED: REMARK   13  A    between atoms: C_47  and  C_48 
DOCKED: USER                              x       y       z     vdW  Elec       q    Type
DOCKED: USER                           _______ _______ _______ _____ _____    ______ ____
DOCKED: ROOT
DOCKED: ATOM      1  O   UNL d   1      25.759  43.055  -5.468 -0.08 -0.04    -0.289 OA
DOCKED: ATOM      2  O   UNL d   1      22.633  36.615  -7.736 -0.04 -0.05    -0.289 OA
DOCKED: ATOM      3  N   UNL d   1      26.600  39.994  -4.119 -0.15 -0.04    -0.247 NA
DOCKED: ATOM      4  N   UNL d   1      24.672  38.131  -5.400 -0.15 -0.02    -0.247 NA
DOCKED: ATOM      5  N   UNL d   1      25.426  36.157  -3.450 -0.14 +0.01    -0.354 N 
DOCKED: ATOM      6  N   UNL d   1      27.410  38.103  -2.116 -0.07 -0.04    -0.354 N 
DOCKED: ATOM      7  C   UNL d   1      27.170  42.323  -3.611 -0.14 +0.02    +0.084 A 
DOCKED: ATOM      8  C   UNL d   1      23.776  38.774  -7.581 -0.10 +0.01    +0.084 A 
DOCKED: ATOM      9  C   UNL d   1      24.621  39.125  -6.352 -0.14 +0.01    +0.058 A 
DOCKED: ATOM     10  C   UNL d   1      27.313  40.834  -3.281 -0.14 +0.01    +0.058 A 
DOCKED: ATOM     11  C   UNL d   1      26.264  42.174  -4.796 -0.13 +0.03    +0.193 A 
DOCKED: ATOM     12  C   UNL d   1      26.013  40.715  -5.018 -0.17 +0.02    +0.109 A 
DOCKED: ATOM     13  C   UNL d   1      23.327  37.412  -7.134 -0.07 +0.03    +0.193 A 
DOCKED: ATOM     14  C   UNL d   1      26.427  43.086  -2.511 -0.28 +0.01    +0.026 C 
DOCKED: ATOM     15  C   UNL d   1      25.215  40.318  -6.196 -0.16 +0.01    +0.055 C 
DOCKED: ATOM     16  C   UNL d   1      24.638  38.621  -8.838 -0.04 +0.00    +0.026 C 
DOCKED: ATOM     17  C   UNL d   1      23.933  37.144  -5.795 -0.16 +0.01    +0.109 A 
DOCKED: ATOM     18  C   UNL d   1      28.142  40.406  -2.310 -0.16 +0.01    +0.050 C 
DOCKED: ATOM     19  C   UNL d   1      28.402  39.049  -1.991 -0.12 +0.01    +0.045 A 
DOCKED: ATOM     20  C   UNL d   1      24.346  35.530  -4.015 -0.25 -0.00    +0.045 A 
DOCKED: ATOM     21  C   UNL d   1      23.631  35.892  -5.085 -0.25 -0.00    +0.057 C 
DOCKED: ATOM     22  C   UNL d   1      25.043  34.318  -2.208 -0.29 +0.00    -0.019 A 
DOCKED: ATOM     23  C   UNL d   1      25.916  35.500  -2.353 -0.22 +0.00    +0.045 A 
DOCKED: ATOM     24  C   UNL d   1      24.116  34.341  -3.195 -0.33 +0.00    -0.022 A 
DOCKED: ATOM     25  C   UNL d   1      27.850  36.878  -1.669 -0.15 +0.01    +0.049 A 
DOCKED: ATOM     26  C   UNL d   1      29.527  38.416  -1.485 -0.08 -0.00    -0.018 A 
DOCKED: ATOM     27  C   UNL d   1      29.179  37.042  -1.302 -0.08 +0.00    +0.003 A 
DOCKED: ATOM     28  C   UNL d   1      26.956  35.780  -1.553 -0.19 +0.01    +0.052 C 
DOCKED: ATOM     29  C   UNL d   1      23.027  33.362  -3.476 -0.45 -0.02    +0.046 C 
DOCKED: ATOM     30  C   UNL d   1      30.846  39.046  -1.190 -0.03 +0.01    +0.046 C 
DOCKED: ATOM     31  H   UNL d   1      25.841  36.978  -3.879 +0.04 +0.01    +0.166 HD
DOCKED: ATOM     32  H   UNL d   1      26.477  38.310  -2.453 +0.03 +0.02    +0.166 HD
DOCKED: ENDROOT
DOCKED: BRANCH   7  33
DOCKED: ATOM     33  C   UNL d   1      28.467  43.035  -4.011 -0.04 +0.02    +0.141 C 
DOCKED: BRANCH  33  34
DOCKED: ATOM     34  C   UNL d   1      28.243  44.473  -4.395 -0.01 +0.05    +0.306 C 
DOCKED: ATOM     35  O   UNL d   1      28.206  45.424  -3.634 -0.01 -0.05    -0.251 OA
DOCKED: BRANCH  34  36
DOCKED: ATOM     36  O   UNL d   1      28.081  44.636  -5.720 +0.01 -0.06    -0.481 OA
DOCKED: ATOM     37  H   UNL d   1      27.176  44.301  -5.901 +0.03 +0.04    +0.295 HD
DOCKED: ENDBRANCH  34  36
DOCKED: ENDBRANCH  33  34
DOCKED: ENDBRANCH   7  33
DOCKED: BRANCH  27  38
DOCKED: ATOM     38  C   UNL d   1      30.050  36.032  -0.782 -0.05 +0.00    +0.017 C 
DOCKED: ATOM     39  C   UNL d   1      30.725  35.137  -1.518 -0.02 +0.03    +0.092 C 
DOCKED: BRANCH  39  40
DOCKED: ATOM     40  C   UNL d   1      31.601  34.163  -0.862 -0.02 +0.15    +0.330 C 
DOCKED: ATOM     41  O   UNL d   1      32.806  34.046  -0.983 -0.01 -0.08    -0.246 OA
DOCKED: BRANCH  40  42
DOCKED: ATOM     42  O   UNL d   1      30.884  33.368  -0.053 -0.49 -0.54    -0.477 OA
DOCKED: ATOM     43  H   UNL d   1      30.445  33.992   0.560 +0.03 +0.30    +0.295 HD
DOCKED: ENDBRANCH  40  42
DOCKED: ENDBRANCH  39  40
DOCKED: ENDBRANCH  27  38
DOCKED: BRANCH   8  44
DOCKED: ATOM     44  C   UNL d   1      22.576  39.690  -7.840 -0.17 +0.04    +0.141 C 
DOCKED: BRANCH  44  45
DOCKED: ATOM     45  C   UNL d   1      21.626  39.147  -8.875 -0.08 +0.16    +0.306 C 
DOCKED: ATOM     46  O   UNL d   1      21.602  39.431 -10.060 -0.13 -0.15    -0.251 OA
DOCKED: BRANCH  45  47
DOCKED: ATOM     47  O   UNL d   1      20.732  38.287  -8.352 -0.09 -0.35    -0.481 OA
DOCKED: ATOM     48  H   UNL d   1      21.226  37.446  -8.253 +0.11 +0.14    +0.295 HD
DOCKED: ENDBRANCH  45  47
DOCKED: ENDBRANCH  44  45
DOCKED: ENDBRANCH   8  44
DOCKED: BRANCH  22  49
DOCKED: ATOM     49  C   UNL d   1      25.184  33.294  -1.120 +0.10 -0.00    +0.048 C 
DOCKED: BRANCH  49  50
DOCKED: ATOM     50  C   UNL d   1      26.642  32.887  -0.909 -0.16 +0.02    +0.125 C 
DOCKED: BRANCH  50  51
DOCKED: ATOM     51  C   UNL d   1      27.090  33.203   0.490 -0.14 +0.16    +0.305 C 
DOCKED: ATOM     52  O   UNL d   1      26.393  33.339   1.481 -0.33 -0.07    -0.251 OA
DOCKED: BRANCH  51  53
DOCKED: ATOM     53  O   UNL d   1      28.427  33.346   0.572 +0.02 -0.60    -0.481 OA
DOCKED: ATOM     54  H   UNL d   1      28.727  33.315  -0.361 +0.05 +0.27    +0.295 HD
DOCKED: ENDBRANCH  51  53
DOCKED: ENDBRANCH  50  51
DOCKED: ENDBRANCH  49  50
DOCKED: ENDBRANCH  22  49
DOCKED: TORSDOF 13
DOCKED: TER
DOCKED: ENDMDL
________________________________________________________________________________


	BEGINNING GENETIC ALGORITHM DOCKING 67 of 100
Run: 67 Seed: 1803046474 1785959830 [ Run 67 of 100 GA/GALS ]
Beginning LAMARCKIAN GENETIC ALGORITHM (LGA), with a maximum of 25000000 energy evaluations.

Final-Value: -11.758


	FINAL GENETIC ALGORITHM DOCKED STATE
	_______________________________________________


Detailed state:  trans 37.092 49.034 23.668 quatxyzw 0.734940 0.440594 -0.513931 -0.040182 center 0.153 0.018 -0.028 ntor 13 -110.2024 143.6300 119.0747 -27.4151 44.5480 111.8503 -48.8999 -62.5313 131.8861 -146.4939 -94.1821 -100.0652 -3.6082
State:	 37.092  49.034  23.668   0.736  0.441 -0.514 -175.394   -110.20  143.63  119.07  -27.42   44.55  111.85  -48.90  -62.53  131.89 -146.49  -94.18 -100.07   -3.61

DOCKED: MODEL       67
DOCKED: USER    Run = 67
DOCKED: USER    DPF = D:/Protein_go_brrr/autodock/final/2DN3/heme/dock.dpf
DOCKED: USER  
DOCKED: USER    Estimated Free Energy of Binding    =   -3.65 kcal/mol  [=(1)+(2)+(3)-(4)]
DOCKED: USER    Estimated Inhibition Constant, Ki   =    2.09 mM (millimolar)  [Temperature = 298.15 K]
DOCKED: USER    
DOCKED: USER    (1) Final Intermolecular Energy     =   -7.53 kcal/mol
DOCKED: USER        vdW + Hbond + desolv Energy     =   -7.34 kcal/mol
DOCKED: USER        Electrostatic Energy            =   -0.19 kcal/mol
DOCKED: USER    (2) Final Total Internal Energy     =   -4.23 kcal/mol
DOCKED: USER    (3) Torsional Free Energy           =   +3.88 kcal/mol
DOCKED: USER    (4) Unbound System's Energy  [=(2)] =   -4.23 kcal/mol
DOCKED: USER    
DOCKED: USER    
DOCKED: USER    NEWDPF move heme_opt.pdbqt
DOCKED: USER    NEWDPF about 0.153000 0.018000 -0.028000
DOCKED: USER    NEWDPF tran0 37.092200 49.034107 23.668026
DOCKED: USER    NEWDPF quaternion0 0.734940 0.440594 -0.513931 -0.040182
DOCKED: USER    NEWDPF axisangle0 0.735534 0.440950 -0.514347 -175.394286
DOCKED: USER    NEWDPF quat0 0.735534 0.440950 -0.514347 -175.394286
DOCKED: USER    NEWDPF dihe0 -110.20 143.63 119.07 -27.42 44.55 111.85 -48.90 -62.53 131.89 -146.49 -94.18 -100.07 -3.61 
DOCKED: USER  keepresnum = 1 
DOCKED: USER  
DOCKED: REMARK  13 active torsions:
DOCKED: REMARK  status: ('A' for Active; 'I' for Inactive)
DOCKED: REMARK    1  A    between atoms: O_3  and  C_38 
DOCKED: REMARK    2  A    between atoms: O_4  and  C_40 
DOCKED: REMARK    3  A    between atoms: O_7  and  C_46 
DOCKED: REMARK    4  A    between atoms: O_9  and  C_48 
DOCKED: REMARK    5  A    between atoms: C_15  and  C_20 
DOCKED: REMARK    6  A    between atoms: C_16  and  C_23 
DOCKED: REMARK    7  A    between atoms: C_20  and  C_38 
DOCKED: REMARK    8  A    between atoms: C_23  and  C_40 
DOCKED: REMARK    9  A    between atoms: C_32  and  C_41 
DOCKED: REMARK   10  A    between atoms: C_37  and  C_45 
DOCKED: REMARK   11  A    between atoms: C_41  and  C_44 
DOCKED: REMARK   12  A    between atoms: C_44  and  C_46 
DOCKED: REMARK   13  A    between atoms: C_47  and  C_48 
DOCKED: USER                              x       y       z     vdW  Elec       q    Type
DOCKED: USER                           _______ _______ _______ _____ _____    ______ ____
DOCKED: ROOT
DOCKED: ATOM      1  O   UNL d   1      37.321  44.273  27.137 -0.05 +0.01    -0.289 OA
DOCKED: ATOM      2  O   UNL d   1      34.669  51.180  28.417 -0.02 -0.01    -0.289 OA
DOCKED: ATOM      3  N   UNL d   1      37.527  46.813  24.813 -0.08 -0.02    -0.247 NA
DOCKED: ATOM      4  N   UNL d   1      35.979  49.016  26.071 -0.10 -0.00    -0.247 NA
DOCKED: ATOM      5  N   UNL d   1      35.983  50.348  23.523 -0.05 -0.04    -0.354 N 
DOCKED: ATOM      6  N   UNL d   1      37.572  48.050  22.222 -0.08 -0.04    -0.354 N 
DOCKED: ATOM      7  C   UNL d   1      38.049  44.418  24.808 -0.24 +0.01    +0.084 A 
DOCKED: ATOM      8  C   UNL d   1      35.834  49.029  28.510 -0.08 +0.01    +0.084 A 
DOCKED: ATOM      9  C   UNL d   1      36.280  48.326  27.224 -0.13 +0.00    +0.058 A 
DOCKED: ATOM     10  C   UNL d   1      37.997  45.753  24.057 -0.21 +0.01    +0.058 A 
DOCKED: ATOM     11  C   UNL d   1      37.543  44.917  26.128 -0.15 +0.01    +0.193 A 
DOCKED: ATOM     12  C   UNL d   1      37.287  46.388  26.011 -0.16 +0.01    +0.109 A 
DOCKED: ATOM     13  C   UNL d   1      35.190  50.228  27.871 -0.05 +0.01    +0.193 A 
DOCKED: ATOM     14  C   UNL d   1      37.050  43.404  24.245 -0.46 +0.00    +0.026 C 
DOCKED: ATOM     15  C   UNL d   1      36.867  47.119  27.223 -0.12 +0.01    +0.055 C 
DOCKED: ATOM     16  C   UNL d   1      37.029  49.499  29.345 -0.03 +0.00    +0.026 C 
DOCKED: ATOM     17  C   UNL d   1      35.340  50.095  26.390 -0.10 -0.00    +0.109 A 
DOCKED: ATOM     18  C   UNL d   1      38.462  45.870  22.799 -0.23 +0.01    +0.050 C 
DOCKED: ATOM     19  C   UNL d   1      38.532  47.077  22.058 -0.22 +0.01    +0.045 A 
DOCKED: ATOM     20  C   UNL d   1      35.092  51.140  24.201 -0.12 +0.00    +0.045 A 
DOCKED: ATOM     21  C   UNL d   1      34.763  51.110  25.496 -0.13 +0.00    +0.057 C 
DOCKED: ATOM     22  C   UNL d   1      35.130  51.782  22.010 -0.21 -0.00    -0.019 A 
DOCKED: ATOM     23  C   UNL d   1      36.073  50.661  22.193 -0.17 +0.01    +0.045 A 
DOCKED: ATOM     24  C   UNL d   1      34.554  52.062  23.202 -0.16 -0.00    -0.022 A 
DOCKED: ATOM     25  C   UNL d   1      37.782  49.089  21.345 -0.19 +0.01    +0.049 A 
DOCKED: ATOM     26  C   UNL d   1      39.409  47.510  21.075 -0.24 -0.00    -0.018 A 
DOCKED: ATOM     27  C   UNL d   1      38.941  48.790  20.643 -0.20 +0.00    +0.003 A 
DOCKED: ATOM     28  C   UNL d   1      36.832  50.138  21.217 -0.26 +0.01    +0.052 C 
DOCKED: ATOM     29  C   UNL d   1      33.548  53.113  23.529 -0.13 +0.01    +0.046 C 
DOCKED: ATOM     30  C   UNL d   1      40.608  46.784  20.569 -0.33 +0.01    +0.046 C 
DOCKED: ATOM     31  H   UNL d   1      36.556  49.667  24.008 +0.05 +0.01    +0.166 HD
DOCKED: ATOM     32  H   UNL d   1      36.802  47.973  22.875 +0.08 +0.01    +0.166 HD
DOCKED: ENDROOT
DOCKED: BRANCH   7  33
DOCKED: ATOM     33  C   UNL d   1      39.445  43.806  24.964 -0.16 +0.02    +0.141 C 
DOCKED: BRANCH  33  34
DOCKED: ATOM     34  C   UNL d   1      39.426  42.505  25.718 -0.12 +0.09    +0.306 C 
DOCKED: ATOM     35  O   UNL d   1      39.447  41.388  25.229 -0.49 -0.10    -0.251 OA
DOCKED: BRANCH  34  36
DOCKED: ATOM     36  O   UNL d   1      39.384  42.678  27.051 -0.03 -0.17    -0.481 OA
DOCKED: ATOM     37  H   UNL d   1      38.501  43.071  27.221 +0.11 +0.06    +0.295 HD
DOCKED: ENDBRANCH  34  36
DOCKED: ENDBRANCH  33  34
DOCKED: ENDBRANCH   7  33
DOCKED: BRANCH  27  38
DOCKED: ATOM     38  C   UNL d   1      39.551  49.589  19.623 -0.26 +0.00    +0.017 C 
DOCKED: ATOM     39  C   UNL d   1      38.975  49.932  18.460 -0.26 +0.05    +0.092 C 
DOCKED: BRANCH  39  40
DOCKED: ATOM     40  C   UNL d   1      39.702  50.772  17.505 -0.06 +0.26    +0.330 C 
DOCKED: ATOM     41  O   UNL d   1      40.161  50.446  16.427 -0.88 -0.32    -0.246 OA
DOCKED: BRANCH  40  42
DOCKED: ATOM     42  O   UNL d   1      39.805  52.025  17.977 -0.07 -0.23    -0.477 OA
DOCKED: ATOM     43  H   UNL d   1      38.953  52.173  18.436 +0.07 +0.13    +0.295 HD
DOCKED: ENDBRANCH  40  42
DOCKED: ENDBRANCH  39  40
DOCKED: ENDBRANCH  27  38
DOCKED: BRANCH   8  44
DOCKED: ATOM     44  C   UNL d   1      34.826  48.258  29.369 -0.09 +0.02    +0.141 C 
DOCKED: BRANCH  44  45
DOCKED: ATOM     45  C   UNL d   1      34.713  48.789  30.773 -0.03 +0.03    +0.306 C 
DOCKED: ATOM     46  O   UNL d   1      35.333  48.401  31.748 -0.03 -0.02    -0.251 OA
DOCKED: BRANCH  45  47
DOCKED: ATOM     47  O   UNL d   1      33.798  49.769  30.881 +0.01 -0.03    -0.481 OA
DOCKED: ATOM     48  H   UNL d   1      34.130  50.483  30.295 +0.03 +0.02    +0.295 HD
DOCKED: ENDBRANCH  45  47
DOCKED: ENDBRANCH  44  45
DOCKED: ENDBRANCH   8  44
DOCKED: BRANCH  22  49
DOCKED: ATOM     49  C   UNL d   1      34.871  52.460  20.696 -0.28 +0.01    +0.048 C 
DOCKED: BRANCH  49  50
DOCKED: ATOM     50  C   UNL d   1      35.863  53.594  20.436 -0.13 +0.02    +0.125 C 
DOCKED: BRANCH  50  51
DOCKED: ATOM     51  C   UNL d   1      37.111  53.075  19.781 -0.09 +0.07    +0.305 C 
DOCKED: ATOM     52  O   UNL d   1      37.966  52.358  20.273 -0.08 -0.06    -0.251 OA
DOCKED: BRANCH  51  53
DOCKED: ATOM     53  O   UNL d   1      37.231  53.506  18.509 -0.04 -0.17    -0.481 OA
DOCKED: ATOM     54  H   UNL d   1      38.198  53.518  18.352 +0.06 +0.11    +0.295 HD
DOCKED: ENDBRANCH  51  53
DOCKED: ENDBRANCH  50  51
DOCKED: ENDBRANCH  49  50
DOCKED: ENDBRANCH  22  49
DOCKED: TORSDOF 13
DOCKED: TER
DOCKED: ENDMDL
________________________________________________________________________________


	BEGINNING GENETIC ALGORITHM DOCKING 68 of 100
Run: 68 Seed: 1866384086 1841738470 [ Run 68 of 100 GA/GALS ]
Beginning LAMARCKIAN GENETIC ALGORITHM (LGA), with a maximum of 25000000 energy evaluations.

Final-Value: -9.800


	FINAL GENETIC ALGORITHM DOCKED STATE
	_______________________________________________


Detailed state:  trans 39.929 18.559 7.053 quatxyzw 0.164474 -0.475364 -0.779958 0.372346 center 0.153 0.018 -0.028 ntor 13 82.3934 -117.8880 -15.6954 75.2845 -175.8498 -176.1811 -57.4942 -68.4849 104.1833 0.1490 -105.8781 50.7131 -24.1565
State:	 39.929  18.559   7.053   0.177 -0.512 -0.840 136.279     82.39 -117.89  -15.70   75.28 -175.85 -176.18  -57.49  -68.48  104.18    0.15 -105.88   50.71  -24.16

DOCKED: MODEL       68
DOCKED: USER    Run = 68
DOCKED: USER    DPF = D:/Protein_go_brrr/autodock/final/2DN3/heme/dock.dpf
DOCKED: USER  
DOCKED: USER    Estimated Free Energy of Binding    =   -4.02 kcal/mol  [=(1)+(2)+(3)-(4)]
DOCKED: USER    Estimated Inhibition Constant, Ki   =    1.12 mM (millimolar)  [Temperature = 298.15 K]
DOCKED: USER    
DOCKED: USER    (1) Final Intermolecular Energy     =   -7.90 kcal/mol
DOCKED: USER        vdW + Hbond + desolv Energy     =   -7.18 kcal/mol
DOCKED: USER        Electrostatic Energy            =   -0.72 kcal/mol
DOCKED: USER    (2) Final Total Internal Energy     =   -1.90 kcal/mol
DOCKED: USER    (3) Torsional Free Energy           =   +3.88 kcal/mol
DOCKED: USER    (4) Unbound System's Energy  [=(2)] =   -1.90 kcal/mol
DOCKED: USER    
DOCKED: USER    
DOCKED: USER    NEWDPF move heme_opt.pdbqt
DOCKED: USER    NEWDPF about 0.153000 0.018000 -0.028000
DOCKED: USER    NEWDPF tran0 39.928808 18.559445 7.052898
DOCKED: USER    NEWDPF quaternion0 0.164474 -0.475364 -0.779958 0.372346
DOCKED: USER    NEWDPF axisangle0 0.177217 -0.512194 -0.840387 136.279240
DOCKED: USER    NEWDPF quat0 0.177217 -0.512194 -0.840387 136.279240
DOCKED: USER    NEWDPF dihe0 82.39 -117.89 -15.70 75.28 -175.85 -176.18 -57.49 -68.48 104.18 0.15 -105.88 50.71 -24.16 
DOCKED: USER  keepresnum = 1 
DOCKED: USER  
DOCKED: REMARK  13 active torsions:
DOCKED: REMARK  status: ('A' for Active; 'I' for Inactive)
DOCKED: REMARK    1  A    between atoms: O_3  and  C_38 
DOCKED: REMARK    2  A    between atoms: O_4  and  C_40 
DOCKED: REMARK    3  A    between atoms: O_7  and  C_46 
DOCKED: REMARK    4  A    between atoms: O_9  and  C_48 
DOCKED: REMARK    5  A    between atoms: C_15  and  C_20 
DOCKED: REMARK    6  A    between atoms: C_16  and  C_23 
DOCKED: REMARK    7  A    between atoms: C_20  and  C_38 
DOCKED: REMARK    8  A    between atoms: C_23  and  C_40 
DOCKED: REMARK    9  A    between atoms: C_32  and  C_41 
DOCKED: REMARK   10  A    between atoms: C_37  and  C_45 
DOCKED: REMARK   11  A    between atoms: C_41  and  C_44 
DOCKED: REMARK   12  A    between atoms: C_44  and  C_46 
DOCKED: REMARK   13  A    between atoms: C_47  and  C_48 
DOCKED: USER                              x       y       z     vdW  Elec       q    Type
DOCKED: USER                           _______ _______ _______ _____ _____    ______ ____
DOCKED: ROOT
DOCKED: ATOM      1  O   UNL d   1      42.498  16.280  11.844 -0.02 -0.04    -0.289 OA
DOCKED: ATOM      2  O   UNL d   1      45.124  17.380   4.895 -0.10 -0.18    -0.289 OA
DOCKED: ATOM      3  N   UNL d   1      40.554  17.542   9.291 -0.06 -0.02    -0.247 NA
DOCKED: ATOM      4  N   UNL d   1      42.493  17.898   7.067 -0.08 -0.06    -0.247 NA
DOCKED: ATOM      5  N   UNL d   1      40.511  19.483   5.716 -0.08 -0.01    -0.354 N 
DOCKED: ATOM      6  N   UNL d   1      38.513  19.125   8.035 -0.08 +0.02    -0.354 N 
DOCKED: ATOM      7  C   UNL d   1      40.235  17.190  11.695 -0.21 +0.01    +0.084 A 
DOCKED: ATOM      8  C   UNL d   1      44.471  16.464   7.070 -0.06 +0.03    +0.084 A 
DOCKED: ATOM      9  C   UNL d   1      43.198  16.948   7.772 -0.08 +0.01    +0.058 A 
DOCKED: ATOM     10  C   UNL d   1      39.678  17.679  10.355 -0.21 +0.00    +0.058 A 
DOCKED: ATOM     11  C   UNL d   1      41.573  16.735  11.197 -0.05 +0.02    +0.193 A 
DOCKED: ATOM     12  C   UNL d   1      41.635  16.977   9.721 -0.06 +0.01    +0.109 A 
DOCKED: ATOM     13  C   UNL d   1      44.377  17.342   5.854 -0.09 +0.09    +0.193 A 
DOCKED: ATOM     14  C   UNL d   1      40.440  18.339  12.686 -0.40 +0.00    +0.026 C 
DOCKED: ATOM     15  C   UNL d   1      42.834  16.519   8.990 -0.06 +0.01    +0.055 C 
DOCKED: ATOM     16  C   UNL d   1      44.356  15.001   6.630 -0.02 +0.01    +0.026 C 
DOCKED: ATOM     17  C   UNL d   1      43.138  18.167   5.978 -0.06 +0.04    +0.109 A 
DOCKED: ATOM     18  C   UNL d   1      38.410  18.115  10.237 -0.32 +0.00    +0.050 C 
DOCKED: ATOM     19  C   UNL d   1      37.784  18.507   9.026 -0.17 -0.00    +0.045 A 
DOCKED: ATOM     20  C   UNL d   1      41.595  19.725   4.912 -0.17 +0.01    +0.045 A 
DOCKED: ATOM     21  C   UNL d   1      42.806  19.160   4.945 -0.09 +0.03    +0.057 C 
DOCKED: ATOM     22  C   UNL d   1      39.872  21.072   4.254 -0.28 +0.00    -0.019 A 
DOCKED: ATOM     23  C   UNL d   1      39.423  20.250   5.395 -0.26 -0.01    +0.045 A 
DOCKED: ATOM     24  C   UNL d   1      41.158  20.756   3.972 -0.21 -0.00    -0.022 A 
DOCKED: ATOM     25  C   UNL d   1      37.694  19.498   6.994 -0.22 -0.01    +0.049 A 
DOCKED: ATOM     26  C   UNL d   1      36.465  18.443   8.602 -0.21 +0.00    -0.018 A 
DOCKED: ATOM     27  C   UNL d   1      36.418  19.052   7.311 -0.21 -0.00    +0.003 A 
DOCKED: ATOM     28  C   UNL d   1      38.191  20.292   5.925 -0.32 -0.01    +0.052 C 
DOCKED: ATOM     29  C   UNL d   1      42.041  21.306   2.904 -0.22 +0.01    +0.046 C 
DOCKED: ATOM     30  C   UNL d   1      35.318  17.850   9.349 -0.25 -0.01    +0.046 C 
DOCKED: ATOM     31  H   UNL d   1      40.527  18.746   6.413 +0.05 +0.01    +0.166 HD
DOCKED: ATOM     32  H   UNL d   1      39.507  19.308   8.102 +0.04 -0.00    +0.166 HD
DOCKED: ENDROOT
DOCKED: BRANCH   7  33
DOCKED: ATOM     33  C   UNL d   1      39.474  16.024  12.336 -0.19 +0.01    +0.141 C 
DOCKED: BRANCH  33  34
DOCKED: ATOM     34  C   UNL d   1      40.354  15.168  13.206 -0.09 +0.02    +0.306 C 
DOCKED: ATOM     35  O   UNL d   1      40.555  13.973  13.073 -0.03 -0.02    -0.251 OA
DOCKED: BRANCH  34  36
DOCKED: ATOM     36  O   UNL d   1      40.937  15.864  14.199 -0.08 -0.03    -0.481 OA
DOCKED: ATOM     37  H   UNL d   1      41.848  16.036  13.878 +0.08 +0.04    +0.295 HD
DOCKED: ENDBRANCH  34  36
DOCKED: ENDBRANCH  33  34
DOCKED: ENDBRANCH   7  33
DOCKED: BRANCH  27  38
DOCKED: ATOM     38  C   UNL d   1      35.238  19.211   6.516 -0.16 -0.01    +0.017 C 
DOCKED: ATOM     39  C   UNL d   1      34.809  18.346   5.584 -0.07 -0.04    +0.092 C 
DOCKED: BRANCH  39  40
DOCKED: ATOM     40  C   UNL d   1      33.571  18.619   4.850 -0.02 -0.16    +0.330 C 
DOCKED: ATOM     41  O   UNL d   1      33.040  17.924   4.004 -0.02 +0.06    -0.246 OA
DOCKED: BRANCH  40  42
DOCKED: ATOM     42  O   UNL d   1      33.049  19.791   5.243 -0.02 +0.37    -0.477 OA
DOCKED: ATOM     43  H   UNL d   1      33.736  20.446   5.003 -0.35 -0.57    +0.295 HD
DOCKED: ENDBRANCH  40  42
DOCKED: ENDBRANCH  39  40
DOCKED: ENDBRANCH  27  38
DOCKED: BRANCH   8  44
DOCKED: ATOM     44  C   UNL d   1      45.779  16.714   7.827 -0.08 +0.05    +0.141 C 
DOCKED: BRANCH  44  45
DOCKED: ATOM     45  C   UNL d   1      45.921  18.130   8.317 -0.07 +0.16    +0.306 C 
DOCKED: ATOM     46  O   UNL d   1      46.594  19.011   7.810 -0.58 -0.24    -0.251 OA
DOCKED: BRANCH  45  47
DOCKED: ATOM     47  O   UNL d   1      45.222  18.358   9.444 -0.08 -0.15    -0.481 OA
DOCKED: ATOM     48  H   UNL d   1      45.596  19.190   9.804 +0.04 +0.08    +0.295 HD
DOCKED: ENDBRANCH  45  47
DOCKED: ENDBRANCH  44  45
DOCKED: ENDBRANCH   8  44
DOCKED: BRANCH  22  49
DOCKED: ATOM     49  C   UNL d   1      39.015  22.091   3.561 -0.35 -0.01    +0.048 C 
DOCKED: BRANCH  49  50
DOCKED: ATOM     50  C   UNL d   1      38.577  21.619   2.175 -0.16 -0.03    +0.125 C 
DOCKED: BRANCH  50  51
DOCKED: ATOM     51  C   UNL d   1      37.499  20.579   2.278 -0.07 -0.14    +0.305 C 
DOCKED: ATOM     52  O   UNL d   1      37.621  19.412   2.607 -0.04 +0.07    -0.251 OA
DOCKED: BRANCH  51  53
DOCKED: ATOM     53  O   UNL d   1      36.290  21.071   1.942 -0.06 +0.38    -0.481 OA
DOCKED: ATOM     54  H   UNL d   1      35.827  21.174   2.800 -0.24 -0.52    +0.295 HD
DOCKED: ENDBRANCH  51  53
DOCKED: ENDBRANCH  50  51
DOCKED: ENDBRANCH  49  50
DOCKED: ENDBRANCH  22  49
DOCKED: TORSDOF 13
DOCKED: TER
DOCKED: ENDMDL
________________________________________________________________________________


	BEGINNING GENETIC ALGORITHM DOCKING 69 of 100
Run: 69 Seed: 1537751705 1961763484 [ Run 69 of 100 GA/GALS ]
Beginning LAMARCKIAN GENETIC ALGORITHM (LGA), with a maximum of 25000000 energy evaluations.

Final-Value: -10.225


	FINAL GENETIC ALGORITHM DOCKED STATE
	_______________________________________________


Detailed state:  trans 39.648 14.683 23.587 quatxyzw 0.081459 -0.518611 0.759486 -0.384171 center 0.153 0.018 -0.028 ntor 13 99.4009 115.0230 -147.8253 148.9464 -148.4054 135.3343 130.1590 -50.1181 68.0350 -14.2858 -37.1127 179.2141 144.5530
State:	 39.648  14.683  23.587   0.088 -0.562  0.823 -134.815     99.40  115.02 -147.83  148.95 -148.41  135.33  130.16  -50.12   68.04  -14.29  -37.11  179.21  144.55

DOCKED: MODEL       69
DOCKED: USER    Run = 69
DOCKED: USER    DPF = D:/Protein_go_brrr/autodock/final/2DN3/heme/dock.dpf
DOCKED: USER  
DOCKED: USER    Estimated Free Energy of Binding    =   -4.08 kcal/mol  [=(1)+(2)+(3)-(4)]
DOCKED: USER    Estimated Inhibition Constant, Ki   =    1.02 mM (millimolar)  [Temperature = 298.15 K]
DOCKED: USER    
DOCKED: USER    (1) Final Intermolecular Energy     =   -7.96 kcal/mol
DOCKED: USER        vdW + Hbond + desolv Energy     =   -7.57 kcal/mol
DOCKED: USER        Electrostatic Energy            =   -0.39 kcal/mol
DOCKED: USER    (2) Final Total Internal Energy     =   -2.26 kcal/mol
DOCKED: USER    (3) Torsional Free Energy           =   +3.88 kcal/mol
DOCKED: USER    (4) Unbound System's Energy  [=(2)] =   -2.26 kcal/mol
DOCKED: USER    
DOCKED: USER    
DOCKED: USER    NEWDPF move heme_opt.pdbqt
DOCKED: USER    NEWDPF about 0.153000 0.018000 -0.028000
DOCKED: USER    NEWDPF tran0 39.647702 14.683365 23.586828
DOCKED: USER    NEWDPF quaternion0 0.081459 -0.518611 0.759486 -0.384171
DOCKED: USER    NEWDPF axisangle0 0.088230 -0.561716 0.822612 -134.815378
DOCKED: USER    NEWDPF quat0 0.088230 -0.561716 0.822612 -134.815378
DOCKED: USER    NEWDPF dihe0 99.40 115.02 -147.83 148.95 -148.41 135.33 130.16 -50.12 68.04 -14.29 -37.11 179.21 144.55 
DOCKED: USER  keepresnum = 1 
DOCKED: USER  
DOCKED: REMARK  13 active torsions:
DOCKED: REMARK  status: ('A' for Active; 'I' for Inactive)
DOCKED: REMARK    1  A    between atoms: O_3  and  C_38 
DOCKED: REMARK    2  A    between atoms: O_4  and  C_40 
DOCKED: REMARK    3  A    between atoms: O_7  and  C_46 
DOCKED: REMARK    4  A    between atoms: O_9  and  C_48 
DOCKED: REMARK    5  A    between atoms: C_15  and  C_20 
DOCKED: REMARK    6  A    between atoms: C_16  and  C_23 
DOCKED: REMARK    7  A    between atoms: C_20  and  C_38 
DOCKED: REMARK    8  A    between atoms: C_23  and  C_40 
DOCKED: REMARK    9  A    between atoms: C_32  and  C_41 
DOCKED: REMARK   10  A    between atoms: C_37  and  C_45 
DOCKED: REMARK   11  A    between atoms: C_41  and  C_44 
DOCKED: REMARK   12  A    between atoms: C_44  and  C_46 
DOCKED: REMARK   13  A    between atoms: C_47  and  C_48 
DOCKED: USER                              x       y       z     vdW  Elec       q    Type
DOCKED: USER                           _______ _______ _______ _____ _____    ______ ____
DOCKED: ROOT
DOCKED: ATOM      1  O   UNL d   1      42.222  11.050  19.723 -0.02 -0.03    -0.289 OA
DOCKED: ATOM      2  O   UNL d   1      45.156  15.509  25.005 -0.06 -0.03    -0.289 OA
DOCKED: ATOM      3  N   UNL d   1      40.300  13.133  21.688 -0.04 +0.02    -0.247 NA
DOCKED: ATOM      4  N   UNL d   1      42.257  14.235  23.633 -0.14 +0.00    -0.247 NA
DOCKED: ATOM      5  N   UNL d   1      40.035  15.179  25.194 -0.14 +0.08    -0.354 N 
DOCKED: ATOM      6  N   UNL d   1      38.011  14.015  23.182 +0.01 +0.10    -0.354 N 
DOCKED: ATOM      7  C   UNL d   1      39.821  11.403  20.019 -0.07 +0.01    +0.084 A 
DOCKED: ATOM      8  C   UNL d   1      44.595  14.338  22.930 -0.11 +0.01    +0.084 A 
DOCKED: ATOM      9  C   UNL d   1      43.155  13.899  22.645 -0.18 +0.00    +0.058 A 
DOCKED: ATOM     10  C   UNL d   1      39.304  12.443  21.017 -0.13 +0.00    +0.058 A 
DOCKED: ATOM     11  C   UNL d   1      41.286  11.641  20.231 -0.07 +0.02    +0.193 A 
DOCKED: ATOM     12  C   UNL d   1      41.446  12.729  21.246 -0.13 +0.01    +0.109 A 
DOCKED: ATOM     13  C   UNL d   1      44.355  14.952  24.280 -0.09 +0.02    +0.193 A 
DOCKED: ATOM     14  C   UNL d   1      39.483   9.974  20.451 -0.03 +0.00    +0.026 C 
DOCKED: ATOM     15  C   UNL d   1      42.812  13.201  21.551 -0.18 +0.00    +0.055 C 
DOCKED: ATOM     16  C   UNL d   1      45.056  15.434  21.965 -0.17 +0.01    +0.026 C 
DOCKED: ATOM     17  C   UNL d   1      42.900  14.819  24.593 -0.14 +0.01    +0.109 A 
DOCKED: ATOM     18  C   UNL d   1      37.989  12.705  21.142 -0.15 +0.00    +0.050 C 
DOCKED: ATOM     19  C   UNL d   1      37.425  13.704  21.975 -0.09 -0.00    +0.045 A 
DOCKED: ATOM     20  C   UNL d   1      41.058  15.410  26.077 -0.21 -0.00    +0.045 A 
DOCKED: ATOM     21  C   UNL d   1      42.375  15.297  25.881 -0.19 -0.00    +0.057 C 
DOCKED: ATOM     22  C   UNL d   1      39.070  15.818  27.127 -0.25 +0.00    -0.019 A 
DOCKED: ATOM     23  C   UNL d   1      38.797  15.397  25.738 -0.30 -0.01    +0.045 A 
DOCKED: ATOM     24  C   UNL d   1      40.411  15.825  27.321 -0.19 +0.00    -0.022 A 
DOCKED: ATOM     25  C   UNL d   1      37.253  14.939  23.863 -0.22 -0.02    +0.049 A 
DOCKED: ATOM     26  C   UNL d   1      36.277  14.473  21.853 -0.20 +0.00    -0.018 A 
DOCKED: ATOM     27  C   UNL d   1      36.184  15.265  23.039 -0.27 -0.00    +0.003 A 
DOCKED: ATOM     28  C   UNL d   1      37.572  15.300  25.200 -0.31 -0.02    +0.052 C 
DOCKED: ATOM     29  C   UNL d   1      41.173  16.188  28.549 -0.12 -0.00    +0.046 C 
DOCKED: ATOM     30  C   UNL d   1      35.325  14.474  20.705 -0.17 +0.00    +0.046 C 
DOCKED: ATOM     31  H   UNL d   1      40.219  14.949  24.224 -0.49 -0.07    +0.166 HD
DOCKED: ATOM     32  H   UNL d   1      38.861  13.581  23.520 -0.17 -0.04    +0.166 HD
DOCKED: ENDROOT
DOCKED: BRANCH   7  33
DOCKED: ATOM     33  C   UNL d   1      39.442  11.653  18.555 -0.08 +0.02    +0.141 C 
DOCKED: BRANCH  33  34
DOCKED: ATOM     34  C   UNL d   1      40.640  11.918  17.684 -0.05 +0.04    +0.306 C 
DOCKED: ATOM     35  O   UNL d   1      41.092  13.013  17.393 -0.05 -0.04    -0.251 OA
DOCKED: BRANCH  34  36
DOCKED: ATOM     36  O   UNL d   1      41.208  10.788  17.226 -0.00 -0.05    -0.481 OA
DOCKED: ATOM     37  H   UNL d   1      41.793  10.493  17.956 +0.02 +0.03    +0.295 HD
DOCKED: ENDBRANCH  34  36
DOCKED: ENDBRANCH  33  34
DOCKED: ENDBRANCH   7  33
DOCKED: BRANCH  27  38
DOCKED: ATOM     38  C   UNL d   1      35.134  16.193  23.331 -0.35 -0.00    +0.017 C 
DOCKED: ATOM     39  C   UNL d   1      33.844  16.031  23.001 -0.24 +0.00    +0.092 C 
DOCKED: BRANCH  39  40
DOCKED: ATOM     40  C   UNL d   1      32.861  17.052  23.375 -0.17 +0.05    +0.330 C 
DOCKED: ATOM     41  O   UNL d   1      31.998  17.545  22.674 -0.29 -0.10    -0.246 OA
DOCKED: BRANCH  40  42
DOCKED: ATOM     42  O   UNL d   1      33.023  17.399  24.661 -0.63 -0.01    -0.477 OA
DOCKED: ATOM     43  H   UNL d   1      32.802  16.582  25.154 +0.11 -0.09    +0.295 HD
DOCKED: ENDBRANCH  40  42
DOCKED: ENDBRANCH  39  40
DOCKED: ENDBRANCH  27  38
DOCKED: BRANCH   8  44
DOCKED: ATOM     44  C   UNL d   1      45.625  13.207  23.018 -0.03 +0.01    +0.141 C 
DOCKED: BRANCH  44  45
DOCKED: ATOM     45  C   UNL d   1      45.375  12.263  24.163 -0.00 +0.02    +0.306 C 
DOCKED: ATOM     46  O   UNL d   1      44.642  11.290  24.156 -0.00 -0.02    -0.251 OA
DOCKED: BRANCH  45  47
DOCKED: ATOM     47  O   UNL d   1      46.047  12.613  25.275 +0.00 -0.04    -0.481 OA
DOCKED: ATOM     48  H   UNL d   1      46.102  13.592  25.234 +0.02 +0.03    +0.295 HD
DOCKED: ENDBRANCH  45  47
DOCKED: ENDBRANCH  44  45
DOCKED: ENDBRANCH   8  44
DOCKED: BRANCH  22  49
DOCKED: ATOM     49  C   UNL d   1      38.007  16.156  28.130 -0.15 -0.02    +0.048 C 
DOCKED: BRANCH  49  50
DOCKED: ATOM     50  C   UNL d   1      37.087  14.966  28.406 -0.09 -0.06    +0.125 C 
DOCKED: BRANCH  50  51
DOCKED: ATOM     51  C   UNL d   1      36.675  14.931  29.850 -0.05 -0.14    +0.305 C 
DOCKED: ATOM     52  O   UNL d   1      37.399  14.900  30.830 -0.03 +0.06    -0.251 OA
DOCKED: BRANCH  51  53
DOCKED: ATOM     53  O   UNL d   1      35.334  14.925  29.992 -0.01 +0.39    -0.481 OA
DOCKED: ATOM     54  H   UNL d   1      35.011  15.439  29.223 -0.45 -0.54    +0.295 HD
DOCKED: ENDBRANCH  51  53
DOCKED: ENDBRANCH  50  51
DOCKED: ENDBRANCH  49  50
DOCKED: ENDBRANCH  22  49
DOCKED: TORSDOF 13
DOCKED: TER
DOCKED: ENDMDL
________________________________________________________________________________


	BEGINNING GENETIC ALGORITHM DOCKING 70 of 100
Run: 70 Seed: 1888226718 1027090083 [ Run 70 of 100 GA/GALS ]
Beginning LAMARCKIAN GENETIC ALGORITHM (LGA), with a maximum of 25000000 energy evaluations.

Final-Value: -9.873


	FINAL GENETIC ALGORITHM DOCKED STATE
	_______________________________________________


Detailed state:  trans 43.081 43.706 22.735 quatxyzw -0.441532 0.269519 -0.229570 -0.824443 center 0.153 0.018 -0.028 ntor 13 -142.3182 -180.0000 -129.2987 39.7349 180.0000 70.5883 128.2939 48.9208 7.3692 -55.8859 -76.9860 -102.6118 2.3867
State:	 43.081  43.706  22.735  -0.780  0.476 -0.406 -68.936   -142.32 -180.00 -129.30   39.73  180.00   70.59  128.29   48.92    7.37  -55.89  -76.99 -102.61    2.39

DOCKED: MODEL       70
DOCKED: USER    Run = 70
DOCKED: USER    DPF = D:/Protein_go_brrr/autodock/final/2DN3/heme/dock.dpf
DOCKED: USER  
DOCKED: USER    Estimated Free Energy of Binding    =   -1.66 kcal/mol  [=(1)+(2)+(3)-(4)]
DOCKED: USER    Estimated Inhibition Constant, Ki   =   60.90 mM (millimolar)  [Temperature = 298.15 K]
DOCKED: USER    
DOCKED: USER    (1) Final Intermolecular Energy     =   -5.54 kcal/mol
DOCKED: USER        vdW + Hbond + desolv Energy     =   -5.49 kcal/mol
DOCKED: USER        Electrostatic Energy            =   -0.04 kcal/mol
DOCKED: USER    (2) Final Total Internal Energy     =   -4.34 kcal/mol
DOCKED: USER    (3) Torsional Free Energy           =   +3.88 kcal/mol
DOCKED: USER    (4) Unbound System's Energy  [=(2)] =   -4.34 kcal/mol
DOCKED: USER    
DOCKED: USER    
DOCKED: USER    NEWDPF move heme_opt.pdbqt
DOCKED: USER    NEWDPF about 0.153000 0.018000 -0.028000
DOCKED: USER    NEWDPF tran0 43.080552 43.706072 22.734952
DOCKED: USER    NEWDPF quaternion0 -0.441532 0.269519 -0.229570 -0.824443
DOCKED: USER    NEWDPF axisangle0 -0.780169 0.476228 -0.405640 -68.935856
DOCKED: USER    NEWDPF quat0 -0.780169 0.476228 -0.405640 -68.935856
DOCKED: USER    NEWDPF dihe0 -142.32 -180.00 -129.30 39.73 180.00 70.59 128.29 48.92 7.37 -55.89 -76.99 -102.61 2.39 
DOCKED: USER  keepresnum = 1 
DOCKED: USER  
DOCKED: REMARK  13 active torsions:
DOCKED: REMARK  status: ('A' for Active; 'I' for Inactive)
DOCKED: REMARK    1  A    between atoms: O_3  and  C_38 
DOCKED: REMARK    2  A    between atoms: O_4  and  C_40 
DOCKED: REMARK    3  A    between atoms: O_7  and  C_46 
DOCKED: REMARK    4  A    between atoms: O_9  and  C_48 
DOCKED: REMARK    5  A    between atoms: C_15  and  C_20 
DOCKED: REMARK    6  A    between atoms: C_16  and  C_23 
DOCKED: REMARK    7  A    between atoms: C_20  and  C_38 
DOCKED: REMARK    8  A    between atoms: C_23  and  C_40 
DOCKED: REMARK    9  A    between atoms: C_32  and  C_41 
DOCKED: REMARK   10  A    between atoms: C_37  and  C_45 
DOCKED: REMARK   11  A    between atoms: C_41  and  C_44 
DOCKED: REMARK   12  A    between atoms: C_44  and  C_46 
DOCKED: REMARK   13  A    between atoms: C_47  and  C_48 
DOCKED: USER                              x       y       z     vdW  Elec       q    Type
DOCKED: USER                           _______ _______ _______ _____ _____    ______ ____
DOCKED: ROOT
DOCKED: ATOM      1  O   UNL d   1      39.533  48.409  22.954 -0.02 -0.03    -0.289 OA
DOCKED: ATOM      2  O   UNL d   1      39.387  41.944  26.771 -0.17 -0.16    -0.289 OA
DOCKED: ATOM      3  N   UNL d   1      41.774  45.851  22.382 -0.09 -0.02    -0.247 NA
DOCKED: ATOM      4  N   UNL d   1      41.136  43.892  24.523 -0.07 -0.01    -0.247 NA
DOCKED: ATOM      5  N   UNL d   1      43.608  42.558  23.911 -0.08 +0.07    -0.354 N 
DOCKED: ATOM      6  N   UNL d   1      44.272  44.606  21.705 -0.05 -0.01    -0.354 N 
DOCKED: ATOM      7  C   UNL d   1      41.530  48.150  21.568 -0.08 +0.01    +0.084 A 
DOCKED: ATOM      8  C   UNL d   1      38.861  43.913  25.415 -0.16 +0.01    +0.084 A 
DOCKED: ATOM      9  C   UNL d   1      39.921  44.540  24.503 -0.12 +0.01    +0.058 A 
DOCKED: ATOM     10  C   UNL d   1      42.310  46.832  21.564 -0.14 +0.01    +0.058 A 
DOCKED: ATOM     11  C   UNL d   1      40.448  47.735  22.519 -0.04 +0.02    +0.193 A 
DOCKED: ATOM     12  C   UNL d   1      40.693  46.313  22.921 -0.10 +0.01    +0.109 A 
DOCKED: ATOM     13  C   UNL d   1      39.711  42.812  25.984 -0.11 +0.06    +0.193 A 
DOCKED: ATOM     14  C   UNL d   1      42.333  49.291  22.199 -0.04 +0.00    +0.026 C 
DOCKED: ATOM     15  C   UNL d   1      39.697  45.654  23.789 -0.16 +0.01    +0.055 C 
DOCKED: ATOM     16  C   UNL d   1      37.718  43.287  24.610 -0.37 +0.00    +0.026 C 
DOCKED: ATOM     17  C   UNL d   1      41.068  42.914  25.368 -0.13 +0.02    +0.109 A 
DOCKED: ATOM     18  C   UNL d   1      43.368  46.644  20.754 -0.19 +0.00    +0.050 C 
DOCKED: ATOM     19  C   UNL d   1      44.097  45.435  20.620 -0.23 +0.00    +0.045 A 
DOCKED: ATOM     20  C   UNL d   1      43.265  41.902  25.065 -0.14 -0.00    +0.045 A 
DOCKED: ATOM     21  C   UNL d   1      42.133  41.985  25.771 -0.12 +0.02    +0.057 C 
DOCKED: ATOM     22  C   UNL d   1      45.363  41.248  24.438 -0.11 +0.00    -0.019 A 
DOCKED: ATOM     23  C   UNL d   1      44.857  42.228  23.457 -0.12 -0.01    +0.045 A 
DOCKED: ATOM     24  C   UNL d   1      44.415  41.058  25.387 -0.11 +0.00    -0.022 A 
DOCKED: ATOM     25  C   UNL d   1      45.081  43.543  21.375 -0.15 -0.00    +0.049 A 
DOCKED: ATOM     26  C   UNL d   1      44.779  44.878  19.549 -0.33 -0.00    -0.018 A 
DOCKED: ATOM     27  C   UNL d   1      45.382  43.674  20.027 -0.27 +0.00    +0.003 A 
DOCKED: ATOM     28  C   UNL d   1      45.533  42.635  22.371 -0.12 -0.00    +0.052 C 
DOCKED: ATOM     29  C   UNL d   1      44.452  40.158  26.575 -0.12 +0.01    +0.046 C 
DOCKED: ATOM     30  C   UNL d   1      44.866  45.428  18.166 +0.06 -0.00    +0.046 C 
DOCKED: ATOM     31  H   UNL d   1      42.945  43.156  23.429 +0.01 -0.03    +0.166 HD
DOCKED: ATOM     32  H   UNL d   1      43.884  44.793  22.622 +0.04 -0.00    +0.166 HD
DOCKED: ENDROOT
DOCKED: BRANCH   7  33
DOCKED: ATOM     33  C   UNL d   1      40.931  48.564  20.220 -0.16 +0.03    +0.141 C 
DOCKED: BRANCH  33  34
DOCKED: ATOM     34  C   UNL d   1      40.050  47.498  19.626 -0.24 +0.06    +0.306 C 
DOCKED: ATOM     35  O   UNL d   1      40.156  47.014  18.512 -0.30 -0.05    -0.251 OA
DOCKED: BRANCH  34  36
DOCKED: ATOM     36  O   UNL d   1      39.083  47.096  20.470 -0.12 -0.09    -0.481 OA
DOCKED: ATOM     37  H   UNL d   1      38.832  47.906  20.962 +0.14 +0.05    +0.295 HD
DOCKED: ENDBRANCH  34  36
DOCKED: ENDBRANCH  33  34
DOCKED: ENDBRANCH   7  33
DOCKED: BRANCH  27  38
DOCKED: ATOM     38  C   UNL d   1      46.195  42.792  19.245 -0.22 -0.00    +0.017 C 
DOCKED: ATOM     39  C   UNL d   1      47.502  42.562  19.445 -0.13 -0.00    +0.092 C 
DOCKED: BRANCH  39  40
DOCKED: ATOM     40  C   UNL d   1      48.218  41.620  18.582 -0.07 -0.01    +0.330 C 
DOCKED: ATOM     41  O   UNL d   1      48.488  41.748  17.403 -0.11 +0.02    -0.246 OA
DOCKED: BRANCH  40  42
DOCKED: ATOM     42  O   UNL d   1      48.574  40.531  19.282 -0.00 -0.00    -0.477 OA
DOCKED: ATOM     43  H   UNL d   1      48.235  40.711  20.183 +0.05 -0.00    +0.295 HD
DOCKED: ENDBRANCH  40  42
DOCKED: ENDBRANCH  39  40
DOCKED: ENDBRANCH  27  38
DOCKED: BRANCH   8  44
DOCKED: ATOM     44  C   UNL d   1      38.324  44.822  26.525 -0.15 +0.01    +0.141 C 
DOCKED: BRANCH  44  45
DOCKED: ATOM     45  C   UNL d   1      38.853  44.468  27.890 -0.08 +0.04    +0.306 C 
DOCKED: ATOM     46  O   UNL d   1      39.911  44.830  28.375 -0.03 -0.04    -0.251 OA
DOCKED: BRANCH  45  47
DOCKED: ATOM     47  O   UNL d   1      38.027  43.649  28.566 -0.12 -0.05    -0.481 OA
DOCKED: ATOM     48  H   UNL d   1      37.828  42.924  27.936 -0.00 +0.02    +0.295 HD
DOCKED: ENDBRANCH  45  47
DOCKED: ENDBRANCH  44  45
DOCKED: ENDBRANCH   8  44
DOCKED: BRANCH  22  49
DOCKED: ATOM     49  C   UNL d   1      46.717  40.605  24.367 -0.06 -0.01    +0.048 C 
DOCKED: BRANCH  49  50
DOCKED: ATOM     50  C   UNL d   1      46.738  39.430  23.390 -0.09 -0.03    +0.125 C 
DOCKED: BRANCH  50  51
DOCKED: ATOM     51  C   UNL d   1      47.418  39.812  22.106 -0.02 -0.03    +0.305 C 
DOCKED: ATOM     52  O   UNL d   1      48.442  40.460  21.971 -0.01 +0.00    -0.251 OA
DOCKED: BRANCH  51  53
DOCKED: ATOM     53  O   UNL d   1      46.751  39.357  21.027 -0.02 +0.04    -0.481 OA
DOCKED: ATOM     54  H   UNL d   1      47.459  39.069  20.413 +0.06 -0.01    +0.295 HD
DOCKED: ENDBRANCH  51  53
DOCKED: ENDBRANCH  50  51
DOCKED: ENDBRANCH  49  50
DOCKED: ENDBRANCH  22  49
DOCKED: TORSDOF 13
DOCKED: TER
DOCKED: ENDMDL
________________________________________________________________________________


	BEGINNING GENETIC ALGORITHM DOCKING 71 of 100
Run: 71 Seed: 1632199956 2106439754 [ Run 71 of 100 GA/GALS ]
Beginning LAMARCKIAN GENETIC ALGORITHM (LGA), with a maximum of 25000000 energy evaluations.

Final-Value: -10.547


	FINAL GENETIC ALGORITHM DOCKED STATE
	_______________________________________________


Detailed state:  trans 6.479 15.295 20.119 quatxyzw -0.721845 -0.149991 -0.673039 0.058826 center 0.153 0.018 -0.028 ntor 13 159.3566 175.6678 -115.4930 12.7137 -143.1701 -19.6425 130.2933 29.4042 16.3128 -64.8043 -57.5674 -24.9246 -9.9691
State:	  6.479  15.295  20.119  -0.723 -0.150 -0.674 173.255    159.36  175.67 -115.49   12.71 -143.17  -19.64  130.29   29.40   16.31  -64.80  -57.57  -24.92   -9.97

DOCKED: MODEL       71
DOCKED: USER    Run = 71
DOCKED: USER    DPF = D:/Protein_go_brrr/autodock/final/2DN3/heme/dock.dpf
DOCKED: USER  
DOCKED: USER    Estimated Free Energy of Binding    =   -2.15 kcal/mol  [=(1)+(2)+(3)-(4)]
DOCKED: USER    Estimated Inhibition Constant, Ki   =   26.34 mM (millimolar)  [Temperature = 298.15 K]
DOCKED: USER    
DOCKED: USER    (1) Final Intermolecular Energy     =   -6.03 kcal/mol
DOCKED: USER        vdW + Hbond + desolv Energy     =   -5.90 kcal/mol
DOCKED: USER        Electrostatic Energy            =   -0.13 kcal/mol
DOCKED: USER    (2) Final Total Internal Energy     =   -4.51 kcal/mol
DOCKED: USER    (3) Torsional Free Energy           =   +3.88 kcal/mol
DOCKED: USER    (4) Unbound System's Energy  [=(2)] =   -4.51 kcal/mol
DOCKED: USER    
DOCKED: USER    
DOCKED: USER    NEWDPF move heme_opt.pdbqt
DOCKED: USER    NEWDPF about 0.153000 0.018000 -0.028000
DOCKED: USER    NEWDPF tran0 6.478860 15.295060 20.119039
DOCKED: USER    NEWDPF quaternion0 -0.721845 -0.149991 -0.673039 0.058826
DOCKED: USER    NEWDPF axisangle0 -0.723098 -0.150252 -0.674206 173.255113
DOCKED: USER    NEWDPF quat0 -0.723098 -0.150252 -0.674206 173.255113
DOCKED: USER    NEWDPF dihe0 159.36 175.67 -115.49 12.71 -143.17 -19.64 130.29 29.40 16.31 -64.80 -57.57 -24.92 -9.97 
DOCKED: USER  keepresnum = 1 
DOCKED: USER  
DOCKED: REMARK  13 active torsions:
DOCKED: REMARK  status: ('A' for Active; 'I' for Inactive)
DOCKED: REMARK    1  A    between atoms: O_3  and  C_38 
DOCKED: REMARK    2  A    between atoms: O_4  and  C_40 
DOCKED: REMARK    3  A    between atoms: O_7  and  C_46 
DOCKED: REMARK    4  A    between atoms: O_9  and  C_48 
DOCKED: REMARK    5  A    between atoms: C_15  and  C_20 
DOCKED: REMARK    6  A    between atoms: C_16  and  C_23 
DOCKED: REMARK    7  A    between atoms: C_20  and  C_38 
DOCKED: REMARK    8  A    between atoms: C_23  and  C_40 
DOCKED: REMARK    9  A    between atoms: C_32  and  C_41 
DOCKED: REMARK   10  A    between atoms: C_37  and  C_45 
DOCKED: REMARK   11  A    between atoms: C_41  and  C_44 
DOCKED: REMARK   12  A    between atoms: C_44  and  C_46 
DOCKED: REMARK   13  A    between atoms: C_47  and  C_48 
DOCKED: USER                              x       y       z     vdW  Elec       q    Type
DOCKED: USER                           _______ _______ _______ _____ _____    ______ ____
DOCKED: ROOT
DOCKED: ATOM      1  O   UNL d   1       7.077  12.110  15.194 -0.08 +0.04    -0.289 OA
DOCKED: ATOM      2  O   UNL d   1       4.121  18.919  16.332 -0.08 +0.00    -0.289 OA
DOCKED: ATOM      3  N   UNL d   1       6.819  13.536  18.324 -0.12 -0.19    -0.247 NA
DOCKED: ATOM      4  N   UNL d   1       5.835  16.279  17.746 -0.52 -0.21    -0.247 NA
DOCKED: ATOM      5  N   UNL d   1       6.504  16.989  20.451 -0.09 -0.14    -0.354 N 
DOCKED: ATOM      6  N   UNL d   1       7.541  14.145  21.036 -0.07 -0.15    -0.354 N 
DOCKED: ATOM      7  C   UNL d   1       7.844  11.496  17.432 -0.04 +0.02    +0.084 A 
DOCKED: ATOM      8  C   UNL d   1       4.560  16.599  15.687 -0.11 +0.00    +0.084 A 
DOCKED: ATOM      9  C   UNL d   1       5.395  15.682  16.586 -0.09 +0.02    +0.058 A 
DOCKED: ATOM     10  C   UNL d   1       7.546  12.398  18.633 -0.08 +0.03    +0.058 A 
DOCKED: ATOM     11  C   UNL d   1       7.141  12.315  16.392 -0.06 +0.05    +0.193 A 
DOCKED: ATOM     12  C   UNL d   1       6.539  13.512  17.062 -0.03 +0.07    +0.109 A 
DOCKED: ATOM     13  C   UNL d   1       4.638  17.838  16.533 -0.08 +0.02    +0.193 A 
DOCKED: ATOM     14  C   UNL d   1       9.338  11.453  17.102 -0.07 +0.01    +0.026 C 
DOCKED: ATOM     15  C   UNL d   1       5.712  14.423  16.245 -0.12 +0.02    +0.055 C 
DOCKED: ATOM     16  C   UNL d   1       3.099  16.145  15.613 -0.05 -0.00    +0.026 C 
DOCKED: ATOM     17  C   UNL d   1       5.445  17.513  17.749 -0.12 +0.05    +0.109 A 
DOCKED: ATOM     18  C   UNL d   1       7.895  12.042  19.884 -0.09 +0.02    +0.050 C 
DOCKED: ATOM     19  C   UNL d   1       7.588  12.770  21.062 -0.08 +0.01    +0.045 A 
DOCKED: ATOM     20  C   UNL d   1       6.229  18.232  19.943 -0.16 +0.01    +0.045 A 
DOCKED: ATOM     21  C   UNL d   1       5.728  18.556  18.747 -0.19 +0.02    +0.057 C 
DOCKED: ATOM     22  C   UNL d   1       7.066  18.467  22.055 -0.30 -0.00    -0.019 A 
DOCKED: ATOM     23  C   UNL d   1       7.013  17.029  21.722 -0.23 +0.01    +0.045 A 
DOCKED: ATOM     24  C   UNL d   1       6.599  19.173  20.999 -0.26 -0.00    -0.022 A 
DOCKED: ATOM     25  C   UNL d   1       7.318  14.645  22.298 -0.13 +0.01    +0.049 A 
DOCKED: ATOM     26  C   UNL d   1       7.354  12.364  22.366 -0.08 -0.00    -0.018 A 
DOCKED: ATOM     27  C   UNL d   1       7.164  13.551  23.139 -0.10 +0.00    +0.003 A 
DOCKED: ATOM     28  C   UNL d   1       7.383  16.042  22.552 -0.18 +0.01    +0.052 C 
DOCKED: ATOM     29  C   UNL d   1       6.446  20.649  20.858 -0.33 -0.00    +0.046 C 
DOCKED: ATOM     30  C   UNL d   1       7.306  10.960  22.867 -0.04 +0.00    +0.046 C 
DOCKED: ATOM     31  H   UNL d   1       6.264  16.146  19.940 +0.04 +0.09    +0.166 HD
DOCKED: ATOM     32  H   UNL d   1       7.693  14.696  20.199 +0.04 +0.12    +0.166 HD
DOCKED: ENDROOT
DOCKED: BRANCH   7  33
DOCKED: ATOM     33  C   UNL d   1       7.243  10.087  17.503 +0.00 +0.01    +0.141 C 
DOCKED: BRANCH  33  34
DOCKED: ATOM     34  C   UNL d   1       5.739  10.099  17.506 +0.01 +0.02    +0.306 C 
DOCKED: ATOM     35  O   UNL d   1       5.021  10.171  18.490 +0.00 -0.02    -0.251 OA
DOCKED: BRANCH  34  36
DOCKED: ATOM     36  O   UNL d   1       5.217  10.022  16.269 +0.01 -0.01    -0.481 OA
DOCKED: ATOM     37  H   UNL d   1       5.929  10.353  15.681 +0.01 -0.00    +0.295 HD
DOCKED: ENDBRANCH  34  36
DOCKED: ENDBRANCH  33  34
DOCKED: ENDBRANCH   7  33
DOCKED: BRANCH  27  38
DOCKED: ATOM     38  C   UNL d   1       6.910  13.587  24.548 -0.08 +0.00    +0.017 C 
DOCKED: ATOM     39  C   UNL d   1       6.514  14.668  25.236 -0.05 +0.01    +0.092 C 
DOCKED: BRANCH  39  40
DOCKED: ATOM     40  C   UNL d   1       6.270  14.568  26.677 -0.01 +0.01    +0.330 C 
DOCKED: ATOM     41  O   UNL d   1       6.026  13.566  27.322 -0.00 -0.01    -0.246 OA
DOCKED: BRANCH  40  42
DOCKED: ATOM     42  O   UNL d   1       6.360  15.780  27.246 +0.01 -0.01    -0.477 OA
DOCKED: ATOM     43  H   UNL d   1       6.638  16.364  26.511 +0.03 +0.01    +0.295 HD
DOCKED: ENDBRANCH  40  42
DOCKED: ENDBRANCH  39  40
DOCKED: ENDBRANCH  27  38
DOCKED: BRANCH   8  44
DOCKED: ATOM     44  C   UNL d   1       5.132  16.853  14.288 -0.24 -0.05    +0.141 C 
DOCKED: BRANCH  44  45
DOCKED: ATOM     45  C   UNL d   1       5.533  18.286  14.061 -0.25 -0.04    +0.306 C 
DOCKED: ATOM     46  O   UNL d   1       6.603  18.795  14.344 -0.51 -0.01    -0.251 OA
DOCKED: BRANCH  45  47
DOCKED: ATOM     47  O   UNL d   1       4.545  19.015  13.511 -0.35 +0.08    -0.481 OA
DOCKED: ATOM     48  H   UNL d   1       3.830  19.012  14.183 +0.00 -0.09    +0.295 HD
DOCKED: ENDBRANCH  45  47
DOCKED: ENDBRANCH  44  45
DOCKED: ENDBRANCH   8  44
DOCKED: BRANCH  22  49
DOCKED: ATOM     49  C   UNL d   1       7.576  19.011  23.357 -0.32 +0.00    +0.048 C 
DOCKED: BRANCH  49  50
DOCKED: ATOM     50  C   UNL d   1       6.448  19.219  24.368 -0.15 +0.01    +0.125 C 
DOCKED: BRANCH  50  51
DOCKED: ATOM     51  C   UNL d   1       6.717  18.458  25.635 -0.06 +0.01    +0.305 C 
DOCKED: ATOM     52  O   UNL d   1       7.794  18.082  26.062 -0.10 -0.01    -0.251 OA
DOCKED: BRANCH  51  53
DOCKED: ATOM     53  O   UNL d   1       5.583  18.191  26.313 +0.01 -0.01    -0.481 OA
DOCKED: ATOM     54  H   UNL d   1       5.896  17.885  27.190 +0.02 +0.01    +0.295 HD
DOCKED: ENDBRANCH  51  53
DOCKED: ENDBRANCH  50  51
DOCKED: ENDBRANCH  49  50
DOCKED: ENDBRANCH  22  49
DOCKED: TORSDOF 13
DOCKED: TER
DOCKED: ENDMDL
________________________________________________________________________________


	BEGINNING GENETIC ALGORITHM DOCKING 72 of 100
Run: 72 Seed: 271854290 1821264729 [ Run 72 of 100 GA/GALS ]
Beginning LAMARCKIAN GENETIC ALGORITHM (LGA), with a maximum of 25000000 energy evaluations.

Final-Value: -9.694


	FINAL GENETIC ALGORITHM DOCKED STATE
	_______________________________________________


Detailed state:  trans 4.861 23.120 21.930 quatxyzw -0.328545 0.388335 0.082059 0.857042 center 0.153 0.018 -0.028 ntor 13 -21.2686 112.9454 -175.6376 -63.3138 39.9208 -132.4624 139.3953 -64.7453 1.7927 -32.8558 148.0999 -175.2335 -178.4117
State:	  4.861  23.120  21.930  -0.638  0.754  0.159 62.028    -21.27  112.95 -175.64  -63.31   39.92 -132.46  139.40  -64.75    1.79  -32.86  148.10 -175.23 -178.41

DOCKED: MODEL       72
DOCKED: USER    Run = 72
DOCKED: USER    DPF = D:/Protein_go_brrr/autodock/final/2DN3/heme/dock.dpf
DOCKED: USER  
DOCKED: USER    Estimated Free Energy of Binding    =   -3.83 kcal/mol  [=(1)+(2)+(3)-(4)]
DOCKED: USER    Estimated Inhibition Constant, Ki   =    1.56 mM (millimolar)  [Temperature = 298.15 K]
DOCKED: USER    
DOCKED: USER    (1) Final Intermolecular Energy     =   -7.71 kcal/mol
DOCKED: USER        vdW + Hbond + desolv Energy     =   -7.60 kcal/mol
DOCKED: USER        Electrostatic Energy            =   -0.11 kcal/mol
DOCKED: USER    (2) Final Total Internal Energy     =   -1.99 kcal/mol
DOCKED: USER    (3) Torsional Free Energy           =   +3.88 kcal/mol
DOCKED: USER    (4) Unbound System's Energy  [=(2)] =   -1.99 kcal/mol
DOCKED: USER    
DOCKED: USER    
DOCKED: USER    NEWDPF move heme_opt.pdbqt
DOCKED: USER    NEWDPF about 0.153000 0.018000 -0.028000
DOCKED: USER    NEWDPF tran0 4.860980 23.120336 21.930223
DOCKED: USER    NEWDPF quaternion0 -0.328545 0.388335 0.082059 0.857042
DOCKED: USER    NEWDPF axisangle0 -0.637646 0.753687 0.159261 62.027961
DOCKED: USER    NEWDPF quat0 -0.637646 0.753687 0.159261 62.027961
DOCKED: USER    NEWDPF dihe0 -21.27 112.95 -175.64 -63.31 39.92 -132.46 139.40 -64.75 1.79 -32.86 148.10 -175.23 -178.41 
DOCKED: USER  keepresnum = 1 
DOCKED: USER  
DOCKED: REMARK  13 active torsions:
DOCKED: REMARK  status: ('A' for Active; 'I' for Inactive)
DOCKED: REMARK    1  A    between atoms: O_3  and  C_38 
DOCKED: REMARK    2  A    between atoms: O_4  and  C_40 
DOCKED: REMARK    3  A    between atoms: O_7  and  C_46 
DOCKED: REMARK    4  A    between atoms: O_9  and  C_48 
DOCKED: REMARK    5  A    between atoms: C_15  and  C_20 
DOCKED: REMARK    6  A    between atoms: C_16  and  C_23 
DOCKED: REMARK    7  A    between atoms: C_20  and  C_38 
DOCKED: REMARK    8  A    between atoms: C_23  and  C_40 
DOCKED: REMARK    9  A    between atoms: C_32  and  C_41 
DOCKED: REMARK   10  A    between atoms: C_37  and  C_45 
DOCKED: REMARK   11  A    between atoms: C_41  and  C_44 
DOCKED: REMARK   12  A    between atoms: C_44  and  C_46 
DOCKED: REMARK   13  A    between atoms: C_47  and  C_48 
DOCKED: USER                              x       y       z     vdW  Elec       q    Type
DOCKED: USER                           _______ _______ _______ _____ _____    ______ ____
DOCKED: ROOT
DOCKED: ATOM      1  O   UNL d   1       0.358  26.319  19.869 -0.01 +0.00    -0.289 OA
DOCKED: ATOM      2  O   UNL d   1       4.732  21.226  16.505 -0.21 +0.04    -0.289 OA
DOCKED: ATOM      3  N   UNL d   1       2.999  24.779  21.465 -0.09 +0.00    -0.247 NA
DOCKED: ATOM      4  N   UNL d   1       3.910  22.759  19.485 -0.02 +0.00    -0.247 NA
DOCKED: ATOM      5  N   UNL d   1       5.455  21.538  21.580 -0.04 +0.06    -0.354 N 
DOCKED: ATOM      6  N   UNL d   1       4.490  23.626  23.632 -0.06 +0.01    -0.354 N 
DOCKED: ATOM      7  C   UNL d   1       1.216  26.310  22.158 -0.02 -0.00    +0.084 A 
DOCKED: ATOM      8  C   UNL d   1       3.460  23.222  17.129 -0.22 -0.01    +0.084 A 
DOCKED: ATOM      9  C   UNL d   1       3.287  23.611  18.601 -0.12 -0.00    +0.058 A 
DOCKED: ATOM     10  C   UNL d   1       2.448  25.479  22.526 -0.09 +0.00    +0.058 A 
DOCKED: ATOM     11  C   UNL d   1       1.179  25.972  20.699 -0.01 -0.00    +0.193 A 
DOCKED: ATOM     12  C   UNL d   1       2.326  25.057  20.397 -0.08 -0.00    +0.109 A 
DOCKED: ATOM     13  C   UNL d   1       4.265  21.972  17.344 -0.17 -0.02    +0.193 A 
DOCKED: ATOM     14  C   UNL d   1      -0.057  25.777  22.822 -0.01 -0.00    +0.026 C 
DOCKED: ATOM     15  C   UNL d   1       2.548  24.661  18.992 -0.12 -0.00    +0.055 C 
DOCKED: ATOM     16  C   UNL d   1       4.321  24.238  16.371 -0.34 -0.00    +0.026 C 
DOCKED: ATOM     17  C   UNL d   1       4.462  21.800  18.815 -0.10 -0.00    +0.109 A 
DOCKED: ATOM     18  C   UNL d   1       2.979  25.517  23.762 -0.12 +0.00    +0.050 C 
DOCKED: ATOM     19  C   UNL d   1       4.162  24.850  24.170 -0.17 +0.00    +0.045 A 
DOCKED: ATOM     20  C   UNL d   1       5.580  20.581  20.607 -0.21 +0.00    +0.045 A 
DOCKED: ATOM     21  C   UNL d   1       5.184  20.627  19.331 -0.19 +0.00    +0.057 C 
DOCKED: ATOM     22  C   UNL d   1       6.496  19.788  22.543 -0.27 -0.00    -0.019 A 
DOCKED: ATOM     23  C   UNL d   1       5.979  21.150  22.784 -0.27 -0.00    +0.045 A 
DOCKED: ATOM     24  C   UNL d   1       6.259  19.458  21.252 -0.25 -0.00    -0.022 A 
DOCKED: ATOM     25  C   UNL d   1       5.620  23.121  24.232 -0.20 -0.00    +0.049 A 
DOCKED: ATOM     26  C   UNL d   1       5.124  25.166  25.117 -0.22 -0.00    -0.018 A 
DOCKED: ATOM     27  C   UNL d   1       6.053  24.080  25.138 -0.31 -0.00    +0.003 A 
DOCKED: ATOM     28  C   UNL d   1       6.065  21.800  23.955 -0.25 -0.00    +0.052 C 
DOCKED: ATOM     29  C   UNL d   1       6.604  18.199  20.532 -0.24 +0.01    +0.046 C 
DOCKED: ATOM     30  C   UNL d   1       5.180  26.401  25.951 -0.18 +0.00    +0.046 C 
DOCKED: ATOM     31  H   UNL d   1       5.080  22.457  21.370 -0.42 -0.05    +0.166 HD
DOCKED: ATOM     32  H   UNL d   1       3.937  23.159  22.923 -0.01 -0.01    +0.166 HD
DOCKED: ENDROOT
DOCKED: BRANCH   7  33
DOCKED: ATOM     33  C   UNL d   1       1.361  27.823  22.356 -0.05 -0.00    +0.141 C 
DOCKED: BRANCH  33  34
DOCKED: ATOM     34  C   UNL d   1       2.619  28.370  21.738 -0.09 -0.00    +0.306 C 
DOCKED: ATOM     35  O   UNL d   1       2.723  28.852  20.623 -0.15 +0.00    -0.251 OA
DOCKED: BRANCH  34  36
DOCKED: ATOM     36  O   UNL d   1       3.681  28.281  22.558 -0.13 +0.02    -0.481 OA
DOCKED: ATOM     37  H   UNL d   1       4.457  28.284  21.959 -0.27 -0.06    +0.295 HD
DOCKED: ENDBRANCH  34  36
DOCKED: ENDBRANCH  33  34
DOCKED: ENDBRANCH   7  33
DOCKED: BRANCH  27  38
DOCKED: ATOM     38  C   UNL d   1       7.200  23.992  25.991 -0.28 -0.00    +0.017 C 
DOCKED: ATOM     39  C   UNL d   1       7.231  24.339  27.286 -0.17 -0.01    +0.092 C 
DOCKED: BRANCH  39  40
DOCKED: ATOM     40  C   UNL d   1       8.468  24.183  28.055 -0.07 -0.03    +0.330 C 
DOCKED: ATOM     41  O   UNL d   1       8.598  23.710  29.168 -0.05 +0.00    -0.246 OA
DOCKED: BRANCH  40  42
DOCKED: ATOM     42  O   UNL d   1       9.512  24.641  27.347 -0.09 +0.08    -0.477 OA
DOCKED: ATOM     43  H   UNL d   1       9.582  24.012  26.599 -0.38 -0.14    +0.295 HD
DOCKED: ENDBRANCH  40  42
DOCKED: ENDBRANCH  39  40
DOCKED: ENDBRANCH  27  38
DOCKED: BRANCH   8  44
DOCKED: ATOM     44  C   UNL d   1       2.165  22.917  16.369 -0.18 -0.01    +0.141 C 
DOCKED: BRANCH  44  45
DOCKED: ATOM     45  C   UNL d   1       1.667  21.513  16.584 -0.09 -0.03    +0.306 C 
DOCKED: ATOM     46  O   UNL d   1       0.836  21.153  17.400 -0.03 +0.01    -0.251 OA
DOCKED: BRANCH  45  47
DOCKED: ATOM     47  O   UNL d   1       2.267  20.624  15.771 -0.08 +0.09    -0.481 OA
DOCKED: ATOM     48  H   UNL d   1       2.933  21.149  15.278 -0.11 -0.08    +0.295 HD
DOCKED: ENDBRANCH  45  47
DOCKED: ENDBRANCH  44  45
DOCKED: ENDBRANCH   8  44
DOCKED: BRANCH  22  49
DOCKED: ATOM     49  C   UNL d   1       7.155  18.939  23.590 -0.29 +0.00    +0.048 C 
DOCKED: BRANCH  49  50
DOCKED: ATOM     50  C   UNL d   1       6.181  17.935  24.204 -0.09 +0.01    +0.125 C 
DOCKED: BRANCH  50  51
DOCKED: ATOM     51  C   UNL d   1       4.782  18.482  24.216 -0.01 +0.01    +0.305 C 
DOCKED: ATOM     52  O   UNL d   1       4.341  19.379  24.912 -0.01 -0.00    -0.251 OA
DOCKED: BRANCH  51  53
DOCKED: ATOM     53  O   UNL d   1       3.985  17.847  23.334 +0.01 -0.02    -0.481 OA
DOCKED: ATOM     54  H   UNL d   1       3.306  17.416  23.894 +0.01 +0.01    +0.295 HD
DOCKED: ENDBRANCH  51  53
DOCKED: ENDBRANCH  50  51
DOCKED: ENDBRANCH  49  50
DOCKED: ENDBRANCH  22  49
DOCKED: TORSDOF 13
DOCKED: TER
DOCKED: ENDMDL
________________________________________________________________________________


	BEGINNING GENETIC ALGORITHM DOCKING 73 of 100
Run: 73 Seed: 1814656488 1714304001 [ Run 73 of 100 GA/GALS ]
Beginning LAMARCKIAN GENETIC ALGORITHM (LGA), with a maximum of 25000000 energy evaluations.

Final-Value: -11.631


	FINAL GENETIC ALGORITHM DOCKED STATE
	_______________________________________________


Detailed state:  trans 16.482 16.319 1.641 quatxyzw -0.688446 0.391382 0.437230 -0.426253 center 0.153 0.018 -0.028 ntor 13 -115.2626 132.9253 -85.6150 -13.2551 40.4486 -21.5031 142.7706 141.6064 138.4602 -83.3161 -46.2157 -40.7849 -8.5722
State:	 16.482  16.319   1.641  -0.761  0.433  0.483 -129.540   -115.26  132.93  -85.61  -13.26   40.45  -21.50  142.77  141.61  138.46  -83.32  -46.22  -40.78   -8.57

DOCKED: MODEL       73
DOCKED: USER    Run = 73
DOCKED: USER    DPF = D:/Protein_go_brrr/autodock/final/2DN3/heme/dock.dpf
DOCKED: USER  
DOCKED: USER    Estimated Free Energy of Binding    =   -4.28 kcal/mol  [=(1)+(2)+(3)-(4)]
DOCKED: USER    Estimated Inhibition Constant, Ki   =  733.04 uM (micromolar)  [Temperature = 298.15 K]
DOCKED: USER    
DOCKED: USER    (1) Final Intermolecular Energy     =   -8.15 kcal/mol
DOCKED: USER        vdW + Hbond + desolv Energy     =   -7.92 kcal/mol
DOCKED: USER        Electrostatic Energy            =   -0.23 kcal/mol
DOCKED: USER    (2) Final Total Internal Energy     =   -3.48 kcal/mol
DOCKED: USER    (3) Torsional Free Energy           =   +3.88 kcal/mol
DOCKED: USER    (4) Unbound System's Energy  [=(2)] =   -3.48 kcal/mol
DOCKED: USER    
DOCKED: USER    
DOCKED: USER    NEWDPF move heme_opt.pdbqt
DOCKED: USER    NEWDPF about 0.153000 0.018000 -0.028000
DOCKED: USER    NEWDPF tran0 16.482306 16.319160 1.640606
DOCKED: USER    NEWDPF quaternion0 -0.688446 0.391382 0.437230 -0.426253
DOCKED: USER    NEWDPF axisangle0 -0.761047 0.432656 0.483339 -129.539941
DOCKED: USER    NEWDPF quat0 -0.761047 0.432656 0.483339 -129.539941
DOCKED: USER    NEWDPF dihe0 -115.26 132.93 -85.61 -13.26 40.45 -21.50 142.77 141.61 138.46 -83.32 -46.22 -40.78 -8.57 
DOCKED: USER  keepresnum = 1 
DOCKED: USER  
DOCKED: REMARK  13 active torsions:
DOCKED: REMARK  status: ('A' for Active; 'I' for Inactive)
DOCKED: REMARK    1  A    between atoms: O_3  and  C_38 
DOCKED: REMARK    2  A    between atoms: O_4  and  C_40 
DOCKED: REMARK    3  A    between atoms: O_7  and  C_46 
DOCKED: REMARK    4  A    between atoms: O_9  and  C_48 
DOCKED: REMARK    5  A    between atoms: C_15  and  C_20 
DOCKED: REMARK    6  A    between atoms: C_16  and  C_23 
DOCKED: REMARK    7  A    between atoms: C_20  and  C_38 
DOCKED: REMARK    8  A    between atoms: C_23  and  C_40 
DOCKED: REMARK    9  A    between atoms: C_32  and  C_41 
DOCKED: REMARK   10  A    between atoms: C_37  and  C_45 
DOCKED: REMARK   11  A    between atoms: C_41  and  C_44 
DOCKED: REMARK   12  A    between atoms: C_44  and  C_46 
DOCKED: REMARK   13  A    between atoms: C_47  and  C_48 
DOCKED: USER                              x       y       z     vdW  Elec       q    Type
DOCKED: USER                           _______ _______ _______ _____ _____    ______ ____
DOCKED: ROOT
DOCKED: ATOM      1  O   UNL d   1      13.022  17.296   6.313 -0.22 -0.30    -0.289 OA
DOCKED: ATOM      2  O   UNL d   1      20.497  16.894   5.714 -0.01 -0.07    -0.289 OA
DOCKED: ATOM      3  N   UNL d   1      14.621  16.558   3.347 -0.03 -0.04    -0.247 NA
DOCKED: ATOM      4  N   UNL d   1      17.495  16.922   4.012 -0.05 -0.05    -0.247 NA
DOCKED: ATOM      5  N   UNL d   1      18.059  16.861   1.194 -0.07 -0.03    -0.354 N 
DOCKED: ATOM      6  N   UNL d   1      15.074  16.503   0.512 -0.07 -0.03    -0.354 N 
DOCKED: ATOM      7  C   UNL d   1      12.297  16.983   3.999 -0.22 +0.03    +0.084 A 
DOCKED: ATOM      8  C   UNL d   1      18.148  16.625   6.348 -0.14 +0.05    +0.084 A 
DOCKED: ATOM      9  C   UNL d   1      17.039  16.706   5.294 -0.13 +0.03    +0.058 A 
DOCKED: ATOM     10  C   UNL d   1      13.315  16.660   2.901 -0.15 +0.01    +0.058 A 
DOCKED: ATOM     11  C   UNL d   1      13.258  17.027   5.149 -0.14 +0.12    +0.193 A 
DOCKED: ATOM     12  C   UNL d   1      14.630  16.728   4.629 -0.12 +0.05    +0.109 A 
DOCKED: ATOM     13  C   UNL d   1      19.314  16.872   5.433 -0.03 +0.06    +0.193 A 
DOCKED: ATOM     14  C   UNL d   1      11.677  18.371   3.818 -0.47 +0.01    +0.026 C 
DOCKED: ATOM     15  C   UNL d   1      15.736  16.625   5.603 -0.16 +0.06    +0.055 C 
DOCKED: ATOM     16  C   UNL d   1      18.272  15.215   6.935 -0.16 +0.02    +0.026 C 
DOCKED: ATOM     17  C   UNL d   1      18.783  17.043   4.047 -0.08 +0.02    +0.109 A 
DOCKED: ATOM     18  C   UNL d   1      12.928  16.412   1.635 -0.23 +0.01    +0.050 C 
DOCKED: ATOM     19  C   UNL d   1      13.785  16.023   0.575 -0.18 +0.01    +0.045 A 
DOCKED: ATOM     20  C   UNL d   1      19.282  17.256   1.670 -0.03 +0.00    +0.045 A 
DOCKED: ATOM     21  C   UNL d   1      19.699  17.343   2.937 -0.09 +0.01    +0.057 C 
DOCKED: ATOM     22  C   UNL d   1      19.310  17.362  -0.611 -0.17 +0.00    -0.019 A 
DOCKED: ATOM     23  C   UNL d   1      17.980  16.893  -0.173 -0.18 +0.00    +0.045 A 
DOCKED: ATOM     24  C   UNL d   1      20.076  17.575   0.484 -0.11 -0.00    -0.022 A 
DOCKED: ATOM     25  C   UNL d   1      15.694  16.075  -0.639 -0.18 +0.00    +0.049 A 
DOCKED: ATOM     26  C   UNL d   1      13.575  15.233  -0.545 -0.17 -0.00    -0.018 A 
DOCKED: ATOM     27  C   UNL d   1      14.789  15.253  -1.297 -0.15 +0.00    +0.003 A 
DOCKED: ATOM     28  C   UNL d   1      16.977  16.567  -1.003 -0.21 +0.00    +0.052 C 
DOCKED: ATOM     29  C   UNL d   1      21.491  18.039   0.557 -0.06 +0.00    +0.046 C 
DOCKED: ATOM     30  C   UNL d   1      12.323  14.502  -0.895 -0.15 +0.03    +0.046 C 
DOCKED: ATOM     31  H   UNL d   1      17.340  16.511   1.817 -0.02 +0.01    +0.166 HD
DOCKED: ATOM     32  H   UNL d   1      15.477  17.120   1.208 -0.19 -0.01    +0.166 HD
DOCKED: ENDROOT
DOCKED: BRANCH   7  33
DOCKED: ATOM     33  C   UNL d   1      11.224  15.914   4.236 -0.21 +0.05    +0.141 C 
DOCKED: BRANCH  33  34
DOCKED: ATOM     34  C   UNL d   1      10.175  16.355   5.220 -0.25 +0.13    +0.306 C 
DOCKED: ATOM     35  O   UNL d   1       9.103  16.869   4.948 -0.74 -0.16    -0.251 OA
DOCKED: BRANCH  34  36
DOCKED: ATOM     36  O   UNL d   1      10.531  16.124   6.496 -0.24 -0.19    -0.481 OA
DOCKED: ATOM     37  H   UNL d   1      11.336  16.669   6.631 +0.17 +0.17    +0.295 HD
DOCKED: ENDBRANCH  34  36
DOCKED: ENDBRANCH  33  34
DOCKED: ENDBRANCH   7  33
DOCKED: BRANCH  27  38
DOCKED: ATOM     38  C   UNL d   1      15.001  14.576  -2.541 -0.14 +0.00    +0.017 C 
DOCKED: ATOM     39  C   UNL d   1      16.113  14.657  -3.287 -0.12 -0.02    +0.092 C 
DOCKED: BRANCH  39  40
DOCKED: ATOM     40  C   UNL d   1      16.211  13.897  -4.536 -0.04 -0.11    +0.330 C 
DOCKED: ATOM     41  O   UNL d   1      15.602  12.890  -4.844 -0.02 +0.04    -0.246 OA
DOCKED: BRANCH  40  42
DOCKED: ATOM     42  O   UNL d   1      17.098  14.475  -5.360 -0.03 +0.39    -0.477 OA
DOCKED: ATOM     43  H   UNL d   1      16.854  15.424  -5.339 -0.23 -0.44    +0.295 HD
DOCKED: ENDBRANCH  40  42
DOCKED: ENDBRANCH  39  40
DOCKED: ENDBRANCH  27  38
DOCKED: BRANCH   8  44
DOCKED: ATOM     44  C   UNL d   1      18.085  17.682   7.455 -0.24 +0.12    +0.141 C 
DOCKED: BRANCH  44  45
DOCKED: ATOM     45  C   UNL d   1      19.411  18.344   7.720 -0.13 +0.15    +0.306 C 
DOCKED: ATOM     46  O   UNL d   1      19.782  19.424   7.294 -0.11 -0.08    -0.251 OA
DOCKED: BRANCH  45  47
DOCKED: ATOM     47  O   UNL d   1      20.216  17.593   8.492 -0.41 -0.26    -0.481 OA
DOCKED: ATOM     48  H   UNL d   1      20.766  17.085   7.858 +0.06 +0.11    +0.295 HD
DOCKED: ENDBRANCH  45  47
DOCKED: ENDBRANCH  44  45
DOCKED: ENDBRANCH   8  44
DOCKED: BRANCH  22  49
DOCKED: ATOM     49  C   UNL d   1      19.699  17.572  -2.045 -0.18 -0.01    +0.048 C 
DOCKED: BRANCH  49  50
DOCKED: ATOM     50  C   UNL d   1      20.343  16.324  -2.648 -0.09 -0.02    +0.125 C 
DOCKED: BRANCH  50  51
DOCKED: ATOM     51  C   UNL d   1      19.778  16.033  -4.010 -0.09 -0.11    +0.305 C 
DOCKED: ATOM     52  O   UNL d   1      20.390  15.725  -5.018 -0.07 +0.10    -0.251 OA
DOCKED: BRANCH  51  53
DOCKED: ATOM     53  O   UNL d   1      18.437  16.162  -4.038 -0.06 +0.29    -0.481 OA
DOCKED: ATOM     54  H   UNL d   1      18.218  16.174  -4.993 -0.39 -0.39    +0.295 HD
DOCKED: ENDBRANCH  51  53
DOCKED: ENDBRANCH  50  51
DOCKED: ENDBRANCH  49  50
DOCKED: ENDBRANCH  22  49
DOCKED: TORSDOF 13
DOCKED: TER
DOCKED: ENDMDL
________________________________________________________________________________


	BEGINNING GENETIC ALGORITHM DOCKING 74 of 100
Run: 74 Seed: 1152567829 438757450 [ Run 74 of 100 GA/GALS ]
Beginning LAMARCKIAN GENETIC ALGORITHM (LGA), with a maximum of 25000000 energy evaluations.

Final-Value: -9.289


	FINAL GENETIC ALGORITHM DOCKED STATE
	_______________________________________________


Detailed state:  trans 44.999 33.572 -1.428 quatxyzw -0.168830 -0.255296 0.901904 0.304777 center 0.153 0.018 -0.028 ntor 13 104.6120 13.6768 180.0000 -88.8942 12.6506 -146.6467 143.6887 -125.9383 -141.1211 -11.8031 78.4921 -92.7104 -173.3490
State:	 44.999  33.572  -1.428  -0.177 -0.268  0.947 144.510    104.61   13.68  180.00  -88.89   12.65 -146.65  143.69 -125.94 -141.12  -11.80   78.49  -92.71 -173.35

DOCKED: MODEL       74
DOCKED: USER    Run = 74
DOCKED: USER    DPF = D:/Protein_go_brrr/autodock/final/2DN3/heme/dock.dpf
DOCKED: USER  
DOCKED: USER    Estimated Free Energy of Binding    =   -3.58 kcal/mol  [=(1)+(2)+(3)-(4)]
DOCKED: USER    Estimated Inhibition Constant, Ki   =    2.39 mM (millimolar)  [Temperature = 298.15 K]
DOCKED: USER    
DOCKED: USER    (1) Final Intermolecular Energy     =   -7.45 kcal/mol
DOCKED: USER        vdW + Hbond + desolv Energy     =   -7.20 kcal/mol
DOCKED: USER        Electrostatic Energy            =   -0.25 kcal/mol
DOCKED: USER    (2) Final Total Internal Energy     =   -1.84 kcal/mol
DOCKED: USER    (3) Torsional Free Energy           =   +3.88 kcal/mol
DOCKED: USER    (4) Unbound System's Energy  [=(2)] =   -1.84 kcal/mol
DOCKED: USER    
DOCKED: USER    
DOCKED: USER    NEWDPF move heme_opt.pdbqt
DOCKED: USER    NEWDPF about 0.153000 0.018000 -0.028000
DOCKED: USER    NEWDPF tran0 44.999483 33.571754 -1.427837
DOCKED: USER    NEWDPF quaternion0 -0.168830 -0.255296 0.901904 0.304777
DOCKED: USER    NEWDPF axisangle0 -0.177263 -0.268049 0.946957 144.510457
DOCKED: USER    NEWDPF quat0 -0.177263 -0.268049 0.946957 144.510457
DOCKED: USER    NEWDPF dihe0 104.61 13.68 180.00 -88.89 12.65 -146.65 143.69 -125.94 -141.12 -11.80 78.49 -92.71 -173.35 
DOCKED: USER  keepresnum = 1 
DOCKED: USER  
DOCKED: REMARK  13 active torsions:
DOCKED: REMARK  status: ('A' for Active; 'I' for Inactive)
DOCKED: REMARK    1  A    between atoms: O_3  and  C_38 
DOCKED: REMARK    2  A    between atoms: O_4  and  C_40 
DOCKED: REMARK    3  A    between atoms: O_7  and  C_46 
DOCKED: REMARK    4  A    between atoms: O_9  and  C_48 
DOCKED: REMARK    5  A    between atoms: C_15  and  C_20 
DOCKED: REMARK    6  A    between atoms: C_16  and  C_23 
DOCKED: REMARK    7  A    between atoms: C_20  and  C_38 
DOCKED: REMARK    8  A    between atoms: C_23  and  C_40 
DOCKED: REMARK    9  A    between atoms: C_32  and  C_41 
DOCKED: REMARK   10  A    between atoms: C_37  and  C_45 
DOCKED: REMARK   11  A    between atoms: C_41  and  C_44 
DOCKED: REMARK   12  A    between atoms: C_44  and  C_46 
DOCKED: REMARK   13  A    between atoms: C_47  and  C_48 
DOCKED: USER                              x       y       z     vdW  Elec       q    Type
DOCKED: USER                           _______ _______ _______ _____ _____    ______ ____
DOCKED: ROOT
DOCKED: ATOM      1  O   UNL d   1      50.226  34.653   1.077 -0.08 -0.09    -0.289 OA
DOCKED: ATOM      2  O   UNL d   1      44.165  39.007   0.245 -0.05 -0.05    -0.289 OA
DOCKED: ATOM      3  N   UNL d   1      47.398  33.617  -0.604 -0.06 +0.01    -0.247 NA
DOCKED: ATOM      4  N   UNL d   1      45.481  35.842  -0.153 -0.10 -0.03    -0.247 NA
DOCKED: ATOM      5  N   UNL d   1      43.392  34.113  -1.108 -0.05 -0.02    -0.354 N 
DOCKED: ATOM      6  N   UNL d   1      45.384  31.804  -1.555 -0.11 +0.05    -0.354 N 
DOCKED: ATOM      7  C   UNL d   1      49.491  32.543   0.085 -0.19 +0.02    +0.084 A 
DOCKED: ATOM      8  C   UNL d   1      46.421  38.058   0.269 -0.08 +0.02    +0.084 A 
DOCKED: ATOM      9  C   UNL d   1      46.640  36.556   0.057 -0.14 +0.01    +0.058 A 
DOCKED: ATOM     10  C   UNL d   1      48.125  32.438  -0.600 -0.24 +0.00    +0.058 A 
DOCKED: ATOM     11  C   UNL d   1      49.415  33.995   0.451 -0.11 +0.04    +0.193 A 
DOCKED: ATOM     12  C   UNL d   1      48.110  34.539  -0.043 -0.16 +0.01    +0.109 A 
DOCKED: ATOM     13  C   UNL d   1      44.921  38.058   0.178 -0.07 +0.04    +0.193 A 
DOCKED: ATOM     14  C   UNL d   1      49.555  31.711   1.368 -0.39 +0.01    +0.026 C 
DOCKED: ATOM     15  C   UNL d   1      47.851  35.983   0.123 -0.14 +0.01    +0.055 C 
DOCKED: ATOM     16  C   UNL d   1      46.985  38.884  -0.891 -0.03 +0.00    +0.026 C 
DOCKED: ATOM     17  C   UNL d   1      44.476  36.654  -0.072 -0.07 +0.02    +0.109 A 
DOCKED: ATOM     18  C   UNL d   1      47.732  31.307  -1.216 -0.30 -0.00    +0.050 C 
DOCKED: ATOM     19  C   UNL d   1      46.527  31.144  -1.945 -0.22 -0.00    +0.045 A 
DOCKED: ATOM     20  C   UNL d   1      42.637  35.152  -0.627 -0.04 +0.01    +0.045 A 
DOCKED: ATOM     21  C   UNL d   1      43.043  36.339  -0.166 -0.05 +0.01    +0.057 C 
DOCKED: ATOM     22  C   UNL d   1      41.244  33.448  -1.239 -0.17 -0.00    -0.019 A 
DOCKED: ATOM     23  C   UNL d   1      42.639  33.039  -1.501 -0.18 +0.00    +0.045 A 
DOCKED: ATOM     24  C   UNL d   1      41.250  34.700  -0.723 -0.19 -0.00    -0.022 A 
DOCKED: ATOM     25  C   UNL d   1      44.319  31.432  -2.342 -0.18 -0.00    +0.049 A 
DOCKED: ATOM     26  C   UNL d   1      46.205  30.352  -3.037 -0.16 +0.00    -0.018 A 
DOCKED: ATOM     27  C   UNL d   1      44.814  30.553  -3.295 -0.13 +0.00    +0.003 A 
DOCKED: ATOM     28  C   UNL d   1      42.999  31.861  -2.033 -0.18 +0.00    +0.052 C 
DOCKED: ATOM     29  C   UNL d   1      40.092  35.543  -0.309 -0.19 +0.01    +0.046 C 
DOCKED: ATOM     30  C   UNL d   1      47.131  29.464  -3.797 -0.16 +0.00    +0.046 C 
DOCKED: ATOM     31  H   UNL d   1      44.396  34.201  -1.221 -0.18 -0.01    +0.166 HD
DOCKED: ATOM     32  H   UNL d   1      45.345  32.439  -0.767 -0.37 -0.07    +0.166 HD
DOCKED: ENDROOT
DOCKED: BRANCH   7  33
DOCKED: ATOM     33  C   UNL d   1      50.701  32.279  -0.818 -0.07 +0.03    +0.141 C 
DOCKED: BRANCH  33  34
DOCKED: ATOM     34  C   UNL d   1      51.153  30.844  -0.776 -0.08 +0.08    +0.306 C 
DOCKED: ATOM     35  O   UNL d   1      50.531  29.880  -1.191 -0.16 -0.07    -0.251 OA
DOCKED: BRANCH  34  36
DOCKED: ATOM     36  O   UNL d   1      52.366  30.699  -0.214 -0.01 -0.15    -0.481 OA
DOCKED: ATOM     37  H   UNL d   1      52.996  30.970  -0.916 +0.05 +0.07    +0.295 HD
DOCKED: ENDBRANCH  34  36
DOCKED: ENDBRANCH  33  34
DOCKED: ENDBRANCH   7  33
DOCKED: BRANCH  27  38
DOCKED: ATOM     38  C   UNL d   1      44.066  29.910  -4.333 -0.06 +0.00    +0.017 C 
DOCKED: ATOM     39  C   UNL d   1      42.954  29.182  -4.149 -0.05 +0.01    +0.092 C 
DOCKED: BRANCH  39  40
DOCKED: ATOM     40  C   UNL d   1      42.270  28.590  -5.302 -0.00 +0.03    +0.330 C 
DOCKED: ATOM     41  O   UNL d   1      41.080  28.378  -5.432 -0.00 -0.02    -0.246 OA
DOCKED: BRANCH  40  42
DOCKED: ATOM     42  O   UNL d   1      43.158  28.295  -6.264 +0.00 -0.04    -0.477 OA
DOCKED: ATOM     43  H   UNL d   1      42.603  28.123  -7.051 +0.00 +0.02    +0.295 HD
DOCKED: ENDBRANCH  40  42
DOCKED: ENDBRANCH  39  40
DOCKED: ENDBRANCH  27  38
DOCKED: BRANCH   8  44
DOCKED: ATOM     44  C   UNL d   1      46.888  38.609   1.621 -0.14 +0.04    +0.141 C 
DOCKED: BRANCH  44  45
DOCKED: ATOM     45  C   UNL d   1      46.173  37.992   2.793 -0.16 +0.14    +0.306 C 
DOCKED: ATOM     46  O   UNL d   1      46.589  37.097   3.509 -0.34 -0.18    -0.251 OA
DOCKED: BRANCH  45  47
DOCKED: ATOM     47  O   UNL d   1      44.951  38.520   2.987 -0.29 -0.20    -0.481 OA
DOCKED: ATOM     48  H   UNL d   1      44.862  39.202   2.288 +0.12 +0.09    +0.295 HD
DOCKED: ENDBRANCH  45  47
DOCKED: ENDBRANCH  44  45
DOCKED: ENDBRANCH   8  44
DOCKED: BRANCH  22  49
DOCKED: ATOM     49  C   UNL d   1      40.049  32.579  -1.500 -0.12 +0.00    +0.048 C 
DOCKED: BRANCH  49  50
DOCKED: ATOM     50  C   UNL d   1      39.493  31.974  -0.211 -0.23 +0.01    +0.125 C 
DOCKED: BRANCH  50  51
DOCKED: ATOM     51  C   UNL d   1      39.940  30.548  -0.052 -0.17 +0.00    +0.305 C 
DOCKED: ATOM     52  O   UNL d   1      39.255  29.582   0.232 -0.25 -0.02    -0.251 OA
DOCKED: BRANCH  51  53
DOCKED: ATOM     53  O   UNL d   1      41.266  30.411  -0.250 -0.12 +0.02    -0.481 OA
DOCKED: ATOM     54  H   UNL d   1      41.654  30.528   0.642 -0.38 -0.10    +0.295 HD
DOCKED: ENDBRANCH  51  53
DOCKED: ENDBRANCH  50  51
DOCKED: ENDBRANCH  49  50
DOCKED: ENDBRANCH  22  49
DOCKED: TORSDOF 13
DOCKED: TER
DOCKED: ENDMDL
________________________________________________________________________________


	BEGINNING GENETIC ALGORITHM DOCKING 75 of 100
Run: 75 Seed: 1276764256 1753271223 [ Run 75 of 100 GA/GALS ]
Beginning LAMARCKIAN GENETIC ALGORITHM (LGA), with a maximum of 25000000 energy evaluations.

Final-Value: -9.766


	FINAL GENETIC ALGORITHM DOCKED STATE
	_______________________________________________


Detailed state:  trans 24.975 37.838 -4.835 quatxyzw -0.292584 -0.918980 0.127400 0.231604 center 0.153 0.018 -0.028 ntor 13 179.8102 -167.5702 142.1489 113.2500 -152.0491 -66.7668 -22.1770 30.6197 15.4837 143.3852 62.7403 -37.5707 144.7681
State:	 24.975  37.838  -4.835  -0.301 -0.945  0.131 153.217    179.81 -167.57  142.15  113.25 -152.05  -66.77  -22.18   30.62   15.48  143.39   62.74  -37.57  144.77

DOCKED: MODEL       75
DOCKED: USER    Run = 75
DOCKED: USER    DPF = D:/Protein_go_brrr/autodock/final/2DN3/heme/dock.dpf
DOCKED: USER  
DOCKED: USER    Estimated Free Energy of Binding    =   -3.28 kcal/mol  [=(1)+(2)+(3)-(4)]
DOCKED: USER    Estimated Inhibition Constant, Ki   =    3.92 mM (millimolar)  [Temperature = 298.15 K]
DOCKED: USER    
DOCKED: USER    (1) Final Intermolecular Energy     =   -7.16 kcal/mol
DOCKED: USER        vdW + Hbond + desolv Energy     =   -6.65 kcal/mol
DOCKED: USER        Electrostatic Energy            =   -0.51 kcal/mol
DOCKED: USER    (2) Final Total Internal Energy     =   -2.60 kcal/mol
DOCKED: USER    (3) Torsional Free Energy           =   +3.88 kcal/mol
DOCKED: USER    (4) Unbound System's Energy  [=(2)] =   -2.60 kcal/mol
DOCKED: USER    
DOCKED: USER    
DOCKED: USER    NEWDPF move heme_opt.pdbqt
DOCKED: USER    NEWDPF about 0.153000 0.018000 -0.028000
DOCKED: USER    NEWDPF tran0 24.974914 37.837857 -4.835150
DOCKED: USER    NEWDPF quaternion0 -0.292584 -0.918980 0.127400 0.231604
DOCKED: USER    NEWDPF axisangle0 -0.300761 -0.944665 0.130960 153.216958
DOCKED: USER    NEWDPF quat0 -0.300761 -0.944665 0.130960 153.216958
DOCKED: USER    NEWDPF dihe0 179.81 -167.57 142.15 113.25 -152.05 -66.77 -22.18 30.62 15.48 143.39 62.74 -37.57 144.77 
DOCKED: USER  keepresnum = 1 
DOCKED: USER  
DOCKED: REMARK  13 active torsions:
DOCKED: REMARK  status: ('A' for Active; 'I' for Inactive)
DOCKED: REMARK    1  A    between atoms: O_3  and  C_38 
DOCKED: REMARK    2  A    between atoms: O_4  and  C_40 
DOCKED: REMARK    3  A    between atoms: O_7  and  C_46 
DOCKED: REMARK    4  A    between atoms: O_9  and  C_48 
DOCKED: REMARK    5  A    between atoms: C_15  and  C_20 
DOCKED: REMARK    6  A    between atoms: C_16  and  C_23 
DOCKED: REMARK    7  A    between atoms: C_20  and  C_38 
DOCKED: REMARK    8  A    between atoms: C_23  and  C_40 
DOCKED: REMARK    9  A    between atoms: C_32  and  C_41 
DOCKED: REMARK   10  A    between atoms: C_37  and  C_45 
DOCKED: REMARK   11  A    between atoms: C_41  and  C_44 
DOCKED: REMARK   12  A    between atoms: C_44  and  C_46 
DOCKED: REMARK   13  A    between atoms: C_47  and  C_48 
DOCKED: USER                              x       y       z     vdW  Elec       q    Type
DOCKED: USER                           _______ _______ _______ _____ _____    ______ ____
DOCKED: ROOT
DOCKED: ATOM      1  O   UNL d   1      30.259  36.257  -2.752 -0.00 -0.05    -0.289 OA
DOCKED: ATOM      2  O   UNL d   1      23.446  33.291  -1.670 -0.27 +0.07    -0.289 OA
DOCKED: ATOM      3  N   UNL d   1      27.391  37.626  -4.092 -0.08 -0.02    -0.247 NA
DOCKED: ATOM      4  N   UNL d   1      25.295  35.640  -3.394 -0.15 +0.01    -0.247 NA
DOCKED: ATOM      5  N   UNL d   1      23.553  36.958  -5.263 -0.06 -0.01    -0.354 N 
DOCKED: ATOM      6  N   UNL d   1      25.739  39.004  -5.996 -0.07 -0.04    -0.354 N 
DOCKED: ATOM      7  C   UNL d   1      29.789  38.087  -4.303 -0.02 +0.01    +0.084 A 
DOCKED: ATOM      8  C   UNL d   1      25.684  34.249  -1.422 -0.22 +0.00    +0.084 A 
DOCKED: ATOM      9  C   UNL d   1      26.197  35.302  -2.411 -0.19 +0.00    +0.058 A 
DOCKED: ATOM     10  C   UNL d   1      28.347  38.426  -4.695 -0.06 +0.01    +0.058 A 
DOCKED: ATOM     11  C   UNL d   1      29.476  36.967  -3.357 -0.02 +0.02    +0.193 A 
DOCKED: ATOM     12  C   UNL d   1      27.989  36.802  -3.296 -0.09 +0.01    +0.109 A 
DOCKED: ATOM     13  C   UNL d   1      24.337  34.025  -2.049 -0.27 -0.03    +0.193 A 
DOCKED: ATOM     14  C   UNL d   1      30.589  37.531  -5.483 -0.01 +0.00    +0.026 C 
DOCKED: ATOM     15  C   UNL d   1      27.438  35.810  -2.350 -0.14 +0.01    +0.055 C 
DOCKED: ATOM     16  C   UNL d   1      25.484  34.835  -0.022 -0.20 +0.00    +0.026 C 
DOCKED: ATOM     17  C   UNL d   1      24.229  34.922  -3.239 -0.26 -0.01    +0.109 A 
DOCKED: ATOM     18  C   UNL d   1      28.063  39.475  -5.489 -0.06 +0.01    +0.050 C 
DOCKED: ATOM     19  C   UNL d   1      26.759  39.914  -5.836 -0.10 +0.01    +0.045 A 
DOCKED: ATOM     20  C   UNL d   1      22.806  35.841  -4.993 -0.23 +0.00    +0.045 A 
DOCKED: ATOM     21  C   UNL d   1      23.024  34.887  -4.082 -0.36 -0.01    +0.057 C 
DOCKED: ATOM     22  C   UNL d   1      21.805  37.007  -6.683 -0.23 -0.00    -0.019 A 
DOCKED: ATOM     23  C   UNL d   1      23.028  37.724  -6.269 -0.15 +0.01    +0.045 A 
DOCKED: ATOM     24  C   UNL d   1      21.678  35.894  -5.922 -0.29 -0.00    -0.022 A 
DOCKED: ATOM     25  C   UNL d   1      24.592  39.633  -6.419 -0.13 +0.01    +0.049 A 
DOCKED: ATOM     26  C   UNL d   1      26.252  41.171  -6.126 -0.11 -0.00    -0.018 A 
DOCKED: ATOM     27  C   UNL d   1      24.878  40.990  -6.475 -0.14 +0.00    +0.003 A 
DOCKED: ATOM     28  C   UNL d   1      23.447  38.882  -6.802 -0.19 +0.01    +0.052 C 
DOCKED: ATOM     29  C   UNL d   1      20.605  34.860  -5.954 -0.33 +0.01    +0.046 C 
DOCKED: ATOM     30  C   UNL d   1      26.996  42.463  -6.082 -0.06 +0.01    +0.046 C 
DOCKED: ATOM     31  H   UNL d   1      24.360  37.200  -4.699 +0.04 +0.00    +0.166 HD
DOCKED: ATOM     32  H   UNL d   1      25.852  38.006  -5.856 +0.03 +0.01    +0.166 HD
DOCKED: ENDROOT
DOCKED: BRANCH   7  33
DOCKED: ATOM     33  C   UNL d   1      30.553  39.203  -3.581 -0.02 +0.02    +0.141 C 
DOCKED: BRANCH  33  34
DOCKED: ATOM     34  C   UNL d   1      29.938  39.562  -2.255 -0.03 +0.05    +0.306 C 
DOCKED: ATOM     35  O   UNL d   1      29.181  40.493  -2.041 -0.06 -0.05    -0.251 OA
DOCKED: BRANCH  34  36
DOCKED: ATOM     36  O   UNL d   1      30.308  38.726  -1.269 +0.00 -0.08    -0.481 OA
DOCKED: ATOM     37  H   UNL d   1      30.870  38.055  -1.712 +0.02 +0.05    +0.295 HD
DOCKED: ENDBRANCH  34  36
DOCKED: ENDBRANCH  33  34
DOCKED: ENDBRANCH   7  33
DOCKED: BRANCH  27  38
DOCKED: ATOM     38  C   UNL d   1      23.980  42.036  -6.861 -0.13 +0.00    +0.017 C 
DOCKED: ATOM     39  C   UNL d   1      22.694  41.865  -7.204 -0.22 +0.02    +0.092 C 
DOCKED: BRANCH  39  40
DOCKED: ATOM     40  C   UNL d   1      21.874  43.025  -7.564 -0.14 +0.07    +0.330 C 
DOCKED: ATOM     41  O   UNL d   1      21.489  43.918  -6.833 -0.20 -0.03    -0.246 OA
DOCKED: BRANCH  40  42
DOCKED: ATOM     42  O   UNL d   1      21.584  42.997  -8.874 -0.05 -0.12    -0.477 OA
DOCKED: ATOM     43  H   UNL d   1      21.844  42.095  -9.153 +0.07 +0.09    +0.295 HD
DOCKED: ENDBRANCH  40  42
DOCKED: ENDBRANCH  39  40
DOCKED: ENDBRANCH  27  38
DOCKED: BRANCH   8  44
DOCKED: ATOM     44  C   UNL d   1      26.489  32.946  -1.369 -0.12 +0.01    +0.141 C 
DOCKED: BRANCH  44  45
DOCKED: ATOM     45  C   UNL d   1      27.547  32.944  -0.298 -0.09 +0.18    +0.306 C 
DOCKED: ATOM     46  O   UNL d   1      28.541  33.648  -0.258 -0.12 -0.19    -0.251 OA
DOCKED: BRANCH  45  47
DOCKED: ATOM     47  O   UNL d   1      27.308  32.031   0.660 -0.37 -0.48    -0.481 OA
DOCKED: ATOM     48  H   UNL d   1      26.336  32.057   0.791 -0.08 -0.04    +0.295 HD
DOCKED: ENDBRANCH  45  47
DOCKED: ENDBRANCH  44  45
DOCKED: ENDBRANCH   8  44
DOCKED: BRANCH  22  49
DOCKED: ATOM     49  C   UNL d   1      20.890  37.465  -7.781 -0.29 +0.02    +0.048 C 
DOCKED: BRANCH  49  50
DOCKED: ATOM     50  C   UNL d   1      21.607  37.524  -9.130 -0.15 +0.06    +0.125 C 
DOCKED: BRANCH  50  51
DOCKED: ATOM     51  C   UNL d   1      21.657  38.933  -9.649 -0.08 +0.18    +0.305 C 
DOCKED: ATOM     52  O   UNL d   1      21.599  39.965  -9.005 -0.13 -0.13    -0.251 OA
DOCKED: BRANCH  51  53
DOCKED: ATOM     53  O   UNL d   1      21.769  38.971 -10.992 -0.08 -0.28    -0.481 OA
DOCKED: ATOM     54  H   UNL d   1      22.661  38.605 -11.168 +0.03 +0.11    +0.295 HD
DOCKED: ENDBRANCH  51  53
DOCKED: ENDBRANCH  50  51
DOCKED: ENDBRANCH  49  50
DOCKED: ENDBRANCH  22  49
DOCKED: TORSDOF 13
DOCKED: TER
DOCKED: ENDMDL
________________________________________________________________________________


	BEGINNING GENETIC ALGORITHM DOCKING 76 of 100
Run: 76 Seed: 1747633948 1645481285 [ Run 76 of 100 GA/GALS ]
Beginning LAMARCKIAN GENETIC ALGORITHM (LGA), with a maximum of 25000000 energy evaluations.

Final-Value: -11.366


	FINAL GENETIC ALGORITHM DOCKED STATE
	_______________________________________________


Detailed state:  trans 6.220 38.403 25.184 quatxyzw -0.449702 -0.336141 -0.574394 -0.595692 center 0.153 0.018 -0.028 ntor 13 145.2773 175.1641 140.4856 -67.6625 -143.3328 -23.5957 -50.3396 -90.9813 34.1799 -154.9425 -111.4350 11.5974 -6.2606
State:	  6.220  38.403  25.184  -0.560 -0.418 -0.715 -106.876    145.28  175.16  140.49  -67.66 -143.33  -23.60  -50.34  -90.98   34.18 -154.94 -111.44   11.60   -6.26

DOCKED: MODEL       76
DOCKED: USER    Run = 76
DOCKED: USER    DPF = D:/Protein_go_brrr/autodock/final/2DN3/heme/dock.dpf
DOCKED: USER  
DOCKED: USER    Estimated Free Energy of Binding    =   -2.81 kcal/mol  [=(1)+(2)+(3)-(4)]
DOCKED: USER    Estimated Inhibition Constant, Ki   =    8.72 mM (millimolar)  [Temperature = 298.15 K]
DOCKED: USER    
DOCKED: USER    (1) Final Intermolecular Energy     =   -6.69 kcal/mol
DOCKED: USER        vdW + Hbond + desolv Energy     =   -6.64 kcal/mol
DOCKED: USER        Electrostatic Energy            =   -0.05 kcal/mol
DOCKED: USER    (2) Final Total Internal Energy     =   -4.68 kcal/mol
DOCKED: USER    (3) Torsional Free Energy           =   +3.88 kcal/mol
DOCKED: USER    (4) Unbound System's Energy  [=(2)] =   -4.68 kcal/mol
DOCKED: USER    
DOCKED: USER    
DOCKED: USER    NEWDPF move heme_opt.pdbqt
DOCKED: USER    NEWDPF about 0.153000 0.018000 -0.028000
DOCKED: USER    NEWDPF tran0 6.219915 38.402679 25.183916
DOCKED: USER    NEWDPF quaternion0 -0.449702 -0.336141 -0.574394 -0.595692
DOCKED: USER    NEWDPF axisangle0 -0.559878 -0.418496 -0.715121 -106.876070
DOCKED: USER    NEWDPF quat0 -0.559878 -0.418496 -0.715121 -106.876070
DOCKED: USER    NEWDPF dihe0 145.28 175.16 140.49 -67.66 -143.33 -23.60 -50.34 -90.98 34.18 -154.94 -111.44 11.60 -6.26 
DOCKED: USER  keepresnum = 1 
DOCKED: USER  
DOCKED: REMARK  13 active torsions:
DOCKED: REMARK  status: ('A' for Active; 'I' for Inactive)
DOCKED: REMARK    1  A    between atoms: O_3  and  C_38 
DOCKED: REMARK    2  A    between atoms: O_4  and  C_40 
DOCKED: REMARK    3  A    between atoms: O_7  and  C_46 
DOCKED: REMARK    4  A    between atoms: O_9  and  C_48 
DOCKED: REMARK    5  A    between atoms: C_15  and  C_20 
DOCKED: REMARK    6  A    between atoms: C_16  and  C_23 
DOCKED: REMARK    7  A    between atoms: C_20  and  C_38 
DOCKED: REMARK    8  A    between atoms: C_23  and  C_40 
DOCKED: REMARK    9  A    between atoms: C_32  and  C_41 
DOCKED: REMARK   10  A    between atoms: C_37  and  C_45 
DOCKED: REMARK   11  A    between atoms: C_41  and  C_44 
DOCKED: REMARK   12  A    between atoms: C_44  and  C_46 
DOCKED: REMARK   13  A    between atoms: C_47  and  C_48 
DOCKED: USER                              x       y       z     vdW  Elec       q    Type
DOCKED: USER                           _______ _______ _______ _____ _____    ______ ____
DOCKED: ROOT
DOCKED: ATOM      1  O   UNL d   1       7.321  41.035  20.025 -0.02 +0.08    -0.289 OA
DOCKED: ATOM      2  O   UNL d   1       0.952  38.274  22.889 -0.01 +0.03    -0.289 OA
DOCKED: ATOM      3  N   UNL d   1       7.184  39.437  23.078 -0.09 +0.07    -0.247 NA
DOCKED: ATOM      4  N   UNL d   1       4.275  38.987  23.484 -0.09 +0.05    -0.247 NA
DOCKED: ATOM      5  N   UNL d   1       4.849  38.366  26.232 -0.02 +0.02    -0.354 N 
DOCKED: ATOM      6  N   UNL d   1       7.863  38.853  25.807 -0.04 +0.05    -0.354 N 
DOCKED: ATOM      7  C   UNL d   1       8.918  40.642  21.834 -0.20 -0.02    +0.084 A 
DOCKED: ATOM      8  C   UNL d   1       2.879  38.831  21.485 -0.21 -0.02    +0.084 A 
DOCKED: ATOM      9  C   UNL d   1       4.250  39.102  22.112 -0.24 -0.01    +0.058 A 
DOCKED: ATOM     10  C   UNL d   1       8.499  39.873  23.090 -0.19 -0.01    +0.058 A 
DOCKED: ATOM     11  C   UNL d   1       7.613  40.548  21.102 -0.17 -0.04    +0.193 A 
DOCKED: ATOM     12  C   UNL d   1       6.652  39.772  21.948 -0.21 -0.03    +0.109 A 
DOCKED: ATOM     13  C   UNL d   1       2.122  38.578  22.759 -0.05 -0.03    +0.193 A 
DOCKED: ATOM     14  C   UNL d   1       9.212  42.114  22.133 -0.13 -0.01    +0.026 C 
DOCKED: ATOM     15  C   UNL d   1       5.319  39.470  21.389 -0.14 -0.01    +0.055 C 
DOCKED: ATOM     16  C   UNL d   1       2.880  37.548  20.650 -0.30 -0.01    +0.026 C 
DOCKED: ATOM     17  C   UNL d   1       3.080  38.710  23.897 -0.07 -0.01    +0.109 A 
DOCKED: ATOM     18  C   UNL d   1       9.381  39.583  24.064 -0.24 -0.01    +0.050 C 
DOCKED: ATOM     19  C   UNL d   1       9.107  38.806  25.218 -0.19 -0.01    +0.045 A 
DOCKED: ATOM     20  C   UNL d   1       3.481  38.428  26.285 -0.03 -0.00    +0.045 A 
DOCKED: ATOM     21  C   UNL d   1       2.608  38.556  25.281 -0.04 -0.00    +0.057 C 
DOCKED: ATOM     22  C   UNL d   1       4.293  38.202  28.409 -0.02 +0.00    -0.019 A 
DOCKED: ATOM     23  C   UNL d   1       5.429  38.230  27.465 -0.04 -0.00    +0.045 A 
DOCKED: ATOM     24  C   UNL d   1       3.142  38.318  27.704 -0.02 +0.00    -0.022 A 
DOCKED: ATOM     25  C   UNL d   1       7.844  38.099  26.957 -0.11 -0.00    +0.049 A 
DOCKED: ATOM     26  C   UNL d   1       9.905  37.972  25.985 -0.24 +0.01    -0.018 A 
DOCKED: ATOM     27  C   UNL d   1       9.097  37.513  27.071 -0.19 -0.00    +0.003 A 
DOCKED: ATOM     28  C   UNL d   1       6.717  38.117  27.823 -0.06 -0.00    +0.052 C 
DOCKED: ATOM     29  C   UNL d   1       1.738  38.330  28.205 -0.00 -0.00    +0.046 C 
DOCKED: ATOM     30  C   UNL d   1      11.331  37.620  25.726 -0.19 -0.03    +0.046 C 
DOCKED: ATOM     31  H   UNL d   1       5.340  38.344  25.345 +0.03 -0.02    +0.166 HD
DOCKED: ATOM     32  H   UNL d   1       7.094  39.406  25.448 +0.04 -0.02    +0.166 HD
DOCKED: ENDROOT
DOCKED: BRANCH   7  33
DOCKED: ATOM     33  C   UNL d   1      10.042  40.000  21.014 -0.30 -0.02    +0.141 C 
DOCKED: BRANCH  33  34
DOCKED: ATOM     34  C   UNL d   1       9.543  38.915  20.097 -0.35 -0.00    +0.306 C 
DOCKED: ATOM     35  O   UNL d   1       9.429  37.734  20.375 -0.43 +0.01    -0.251 OA
DOCKED: BRANCH  34  36
DOCKED: ATOM     36  O   UNL d   1       9.211  39.378  18.879 -0.55 -0.06    -0.481 OA
DOCKED: ATOM     37  H   UNL d   1       8.807  40.256  19.050 +0.19 -0.03    +0.295 HD
DOCKED: ENDBRANCH  34  36
DOCKED: ENDBRANCH  33  34
DOCKED: ENDBRANCH   7  33
DOCKED: BRANCH  27  38
DOCKED: ATOM     38  C   UNL d   1       9.538  36.637  28.115 -0.22 -0.00    +0.017 C 
DOCKED: ATOM     39  C   UNL d   1       8.883  35.545  28.538 -0.21 +0.02    +0.092 C 
DOCKED: BRANCH  39  40
DOCKED: ATOM     40  C   UNL d   1       9.453  34.721  29.607 -0.08 +0.11    +0.330 C 
DOCKED: ATOM     41  O   UNL d   1      10.624  34.607  29.914 -0.18 +0.05    -0.246 OA
DOCKED: BRANCH  40  42
DOCKED: ATOM     42  O   UNL d   1       8.476  34.070  30.258 -0.40 -0.29    -0.477 OA
DOCKED: ATOM     43  H   UNL d   1       7.654  34.418  29.856 +0.04 +0.16    +0.295 HD
DOCKED: ENDBRANCH  40  42
DOCKED: ENDBRANCH  39  40
DOCKED: ENDBRANCH  27  38
DOCKED: BRANCH   8  44
DOCKED: ATOM     44  C   UNL d   1       2.266  39.999  20.706 -0.18 -0.03    +0.141 C 
DOCKED: BRANCH  44  45
DOCKED: ATOM     45  C   UNL d   1       1.277  39.562  19.658 -0.14 -0.08    +0.306 C 
DOCKED: ATOM     46  O   UNL d   1       1.509  39.364  18.478 -0.35 +0.08    -0.251 OA
DOCKED: BRANCH  45  47
DOCKED: ATOM     47  O   UNL d   1       0.033  39.421  20.151 +0.01 +0.10    -0.481 OA
DOCKED: ATOM     48  H   UNL d   1       0.160  39.004  21.030 +0.06 -0.05    +0.295 HD
DOCKED: ENDBRANCH  45  47
DOCKED: ENDBRANCH  44  45
DOCKED: ENDBRANCH   8  44
DOCKED: BRANCH  22  49
DOCKED: ATOM     49  C   UNL d   1       4.437  38.081  29.897 -0.01 +0.00    +0.048 C 
DOCKED: BRANCH  49  50
DOCKED: ATOM     50  C   UNL d   1       4.441  36.621  30.351 -0.01 +0.00    +0.125 C 
DOCKED: BRANCH  50  51
DOCKED: ATOM     51  C   UNL d   1       5.698  35.926  29.913 -0.01 +0.03    +0.305 C 
DOCKED: ATOM     52  O   UNL d   1       5.855  35.224  28.929 -0.07 -0.05    -0.251 OA
DOCKED: BRANCH  51  53
DOCKED: ATOM     53  O   UNL d   1       6.720  36.147  30.764 +0.01 -0.04    -0.481 OA
DOCKED: ATOM     54  H   UNL d   1       6.879  35.272  31.176 +0.02 +0.04    +0.295 HD
DOCKED: ENDBRANCH  51  53
DOCKED: ENDBRANCH  50  51
DOCKED: ENDBRANCH  49  50
DOCKED: ENDBRANCH  22  49
DOCKED: TORSDOF 13
DOCKED: TER
DOCKED: ENDMDL
________________________________________________________________________________


	BEGINNING GENETIC ALGORITHM DOCKING 77 of 100
Run: 77 Seed: 691066010 893078510 [ Run 77 of 100 GA/GALS ]
Beginning LAMARCKIAN GENETIC ALGORITHM (LGA), with a maximum of 25000000 energy evaluations.

Final-Value: -9.271


	FINAL GENETIC ALGORITHM DOCKED STATE
	_______________________________________________


Detailed state:  trans 49.559 24.917 17.527 quatxyzw 0.254217 -0.249188 0.399420 0.844833 center 0.153 0.018 -0.028 ntor 13 84.9982 -124.1882 127.2842 -158.0897 -174.0450 -26.4431 -80.2516 -29.0219 101.3560 -23.8244 145.9859 0.3186 24.9799
State:	 49.559  24.917  17.527   0.475 -0.466  0.747 64.692     85.00 -124.19  127.28 -158.09 -174.05  -26.44  -80.25  -29.02  101.36  -23.82  145.99    0.32   24.98

DOCKED: MODEL       77
DOCKED: USER    Run = 77
DOCKED: USER    DPF = D:/Protein_go_brrr/autodock/final/2DN3/heme/dock.dpf
DOCKED: USER  
DOCKED: USER    Estimated Free Energy of Binding    =   -1.85 kcal/mol  [=(1)+(2)+(3)-(4)]
DOCKED: USER    Estimated Inhibition Constant, Ki   =   44.39 mM (millimolar)  [Temperature = 298.15 K]
DOCKED: USER    
DOCKED: USER    (1) Final Intermolecular Energy     =   -5.72 kcal/mol
DOCKED: USER        vdW + Hbond + desolv Energy     =   -5.20 kcal/mol
DOCKED: USER        Electrostatic Energy            =   -0.52 kcal/mol
DOCKED: USER    (2) Final Total Internal Energy     =   -3.55 kcal/mol
DOCKED: USER    (3) Torsional Free Energy           =   +3.88 kcal/mol
DOCKED: USER    (4) Unbound System's Energy  [=(2)] =   -3.55 kcal/mol
DOCKED: USER    
DOCKED: USER    
DOCKED: USER    NEWDPF move heme_opt.pdbqt
DOCKED: USER    NEWDPF about 0.153000 0.018000 -0.028000
DOCKED: USER    NEWDPF tran0 49.558653 24.916761 17.527120
DOCKED: USER    NEWDPF quaternion0 0.254217 -0.249188 0.399420 0.844833
DOCKED: USER    NEWDPF axisangle0 0.475145 -0.465746 0.746538 64.691829
DOCKED: USER    NEWDPF quat0 0.475145 -0.465746 0.746538 64.691829
DOCKED: USER    NEWDPF dihe0 85.00 -124.19 127.28 -158.09 -174.05 -26.44 -80.25 -29.02 101.36 -23.82 145.99 0.32 24.98 
DOCKED: USER  keepresnum = 1 
DOCKED: USER  
DOCKED: REMARK  13 active torsions:
DOCKED: REMARK  status: ('A' for Active; 'I' for Inactive)
DOCKED: REMARK    1  A    between atoms: O_3  and  C_38 
DOCKED: REMARK    2  A    between atoms: O_4  and  C_40 
DOCKED: REMARK    3  A    between atoms: O_7  and  C_46 
DOCKED: REMARK    4  A    between atoms: O_9  and  C_48 
DOCKED: REMARK    5  A    between atoms: C_15  and  C_20 
DOCKED: REMARK    6  A    between atoms: C_16  and  C_23 
DOCKED: REMARK    7  A    between atoms: C_20  and  C_38 
DOCKED: REMARK    8  A    between atoms: C_23  and  C_40 
DOCKED: REMARK    9  A    between atoms: C_32  and  C_41 
DOCKED: REMARK   10  A    between atoms: C_37  and  C_45 
DOCKED: REMARK   11  A    between atoms: C_41  and  C_44 
DOCKED: REMARK   12  A    between atoms: C_44  and  C_46 
DOCKED: REMARK   13  A    between atoms: C_47  and  C_48 
DOCKED: USER                              x       y       z     vdW  Elec       q    Type
DOCKED: USER                           _______ _______ _______ _____ _____    ______ ____
DOCKED: ROOT
DOCKED: ATOM      1  O   UNL d   1      47.765  30.496  18.172 -0.08 -0.10    -0.289 OA
DOCKED: ATOM      2  O   UNL d   1      44.437  24.009  19.974 -0.68 -0.19    -0.289 OA
DOCKED: ATOM      3  N   UNL d   1      49.162  27.421  17.470 -0.07 -0.11    -0.247 NA
DOCKED: ATOM      4  N   UNL d   1      47.313  25.512  18.799 -0.05 -0.15    -0.247 NA
DOCKED: ATOM      5  N   UNL d   1      49.310  23.474  18.441 -0.05 -0.29    -0.354 N 
DOCKED: ATOM      6  N   UNL d   1      51.229  25.466  17.081 -0.06 -0.18    -0.354 N 
DOCKED: ATOM      7  C   UNL d   1      49.910  29.747  17.269 -0.11 +0.02    +0.084 A 
DOCKED: ATOM      8  C   UNL d   1      44.999  26.230  19.112 -0.15 +0.05    +0.084 A 
DOCKED: ATOM      9  C   UNL d   1      46.429  26.560  18.673 -0.13 +0.03    +0.058 A 
DOCKED: ATOM     10  C   UNL d   1      50.202  28.254  17.092 -0.12 +0.02    +0.058 A 
DOCKED: ATOM     11  C   UNL d   1      48.513  29.611  17.797 -0.06 +0.07    +0.193 A 
DOCKED: ATOM     12  C   UNL d   1      48.167  28.155  17.848 -0.03 +0.05    +0.109 A 
DOCKED: ATOM     13  C   UNL d   1      45.243  24.812  19.545 -0.11 +0.11    +0.193 A 
DOCKED: ATOM     14  C   UNL d   1      50.789  30.380  18.351 -0.05 +0.01    +0.026 C 
DOCKED: ATOM     15  C   UNL d   1      46.796  27.780  18.252 -0.05 +0.03    +0.055 C 
DOCKED: ATOM     16  C   UNL d   1      44.029  26.223  17.927 -0.30 +0.01    +0.026 C 
DOCKED: ATOM     17  C   UNL d   1      46.686  24.502  19.311 -0.08 +0.07    +0.109 A 
DOCKED: ATOM     18  C   UNL d   1      51.347  27.823  16.529 -0.11 +0.02    +0.050 C 
DOCKED: ATOM     19  C   UNL d   1      51.668  26.471  16.249 -0.12 +0.02    +0.045 A 
DOCKED: ATOM     20  C   UNL d   1      48.439  22.808  19.264 -0.08 +0.03    +0.045 A 
DOCKED: ATOM     21  C   UNL d   1      47.228  23.188  19.685 -0.12 +0.04    +0.057 C 
DOCKED: ATOM     22  C   UNL d   1      50.314  21.534  18.989 -0.05 -0.01    -0.019 A 
DOCKED: ATOM     23  C   UNL d   1      50.470  22.783  18.217 -0.03 +0.03    +0.045 A 
DOCKED: ATOM     24  C   UNL d   1      49.109  21.554  19.606 -0.05 -0.01    -0.022 A 
DOCKED: ATOM     25  C   UNL d   1      51.728  24.250  16.675 -0.05 +0.03    +0.049 A 
DOCKED: ATOM     26  C   UNL d   1      52.440  25.889  15.256 -0.12 -0.01    -0.018 A 
DOCKED: ATOM     27  C   UNL d   1      52.459  24.484  15.519 -0.11 +0.00    +0.003 A 
DOCKED: ATOM     28  C   UNL d   1      51.541  23.084  17.467 -0.04 +0.03    +0.052 C 
DOCKED: ATOM     29  C   UNL d   1      48.493  20.519  20.484 -0.05 +0.02    +0.046 C 
DOCKED: ATOM     30  C   UNL d   1      53.119  26.592  14.130 -0.10 +0.01    +0.046 C 
DOCKED: ATOM     31  H   UNL d   1      49.050  24.348  17.998 +0.03 +0.14    +0.166 HD
DOCKED: ATOM     32  H   UNL d   1      50.653  25.627  17.899 +0.02 +0.08    +0.166 HD
DOCKED: ENDROOT
DOCKED: BRANCH   7  33
DOCKED: ATOM     33  C   UNL d   1      49.920  30.576  15.981 -0.19 +0.03    +0.141 C 
DOCKED: BRANCH  33  34
DOCKED: ATOM     34  C   UNL d   1      48.970  31.742  16.035 -0.19 +0.06    +0.306 C 
DOCKED: ATOM     35  O   UNL d   1      48.027  31.938  15.287 -0.35 -0.05    -0.251 OA
DOCKED: BRANCH  34  36
DOCKED: ATOM     36  O   UNL d   1      49.257  32.598  17.031 -0.03 -0.10    -0.481 OA
DOCKED: ATOM     37  H   UNL d   1      48.651  32.342  17.758 +0.07 +0.07    +0.295 HD
DOCKED: ENDBRANCH  34  36
DOCKED: ENDBRANCH  33  34
DOCKED: ENDBRANCH   7  33
DOCKED: BRANCH  27  38
DOCKED: ATOM     38  C   UNL d   1      53.159  23.508  14.739 -0.10 +0.01    +0.017 C 
DOCKED: ATOM     39  C   UNL d   1      52.717  22.270  14.470 -0.08 +0.05    +0.092 C 
DOCKED: BRANCH  39  40
DOCKED: ATOM     40  C   UNL d   1      53.524  21.371  13.642 -0.03 +0.13    +0.330 C 
DOCKED: ATOM     41  O   UNL d   1      54.313  21.673  12.767 -0.02 -0.08    -0.246 OA
DOCKED: BRANCH  40  42
DOCKED: ATOM     42  O   UNL d   1      53.290  20.094  13.984 -0.00 -0.18    -0.477 OA
DOCKED: ATOM     43  H   UNL d   1      52.320  19.999  13.888 +0.03 +0.14    +0.295 HD
DOCKED: ENDBRANCH  40  42
DOCKED: ENDBRANCH  39  40
DOCKED: ENDBRANCH  27  38
DOCKED: BRANCH   8  44
DOCKED: ATOM     44  C   UNL d   1      44.453  27.072  20.270 +0.05 +0.11    +0.141 C 
DOCKED: BRANCH  44  45
DOCKED: ATOM     45  C   UNL d   1      45.052  26.708  21.603 -0.03 +0.40    +0.306 C 
DOCKED: ATOM     46  O   UNL d   1      44.444  26.379  22.607 -0.58 -0.37    -0.251 OA
DOCKED: BRANCH  45  47
DOCKED: ATOM     47  O   UNL d   1      46.394  26.806  21.608 -0.05 -0.60    -0.481 OA
DOCKED: ATOM     48  H   UNL d   1      46.685  26.260  20.847 +0.07 +0.23    +0.295 HD
DOCKED: ENDBRANCH  45  47
DOCKED: ENDBRANCH  44  45
DOCKED: ENDBRANCH   8  44
DOCKED: BRANCH  22  49
DOCKED: ATOM     49  C   UNL d   1      51.353  20.453  19.063 -0.02 +0.02    +0.048 C 
DOCKED: BRANCH  49  50
DOCKED: ATOM     50  C   UNL d   1      51.701  19.903  17.680 -0.03 +0.06    +0.125 C 
DOCKED: BRANCH  50  51
DOCKED: ATOM     51  C   UNL d   1      50.500  19.923  16.777 -0.01 +0.28    +0.305 C 
DOCKED: ATOM     52  O   UNL d   1      49.337  19.728  17.083 -0.53 -0.31    -0.251 OA
DOCKED: BRANCH  51  53
DOCKED: ATOM     53  O   UNL d   1      50.836  20.182  15.498 -0.02 -0.48    -0.481 OA
DOCKED: ATOM     54  H   UNL d   1      51.785  19.943  15.448 +0.03 +0.18    +0.295 HD
DOCKED: ENDBRANCH  51  53
DOCKED: ENDBRANCH  50  51
DOCKED: ENDBRANCH  49  50
DOCKED: ENDBRANCH  22  49
DOCKED: TORSDOF 13
DOCKED: TER
DOCKED: ENDMDL
________________________________________________________________________________


	BEGINNING GENETIC ALGORITHM DOCKING 78 of 100
Run: 78 Seed: 155072350 591259635 [ Run 78 of 100 GA/GALS ]
Beginning LAMARCKIAN GENETIC ALGORITHM (LGA), with a maximum of 25000000 energy evaluations.

Final-Value: -10.058


	FINAL GENETIC ALGORITHM DOCKED STATE
	_______________________________________________


Detailed state:  trans 49.449 41.424 15.367 quatxyzw 0.205180 0.512172 0.205154 -0.808389 center 0.153 0.018 -0.028 ntor 13 134.2465 72.9056 -99.2948 112.8270 -134.3196 102.5990 125.9452 -127.6931 22.6837 -43.5836 -64.3983 -28.5080 -159.0461
State:	 49.449  41.424  15.367   0.349  0.870  0.349 -72.122    134.25   72.91  -99.29  112.83 -134.32  102.60  125.95 -127.69   22.68  -43.58  -64.40  -28.51 -159.05

DOCKED: MODEL       78
DOCKED: USER    Run = 78
DOCKED: USER    DPF = D:/Protein_go_brrr/autodock/final/2DN3/heme/dock.dpf
DOCKED: USER  
DOCKED: USER    Estimated Free Energy of Binding    =   -3.67 kcal/mol  [=(1)+(2)+(3)-(4)]
DOCKED: USER    Estimated Inhibition Constant, Ki   =    2.03 mM (millimolar)  [Temperature = 298.15 K]
DOCKED: USER    
DOCKED: USER    (1) Final Intermolecular Energy     =   -7.55 kcal/mol
DOCKED: USER        vdW + Hbond + desolv Energy     =   -7.17 kcal/mol
DOCKED: USER        Electrostatic Energy            =   -0.38 kcal/mol
DOCKED: USER    (2) Final Total Internal Energy     =   -2.51 kcal/mol
DOCKED: USER    (3) Torsional Free Energy           =   +3.88 kcal/mol
DOCKED: USER    (4) Unbound System's Energy  [=(2)] =   -2.51 kcal/mol
DOCKED: USER    
DOCKED: USER    
DOCKED: USER    NEWDPF move heme_opt.pdbqt
DOCKED: USER    NEWDPF about 0.153000 0.018000 -0.028000
DOCKED: USER    NEWDPF tran0 49.448963 41.424421 15.367264
DOCKED: USER    NEWDPF quaternion0 0.205180 0.512172 0.205154 -0.808389
DOCKED: USER    NEWDPF axisangle0 0.348561 0.870081 0.348516 -72.122295
DOCKED: USER    NEWDPF quat0 0.348561 0.870081 0.348516 -72.122295
DOCKED: USER    NEWDPF dihe0 134.25 72.91 -99.29 112.83 -134.32 102.60 125.95 -127.69 22.68 -43.58 -64.40 -28.51 -159.05 
DOCKED: USER  keepresnum = 1 
DOCKED: USER  
DOCKED: REMARK  13 active torsions:
DOCKED: REMARK  status: ('A' for Active; 'I' for Inactive)
DOCKED: REMARK    1  A    between atoms: O_3  and  C_38 
DOCKED: REMARK    2  A    between atoms: O_4  and  C_40 
DOCKED: REMARK    3  A    between atoms: O_7  and  C_46 
DOCKED: REMARK    4  A    between atoms: O_9  and  C_48 
DOCKED: REMARK    5  A    between atoms: C_15  and  C_20 
DOCKED: REMARK    6  A    between atoms: C_16  and  C_23 
DOCKED: REMARK    7  A    between atoms: C_20  and  C_38 
DOCKED: REMARK    8  A    between atoms: C_23  and  C_40 
DOCKED: REMARK    9  A    between atoms: C_32  and  C_41 
DOCKED: REMARK   10  A    between atoms: C_37  and  C_45 
DOCKED: REMARK   11  A    between atoms: C_41  and  C_44 
DOCKED: REMARK   12  A    between atoms: C_44  and  C_46 
DOCKED: REMARK   13  A    between atoms: C_47  and  C_48 
DOCKED: USER                              x       y       z     vdW  Elec       q    Type
DOCKED: USER                           _______ _______ _______ _____ _____    ______ ____
DOCKED: ROOT
DOCKED: ATOM      1  O   UNL d   1      47.640  39.710  20.710 -0.02 +0.01    -0.289 OA
DOCKED: ATOM      2  O   UNL d   1      47.558  36.147  14.100 -0.52 -0.10    -0.289 OA
DOCKED: ATOM      3  N   UNL d   1      48.698  41.187  17.778 -0.08 +0.01    -0.247 NA
DOCKED: ATOM      4  N   UNL d   1      48.584  38.961  15.813 -0.11 +0.00    -0.247 NA
DOCKED: ATOM      5  N   UNL d   1      50.129  40.591  14.017 -0.09 +0.04    -0.354 N 
DOCKED: ATOM      6  N   UNL d   1      50.259  42.887  16.070 -0.02 +0.02    -0.354 N 
DOCKED: ATOM      7  C   UNL d   1      48.706  41.835  20.142 -0.03 -0.00    +0.084 A 
DOCKED: ATOM      8  C   UNL d   1      47.005  37.152  16.262 -0.25 +0.01    +0.084 A 
DOCKED: ATOM      9  C   UNL d   1      47.684  38.447  16.719 -0.14 +0.00    +0.058 A 
DOCKED: ATOM     10  C   UNL d   1      49.052  42.169  18.688 -0.07 -0.00    +0.058 A 
DOCKED: ATOM     11  C   UNL d   1      48.077  40.497  19.891 -0.03 -0.00    +0.193 A 
DOCKED: ATOM     12  C   UNL d   1      48.110  40.229  18.418 -0.10 -0.00    +0.109 A 
DOCKED: ATOM     13  C   UNL d   1      47.714  37.006  14.945 -0.31 +0.03    +0.193 A 
DOCKED: ATOM     14  C   UNL d   1      49.958  41.640  21.000 -0.01 +0.00    +0.026 C 
DOCKED: ATOM     15  C   UNL d   1      47.458  39.001  17.920 -0.17 +0.00    +0.055 C 
DOCKED: ATOM     16  C   UNL d   1      45.510  37.358  15.997 -0.47 +0.01    +0.026 C 
DOCKED: ATOM     17  C   UNL d   1      48.648  38.162  14.796 -0.14 -0.00    +0.109 A 
DOCKED: ATOM     18  C   UNL d   1      49.571  43.363  18.345 -0.08 -0.00    +0.050 C 
DOCKED: ATOM     19  C   UNL d   1      49.844  43.792  17.021 -0.10 -0.00    +0.045 A 
DOCKED: ATOM     20  C   UNL d   1      50.169  39.398  13.345 -0.25 -0.00    +0.045 A 
DOCKED: ATOM     21  C   UNL d   1      49.515  38.263  13.613 -0.29 -0.00    +0.057 C 
DOCKED: ATOM     22  C   UNL d   1      51.552  40.882  12.295 -0.23 +0.00    -0.019 A 
DOCKED: ATOM     23  C   UNL d   1      50.933  41.549  13.458 -0.19 -0.01    +0.045 A 
DOCKED: ATOM     24  C   UNL d   1      51.095  39.609  12.233 -0.28 +0.00    -0.022 A 
DOCKED: ATOM     25  C   UNL d   1      50.553  43.529  14.889 -0.11 -0.00    +0.049 A 
DOCKED: ATOM     26  C   UNL d   1      49.833  45.047  16.434 -0.10 +0.00    -0.018 A 
DOCKED: ATOM     27  C   UNL d   1      50.262  44.873  15.082 -0.15 -0.00    +0.003 A 
DOCKED: ATOM     28  C   UNL d   1      51.149  42.827  13.807 -0.15 -0.01    +0.052 C 
DOCKED: ATOM     29  C   UNL d   1      51.418  38.550  11.235 -0.27 +0.00    +0.046 C 
DOCKED: ATOM     30  C   UNL d   1      49.445  46.332  17.085 +0.14 -0.00    +0.046 C 
DOCKED: ATOM     31  H   UNL d   1      49.496  40.736  14.796 +0.00 -0.01    +0.166 HD
DOCKED: ATOM     32  H   UNL d   1      50.366  41.896  16.248 +0.04 -0.01    +0.166 HD
DOCKED: ENDROOT
DOCKED: BRANCH   7  33
DOCKED: ATOM     33  C   UNL d   1      47.706  42.782  20.814 -0.04 -0.00    +0.141 C 
DOCKED: BRANCH  33  34
DOCKED: ATOM     34  C   UNL d   1      46.312  42.635  20.266 -0.10 -0.01    +0.306 C 
DOCKED: ATOM     35  O   UNL d   1      45.890  43.121  19.230 -0.22 +0.01    -0.251 OA
DOCKED: BRANCH  34  36
DOCKED: ATOM     36  O   UNL d   1      45.523  41.881  21.051 -0.06 +0.05    -0.481 OA
DOCKED: ATOM     37  H   UNL d   1      46.058  41.082  21.244 +0.10 -0.03    +0.295 HD
DOCKED: ENDBRANCH  34  36
DOCKED: ENDBRANCH  33  34
DOCKED: ENDBRANCH   7  33
DOCKED: BRANCH  27  38
DOCKED: ATOM     38  C   UNL d   1      50.409  45.923  14.120 -0.18 -0.00    +0.017 C 
DOCKED: ATOM     39  C   UNL d   1      50.661  45.748  12.814 -0.20 -0.02    +0.092 C 
DOCKED: BRANCH  39  40
DOCKED: ATOM     40  C   UNL d   1      50.771  46.911  11.929 -0.10 -0.15    +0.330 C 
DOCKED: ATOM     41  O   UNL d   1      51.787  47.438  11.517 -0.07 +0.08    -0.246 OA
DOCKED: BRANCH  40  42
DOCKED: ATOM     42  O   UNL d   1      49.550  47.355  11.595 -0.12 +0.39    -0.477 OA
DOCKED: ATOM     43  H   UNL d   1      49.450  47.086  10.659 -0.45 -0.59    +0.295 HD
DOCKED: ENDBRANCH  40  42
DOCKED: ENDBRANCH  39  40
DOCKED: ENDBRANCH  27  38
DOCKED: BRANCH   8  44
DOCKED: ATOM     44  C   UNL d   1      47.247  35.929  17.154 -0.16 +0.02    +0.141 C 
DOCKED: BRANCH  44  45
DOCKED: ATOM     45  C   UNL d   1      48.413  35.089  16.706 -0.11 +0.05    +0.306 C 
DOCKED: ATOM     46  O   UNL d   1      49.591  35.295  16.943 -0.06 -0.04    -0.251 OA
DOCKED: BRANCH  45  47
DOCKED: ATOM     47  O   UNL d   1      48.033  34.040  15.955 -0.13 -0.10    -0.481 OA
DOCKED: ATOM     48  H   UNL d   1      47.884  34.416  15.062 +0.13 +0.07    +0.295 HD
DOCKED: ENDBRANCH  45  47
DOCKED: ENDBRANCH  44  45
DOCKED: ENDBRANCH   8  44
DOCKED: BRANCH  22  49
DOCKED: ATOM     49  C   UNL d   1      52.535  41.540  11.372 -0.19 -0.01    +0.048 C 
DOCKED: BRANCH  49  50
DOCKED: ATOM     50  C   UNL d   1      53.896  40.846  11.402 -0.08 -0.01    +0.125 C 
DOCKED: BRANCH  50  51
DOCKED: ATOM     51  C   UNL d   1      54.225  40.251  10.062 -0.04 -0.02    +0.305 C 
DOCKED: ATOM     52  O   UNL d   1      54.663  39.138   9.830 -0.02 +0.00    -0.251 OA
DOCKED: BRANCH  51  53
DOCKED: ATOM     53  O   UNL d   1      53.990  41.117   9.055 -0.03 +0.11    -0.481 OA
DOCKED: ATOM     54  H   UNL d   1      53.015  41.216   9.048 -0.47 -0.16    +0.295 HD
DOCKED: ENDBRANCH  51  53
DOCKED: ENDBRANCH  50  51
DOCKED: ENDBRANCH  49  50
DOCKED: ENDBRANCH  22  49
DOCKED: TORSDOF 13
DOCKED: TER
DOCKED: ENDMDL
________________________________________________________________________________


	BEGINNING GENETIC ALGORITHM DOCKING 79 of 100
Run: 79 Seed: 2001828551 328891293 [ Run 79 of 100 GA/GALS ]
Beginning LAMARCKIAN GENETIC ALGORITHM (LGA), with a maximum of 25000000 energy evaluations.

Final-Value: -10.666


	FINAL GENETIC ALGORITHM DOCKED STATE
	_______________________________________________


Detailed state:  trans 28.605 40.069 -1.329 quatxyzw -0.056016 -0.431253 -0.082577 -0.896696 center 0.153 0.018 -0.028 ntor 13 172.7174 31.6135 -93.3182 -139.0433 -148.0388 41.6858 127.1569 -32.2735 17.3748 -55.6346 -101.0755 -84.6233 160.2406
State:	 28.605  40.069  -1.329  -0.127 -0.974 -0.187 -52.546    172.72   31.61  -93.32 -139.04 -148.04   41.69  127.16  -32.27   17.37  -55.63 -101.08  -84.62  160.24

DOCKED: MODEL       79
DOCKED: USER    Run = 79
DOCKED: USER    DPF = D:/Protein_go_brrr/autodock/final/2DN3/heme/dock.dpf
DOCKED: USER  
DOCKED: USER    Estimated Free Energy of Binding    =   -4.21 kcal/mol  [=(1)+(2)+(3)-(4)]
DOCKED: USER    Estimated Inhibition Constant, Ki   =  817.33 uM (micromolar)  [Temperature = 298.15 K]
DOCKED: USER    
DOCKED: USER    (1) Final Intermolecular Energy     =   -8.09 kcal/mol
DOCKED: USER        vdW + Hbond + desolv Energy     =   -7.60 kcal/mol
DOCKED: USER        Electrostatic Energy            =   -0.49 kcal/mol
DOCKED: USER    (2) Final Total Internal Energy     =   -2.58 kcal/mol
DOCKED: USER    (3) Torsional Free Energy           =   +3.88 kcal/mol
DOCKED: USER    (4) Unbound System's Energy  [=(2)] =   -2.58 kcal/mol
DOCKED: USER    
DOCKED: USER    
DOCKED: USER    NEWDPF move heme_opt.pdbqt
DOCKED: USER    NEWDPF about 0.153000 0.018000 -0.028000
DOCKED: USER    NEWDPF tran0 28.604846 40.068975 -1.329355
DOCKED: USER    NEWDPF quaternion0 -0.056016 -0.431253 -0.082577 -0.896696
DOCKED: USER    NEWDPF axisangle0 -0.126549 -0.974260 -0.186553 -52.545700
DOCKED: USER    NEWDPF quat0 -0.126549 -0.974260 -0.186553 -52.545700
DOCKED: USER    NEWDPF dihe0 172.72 31.61 -93.32 -139.04 -148.04 41.69 127.16 -32.27 17.37 -55.63 -101.08 -84.62 160.24 
DOCKED: USER  keepresnum = 1 
DOCKED: USER  
DOCKED: REMARK  13 active torsions:
DOCKED: REMARK  status: ('A' for Active; 'I' for Inactive)
DOCKED: REMARK    1  A    between atoms: O_3  and  C_38 
DOCKED: REMARK    2  A    between atoms: O_4  and  C_40 
DOCKED: REMARK    3  A    between atoms: O_7  and  C_46 
DOCKED: REMARK    4  A    between atoms: O_9  and  C_48 
DOCKED: REMARK    5  A    between atoms: C_15  and  C_20 
DOCKED: REMARK    6  A    between atoms: C_16  and  C_23 
DOCKED: REMARK    7  A    between atoms: C_20  and  C_38 
DOCKED: REMARK    8  A    between atoms: C_23  and  C_40 
DOCKED: REMARK    9  A    between atoms: C_32  and  C_41 
DOCKED: REMARK   10  A    between atoms: C_37  and  C_45 
DOCKED: REMARK   11  A    between atoms: C_41  and  C_44 
DOCKED: REMARK   12  A    between atoms: C_44  and  C_46 
DOCKED: REMARK   13  A    between atoms: C_47  and  C_48 
DOCKED: USER                              x       y       z     vdW  Elec       q    Type
DOCKED: USER                           _______ _______ _______ _____ _____    ______ ____
DOCKED: ROOT
DOCKED: ATOM      1  O   UNL d   1      24.994  42.395  -5.367 -0.11 -0.06    -0.289 OA
DOCKED: ATOM      2  O   UNL d   1      27.227  35.314  -4.249 -0.02 -0.01    -0.289 OA
DOCKED: ATOM      3  N   UNL d   1      27.260  41.515  -2.920 -0.11 -0.05    -0.247 NA
DOCKED: ATOM      4  N   UNL d   1      27.280  38.547  -3.044 -0.15 -0.03    -0.247 NA
DOCKED: ATOM      5  N   UNL d   1      28.664  38.544  -0.524 -0.06 -0.05    -0.354 N 
DOCKED: ATOM      6  N   UNL d   1      28.621  41.623  -0.394 -0.04 -0.09    -0.354 N 
DOCKED: ATOM      7  C   UNL d   1      26.103  43.585  -3.542 -0.20 +0.02    +0.084 A 
DOCKED: ATOM      8  C   UNL d   1      26.681  37.512  -5.175 -0.10 +0.01    +0.084 A 
DOCKED: ATOM      9  C   UNL d   1      26.821  38.777  -4.322 -0.19 +0.01    +0.058 A 
DOCKED: ATOM     10  C   UNL d   1      27.078  42.854  -2.615 -0.18 +0.01    +0.058 A 
DOCKED: ATOM     11  C   UNL d   1      25.780  42.427  -4.438 -0.15 +0.04    +0.193 A 
DOCKED: ATOM     12  C   UNL d   1      26.563  41.238  -3.974 -0.14 +0.02    +0.109 A 
DOCKED: ATOM     13  C   UNL d   1      27.110  36.518  -4.134 -0.08 +0.01    +0.193 A 
DOCKED: ATOM     14  C   UNL d   1      24.828  44.016  -2.811 -0.34 +0.01    +0.026 C 
DOCKED: ATOM     15  C   UNL d   1      26.476  39.995  -4.767 -0.21 +0.01    +0.055 C 
DOCKED: ATOM     16  C   UNL d   1      27.693  37.489  -6.325 -0.04 +0.00    +0.026 C 
DOCKED: ATOM     17  C   UNL d   1      27.439  37.272  -2.886 -0.16 +0.01    +0.109 A 
DOCKED: ATOM     18  C   UNL d   1      27.754  43.506  -1.650 -0.16 +0.01    +0.050 C 
DOCKED: ATOM     19  C   UNL d   1      28.735  42.933  -0.802 -0.10 +0.01    +0.045 A 
DOCKED: ATOM     20  C   UNL d   1      28.378  37.208  -0.637 -0.13 +0.01    +0.045 A 
DOCKED: ATOM     21  C   UNL d   1      27.850  36.549  -1.674 -0.16 +0.01    +0.057 C 
DOCKED: ATOM     22  C   UNL d   1      29.270  37.599   1.429 -0.12 -0.00    -0.019 A 
DOCKED: ATOM     23  C   UNL d   1      29.205  38.875   0.690 -0.12 +0.01    +0.045 A 
DOCKED: ATOM     24  C   UNL d   1      28.780  36.615   0.638 -0.12 -0.00    -0.022 A 
DOCKED: ATOM     25  C   UNL d   1      29.625  41.303   0.491 -0.09 +0.01    +0.049 A 
DOCKED: ATOM     26  C   UNL d   1      29.862  43.467  -0.197 -0.08 -0.01    -0.018 A 
DOCKED: ATOM     27  C   UNL d   1      30.431  42.428   0.603 -0.09 +0.00    +0.003 A 
DOCKED: ATOM     28  C   UNL d   1      29.628  40.055   1.170 -0.13 +0.01    +0.052 C 
DOCKED: ATOM     29  C   UNL d   1      28.649  35.160   0.932 -0.15 +0.02    +0.046 C 
DOCKED: ATOM     30  C   UNL d   1      30.382  44.856  -0.351 -0.12 +0.03    +0.046 C 
DOCKED: ATOM     31  H   UNL d   1      28.548  39.175  -1.309 +0.03 +0.02    +0.166 HD
DOCKED: ATOM     32  H   UNL d   1      27.870  41.009  -0.685 +0.05 +0.03    +0.166 HD
DOCKED: ENDROOT
DOCKED: BRANCH   7  33
DOCKED: ATOM     33  C   UNL d   1      26.705  44.739  -4.351 -0.06 +0.02    +0.141 C 
DOCKED: BRANCH  33  34
DOCKED: ATOM     34  C   UNL d   1      27.739  44.275  -5.340 -0.01 +0.04    +0.306 C 
DOCKED: ATOM     35  O   UNL d   1      28.943  44.226  -5.154 -0.00 -0.04    -0.251 OA
DOCKED: BRANCH  34  36
DOCKED: ATOM     36  O   UNL d   1      27.201  43.894  -6.512 +0.01 -0.06    -0.481 OA
DOCKED: ATOM     37  H   UNL d   1      26.235  43.874  -6.346 +0.04 +0.04    +0.295 HD
DOCKED: ENDBRANCH  34  36
DOCKED: ENDBRANCH  33  34
DOCKED: ENDBRANCH   7  33
DOCKED: BRANCH  27  38
DOCKED: ATOM     38  C   UNL d   1      31.604  42.559   1.413 -0.18 +0.01    +0.017 C 
DOCKED: ATOM     39  C   UNL d   1      31.711  42.161   2.691 -0.27 +0.05    +0.092 C 
DOCKED: BRANCH  39  40
DOCKED: ATOM     40  C   UNL d   1      32.978  42.337   3.406 -0.27 +0.18    +0.330 C 
DOCKED: ATOM     41  O   UNL d   1      33.737  43.286   3.352 -0.91 -0.29    -0.246 OA
DOCKED: BRANCH  40  42
DOCKED: ATOM     42  O   UNL d   1      33.220  41.272   4.185 -0.19 -0.03    -0.477 OA
DOCKED: ATOM     43  H   UNL d   1      33.713  41.644   4.945 -0.38 -0.11    +0.295 HD
DOCKED: ENDBRANCH  40  42
DOCKED: ENDBRANCH  39  40
DOCKED: ENDBRANCH  27  38
DOCKED: BRANCH   8  44
DOCKED: ATOM     44  C   UNL d   1      25.265  37.207  -5.676 -0.14 +0.01    +0.141 C 
DOCKED: BRANCH  44  45
DOCKED: ATOM     45  C   UNL d   1      24.606  36.072  -4.938 -0.13 -0.01    +0.306 C 
DOCKED: ATOM     46  O   UNL d   1      24.021  36.142  -3.871 -0.23 +0.02    -0.251 OA
DOCKED: BRANCH  45  47
DOCKED: ATOM     47  O   UNL d   1      24.743  34.895  -5.574 +0.00 +0.04    -0.481 OA
DOCKED: ATOM     48  H   UNL d   1      25.609  34.549  -5.271 +0.07 -0.03    +0.295 HD
DOCKED: ENDBRANCH  45  47
DOCKED: ENDBRANCH  44  45
DOCKED: ENDBRANCH   8  44
DOCKED: BRANCH  22  49
DOCKED: ATOM     49  C   UNL d   1      29.785  37.463   2.832 -0.16 +0.00    +0.048 C 
DOCKED: BRANCH  49  50
DOCKED: ATOM     50  C   UNL d   1      28.766  37.950   3.862 -0.25 -0.05    +0.125 C 
DOCKED: BRANCH  50  51
DOCKED: ATOM     51  C   UNL d   1      27.716  36.905   4.113 -0.16 -0.11    +0.305 C 
DOCKED: ATOM     52  O   UNL d   1      27.198  36.162   3.298 -0.21 +0.00    -0.251 OA
DOCKED: BRANCH  51  53
DOCKED: ATOM     53  O   UNL d   1      27.352  36.857   5.410 -0.13 +0.47    -0.481 OA
DOCKED: ATOM     54  H   UNL d   1      27.312  37.798   5.681 -0.28 -0.67    +0.295 HD
DOCKED: ENDBRANCH  51  53
DOCKED: ENDBRANCH  50  51
DOCKED: ENDBRANCH  49  50
DOCKED: ENDBRANCH  22  49
DOCKED: TORSDOF 13
DOCKED: TER
DOCKED: ENDMDL
________________________________________________________________________________


	BEGINNING GENETIC ALGORITHM DOCKING 80 of 100
Run: 80 Seed: 1044356215 901970860 [ Run 80 of 100 GA/GALS ]
Beginning LAMARCKIAN GENETIC ALGORITHM (LGA), with a maximum of 25000000 energy evaluations.

Final-Value: -9.955


	FINAL GENETIC ALGORITHM DOCKED STATE
	_______________________________________________


Detailed state:  trans 19.752 20.035 1.565 quatxyzw -0.356671 -0.518858 -0.286926 0.721973 center 0.153 0.018 -0.028 ntor 13 102.9046 62.0694 95.7358 108.7759 -148.3712 46.0433 -42.1553 103.7376 17.5616 -123.9715 133.6577 -110.4970 -177.6072
State:	 19.752  20.035   1.565  -0.515 -0.750 -0.415 87.565    102.90   62.07   95.74  108.78 -148.37   46.04  -42.16  103.74   17.56 -123.97  133.66 -110.50 -177.61

DOCKED: MODEL       80
DOCKED: USER    Run = 80
DOCKED: USER    DPF = D:/Protein_go_brrr/autodock/final/2DN3/heme/dock.dpf
DOCKED: USER  
DOCKED: USER    Estimated Free Energy of Binding    =   -3.49 kcal/mol  [=(1)+(2)+(3)-(4)]
DOCKED: USER    Estimated Inhibition Constant, Ki   =    2.77 mM (millimolar)  [Temperature = 298.15 K]
DOCKED: USER    
DOCKED: USER    (1) Final Intermolecular Energy     =   -7.37 kcal/mol
DOCKED: USER        vdW + Hbond + desolv Energy     =   -6.87 kcal/mol
DOCKED: USER        Electrostatic Energy            =   -0.50 kcal/mol
DOCKED: USER    (2) Final Total Internal Energy     =   -2.59 kcal/mol
DOCKED: USER    (3) Torsional Free Energy           =   +3.88 kcal/mol
DOCKED: USER    (4) Unbound System's Energy  [=(2)] =   -2.59 kcal/mol
DOCKED: USER    
DOCKED: USER    
DOCKED: USER    NEWDPF move heme_opt.pdbqt
DOCKED: USER    NEWDPF about 0.153000 0.018000 -0.028000
DOCKED: USER    NEWDPF tran0 19.752024 20.035398 1.564805
DOCKED: USER    NEWDPF quaternion0 -0.356671 -0.518858 -0.286926 0.721973
DOCKED: USER    NEWDPF axisangle0 -0.515480 -0.749880 -0.414680 87.564704
DOCKED: USER    NEWDPF quat0 -0.515480 -0.749880 -0.414680 87.564704
DOCKED: USER    NEWDPF dihe0 102.90 62.07 95.74 108.78 -148.37 46.04 -42.16 103.74 17.56 -123.97 133.66 -110.50 -177.61 
DOCKED: USER  keepresnum = 1 
DOCKED: USER  
DOCKED: REMARK  13 active torsions:
DOCKED: REMARK  status: ('A' for Active; 'I' for Inactive)
DOCKED: REMARK    1  A    between atoms: O_3  and  C_38 
DOCKED: REMARK    2  A    between atoms: O_4  and  C_40 
DOCKED: REMARK    3  A    between atoms: O_7  and  C_46 
DOCKED: REMARK    4  A    between atoms: O_9  and  C_48 
DOCKED: REMARK    5  A    between atoms: C_15  and  C_20 
DOCKED: REMARK    6  A    between atoms: C_16  and  C_23 
DOCKED: REMARK    7  A    between atoms: C_20  and  C_38 
DOCKED: REMARK    8  A    between atoms: C_23  and  C_40 
DOCKED: REMARK    9  A    between atoms: C_32  and  C_41 
DOCKED: REMARK   10  A    between atoms: C_37  and  C_45 
DOCKED: REMARK   11  A    between atoms: C_41  and  C_44 
DOCKED: REMARK   12  A    between atoms: C_44  and  C_46 
DOCKED: REMARK   13  A    between atoms: C_47  and  C_48 
DOCKED: USER                              x       y       z     vdW  Elec       q    Type
DOCKED: USER                           _______ _______ _______ _____ _____    ______ ____
DOCKED: ROOT
DOCKED: ATOM      1  O   UNL d   1      18.629  16.474   6.127 -0.06 -0.14    -0.289 OA
DOCKED: ATOM      2  O   UNL d   1      17.671  15.479  -1.254 -0.05 +0.01    -0.289 OA
DOCKED: ATOM      3  N   UNL d   1      19.315  18.932   3.806 +0.04 -0.04    -0.247 NA
DOCKED: ATOM      4  N   UNL d   1      18.932  17.543   1.207 -0.27 -0.03    -0.247 NA
DOCKED: ATOM      5  N   UNL d   1      20.247  19.760  -0.066 -0.11 -0.01    -0.354 N 
DOCKED: ATOM      6  N   UNL d   1      20.658  21.185   2.637 -0.06 -0.06    -0.354 N 
DOCKED: ATOM      7  C   UNL d   1      19.631  18.702   6.226 -0.10 +0.03    +0.084 A 
DOCKED: ATOM      8  C   UNL d   1      17.408  15.633   1.175 -0.07 +0.01    +0.084 A 
DOCKED: ATOM      9  C   UNL d   1      18.151  16.708   1.975 -0.08 +0.00    +0.058 A 
DOCKED: ATOM     10  C   UNL d   1      19.790  19.542   4.955 -0.13 +0.01    +0.058 A 
DOCKED: ATOM     11  C   UNL d   1      18.965  17.517   5.595 -0.06 +0.07    +0.193 A 
DOCKED: ATOM     12  C   UNL d   1      18.806  17.788   4.131 -0.07 +0.02    +0.109 A 
DOCKED: ATOM     13  C   UNL d   1      17.941  15.990  -0.184 -0.08 +0.00    +0.193 A 
DOCKED: ATOM     14  C   UNL d   1      20.982  18.264   6.798 -0.07 +0.01    +0.026 C 
DOCKED: ATOM     15  C   UNL d   1      18.085  16.792   3.313 -0.10 +0.01    +0.055 C 
DOCKED: ATOM     16  C   UNL d   1      15.894  15.862   1.186 -0.13 +0.00    +0.026 C 
DOCKED: ATOM     17  C   UNL d   1      18.858  17.158  -0.026 -0.12 +0.01    +0.109 A 
DOCKED: ATOM     18  C   UNL d   1      20.271  20.798   4.998 -0.19 +0.01    +0.050 C 
DOCKED: ATOM     19  C   UNL d   1      20.376  21.678   3.891 -0.18 +0.01    +0.045 A 
DOCKED: ATOM     20  C   UNL d   1      20.190  18.884  -1.118 -0.14 -0.00    +0.045 A 
DOCKED: ATOM     21  C   UNL d   1      19.566  17.704  -1.194 -0.19 -0.01    +0.057 C 
DOCKED: ATOM     22  C   UNL d   1      21.439  20.695  -1.732 -0.09 +0.00    -0.019 A 
DOCKED: ATOM     23  C   UNL d   1      20.980  20.884  -0.342 -0.15 +0.00    +0.045 A 
DOCKED: ATOM     24  C   UNL d   1      20.967  19.510  -2.187 -0.11 +0.00    -0.022 A 
DOCKED: ATOM     25  C   UNL d   1      20.803  22.214   1.735 -0.14 +0.01    +0.049 A 
DOCKED: ATOM     26  C   UNL d   1      20.299  23.059   3.794 -0.24 -0.00    -0.018 A 
DOCKED: ATOM     27  C   UNL d   1      20.550  23.390   2.427 -0.21 +0.00    +0.003 A 
DOCKED: ATOM     28  C   UNL d   1      21.249  21.963   0.409 -0.15 +0.00    +0.052 C 
DOCKED: ATOM     29  C   UNL d   1      21.151  18.886  -3.528 -0.13 -0.01    +0.046 C 
DOCKED: ATOM     30  C   UNL d   1      20.009  24.014   4.902 -0.34 +0.01    +0.046 C 
DOCKED: ATOM     31  H   UNL d   1      19.720  19.596   0.785 +0.05 +0.02    +0.166 HD
DOCKED: ATOM     32  H   UNL d   1      20.779  20.199   2.436 +0.03 +0.02    +0.166 HD
DOCKED: ENDROOT
DOCKED: BRANCH   7  33
DOCKED: ATOM     33  C   UNL d   1      18.733  19.311   7.308 -0.25 +0.06    +0.141 C 
DOCKED: BRANCH  33  34
DOCKED: ATOM     34  C   UNL d   1      17.298  19.428   6.871 -0.25 +0.19    +0.306 C 
DOCKED: ATOM     35  O   UNL d   1      16.775  20.409   6.371 -0.23 -0.11    -0.251 OA
DOCKED: BRANCH  34  36
DOCKED: ATOM     36  O   UNL d   1      16.597  18.300   7.086 -0.60 -0.69    -0.481 OA
DOCKED: ATOM     37  H   UNL d   1      16.842  17.712   6.340 +0.11 +0.32    +0.295 HD
DOCKED: ENDBRANCH  34  36
DOCKED: ENDBRANCH  33  34
DOCKED: ENDBRANCH   7  33
DOCKED: BRANCH  27  38
DOCKED: ATOM     38  C   UNL d   1      20.581  24.718   1.892 -0.29 -0.00    +0.017 C 
DOCKED: ATOM     39  C   UNL d   1      21.689  25.381   1.529 -0.23 -0.01    +0.092 C 
DOCKED: BRANCH  39  40
DOCKED: ATOM     40  C   UNL d   1      21.583  26.734   0.976 -0.27 -0.13    +0.330 C 
DOCKED: ATOM     41  O   UNL d   1      20.889  27.648   1.378 -0.48 +0.09    -0.246 OA
DOCKED: BRANCH  40  42
DOCKED: ATOM     42  O   UNL d   1      22.393  26.864  -0.085 -0.18 +0.35    -0.477 OA
DOCKED: ATOM     43  H   UNL d   1      23.022  27.565   0.184 -0.41 -0.49    +0.295 HD
DOCKED: ENDBRANCH  40  42
DOCKED: ENDBRANCH  39  40
DOCKED: ENDBRANCH  27  38
DOCKED: BRANCH   8  44
DOCKED: ATOM     44  C   UNL d   1      17.752  14.184   1.536 -0.01 +0.01    +0.141 C 
DOCKED: BRANCH  44  45
DOCKED: ATOM     45  C   UNL d   1      17.112  13.175   0.621 +0.01 +0.02    +0.306 C 
DOCKED: ATOM     46  O   UNL d   1      15.997  12.696   0.734 +0.00 -0.03    -0.251 OA
DOCKED: BRANCH  45  47
DOCKED: ATOM     47  O   UNL d   1      17.927  12.799  -0.381 +0.01 -0.01    -0.481 OA
DOCKED: ATOM     48  H   UNL d   1      17.798  13.480  -1.075 +0.03 -0.00    +0.295 HD
DOCKED: ENDBRANCH  45  47
DOCKED: ENDBRANCH  44  45
DOCKED: ENDBRANCH   8  44
DOCKED: BRANCH  22  49
DOCKED: ATOM     49  C   UNL d   1      22.300  21.674  -2.475 -0.11 -0.00    +0.048 C 
DOCKED: BRANCH  49  50
DOCKED: ATOM     50  C   UNL d   1      23.772  21.259  -2.465 -0.02 -0.01    +0.125 C 
DOCKED: BRANCH  50  51
DOCKED: ATOM     51  C   UNL d   1      24.199  20.833  -1.089 +0.01 -0.01    +0.305 C 
DOCKED: ATOM     52  O   UNL d   1      24.274  19.698  -0.652 -0.00 +0.01    -0.251 OA
DOCKED: BRANCH  51  53
DOCKED: ATOM     53  O   UNL d   1      24.508  21.888  -0.308 +0.01 +0.02    -0.481 OA
DOCKED: ATOM     54  H   UNL d   1      25.355  22.217  -0.675 +0.01 -0.02    +0.295 HD
DOCKED: ENDBRANCH  51  53
DOCKED: ENDBRANCH  50  51
DOCKED: ENDBRANCH  49  50
DOCKED: ENDBRANCH  22  49
DOCKED: TORSDOF 13
DOCKED: TER
DOCKED: ENDMDL
________________________________________________________________________________


	BEGINNING GENETIC ALGORITHM DOCKING 81 of 100
Run: 81 Seed: 2013213512 1275096527 [ Run 81 of 100 GA/GALS ]
Beginning LAMARCKIAN GENETIC ALGORITHM (LGA), with a maximum of 25000000 energy evaluations.

Final-Value: -10.565


	FINAL GENETIC ALGORITHM DOCKED STATE
	_______________________________________________


Detailed state:  trans 35.846 51.416 22.005 quatxyzw 0.067446 0.451008 0.790118 -0.409582 center 0.153 0.018 -0.028 ntor 13 119.6442 -159.7163 119.4457 -23.6133 -130.6037 -71.9839 -21.6782 -82.9715 32.7700 144.4192 -91.8544 9.2592 -13.4874
State:	 35.846  51.416  22.005   0.074  0.494  0.866 -131.643    119.64 -159.72  119.45  -23.61 -130.60  -71.98  -21.68  -82.97   32.77  144.42  -91.85    9.26  -13.49

DOCKED: MODEL       81
DOCKED: USER    Run = 81
DOCKED: USER    DPF = D:/Protein_go_brrr/autodock/final/2DN3/heme/dock.dpf
DOCKED: USER  
DOCKED: USER    Estimated Free Energy of Binding    =   -2.65 kcal/mol  [=(1)+(2)+(3)-(4)]
DOCKED: USER    Estimated Inhibition Constant, Ki   =   11.39 mM (millimolar)  [Temperature = 298.15 K]
DOCKED: USER    
DOCKED: USER    (1) Final Intermolecular Energy     =   -6.53 kcal/mol
DOCKED: USER        vdW + Hbond + desolv Energy     =   -6.39 kcal/mol
DOCKED: USER        Electrostatic Energy            =   -0.14 kcal/mol
DOCKED: USER    (2) Final Total Internal Energy     =   -4.04 kcal/mol
DOCKED: USER    (3) Torsional Free Energy           =   +3.88 kcal/mol
DOCKED: USER    (4) Unbound System's Energy  [=(2)] =   -4.04 kcal/mol
DOCKED: USER    
DOCKED: USER    
DOCKED: USER    NEWDPF move heme_opt.pdbqt
DOCKED: USER    NEWDPF about 0.153000 0.018000 -0.028000
DOCKED: USER    NEWDPF tran0 35.846284 51.415979 22.004990
DOCKED: USER    NEWDPF quaternion0 0.067446 0.451008 0.790118 -0.409582
DOCKED: USER    NEWDPF axisangle0 0.073932 0.494378 0.866097 -131.642874
DOCKED: USER    NEWDPF quat0 0.073932 0.494378 0.866097 -131.642874
DOCKED: USER    NEWDPF dihe0 119.64 -159.72 119.45 -23.61 -130.60 -71.98 -21.68 -82.97 32.77 144.42 -91.85 9.26 -13.49 
DOCKED: USER  keepresnum = 1 
DOCKED: USER  
DOCKED: REMARK  13 active torsions:
DOCKED: REMARK  status: ('A' for Active; 'I' for Inactive)
DOCKED: REMARK    1  A    between atoms: O_3  and  C_38 
DOCKED: REMARK    2  A    between atoms: O_4  and  C_40 
DOCKED: REMARK    3  A    between atoms: O_7  and  C_46 
DOCKED: REMARK    4  A    between atoms: O_9  and  C_48 
DOCKED: REMARK    5  A    between atoms: C_15  and  C_20 
DOCKED: REMARK    6  A    between atoms: C_16  and  C_23 
DOCKED: REMARK    7  A    between atoms: C_20  and  C_38 
DOCKED: REMARK    8  A    between atoms: C_23  and  C_40 
DOCKED: REMARK    9  A    between atoms: C_32  and  C_41 
DOCKED: REMARK   10  A    between atoms: C_37  and  C_45 
DOCKED: REMARK   11  A    between atoms: C_41  and  C_44 
DOCKED: REMARK   12  A    between atoms: C_44  and  C_46 
DOCKED: REMARK   13  A    between atoms: C_47  and  C_48 
DOCKED: USER                              x       y       z     vdW  Elec       q    Type
DOCKED: USER                           _______ _______ _______ _____ _____    ______ ____
DOCKED: ROOT
DOCKED: ATOM      1  O   UNL d   1      38.842  47.434  25.155 -0.02 -0.02    -0.289 OA
DOCKED: ATOM      2  O   UNL d   1      39.678  49.745  18.060 -0.31 -0.17    -0.289 OA
DOCKED: ATOM      3  N   UNL d   1      36.732  49.726  23.677 -0.07 -0.02    -0.247 NA
DOCKED: ATOM      4  N   UNL d   1      38.008  50.228  21.041 -0.07 -0.04    -0.247 NA
DOCKED: ATOM      5  N   UNL d   1      36.286  52.512  20.746 -0.07 -0.06    -0.354 N 
DOCKED: ATOM      6  N   UNL d   1      34.981  51.995  23.490 -0.04 -0.04    -0.354 N 
DOCKED: ATOM      7  C   UNL d   1      36.991  48.824  25.941 -0.08 +0.00    +0.084 A 
DOCKED: ATOM      8  C   UNL d   1      39.404  48.448  20.118 -0.22 +0.02    +0.084 A 
DOCKED: ATOM      9  C   UNL d   1      38.569  48.994  21.281 -0.13 +0.01    +0.058 A 
DOCKED: ATOM     10  C   UNL d   1      36.259  49.763  24.978 -0.11 +0.00    +0.058 A 
DOCKED: ATOM     11  C   UNL d   1      37.950  48.237  24.950 -0.03 +0.01    +0.193 A 
DOCKED: ATOM     12  C   UNL d   1      37.675  48.845  23.609 -0.09 +0.01    +0.109 A 
DOCKED: ATOM     13  C   UNL d   1      39.243  49.618  19.188 -0.19 +0.07    +0.193 A 
DOCKED: ATOM     14  C   UNL d   1      37.784  49.593  27.001 -0.03 +0.00    +0.026 C 
DOCKED: ATOM     15  C   UNL d   1      38.442  48.347  22.449 -0.14 +0.01    +0.055 C 
DOCKED: ATOM     16  C   UNL d   1      38.752  47.218  19.479 -0.29 +0.01    +0.026 C 
DOCKED: ATOM     17  C   UNL d   1      38.382  50.631  19.869 -0.16 +0.03    +0.109 A 
DOCKED: ATOM     18  C   UNL d   1      35.191  50.482  25.373 -0.14 +0.00    +0.050 C 
DOCKED: ATOM     19  C   UNL d   1      34.401  51.310  24.534 -0.10 +0.00    +0.045 A 
DOCKED: ATOM     20  C   UNL d   1      37.131  52.716  19.686 -0.15 +0.01    +0.045 A 
DOCKED: ATOM     21  C   UNL d   1      38.085  51.911  19.209 -0.15 +0.02    +0.057 C 
DOCKED: ATOM     22  C   UNL d   1      35.765  54.534  19.902 -0.10 -0.00    -0.019 A 
DOCKED: ATOM     23  C   UNL d   1      35.424  53.556  20.954 -0.12 +0.01    +0.045 A 
DOCKED: ATOM     24  C   UNL d   1      36.775  54.031  19.154 -0.13 -0.01    -0.022 A 
DOCKED: ATOM     25  C   UNL d   1      34.055  52.802  22.870 -0.14 +0.01    +0.049 A 
DOCKED: ATOM     26  C   UNL d   1      33.059  51.652  24.571 -0.11 -0.00    -0.018 A 
DOCKED: ATOM     27  C   UNL d   1      32.842  52.580  23.505 -0.21 +0.00    +0.003 A 
DOCKED: ATOM     28  C   UNL d   1      34.451  53.724  21.863 -0.12 +0.01    +0.052 C 
DOCKED: ATOM     29  C   UNL d   1      37.454  54.638  17.974 -0.09 +0.01    +0.046 C 
DOCKED: ATOM     30  C   UNL d   1      32.037  51.149  25.533 -0.19 +0.01    +0.046 C 
DOCKED: ATOM     31  H   UNL d   1      36.275  51.631  21.248 +0.05 +0.02    +0.166 HD
DOCKED: ATOM     32  H   UNL d   1      35.964  51.931  23.254 +0.04 +0.02    +0.166 HD
DOCKED: ENDROOT
DOCKED: BRANCH   7  33
DOCKED: ATOM     33  C   UNL d   1      36.128  47.726  26.571 -0.16 +0.01    +0.141 C 
DOCKED: BRANCH  33  34
DOCKED: ATOM     34  C   UNL d   1      35.920  46.554  25.651 -0.14 +0.02    +0.306 C 
DOCKED: ATOM     35  O   UNL d   1      35.161  46.513  24.697 -0.61 +0.00    -0.251 OA
DOCKED: BRANCH  34  36
DOCKED: ATOM     36  O   UNL d   1      36.680  45.495  25.979 -0.09 -0.03    -0.481 OA
DOCKED: ATOM     37  H   UNL d   1      37.603  45.809  25.867 +0.12 +0.02    +0.295 HD
DOCKED: ENDBRANCH  34  36
DOCKED: ENDBRANCH  33  34
DOCKED: ENDBRANCH   7  33
DOCKED: BRANCH  27  38
DOCKED: ATOM     38  C   UNL d   1      31.590  53.200  23.193 -0.23 +0.00    +0.017 C 
DOCKED: ATOM     39  C   UNL d   1      31.065  53.312  21.963 -0.23 +0.02    +0.092 C 
DOCKED: BRANCH  39  40
DOCKED: ATOM     40  C   UNL d   1      29.762  53.957  21.781 -0.11 +0.12    +0.330 C 
DOCKED: ATOM     41  O   UNL d   1      28.666  53.507  22.054 -0.15 -0.16    -0.246 OA
DOCKED: BRANCH  40  42
DOCKED: ATOM     42  O   UNL d   1      29.922  55.180  21.253 -0.02 -0.11    -0.477 OA
DOCKED: ATOM     43  H   UNL d   1      30.814  55.147  20.849 +0.06 +0.06    +0.295 HD
DOCKED: ENDBRANCH  40  42
DOCKED: ENDBRANCH  39  40
DOCKED: ENDBRANCH  27  38
DOCKED: BRANCH   8  44
DOCKED: ATOM     44  C   UNL d   1      40.883  48.194  20.428 -0.17 +0.02    +0.141 C 
DOCKED: BRANCH  44  45
DOCKED: ATOM     45  C   UNL d   1      41.170  46.771  20.828 -0.17 +0.04    +0.306 C 
DOCKED: ATOM     46  O   UNL d   1      40.777  46.205  21.833 -0.16 -0.03    -0.251 OA
DOCKED: BRANCH  45  47
DOCKED: ATOM     47  O   UNL d   1      41.966  46.139  19.946 -0.14 -0.05    -0.481 OA
DOCKED: ATOM     48  H   UNL d   1      41.459  46.145  19.106 -0.17 -0.01    +0.295 HD
DOCKED: ENDBRANCH  45  47
DOCKED: ENDBRANCH  44  45
DOCKED: ENDBRANCH   8  44
DOCKED: BRANCH  22  49
DOCKED: ATOM     49  C   UNL d   1      35.089  55.863  19.736 -0.06 +0.01    +0.048 C 
DOCKED: BRANCH  49  50
DOCKED: ATOM     50  C   UNL d   1      33.984  55.811  18.681 -0.10 +0.02    +0.125 C 
DOCKED: BRANCH  50  51
DOCKED: ATOM     51  C   UNL d   1      32.671  55.420  19.298 -0.08 +0.04    +0.305 C 
DOCKED: ATOM     52  O   UNL d   1      32.228  54.295  19.451 -0.12 -0.04    -0.251 OA
DOCKED: BRANCH  51  53
DOCKED: ATOM     53  O   UNL d   1      31.958  56.494  19.691 -0.00 -0.06    -0.481 OA
DOCKED: ATOM     54  H   UNL d   1      31.031  56.176  19.695 +0.05 +0.04    +0.295 HD
DOCKED: ENDBRANCH  51  53
DOCKED: ENDBRANCH  50  51
DOCKED: ENDBRANCH  49  50
DOCKED: ENDBRANCH  22  49
DOCKED: TORSDOF 13
DOCKED: TER
DOCKED: ENDMDL
________________________________________________________________________________


	BEGINNING GENETIC ALGORITHM DOCKING 82 of 100
Run: 82 Seed: 1599713804 40501693 [ Run 82 of 100 GA/GALS ]
Beginning LAMARCKIAN GENETIC ALGORITHM (LGA), with a maximum of 25000000 energy evaluations.

Final-Value: -11.425


	FINAL GENETIC ALGORITHM DOCKED STATE
	_______________________________________________


Detailed state:  trans 34.774 50.478 23.804 quatxyzw 0.029459 -0.584921 -0.572633 0.573664 center 0.153 0.018 -0.028 ntor 13 109.0304 -172.7175 -150.1830 -7.0207 179.7068 -77.0847 -78.1692 -24.5995 -20.7499 -148.3766 -62.0210 -13.6674 22.1109
State:	 34.774  50.478  23.804   0.036 -0.714 -0.699 109.988    109.03 -172.72 -150.18   -7.02  179.71  -77.08  -78.17  -24.60  -20.75 -148.38  -62.02  -13.67   22.11

DOCKED: MODEL       82
DOCKED: USER    Run = 82
DOCKED: USER    DPF = D:/Protein_go_brrr/autodock/final/2DN3/heme/dock.dpf
DOCKED: USER  
DOCKED: USER    Estimated Free Energy of Binding    =   -3.32 kcal/mol  [=(1)+(2)+(3)-(4)]
DOCKED: USER    Estimated Inhibition Constant, Ki   =    3.67 mM (millimolar)  [Temperature = 298.15 K]
DOCKED: USER    
DOCKED: USER    (1) Final Intermolecular Energy     =   -7.20 kcal/mol
DOCKED: USER        vdW + Hbond + desolv Energy     =   -7.14 kcal/mol
DOCKED: USER        Electrostatic Energy            =   -0.06 kcal/mol
DOCKED: USER    (2) Final Total Internal Energy     =   -4.22 kcal/mol
DOCKED: USER    (3) Torsional Free Energy           =   +3.88 kcal/mol
DOCKED: USER    (4) Unbound System's Energy  [=(2)] =   -4.22 kcal/mol
DOCKED: USER    
DOCKED: USER    
DOCKED: USER    NEWDPF move heme_opt.pdbqt
DOCKED: USER    NEWDPF about 0.153000 0.018000 -0.028000
DOCKED: USER    NEWDPF tran0 34.773517 50.478232 23.803768
DOCKED: USER    NEWDPF quaternion0 0.029459 -0.584921 -0.572633 0.573664
DOCKED: USER    NEWDPF axisangle0 0.035966 -0.714111 -0.699108 109.987735
DOCKED: USER    NEWDPF quat0 0.035966 -0.714111 -0.699108 109.987735
DOCKED: USER    NEWDPF dihe0 109.03 -172.72 -150.18 -7.02 179.71 -77.08 -78.17 -24.60 -20.75 -148.38 -62.02 -13.67 22.11 
DOCKED: USER  keepresnum = 1 
DOCKED: USER  
DOCKED: REMARK  13 active torsions:
DOCKED: REMARK  status: ('A' for Active; 'I' for Inactive)
DOCKED: REMARK    1  A    between atoms: O_3  and  C_38 
DOCKED: REMARK    2  A    between atoms: O_4  and  C_40 
DOCKED: REMARK    3  A    between atoms: O_7  and  C_46 
DOCKED: REMARK    4  A    between atoms: O_9  and  C_48 
DOCKED: REMARK    5  A    between atoms: C_15  and  C_20 
DOCKED: REMARK    6  A    between atoms: C_16  and  C_23 
DOCKED: REMARK    7  A    between atoms: C_20  and  C_38 
DOCKED: REMARK    8  A    between atoms: C_23  and  C_40 
DOCKED: REMARK    9  A    between atoms: C_32  and  C_41 
DOCKED: REMARK   10  A    between atoms: C_37  and  C_45 
DOCKED: REMARK   11  A    between atoms: C_41  and  C_44 
DOCKED: REMARK   12  A    between atoms: C_44  and  C_46 
DOCKED: REMARK   13  A    between atoms: C_47  and  C_48 
DOCKED: USER                              x       y       z     vdW  Elec       q    Type
DOCKED: USER                           _______ _______ _______ _____ _____    ______ ____
DOCKED: ROOT
DOCKED: ATOM      1  O   UNL d   1      35.927  48.020  29.036 -0.08 -0.04    -0.289 OA
DOCKED: ATOM      2  O   UNL d   1      38.022  46.054  22.098 -0.24 -0.05    -0.289 OA
DOCKED: ATOM      3  N   UNL d   1      34.880  49.712  26.219 +0.08 +0.02    -0.247 NA
DOCKED: ATOM      4  N   UNL d   1      36.431  48.426  24.035 -0.12 -0.02    -0.247 NA
DOCKED: ATOM      5  N   UNL d   1      35.661  50.609  22.329 +0.01 -0.05    -0.354 N 
DOCKED: ATOM      6  N   UNL d   1      34.070  51.945  24.606 -0.06 -0.04    -0.354 N 
DOCKED: ATOM      7  C   UNL d   1      34.644  50.061  28.634 -0.07 +0.00    +0.084 A 
DOCKED: ATOM      8  C   UNL d   1      37.162  46.121  24.389 -0.26 +0.00    +0.084 A 
DOCKED: ATOM      9  C   UNL d   1      36.498  47.389  24.938 -0.25 +0.00    +0.058 A 
DOCKED: ATOM     10  C   UNL d   1      34.363  50.535  27.205 -0.11 -0.00    +0.058 A 
DOCKED: ATOM     11  C   UNL d   1      35.396  48.813  28.281 -0.08 +0.01    +0.193 A 
DOCKED: ATOM     12  C   UNL d   1      35.450  48.700  26.789 -0.11 -0.00    +0.109 A 
DOCKED: ATOM     13  C   UNL d   1      37.493  46.644  23.020 -0.15 +0.02    +0.193 A 
DOCKED: ATOM     14  C   UNL d   1      35.583  51.011  29.380 -0.02 +0.00    +0.026 C 
DOCKED: ATOM     15  C   UNL d   1      36.067  47.492  26.204 -0.22 +0.00    +0.055 C 
DOCKED: ATOM     16  C   UNL d   1      36.160  44.971  24.248 -0.60 -0.00    +0.026 C 
DOCKED: ATOM     17  C   UNL d   1      37.004  48.054  22.936 -0.21 +0.01    +0.109 A 
DOCKED: ATOM     18  C   UNL d   1      33.597  51.615  26.960 -0.11 +0.00    +0.050 C 
DOCKED: ATOM     19  C   UNL d   1      33.214  52.078  25.676 -0.14 +0.00    +0.045 A 
DOCKED: ATOM     20  C   UNL d   1      36.595  50.003  21.529 -0.24 +0.01    +0.045 A 
DOCKED: ATOM     21  C   UNL d   1      37.230  48.841  21.715 -0.27 +0.01    +0.057 C 
DOCKED: ATOM     22  C   UNL d   1      35.955  51.969  20.558 -0.24 -0.00    -0.019 A 
DOCKED: ATOM     23  C   UNL d   1      35.216  51.802  21.825 -0.21 +0.00    +0.045 A 
DOCKED: ATOM     24  C   UNL d   1      36.769  50.900  20.388 -0.25 -0.00    -0.022 A 
DOCKED: ATOM     25  C   UNL d   1      33.539  52.540  23.485 -0.16 +0.01    +0.049 A 
DOCKED: ATOM     26  C   UNL d   1      32.082  52.744  25.230 -0.16 -0.00    -0.018 A 
DOCKED: ATOM     27  C   UNL d   1      32.285  53.015  23.842 -0.18 +0.00    +0.003 A 
DOCKED: ATOM     28  C   UNL d   1      34.306  52.669  22.295 -0.20 +0.01    +0.052 C 
DOCKED: ATOM     29  C   UNL d   1      37.700  50.607  19.261 -0.14 +0.02    +0.046 C 
DOCKED: ATOM     30  C   UNL d   1      30.884  53.104  26.042 -0.10 +0.02    +0.046 C 
DOCKED: ATOM     31  H   UNL d   1      35.302  50.149  23.159 +0.08 +0.03    +0.166 HD
DOCKED: ATOM     32  H   UNL d   1      34.980  51.503  24.668 +0.03 +0.01    +0.166 HD
DOCKED: ENDROOT
DOCKED: BRANCH   7  33
DOCKED: ATOM     33  C   UNL d   1      33.404  49.723  29.470 -0.07 +0.01    +0.141 C 
DOCKED: BRANCH  33  34
DOCKED: ATOM     34  C   UNL d   1      32.235  49.296  28.625 -0.14 +0.00    +0.306 C 
DOCKED: ATOM     35  O   UNL d   1      31.115  49.778  28.648 -0.12 -0.02    -0.251 OA
DOCKED: BRANCH  34  36
DOCKED: ATOM     36  O   UNL d   1      32.539  48.285  27.792 -0.18 +0.05    -0.481 OA
DOCKED: ATOM     37  H   UNL d   1      33.090  48.697  27.094 -0.43 -0.09    +0.295 HD
DOCKED: ENDBRANCH  34  36
DOCKED: ENDBRANCH  33  34
DOCKED: ENDBRANCH   7  33
DOCKED: BRANCH  27  38
DOCKED: ATOM     38  C   UNL d   1      31.361  53.705  22.993 -0.19 +0.00    +0.017 C 
DOCKED: ATOM     39  C   UNL d   1      31.309  53.598  21.656 -0.19 +0.02    +0.092 C 
DOCKED: BRANCH  39  40
DOCKED: ATOM     40  C   UNL d   1      30.300  54.347  20.903 +0.00 +0.08    +0.330 C 
DOCKED: ATOM     41  O   UNL d   1      29.124  54.072  20.757 -0.12 -0.07    -0.246 OA
DOCKED: BRANCH  40  42
DOCKED: ATOM     42  O   UNL d   1      30.849  55.446  20.363 -0.02 -0.08    -0.477 OA
DOCKED: ATOM     43  H   UNL d   1      31.805  55.346  20.548 +0.06 +0.04    +0.295 HD
DOCKED: ENDBRANCH  40  42
DOCKED: ENDBRANCH  39  40
DOCKED: ENDBRANCH  27  38
DOCKED: BRANCH   8  44
DOCKED: ATOM     44  C   UNL d   1      38.427  45.667  25.124 -0.13 +0.01    +0.141 C 
DOCKED: BRANCH  44  45
DOCKED: ATOM     45  C   UNL d   1      38.792  44.233  24.849 -0.11 +0.04    +0.306 C 
DOCKED: ATOM     46  O   UNL d   1      38.924  43.345  25.674 -0.13 -0.04    -0.251 OA
DOCKED: BRANCH  45  47
DOCKED: ATOM     47  O   UNL d   1      39.000  43.997  23.541 -0.17 -0.08    -0.481 OA
DOCKED: ATOM     48  H   UNL d   1      39.319  44.852  23.182 +0.13 +0.05    +0.295 HD
DOCKED: ENDBRANCH  45  47
DOCKED: ENDBRANCH  44  45
DOCKED: ENDBRANCH   8  44
DOCKED: BRANCH  22  49
DOCKED: ATOM     49  C   UNL d   1      35.810  53.153  19.648 -0.22 +0.01    +0.048 C 
DOCKED: BRANCH  49  50
DOCKED: ATOM     50  C   UNL d   1      34.383  53.291  19.117 -0.26 +0.02    +0.125 C 
DOCKED: BRANCH  50  51
DOCKED: ATOM     51  C   UNL d   1      33.774  54.595  19.547 -0.11 +0.05    +0.305 C 
DOCKED: ATOM     52  O   UNL d   1      34.000  55.220  20.569 -0.04 -0.03    -0.251 OA
DOCKED: BRANCH  51  53
DOCKED: ATOM     53  O   UNL d   1      32.879  55.054  18.650 -0.06 -0.07    -0.481 OA
DOCKED: ATOM     54  H   UNL d   1      32.472  55.827  19.094 +0.07 +0.04    +0.295 HD
DOCKED: ENDBRANCH  51  53
DOCKED: ENDBRANCH  50  51
DOCKED: ENDBRANCH  49  50
DOCKED: ENDBRANCH  22  49
DOCKED: TORSDOF 13
DOCKED: TER
DOCKED: ENDMDL
________________________________________________________________________________


	BEGINNING GENETIC ALGORITHM DOCKING 83 of 100
Run: 83 Seed: 928391952 941626934 [ Run 83 of 100 GA/GALS ]
Beginning LAMARCKIAN GENETIC ALGORITHM (LGA), with a maximum of 25000000 energy evaluations.

Final-Value: -10.338


	FINAL GENETIC ALGORITHM DOCKED STATE
	_______________________________________________


Detailed state:  trans 42.715 43.007 1.960 quatxyzw -0.968539 0.225824 0.086387 0.058940 center 0.153 0.018 -0.028 ntor 13 176.6209 -138.7579 43.1053 -139.4384 47.7961 -124.1253 132.9319 44.3857 151.5473 -175.4712 61.3541 15.4403 130.9783
State:	 42.715  43.007   1.960  -0.970  0.226  0.087 173.242    176.62 -138.76   43.11 -139.44   47.80 -124.13  132.93   44.39  151.55 -175.47   61.35   15.44  130.98

DOCKED: MODEL       83
DOCKED: USER    Run = 83
DOCKED: USER    DPF = D:/Protein_go_brrr/autodock/final/2DN3/heme/dock.dpf
DOCKED: USER  
DOCKED: USER    Estimated Free Energy of Binding    =   -4.07 kcal/mol  [=(1)+(2)+(3)-(4)]
DOCKED: USER    Estimated Inhibition Constant, Ki   =    1.05 mM (millimolar)  [Temperature = 298.15 K]
DOCKED: USER    
DOCKED: USER    (1) Final Intermolecular Energy     =   -7.94 kcal/mol
DOCKED: USER        vdW + Hbond + desolv Energy     =   -7.54 kcal/mol
DOCKED: USER        Electrostatic Energy            =   -0.40 kcal/mol
DOCKED: USER    (2) Final Total Internal Energy     =   -2.40 kcal/mol
DOCKED: USER    (3) Torsional Free Energy           =   +3.88 kcal/mol
DOCKED: USER    (4) Unbound System's Energy  [=(2)] =   -2.40 kcal/mol
DOCKED: USER    
DOCKED: USER    
DOCKED: USER    NEWDPF move heme_opt.pdbqt
DOCKED: USER    NEWDPF about 0.153000 0.018000 -0.028000
DOCKED: USER    NEWDPF tran0 42.714978 43.007163 1.959997
DOCKED: USER    NEWDPF quaternion0 -0.968539 0.225824 0.086387 0.058940
DOCKED: USER    NEWDPF axisangle0 -0.970225 0.226217 0.086537 173.242102
DOCKED: USER    NEWDPF quat0 -0.970225 0.226217 0.086537 173.242102
DOCKED: USER    NEWDPF dihe0 176.62 -138.76 43.11 -139.44 47.80 -124.13 132.93 44.39 151.55 -175.47 61.35 15.44 130.98 
DOCKED: USER  keepresnum = 1 
DOCKED: USER  
DOCKED: REMARK  13 active torsions:
DOCKED: REMARK  status: ('A' for Active; 'I' for Inactive)
DOCKED: REMARK    1  A    between atoms: O_3  and  C_38 
DOCKED: REMARK    2  A    between atoms: O_4  and  C_40 
DOCKED: REMARK    3  A    between atoms: O_7  and  C_46 
DOCKED: REMARK    4  A    between atoms: O_9  and  C_48 
DOCKED: REMARK    5  A    between atoms: C_15  and  C_20 
DOCKED: REMARK    6  A    between atoms: C_16  and  C_23 
DOCKED: REMARK    7  A    between atoms: C_20  and  C_38 
DOCKED: REMARK    8  A    between atoms: C_23  and  C_40 
DOCKED: REMARK    9  A    between atoms: C_32  and  C_41 
DOCKED: REMARK   10  A    between atoms: C_37  and  C_45 
DOCKED: REMARK   11  A    between atoms: C_41  and  C_44 
DOCKED: REMARK   12  A    between atoms: C_44  and  C_46 
DOCKED: REMARK   13  A    between atoms: C_47  and  C_48 
DOCKED: USER                              x       y       z     vdW  Elec       q    Type
DOCKED: USER                           _______ _______ _______ _____ _____    ______ ____
DOCKED: ROOT
DOCKED: ATOM      1  O   UNL d   1      36.913  43.965   2.374 -0.18 -0.32    -0.289 OA
DOCKED: ATOM      2  O   UNL d   1      42.745  48.633   3.136 -0.09 +0.03    -0.289 OA
DOCKED: ATOM      3  N   UNL d   1      40.190  42.908   2.175 -0.05 -0.07    -0.247 NA
DOCKED: ATOM      4  N   UNL d   1      41.734  45.444   2.289 -0.04 -0.04    -0.247 NA
DOCKED: ATOM      5  N   UNL d   1      44.044  43.969   1.424 -0.04 -0.04    -0.354 N 
DOCKED: ATOM      6  N   UNL d   1      42.431  41.346   1.289 -0.05 -0.07    -0.354 N 
DOCKED: ATOM      7  C   UNL d   1      38.007  41.852   1.817 -0.16 +0.04    +0.084 A 
DOCKED: ATOM      8  C   UNL d   1      40.686  47.341   3.420 -0.14 +0.01    +0.084 A 
DOCKED: ATOM      9  C   UNL d   1      40.586  45.905   2.895 -0.11 +0.01    +0.058 A 
DOCKED: ATOM     10  C   UNL d   1      39.535  41.740   1.823 -0.13 +0.02    +0.058 A 
DOCKED: ATOM     11  C   UNL d   1      37.914  43.285   2.245 -0.14 +0.11    +0.193 A 
DOCKED: ATOM     12  C   UNL d   1      39.302  43.806   2.456 -0.11 +0.04    +0.109 A 
DOCKED: ATOM     13  C   UNL d   1      42.091  47.623   2.967 -0.07 +0.00    +0.193 A 
DOCKED: ATOM     14  C   UNL d   1      37.427  41.718   0.407 -0.11 +0.01    +0.026 C 
DOCKED: ATOM     15  C   UNL d   1      39.459  45.180   2.973 -0.18 +0.02    +0.055 C 
DOCKED: ATOM     16  C   UNL d   1      40.642  47.390   4.950 -0.38 -0.00    +0.026 C 
DOCKED: ATOM     17  C   UNL d   1      42.610  46.397   2.290 -0.07 +0.01    +0.109 A 
DOCKED: ATOM     18  C   UNL d   1      40.155  40.568   1.591 -0.15 +0.01    +0.050 C 
DOCKED: ATOM     19  C   UNL d   1      41.555  40.350   1.658 -0.19 +0.01    +0.045 A 
DOCKED: ATOM     20  C   UNL d   1      44.527  45.247   1.314 -0.07 +0.00    +0.045 A 
DOCKED: ATOM     21  C   UNL d   1      43.958  46.393   1.701 -0.08 +0.00    +0.057 C 
DOCKED: ATOM     22  C   UNL d   1      46.061  43.801   0.435 -0.06 -0.00    -0.019 A 
DOCKED: ATOM     23  C   UNL d   1      44.901  43.027   0.920 -0.07 +0.01    +0.045 A 
DOCKED: ATOM     24  C   UNL d   1      45.834  45.115   0.672 -0.04 -0.00    -0.022 A 
DOCKED: ATOM     25  C   UNL d   1      43.728  40.893   1.345 -0.10 +0.01    +0.049 A 
DOCKED: ATOM     26  C   UNL d   1      42.303  39.234   1.997 -0.31 -0.00    -0.018 A 
DOCKED: ATOM     27  C   UNL d   1      43.676  39.588   1.816 -0.23 +0.00    +0.003 A 
DOCKED: ATOM     28  C   UNL d   1      44.801  41.690   0.860 -0.08 +0.01    +0.052 C 
DOCKED: ATOM     29  C   UNL d   1      46.712  46.282   0.375 -0.02 -0.00    +0.046 C 
DOCKED: ATOM     30  C   UNL d   1      41.778  37.918   2.463 -0.04 +0.01    +0.046 C 
DOCKED: ATOM     31  H   UNL d   1      43.175  43.774   1.909 +0.03 +0.03    +0.166 HD
DOCKED: ATOM     32  H   UNL d   1      42.137  42.266   0.982 +0.03 +0.03    +0.166 HD
DOCKED: ENDROOT
DOCKED: BRANCH   7  33
DOCKED: ATOM     33  C   UNL d   1      37.278  40.944   2.813 -0.25 +0.05    +0.141 C 
DOCKED: BRANCH  33  34
DOCKED: ATOM     34  C   UNL d   1      35.828  40.747   2.463 -0.19 +0.13    +0.306 C 
DOCKED: ATOM     35  O   UNL d   1      35.343  39.763   1.929 -0.60 -0.12    -0.251 OA
DOCKED: BRANCH  34  36
DOCKED: ATOM     36  O   UNL d   1      35.064  41.799   2.806 -0.12 -0.26    -0.481 OA
DOCKED: ATOM     37  H   UNL d   1      35.670  42.394   3.296 -0.27 +0.12    +0.295 HD
DOCKED: ENDBRANCH  34  36
DOCKED: ENDBRANCH  33  34
DOCKED: ENDBRANCH   7  33
DOCKED: BRANCH  27  38
DOCKED: ATOM     38  C   UNL d   1      44.789  38.717   2.041 -0.30 +0.01    +0.017 C 
DOCKED: ATOM     39  C   UNL d   1      45.854  39.002   2.806 -0.14 +0.03    +0.092 C 
DOCKED: BRANCH  39  40
DOCKED: ATOM     40  C   UNL d   1      46.923  38.013   2.968 -0.16 +0.15    +0.330 C 
DOCKED: ATOM     41  O   UNL d   1      47.380  37.576   4.007 -0.26 -0.17    -0.246 OA
DOCKED: BRANCH  40  42
DOCKED: ATOM     42  O   UNL d   1      47.364  37.608   1.767 -0.04 -0.16    -0.477 OA
DOCKED: ATOM     43  H   UNL d   1      47.396  38.432   1.239 +0.08 +0.07    +0.295 HD
DOCKED: ENDBRANCH  40  42
DOCKED: ENDBRANCH  39  40
DOCKED: ENDBRANCH  27  38
DOCKED: BRANCH   8  44
DOCKED: ATOM     44  C   UNL d   1      39.700  48.340   2.804 -0.16 +0.04    +0.141 C 
DOCKED: BRANCH  44  45
DOCKED: ATOM     45  C   UNL d   1      39.037  49.226   3.825 -0.21 +0.13    +0.306 C 
DOCKED: ATOM     46  O   UNL d   1      39.450  50.297   4.235 -0.68 -0.16    -0.251 OA
DOCKED: BRANCH  45  47
DOCKED: ATOM     47  O   UNL d   1      37.894  48.699   4.300 -0.43 -0.29    -0.481 OA
DOCKED: ATOM     48  H   UNL d   1      37.269  49.454   4.335 -0.31 +0.15    +0.295 HD
DOCKED: ENDBRANCH  45  47
DOCKED: ENDBRANCH  44  45
DOCKED: ENDBRANCH   8  44
DOCKED: BRANCH  22  49
DOCKED: ATOM     49  C   UNL d   1      47.265  43.193  -0.222 -0.03 +0.00    +0.048 C 
DOCKED: BRANCH  49  50
DOCKED: ATOM     50  C   UNL d   1      46.875  42.193  -1.310 -0.01 +0.01    +0.125 C 
DOCKED: BRANCH  50  51
DOCKED: ATOM     51  C   UNL d   1      47.368  40.814  -0.973 -0.01 +0.03    +0.305 C 
DOCKED: ATOM     52  O   UNL d   1      47.404  40.285   0.124 -0.02 -0.03    -0.251 OA
DOCKED: BRANCH  51  53
DOCKED: ATOM     53  O   UNL d   1      47.814  40.158  -2.063 +0.00 -0.05    -0.481 OA
DOCKED: ATOM     54  H   UNL d   1      48.295  40.843  -2.573 +0.00 +0.02    +0.295 HD
DOCKED: ENDBRANCH  51  53
DOCKED: ENDBRANCH  50  51
DOCKED: ENDBRANCH  49  50
DOCKED: ENDBRANCH  22  49
DOCKED: TORSDOF 13
DOCKED: TER
DOCKED: ENDMDL
________________________________________________________________________________


	BEGINNING GENETIC ALGORITHM DOCKING 84 of 100
Run: 84 Seed: 556445570 1402476795 [ Run 84 of 100 GA/GALS ]
Beginning LAMARCKIAN GENETIC ALGORITHM (LGA), with a maximum of 25000000 energy evaluations.

Final-Value: -10.960


	FINAL GENETIC ALGORITHM DOCKED STATE
	_______________________________________________


Detailed state:  trans 0.358 32.801 7.341 quatxyzw 0.162267 -0.615331 -0.241074 -0.732748 center 0.153 0.018 -0.028 ntor 13 96.9077 -138.8160 -101.2676 -15.6227 174.2499 38.5397 130.2251 180.0000 115.6577 -21.6102 -65.7161 -92.2775 -1.1818
State:	  0.358  32.801   7.341   0.238 -0.904 -0.354 -85.765     96.91 -138.82 -101.27  -15.62  174.25   38.54  130.23  180.00  115.66  -21.61  -65.72  -92.28   -1.18

DOCKED: MODEL       84
DOCKED: USER    Run = 84
DOCKED: USER    DPF = D:/Protein_go_brrr/autodock/final/2DN3/heme/dock.dpf
DOCKED: USER  
DOCKED: USER    Estimated Free Energy of Binding    =   -2.79 kcal/mol  [=(1)+(2)+(3)-(4)]
DOCKED: USER    Estimated Inhibition Constant, Ki   =    9.07 mM (millimolar)  [Temperature = 298.15 K]
DOCKED: USER    
DOCKED: USER    (1) Final Intermolecular Energy     =   -6.66 kcal/mol
DOCKED: USER        vdW + Hbond + desolv Energy     =   -6.60 kcal/mol
DOCKED: USER        Electrostatic Energy            =   -0.07 kcal/mol
DOCKED: USER    (2) Final Total Internal Energy     =   -4.30 kcal/mol
DOCKED: USER    (3) Torsional Free Energy           =   +3.88 kcal/mol
DOCKED: USER    (4) Unbound System's Energy  [=(2)] =   -4.30 kcal/mol
DOCKED: USER    
DOCKED: USER    
DOCKED: USER    NEWDPF move heme_opt.pdbqt
DOCKED: USER    NEWDPF about 0.153000 0.018000 -0.028000
DOCKED: USER    NEWDPF tran0 0.357971 32.800650 7.340800
DOCKED: USER    NEWDPF quaternion0 0.162267 -0.615331 -0.241074 -0.732748
DOCKED: USER    NEWDPF axisangle0 0.238453 -0.904235 -0.354260 -85.765398
DOCKED: USER    NEWDPF quat0 0.238453 -0.904235 -0.354260 -85.765398
DOCKED: USER    NEWDPF dihe0 96.91 -138.82 -101.27 -15.62 174.25 38.54 130.23 180.00 115.66 -21.61 -65.72 -92.28 -1.18 
DOCKED: USER  keepresnum = 1 
DOCKED: USER  
DOCKED: REMARK  13 active torsions:
DOCKED: REMARK  status: ('A' for Active; 'I' for Inactive)
DOCKED: REMARK    1  A    between atoms: O_3  and  C_38 
DOCKED: REMARK    2  A    between atoms: O_4  and  C_40 
DOCKED: REMARK    3  A    between atoms: O_7  and  C_46 
DOCKED: REMARK    4  A    between atoms: O_9  and  C_48 
DOCKED: REMARK    5  A    between atoms: C_15  and  C_20 
DOCKED: REMARK    6  A    between atoms: C_16  and  C_23 
DOCKED: REMARK    7  A    between atoms: C_20  and  C_38 
DOCKED: REMARK    8  A    between atoms: C_23  and  C_40 
DOCKED: REMARK    9  A    between atoms: C_32  and  C_41 
DOCKED: REMARK   10  A    between atoms: C_37  and  C_45 
DOCKED: REMARK   11  A    between atoms: C_41  and  C_44 
DOCKED: REMARK   12  A    between atoms: C_44  and  C_46 
DOCKED: REMARK   13  A    between atoms: C_47  and  C_48 
DOCKED: USER                              x       y       z     vdW  Elec       q    Type
DOCKED: USER                           _______ _______ _______ _____ _____    ______ ____
DOCKED: ROOT
DOCKED: ATOM      1  O   UNL d   1      -0.727  37.345   3.746 +0.00 -0.20    -0.289 OA
DOCKED: ATOM      2  O   UNL d   1       0.825  30.149   2.262 -0.04 +0.03    -0.289 OA
DOCKED: ATOM      3  N   UNL d   1      -0.019  35.040   6.212 -0.15 -0.05    -0.247 NA
DOCKED: ATOM      4  N   UNL d   1       0.152  32.476   4.721 -0.05 -0.00    -0.247 NA
DOCKED: ATOM      5  N   UNL d   1       0.040  31.107   7.247 -0.06 +0.05    -0.354 N 
DOCKED: ATOM      6  N   UNL d   1      -0.157  33.771   8.784 -0.04 -0.03    -0.354 N 
DOCKED: ATOM      7  C   UNL d   1      -0.753  37.379   6.190 -0.22 +0.04    +0.084 A 
DOCKED: ATOM      8  C   UNL d   1       0.767  32.595   2.359 -0.08 +0.01    +0.084 A 
DOCKED: ATOM      9  C   UNL d   1       0.409  33.317   3.662 -0.14 +0.01    +0.058 A 
DOCKED: ATOM     10  C   UNL d   1      -0.373  36.130   6.990 -0.24 +0.02    +0.058 A 
DOCKED: ATOM     11  C   UNL d   1      -0.534  36.808   4.821 -0.07 +0.09    +0.193 A 
DOCKED: ATOM     12  C   UNL d   1      -0.066  35.394   4.969 -0.17 +0.03    +0.109 A 
DOCKED: ATOM     13  C   UNL d   1       0.629  31.187   2.865 -0.04 -0.01    +0.193 A 
DOCKED: ATOM     14  C   UNL d   1      -2.234  37.733   6.347 -0.12 +0.01    +0.026 C 
DOCKED: ATOM     15  C   UNL d   1       0.306  34.653   3.746 -0.18 +0.02    +0.055 C 
DOCKED: ATOM     16  C   UNL d   1       2.226  32.833   1.960 -0.22 +0.00    +0.026 C 
DOCKED: ATOM     17  C   UNL d   1       0.245  31.253   4.308 -0.07 -0.01    +0.109 A 
DOCKED: ATOM     18  C   UNL d   1      -0.310  36.148   8.335 -0.26 +0.01    +0.050 C 
DOCKED: ATOM     19  C   UNL d   1       0.111  35.070   9.154 -0.23 +0.01    +0.045 A 
DOCKED: ATOM     20  C   UNL d   1      -0.105  30.042   6.395 -0.14 -0.01    +0.045 A 
DOCKED: ATOM     21  C   UNL d   1      -0.004  30.016   5.062 -0.11 -0.02    +0.057 C 
DOCKED: ATOM     22  C   UNL d   1      -0.418  29.320   8.540 -0.17 +0.01    -0.019 A 
DOCKED: ATOM     23  C   UNL d   1      -0.131  30.769   8.563 -0.15 -0.01    +0.045 A 
DOCKED: ATOM     24  C   UNL d   1      -0.400  28.896   7.254 -0.16 +0.01    -0.022 A 
DOCKED: ATOM     25  C   UNL d   1       0.258  32.896   9.761 -0.10 +0.00    +0.049 A 
DOCKED: ATOM     26  C   UNL d   1       0.749  35.035  10.384 -0.29 -0.00    -0.018 A 
DOCKED: ATOM     27  C   UNL d   1       0.856  33.659  10.754 -0.23 +0.00    +0.003 A 
DOCKED: ATOM     28  C   UNL d   1      -0.052  31.511   9.678 -0.17 -0.00    +0.052 C 
DOCKED: ATOM     29  C   UNL d   1      -0.619  27.520   6.722 -0.01 -0.05    +0.046 C 
DOCKED: ATOM     30  C   UNL d   1       1.232  36.207  11.170 -0.42 +0.00    +0.046 C 
DOCKED: ATOM     31  H   UNL d   1       0.325  32.018   6.905 +0.06 -0.01    +0.166 HD
DOCKED: ATOM     32  H   UNL d   1      -0.632  33.519   7.926 +0.05 +0.01    +0.166 HD
DOCKED: ENDROOT
DOCKED: BRANCH   7  33
DOCKED: ATOM     33  C   UNL d   1       0.144  38.601   6.414 -0.26 +0.08    +0.141 C 
DOCKED: BRANCH  33  34
DOCKED: ATOM     34  C   UNL d   1      -0.016  39.641   5.338 -0.23 +0.18    +0.306 C 
DOCKED: ATOM     35  O   UNL d   1       0.886  40.194   4.731 -0.28 -0.14    -0.251 OA
DOCKED: BRANCH  34  36
DOCKED: ATOM     36  O   UNL d   1      -1.304  39.929   5.083 -0.04 -0.28    -0.481 OA
DOCKED: ATOM     37  H   UNL d   1      -1.584  39.253   4.430 +0.08 +0.18    +0.295 HD
DOCKED: ENDBRANCH  34  36
DOCKED: ENDBRANCH  33  34
DOCKED: ENDBRANCH   7  33
DOCKED: BRANCH  27  38
DOCKED: ATOM     38  C   UNL d   1       1.440  33.173  11.968 -0.35 +0.00    +0.017 C 
DOCKED: ATOM     39  C   UNL d   1       0.828  32.376  12.856 -0.20 +0.01    +0.092 C 
DOCKED: BRANCH  39  40
DOCKED: ATOM     40  C   UNL d   1       1.545  31.934  14.055 -0.09 +0.04    +0.330 C 
DOCKED: ATOM     41  O   UNL d   1       2.344  32.566  14.720 -0.41 -0.03    -0.246 OA
DOCKED: BRANCH  40  42
DOCKED: ATOM     42  O   UNL d   1       1.194  30.676  14.366 -0.05 -0.02    -0.477 OA
DOCKED: ATOM     43  H   UNL d   1       1.155  30.223  13.498 +0.11 +0.02    +0.295 HD
DOCKED: ENDBRANCH  40  42
DOCKED: ENDBRANCH  39  40
DOCKED: ENDBRANCH  27  38
DOCKED: BRANCH   8  44
DOCKED: ATOM     44  C   UNL d   1      -0.179  32.850   1.181 -0.04 +0.02    +0.141 C 
DOCKED: BRANCH  44  45
DOCKED: ATOM     45  C   UNL d   1      -1.524  32.194   1.346 -0.00 +0.03    +0.306 C 
DOCKED: ATOM     46  O   UNL d   1      -2.490  32.654   1.928 -0.00 -0.03    -0.251 OA
DOCKED: BRANCH  45  47
DOCKED: ATOM     47  O   UNL d   1      -1.571  30.971   0.787 +0.00 -0.02    -0.481 OA
DOCKED: ATOM     48  H   UNL d   1      -1.109  30.388   1.427 +0.02 -0.00    +0.295 HD
DOCKED: ENDBRANCH  45  47
DOCKED: ENDBRANCH  44  45
DOCKED: ENDBRANCH   8  44
DOCKED: BRANCH  22  49
DOCKED: ATOM     49  C   UNL d   1      -0.694  28.497   9.763 -0.17 -0.02    +0.048 C 
DOCKED: BRANCH  49  50
DOCKED: ATOM     50  C   UNL d   1       0.595  28.017  10.429 -0.22 -0.05    +0.125 C 
DOCKED: BRANCH  50  51
DOCKED: ATOM     51  C   UNL d   1       0.751  28.622  11.795 -0.13 -0.04    +0.305 C 
DOCKED: ATOM     52  O   UNL d   1       1.606  28.370  12.627 -0.15 +0.01    -0.251 OA
DOCKED: BRANCH  51  53
DOCKED: ATOM     53  O   UNL d   1      -0.210  29.531  12.057 -0.01 +0.03    -0.481 OA
DOCKED: ATOM     54  H   UNL d   1      -0.166  29.650  13.028 +0.07 -0.01    +0.295 HD
DOCKED: ENDBRANCH  51  53
DOCKED: ENDBRANCH  50  51
DOCKED: ENDBRANCH  49  50
DOCKED: ENDBRANCH  22  49
DOCKED: TORSDOF 13
DOCKED: TER
DOCKED: ENDMDL
________________________________________________________________________________


	BEGINNING GENETIC ALGORITHM DOCKING 85 of 100
Run: 85 Seed: 336524379 943119545 [ Run 85 of 100 GA/GALS ]
Beginning LAMARCKIAN GENETIC ALGORITHM (LGA), with a maximum of 25000000 energy evaluations.

Final-Value: -13.294


	FINAL GENETIC ALGORITHM DOCKED STATE
	_______________________________________________


Detailed state:  trans 12.387 40.145 25.079 quatxyzw -0.734826 0.459291 -0.415458 0.276546 center 0.153 0.018 -0.028 ntor 13 104.5983 -179.8470 -1.6374 -42.3538 -130.5456 -74.7454 -32.4045 -100.9203 35.7884 132.2668 -98.8299 29.2175 -5.6416
State:	 12.387  40.145  25.079  -0.765  0.478 -0.432 147.892    104.60 -179.85   -1.64  -42.35 -130.55  -74.75  -32.40 -100.92   35.79  132.27  -98.83   29.22   -5.64

DOCKED: MODEL       85
DOCKED: USER    Run = 85
DOCKED: USER    DPF = D:/Protein_go_brrr/autodock/final/2DN3/heme/dock.dpf
DOCKED: USER  
DOCKED: USER    Estimated Free Energy of Binding    =   -5.30 kcal/mol  [=(1)+(2)+(3)-(4)]
DOCKED: USER    Estimated Inhibition Constant, Ki   =  130.23 uM (micromolar)  [Temperature = 298.15 K]
DOCKED: USER    
DOCKED: USER    (1) Final Intermolecular Energy     =   -9.18 kcal/mol
DOCKED: USER        vdW + Hbond + desolv Energy     =   -9.19 kcal/mol
DOCKED: USER        Electrostatic Energy            =   +0.01 kcal/mol
DOCKED: USER    (2) Final Total Internal Energy     =   -4.12 kcal/mol
DOCKED: USER    (3) Torsional Free Energy           =   +3.88 kcal/mol
DOCKED: USER    (4) Unbound System's Energy  [=(2)] =   -4.12 kcal/mol
DOCKED: USER    
DOCKED: USER    
DOCKED: USER    NEWDPF move heme_opt.pdbqt
DOCKED: USER    NEWDPF about 0.153000 0.018000 -0.028000
DOCKED: USER    NEWDPF tran0 12.387208 40.144730 25.079287
DOCKED: USER    NEWDPF quaternion0 -0.734826 0.459291 -0.415458 0.276546
DOCKED: USER    NEWDPF axisangle0 -0.764646 0.477930 -0.432318 147.891646
DOCKED: USER    NEWDPF quat0 -0.764646 0.477930 -0.432318 147.891646
DOCKED: USER    NEWDPF dihe0 104.60 -179.85 -1.64 -42.35 -130.55 -74.75 -32.40 -100.92 35.79 132.27 -98.83 29.22 -5.64 
DOCKED: USER  keepresnum = 1 
DOCKED: USER  
DOCKED: REMARK  13 active torsions:
DOCKED: REMARK  status: ('A' for Active; 'I' for Inactive)
DOCKED: REMARK    1  A    between atoms: O_3  and  C_38 
DOCKED: REMARK    2  A    between atoms: O_4  and  C_40 
DOCKED: REMARK    3  A    between atoms: O_7  and  C_46 
DOCKED: REMARK    4  A    between atoms: O_9  and  C_48 
DOCKED: REMARK    5  A    between atoms: C_15  and  C_20 
DOCKED: REMARK    6  A    between atoms: C_16  and  C_23 
DOCKED: REMARK    7  A    between atoms: C_20  and  C_38 
DOCKED: REMARK    8  A    between atoms: C_23  and  C_40 
DOCKED: REMARK    9  A    between atoms: C_32  and  C_41 
DOCKED: REMARK   10  A    between atoms: C_37  and  C_45 
DOCKED: REMARK   11  A    between atoms: C_41  and  C_44 
DOCKED: REMARK   12  A    between atoms: C_44  and  C_46 
DOCKED: REMARK   13  A    between atoms: C_47  and  C_48 
DOCKED: USER                              x       y       z     vdW  Elec       q    Type
DOCKED: USER                           _______ _______ _______ _____ _____    ______ ____
DOCKED: ROOT
DOCKED: ATOM      1  O   UNL d   1       9.783  41.414  19.945 -0.19 +0.11    -0.289 OA
DOCKED: ATOM      2  O   UNL d   1      15.590  44.632  23.454 -0.14 +0.04    -0.289 OA
DOCKED: ATOM      3  N   UNL d   1      10.888  40.395  23.049 -0.18 +0.07    -0.247 NA
DOCKED: ATOM      4  N   UNL d   1      13.348  42.009  23.462 -0.08 +0.09    -0.247 NA
DOCKED: ATOM      5  N   UNL d   1      14.011  40.268  25.653 -0.01 +0.16    -0.354 N 
DOCKED: ATOM      6  N   UNL d   1      11.466  38.587  25.204 -0.15 +0.16    -0.354 N 
DOCKED: ATOM      7  C   UNL d   1       9.219  39.574  21.452 -0.37 -0.02    +0.084 A 
DOCKED: ATOM      8  C   UNL d   1      13.493  44.147  22.289 -0.17 -0.02    +0.084 A 
DOCKED: ATOM      9  C   UNL d   1      12.744  42.835  22.541 -0.23 -0.01    +0.058 A 
DOCKED: ATOM     10  C   UNL d   1       9.939  39.418  22.795 -0.34 -0.01    +0.058 A 
DOCKED: ATOM     11  C   UNL d   1       9.915  40.823  21.001 -0.18 -0.05    +0.193 A 
DOCKED: ATOM     12  C   UNL d   1      10.884  41.235  22.066 -0.23 -0.03    +0.109 A 
DOCKED: ATOM     13  C   UNL d   1      14.653  43.897  23.210 -0.17 -0.04    +0.193 A 
DOCKED: ATOM     14  C   UNL d   1       9.559  38.440  20.483 -0.61 -0.00    +0.026 C 
DOCKED: ATOM     15  C   UNL d   1      11.624  42.500  21.881 -0.25 -0.01    +0.055 C 
DOCKED: ATOM     16  C   UNL d   1      12.707  45.357  22.804 -0.06 -0.00    +0.026 C 
DOCKED: ATOM     17  C   UNL d   1      14.449  42.565  23.854 -0.23 -0.03    +0.109 A 
DOCKED: ATOM     18  C   UNL d   1       9.593  38.457  23.671 -0.27 -0.01    +0.050 C 
DOCKED: ATOM     19  C   UNL d   1      10.143  38.288  24.967 -0.26 -0.01    +0.045 A 
DOCKED: ATOM     20  C   UNL d   1      15.183  40.970  25.547 -0.25 -0.01    +0.045 A 
DOCKED: ATOM     21  C   UNL d   1      15.458  42.031  24.781 -0.31 -0.02    +0.057 C 
DOCKED: ATOM     22  C   UNL d   1      15.467  39.283  27.061 -0.23 +0.00    -0.019 A 
DOCKED: ATOM     23  C   UNL d   1      14.085  39.230  26.543 -0.26 -0.02    +0.045 A 
DOCKED: ATOM     24  C   UNL d   1      16.111  40.316  26.468 -0.28 +0.00    -0.022 A 
DOCKED: ATOM     25  C   UNL d   1      11.810  38.265  26.497 -0.28 -0.02    +0.049 A 
DOCKED: ATOM     26  C   UNL d   1       9.605  37.793  26.144 -0.24 +0.00    -0.018 A 
DOCKED: ATOM     27  C   UNL d   1      10.656  37.799  27.112 -0.21 -0.00    +0.003 A 
DOCKED: ATOM     28  C   UNL d   1      13.161  38.338  26.932 -0.34 -0.03    +0.052 C 
DOCKED: ATOM     29  C   UNL d   1      17.514  40.780  26.670 -0.29 -0.01    +0.046 C 
DOCKED: ATOM     30  C   UNL d   1       8.199  37.343  26.361 -0.23 -0.00    +0.046 C 
DOCKED: ATOM     31  H   UNL d   1      13.172  40.568  25.166 -0.28 -0.09    +0.166 HD
DOCKED: ATOM     32  H   UNL d   1      12.093  38.955  24.499 -0.38 -0.12    +0.166 HD
DOCKED: ENDROOT
DOCKED: BRANCH   7  33
DOCKED: ATOM     33  C   UNL d   1       7.706  39.804  21.541 -0.30 -0.03    +0.141 C 
DOCKED: BRANCH  33  34
DOCKED: ATOM     34  C   UNL d   1       7.353  41.248  21.778 -0.10 -0.08    +0.306 C 
DOCKED: ATOM     35  O   UNL d   1       7.442  41.847  22.836 -0.04 +0.06    -0.251 OA
DOCKED: BRANCH  34  36
DOCKED: ATOM     36  O   UNL d   1       6.908  41.862  20.667 -0.19 +0.19    -0.481 OA
DOCKED: ATOM     37  H   UNL d   1       7.718  42.054  20.150 +0.09 -0.18    +0.295 HD
DOCKED: ENDBRANCH  34  36
DOCKED: ENDBRANCH  33  34
DOCKED: ENDBRANCH   7  33
DOCKED: BRANCH  27  38
DOCKED: ATOM     38  C   UNL d   1      10.534  37.351  28.467 -0.15 -0.01    +0.017 C 
DOCKED: ATOM     39  C   UNL d   1      10.633  38.132  29.553 -0.05 -0.02    +0.092 C 
DOCKED: BRANCH  39  40
DOCKED: ATOM     40  C   UNL d   1      10.470  37.550  30.888 -0.00 -0.04    +0.330 C 
DOCKED: ATOM     41  O   UNL d   1       9.433  37.227  31.437 -0.00 +0.01    -0.246 OA
DOCKED: BRANCH  40  42
DOCKED: ATOM     42  O   UNL d   1      11.667  37.395  31.473 +0.01 +0.05    -0.477 OA
DOCKED: ATOM     43  H   UNL d   1      12.300  37.730  30.806 +0.04 -0.05    +0.295 HD
DOCKED: ENDBRANCH  40  42
DOCKED: ENDBRANCH  39  40
DOCKED: ENDBRANCH  27  38
DOCKED: BRANCH   8  44
DOCKED: ATOM     44  C   UNL d   1      13.971  44.369  20.851 -0.18 -0.03    +0.141 C 
DOCKED: BRANCH  44  45
DOCKED: ATOM     45  C   UNL d   1      12.900  44.918  19.946 -0.12 -0.08    +0.306 C 
DOCKED: ATOM     46  O   UNL d   1      11.972  44.297  19.459 -0.15 +0.10    -0.251 OA
DOCKED: BRANCH  45  47
DOCKED: ATOM     47  O   UNL d   1      13.073  46.225  19.678 -0.00 +0.12    -0.481 OA
DOCKED: ATOM     48  H   UNL d   1      12.347  46.449  19.058 +0.07 -0.09    +0.295 HD
DOCKED: ENDBRANCH  45  47
DOCKED: ENDBRANCH  44  45
DOCKED: ENDBRANCH   8  44
DOCKED: BRANCH  22  49
DOCKED: ATOM     49  C   UNL d   1      16.028  38.320  28.065 -0.23 -0.01    +0.048 C 
DOCKED: BRANCH  49  50
DOCKED: ATOM     50  C   UNL d   1      15.794  38.793  29.499 -0.13 -0.01    +0.125 C 
DOCKED: BRANCH  50  51
DOCKED: ATOM     51  C   UNL d   1      14.409  38.441  29.962 -0.03 -0.04    +0.305 C 
DOCKED: ATOM     52  O   UNL d   1      13.466  39.195  30.126 -0.01 +0.03    -0.251 OA
DOCKED: BRANCH  51  53
DOCKED: ATOM     53  O   UNL d   1      14.282  37.123  30.214 -0.03 +0.09    -0.481 OA
DOCKED: ATOM     54  H   UNL d   1      13.772  37.088  31.050 +0.06 -0.04    +0.295 HD
DOCKED: ENDBRANCH  51  53
DOCKED: ENDBRANCH  50  51
DOCKED: ENDBRANCH  49  50
DOCKED: ENDBRANCH  22  49
DOCKED: TORSDOF 13
DOCKED: TER
DOCKED: ENDMDL
________________________________________________________________________________


	BEGINNING GENETIC ALGORITHM DOCKING 86 of 100
Run: 86 Seed: 1770981209 1602429206 [ Run 86 of 100 GA/GALS ]
Beginning LAMARCKIAN GENETIC ALGORITHM (LGA), with a maximum of 25000000 energy evaluations.

Final-Value: -12.864


	FINAL GENETIC ALGORITHM DOCKED STATE
	_______________________________________________


Detailed state:  trans 13.053 40.232 25.681 quatxyzw 0.730872 -0.501377 0.387685 -0.253272 center 0.153 0.018 -0.028 ntor 13 136.3932 166.8360 124.3482 -61.1904 78.3525 12.1599 -56.5947 -87.4409 154.2825 -143.7084 -108.7024 -9.7303 -9.0548
State:	 13.053  40.232  25.681   0.756 -0.518  0.401 -150.658    136.39  166.84  124.35  -61.19   78.35   12.16  -56.59  -87.44  154.28 -143.71 -108.70   -9.73   -9.05

DOCKED: MODEL       86
DOCKED: USER    Run = 86
DOCKED: USER    DPF = D:/Protein_go_brrr/autodock/final/2DN3/heme/dock.dpf
DOCKED: USER  
DOCKED: USER    Estimated Free Energy of Binding    =   -4.61 kcal/mol  [=(1)+(2)+(3)-(4)]
DOCKED: USER    Estimated Inhibition Constant, Ki   =  418.68 uM (micromolar)  [Temperature = 298.15 K]
DOCKED: USER    
DOCKED: USER    (1) Final Intermolecular Energy     =   -8.49 kcal/mol
DOCKED: USER        vdW + Hbond + desolv Energy     =   -8.45 kcal/mol
DOCKED: USER        Electrostatic Energy            =   -0.03 kcal/mol
DOCKED: USER    (2) Final Total Internal Energy     =   -4.38 kcal/mol
DOCKED: USER    (3) Torsional Free Energy           =   +3.88 kcal/mol
DOCKED: USER    (4) Unbound System's Energy  [=(2)] =   -4.38 kcal/mol
DOCKED: USER    
DOCKED: USER    
DOCKED: USER    NEWDPF move heme_opt.pdbqt
DOCKED: USER    NEWDPF about 0.153000 0.018000 -0.028000
DOCKED: USER    NEWDPF tran0 13.053465 40.232462 25.680718
DOCKED: USER    NEWDPF quaternion0 0.730872 -0.501377 0.387685 -0.253272
DOCKED: USER    NEWDPF axisangle0 0.755506 -0.518275 0.400752 -150.657555
DOCKED: USER    NEWDPF quat0 0.755506 -0.518275 0.400752 -150.657555
DOCKED: USER    NEWDPF dihe0 136.39 166.84 124.35 -61.19 78.35 12.16 -56.59 -87.44 154.28 -143.71 -108.70 -9.73 -9.05 
DOCKED: USER  keepresnum = 1 
DOCKED: USER  
DOCKED: REMARK  13 active torsions:
DOCKED: REMARK  status: ('A' for Active; 'I' for Inactive)
DOCKED: REMARK    1  A    between atoms: O_3  and  C_38 
DOCKED: REMARK    2  A    between atoms: O_4  and  C_40 
DOCKED: REMARK    3  A    between atoms: O_7  and  C_46 
DOCKED: REMARK    4  A    between atoms: O_9  and  C_48 
DOCKED: REMARK    5  A    between atoms: C_15  and  C_20 
DOCKED: REMARK    6  A    between atoms: C_16  and  C_23 
DOCKED: REMARK    7  A    between atoms: C_20  and  C_38 
DOCKED: REMARK    8  A    between atoms: C_23  and  C_40 
DOCKED: REMARK    9  A    between atoms: C_32  and  C_41 
DOCKED: REMARK   10  A    between atoms: C_37  and  C_45 
DOCKED: REMARK   11  A    between atoms: C_41  and  C_44 
DOCKED: REMARK   12  A    between atoms: C_44  and  C_46 
DOCKED: REMARK   13  A    between atoms: C_47  and  C_48 
DOCKED: USER                              x       y       z     vdW  Elec       q    Type
DOCKED: USER                           _______ _______ _______ _____ _____    ______ ____
DOCKED: ROOT
DOCKED: ATOM      1  O   UNL d   1      10.583  42.128  20.675 -0.19 +0.10    -0.289 OA
DOCKED: ATOM      2  O   UNL d   1      16.540  44.644  24.492 -0.06 +0.03    -0.289 OA
DOCKED: ATOM      3  N   UNL d   1      11.592  40.761  23.676 +0.08 +0.10    -0.247 NA
DOCKED: ATOM      4  N   UNL d   1      14.142  42.175  24.248 -0.14 +0.08    -0.247 NA
DOCKED: ATOM      5  N   UNL d   1      14.676  40.202  26.270 -0.12 +0.11    -0.354 N 
DOCKED: ATOM      6  N   UNL d   1      12.037  38.730  25.657 -0.16 +0.17    -0.354 N 
DOCKED: ATOM      7  C   UNL d   1       9.893  40.196  22.003 -0.29 -0.02    +0.084 A 
DOCKED: ATOM      8  C   UNL d   1      14.429  44.399  23.278 -0.15 -0.02    +0.084 A 
DOCKED: ATOM      9  C   UNL d   1      13.599  43.118  23.404 -0.21 -0.01    +0.058 A 
DOCKED: ATOM     10  C   UNL d   1      10.589  39.872  23.328 -0.24 -0.02    +0.058 A 
DOCKED: ATOM     11  C   UNL d   1      10.668  41.435  21.672 -0.15 -0.05    +0.193 A 
DOCKED: ATOM     12  C   UNL d   1      11.650  41.686  22.775 -0.14 -0.03    +0.109 A 
DOCKED: ATOM     13  C   UNL d   1      15.563  43.994  24.177 -0.13 -0.03    +0.193 A 
DOCKED: ATOM     14  C   UNL d   1      10.172  39.136  20.934 -0.48 -0.00    +0.026 C 
DOCKED: ATOM     15  C   UNL d   1      12.468  42.914  22.711 -0.23 -0.01    +0.055 C 
DOCKED: ATOM     16  C   UNL d   1      13.714  45.603  23.900 -0.06 -0.00    +0.026 C 
DOCKED: ATOM     17  C   UNL d   1      15.272  42.623  24.694 -0.21 -0.03    +0.109 A 
DOCKED: ATOM     18  C   UNL d   1      10.175  38.857  24.110 -0.31 -0.01    +0.050 C 
DOCKED: ATOM     19  C   UNL d   1      10.702  38.536  25.387 -0.26 -0.02    +0.045 A 
DOCKED: ATOM     20  C   UNL d   1      15.890  40.837  26.235 -0.26 -0.01    +0.045 A 
DOCKED: ATOM     21  C   UNL d   1      16.237  41.945  25.572 -0.28 -0.01    +0.057 C 
DOCKED: ATOM     22  C   UNL d   1      16.055  39.003  27.587 -0.24 +0.00    -0.019 A 
DOCKED: ATOM     23  C   UNL d   1      14.678  39.084  27.060 -0.25 -0.01    +0.045 A 
DOCKED: ATOM     24  C   UNL d   1      16.767  40.045  27.095 -0.25 +0.00    -0.022 A 
DOCKED: ATOM     25  C   UNL d   1      12.348  38.269  26.916 -0.27 -0.03    +0.049 A 
DOCKED: ATOM     26  C   UNL d   1      10.122  37.969  26.512 -0.22 +0.01    -0.018 A 
DOCKED: ATOM     27  C   UNL d   1      11.162  37.821  27.481 -0.19 -0.00    +0.003 A 
DOCKED: ATOM     28  C   UNL d   1      13.697  38.219  27.361 -0.32 -0.02    +0.052 C 
DOCKED: ATOM     29  C   UNL d   1      18.193  40.400  27.346 -0.28 -0.00    +0.046 C 
DOCKED: ATOM     30  C   UNL d   1       8.690  37.588  26.679 -0.21 -0.01    +0.046 C 
DOCKED: ATOM     31  H   UNL d   1      13.862  40.596  25.810 -0.04 -0.06    +0.166 HD
DOCKED: ATOM     32  H   UNL d   1      12.693  39.122  24.991 -0.49 -0.13    +0.166 HD
DOCKED: ENDROOT
DOCKED: BRANCH   7  33
DOCKED: ATOM     33  C   UNL d   1       8.396  40.509  22.106 -0.19 -0.03    +0.141 C 
DOCKED: BRANCH  33  34
DOCKED: ATOM     34  C   UNL d   1       7.670  40.300  20.805 -0.14 -0.05    +0.306 C 
DOCKED: ATOM     35  O   UNL d   1       6.620  39.698  20.654 -0.09 +0.03    -0.251 OA
DOCKED: BRANCH  34  36
DOCKED: ATOM     36  O   UNL d   1       8.303  40.865  19.761 -0.21 +0.13    -0.481 OA
DOCKED: ATOM     37  H   UNL d   1       8.544  41.762  20.075 +0.14 -0.14    +0.295 HD
DOCKED: ENDBRANCH  34  36
DOCKED: ENDBRANCH  33  34
DOCKED: ENDBRANCH   7  33
DOCKED: BRANCH  27  38
DOCKED: ATOM     38  C   UNL d   1      10.999  37.258  28.787 -0.13 -0.01    +0.017 C 
DOCKED: ATOM     39  C   UNL d   1      11.755  37.551  29.856 -0.08 -0.03    +0.092 C 
DOCKED: BRANCH  39  40
DOCKED: ATOM     40  C   UNL d   1      11.472  36.916  31.146 -0.02 -0.05    +0.330 C 
DOCKED: ATOM     41  O   UNL d   1      10.713  35.993  31.370 -0.03 +0.02    -0.246 OA
DOCKED: BRANCH  40  42
DOCKED: ATOM     42  O   UNL d   1      12.196  37.497  32.115 +0.01 +0.04    -0.477 OA
DOCKED: ATOM     43  H   UNL d   1      12.857  38.030  31.627 +0.02 -0.03    +0.295 HD
DOCKED: ENDBRANCH  40  42
DOCKED: ENDBRANCH  39  40
DOCKED: ENDBRANCH  27  38
DOCKED: BRANCH   8  44
DOCKED: ATOM     44  C   UNL d   1      14.935  44.722  21.868 -0.22 -0.03    +0.141 C 
DOCKED: BRANCH  44  45
DOCKED: ATOM     45  C   UNL d   1      15.460  46.127  21.733 -0.13 -0.05    +0.306 C 
DOCKED: ATOM     46  O   UNL d   1      14.874  47.078  21.247 -0.07 +0.04    -0.251 OA
DOCKED: BRANCH  45  47
DOCKED: ATOM     47  O   UNL d   1      16.717  46.252  22.195 -0.15 +0.06    -0.481 OA
DOCKED: ATOM     48  H   UNL d   1      16.672  45.942  23.124 +0.11 -0.03    +0.295 HD
DOCKED: ENDBRANCH  45  47
DOCKED: ENDBRANCH  44  45
DOCKED: ENDBRANCH   8  44
DOCKED: BRANCH  22  49
DOCKED: ATOM     49  C   UNL d   1      16.546  37.919  28.500 -0.34 -0.00    +0.048 C 
DOCKED: BRANCH  49  50
DOCKED: ATOM     50  C   UNL d   1      16.404  38.307  29.972 -0.16 -0.00    +0.125 C 
DOCKED: BRANCH  50  51
DOCKED: ATOM     51  C   UNL d   1      14.963  38.288  30.396 -0.03 -0.03    +0.305 C 
DOCKED: ATOM     52  O   UNL d   1      14.180  39.222  30.409 -0.01 +0.03    -0.251 OA
DOCKED: BRANCH  51  53
DOCKED: ATOM     53  O   UNL d   1      14.573  37.064  30.803 -0.01 +0.06    -0.481 OA
DOCKED: ATOM     54  H   UNL d   1      14.318  37.195  31.740 +0.05 -0.02    +0.295 HD
DOCKED: ENDBRANCH  51  53
DOCKED: ENDBRANCH  50  51
DOCKED: ENDBRANCH  49  50
DOCKED: ENDBRANCH  22  49
DOCKED: TORSDOF 13
DOCKED: TER
DOCKED: ENDMDL
________________________________________________________________________________


	BEGINNING GENETIC ALGORITHM DOCKING 87 of 100
Run: 87 Seed: 830927852 313457125 [ Run 87 of 100 GA/GALS ]
Beginning LAMARCKIAN GENETIC ALGORITHM (LGA), with a maximum of 25000000 energy evaluations.

Final-Value: -10.709


	FINAL GENETIC ALGORITHM DOCKED STATE
	_______________________________________________


Detailed state:  trans 14.210 48.510 -9.329 quatxyzw -0.105761 0.518692 -0.422849 0.735508 center 0.153 0.018 -0.028 ntor 13 113.0305 166.2680 96.1144 16.4008 -180.0000 100.5340 -38.9446 -99.5753 -21.6136 -116.6837 -88.7416 -106.4707 3.3482
State:	 14.210  48.510  -9.329  -0.156  0.766 -0.624 85.300    113.03  166.27   96.11   16.40 -180.00  100.53  -38.94  -99.58  -21.61 -116.68  -88.74 -106.47    3.35

DOCKED: MODEL       87
DOCKED: USER    Run = 87
DOCKED: USER    DPF = D:/Protein_go_brrr/autodock/final/2DN3/heme/dock.dpf
DOCKED: USER  
DOCKED: USER    Estimated Free Energy of Binding    =   -2.58 kcal/mol  [=(1)+(2)+(3)-(4)]
DOCKED: USER    Estimated Inhibition Constant, Ki   =   12.95 mM (millimolar)  [Temperature = 298.15 K]
DOCKED: USER    
DOCKED: USER    (1) Final Intermolecular Energy     =   -6.45 kcal/mol
DOCKED: USER        vdW + Hbond + desolv Energy     =   -6.21 kcal/mol
DOCKED: USER        Electrostatic Energy            =   -0.24 kcal/mol
DOCKED: USER    (2) Final Total Internal Energy     =   -4.26 kcal/mol
DOCKED: USER    (3) Torsional Free Energy           =   +3.88 kcal/mol
DOCKED: USER    (4) Unbound System's Energy  [=(2)] =   -4.26 kcal/mol
DOCKED: USER    
DOCKED: USER    
DOCKED: USER    NEWDPF move heme_opt.pdbqt
DOCKED: USER    NEWDPF about 0.153000 0.018000 -0.028000
DOCKED: USER    NEWDPF tran0 14.210198 48.509847 -9.328870
DOCKED: USER    NEWDPF quaternion0 -0.105761 0.518692 -0.422849 0.735508
DOCKED: USER    NEWDPF axisangle0 -0.156101 0.765579 -0.624116 85.299667
DOCKED: USER    NEWDPF quat0 -0.156101 0.765579 -0.624116 85.299667
DOCKED: USER    NEWDPF dihe0 113.03 166.27 96.11 16.40 -180.00 100.53 -38.94 -99.58 -21.61 -116.68 -88.74 -106.47 3.35 
DOCKED: USER  keepresnum = 1 
DOCKED: USER  
DOCKED: REMARK  13 active torsions:
DOCKED: REMARK  status: ('A' for Active; 'I' for Inactive)
DOCKED: REMARK    1  A    between atoms: O_3  and  C_38 
DOCKED: REMARK    2  A    between atoms: O_4  and  C_40 
DOCKED: REMARK    3  A    between atoms: O_7  and  C_46 
DOCKED: REMARK    4  A    between atoms: O_9  and  C_48 
DOCKED: REMARK    5  A    between atoms: C_15  and  C_20 
DOCKED: REMARK    6  A    between atoms: C_16  and  C_23 
DOCKED: REMARK    7  A    between atoms: C_20  and  C_38 
DOCKED: REMARK    8  A    between atoms: C_23  and  C_40 
DOCKED: REMARK    9  A    between atoms: C_32  and  C_41 
DOCKED: REMARK   10  A    between atoms: C_37  and  C_45 
DOCKED: REMARK   11  A    between atoms: C_41  and  C_44 
DOCKED: REMARK   12  A    between atoms: C_44  and  C_46 
DOCKED: REMARK   13  A    between atoms: C_47  and  C_48 
DOCKED: USER                              x       y       z     vdW  Elec       q    Type
DOCKED: USER                           _______ _______ _______ _____ _____    ______ ____
DOCKED: ROOT
DOCKED: ATOM      1  O   UNL d   1      11.953  46.297 -14.305 -0.02 +0.07    -0.289 OA
DOCKED: ATOM      2  O   UNL d   1      18.543  45.082 -10.916 -0.06 -0.02    -0.289 OA
DOCKED: ATOM      3  N   UNL d   1      12.908  47.948 -11.431 -0.09 +0.08    -0.247 NA
DOCKED: ATOM      4  N   UNL d   1      15.459  46.615 -10.694 -0.07 +0.08    -0.247 NA
DOCKED: ATOM      5  N   UNL d   1      15.268  47.880  -8.119 -0.06 +0.05    -0.354 N 
DOCKED: ATOM      6  N   UNL d   1      12.611  49.243  -8.885 +0.09 +0.04    -0.354 N 
DOCKED: ATOM      7  C   UNL d   1      10.856  47.850 -12.768 -0.05 -0.02    +0.084 A 
DOCKED: ATOM      8  C   UNL d   1      16.743  45.583 -12.498 -0.05 -0.01    +0.084 A 
DOCKED: ATOM      9  C   UNL d   1      15.468  46.294 -12.033 -0.09 -0.02    +0.058 A 
DOCKED: ATOM     10  C   UNL d   1      11.603  48.398 -11.550 -0.11 -0.01    +0.058 A 
DOCKED: ATOM     11  C   UNL d   1      11.974  47.024 -13.329 -0.05 -0.06    +0.193 A 
DOCKED: ATOM     12  C   UNL d   1      13.171  47.187 -12.443 -0.08 -0.05    +0.109 A 
DOCKED: ATOM     13  C   UNL d   1      17.440  45.527 -11.168 -0.07 -0.01    +0.193 A 
DOCKED: ATOM     14  C   UNL d   1       9.707  46.921 -12.367 -0.09 -0.01    +0.026 C 
DOCKED: ATOM     15  C   UNL d   1      14.432  46.534 -12.850 -0.09 -0.02    +0.055 C 
DOCKED: ATOM     16  C   UNL d   1      17.566  46.458 -13.449 -0.02 -0.00    +0.026 C 
DOCKED: ATOM     17  C   UNL d   1      16.553  46.179 -10.157 -0.14 -0.02    +0.109 A 
DOCKED: ATOM     18  C   UNL d   1      11.043  49.310 -10.732 -0.13 -0.01    +0.050 C 
DOCKED: ATOM     19  C   UNL d   1      11.686  49.935  -9.633 -0.14 -0.01    +0.045 A 
DOCKED: ATOM     20  C   UNL d   1      16.306  47.017  -7.881 -0.23 -0.01    +0.045 A 
DOCKED: ATOM     21  C   UNL d   1      16.959  46.233  -8.745 -0.26 -0.01    +0.057 C 
DOCKED: ATOM     22  C   UNL d   1      15.711  48.016  -5.915 -0.31 +0.00    -0.019 A 
DOCKED: ATOM     23  C   UNL d   1      14.840  48.529  -6.991 -0.20 -0.01    +0.045 A 
DOCKED: ATOM     24  C   UNL d   1      16.578  47.123  -6.448 -0.32 +0.00    -0.022 A 
DOCKED: ATOM     25  C   UNL d   1      13.038  50.004  -7.822 -0.17 -0.01    +0.049 A 
DOCKED: ATOM     26  C   UNL d   1      11.534  51.189  -9.063 -0.10 +0.00    -0.018 A 
DOCKED: ATOM     27  C   UNL d   1      12.406  51.234  -7.931 -0.13 -0.00    +0.003 A 
DOCKED: ATOM     28  C   UNL d   1      13.878  49.448  -6.818 -0.24 -0.01    +0.052 C 
DOCKED: ATOM     29  C   UNL d   1      17.655  46.348  -5.768 -0.26 -0.01    +0.046 C 
DOCKED: ATOM     30  C   UNL d   1      10.638  52.282  -9.540 -0.04 -0.00    +0.046 C 
DOCKED: ATOM     31  H   UNL d   1      14.933  48.053  -9.060 +0.04 -0.02    +0.166 HD
DOCKED: ATOM     32  H   UNL d   1      12.894  48.291  -9.084 +0.11 -0.02    +0.166 HD
DOCKED: ENDROOT
DOCKED: BRANCH   7  33
DOCKED: ATOM     33  C   UNL d   1      10.400  48.900 -13.787 -0.01 -0.01    +0.141 C 
DOCKED: BRANCH  33  34
DOCKED: ATOM     34  C   UNL d   1      11.255  50.138 -13.765 -0.00 -0.01    +0.306 C 
DOCKED: ATOM     35  O   UNL d   1      10.861  51.283 -13.624 -0.00 +0.01    -0.251 OA
DOCKED: BRANCH  34  36
DOCKED: ATOM     36  O   UNL d   1      12.563  49.867 -13.918 +0.00 +0.03    -0.481 OA
DOCKED: ATOM     37  H   UNL d   1      12.821  49.417 -13.086 +0.02 -0.03    +0.295 HD
DOCKED: ENDBRANCH  34  36
DOCKED: ENDBRANCH  33  34
DOCKED: ENDBRANCH   7  33
DOCKED: BRANCH  27  38
DOCKED: ATOM     38  C   UNL d   1      12.550  52.349  -7.045 -0.13 -0.00    +0.017 C 
DOCKED: ATOM     39  C   UNL d   1      12.131  52.385  -5.770 -0.20 -0.01    +0.092 C 
DOCKED: BRANCH  39  40
DOCKED: ATOM     40  C   UNL d   1      12.356  53.585  -4.961 -0.07 -0.06    +0.330 C 
DOCKED: ATOM     41  O   UNL d   1      11.568  54.481  -4.725 -0.14 +0.03    -0.246 OA
DOCKED: BRANCH  40  42
DOCKED: ATOM     42  O   UNL d   1      13.605  53.584  -4.470 -0.10 +0.12    -0.477 OA
DOCKED: ATOM     43  H   UNL d   1      13.915  52.667  -4.619 +0.09 -0.07    +0.295 HD
DOCKED: ENDBRANCH  40  42
DOCKED: ENDBRANCH  39  40
DOCKED: ENDBRANCH  27  38
DOCKED: BRANCH   8  44
DOCKED: ATOM     44  C   UNL d   1      16.543  44.177 -13.073 -0.06 -0.01    +0.141 C 
DOCKED: BRANCH  44  45
DOCKED: ATOM     45  C   UNL d   1      17.827  43.402 -13.209 -0.05 +0.06    +0.306 C 
DOCKED: ATOM     46  O   UNL d   1      18.623  43.470 -14.129 -0.02 -0.04    -0.251 OA
DOCKED: BRANCH  45  47
DOCKED: ATOM     47  O   UNL d   1      18.028  42.555 -12.183 -0.46 -0.27    -0.481 OA
DOCKED: ATOM     48  H   UNL d   1      18.450  43.104 -11.488 +0.05 +0.13    +0.295 HD
DOCKED: ENDBRANCH  45  47
DOCKED: ENDBRANCH  44  45
DOCKED: ENDBRANCH   8  44
DOCKED: BRANCH  22  49
DOCKED: ATOM     49  C   UNL d   1      15.607  48.432  -4.477 -0.42 -0.01    +0.048 C 
DOCKED: BRANCH  49  50
DOCKED: ATOM     50  C   UNL d   1      16.286  49.778  -4.223 -0.27 -0.03    +0.125 C 
DOCKED: BRANCH  50  51
DOCKED: ATOM     51  C   UNL d   1      15.307  50.908  -4.363 -0.18 -0.06    +0.305 C 
DOCKED: ATOM     52  O   UNL d   1      15.218  51.706  -5.280 -0.08 +0.04    -0.251 OA
DOCKED: BRANCH  51  53
DOCKED: ATOM     53  O   UNL d   1      14.473  50.986  -3.307 -0.44 +0.10    -0.481 OA
DOCKED: ATOM     54  H   UNL d   1      13.743  51.560  -3.622 -0.34 -0.13    +0.295 HD
DOCKED: ENDBRANCH  51  53
DOCKED: ENDBRANCH  50  51
DOCKED: ENDBRANCH  49  50
DOCKED: ENDBRANCH  22  49
DOCKED: TORSDOF 13
DOCKED: TER
DOCKED: ENDMDL
________________________________________________________________________________


	BEGINNING GENETIC ALGORITHM DOCKING 88 of 100
Run: 88 Seed: 1692374937 1981108293 [ Run 88 of 100 GA/GALS ]
Beginning LAMARCKIAN GENETIC ALGORITHM (LGA), with a maximum of 25000000 energy evaluations.

Final-Value: -10.598


	FINAL GENETIC ALGORITHM DOCKED STATE
	_______________________________________________


Detailed state:  trans 4.203 24.154 22.065 quatxyzw 0.109118 0.544366 -0.284086 0.781700 center 0.153 0.018 -0.028 ntor 13 157.2233 -172.1409 -83.5717 19.6850 -145.3825 93.7401 168.3774 -3.2757 9.6625 -105.8514 -71.3244 -106.9548 7.1177
State:	  4.203  24.154  22.065   0.175  0.873 -0.456 77.167    157.22 -172.14  -83.57   19.68 -145.38   93.74  168.38   -3.28    9.66 -105.85  -71.32 -106.95    7.12

DOCKED: MODEL       88
DOCKED: USER    Run = 88
DOCKED: USER    DPF = D:/Protein_go_brrr/autodock/final/2DN3/heme/dock.dpf
DOCKED: USER  
DOCKED: USER    Estimated Free Energy of Binding    =   -2.18 kcal/mol  [=(1)+(2)+(3)-(4)]
DOCKED: USER    Estimated Inhibition Constant, Ki   =   25.45 mM (millimolar)  [Temperature = 298.15 K]
DOCKED: USER    
DOCKED: USER    (1) Final Intermolecular Energy     =   -6.05 kcal/mol
DOCKED: USER        vdW + Hbond + desolv Energy     =   -5.92 kcal/mol
DOCKED: USER        Electrostatic Energy            =   -0.14 kcal/mol
DOCKED: USER    (2) Final Total Internal Energy     =   -4.55 kcal/mol
DOCKED: USER    (3) Torsional Free Energy           =   +3.88 kcal/mol
DOCKED: USER    (4) Unbound System's Energy  [=(2)] =   -4.55 kcal/mol
DOCKED: USER    
DOCKED: USER    
DOCKED: USER    NEWDPF move heme_opt.pdbqt
DOCKED: USER    NEWDPF about 0.153000 0.018000 -0.028000
DOCKED: USER    NEWDPF tran0 4.203108 24.154174 22.065352
DOCKED: USER    NEWDPF quaternion0 0.109118 0.544366 -0.284086 0.781700
DOCKED: USER    NEWDPF axisangle0 0.174965 0.872864 -0.455517 77.167087
DOCKED: USER    NEWDPF quat0 0.174965 0.872864 -0.455517 77.167087
DOCKED: USER    NEWDPF dihe0 157.22 -172.14 -83.57 19.68 -145.38 93.74 168.38 -3.28 9.66 -105.85 -71.32 -106.95 7.12 
DOCKED: USER  keepresnum = 1 
DOCKED: USER  
DOCKED: REMARK  13 active torsions:
DOCKED: REMARK  status: ('A' for Active; 'I' for Inactive)
DOCKED: REMARK    1  A    between atoms: O_3  and  C_38 
DOCKED: REMARK    2  A    between atoms: O_4  and  C_40 
DOCKED: REMARK    3  A    between atoms: O_7  and  C_46 
DOCKED: REMARK    4  A    between atoms: O_9  and  C_48 
DOCKED: REMARK    5  A    between atoms: C_15  and  C_20 
DOCKED: REMARK    6  A    between atoms: C_16  and  C_23 
DOCKED: REMARK    7  A    between atoms: C_20  and  C_38 
DOCKED: REMARK    8  A    between atoms: C_23  and  C_40 
DOCKED: REMARK    9  A    between atoms: C_32  and  C_41 
DOCKED: REMARK   10  A    between atoms: C_37  and  C_45 
DOCKED: REMARK   11  A    between atoms: C_41  and  C_44 
DOCKED: REMARK   12  A    between atoms: C_44  and  C_46 
DOCKED: REMARK   13  A    between atoms: C_47  and  C_48 
DOCKED: USER                              x       y       z     vdW  Elec       q    Type
DOCKED: USER                           _______ _______ _______ _____ _____    ______ ____
DOCKED: ROOT
DOCKED: ATOM      1  O   UNL d   1       1.682  22.282  17.076 -0.06 +0.02    -0.289 OA
DOCKED: ATOM      2  O   UNL d   1       6.568  18.929  21.689 -0.16 -0.04    -0.289 OA
DOCKED: ATOM      3  N   UNL d   1       3.006  23.845  19.851 -0.08 +0.00    -0.247 NA
DOCKED: ATOM      4  N   UNL d   1       4.552  21.683  21.180 -0.09 +0.02    -0.247 NA
DOCKED: ATOM      5  N   UNL d   1       4.718  23.360  23.509 +0.01 +0.02    -0.354 N 
DOCKED: ATOM      6  N   UNL d   1       3.096  25.590  22.130 -0.08 -0.00    -0.354 N 
DOCKED: ATOM      7  C   UNL d   1       1.290  24.418  18.197 -0.04 -0.00    +0.084 A 
DOCKED: ATOM      8  C   UNL d   1       5.378  19.869  19.767 -0.16 +0.01    +0.084 A 
DOCKED: ATOM      9  C   UNL d   1       4.543  21.145  19.912 -0.13 -0.00    +0.058 A 
DOCKED: ATOM     10  C   UNL d   1       2.082  24.796  19.453 -0.07 -0.00    +0.058 A 
DOCKED: ATOM     11  C   UNL d   1       1.943  23.092  17.946 -0.05 -0.01    +0.193 A 
DOCKED: ATOM     12  C   UNL d   1       2.983  22.871  19.001 -0.09 -0.00    +0.109 A 
DOCKED: ATOM     13  C   UNL d   1       5.831  19.761  21.196 -0.15 +0.01    +0.193 A 
DOCKED: ATOM     14  C   UNL d   1      -0.193  24.190  18.501 -0.02 -0.00    +0.026 C 
DOCKED: ATOM     15  C   UNL d   1       3.826  21.662  18.903 -0.13 -0.00    +0.055 C 
DOCKED: ATOM     16  C   UNL d   1       6.605  20.091  18.877 -0.33 +0.01    +0.026 C 
DOCKED: ATOM     17  C   UNL d   1       5.256  20.916  21.949 -0.16 -0.01    +0.109 A 
DOCKED: ATOM     18  C   UNL d   1       1.933  25.997  20.042 -0.09 -0.00    +0.050 C 
DOCKED: ATOM     19  C   UNL d   1       2.680  26.466  21.153 -0.14 -0.00    +0.045 A 
DOCKED: ATOM     20  C   UNL d   1       5.203  22.188  24.028 -0.16 -0.00    +0.045 A 
DOCKED: ATOM     21  C   UNL d   1       5.497  21.049  23.393 -0.21 -0.00    +0.057 C 
DOCKED: ATOM     22  C   UNL d   1       4.952  23.698  25.724 -0.12 +0.00    -0.019 A 
DOCKED: ATOM     23  C   UNL d   1       4.533  24.331  24.457 -0.17 +0.00    +0.045 A 
DOCKED: ATOM     24  C   UNL d   1       5.349  22.430  25.463 -0.14 +0.00    -0.022 A 
DOCKED: ATOM     25  C   UNL d   1       3.721  26.267  23.152 -0.22 +0.00    +0.049 A 
DOCKED: ATOM     26  C   UNL d   1       3.076  27.739  21.532 -0.22 +0.00    -0.018 A 
DOCKED: ATOM     27  C   UNL d   1       3.750  27.605  22.785 -0.28 -0.00    +0.003 A 
DOCKED: ATOM     28  C   UNL d   1       4.099  25.596  24.346 -0.21 +0.00    +0.052 C 
DOCKED: ATOM     29  C   UNL d   1       5.867  21.401  26.409 -0.11 -0.00    +0.046 C 
DOCKED: ATOM     30  C   UNL d   1       2.846  29.005  20.777 -0.07 -0.00    +0.046 C 
DOCKED: ATOM     31  H   UNL d   1       4.598  23.484  22.510 -0.24 -0.03    +0.166 HD
DOCKED: ATOM     32  H   UNL d   1       2.920  24.593  22.100 +0.03 -0.00    +0.166 HD
DOCKED: ENDROOT
DOCKED: BRANCH   7  33
DOCKED: ATOM     33  C   UNL d   1       1.481  25.349  16.995 -0.09 -0.01    +0.141 C 
DOCKED: BRANCH  33  34
DOCKED: ATOM     34  C   UNL d   1       2.922  25.464  16.575 -0.15 -0.02    +0.306 C 
DOCKED: ATOM     35  O   UNL d   1       3.722  26.295  16.968 -0.19 +0.01    -0.251 OA
DOCKED: BRANCH  34  36
DOCKED: ATOM     36  O   UNL d   1       3.278  24.523  15.683 -0.09 +0.05    -0.481 OA
DOCKED: ATOM     37  H   UNL d   1       2.657  23.781  15.844 +0.11 -0.02    +0.295 HD
DOCKED: ENDBRANCH  34  36
DOCKED: ENDBRANCH  33  34
DOCKED: ENDBRANCH   7  33
DOCKED: BRANCH  27  38
DOCKED: ATOM     38  C   UNL d   1       4.309  28.685  23.541 -0.28 -0.00    +0.017 C 
DOCKED: ATOM     39  C   UNL d   1       3.825  29.148  24.704 -0.25 +0.00    +0.092 C 
DOCKED: BRANCH  39  40
DOCKED: ATOM     40  C   UNL d   1       4.503  30.251  25.389 -0.20 +0.02    +0.330 C 
DOCKED: ATOM     41  O   UNL d   1       4.282  31.442  25.280 -0.27 -0.02    -0.246 OA
DOCKED: BRANCH  40  42
DOCKED: ATOM     42  O   UNL d   1       5.450  29.773  26.211 -0.11 -0.08    -0.477 OA
DOCKED: ATOM     43  H   UNL d   1       5.481  28.816  26.001 +0.05 +0.04    +0.295 HD
DOCKED: ENDBRANCH  40  42
DOCKED: ENDBRANCH  39  40
DOCKED: ENDBRANCH  27  38
DOCKED: BRANCH   8  44
DOCKED: ATOM     44  C   UNL d   1       4.603  18.617  19.341 -0.07 +0.02    +0.141 C 
DOCKED: BRANCH  44  45
DOCKED: ATOM     45  C   UNL d   1       5.269  17.334  19.762 -0.06 +0.09    +0.306 C 
DOCKED: ATOM     46  O   UNL d   1       4.773  16.443  20.429 -0.03 -0.05    -0.251 OA
DOCKED: BRANCH  45  47
DOCKED: ATOM     47  O   UNL d   1       6.543  17.253  19.338 -0.09 -0.30    -0.481 OA
DOCKED: ATOM     48  H   UNL d   1       7.077  17.568  20.098 +0.11 +0.15    +0.295 HD
DOCKED: ENDBRANCH  45  47
DOCKED: ENDBRANCH  44  45
DOCKED: ENDBRANCH   8  44
DOCKED: BRANCH  22  49
DOCKED: ATOM     49  C   UNL d   1       4.911  24.379  27.060 -0.07 +0.00    +0.048 C 
DOCKED: BRANCH  49  50
DOCKED: ATOM     50  C   UNL d   1       6.060  25.373  27.227 -0.09 +0.00    +0.125 C 
DOCKED: BRANCH  50  51
DOCKED: ATOM     51  C   UNL d   1       5.554  26.787  27.203 -0.04 +0.03    +0.305 C 
DOCKED: ATOM     52  O   UNL d   1       4.433  27.171  26.916 -0.06 -0.02    -0.251 OA
DOCKED: BRANCH  51  53
DOCKED: ATOM     53  O   UNL d   1       6.514  27.672  27.540 +0.00 -0.10    -0.481 OA
DOCKED: ATOM     54  H   UNL d   1       6.016  28.477  27.795 +0.07 +0.07    +0.295 HD
DOCKED: ENDBRANCH  51  53
DOCKED: ENDBRANCH  50  51
DOCKED: ENDBRANCH  49  50
DOCKED: ENDBRANCH  22  49
DOCKED: TORSDOF 13
DOCKED: TER
DOCKED: ENDMDL
________________________________________________________________________________


	BEGINNING GENETIC ALGORITHM DOCKING 89 of 100
Run: 89 Seed: 880560388 523794348 [ Run 89 of 100 GA/GALS ]
Beginning LAMARCKIAN GENETIC ALGORITHM (LGA), with a maximum of 25000000 energy evaluations.

Final-Value: -10.778


	FINAL GENETIC ALGORITHM DOCKED STATE
	_______________________________________________


Detailed state:  trans 36.493 49.953 23.045 quatxyzw 0.743515 0.425483 -0.504248 -0.109016 center 0.153 0.018 -0.028 ntor 13 -88.8897 -44.0282 54.8820 95.9019 48.4844 -60.3071 -12.2688 12.6043 142.6938 -9.3692 -5.4897 168.5018 1.3314
State:	 36.493  49.953  23.045   0.748  0.428 -0.507 -167.483    -88.89  -44.03   54.88   95.90   48.48  -60.31  -12.27   12.60  142.69   -9.37   -5.49  168.50    1.33

DOCKED: MODEL       89
DOCKED: USER    Run = 89
DOCKED: USER    DPF = D:/Protein_go_brrr/autodock/final/2DN3/heme/dock.dpf
DOCKED: USER  
DOCKED: USER    Estimated Free Energy of Binding    =   -5.39 kcal/mol  [=(1)+(2)+(3)-(4)]
DOCKED: USER    Estimated Inhibition Constant, Ki   =  111.49 uM (micromolar)  [Temperature = 298.15 K]
DOCKED: USER    
DOCKED: USER    (1) Final Intermolecular Energy     =   -9.27 kcal/mol
DOCKED: USER        vdW + Hbond + desolv Energy     =   -8.97 kcal/mol
DOCKED: USER        Electrostatic Energy            =   -0.30 kcal/mol
DOCKED: USER    (2) Final Total Internal Energy     =   -1.51 kcal/mol
DOCKED: USER    (3) Torsional Free Energy           =   +3.88 kcal/mol
DOCKED: USER    (4) Unbound System's Energy  [=(2)] =   -1.51 kcal/mol
DOCKED: USER    
DOCKED: USER    
DOCKED: USER    NEWDPF move heme_opt.pdbqt
DOCKED: USER    NEWDPF about 0.153000 0.018000 -0.028000
DOCKED: USER    NEWDPF tran0 36.492647 49.953263 23.044839
DOCKED: USER    NEWDPF quaternion0 0.743515 0.425483 -0.504248 -0.109016
DOCKED: USER    NEWDPF axisangle0 0.747973 0.428034 -0.507271 -167.482827
DOCKED: USER    NEWDPF quat0 0.747973 0.428034 -0.507271 -167.482827
DOCKED: USER    NEWDPF dihe0 -88.89 -44.03 54.88 95.90 48.48 -60.31 -12.27 12.60 142.69 -9.37 -5.49 168.50 1.33 
DOCKED: USER  keepresnum = 1 
DOCKED: USER  
DOCKED: REMARK  13 active torsions:
DOCKED: REMARK  status: ('A' for Active; 'I' for Inactive)
DOCKED: REMARK    1  A    between atoms: O_3  and  C_38 
DOCKED: REMARK    2  A    between atoms: O_4  and  C_40 
DOCKED: REMARK    3  A    between atoms: O_7  and  C_46 
DOCKED: REMARK    4  A    between atoms: O_9  and  C_48 
DOCKED: REMARK    5  A    between atoms: C_15  and  C_20 
DOCKED: REMARK    6  A    between atoms: C_16  and  C_23 
DOCKED: REMARK    7  A    between atoms: C_20  and  C_38 
DOCKED: REMARK    8  A    between atoms: C_23  and  C_40 
DOCKED: REMARK    9  A    between atoms: C_32  and  C_41 
DOCKED: REMARK   10  A    between atoms: C_37  and  C_45 
DOCKED: REMARK   11  A    between atoms: C_41  and  C_44 
DOCKED: REMARK   12  A    between atoms: C_44  and  C_46 
DOCKED: REMARK   13  A    between atoms: C_47  and  C_48 
DOCKED: USER                              x       y       z     vdW  Elec       q    Type
DOCKED: USER                           _______ _______ _______ _____ _____    ______ ____
DOCKED: ROOT
DOCKED: ATOM      1  O   UNL d   1      36.595  45.600  27.019 +0.09 -0.03    -0.289 OA
DOCKED: ATOM      2  O   UNL d   1      33.587  52.474  27.316 -0.02 -0.02    -0.289 OA
DOCKED: ATOM      3  N   UNL d   1      36.909  47.888  24.457 -0.11 -0.01    -0.247 NA
DOCKED: ATOM      4  N   UNL d   1      35.176  50.137  25.335 -0.08 +0.00    -0.247 NA
DOCKED: ATOM      5  N   UNL d   1      35.352  51.192  22.666 -0.07 -0.05    -0.354 N 
DOCKED: ATOM      6  N   UNL d   1      37.133  48.845  21.759 -0.09 -0.05    -0.354 N 
DOCKED: ATOM      7  C   UNL d   1      37.517  45.533  24.756 -0.23 +0.01    +0.084 A 
DOCKED: ATOM      8  C   UNL d   1      34.819  50.401  27.738 -0.08 +0.00    +0.084 A 
DOCKED: ATOM      9  C   UNL d   1      35.401  49.588  26.578 -0.11 -0.00    +0.058 A 
DOCKED: ATOM     10  C   UNL d   1      37.481  46.776  23.863 -0.22 +0.00    +0.058 A 
DOCKED: ATOM     11  C   UNL d   1      36.880  46.144  25.967 -0.13 +0.02    +0.193 A 
DOCKED: ATOM     12  C   UNL d   1      36.581  47.580  25.670 -0.18 +0.01    +0.109 A 
DOCKED: ATOM     13  C   UNL d   1      34.189  51.494  26.922 -0.06 +0.01    +0.193 A 
DOCKED: ATOM     14  C   UNL d   1      36.610  44.419  24.227 -0.55 +0.00    +0.026 C 
DOCKED: ATOM     15  C   UNL d   1      36.030  48.416  26.756 -0.19 +0.00    +0.055 C 
DOCKED: ATOM     16  C   UNL d   1      35.919  51.010  28.613 -0.02 +0.00    +0.026 C 
DOCKED: ATOM     17  C   UNL d   1      34.472  51.213  25.482 -0.11 +0.00    +0.109 A 
DOCKED: ATOM     18  C   UNL d   1      38.049  46.782  22.642 -0.26 +0.01    +0.050 C 
DOCKED: ATOM     19  C   UNL d   1      38.138  47.906  21.782 -0.20 +0.01    +0.045 A 
DOCKED: ATOM     20  C   UNL d   1      34.377  52.009  23.179 -0.17 +0.01    +0.045 A 
DOCKED: ATOM     21  C   UNL d   1      33.938  52.100  24.438 -0.16 +0.01    +0.057 C 
DOCKED: ATOM     22  C   UNL d   1      34.581  52.418  20.941 -0.25 -0.00    -0.019 A 
DOCKED: ATOM     23  C   UNL d   1      35.546  51.367  21.322 -0.23 +0.00    +0.045 A 
DOCKED: ATOM     24  C   UNL d   1      33.894  52.794  22.044 -0.21 -0.00    -0.022 A 
DOCKED: ATOM     25  C   UNL d   1      37.379  49.794  20.794 -0.23 +0.01    +0.049 A 
DOCKED: ATOM     26  C   UNL d   1      39.081  48.273  20.833 -0.21 -0.00    -0.018 A 
DOCKED: ATOM     27  C   UNL d   1      38.606  49.477  20.227 -0.21 +0.00    +0.003 A 
DOCKED: ATOM     28  C   UNL d   1      36.406  50.780  20.475 -0.27 +0.01    +0.052 C 
DOCKED: ATOM     29  C   UNL d   1      32.825  53.826  22.170 -0.15 +0.01    +0.046 C 
DOCKED: ATOM     30  C   UNL d   1      40.346  47.554  20.510 -0.29 +0.01    +0.046 C 
DOCKED: ATOM     31  H   UNL d   1      35.906  50.593  23.268 +0.05 +0.02    +0.166 HD
DOCKED: ATOM     32  H   UNL d   1      36.312  48.802  22.351 +0.08 +0.02    +0.166 HD
DOCKED: ENDROOT
DOCKED: BRANCH   7  33
DOCKED: ATOM     33  C   UNL d   1      38.916  45.006  25.092 -0.13 +0.01    +0.141 C 
DOCKED: BRANCH  33  34
DOCKED: ATOM     34  C   UNL d   1      38.882  43.656  25.756 -0.10 +0.05    +0.306 C 
DOCKED: ATOM     35  O   UNL d   1      39.129  42.586  25.226 -0.18 -0.05    -0.251 OA
DOCKED: BRANCH  34  36
DOCKED: ATOM     36  O   UNL d   1      38.542  43.725  27.055 -0.05 -0.07    -0.481 OA
DOCKED: ATOM     37  H   UNL d   1      37.563  43.669  27.057 -0.03 -0.01    +0.295 HD
DOCKED: ENDBRANCH  34  36
DOCKED: ENDBRANCH  33  34
DOCKED: ENDBRANCH   7  33
DOCKED: BRANCH  27  38
DOCKED: ATOM     38  C   UNL d   1      39.271  50.192  19.180 -0.27 +0.01    +0.017 C 
DOCKED: ATOM     39  C   UNL d   1      40.129  49.654  18.299 -0.29 +0.04    +0.092 C 
DOCKED: BRANCH  39  40
DOCKED: ATOM     40  C   UNL d   1      40.731  50.494  17.260 -0.12 +0.21    +0.330 C 
DOCKED: ATOM     41  O   UNL d   1      40.164  51.094  16.367 -0.74 -0.30    -0.246 OA
DOCKED: BRANCH  40  42
DOCKED: ATOM     42  O   UNL d   1      42.063  50.539  17.418 -0.06 -0.14    -0.477 OA
DOCKED: ATOM     43  H   UNL d   1      42.411  50.426  16.510 -0.30 +0.05    +0.295 HD
DOCKED: ENDBRANCH  40  42
DOCKED: ENDBRANCH  39  40
DOCKED: ENDBRANCH  27  38
DOCKED: BRANCH   8  44
DOCKED: ATOM     44  C   UNL d   1      33.770  49.679  28.590 -0.12 +0.00    +0.141 C 
DOCKED: BRANCH  44  45
DOCKED: ATOM     45  C   UNL d   1      32.573  49.223  27.798 -0.13 -0.02    +0.306 C 
DOCKED: ATOM     46  O   UNL d   1      31.845  49.922  27.115 -0.21 +0.01    -0.251 OA
DOCKED: BRANCH  45  47
DOCKED: ATOM     47  O   UNL d   1      32.338  47.905  27.932 -0.16 +0.04    -0.481 OA
DOCKED: ATOM     48  H   UNL d   1      32.309  47.564  27.013 -0.41 -0.09    +0.295 HD
DOCKED: ENDBRANCH  45  47
DOCKED: ENDBRANCH  44  45
DOCKED: ENDBRANCH   8  44
DOCKED: BRANCH  22  49
DOCKED: ATOM     49  C   UNL d   1      34.413  52.940  19.544 -0.22 +0.01    +0.048 C 
DOCKED: BRANCH  49  50
DOCKED: ATOM     50  C   UNL d   1      35.459  54.001  19.204 -0.18 +0.03    +0.125 C 
DOCKED: BRANCH  50  51
DOCKED: ATOM     51  C   UNL d   1      35.343  54.427  17.768 -0.11 +0.08    +0.305 C 
DOCKED: ATOM     52  O   UNL d   1      34.485  54.106  16.964 -0.31 -0.07    -0.251 OA
DOCKED: BRANCH  51  53
DOCKED: ATOM     53  O   UNL d   1      36.348  55.249  17.403 -0.04 -0.12    -0.481 OA
DOCKED: ATOM     54  H   UNL d   1      36.044  56.137  17.686 +0.06 +0.05    +0.295 HD
DOCKED: ENDBRANCH  51  53
DOCKED: ENDBRANCH  50  51
DOCKED: ENDBRANCH  49  50
DOCKED: ENDBRANCH  22  49
DOCKED: TORSDOF 13
DOCKED: TER
DOCKED: ENDMDL
________________________________________________________________________________


	BEGINNING GENETIC ALGORITHM DOCKING 90 of 100
Run: 90 Seed: 1078384255 480015623 [ Run 90 of 100 GA/GALS ]
Beginning LAMARCKIAN GENETIC ALGORITHM (LGA), with a maximum of 25000000 energy evaluations.

Final-Value: -11.869


	FINAL GENETIC ALGORITHM DOCKED STATE
	_______________________________________________


Detailed state:  trans 4.604 21.388 20.179 quatxyzw -0.636021 0.422182 -0.340406 -0.548966 center 0.153 0.018 -0.028 ntor 13 118.0675 -141.0734 4.5585 19.1763 -132.6891 -24.8138 -20.2221 19.3692 26.7501 19.6237 -66.0666 -22.3771 -9.4660
State:	  4.604  21.388  20.179  -0.761  0.505 -0.407 -113.408    118.07 -141.07    4.56   19.18 -132.69  -24.81  -20.22   19.37   26.75   19.62  -66.07  -22.38   -9.47

DOCKED: MODEL       90
DOCKED: USER    Run = 90
DOCKED: USER    DPF = D:/Protein_go_brrr/autodock/final/2DN3/heme/dock.dpf
DOCKED: USER  
DOCKED: USER    Estimated Free Energy of Binding    =   -3.95 kcal/mol  [=(1)+(2)+(3)-(4)]
DOCKED: USER    Estimated Inhibition Constant, Ki   =    1.27 mM (millimolar)  [Temperature = 298.15 K]
DOCKED: USER    
DOCKED: USER    (1) Final Intermolecular Energy     =   -7.83 kcal/mol
DOCKED: USER        vdW + Hbond + desolv Energy     =   -7.62 kcal/mol
DOCKED: USER        Electrostatic Energy            =   -0.21 kcal/mol
DOCKED: USER    (2) Final Total Internal Energy     =   -4.04 kcal/mol
DOCKED: USER    (3) Torsional Free Energy           =   +3.88 kcal/mol
DOCKED: USER    (4) Unbound System's Energy  [=(2)] =   -4.04 kcal/mol
DOCKED: USER    
DOCKED: USER    
DOCKED: USER    NEWDPF move heme_opt.pdbqt
DOCKED: USER    NEWDPF about 0.153000 0.018000 -0.028000
DOCKED: USER    NEWDPF tran0 4.603767 21.387687 20.179023
DOCKED: USER    NEWDPF quaternion0 -0.636021 0.422182 -0.340406 -0.548966
DOCKED: USER    NEWDPF axisangle0 -0.760932 0.505096 -0.407260 -113.407838
DOCKED: USER    NEWDPF quat0 -0.760932 0.505096 -0.407260 -113.407838
DOCKED: USER    NEWDPF dihe0 118.07 -141.07 4.56 19.18 -132.69 -24.81 -20.22 19.37 26.75 19.62 -66.07 -22.38 -9.47 
DOCKED: USER  keepresnum = 1 
DOCKED: USER  
DOCKED: REMARK  13 active torsions:
DOCKED: REMARK  status: ('A' for Active; 'I' for Inactive)
DOCKED: REMARK    1  A    between atoms: O_3  and  C_38 
DOCKED: REMARK    2  A    between atoms: O_4  and  C_40 
DOCKED: REMARK    3  A    between atoms: O_7  and  C_46 
DOCKED: REMARK    4  A    between atoms: O_9  and  C_48 
DOCKED: REMARK    5  A    between atoms: C_15  and  C_20 
DOCKED: REMARK    6  A    between atoms: C_16  and  C_23 
DOCKED: REMARK    7  A    between atoms: C_20  and  C_38 
DOCKED: REMARK    8  A    between atoms: C_23  and  C_40 
DOCKED: REMARK    9  A    between atoms: C_32  and  C_41 
DOCKED: REMARK   10  A    between atoms: C_37  and  C_45 
DOCKED: REMARK   11  A    between atoms: C_41  and  C_44 
DOCKED: REMARK   12  A    between atoms: C_44  and  C_46 
DOCKED: REMARK   13  A    between atoms: C_47  and  C_48 
DOCKED: USER                              x       y       z     vdW  Elec       q    Type
DOCKED: USER                           _______ _______ _______ _____ _____    ______ ____
DOCKED: ROOT
DOCKED: ATOM      1  O   UNL d   1       2.598  26.695  18.578 -0.06 +0.00    -0.289 OA
DOCKED: ATOM      2  O   UNL d   1       2.885  23.357  25.298 -0.01 -0.00    -0.289 OA
DOCKED: ATOM      3  N   UNL d   1       3.753  23.475  19.016 -0.08 +0.00    -0.247 NA
DOCKED: ATOM      4  N   UNL d   1       3.774  23.153  21.970 -0.07 +0.02    -0.247 NA
DOCKED: ATOM      5  N   UNL d   1       5.361  20.783  21.607 -0.09 +0.02    -0.354 N 
DOCKED: ATOM      6  N   UNL d   1       5.350  21.135  18.545 -0.07 -0.01    -0.354 N 
DOCKED: ATOM      7  C   UNL d   1       3.642  25.030  17.125 -0.25 -0.00    +0.084 A 
DOCKED: ATOM      8  C   UNL d   1       2.216  24.528  23.256 -0.04 -0.00    +0.084 A 
DOCKED: ATOM      9  C   UNL d   1       2.846  24.168  21.906 -0.10 -0.00    +0.058 A 
DOCKED: ATOM     10  C   UNL d   1       4.044  23.658  17.675 -0.17 -0.00    +0.058 A 
DOCKED: ATOM     11  C   UNL d   1       3.054  25.583  18.388 -0.10 -0.00    +0.193 A 
DOCKED: ATOM     12  C   UNL d   1       3.158  24.536  19.454 -0.09 +0.00    +0.109 A 
DOCKED: ATOM     13  C   UNL d   1       2.985  23.554  24.103 -0.03 -0.00    +0.193 A 
DOCKED: ATOM     14  C   UNL d   1       4.860  25.872  16.735 -0.45 -0.00    +0.026 C 
DOCKED: ATOM     15  C   UNL d   1       2.555  24.824  20.772 -0.12 -0.00    +0.055 C 
DOCKED: ATOM     16  C   UNL d   1       0.730  24.157  23.305 -0.01 -0.00    +0.026 C 
DOCKED: ATOM     17  C   UNL d   1       3.900  22.786  23.205 -0.08 -0.01    +0.109 A 
DOCKED: ATOM     18  C   UNL d   1       4.553  22.702  16.876 -0.15 -0.01    +0.050 C 
DOCKED: ATOM     19  C   UNL d   1       4.875  21.380  17.277 -0.24 -0.00    +0.045 A 
DOCKED: ATOM     20  C   UNL d   1       5.456  20.924  22.968 -0.19 -0.00    +0.045 A 
DOCKED: ATOM     21  C   UNL d   1       4.815  21.783  23.768 -0.15 -0.00    +0.057 C 
DOCKED: ATOM     22  C   UNL d   1       6.852  19.243  22.301 -0.29 -0.00    -0.019 A 
DOCKED: ATOM     23  C   UNL d   1       6.167  19.793  21.113 -0.24 +0.00    +0.045 A 
DOCKED: ATOM     24  C   UNL d   1       6.425  19.916  23.396 -0.23 -0.00    -0.022 A 
DOCKED: ATOM     25  C   UNL d   1       5.682  19.808  18.689 -0.21 +0.01    +0.049 A 
DOCKED: ATOM     26  C   UNL d   1       4.862  20.175  16.591 -0.27 +0.00    -0.018 A 
DOCKED: ATOM     27  C   UNL d   1       5.354  19.183  17.494 -0.20 +0.00    +0.003 A 
DOCKED: ATOM     28  C   UNL d   1       6.340  19.344  19.860 -0.23 +0.01    +0.052 C 
DOCKED: ATOM     29  C   UNL d   1       6.815  19.721  24.821 -0.12 +0.00    +0.046 C 
DOCKED: ATOM     30  C   UNL d   1       4.418  19.956  15.184 -0.27 -0.01    +0.046 C 
DOCKED: ATOM     31  H   UNL d   1       4.691  21.320  21.068 +0.03 -0.01    +0.166 HD
DOCKED: ATOM     32  H   UNL d   1       5.471  21.856  19.247 +0.08 -0.00    +0.166 HD
DOCKED: ENDROOT
DOCKED: BRANCH   7  33
DOCKED: ATOM     33  C   UNL d   1       2.593  25.008  16.008 -0.18 -0.01    +0.141 C 
DOCKED: BRANCH  33  34
DOCKED: ATOM     34  C   UNL d   1       1.210  24.708  16.519 -0.06 -0.02    +0.306 C 
DOCKED: ATOM     35  O   UNL d   1       0.775  23.609  16.818 -0.06 +0.01    -0.251 OA
DOCKED: BRANCH  34  36
DOCKED: ATOM     36  O   UNL d   1       0.448  25.811  16.630 +0.00 +0.02    -0.481 OA
DOCKED: ATOM     37  H   UNL d   1       0.892  26.350  17.318 +0.06 -0.01    +0.295 HD
DOCKED: ENDBRANCH  34  36
DOCKED: ENDBRANCH  33  34
DOCKED: ENDBRANCH   7  33
DOCKED: BRANCH  27  38
DOCKED: ATOM     38  C   UNL d   1       5.520  17.795  17.184 -0.20 +0.01    +0.017 C 
DOCKED: ATOM     39  C   UNL d   1       5.718  16.819  18.083 -0.13 +0.06    +0.092 C 
DOCKED: BRANCH  39  40
DOCKED: ATOM     40  C   UNL d   1       5.856  15.431  17.636 +0.06 +0.29    +0.330 C 
DOCKED: ATOM     41  O   UNL d   1       5.397  14.925  16.629 -0.19 -0.10    -0.246 OA
DOCKED: BRANCH  40  42
DOCKED: ATOM     42  O   UNL d   1       6.601  14.735  18.509 -0.50 -0.55    -0.477 OA
DOCKED: ATOM     43  H   UNL d   1       6.315  15.074  19.383 +0.06 +0.20    +0.295 HD
DOCKED: ENDBRANCH  40  42
DOCKED: ENDBRANCH  39  40
DOCKED: ENDBRANCH  27  38
DOCKED: BRANCH   8  44
DOCKED: ATOM     44  C   UNL d   1       2.445  25.967  23.729 -0.06 +0.00    +0.141 C 
DOCKED: BRANCH  44  45
DOCKED: ATOM     45  C   UNL d   1       3.744  26.553  23.244 -0.17 +0.00    +0.306 C 
DOCKED: ATOM     46  O   UNL d   1       4.865  26.171  23.531 -0.52 -0.03    -0.251 OA
DOCKED: BRANCH  45  47
DOCKED: ATOM     47  O   UNL d   1       3.561  27.614  22.438 -0.11 +0.02    -0.481 OA
DOCKED: ATOM     48  H   UNL d   1       4.463  27.862  22.146 -0.18 -0.06    +0.295 HD
DOCKED: ENDBRANCH  45  47
DOCKED: ENDBRANCH  44  45
DOCKED: ENDBRANCH   8  44
DOCKED: BRANCH  22  49
DOCKED: ATOM     49  C   UNL d   1       7.860  18.133  22.254 -0.38 +0.01    +0.048 C 
DOCKED: BRANCH  49  50
DOCKED: ATOM     50  C   UNL d   1       7.210  16.766  22.468 -0.22 +0.03    +0.125 C 
DOCKED: BRANCH  50  51
DOCKED: ATOM     51  C   UNL d   1       7.327  15.917  21.234 -0.17 +0.13    +0.305 C 
DOCKED: ATOM     52  O   UNL d   1       8.032  16.115  20.260 -0.19 -0.20    -0.251 OA
DOCKED: BRANCH  51  53
DOCKED: ATOM     53  O   UNL d   1       6.519  14.839  21.285 -0.03 -0.15    -0.481 OA
DOCKED: ATOM     54  H   UNL d   1       6.893  14.229  20.615 +0.06 +0.12    +0.295 HD
DOCKED: ENDBRANCH  51  53
DOCKED: ENDBRANCH  50  51
DOCKED: ENDBRANCH  49  50
DOCKED: ENDBRANCH  22  49
DOCKED: TORSDOF 13
DOCKED: TER
DOCKED: ENDMDL
________________________________________________________________________________


	BEGINNING GENETIC ALGORITHM DOCKING 91 of 100
Run: 91 Seed: 1595365868 1634633267 [ Run 91 of 100 GA/GALS ]
Beginning LAMARCKIAN GENETIC ALGORITHM (LGA), with a maximum of 25000000 energy evaluations.

Final-Value: -10.267


	FINAL GENETIC ALGORITHM DOCKED STATE
	_______________________________________________


Detailed state:  trans 0.544 32.674 7.055 quatxyzw 0.728501 0.126309 -0.668011 0.084228 center 0.153 0.018 -0.028 ntor 13 89.9012 132.1978 179.6160 62.1674 -178.2059 -4.0183 145.2648 -60.3062 107.5212 -8.6886 28.2275 -65.0916 129.1013
State:	  0.544  32.674   7.055   0.731  0.127 -0.670 170.337     89.90  132.20  179.62   62.17 -178.21   -4.02  145.26  -60.31  107.52   -8.69   28.23  -65.09  129.10

DOCKED: MODEL       91
DOCKED: USER    Run = 91
DOCKED: USER    DPF = D:/Protein_go_brrr/autodock/final/2DN3/heme/dock.dpf
DOCKED: USER  
DOCKED: USER    Estimated Free Energy of Binding    =   -2.82 kcal/mol  [=(1)+(2)+(3)-(4)]
DOCKED: USER    Estimated Inhibition Constant, Ki   =    8.61 mM (millimolar)  [Temperature = 298.15 K]
DOCKED: USER    
DOCKED: USER    (1) Final Intermolecular Energy     =   -6.70 kcal/mol
DOCKED: USER        vdW + Hbond + desolv Energy     =   -6.56 kcal/mol
DOCKED: USER        Electrostatic Energy            =   -0.14 kcal/mol
DOCKED: USER    (2) Final Total Internal Energy     =   -3.57 kcal/mol
DOCKED: USER    (3) Torsional Free Energy           =   +3.88 kcal/mol
DOCKED: USER    (4) Unbound System's Energy  [=(2)] =   -3.57 kcal/mol
DOCKED: USER    
DOCKED: USER    
DOCKED: USER    NEWDPF move heme_opt.pdbqt
DOCKED: USER    NEWDPF about 0.153000 0.018000 -0.028000
DOCKED: USER    NEWDPF tran0 0.543982 32.673553 7.055459
DOCKED: USER    NEWDPF quaternion0 0.728501 0.126309 -0.668011 0.084228
DOCKED: USER    NEWDPF axisangle0 0.731098 0.126759 -0.670393 170.336753
DOCKED: USER    NEWDPF quat0 0.731098 0.126759 -0.670393 170.336753
DOCKED: USER    NEWDPF dihe0 89.90 132.20 179.62 62.17 -178.21 -4.02 145.26 -60.31 107.52 -8.69 28.23 -65.09 129.10 
DOCKED: USER  keepresnum = 1 
DOCKED: USER  
DOCKED: REMARK  13 active torsions:
DOCKED: REMARK  status: ('A' for Active; 'I' for Inactive)
DOCKED: REMARK    1  A    between atoms: O_3  and  C_38 
DOCKED: REMARK    2  A    between atoms: O_4  and  C_40 
DOCKED: REMARK    3  A    between atoms: O_7  and  C_46 
DOCKED: REMARK    4  A    between atoms: O_9  and  C_48 
DOCKED: REMARK    5  A    between atoms: C_15  and  C_20 
DOCKED: REMARK    6  A    between atoms: C_16  and  C_23 
DOCKED: REMARK    7  A    between atoms: C_20  and  C_38 
DOCKED: REMARK    8  A    between atoms: C_23  and  C_40 
DOCKED: REMARK    9  A    between atoms: C_32  and  C_41 
DOCKED: REMARK   10  A    between atoms: C_37  and  C_45 
DOCKED: REMARK   11  A    between atoms: C_41  and  C_44 
DOCKED: REMARK   12  A    between atoms: C_44  and  C_46 
DOCKED: REMARK   13  A    between atoms: C_47  and  C_48 
DOCKED: USER                              x       y       z     vdW  Elec       q    Type
DOCKED: USER                           _______ _______ _______ _____ _____    ______ ____
DOCKED: ROOT
DOCKED: ATOM      1  O   UNL d   1      -0.404  29.369  11.844 -0.06 +0.03    -0.289 OA
DOCKED: ATOM      2  O   UNL d   1       1.567  36.581  11.145 -0.33 +0.01    -0.289 OA
DOCKED: ATOM      3  N   UNL d   1       0.177  30.858   8.789 -0.11 +0.04    -0.247 NA
DOCKED: ATOM      4  N   UNL d   1       0.584  33.717   9.489 -0.05 -0.02    -0.247 NA
DOCKED: ATOM      5  N   UNL d   1       0.305  34.345   6.697 -0.11 -0.04    -0.354 N 
DOCKED: ATOM      6  N   UNL d   1      -0.136  31.379   5.982 -0.03 +0.04    -0.354 N 
DOCKED: ATOM      7  C   UNL d   1      -0.648  28.668   9.515 -0.14 -0.03    +0.084 A 
DOCKED: ATOM      8  C   UNL d   1       1.401  34.212  11.738 -0.28 +0.00    +0.084 A 
DOCKED: ATOM      9  C   UNL d   1       0.900  33.184  10.718 -0.19 +0.00    +0.058 A 
DOCKED: ATOM     10  C   UNL d   1      -0.289  29.622   8.373 -0.17 -0.02    +0.058 A 
DOCKED: ATOM     11  C   UNL d   1      -0.285  29.577  10.651 -0.10 -0.03    +0.193 A 
DOCKED: ATOM     12  C   UNL d   1       0.226  30.864  10.081 -0.15 -0.01    +0.109 A 
DOCKED: ATOM     13  C   UNL d   1       1.276  35.433  10.871 -0.28 +0.01    +0.193 A 
DOCKED: ATOM     14  C   UNL d   1      -2.150  28.379   9.573 -0.05 -0.01    +0.026 C 
DOCKED: ATOM     15  C   UNL d   1       0.734  31.886  11.017 -0.23 +0.00    +0.055 C 
DOCKED: ATOM     16  C   UNL d   1       2.879  33.999  12.079 -0.56 +0.00    +0.026 C 
DOCKED: ATOM     17  C   UNL d   1       0.764  34.998   9.537 -0.25 +0.01    +0.109 A 
DOCKED: ATOM     18  C   UNL d   1      -0.346  29.231   7.086 -0.18 -0.02    +0.050 C 
DOCKED: ATOM     19  C   UNL d   1       0.045  30.015   5.970 -0.14 -0.01    +0.045 A 
DOCKED: ATOM     20  C   UNL d   1       0.279  35.609   7.226 -0.30 +0.01    +0.045 A 
DOCKED: ATOM     21  C   UNL d   1       0.499  35.994   8.488 -0.31 +0.01    +0.057 C 
DOCKED: ATOM     22  C   UNL d   1      -0.192  35.734   4.994 -0.14 -0.01    -0.019 A 
DOCKED: ATOM     23  C   UNL d   1       0.032  34.319   5.355 -0.19 +0.01    +0.045 A 
DOCKED: ATOM     24  C   UNL d   1      -0.042  36.492   6.106 -0.28 -0.01    -0.022 A 
DOCKED: ATOM     25  C   UNL d   1       0.226  31.925   4.772 -0.11 -0.00    +0.049 A 
DOCKED: ATOM     26  C   UNL d   1       0.572  29.669   4.735 -0.14 +0.01    -0.018 A 
DOCKED: ATOM     27  C   UNL d   1       0.702  30.882   3.990 -0.12 -0.00    +0.003 A 
DOCKED: ATOM     28  C   UNL d   1      -0.018  33.296   4.488 -0.15 +0.01    +0.052 C 
DOCKED: ATOM     29  C   UNL d   1      -0.157  37.972   6.248 -0.34 +0.02    +0.046 C 
DOCKED: ATOM     30  C   UNL d   1       0.935  28.299   4.274 -0.15 -0.04    +0.046 C 
DOCKED: ATOM     31  H   UNL d   1       0.582  33.546   7.257 +0.07 +0.01    +0.166 HD
DOCKED: ATOM     32  H   UNL d   1      -0.523  31.887   6.769 +0.05 -0.01    +0.166 HD
DOCKED: ENDROOT
DOCKED: BRANCH   7  33
DOCKED: ATOM     33  C   UNL d   1       0.176  27.376   9.576 -0.10 -0.10    +0.141 C 
DOCKED: BRANCH  33  34
DOCKED: ATOM     34  C   UNL d   1       0.228  26.787  10.959 -0.18 -0.14    +0.306 C 
DOCKED: ATOM     35  O   UNL d   1       1.237  26.528  11.594 -0.24 +0.10    -0.251 OA
DOCKED: BRANCH  34  36
DOCKED: ATOM     36  O   UNL d   1      -0.994  26.558  11.472 -0.01 +0.14    -0.481 OA
DOCKED: ATOM     37  H   UNL d   1      -1.207  27.373  11.974 +0.07 -0.05    +0.295 HD
DOCKED: ENDBRANCH  34  36
DOCKED: ENDBRANCH  33  34
DOCKED: ENDBRANCH   7  33
DOCKED: BRANCH  27  38
DOCKED: ATOM     38  C   UNL d   1       1.196  30.977   2.649 -0.13 -0.00    +0.017 C 
DOCKED: ATOM     39  C   UNL d   1       0.851  31.924   1.763 -0.08 +0.01    +0.092 C 
DOCKED: BRANCH  39  40
DOCKED: ATOM     40  C   UNL d   1       1.444  31.919   0.423 -0.05 +0.03    +0.330 C 
DOCKED: ATOM     41  O   UNL d   1       2.326  31.195   0.002 -0.11 -0.01    -0.246 OA
DOCKED: BRANCH  40  42
DOCKED: ATOM     42  O   UNL d   1       0.863  32.856  -0.342 +0.00 -0.08    -0.477 OA
DOCKED: ATOM     43  H   UNL d   1      -0.096  32.715  -0.199 +0.03 +0.05    +0.295 HD
DOCKED: ENDBRANCH  40  42
DOCKED: ENDBRANCH  39  40
DOCKED: ENDBRANCH  27  38
DOCKED: BRANCH   8  44
DOCKED: ATOM     44  C   UNL d   1       0.553  34.351  13.007 +0.05 +0.00    +0.141 C 
DOCKED: BRANCH  44  45
DOCKED: ATOM     45  C   UNL d   1      -0.877  34.730  12.728 -0.06 +0.01    +0.306 C 
DOCKED: ATOM     46  O   UNL d   1      -1.839  33.982  12.723 -0.03 -0.01    -0.251 OA
DOCKED: BRANCH  45  47
DOCKED: ATOM     47  O   UNL d   1      -1.016  36.037  12.441 -0.05 -0.02    -0.481 OA
DOCKED: ATOM     48  H   UNL d   1      -0.110  36.405  12.514 +0.11 -0.01    +0.295 HD
DOCKED: ENDBRANCH  45  47
DOCKED: ENDBRANCH  44  45
DOCKED: ENDBRANCH   8  44
DOCKED: BRANCH  22  49
DOCKED: ATOM     49  C   UNL d   1      -0.541  36.206   3.614 -0.05 +0.03    +0.048 C 
DOCKED: BRANCH  49  50
DOCKED: ATOM     50  C   UNL d   1      -1.635  35.347   2.979 -0.09 +0.04    +0.125 C 
DOCKED: BRANCH  50  51
DOCKED: ATOM     51  C   UNL d   1      -1.499  35.325   1.483 -0.06 +0.14    +0.305 C 
DOCKED: ATOM     52  O   UNL d   1      -1.649  36.255   0.710 -0.09 -0.17    -0.251 OA
DOCKED: BRANCH  51  53
DOCKED: ATOM     53  O   UNL d   1      -1.184  34.098   1.023 -0.01 -0.13    -0.481 OA
DOCKED: ATOM     54  H   UNL d   1      -0.313  34.222   0.591 +0.04 +0.10    +0.295 HD
DOCKED: ENDBRANCH  51  53
DOCKED: ENDBRANCH  50  51
DOCKED: ENDBRANCH  49  50
DOCKED: ENDBRANCH  22  49
DOCKED: TORSDOF 13
DOCKED: TER
DOCKED: ENDMDL
________________________________________________________________________________


	BEGINNING GENETIC ALGORITHM DOCKING 92 of 100
Run: 92 Seed: 801020193 181741193 [ Run 92 of 100 GA/GALS ]
Beginning LAMARCKIAN GENETIC ALGORITHM (LGA), with a maximum of 25000000 energy evaluations.

Final-Value: -11.152


	FINAL GENETIC ALGORITHM DOCKED STATE
	_______________________________________________


Detailed state:  trans 2.012 31.826 -6.215 quatxyzw 0.057179 -0.636168 0.127212 0.758840 center 0.153 0.018 -0.028 ntor 13 -103.6764 -147.5804 -135.8813 36.8108 40.7887 79.2296 123.3503 25.9202 114.0170 -33.0986 -83.4211 -96.4106 -0.7542
State:	  2.012  31.826  -6.215   0.088 -0.977  0.195 81.276   -103.68 -147.58 -135.88   36.81   40.79   79.23  123.35   25.92  114.02  -33.10  -83.42  -96.41   -0.75

DOCKED: MODEL       92
DOCKED: USER    Run = 92
DOCKED: USER    DPF = D:/Protein_go_brrr/autodock/final/2DN3/heme/dock.dpf
DOCKED: USER  
DOCKED: USER    Estimated Free Energy of Binding    =   -2.74 kcal/mol  [=(1)+(2)+(3)-(4)]
DOCKED: USER    Estimated Inhibition Constant, Ki   =    9.81 mM (millimolar)  [Temperature = 298.15 K]
DOCKED: USER    
DOCKED: USER    (1) Final Intermolecular Energy     =   -6.62 kcal/mol
DOCKED: USER        vdW + Hbond + desolv Energy     =   -5.87 kcal/mol
DOCKED: USER        Electrostatic Energy            =   -0.75 kcal/mol
DOCKED: USER    (2) Final Total Internal Energy     =   -4.53 kcal/mol
DOCKED: USER    (3) Torsional Free Energy           =   +3.88 kcal/mol
DOCKED: USER    (4) Unbound System's Energy  [=(2)] =   -4.53 kcal/mol
DOCKED: USER    
DOCKED: USER    
DOCKED: USER    NEWDPF move heme_opt.pdbqt
DOCKED: USER    NEWDPF about 0.153000 0.018000 -0.028000
DOCKED: USER    NEWDPF tran0 2.012022 31.826498 -6.214665
DOCKED: USER    NEWDPF quaternion0 0.057179 -0.636168 0.127212 0.758840
DOCKED: USER    NEWDPF axisangle0 0.087796 -0.976801 0.195326 81.275883
DOCKED: USER    NEWDPF quat0 0.087796 -0.976801 0.195326 81.275883
DOCKED: USER    NEWDPF dihe0 -103.68 -147.58 -135.88 36.81 40.79 79.23 123.35 25.92 114.02 -33.10 -83.42 -96.41 -0.75 
DOCKED: USER  keepresnum = 1 
DOCKED: USER  
DOCKED: REMARK  13 active torsions:
DOCKED: REMARK  status: ('A' for Active; 'I' for Inactive)
DOCKED: REMARK    1  A    between atoms: O_3  and  C_38 
DOCKED: REMARK    2  A    between atoms: O_4  and  C_40 
DOCKED: REMARK    3  A    between atoms: O_7  and  C_46 
DOCKED: REMARK    4  A    between atoms: O_9  and  C_48 
DOCKED: REMARK    5  A    between atoms: C_15  and  C_20 
DOCKED: REMARK    6  A    between atoms: C_16  and  C_23 
DOCKED: REMARK    7  A    between atoms: C_20  and  C_38 
DOCKED: REMARK    8  A    between atoms: C_23  and  C_40 
DOCKED: REMARK    9  A    between atoms: C_32  and  C_41 
DOCKED: REMARK   10  A    between atoms: C_37  and  C_45 
DOCKED: REMARK   11  A    between atoms: C_41  and  C_44 
DOCKED: REMARK   12  A    between atoms: C_44  and  C_46 
DOCKED: REMARK   13  A    between atoms: C_47  and  C_48 
DOCKED: USER                              x       y       z     vdW  Elec       q    Type
DOCKED: USER                           _______ _______ _______ _____ _____    ______ ____
DOCKED: ROOT
DOCKED: ATOM      1  O   UNL d   1       1.963  34.893  -1.180 -0.07 -0.12    -0.289 OA
DOCKED: ATOM      2  O   UNL d   1      -0.539  27.994  -2.774 -0.41 -0.04    -0.289 OA
DOCKED: ATOM      3  N   UNL d   1       2.087  33.547  -4.353 -0.06 -0.04    -0.247 NA
DOCKED: ATOM      4  N   UNL d   1       1.181  30.747  -3.944 -0.06 -0.01    -0.247 NA
DOCKED: ATOM      5  N   UNL d   1       2.150  30.146  -6.583 -0.05 -0.01    -0.354 N 
DOCKED: ATOM      6  N   UNL d   1       3.105  33.048  -6.992 -0.03 -0.05    -0.354 N 
DOCKED: ATOM      7  C   UNL d   1       2.920  35.605  -3.313 -0.08 +0.03    +0.084 A 
DOCKED: ATOM      8  C   UNL d   1      -0.277  30.312  -2.032 -0.05 +0.00    +0.084 A 
DOCKED: ATOM      9  C   UNL d   1       0.600  31.291  -2.820 -0.07 +0.00    +0.058 A 
DOCKED: ATOM     10  C   UNL d   1       2.786  34.725  -4.559 -0.09 +0.01    +0.058 A 
DOCKED: ATOM     11  C   UNL d   1       2.156  34.725  -2.370 -0.05 +0.06    +0.193 A 
DOCKED: ATOM     12  C   UNL d   1       1.681  33.522  -3.125 -0.06 +0.02    +0.109 A 
DOCKED: ATOM     13  C   UNL d   1      -0.056  29.102  -2.896 -0.08 +0.02    +0.193 A 
DOCKED: ATOM     14  C   UNL d   1       4.370  35.705  -2.833 -0.18 +0.01    +0.026 C 
DOCKED: ATOM     15  C   UNL d   1       0.821  32.552  -2.419 -0.06 +0.01    +0.055 C 
DOCKED: ATOM     16  C   UNL d   1      -1.758  30.698  -2.096 -0.01 +0.00    +0.026 C 
DOCKED: ATOM     17  C   UNL d   1       0.852  29.497  -4.015 -0.13 +0.00    +0.109 A 
DOCKED: ATOM     18  C   UNL d   1       3.242  35.131  -5.759 -0.11 +0.01    +0.050 C 
DOCKED: ATOM     19  C   UNL d   1       3.089  34.425  -6.979 -0.10 +0.01    +0.045 A 
DOCKED: ATOM     20  C   UNL d   1       1.885  28.878  -6.135 -0.19 -0.00    +0.045 A 
DOCKED: ATOM     21  C   UNL d   1       1.283  28.498  -5.004 -0.08 -0.00    +0.057 C 
DOCKED: ATOM     22  C   UNL d   1       2.939  28.741  -8.157 -0.20 +0.00    -0.019 A 
DOCKED: ATOM     23  C   UNL d   1       2.786  30.165  -7.796 -0.17 +0.00    +0.045 A 
DOCKED: ATOM     24  C   UNL d   1       2.403  27.984  -7.170 -0.24 +0.00    -0.022 A 
DOCKED: ATOM     25  C   UNL d   1       3.033  32.576  -8.282 -0.14 +0.01    +0.049 A 
DOCKED: ATOM     26  C   UNL d   1       2.968  34.857  -8.291 -0.09 -0.00    -0.018 A 
DOCKED: ATOM     27  C   UNL d   1       2.913  33.685  -9.107 -0.11 +0.00    +0.003 A 
DOCKED: ATOM     28  C   UNL d   1       3.190  31.191  -8.560 -0.20 +0.01    +0.052 C 
DOCKED: ATOM     29  C   UNL d   1       2.306  26.499  -7.082 -0.22 -0.03    +0.046 C 
DOCKED: ATOM     30  C   UNL d   1       2.904  36.271  -8.760 -0.05 +0.01    +0.046 C 
DOCKED: ATOM     31  H   UNL d   1       1.821  30.962  -6.078 +0.04 +0.01    +0.166 HD
DOCKED: ATOM     32  H   UNL d   1       3.198  32.482  -6.157 +0.04 +0.02    +0.166 HD
DOCKED: ENDROOT
DOCKED: BRANCH   7  33
DOCKED: ATOM     33  C   UNL d   1       2.263  36.986  -3.411 -0.06 +0.07    +0.141 C 
DOCKED: BRANCH  33  34
DOCKED: ATOM     34  C   UNL d   1       2.038  37.617  -2.064 +0.02 +0.35    +0.306 C 
DOCKED: ATOM     35  O   UNL d   1       2.782  38.405  -1.504 -0.31 -0.37    -0.251 OA
DOCKED: BRANCH  34  36
DOCKED: ATOM     36  O   UNL d   1       0.886  37.224  -1.493 -0.42 -0.83    -0.481 OA
DOCKED: ATOM     37  H   UNL d   1       1.057  36.303  -1.200 +0.04 +0.31    +0.295 HD
DOCKED: ENDBRANCH  34  36
DOCKED: ENDBRANCH  33  34
DOCKED: ENDBRANCH   7  33
DOCKED: BRANCH  27  38
DOCKED: ATOM     38  C   UNL d   1       2.803  33.678 -10.535 -0.11 +0.01    +0.017 C 
DOCKED: ATOM     39  C   UNL d   1       3.691  33.129 -11.377 -0.12 +0.06    +0.092 C 
DOCKED: BRANCH  39  40
DOCKED: ATOM     40  C   UNL d   1       3.452  33.175 -12.822 -0.03 +0.28    +0.330 C 
DOCKED: ATOM     41  O   UNL d   1       3.606  34.120 -13.572 -0.07 -0.13    -0.246 OA
DOCKED: BRANCH  40  42
DOCKED: ATOM     42  O   UNL d   1       3.025  31.979 -13.257 -0.29 -0.63    -0.477 OA
DOCKED: ATOM     43  H   UNL d   1       2.515  31.622 -12.501 +0.03 +0.30    +0.295 HD
DOCKED: ENDBRANCH  40  42
DOCKED: ENDBRANCH  39  40
DOCKED: ENDBRANCH  27  38
DOCKED: BRANCH   8  44
DOCKED: ATOM     44  C   UNL d   1       0.164  30.044  -0.589 -0.07 +0.00    +0.141 C 
DOCKED: BRANCH  44  45
DOCKED: ATOM     45  C   UNL d   1       1.248  29.005  -0.483 -0.10 -0.01    +0.306 C 
DOCKED: ATOM     46  O   UNL d   1       2.437  29.171  -0.689 -0.17 +0.02    -0.251 OA
DOCKED: BRANCH  45  47
DOCKED: ATOM     47  O   UNL d   1       0.768  27.794  -0.145 -0.05 +0.02    -0.481 OA
DOCKED: ATOM     48  H   UNL d   1      -0.038  27.685  -0.693 +0.06 +0.02    +0.295 HD
DOCKED: ENDBRANCH  45  47
DOCKED: ENDBRANCH  44  45
DOCKED: ENDBRANCH   8  44
DOCKED: BRANCH  22  49
DOCKED: ATOM     49  C   UNL d   1       3.602  28.257  -9.413 -0.23 +0.00    +0.048 C 
DOCKED: BRANCH  49  50
DOCKED: ATOM     50  C   UNL d   1       2.636  28.244 -10.597 -0.08 +0.03    +0.125 C 
DOCKED: BRANCH  50  51
DOCKED: ATOM     51  C   UNL d   1       2.793  29.483 -11.432 -0.05 +0.24    +0.305 C 
DOCKED: ATOM     52  O   UNL d   1       3.747  30.241 -11.464 -0.45 -0.41    -0.251 OA
DOCKED: BRANCH  51  53
DOCKED: ATOM     53  O   UNL d   1       1.707  29.719 -12.194 -0.05 -0.28    -0.481 OA
DOCKED: ATOM     54  H   UNL d   1       2.075  30.080 -13.028 +0.02 +0.27    +0.295 HD
DOCKED: ENDBRANCH  51  53
DOCKED: ENDBRANCH  50  51
DOCKED: ENDBRANCH  49  50
DOCKED: ENDBRANCH  22  49
DOCKED: TORSDOF 13
DOCKED: TER
DOCKED: ENDMDL
________________________________________________________________________________


	BEGINNING GENETIC ALGORITHM DOCKING 93 of 100
Run: 93 Seed: 1787662066 126146905 [ Run 93 of 100 GA/GALS ]
Beginning LAMARCKIAN GENETIC ALGORITHM (LGA), with a maximum of 25000000 energy evaluations.

Final-Value: -10.523


	FINAL GENETIC ALGORITHM DOCKED STATE
	_______________________________________________


Detailed state:  trans 8.138 13.246 7.690 quatxyzw 0.560101 -0.601718 0.486788 -0.295399 center 0.153 0.018 -0.028 ntor 13 -175.4015 154.0791 -13.8464 142.0134 44.7249 24.1361 -63.0433 2.8526 121.0431 -156.2172 55.4457 -52.9996 42.0933
State:	  8.138  13.246   7.690   0.586 -0.630  0.510 -145.637   -175.40  154.08  -13.85  142.01   44.72   24.14  -63.04    2.85  121.04 -156.22   55.45  -53.00   42.09

DOCKED: MODEL       93
DOCKED: USER    Run = 93
DOCKED: USER    DPF = D:/Protein_go_brrr/autodock/final/2DN3/heme/dock.dpf
DOCKED: USER  
DOCKED: USER    Estimated Free Energy of Binding    =   -4.19 kcal/mol  [=(1)+(2)+(3)-(4)]
DOCKED: USER    Estimated Inhibition Constant, Ki   =  854.76 uM (micromolar)  [Temperature = 298.15 K]
DOCKED: USER    
DOCKED: USER    (1) Final Intermolecular Energy     =   -8.06 kcal/mol
DOCKED: USER        vdW + Hbond + desolv Energy     =   -7.35 kcal/mol
DOCKED: USER        Electrostatic Energy            =   -0.71 kcal/mol
DOCKED: USER    (2) Final Total Internal Energy     =   -2.46 kcal/mol
DOCKED: USER    (3) Torsional Free Energy           =   +3.88 kcal/mol
DOCKED: USER    (4) Unbound System's Energy  [=(2)] =   -2.46 kcal/mol
DOCKED: USER    
DOCKED: USER    
DOCKED: USER    NEWDPF move heme_opt.pdbqt
DOCKED: USER    NEWDPF about 0.153000 0.018000 -0.028000
DOCKED: USER    NEWDPF tran0 8.138448 13.245940 7.690045
DOCKED: USER    NEWDPF quaternion0 0.560101 -0.601718 0.486788 -0.295399
DOCKED: USER    NEWDPF axisangle0 0.586263 -0.629824 0.509526 -145.637120
DOCKED: USER    NEWDPF quat0 0.586263 -0.629824 0.509526 -145.637120
DOCKED: USER    NEWDPF dihe0 -175.40 154.08 -13.85 142.01 44.72 24.14 -63.04 2.85 121.04 -156.22 55.45 -53.00 42.09 
DOCKED: USER  keepresnum = 1 
DOCKED: USER  
DOCKED: REMARK  13 active torsions:
DOCKED: REMARK  status: ('A' for Active; 'I' for Inactive)
DOCKED: REMARK    1  A    between atoms: O_3  and  C_38 
DOCKED: REMARK    2  A    between atoms: O_4  and  C_40 
DOCKED: REMARK    3  A    between atoms: O_7  and  C_46 
DOCKED: REMARK    4  A    between atoms: O_9  and  C_48 
DOCKED: REMARK    5  A    between atoms: C_15  and  C_20 
DOCKED: REMARK    6  A    between atoms: C_16  and  C_23 
DOCKED: REMARK    7  A    between atoms: C_20  and  C_38 
DOCKED: REMARK    8  A    between atoms: C_23  and  C_40 
DOCKED: REMARK    9  A    between atoms: C_32  and  C_41 
DOCKED: REMARK   10  A    between atoms: C_37  and  C_45 
DOCKED: REMARK   11  A    between atoms: C_41  and  C_44 
DOCKED: REMARK   12  A    between atoms: C_44  and  C_46 
DOCKED: REMARK   13  A    between atoms: C_47  and  C_48 
DOCKED: USER                              x       y       z     vdW  Elec       q    Type
DOCKED: USER                           _______ _______ _______ _____ _____    ______ ____
DOCKED: ROOT
DOCKED: ATOM      1  O   UNL d   1       7.749  14.649   1.977 -0.22 -0.14    -0.289 OA
DOCKED: ATOM      2  O   UNL d   1      13.025  16.211   7.087 -0.25 -0.52    -0.289 OA
DOCKED: ATOM      3  N   UNL d   1       7.478  13.718   5.287 -0.15 -0.01    -0.247 NA
DOCKED: ATOM      4  N   UNL d   1      10.112  14.482   6.429 -0.12 -0.03    -0.247 NA
DOCKED: ATOM      5  N   UNL d   1       9.462  12.904   8.744 -0.07 +0.09    -0.354 N 
DOCKED: ATOM      6  N   UNL d   1       6.739  12.101   7.543 -0.01 +0.05    -0.354 N 
DOCKED: ATOM      7  C   UNL d   1       6.169  13.294   3.259 -0.14 +0.01    +0.084 A 
DOCKED: ATOM      8  C   UNL d   1      11.325  16.295   5.328 -0.25 +0.04    +0.084 A 
DOCKED: ATOM      9  C   UNL d   1      10.128  15.339   5.352 -0.29 +0.02    +0.058 A 
DOCKED: ATOM     10  C   UNL d   1       6.367  13.079   4.762 -0.17 +0.00    +0.058 A 
DOCKED: ATOM     11  C   UNL d   1       7.354  14.182   3.030 -0.12 +0.04    +0.193 A 
DOCKED: ATOM     12  C   UNL d   1       8.052  14.385   4.340 -0.24 +0.02    +0.109 A 
DOCKED: ATOM     13  C   UNL d   1      12.005  15.797   6.572 -0.15 +0.14    +0.193 A 
DOCKED: ATOM     14  C   UNL d   1       6.359  12.000   2.463 -0.06 +0.01    +0.026 C 
DOCKED: ATOM     15  C   UNL d   1       9.205  15.307   4.378 -0.38 +0.02    +0.055 C 
DOCKED: ATOM     16  C   UNL d   1      10.895  17.748   5.551 -0.24 +0.01    +0.026 C 
DOCKED: ATOM     17  C   UNL d   1      11.173  14.693   7.140 -0.18 +0.04    +0.109 A 
DOCKED: ATOM     18  C   UNL d   1       5.469  12.398   5.499 -0.14 +0.00    +0.050 C 
DOCKED: ATOM     19  C   UNL d   1       5.525  12.220   6.905 -0.12 -0.00    +0.045 A 
DOCKED: ATOM     20  C   UNL d   1      10.782  13.168   9.002 -0.18 -0.00    +0.045 A 
DOCKED: ATOM     21  C   UNL d   1      11.619  13.979   8.346 -0.23 +0.02    +0.057 C 
DOCKED: ATOM     22  C   UNL d   1      10.010  11.681  10.554 -0.10 +0.01    -0.019 A 
DOCKED: ATOM     23  C   UNL d   1       8.910  12.017   9.628 -0.11 -0.02    +0.045 A 
DOCKED: ATOM     24  C   UNL d   1      11.115  12.367  10.179 -0.13 +0.01    -0.022 A 
DOCKED: ATOM     25  C   UNL d   1       6.559  11.846   8.883 -0.13 -0.01    +0.049 A 
DOCKED: ATOM     26  C   UNL d   1       4.531  12.077   7.861 -0.10 +0.00    -0.018 A 
DOCKED: ATOM     27  C   UNL d   1       5.190  11.860   9.111 -0.12 -0.00    +0.003 A 
DOCKED: ATOM     28  C   UNL d   1       7.663  11.529   9.720 -0.13 -0.01    +0.052 C 
DOCKED: ATOM     29  C   UNL d   1      12.468  12.371  10.805 -0.15 -0.00    +0.046 C 
DOCKED: ATOM     30  C   UNL d   1       3.059  12.139   7.630 -0.05 +0.00    +0.046 C 
DOCKED: ATOM     31  H   UNL d   1       8.960  13.398   8.014 -0.38 -0.07    +0.166 HD
DOCKED: ATOM     32  H   UNL d   1       7.631  12.155   7.065 -0.07 -0.02    +0.166 HD
DOCKED: ENDROOT
DOCKED: BRANCH   7  33
DOCKED: ATOM     33  C   UNL d   1       4.874  14.012   2.863 -0.06 +0.02    +0.141 C 
DOCKED: BRANCH  33  34
DOCKED: ATOM     34  C   UNL d   1       4.863  14.432   1.418 -0.13 +0.08    +0.306 C 
DOCKED: ATOM     35  O   UNL d   1       4.321  13.840   0.500 -0.05 -0.08    -0.251 OA
DOCKED: BRANCH  34  36
DOCKED: ATOM     36  O   UNL d   1       5.535  15.577   1.205 -0.18 -0.16    -0.481 OA
DOCKED: ATOM     37  H   UNL d   1       5.892  15.821   2.086 -0.41 -0.00    +0.295 HD
DOCKED: ENDBRANCH  34  36
DOCKED: ENDBRANCH  33  34
DOCKED: ENDBRANCH   7  33
DOCKED: BRANCH  27  38
DOCKED: ATOM     38  C   UNL d   1       4.531  11.647  10.364 -0.08 -0.00    +0.017 C 
DOCKED: ATOM     39  C   UNL d   1       5.109  11.144  11.466 -0.06 -0.01    +0.092 C 
DOCKED: BRANCH  39  40
DOCKED: ATOM     40  C   UNL d   1       4.326  10.991  12.695 -0.01 -0.03    +0.330 C 
DOCKED: ATOM     41  O   UNL d   1       3.117  10.913  12.802 -0.00 +0.01    -0.246 OA
DOCKED: BRANCH  40  42
DOCKED: ATOM     42  O   UNL d   1       5.143  10.935  13.759 +0.00 +0.05    -0.477 OA
DOCKED: ATOM     43  H   UNL d   1       5.983  10.593  13.391 +0.03 -0.04    +0.295 HD
DOCKED: ENDBRANCH  40  42
DOCKED: ENDBRANCH  39  40
DOCKED: ENDBRANCH  27  38
DOCKED: BRANCH   8  44
DOCKED: ATOM     44  C   UNL d   1      12.246  16.170   4.110 -0.15 +0.05    +0.141 C 
DOCKED: BRANCH  44  45
DOCKED: ATOM     45  C   UNL d   1      12.991  17.439   3.796 -0.15 +0.09    +0.306 C 
DOCKED: ATOM     46  O   UNL d   1      12.779  18.194   2.862 -0.29 -0.04    -0.251 OA
DOCKED: BRANCH  45  47
DOCKED: ATOM     47  O   UNL d   1      13.990  17.679   4.664 -0.04 -0.20    -0.481 OA
DOCKED: ATOM     48  H   UNL d   1      14.535  18.370   4.231 -0.37 +0.01    +0.295 HD
DOCKED: ENDBRANCH  45  47
DOCKED: ENDBRANCH  44  45
DOCKED: ENDBRANCH   8  44
DOCKED: BRANCH  22  49
DOCKED: ATOM     49  C   UNL d   1       9.884  10.719  11.699 -0.07 -0.02    +0.048 C 
DOCKED: BRANCH  49  50
DOCKED: ATOM     50  C   UNL d   1       8.558  10.889  12.441 -0.06 -0.06    +0.125 C 
DOCKED: BRANCH  50  51
DOCKED: ATOM     51  C   UNL d   1       8.790  11.157  13.900 -0.04 -0.12    +0.305 C 
DOCKED: ATOM     52  O   UNL d   1       9.856  11.185  14.490 -0.05 +0.05    -0.251 OA
DOCKED: BRANCH  51  53
DOCKED: ATOM     53  O   UNL d   1       7.636  11.370  14.564 -0.04 +0.12    -0.481 OA
DOCKED: ATOM     54  H   UNL d   1       7.093  11.890  13.936 +0.04 -0.14    +0.295 HD
DOCKED: ENDBRANCH  51  53
DOCKED: ENDBRANCH  50  51
DOCKED: ENDBRANCH  49  50
DOCKED: ENDBRANCH  22  49
DOCKED: TORSDOF 13
DOCKED: TER
DOCKED: ENDMDL
________________________________________________________________________________


	BEGINNING GENETIC ALGORITHM DOCKING 94 of 100
Run: 94 Seed: 1332219241 2108990514 [ Run 94 of 100 GA/GALS ]
Beginning LAMARCKIAN GENETIC ALGORITHM (LGA), with a maximum of 25000000 energy evaluations.

Final-Value: -12.171


	FINAL GENETIC ALGORITHM DOCKED STATE
	_______________________________________________


Detailed state:  trans 24.458 37.542 -4.903 quatxyzw -0.863118 0.161059 -0.440857 0.186367 center 0.153 0.018 -0.028 ntor 13 162.1539 -153.8340 130.0094 8.5102 -143.1828 61.8090 -48.3431 -9.3301 28.8579 -143.5877 -59.2127 -95.3403 9.4029
State:	 24.458  37.542  -4.903  -0.879  0.164 -0.449 158.518    162.15 -153.83  130.01    8.51 -143.18   61.81  -48.34   -9.33   28.86 -143.59  -59.21  -95.34    9.40

DOCKED: MODEL       94
DOCKED: USER    Run = 94
DOCKED: USER    DPF = D:/Protein_go_brrr/autodock/final/2DN3/heme/dock.dpf
DOCKED: USER  
DOCKED: USER    Estimated Free Energy of Binding    =   -3.72 kcal/mol  [=(1)+(2)+(3)-(4)]
DOCKED: USER    Estimated Inhibition Constant, Ki   =    1.87 mM (millimolar)  [Temperature = 298.15 K]
DOCKED: USER    
DOCKED: USER    (1) Final Intermolecular Energy     =   -7.60 kcal/mol
DOCKED: USER        vdW + Hbond + desolv Energy     =   -7.44 kcal/mol
DOCKED: USER        Electrostatic Energy            =   -0.16 kcal/mol
DOCKED: USER    (2) Final Total Internal Energy     =   -4.57 kcal/mol
DOCKED: USER    (3) Torsional Free Energy           =   +3.88 kcal/mol
DOCKED: USER    (4) Unbound System's Energy  [=(2)] =   -4.57 kcal/mol
DOCKED: USER    
DOCKED: USER    
DOCKED: USER    NEWDPF move heme_opt.pdbqt
DOCKED: USER    NEWDPF about 0.153000 0.018000 -0.028000
DOCKED: USER    NEWDPF tran0 24.458457 37.542242 -4.903057
DOCKED: USER    NEWDPF quaternion0 -0.863118 0.161059 -0.440857 0.186367
DOCKED: USER    NEWDPF axisangle0 -0.878509 0.163931 -0.448718 158.518358
DOCKED: USER    NEWDPF quat0 -0.878509 0.163931 -0.448718 158.518358
DOCKED: USER    NEWDPF dihe0 162.15 -153.83 130.01 8.51 -143.18 61.81 -48.34 -9.33 28.86 -143.59 -59.21 -95.34 9.40 
DOCKED: USER  keepresnum = 1 
DOCKED: USER  
DOCKED: REMARK  13 active torsions:
DOCKED: REMARK  status: ('A' for Active; 'I' for Inactive)
DOCKED: REMARK    1  A    between atoms: O_3  and  C_38 
DOCKED: REMARK    2  A    between atoms: O_4  and  C_40 
DOCKED: REMARK    3  A    between atoms: O_7  and  C_46 
DOCKED: REMARK    4  A    between atoms: O_9  and  C_48 
DOCKED: REMARK    5  A    between atoms: C_15  and  C_20 
DOCKED: REMARK    6  A    between atoms: C_16  and  C_23 
DOCKED: REMARK    7  A    between atoms: C_20  and  C_38 
DOCKED: REMARK    8  A    between atoms: C_23  and  C_40 
DOCKED: REMARK    9  A    between atoms: C_32  and  C_41 
DOCKED: REMARK   10  A    between atoms: C_37  and  C_45 
DOCKED: REMARK   11  A    between atoms: C_41  and  C_44 
DOCKED: REMARK   12  A    between atoms: C_44  and  C_46 
DOCKED: REMARK   13  A    between atoms: C_47  and  C_48 
DOCKED: USER                              x       y       z     vdW  Elec       q    Type
DOCKED: USER                           _______ _______ _______ _____ _____    ______ ____
DOCKED: ROOT
DOCKED: ATOM      1  O   UNL d   1      21.027  36.396  -9.558 -0.09 -0.15    -0.289 OA
DOCKED: ATOM      2  O   UNL d   1      24.009  42.835  -7.100 -0.07 -0.05    -0.289 OA
DOCKED: ATOM      3  N   UNL d   1      22.889  36.607  -6.662 -0.07 -0.02    -0.247 NA
DOCKED: ATOM      4  N   UNL d   1      23.869  39.412  -6.684 -0.10 -0.05    -0.247 NA
DOCKED: ATOM      5  N   UNL d   1      25.719  38.683  -4.607 -0.14 -0.04    -0.354 N 
DOCKED: ATOM      6  N   UNL d   1      24.710  35.771  -4.605 -0.09 +0.02    -0.354 N 
DOCKED: ATOM      7  C   UNL d   1      21.897  34.773  -7.950 -0.10 +0.00    +0.084 A 
DOCKED: ATOM      8  C   UNL d   1      22.528  41.055  -7.897 -0.17 +0.02    +0.084 A 
DOCKED: ATOM      9  C   UNL d   1      22.780  39.595  -7.505 -0.18 +0.01    +0.058 A 
DOCKED: ATOM     10  C   UNL d   1      22.717  35.235  -6.742 -0.13 +0.00    +0.058 A 
DOCKED: ATOM     11  C   UNL d   1      21.620  36.128  -8.529 -0.07 +0.05    +0.193 A 
DOCKED: ATOM     12  C   UNL d   1      22.252  37.157  -7.644 -0.11 +0.02    +0.109 A 
DOCKED: ATOM     13  C   UNL d   1      23.699  41.662  -7.176 -0.09 +0.04    +0.193 A 
DOCKED: ATOM     14  C   UNL d   1      22.741  33.972  -8.946 -0.07 -0.00    +0.026 C 
DOCKED: ATOM     15  C   UNL d   1      22.032  38.581  -7.967 -0.22 +0.02    +0.055 C 
DOCKED: ATOM     16  C   UNL d   1      21.236  41.595  -7.277 -0.23 +0.01    +0.026 C 
DOCKED: ATOM     17  C   UNL d   1      24.435  40.559  -6.487 -0.08 +0.02    +0.109 A 
DOCKED: ATOM     18  C   UNL d   1      23.143  34.365  -5.807 -0.21 -0.01    +0.050 C 
DOCKED: ATOM     19  C   UNL d   1      23.833  34.710  -4.617 -0.24 -0.01    +0.045 A 
DOCKED: ATOM     20  C   UNL d   1      26.191  39.933  -4.914 -0.19 +0.01    +0.045 A 
DOCKED: ATOM     21  C   UNL d   1      25.662  40.851  -5.730 -0.17 +0.01    +0.057 C 
DOCKED: ATOM     22  C   UNL d   1      27.630  38.942  -3.443 -0.17 -0.00    -0.019 A 
DOCKED: ATOM     23  C   UNL d   1      26.522  38.009  -3.726 -0.22 +0.00    +0.045 A 
DOCKED: ATOM     24  C   UNL d   1      27.428  40.080  -4.149 -0.16 -0.00    -0.022 A 
DOCKED: ATOM     25  C   UNL d   1      25.332  35.869  -3.382 -0.23 -0.00    +0.049 A 
DOCKED: ATOM     26  C   UNL d   1      23.858  34.127  -3.360 -0.36 +0.00    -0.018 A 
DOCKED: ATOM     27  C   UNL d   1      24.792  34.875  -2.578 -0.30 -0.00    +0.003 A 
DOCKED: ATOM     28  C   UNL d   1      26.394  36.791  -3.177 -0.24 +0.00    +0.052 C 
DOCKED: ATOM     29  C   UNL d   1      28.262  41.315  -4.187 -0.09 +0.01    +0.046 C 
DOCKED: ATOM     30  C   UNL d   1      23.064  32.948  -2.908 -0.33 -0.02    +0.046 C 
DOCKED: ATOM     31  H   UNL d   1      24.822  38.360  -4.953 +0.03 +0.02    +0.166 HD
DOCKED: ATOM     32  H   UNL d   1      24.888  36.360  -5.410 +0.04 +0.00    +0.166 HD
DOCKED: ENDROOT
DOCKED: BRANCH   7  33
DOCKED: ATOM     33  C   UNL d   1      20.586  34.052  -7.618 -0.20 +0.01    +0.141 C 
DOCKED: BRANCH  33  34
DOCKED: ATOM     34  C   UNL d   1      19.499  34.998  -7.185 -0.23 +0.09    +0.306 C 
DOCKED: ATOM     35  O   UNL d   1      19.278  35.369  -6.045 -0.68 -0.08    -0.251 OA
DOCKED: BRANCH  34  36
DOCKED: ATOM     36  O   UNL d   1      18.747  35.428  -8.214 -0.14 -0.23    -0.481 OA
DOCKED: ATOM     37  H   UNL d   1      19.303  35.275  -9.007 +0.12 +0.15    +0.295 HD
DOCKED: ENDBRANCH  34  36
DOCKED: ENDBRANCH  33  34
DOCKED: ENDBRANCH   7  33
DOCKED: BRANCH  27  38
DOCKED: ATOM     38  C   UNL d   1      25.135  34.599  -1.215 -0.36 -0.00    +0.017 C 
DOCKED: ATOM     39  C   UNL d   1      26.371  34.331  -0.767 -0.23 +0.01    +0.092 C 
DOCKED: BRANCH  39  40
DOCKED: ATOM     40  C   UNL d   1      26.592  34.083   0.660 -0.18 +0.09    +0.330 C 
DOCKED: ATOM     41  O   UNL d   1      26.099  33.209   1.348 -0.30 -0.03    -0.246 OA
DOCKED: BRANCH  40  42
DOCKED: ATOM     42  O   UNL d   1      27.462  34.977   1.155 -0.05 -0.17    -0.477 OA
DOCKED: ATOM     43  H   UNL d   1      27.363  35.752   0.565 +0.11 +0.06    +0.295 HD
DOCKED: ENDBRANCH  40  42
DOCKED: ENDBRANCH  39  40
DOCKED: ENDBRANCH  27  38
DOCKED: BRANCH   8  44
DOCKED: ATOM     44  C   UNL d   1      22.592  41.357  -9.398 -0.10 +0.04    +0.141 C 
DOCKED: BRANCH  44  45
DOCKED: ATOM     45  C   UNL d   1      22.036  42.709  -9.756 -0.06 +0.08    +0.306 C 
DOCKED: ATOM     46  O   UNL d   1      20.889  42.959 -10.087 -0.11 -0.09    -0.251 OA
DOCKED: BRANCH  45  47
DOCKED: ATOM     47  O   UNL d   1      22.966  43.679  -9.705 +0.01 -0.07    -0.481 OA
DOCKED: ATOM     48  H   UNL d   1      23.385  43.574  -8.824 +0.04 +0.04    +0.295 HD
DOCKED: ENDBRANCH  45  47
DOCKED: ENDBRANCH  44  45
DOCKED: ENDBRANCH   8  44
DOCKED: BRANCH  22  49
DOCKED: ATOM     49  C   UNL d   1      28.780  38.633  -2.530 -0.12 +0.01    +0.048 C 
DOCKED: BRANCH  49  50
DOCKED: ATOM     50  C   UNL d   1      28.367  38.676  -1.059 -0.05 +0.02    +0.125 C 
DOCKED: BRANCH  50  51
DOCKED: ATOM     51  C   UNL d   1      28.632  37.358  -0.389 -0.08 +0.05    +0.305 C 
DOCKED: ATOM     52  O   UNL d   1      28.858  36.285  -0.922 -0.05 -0.05    -0.251 OA
DOCKED: BRANCH  51  53
DOCKED: ATOM     53  O   UNL d   1      28.586  37.457   0.954 -0.03 -0.06    -0.481 OA
DOCKED: ATOM     54  H   UNL d   1      28.900  36.583   1.268 +0.09 +0.06    +0.295 HD
DOCKED: ENDBRANCH  51  53
DOCKED: ENDBRANCH  50  51
DOCKED: ENDBRANCH  49  50
DOCKED: ENDBRANCH  22  49
DOCKED: TORSDOF 13
DOCKED: TER
DOCKED: ENDMDL
________________________________________________________________________________


	BEGINNING GENETIC ALGORITHM DOCKING 95 of 100
Run: 95 Seed: 1187297245 628228788 [ Run 95 of 100 GA/GALS ]
Beginning LAMARCKIAN GENETIC ALGORITHM (LGA), with a maximum of 25000000 energy evaluations.

Final-Value: -10.261


	FINAL GENETIC ALGORITHM DOCKED STATE
	_______________________________________________


Detailed state:  trans 2.134 30.719 21.492 quatxyzw 0.496223 0.665079 -0.445787 0.335717 center 0.153 0.018 -0.028 ntor 13 -18.8393 -56.6077 -113.0617 49.7502 -126.2813 -118.0501 120.5411 -91.4140 179.6342 -28.7320 -157.6596 -63.5135 -15.9055
State:	  2.134  30.719  21.492   0.527  0.706 -0.473 140.768    -18.84  -56.61 -113.06   49.75 -126.28 -118.05  120.54  -91.41  179.63  -28.73 -157.66  -63.51  -15.91

DOCKED: MODEL       95
DOCKED: USER    Run = 95
DOCKED: USER    DPF = D:/Protein_go_brrr/autodock/final/2DN3/heme/dock.dpf
DOCKED: USER  
DOCKED: USER    Estimated Free Energy of Binding    =   -4.27 kcal/mol  [=(1)+(2)+(3)-(4)]
DOCKED: USER    Estimated Inhibition Constant, Ki   =  735.69 uM (micromolar)  [Temperature = 298.15 K]
DOCKED: USER    
DOCKED: USER    (1) Final Intermolecular Energy     =   -8.15 kcal/mol
DOCKED: USER        vdW + Hbond + desolv Energy     =   -7.96 kcal/mol
DOCKED: USER        Electrostatic Energy            =   -0.20 kcal/mol
DOCKED: USER    (2) Final Total Internal Energy     =   -2.11 kcal/mol
DOCKED: USER    (3) Torsional Free Energy           =   +3.88 kcal/mol
DOCKED: USER    (4) Unbound System's Energy  [=(2)] =   -2.11 kcal/mol
DOCKED: USER    
DOCKED: USER    
DOCKED: USER    NEWDPF move heme_opt.pdbqt
DOCKED: USER    NEWDPF about 0.153000 0.018000 -0.028000
DOCKED: USER    NEWDPF tran0 2.133860 30.719166 21.492189
DOCKED: USER    NEWDPF quaternion0 0.496223 0.665079 -0.445787 0.335717
DOCKED: USER    NEWDPF axisangle0 0.526797 0.706057 -0.473253 140.767701
DOCKED: USER    NEWDPF quat0 0.526797 0.706057 -0.473253 140.767701
DOCKED: USER    NEWDPF dihe0 -18.84 -56.61 -113.06 49.75 -126.28 -118.05 120.54 -91.41 179.63 -28.73 -157.66 -63.51 -15.91 
DOCKED: USER  keepresnum = 1 
DOCKED: USER  
DOCKED: REMARK  13 active torsions:
DOCKED: REMARK  status: ('A' for Active; 'I' for Inactive)
DOCKED: REMARK    1  A    between atoms: O_3  and  C_38 
DOCKED: REMARK    2  A    between atoms: O_4  and  C_40 
DOCKED: REMARK    3  A    between atoms: O_7  and  C_46 
DOCKED: REMARK    4  A    between atoms: O_9  and  C_48 
DOCKED: REMARK    5  A    between atoms: C_15  and  C_20 
DOCKED: REMARK    6  A    between atoms: C_16  and  C_23 
DOCKED: REMARK    7  A    between atoms: C_20  and  C_38 
DOCKED: REMARK    8  A    between atoms: C_23  and  C_40 
DOCKED: REMARK    9  A    between atoms: C_32  and  C_41 
DOCKED: REMARK   10  A    between atoms: C_37  and  C_45 
DOCKED: REMARK   11  A    between atoms: C_41  and  C_44 
DOCKED: REMARK   12  A    between atoms: C_44  and  C_46 
DOCKED: REMARK   13  A    between atoms: C_47  and  C_48 
DOCKED: USER                              x       y       z     vdW  Elec       q    Type
DOCKED: USER                           _______ _______ _______ _____ _____    ______ ____
DOCKED: ROOT
DOCKED: ATOM      1  O   UNL d   1       3.750  25.354  19.660 -0.13 -0.01    -0.289 OA
DOCKED: ATOM      2  O   UNL d   1       2.539  28.047  26.565 -0.01 -0.01    -0.289 OA
DOCKED: ATOM      3  N   UNL d   1       2.937  28.651  20.263 -0.14 +0.00    -0.247 NA
DOCKED: ATOM      4  N   UNL d   1       2.365  28.691  23.179 -0.07 -0.00    -0.247 NA
DOCKED: ATOM      5  N   UNL d   1       1.187  31.289  22.818 -0.05 +0.03    -0.354 N 
DOCKED: ATOM      6  N   UNL d   1       1.766  31.230  19.791 -0.06 +0.03    -0.354 N 
DOCKED: ATOM      7  C   UNL d   1       3.231  27.282  18.251 -0.20 -0.00    +0.084 A 
DOCKED: ATOM      8  C   UNL d   1       3.454  26.990  24.555 -0.13 +0.00    +0.084 A 
DOCKED: ATOM      9  C   UNL d   1       3.155  27.563  23.166 -0.18 -0.00    +0.058 A 
DOCKED: ATOM     10  C   UNL d   1       2.899  28.639  18.879 -0.23 -0.00    +0.058 A 
DOCKED: ATOM     11  C   UNL d   1       3.482  26.533  19.525 -0.15 +0.00    +0.193 A 
DOCKED: ATOM     12  C   UNL d   1       3.297  27.478  20.673 -0.21 -0.00    +0.109 A 
DOCKED: ATOM     13  C   UNL d   1       2.657  27.980  25.357 -0.03 +0.00    +0.193 A 
DOCKED: ATOM     14  C   UNL d   1       2.022  26.665  17.544 -0.13 -0.00    +0.026 C 
DOCKED: ATOM     15  C   UNL d   1       3.584  26.983  22.034 -0.26 -0.00    +0.055 C 
DOCKED: ATOM     16  C   UNL d   1       4.934  27.136  24.923 -0.05 +0.00    +0.026 C 
DOCKED: ATOM     17  C   UNL d   1       2.041  28.953  24.404 -0.07 +0.00    +0.109 A 
DOCKED: ATOM     18  C   UNL d   1       2.682  29.731  18.121 -0.26 -0.00    +0.050 C 
DOCKED: ATOM     19  C   UNL d   1       2.452  31.041  18.613 -0.25 -0.00    +0.045 A 
DOCKED: ATOM     20  C   UNL d   1       0.805  31.034  24.110 -0.08 -0.00    +0.045 A 
DOCKED: ATOM     21  C   UNL d   1       1.162  30.021  24.905 -0.06 -0.00    +0.057 C 
DOCKED: ATOM     22  C   UNL d   1      -0.211  32.954  23.404 -0.06 +0.00    -0.019 A 
DOCKED: ATOM     23  C   UNL d   1       0.623  32.427  22.306 -0.08 -0.01    +0.045 A 
DOCKED: ATOM     24  C   UNL d   1      -0.098  32.126  24.470 -0.04 +0.00    -0.022 A 
DOCKED: ATOM     25  C   UNL d   1       1.578  32.572  20.031 -0.18 -0.01    +0.049 A 
DOCKED: ATOM     26  C   UNL d   1       2.749  32.291  18.092 -0.36 +0.00    -0.018 A 
DOCKED: ATOM     27  C   UNL d   1       2.212  33.254  19.002 -0.34 -0.00    +0.003 A 
DOCKED: ATOM     28  C   UNL d   1       0.761  33.013  21.107 -0.12 -0.01    +0.052 C 
DOCKED: ATOM     29  C   UNL d   1      -0.738  32.240  25.812 -0.01 -0.00    +0.046 C 
DOCKED: ATOM     30  C   UNL d   1       3.489  32.576  16.829 -0.23 -0.01    +0.046 C 
DOCKED: ATOM     31  H   UNL d   1       1.880  30.714  22.351 +0.01 +0.00    +0.166 HD
DOCKED: ATOM     32  H   UNL d   1       1.420  30.471  20.366 +0.04 -0.01    +0.166 HD
DOCKED: ENDROOT
DOCKED: BRANCH   7  33
DOCKED: ATOM     33  C   UNL d   1       4.477  27.259  17.359 -0.29 -0.00    +0.141 C 
DOCKED: BRANCH  33  34
DOCKED: ATOM     34  C   UNL d   1       4.235  26.567  16.045 -0.27 -0.02    +0.306 C 
DOCKED: ATOM     35  O   UNL d   1       4.090  25.368  15.878 -0.32 +0.02    -0.251 OA
DOCKED: BRANCH  34  36
DOCKED: ATOM     36  O   UNL d   1       4.186  27.424  15.010 -0.25 +0.06    -0.481 OA
DOCKED: ATOM     37  H   UNL d   1       4.378  26.871  14.222 -0.35 -0.09    +0.295 HD
DOCKED: ENDBRANCH  34  36
DOCKED: ENDBRANCH  33  34
DOCKED: ENDBRANCH   7  33
DOCKED: BRANCH  27  38
DOCKED: ATOM     38  C   UNL d   1       2.284  34.674  18.836 -0.37 -0.01    +0.017 C 
DOCKED: ATOM     39  C   UNL d   1       1.409  35.557  19.342 -0.26 -0.02    +0.092 C 
DOCKED: BRANCH  39  40
DOCKED: ATOM     40  C   UNL d   1       1.606  36.991  19.114 -0.21 -0.07    +0.330 C 
DOCKED: ATOM     41  O   UNL d   1       1.758  37.863  19.949 -0.20 +0.05    -0.246 OA
DOCKED: BRANCH  40  42
DOCKED: ATOM     42  O   UNL d   1       1.608  37.254  17.798 -0.72 +0.04    -0.477 OA
DOCKED: ATOM     43  H   UNL d   1       0.896  37.917  17.690 +0.12 -0.07    +0.295 HD
DOCKED: ENDBRANCH  40  42
DOCKED: ENDBRANCH  39  40
DOCKED: ENDBRANCH  27  38
DOCKED: BRANCH   8  44
DOCKED: ATOM     44  C   UNL d   1       2.960  25.561  24.801 -0.06 +0.00    +0.141 C 
DOCKED: BRANCH  44  45
DOCKED: ATOM     45  C   UNL d   1       1.485  25.484  25.092 +0.00 +0.00    +0.306 C 
DOCKED: ATOM     46  O   UNL d   1       0.579  25.577  24.282 -0.00 -0.00    -0.251 OA
DOCKED: BRANCH  45  47
DOCKED: ATOM     47  O   UNL d   1       1.226  25.320  26.402 +0.00 -0.00    -0.481 OA
DOCKED: ATOM     48  H   UNL d   1       1.531  26.152  26.821 +0.01 +0.00    +0.295 HD
DOCKED: ENDBRANCH  45  47
DOCKED: ENDBRANCH  44  45
DOCKED: ENDBRANCH   8  44
DOCKED: BRANCH  22  49
DOCKED: ATOM     49  C   UNL d   1      -1.045  34.198  23.306 -0.03 -0.00    +0.048 C 
DOCKED: BRANCH  49  50
DOCKED: ATOM     50  C   UNL d   1      -0.350  35.401  23.945 -0.03 -0.01    +0.125 C 
DOCKED: BRANCH  50  51
DOCKED: ATOM     51  C   UNL d   1       1.138  35.198  23.991 -0.06 -0.05    +0.305 C 
DOCKED: ATOM     52  O   UNL d   1       1.805  34.803  24.931 -0.09 +0.03    -0.251 OA
DOCKED: BRANCH  51  53
DOCKED: ATOM     53  O   UNL d   1       1.728  35.523  22.823 -0.05 +0.14    -0.481 OA
DOCKED: ATOM     54  H   UNL d   1       2.299  34.752  22.623 -0.44 -0.19    +0.295 HD
DOCKED: ENDBRANCH  51  53
DOCKED: ENDBRANCH  50  51
DOCKED: ENDBRANCH  49  50
DOCKED: ENDBRANCH  22  49
DOCKED: TORSDOF 13
DOCKED: TER
DOCKED: ENDMDL
________________________________________________________________________________


	BEGINNING GENETIC ALGORITHM DOCKING 96 of 100
Run: 96 Seed: 1802705357 229596699 [ Run 96 of 100 GA/GALS ]
Beginning LAMARCKIAN GENETIC ALGORITHM (LGA), with a maximum of 25000000 energy evaluations.

Final-Value: -10.418


	FINAL GENETIC ALGORITHM DOCKED STATE
	_______________________________________________


Detailed state:  trans 10.993 11.377 5.591 quatxyzw -0.153190 -0.021161 0.908703 0.387743 center 0.153 0.018 -0.028 ntor 13 122.8825 -149.0446 -8.4768 -75.2830 -131.3176 -39.5743 136.1775 -111.5533 33.8488 2.7772 -106.3287 4.0715 -9.6242
State:	 10.993  11.377   5.591  -0.166 -0.023  0.986 134.372    122.88 -149.04   -8.48  -75.28 -131.32  -39.57  136.18 -111.55   33.85    2.78 -106.33    4.07   -9.62

DOCKED: MODEL       96
DOCKED: USER    Run = 96
DOCKED: USER    DPF = D:/Protein_go_brrr/autodock/final/2DN3/heme/dock.dpf
DOCKED: USER  
DOCKED: USER    Estimated Free Energy of Binding    =   -2.24 kcal/mol  [=(1)+(2)+(3)-(4)]
DOCKED: USER    Estimated Inhibition Constant, Ki   =   22.85 mM (millimolar)  [Temperature = 298.15 K]
DOCKED: USER    
DOCKED: USER    (1) Final Intermolecular Energy     =   -6.12 kcal/mol
DOCKED: USER        vdW + Hbond + desolv Energy     =   -5.68 kcal/mol
DOCKED: USER        Electrostatic Energy            =   -0.44 kcal/mol
DOCKED: USER    (2) Final Total Internal Energy     =   -4.30 kcal/mol
DOCKED: USER    (3) Torsional Free Energy           =   +3.88 kcal/mol
DOCKED: USER    (4) Unbound System's Energy  [=(2)] =   -4.30 kcal/mol
DOCKED: USER    
DOCKED: USER    
DOCKED: USER    NEWDPF move heme_opt.pdbqt
DOCKED: USER    NEWDPF about 0.153000 0.018000 -0.028000
DOCKED: USER    NEWDPF tran0 10.993147 11.376713 5.591455
DOCKED: USER    NEWDPF quaternion0 -0.153190 -0.021161 0.908703 0.387743
DOCKED: USER    NEWDPF axisangle0 -0.166191 -0.022957 0.985826 134.371715
DOCKED: USER    NEWDPF quat0 -0.166191 -0.022957 0.985826 134.371715
DOCKED: USER    NEWDPF dihe0 122.88 -149.04 -8.48 -75.28 -131.32 -39.57 136.18 -111.55 33.85 2.78 -106.33 4.07 -9.62 
DOCKED: USER  keepresnum = 1 
DOCKED: USER  
DOCKED: REMARK  13 active torsions:
DOCKED: REMARK  status: ('A' for Active; 'I' for Inactive)
DOCKED: REMARK    1  A    between atoms: O_3  and  C_38 
DOCKED: REMARK    2  A    between atoms: O_4  and  C_40 
DOCKED: REMARK    3  A    between atoms: O_7  and  C_46 
DOCKED: REMARK    4  A    between atoms: O_9  and  C_48 
DOCKED: REMARK    5  A    between atoms: C_15  and  C_20 
DOCKED: REMARK    6  A    between atoms: C_16  and  C_23 
DOCKED: REMARK    7  A    between atoms: C_20  and  C_38 
DOCKED: REMARK    8  A    between atoms: C_23  and  C_40 
DOCKED: REMARK    9  A    between atoms: C_32  and  C_41 
DOCKED: REMARK   10  A    between atoms: C_37  and  C_45 
DOCKED: REMARK   11  A    between atoms: C_41  and  C_44 
DOCKED: REMARK   12  A    between atoms: C_44  and  C_46 
DOCKED: REMARK   13  A    between atoms: C_47  and  C_48 
DOCKED: USER                              x       y       z     vdW  Elec       q    Type
DOCKED: USER                           _______ _______ _______ _____ _____    ______ ____
DOCKED: ROOT
DOCKED: ATOM      1  O   UNL d   1      15.685  14.013   7.998 -0.53 -0.49    -0.289 OA
DOCKED: ATOM      2  O   UNL d   1       9.694  16.865   4.482 -0.64 -0.19    -0.289 OA
DOCKED: ATOM      3  N   UNL d   1      13.217  12.041   6.614 +0.00 -0.07    -0.247 NA
DOCKED: ATOM      4  N   UNL d   1      11.173  14.014   5.746 -0.03 -0.07    -0.247 NA
DOCKED: ATOM      5  N   UNL d   1       9.336  11.827   5.414 -0.00 -0.03    -0.354 N 
DOCKED: ATOM      6  N   UNL d   1      11.457   9.788   6.335 +0.00 -0.03    -0.354 N 
DOCKED: ATOM      7  C   UNL d   1      15.203  11.616   7.987 -0.03 +0.03    +0.084 A 
DOCKED: ATOM      8  C   UNL d   1      11.947  16.275   5.235 -0.19 +0.04    +0.084 A 
DOCKED: ATOM      9  C   UNL d   1      12.253  14.868   5.760 -0.10 +0.03    +0.058 A 
DOCKED: ATOM     10  C   UNL d   1      13.976  11.072   7.250 +0.00 +0.01    +0.058 A 
DOCKED: ATOM     11  C   UNL d   1      15.014  13.062   7.639 -0.07 +0.16    +0.193 A 
DOCKED: ATOM     12  C   UNL d   1      13.792  13.187   6.783 -0.05 +0.07    +0.109 A 
DOCKED: ATOM     13  C   UNL d   1      10.485  16.072   4.955 -0.25 +0.08    +0.193 A 
DOCKED: ATOM     14  C   UNL d   1      15.083  11.452   9.504 -0.09 +0.01    +0.026 C 
DOCKED: ATOM     15  C   UNL d   1      13.456  14.518   6.239 -0.11 +0.05    +0.055 C 
DOCKED: ATOM     16  C   UNL d   1      12.667  16.556   3.912 -0.22 +0.01    +0.026 C 
DOCKED: ATOM     17  C   UNL d   1      10.139  14.663   5.314 -0.18 +0.03    +0.109 A 
DOCKED: ATOM     18  C   UNL d   1      13.733   9.750   7.170 +0.00 +0.01    +0.050 C 
DOCKED: ATOM     19  C   UNL d   1      12.673   9.152   6.442 +0.00 +0.00    +0.045 A 
DOCKED: ATOM     20  C   UNL d   1       8.475  12.882   5.265 -0.12 +0.00    +0.045 A 
DOCKED: ATOM     21  C   UNL d   1       8.754  14.187   5.185 -0.25 +0.01    +0.057 C 
DOCKED: ATOM     22  C   UNL d   1       7.266  10.945   5.317 -0.03 -0.00    -0.019 A 
DOCKED: ATOM     23  C   UNL d   1       8.699  10.616   5.456 -0.02 +0.00    +0.045 A 
DOCKED: ATOM     24  C   UNL d   1       7.140  12.288   5.203 -0.12 -0.00    -0.022 A 
DOCKED: ATOM     25  C   UNL d   1      10.553   8.994   5.669 -0.00 +0.00    +0.049 A 
DOCKED: ATOM     26  C   UNL d   1      12.567   7.928   5.798 +0.00 -0.00    -0.018 A 
DOCKED: ATOM     27  C   UNL d   1      11.232   7.843   5.295 -0.00 +0.00    +0.003 A 
DOCKED: ATOM     28  C   UNL d   1       9.185   9.370   5.571 -0.01 +0.00    +0.052 C 
DOCKED: ATOM     29  C   UNL d   1       5.900  13.097   5.030 -0.19 +0.00    +0.046 C 
DOCKED: ATOM     30  C   UNL d   1      13.638   6.901   5.656 +0.00 +0.00    +0.046 C 
DOCKED: ATOM     31  H   UNL d   1      10.341  11.963   5.407 +0.02 +0.02    +0.166 HD
DOCKED: ATOM     32  H   UNL d   1      11.264  10.699   6.735 +0.01 +0.02    +0.166 HD
DOCKED: ENDROOT
DOCKED: BRANCH   7  33
DOCKED: ATOM     33  C   UNL d   1      16.555  11.112   7.472 -0.01 +0.04    +0.141 C 
DOCKED: BRANCH  33  34
DOCKED: ATOM     34  C   UNL d   1      17.030  11.863   6.257 +0.01 +0.09    +0.306 C 
DOCKED: ATOM     35  O   UNL d   1      16.626  11.716   5.116 +0.00 -0.06    -0.251 OA
DOCKED: BRANCH  34  36
DOCKED: ATOM     36  O   UNL d   1      17.988  12.762   6.545 +0.00 -0.16    -0.481 OA
DOCKED: ATOM     37  H   UNL d   1      17.568  13.371   7.189 +0.05 +0.16    +0.295 HD
DOCKED: ENDBRANCH  34  36
DOCKED: ENDBRANCH  33  34
DOCKED: ENDBRANCH   7  33
DOCKED: BRANCH  27  38
DOCKED: ATOM     38  C   UNL d   1      10.692   6.730   4.574 +0.00 +0.00    +0.017 C 
DOCKED: ATOM     39  C   UNL d   1       9.884   6.818   3.506 +0.00 +0.01    +0.092 C 
DOCKED: BRANCH  39  40
DOCKED: ATOM     40  C   UNL d   1       9.413   5.598   2.845 +0.00 +0.02    +0.330 C 
DOCKED: ATOM     41  O   UNL d   1      10.050   4.591   2.600 +0.00 -0.01    -0.246 OA
DOCKED: BRANCH  40  42
DOCKED: ATOM     42  O   UNL d   1       8.114   5.717   2.528 +0.00 -0.03    -0.477 OA
DOCKED: ATOM     43  H   UNL d   1       8.001   6.675   2.360 +0.00 +0.02    +0.295 HD
DOCKED: ENDBRANCH  40  42
DOCKED: ENDBRANCH  39  40
DOCKED: ENDBRANCH  27  38
DOCKED: BRANCH   8  44
DOCKED: ATOM     44  C   UNL d   1      12.162  17.414   6.236 -0.35 +0.10    +0.141 C 
DOCKED: BRANCH  44  45
DOCKED: ATOM     45  C   UNL d   1      11.561  17.138   7.588 -0.34 +0.21    +0.306 C 
DOCKED: ATOM     46  O   UNL d   1      12.121  16.625   8.541 -0.78 -0.32    -0.251 OA
DOCKED: BRANCH  45  47
DOCKED: ATOM     47  O   UNL d   1      10.268  17.502   7.661 -0.79 -0.18    -0.481 OA
DOCKED: ATOM     48  H   UNL d   1       9.955  17.138   8.517 -0.28 -0.02    +0.295 HD
DOCKED: ENDBRANCH  45  47
DOCKED: ENDBRANCH  44  45
DOCKED: ENDBRANCH   8  44
DOCKED: BRANCH  22  49
DOCKED: ATOM     49  C   UNL d   1       6.163   9.927   5.323 -0.02 +0.00    +0.048 C 
DOCKED: BRANCH  49  50
DOCKED: ATOM     50  C   UNL d   1       5.801   9.472   3.910 -0.00 +0.01    +0.125 C 
DOCKED: BRANCH  50  51
DOCKED: ATOM     51  C   UNL d   1       6.851   8.550   3.358 +0.00 +0.03    +0.305 C 
DOCKED: ATOM     52  O   UNL d   1       7.555   8.726   2.379 +0.00 -0.03    -0.251 OA
DOCKED: BRANCH  51  53
DOCKED: ATOM     53  O   UNL d   1       6.955   7.416   4.079 +0.00 -0.03    -0.481 OA
DOCKED: ATOM     54  H   UNL d   1       6.510   6.740   3.526 +0.00 +0.02    +0.295 HD
DOCKED: ENDBRANCH  51  53
DOCKED: ENDBRANCH  50  51
DOCKED: ENDBRANCH  49  50
DOCKED: ENDBRANCH  22  49
DOCKED: TORSDOF 13
DOCKED: TER
DOCKED: ENDMDL
________________________________________________________________________________


	BEGINNING GENETIC ALGORITHM DOCKING 97 of 100
Run: 97 Seed: 107821183 1826450068 [ Run 97 of 100 GA/GALS ]
Beginning LAMARCKIAN GENETIC ALGORITHM (LGA), with a maximum of 25000000 energy evaluations.

Final-Value: -10.197


	FINAL GENETIC ALGORITHM DOCKED STATE
	_______________________________________________


Detailed state:  trans 46.491 31.733 21.958 quatxyzw 0.528817 0.633553 0.520776 -0.218532 center 0.153 0.018 -0.028 ntor 13 175.8387 -92.5844 -160.9219 30.9367 -150.1218 -127.4051 -79.9041 -84.3111 16.8571 -154.2425 -57.5954 25.6925 -178.8110
State:	 46.491  31.733  21.958   0.542  0.649  0.534 -154.754    175.84  -92.58 -160.92   30.94 -150.12 -127.41  -79.90  -84.31   16.86 -154.24  -57.60   25.69 -178.81

DOCKED: MODEL       97
DOCKED: USER    Run = 97
DOCKED: USER    DPF = D:/Protein_go_brrr/autodock/final/2DN3/heme/dock.dpf
DOCKED: USER  
DOCKED: USER    Estimated Free Energy of Binding    =   -3.99 kcal/mol  [=(1)+(2)+(3)-(4)]
DOCKED: USER    Estimated Inhibition Constant, Ki   =    1.19 mM (millimolar)  [Temperature = 298.15 K]
DOCKED: USER    
DOCKED: USER    (1) Final Intermolecular Energy     =   -7.87 kcal/mol
DOCKED: USER        vdW + Hbond + desolv Energy     =   -7.09 kcal/mol
DOCKED: USER        Electrostatic Energy            =   -0.78 kcal/mol
DOCKED: USER    (2) Final Total Internal Energy     =   -2.33 kcal/mol
DOCKED: USER    (3) Torsional Free Energy           =   +3.88 kcal/mol
DOCKED: USER    (4) Unbound System's Energy  [=(2)] =   -2.33 kcal/mol
DOCKED: USER    
DOCKED: USER    
DOCKED: USER    NEWDPF move heme_opt.pdbqt
DOCKED: USER    NEWDPF about 0.153000 0.018000 -0.028000
DOCKED: USER    NEWDPF tran0 46.491001 31.732753 21.958288
DOCKED: USER    NEWDPF quaternion0 0.528817 0.633553 0.520776 -0.218532
DOCKED: USER    NEWDPF axisangle0 0.541915 0.649245 0.533675 -154.754350
DOCKED: USER    NEWDPF quat0 0.541915 0.649245 0.533675 -154.754350
DOCKED: USER    NEWDPF dihe0 175.84 -92.58 -160.92 30.94 -150.12 -127.41 -79.90 -84.31 16.86 -154.24 -57.60 25.69 -178.81 
DOCKED: USER  keepresnum = 1 
DOCKED: USER  
DOCKED: REMARK  13 active torsions:
DOCKED: REMARK  status: ('A' for Active; 'I' for Inactive)
DOCKED: REMARK    1  A    between atoms: O_3  and  C_38 
DOCKED: REMARK    2  A    between atoms: O_4  and  C_40 
DOCKED: REMARK    3  A    between atoms: O_7  and  C_46 
DOCKED: REMARK    4  A    between atoms: O_9  and  C_48 
DOCKED: REMARK    5  A    between atoms: C_15  and  C_20 
DOCKED: REMARK    6  A    between atoms: C_16  and  C_23 
DOCKED: REMARK    7  A    between atoms: C_20  and  C_38 
DOCKED: REMARK    8  A    between atoms: C_23  and  C_40 
DOCKED: REMARK    9  A    between atoms: C_32  and  C_41 
DOCKED: REMARK   10  A    between atoms: C_37  and  C_45 
DOCKED: REMARK   11  A    between atoms: C_41  and  C_44 
DOCKED: REMARK   12  A    between atoms: C_44  and  C_46 
DOCKED: REMARK   13  A    between atoms: C_47  and  C_48 
DOCKED: USER                              x       y       z     vdW  Elec       q    Type
DOCKED: USER                           _______ _______ _______ _____ _____    ______ ____
DOCKED: ROOT
DOCKED: ATOM      1  O   UNL d   1      49.712  26.802  21.692 -0.00 -0.14    -0.289 OA
DOCKED: ATOM      2  O   UNL d   1      43.957  29.164  17.484 -0.20 -0.10    -0.289 OA
DOCKED: ATOM      3  N   UNL d   1      48.024  29.744  22.317 -0.43 -0.33    -0.247 NA
DOCKED: ATOM      4  N   UNL d   1      46.169  29.972  20.007 -0.13 -0.19    -0.247 NA
DOCKED: ATOM      5  N   UNL d   1      45.702  32.704  20.770 -0.02 -0.16    -0.354 N 
DOCKED: ATOM      6  N   UNL d   1      47.644  32.466  23.152 -0.06 -0.21    -0.354 N 
DOCKED: ATOM      7  C   UNL d   1      50.020  28.665  23.244 -0.02 +0.05    +0.084 A 
DOCKED: ATOM      8  C   UNL d   1      45.498  27.897  18.903 -0.16 +0.05    +0.084 A 
DOCKED: ATOM      9  C   UNL d   1      46.362  28.610  19.950 -0.15 +0.05    +0.058 A 
DOCKED: ATOM     10  C   UNL d   1      49.050  29.850  23.242 -0.06 +0.05    +0.058 A 
DOCKED: ATOM     11  C   UNL d   1      49.351  27.862  22.169 -0.02 +0.13    +0.193 A 
DOCKED: ATOM     12  C   UNL d   1      48.139  28.610  21.706 -0.02 +0.12    +0.109 A 
DOCKED: ATOM     13  C   UNL d   1      44.808  29.112  18.352 -0.14 +0.09    +0.193 A 
DOCKED: ATOM     14  C   UNL d   1      51.418  29.065  22.765 -0.00 +0.01    +0.026 C 
DOCKED: ATOM     15  C   UNL d   1      47.263  27.966  20.707 -0.10 +0.05    +0.055 C 
DOCKED: ATOM     16  C   UNL d   1      44.451  26.989  19.554 -0.12 +0.02    +0.026 C 
DOCKED: ATOM     17  C   UNL d   1      45.307  30.305  19.100 -0.19 +0.05    +0.109 A 
DOCKED: ATOM     18  C   UNL d   1      49.159  30.850  24.136 -0.07 +0.03    +0.050 C 
DOCKED: ATOM     19  C   UNL d   1      48.262  31.941  24.264 -0.08 +0.03    +0.045 A 
DOCKED: ATOM     20  C   UNL d   1      45.077  32.690  19.550 -0.23 +0.01    +0.045 A 
DOCKED: ATOM     21  C   UNL d   1      44.835  31.651  18.744 -0.28 +0.02    +0.057 C 
DOCKED: ATOM     22  C   UNL d   1      45.119  34.836  20.333 -0.30 -0.00    -0.019 A 
DOCKED: ATOM     23  C   UNL d   1      45.776  33.956  21.320 -0.17 +0.01    +0.045 A 
DOCKED: ATOM     24  C   UNL d   1      44.706  34.080  19.288 -0.32 -0.00    -0.022 A 
DOCKED: ATOM     25  C   UNL d   1      46.893  33.567  23.491 -0.12 +0.02    +0.049 A 
DOCKED: ATOM     26  C   UNL d   1      47.874  32.697  25.359 -0.08 -0.01    -0.018 A 
DOCKED: ATOM     27  C   UNL d   1      46.994  33.711  24.868 -0.12 +0.00    +0.003 A 
DOCKED: ATOM     28  C   UNL d   1      46.286  34.373  22.489 -0.19 +0.01    +0.052 C 
DOCKED: ATOM     29  C   UNL d   1      43.985  34.508  18.055 -0.27 +0.01    +0.046 C 
DOCKED: ATOM     30  C   UNL d   1      48.292  32.493  26.776 -0.04 +0.02    +0.046 C 
DOCKED: ATOM     31  H   UNL d   1      45.994  31.844  21.221 +0.04 +0.12    +0.166 HD
DOCKED: ATOM     32  H   UNL d   1      47.771  32.101  22.215 +0.02 +0.10    +0.166 HD
DOCKED: ENDROOT
DOCKED: BRANCH   7  33
DOCKED: ATOM     33  C   UNL d   1      50.080  27.868  24.552 -0.01 +0.07    +0.141 C 
DOCKED: BRANCH  33  34
DOCKED: ATOM     34  C   UNL d   1      48.781  27.181  24.872 -0.03 +0.24    +0.306 C 
DOCKED: ATOM     35  O   UNL d   1      47.904  27.605  25.606 -0.35 -0.29    -0.251 OA
DOCKED: BRANCH  34  36
DOCKED: ATOM     36  O   UNL d   1      48.653  25.997  24.248 -0.00 -0.31    -0.481 OA
DOCKED: ATOM     37  H   UNL d   1      49.427  25.949  23.648 +0.01 +0.15    +0.295 HD
DOCKED: ENDBRANCH  34  36
DOCKED: ENDBRANCH  33  34
DOCKED: ENDBRANCH   7  33
DOCKED: BRANCH  27  38
DOCKED: ATOM     38  C   UNL d   1      46.373  34.723  25.668 -0.15 +0.00    +0.017 C 
DOCKED: ATOM     39  C   UNL d   1      45.050  34.872  25.838 -0.25 -0.00    +0.092 C 
DOCKED: BRANCH  39  40
DOCKED: ATOM     40  C   UNL d   1      44.541  35.942  26.700 -0.12 -0.04    +0.330 C 
DOCKED: ATOM     41  O   UNL d   1      43.733  35.847  27.604 -0.13 -0.05    -0.246 OA
DOCKED: BRANCH  40  42
DOCKED: ATOM     42  O   UNL d   1      45.108  37.112  26.367 -0.07 +0.20    -0.477 OA
DOCKED: ATOM     43  H   UNL d   1      44.528  37.461  25.659 -0.46 -0.54    +0.295 HD
DOCKED: ENDBRANCH  40  42
DOCKED: ENDBRANCH  39  40
DOCKED: ENDBRANCH  27  38
DOCKED: BRANCH   8  44
DOCKED: ATOM     44  C   UNL d   1      46.268  27.157  17.805 -0.09 +0.07    +0.141 C 
DOCKED: BRANCH  44  45
DOCKED: ATOM     45  C   UNL d   1      45.476  26.047  17.168 -0.16 +0.17    +0.306 C 
DOCKED: ATOM     46  O   UNL d   1      45.803  24.876  17.085 -0.24 -0.20    -0.251 OA
DOCKED: BRANCH  45  47
DOCKED: ATOM     47  O   UNL d   1      44.315  26.478  16.643 +0.06 -0.20    -0.481 OA
DOCKED: ATOM     48  H   UNL d   1      44.429  27.449  16.553 +0.15 +0.11    +0.295 HD
DOCKED: ENDBRANCH  45  47
DOCKED: ENDBRANCH  44  45
DOCKED: ENDBRANCH   8  44
DOCKED: BRANCH  22  49
DOCKED: ATOM     49  C   UNL d   1      44.970  36.320  20.494 -0.29 -0.00    +0.048 C 
DOCKED: BRANCH  49  50
DOCKED: ATOM     50  C   UNL d   1      46.057  37.086  19.741 -0.20 +0.00    +0.125 C 
DOCKED: BRANCH  50  51
DOCKED: ATOM     51  C   UNL d   1      45.452  38.055  18.765 -0.20 +0.01    +0.305 C 
DOCKED: ATOM     52  O   UNL d   1      45.169  37.854  17.597 -0.33 -0.04    -0.251 OA
DOCKED: BRANCH  51  53
DOCKED: ATOM     53  O   UNL d   1      45.240  39.264  19.321 -0.17 +0.02    -0.481 OA
DOCKED: ATOM     54  H   UNL d   1      44.458  39.612  18.844 -0.03 -0.03    +0.295 HD
DOCKED: ENDBRANCH  51  53
DOCKED: ENDBRANCH  50  51
DOCKED: ENDBRANCH  49  50
DOCKED: ENDBRANCH  22  49
DOCKED: TORSDOF 13
DOCKED: TER
DOCKED: ENDMDL
________________________________________________________________________________


	BEGINNING GENETIC ALGORITHM DOCKING 98 of 100
Run: 98 Seed: 1337864501 1302308183 [ Run 98 of 100 GA/GALS ]
Beginning LAMARCKIAN GENETIC ALGORITHM (LGA), with a maximum of 25000000 energy evaluations.

Final-Value: -9.517


	FINAL GENETIC ALGORITHM DOCKED STATE
	_______________________________________________


Detailed state:  trans 2.172 20.520 14.458 quatxyzw 0.082139 -0.364513 0.370487 -0.850366 center 0.153 0.018 -0.028 ntor 13 -70.1568 -95.7638 -95.0989 82.6266 33.3695 164.7303 123.8375 167.6165 105.7283 -35.2477 52.6141 12.1378 162.9177
State:	  2.172  20.520  14.458   0.156 -0.693  0.704 -63.497    -70.16  -95.76  -95.10   82.63   33.37  164.73  123.84  167.62  105.73  -35.25   52.61   12.14  162.92

DOCKED: MODEL       98
DOCKED: USER    Run = 98
DOCKED: USER    DPF = D:/Protein_go_brrr/autodock/final/2DN3/heme/dock.dpf
DOCKED: USER  
DOCKED: USER    Estimated Free Energy of Binding    =   -3.18 kcal/mol  [=(1)+(2)+(3)-(4)]
DOCKED: USER    Estimated Inhibition Constant, Ki   =    4.64 mM (millimolar)  [Temperature = 298.15 K]
DOCKED: USER    
DOCKED: USER    (1) Final Intermolecular Energy     =   -7.06 kcal/mol
DOCKED: USER        vdW + Hbond + desolv Energy     =   -7.09 kcal/mol
DOCKED: USER        Electrostatic Energy            =   +0.03 kcal/mol
DOCKED: USER    (2) Final Total Internal Energy     =   -2.46 kcal/mol
DOCKED: USER    (3) Torsional Free Energy           =   +3.88 kcal/mol
DOCKED: USER    (4) Unbound System's Energy  [=(2)] =   -2.46 kcal/mol
DOCKED: USER    
DOCKED: USER    
DOCKED: USER    NEWDPF move heme_opt.pdbqt
DOCKED: USER    NEWDPF about 0.153000 0.018000 -0.028000
DOCKED: USER    NEWDPF tran0 2.171804 20.519528 14.457588
DOCKED: USER    NEWDPF quaternion0 0.082139 -0.364513 0.370487 -0.850366
DOCKED: USER    NEWDPF axisangle0 0.156101 -0.692739 0.704092 -63.497003
DOCKED: USER    NEWDPF quat0 0.156101 -0.692739 0.704092 -63.497003
DOCKED: USER    NEWDPF dihe0 -70.16 -95.76 -95.10 82.63 33.37 164.73 123.84 167.62 105.73 -35.25 52.61 12.14 162.92 
DOCKED: USER  keepresnum = 1 
DOCKED: USER  
DOCKED: REMARK  13 active torsions:
DOCKED: REMARK  status: ('A' for Active; 'I' for Inactive)
DOCKED: REMARK    1  A    between atoms: O_3  and  C_38 
DOCKED: REMARK    2  A    between atoms: O_4  and  C_40 
DOCKED: REMARK    3  A    between atoms: O_7  and  C_46 
DOCKED: REMARK    4  A    between atoms: O_9  and  C_48 
DOCKED: REMARK    5  A    between atoms: C_15  and  C_20 
DOCKED: REMARK    6  A    between atoms: C_16  and  C_23 
DOCKED: REMARK    7  A    between atoms: C_20  and  C_38 
DOCKED: REMARK    8  A    between atoms: C_23  and  C_40 
DOCKED: REMARK    9  A    between atoms: C_32  and  C_41 
DOCKED: REMARK   10  A    between atoms: C_37  and  C_45 
DOCKED: REMARK   11  A    between atoms: C_41  and  C_44 
DOCKED: REMARK   12  A    between atoms: C_44  and  C_46 
DOCKED: REMARK   13  A    between atoms: C_47  and  C_48 
DOCKED: USER                              x       y       z     vdW  Elec       q    Type
DOCKED: USER                           _______ _______ _______ _____ _____    ______ ____
DOCKED: ROOT
DOCKED: ATOM      1  O   UNL d   1      -1.935  18.257  10.884 -0.07 +0.02    -0.289 OA
DOCKED: ATOM      2  O   UNL d   1       5.177  16.201  12.143 -0.39 +0.11    -0.289 OA
DOCKED: ATOM      3  N   UNL d   1       0.165  19.993  12.999 -0.15 +0.08    -0.247 NA
DOCKED: ATOM      4  N   UNL d   1       2.601  18.294  13.088 -0.06 +0.08    -0.247 NA
DOCKED: ATOM      5  N   UNL d   1       3.480  19.834  15.352 -0.03 +0.08    -0.354 N 
DOCKED: ATOM      6  N   UNL d   1       0.940  21.579  15.264 -0.07 +0.06    -0.354 N 
DOCKED: ATOM      7  C   UNL d   1      -2.213  20.138  12.421 -0.08 -0.01    +0.084 A 
DOCKED: ATOM      8  C   UNL d   1       3.034  16.859  11.158 -0.28 -0.00    +0.084 A 
DOCKED: ATOM      9  C   UNL d   1       2.107  17.839  11.886 -0.17 -0.01    +0.058 A 
DOCKED: ATOM     10  C   UNL d   1      -1.025  20.662  13.233 -0.15 -0.01    +0.058 A 
DOCKED: ATOM     11  C   UNL d   1      -1.480  19.065  11.673 -0.09 -0.02    +0.193 A 
DOCKED: ATOM     12  C   UNL d   1      -0.043  19.095  12.092 -0.17 -0.03    +0.109 A 
DOCKED: ATOM     13  C   UNL d   1       4.128  16.814  12.188 -0.27 -0.03    +0.193 A 
DOCKED: ATOM     14  C   UNL d   1      -3.274  19.485  13.311 -0.02 -0.00    +0.026 C 
DOCKED: ATOM     15  C   UNL d   1       0.898  18.180  11.414 -0.09 -0.01    +0.055 C 
DOCKED: ATOM     16  C   UNL d   1       3.597  17.462   9.868 -0.29 +0.00    +0.026 C 
DOCKED: ATOM     17  C   UNL d   1       3.740  17.721  13.310 -0.24 -0.02    +0.109 A 
DOCKED: ATOM     18  C   UNL d   1      -1.139  21.742  14.029 -0.12 -0.01    +0.050 C 
DOCKED: ATOM     19  C   UNL d   1      -0.079  22.348  14.750 -0.04 -0.01    +0.045 A 
DOCKED: ATOM     20  C   UNL d   1       4.405  18.823  15.381 -0.25 -0.00    +0.045 A 
DOCKED: ATOM     21  C   UNL d   1       4.607  17.846  14.491 -0.33 -0.01    +0.057 C 
DOCKED: ATOM     22  C   UNL d   1       4.664  20.115  17.247 -0.19 -0.00    -0.019 A 
DOCKED: ATOM     23  C   UNL d   1       3.558  20.665  16.437 -0.21 -0.00    +0.045 A 
DOCKED: ATOM     24  C   UNL d   1       5.162  19.026  16.616 -0.22 -0.00    -0.022 A 
DOCKED: ATOM     25  C   UNL d   1       1.807  22.354  16.000 -0.09 -0.00    +0.049 A 
DOCKED: ATOM     26  C   UNL d   1       0.151  23.661  15.130 +0.01 +0.00    -0.018 A 
DOCKED: ATOM     27  C   UNL d   1       1.353  23.662  15.902 -0.05 -0.00    +0.003 A 
DOCKED: ATOM     28  C   UNL d   1       2.852  21.760  16.758 -0.21 -0.00    +0.052 C 
DOCKED: ATOM     29  C   UNL d   1       6.287  18.140  17.031 -0.03 +0.02    +0.046 C 
DOCKED: ATOM     30  C   UNL d   1      -0.692  24.845  14.795 -0.08 -0.00    +0.046 C 
DOCKED: ATOM     31  H   UNL d   1       2.871  19.967  14.551 -0.23 -0.09    +0.166 HD
DOCKED: ATOM     32  H   UNL d   1       1.002  20.575  15.141 -0.04 -0.04    +0.166 HD
DOCKED: ENDROOT
DOCKED: BRANCH   7  33
DOCKED: ATOM     33  C   UNL d   1      -2.837  21.142  11.446 -0.08 -0.02    +0.141 C 
DOCKED: BRANCH  33  34
DOCKED: ATOM     34  C   UNL d   1      -3.510  20.474  10.278 -0.04 -0.02    +0.306 C 
DOCKED: ATOM     35  O   UNL d   1      -4.664  20.082  10.239 -0.01 +0.01    -0.251 OA
DOCKED: BRANCH  34  36
DOCKED: ATOM     36  O   UNL d   1      -2.693  20.336   9.219 -0.59 +0.00    -0.481 OA
DOCKED: ATOM     37  H   UNL d   1      -2.486  19.377   9.190 +0.03 +0.01    +0.295 HD
DOCKED: ENDBRANCH  34  36
DOCKED: ENDBRANCH  33  34
DOCKED: ENDBRANCH   7  33
DOCKED: BRANCH  27  38
DOCKED: ATOM     38  C   UNL d   1       1.946  24.818  16.505 -0.18 -0.00    +0.017 C 
DOCKED: ATOM     39  C   UNL d   1       3.239  25.164  16.409 -0.29 -0.01    +0.092 C 
DOCKED: BRANCH  39  40
DOCKED: ATOM     40  C   UNL d   1       3.717  26.386  17.062 -0.17 -0.01    +0.330 C 
DOCKED: ATOM     41  O   UNL d   1       4.866  26.690  17.320 -0.33 -0.00    -0.246 OA
DOCKED: BRANCH  40  42
DOCKED: ATOM     42  O   UNL d   1       2.682  27.188  17.356 -0.01 +0.02    -0.477 OA
DOCKED: ATOM     43  H   UNL d   1       2.356  26.846  18.213 +0.10 -0.01    +0.295 HD
DOCKED: ENDBRANCH  40  42
DOCKED: ENDBRANCH  39  40
DOCKED: ENDBRANCH  27  38
DOCKED: BRANCH   8  44
DOCKED: ATOM     44  C   UNL d   1       2.455  15.462  10.911 -0.11 -0.01    +0.141 C 
DOCKED: BRANCH  44  45
DOCKED: ATOM     45  C   UNL d   1       2.630  14.531  12.081 -0.02 -0.03    +0.306 C 
DOCKED: ATOM     46  O   UNL d   1       1.947  14.497  13.091 -0.01 +0.02    -0.251 OA
DOCKED: BRANCH  45  47
DOCKED: ATOM     47  O   UNL d   1       3.680  13.704  11.929 -0.02 +0.06    -0.481 OA
DOCKED: ATOM     48  H   UNL d   1       4.452  14.226  12.234 +0.08 -0.08    +0.295 HD
DOCKED: ENDBRANCH  45  47
DOCKED: ENDBRANCH  44  45
DOCKED: ENDBRANCH   8  44
DOCKED: BRANCH  22  49
DOCKED: ATOM     49  C   UNL d   1       5.116  20.691  18.557 -0.20 +0.00    +0.048 C 
DOCKED: BRANCH  49  50
DOCKED: ATOM     50  C   UNL d   1       4.203  20.272  19.708 -0.09 +0.00    +0.125 C 
DOCKED: BRANCH  50  51
DOCKED: ATOM     51  C   UNL d   1       3.712  21.471  20.468 -0.06 -0.01    +0.305 C 
DOCKED: ATOM     52  O   UNL d   1       2.754  21.535  21.217 -0.03 +0.00    -0.251 OA
DOCKED: BRANCH  51  53
DOCKED: ATOM     53  O   UNL d   1       4.466  22.563  20.228 +0.01 +0.04    -0.481 OA
DOCKED: ATOM     54  H   UNL d   1       5.084  22.596  20.988 -0.33 -0.08    +0.295 HD
DOCKED: ENDBRANCH  51  53
DOCKED: ENDBRANCH  50  51
DOCKED: ENDBRANCH  49  50
DOCKED: ENDBRANCH  22  49
DOCKED: TORSDOF 13
DOCKED: TER
DOCKED: ENDMDL
________________________________________________________________________________


	BEGINNING GENETIC ALGORITHM DOCKING 99 of 100
Run: 99 Seed: 937037591 1059795917 [ Run 99 of 100 GA/GALS ]
Beginning LAMARCKIAN GENETIC ALGORITHM (LGA), with a maximum of 25000000 energy evaluations.

Final-Value: -9.974


	FINAL GENETIC ALGORITHM DOCKED STATE
	_______________________________________________


Detailed state:  trans 40.679 17.427 29.115 quatxyzw 0.625063 -0.681998 -0.377761 -0.038365 center 0.153 0.018 -0.028 ntor 13 105.8196 -180.0000 -134.5461 36.3049 -132.7622 73.5475 124.2017 10.3148 35.3907 -25.8092 -71.1130 -114.1187 11.6786
State:	 40.679  17.427  29.115   0.626 -0.683 -0.378 -175.603    105.82 -180.00 -134.55   36.30 -132.76   73.55  124.20   10.31   35.39  -25.81  -71.11 -114.12   11.68

DOCKED: MODEL       99
DOCKED: USER    Run = 99
DOCKED: USER    DPF = D:/Protein_go_brrr/autodock/final/2DN3/heme/dock.dpf
DOCKED: USER  
DOCKED: USER    Estimated Free Energy of Binding    =   -1.25 kcal/mol  [=(1)+(2)+(3)-(4)]
DOCKED: USER    Estimated Inhibition Constant, Ki   =  122.02 mM (millimolar)  [Temperature = 298.15 K]
DOCKED: USER    
DOCKED: USER    (1) Final Intermolecular Energy     =   -5.12 kcal/mol
DOCKED: USER        vdW + Hbond + desolv Energy     =   -5.03 kcal/mol
DOCKED: USER        Electrostatic Energy            =   -0.09 kcal/mol
DOCKED: USER    (2) Final Total Internal Energy     =   -4.85 kcal/mol
DOCKED: USER    (3) Torsional Free Energy           =   +3.88 kcal/mol
DOCKED: USER    (4) Unbound System's Energy  [=(2)] =   -4.85 kcal/mol
DOCKED: USER    
DOCKED: USER    
DOCKED: USER    NEWDPF move heme_opt.pdbqt
DOCKED: USER    NEWDPF about 0.153000 0.018000 -0.028000
DOCKED: USER    NEWDPF tran0 40.678775 17.426928 29.114646
DOCKED: USER    NEWDPF quaternion0 0.625063 -0.681998 -0.377761 -0.038365
DOCKED: USER    NEWDPF axisangle0 0.625524 -0.682500 -0.378039 -175.602664
DOCKED: USER    NEWDPF quat0 0.625524 -0.682500 -0.378039 -175.602664
DOCKED: USER    NEWDPF dihe0 105.82 -180.00 -134.55 36.30 -132.76 73.55 124.20 10.31 35.39 -25.81 -71.11 -114.12 11.68 
DOCKED: USER  keepresnum = 1 
DOCKED: USER  
DOCKED: REMARK  13 active torsions:
DOCKED: REMARK  status: ('A' for Active; 'I' for Inactive)
DOCKED: REMARK    1  A    between atoms: O_3  and  C_38 
DOCKED: REMARK    2  A    between atoms: O_4  and  C_40 
DOCKED: REMARK    3  A    between atoms: O_7  and  C_46 
DOCKED: REMARK    4  A    between atoms: O_9  and  C_48 
DOCKED: REMARK    5  A    between atoms: C_15  and  C_20 
DOCKED: REMARK    6  A    between atoms: C_16  and  C_23 
DOCKED: REMARK    7  A    between atoms: C_20  and  C_38 
DOCKED: REMARK    8  A    between atoms: C_23  and  C_40 
DOCKED: REMARK    9  A    between atoms: C_32  and  C_41 
DOCKED: REMARK   10  A    between atoms: C_37  and  C_45 
DOCKED: REMARK   11  A    between atoms: C_41  and  C_44 
DOCKED: REMARK   12  A    between atoms: C_44  and  C_46 
DOCKED: REMARK   13  A    between atoms: C_47  and  C_48 
DOCKED: USER                              x       y       z     vdW  Elec       q    Type
DOCKED: USER                           _______ _______ _______ _____ _____    ______ ____
DOCKED: ROOT
DOCKED: ATOM      1  O   UNL d   1      40.158  22.563  31.961 -0.17 -0.06    -0.289 OA
DOCKED: ATOM      2  O   UNL d   1      46.071  19.355  28.625 -0.01 -0.04    -0.289 OA
DOCKED: ATOM      3  N   UNL d   1      40.018  19.434  30.517 -0.08 +0.02    -0.247 NA
DOCKED: ATOM      4  N   UNL d   1      42.678  19.160  29.222 +0.04 -0.01    -0.247 NA
DOCKED: ATOM      5  N   UNL d   1      41.642  16.896  27.784 -0.10 +0.02    -0.354 N 
DOCKED: ATOM      6  N   UNL d   1      38.879  17.200  29.117 -0.11 +0.07    -0.354 N 
DOCKED: ATOM      7  C   UNL d   1      38.375  20.949  31.524 -0.24 +0.00    +0.084 A 
DOCKED: ATOM      8  C   UNL d   1      44.523  20.447  30.175 -0.05 +0.01    +0.084 A 
DOCKED: ATOM      9  C   UNL d   1      43.029  20.110  30.155 -0.10 +0.01    +0.058 A 
DOCKED: ATOM     10  C   UNL d   1      38.682  19.616  30.835 -0.19 -0.01    +0.058 A 
DOCKED: ATOM     11  C   UNL d   1      39.776  21.481  31.555 -0.17 +0.02    +0.193 A 
DOCKED: ATOM     12  C   UNL d   1      40.682  20.460  30.939 -0.09 +0.01    +0.109 A 
DOCKED: ATOM     13  C   UNL d   1      44.950  19.540  29.056 -0.04 +0.02    +0.193 A 
DOCKED: ATOM     14  C   UNL d   1      37.517  21.865  30.647 -0.43 +0.00    +0.026 C 
DOCKED: ATOM     15  C   UNL d   1      42.135  20.727  30.943 -0.13 +0.01    +0.055 C 
DOCKED: ATOM     16  C   UNL d   1      45.193  19.979  31.470 -0.01 +0.00    +0.026 C 
DOCKED: ATOM     17  C   UNL d   1      43.737  18.822  28.559 -0.09 +0.01    +0.109 A 
DOCKED: ATOM     18  C   UNL d   1      37.729  18.684  30.651 -0.19 -0.01    +0.050 C 
DOCKED: ATOM     19  C   UNL d   1      37.936  17.393  30.102 -0.06 -0.01    +0.045 A 
DOCKED: ATOM     20  C   UNL d   1      42.835  17.064  27.130 -0.14 -0.00    +0.045 A 
DOCKED: ATOM     21  C   UNL d   1      43.843  17.890  27.426 -0.17 +0.00    +0.057 C 
DOCKED: ATOM     22  C   UNL d   1      41.614  15.471  26.040 -0.20 +0.00    -0.019 A 
DOCKED: ATOM     23  C   UNL d   1      40.837  15.955  27.199 -0.19 -0.00    +0.045 A 
DOCKED: ATOM     24  C   UNL d   1      42.796  16.130  26.006 -0.16 +0.00    -0.022 A 
DOCKED: ATOM     25  C   UNL d   1      38.850  15.900  28.668 -0.14 -0.01    +0.049 A 
DOCKED: ATOM     26  C   UNL d   1      37.304  16.179  30.324 -0.09 +0.01    -0.018 A 
DOCKED: ATOM     27  C   UNL d   1      37.898  15.236  29.429 -0.09 -0.00    +0.003 A 
DOCKED: ATOM     28  C   UNL d   1      39.623  15.499  27.545 -0.17 -0.01    +0.052 C 
DOCKED: ATOM     29  C   UNL d   1      43.918  15.983  25.035 -0.16 +0.00    +0.046 C 
DOCKED: ATOM     30  C   UNL d   1      36.216  15.909  31.307 -0.08 -0.02    +0.046 C 
DOCKED: ATOM     31  H   UNL d   1      41.446  17.379  28.654 +0.04 -0.01    +0.166 HD
DOCKED: ATOM     32  H   UNL d   1      39.474  17.938  28.759 -0.03 -0.03    +0.166 HD
DOCKED: ENDROOT
DOCKED: BRANCH   7  33
DOCKED: ATOM     33  C   UNL d   1      37.809  20.840  32.944 -0.11 +0.01    +0.141 C 
DOCKED: BRANCH  33  34
DOCKED: ATOM     34  C   UNL d   1      38.883  20.662  33.983 -0.01 +0.02    +0.306 C 
DOCKED: ATOM     35  O   UNL d   1      39.470  19.625  34.242 -0.01 -0.01    -0.251 OA
DOCKED: BRANCH  34  36
DOCKED: ATOM     36  O   UNL d   1      39.163  21.801  34.640 -0.01 -0.05    -0.481 OA
DOCKED: ATOM     37  H   UNL d   1      39.708  22.321  34.011 +0.05 +0.04    +0.295 HD
DOCKED: ENDBRANCH  34  36
DOCKED: ENDBRANCH  33  34
DOCKED: ENDBRANCH   7  33
DOCKED: BRANCH  27  38
DOCKED: ATOM     38  C   UNL d   1      37.527  13.858  29.318 -0.05 -0.00    +0.017 C 
DOCKED: ATOM     39  C   UNL d   1      36.769  13.336  28.341 -0.04 -0.02    +0.092 C 
DOCKED: BRANCH  39  40
DOCKED: ATOM     40  C   UNL d   1      36.475  11.901  28.332 +0.00 -0.04    +0.330 C 
DOCKED: ATOM     41  O   UNL d   1      35.741  11.288  29.083 -0.00 +0.02    -0.246 OA
DOCKED: BRANCH  40  42
DOCKED: ATOM     42  O   UNL d   1      37.142  11.299  27.334 +0.00 +0.03    -0.477 OA
DOCKED: ATOM     43  H   UNL d   1      37.633  12.030  26.906 +0.02 -0.02    +0.295 HD
DOCKED: ENDBRANCH  40  42
DOCKED: ENDBRANCH  39  40
DOCKED: ENDBRANCH  27  38
DOCKED: BRANCH   8  44
DOCKED: ATOM     44  C   UNL d   1      44.876  21.906  29.864 -0.06 +0.03    +0.141 C 
DOCKED: BRANCH  44  45
DOCKED: ATOM     45  C   UNL d   1      44.760  22.246  28.402 -0.07 +0.08    +0.306 C 
DOCKED: ATOM     46  O   UNL d   1      43.736  22.503  27.794 -0.65 -0.11    -0.251 OA
DOCKED: BRANCH  45  47
DOCKED: ATOM     47  O   UNL d   1      45.948  22.218  27.772 +0.00 -0.11    -0.481 OA
DOCKED: ATOM     48  H   UNL d   1      46.380  21.397  28.092 +0.03 +0.06    +0.295 HD
DOCKED: ENDBRANCH  45  47
DOCKED: ENDBRANCH  44  45
DOCKED: ENDBRANCH   8  44
DOCKED: BRANCH  22  49
DOCKED: ATOM     49  C   UNL d   1      41.127  14.429  25.076 -0.21 -0.00    +0.048 C 
DOCKED: BRANCH  49  50
DOCKED: ATOM     50  C   UNL d   1      41.108  13.036  25.705 -0.05 -0.00    +0.125 C 
DOCKED: BRANCH  50  51
DOCKED: ATOM     51  C   UNL d   1      39.698  12.568  25.927 -0.01 -0.02    +0.305 C 
DOCKED: ATOM     52  O   UNL d   1      38.668  13.133  25.605 -0.04 +0.03    -0.251 OA
DOCKED: BRANCH  51  53
DOCKED: ATOM     53  O   UNL d   1      39.656  11.385  26.573 +0.00 +0.01    -0.481 OA
DOCKED: ATOM     54  H   UNL d   1      38.890  10.923  26.172 +0.01 -0.01    +0.295 HD
DOCKED: ENDBRANCH  51  53
DOCKED: ENDBRANCH  50  51
DOCKED: ENDBRANCH  49  50
DOCKED: ENDBRANCH  22  49
DOCKED: TORSDOF 13
DOCKED: TER
DOCKED: ENDMDL
________________________________________________________________________________


	BEGINNING GENETIC ALGORITHM DOCKING 100 of 100
Run: 100 Seed: 1379947042 357797300 [ Run 100 of 100 GA/GALS ]
Beginning LAMARCKIAN GENETIC ALGORITHM (LGA), with a maximum of 25000000 energy evaluations.

Final-Value: -11.150


	FINAL GENETIC ALGORITHM DOCKED STATE
	_______________________________________________


Detailed state:  trans 38.692 13.406 22.525 quatxyzw 0.733844 -0.467571 -0.137215 0.473310 center 0.153 0.018 -0.028 ntor 13 170.5863 155.8867 48.6174 -88.2237 -14.2426 62.1448 56.1466 -33.7670 -142.8775 -14.4609 -62.2108 -106.6303 27.6715
State:	 38.692  13.406  22.525   0.833 -0.531 -0.156 123.501    170.59  155.89   48.62  -88.22  -14.24   62.14   56.15  -33.77 -142.88  -14.46  -62.21 -106.63   27.67

DOCKED: MODEL      100
DOCKED: USER    Run = 100
DOCKED: USER    DPF = D:/Protein_go_brrr/autodock/final/2DN3/heme/dock.dpf
DOCKED: USER  
DOCKED: USER    Estimated Free Energy of Binding    =   -4.03 kcal/mol  [=(1)+(2)+(3)-(4)]
DOCKED: USER    Estimated Inhibition Constant, Ki   =    1.12 mM (millimolar)  [Temperature = 298.15 K]
DOCKED: USER    
DOCKED: USER    (1) Final Intermolecular Energy     =   -7.91 kcal/mol
DOCKED: USER        vdW + Hbond + desolv Energy     =   -7.51 kcal/mol
DOCKED: USER        Electrostatic Energy            =   -0.39 kcal/mol
DOCKED: USER    (2) Final Total Internal Energy     =   -3.24 kcal/mol
DOCKED: USER    (3) Torsional Free Energy           =   +3.88 kcal/mol
DOCKED: USER    (4) Unbound System's Energy  [=(2)] =   -3.24 kcal/mol
DOCKED: USER    
DOCKED: USER    
DOCKED: USER    NEWDPF move heme_opt.pdbqt
DOCKED: USER    NEWDPF about 0.153000 0.018000 -0.028000
DOCKED: USER    NEWDPF tran0 38.691817 13.406372 22.525401
DOCKED: USER    NEWDPF quaternion0 0.733844 -0.467571 -0.137215 0.473310
DOCKED: USER    NEWDPF axisangle0 0.833065 -0.530791 -0.155767 123.501295
DOCKED: USER    NEWDPF quat0 0.833065 -0.530791 -0.155767 123.501295
DOCKED: USER    NEWDPF dihe0 170.59 155.89 48.62 -88.22 -14.24 62.14 56.15 -33.77 -142.88 -14.46 -62.21 -106.63 27.67 
DOCKED: USER  keepresnum = 1 
DOCKED: USER  
DOCKED: REMARK  13 active torsions:
DOCKED: REMARK  status: ('A' for Active; 'I' for Inactive)
DOCKED: REMARK    1  A    between atoms: O_3  and  C_38 
DOCKED: REMARK    2  A    between atoms: O_4  and  C_40 
DOCKED: REMARK    3  A    between atoms: O_7  and  C_46 
DOCKED: REMARK    4  A    between atoms: O_9  and  C_48 
DOCKED: REMARK    5  A    between atoms: C_15  and  C_20 
DOCKED: REMARK    6  A    between atoms: C_16  and  C_23 
DOCKED: REMARK    7  A    between atoms: C_20  and  C_38 
DOCKED: REMARK    8  A    between atoms: C_23  and  C_40 
DOCKED: REMARK    9  A    between atoms: C_32  and  C_41 
DOCKED: REMARK   10  A    between atoms: C_37  and  C_45 
DOCKED: REMARK   11  A    between atoms: C_41  and  C_44 
DOCKED: REMARK   12  A    between atoms: C_44  and  C_46 
DOCKED: REMARK   13  A    between atoms: C_47  and  C_48 
DOCKED: USER                              x       y       z     vdW  Elec       q    Type
DOCKED: USER                           _______ _______ _______ _____ _____    ______ ____
DOCKED: ROOT
DOCKED: ATOM      1  O   UNL d   1      34.523  16.868  24.849 -0.65 +0.09    -0.289 OA
DOCKED: ATOM      2  O   UNL d   1      40.871  14.141  27.793 -0.01 +0.01    -0.289 OA
DOCKED: ATOM      3  N   UNL d   1      36.618  14.738  23.125 -0.14 +0.05    -0.247 NA
DOCKED: ATOM      4  N   UNL d   1      38.953  14.457  24.942 -0.13 +0.06    -0.247 NA
DOCKED: ATOM      5  N   UNL d   1      40.399  13.283  22.752 +0.01 +0.06    -0.354 N 
DOCKED: ATOM      6  N   UNL d   1      37.978  13.596  20.868 -0.05 +0.00    -0.354 N 
DOCKED: ATOM      7  C   UNL d   1      34.602  16.012  22.561 -0.23 -0.00    +0.084 A 
DOCKED: ATOM      8  C   UNL d   1      38.558  14.795  27.330 -0.11 -0.02    +0.084 A 
DOCKED: ATOM      9  C   UNL d   1      38.029  14.831  25.892 -0.20 -0.01    +0.058 A 
DOCKED: ATOM     10  C   UNL d   1      35.716  15.056  22.124 -0.21 -0.00    +0.058 A 
DOCKED: ATOM     11  C   UNL d   1      35.024  16.164  23.991 -0.22 -0.05    +0.193 A 
DOCKED: ATOM     12  C   UNL d   1      36.242  15.323  24.216 -0.22 -0.03    +0.109 A 
DOCKED: ATOM     13  C   UNL d   1      39.964  14.368  27.016 -0.04 -0.02    +0.193 A 
DOCKED: ATOM     14  C   UNL d   1      34.708  17.372  21.866 -0.37 -0.00    +0.026 C 
DOCKED: ATOM     15  C   UNL d   1      36.788  15.241  25.585 -0.27 -0.02    +0.055 C 
DOCKED: ATOM     16  C   UNL d   1      37.883  13.697  28.156 -0.05 -0.00    +0.026 C 
DOCKED: ATOM     17  C   UNL d   1      40.075  14.205  25.535 -0.13 -0.01    +0.109 A 
DOCKED: ATOM     18  C   UNL d   1      35.736  14.516  20.891 -0.20 +0.00    +0.050 C 
DOCKED: ATOM     19  C   UNL d   1      36.675  13.561  20.426 -0.15 +0.00    +0.045 A 
DOCKED: ATOM     20  C   UNL d   1      41.422  13.445  23.650 -0.11 -0.00    +0.045 A 
DOCKED: ATOM     21  C   UNL d   1      41.361  13.831  24.928 -0.16 -0.00    +0.057 C 
DOCKED: ATOM     22  C   UNL d   1      42.293  12.757  21.653 -0.15 -0.00    -0.019 A 
DOCKED: ATOM     23  C   UNL d   1      40.827  12.870  21.518 -0.10 -0.00    +0.045 A 
DOCKED: ATOM     24  C   UNL d   1      42.639  13.097  22.918 -0.14 -0.00    -0.022 A 
DOCKED: ATOM     25  C   UNL d   1      38.733  12.642  20.225 -0.10 +0.00    +0.049 A 
DOCKED: ATOM     26  C   UNL d   1      36.571  12.535  19.500 -0.08 -0.00    -0.018 A 
DOCKED: ATOM     27  C   UNL d   1      37.869  11.945  19.391 -0.09 +0.00    +0.003 A 
DOCKED: ATOM     28  C   UNL d   1      40.142  12.588  20.399 -0.10 +0.00    +0.052 C 
DOCKED: ATOM     29  C   UNL d   1      43.994  13.128  23.538 -0.07 +0.00    +0.046 C 
DOCKED: ATOM     30  C   UNL d   1      35.343  12.123  18.761 -0.05 +0.01    +0.046 C 
DOCKED: ATOM     31  H   UNL d   1      39.430  13.389  23.033 -0.20 -0.04    +0.166 HD
DOCKED: ATOM     32  H   UNL d   1      38.323  14.267  21.544 -0.32 -0.04    +0.166 HD
DOCKED: ENDROOT
DOCKED: BRANCH   7  33
DOCKED: ATOM     33  C   UNL d   1      33.180  15.447  22.476 -0.12 +0.02    +0.141 C 
DOCKED: BRANCH  33  34
DOCKED: ATOM     34  C   UNL d   1      32.488  15.809  21.190 -0.13 +0.17    +0.306 C 
DOCKED: ATOM     35  O   UNL d   1      32.995  15.833  20.081 -0.19 -0.13    -0.251 OA
DOCKED: BRANCH  34  36
DOCKED: ATOM     36  O   UNL d   1      31.192  16.118  21.368 -0.54 -0.62    -0.481 OA
DOCKED: ATOM     37  H   UNL d   1      30.994  15.834  22.286 +0.08 +0.22    +0.295 HD
DOCKED: ENDBRANCH  34  36
DOCKED: ENDBRANCH  33  34
DOCKED: ENDBRANCH   7  33
DOCKED: BRANCH  27  38
DOCKED: ATOM     38  C   UNL d   1      38.211  10.856  18.528 -0.05 +0.00    +0.017 C 
DOCKED: ATOM     39  C   UNL d   1      38.990  10.946  17.439 -0.04 +0.01    +0.092 C 
DOCKED: BRANCH  39  40
DOCKED: ATOM     40  C   UNL d   1      39.279   9.747  16.647 -0.00 +0.03    +0.330 C 
DOCKED: ATOM     41  O   UNL d   1      38.485   9.025  16.075 -0.00 -0.02    -0.246 OA
DOCKED: BRANCH  40  42
DOCKED: ATOM     42  O   UNL d   1      40.602   9.524  16.612 +0.00 -0.04    -0.477 OA
DOCKED: ATOM     43  H   UNL d   1      40.993  10.407  16.776 +0.02 +0.03    +0.295 HD
DOCKED: ENDBRANCH  40  42
DOCKED: ENDBRANCH  39  40
DOCKED: ENDBRANCH  27  38
DOCKED: BRANCH   8  44
DOCKED: ATOM     44  C   UNL d   1      38.544  16.136  28.072 -0.18 -0.04    +0.141 C 
DOCKED: BRANCH  44  45
DOCKED: ATOM     45  C   UNL d   1      39.452  17.166  27.455 -0.22 -0.06    +0.306 C 
DOCKED: ATOM     46  O   UNL d   1      39.995  17.097  26.366 -0.35 +0.05    -0.251 OA
DOCKED: BRANCH  45  47
DOCKED: ATOM     47  O   UNL d   1      39.653  18.224  28.261 -0.19 +0.10    -0.481 OA
DOCKED: ATOM     48  H   UNL d   1      39.510  19.005  27.685 -0.36 -0.14    +0.295 HD
DOCKED: ENDBRANCH  45  47
DOCKED: ENDBRANCH  44  45
DOCKED: ENDBRANCH   8  44
DOCKED: BRANCH  22  49
DOCKED: ATOM     49  C   UNL d   1      43.213  12.346  20.541 -0.09 +0.01    +0.048 C 
DOCKED: BRANCH  49  50
DOCKED: ATOM     50  C   UNL d   1      42.820  10.992  19.950 -0.03 +0.01    +0.125 C 
DOCKED: BRANCH  50  51
DOCKED: ATOM     51  C   UNL d   1      42.464  11.124  18.496 -0.02 +0.03    +0.305 C 
DOCKED: ATOM     52  O   UNL d   1      41.833  12.020  17.964 -0.06 -0.03    -0.251 OA
DOCKED: BRANCH  51  53
DOCKED: ATOM     53  O   UNL d   1      42.924  10.086  17.769 +0.00 -0.05    -0.481 OA
DOCKED: ATOM     54  H   UNL d   1      42.185   9.443  17.778 +0.01 +0.03    +0.295 HD
DOCKED: ENDBRANCH  51  53
DOCKED: ENDBRANCH  50  51
DOCKED: ENDBRANCH  49  50
DOCKED: ENDBRANCH  22  49
DOCKED: TORSDOF 13
DOCKED: TER
DOCKED: ENDMDL
________________________________________________________________________________

DPF> analysis                             # perform a ranked cluster analysis


		CLUSTER ANALYSIS OF CONFORMATIONS
		_________________________________

Number of conformations = 100

RMSD cluster analysis will be performed using the ligand atoms only (54 / 54 total atoms).

Outputting structurally similar clusters, ranked in order of increasing energy.


________________________________________________________________________________

Number of distinct conformational clusters found = 76,  out of 100 runs,
Using an rmsd-tolerance of 2.0 A


	CLUSTERING HISTOGRAM
	____________________

________________________________________________________________________________
     |           |     |           |     |                                    
Clus | Lowest    | Run | Mean      | Num | Histogram                          
-ter | Binding   |     | Binding   | in  |                                    
Rank | Energy    |     | Energy    | Clus|    5    10   15   20   25   30   35
_____|___________|_____|___________|_____|____:____|____:____|____:____|____:___
   1 |     -6.22 |  61 |     -6.02 |   2 |##
   2 |     -5.82 |  39 |     -5.11 |   4 |####
   3 |     -5.76 |  31 |     -5.76 |   1 |#
   4 |     -5.66 |   6 |     -5.16 |  13 |#############
   5 |     -5.45 |   3 |     -5.45 |   1 |#
   6 |     -5.40 |  42 |     -5.40 |   1 |#
   7 |     -5.23 |  13 |     -4.97 |   2 |##
   8 |     -5.19 |  59 |     -5.12 |   2 |##
   9 |     -4.95 |   7 |     -4.95 |   1 |#
  10 |     -4.85 |  22 |     -3.83 |   2 |##
  11 |     -4.28 |  73 |     -4.28 |   1 |#
  12 |     -4.27 |  95 |     -4.27 |   1 |#
  13 |     -4.21 |  79 |     -4.21 |   1 |#
  14 |     -4.19 |  93 |     -4.19 |   1 |#
  15 |     -4.12 |  23 |     -4.05 |   2 |##
  16 |     -4.08 |  69 |     -3.59 |   2 |##
  17 |     -4.07 |  83 |     -4.07 |   1 |#
  18 |     -4.06 |  64 |     -4.06 |   1 |#
  19 |     -4.03 |  60 |     -4.03 |   1 |#
  20 |     -4.03 | 100 |     -4.03 |   1 |#
  21 |     -4.02 |  50 |     -4.02 |   1 |#
  22 |     -4.02 |  68 |     -4.02 |   1 |#
  23 |     -3.99 |  97 |     -3.99 |   1 |#
  24 |     -3.95 |  90 |     -3.95 |   1 |#
  25 |     -3.83 |  72 |     -3.83 |   1 |#
  26 |     -3.82 |  16 |     -3.82 |   1 |#
  27 |     -3.81 |  54 |     -3.81 |   1 |#
  28 |     -3.77 |  27 |     -3.77 |   1 |#
  29 |     -3.72 |  94 |     -3.49 |   2 |##
  30 |     -3.67 |  78 |     -3.67 |   1 |#
  31 |     -3.58 |  74 |     -3.25 |   2 |##
  32 |     -3.54 |  53 |     -3.54 |   1 |#
  33 |     -3.50 |  48 |     -3.50 |   1 |#
  34 |     -3.49 |  80 |     -3.49 |   1 |#
  35 |     -3.42 |  63 |     -3.42 |   1 |#
  36 |     -3.40 |  29 |     -3.40 |   1 |#
  37 |     -3.40 |  28 |     -3.40 |   1 |#
  38 |     -3.32 |  82 |     -3.32 |   1 |#
  39 |     -3.28 |  75 |     -3.28 |   1 |#
  40 |     -3.24 |  51 |     -3.24 |   1 |#
  41 |     -3.22 |  58 |     -3.22 |   1 |#
  42 |     -3.18 |  98 |     -3.18 |   1 |#
  43 |     -3.08 |  38 |     -3.08 |   1 |#
  44 |     -2.97 |  18 |     -2.97 |   1 |#
  45 |     -2.95 |  30 |     -2.95 |   1 |#
  46 |     -2.92 |  14 |     -2.75 |   2 |##
  47 |     -2.92 |  43 |     -2.92 |   1 |#
  48 |     -2.87 |   2 |     -2.87 |   1 |#
  49 |     -2.85 |  65 |     -2.85 |   1 |#
  50 |     -2.81 |  76 |     -2.81 |   1 |#
  51 |     -2.79 |  84 |     -2.79 |   1 |#
  52 |     -2.77 |   8 |     -2.77 |   1 |#
  53 |     -2.77 |  21 |     -2.77 |   1 |#
  54 |     -2.75 |  66 |     -2.75 |   1 |#
  55 |     -2.74 |  92 |     -2.74 |   1 |#
  56 |     -2.72 |  32 |     -2.72 |   1 |#
  57 |     -2.68 |  24 |     -2.68 |   1 |#
  58 |     -2.65 |  81 |     -2.65 |   1 |#
  59 |     -2.63 |  55 |     -2.63 |   1 |#
  60 |     -2.63 |  44 |     -2.63 |   1 |#
  61 |     -2.55 |   1 |     -2.55 |   1 |#
  62 |     -2.53 |  49 |     -2.53 |   1 |#
  63 |     -2.51 |  25 |     -2.51 |   1 |#
  64 |     -2.50 |  20 |     -2.50 |   1 |#
  65 |     -2.29 |  34 |     -2.29 |   1 |#
  66 |     -2.24 |  96 |     -2.24 |   1 |#
  67 |     -2.18 |  88 |     -2.18 |   1 |#
  68 |     -2.15 |  71 |     -2.15 |   1 |#
  69 |     -2.14 |  33 |     -2.14 |   1 |#
  70 |     -2.14 |  52 |     -2.14 |   1 |#
  71 |     -2.02 |  17 |     -2.02 |   1 |#
  72 |     -1.85 |  77 |     -1.85 |   1 |#
  73 |     -1.66 |  70 |     -1.66 |   1 |#
  74 |     -1.26 |  46 |     -1.26 |   1 |#
  75 |     -1.25 |  62 |     -1.25 |   1 |#
  76 |     -1.25 |  99 |     -1.25 |   1 |#
_____|___________|_____|___________|_____|______________________________________


Number of multi-member conformational clusters found = 11, out of 100 runs.

	RMSD TABLE
	__________

_____________________________________________________________________
     |      |      |           |         |                 |
Rank | Sub- | Run  | Binding   | Cluster | Reference       | Grep
     | Rank |      | Energy    | RMSD    | RMSD            | Pattern
_____|______|______|___________|_________|_________________|___________
   1      1     61       -6.22      0.00     49.29           RANKING
   1      2     47       -5.82      1.09     49.76           RANKING
   2      1     39       -5.82      0.00     61.33           RANKING
   2      2      4       -5.58      0.70     61.52           RANKING
   2      3     89       -5.39      1.31     61.56           RANKING
   2      4     67       -3.65      1.99     61.67           RANKING
   3      1     31       -5.76      0.00     33.78           RANKING
   4      1      6       -5.66      0.00     45.66           RANKING
   4      2     37       -5.59      0.94     45.83           RANKING
   4      3     45       -5.52      1.60     45.54           RANKING
   4      4     10       -5.49      1.68     45.45           RANKING
   4      5     12       -5.46      1.66     45.50           RANKING
   4      6     85       -5.30      0.51     45.75           RANKING
   4      7      5       -5.18      1.10     45.91           RANKING
   4      8     57       -5.16      0.94     45.94           RANKING
   4      9     36       -5.15      1.47     45.90           RANKING
   4     10      9       -4.91      0.97     45.71           RANKING
   4     11     19       -4.88      1.50     45.62           RANKING
   4     12     86       -4.61      1.42     46.32           RANKING
   4     13     26       -4.13      1.44     45.70           RANKING
   5      1      3       -5.45      0.00     53.43           RANKING
   6      1     42       -5.40      0.00     48.95           RANKING
   7      1     13       -5.23      0.00     48.89           RANKING
   7      2     40       -4.71      0.99     49.09           RANKING
   8      1     59       -5.19      0.00     47.74           RANKING
   8      2     41       -5.05      1.74     47.43           RANKING
   9      1      7       -4.95      0.00     43.09           RANKING
  10      1     22       -4.85      0.00     29.91           RANKING
  10      2     91       -2.82      1.63     29.70           RANKING
  11      1     73       -4.28      0.00     19.10           RANKING
  12      1     95       -4.27      0.00     34.46           RANKING
  13      1     79       -4.21      0.00     44.28           RANKING
  14      1     93       -4.19      0.00     14.76           RANKING
  15      1     23       -4.12      0.00     41.73           RANKING
  15      2     56       -3.97      1.14     42.46           RANKING
  16      1     69       -4.08      0.00     44.40           RANKING
  16      2     35       -3.09      1.92     43.30           RANKING
  17      1     83       -4.07      0.00     55.38           RANKING
  18      1     64       -4.06      0.00     31.98           RANKING
  19      1     60       -4.03      0.00     40.17           RANKING
  20      1    100       -4.03      0.00     42.58           RANKING
  21      1     50       -4.02      0.00     47.13           RANKING
  22      1     68       -4.02      0.00     39.92           RANKING
  23      1     97       -3.99      0.00     55.75           RANKING
  24      1     90       -3.95      0.00     27.52           RANKING
  25      1     72       -3.83      0.00     29.80           RANKING
  26      1     16       -3.82      0.00     42.38           RANKING
  27      1     54       -3.81      0.00     25.59           RANKING
  28      1     27       -3.77      0.00     42.90           RANKING
  29      1     94       -3.72      0.00     40.56           RANKING
  29      2     11       -3.26      1.86     41.65           RANKING
  30      1     78       -3.67      0.00     61.33           RANKING
  31      1     74       -3.58      0.00     51.01           RANKING
  31      2     15       -2.92      1.62     51.65           RANKING
  32      1     53       -3.54      0.00     60.94           RANKING
  33      1     48       -3.50      0.00     51.67           RANKING
  34      1     80       -3.49      0.00     23.55           RANKING
  35      1     63       -3.42      0.00     38.23           RANKING
  36      1     29       -3.40      0.00     29.72           RANKING
  37      1     28       -3.40      0.00     41.14           RANKING
  38      1     82       -3.32      0.00     61.61           RANKING
  39      1     75       -3.28      0.00     41.18           RANKING
  40      1     51       -3.24      0.00     45.06           RANKING
  41      1     58       -3.22      0.00     42.82           RANKING
  42      1     98       -3.18      0.00     22.49           RANKING
  43      1     38       -3.08      0.00     53.04           RANKING
  44      1     18       -2.97      0.00     45.20           RANKING
  45      1     30       -2.95      0.00     44.12           RANKING
  46      1     14       -2.92      0.00     47.31           RANKING
  46      2     87       -2.58      0.78     47.34           RANKING
  47      1     43       -2.92      0.00     34.11           RANKING
  48      1      2       -2.87      0.00     63.21           RANKING
  49      1     65       -2.85      0.00     37.68           RANKING
  50      1     76       -2.81      0.00     42.97           RANKING
  51      1     84       -2.79      0.00     30.20           RANKING
  52      1      8       -2.77      0.00     41.22           RANKING
  53      1     21       -2.77      0.00     41.37           RANKING
  54      1     66       -2.75      0.00     41.76           RANKING
  55      1     92       -2.74      0.00     28.75           RANKING
  56      1     32       -2.72      0.00     42.57           RANKING
  57      1     24       -2.68      0.00     35.89           RANKING
  58      1     81       -2.65      0.00     61.99           RANKING
  59      1     55       -2.63      0.00     49.07           RANKING
  60      1     44       -2.63      0.00     39.92           RANKING
  61      1      1       -2.55      0.00     25.49           RANKING
  62      1     49       -2.53      0.00     34.72           RANKING
  63      1     25       -2.51      0.00     42.90           RANKING
  64      1     20       -2.50      0.00     60.56           RANKING
  65      1     34       -2.29      0.00     52.14           RANKING
  66      1     96       -2.24      0.00     13.73           RANKING
  67      1     88       -2.18      0.00     30.50           RANKING
  68      1     71       -2.15      0.00     24.20           RANKING
  69      1     33       -2.14      0.00     30.40           RANKING
  70      1     52       -2.14      0.00     44.21           RANKING
  71      1     17       -2.02      0.00     26.88           RANKING
  72      1     77       -1.85      0.00     53.48           RANKING
  73      1     70       -1.66      0.00     61.08           RANKING
  74      1     46       -1.26      0.00     22.23           RANKING
  75      1     62       -1.25      0.00     36.04           RANKING
  76      1     99       -1.25      0.00     49.22           RANKING
_______________________________________________________________________



	INFORMATION ENTROPY ANALYSIS FOR THIS CLUSTERING
	________________________________________________


Information entropy for this clustering = 0.89  (rmstol = 2.00 Angstrom)

_______________________________________________________________________


	STATISTICAL MECHANICAL ANALYSIS
	_______________________________


Partition function, Q =   100.62            at Temperature, T = 298.15 K
Free energy,        A ~ -2732.16 kcal/mol   at Temperature, T = 298.15 K
Internal energy,    U =    -3.69 kcal/mol   at Temperature, T = 298.15 K
Entropy,            S =     9.15 kcal/mol/K at Temperature, T = 298.15 K

_______________________________________________________________________


	LOWEST ENERGY DOCKED CONFORMATION from EACH CLUSTER
	___________________________________________________



Keeping original residue number (specified in the input PDBQ file) for outputting.

MODEL       61
USER    Run = 61
USER    Cluster Rank = 1
USER    Number of conformations in this cluster = 2
USER  
USER    RMSD from reference structure       = 49.288 A
USER  
USER    Estimated Free Energy of Binding    =   -6.22 kcal/mol  [=(1)+(2)+(3)-(4)]
USER    Estimated Inhibition Constant, Ki   =   27.52 uM (micromolar)  [Temperature = 298.15 K]
USER    
USER    (1) Final Intermolecular Energy     =  -10.10 kcal/mol
USER        vdW + Hbond + desolv Energy     =  -10.02 kcal/mol
USER        Electrostatic Energy            =   -0.08 kcal/mol
USER    (2) Final Total Internal Energy     =   -4.58 kcal/mol
USER    (3) Torsional Free Energy           =   +3.88 kcal/mol
USER    (4) Unbound System's Energy  [=(2)] =   -4.58 kcal/mol
USER    
USER    
USER  
USER    DPF = D:/Protein_go_brrr/autodock/final/2DN3/heme/dock.dpf
USER    NEWDPF move	heme_opt.pdbqt
USER    NEWDPF about	0.153000 0.018000 -0.028000
USER    NEWDPF tran0	42.238682 28.383368 17.055916
USER    NEWDPF axisangle0	0.330526 0.068180 -0.941331 179.859953
USER    NEWDPF quaternion0	0.330526 0.068180 -0.941330 0.001222
USER    NEWDPF dihe0	154.08 147.24 -82.42 37.99 -141.56 58.97 153.57 86.27 15.77 -93.03 -70.78 -85.85 -2.49 
USER  
USER                              x       y       z    vdW   Elec        q     RMS 
ATOM      1  O   UNL d   1      46.293  26.362  20.829 -0.06 -0.24    -0.289    49.288
ATOM      2  O   UNL d   1      45.091  33.260  18.115 -0.08 -0.06    -0.289    49.288
ATOM      3  N   UNL d   1      43.843  27.053  18.501 -0.08 -0.11    -0.247    49.288
ATOM      4  N   UNL d   1      43.928  30.015  18.279 -0.17 -0.09    -0.247    49.288
ATOM      5  N   UNL d   1      41.413  29.890  16.891 -0.09 -0.13    -0.354    49.288
ATOM      6  N   UNL d   1      41.324  26.819  17.143 -0.14 -0.12    -0.354    49.288
ATOM      7  C   UNL d   1      44.487  25.076  19.798 -0.21 +0.05    +0.084    49.288
ATOM      8  C   UNL d   1      46.043  31.116  18.813 -0.16 +0.03    +0.084    49.288
ATOM      9  C   UNL d   1      45.207  29.833  18.757 -0.21 +0.03    +0.058    49.288
ATOM     10  C   UNL d   1      43.554  25.726  18.773 -0.22 +0.02    +0.058    49.288
ATOM     11  C   UNL d   1      45.367  26.264  20.044 -0.10 +0.13    +0.193    49.288
ATOM     12  C   UNL d   1      44.890  27.391  19.181 -0.11 +0.06    +0.109    49.288
ATOM     13  C   UNL d   1      44.991  32.065  18.314 -0.06 +0.06    +0.193    49.288
ATOM     14  C   UNL d   1      43.757  24.722  21.097 -0.28 +0.02    +0.026    49.288
ATOM     15  C   UNL d   1      45.667  28.647  19.185 -0.20 +0.03    +0.055    49.288
ATOM     16  C   UNL d   1      47.197  31.086  17.805 -0.18 +0.01    +0.026    49.288
ATOM     17  C   UNL d   1      43.754  31.274  18.034 -0.26 +0.03    +0.109    49.288
ATOM     18  C   UNL d   1      42.601  25.017  18.140 -0.40 +0.02    +0.050    49.288
ATOM     19  C   UNL d   1      41.749  25.511  17.119 -0.34 +0.01    +0.045    49.288
ATOM     20  C   UNL d   1      41.509  31.244  17.085 -0.40 +0.01    +0.045    49.288
ATOM     21  C   UNL d   1      42.534  31.951  17.570 -0.41 +0.01    +0.057    49.288
ATOM     22  C   UNL d   1      39.451  30.766  16.216 -0.32 -0.00    -0.019    49.288
ATOM     23  C   UNL d   1      40.207  29.506  16.370 -0.03 +0.02    +0.045    49.288
ATOM     24  C   UNL d   1      40.227  31.791  16.640 -0.29 -0.00    -0.022    49.288
ATOM     25  C   UNL d   1      40.439  27.058  16.117 -0.34 +0.01    +0.049    49.288
ATOM     26  C   UNL d   1      41.155  24.893  16.029 -0.39 -0.00    -0.018    49.288
ATOM     27  C   UNL d   1      40.344  25.880  15.389 -0.40 +0.00    +0.003    49.288
ATOM     28  C   UNL d   1      39.743  28.295  16.027 -0.15 +0.02    +0.052    49.288
ATOM     29  C   UNL d   1      39.914  33.248  16.671 -0.24 +0.01    +0.046    49.288
ATOM     30  C   UNL d   1      41.330  23.474  15.606 -0.52 +0.01    +0.046    49.288
ATOM     31  H   UNL d   1      42.206  29.279  17.052 +0.08 +0.06    +0.166    49.288
ATOM     32  H   UNL d   1      41.604  27.487  17.851 +0.14 +0.09    +0.166    49.288
ATOM     33  C   UNL d   1      45.313  23.894  19.278 -0.16 +0.08    +0.141    49.288
ATOM     34  C   UNL d   1      46.273  24.293  18.190 -0.13 +0.24    +0.306    49.288
ATOM     35  O   UNL d   1      46.029  24.342  16.997 -0.32 -0.26    -0.251    49.288
ATOM     36  O   UNL d   1      47.491  24.611  18.665 -0.02 -0.34    -0.481    49.288
ATOM     37  H   UNL d   1      47.323  24.944  19.572 +0.07 +0.18    +0.295    49.288
ATOM     38  C   UNL d   1      39.540  25.659  14.225 -0.57 +0.00    +0.017    49.288
ATOM     39  C   UNL d   1      38.252  26.011  14.096 -0.48 +0.02    +0.092    49.288
ATOM     40  C   UNL d   1      37.544  25.742  12.841 -0.23 +0.07    +0.330    49.288
ATOM     41  O   UNL d   1      37.396  24.671  12.285 -0.30 -0.06    -0.246    49.288
ATOM     42  O   UNL d   1      37.037  26.881  12.344 -0.05 -0.09    -0.477    49.288
ATOM     43  H   UNL d   1      36.812  27.405  13.141 +0.25 +0.05    +0.295    49.288
ATOM     44  C   UNL d   1      46.534  31.523  20.206 -0.14 +0.08    +0.141    49.288
ATOM     45  C   UNL d   1      46.524  33.013  20.427 -0.09 +0.11    +0.306    49.288
ATOM     46  O   UNL d   1      45.770  33.634  21.156 -0.16 -0.08    -0.251    49.288
ATOM     47  O   UNL d   1      47.454  33.649  19.692 +0.00 -0.11    -0.481    49.288
ATOM     48  H   UNL d   1      46.970  33.963  18.898 +0.09 +0.06    +0.295    49.288
ATOM     49  C   UNL d   1      38.048  30.848  15.689 -0.35 +0.01    +0.048    49.288
ATOM     50  C   UNL d   1      38.018  30.921  14.162 -0.37 +0.02    +0.125    49.288
ATOM     51  C   UNL d   1      37.474  29.650  13.575 -0.27 +0.04    +0.305    49.288
ATOM     52  O   UNL d   1      36.305  29.320  13.472 -0.27 -0.03    -0.251    49.288
ATOM     53  O   UNL d   1      38.455  28.832  13.145 -0.10 -0.08    -0.481    49.288
ATOM     54  H   UNL d   1      38.092  28.435  12.326 +0.22 +0.05    +0.295    49.288
TER
ENDMDL
MODEL       39
USER    Run = 39
USER    Cluster Rank = 2
USER    Number of conformations in this cluster = 4
USER  
USER    RMSD from reference structure       = 61.327 A
USER  
USER    Estimated Free Energy of Binding    =   -5.82 kcal/mol  [=(1)+(2)+(3)-(4)]
USER    Estimated Inhibition Constant, Ki   =   54.09 uM (micromolar)  [Temperature = 298.15 K]
USER    
USER    (1) Final Intermolecular Energy     =   -9.70 kcal/mol
USER        vdW + Hbond + desolv Energy     =   -9.42 kcal/mol
USER        Electrostatic Energy            =   -0.28 kcal/mol
USER    (2) Final Total Internal Energy     =   -1.70 kcal/mol
USER    (3) Torsional Free Energy           =   +3.88 kcal/mol
USER    (4) Unbound System's Energy  [=(2)] =   -1.70 kcal/mol
USER    
USER    
USER  
USER    DPF = D:/Protein_go_brrr/autodock/final/2DN3/heme/dock.dpf
USER    NEWDPF move	heme_opt.pdbqt
USER    NEWDPF about	0.153000 0.018000 -0.028000
USER    NEWDPF tran0	36.178992 49.451217 22.672346
USER    NEWDPF axisangle0	0.203105 -0.808802 -0.551894 90.568017
USER    NEWDPF quaternion0	0.144327 -0.574737 -0.392178 0.703593
USER    NEWDPF dihe0	-101.49 31.30 -144.09 31.96 42.06 177.09 -91.37 150.24 78.06 -142.22 -19.78 -102.68 -164.86 
USER  
USER                              x       y       z    vdW   Elec        q     RMS 
ATOM      1  O   UNL d   1      35.239  48.808  28.457 -0.08 -0.02    -0.289    61.327
ATOM      2  O   UNL d   1      38.475  44.240  23.452 -0.36 -0.06    -0.289    61.327
ATOM      3  N   UNL d   1      35.447  49.564  25.098 -0.03 +0.00    -0.247    61.327
ATOM      4  N   UNL d   1      37.118  47.364  24.005 -0.13 -0.02    -0.247    61.327
ATOM      5  N   UNL d   1      37.422  48.914  21.602 -0.07 -0.05    -0.354    61.327
ATOM      6  N   UNL d   1      35.703  51.200  22.751 -0.06 -0.04    -0.354    61.327
ATOM      7  C   UNL d   1      34.690  50.764  27.097 -0.09 +0.00    +0.084    61.327
ATOM      8  C   UNL d   1      37.097  45.239  25.211 -0.28 +0.00    +0.084    61.327
ATOM      9  C   UNL d   1      36.671  46.709  25.130 -0.27 +0.00    +0.058    61.327
ATOM     10  C   UNL d   1      34.926  50.752  25.584 -0.07 +0.00    +0.058    61.327
ATOM     11  C   UNL d   1      35.152  49.366  27.378 -0.10 +0.00    +0.193    61.327
ATOM     12  C   UNL d   1      35.561  48.735  26.083 +0.00 -0.00    +0.109    61.327
ATOM     13  C   UNL d   1      37.899  45.192  23.941 -0.16 +0.02    +0.193    61.327
ATOM     14  C   UNL d   1      35.618  51.746  27.816 -0.03 +0.00    +0.026    61.327
ATOM     15  C   UNL d   1      35.968  47.315  26.100 -0.19 +0.00    +0.055    61.327
ATOM     16  C   UNL d   1      35.900  44.293  25.073 -0.48 -0.00    +0.026    61.327
ATOM     17  C   UNL d   1      37.838  46.544  23.309 -0.19 +0.01    +0.109    61.327
ATOM     18  C   UNL d   1      34.563  51.790  24.807 -0.14 +0.00    +0.050    61.327
ATOM     19  C   UNL d   1      34.664  51.835  23.394 -0.15 +0.01    +0.045    61.327
ATOM     20  C   UNL d   1      38.338  47.923  21.361 -0.22 +0.01    +0.045    61.327
ATOM     21  C   UNL d   1      38.574  46.811  22.064 -0.26 +0.01    +0.057    61.327
ATOM     22  C   UNL d   1      38.515  49.506  19.724 -0.25 -0.01    -0.019    61.327
ATOM     23  C   UNL d   1      37.454  49.914  20.667 -0.23 +0.01    +0.045    61.327
ATOM     24  C   UNL d   1      39.033  48.327  20.139 -0.27 -0.01    -0.022    61.327
ATOM     25  C   UNL d   1      35.658  51.447  21.399 -0.22 +0.01    +0.049    61.327
ATOM     26  C   UNL d   1      33.905  52.481  22.431 -0.21 -0.00    -0.018    61.327
ATOM     27  C   UNL d   1      34.526  52.216  21.171 -0.26 +0.00    +0.003    61.327
ATOM     28  C   UNL d   1      36.715  51.027  20.546 -0.26 +0.01    +0.052    61.327
ATOM     29  C   UNL d   1      40.114  47.511  19.515 -0.39 +0.01    +0.046    61.327
ATOM     30  C   UNL d   1      32.675  53.292  22.663 -0.19 +0.01    +0.046    61.327
ATOM     31  H   UNL d   1      36.751  48.837  22.359 +0.07 +0.02    +0.166    61.327
ATOM     32  H   UNL d   1      36.415  50.664  23.233 +0.05 +0.02    +0.166    61.327
ATOM     33  C   UNL d   1      33.232  50.946  27.533 -0.11 +0.00    +0.141    61.327
ATOM     34  C   UNL d   1      32.765  49.858  28.462 -0.10 +0.01    +0.306    61.327
ATOM     35  O   UNL d   1      32.741  49.912  29.680 -0.04 -0.01    -0.251    61.327
ATOM     36  O   UNL d   1      32.351  48.760  27.806 -0.16 +0.04    -0.481    61.327
ATOM     37  H   UNL d   1      33.177  48.319  27.515 -0.18 -0.05    +0.295    61.327
ATOM     38  C   UNL d   1      34.070  52.710  19.906 -0.22 +0.00    +0.017    61.327
ATOM     39  C   UNL d   1      34.734  53.582  19.131 -0.25 +0.02    +0.092    61.327
ATOM     40  C   UNL d   1      34.165  53.996  17.846 -0.22 +0.07    +0.330    61.327
ATOM     41  O   UNL d   1      34.598  54.831  17.076 -0.21 -0.05    -0.246    61.327
ATOM     42  O   UNL d   1      33.045  53.301  17.592 -0.17 -0.05    -0.477    61.327
ATOM     43  H   UNL d   1      33.028  53.233  16.615 -0.37 +0.00    +0.295    61.327
ATOM     44  C   UNL d   1      37.961  44.867  26.420 -0.18 +0.01    +0.141    61.327
ATOM     45  C   UNL d   1      38.114  43.381  26.607 -0.13 +0.03    +0.306    61.327
ATOM     46  O   UNL d   1      38.027  42.768  27.656 -0.24 -0.04    -0.251    61.327
ATOM     47  O   UNL d   1      38.398  42.744  25.456 +0.00 -0.09    -0.481    61.327
ATOM     48  H   UNL d   1      38.966  43.371  24.959 +0.16 +0.04    +0.295    61.327
ATOM     49  C   UNL d   1      38.929  50.308  18.525 -0.26 +0.03    +0.048    61.327
ATOM     50  C   UNL d   1      40.337  50.882  18.683 -0.20 +0.05    +0.125    61.327
ATOM     51  C   UNL d   1      40.910  51.271  17.350 -0.20 +0.15    +0.305    61.327
ATOM     52  O   UNL d   1      41.631  52.221  17.100 -0.11 -0.08    -0.251    61.327
ATOM     53  O   UNL d   1      40.525  50.429  16.370 -0.66 -0.52    -0.481    61.327
ATOM     54  H   UNL d   1      41.282  50.427  15.747 -0.06 +0.21    +0.295    61.327
TER
ENDMDL
MODEL       31
USER    Run = 31
USER    Cluster Rank = 3
USER    Number of conformations in this cluster = 1
USER  
USER    RMSD from reference structure       = 33.782 A
USER  
USER    Estimated Free Energy of Binding    =   -5.76 kcal/mol  [=(1)+(2)+(3)-(4)]
USER    Estimated Inhibition Constant, Ki   =   60.01 uM (micromolar)  [Temperature = 298.15 K]
USER    
USER    (1) Final Intermolecular Energy     =   -9.64 kcal/mol
USER        vdW + Hbond + desolv Energy     =   -9.45 kcal/mol
USER        Electrostatic Energy            =   -0.19 kcal/mol
USER    (2) Final Total Internal Energy     =   -3.49 kcal/mol
USER    (3) Torsional Free Energy           =   +3.88 kcal/mol
USER    (4) Unbound System's Energy  [=(2)] =   -3.49 kcal/mol
USER    
USER    
USER  
USER    DPF = D:/Protein_go_brrr/autodock/final/2DN3/heme/dock.dpf
USER    NEWDPF move	heme_opt.pdbqt
USER    NEWDPF about	0.153000 0.018000 -0.028000
USER    NEWDPF tran0	6.327357 37.104601 -2.041637
USER    NEWDPF axisangle0	0.949097 -0.297925 0.102253 -133.328985
USER    NEWDPF quaternion0	0.871462 -0.273555 0.093889 -0.396115
USER    NEWDPF dihe0	-69.18 161.44 97.72 16.70 42.15 115.25 -38.02 123.93 114.20 -106.11 -67.15 -129.07 -12.09 
USER  
USER                              x       y       z    vdW   Elec        q     RMS 
ATOM      1  O   UNL d   1       0.690  37.976  -3.530 -0.03 -0.18    -0.289    33.782
ATOM      2  O   UNL d   1       6.870  41.945  -5.093 -0.19 -0.01    -0.289    33.782
ATOM      3  N   UNL d   1       3.805  37.140  -2.310 -0.08 -0.12    -0.247    33.782
ATOM      4  N   UNL d   1       5.613  39.058  -3.681 -0.10 -0.05    -0.247    33.782
ATOM      5  N   UNL d   1       7.830  37.440  -2.823 -0.06 -0.05    -0.354    33.782
ATOM      6  N   UNL d   1       5.946  35.444  -1.419 -0.11 -0.07    -0.354    33.782
ATOM      7  C   UNL d   1       1.588  36.096  -2.251 -0.08 +0.05    +0.084    33.782
ATOM      8  C   UNL d   1       4.648  41.184  -4.401 -0.11 +0.02    +0.084    33.782
ATOM      9  C   UNL d   1       4.453  39.790  -3.797 -0.11 +0.02    +0.058    33.782
ATOM     10  C   UNL d   1       3.072  36.048  -1.876 -0.14 +0.03    +0.058    33.782
ATOM     11  C   UNL d   1       1.609  37.418  -2.958 -0.06 +0.14    +0.193    33.782
ATOM     12  C   UNL d   1       3.003  37.961  -2.903 -0.11 +0.07    +0.109    33.782
ATOM     13  C   UNL d   1       6.129  41.094  -4.641 -0.14 +0.02    +0.193    33.782
ATOM     14  C   UNL d   1       1.214  35.003  -3.256 -0.05 +0.01    +0.026    33.782
ATOM     15  C   UNL d   1       3.247  39.308  -3.459 -0.11 +0.03    +0.055    33.782
ATOM     16  C   UNL d   1       4.383  42.290  -3.375 -0.21 +0.01    +0.026    33.782
ATOM     17  C   UNL d   1       6.590  39.753  -4.168 -0.19 +0.01    +0.109    33.782
ATOM     18  C   UNL d   1       3.572  35.059  -1.111 -0.20 +0.02    +0.050    33.782
ATOM     19  C   UNL d   1       4.909  34.976  -0.644 -0.24 +0.01    +0.045    33.782
ATOM     20  C   UNL d   1       8.476  38.284  -3.688 -0.34 +0.00    +0.045    33.782
ATOM     21  C   UNL d   1       8.000  39.363  -4.318 -0.33 -0.00    +0.057    33.782
ATOM     22  C   UNL d   1       9.936  36.664  -3.010 -0.36 -0.00    -0.019    33.782
ATOM     23  C   UNL d   1       8.630  36.429  -2.361 -0.30 +0.01    +0.045    33.782
ATOM     24  C   UNL d   1       9.838  37.764  -3.793 -0.41 +0.00    -0.022    33.782
ATOM     25  C   UNL d   1       7.155  35.182  -0.818 -0.22 +0.01    +0.049    33.782
ATOM     26  C   UNL d   1       5.456  34.429   0.507 -0.33 -0.00    -0.018    33.782
ATOM     27  C   UNL d   1       6.873  34.580   0.400 -0.38 +0.00    +0.003    33.782
ATOM     28  C   UNL d   1       8.377  35.432  -1.500 -0.26 +0.01    +0.052    33.782
ATOM     29  C   UNL d   1      10.887  38.404  -4.637 -0.26 -0.01    +0.046    33.782
ATOM     30  C   UNL d   1       4.710  33.807   1.638 -0.38 +0.01    +0.046    33.782
ATOM     31  H   UNL d   1       6.880  37.625  -2.518 +0.08 +0.03    +0.166    33.782
ATOM     32  H   UNL d   1       5.816  35.881  -2.324 +0.06 +0.03    +0.166    33.782
ATOM     33  C   UNL d   1       0.613  36.132  -1.070 -0.09 +0.14    +0.141    33.782
ATOM     34  C   UNL d   1      -0.758  36.610  -1.466 -0.04 +0.28    +0.306    33.782
ATOM     35  O   UNL d   1      -1.714  35.905  -1.744 -0.02 -0.11    -0.251    33.782
ATOM     36  O   UNL d   1      -0.854  37.951  -1.489 -0.22 -0.73    -0.481    33.782
ATOM     37  H   UNL d   1      -0.906  38.178  -2.442 +0.02 +0.28    +0.295    33.782
ATOM     38  C   UNL d   1       7.826  34.135   1.372 -0.43 +0.00    +0.017    33.782
ATOM     39  C   UNL d   1       8.371  32.910   1.417 -0.34 +0.01    +0.092    33.782
ATOM     40  C   UNL d   1       9.351  32.585   2.457 -0.27 +0.02    +0.330    33.782
ATOM     41  O   UNL d   1       9.227  31.797   3.375 -0.34 -0.01    -0.246    33.782
ATOM     42  O   UNL d   1      10.477  33.291   2.267 -0.13 -0.04    -0.477    33.782
ATOM     43  H   UNL d   1      10.420  33.578   1.333 +0.17 +0.04    +0.295    33.782
ATOM     44  C   UNL d   1       3.896  41.449  -5.709 -0.04 +0.03    +0.141    33.782
ATOM     45  C   UNL d   1       4.524  42.529  -6.548 -0.04 +0.09    +0.306    33.782
ATOM     46  O   UNL d   1       4.379  43.732  -6.413 -0.45 -0.12    -0.251    33.782
ATOM     47  O   UNL d   1       5.288  42.033  -7.538 -0.08 -0.08    -0.481    33.782
ATOM     48  H   UNL d   1       6.152  41.845  -7.114 +0.08 +0.03    +0.295    33.782
ATOM     49  C   UNL d   1      11.141  35.791  -2.818 -0.38 +0.00    +0.048    33.782
ATOM     50  C   UNL d   1      12.072  36.337  -1.735 -0.36 +0.01    +0.125    33.782
ATOM     51  C   UNL d   1      12.115  35.415  -0.550 -0.21 +0.03    +0.305    33.782
ATOM     52  O   UNL d   1      13.080  34.814  -0.110 -0.25 -0.02    -0.251    33.782
ATOM     53  O   UNL d   1      10.905  35.282   0.030 -0.47 -0.12    -0.481    33.782
ATOM     54  H   UNL d   1      11.104  34.898   0.910 +0.17 +0.05    +0.295    33.782
TER
ENDMDL
MODEL        6
USER    Run = 6
USER    Cluster Rank = 4
USER    Number of conformations in this cluster = 13
USER  
USER    RMSD from reference structure       = 45.662 A
USER  
USER    Estimated Free Energy of Binding    =   -5.66 kcal/mol  [=(1)+(2)+(3)-(4)]
USER    Estimated Inhibition Constant, Ki   =   71.06 uM (micromolar)  [Temperature = 298.15 K]
USER    
USER    (1) Final Intermolecular Energy     =   -9.54 kcal/mol
USER        vdW + Hbond + desolv Energy     =   -9.47 kcal/mol
USER        Electrostatic Energy            =   -0.07 kcal/mol
USER    (2) Final Total Internal Energy     =   -4.02 kcal/mol
USER    (3) Torsional Free Energy           =   +3.88 kcal/mol
USER    (4) Unbound System's Energy  [=(2)] =   -4.02 kcal/mol
USER    
USER    
USER  
USER    DPF = D:/Protein_go_brrr/autodock/final/2DN3/heme/dock.dpf
USER    NEWDPF move	heme_opt.pdbqt
USER    NEWDPF about	0.153000 0.018000 -0.028000
USER    NEWDPF tran0	12.413319 40.156278 25.101384
USER    NEWDPF axisangle0	-0.767629 0.471900 -0.433653 146.865998
USER    NEWDPF quaternion0	-0.735763 0.452310 -0.415651 0.285136
USER    NEWDPF dihe0	96.08 -179.61 -1.97 20.02 -132.14 19.62 -31.94 32.26 36.88 131.82 -67.30 -72.34 2.34 
USER  
USER                              x       y       z    vdW   Elec        q     RMS 
ATOM      1  O   UNL d   1       9.742  41.322  19.977 -0.19 +0.10    -0.289    45.662
ATOM      2  O   UNL d   1      15.577  44.626  23.356 -0.15 +0.05    -0.289    45.662
ATOM      3  N   UNL d   1      10.888  40.364  23.086 -0.18 +0.07    -0.247    45.662
ATOM      4  N   UNL d   1      13.347  41.995  23.440 -0.08 +0.09    -0.247    45.662
ATOM      5  N   UNL d   1      14.043  40.296  25.652 -0.02 +0.16    -0.354    45.662
ATOM      6  N   UNL d   1      11.500  38.598  25.266 -0.15 +0.16    -0.354    45.662
ATOM      7  C   UNL d   1       9.204  39.508  21.524 -0.37 -0.02    +0.084    45.662
ATOM      8  C   UNL d   1      13.468  44.112  22.226 -0.18 -0.02    +0.084    45.662
ATOM      9  C   UNL d   1      12.727  42.801  22.511 -0.24 -0.01    +0.058    45.662
ATOM     10  C   UNL d   1       9.941  39.379  22.861 -0.33 -0.01    +0.058    45.662
ATOM     11  C   UNL d   1       9.889  40.751  21.042 -0.19 -0.05    +0.193    45.662
ATOM     12  C   UNL d   1      10.869  41.186  22.087 -0.23 -0.03    +0.109    45.662
ATOM     13  C   UNL d   1      14.641  43.883  23.137 -0.18 -0.04    +0.193    45.662
ATOM     14  C   UNL d   1       9.536  38.357  20.571 -0.61 -0.00    +0.026    45.662
ATOM     15  C   UNL d   1      11.601  42.450  21.871 -0.25 -0.01    +0.055    45.662
ATOM     16  C   UNL d   1      12.684  45.328  22.729 -0.07 -0.00    +0.026    45.662
ATOM     17  C   UNL d   1      14.450  42.562  23.808 -0.24 -0.03    +0.109    45.662
ATOM     18  C   UNL d   1       9.609  38.432  23.758 -0.27 -0.01    +0.050    45.662
ATOM     19  C   UNL d   1      10.176  38.288  25.050 -0.26 -0.01    +0.045    45.662
ATOM     20  C   UNL d   1      15.211  41.001  25.520 -0.25 -0.01    +0.045    45.662
ATOM     21  C   UNL d   1      15.473  42.049  24.732 -0.31 -0.02    +0.057    45.662
ATOM     22  C   UNL d   1      15.521  39.343  27.060 -0.23 +0.00    -0.019    45.662
ATOM     23  C   UNL d   1      14.133  39.275  26.560 -0.25 -0.02    +0.045    45.662
ATOM     24  C   UNL d   1      16.154  40.367  26.441 -0.29 +0.00    -0.022    45.662
ATOM     25  C   UNL d   1      11.861  38.300  26.560 -0.27 -0.02    +0.049    45.662
ATOM     26  C   UNL d   1       9.654  37.813  26.243 -0.23 +0.00    -0.018    45.662
ATOM     27  C   UNL d   1      10.717  37.841  27.198 -0.20 -0.00    +0.003    45.662
ATOM     28  C   UNL d   1      13.217  38.387  26.976 -0.33 -0.03    +0.052    45.662
ATOM     29  C   UNL d   1      17.556  40.840  26.618 -0.29 -0.01    +0.046    45.662
ATOM     30  C   UNL d   1       8.253  37.361  26.484 -0.23 -0.00    +0.046    45.662
ATOM     31  H   UNL d   1      13.198  40.584  25.171 -0.28 -0.09    +0.166    45.662
ATOM     32  H   UNL d   1      12.117  38.955  24.546 -0.39 -0.12    +0.166    45.662
ATOM     33  C   UNL d   1       7.691  39.733  21.627 -0.30 -0.03    +0.141    45.662
ATOM     34  C   UNL d   1       7.333  41.183  21.817 -0.10 -0.08    +0.306    45.662
ATOM     35  O   UNL d   1       7.409  41.813  22.857 -0.04 +0.06    -0.251    45.662
ATOM     36  O   UNL d   1       6.900  41.762  20.683 -0.17 +0.18    -0.481    45.662
ATOM     37  H   UNL d   1       7.718  42.065  20.233 +0.10 -0.18    +0.295    45.662
ATOM     38  C   UNL d   1      10.613  37.417  28.561 -0.14 -0.01    +0.017    45.662
ATOM     39  C   UNL d   1      11.582  36.803  29.257 -0.11 -0.05    +0.092    45.662
ATOM     40  C   UNL d   1      11.354  36.435  30.657 -0.04 -0.07    +0.330    45.662
ATOM     41  O   UNL d   1      10.289  36.341  31.237 -0.02 +0.02    -0.246    45.662
ATOM     42  O   UNL d   1      12.524  36.187  31.266 -0.02 +0.09    -0.477    45.662
ATOM     43  H   UNL d   1      13.190  36.339  30.565 +0.07 -0.08    +0.295    45.662
ATOM     44  C   UNL d   1      13.928  44.310  20.778 -0.18 -0.03    +0.141    45.662
ATOM     45  C   UNL d   1      12.841  44.828  19.874 -0.12 -0.08    +0.306    45.662
ATOM     46  O   UNL d   1      11.910  44.188  19.417 -0.15 +0.10    -0.251    45.662
ATOM     47  O   UNL d   1      13.001  46.128  19.570 -0.01 +0.12    -0.481    45.662
ATOM     48  H   UNL d   1      12.268  46.330  18.950 +0.07 -0.09    +0.295    45.662
ATOM     49  C   UNL d   1      16.098  38.400  28.075 -0.24 -0.01    +0.048    45.662
ATOM     50  C   UNL d   1      15.713  38.794  29.501 -0.13 -0.01    +0.125    45.662
ATOM     51  C   UNL d   1      14.813  37.761  30.118 -0.07 -0.04    +0.305    45.662
ATOM     52  O   UNL d   1      14.741  36.577  29.841 -0.17 +0.05    -0.251    45.662
ATOM     53  O   UNL d   1      14.017  38.290  31.069 +0.01 +0.05    -0.481    45.662
ATOM     54  H   UNL d   1      13.733  37.516  31.599 +0.04 -0.03    +0.295    45.662
TER
ENDMDL
MODEL        3
USER    Run = 3
USER    Cluster Rank = 5
USER    Number of conformations in this cluster = 1
USER  
USER    RMSD from reference structure       = 53.429 A
USER  
USER    Estimated Free Energy of Binding    =   -5.45 kcal/mol  [=(1)+(2)+(3)-(4)]
USER    Estimated Inhibition Constant, Ki   =  100.85 uM (micromolar)  [Temperature = 298.15 K]
USER    
USER    (1) Final Intermolecular Energy     =   -9.33 kcal/mol
USER        vdW + Hbond + desolv Energy     =   -8.76 kcal/mol
USER        Electrostatic Energy            =   -0.57 kcal/mol
USER    (2) Final Total Internal Energy     =   -2.57 kcal/mol
USER    (3) Torsional Free Energy           =   +3.88 kcal/mol
USER    (4) Unbound System's Energy  [=(2)] =   -2.57 kcal/mol
USER    
USER    
USER  
USER    DPF = D:/Protein_go_brrr/autodock/final/2DN3/heme/dock.dpf
USER    NEWDPF move	heme_opt.pdbqt
USER    NEWDPF about	0.153000 0.018000 -0.028000
USER    NEWDPF tran0	22.801157 43.794307 28.513275
USER    NEWDPF axisangle0	-0.948993 -0.306315 -0.074721 152.034208
USER    NEWDPF quaternion0	-0.920872 -0.297238 -0.072507 0.241632
USER    NEWDPF dihe0	106.14 49.62 101.66 -114.58 -131.02 168.87 -45.15 127.04 33.91 -124.68 88.36 -72.95 10.07 
USER  
USER                              x       y       z    vdW   Elec        q     RMS 
ATOM      1  O   UNL d   1      19.286  39.072  28.829 -0.49 -0.03    -0.289    53.429
ATOM      2  O   UNL d   1      17.721  46.305  27.553 -0.04 +0.02    -0.289    53.429
ATOM      3  N   UNL d   1      21.694  41.540  28.871 -0.11 +0.04    -0.247    53.429
ATOM      4  N   UNL d   1      20.213  43.956  27.978 -0.09 +0.03    -0.247    53.429
ATOM      5  N   UNL d   1      22.748  45.258  27.600 -0.11 +0.11    -0.354    53.429
ATOM      6  N   UNL d   1      24.278  42.741  28.509 -0.11 +0.13    -0.354    53.429
ATOM      7  C   UNL d   1      21.722  39.095  29.029 -0.27 -0.01    +0.084    53.429
ATOM      8  C   UNL d   1      17.804  44.005  28.387 -0.06 -0.01    +0.084    53.429
ATOM      9  C   UNL d   1      19.129  43.236  28.428 -0.09 -0.00    +0.058    53.429
ATOM     10  C   UNL d   1      22.494  40.417  29.002 -0.25 -0.01    +0.058    53.429
ATOM     11  C   UNL d   1      20.343  39.671  28.909 -0.17 -0.01    +0.193    53.429
ATOM     12  C   UNL d   1      20.458  41.162  28.847 -0.13 -0.01    +0.109    53.429
ATOM     13  C   UNL d   1      18.331  45.282  27.796 -0.06 -0.01    +0.193    53.429
ATOM     14  C   UNL d   1      22.009  38.236  27.794 -0.43 -0.01    +0.026    53.429
ATOM     15  C   UNL d   1      19.213  41.955  28.820 -0.10 -0.00    +0.055    53.429
ATOM     16  C   UNL d   1      17.274  44.297  29.794 -0.02 -0.00    +0.026    53.429
ATOM     17  C   UNL d   1      19.802  45.120  27.588 -0.02 -0.01    +0.109    53.429
ATOM     18  C   UNL d   1      23.827  40.457  29.183 -0.20 -0.01    +0.050    53.429
ATOM     19  C   UNL d   1      24.612  41.635  29.258 -0.28 -0.01    +0.045    53.429
ATOM     20  C   UNL d   1      21.921  46.177  27.008 -0.26 -0.01    +0.045    53.429
ATOM     21  C   UNL d   1      20.585  46.204  26.977 -0.20 -0.01    +0.057    53.429
ATOM     22  C   UNL d   1      24.090  46.794  26.644 -0.31 +0.01    -0.019    53.429
ATOM     23  C   UNL d   1      24.077  45.546  27.433 -0.20 -0.02    +0.045    53.429
ATOM     24  C   UNL d   1      22.811  47.163  26.397 -0.34 +0.01    -0.022    53.429
ATOM     25  C   UNL d   1      25.220  43.732  28.664 -0.25 -0.01    +0.049    53.429
ATOM     26  C   UNL d   1      25.781  41.928  29.944 -0.28 +0.01    -0.018    53.429
ATOM     27  C   UNL d   1      26.149  43.260  29.581 -0.27 -0.00    +0.003    53.429
ATOM     28  C   UNL d   1      25.175  44.911  27.871 -0.17 -0.02    +0.052    53.429
ATOM     29  C   UNL d   1      22.312  48.354  25.652 -0.20 -0.03    +0.046    53.429
ATOM     30  C   UNL d   1      26.511  41.028  30.883 -0.15 -0.02    +0.046    53.429
ATOM     31  H   UNL d   1      22.376  44.501  28.164 +0.02 -0.04    +0.166    53.429
ATOM     32  H   UNL d   1      23.468  42.783  27.903 -0.44 -0.10    +0.166    53.429
ATOM     33  C   UNL d   1      21.855  38.282  30.321 -0.18 +0.01    +0.141    53.429
ATOM     34  C   UNL d   1      20.933  38.768  31.408 -0.07 +0.02    +0.306    53.429
ATOM     35  O   UNL d   1      21.093  39.760  32.098 -0.03 -0.00    -0.251    53.429
ATOM     36  O   UNL d   1      19.857  37.978  31.565 -0.05 -0.08    -0.481    53.429
ATOM     37  H   UNL d   1      19.271  38.206  30.813 +0.07 +0.04    +0.295    53.429
ATOM     38  C   UNL d   1      27.309  43.954  30.054 -0.23 -0.00    +0.017    53.429
ATOM     39  C   UNL d   1      28.052  44.804  29.329 -0.30 -0.02    +0.092    53.429
ATOM     40  C   UNL d   1      29.209  45.464  29.938 -0.16 -0.05    +0.330    53.429
ATOM     41  O   UNL d   1      30.098  46.075  29.376 -0.27 +0.05    -0.246    53.429
ATOM     42  O   UNL d   1      29.173  45.320  31.272 -0.11 +0.01    -0.477    53.429
ATOM     43  H   UNL d   1      29.312  46.229  31.610 +0.07 -0.01    +0.295    53.429
ATOM     44  C   UNL d   1      16.714  43.398  27.498 -0.07 -0.01    +0.141    53.429
ATOM     45  C   UNL d   1      15.487  44.262  27.389 -0.02 -0.03    +0.306    53.429
ATOM     46  O   UNL d   1      14.514  44.239  28.122 -0.01 +0.02    -0.251    53.429
ATOM     47  O   UNL d   1      15.538  45.097  26.336 -0.01 +0.04    -0.481    53.429
ATOM     48  H   UNL d   1      16.115  45.834  26.631 +0.04 -0.02    +0.295    53.429
ATOM     49  C   UNL d   1      25.340  47.494  26.197 -0.25 -0.03    +0.048    53.429
ATOM     50  C   UNL d   1      26.041  48.202  27.356 -0.25 -0.02    +0.125    53.429
ATOM     51  C   UNL d   1      25.558  49.617  27.492 -0.13 +0.04    +0.305    53.429
ATOM     52  O   UNL d   1      25.025  50.131  28.461 -0.04 -0.03    -0.251    53.429
ATOM     53  O   UNL d   1      25.764  50.331  26.368 -0.35 -0.41    -0.481    53.429
ATOM     54  H   UNL d   1      25.190  49.898  25.702 -0.32 -0.06    +0.295    53.429
TER
ENDMDL
MODEL       42
USER    Run = 42
USER    Cluster Rank = 6
USER    Number of conformations in this cluster = 1
USER  
USER    RMSD from reference structure       = 48.950 A
USER  
USER    Estimated Free Energy of Binding    =   -5.40 kcal/mol  [=(1)+(2)+(3)-(4)]
USER    Estimated Inhibition Constant, Ki   =  109.38 uM (micromolar)  [Temperature = 298.15 K]
USER    
USER    (1) Final Intermolecular Energy     =   -9.28 kcal/mol
USER        vdW + Hbond + desolv Energy     =   -9.24 kcal/mol
USER        Electrostatic Energy            =   -0.05 kcal/mol
USER    (2) Final Total Internal Energy     =   -1.81 kcal/mol
USER    (3) Torsional Free Energy           =   +3.88 kcal/mol
USER    (4) Unbound System's Energy  [=(2)] =   -1.81 kcal/mol
USER    
USER    
USER  
USER    DPF = D:/Protein_go_brrr/autodock/final/2DN3/heme/dock.dpf
USER    NEWDPF move	heme_opt.pdbqt
USER    NEWDPF about	0.153000 0.018000 -0.028000
USER    NEWDPF tran0	42.838707 26.173607 17.696579
USER    NEWDPF axisangle0	0.252562 -0.967207 -0.026885 146.246879
USER    NEWDPF quaternion0	0.241685 -0.925552 -0.025727 0.290311
USER    NEWDPF dihe0	87.72 26.14 -125.76 135.41 4.69 -120.97 122.06 1.55 -131.00 -23.06 -65.27 -85.71 -153.11 
USER  
USER                              x       y       z    vdW   Elec        q     RMS 
ATOM      1  O   UNL d   1      46.408  30.211  20.087 -0.14 -0.22    -0.289    48.950
ATOM      2  O   UNL d   1      46.149  22.752  20.917 -0.14 -0.14    -0.289    48.950
ATOM      3  N   UNL d   1      44.018  28.244  18.566 +0.10 -0.11    -0.247    48.950
ATOM      4  N   UNL d   1      44.892  25.480  19.218 -0.09 -0.13    -0.247    48.950
ATOM      5  N   UNL d   1      43.052  24.527  17.225 -0.13 -0.13    -0.354    48.950
ATOM      6  N   UNL d   1      42.165  27.399  16.541 -0.18 -0.12    -0.354    48.950
ATOM      7  C   UNL d   1      44.628  30.616  18.461 -0.24 +0.03    +0.084    48.950
ATOM      8  C   UNL d   1      46.219  25.177  21.247 -0.10 +0.06    +0.084    48.950
ATOM      9  C   UNL d   1      45.533  26.121  20.255 -0.14 +0.04    +0.058    48.950
ATOM     10  C   UNL d   1      43.730  29.469  17.987 -0.23 +0.02    +0.058    48.950
ATOM     11  C   UNL d   1      45.463  29.825  19.423 -0.15 +0.12    +0.193    48.950
ATOM     12  C   UNL d   1      44.979  28.409  19.415 -0.09 +0.07    +0.109    48.950
ATOM     13  C   UNL d   1      45.881  23.883  20.561 -0.08 +0.11    +0.193    48.950
ATOM     14  C   UNL d   1      45.529  31.141  17.340 +0.17 +0.01    +0.026    48.950
ATOM     15  C   UNL d   1      45.596  27.457  20.361 -0.20 +0.05    +0.055    48.950
ATOM     16  C   UNL d   1      45.537  25.200  22.618 -0.21 +0.02    +0.026    48.950
ATOM     17  C   UNL d   1      45.082  24.206  19.341 -0.15 +0.06    +0.109    48.950
ATOM     18  C   UNL d   1      42.699  29.684  17.149 -0.37 +0.02    +0.050    48.950
ATOM     19  C   UNL d   1      41.766  28.704  16.724 +0.07 +0.02    +0.045    48.950
ATOM     20  C   UNL d   1      43.732  23.367  17.491 -0.29 +0.02    +0.045    48.950
ATOM     21  C   UNL d   1      44.643  23.129  18.440 -0.21 +0.03    +0.057    48.950
ATOM     22  C   UNL d   1      42.335  23.013  15.719 -0.33 -0.00    -0.019    48.950
ATOM     23  C   UNL d   1      42.185  24.411  16.171 -0.26 +0.01    +0.045    48.950
ATOM     24  C   UNL d   1      43.251  22.400  16.506 -0.25 -0.01    -0.022    48.950
ATOM     25  C   UNL d   1      41.130  26.643  16.043 -0.37 +0.01    +0.049    48.950
ATOM     26  C   UNL d   1      40.429  28.790  16.371 -0.08 -0.01    -0.018    48.950
ATOM     27  C   UNL d   1      40.027  27.481  15.960 -0.37 +0.00    +0.003    48.950
ATOM     28  C   UNL d   1      41.342  25.301  15.625 -0.35 +0.01    +0.052    48.950
ATOM     29  C   UNL d   1      43.733  20.990  16.451 -0.35 +0.02    +0.046    48.950
ATOM     30  C   UNL d   1      39.573  30.010  16.413 -0.35 +0.01    +0.046    48.950
ATOM     31  H   UNL d   1      43.148  25.342  17.821 +0.09 +0.06    +0.166    48.950
ATOM     32  H   UNL d   1      43.108  27.071  16.716 +0.08 +0.06    +0.166    48.950
ATOM     33  C   UNL d   1      43.908  31.758  19.186 -0.30 +0.05    +0.141    48.950
ATOM     34  C   UNL d   1      43.307  32.758  18.236 -0.23 +0.06    +0.306    48.950
ATOM     35  O   UNL d   1      42.477  32.525  17.374 -0.29 -0.05    -0.251    48.950
ATOM     36  O   UNL d   1      43.781  34.002  18.425 -0.16 -0.06    -0.481    48.950
ATOM     37  H   UNL d   1      43.128  34.428  19.020 +0.03 -0.02    +0.295    48.950
ATOM     38  C   UNL d   1      38.718  27.127  15.498 -0.30 +0.00    +0.017    48.950
ATOM     39  C   UNL d   1      38.453  26.430  14.383 -0.43 +0.02    +0.092    48.950
ATOM     40  C   UNL d   1      37.066  26.116  14.030 -0.28 +0.06    +0.330    48.950
ATOM     41  O   UNL d   1      36.577  25.019  13.839 -0.43 -0.04    -0.246    48.950
ATOM     42  O   UNL d   1      36.346  27.245  13.943 -0.09 -0.07    -0.477    48.950
ATOM     43  H   UNL d   1      35.430  26.955  14.134 +0.24 +0.04    +0.295    48.950
ATOM     44  C   UNL d   1      47.736  25.348  21.380 -0.03 +0.08    +0.141    48.950
ATOM     45  C   UNL d   1      48.499  24.835  20.188 -0.00 +0.16    +0.306    48.950
ATOM     46  O   UNL d   1      48.630  25.395  19.113 -0.04 -0.14    -0.251    48.950
ATOM     47  O   UNL d   1      49.037  23.621  20.404 +0.01 -0.23    -0.481    48.950
ATOM     48  H   UNL d   1      48.286  23.066  20.703 +0.04 +0.14    +0.295    48.950
ATOM     49  C   UNL d   1      41.587  22.417  14.563 -0.39 +0.01    +0.048    48.950
ATOM     50  C   UNL d   1      42.533  21.838  13.511 -0.22 +0.04    +0.125    48.950
ATOM     51  C   UNL d   1      42.365  20.349  13.399 -0.29 +0.06    +0.305    48.950
ATOM     52  O   UNL d   1      41.658  19.628  14.081 -0.32 -0.04    -0.251    48.950
ATOM     53  O   UNL d   1      43.126  19.828  12.416 -0.10 -0.08    -0.481    48.950
ATOM     54  H   UNL d   1      42.991  20.439  11.662 -0.29 -0.04    +0.295    48.950
TER
ENDMDL
MODEL       13
USER    Run = 13
USER    Cluster Rank = 7
USER    Number of conformations in this cluster = 2
USER  
USER    RMSD from reference structure       = 48.890 A
USER  
USER    Estimated Free Energy of Binding    =   -5.23 kcal/mol  [=(1)+(2)+(3)-(4)]
USER    Estimated Inhibition Constant, Ki   =  147.30 uM (micromolar)  [Temperature = 298.15 K]
USER    
USER    (1) Final Intermolecular Energy     =   -9.11 kcal/mol
USER        vdW + Hbond + desolv Energy     =   -8.93 kcal/mol
USER        Electrostatic Energy            =   -0.17 kcal/mol
USER    (2) Final Total Internal Energy     =   -2.75 kcal/mol
USER    (3) Torsional Free Energy           =   +3.88 kcal/mol
USER    (4) Unbound System's Energy  [=(2)] =   -2.75 kcal/mol
USER    
USER    
USER  
USER    DPF = D:/Protein_go_brrr/autodock/final/2DN3/heme/dock.dpf
USER    NEWDPF move	heme_opt.pdbqt
USER    NEWDPF about	0.153000 0.018000 -0.028000
USER    NEWDPF tran0	19.320416 49.542137 -3.715523
USER    NEWDPF axisangle0	-0.031711 -0.602404 0.797561 -77.808835
USER    NEWDPF quaternion0	-0.019915 -0.378324 0.500887 -0.778195
USER    NEWDPF dihe0	106.25 179.51 -115.30 119.28 -131.92 -67.46 19.91 -91.51 33.12 138.76 -108.56 12.61 -27.97 
USER  
USER                              x       y       z    vdW   Elec        q     RMS 
ATOM      1  O   UNL d   1      16.445  45.698  -7.138 -0.23 +0.06    -0.289    48.890
ATOM      2  O   UNL d   1      23.423  45.570  -4.366 -0.16 -0.03    -0.289    48.890
ATOM      3  N   UNL d   1      17.759  48.278  -5.264 -0.12 +0.04    -0.247    48.890
ATOM      4  N   UNL d   1      20.389  47.213  -4.382 -0.17 +0.03    -0.247    48.890
ATOM      5  N   UNL d   1      20.528  49.376  -2.493 -0.06 +0.07    -0.354    48.890
ATOM      6  N   UNL d   1      17.790  50.463  -3.400 -0.12 +0.10    -0.354    48.890
ATOM      7  C   UNL d   1      15.551  47.771  -6.200 -0.30 -0.02    +0.084    48.890
ATOM      8  C   UNL d   1      21.432  45.509  -5.789 -0.21 +0.00    +0.084    48.890
ATOM      9  C   UNL d   1      20.226  46.402  -5.484 -0.25 -0.00    +0.058    48.890
ATOM     10  C   UNL d   1      16.448  48.709  -5.388 -0.21 -0.01    +0.058    48.890
ATOM     11  C   UNL d   1      16.591  46.742  -6.528 -0.24 -0.03    +0.193    48.890
ATOM     12  C   UNL d   1      17.891  47.176  -5.927 -0.23 -0.01    +0.109    48.890
ATOM     13  C   UNL d   1      22.295  45.935  -4.635 -0.18 +0.00    +0.193    48.890
ATOM     14  C   UNL d   1      14.467  47.121  -5.335 -0.41 -0.01    +0.026    48.890
ATOM     15  C   UNL d   1      19.091  46.359  -6.199 -0.29 -0.00    +0.055    48.890
ATOM     16  C   UNL d   1      22.122  45.912  -7.095 -0.09 +0.00    +0.026    48.890
ATOM     17  C   UNL d   1      21.545  46.965  -3.855 -0.24 -0.01    +0.109    48.890
ATOM     18  C   UNL d   1      15.995  49.890  -4.925 -0.23 -0.01    +0.050    48.890
ATOM     19  C   UNL d   1      16.772  50.857  -4.239 -0.20 -0.01    +0.045    48.890
ATOM     20  C   UNL d   1      21.591  48.623  -2.068 -0.21 -0.00    +0.045    48.890
ATOM     21  C   UNL d   1      22.130  47.538  -2.634 -0.20 +0.00    +0.057    48.890
ATOM     22  C   UNL d   1      21.253  50.326  -0.584 -0.22 +0.00    -0.019    48.890
ATOM     23  C   UNL d   1      20.248  50.427  -1.662 -0.23 -0.01    +0.045    48.890
ATOM     24  C   UNL d   1      22.046  49.257  -0.831 -0.19 -0.00    -0.022    48.890
ATOM     25  C   UNL d   1      18.348  51.553  -2.773 -0.24 -0.01    +0.049    48.890
ATOM     26  C   UNL d   1      16.692  52.240  -4.184 -0.17 +0.00    -0.018    48.890
ATOM     27  C   UNL d   1      17.702  52.675  -3.272 -0.20 -0.00    +0.003    48.890
ATOM     28  C   UNL d   1      19.313  51.386  -1.742 -0.25 -0.01    +0.052    48.890
ATOM     29  C   UNL d   1      23.206  48.753  -0.041 -0.15 +0.00    +0.046    48.890
ATOM     30  C   UNL d   1      15.737  53.107  -4.934 -0.12 -0.01    +0.046    48.890
ATOM     31  H   UNL d   1      20.073  49.190  -3.381 -0.02 -0.04    +0.166    48.890
ATOM     32  H   UNL d   1      18.048  49.495  -3.248 -0.36 -0.09    +0.166    48.890
ATOM     33  C   UNL d   1      14.963  48.370  -7.482 -0.16 -0.02    +0.141    48.890
ATOM     34  C   UNL d   1      15.938  48.353  -8.629 -0.07 -0.03    +0.306    48.890
ATOM     35  O   UNL d   1      16.868  49.124  -8.795 -0.03 +0.02    -0.251    48.890
ATOM     36  O   UNL d   1      15.690  47.362  -9.504 -0.03 +0.09    -0.481    48.890
ATOM     37  H   UNL d   1      16.023  46.553  -9.062 +0.10 -0.06    +0.295    48.890
ATOM     38  C   UNL d   1      17.956  54.037  -2.910 -0.01 -0.00    +0.017    48.890
ATOM     39  C   UNL d   1      19.161  54.627  -2.911 -0.11 -0.01    +0.092    48.890
ATOM     40  C   UNL d   1      19.283  56.038  -2.535 -0.01 -0.02    +0.330    48.890
ATOM     41  O   UNL d   1      18.893  57.010  -3.154 -0.04 +0.02    -0.246    48.890
ATOM     42  O   UNL d   1      19.905  56.147  -1.350 -0.07 +0.05    -0.477    48.890
ATOM     43  H   UNL d   1      20.082  55.220  -1.092 -0.07 -0.05    +0.295    48.890
ATOM     44  C   UNL d   1      21.165  44.000  -5.746 -0.27 +0.01    +0.141    48.890
ATOM     45  C   UNL d   1      20.715  43.439  -7.069 -0.12 +0.06    +0.306    48.890
ATOM     46  O   UNL d   1      20.171  44.052  -7.971 -0.19 -0.05    -0.251    48.890
ATOM     47  O   UNL d   1      20.952  42.119  -7.175 -0.16 -0.13    -0.481    48.890
ATOM     48  H   UNL d   1      20.394  41.710  -6.480 -0.30 +0.04    +0.295    48.890
ATOM     49  C   UNL d   1      21.334  51.266   0.582 -0.21 -0.01    +0.048    48.890
ATOM     50  C   UNL d   1      22.587  52.141   0.522 -0.10 -0.01    +0.125    48.890
ATOM     51  C   UNL d   1      22.466  53.178  -0.558 -0.05 -0.03    +0.305    48.890
ATOM     52  O   UNL d   1      22.917  53.129  -1.689 -0.02 +0.01    -0.251    48.890
ATOM     53  O   UNL d   1      21.773  54.258  -0.145 -0.03 +0.11    -0.481    48.890
ATOM     54  H   UNL d   1      20.888  53.902   0.080 -0.49 -0.18    +0.295    48.890
TER
ENDMDL
MODEL       59
USER    Run = 59
USER    Cluster Rank = 8
USER    Number of conformations in this cluster = 2
USER  
USER    RMSD from reference structure       = 47.738 A
USER  
USER    Estimated Free Energy of Binding    =   -5.19 kcal/mol  [=(1)+(2)+(3)-(4)]
USER    Estimated Inhibition Constant, Ki   =  157.45 uM (micromolar)  [Temperature = 298.15 K]
USER    
USER    (1) Final Intermolecular Energy     =   -9.07 kcal/mol
USER        vdW + Hbond + desolv Energy     =   -8.83 kcal/mol
USER        Electrostatic Energy            =   -0.24 kcal/mol
USER    (2) Final Total Internal Energy     =   -2.38 kcal/mol
USER    (3) Torsional Free Energy           =   +3.88 kcal/mol
USER    (4) Unbound System's Energy  [=(2)] =   -2.38 kcal/mol
USER    
USER    
USER  
USER    DPF = D:/Protein_go_brrr/autodock/final/2DN3/heme/dock.dpf
USER    NEWDPF move	heme_opt.pdbqt
USER    NEWDPF about	0.153000 0.018000 -0.028000
USER    NEWDPF tran0	18.665892 47.964960 -5.060873
USER    NEWDPF axisangle0	-0.947023 -0.040375 -0.318618 -145.342518
USER    NEWDPF quaternion0	-0.904039 -0.038542 -0.304156 -0.297854
USER    NEWDPF dihe0	145.09 103.31 -129.75 59.93 67.85 26.12 128.95 -84.84 152.18 -45.34 91.79 -93.58 -0.19 
USER  
USER                              x       y       z    vdW   Elec        q     RMS 
ATOM      1  O   UNL d   1      14.875  47.570  -9.559 +0.00 +0.06    -0.289    47.738
ATOM      2  O   UNL d   1      14.461  51.346  -3.080 -0.58 +0.04    -0.289    47.738
ATOM      3  N   UNL d   1      17.319  47.390  -7.132 -0.10 +0.03    -0.247    47.738
ATOM      4  N   UNL d   1      16.446  49.406  -5.131 -0.10 +0.04    -0.247    47.738
ATOM      5  N   UNL d   1      19.055  49.218  -3.939 +0.08 +0.11    -0.354    47.738
ATOM      6  N   UNL d   1      19.959  47.141  -6.030 -0.04 +0.02    -0.354    47.738
ATOM      7  C   UNL d   1      17.085  46.535  -9.417 -0.14 -0.01    +0.084    47.738
ATOM      8  C   UNL d   1      14.057  49.911  -5.022 -0.30 -0.02    +0.084    47.738
ATOM      9  C   UNL d   1      15.216  49.183  -5.711 -0.22 -0.01    +0.058    47.738
ATOM     10  C   UNL d   1      17.926  46.666  -8.144 -0.16 -0.00    +0.058    47.738
ATOM     11  C   UNL d   1      15.886  47.297  -8.938 -0.09 -0.03    +0.193    47.738
ATOM     12  C   UNL d   1      16.140  47.741  -7.530 -0.17 -0.01    +0.109    47.738
ATOM     13  C   UNL d   1      14.861  50.618  -3.968 -0.23 -0.04    +0.193    47.738
ATOM     14  C   UNL d   1      17.708  47.284 -10.598 -0.06 -0.00    +0.026    47.738
ATOM     15  C   UNL d   1      15.052  48.436  -6.813 -0.26 -0.01    +0.055    47.738
ATOM     16  C   UNL d   1      13.099  48.932  -4.337 -0.57 -0.01    +0.026    47.738
ATOM     17  C   UNL d   1      16.294  50.234  -4.148 -0.23 -0.02    +0.109    47.738
ATOM     18  C   UNL d   1      19.113  46.043  -8.018 -0.18 +0.00    +0.050    47.738
ATOM     19  C   UNL d   1      19.920  46.038  -6.852 -0.18 +0.00    +0.045    47.738
ATOM     20  C   UNL d   1      18.564  50.303  -3.260 -0.05 -0.01    +0.045    47.738
ATOM     21  C   UNL d   1      17.328  50.812  -3.277 -0.31 -0.01    +0.057    47.738
ATOM     22  C   UNL d   1      20.769  50.034  -2.727 -0.14 +0.00    -0.019    47.738
ATOM     23  C   UNL d   1      20.378  48.978  -3.681 -0.14 -0.01    +0.045    47.738
ATOM     24  C   UNL d   1      19.690  50.815  -2.480 -0.21 +0.00    -0.022    47.738
ATOM     25  C   UNL d   1      20.869  46.955  -5.015 -0.20 -0.00    +0.049    47.738
ATOM     26  C   UNL d   1      20.799  45.097  -6.339 -0.28 -0.00    -0.018    47.738
ATOM     27  C   UNL d   1      21.381  45.674  -5.167 -0.29 -0.00    +0.003    47.738
ATOM     28  C   UNL d   1      21.200  48.016  -4.129 -0.19 -0.00    +0.052    47.738
ATOM     29  C   UNL d   1      19.580  51.998  -1.580 -0.20 -0.01    +0.046    47.738
ATOM     30  C   UNL d   1      21.082  43.744  -6.898 -0.34 +0.01    +0.046    47.738
ATOM     31  H   UNL d   1      18.449  48.630  -4.502 -0.04 -0.05    +0.166    47.738
ATOM     32  H   UNL d   1      19.415  47.980  -6.191 +0.05 -0.01    +0.166    47.738
ATOM     33  C   UNL d   1      16.694  45.104  -9.801 -0.23 -0.03    +0.141    47.738
ATOM     34  C   UNL d   1      16.303  44.979 -11.249 -0.11 -0.08    +0.306    47.738
ATOM     35  O   UNL d   1      16.822  44.247 -12.075 -0.08 +0.02    -0.251    47.738
ATOM     36  O   UNL d   1      15.277  45.783 -11.580 -0.06 +0.23    -0.481    47.738
ATOM     37  H   UNL d   1      14.688  45.767 -10.796 -0.08 -0.25    +0.295    47.738
ATOM     38  C   UNL d   1      22.360  45.041  -4.335 -0.21 +0.00    +0.017    47.738
ATOM     39  C   UNL d   1      23.569  45.545  -4.042 -0.25 +0.01    +0.092    47.738
ATOM     40  C   UNL d   1      24.474  44.803  -3.161 -0.19 +0.06    +0.330    47.738
ATOM     41  O   UNL d   1      24.485  43.607  -2.942 -0.36 -0.06    -0.246    47.738
ATOM     42  O   UNL d   1      25.353  45.642  -2.590 -0.07 -0.10    -0.477    47.738
ATOM     43  H   UNL d   1      25.998  45.826  -3.304 +0.06 +0.05    +0.295    47.738
ATOM     44  C   UNL d   1      13.295  50.913  -5.895 -0.23 -0.03    +0.141    47.738
ATOM     45  C   UNL d   1      13.789  52.327  -5.746 -0.08 -0.05    +0.306    47.738
ATOM     46  O   UNL d   1      14.724  52.837  -6.339 -0.03 +0.03    -0.251    47.738
ATOM     47  O   UNL d   1      13.091  53.023  -4.830 -0.07 +0.12    -0.481    47.738
ATOM     48  H   UNL d   1      13.068  52.441  -4.041 -0.11 -0.14    +0.295    47.738
ATOM     49  C   UNL d   1      22.150  50.191  -2.161 -0.10 -0.00    +0.048    47.738
ATOM     50  C   UNL d   1      22.376  49.282  -0.953 -0.15 +0.00    +0.125    47.738
ATOM     51  C   UNL d   1      21.932  49.955   0.315 -0.11 -0.00    +0.305    47.738
ATOM     52  O   UNL d   1      22.602  50.643   1.064 -0.07 +0.00    -0.251    47.738
ATOM     53  O   UNL d   1      20.635  49.710   0.589 -0.55 +0.02    -0.481    47.738
ATOM     54  H   UNL d   1      20.224  50.600   0.609 +0.13 -0.07    +0.295    47.738
TER
ENDMDL
MODEL        7
USER    Run = 7
USER    Cluster Rank = 9
USER    Number of conformations in this cluster = 1
USER  
USER    RMSD from reference structure       = 43.091 A
USER  
USER    Estimated Free Energy of Binding    =   -4.95 kcal/mol  [=(1)+(2)+(3)-(4)]
USER    Estimated Inhibition Constant, Ki   =  236.59 uM (micromolar)  [Temperature = 298.15 K]
USER    
USER    (1) Final Intermolecular Energy     =   -8.82 kcal/mol
USER        vdW + Hbond + desolv Energy     =   -7.87 kcal/mol
USER        Electrostatic Energy            =   -0.95 kcal/mol
USER    (2) Final Total Internal Energy     =   -3.80 kcal/mol
USER    (3) Torsional Free Energy           =   +3.88 kcal/mol
USER    (4) Unbound System's Energy  [=(2)] =   -3.80 kcal/mol
USER    
USER    
USER  
USER    DPF = D:/Protein_go_brrr/autodock/final/2DN3/heme/dock.dpf
USER    NEWDPF move	heme_opt.pdbqt
USER    NEWDPF about	0.153000 0.018000 -0.028000
USER    NEWDPF tran0	27.627329 38.765054 0.044979
USER    NEWDPF axisangle0	0.491489 0.692661 0.527882 -103.153276
USER    NEWDPF quaternion0	0.385053 0.542658 0.413564 -0.621467
USER    NEWDPF dihe0	-131.08 -137.64 -177.27 29.03 -135.93 5.12 143.90 64.40 135.96 -8.94 -66.62 -80.32 4.06 
USER  
USER                              x       y       z    vdW   Elec        q     RMS 
ATOM      1  O   UNL d   1      27.721  34.127   3.683 -0.19 -0.17    -0.289    43.091
ATOM      2  O   UNL d   1      26.342  34.585  -3.684 -0.04 +0.01    -0.289    43.091
ATOM      3  N   UNL d   1      27.644  37.125   1.980 -0.14 -0.01    -0.247    43.091
ATOM      4  N   UNL d   1      27.340  36.292  -0.856 -0.11 -0.04    -0.247    43.091
ATOM      5  N   UNL d   1      28.021  38.978  -1.622 -0.06 -0.05    -0.354    43.091
ATOM      6  N   UNL d   1      28.354  39.829   1.322 -0.06 -0.03    -0.354    43.091
ATOM      7  C   UNL d   1      28.219  36.449   4.264 -0.23 -0.02    +0.084    43.091
ATOM      8  C   UNL d   1      26.272  34.135  -1.279 -0.18 +0.01    +0.084    43.091
ATOM      9  C   UNL d   1      26.832  35.150  -0.277 -0.20 +0.01    +0.058    43.091
ATOM     10  C   UNL d   1      28.077  37.561   3.221 -0.25 -0.01    +0.058    43.091
ATOM     11  C   UNL d   1      27.773  35.310   3.398 -0.17 +0.04    +0.193    43.091
ATOM     12  C   UNL d   1      27.427  35.852   2.046 -0.21 +0.02    +0.109    43.091
ATOM     13  C   UNL d   1      26.589  34.896  -2.536 -0.09 +0.01    +0.193    43.091
ATOM     14  C   UNL d   1      29.679  36.222   4.667 -0.24 -0.00    +0.026    43.091
ATOM     15  C   UNL d   1      26.870  34.920   1.044 -0.29 +0.01    +0.055    43.091
ATOM     16  C   UNL d   1      24.751  33.998  -1.158 -0.38 -0.00    +0.026    43.091
ATOM     17  C   UNL d   1      27.241  36.181  -2.142 -0.15 +0.01    +0.109    43.091
ATOM     18  C   UNL d   1      28.275  38.854   3.540 -0.33 -0.02    +0.050    43.091
ATOM     19  C   UNL d   1      28.086  39.955   2.666 -0.30 -0.01    +0.045    43.091
ATOM     20  C   UNL d   1      28.062  38.366  -2.848 -0.15 +0.01    +0.045    43.091
ATOM     21  C   UNL d   1      27.706  37.120  -3.174 -0.15 +0.01    +0.057    43.091
ATOM     22  C   UNL d   1      28.827  40.507  -3.066 -0.09 -0.00    -0.019    43.091
ATOM     23  C   UNL d   1      28.465  40.273  -1.654 -0.09 +0.01    +0.045    43.091
ATOM     24  C   UNL d   1      28.585  39.375  -3.768 -0.09 -0.00    -0.022    43.091
ATOM     25  C   UNL d   1      28.190  41.035   0.682 -0.15 +0.01    +0.049    43.091
ATOM     26  C   UNL d   1      27.702  41.266   2.899 -0.41 +0.00    -0.018    43.091
ATOM     27  C   UNL d   1      27.751  41.939   1.639 -0.33 +0.00    +0.003    43.091
ATOM     28  C   UNL d   1      28.559  41.193  -0.682 -0.14 +0.01    +0.052    43.091
ATOM     29  C   UNL d   1      28.778  39.121  -5.224 -0.04 +0.00    +0.046    43.091
ATOM     30  C   UNL d   1      27.312  41.860   4.210 -0.57 -0.01    +0.046    43.091
ATOM     31  H   UNL d   1      27.621  38.512  -0.815 +0.05 +0.02    +0.166    43.091
ATOM     32  H   UNL d   1      28.668  38.967   0.891 +0.06 +0.02    +0.166    43.091
ATOM     33  C   UNL d   1      27.311  36.579   5.492 -0.22 -0.12    +0.141    43.091
ATOM     34  C   UNL d   1      27.563  35.505   6.515 -0.17 -0.14    +0.306    43.091
ATOM     35  O   UNL d   1      27.120  34.369   6.491 -0.28 -0.03    -0.251    43.091
ATOM     36  O   UNL d   1      28.363  35.918   7.514 -0.05 +0.37    -0.481    43.091
ATOM     37  H   UNL d   1      28.003  36.793   7.773 -0.25 -0.66    +0.295    43.091
ATOM     38  C   UNL d   1      27.444  43.322   1.430 -0.33 +0.01    +0.017    43.091
ATOM     39  C   UNL d   1      28.155  44.166   0.667 -0.19 +0.05    +0.092    43.091
ATOM     40  C   UNL d   1      27.723  45.559   0.521 -0.06 +0.19    +0.330    43.091
ATOM     41  O   UNL d   1      26.781  46.106   1.063 -0.13 -0.18    -0.246    43.091
ATOM     42  O   UNL d   1      28.537  46.209  -0.325 -0.01 -0.19    -0.477    43.091
ATOM     43  H   UNL d   1      28.683  45.567  -1.050 +0.06 +0.10    +0.295    43.091
ATOM     44  C   UNL d   1      26.954  32.763  -1.281 -0.13 +0.03    +0.141    43.091
ATOM     45  C   UNL d   1      28.429  32.833  -1.574 -0.04 +0.14    +0.306    43.091
ATOM     46  O   UNL d   1      29.334  32.792  -0.759 -0.33 -0.27    -0.251    43.091
ATOM     47  O   UNL d   1      28.686  32.981  -2.886 +0.02 -0.09    -0.481    43.091
ATOM     48  H   UNL d   1      27.803  33.034  -3.308 +0.05 +0.02    +0.295    43.091
ATOM     49  C   UNL d   1      29.384  41.798  -3.590 -0.04 +0.01    +0.048    43.091
ATOM     50  C   UNL d   1      28.290  42.844  -3.806 -0.06 +0.02    +0.125    43.091
ATOM     51  C   UNL d   1      28.464  44.004  -2.867 -0.02 +0.07    +0.305    43.091
ATOM     52  O   UNL d   1      29.434  44.733  -2.758 -0.01 -0.07    -0.251    43.091
ATOM     53  O   UNL d   1      27.382  44.183  -2.083 -0.02 -0.12    -0.481    43.091
ATOM     54  H   UNL d   1      27.386  45.144  -1.889 +0.07 +0.08    +0.295    43.091
TER
ENDMDL
MODEL       22
USER    Run = 22
USER    Cluster Rank = 10
USER    Number of conformations in this cluster = 2
USER  
USER    RMSD from reference structure       = 29.909 A
USER  
USER    Estimated Free Energy of Binding    =   -4.85 kcal/mol  [=(1)+(2)+(3)-(4)]
USER    Estimated Inhibition Constant, Ki   =  279.28 uM (micromolar)  [Temperature = 298.15 K]
USER    
USER    (1) Final Intermolecular Energy     =   -8.73 kcal/mol
USER        vdW + Hbond + desolv Energy     =   -8.65 kcal/mol
USER        Electrostatic Energy            =   -0.08 kcal/mol
USER    (2) Final Total Internal Energy     =   -1.91 kcal/mol
USER    (3) Torsional Free Energy           =   +3.88 kcal/mol
USER    (4) Unbound System's Energy  [=(2)] =   -1.91 kcal/mol
USER    
USER    
USER  
USER    DPF = D:/Protein_go_brrr/autodock/final/2DN3/heme/dock.dpf
USER    NEWDPF move	heme_opt.pdbqt
USER    NEWDPF about	0.153000 0.018000 -0.028000
USER    NEWDPF tran0	0.223787 32.732606 7.231106
USER    NEWDPF axisangle0	0.000170 -0.986845 -0.161671 98.467678
USER    NEWDPF quaternion0	0.000129 -0.747417 -0.122447 0.652973
USER    NEWDPF dihe0	134.32 76.21 -46.85 28.85 -137.77 138.57 126.12 -89.35 16.27 -123.60 125.45 -56.55 -179.95 
USER  
USER                              x       y       z    vdW   Elec        q     RMS 
ATOM      1  O   UNL d   1       1.412  33.594  12.941 -0.26 -0.02    -0.289    29.909
ATOM      2  O   UNL d   1      -0.150  27.318   9.124 -0.13 +0.23    -0.289    29.909
ATOM      3  N   UNL d   1       0.638  33.595   9.580 -0.03 -0.02    -0.247    29.909
ATOM      4  N   UNL d   1       0.484  30.704   8.913 -0.10 +0.04    -0.247    29.909
ATOM      5  N   UNL d   1       0.534  31.437   6.133 -0.07 +0.04    -0.354    29.909
ATOM      6  N   UNL d   1       0.713  34.434   6.834 -0.17 -0.04    -0.354    29.909
ATOM      7  C   UNL d   1       1.386  35.292  11.183 -0.35 +0.00    +0.084    29.909
ATOM      8  C   UNL d   1      -0.080  29.167  10.727 -0.17 -0.02    +0.084    29.909
ATOM      9  C   UNL d   1       0.254  30.589  10.266 -0.18 -0.01    +0.058    29.909
ATOM     10  C   UNL d   1       0.982  34.926   9.752 -0.27 +0.00    +0.058    29.909
ATOM     11  C   UNL d   1       1.192  33.936  11.794 -0.20 +0.01    +0.193    29.909
ATOM     12  C   UNL d   1       0.713  33.002  10.727 -0.15 +0.01    +0.109    29.909
ATOM     13  C   UNL d   1       0.039  28.489   9.391 -0.17 -0.08    +0.193    29.909
ATOM     14  C   UNL d   1       2.865  35.673  11.282 -0.54 -0.00    +0.026    29.909
ATOM     15  C   UNL d   1       0.363  31.621  11.117 -0.20 +0.00    +0.055    29.909
ATOM     16  C   UNL d   1      -1.529  29.052  11.209 -0.06 -0.00    +0.026    29.909
ATOM     17  C   UNL d   1       0.392  29.529   8.378 -0.16 -0.04    +0.109    29.909
ATOM     18  C   UNL d   1       0.890  35.860   8.787 -0.33 +0.01    +0.050    29.909
ATOM     19  C   UNL d   1       0.445  35.630   7.460 -0.31 +0.01    +0.045    29.909
ATOM     20  C   UNL d   1       0.691  30.080   6.022 -0.21 -0.02    +0.045    29.909
ATOM     21  C   UNL d   1       0.618  29.147   6.976 -0.25 -0.04    +0.057    29.909
ATOM     22  C   UNL d   1       0.953  31.026   3.959 -0.13 +0.00    -0.019    29.909
ATOM     23  C   UNL d   1       0.675  32.094   4.940 -0.17 -0.00    +0.045    29.909
ATOM     24  C   UNL d   1       0.960  29.836   4.605 -0.17 +0.01    -0.022    29.909
ATOM     25  C   UNL d   1       0.273  34.460   5.531 -0.22 +0.01    +0.049    29.909
ATOM     26  C   UNL d   1      -0.219  36.441   6.552 -0.28 -0.01    -0.018    29.909
ATOM     27  C   UNL d   1      -0.342  35.690   5.343 -0.20 +0.00    +0.003    29.909
ATOM     28  C   UNL d   1       0.576  33.397   4.637 -0.22 +0.01    +0.052    29.909
ATOM     29  C   UNL d   1       1.183  28.472   4.046 -0.18 -0.03    +0.046    29.909
ATOM     30  C   UNL d   1      -0.712  37.828   6.792 -0.25 +0.02    +0.046    29.909
ATOM     31  H   UNL d   1       0.261  31.865   7.012 +0.06 -0.01    +0.166    29.909
ATOM     32  H   UNL d   1       1.206  33.667   7.278 +0.07 +0.02    +0.166    29.909
ATOM     33  C   UNL d   1       0.491  36.326  11.875 -0.23 +0.00    +0.141    29.909
ATOM     34  C   UNL d   1      -0.916  35.833  12.074 -0.11 +0.02    +0.306    29.909
ATOM     35  O   UNL d   1      -1.815  35.866  11.251 -0.07 -0.05    -0.251    29.909
ATOM     36  O   UNL d   1      -1.117  35.321  13.301 -0.02 +0.01    -0.481    29.909
ATOM     37  H   UNL d   1      -0.361  34.711  13.441 +0.08 -0.00    +0.295    29.909
ATOM     38  C   UNL d   1      -0.954  36.162   4.137 -0.15 +0.01    +0.017    29.909
ATOM     39  C   UNL d   1      -0.755  35.647   2.915 -0.11 +0.04    +0.092    29.909
ATOM     40  C   UNL d   1      -1.459  36.212   1.760 -0.07 +0.21    +0.330    29.909
ATOM     41  O   UNL d   1      -1.004  36.459   0.660 -0.13 -0.24    -0.246    29.909
ATOM     42  O   UNL d   1      -2.746  36.434   2.068 -0.02 -0.20    -0.477    29.909
ATOM     43  H   UNL d   1      -3.223  35.702   1.626 +0.02 +0.09    +0.295    29.909
ATOM     44  C   UNL d   1       0.892  28.556  11.741 -0.23 -0.02    +0.141    29.909
ATOM     45  C   UNL d   1       0.610  27.107  12.036 -0.18 -0.08    +0.306    29.909
ATOM     46  O   UNL d   1       0.958  26.148  11.369 -0.32 +0.11    -0.251    29.909
ATOM     47  O   UNL d   1      -0.126  26.942  13.151 -0.02 +0.07    -0.481    29.909
ATOM     48  H   UNL d   1      -0.834  26.315  12.890 +0.08 -0.05    +0.295    29.909
ATOM     49  C   UNL d   1       1.199  31.266   2.498 -0.12 -0.00    +0.048    29.909
ATOM     50  C   UNL d   1       2.691  31.326   2.175 -0.19 -0.00    +0.125    29.909
ATOM     51  C   UNL d   1       3.389  32.332   3.045 -0.21 -0.00    +0.305    29.909
ATOM     52  O   UNL d   1       3.647  33.493   2.778 -0.26 -0.02    -0.251    29.909
ATOM     53  O   UNL d   1       3.748  31.808   4.234 -0.08 +0.06    -0.481    29.909
ATOM     54  H   UNL d   1       3.742  32.576   4.843 -0.32 -0.11    +0.295    29.909
TER
ENDMDL
MODEL       73
USER    Run = 73
USER    Cluster Rank = 11
USER    Number of conformations in this cluster = 1
USER  
USER    RMSD from reference structure       = 19.102 A
USER  
USER    Estimated Free Energy of Binding    =   -4.28 kcal/mol  [=(1)+(2)+(3)-(4)]
USER    Estimated Inhibition Constant, Ki   =  733.04 uM (micromolar)  [Temperature = 298.15 K]
USER    
USER    (1) Final Intermolecular Energy     =   -8.15 kcal/mol
USER        vdW + Hbond + desolv Energy     =   -7.92 kcal/mol
USER        Electrostatic Energy            =   -0.23 kcal/mol
USER    (2) Final Total Internal Energy     =   -3.48 kcal/mol
USER    (3) Torsional Free Energy           =   +3.88 kcal/mol
USER    (4) Unbound System's Energy  [=(2)] =   -3.48 kcal/mol
USER    
USER    
USER  
USER    DPF = D:/Protein_go_brrr/autodock/final/2DN3/heme/dock.dpf
USER    NEWDPF move	heme_opt.pdbqt
USER    NEWDPF about	0.153000 0.018000 -0.028000
USER    NEWDPF tran0	16.482306 16.319160 1.640606
USER    NEWDPF axisangle0	-0.761047 0.432656 0.483339 -129.539941
USER    NEWDPF quaternion0	-0.688446 0.391382 0.437230 -0.426253
USER    NEWDPF dihe0	-115.26 132.93 -85.61 -13.26 40.45 -21.50 142.77 141.61 138.46 -83.32 -46.22 -40.78 -8.57 
USER  
USER                              x       y       z    vdW   Elec        q     RMS 
ATOM      1  O   UNL d   1      13.022  17.296   6.313 -0.22 -0.30    -0.289    19.102
ATOM      2  O   UNL d   1      20.497  16.894   5.714 -0.01 -0.07    -0.289    19.102
ATOM      3  N   UNL d   1      14.621  16.558   3.347 -0.03 -0.04    -0.247    19.102
ATOM      4  N   UNL d   1      17.495  16.922   4.012 -0.05 -0.05    -0.247    19.102
ATOM      5  N   UNL d   1      18.059  16.861   1.194 -0.07 -0.03    -0.354    19.102
ATOM      6  N   UNL d   1      15.074  16.503   0.512 -0.07 -0.03    -0.354    19.102
ATOM      7  C   UNL d   1      12.297  16.983   3.999 -0.22 +0.03    +0.084    19.102
ATOM      8  C   UNL d   1      18.148  16.625   6.348 -0.14 +0.05    +0.084    19.102
ATOM      9  C   UNL d   1      17.039  16.706   5.294 -0.13 +0.03    +0.058    19.102
ATOM     10  C   UNL d   1      13.315  16.660   2.901 -0.15 +0.01    +0.058    19.102
ATOM     11  C   UNL d   1      13.258  17.027   5.149 -0.14 +0.12    +0.193    19.102
ATOM     12  C   UNL d   1      14.630  16.728   4.629 -0.12 +0.05    +0.109    19.102
ATOM     13  C   UNL d   1      19.314  16.872   5.433 -0.03 +0.06    +0.193    19.102
ATOM     14  C   UNL d   1      11.677  18.371   3.818 -0.47 +0.01    +0.026    19.102
ATOM     15  C   UNL d   1      15.736  16.625   5.603 -0.16 +0.06    +0.055    19.102
ATOM     16  C   UNL d   1      18.272  15.215   6.935 -0.16 +0.02    +0.026    19.102
ATOM     17  C   UNL d   1      18.783  17.043   4.047 -0.08 +0.02    +0.109    19.102
ATOM     18  C   UNL d   1      12.928  16.412   1.635 -0.23 +0.01    +0.050    19.102
ATOM     19  C   UNL d   1      13.785  16.023   0.575 -0.18 +0.01    +0.045    19.102
ATOM     20  C   UNL d   1      19.282  17.256   1.670 -0.03 +0.00    +0.045    19.102
ATOM     21  C   UNL d   1      19.699  17.343   2.937 -0.09 +0.01    +0.057    19.102
ATOM     22  C   UNL d   1      19.310  17.362  -0.611 -0.17 +0.00    -0.019    19.102
ATOM     23  C   UNL d   1      17.980  16.893  -0.173 -0.18 +0.00    +0.045    19.102
ATOM     24  C   UNL d   1      20.076  17.575   0.484 -0.11 -0.00    -0.022    19.102
ATOM     25  C   UNL d   1      15.694  16.075  -0.639 -0.18 +0.00    +0.049    19.102
ATOM     26  C   UNL d   1      13.575  15.233  -0.545 -0.17 -0.00    -0.018    19.102
ATOM     27  C   UNL d   1      14.789  15.253  -1.297 -0.15 +0.00    +0.003    19.102
ATOM     28  C   UNL d   1      16.977  16.567  -1.003 -0.21 +0.00    +0.052    19.102
ATOM     29  C   UNL d   1      21.491  18.039   0.557 -0.06 +0.00    +0.046    19.102
ATOM     30  C   UNL d   1      12.323  14.502  -0.895 -0.15 +0.03    +0.046    19.102
ATOM     31  H   UNL d   1      17.340  16.511   1.817 -0.02 +0.01    +0.166    19.102
ATOM     32  H   UNL d   1      15.477  17.120   1.208 -0.19 -0.01    +0.166    19.102
ATOM     33  C   UNL d   1      11.224  15.914   4.236 -0.21 +0.05    +0.141    19.102
ATOM     34  C   UNL d   1      10.175  16.355   5.220 -0.25 +0.13    +0.306    19.102
ATOM     35  O   UNL d   1       9.103  16.869   4.948 -0.74 -0.16    -0.251    19.102
ATOM     36  O   UNL d   1      10.531  16.124   6.496 -0.24 -0.19    -0.481    19.102
ATOM     37  H   UNL d   1      11.336  16.669   6.631 +0.17 +0.17    +0.295    19.102
ATOM     38  C   UNL d   1      15.001  14.576  -2.541 -0.14 +0.00    +0.017    19.102
ATOM     39  C   UNL d   1      16.113  14.657  -3.287 -0.12 -0.02    +0.092    19.102
ATOM     40  C   UNL d   1      16.211  13.897  -4.536 -0.04 -0.11    +0.330    19.102
ATOM     41  O   UNL d   1      15.602  12.890  -4.844 -0.02 +0.04    -0.246    19.102
ATOM     42  O   UNL d   1      17.098  14.475  -5.360 -0.03 +0.39    -0.477    19.102
ATOM     43  H   UNL d   1      16.854  15.424  -5.339 -0.23 -0.44    +0.295    19.102
ATOM     44  C   UNL d   1      18.085  17.682   7.455 -0.24 +0.12    +0.141    19.102
ATOM     45  C   UNL d   1      19.411  18.344   7.720 -0.13 +0.15    +0.306    19.102
ATOM     46  O   UNL d   1      19.782  19.424   7.294 -0.11 -0.08    -0.251    19.102
ATOM     47  O   UNL d   1      20.216  17.593   8.492 -0.41 -0.26    -0.481    19.102
ATOM     48  H   UNL d   1      20.766  17.085   7.858 +0.06 +0.11    +0.295    19.102
ATOM     49  C   UNL d   1      19.699  17.572  -2.045 -0.18 -0.01    +0.048    19.102
ATOM     50  C   UNL d   1      20.343  16.324  -2.648 -0.09 -0.02    +0.125    19.102
ATOM     51  C   UNL d   1      19.778  16.033  -4.010 -0.09 -0.11    +0.305    19.102
ATOM     52  O   UNL d   1      20.390  15.725  -5.018 -0.07 +0.10    -0.251    19.102
ATOM     53  O   UNL d   1      18.437  16.162  -4.038 -0.06 +0.29    -0.481    19.102
ATOM     54  H   UNL d   1      18.218  16.174  -4.993 -0.39 -0.39    +0.295    19.102
TER
ENDMDL
MODEL       95
USER    Run = 95
USER    Cluster Rank = 12
USER    Number of conformations in this cluster = 1
USER  
USER    RMSD from reference structure       = 34.460 A
USER  
USER    Estimated Free Energy of Binding    =   -4.27 kcal/mol  [=(1)+(2)+(3)-(4)]
USER    Estimated Inhibition Constant, Ki   =  735.69 uM (micromolar)  [Temperature = 298.15 K]
USER    
USER    (1) Final Intermolecular Energy     =   -8.15 kcal/mol
USER        vdW + Hbond + desolv Energy     =   -7.96 kcal/mol
USER        Electrostatic Energy            =   -0.20 kcal/mol
USER    (2) Final Total Internal Energy     =   -2.11 kcal/mol
USER    (3) Torsional Free Energy           =   +3.88 kcal/mol
USER    (4) Unbound System's Energy  [=(2)] =   -2.11 kcal/mol
USER    
USER    
USER  
USER    DPF = D:/Protein_go_brrr/autodock/final/2DN3/heme/dock.dpf
USER    NEWDPF move	heme_opt.pdbqt
USER    NEWDPF about	0.153000 0.018000 -0.028000
USER    NEWDPF tran0	2.133860 30.719166 21.492189
USER    NEWDPF axisangle0	0.526797 0.706057 -0.473253 140.767701
USER    NEWDPF quaternion0	0.496223 0.665079 -0.445787 0.335717
USER    NEWDPF dihe0	-18.84 -56.61 -113.06 49.75 -126.28 -118.05 120.54 -91.41 179.63 -28.73 -157.66 -63.51 -15.91 
USER  
USER                              x       y       z    vdW   Elec        q     RMS 
ATOM      1  O   UNL d   1       3.750  25.354  19.660 -0.13 -0.01    -0.289    34.460
ATOM      2  O   UNL d   1       2.539  28.047  26.565 -0.01 -0.01    -0.289    34.460
ATOM      3  N   UNL d   1       2.937  28.651  20.263 -0.14 +0.00    -0.247    34.460
ATOM      4  N   UNL d   1       2.365  28.691  23.179 -0.07 -0.00    -0.247    34.460
ATOM      5  N   UNL d   1       1.187  31.289  22.818 -0.05 +0.03    -0.354    34.460
ATOM      6  N   UNL d   1       1.766  31.230  19.791 -0.06 +0.03    -0.354    34.460
ATOM      7  C   UNL d   1       3.231  27.282  18.251 -0.20 -0.00    +0.084    34.460
ATOM      8  C   UNL d   1       3.454  26.990  24.555 -0.13 +0.00    +0.084    34.460
ATOM      9  C   UNL d   1       3.155  27.563  23.166 -0.18 -0.00    +0.058    34.460
ATOM     10  C   UNL d   1       2.899  28.639  18.879 -0.23 -0.00    +0.058    34.460
ATOM     11  C   UNL d   1       3.482  26.533  19.525 -0.15 +0.00    +0.193    34.460
ATOM     12  C   UNL d   1       3.297  27.478  20.673 -0.21 -0.00    +0.109    34.460
ATOM     13  C   UNL d   1       2.657  27.980  25.357 -0.03 +0.00    +0.193    34.460
ATOM     14  C   UNL d   1       2.022  26.665  17.544 -0.13 -0.00    +0.026    34.460
ATOM     15  C   UNL d   1       3.584  26.983  22.034 -0.26 -0.00    +0.055    34.460
ATOM     16  C   UNL d   1       4.934  27.136  24.923 -0.05 +0.00    +0.026    34.460
ATOM     17  C   UNL d   1       2.041  28.953  24.404 -0.07 +0.00    +0.109    34.460
ATOM     18  C   UNL d   1       2.682  29.731  18.121 -0.26 -0.00    +0.050    34.460
ATOM     19  C   UNL d   1       2.452  31.041  18.613 -0.25 -0.00    +0.045    34.460
ATOM     20  C   UNL d   1       0.805  31.034  24.110 -0.08 -0.00    +0.045    34.460
ATOM     21  C   UNL d   1       1.162  30.021  24.905 -0.06 -0.00    +0.057    34.460
ATOM     22  C   UNL d   1      -0.211  32.954  23.404 -0.06 +0.00    -0.019    34.460
ATOM     23  C   UNL d   1       0.623  32.427  22.306 -0.08 -0.01    +0.045    34.460
ATOM     24  C   UNL d   1      -0.098  32.126  24.470 -0.04 +0.00    -0.022    34.460
ATOM     25  C   UNL d   1       1.578  32.572  20.031 -0.18 -0.01    +0.049    34.460
ATOM     26  C   UNL d   1       2.749  32.291  18.092 -0.36 +0.00    -0.018    34.460
ATOM     27  C   UNL d   1       2.212  33.254  19.002 -0.34 -0.00    +0.003    34.460
ATOM     28  C   UNL d   1       0.761  33.013  21.107 -0.12 -0.01    +0.052    34.460
ATOM     29  C   UNL d   1      -0.738  32.240  25.812 -0.01 -0.00    +0.046    34.460
ATOM     30  C   UNL d   1       3.489  32.576  16.829 -0.23 -0.01    +0.046    34.460
ATOM     31  H   UNL d   1       1.880  30.714  22.351 +0.01 +0.00    +0.166    34.460
ATOM     32  H   UNL d   1       1.420  30.471  20.366 +0.04 -0.01    +0.166    34.460
ATOM     33  C   UNL d   1       4.477  27.259  17.359 -0.29 -0.00    +0.141    34.460
ATOM     34  C   UNL d   1       4.235  26.567  16.045 -0.27 -0.02    +0.306    34.460
ATOM     35  O   UNL d   1       4.090  25.368  15.878 -0.32 +0.02    -0.251    34.460
ATOM     36  O   UNL d   1       4.186  27.424  15.010 -0.25 +0.06    -0.481    34.460
ATOM     37  H   UNL d   1       4.378  26.871  14.222 -0.35 -0.09    +0.295    34.460
ATOM     38  C   UNL d   1       2.284  34.674  18.836 -0.37 -0.01    +0.017    34.460
ATOM     39  C   UNL d   1       1.409  35.557  19.342 -0.26 -0.02    +0.092    34.460
ATOM     40  C   UNL d   1       1.606  36.991  19.114 -0.21 -0.07    +0.330    34.460
ATOM     41  O   UNL d   1       1.758  37.863  19.949 -0.20 +0.05    -0.246    34.460
ATOM     42  O   UNL d   1       1.608  37.254  17.798 -0.72 +0.04    -0.477    34.460
ATOM     43  H   UNL d   1       0.896  37.917  17.690 +0.12 -0.07    +0.295    34.460
ATOM     44  C   UNL d   1       2.960  25.561  24.801 -0.06 +0.00    +0.141    34.460
ATOM     45  C   UNL d   1       1.485  25.484  25.092 +0.00 +0.00    +0.306    34.460
ATOM     46  O   UNL d   1       0.579  25.577  24.282 -0.00 -0.00    -0.251    34.460
ATOM     47  O   UNL d   1       1.226  25.320  26.402 +0.00 -0.00    -0.481    34.460
ATOM     48  H   UNL d   1       1.531  26.152  26.821 +0.01 +0.00    +0.295    34.460
ATOM     49  C   UNL d   1      -1.045  34.198  23.306 -0.03 -0.00    +0.048    34.460
ATOM     50  C   UNL d   1      -0.350  35.401  23.945 -0.03 -0.01    +0.125    34.460
ATOM     51  C   UNL d   1       1.138  35.198  23.991 -0.06 -0.05    +0.305    34.460
ATOM     52  O   UNL d   1       1.805  34.803  24.931 -0.09 +0.03    -0.251    34.460
ATOM     53  O   UNL d   1       1.728  35.523  22.823 -0.05 +0.14    -0.481    34.460
ATOM     54  H   UNL d   1       2.299  34.752  22.623 -0.44 -0.19    +0.295    34.460
TER
ENDMDL
MODEL       79
USER    Run = 79
USER    Cluster Rank = 13
USER    Number of conformations in this cluster = 1
USER  
USER    RMSD from reference structure       = 44.282 A
USER  
USER    Estimated Free Energy of Binding    =   -4.21 kcal/mol  [=(1)+(2)+(3)-(4)]
USER    Estimated Inhibition Constant, Ki   =  817.33 uM (micromolar)  [Temperature = 298.15 K]
USER    
USER    (1) Final Intermolecular Energy     =   -8.09 kcal/mol
USER        vdW + Hbond + desolv Energy     =   -7.60 kcal/mol
USER        Electrostatic Energy            =   -0.49 kcal/mol
USER    (2) Final Total Internal Energy     =   -2.58 kcal/mol
USER    (3) Torsional Free Energy           =   +3.88 kcal/mol
USER    (4) Unbound System's Energy  [=(2)] =   -2.58 kcal/mol
USER    
USER    
USER  
USER    DPF = D:/Protein_go_brrr/autodock/final/2DN3/heme/dock.dpf
USER    NEWDPF move	heme_opt.pdbqt
USER    NEWDPF about	0.153000 0.018000 -0.028000
USER    NEWDPF tran0	28.604846 40.068975 -1.329355
USER    NEWDPF axisangle0	-0.126549 -0.974260 -0.186553 -52.545700
USER    NEWDPF quaternion0	-0.056016 -0.431253 -0.082577 -0.896696
USER    NEWDPF dihe0	172.72 31.61 -93.32 -139.04 -148.04 41.69 127.16 -32.27 17.37 -55.63 -101.08 -84.62 160.24 
USER  
USER                              x       y       z    vdW   Elec        q     RMS 
ATOM      1  O   UNL d   1      24.994  42.395  -5.367 -0.11 -0.06    -0.289    44.282
ATOM      2  O   UNL d   1      27.227  35.314  -4.249 -0.02 -0.01    -0.289    44.282
ATOM      3  N   UNL d   1      27.260  41.515  -2.920 -0.11 -0.05    -0.247    44.282
ATOM      4  N   UNL d   1      27.280  38.547  -3.044 -0.15 -0.03    -0.247    44.282
ATOM      5  N   UNL d   1      28.664  38.544  -0.524 -0.06 -0.05    -0.354    44.282
ATOM      6  N   UNL d   1      28.621  41.623  -0.394 -0.04 -0.09    -0.354    44.282
ATOM      7  C   UNL d   1      26.103  43.585  -3.542 -0.20 +0.02    +0.084    44.282
ATOM      8  C   UNL d   1      26.681  37.512  -5.175 -0.10 +0.01    +0.084    44.282
ATOM      9  C   UNL d   1      26.821  38.777  -4.322 -0.19 +0.01    +0.058    44.282
ATOM     10  C   UNL d   1      27.078  42.854  -2.615 -0.18 +0.01    +0.058    44.282
ATOM     11  C   UNL d   1      25.780  42.427  -4.438 -0.15 +0.04    +0.193    44.282
ATOM     12  C   UNL d   1      26.563  41.238  -3.974 -0.14 +0.02    +0.109    44.282
ATOM     13  C   UNL d   1      27.110  36.518  -4.134 -0.08 +0.01    +0.193    44.282
ATOM     14  C   UNL d   1      24.828  44.016  -2.811 -0.34 +0.01    +0.026    44.282
ATOM     15  C   UNL d   1      26.476  39.995  -4.767 -0.21 +0.01    +0.055    44.282
ATOM     16  C   UNL d   1      27.693  37.489  -6.325 -0.04 +0.00    +0.026    44.282
ATOM     17  C   UNL d   1      27.439  37.272  -2.886 -0.16 +0.01    +0.109    44.282
ATOM     18  C   UNL d   1      27.754  43.506  -1.650 -0.16 +0.01    +0.050    44.282
ATOM     19  C   UNL d   1      28.735  42.933  -0.802 -0.10 +0.01    +0.045    44.282
ATOM     20  C   UNL d   1      28.378  37.208  -0.637 -0.13 +0.01    +0.045    44.282
ATOM     21  C   UNL d   1      27.850  36.549  -1.674 -0.16 +0.01    +0.057    44.282
ATOM     22  C   UNL d   1      29.270  37.599   1.429 -0.12 -0.00    -0.019    44.282
ATOM     23  C   UNL d   1      29.205  38.875   0.690 -0.12 +0.01    +0.045    44.282
ATOM     24  C   UNL d   1      28.780  36.615   0.638 -0.12 -0.00    -0.022    44.282
ATOM     25  C   UNL d   1      29.625  41.303   0.491 -0.09 +0.01    +0.049    44.282
ATOM     26  C   UNL d   1      29.862  43.467  -0.197 -0.08 -0.01    -0.018    44.282
ATOM     27  C   UNL d   1      30.431  42.428   0.603 -0.09 +0.00    +0.003    44.282
ATOM     28  C   UNL d   1      29.628  40.055   1.170 -0.13 +0.01    +0.052    44.282
ATOM     29  C   UNL d   1      28.649  35.160   0.932 -0.15 +0.02    +0.046    44.282
ATOM     30  C   UNL d   1      30.382  44.856  -0.351 -0.12 +0.03    +0.046    44.282
ATOM     31  H   UNL d   1      28.548  39.175  -1.309 +0.03 +0.02    +0.166    44.282
ATOM     32  H   UNL d   1      27.870  41.009  -0.685 +0.05 +0.03    +0.166    44.282
ATOM     33  C   UNL d   1      26.705  44.739  -4.351 -0.06 +0.02    +0.141    44.282
ATOM     34  C   UNL d   1      27.739  44.275  -5.340 -0.01 +0.04    +0.306    44.282
ATOM     35  O   UNL d   1      28.943  44.226  -5.154 -0.00 -0.04    -0.251    44.282
ATOM     36  O   UNL d   1      27.201  43.894  -6.512 +0.01 -0.06    -0.481    44.282
ATOM     37  H   UNL d   1      26.235  43.874  -6.346 +0.04 +0.04    +0.295    44.282
ATOM     38  C   UNL d   1      31.604  42.559   1.413 -0.18 +0.01    +0.017    44.282
ATOM     39  C   UNL d   1      31.711  42.161   2.691 -0.27 +0.05    +0.092    44.282
ATOM     40  C   UNL d   1      32.978  42.337   3.406 -0.27 +0.18    +0.330    44.282
ATOM     41  O   UNL d   1      33.737  43.286   3.352 -0.91 -0.29    -0.246    44.282
ATOM     42  O   UNL d   1      33.220  41.272   4.185 -0.19 -0.03    -0.477    44.282
ATOM     43  H   UNL d   1      33.713  41.644   4.945 -0.38 -0.11    +0.295    44.282
ATOM     44  C   UNL d   1      25.265  37.207  -5.676 -0.14 +0.01    +0.141    44.282
ATOM     45  C   UNL d   1      24.606  36.072  -4.938 -0.13 -0.01    +0.306    44.282
ATOM     46  O   UNL d   1      24.021  36.142  -3.871 -0.23 +0.02    -0.251    44.282
ATOM     47  O   UNL d   1      24.743  34.895  -5.574 +0.00 +0.04    -0.481    44.282
ATOM     48  H   UNL d   1      25.609  34.549  -5.271 +0.07 -0.03    +0.295    44.282
ATOM     49  C   UNL d   1      29.785  37.463   2.832 -0.16 +0.00    +0.048    44.282
ATOM     50  C   UNL d   1      28.766  37.950   3.862 -0.25 -0.05    +0.125    44.282
ATOM     51  C   UNL d   1      27.716  36.905   4.113 -0.16 -0.11    +0.305    44.282
ATOM     52  O   UNL d   1      27.198  36.162   3.298 -0.21 +0.00    -0.251    44.282
ATOM     53  O   UNL d   1      27.352  36.857   5.410 -0.13 +0.47    -0.481    44.282
ATOM     54  H   UNL d   1      27.312  37.798   5.681 -0.28 -0.67    +0.295    44.282
TER
ENDMDL
MODEL       93
USER    Run = 93
USER    Cluster Rank = 14
USER    Number of conformations in this cluster = 1
USER  
USER    RMSD from reference structure       = 14.765 A
USER  
USER    Estimated Free Energy of Binding    =   -4.19 kcal/mol  [=(1)+(2)+(3)-(4)]
USER    Estimated Inhibition Constant, Ki   =  854.76 uM (micromolar)  [Temperature = 298.15 K]
USER    
USER    (1) Final Intermolecular Energy     =   -8.06 kcal/mol
USER        vdW + Hbond + desolv Energy     =   -7.35 kcal/mol
USER        Electrostatic Energy            =   -0.71 kcal/mol
USER    (2) Final Total Internal Energy     =   -2.46 kcal/mol
USER    (3) Torsional Free Energy           =   +3.88 kcal/mol
USER    (4) Unbound System's Energy  [=(2)] =   -2.46 kcal/mol
USER    
USER    
USER  
USER    DPF = D:/Protein_go_brrr/autodock/final/2DN3/heme/dock.dpf
USER    NEWDPF move	heme_opt.pdbqt
USER    NEWDPF about	0.153000 0.018000 -0.028000
USER    NEWDPF tran0	8.138448 13.245940 7.690045
USER    NEWDPF axisangle0	0.586263 -0.629824 0.509526 -145.637120
USER    NEWDPF quaternion0	0.560101 -0.601718 0.486788 -0.295399
USER    NEWDPF dihe0	-175.40 154.08 -13.85 142.01 44.72 24.14 -63.04 2.85 121.04 -156.22 55.45 -53.00 42.09 
USER  
USER                              x       y       z    vdW   Elec        q     RMS 
ATOM      1  O   UNL d   1       7.749  14.649   1.977 -0.22 -0.14    -0.289    14.765
ATOM      2  O   UNL d   1      13.025  16.211   7.087 -0.25 -0.52    -0.289    14.765
ATOM      3  N   UNL d   1       7.478  13.718   5.287 -0.15 -0.01    -0.247    14.765
ATOM      4  N   UNL d   1      10.112  14.482   6.429 -0.12 -0.03    -0.247    14.765
ATOM      5  N   UNL d   1       9.462  12.904   8.744 -0.07 +0.09    -0.354    14.765
ATOM      6  N   UNL d   1       6.739  12.101   7.543 -0.01 +0.05    -0.354    14.765
ATOM      7  C   UNL d   1       6.169  13.294   3.259 -0.14 +0.01    +0.084    14.765
ATOM      8  C   UNL d   1      11.325  16.295   5.328 -0.25 +0.04    +0.084    14.765
ATOM      9  C   UNL d   1      10.128  15.339   5.352 -0.29 +0.02    +0.058    14.765
ATOM     10  C   UNL d   1       6.367  13.079   4.762 -0.17 +0.00    +0.058    14.765
ATOM     11  C   UNL d   1       7.354  14.182   3.030 -0.12 +0.04    +0.193    14.765
ATOM     12  C   UNL d   1       8.052  14.385   4.340 -0.24 +0.02    +0.109    14.765
ATOM     13  C   UNL d   1      12.005  15.797   6.572 -0.15 +0.14    +0.193    14.765
ATOM     14  C   UNL d   1       6.359  12.000   2.463 -0.06 +0.01    +0.026    14.765
ATOM     15  C   UNL d   1       9.205  15.307   4.378 -0.38 +0.02    +0.055    14.765
ATOM     16  C   UNL d   1      10.895  17.748   5.551 -0.24 +0.01    +0.026    14.765
ATOM     17  C   UNL d   1      11.173  14.693   7.140 -0.18 +0.04    +0.109    14.765
ATOM     18  C   UNL d   1       5.469  12.398   5.499 -0.14 +0.00    +0.050    14.765
ATOM     19  C   UNL d   1       5.525  12.220   6.905 -0.12 -0.00    +0.045    14.765
ATOM     20  C   UNL d   1      10.782  13.168   9.002 -0.18 -0.00    +0.045    14.765
ATOM     21  C   UNL d   1      11.619  13.979   8.346 -0.23 +0.02    +0.057    14.765
ATOM     22  C   UNL d   1      10.010  11.681  10.554 -0.10 +0.01    -0.019    14.765
ATOM     23  C   UNL d   1       8.910  12.017   9.628 -0.11 -0.02    +0.045    14.765
ATOM     24  C   UNL d   1      11.115  12.367  10.179 -0.13 +0.01    -0.022    14.765
ATOM     25  C   UNL d   1       6.559  11.846   8.883 -0.13 -0.01    +0.049    14.765
ATOM     26  C   UNL d   1       4.531  12.077   7.861 -0.10 +0.00    -0.018    14.765
ATOM     27  C   UNL d   1       5.190  11.860   9.111 -0.12 -0.00    +0.003    14.765
ATOM     28  C   UNL d   1       7.663  11.529   9.720 -0.13 -0.01    +0.052    14.765
ATOM     29  C   UNL d   1      12.468  12.371  10.805 -0.15 -0.00    +0.046    14.765
ATOM     30  C   UNL d   1       3.059  12.139   7.630 -0.05 +0.00    +0.046    14.765
ATOM     31  H   UNL d   1       8.960  13.398   8.014 -0.38 -0.07    +0.166    14.765
ATOM     32  H   UNL d   1       7.631  12.155   7.065 -0.07 -0.02    +0.166    14.765
ATOM     33  C   UNL d   1       4.874  14.012   2.863 -0.06 +0.02    +0.141    14.765
ATOM     34  C   UNL d   1       4.863  14.432   1.418 -0.13 +0.08    +0.306    14.765
ATOM     35  O   UNL d   1       4.321  13.840   0.500 -0.05 -0.08    -0.251    14.765
ATOM     36  O   UNL d   1       5.535  15.577   1.205 -0.18 -0.16    -0.481    14.765
ATOM     37  H   UNL d   1       5.892  15.821   2.086 -0.41 -0.00    +0.295    14.765
ATOM     38  C   UNL d   1       4.531  11.647  10.364 -0.08 -0.00    +0.017    14.765
ATOM     39  C   UNL d   1       5.109  11.144  11.466 -0.06 -0.01    +0.092    14.765
ATOM     40  C   UNL d   1       4.326  10.991  12.695 -0.01 -0.03    +0.330    14.765
ATOM     41  O   UNL d   1       3.117  10.913  12.802 -0.00 +0.01    -0.246    14.765
ATOM     42  O   UNL d   1       5.143  10.935  13.759 +0.00 +0.05    -0.477    14.765
ATOM     43  H   UNL d   1       5.983  10.593  13.391 +0.03 -0.04    +0.295    14.765
ATOM     44  C   UNL d   1      12.246  16.170   4.110 -0.15 +0.05    +0.141    14.765
ATOM     45  C   UNL d   1      12.991  17.439   3.796 -0.15 +0.09    +0.306    14.765
ATOM     46  O   UNL d   1      12.779  18.194   2.862 -0.29 -0.04    -0.251    14.765
ATOM     47  O   UNL d   1      13.990  17.679   4.664 -0.04 -0.20    -0.481    14.765
ATOM     48  H   UNL d   1      14.535  18.370   4.231 -0.37 +0.01    +0.295    14.765
ATOM     49  C   UNL d   1       9.884  10.719  11.699 -0.07 -0.02    +0.048    14.765
ATOM     50  C   UNL d   1       8.558  10.889  12.441 -0.06 -0.06    +0.125    14.765
ATOM     51  C   UNL d   1       8.790  11.157  13.900 -0.04 -0.12    +0.305    14.765
ATOM     52  O   UNL d   1       9.856  11.185  14.490 -0.05 +0.05    -0.251    14.765
ATOM     53  O   UNL d   1       7.636  11.370  14.564 -0.04 +0.12    -0.481    14.765
ATOM     54  H   UNL d   1       7.093  11.890  13.936 +0.04 -0.14    +0.295    14.765
TER
ENDMDL
MODEL       23
USER    Run = 23
USER    Cluster Rank = 15
USER    Number of conformations in this cluster = 2
USER  
USER    RMSD from reference structure       = 41.729 A
USER  
USER    Estimated Free Energy of Binding    =   -4.12 kcal/mol  [=(1)+(2)+(3)-(4)]
USER    Estimated Inhibition Constant, Ki   =  951.96 uM (micromolar)  [Temperature = 298.15 K]
USER    
USER    (1) Final Intermolecular Energy     =   -8.00 kcal/mol
USER        vdW + Hbond + desolv Energy     =   -7.57 kcal/mol
USER        Electrostatic Energy            =   -0.43 kcal/mol
USER    (2) Final Total Internal Energy     =   -2.10 kcal/mol
USER    (3) Torsional Free Energy           =   +3.88 kcal/mol
USER    (4) Unbound System's Energy  [=(2)] =   -2.10 kcal/mol
USER    
USER    
USER  
USER    DPF = D:/Protein_go_brrr/autodock/final/2DN3/heme/dock.dpf
USER    NEWDPF move	heme_opt.pdbqt
USER    NEWDPF about	0.153000 0.018000 -0.028000
USER    NEWDPF tran0	41.751261 18.071799 7.750748
USER    NEWDPF axisangle0	-0.260315 0.668840 0.696339 -150.034823
USER    NEWDPF quaternion0	-0.251465 0.646103 0.672667 -0.258526
USER    NEWDPF dihe0	-179.34 -179.91 -146.14 -61.54 -21.15 -1.91 126.97 108.94 -6.96 -33.69 144.21 -85.96 -170.65 
USER  
USER                              x       y       z    vdW   Elec        q     RMS 
ATOM      1  O   UNL d   1      44.764  18.538  12.797 -0.08 -0.10    -0.289    41.729
ATOM      2  O   UNL d   1      46.984  16.586   5.894 -0.07 -0.17    -0.289    41.729
ATOM      3  N   UNL d   1      42.582  18.270  10.139 -0.12 -0.03    -0.247    41.729
ATOM      4  N   UNL d   1      44.380  17.765   7.828 -0.05 -0.10    -0.247    41.729
ATOM      5  N   UNL d   1      42.158  18.332   6.094 -0.05 -0.09    -0.354    41.729
ATOM      6  N   UNL d   1      40.305  18.873   8.496 -0.14 -0.01    -0.354    41.729
ATOM      7  C   UNL d   1      42.394  19.033  12.460 -0.25 +0.01    +0.084    41.729
ATOM      8  C   UNL d   1      46.534  16.710   8.297 -0.06 +0.03    +0.084    41.729
ATOM      9  C   UNL d   1      45.231  17.326   8.818 -0.11 +0.02    +0.058    41.729
ATOM     10  C   UNL d   1      41.732  18.789  11.101 -0.26 +0.00    +0.058    41.729
ATOM     11  C   UNL d   1      43.764  18.544  12.102 -0.12 +0.04    +0.193    41.729
ATOM     12  C   UNL d   1      43.744  18.084  10.677 -0.14 +0.02    +0.109    41.729
ATOM     13  C   UNL d   1      46.281  16.915   6.830 -0.07 +0.10    +0.193    41.729
ATOM     14  C   UNL d   1      42.474  20.524  12.801 -0.43 +0.00    +0.026    41.729
ATOM     15  C   UNL d   1      44.969  17.470  10.126 -0.12 +0.01    +0.055    41.729
ATOM     16  C   UNL d   1      46.604  15.206   8.579 -0.01 +0.01    +0.026    41.729
ATOM     17  C   UNL d   1      44.947  17.569   6.681 -0.12 +0.06    +0.109    41.729
ATOM     18  C   UNL d   1      40.413  18.986  10.916 -0.19 +0.00    +0.050    41.729
ATOM     19  C   UNL d   1      39.700  18.707   9.722 -0.18 +0.00    +0.045    41.729
ATOM     20  C   UNL d   1      43.172  18.290   5.172 -0.13 +0.02    +0.045    41.729
ATOM     21  C   UNL d   1      44.449  17.934   5.346 -0.11 +0.04    +0.057    41.729
ATOM     22  C   UNL d   1      41.261  18.993   4.136 -0.10 -0.00    -0.019    41.729
ATOM     23  C   UNL d   1      40.966  18.746   5.562 -0.13 +0.01    +0.045    41.729
ATOM     24  C   UNL d   1      42.568  18.720   3.911 -0.12 -0.01    -0.022    41.729
ATOM     25  C   UNL d   1      39.410  18.637   7.479 -0.19 -0.00    +0.049    41.729
ATOM     26  C   UNL d   1      38.389  18.317   9.496 -0.25 -0.00    -0.018    41.729
ATOM     27  C   UNL d   1      38.217  18.255   8.078 -0.18 -0.00    +0.003    41.729
ATOM     28  C   UNL d   1      39.758  18.897   6.126 -0.18 -0.00    +0.052    41.729
ATOM     29  C   UNL d   1      43.333  18.806   2.634 -0.10 +0.02    +0.046    41.729
ATOM     30  C   UNL d   1      37.358  18.018  10.531 -0.14 +0.00    +0.046    41.729
ATOM     31  H   UNL d   1      42.297  18.004   7.044 +0.04 +0.04    +0.166    41.729
ATOM     32  H   UNL d   1      41.267  19.170   8.382 +0.04 +0.01    +0.166    41.729
ATOM     33  C   UNL d   1      41.820  18.220  13.626 -0.28 +0.02    +0.141    41.729
ATOM     34  C   UNL d   1      41.507  16.799  13.242 -0.11 +0.03    +0.306    41.729
ATOM     35  O   UNL d   1      42.116  16.121  12.432 -0.04 -0.03    -0.251    41.729
ATOM     36  O   UNL d   1      40.443  16.307  13.902 -0.02 +0.01    -0.481    41.729
ATOM     37  H   UNL d   1      40.168  17.032  14.502 -0.40 -0.07    +0.295    41.729
ATOM     38  C   UNL d   1      37.000  17.906   7.409 -0.13 -0.00    +0.017    41.729
ATOM     39  C   UNL d   1      36.440  18.601   6.408 -0.13 -0.03    +0.092    41.729
ATOM     40  C   UNL d   1      35.197  18.125   5.794 -0.02 -0.11    +0.330    41.729
ATOM     41  O   UNL d   1      34.597  17.095   6.035 -0.01 +0.04    -0.246    41.729
ATOM     42  O   UNL d   1      34.761  19.011   4.886 -0.03 +0.37    -0.477    41.729
ATOM     43  H   UNL d   1      35.431  19.726   4.915 -0.47 -0.42    +0.295    41.729
ATOM     44  C   UNL d   1      47.821  17.417   8.736 -0.08 +0.06    +0.141    41.729
ATOM     45  C   UNL d   1      48.169  18.603   7.878 -0.05 +0.21    +0.306    41.729
ATOM     46  O   UNL d   1      47.722  19.732   7.982 -0.55 -0.22    -0.251    41.729
ATOM     47  O   UNL d   1      49.050  18.296   6.909 -0.03 -0.35    -0.481    41.729
ATOM     48  H   UNL d   1      48.838  17.370   6.665 +0.04 +0.18    +0.295    41.729
ATOM     49  C   UNL d   1      40.252  19.483   3.140 -0.07 +0.00    +0.048    41.729
ATOM     50  C   UNL d   1      40.475  20.951   2.778 -0.10 +0.01    +0.125    41.729
ATOM     51  C   UNL d   1      40.970  21.727   3.966 -0.21 +0.03    +0.305    41.729
ATOM     52  O   UNL d   1      42.110  22.092   4.193 -0.32 -0.09    -0.251    41.729
ATOM     53  O   UNL d   1      39.978  22.001   4.837 -0.20 +0.08    -0.481    41.729
ATOM     54  H   UNL d   1      40.251  21.542   5.660 -0.21 -0.08    +0.295    41.729
TER
ENDMDL
MODEL       69
USER    Run = 69
USER    Cluster Rank = 16
USER    Number of conformations in this cluster = 2
USER  
USER    RMSD from reference structure       = 44.399 A
USER  
USER    Estimated Free Energy of Binding    =   -4.08 kcal/mol  [=(1)+(2)+(3)-(4)]
USER    Estimated Inhibition Constant, Ki   =    1.02 mM (millimolar)  [Temperature = 298.15 K]
USER    
USER    (1) Final Intermolecular Energy     =   -7.96 kcal/mol
USER        vdW + Hbond + desolv Energy     =   -7.57 kcal/mol
USER        Electrostatic Energy            =   -0.39 kcal/mol
USER    (2) Final Total Internal Energy     =   -2.26 kcal/mol
USER    (3) Torsional Free Energy           =   +3.88 kcal/mol
USER    (4) Unbound System's Energy  [=(2)] =   -2.26 kcal/mol
USER    
USER    
USER  
USER    DPF = D:/Protein_go_brrr/autodock/final/2DN3/heme/dock.dpf
USER    NEWDPF move	heme_opt.pdbqt
USER    NEWDPF about	0.153000 0.018000 -0.028000
USER    NEWDPF tran0	39.647702 14.683365 23.586828
USER    NEWDPF axisangle0	0.088230 -0.561716 0.822612 -134.815378
USER    NEWDPF quaternion0	0.081459 -0.518611 0.759486 -0.384171
USER    NEWDPF dihe0	99.40 115.02 -147.83 148.95 -148.41 135.33 130.16 -50.12 68.04 -14.29 -37.11 179.21 144.55 
USER  
USER                              x       y       z    vdW   Elec        q     RMS 
ATOM      1  O   UNL d   1      42.222  11.050  19.723 -0.02 -0.03    -0.289    44.399
ATOM      2  O   UNL d   1      45.156  15.509  25.005 -0.06 -0.03    -0.289    44.399
ATOM      3  N   UNL d   1      40.300  13.133  21.688 -0.04 +0.02    -0.247    44.399
ATOM      4  N   UNL d   1      42.257  14.235  23.633 -0.14 +0.00    -0.247    44.399
ATOM      5  N   UNL d   1      40.035  15.179  25.194 -0.14 +0.08    -0.354    44.399
ATOM      6  N   UNL d   1      38.011  14.015  23.182 +0.01 +0.10    -0.354    44.399
ATOM      7  C   UNL d   1      39.821  11.403  20.019 -0.07 +0.01    +0.084    44.399
ATOM      8  C   UNL d   1      44.595  14.338  22.930 -0.11 +0.01    +0.084    44.399
ATOM      9  C   UNL d   1      43.155  13.899  22.645 -0.18 +0.00    +0.058    44.399
ATOM     10  C   UNL d   1      39.304  12.443  21.017 -0.13 +0.00    +0.058    44.399
ATOM     11  C   UNL d   1      41.286  11.641  20.231 -0.07 +0.02    +0.193    44.399
ATOM     12  C   UNL d   1      41.446  12.729  21.246 -0.13 +0.01    +0.109    44.399
ATOM     13  C   UNL d   1      44.355  14.952  24.280 -0.09 +0.02    +0.193    44.399
ATOM     14  C   UNL d   1      39.483   9.974  20.451 -0.03 +0.00    +0.026    44.399
ATOM     15  C   UNL d   1      42.812  13.201  21.551 -0.18 +0.00    +0.055    44.399
ATOM     16  C   UNL d   1      45.056  15.434  21.965 -0.17 +0.01    +0.026    44.399
ATOM     17  C   UNL d   1      42.900  14.819  24.593 -0.14 +0.01    +0.109    44.399
ATOM     18  C   UNL d   1      37.989  12.705  21.142 -0.15 +0.00    +0.050    44.399
ATOM     19  C   UNL d   1      37.425  13.704  21.975 -0.09 -0.00    +0.045    44.399
ATOM     20  C   UNL d   1      41.058  15.410  26.077 -0.21 -0.00    +0.045    44.399
ATOM     21  C   UNL d   1      42.375  15.297  25.881 -0.19 -0.00    +0.057    44.399
ATOM     22  C   UNL d   1      39.070  15.818  27.127 -0.25 +0.00    -0.019    44.399
ATOM     23  C   UNL d   1      38.797  15.397  25.738 -0.30 -0.01    +0.045    44.399
ATOM     24  C   UNL d   1      40.411  15.825  27.321 -0.19 +0.00    -0.022    44.399
ATOM     25  C   UNL d   1      37.253  14.939  23.863 -0.22 -0.02    +0.049    44.399
ATOM     26  C   UNL d   1      36.277  14.473  21.853 -0.20 +0.00    -0.018    44.399
ATOM     27  C   UNL d   1      36.184  15.265  23.039 -0.27 -0.00    +0.003    44.399
ATOM     28  C   UNL d   1      37.572  15.300  25.200 -0.31 -0.02    +0.052    44.399
ATOM     29  C   UNL d   1      41.173  16.188  28.549 -0.12 -0.00    +0.046    44.399
ATOM     30  C   UNL d   1      35.325  14.474  20.705 -0.17 +0.00    +0.046    44.399
ATOM     31  H   UNL d   1      40.219  14.949  24.224 -0.49 -0.07    +0.166    44.399
ATOM     32  H   UNL d   1      38.861  13.581  23.520 -0.17 -0.04    +0.166    44.399
ATOM     33  C   UNL d   1      39.442  11.653  18.555 -0.08 +0.02    +0.141    44.399
ATOM     34  C   UNL d   1      40.640  11.918  17.684 -0.05 +0.04    +0.306    44.399
ATOM     35  O   UNL d   1      41.092  13.013  17.393 -0.05 -0.04    -0.251    44.399
ATOM     36  O   UNL d   1      41.208  10.788  17.226 -0.00 -0.05    -0.481    44.399
ATOM     37  H   UNL d   1      41.793  10.493  17.956 +0.02 +0.03    +0.295    44.399
ATOM     38  C   UNL d   1      35.134  16.193  23.331 -0.35 -0.00    +0.017    44.399
ATOM     39  C   UNL d   1      33.844  16.031  23.001 -0.24 +0.00    +0.092    44.399
ATOM     40  C   UNL d   1      32.861  17.052  23.375 -0.17 +0.05    +0.330    44.399
ATOM     41  O   UNL d   1      31.998  17.545  22.674 -0.29 -0.10    -0.246    44.399
ATOM     42  O   UNL d   1      33.023  17.399  24.661 -0.63 -0.01    -0.477    44.399
ATOM     43  H   UNL d   1      32.802  16.582  25.154 +0.11 -0.09    +0.295    44.399
ATOM     44  C   UNL d   1      45.625  13.207  23.018 -0.03 +0.01    +0.141    44.399
ATOM     45  C   UNL d   1      45.375  12.263  24.163 -0.00 +0.02    +0.306    44.399
ATOM     46  O   UNL d   1      44.642  11.290  24.156 -0.00 -0.02    -0.251    44.399
ATOM     47  O   UNL d   1      46.047  12.613  25.275 +0.00 -0.04    -0.481    44.399
ATOM     48  H   UNL d   1      46.102  13.592  25.234 +0.02 +0.03    +0.295    44.399
ATOM     49  C   UNL d   1      38.007  16.156  28.130 -0.15 -0.02    +0.048    44.399
ATOM     50  C   UNL d   1      37.087  14.966  28.406 -0.09 -0.06    +0.125    44.399
ATOM     51  C   UNL d   1      36.675  14.931  29.850 -0.05 -0.14    +0.305    44.399
ATOM     52  O   UNL d   1      37.399  14.900  30.830 -0.03 +0.06    -0.251    44.399
ATOM     53  O   UNL d   1      35.334  14.925  29.992 -0.01 +0.39    -0.481    44.399
ATOM     54  H   UNL d   1      35.011  15.439  29.223 -0.45 -0.54    +0.295    44.399
TER
ENDMDL
MODEL       83
USER    Run = 83
USER    Cluster Rank = 17
USER    Number of conformations in this cluster = 1
USER  
USER    RMSD from reference structure       = 55.381 A
USER  
USER    Estimated Free Energy of Binding    =   -4.07 kcal/mol  [=(1)+(2)+(3)-(4)]
USER    Estimated Inhibition Constant, Ki   =    1.05 mM (millimolar)  [Temperature = 298.15 K]
USER    
USER    (1) Final Intermolecular Energy     =   -7.94 kcal/mol
USER        vdW + Hbond + desolv Energy     =   -7.54 kcal/mol
USER        Electrostatic Energy            =   -0.40 kcal/mol
USER    (2) Final Total Internal Energy     =   -2.40 kcal/mol
USER    (3) Torsional Free Energy           =   +3.88 kcal/mol
USER    (4) Unbound System's Energy  [=(2)] =   -2.40 kcal/mol
USER    
USER    
USER  
USER    DPF = D:/Protein_go_brrr/autodock/final/2DN3/heme/dock.dpf
USER    NEWDPF move	heme_opt.pdbqt
USER    NEWDPF about	0.153000 0.018000 -0.028000
USER    NEWDPF tran0	42.714978 43.007163 1.959997
USER    NEWDPF axisangle0	-0.970225 0.226217 0.086537 173.242102
USER    NEWDPF quaternion0	-0.968539 0.225824 0.086387 0.058940
USER    NEWDPF dihe0	176.62 -138.76 43.11 -139.44 47.80 -124.13 132.93 44.39 151.55 -175.47 61.35 15.44 130.98 
USER  
USER                              x       y       z    vdW   Elec        q     RMS 
ATOM      1  O   UNL d   1      36.913  43.965   2.374 -0.18 -0.32    -0.289    55.381
ATOM      2  O   UNL d   1      42.745  48.633   3.136 -0.09 +0.03    -0.289    55.381
ATOM      3  N   UNL d   1      40.190  42.908   2.175 -0.05 -0.07    -0.247    55.381
ATOM      4  N   UNL d   1      41.734  45.444   2.289 -0.04 -0.04    -0.247    55.381
ATOM      5  N   UNL d   1      44.044  43.969   1.424 -0.04 -0.04    -0.354    55.381
ATOM      6  N   UNL d   1      42.431  41.346   1.289 -0.05 -0.07    -0.354    55.381
ATOM      7  C   UNL d   1      38.007  41.852   1.817 -0.16 +0.04    +0.084    55.381
ATOM      8  C   UNL d   1      40.686  47.341   3.420 -0.14 +0.01    +0.084    55.381
ATOM      9  C   UNL d   1      40.586  45.905   2.895 -0.11 +0.01    +0.058    55.381
ATOM     10  C   UNL d   1      39.535  41.740   1.823 -0.13 +0.02    +0.058    55.381
ATOM     11  C   UNL d   1      37.914  43.285   2.245 -0.14 +0.11    +0.193    55.381
ATOM     12  C   UNL d   1      39.302  43.806   2.456 -0.11 +0.04    +0.109    55.381
ATOM     13  C   UNL d   1      42.091  47.623   2.967 -0.07 +0.00    +0.193    55.381
ATOM     14  C   UNL d   1      37.427  41.718   0.407 -0.11 +0.01    +0.026    55.381
ATOM     15  C   UNL d   1      39.459  45.180   2.973 -0.18 +0.02    +0.055    55.381
ATOM     16  C   UNL d   1      40.642  47.390   4.950 -0.38 -0.00    +0.026    55.381
ATOM     17  C   UNL d   1      42.610  46.397   2.290 -0.07 +0.01    +0.109    55.381
ATOM     18  C   UNL d   1      40.155  40.568   1.591 -0.15 +0.01    +0.050    55.381
ATOM     19  C   UNL d   1      41.555  40.350   1.658 -0.19 +0.01    +0.045    55.381
ATOM     20  C   UNL d   1      44.527  45.247   1.314 -0.07 +0.00    +0.045    55.381
ATOM     21  C   UNL d   1      43.958  46.393   1.701 -0.08 +0.00    +0.057    55.381
ATOM     22  C   UNL d   1      46.061  43.801   0.435 -0.06 -0.00    -0.019    55.381
ATOM     23  C   UNL d   1      44.901  43.027   0.920 -0.07 +0.01    +0.045    55.381
ATOM     24  C   UNL d   1      45.834  45.115   0.672 -0.04 -0.00    -0.022    55.381
ATOM     25  C   UNL d   1      43.728  40.893   1.345 -0.10 +0.01    +0.049    55.381
ATOM     26  C   UNL d   1      42.303  39.234   1.997 -0.31 -0.00    -0.018    55.381
ATOM     27  C   UNL d   1      43.676  39.588   1.816 -0.23 +0.00    +0.003    55.381
ATOM     28  C   UNL d   1      44.801  41.690   0.860 -0.08 +0.01    +0.052    55.381
ATOM     29  C   UNL d   1      46.712  46.282   0.375 -0.02 -0.00    +0.046    55.381
ATOM     30  C   UNL d   1      41.778  37.918   2.463 -0.04 +0.01    +0.046    55.381
ATOM     31  H   UNL d   1      43.175  43.774   1.909 +0.03 +0.03    +0.166    55.381
ATOM     32  H   UNL d   1      42.137  42.266   0.982 +0.03 +0.03    +0.166    55.381
ATOM     33  C   UNL d   1      37.278  40.944   2.813 -0.25 +0.05    +0.141    55.381
ATOM     34  C   UNL d   1      35.828  40.747   2.463 -0.19 +0.13    +0.306    55.381
ATOM     35  O   UNL d   1      35.343  39.763   1.929 -0.60 -0.12    -0.251    55.381
ATOM     36  O   UNL d   1      35.064  41.799   2.806 -0.12 -0.26    -0.481    55.381
ATOM     37  H   UNL d   1      35.670  42.394   3.296 -0.27 +0.12    +0.295    55.381
ATOM     38  C   UNL d   1      44.789  38.717   2.041 -0.30 +0.01    +0.017    55.381
ATOM     39  C   UNL d   1      45.854  39.002   2.806 -0.14 +0.03    +0.092    55.381
ATOM     40  C   UNL d   1      46.923  38.013   2.968 -0.16 +0.15    +0.330    55.381
ATOM     41  O   UNL d   1      47.380  37.576   4.007 -0.26 -0.17    -0.246    55.381
ATOM     42  O   UNL d   1      47.364  37.608   1.767 -0.04 -0.16    -0.477    55.381
ATOM     43  H   UNL d   1      47.396  38.432   1.239 +0.08 +0.07    +0.295    55.381
ATOM     44  C   UNL d   1      39.700  48.340   2.804 -0.16 +0.04    +0.141    55.381
ATOM     45  C   UNL d   1      39.037  49.226   3.825 -0.21 +0.13    +0.306    55.381
ATOM     46  O   UNL d   1      39.450  50.297   4.235 -0.68 -0.16    -0.251    55.381
ATOM     47  O   UNL d   1      37.894  48.699   4.300 -0.43 -0.29    -0.481    55.381
ATOM     48  H   UNL d   1      37.269  49.454   4.335 -0.31 +0.15    +0.295    55.381
ATOM     49  C   UNL d   1      47.265  43.193  -0.222 -0.03 +0.00    +0.048    55.381
ATOM     50  C   UNL d   1      46.875  42.193  -1.310 -0.01 +0.01    +0.125    55.381
ATOM     51  C   UNL d   1      47.368  40.814  -0.973 -0.01 +0.03    +0.305    55.381
ATOM     52  O   UNL d   1      47.404  40.285   0.124 -0.02 -0.03    -0.251    55.381
ATOM     53  O   UNL d   1      47.814  40.158  -2.063 +0.00 -0.05    -0.481    55.381
ATOM     54  H   UNL d   1      48.295  40.843  -2.573 +0.00 +0.02    +0.295    55.381
TER
ENDMDL
MODEL       64
USER    Run = 64
USER    Cluster Rank = 18
USER    Number of conformations in this cluster = 1
USER  
USER    RMSD from reference structure       = 31.977 A
USER  
USER    Estimated Free Energy of Binding    =   -4.06 kcal/mol  [=(1)+(2)+(3)-(4)]
USER    Estimated Inhibition Constant, Ki   =    1.05 mM (millimolar)  [Temperature = 298.15 K]
USER    
USER    (1) Final Intermolecular Energy     =   -7.94 kcal/mol
USER        vdW + Hbond + desolv Energy     =   -7.80 kcal/mol
USER        Electrostatic Energy            =   -0.14 kcal/mol
USER    (2) Final Total Internal Energy     =   -3.07 kcal/mol
USER    (3) Torsional Free Energy           =   +3.88 kcal/mol
USER    (4) Unbound System's Energy  [=(2)] =   -3.07 kcal/mol
USER    
USER    
USER  
USER    DPF = D:/Protein_go_brrr/autodock/final/2DN3/heme/dock.dpf
USER    NEWDPF move	heme_opt.pdbqt
USER    NEWDPF about	0.153000 0.018000 -0.028000
USER    NEWDPF tran0	25.244895 27.193482 -1.295897
USER    NEWDPF axisangle0	-0.673640 0.222095 0.704899 -133.955173
USER    NEWDPF quaternion0	-0.619986 0.204406 0.648755 -0.391091
USER    NEWDPF dihe0	141.32 170.75 17.09 49.13 -35.61 97.55 62.91 70.33 -133.87 122.31 -79.86 -129.44 10.70 
USER  
USER                              x       y       z    vdW   Elec        q     RMS 
ATOM      1  O   UNL d   1      23.123  25.223   3.839 -0.07 -0.04    -0.289    31.977
ATOM      2  O   UNL d   1      29.752  28.293   2.098 -0.75 -0.32    -0.289    31.977
ATOM      3  N   UNL d   1      23.981  26.113   0.620 -0.09 +0.18    -0.247    31.977
ATOM      4  N   UNL d   1      26.593  27.487   0.964 -0.06 +0.15    -0.247    31.977
ATOM      5  N   UNL d   1      26.328  28.467  -1.726 -0.06 +0.17    -0.354    31.977
ATOM      6  N   UNL d   1      23.609  27.055  -2.068 -0.16 +0.25    -0.354    31.977
ATOM      7  C   UNL d   1      21.943  25.286   1.700 -0.17 -0.01    +0.084    31.977
ATOM      8  C   UNL d   1      27.936  26.865   2.909 -0.21 +0.02    +0.084    31.977
ATOM      9  C   UNL d   1      26.625  26.747   2.125 -0.19 -0.01    +0.058    31.977
ATOM     10  C   UNL d   1      22.657  25.758   0.430 -0.21 -0.02    +0.058    31.977
ATOM     11  C   UNL d   1      23.104  25.421   2.638 -0.10 -0.02    +0.193    31.977
ATOM     12  C   UNL d   1      24.287  25.905   1.859 -0.11 -0.05    +0.109    31.977
ATOM     13  C   UNL d   1      28.629  27.838   1.997 -0.16 +0.11    +0.193    31.977
ATOM     14  C   UNL d   1      20.841  26.256   2.134 -0.42 -0.00    +0.026    31.977
ATOM     15  C   UNL d   1      25.581  26.026   2.561 -0.18 -0.01    +0.055    31.977
ATOM     16  C   UNL d   1      28.718  25.548   2.909 +0.02 +0.00    +0.026    31.977
ATOM     17  C   UNL d   1      27.706  28.141   0.861 -0.16 +0.01    +0.109    31.977
ATOM     18  C   UNL d   1      22.047  25.730  -0.771 -0.31 -0.02    +0.050    31.977
ATOM     19  C   UNL d   1      22.653  26.066  -2.008 -0.26 -0.02    +0.045    31.977
ATOM     20  C   UNL d   1      27.407  29.204  -1.312 -0.12 -0.00    +0.045    31.977
ATOM     21  C   UNL d   1      28.102  29.106  -0.175 -0.16 +0.02    +0.057    31.977
ATOM     22  C   UNL d   1      26.754  29.943  -3.373 -0.09 +0.01    -0.019    31.977
ATOM     23  C   UNL d   1      25.863  28.841  -2.959 -0.15 -0.02    +0.045    31.977
ATOM     24  C   UNL d   1      27.667  30.152  -2.395 -0.07 -0.00    -0.022    31.977
ATOM     25  C   UNL d   1      23.993  27.278  -3.370 -0.23 -0.04    +0.049    31.977
ATOM     26  C   UNL d   1      22.436  25.610  -3.299 -0.14 +0.01    -0.018    31.977
ATOM     27  C   UNL d   1      23.299  26.365  -4.153 -0.22 -0.00    +0.003    31.977
ATOM     28  C   UNL d   1      24.855  28.358  -3.701 -0.19 -0.04    +0.052    31.977
ATOM     29  C   UNL d   1      28.780  31.144  -2.353 -0.05 +0.01    +0.046    31.977
ATOM     30  C   UNL d   1      21.488  24.538  -3.717 -0.06 -0.01    +0.046    31.977
ATOM     31  H   UNL d   1      25.988  27.681  -1.183 +0.01 -0.11    +0.166    31.977
ATOM     32  H   UNL d   1      23.941  27.563  -1.257 -0.18 -0.18    +0.166    31.977
ATOM     33  C   UNL d   1      21.439  23.839   1.672 -0.10 -0.00    +0.141    31.977
ATOM     34  C   UNL d   1      20.072  23.714   1.056 -0.16 +0.01    +0.306    31.977
ATOM     35  O   UNL d   1      19.527  24.535   0.339 -0.27 +0.00    -0.251    31.977
ATOM     36  O   UNL d   1      19.464  22.557   1.375 -0.71 -0.12    -0.481    31.977
ATOM     37  H   UNL d   1      20.172  21.882   1.317 +0.10 +0.06    +0.295    31.977
ATOM     38  C   UNL d   1      23.383  26.224  -5.575 -0.19 -0.01    +0.017    31.977
ATOM     39  C   UNL d   1      22.610  26.866  -6.464 -0.21 -0.08    +0.092    31.977
ATOM     40  C   UNL d   1      22.809  26.646  -7.899 -0.07 -0.18    +0.330    31.977
ATOM     41  O   UNL d   1      22.214  25.870  -8.621 -0.06 +0.08    -0.246    31.977
ATOM     42  O   UNL d   1      23.777  27.452  -8.359 -0.02 +0.28    -0.477    31.977
ATOM     43  H   UNL d   1      23.954  28.059  -7.611 -0.08 -0.29    +0.295    31.977
ATOM     44  C   UNL d   1      27.810  27.435   4.325 -0.30 +0.06    +0.141    31.977
ATOM     45  C   UNL d   1      27.179  26.474   5.298 -0.17 +0.10    +0.306    31.977
ATOM     46  O   UNL d   1      27.076  25.267   5.164 -0.13 -0.04    -0.251    31.977
ATOM     47  O   UNL d   1      26.684  27.093   6.385 -0.13 -0.27    -0.481    31.977
ATOM     48  H   UNL d   1      26.552  26.376   7.040 +0.16 +0.11    +0.295    31.977
ATOM     49  C   UNL d   1      26.623  30.692  -4.667 -0.07 -0.02    +0.048    31.977
ATOM     50  C   UNL d   1      27.067  29.847  -5.860 -0.02 -0.03    +0.125    31.977
ATOM     51  C   UNL d   1      25.881  29.280  -6.587 -0.04 -0.17    +0.305    31.977
ATOM     52  O   UNL d   1      25.011  29.892  -7.180 -0.04 +0.24    -0.251    31.977
ATOM     53  O   UNL d   1      25.843  27.934  -6.519 -0.01 +0.22    -0.481    31.977
ATOM     54  H   UNL d   1      25.696  27.652  -7.446 +0.02 -0.11    +0.295    31.977
TER
ENDMDL
MODEL       60
USER    Run = 60
USER    Cluster Rank = 19
USER    Number of conformations in this cluster = 1
USER  
USER    RMSD from reference structure       = 40.166 A
USER  
USER    Estimated Free Energy of Binding    =   -4.03 kcal/mol  [=(1)+(2)+(3)-(4)]
USER    Estimated Inhibition Constant, Ki   =    1.10 mM (millimolar)  [Temperature = 298.15 K]
USER    
USER    (1) Final Intermolecular Energy     =   -7.91 kcal/mol
USER        vdW + Hbond + desolv Energy     =   -7.21 kcal/mol
USER        Electrostatic Energy            =   -0.70 kcal/mol
USER    (2) Final Total Internal Energy     =   -2.45 kcal/mol
USER    (3) Torsional Free Energy           =   +3.88 kcal/mol
USER    (4) Unbound System's Energy  [=(2)] =   -2.45 kcal/mol
USER    
USER    
USER  
USER    DPF = D:/Protein_go_brrr/autodock/final/2DN3/heme/dock.dpf
USER    NEWDPF move	heme_opt.pdbqt
USER    NEWDPF about	0.153000 0.018000 -0.028000
USER    NEWDPF tran0	17.546217 26.407412 29.110697
USER    NEWDPF axisangle0	-0.877627 0.477253 -0.044723 -149.322019
USER    NEWDPF quaternion0	-0.846364 0.460252 -0.043129 -0.264529
USER    NEWDPF dihe0	-91.44 -63.36 -165.20 -64.98 46.44 -125.68 135.02 -83.07 131.32 -23.13 -67.02 162.04 8.22 
USER  
USER                              x       y       z    vdW   Elec        q     RMS 
ATOM      1  O   UNL d   1      13.261  30.434  28.689 -0.16 +0.12    -0.289    40.166
ATOM      2  O   UNL d   1      19.190  30.008  33.278 -0.03 -0.15    -0.289    40.166
ATOM      3  N   UNL d   1      15.461  27.778  28.658 -0.08 -0.00    -0.247    40.166
ATOM      4  N   UNL d   1      17.586  28.629  30.552 -0.05 -0.05    -0.247    40.166
ATOM      5  N   UNL d   1      19.216  26.487  29.540 -0.06 -0.07    -0.354    40.166
ATOM      6  N   UNL d   1      17.013  25.624  27.564 -0.11 -0.04    -0.354    40.166
ATOM      7  C   UNL d   1      13.551  28.458  27.280 -0.21 -0.01    +0.084    40.166
ATOM      8  C   UNL d   1      16.957  30.219  32.297 -0.04 +0.02    +0.084    40.166
ATOM      9  C   UNL d   1      16.580  29.435  31.036 -0.08 +0.01    +0.058    40.166
ATOM     10  C   UNL d   1      14.676  27.458  27.562 -0.17 -0.00    +0.058    40.166
ATOM     11  C   UNL d   1      13.827  29.390  28.421 -0.15 -0.03    +0.193    40.166
ATOM     12  C   UNL d   1      14.991  28.856  29.196 -0.12 -0.00    +0.109    40.166
ATOM     13  C   UNL d   1      18.375  29.737  32.418 -0.04 +0.07    +0.193    40.166
ATOM     14  C   UNL d   1      13.767  29.209  25.963 -0.47 -0.01    +0.026    40.166
ATOM     15  C   UNL d   1      15.390  29.565  30.429 -0.12 +0.00    +0.055    40.166
ATOM     16  C   UNL d   1      16.169  29.740  33.520 -0.02 +0.00    +0.026    40.166
ATOM     17  C   UNL d   1      18.634  28.784  31.296 -0.07 +0.03    +0.109    40.166
ATOM     18  C   UNL d   1      14.808  26.327  26.844 -0.07 +0.00    +0.050    40.166
ATOM     19  C   UNL d   1      15.762  25.306  27.086 -0.20 +0.00    +0.045    40.166
ATOM     20  C   UNL d   1      20.145  27.153  30.296 -0.10 +0.01    +0.045    40.166
ATOM     21  C   UNL d   1      19.964  28.181  31.132 -0.10 +0.02    +0.057    40.166
ATOM     22  C   UNL d   1      21.198  25.505  29.116 -0.18 -0.00    -0.019    40.166
ATOM     23  C   UNL d   1      19.758  25.475  28.793 -0.20 +0.01    +0.045    40.166
ATOM     24  C   UNL d   1      21.421  26.500  30.008 -0.14 -0.00    -0.022    40.166
ATOM     25  C   UNL d   1      17.802  24.499  27.638 -0.21 +0.00    +0.049    40.166
ATOM     26  C   UNL d   1      15.725  23.936  26.878 -0.19 +0.00    -0.018    40.166
ATOM     27  C   UNL d   1      17.010  23.429  27.247 -0.17 -0.00    +0.003    40.166
ATOM     28  C   UNL d   1      19.184  24.598  27.955 -0.19 +0.01    +0.052    40.166
ATOM     29  C   UNL d   1      22.705  26.914  30.641 -0.16 +0.01    +0.046    40.166
ATOM     30  C   UNL d   1      14.569  23.143  26.371 -0.24 -0.00    +0.046    40.166
ATOM     31  H   UNL d   1      18.227  26.699  29.615 +0.04 +0.03    +0.166    40.166
ATOM     32  H   UNL d   1      17.305  26.568  27.786 +0.06 +0.04    +0.166    40.166
ATOM     33  C   UNL d   1      12.130  27.893  27.379 -0.20 +0.00    +0.141    40.166
ATOM     34  C   UNL d   1      11.074  28.933  27.114 -0.22 +0.06    +0.306    40.166
ATOM     35  O   UNL d   1      10.460  29.087  26.072 -0.23 -0.07    -0.251    40.166
ATOM     36  O   UNL d   1      10.845  29.722  28.179 -0.40 -0.22    -0.481    40.166
ATOM     37  H   UNL d   1      11.515  30.434  28.107 -0.37 -0.06    +0.295    40.166
ATOM     38  C   UNL d   1      17.408  22.056  27.171 -0.16 -0.00    +0.017    40.166
ATOM     39  C   UNL d   1      16.800  21.112  26.436 -0.21 -0.02    +0.092    40.166
ATOM     40  C   UNL d   1      17.319  19.742  26.433 -0.10 -0.17    +0.330    40.166
ATOM     41  O   UNL d   1      17.603  19.057  25.469 -0.19 +0.14    -0.246    40.166
ATOM     42  O   UNL d   1      17.464  19.300  27.691 -0.07 +0.40    -0.477    40.166
ATOM     43  H   UNL d   1      16.838  18.550  27.750 -0.12 -0.57    +0.295    40.166
ATOM     44  C   UNL d   1      16.905  31.745  32.167 -0.10 +0.03    +0.141    40.166
ATOM     45  C   UNL d   1      18.031  32.309  31.342 -0.15 +0.15    +0.306    40.166
ATOM     46  O   UNL d   1      18.022  32.508  30.140 -0.24 -0.08    -0.251    40.166
ATOM     47  O   UNL d   1      19.127  32.569  32.077 -0.11 -0.54    -0.481    40.166
ATOM     48  H   UNL d   1      18.971  32.106  32.927 +0.05 +0.24    +0.295    40.166
ATOM     49  C   UNL d   1      22.215  24.577  28.519 -0.19 -0.00    +0.048    40.166
ATOM     50  C   UNL d   1      22.130  23.176  29.122 -0.11 -0.01    +0.125    40.166
ATOM     51  C   UNL d   1      21.684  22.175  28.093 -0.04 -0.01    +0.305    40.166
ATOM     52  O   UNL d   1      20.542  21.850  27.820 -0.08 +0.01    -0.251    40.166
ATOM     53  O   UNL d   1      22.728  21.612  27.453 -0.03 +0.04    -0.481    40.166
ATOM     54  H   UNL d   1      22.690  20.669  27.719 +0.05 -0.02    +0.295    40.166
TER
ENDMDL
MODEL      100
USER    Run = 100
USER    Cluster Rank = 20
USER    Number of conformations in this cluster = 1
USER  
USER    RMSD from reference structure       = 42.579 A
USER  
USER    Estimated Free Energy of Binding    =   -4.03 kcal/mol  [=(1)+(2)+(3)-(4)]
USER    Estimated Inhibition Constant, Ki   =    1.12 mM (millimolar)  [Temperature = 298.15 K]
USER    
USER    (1) Final Intermolecular Energy     =   -7.91 kcal/mol
USER        vdW + Hbond + desolv Energy     =   -7.51 kcal/mol
USER        Electrostatic Energy            =   -0.39 kcal/mol
USER    (2) Final Total Internal Energy     =   -3.24 kcal/mol
USER    (3) Torsional Free Energy           =   +3.88 kcal/mol
USER    (4) Unbound System's Energy  [=(2)] =   -3.24 kcal/mol
USER    
USER    
USER  
USER    DPF = D:/Protein_go_brrr/autodock/final/2DN3/heme/dock.dpf
USER    NEWDPF move	heme_opt.pdbqt
USER    NEWDPF about	0.153000 0.018000 -0.028000
USER    NEWDPF tran0	38.691817 13.406372 22.525401
USER    NEWDPF axisangle0	0.833065 -0.530791 -0.155767 123.501295
USER    NEWDPF quaternion0	0.733844 -0.467571 -0.137215 0.473310
USER    NEWDPF dihe0	170.59 155.89 48.62 -88.22 -14.24 62.14 56.15 -33.77 -142.88 -14.46 -62.21 -106.63 27.67 
USER  
USER                              x       y       z    vdW   Elec        q     RMS 
ATOM      1  O   UNL d   1      34.523  16.868  24.849 -0.65 +0.09    -0.289    42.579
ATOM      2  O   UNL d   1      40.871  14.141  27.793 -0.01 +0.01    -0.289    42.579
ATOM      3  N   UNL d   1      36.618  14.738  23.125 -0.14 +0.05    -0.247    42.579
ATOM      4  N   UNL d   1      38.953  14.457  24.942 -0.13 +0.06    -0.247    42.579
ATOM      5  N   UNL d   1      40.399  13.283  22.752 +0.01 +0.06    -0.354    42.579
ATOM      6  N   UNL d   1      37.978  13.596  20.868 -0.05 +0.00    -0.354    42.579
ATOM      7  C   UNL d   1      34.602  16.012  22.561 -0.23 -0.00    +0.084    42.579
ATOM      8  C   UNL d   1      38.558  14.795  27.330 -0.11 -0.02    +0.084    42.579
ATOM      9  C   UNL d   1      38.029  14.831  25.892 -0.20 -0.01    +0.058    42.579
ATOM     10  C   UNL d   1      35.716  15.056  22.124 -0.21 -0.00    +0.058    42.579
ATOM     11  C   UNL d   1      35.024  16.164  23.991 -0.22 -0.05    +0.193    42.579
ATOM     12  C   UNL d   1      36.242  15.323  24.216 -0.22 -0.03    +0.109    42.579
ATOM     13  C   UNL d   1      39.964  14.368  27.016 -0.04 -0.02    +0.193    42.579
ATOM     14  C   UNL d   1      34.708  17.372  21.866 -0.37 -0.00    +0.026    42.579
ATOM     15  C   UNL d   1      36.788  15.241  25.585 -0.27 -0.02    +0.055    42.579
ATOM     16  C   UNL d   1      37.883  13.697  28.156 -0.05 -0.00    +0.026    42.579
ATOM     17  C   UNL d   1      40.075  14.205  25.535 -0.13 -0.01    +0.109    42.579
ATOM     18  C   UNL d   1      35.736  14.516  20.891 -0.20 +0.00    +0.050    42.579
ATOM     19  C   UNL d   1      36.675  13.561  20.426 -0.15 +0.00    +0.045    42.579
ATOM     20  C   UNL d   1      41.422  13.445  23.650 -0.11 -0.00    +0.045    42.579
ATOM     21  C   UNL d   1      41.361  13.831  24.928 -0.16 -0.00    +0.057    42.579
ATOM     22  C   UNL d   1      42.293  12.757  21.653 -0.15 -0.00    -0.019    42.579
ATOM     23  C   UNL d   1      40.827  12.870  21.518 -0.10 -0.00    +0.045    42.579
ATOM     24  C   UNL d   1      42.639  13.097  22.918 -0.14 -0.00    -0.022    42.579
ATOM     25  C   UNL d   1      38.733  12.642  20.225 -0.10 +0.00    +0.049    42.579
ATOM     26  C   UNL d   1      36.571  12.535  19.500 -0.08 -0.00    -0.018    42.579
ATOM     27  C   UNL d   1      37.869  11.945  19.391 -0.09 +0.00    +0.003    42.579
ATOM     28  C   UNL d   1      40.142  12.588  20.399 -0.10 +0.00    +0.052    42.579
ATOM     29  C   UNL d   1      43.994  13.128  23.538 -0.07 +0.00    +0.046    42.579
ATOM     30  C   UNL d   1      35.343  12.123  18.761 -0.05 +0.01    +0.046    42.579
ATOM     31  H   UNL d   1      39.430  13.389  23.033 -0.20 -0.04    +0.166    42.579
ATOM     32  H   UNL d   1      38.323  14.267  21.544 -0.32 -0.04    +0.166    42.579
ATOM     33  C   UNL d   1      33.180  15.447  22.476 -0.12 +0.02    +0.141    42.579
ATOM     34  C   UNL d   1      32.488  15.809  21.190 -0.13 +0.17    +0.306    42.579
ATOM     35  O   UNL d   1      32.995  15.833  20.081 -0.19 -0.13    -0.251    42.579
ATOM     36  O   UNL d   1      31.192  16.118  21.368 -0.54 -0.62    -0.481    42.579
ATOM     37  H   UNL d   1      30.994  15.834  22.286 +0.08 +0.22    +0.295    42.579
ATOM     38  C   UNL d   1      38.211  10.856  18.528 -0.05 +0.00    +0.017    42.579
ATOM     39  C   UNL d   1      38.990  10.946  17.439 -0.04 +0.01    +0.092    42.579
ATOM     40  C   UNL d   1      39.279   9.747  16.647 -0.00 +0.03    +0.330    42.579
ATOM     41  O   UNL d   1      38.485   9.025  16.075 -0.00 -0.02    -0.246    42.579
ATOM     42  O   UNL d   1      40.602   9.524  16.612 +0.00 -0.04    -0.477    42.579
ATOM     43  H   UNL d   1      40.993  10.407  16.776 +0.02 +0.03    +0.295    42.579
ATOM     44  C   UNL d   1      38.544  16.136  28.072 -0.18 -0.04    +0.141    42.579
ATOM     45  C   UNL d   1      39.452  17.166  27.455 -0.22 -0.06    +0.306    42.579
ATOM     46  O   UNL d   1      39.995  17.097  26.366 -0.35 +0.05    -0.251    42.579
ATOM     47  O   UNL d   1      39.653  18.224  28.261 -0.19 +0.10    -0.481    42.579
ATOM     48  H   UNL d   1      39.510  19.005  27.685 -0.36 -0.14    +0.295    42.579
ATOM     49  C   UNL d   1      43.213  12.346  20.541 -0.09 +0.01    +0.048    42.579
ATOM     50  C   UNL d   1      42.820  10.992  19.950 -0.03 +0.01    +0.125    42.579
ATOM     51  C   UNL d   1      42.464  11.124  18.496 -0.02 +0.03    +0.305    42.579
ATOM     52  O   UNL d   1      41.833  12.020  17.964 -0.06 -0.03    -0.251    42.579
ATOM     53  O   UNL d   1      42.924  10.086  17.769 +0.00 -0.05    -0.481    42.579
ATOM     54  H   UNL d   1      42.185   9.443  17.778 +0.01 +0.03    +0.295    42.579
TER
ENDMDL
MODEL       50
USER    Run = 50
USER    Cluster Rank = 21
USER    Number of conformations in this cluster = 1
USER  
USER    RMSD from reference structure       = 47.133 A
USER  
USER    Estimated Free Energy of Binding    =   -4.02 kcal/mol  [=(1)+(2)+(3)-(4)]
USER    Estimated Inhibition Constant, Ki   =    1.12 mM (millimolar)  [Temperature = 298.15 K]
USER    
USER    (1) Final Intermolecular Energy     =   -7.90 kcal/mol
USER        vdW + Hbond + desolv Energy     =   -7.55 kcal/mol
USER        Electrostatic Energy            =   -0.35 kcal/mol
USER    (2) Final Total Internal Energy     =   -3.98 kcal/mol
USER    (3) Torsional Free Energy           =   +3.88 kcal/mol
USER    (4) Unbound System's Energy  [=(2)] =   -3.98 kcal/mol
USER    
USER    
USER  
USER    DPF = D:/Protein_go_brrr/autodock/final/2DN3/heme/dock.dpf
USER    NEWDPF move	heme_opt.pdbqt
USER    NEWDPF about	0.153000 0.018000 -0.028000
USER    NEWDPF tran0	12.747912 42.602061 24.354312
USER    NEWDPF axisangle0	0.804168 0.480723 0.349598 -114.158525
USER    NEWDPF quaternion0	0.675038 0.403530 0.293461 -0.543478
USER    NEWDPF dihe0	-91.73 -159.41 -104.97 -22.76 50.36 -72.94 136.60 -13.73 141.48 -47.36 68.55 7.40 105.50 
USER  
USER                              x       y       z    vdW   Elec        q     RMS 
ATOM      1  O   UNL d   1      10.853  37.292  26.078 -0.18 +0.17    -0.289    47.133
ATOM      2  O   UNL d   1       9.001  41.497  20.138 -0.20 +0.11    -0.289    47.133
ATOM      3  N   UNL d   1      12.146  40.445  25.545 -0.06 +0.09    -0.247    47.133
ATOM      4  N   UNL d   1      11.094  41.170  22.862 -0.15 +0.07    -0.247    47.133
ATOM      5  N   UNL d   1      12.981  43.339  22.811 -0.09 +0.08    -0.354    47.133
ATOM      6  N   UNL d   1      14.079  42.568  25.586 -0.03 +0.07    -0.354    47.133
ATOM      7  C   UNL d   1      12.564  38.656  27.168 -0.21 -0.04    +0.084    47.133
ATOM      8  C   UNL d   1       9.010  40.109  22.154 -0.24 -0.02    +0.084    47.133
ATOM      9  C   UNL d   1      10.141  40.229  23.181 -0.24 -0.01    +0.058    47.133
ATOM     10  C   UNL d   1      12.896  40.056  26.642 -0.15 -0.02    +0.058    47.133
ATOM     11  C   UNL d   1      11.481  38.330  26.184 -0.21 -0.09    +0.193    47.133
ATOM     12  C   UNL d   1      11.304  39.503  25.270 -0.13 -0.04    +0.109    47.133
ATOM     13  C   UNL d   1       9.518  41.129  21.175 -0.18 -0.05    +0.193    47.133
ATOM     14  C   UNL d   1      13.724  37.678  26.969 -0.32 -0.02    +0.026    47.133
ATOM     15  C   UNL d   1      10.219  39.447  24.269 -0.28 -0.02    +0.055    47.133
ATOM     16  C   UNL d   1       7.673  40.594  22.722 -0.18 -0.01    +0.026    47.133
ATOM     17  C   UNL d   1      10.791  41.693  21.718 -0.20 -0.03    +0.109    47.133
ATOM     18  C   UNL d   1      13.781  40.852  27.271 -0.11 -0.01    +0.050    47.133
ATOM     19  C   UNL d   1      14.089  42.188  26.909 -0.06 -0.01    +0.045    47.133
ATOM     20  C   UNL d   1      12.539  43.381  21.514 -0.23 -0.01    +0.045    47.133
ATOM     21  C   UNL d   1      11.544  42.692  20.945 -0.15 -0.02    +0.057    47.133
ATOM     22  C   UNL d   1      14.279  44.842  21.748 -0.21 +0.00    -0.019    47.133
ATOM     23  C   UNL d   1      14.030  44.187  23.048 -0.17 -0.01    +0.045    47.133
ATOM     24  C   UNL d   1      13.393  44.361  20.845 -0.23 +0.01    -0.022    47.133
ATOM     25  C   UNL d   1      14.493  43.874  25.456 -0.07 -0.01    +0.049    47.133
ATOM     26  C   UNL d   1      14.484  43.284  27.661 -0.02 +0.00    -0.018    47.133
ATOM     27  C   UNL d   1      14.719  44.351  26.740 -0.04 -0.00    +0.003    47.133
ATOM     28  C   UNL d   1      14.715  44.444  24.173 -0.15 -0.01    +0.052    47.133
ATOM     29  C   UNL d   1      13.238  44.722  19.406 -0.21 -0.01    +0.046    47.133
ATOM     30  C   UNL d   1      14.633  43.339  29.143 -0.01 -0.00    +0.046    47.133
ATOM     31  H   UNL d   1      12.502  42.785  23.512 +0.04 -0.04    +0.166    47.133
ATOM     32  H   UNL d   1      13.837  41.945  24.825 +0.02 -0.05    +0.166    47.133
ATOM     33  C   UNL d   1      12.023  38.604  28.601 -0.08 -0.04    +0.141    47.133
ATOM     34  C   UNL d   1      11.925  37.199  29.132 -0.05 -0.16    +0.306    47.133
ATOM     35  O   UNL d   1      12.679  36.679  29.937 -0.11 +0.10    -0.251    47.133
ATOM     36  O   UNL d   1      10.881  36.523  28.621 -0.02 +0.35    -0.481    47.133
ATOM     37  H   UNL d   1      11.217  36.149  27.778 -0.30 -0.51    +0.295    47.133
ATOM     38  C   UNL d   1      15.159  45.666  27.096 -0.04 -0.00    +0.017    47.133
ATOM     39  C   UNL d   1      14.660  46.810  26.603 -0.02 -0.01    +0.092    47.133
ATOM     40  C   UNL d   1      15.189  48.096  27.064 -0.00 -0.02    +0.330    47.133
ATOM     41  O   UNL d   1      14.983  48.646  28.129 -0.00 +0.01    -0.246    47.133
ATOM     42  O   UNL d   1      15.985  48.631  26.126 +0.00 +0.03    -0.477    47.133
ATOM     43  H   UNL d   1      15.713  48.179  25.301 +0.04 -0.02    +0.295    47.133
ATOM     44  C   UNL d   1       8.864  38.736  21.490 -0.38 -0.03    +0.141    47.133
ATOM     45  C   UNL d   1       9.539  38.651  20.147 -0.38 -0.00    +0.306    47.133
ATOM     46  O   UNL d   1      10.677  38.273  19.928 -0.37 -0.01    -0.251    47.133
ATOM     47  O   UNL d   1       8.748  39.076  19.145 -0.88 -0.10    -0.481    47.133
ATOM     48  H   UNL d   1       8.734  40.053  19.238 +0.20 -0.02    +0.295    47.133
ATOM     49  C   UNL d   1      15.359  45.855  21.509 -0.20 -0.01    +0.048    47.133
ATOM     50  C   UNL d   1      16.479  45.748  22.543 -0.08 -0.02    +0.125    47.133
ATOM     51  C   UNL d   1      16.480  46.938  23.460 -0.15 -0.03    +0.305    47.133
ATOM     52  O   UNL d   1      15.972  48.028  23.262 -0.07 +0.02    -0.251    47.133
ATOM     53  O   UNL d   1      17.147  46.693  24.605 -0.09 +0.03    -0.481    47.133
ATOM     54  H   UNL d   1      17.407  47.583  24.924 +0.07 -0.02    +0.295    47.133
TER
ENDMDL
MODEL       68
USER    Run = 68
USER    Cluster Rank = 22
USER    Number of conformations in this cluster = 1
USER  
USER    RMSD from reference structure       = 39.918 A
USER  
USER    Estimated Free Energy of Binding    =   -4.02 kcal/mol  [=(1)+(2)+(3)-(4)]
USER    Estimated Inhibition Constant, Ki   =    1.12 mM (millimolar)  [Temperature = 298.15 K]
USER    
USER    (1) Final Intermolecular Energy     =   -7.90 kcal/mol
USER        vdW + Hbond + desolv Energy     =   -7.18 kcal/mol
USER        Electrostatic Energy            =   -0.72 kcal/mol
USER    (2) Final Total Internal Energy     =   -1.90 kcal/mol
USER    (3) Torsional Free Energy           =   +3.88 kcal/mol
USER    (4) Unbound System's Energy  [=(2)] =   -1.90 kcal/mol
USER    
USER    
USER  
USER    DPF = D:/Protein_go_brrr/autodock/final/2DN3/heme/dock.dpf
USER    NEWDPF move	heme_opt.pdbqt
USER    NEWDPF about	0.153000 0.018000 -0.028000
USER    NEWDPF tran0	39.928808 18.559445 7.052898
USER    NEWDPF axisangle0	0.177217 -0.512194 -0.840387 136.279240
USER    NEWDPF quaternion0	0.164474 -0.475364 -0.779958 0.372346
USER    NEWDPF dihe0	82.39 -117.89 -15.70 75.28 -175.85 -176.18 -57.49 -68.48 104.18 0.15 -105.88 50.71 -24.16 
USER  
USER                              x       y       z    vdW   Elec        q     RMS 
ATOM      1  O   UNL d   1      42.498  16.280  11.844 -0.02 -0.04    -0.289    39.918
ATOM      2  O   UNL d   1      45.124  17.380   4.895 -0.10 -0.18    -0.289    39.918
ATOM      3  N   UNL d   1      40.554  17.542   9.291 -0.06 -0.02    -0.247    39.918
ATOM      4  N   UNL d   1      42.493  17.898   7.067 -0.08 -0.06    -0.247    39.918
ATOM      5  N   UNL d   1      40.511  19.483   5.716 -0.08 -0.01    -0.354    39.918
ATOM      6  N   UNL d   1      38.513  19.125   8.035 -0.08 +0.02    -0.354    39.918
ATOM      7  C   UNL d   1      40.235  17.190  11.695 -0.21 +0.01    +0.084    39.918
ATOM      8  C   UNL d   1      44.471  16.464   7.070 -0.06 +0.03    +0.084    39.918
ATOM      9  C   UNL d   1      43.198  16.948   7.772 -0.08 +0.01    +0.058    39.918
ATOM     10  C   UNL d   1      39.678  17.679  10.355 -0.21 +0.00    +0.058    39.918
ATOM     11  C   UNL d   1      41.573  16.735  11.197 -0.05 +0.02    +0.193    39.918
ATOM     12  C   UNL d   1      41.635  16.977   9.721 -0.06 +0.01    +0.109    39.918
ATOM     13  C   UNL d   1      44.377  17.342   5.854 -0.09 +0.09    +0.193    39.918
ATOM     14  C   UNL d   1      40.440  18.339  12.686 -0.40 +0.00    +0.026    39.918
ATOM     15  C   UNL d   1      42.834  16.519   8.990 -0.06 +0.01    +0.055    39.918
ATOM     16  C   UNL d   1      44.356  15.001   6.630 -0.02 +0.01    +0.026    39.918
ATOM     17  C   UNL d   1      43.138  18.167   5.978 -0.06 +0.04    +0.109    39.918
ATOM     18  C   UNL d   1      38.410  18.115  10.237 -0.32 +0.00    +0.050    39.918
ATOM     19  C   UNL d   1      37.784  18.507   9.026 -0.17 -0.00    +0.045    39.918
ATOM     20  C   UNL d   1      41.595  19.725   4.912 -0.17 +0.01    +0.045    39.918
ATOM     21  C   UNL d   1      42.806  19.160   4.945 -0.09 +0.03    +0.057    39.918
ATOM     22  C   UNL d   1      39.872  21.072   4.254 -0.28 +0.00    -0.019    39.918
ATOM     23  C   UNL d   1      39.423  20.250   5.395 -0.26 -0.01    +0.045    39.918
ATOM     24  C   UNL d   1      41.158  20.756   3.972 -0.21 -0.00    -0.022    39.918
ATOM     25  C   UNL d   1      37.694  19.498   6.994 -0.22 -0.01    +0.049    39.918
ATOM     26  C   UNL d   1      36.465  18.443   8.602 -0.21 +0.00    -0.018    39.918
ATOM     27  C   UNL d   1      36.418  19.052   7.311 -0.21 -0.00    +0.003    39.918
ATOM     28  C   UNL d   1      38.191  20.292   5.925 -0.32 -0.01    +0.052    39.918
ATOM     29  C   UNL d   1      42.041  21.306   2.904 -0.22 +0.01    +0.046    39.918
ATOM     30  C   UNL d   1      35.318  17.850   9.349 -0.25 -0.01    +0.046    39.918
ATOM     31  H   UNL d   1      40.527  18.746   6.413 +0.05 +0.01    +0.166    39.918
ATOM     32  H   UNL d   1      39.507  19.308   8.102 +0.04 -0.00    +0.166    39.918
ATOM     33  C   UNL d   1      39.474  16.024  12.336 -0.19 +0.01    +0.141    39.918
ATOM     34  C   UNL d   1      40.354  15.168  13.206 -0.09 +0.02    +0.306    39.918
ATOM     35  O   UNL d   1      40.555  13.973  13.073 -0.03 -0.02    -0.251    39.918
ATOM     36  O   UNL d   1      40.937  15.864  14.199 -0.08 -0.03    -0.481    39.918
ATOM     37  H   UNL d   1      41.848  16.036  13.878 +0.08 +0.04    +0.295    39.918
ATOM     38  C   UNL d   1      35.238  19.211   6.516 -0.16 -0.01    +0.017    39.918
ATOM     39  C   UNL d   1      34.809  18.346   5.584 -0.07 -0.04    +0.092    39.918
ATOM     40  C   UNL d   1      33.571  18.619   4.850 -0.02 -0.16    +0.330    39.918
ATOM     41  O   UNL d   1      33.040  17.924   4.004 -0.02 +0.06    -0.246    39.918
ATOM     42  O   UNL d   1      33.049  19.791   5.243 -0.02 +0.37    -0.477    39.918
ATOM     43  H   UNL d   1      33.736  20.446   5.003 -0.35 -0.57    +0.295    39.918
ATOM     44  C   UNL d   1      45.779  16.714   7.827 -0.08 +0.05    +0.141    39.918
ATOM     45  C   UNL d   1      45.921  18.130   8.317 -0.07 +0.16    +0.306    39.918
ATOM     46  O   UNL d   1      46.594  19.011   7.810 -0.58 -0.24    -0.251    39.918
ATOM     47  O   UNL d   1      45.222  18.358   9.444 -0.08 -0.15    -0.481    39.918
ATOM     48  H   UNL d   1      45.596  19.190   9.804 +0.04 +0.08    +0.295    39.918
ATOM     49  C   UNL d   1      39.015  22.091   3.561 -0.35 -0.01    +0.048    39.918
ATOM     50  C   UNL d   1      38.577  21.619   2.175 -0.16 -0.03    +0.125    39.918
ATOM     51  C   UNL d   1      37.499  20.579   2.278 -0.07 -0.14    +0.305    39.918
ATOM     52  O   UNL d   1      37.621  19.412   2.607 -0.04 +0.07    -0.251    39.918
ATOM     53  O   UNL d   1      36.290  21.071   1.942 -0.06 +0.38    -0.481    39.918
ATOM     54  H   UNL d   1      35.827  21.174   2.800 -0.24 -0.52    +0.295    39.918
TER
ENDMDL
MODEL       97
USER    Run = 97
USER    Cluster Rank = 23
USER    Number of conformations in this cluster = 1
USER  
USER    RMSD from reference structure       = 55.754 A
USER  
USER    Estimated Free Energy of Binding    =   -3.99 kcal/mol  [=(1)+(2)+(3)-(4)]
USER    Estimated Inhibition Constant, Ki   =    1.19 mM (millimolar)  [Temperature = 298.15 K]
USER    
USER    (1) Final Intermolecular Energy     =   -7.87 kcal/mol
USER        vdW + Hbond + desolv Energy     =   -7.09 kcal/mol
USER        Electrostatic Energy            =   -0.78 kcal/mol
USER    (2) Final Total Internal Energy     =   -2.33 kcal/mol
USER    (3) Torsional Free Energy           =   +3.88 kcal/mol
USER    (4) Unbound System's Energy  [=(2)] =   -2.33 kcal/mol
USER    
USER    
USER  
USER    DPF = D:/Protein_go_brrr/autodock/final/2DN3/heme/dock.dpf
USER    NEWDPF move	heme_opt.pdbqt
USER    NEWDPF about	0.153000 0.018000 -0.028000
USER    NEWDPF tran0	46.491001 31.732753 21.958288
USER    NEWDPF axisangle0	0.541915 0.649245 0.533675 -154.754350
USER    NEWDPF quaternion0	0.528817 0.633553 0.520776 -0.218532
USER    NEWDPF dihe0	175.84 -92.58 -160.92 30.94 -150.12 -127.41 -79.90 -84.31 16.86 -154.24 -57.60 25.69 -178.81 
USER  
USER                              x       y       z    vdW   Elec        q     RMS 
ATOM      1  O   UNL d   1      49.712  26.802  21.692 -0.00 -0.14    -0.289    55.754
ATOM      2  O   UNL d   1      43.957  29.164  17.484 -0.20 -0.10    -0.289    55.754
ATOM      3  N   UNL d   1      48.024  29.744  22.317 -0.43 -0.33    -0.247    55.754
ATOM      4  N   UNL d   1      46.169  29.972  20.007 -0.13 -0.19    -0.247    55.754
ATOM      5  N   UNL d   1      45.702  32.704  20.770 -0.02 -0.16    -0.354    55.754
ATOM      6  N   UNL d   1      47.644  32.466  23.152 -0.06 -0.21    -0.354    55.754
ATOM      7  C   UNL d   1      50.020  28.665  23.244 -0.02 +0.05    +0.084    55.754
ATOM      8  C   UNL d   1      45.498  27.897  18.903 -0.16 +0.05    +0.084    55.754
ATOM      9  C   UNL d   1      46.362  28.610  19.950 -0.15 +0.05    +0.058    55.754
ATOM     10  C   UNL d   1      49.050  29.850  23.242 -0.06 +0.05    +0.058    55.754
ATOM     11  C   UNL d   1      49.351  27.862  22.169 -0.02 +0.13    +0.193    55.754
ATOM     12  C   UNL d   1      48.139  28.610  21.706 -0.02 +0.12    +0.109    55.754
ATOM     13  C   UNL d   1      44.808  29.112  18.352 -0.14 +0.09    +0.193    55.754
ATOM     14  C   UNL d   1      51.418  29.065  22.765 -0.00 +0.01    +0.026    55.754
ATOM     15  C   UNL d   1      47.263  27.966  20.707 -0.10 +0.05    +0.055    55.754
ATOM     16  C   UNL d   1      44.451  26.989  19.554 -0.12 +0.02    +0.026    55.754
ATOM     17  C   UNL d   1      45.307  30.305  19.100 -0.19 +0.05    +0.109    55.754
ATOM     18  C   UNL d   1      49.159  30.850  24.136 -0.07 +0.03    +0.050    55.754
ATOM     19  C   UNL d   1      48.262  31.941  24.264 -0.08 +0.03    +0.045    55.754
ATOM     20  C   UNL d   1      45.077  32.690  19.550 -0.23 +0.01    +0.045    55.754
ATOM     21  C   UNL d   1      44.835  31.651  18.744 -0.28 +0.02    +0.057    55.754
ATOM     22  C   UNL d   1      45.119  34.836  20.333 -0.30 -0.00    -0.019    55.754
ATOM     23  C   UNL d   1      45.776  33.956  21.320 -0.17 +0.01    +0.045    55.754
ATOM     24  C   UNL d   1      44.706  34.080  19.288 -0.32 -0.00    -0.022    55.754
ATOM     25  C   UNL d   1      46.893  33.567  23.491 -0.12 +0.02    +0.049    55.754
ATOM     26  C   UNL d   1      47.874  32.697  25.359 -0.08 -0.01    -0.018    55.754
ATOM     27  C   UNL d   1      46.994  33.711  24.868 -0.12 +0.00    +0.003    55.754
ATOM     28  C   UNL d   1      46.286  34.373  22.489 -0.19 +0.01    +0.052    55.754
ATOM     29  C   UNL d   1      43.985  34.508  18.055 -0.27 +0.01    +0.046    55.754
ATOM     30  C   UNL d   1      48.292  32.493  26.776 -0.04 +0.02    +0.046    55.754
ATOM     31  H   UNL d   1      45.994  31.844  21.221 +0.04 +0.12    +0.166    55.754
ATOM     32  H   UNL d   1      47.771  32.101  22.215 +0.02 +0.10    +0.166    55.754
ATOM     33  C   UNL d   1      50.080  27.868  24.552 -0.01 +0.07    +0.141    55.754
ATOM     34  C   UNL d   1      48.781  27.181  24.872 -0.03 +0.24    +0.306    55.754
ATOM     35  O   UNL d   1      47.904  27.605  25.606 -0.35 -0.29    -0.251    55.754
ATOM     36  O   UNL d   1      48.653  25.997  24.248 -0.00 -0.31    -0.481    55.754
ATOM     37  H   UNL d   1      49.427  25.949  23.648 +0.01 +0.15    +0.295    55.754
ATOM     38  C   UNL d   1      46.373  34.723  25.668 -0.15 +0.00    +0.017    55.754
ATOM     39  C   UNL d   1      45.050  34.872  25.838 -0.25 -0.00    +0.092    55.754
ATOM     40  C   UNL d   1      44.541  35.942  26.700 -0.12 -0.04    +0.330    55.754
ATOM     41  O   UNL d   1      43.733  35.847  27.604 -0.13 -0.05    -0.246    55.754
ATOM     42  O   UNL d   1      45.108  37.112  26.367 -0.07 +0.20    -0.477    55.754
ATOM     43  H   UNL d   1      44.528  37.461  25.659 -0.46 -0.54    +0.295    55.754
ATOM     44  C   UNL d   1      46.268  27.157  17.805 -0.09 +0.07    +0.141    55.754
ATOM     45  C   UNL d   1      45.476  26.047  17.168 -0.16 +0.17    +0.306    55.754
ATOM     46  O   UNL d   1      45.803  24.876  17.085 -0.24 -0.20    -0.251    55.754
ATOM     47  O   UNL d   1      44.315  26.478  16.643 +0.06 -0.20    -0.481    55.754
ATOM     48  H   UNL d   1      44.429  27.449  16.553 +0.15 +0.11    +0.295    55.754
ATOM     49  C   UNL d   1      44.970  36.320  20.494 -0.29 -0.00    +0.048    55.754
ATOM     50  C   UNL d   1      46.057  37.086  19.741 -0.20 +0.00    +0.125    55.754
ATOM     51  C   UNL d   1      45.452  38.055  18.765 -0.20 +0.01    +0.305    55.754
ATOM     52  O   UNL d   1      45.169  37.854  17.597 -0.33 -0.04    -0.251    55.754
ATOM     53  O   UNL d   1      45.240  39.264  19.321 -0.17 +0.02    -0.481    55.754
ATOM     54  H   UNL d   1      44.458  39.612  18.844 -0.03 -0.03    +0.295    55.754
TER
ENDMDL
MODEL       90
USER    Run = 90
USER    Cluster Rank = 24
USER    Number of conformations in this cluster = 1
USER  
USER    RMSD from reference structure       = 27.524 A
USER  
USER    Estimated Free Energy of Binding    =   -3.95 kcal/mol  [=(1)+(2)+(3)-(4)]
USER    Estimated Inhibition Constant, Ki   =    1.27 mM (millimolar)  [Temperature = 298.15 K]
USER    
USER    (1) Final Intermolecular Energy     =   -7.83 kcal/mol
USER        vdW + Hbond + desolv Energy     =   -7.62 kcal/mol
USER        Electrostatic Energy            =   -0.21 kcal/mol
USER    (2) Final Total Internal Energy     =   -4.04 kcal/mol
USER    (3) Torsional Free Energy           =   +3.88 kcal/mol
USER    (4) Unbound System's Energy  [=(2)] =   -4.04 kcal/mol
USER    
USER    
USER  
USER    DPF = D:/Protein_go_brrr/autodock/final/2DN3/heme/dock.dpf
USER    NEWDPF move	heme_opt.pdbqt
USER    NEWDPF about	0.153000 0.018000 -0.028000
USER    NEWDPF tran0	4.603767 21.387687 20.179023
USER    NEWDPF axisangle0	-0.760932 0.505096 -0.407260 -113.407838
USER    NEWDPF quaternion0	-0.636021 0.422182 -0.340406 -0.548966
USER    NEWDPF dihe0	118.07 -141.07 4.56 19.18 -132.69 -24.81 -20.22 19.37 26.75 19.62 -66.07 -22.38 -9.47 
USER  
USER                              x       y       z    vdW   Elec        q     RMS 
ATOM      1  O   UNL d   1       2.598  26.695  18.578 -0.06 +0.00    -0.289    27.524
ATOM      2  O   UNL d   1       2.885  23.357  25.298 -0.01 -0.00    -0.289    27.524
ATOM      3  N   UNL d   1       3.753  23.475  19.016 -0.08 +0.00    -0.247    27.524
ATOM      4  N   UNL d   1       3.774  23.153  21.970 -0.07 +0.02    -0.247    27.524
ATOM      5  N   UNL d   1       5.361  20.783  21.607 -0.09 +0.02    -0.354    27.524
ATOM      6  N   UNL d   1       5.350  21.135  18.545 -0.07 -0.01    -0.354    27.524
ATOM      7  C   UNL d   1       3.642  25.030  17.125 -0.25 -0.00    +0.084    27.524
ATOM      8  C   UNL d   1       2.216  24.528  23.256 -0.04 -0.00    +0.084    27.524
ATOM      9  C   UNL d   1       2.846  24.168  21.906 -0.10 -0.00    +0.058    27.524
ATOM     10  C   UNL d   1       4.044  23.658  17.675 -0.17 -0.00    +0.058    27.524
ATOM     11  C   UNL d   1       3.054  25.583  18.388 -0.10 -0.00    +0.193    27.524
ATOM     12  C   UNL d   1       3.158  24.536  19.454 -0.09 +0.00    +0.109    27.524
ATOM     13  C   UNL d   1       2.985  23.554  24.103 -0.03 -0.00    +0.193    27.524
ATOM     14  C   UNL d   1       4.860  25.872  16.735 -0.45 -0.00    +0.026    27.524
ATOM     15  C   UNL d   1       2.555  24.824  20.772 -0.12 -0.00    +0.055    27.524
ATOM     16  C   UNL d   1       0.730  24.157  23.305 -0.01 -0.00    +0.026    27.524
ATOM     17  C   UNL d   1       3.900  22.786  23.205 -0.08 -0.01    +0.109    27.524
ATOM     18  C   UNL d   1       4.553  22.702  16.876 -0.15 -0.01    +0.050    27.524
ATOM     19  C   UNL d   1       4.875  21.380  17.277 -0.24 -0.00    +0.045    27.524
ATOM     20  C   UNL d   1       5.456  20.924  22.968 -0.19 -0.00    +0.045    27.524
ATOM     21  C   UNL d   1       4.815  21.783  23.768 -0.15 -0.00    +0.057    27.524
ATOM     22  C   UNL d   1       6.852  19.243  22.301 -0.29 -0.00    -0.019    27.524
ATOM     23  C   UNL d   1       6.167  19.793  21.113 -0.24 +0.00    +0.045    27.524
ATOM     24  C   UNL d   1       6.425  19.916  23.396 -0.23 -0.00    -0.022    27.524
ATOM     25  C   UNL d   1       5.682  19.808  18.689 -0.21 +0.01    +0.049    27.524
ATOM     26  C   UNL d   1       4.862  20.175  16.591 -0.27 +0.00    -0.018    27.524
ATOM     27  C   UNL d   1       5.354  19.183  17.494 -0.20 +0.00    +0.003    27.524
ATOM     28  C   UNL d   1       6.340  19.344  19.860 -0.23 +0.01    +0.052    27.524
ATOM     29  C   UNL d   1       6.815  19.721  24.821 -0.12 +0.00    +0.046    27.524
ATOM     30  C   UNL d   1       4.418  19.956  15.184 -0.27 -0.01    +0.046    27.524
ATOM     31  H   UNL d   1       4.691  21.320  21.068 +0.03 -0.01    +0.166    27.524
ATOM     32  H   UNL d   1       5.471  21.856  19.247 +0.08 -0.00    +0.166    27.524
ATOM     33  C   UNL d   1       2.593  25.008  16.008 -0.18 -0.01    +0.141    27.524
ATOM     34  C   UNL d   1       1.210  24.708  16.519 -0.06 -0.02    +0.306    27.524
ATOM     35  O   UNL d   1       0.775  23.609  16.818 -0.06 +0.01    -0.251    27.524
ATOM     36  O   UNL d   1       0.448  25.811  16.630 +0.00 +0.02    -0.481    27.524
ATOM     37  H   UNL d   1       0.892  26.350  17.318 +0.06 -0.01    +0.295    27.524
ATOM     38  C   UNL d   1       5.520  17.795  17.184 -0.20 +0.01    +0.017    27.524
ATOM     39  C   UNL d   1       5.718  16.819  18.083 -0.13 +0.06    +0.092    27.524
ATOM     40  C   UNL d   1       5.856  15.431  17.636 +0.06 +0.29    +0.330    27.524
ATOM     41  O   UNL d   1       5.397  14.925  16.629 -0.19 -0.10    -0.246    27.524
ATOM     42  O   UNL d   1       6.601  14.735  18.509 -0.50 -0.55    -0.477    27.524
ATOM     43  H   UNL d   1       6.315  15.074  19.383 +0.06 +0.20    +0.295    27.524
ATOM     44  C   UNL d   1       2.445  25.967  23.729 -0.06 +0.00    +0.141    27.524
ATOM     45  C   UNL d   1       3.744  26.553  23.244 -0.17 +0.00    +0.306    27.524
ATOM     46  O   UNL d   1       4.865  26.171  23.531 -0.52 -0.03    -0.251    27.524
ATOM     47  O   UNL d   1       3.561  27.614  22.438 -0.11 +0.02    -0.481    27.524
ATOM     48  H   UNL d   1       4.463  27.862  22.146 -0.18 -0.06    +0.295    27.524
ATOM     49  C   UNL d   1       7.860  18.133  22.254 -0.38 +0.01    +0.048    27.524
ATOM     50  C   UNL d   1       7.210  16.766  22.468 -0.22 +0.03    +0.125    27.524
ATOM     51  C   UNL d   1       7.327  15.917  21.234 -0.17 +0.13    +0.305    27.524
ATOM     52  O   UNL d   1       8.032  16.115  20.260 -0.19 -0.20    -0.251    27.524
ATOM     53  O   UNL d   1       6.519  14.839  21.285 -0.03 -0.15    -0.481    27.524
ATOM     54  H   UNL d   1       6.893  14.229  20.615 +0.06 +0.12    +0.295    27.524
TER
ENDMDL
MODEL       72
USER    Run = 72
USER    Cluster Rank = 25
USER    Number of conformations in this cluster = 1
USER  
USER    RMSD from reference structure       = 29.800 A
USER  
USER    Estimated Free Energy of Binding    =   -3.83 kcal/mol  [=(1)+(2)+(3)-(4)]
USER    Estimated Inhibition Constant, Ki   =    1.56 mM (millimolar)  [Temperature = 298.15 K]
USER    
USER    (1) Final Intermolecular Energy     =   -7.71 kcal/mol
USER        vdW + Hbond + desolv Energy     =   -7.60 kcal/mol
USER        Electrostatic Energy            =   -0.11 kcal/mol
USER    (2) Final Total Internal Energy     =   -1.99 kcal/mol
USER    (3) Torsional Free Energy           =   +3.88 kcal/mol
USER    (4) Unbound System's Energy  [=(2)] =   -1.99 kcal/mol
USER    
USER    
USER  
USER    DPF = D:/Protein_go_brrr/autodock/final/2DN3/heme/dock.dpf
USER    NEWDPF move	heme_opt.pdbqt
USER    NEWDPF about	0.153000 0.018000 -0.028000
USER    NEWDPF tran0	4.860980 23.120336 21.930223
USER    NEWDPF axisangle0	-0.637646 0.753687 0.159261 62.027961
USER    NEWDPF quaternion0	-0.328545 0.388335 0.082059 0.857042
USER    NEWDPF dihe0	-21.27 112.95 -175.64 -63.31 39.92 -132.46 139.40 -64.75 1.79 -32.86 148.10 -175.23 -178.41 
USER  
USER                              x       y       z    vdW   Elec        q     RMS 
ATOM      1  O   UNL d   1       0.358  26.319  19.869 -0.01 +0.00    -0.289    29.800
ATOM      2  O   UNL d   1       4.732  21.226  16.505 -0.21 +0.04    -0.289    29.800
ATOM      3  N   UNL d   1       2.999  24.779  21.465 -0.09 +0.00    -0.247    29.800
ATOM      4  N   UNL d   1       3.910  22.759  19.485 -0.02 +0.00    -0.247    29.800
ATOM      5  N   UNL d   1       5.455  21.538  21.580 -0.04 +0.06    -0.354    29.800
ATOM      6  N   UNL d   1       4.490  23.626  23.632 -0.06 +0.01    -0.354    29.800
ATOM      7  C   UNL d   1       1.216  26.310  22.158 -0.02 -0.00    +0.084    29.800
ATOM      8  C   UNL d   1       3.460  23.222  17.129 -0.22 -0.01    +0.084    29.800
ATOM      9  C   UNL d   1       3.287  23.611  18.601 -0.12 -0.00    +0.058    29.800
ATOM     10  C   UNL d   1       2.448  25.479  22.526 -0.09 +0.00    +0.058    29.800
ATOM     11  C   UNL d   1       1.179  25.972  20.699 -0.01 -0.00    +0.193    29.800
ATOM     12  C   UNL d   1       2.326  25.057  20.397 -0.08 -0.00    +0.109    29.800
ATOM     13  C   UNL d   1       4.265  21.972  17.344 -0.17 -0.02    +0.193    29.800
ATOM     14  C   UNL d   1      -0.057  25.777  22.822 -0.01 -0.00    +0.026    29.800
ATOM     15  C   UNL d   1       2.548  24.661  18.992 -0.12 -0.00    +0.055    29.800
ATOM     16  C   UNL d   1       4.321  24.238  16.371 -0.34 -0.00    +0.026    29.800
ATOM     17  C   UNL d   1       4.462  21.800  18.815 -0.10 -0.00    +0.109    29.800
ATOM     18  C   UNL d   1       2.979  25.517  23.762 -0.12 +0.00    +0.050    29.800
ATOM     19  C   UNL d   1       4.162  24.850  24.170 -0.17 +0.00    +0.045    29.800
ATOM     20  C   UNL d   1       5.580  20.581  20.607 -0.21 +0.00    +0.045    29.800
ATOM     21  C   UNL d   1       5.184  20.627  19.331 -0.19 +0.00    +0.057    29.800
ATOM     22  C   UNL d   1       6.496  19.788  22.543 -0.27 -0.00    -0.019    29.800
ATOM     23  C   UNL d   1       5.979  21.150  22.784 -0.27 -0.00    +0.045    29.800
ATOM     24  C   UNL d   1       6.259  19.458  21.252 -0.25 -0.00    -0.022    29.800
ATOM     25  C   UNL d   1       5.620  23.121  24.232 -0.20 -0.00    +0.049    29.800
ATOM     26  C   UNL d   1       5.124  25.166  25.117 -0.22 -0.00    -0.018    29.800
ATOM     27  C   UNL d   1       6.053  24.080  25.138 -0.31 -0.00    +0.003    29.800
ATOM     28  C   UNL d   1       6.065  21.800  23.955 -0.25 -0.00    +0.052    29.800
ATOM     29  C   UNL d   1       6.604  18.199  20.532 -0.24 +0.01    +0.046    29.800
ATOM     30  C   UNL d   1       5.180  26.401  25.951 -0.18 +0.00    +0.046    29.800
ATOM     31  H   UNL d   1       5.080  22.457  21.370 -0.42 -0.05    +0.166    29.800
ATOM     32  H   UNL d   1       3.937  23.159  22.923 -0.01 -0.01    +0.166    29.800
ATOM     33  C   UNL d   1       1.361  27.823  22.356 -0.05 -0.00    +0.141    29.800
ATOM     34  C   UNL d   1       2.619  28.370  21.738 -0.09 -0.00    +0.306    29.800
ATOM     35  O   UNL d   1       2.723  28.852  20.623 -0.15 +0.00    -0.251    29.800
ATOM     36  O   UNL d   1       3.681  28.281  22.558 -0.13 +0.02    -0.481    29.800
ATOM     37  H   UNL d   1       4.457  28.284  21.959 -0.27 -0.06    +0.295    29.800
ATOM     38  C   UNL d   1       7.200  23.992  25.991 -0.28 -0.00    +0.017    29.800
ATOM     39  C   UNL d   1       7.231  24.339  27.286 -0.17 -0.01    +0.092    29.800
ATOM     40  C   UNL d   1       8.468  24.183  28.055 -0.07 -0.03    +0.330    29.800
ATOM     41  O   UNL d   1       8.598  23.710  29.168 -0.05 +0.00    -0.246    29.800
ATOM     42  O   UNL d   1       9.512  24.641  27.347 -0.09 +0.08    -0.477    29.800
ATOM     43  H   UNL d   1       9.582  24.012  26.599 -0.38 -0.14    +0.295    29.800
ATOM     44  C   UNL d   1       2.165  22.917  16.369 -0.18 -0.01    +0.141    29.800
ATOM     45  C   UNL d   1       1.667  21.513  16.584 -0.09 -0.03    +0.306    29.800
ATOM     46  O   UNL d   1       0.836  21.153  17.400 -0.03 +0.01    -0.251    29.800
ATOM     47  O   UNL d   1       2.267  20.624  15.771 -0.08 +0.09    -0.481    29.800
ATOM     48  H   UNL d   1       2.933  21.149  15.278 -0.11 -0.08    +0.295    29.800
ATOM     49  C   UNL d   1       7.155  18.939  23.590 -0.29 +0.00    +0.048    29.800
ATOM     50  C   UNL d   1       6.181  17.935  24.204 -0.09 +0.01    +0.125    29.800
ATOM     51  C   UNL d   1       4.782  18.482  24.216 -0.01 +0.01    +0.305    29.800
ATOM     52  O   UNL d   1       4.341  19.379  24.912 -0.01 -0.00    -0.251    29.800
ATOM     53  O   UNL d   1       3.985  17.847  23.334 +0.01 -0.02    -0.481    29.800
ATOM     54  H   UNL d   1       3.306  17.416  23.894 +0.01 +0.01    +0.295    29.800
TER
ENDMDL
MODEL       16
USER    Run = 16
USER    Cluster Rank = 26
USER    Number of conformations in this cluster = 1
USER  
USER    RMSD from reference structure       = 42.379 A
USER  
USER    Estimated Free Energy of Binding    =   -3.82 kcal/mol  [=(1)+(2)+(3)-(4)]
USER    Estimated Inhibition Constant, Ki   =    1.59 mM (millimolar)  [Temperature = 298.15 K]
USER    
USER    (1) Final Intermolecular Energy     =   -7.69 kcal/mol
USER        vdW + Hbond + desolv Energy     =   -7.25 kcal/mol
USER        Electrostatic Energy            =   -0.44 kcal/mol
USER    (2) Final Total Internal Energy     =   -2.45 kcal/mol
USER    (3) Torsional Free Energy           =   +3.88 kcal/mol
USER    (4) Unbound System's Energy  [=(2)] =   -2.45 kcal/mol
USER    
USER    
USER  
USER    DPF = D:/Protein_go_brrr/autodock/final/2DN3/heme/dock.dpf
USER    NEWDPF move	heme_opt.pdbqt
USER    NEWDPF about	0.153000 0.018000 -0.028000
USER    NEWDPF tran0	28.295989 37.983010 -0.409930
USER    NEWDPF axisangle0	-0.833612 0.183488 -0.520983 136.980366
USER    NEWDPF quaternion0	-0.775555 0.170709 -0.484699 0.366661
USER    NEWDPF dihe0	-96.99 83.21 -117.65 -180.00 24.33 -70.58 121.62 77.64 109.43 -24.74 97.16 179.43 177.01 
USER  
USER                              x       y       z    vdW   Elec        q     RMS 
ATOM      1  O   UNL d   1      25.007  35.862  -4.819 -0.10 +0.01    -0.289    42.379
ATOM      2  O   UNL d   1      29.058  42.162  -4.282 -0.01 -0.05    -0.289    42.379
ATOM      3  N   UNL d   1      26.686  36.764  -1.944 -0.11 -0.02    -0.247    42.379
ATOM      4  N   UNL d   1      28.209  39.178  -2.771 -0.10 -0.03    -0.247    42.379
ATOM      5  N   UNL d   1      29.739  38.929  -0.350 -0.03 -0.06    -0.354    42.379
ATOM      6  N   UNL d   1      28.167  36.414   0.491 -0.06 -0.07    -0.354    42.379
ATOM      7  C   UNL d   1      25.430  34.787  -2.665 -0.20 -0.00    +0.084    42.379
ATOM      8  C   UNL d   1      27.305  40.489  -4.625 -0.13 +0.01    +0.084    42.379
ATOM      9  C   UNL d   1      27.232  39.240  -3.741 -0.18 +0.01    +0.058    42.379
ATOM     10  C   UNL d   1      26.248  35.501  -1.585 -0.16 +0.00    +0.058    42.379
ATOM     11  C   UNL d   1      25.468  35.878  -3.692 -0.16 -0.00    +0.193    42.379
ATOM     12  C   UNL d   1      26.236  37.032  -3.127 -0.18 +0.01    +0.109    42.379
ATOM     13  C   UNL d   1      28.525  41.106  -4.002 -0.05 +0.03    +0.193    42.379
ATOM     14  C   UNL d   1      26.157  33.559  -3.219 -0.13 -0.00    +0.026    42.379
ATOM     15  C   UNL d   1      26.327  38.268  -3.931 -0.22 +0.01    +0.055    42.379
ATOM     16  C   UNL d   1      26.110  41.419  -4.393 -0.24 +0.00    +0.026    42.379
ATOM     17  C   UNL d   1      28.980  40.210  -2.896 -0.08 +0.02    +0.109    42.379
ATOM     18  C   UNL d   1      26.430  34.957  -0.367 -0.25 +0.01    +0.050    42.379
ATOM     19  C   UNL d   1      27.098  35.578   0.719 -0.20 +0.01    +0.045    42.379
ATOM     20  C   UNL d   1      30.470  39.894  -0.993 -0.03 +0.01    +0.045    42.379
ATOM     21  C   UNL d   1      30.189  40.540  -2.129 -0.04 +0.01    +0.057    42.379
ATOM     22  C   UNL d   1      31.585  39.259   0.897 -0.06 -0.00    -0.019    42.379
ATOM     23  C   UNL d   1      30.332  38.483   0.801 -0.06 +0.01    +0.045    42.379
ATOM     24  C   UNL d   1      31.660  40.092  -0.167 -0.03 -0.01    -0.022    42.379
ATOM     25  C   UNL d   1      28.717  36.831   1.681 -0.14 +0.01    +0.049    42.379
ATOM     26  C   UNL d   1      26.926  35.478   2.091 -0.30 -0.00    -0.018    42.379
ATOM     27  C   UNL d   1      27.939  36.287   2.693 -0.23 +0.00    +0.003    42.379
ATOM     28  C   UNL d   1      29.928  37.575   1.703 -0.11 +0.01    +0.052    42.379
ATOM     29  C   UNL d   1      32.726  41.078  -0.506 -0.04 +0.02    +0.046    42.379
ATOM     30  C   UNL d   1      25.884  34.683   2.803 -0.01 +0.01    +0.046    42.379
ATOM     31  H   UNL d   1      28.819  38.658  -0.681 +0.03 +0.02    +0.166    42.379
ATOM     32  H   UNL d   1      28.511  36.644  -0.434 +0.04 +0.03    +0.166    42.379
ATOM     33  C   UNL d   1      23.983  34.457  -2.283 -0.39 -0.02    +0.141    42.379
ATOM     34  C   UNL d   1      23.093  34.281  -3.484 -0.27 -0.05    +0.306    42.379
ATOM     35  O   UNL d   1      23.028  33.292  -4.194 -0.29 +0.10    -0.251    42.379
ATOM     36  O   UNL d   1      22.328  35.361  -3.726 -0.62 -0.01    -0.481    42.379
ATOM     37  H   UNL d   1      22.923  35.984  -4.195 +0.14 -0.02    +0.295    42.379
ATOM     38  C   UNL d   1      28.132  36.455   4.102 -0.31 -0.00    +0.017    42.379
ATOM     39  C   UNL d   1      27.954  35.500   5.027 -0.29 -0.01    +0.092    42.379
ATOM     40  C   UNL d   1      28.204  35.797   6.440 -0.15 -0.17    +0.330    42.379
ATOM     41  O   UNL d   1      29.278  35.957   6.988 -0.27 +0.10    -0.246    42.379
ATOM     42  O   UNL d   1      27.042  35.887   7.105 -0.01 +0.49    -0.477    42.379
ATOM     43  H   UNL d   1      26.860  36.849   7.130 -0.34 -0.73    +0.295    42.379
ATOM     44  C   UNL d   1      27.523  40.229  -6.119 -0.05 +0.02    +0.141    42.379
ATOM     45  C   UNL d   1      28.932  39.815  -6.451 -0.01 +0.03    +0.306    42.379
ATOM     46  O   UNL d   1      29.425  38.713  -6.281 -0.01 -0.02    -0.251    42.379
ATOM     47  O   UNL d   1      29.660  40.827  -6.956 +0.00 -0.05    -0.481    42.379
ATOM     48  H   UNL d   1      29.680  41.499  -6.243 +0.01 +0.04    +0.295    42.379
ATOM     49  C   UNL d   1      32.589  39.103   2.001 -0.16 +0.01    +0.048    42.379
ATOM     50  C   UNL d   1      33.692  38.111   1.632 -0.16 +0.02    +0.125    42.379
ATOM     51  C   UNL d   1      33.242  36.697   1.866 -0.09 +0.04    +0.305    42.379
ATOM     52  O   UNL d   1      32.425  36.061   1.225 -0.05 -0.06    -0.251    42.379
ATOM     53  O   UNL d   1      33.853  36.144   2.933 -0.09 +0.00    -0.481    42.379
ATOM     54  H   UNL d   1      34.447  36.852   3.261 -0.29 -0.10    +0.295    42.379
TER
ENDMDL
MODEL       54
USER    Run = 54
USER    Cluster Rank = 27
USER    Number of conformations in this cluster = 1
USER  
USER    RMSD from reference structure       = 25.593 A
USER  
USER    Estimated Free Energy of Binding    =   -3.81 kcal/mol  [=(1)+(2)+(3)-(4)]
USER    Estimated Inhibition Constant, Ki   =    1.62 mM (millimolar)  [Temperature = 298.15 K]
USER    
USER    (1) Final Intermolecular Energy     =   -7.69 kcal/mol
USER        vdW + Hbond + desolv Energy     =   -7.00 kcal/mol
USER        Electrostatic Energy            =   -0.68 kcal/mol
USER    (2) Final Total Internal Energy     =   -3.11 kcal/mol
USER    (3) Torsional Free Energy           =   +3.88 kcal/mol
USER    (4) Unbound System's Energy  [=(2)] =   -3.11 kcal/mol
USER    
USER    
USER  
USER    DPF = D:/Protein_go_brrr/autodock/final/2DN3/heme/dock.dpf
USER    NEWDPF move	heme_opt.pdbqt
USER    NEWDPF about	0.153000 0.018000 -0.028000
USER    NEWDPF tran0	19.341810 21.488452 -8.798851
USER    NEWDPF axisangle0	0.819283 0.350383 0.453880 -150.827561
USER    NEWDPF quaternion0	0.792878 0.339090 0.439251 -0.251837
USER    NEWDPF dihe0	-139.23 -127.69 100.29 -118.92 34.05 -132.35 -45.43 -96.23 105.27 -123.17 -59.65 29.52 13.50 
USER  
USER                              x       y       z    vdW   Elec        q     RMS 
ATOM      1  O   UNL d   1      18.283  16.078 -10.887 -0.04 +0.15    -0.289    25.593
ATOM      2  O   UNL d   1      15.418  22.749 -12.805 -0.04 +0.10    -0.289    25.593
ATOM      3  N   UNL d   1      19.119  19.006  -9.267 -0.11 +0.24    -0.247    25.593
ATOM      4  N   UNL d   1      17.760  21.094 -10.886 -0.13 +0.14    -0.247    25.593
ATOM      5  N   UNL d   1      19.348  23.060  -9.514 -0.06 +0.14    -0.354    25.593
ATOM      6  N   UNL d   1      20.767  20.885  -7.852 +0.06 +0.18    -0.354    25.593
ATOM      7  C   UNL d   1      19.895  16.684  -9.153 -0.08 -0.06    +0.084    25.593
ATOM      8  C   UNL d   1      15.773  20.421 -12.138 -0.09 -0.04    +0.084    25.593
ATOM      9  C   UNL d   1      16.963  20.033 -11.254 -0.17 -0.04    +0.058    25.593
ATOM     10  C   UNL d   1      20.003  18.129  -8.659 -0.15 -0.04    +0.058    25.593
ATOM     11  C   UNL d   1      18.782  16.894 -10.134 -0.08 -0.14    +0.193    25.593
ATOM     12  C   UNL d   1      18.382  18.336 -10.092 -0.14 -0.10    +0.109    25.593
ATOM     13  C   UNL d   1      16.063  21.892 -12.234 -0.07 -0.07    +0.193    25.593
ATOM     14  C   UNL d   1      21.148  16.241  -9.913 -0.03 -0.01    +0.026    25.593
ATOM     15  C   UNL d   1      17.232  18.763 -10.914 -0.17 -0.05    +0.055    25.593
ATOM     16  C   UNL d   1      14.439  20.228 -11.410 -0.18 -0.01    +0.026    25.593
ATOM     17  C   UNL d   1      17.297  22.169 -11.438 -0.16 -0.04    +0.109    25.593
ATOM     18  C   UNL d   1      20.832  18.470  -7.655 -0.18 -0.03    +0.050    25.593
ATOM     19  C   UNL d   1      20.937  19.761  -7.077 -0.19 -0.02    +0.045    25.593
ATOM     20  C   UNL d   1      18.795  23.845 -10.492 -0.19 -0.01    +0.045    25.593
ATOM     21  C   UNL d   1      17.850  23.531 -11.383 -0.19 -0.02    +0.057    25.593
ATOM     22  C   UNL d   1      20.352  25.070  -9.354 -0.19 +0.00    -0.019    25.593
ATOM     23  C   UNL d   1      20.298  23.712  -8.775 -0.21 -0.01    +0.045    25.593
ATOM     24  C   UNL d   1      19.459  25.142 -10.369 -0.17 +0.00    -0.022    25.593
ATOM     25  C   UNL d   1      21.001  22.022  -7.114 -0.19 -0.02    +0.049    25.593
ATOM     26  C   UNL d   1      21.254  20.178  -5.793 -0.19 +0.01    -0.018    25.593
ATOM     27  C   UNL d   1      21.274  21.606  -5.818 -0.21 -0.00    +0.003    25.593
ATOM     28  C   UNL d   1      21.039  23.300  -7.735 -0.21 -0.01    +0.052    25.593
ATOM     29  C   UNL d   1      19.138  26.302 -11.249 -0.14 -0.01    +0.046    25.593
ATOM     30  C   UNL d   1      21.521  19.305  -4.614 -0.15 -0.01    +0.046    25.593
ATOM     31  H   UNL d   1      19.004  22.123  -9.334 -0.49 -0.12    +0.166    25.593
ATOM     32  H   UNL d   1      20.541  20.856  -8.840 -0.14 -0.09    +0.166    25.593
ATOM     33  C   UNL d   1      19.490  15.656  -8.091 -0.01 -0.13    +0.141    25.593
ATOM     34  C   UNL d   1      18.787  14.462  -8.679 -0.04 -0.19    +0.306    25.593
ATOM     35  O   UNL d   1      19.318  13.448  -9.098 -0.01 +0.08    -0.251    25.593
ATOM     36  O   UNL d   1      17.450  14.608  -8.706 -0.05 +0.44    -0.481    25.593
ATOM     37  H   UNL d   1      17.310  15.552  -8.936 -0.22 -0.43    +0.295    25.593
ATOM     38  C   UNL d   1      21.574  22.447  -4.698 -0.20 -0.00    +0.017    25.593
ATOM     39  C   UNL d   1      20.708  23.277  -4.099 -0.27 -0.01    +0.092    25.593
ATOM     40  C   UNL d   1      21.138  24.074  -2.946 -0.09 -0.04    +0.330    25.593
ATOM     41  O   UNL d   1      20.548  24.241  -1.896 -0.38 +0.01    -0.246    25.593
ATOM     42  O   UNL d   1      22.336  24.627  -3.189 -0.03 +0.11    -0.477    25.593
ATOM     43  H   UNL d   1      22.216  25.079  -4.049 +0.11 -0.09    +0.295    25.593
ATOM     44  C   UNL d   1      15.745  19.776 -13.528 -0.01 -0.03    +0.141    25.593
ATOM     45  C   UNL d   1      14.655  20.319 -14.413 +0.01 -0.05    +0.306    25.593
ATOM     46  O   UNL d   1      13.514  19.898 -14.503 +0.00 +0.03    -0.251    25.593
ATOM     47  O   UNL d   1      15.070  21.355 -15.164 +0.01 +0.07    -0.481    25.593
ATOM     48  H   UNL d   1      15.034  22.128 -14.562 +0.02 -0.06    +0.295    25.593
ATOM     49  C   UNL d   1      21.272  26.154  -8.876 -0.18 -0.02    +0.048    25.593
ATOM     50  C   UNL d   1      20.872  26.671  -7.494 -0.29 -0.06    +0.125    25.593
ATOM     51  C   UNL d   1      21.995  26.495  -6.511 -0.13 -0.20    +0.305    25.593
ATOM     52  O   UNL d   1      22.102  25.638  -5.651 -0.14 +0.11    -0.251    25.593
ATOM     53  O   UNL d   1      22.945  27.439  -6.656 -0.04 +0.58    -0.481    25.593
ATOM     54  H   UNL d   1      22.471  28.281  -6.489 -0.39 -0.79    +0.295    25.593
TER
ENDMDL
MODEL       27
USER    Run = 27
USER    Cluster Rank = 28
USER    Number of conformations in this cluster = 1
USER  
USER    RMSD from reference structure       = 42.904 A
USER  
USER    Estimated Free Energy of Binding    =   -3.77 kcal/mol  [=(1)+(2)+(3)-(4)]
USER    Estimated Inhibition Constant, Ki   =    1.72 mM (millimolar)  [Temperature = 298.15 K]
USER    
USER    (1) Final Intermolecular Energy     =   -7.65 kcal/mol
USER        vdW + Hbond + desolv Energy     =   -7.39 kcal/mol
USER        Electrostatic Energy            =   -0.26 kcal/mol
USER    (2) Final Total Internal Energy     =   -2.26 kcal/mol
USER    (3) Torsional Free Energy           =   +3.88 kcal/mol
USER    (4) Unbound System's Energy  [=(2)] =   -2.26 kcal/mol
USER    
USER    
USER  
USER    DPF = D:/Protein_go_brrr/autodock/final/2DN3/heme/dock.dpf
USER    NEWDPF move	heme_opt.pdbqt
USER    NEWDPF about	0.153000 0.018000 -0.028000
USER    NEWDPF tran0	37.766354 29.108041 -0.567666
USER    NEWDPF axisangle0	-0.036114 0.132259 -0.990557 158.517514
USER    NEWDPF quaternion0	-0.035481 0.129942 -0.973201 0.186374
USER    NEWDPF dihe0	-96.72 -61.37 174.66 0.22 30.77 151.91 -54.42 127.00 125.88 -151.83 95.23 -74.07 -151.47 
USER  
USER                              x       y       z    vdW   Elec        q     RMS 
ATOM      1  O   UNL d   1      42.359  25.437  -1.007 -0.15 -0.06    -0.289    42.904
ATOM      2  O   UNL d   1      42.002  32.935  -1.240 -0.14 -0.02    -0.289    42.904
ATOM      3  N   UNL d   1      39.382  27.172  -0.839 -0.13 -0.02    -0.247    42.904
ATOM      4  N   UNL d   1      40.253  30.010  -0.699 -0.15 -0.01    -0.247    42.904
ATOM      5  N   UNL d   1      37.571  30.697   0.077 -0.07 -0.04    -0.354    42.904
ATOM      6  N   UNL d   1      36.681  27.749  -0.052 +0.03 -0.04    -0.354    42.904
ATOM      7  C   UNL d   1      40.026  24.818  -0.618 -0.15 +0.01    +0.084    42.904
ATOM      8  C   UNL d   1      42.423  30.563  -1.677 -0.21 +0.00    +0.084    42.904
ATOM      9  C   UNL d   1      41.391  29.501  -1.283 -0.20 +0.00    +0.058    42.904
ATOM     10  C   UNL d   1      38.928  25.885  -0.605 -0.16 +0.00    +0.058    42.904
ATOM     11  C   UNL d   1      41.179  25.727  -0.920 -0.14 +0.03    +0.193    42.904
ATOM     12  C   UNL d   1      40.656  27.123  -1.056 -0.15 +0.01    +0.109    42.904
ATOM     13  C   UNL d   1      41.675  31.766  -1.174 -0.16 +0.01    +0.193    42.904
ATOM     14  C   UNL d   1      40.237  24.193   0.763 -0.29 +0.00    +0.026    42.904
ATOM     15  C   UNL d   1      41.604  28.186  -1.447 -0.22 +0.01    +0.055    42.904
ATOM     16  C   UNL d   1      42.570  30.675  -3.197 -0.08 +0.00    +0.026    42.904
ATOM     17  C   UNL d   1      40.380  31.294  -0.598 -0.15 +0.00    +0.109    42.904
ATOM     18  C   UNL d   1      37.630  25.557  -0.465 -0.11 +0.00    +0.050    42.904
ATOM     19  C   UNL d   1      36.541  26.463  -0.525 -0.01 +0.00    +0.045    42.904
ATOM     20  C   UNL d   1      38.197  31.894   0.309 -0.21 +0.00    +0.045    42.904
ATOM     21  C   UNL d   1      39.451  32.255   0.014 -0.28 +0.00    +0.057    42.904
ATOM     22  C   UNL d   1      36.053  32.021   1.086 -0.18 -0.00    -0.019    42.904
ATOM     23  C   UNL d   1      36.273  30.678   0.512 -0.16 +0.01    +0.045    42.904
ATOM     24  C   UNL d   1      37.196  32.736   0.961 -0.19 -0.00    -0.022    42.904
ATOM     25  C   UNL d   1      35.484  28.423  -0.123 -0.12 +0.01    +0.049    42.904
ATOM     26  C   UNL d   1      35.230  26.310  -0.947 -0.10 -0.00    -0.018    42.904
ATOM     27  C   UNL d   1      34.572  27.556  -0.709 -0.10 +0.00    +0.003    42.904
ATOM     28  C   UNL d   1      35.340  29.715   0.451 -0.16 +0.01    +0.052    42.904
ATOM     29  C   UNL d   1      37.466  34.142   1.378 -0.30 +0.00    +0.046    42.904
ATOM     30  C   UNL d   1      34.623  25.082  -1.537 -0.05 -0.00    +0.046    42.904
ATOM     31  H   UNL d   1      38.030  29.955  -0.440 +0.05 +0.02    +0.166    42.904
ATOM     32  H   UNL d   1      37.546  28.115   0.329 +0.07 +0.02    +0.166    42.904
ATOM     33  C   UNL d   1      39.888  23.746  -1.705 -0.05 +0.01    +0.141    42.904
ATOM     34  C   UNL d   1      41.074  22.822  -1.762 -0.02 +0.03    +0.306    42.904
ATOM     35  O   UNL d   1      41.245  21.826  -1.080 -0.01 -0.03    -0.251    42.904
ATOM     36  O   UNL d   1      41.983  23.201  -2.678 +0.00 -0.06    -0.481    42.904
ATOM     37  H   UNL d   1      42.498  23.910  -2.236 +0.05 +0.04    +0.295    42.904
ATOM     38  C   UNL d   1      33.194  27.828  -0.988 -0.07 +0.00    +0.017    42.904
ATOM     39  C   UNL d   1      32.385  28.584  -0.230 -0.11 +0.04    +0.092    42.904
ATOM     40  C   UNL d   1      30.995  28.800  -0.638 -0.04 +0.19    +0.330    42.904
ATOM     41  O   UNL d   1      30.030  28.988   0.080 -0.27 -0.26    -0.246    42.904
ATOM     42  O   UNL d   1      30.896  28.775  -1.976 +0.01 -0.13    -0.477    42.904
ATOM     43  H   UNL d   1      30.297  28.022  -2.153 +0.02 +0.05    +0.295    42.904
ATOM     44  C   UNL d   1      43.789  30.442  -0.994 -0.39 +0.00    +0.141    42.904
ATOM     45  C   UNL d   1      44.893  31.135  -1.747 -0.20 -0.02    +0.306    42.904
ATOM     46  O   UNL d   1      45.695  30.616  -2.503 -0.15 +0.02    -0.251    42.904
ATOM     47  O   UNL d   1      44.945  32.454  -1.485 -0.03 +0.07    -0.481    42.904
ATOM     48  H   UNL d   1      44.157  32.627  -0.927 -0.18 -0.06    +0.295    42.904
ATOM     49  C   UNL d   1      34.764  32.470   1.710 -0.19 +0.01    +0.048    42.904
ATOM     50  C   UNL d   1      34.972  32.988   3.133 -0.32 +0.02    +0.125    42.904
ATOM     51  C   UNL d   1      34.982  31.855   4.120 -0.33 +0.05    +0.305    42.904
ATOM     52  O   UNL d   1      35.879  31.544   4.883 -0.45 -0.01    -0.251    42.904
ATOM     53  O   UNL d   1      33.837  31.146   4.086 -0.19 -0.14    -0.481    42.904
ATOM     54  H   UNL d   1      33.969  30.448   4.760 -0.13 -0.02    +0.295    42.904
TER
ENDMDL
MODEL       94
USER    Run = 94
USER    Cluster Rank = 29
USER    Number of conformations in this cluster = 2
USER  
USER    RMSD from reference structure       = 40.561 A
USER  
USER    Estimated Free Energy of Binding    =   -3.72 kcal/mol  [=(1)+(2)+(3)-(4)]
USER    Estimated Inhibition Constant, Ki   =    1.87 mM (millimolar)  [Temperature = 298.15 K]
USER    
USER    (1) Final Intermolecular Energy     =   -7.60 kcal/mol
USER        vdW + Hbond + desolv Energy     =   -7.44 kcal/mol
USER        Electrostatic Energy            =   -0.16 kcal/mol
USER    (2) Final Total Internal Energy     =   -4.57 kcal/mol
USER    (3) Torsional Free Energy           =   +3.88 kcal/mol
USER    (4) Unbound System's Energy  [=(2)] =   -4.57 kcal/mol
USER    
USER    
USER  
USER    DPF = D:/Protein_go_brrr/autodock/final/2DN3/heme/dock.dpf
USER    NEWDPF move	heme_opt.pdbqt
USER    NEWDPF about	0.153000 0.018000 -0.028000
USER    NEWDPF tran0	24.458457 37.542242 -4.903057
USER    NEWDPF axisangle0	-0.878509 0.163931 -0.448718 158.518358
USER    NEWDPF quaternion0	-0.863118 0.161059 -0.440857 0.186367
USER    NEWDPF dihe0	162.15 -153.83 130.01 8.51 -143.18 61.81 -48.34 -9.33 28.86 -143.59 -59.21 -95.34 9.40 
USER  
USER                              x       y       z    vdW   Elec        q     RMS 
ATOM      1  O   UNL d   1      21.027  36.396  -9.558 -0.09 -0.15    -0.289    40.561
ATOM      2  O   UNL d   1      24.009  42.835  -7.100 -0.07 -0.05    -0.289    40.561
ATOM      3  N   UNL d   1      22.889  36.607  -6.662 -0.07 -0.02    -0.247    40.561
ATOM      4  N   UNL d   1      23.869  39.412  -6.684 -0.10 -0.05    -0.247    40.561
ATOM      5  N   UNL d   1      25.719  38.683  -4.607 -0.14 -0.04    -0.354    40.561
ATOM      6  N   UNL d   1      24.710  35.771  -4.605 -0.09 +0.02    -0.354    40.561
ATOM      7  C   UNL d   1      21.897  34.773  -7.950 -0.10 +0.00    +0.084    40.561
ATOM      8  C   UNL d   1      22.528  41.055  -7.897 -0.17 +0.02    +0.084    40.561
ATOM      9  C   UNL d   1      22.780  39.595  -7.505 -0.18 +0.01    +0.058    40.561
ATOM     10  C   UNL d   1      22.717  35.235  -6.742 -0.13 +0.00    +0.058    40.561
ATOM     11  C   UNL d   1      21.620  36.128  -8.529 -0.07 +0.05    +0.193    40.561
ATOM     12  C   UNL d   1      22.252  37.157  -7.644 -0.11 +0.02    +0.109    40.561
ATOM     13  C   UNL d   1      23.699  41.662  -7.176 -0.09 +0.04    +0.193    40.561
ATOM     14  C   UNL d   1      22.741  33.972  -8.946 -0.07 -0.00    +0.026    40.561
ATOM     15  C   UNL d   1      22.032  38.581  -7.967 -0.22 +0.02    +0.055    40.561
ATOM     16  C   UNL d   1      21.236  41.595  -7.277 -0.23 +0.01    +0.026    40.561
ATOM     17  C   UNL d   1      24.435  40.559  -6.487 -0.08 +0.02    +0.109    40.561
ATOM     18  C   UNL d   1      23.143  34.365  -5.807 -0.21 -0.01    +0.050    40.561
ATOM     19  C   UNL d   1      23.833  34.710  -4.617 -0.24 -0.01    +0.045    40.561
ATOM     20  C   UNL d   1      26.191  39.933  -4.914 -0.19 +0.01    +0.045    40.561
ATOM     21  C   UNL d   1      25.662  40.851  -5.730 -0.17 +0.01    +0.057    40.561
ATOM     22  C   UNL d   1      27.630  38.942  -3.443 -0.17 -0.00    -0.019    40.561
ATOM     23  C   UNL d   1      26.522  38.009  -3.726 -0.22 +0.00    +0.045    40.561
ATOM     24  C   UNL d   1      27.428  40.080  -4.149 -0.16 -0.00    -0.022    40.561
ATOM     25  C   UNL d   1      25.332  35.869  -3.382 -0.23 -0.00    +0.049    40.561
ATOM     26  C   UNL d   1      23.858  34.127  -3.360 -0.36 +0.00    -0.018    40.561
ATOM     27  C   UNL d   1      24.792  34.875  -2.578 -0.30 -0.00    +0.003    40.561
ATOM     28  C   UNL d   1      26.394  36.791  -3.177 -0.24 +0.00    +0.052    40.561
ATOM     29  C   UNL d   1      28.262  41.315  -4.187 -0.09 +0.01    +0.046    40.561
ATOM     30  C   UNL d   1      23.064  32.948  -2.908 -0.33 -0.02    +0.046    40.561
ATOM     31  H   UNL d   1      24.822  38.360  -4.953 +0.03 +0.02    +0.166    40.561
ATOM     32  H   UNL d   1      24.888  36.360  -5.410 +0.04 +0.00    +0.166    40.561
ATOM     33  C   UNL d   1      20.586  34.052  -7.618 -0.20 +0.01    +0.141    40.561
ATOM     34  C   UNL d   1      19.499  34.998  -7.185 -0.23 +0.09    +0.306    40.561
ATOM     35  O   UNL d   1      19.278  35.369  -6.045 -0.68 -0.08    -0.251    40.561
ATOM     36  O   UNL d   1      18.747  35.428  -8.214 -0.14 -0.23    -0.481    40.561
ATOM     37  H   UNL d   1      19.303  35.275  -9.007 +0.12 +0.15    +0.295    40.561
ATOM     38  C   UNL d   1      25.135  34.599  -1.215 -0.36 -0.00    +0.017    40.561
ATOM     39  C   UNL d   1      26.371  34.331  -0.767 -0.23 +0.01    +0.092    40.561
ATOM     40  C   UNL d   1      26.592  34.083   0.660 -0.18 +0.09    +0.330    40.561
ATOM     41  O   UNL d   1      26.099  33.209   1.348 -0.30 -0.03    -0.246    40.561
ATOM     42  O   UNL d   1      27.462  34.977   1.155 -0.05 -0.17    -0.477    40.561
ATOM     43  H   UNL d   1      27.363  35.752   0.565 +0.11 +0.06    +0.295    40.561
ATOM     44  C   UNL d   1      22.592  41.357  -9.398 -0.10 +0.04    +0.141    40.561
ATOM     45  C   UNL d   1      22.036  42.709  -9.756 -0.06 +0.08    +0.306    40.561
ATOM     46  O   UNL d   1      20.889  42.959 -10.087 -0.11 -0.09    -0.251    40.561
ATOM     47  O   UNL d   1      22.966  43.679  -9.705 +0.01 -0.07    -0.481    40.561
ATOM     48  H   UNL d   1      23.385  43.574  -8.824 +0.04 +0.04    +0.295    40.561
ATOM     49  C   UNL d   1      28.780  38.633  -2.530 -0.12 +0.01    +0.048    40.561
ATOM     50  C   UNL d   1      28.367  38.676  -1.059 -0.05 +0.02    +0.125    40.561
ATOM     51  C   UNL d   1      28.632  37.358  -0.389 -0.08 +0.05    +0.305    40.561
ATOM     52  O   UNL d   1      28.858  36.285  -0.922 -0.05 -0.05    -0.251    40.561
ATOM     53  O   UNL d   1      28.586  37.457   0.954 -0.03 -0.06    -0.481    40.561
ATOM     54  H   UNL d   1      28.900  36.583   1.268 +0.09 +0.06    +0.295    40.561
TER
ENDMDL
MODEL       78
USER    Run = 78
USER    Cluster Rank = 30
USER    Number of conformations in this cluster = 1
USER  
USER    RMSD from reference structure       = 61.325 A
USER  
USER    Estimated Free Energy of Binding    =   -3.67 kcal/mol  [=(1)+(2)+(3)-(4)]
USER    Estimated Inhibition Constant, Ki   =    2.03 mM (millimolar)  [Temperature = 298.15 K]
USER    
USER    (1) Final Intermolecular Energy     =   -7.55 kcal/mol
USER        vdW + Hbond + desolv Energy     =   -7.17 kcal/mol
USER        Electrostatic Energy            =   -0.38 kcal/mol
USER    (2) Final Total Internal Energy     =   -2.51 kcal/mol
USER    (3) Torsional Free Energy           =   +3.88 kcal/mol
USER    (4) Unbound System's Energy  [=(2)] =   -2.51 kcal/mol
USER    
USER    
USER  
USER    DPF = D:/Protein_go_brrr/autodock/final/2DN3/heme/dock.dpf
USER    NEWDPF move	heme_opt.pdbqt
USER    NEWDPF about	0.153000 0.018000 -0.028000
USER    NEWDPF tran0	49.448963 41.424421 15.367264
USER    NEWDPF axisangle0	0.348561 0.870081 0.348516 -72.122295
USER    NEWDPF quaternion0	0.205180 0.512172 0.205154 -0.808389
USER    NEWDPF dihe0	134.25 72.91 -99.29 112.83 -134.32 102.60 125.95 -127.69 22.68 -43.58 -64.40 -28.51 -159.05 
USER  
USER                              x       y       z    vdW   Elec        q     RMS 
ATOM      1  O   UNL d   1      47.640  39.710  20.710 -0.02 +0.01    -0.289    61.325
ATOM      2  O   UNL d   1      47.558  36.147  14.100 -0.52 -0.10    -0.289    61.325
ATOM      3  N   UNL d   1      48.698  41.187  17.778 -0.08 +0.01    -0.247    61.325
ATOM      4  N   UNL d   1      48.584  38.961  15.813 -0.11 +0.00    -0.247    61.325
ATOM      5  N   UNL d   1      50.129  40.591  14.017 -0.09 +0.04    -0.354    61.325
ATOM      6  N   UNL d   1      50.259  42.887  16.070 -0.02 +0.02    -0.354    61.325
ATOM      7  C   UNL d   1      48.706  41.835  20.142 -0.03 -0.00    +0.084    61.325
ATOM      8  C   UNL d   1      47.005  37.152  16.262 -0.25 +0.01    +0.084    61.325
ATOM      9  C   UNL d   1      47.684  38.447  16.719 -0.14 +0.00    +0.058    61.325
ATOM     10  C   UNL d   1      49.052  42.169  18.688 -0.07 -0.00    +0.058    61.325
ATOM     11  C   UNL d   1      48.077  40.497  19.891 -0.03 -0.00    +0.193    61.325
ATOM     12  C   UNL d   1      48.110  40.229  18.418 -0.10 -0.00    +0.109    61.325
ATOM     13  C   UNL d   1      47.714  37.006  14.945 -0.31 +0.03    +0.193    61.325
ATOM     14  C   UNL d   1      49.958  41.640  21.000 -0.01 +0.00    +0.026    61.325
ATOM     15  C   UNL d   1      47.458  39.001  17.920 -0.17 +0.00    +0.055    61.325
ATOM     16  C   UNL d   1      45.510  37.358  15.997 -0.47 +0.01    +0.026    61.325
ATOM     17  C   UNL d   1      48.648  38.162  14.796 -0.14 -0.00    +0.109    61.325
ATOM     18  C   UNL d   1      49.571  43.363  18.345 -0.08 -0.00    +0.050    61.325
ATOM     19  C   UNL d   1      49.844  43.792  17.021 -0.10 -0.00    +0.045    61.325
ATOM     20  C   UNL d   1      50.169  39.398  13.345 -0.25 -0.00    +0.045    61.325
ATOM     21  C   UNL d   1      49.515  38.263  13.613 -0.29 -0.00    +0.057    61.325
ATOM     22  C   UNL d   1      51.552  40.882  12.295 -0.23 +0.00    -0.019    61.325
ATOM     23  C   UNL d   1      50.933  41.549  13.458 -0.19 -0.01    +0.045    61.325
ATOM     24  C   UNL d   1      51.095  39.609  12.233 -0.28 +0.00    -0.022    61.325
ATOM     25  C   UNL d   1      50.553  43.529  14.889 -0.11 -0.00    +0.049    61.325
ATOM     26  C   UNL d   1      49.833  45.047  16.434 -0.10 +0.00    -0.018    61.325
ATOM     27  C   UNL d   1      50.262  44.873  15.082 -0.15 -0.00    +0.003    61.325
ATOM     28  C   UNL d   1      51.149  42.827  13.807 -0.15 -0.01    +0.052    61.325
ATOM     29  C   UNL d   1      51.418  38.550  11.235 -0.27 +0.00    +0.046    61.325
ATOM     30  C   UNL d   1      49.445  46.332  17.085 +0.14 -0.00    +0.046    61.325
ATOM     31  H   UNL d   1      49.496  40.736  14.796 +0.00 -0.01    +0.166    61.325
ATOM     32  H   UNL d   1      50.366  41.896  16.248 +0.04 -0.01    +0.166    61.325
ATOM     33  C   UNL d   1      47.706  42.782  20.814 -0.04 -0.00    +0.141    61.325
ATOM     34  C   UNL d   1      46.312  42.635  20.266 -0.10 -0.01    +0.306    61.325
ATOM     35  O   UNL d   1      45.890  43.121  19.230 -0.22 +0.01    -0.251    61.325
ATOM     36  O   UNL d   1      45.523  41.881  21.051 -0.06 +0.05    -0.481    61.325
ATOM     37  H   UNL d   1      46.058  41.082  21.244 +0.10 -0.03    +0.295    61.325
ATOM     38  C   UNL d   1      50.409  45.923  14.120 -0.18 -0.00    +0.017    61.325
ATOM     39  C   UNL d   1      50.661  45.748  12.814 -0.20 -0.02    +0.092    61.325
ATOM     40  C   UNL d   1      50.771  46.911  11.929 -0.10 -0.15    +0.330    61.325
ATOM     41  O   UNL d   1      51.787  47.438  11.517 -0.07 +0.08    -0.246    61.325
ATOM     42  O   UNL d   1      49.550  47.355  11.595 -0.12 +0.39    -0.477    61.325
ATOM     43  H   UNL d   1      49.450  47.086  10.659 -0.45 -0.59    +0.295    61.325
ATOM     44  C   UNL d   1      47.247  35.929  17.154 -0.16 +0.02    +0.141    61.325
ATOM     45  C   UNL d   1      48.413  35.089  16.706 -0.11 +0.05    +0.306    61.325
ATOM     46  O   UNL d   1      49.591  35.295  16.943 -0.06 -0.04    -0.251    61.325
ATOM     47  O   UNL d   1      48.033  34.040  15.955 -0.13 -0.10    -0.481    61.325
ATOM     48  H   UNL d   1      47.884  34.416  15.062 +0.13 +0.07    +0.295    61.325
ATOM     49  C   UNL d   1      52.535  41.540  11.372 -0.19 -0.01    +0.048    61.325
ATOM     50  C   UNL d   1      53.896  40.846  11.402 -0.08 -0.01    +0.125    61.325
ATOM     51  C   UNL d   1      54.225  40.251  10.062 -0.04 -0.02    +0.305    61.325
ATOM     52  O   UNL d   1      54.663  39.138   9.830 -0.02 +0.00    -0.251    61.325
ATOM     53  O   UNL d   1      53.990  41.117   9.055 -0.03 +0.11    -0.481    61.325
ATOM     54  H   UNL d   1      53.015  41.216   9.048 -0.47 -0.16    +0.295    61.325
TER
ENDMDL
MODEL       74
USER    Run = 74
USER    Cluster Rank = 31
USER    Number of conformations in this cluster = 2
USER  
USER    RMSD from reference structure       = 51.014 A
USER  
USER    Estimated Free Energy of Binding    =   -3.58 kcal/mol  [=(1)+(2)+(3)-(4)]
USER    Estimated Inhibition Constant, Ki   =    2.39 mM (millimolar)  [Temperature = 298.15 K]
USER    
USER    (1) Final Intermolecular Energy     =   -7.45 kcal/mol
USER        vdW + Hbond + desolv Energy     =   -7.20 kcal/mol
USER        Electrostatic Energy            =   -0.25 kcal/mol
USER    (2) Final Total Internal Energy     =   -1.84 kcal/mol
USER    (3) Torsional Free Energy           =   +3.88 kcal/mol
USER    (4) Unbound System's Energy  [=(2)] =   -1.84 kcal/mol
USER    
USER    
USER  
USER    DPF = D:/Protein_go_brrr/autodock/final/2DN3/heme/dock.dpf
USER    NEWDPF move	heme_opt.pdbqt
USER    NEWDPF about	0.153000 0.018000 -0.028000
USER    NEWDPF tran0	44.999483 33.571754 -1.427837
USER    NEWDPF axisangle0	-0.177263 -0.268049 0.946957 144.510457
USER    NEWDPF quaternion0	-0.168830 -0.255296 0.901904 0.304777
USER    NEWDPF dihe0	104.61 13.68 180.00 -88.89 12.65 -146.65 143.69 -125.94 -141.12 -11.80 78.49 -92.71 -173.35 
USER  
USER                              x       y       z    vdW   Elec        q     RMS 
ATOM      1  O   UNL d   1      50.226  34.653   1.077 -0.08 -0.09    -0.289    51.014
ATOM      2  O   UNL d   1      44.165  39.007   0.245 -0.05 -0.05    -0.289    51.014
ATOM      3  N   UNL d   1      47.398  33.617  -0.604 -0.06 +0.01    -0.247    51.014
ATOM      4  N   UNL d   1      45.481  35.842  -0.153 -0.10 -0.03    -0.247    51.014
ATOM      5  N   UNL d   1      43.392  34.113  -1.108 -0.05 -0.02    -0.354    51.014
ATOM      6  N   UNL d   1      45.384  31.804  -1.555 -0.11 +0.05    -0.354    51.014
ATOM      7  C   UNL d   1      49.491  32.543   0.085 -0.19 +0.02    +0.084    51.014
ATOM      8  C   UNL d   1      46.421  38.058   0.269 -0.08 +0.02    +0.084    51.014
ATOM      9  C   UNL d   1      46.640  36.556   0.057 -0.14 +0.01    +0.058    51.014
ATOM     10  C   UNL d   1      48.125  32.438  -0.600 -0.24 +0.00    +0.058    51.014
ATOM     11  C   UNL d   1      49.415  33.995   0.451 -0.11 +0.04    +0.193    51.014
ATOM     12  C   UNL d   1      48.110  34.539  -0.043 -0.16 +0.01    +0.109    51.014
ATOM     13  C   UNL d   1      44.921  38.058   0.178 -0.07 +0.04    +0.193    51.014
ATOM     14  C   UNL d   1      49.555  31.711   1.368 -0.39 +0.01    +0.026    51.014
ATOM     15  C   UNL d   1      47.851  35.983   0.123 -0.14 +0.01    +0.055    51.014
ATOM     16  C   UNL d   1      46.985  38.884  -0.891 -0.03 +0.00    +0.026    51.014
ATOM     17  C   UNL d   1      44.476  36.654  -0.072 -0.07 +0.02    +0.109    51.014
ATOM     18  C   UNL d   1      47.732  31.307  -1.216 -0.30 -0.00    +0.050    51.014
ATOM     19  C   UNL d   1      46.527  31.144  -1.945 -0.22 -0.00    +0.045    51.014
ATOM     20  C   UNL d   1      42.637  35.152  -0.627 -0.04 +0.01    +0.045    51.014
ATOM     21  C   UNL d   1      43.043  36.339  -0.166 -0.05 +0.01    +0.057    51.014
ATOM     22  C   UNL d   1      41.244  33.448  -1.239 -0.17 -0.00    -0.019    51.014
ATOM     23  C   UNL d   1      42.639  33.039  -1.501 -0.18 +0.00    +0.045    51.014
ATOM     24  C   UNL d   1      41.250  34.700  -0.723 -0.19 -0.00    -0.022    51.014
ATOM     25  C   UNL d   1      44.319  31.432  -2.342 -0.18 -0.00    +0.049    51.014
ATOM     26  C   UNL d   1      46.205  30.352  -3.037 -0.16 +0.00    -0.018    51.014
ATOM     27  C   UNL d   1      44.814  30.553  -3.295 -0.13 +0.00    +0.003    51.014
ATOM     28  C   UNL d   1      42.999  31.861  -2.033 -0.18 +0.00    +0.052    51.014
ATOM     29  C   UNL d   1      40.092  35.543  -0.309 -0.19 +0.01    +0.046    51.014
ATOM     30  C   UNL d   1      47.131  29.464  -3.797 -0.16 +0.00    +0.046    51.014
ATOM     31  H   UNL d   1      44.396  34.201  -1.221 -0.18 -0.01    +0.166    51.014
ATOM     32  H   UNL d   1      45.345  32.439  -0.767 -0.37 -0.07    +0.166    51.014
ATOM     33  C   UNL d   1      50.701  32.279  -0.818 -0.07 +0.03    +0.141    51.014
ATOM     34  C   UNL d   1      51.153  30.844  -0.776 -0.08 +0.08    +0.306    51.014
ATOM     35  O   UNL d   1      50.531  29.880  -1.191 -0.16 -0.07    -0.251    51.014
ATOM     36  O   UNL d   1      52.366  30.699  -0.214 -0.01 -0.15    -0.481    51.014
ATOM     37  H   UNL d   1      52.996  30.970  -0.916 +0.05 +0.07    +0.295    51.014
ATOM     38  C   UNL d   1      44.066  29.910  -4.333 -0.06 +0.00    +0.017    51.014
ATOM     39  C   UNL d   1      42.954  29.182  -4.149 -0.05 +0.01    +0.092    51.014
ATOM     40  C   UNL d   1      42.270  28.590  -5.302 -0.00 +0.03    +0.330    51.014
ATOM     41  O   UNL d   1      41.080  28.378  -5.432 -0.00 -0.02    -0.246    51.014
ATOM     42  O   UNL d   1      43.158  28.295  -6.264 +0.00 -0.04    -0.477    51.014
ATOM     43  H   UNL d   1      42.603  28.123  -7.051 +0.00 +0.02    +0.295    51.014
ATOM     44  C   UNL d   1      46.888  38.609   1.621 -0.14 +0.04    +0.141    51.014
ATOM     45  C   UNL d   1      46.173  37.992   2.793 -0.16 +0.14    +0.306    51.014
ATOM     46  O   UNL d   1      46.589  37.097   3.509 -0.34 -0.18    -0.251    51.014
ATOM     47  O   UNL d   1      44.951  38.520   2.987 -0.29 -0.20    -0.481    51.014
ATOM     48  H   UNL d   1      44.862  39.202   2.288 +0.12 +0.09    +0.295    51.014
ATOM     49  C   UNL d   1      40.049  32.579  -1.500 -0.12 +0.00    +0.048    51.014
ATOM     50  C   UNL d   1      39.493  31.974  -0.211 -0.23 +0.01    +0.125    51.014
ATOM     51  C   UNL d   1      39.940  30.548  -0.052 -0.17 +0.00    +0.305    51.014
ATOM     52  O   UNL d   1      39.255  29.582   0.232 -0.25 -0.02    -0.251    51.014
ATOM     53  O   UNL d   1      41.266  30.411  -0.250 -0.12 +0.02    -0.481    51.014
ATOM     54  H   UNL d   1      41.654  30.528   0.642 -0.38 -0.10    +0.295    51.014
TER
ENDMDL
MODEL       53
USER    Run = 53
USER    Cluster Rank = 32
USER    Number of conformations in this cluster = 1
USER  
USER    RMSD from reference structure       = 60.935 A
USER  
USER    Estimated Free Energy of Binding    =   -3.54 kcal/mol  [=(1)+(2)+(3)-(4)]
USER    Estimated Inhibition Constant, Ki   =    2.53 mM (millimolar)  [Temperature = 298.15 K]
USER    
USER    (1) Final Intermolecular Energy     =   -7.42 kcal/mol
USER        vdW + Hbond + desolv Energy     =   -7.04 kcal/mol
USER        Electrostatic Energy            =   -0.38 kcal/mol
USER    (2) Final Total Internal Energy     =   -2.36 kcal/mol
USER    (3) Torsional Free Energy           =   +3.88 kcal/mol
USER    (4) Unbound System's Energy  [=(2)] =   -2.36 kcal/mol
USER    
USER    
USER  
USER    DPF = D:/Protein_go_brrr/autodock/final/2DN3/heme/dock.dpf
USER    NEWDPF move	heme_opt.pdbqt
USER    NEWDPF about	0.153000 0.018000 -0.028000
USER    NEWDPF tran0	44.441184 48.136843 3.845799
USER    NEWDPF axisangle0	0.076807 0.200931 -0.976590 -103.033949
USER    NEWDPF quaternion0	0.060124 0.157287 -0.764467 -0.622283
USER    NEWDPF dihe0	126.33 58.92 154.00 -94.72 -132.59 -62.05 -44.86 -106.08 25.35 -120.42 -70.42 -169.62 -167.59 
USER  
USER                              x       y       z    vdW   Elec        q     RMS 
ATOM      1  O   UNL d   1      47.372  52.868   5.791 -0.01 +0.04    -0.289    60.935
ATOM      2  O   UNL d   1      40.155  51.966   3.923 -0.41 -0.17    -0.289    60.935
ATOM      3  N   UNL d   1      46.119  49.902   4.555 -0.05 +0.10    -0.247    60.935
ATOM      4  N   UNL d   1      43.194  50.405   4.407 -0.07 +0.07    -0.247    60.935
ATOM      5  N   UNL d   1      42.820  47.577   4.043 +0.05 +0.07    -0.354    60.935
ATOM      6  N   UNL d   1      45.854  47.062   4.217 -0.13 +0.18    -0.354    60.935
ATOM      7  C   UNL d   1      48.279  50.622   5.462 -0.07 -0.03    +0.084    60.935
ATOM      8  C   UNL d   1      42.471  52.725   4.155 -0.10 -0.01    +0.084    60.935
ATOM      9  C   UNL d   1      43.605  51.718   4.373 -0.13 -0.01    +0.058    60.935
ATOM     10  C   UNL d   1      47.408  49.508   4.874 -0.15 -0.03    +0.058    60.935
ATOM     11  C   UNL d   1      47.260  51.720   5.402 -0.04 -0.04    +0.193    60.935
ATOM     12  C   UNL d   1      46.002  51.164   4.810 -0.10 -0.03    +0.109    60.935
ATOM     13  C   UNL d   1      41.335  51.741   4.109 -0.11 +0.00    +0.193    60.935
ATOM     14  C   UNL d   1      48.637  50.358   6.927 -0.14 -0.01    +0.026    60.935
ATOM     15  C   UNL d   1      44.880  52.092   4.565 -0.11 -0.01    +0.055    60.935
ATOM     16  C   UNL d   1      42.579  53.416   2.792 -0.02 +0.00    +0.026    60.935
ATOM     17  C   UNL d   1      41.907  50.372   4.281 -0.13 -0.02    +0.109    60.935
ATOM     18  C   UNL d   1      47.909  48.285   4.617 -0.14 -0.04    +0.050    60.935
ATOM     19  C   UNL d   1      47.204  47.221   3.999 -0.17 -0.03    +0.045    60.935
ATOM     20  C   UNL d   1      41.519  47.965   4.229 -0.25 -0.00    +0.045    60.935
ATOM     21  C   UNL d   1      41.018  49.201   4.322 -0.27 -0.00    +0.057    60.935
ATOM     22  C   UNL d   1      41.608  45.683   4.168 -0.28 -0.00    -0.019    60.935
ATOM     23  C   UNL d   1      42.973  46.217   3.993 -0.27 -0.00    +0.045    60.935
ATOM     24  C   UNL d   1      40.751  46.723   4.305 -0.26 -0.00    -0.022    60.935
ATOM     25  C   UNL d   1      45.396  45.922   3.598 -0.25 -0.01    +0.049    60.935
ATOM     26  C   UNL d   1      47.626  46.179   3.187 -0.14 +0.01    -0.018    60.935
ATOM     27  C   UNL d   1      46.476  45.373   2.922 -0.19 -0.00    +0.003    60.935
ATOM     28  C   UNL d   1      44.067  45.462   3.809 -0.21 -0.00    +0.052    60.935
ATOM     29  C   UNL d   1      39.272  46.695   4.493 -0.33 +0.01    +0.046    60.935
ATOM     30  C   UNL d   1      49.011  45.945   2.686 -0.07 -0.01    +0.046    60.935
ATOM     31  H   UNL d   1      43.554  48.258   3.881 -0.23 -0.06    +0.166    60.935
ATOM     32  H   UNL d   1      45.302  47.687   4.792 -0.45 -0.14    +0.166    60.935
ATOM     33  C   UNL d   1      49.518  50.991   4.639 -0.02 -0.03    +0.141    60.935
ATOM     34  C   UNL d   1      49.175  51.757   3.389 +0.00 -0.03    +0.306    60.935
ATOM     35  O   UNL d   1      48.742  51.285   2.351 -0.00 +0.02    -0.251    60.935
ATOM     36  O   UNL d   1      49.393  53.078   3.515 +0.00 +0.02    -0.481    60.935
ATOM     37  H   UNL d   1      48.861  53.343   4.295 +0.01 -0.02    +0.295    60.935
ATOM     38  C   UNL d   1      46.470  44.179   2.131 -0.15 +0.00    +0.017    60.935
ATOM     39  C   UNL d   1      47.352  43.175   2.239 -0.11 +0.00    +0.092    60.935
ATOM     40  C   UNL d   1      47.225  41.995   1.378 -0.06 +0.04    +0.330    60.935
ATOM     41  O   UNL d   1      46.316  41.187   1.355 -0.09 -0.04    -0.246    60.935
ATOM     42  O   UNL d   1      48.284  41.904   0.560 -0.00 -0.04    -0.477    60.935
ATOM     43  H   UNL d   1      47.891  41.926  -0.337 +0.02 +0.03    +0.295    60.935
ATOM     44  C   UNL d   1      42.268  53.745   5.279 -0.09 -0.02    +0.141    60.935
ATOM     45  C   UNL d   1      41.004  54.551   5.130 -0.08 +0.05    +0.306    60.935
ATOM     46  O   UNL d   1      40.879  55.601   4.524 -0.02 -0.04    -0.251    60.935
ATOM     47  O   UNL d   1      39.963  54.001   5.780 +0.01 -0.41    -0.481    60.935
ATOM     48  H   UNL d   1      40.168  53.042   5.809 -0.07 +0.30    +0.295    60.935
ATOM     49  C   UNL d   1      41.272  44.221   4.198 -0.28 +0.01    +0.048    60.935
ATOM     50  C   UNL d   1      40.875  43.758   5.600 -0.33 +0.03    +0.125    60.935
ATOM     51  C   UNL d   1      39.412  43.423   5.660 -0.28 +0.07    +0.305    60.935
ATOM     52  O   UNL d   1      38.539  44.014   6.271 -0.31 -0.08    -0.251    60.935
ATOM     53  O   UNL d   1      39.116  42.324   4.937 -0.11 -0.13    -0.481    60.935
ATOM     54  H   UNL d   1      39.301  41.581   5.548 +0.14 +0.05    +0.295    60.935
TER
ENDMDL
MODEL       48
USER    Run = 48
USER    Cluster Rank = 33
USER    Number of conformations in this cluster = 1
USER  
USER    RMSD from reference structure       = 51.668 A
USER  
USER    Estimated Free Energy of Binding    =   -3.50 kcal/mol  [=(1)+(2)+(3)-(4)]
USER    Estimated Inhibition Constant, Ki   =    2.72 mM (millimolar)  [Temperature = 298.15 K]
USER    
USER    (1) Final Intermolecular Energy     =   -7.38 kcal/mol
USER        vdW + Hbond + desolv Energy     =   -7.20 kcal/mol
USER        Electrostatic Energy            =   -0.18 kcal/mol
USER    (2) Final Total Internal Energy     =   -2.44 kcal/mol
USER    (3) Torsional Free Energy           =   +3.88 kcal/mol
USER    (4) Unbound System's Energy  [=(2)] =   -2.44 kcal/mol
USER    
USER    
USER  
USER    DPF = D:/Protein_go_brrr/autodock/final/2DN3/heme/dock.dpf
USER    NEWDPF move	heme_opt.pdbqt
USER    NEWDPF about	0.153000 0.018000 -0.028000
USER    NEWDPF tran0	18.091018 44.537318 27.266235
USER    NEWDPF axisangle0	-0.124161 -0.989108 -0.079048 172.364133
USER    NEWDPF quaternion0	-0.123886 -0.986913 -0.078873 0.066586
USER    NEWDPF dihe0	-133.24 -18.47 143.79 -25.47 43.56 -133.63 -39.60 -118.01 149.37 -124.30 -141.20 -91.06 152.52 
USER  
USER                              x       y       z    vdW   Elec        q     RMS 
ATOM      1  O   UNL d   1      23.973  44.813  27.551 -0.15 +0.12    -0.289    51.668
ATOM      2  O   UNL d   1      19.270  39.003  28.274 -0.66 -0.04    -0.289    51.668
ATOM      3  N   UNL d   1      20.544  45.160  27.440 -0.09 +0.03    -0.247    51.668
ATOM      4  N   UNL d   1      19.570  42.354  27.506 -0.11 +0.03    -0.247    51.668
ATOM      5  N   UNL d   1      16.981  43.331  26.725 -0.03 +0.03    -0.354    51.668
ATOM      6  N   UNL d   1      18.004  46.238  26.640 -0.06 +0.02    -0.354    51.668
ATOM      7  C   UNL d   1      22.446  46.662  27.075 -0.23 -0.03    +0.084    51.668
ATOM      8  C   UNL d   1      21.018  40.692  28.561 -0.21 -0.01    +0.084    51.668
ATOM      9  C   UNL d   1      20.803  42.130  28.077 -0.21 -0.01    +0.058    51.668
ATOM     10  C   UNL d   1      20.930  46.449  27.112 -0.19 -0.01    +0.058    51.668
ATOM     11  C   UNL d   1      22.848  45.269  27.459 -0.14 -0.07    +0.193    51.668
ATOM     12  C   UNL d   1      21.606  44.463  27.678 -0.15 -0.03    +0.109    51.668
ATOM     13  C   UNL d   1      19.694  40.132  28.124 -0.18 -0.01    +0.193    51.668
ATOM     14  C   UNL d   1      22.952  46.950  25.660 -0.40 -0.02    +0.026    51.668
ATOM     15  C   UNL d   1      21.754  43.074  28.157 -0.14 -0.01    +0.055    51.668
ATOM     16  C   UNL d   1      21.107  40.614  30.088 -0.11 -0.00    +0.026    51.668
ATOM     17  C   UNL d   1      18.913  41.239  27.493 -0.18 -0.01    +0.109    51.668
ATOM     18  C   UNL d   1      20.072  47.470  26.925 -0.18 -0.01    +0.050    51.668
ATOM     19  C   UNL d   1      18.660  47.386  27.023 -0.11 -0.00    +0.045    51.668
ATOM     20  C   UNL d   1      16.776  41.983  26.586 -0.16 -0.01    +0.045    51.668
ATOM     21  C   UNL d   1      17.582  40.973  26.928 -0.25 -0.01    +0.057    51.668
ATOM     22  C   UNL d   1      14.952  43.095  25.777 -0.11 +0.00    -0.019    51.668
ATOM     23  C   UNL d   1      15.934  44.084  26.264 -0.09 -0.00    +0.045    51.668
ATOM     24  C   UNL d   1      15.455  41.853  25.971 -0.19 +0.00    -0.022    51.668
ATOM     25  C   UNL d   1      16.642  46.406  26.732 -0.07 -0.00    +0.049    51.668
ATOM     26  C   UNL d   1      17.702  48.311  27.409 -0.04 +0.00    -0.018    51.668
ATOM     27  C   UNL d   1      16.431  47.680  27.241 -0.03 -0.00    +0.003    51.668
ATOM     28  C   UNL d   1      15.750  45.413  26.243 -0.08 -0.00    +0.052    51.668
ATOM     29  C   UNL d   1      14.835  40.535  25.654 -0.26 -0.02    +0.046    51.668
ATOM     30  C   UNL d   1      17.949  49.695  27.904 -0.02 -0.00    +0.046    51.668
ATOM     31  H   UNL d   1      17.801  43.692  27.200 +0.04 -0.01    +0.166    51.668
ATOM     32  H   UNL d   1      18.477  45.409  26.301 +0.06 -0.00    +0.166    51.668
ATOM     33  C   UNL d   1      22.992  47.677  28.086 -0.08 -0.03    +0.141    51.668
ATOM     34  C   UNL d   1      24.381  48.145  27.744 -0.07 -0.07    +0.306    51.668
ATOM     35  O   UNL d   1      24.670  49.175  27.159 -0.14 +0.04    -0.251    51.668
ATOM     36  O   UNL d   1      25.332  47.291  28.160 -0.01 +0.09    -0.481    51.668
ATOM     37  H   UNL d   1      24.993  46.404  27.913 +0.12 -0.08    +0.295    51.668
ATOM     38  C   UNL d   1      15.164  48.291  27.511 -0.01 -0.00    +0.017    51.668
ATOM     39  C   UNL d   1      14.147  48.380  26.641 -0.01 -0.01    +0.092    51.668
ATOM     40  C   UNL d   1      12.892  49.018  27.049 +0.00 -0.02    +0.330    51.668
ATOM     41  O   UNL d   1      11.758  48.628  26.842 +0.00 +0.01    -0.246    51.668
ATOM     42  O   UNL d   1      13.146  50.148  27.726 +0.00 +0.02    -0.477    51.668
ATOM     43  H   UNL d   1      12.301  50.641  27.686 +0.00 -0.01    +0.295    51.668
ATOM     44  C   UNL d   1      22.177  39.940  27.899 -0.32 -0.03    +0.141    51.668
ATOM     45  C   UNL d   1      22.254  38.492  28.304 -0.27 -0.06    +0.306    51.668
ATOM     46  O   UNL d   1      22.785  38.044  29.305 -0.25 +0.02    -0.251    51.668
ATOM     47  O   UNL d   1      21.677  37.675  27.404 -0.14 +0.13    -0.481    51.668
ATOM     48  H   UNL d   1      20.895  38.172  27.083 -0.27 -0.09    +0.295    51.668
ATOM     49  C   UNL d   1      13.632  43.453  25.159 -0.09 -0.01    +0.048    51.668
ATOM     50  C   UNL d   1      13.804  44.108  23.789 -0.11 -0.02    +0.125    51.668
ATOM     51  C   UNL d   1      14.901  43.440  23.009 -0.23 -0.08    +0.305    51.668
ATOM     52  O   UNL d   1      15.888  43.961  22.520 -0.31 +0.06    -0.251    51.668
ATOM     53  O   UNL d   1      14.688  42.117  22.871 +0.00 +0.20    -0.481    51.668
ATOM     54  H   UNL d   1      15.171  41.882  22.051 -0.27 -0.17    +0.295    51.668
TER
ENDMDL
MODEL       80
USER    Run = 80
USER    Cluster Rank = 34
USER    Number of conformations in this cluster = 1
USER  
USER    RMSD from reference structure       = 23.548 A
USER  
USER    Estimated Free Energy of Binding    =   -3.49 kcal/mol  [=(1)+(2)+(3)-(4)]
USER    Estimated Inhibition Constant, Ki   =    2.77 mM (millimolar)  [Temperature = 298.15 K]
USER    
USER    (1) Final Intermolecular Energy     =   -7.37 kcal/mol
USER        vdW + Hbond + desolv Energy     =   -6.87 kcal/mol
USER        Electrostatic Energy            =   -0.50 kcal/mol
USER    (2) Final Total Internal Energy     =   -2.59 kcal/mol
USER    (3) Torsional Free Energy           =   +3.88 kcal/mol
USER    (4) Unbound System's Energy  [=(2)] =   -2.59 kcal/mol
USER    
USER    
USER  
USER    DPF = D:/Protein_go_brrr/autodock/final/2DN3/heme/dock.dpf
USER    NEWDPF move	heme_opt.pdbqt
USER    NEWDPF about	0.153000 0.018000 -0.028000
USER    NEWDPF tran0	19.752024 20.035398 1.564805
USER    NEWDPF axisangle0	-0.515480 -0.749880 -0.414680 87.564704
USER    NEWDPF quaternion0	-0.356671 -0.518858 -0.286926 0.721973
USER    NEWDPF dihe0	102.90 62.07 95.74 108.78 -148.37 46.04 -42.16 103.74 17.56 -123.97 133.66 -110.50 -177.61 
USER  
USER                              x       y       z    vdW   Elec        q     RMS 
ATOM      1  O   UNL d   1      18.629  16.474   6.127 -0.06 -0.14    -0.289    23.548
ATOM      2  O   UNL d   1      17.671  15.479  -1.254 -0.05 +0.01    -0.289    23.548
ATOM      3  N   UNL d   1      19.315  18.932   3.806 +0.04 -0.04    -0.247    23.548
ATOM      4  N   UNL d   1      18.932  17.543   1.207 -0.27 -0.03    -0.247    23.548
ATOM      5  N   UNL d   1      20.247  19.760  -0.066 -0.11 -0.01    -0.354    23.548
ATOM      6  N   UNL d   1      20.658  21.185   2.637 -0.06 -0.06    -0.354    23.548
ATOM      7  C   UNL d   1      19.631  18.702   6.226 -0.10 +0.03    +0.084    23.548
ATOM      8  C   UNL d   1      17.408  15.633   1.175 -0.07 +0.01    +0.084    23.548
ATOM      9  C   UNL d   1      18.151  16.708   1.975 -0.08 +0.00    +0.058    23.548
ATOM     10  C   UNL d   1      19.790  19.542   4.955 -0.13 +0.01    +0.058    23.548
ATOM     11  C   UNL d   1      18.965  17.517   5.595 -0.06 +0.07    +0.193    23.548
ATOM     12  C   UNL d   1      18.806  17.788   4.131 -0.07 +0.02    +0.109    23.548
ATOM     13  C   UNL d   1      17.941  15.990  -0.184 -0.08 +0.00    +0.193    23.548
ATOM     14  C   UNL d   1      20.982  18.264   6.798 -0.07 +0.01    +0.026    23.548
ATOM     15  C   UNL d   1      18.085  16.792   3.313 -0.10 +0.01    +0.055    23.548
ATOM     16  C   UNL d   1      15.894  15.862   1.186 -0.13 +0.00    +0.026    23.548
ATOM     17  C   UNL d   1      18.858  17.158  -0.026 -0.12 +0.01    +0.109    23.548
ATOM     18  C   UNL d   1      20.271  20.798   4.998 -0.19 +0.01    +0.050    23.548
ATOM     19  C   UNL d   1      20.376  21.678   3.891 -0.18 +0.01    +0.045    23.548
ATOM     20  C   UNL d   1      20.190  18.884  -1.118 -0.14 -0.00    +0.045    23.548
ATOM     21  C   UNL d   1      19.566  17.704  -1.194 -0.19 -0.01    +0.057    23.548
ATOM     22  C   UNL d   1      21.439  20.695  -1.732 -0.09 +0.00    -0.019    23.548
ATOM     23  C   UNL d   1      20.980  20.884  -0.342 -0.15 +0.00    +0.045    23.548
ATOM     24  C   UNL d   1      20.967  19.510  -2.187 -0.11 +0.00    -0.022    23.548
ATOM     25  C   UNL d   1      20.803  22.214   1.735 -0.14 +0.01    +0.049    23.548
ATOM     26  C   UNL d   1      20.299  23.059   3.794 -0.24 -0.00    -0.018    23.548
ATOM     27  C   UNL d   1      20.550  23.390   2.427 -0.21 +0.00    +0.003    23.548
ATOM     28  C   UNL d   1      21.249  21.963   0.409 -0.15 +0.00    +0.052    23.548
ATOM     29  C   UNL d   1      21.151  18.886  -3.528 -0.13 -0.01    +0.046    23.548
ATOM     30  C   UNL d   1      20.009  24.014   4.902 -0.34 +0.01    +0.046    23.548
ATOM     31  H   UNL d   1      19.720  19.596   0.785 +0.05 +0.02    +0.166    23.548
ATOM     32  H   UNL d   1      20.779  20.199   2.436 +0.03 +0.02    +0.166    23.548
ATOM     33  C   UNL d   1      18.733  19.311   7.308 -0.25 +0.06    +0.141    23.548
ATOM     34  C   UNL d   1      17.298  19.428   6.871 -0.25 +0.19    +0.306    23.548
ATOM     35  O   UNL d   1      16.775  20.409   6.371 -0.23 -0.11    -0.251    23.548
ATOM     36  O   UNL d   1      16.597  18.300   7.086 -0.60 -0.69    -0.481    23.548
ATOM     37  H   UNL d   1      16.842  17.712   6.340 +0.11 +0.32    +0.295    23.548
ATOM     38  C   UNL d   1      20.581  24.718   1.892 -0.29 -0.00    +0.017    23.548
ATOM     39  C   UNL d   1      21.689  25.381   1.529 -0.23 -0.01    +0.092    23.548
ATOM     40  C   UNL d   1      21.583  26.734   0.976 -0.27 -0.13    +0.330    23.548
ATOM     41  O   UNL d   1      20.889  27.648   1.378 -0.48 +0.09    -0.246    23.548
ATOM     42  O   UNL d   1      22.393  26.864  -0.085 -0.18 +0.35    -0.477    23.548
ATOM     43  H   UNL d   1      23.022  27.565   0.184 -0.41 -0.49    +0.295    23.548
ATOM     44  C   UNL d   1      17.752  14.184   1.536 -0.01 +0.01    +0.141    23.548
ATOM     45  C   UNL d   1      17.112  13.175   0.621 +0.01 +0.02    +0.306    23.548
ATOM     46  O   UNL d   1      15.997  12.696   0.734 +0.00 -0.03    -0.251    23.548
ATOM     47  O   UNL d   1      17.927  12.799  -0.381 +0.01 -0.01    -0.481    23.548
ATOM     48  H   UNL d   1      17.798  13.480  -1.075 +0.03 -0.00    +0.295    23.548
ATOM     49  C   UNL d   1      22.300  21.674  -2.475 -0.11 -0.00    +0.048    23.548
ATOM     50  C   UNL d   1      23.772  21.259  -2.465 -0.02 -0.01    +0.125    23.548
ATOM     51  C   UNL d   1      24.199  20.833  -1.089 +0.01 -0.01    +0.305    23.548
ATOM     52  O   UNL d   1      24.274  19.698  -0.652 -0.00 +0.01    -0.251    23.548
ATOM     53  O   UNL d   1      24.508  21.888  -0.308 +0.01 +0.02    -0.481    23.548
ATOM     54  H   UNL d   1      25.355  22.217  -0.675 +0.01 -0.02    +0.295    23.548
TER
ENDMDL
MODEL       63
USER    Run = 63
USER    Cluster Rank = 35
USER    Number of conformations in this cluster = 1
USER  
USER    RMSD from reference structure       = 38.230 A
USER  
USER    Estimated Free Energy of Binding    =   -3.42 kcal/mol  [=(1)+(2)+(3)-(4)]
USER    Estimated Inhibition Constant, Ki   =    3.12 mM (millimolar)  [Temperature = 298.15 K]
USER    
USER    (1) Final Intermolecular Energy     =   -7.30 kcal/mol
USER        vdW + Hbond + desolv Energy     =   -7.12 kcal/mol
USER        Electrostatic Energy            =   -0.17 kcal/mol
USER    (2) Final Total Internal Energy     =   -3.31 kcal/mol
USER    (3) Torsional Free Energy           =   +3.88 kcal/mol
USER    (4) Unbound System's Energy  [=(2)] =   -3.31 kcal/mol
USER    
USER    
USER  
USER    DPF = D:/Protein_go_brrr/autodock/final/2DN3/heme/dock.dpf
USER    NEWDPF move	heme_opt.pdbqt
USER    NEWDPF about	0.153000 0.018000 -0.028000
USER    NEWDPF tran0	38.323520 16.330499 11.076687
USER    NEWDPF axisangle0	0.948632 0.270653 -0.163840 55.884468
USER    NEWDPF quaternion0	0.444511 0.126823 -0.076773 0.883420
USER    NEWDPF dihe0	152.08 -162.32 103.48 -157.02 -139.49 -69.37 -46.35 -6.28 19.22 -127.58 75.88 -30.35 151.93 
USER  
USER                              x       y       z    vdW   Elec        q     RMS 
ATOM      1  O   UNL d   1      32.731  16.435   9.214 -0.10 -0.01    -0.289    38.230
ATOM      2  O   UNL d   1      36.356  11.587  13.659 -0.02 -0.03    -0.289    38.230
ATOM      3  N   UNL d   1      36.094  16.712   9.930 -0.10 +0.02    -0.247    38.230
ATOM      4  N   UNL d   1      36.539  14.582  11.954 -0.04 -0.02    -0.247    38.230
ATOM      5  N   UNL d   1      39.084  15.789  12.528 -0.11 -0.03    -0.354    38.230
ATOM      6  N   UNL d   1      38.606  18.006  10.440 -0.16 -0.03    -0.354    38.230
ATOM      7  C   UNL d   1      34.460  18.095   8.736 -0.17 -0.01    +0.084    38.230
ATOM      8  C   UNL d   1      35.021  12.668  11.915 -0.06 +0.01    +0.084    38.230
ATOM      9  C   UNL d   1      35.405  14.051  11.380 -0.10 +0.00    +0.058    38.230
ATOM     10  C   UNL d   1      35.895  17.890   9.229 -0.20 -0.01    +0.058    38.230
ATOM     11  C   UNL d   1      33.886  16.815   9.265 -0.11 -0.01    +0.193    38.230
ATOM     12  C   UNL d   1      34.981  16.053   9.946 -0.12 -0.01    +0.109    38.230
ATOM     13  C   UNL d   1      36.124  12.528  12.925 -0.05 +0.02    +0.193    38.230
ATOM     14  C   UNL d   1      33.775  19.272   9.435 -0.39 -0.00    +0.026    38.230
ATOM     15  C   UNL d   1      34.670  14.707  10.469 -0.12 +0.00    +0.055    38.230
ATOM     16  C   UNL d   1      35.188  11.580  10.849 -0.02 +0.00    +0.026    38.230
ATOM     17  C   UNL d   1      36.970  13.758  12.854 -0.09 +0.01    +0.109    38.230
ATOM     18  C   UNL d   1      36.878  18.755   8.914 -0.19 -0.01    +0.050    38.230
ATOM     19  C   UNL d   1      38.246  18.604   9.254 -0.14 -0.00    +0.045    38.230
ATOM     20  C   UNL d   1      39.014  14.886  13.557 -0.15 +0.00    +0.045    38.230
ATOM     21  C   UNL d   1      38.111  13.922  13.766 -0.18 +0.01    +0.057    38.230
ATOM     22  C   UNL d   1      40.839  16.223  13.872 -0.19 -0.00    -0.019    38.230
ATOM     23  C   UNL d   1      40.153  16.639  12.632 -0.22 +0.00    +0.045    38.230
ATOM     24  C   UNL d   1      40.161  15.184  14.414 -0.17 -0.00    -0.022    38.230
ATOM     25  C   UNL d   1      39.971  18.046  10.608 -0.24 +0.00    +0.049    38.230
ATOM     26  C   UNL d   1      39.409  19.011   8.617 -0.28 -0.00    -0.018    38.230
ATOM     27  C   UNL d   1      40.496  18.638   9.467 -0.28 +0.00    +0.003    38.230
ATOM     28  C   UNL d   1      40.568  17.630  11.829 -0.28 +0.01    +0.052    38.230
ATOM     29  C   UNL d   1      40.467  14.416  15.655 -0.19 +0.01    +0.046    38.230
ATOM     30  C   UNL d   1      39.507  19.701   7.299 -0.31 -0.00    +0.046    38.230
ATOM     31  H   UNL d   1      38.439  15.747  11.747 +0.04 +0.02    +0.166    38.230
ATOM     32  H   UNL d   1      37.938  17.631  11.104 +0.05 +0.03    +0.166    38.230
ATOM     33  C   UNL d   1      34.293  18.170   7.214 -0.08 -0.03    +0.141    38.230
ATOM     34  C   UNL d   1      34.602  16.864   6.532 +0.00 -0.03    +0.306    38.230
ATOM     35  O   UNL d   1      35.704  16.474   6.188 -0.01 +0.02    -0.251    38.230
ATOM     36  O   UNL d   1      33.503  16.117   6.323 +0.01 +0.02    -0.481    38.230
ATOM     37  H   UNL d   1      32.902  16.350   7.062 +0.04 -0.01    +0.295    38.230
ATOM     38  C   UNL d   1      41.879  18.887   9.195 -0.32 +0.00    +0.017    38.230
ATOM     39  C   UNL d   1      42.906  18.435   9.930 -0.23 +0.01    +0.092    38.230
ATOM     40  C   UNL d   1      44.282  18.746   9.532 -0.10 +0.08    +0.330    38.230
ATOM     41  O   UNL d   1      44.900  18.302   8.584 -0.16 -0.10    -0.246    38.230
ATOM     42  O   UNL d   1      44.816  19.641  10.378 -0.18 -0.07    -0.477    38.230
ATOM     43  H   UNL d   1      44.232  19.599  11.163 +0.09 +0.04    +0.295    38.230
ATOM     44  C   UNL d   1      33.647  12.578  12.587 -0.06 +0.02    +0.141    38.230
ATOM     45  C   UNL d   1      33.349  11.214  13.151 -0.01 +0.04    +0.306    38.230
ATOM     46  O   UNL d   1      32.798  10.293  12.574 -0.00 -0.03    -0.251    38.230
ATOM     47  O   UNL d   1      33.740  11.091  14.433 +0.00 -0.06    -0.481    38.230
ATOM     48  H   UNL d   1      34.712  10.966  14.385 +0.02 +0.03    +0.295    38.230
ATOM     49  C   UNL d   1      42.073  16.883  14.414 -0.23 +0.01    +0.048    38.230
ATOM     50  C   UNL d   1      41.788  18.299  14.913 -0.33 +0.02    +0.125    38.230
ATOM     51  C   UNL d   1      42.279  19.324  13.929 -0.23 +0.06    +0.305    38.230
ATOM     52  O   UNL d   1      43.013  19.144  12.973 -0.16 -0.05    -0.251    38.230
ATOM     53  O   UNL d   1      41.817  20.558  14.213 -0.17 -0.09    -0.481    38.230
ATOM     54  H   UNL d   1      41.597  20.515  15.168 -0.34 -0.03    +0.295    38.230
TER
ENDMDL
MODEL       29
USER    Run = 29
USER    Cluster Rank = 36
USER    Number of conformations in this cluster = 1
USER  
USER    RMSD from reference structure       = 29.719 A
USER  
USER    Estimated Free Energy of Binding    =   -3.40 kcal/mol  [=(1)+(2)+(3)-(4)]
USER    Estimated Inhibition Constant, Ki   =    3.19 mM (millimolar)  [Temperature = 298.15 K]
USER    
USER    (1) Final Intermolecular Energy     =   -7.28 kcal/mol
USER        vdW + Hbond + desolv Energy     =   -7.24 kcal/mol
USER        Electrostatic Energy            =   -0.05 kcal/mol
USER    (2) Final Total Internal Energy     =   -3.68 kcal/mol
USER    (3) Torsional Free Energy           =   +3.88 kcal/mol
USER    (4) Unbound System's Energy  [=(2)] =   -3.68 kcal/mol
USER    
USER    
USER  
USER    DPF = D:/Protein_go_brrr/autodock/final/2DN3/heme/dock.dpf
USER    NEWDPF move	heme_opt.pdbqt
USER    NEWDPF about	0.153000 0.018000 -0.028000
USER    NEWDPF tran0	4.083154 23.207090 21.574734
USER    NEWDPF axisangle0	0.676171 -0.591329 0.439457 136.629227
USER    NEWDPF quaternion0	0.628317 -0.549478 0.408356 0.369510
USER    NEWDPF dihe0	-160.27 -140.39 105.67 -10.68 43.57 63.87 -46.78 -116.33 158.00 -125.86 40.39 -103.08 135.54 
USER  
USER                              x       y       z    vdW   Elec        q     RMS 
ATOM      1  O   UNL d   1       3.671  28.577  19.177 -0.26 +0.01    -0.289    29.719
ATOM      2  O   UNL d   1       4.349  26.415  26.336 -0.06 -0.02    -0.289    29.719
ATOM      3  N   UNL d   1       3.742  25.263  20.129 -0.05 -0.01    -0.247    29.719
ATOM      4  N   UNL d   1       4.330  25.400  23.038 -0.21 -0.03    -0.247    29.719
ATOM      5  N   UNL d   1       4.899  22.583  22.962 +0.07 +0.06    -0.354    29.719
ATOM      6  N   UNL d   1       4.306  22.453  19.940 +0.04 +0.02    -0.354    29.719
ATOM      7  C   UNL d   1       3.731  26.445  17.982 -0.23 +0.00    +0.084    29.719
ATOM      8  C   UNL d   1       3.664  27.434  24.218 -0.19 +0.00    +0.084    29.719
ATOM      9  C   UNL d   1       3.809  26.668  22.899 -0.22 -0.00    +0.058    29.719
ATOM     10  C   UNL d   1       3.763  25.121  18.751 -0.13 +0.00    +0.058    29.719
ATOM     11  C   UNL d   1       3.669  27.360  19.168 -0.22 -0.00    +0.193    29.719
ATOM     12  C   UNL d   1       3.656  26.522  20.410 -0.18 +0.00    +0.109    29.719
ATOM     13  C   UNL d   1       4.232  26.380  25.127 -0.12 +0.01    +0.193    29.719
ATOM     14  C   UNL d   1       5.037  26.702  17.226 -0.51 +0.00    +0.026    29.719
ATOM     15  C   UNL d   1       3.504  27.207  21.709 -0.26 -0.00    +0.055    29.719
ATOM     16  C   UNL d   1       2.193  27.658  24.585 -0.07 +0.00    +0.026    29.719
ATOM     17  C   UNL d   1       4.604  25.202  24.287 -0.19 +0.01    +0.109    29.719
ATOM     18  C   UNL d   1       3.722  23.936  18.114 -0.21 -0.00    +0.050    29.719
ATOM     19  C   UNL d   1       3.663  22.666  18.741 -0.13 -0.00    +0.045    29.719
ATOM     20  C   UNL d   1       5.344  22.879  24.224 -0.20 -0.00    +0.045    29.719
ATOM     21  C   UNL d   1       5.231  24.024  24.905 -0.23 +0.00    +0.057    29.719
ATOM     22  C   UNL d   1       5.901  20.719  23.733 -0.20 +0.00    -0.019    29.719
ATOM     23  C   UNL d   1       5.189  21.301  22.578 -0.17 -0.00    +0.045    29.719
ATOM     24  C   UNL d   1       5.989  21.658  24.705 -0.19 +0.00    -0.022    29.719
ATOM     25  C   UNL d   1       4.195  21.136  20.320 -0.12 -0.00    +0.049    29.719
ATOM     26  C   UNL d   1       3.089  21.466  18.351 -0.09 +0.00    -0.018    29.719
ATOM     27  C   UNL d   1       3.411  20.508  19.362 -0.07 +0.00    +0.003    29.719
ATOM     28  C   UNL d   1       4.909  20.639  21.445 -0.17 -0.00    +0.052    29.719
ATOM     29  C   UNL d   1       6.605  21.545  26.057 -0.14 -0.00    +0.046    29.719
ATOM     30  C   UNL d   1       2.288  21.222  17.118 -0.13 -0.00    +0.046    29.719
ATOM     31  H   UNL d   1       4.344  23.245  22.431 -0.21 -0.02    +0.166    29.719
ATOM     32  H   UNL d   1       4.819  23.172  20.436 -0.14 -0.03    +0.166    29.719
ATOM     33  C   UNL d   1       2.509  26.652  17.080 -0.14 -0.01    +0.141    29.719
ATOM     34  C   UNL d   1       2.786  27.589  15.936 -0.18 -0.02    +0.306    29.719
ATOM     35  O   UNL d   1       3.072  27.268  14.795 -0.31 +0.04    -0.251    29.719
ATOM     36  O   UNL d   1       2.684  28.883  16.289 -0.06 +0.03    -0.481    29.719
ATOM     37  H   UNL d   1       2.729  28.875  17.269 +0.13 -0.02    +0.295    29.719
ATOM     38  C   UNL d   1       3.025  19.130  19.345 -0.04 +0.00    +0.017    29.719
ATOM     39  C   UNL d   1       3.867  18.091  19.230 -0.04 +0.01    +0.092    29.719
ATOM     40  C   UNL d   1       3.343  16.722  19.244 +0.00 +0.04    +0.330    29.719
ATOM     41  O   UNL d   1       2.570  16.214  18.455 +0.00 -0.02    -0.246    29.719
ATOM     42  O   UNL d   1       3.850  16.045  20.285 +0.01 -0.07    -0.477    29.719
ATOM     43  H   UNL d   1       3.856  16.701  21.012 +0.02 +0.03    +0.295    29.719
ATOM     44  C   UNL d   1       4.465  28.735  24.318 -0.31 +0.00    +0.141    29.719
ATOM     45  C   UNL d   1       4.370  29.390  25.671 -0.16 +0.02    +0.306    29.719
ATOM     46  O   UNL d   1       3.551  30.222  26.019 -0.10 -0.02    -0.251    29.719
ATOM     47  O   UNL d   1       5.337  28.978  26.511 -0.09 -0.07    -0.481    29.719
ATOM     48  H   UNL d   1       5.061  28.077  26.783 +0.08 +0.04    +0.295    29.719
ATOM     49  C   UNL d   1       6.437  19.318  23.774 -0.20 +0.00    +0.048    29.719
ATOM     50  C   UNL d   1       7.316  19.010  22.562 -0.33 +0.01    +0.125    29.719
ATOM     51  C   UNL d   1       7.045  17.628  22.039 -0.18 +0.06    +0.305    29.719
ATOM     52  O   UNL d   1       7.841  16.716  21.902 -0.26 -0.08    -0.251    29.719
ATOM     53  O   UNL d   1       5.752  17.464  21.696 -0.00 -0.08    -0.481    29.719
ATOM     54  H   UNL d   1       5.740  16.612  21.211 +0.07 +0.07    +0.295    29.719
TER
ENDMDL
MODEL       28
USER    Run = 28
USER    Cluster Rank = 37
USER    Number of conformations in this cluster = 1
USER  
USER    RMSD from reference structure       = 41.143 A
USER  
USER    Estimated Free Energy of Binding    =   -3.40 kcal/mol  [=(1)+(2)+(3)-(4)]
USER    Estimated Inhibition Constant, Ki   =    3.24 mM (millimolar)  [Temperature = 298.15 K]
USER    
USER    (1) Final Intermolecular Energy     =   -7.27 kcal/mol
USER        vdW + Hbond + desolv Energy     =   -6.82 kcal/mol
USER        Electrostatic Energy            =   -0.46 kcal/mol
USER    (2) Final Total Internal Energy     =   -2.43 kcal/mol
USER    (3) Torsional Free Energy           =   +3.88 kcal/mol
USER    (4) Unbound System's Energy  [=(2)] =   -2.43 kcal/mol
USER    
USER    
USER  
USER    DPF = D:/Protein_go_brrr/autodock/final/2DN3/heme/dock.dpf
USER    NEWDPF move	heme_opt.pdbqt
USER    NEWDPF about	0.153000 0.018000 -0.028000
USER    NEWDPF tran0	41.778927 18.069523 6.884957
USER    NEWDPF axisangle0	0.909119 0.050941 0.413409 104.102525
USER    NEWDPF quaternion0	0.716896 0.040170 0.325999 0.614956
USER    NEWDPF dihe0	122.44 14.42 159.05 180.00 -132.42 -116.93 -45.48 -43.40 26.29 -132.21 -55.25 -93.57 -180.00 
USER  
USER                              x       y       z    vdW   Elec        q     RMS 
ATOM      1  O   UNL d   1      38.424  20.178   2.520 -0.05 +0.06    -0.289    41.143
ATOM      2  O   UNL d   1      36.813  18.713   9.707 -0.20 +0.03    -0.289    41.143
ATOM      3  N   UNL d   1      40.711  18.802   4.704 -0.05 -0.02    -0.247    41.143
ATOM      4  N   UNL d   1      39.295  18.881   7.315 -0.13 +0.01    -0.247    41.143
ATOM      5  N   UNL d   1      41.811  18.327   8.591 -0.09 -0.04    -0.354    41.143
ATOM      6  N   UNL d   1      43.276  18.267   5.880 -0.06 -0.15    -0.354    41.143
ATOM      7  C   UNL d   1      40.801  19.622   2.396 -0.03 +0.01    +0.084    41.143
ATOM      8  C   UNL d   1      36.852  18.853   7.263 -0.17 -0.02    +0.084    41.143
ATOM      9  C   UNL d   1      38.182  18.921   6.505 -0.17 -0.01    +0.058    41.143
ATOM     10  C   UNL d   1      41.521  19.007   3.600 -0.07 +0.01    +0.058    41.143
ATOM     11  C   UNL d   1      39.436  19.710   3.009 -0.02 -0.01    +0.193    41.143
ATOM     12  C   UNL d   1      39.506  19.160   4.400 -0.07 -0.01    +0.109    41.143
ATOM     13  C   UNL d   1      37.416  18.805   8.655 -0.06 -0.02    +0.193    41.143
ATOM     14  C   UNL d   1      41.299  21.036   2.089 -0.11 +0.00    +0.026    41.143
ATOM     15  C   UNL d   1      38.252  19.059   5.172 -0.14 -0.01    +0.055    41.143
ATOM     16  C   UNL d   1      36.108  17.543   6.988 -0.07 -0.00    +0.026    41.143
ATOM     17  C   UNL d   1      38.906  18.836   8.549 -0.21 -0.00    +0.109    41.143
ATOM     18  C   UNL d   1      42.810  18.626   3.528 -0.12 +0.02    +0.050    41.143
ATOM     19  C   UNL d   1      43.534  17.975   4.560 -0.13 +0.02    +0.045    41.143
ATOM     20  C   UNL d   1      41.050  18.625   9.692 -0.27 +0.00    +0.045    41.143
ATOM     21  C   UNL d   1      39.733  18.844   9.765 -0.19 +0.00    +0.057    41.143
ATOM     22  C   UNL d   1      43.226  18.384  10.343 -0.21 -0.00    -0.019    41.143
ATOM     23  C   UNL d   1      43.139  18.164   8.886 -0.17 +0.01    +0.045    41.143
ATOM     24  C   UNL d   1      41.986  18.655  10.815 -0.26 -0.00    -0.022    41.143
ATOM     25  C   UNL d   1      44.149  17.593   6.703 -0.12 +0.02    +0.049    41.143
ATOM     26  C   UNL d   1      44.576  17.061   4.525 -0.10 -0.01    -0.018    41.143
ATOM     27  C   UNL d   1      44.947  16.809   5.882 -0.10 +0.00    +0.003    41.143
ATOM     28  C   UNL d   1      44.181  17.853   8.100 -0.06 +0.02    +0.052    41.143
ATOM     29  C   UNL d   1      41.561  18.935  12.216 -0.35 +0.01    +0.046    41.143
ATOM     30  C   UNL d   1      45.189  16.456   3.308 -0.05 +0.02    +0.046    41.143
ATOM     31  H   UNL d   1      41.386  18.171   7.684 +0.05 +0.02    +0.166    41.143
ATOM     32  H   UNL d   1      42.564  18.922   6.180 +0.04 +0.06    +0.166    41.143
ATOM     33  C   UNL d   1      40.768  18.751   1.135 -0.00 +0.01    +0.141    41.143
ATOM     34  C   UNL d   1      39.805  17.601   1.250 +0.00 +0.02    +0.306    41.143
ATOM     35  O   UNL d   1      39.996  16.559   1.854 -0.00 -0.02    -0.251    41.143
ATOM     36  O   UNL d   1      38.649  17.826   0.601 +0.00 -0.00    -0.481    41.143
ATOM     37  H   UNL d   1      38.278  18.627   1.028 +0.01 -0.02    +0.295    41.143
ATOM     38  C   UNL d   1      45.998  15.932   6.300 -0.06 +0.01    +0.017    41.143
ATOM     39  C   UNL d   1      47.043  16.284   7.065 -0.06 +0.04    +0.092    41.143
ATOM     40  C   UNL d   1      48.045  15.283   7.439 +0.00 +0.10    +0.330    41.143
ATOM     41  O   UNL d   1      48.346  14.913   8.558 +0.00 -0.06    -0.246    41.143
ATOM     42  O   UNL d   1      48.627  14.780   6.339 +0.01 -0.13    -0.477    41.143
ATOM     43  H   UNL d   1      49.089  13.980   6.664 +0.00 +0.06    +0.295    41.143
ATOM     44  C   UNL d   1      35.929  20.063   7.086 -0.08 -0.08    +0.141    41.143
ATOM     45  C   UNL d   1      34.620  19.923   7.817 -0.19 -0.11    +0.306    41.143
ATOM     46  O   UNL d   1      33.593  19.431   7.381 -0.13 +0.08    -0.251    41.143
ATOM     47  O   UNL d   1      34.665  20.439   9.058 -0.58 +0.09    -0.481    41.143
ATOM     48  H   UNL d   1      35.619  20.450   9.287 -0.22 -0.10    +0.295    41.143
ATOM     49  C   UNL d   1      44.502  18.325  11.130 -0.20 +0.01    +0.048    41.143
ATOM     50  C   UNL d   1      45.105  19.713  11.342 -0.23 +0.03    +0.125    41.143
ATOM     51  C   UNL d   1      45.344  19.977  12.802 -0.22 +0.18    +0.305    41.143
ATOM     52  O   UNL d   1      44.560  19.825  13.722 -0.18 -0.14    -0.251    41.143
ATOM     53  O   UNL d   1      46.588  20.442  13.033 -0.71 -0.61    -0.481    41.143
ATOM     54  H   UNL d   1      47.001  20.470  12.145 -0.26 +0.18    +0.295    41.143
TER
ENDMDL
MODEL       82
USER    Run = 82
USER    Cluster Rank = 38
USER    Number of conformations in this cluster = 1
USER  
USER    RMSD from reference structure       = 61.605 A
USER  
USER    Estimated Free Energy of Binding    =   -3.32 kcal/mol  [=(1)+(2)+(3)-(4)]
USER    Estimated Inhibition Constant, Ki   =    3.67 mM (millimolar)  [Temperature = 298.15 K]
USER    
USER    (1) Final Intermolecular Energy     =   -7.20 kcal/mol
USER        vdW + Hbond + desolv Energy     =   -7.14 kcal/mol
USER        Electrostatic Energy            =   -0.06 kcal/mol
USER    (2) Final Total Internal Energy     =   -4.22 kcal/mol
USER    (3) Torsional Free Energy           =   +3.88 kcal/mol
USER    (4) Unbound System's Energy  [=(2)] =   -4.22 kcal/mol
USER    
USER    
USER  
USER    DPF = D:/Protein_go_brrr/autodock/final/2DN3/heme/dock.dpf
USER    NEWDPF move	heme_opt.pdbqt
USER    NEWDPF about	0.153000 0.018000 -0.028000
USER    NEWDPF tran0	34.773517 50.478232 23.803768
USER    NEWDPF axisangle0	0.035966 -0.714111 -0.699108 109.987735
USER    NEWDPF quaternion0	0.029459 -0.584921 -0.572633 0.573664
USER    NEWDPF dihe0	109.03 -172.72 -150.18 -7.02 179.71 -77.08 -78.17 -24.60 -20.75 -148.38 -62.02 -13.67 22.11 
USER  
USER                              x       y       z    vdW   Elec        q     RMS 
ATOM      1  O   UNL d   1      35.927  48.020  29.036 -0.08 -0.04    -0.289    61.605
ATOM      2  O   UNL d   1      38.022  46.054  22.098 -0.24 -0.05    -0.289    61.605
ATOM      3  N   UNL d   1      34.880  49.712  26.219 +0.08 +0.02    -0.247    61.605
ATOM      4  N   UNL d   1      36.431  48.426  24.035 -0.12 -0.02    -0.247    61.605
ATOM      5  N   UNL d   1      35.661  50.609  22.329 +0.01 -0.05    -0.354    61.605
ATOM      6  N   UNL d   1      34.070  51.945  24.606 -0.06 -0.04    -0.354    61.605
ATOM      7  C   UNL d   1      34.644  50.061  28.634 -0.07 +0.00    +0.084    61.605
ATOM      8  C   UNL d   1      37.162  46.121  24.389 -0.26 +0.00    +0.084    61.605
ATOM      9  C   UNL d   1      36.498  47.389  24.938 -0.25 +0.00    +0.058    61.605
ATOM     10  C   UNL d   1      34.363  50.535  27.205 -0.11 -0.00    +0.058    61.605
ATOM     11  C   UNL d   1      35.396  48.813  28.281 -0.08 +0.01    +0.193    61.605
ATOM     12  C   UNL d   1      35.450  48.700  26.789 -0.11 -0.00    +0.109    61.605
ATOM     13  C   UNL d   1      37.493  46.644  23.020 -0.15 +0.02    +0.193    61.605
ATOM     14  C   UNL d   1      35.583  51.011  29.380 -0.02 +0.00    +0.026    61.605
ATOM     15  C   UNL d   1      36.067  47.492  26.204 -0.22 +0.00    +0.055    61.605
ATOM     16  C   UNL d   1      36.160  44.971  24.248 -0.60 -0.00    +0.026    61.605
ATOM     17  C   UNL d   1      37.004  48.054  22.936 -0.21 +0.01    +0.109    61.605
ATOM     18  C   UNL d   1      33.597  51.615  26.960 -0.11 +0.00    +0.050    61.605
ATOM     19  C   UNL d   1      33.214  52.078  25.676 -0.14 +0.00    +0.045    61.605
ATOM     20  C   UNL d   1      36.595  50.003  21.529 -0.24 +0.01    +0.045    61.605
ATOM     21  C   UNL d   1      37.230  48.841  21.715 -0.27 +0.01    +0.057    61.605
ATOM     22  C   UNL d   1      35.955  51.969  20.558 -0.24 -0.00    -0.019    61.605
ATOM     23  C   UNL d   1      35.216  51.802  21.825 -0.21 +0.00    +0.045    61.605
ATOM     24  C   UNL d   1      36.769  50.900  20.388 -0.25 -0.00    -0.022    61.605
ATOM     25  C   UNL d   1      33.539  52.540  23.485 -0.16 +0.01    +0.049    61.605
ATOM     26  C   UNL d   1      32.082  52.744  25.230 -0.16 -0.00    -0.018    61.605
ATOM     27  C   UNL d   1      32.285  53.015  23.842 -0.18 +0.00    +0.003    61.605
ATOM     28  C   UNL d   1      34.306  52.669  22.295 -0.20 +0.01    +0.052    61.605
ATOM     29  C   UNL d   1      37.700  50.607  19.261 -0.14 +0.02    +0.046    61.605
ATOM     30  C   UNL d   1      30.884  53.104  26.042 -0.10 +0.02    +0.046    61.605
ATOM     31  H   UNL d   1      35.302  50.149  23.159 +0.08 +0.03    +0.166    61.605
ATOM     32  H   UNL d   1      34.980  51.503  24.668 +0.03 +0.01    +0.166    61.605
ATOM     33  C   UNL d   1      33.404  49.723  29.470 -0.07 +0.01    +0.141    61.605
ATOM     34  C   UNL d   1      32.235  49.296  28.625 -0.14 +0.00    +0.306    61.605
ATOM     35  O   UNL d   1      31.115  49.778  28.648 -0.12 -0.02    -0.251    61.605
ATOM     36  O   UNL d   1      32.539  48.285  27.792 -0.18 +0.05    -0.481    61.605
ATOM     37  H   UNL d   1      33.090  48.697  27.094 -0.43 -0.09    +0.295    61.605
ATOM     38  C   UNL d   1      31.361  53.705  22.993 -0.19 +0.00    +0.017    61.605
ATOM     39  C   UNL d   1      31.309  53.598  21.656 -0.19 +0.02    +0.092    61.605
ATOM     40  C   UNL d   1      30.300  54.347  20.903 +0.00 +0.08    +0.330    61.605
ATOM     41  O   UNL d   1      29.124  54.072  20.757 -0.12 -0.07    -0.246    61.605
ATOM     42  O   UNL d   1      30.849  55.446  20.363 -0.02 -0.08    -0.477    61.605
ATOM     43  H   UNL d   1      31.805  55.346  20.548 +0.06 +0.04    +0.295    61.605
ATOM     44  C   UNL d   1      38.427  45.667  25.124 -0.13 +0.01    +0.141    61.605
ATOM     45  C   UNL d   1      38.792  44.233  24.849 -0.11 +0.04    +0.306    61.605
ATOM     46  O   UNL d   1      38.924  43.345  25.674 -0.13 -0.04    -0.251    61.605
ATOM     47  O   UNL d   1      39.000  43.997  23.541 -0.17 -0.08    -0.481    61.605
ATOM     48  H   UNL d   1      39.319  44.852  23.182 +0.13 +0.05    +0.295    61.605
ATOM     49  C   UNL d   1      35.810  53.153  19.648 -0.22 +0.01    +0.048    61.605
ATOM     50  C   UNL d   1      34.383  53.291  19.117 -0.26 +0.02    +0.125    61.605
ATOM     51  C   UNL d   1      33.774  54.595  19.547 -0.11 +0.05    +0.305    61.605
ATOM     52  O   UNL d   1      34.000  55.220  20.569 -0.04 -0.03    -0.251    61.605
ATOM     53  O   UNL d   1      32.879  55.054  18.650 -0.06 -0.07    -0.481    61.605
ATOM     54  H   UNL d   1      32.472  55.827  19.094 +0.07 +0.04    +0.295    61.605
TER
ENDMDL
MODEL       75
USER    Run = 75
USER    Cluster Rank = 39
USER    Number of conformations in this cluster = 1
USER  
USER    RMSD from reference structure       = 41.181 A
USER  
USER    Estimated Free Energy of Binding    =   -3.28 kcal/mol  [=(1)+(2)+(3)-(4)]
USER    Estimated Inhibition Constant, Ki   =    3.92 mM (millimolar)  [Temperature = 298.15 K]
USER    
USER    (1) Final Intermolecular Energy     =   -7.16 kcal/mol
USER        vdW + Hbond + desolv Energy     =   -6.65 kcal/mol
USER        Electrostatic Energy            =   -0.51 kcal/mol
USER    (2) Final Total Internal Energy     =   -2.60 kcal/mol
USER    (3) Torsional Free Energy           =   +3.88 kcal/mol
USER    (4) Unbound System's Energy  [=(2)] =   -2.60 kcal/mol
USER    
USER    
USER  
USER    DPF = D:/Protein_go_brrr/autodock/final/2DN3/heme/dock.dpf
USER    NEWDPF move	heme_opt.pdbqt
USER    NEWDPF about	0.153000 0.018000 -0.028000
USER    NEWDPF tran0	24.974914 37.837857 -4.835150
USER    NEWDPF axisangle0	-0.300761 -0.944665 0.130960 153.216958
USER    NEWDPF quaternion0	-0.292584 -0.918980 0.127400 0.231604
USER    NEWDPF dihe0	179.81 -167.57 142.15 113.25 -152.05 -66.77 -22.18 30.62 15.48 143.39 62.74 -37.57 144.77 
USER  
USER                              x       y       z    vdW   Elec        q     RMS 
ATOM      1  O   UNL d   1      30.259  36.257  -2.752 -0.00 -0.05    -0.289    41.181
ATOM      2  O   UNL d   1      23.446  33.291  -1.670 -0.27 +0.07    -0.289    41.181
ATOM      3  N   UNL d   1      27.391  37.626  -4.092 -0.08 -0.02    -0.247    41.181
ATOM      4  N   UNL d   1      25.295  35.640  -3.394 -0.15 +0.01    -0.247    41.181
ATOM      5  N   UNL d   1      23.553  36.958  -5.263 -0.06 -0.01    -0.354    41.181
ATOM      6  N   UNL d   1      25.739  39.004  -5.996 -0.07 -0.04    -0.354    41.181
ATOM      7  C   UNL d   1      29.789  38.087  -4.303 -0.02 +0.01    +0.084    41.181
ATOM      8  C   UNL d   1      25.684  34.249  -1.422 -0.22 +0.00    +0.084    41.181
ATOM      9  C   UNL d   1      26.197  35.302  -2.411 -0.19 +0.00    +0.058    41.181
ATOM     10  C   UNL d   1      28.347  38.426  -4.695 -0.06 +0.01    +0.058    41.181
ATOM     11  C   UNL d   1      29.476  36.967  -3.357 -0.02 +0.02    +0.193    41.181
ATOM     12  C   UNL d   1      27.989  36.802  -3.296 -0.09 +0.01    +0.109    41.181
ATOM     13  C   UNL d   1      24.337  34.025  -2.049 -0.27 -0.03    +0.193    41.181
ATOM     14  C   UNL d   1      30.589  37.531  -5.483 -0.01 +0.00    +0.026    41.181
ATOM     15  C   UNL d   1      27.438  35.810  -2.350 -0.14 +0.01    +0.055    41.181
ATOM     16  C   UNL d   1      25.484  34.835  -0.022 -0.20 +0.00    +0.026    41.181
ATOM     17  C   UNL d   1      24.229  34.922  -3.239 -0.26 -0.01    +0.109    41.181
ATOM     18  C   UNL d   1      28.063  39.475  -5.489 -0.06 +0.01    +0.050    41.181
ATOM     19  C   UNL d   1      26.759  39.914  -5.836 -0.10 +0.01    +0.045    41.181
ATOM     20  C   UNL d   1      22.806  35.841  -4.993 -0.23 +0.00    +0.045    41.181
ATOM     21  C   UNL d   1      23.024  34.887  -4.082 -0.36 -0.01    +0.057    41.181
ATOM     22  C   UNL d   1      21.805  37.007  -6.683 -0.23 -0.00    -0.019    41.181
ATOM     23  C   UNL d   1      23.028  37.724  -6.269 -0.15 +0.01    +0.045    41.181
ATOM     24  C   UNL d   1      21.678  35.894  -5.922 -0.29 -0.00    -0.022    41.181
ATOM     25  C   UNL d   1      24.592  39.633  -6.419 -0.13 +0.01    +0.049    41.181
ATOM     26  C   UNL d   1      26.252  41.171  -6.126 -0.11 -0.00    -0.018    41.181
ATOM     27  C   UNL d   1      24.878  40.990  -6.475 -0.14 +0.00    +0.003    41.181
ATOM     28  C   UNL d   1      23.447  38.882  -6.802 -0.19 +0.01    +0.052    41.181
ATOM     29  C   UNL d   1      20.605  34.860  -5.954 -0.33 +0.01    +0.046    41.181
ATOM     30  C   UNL d   1      26.996  42.463  -6.082 -0.06 +0.01    +0.046    41.181
ATOM     31  H   UNL d   1      24.360  37.200  -4.699 +0.04 +0.00    +0.166    41.181
ATOM     32  H   UNL d   1      25.852  38.006  -5.856 +0.03 +0.01    +0.166    41.181
ATOM     33  C   UNL d   1      30.553  39.203  -3.581 -0.02 +0.02    +0.141    41.181
ATOM     34  C   UNL d   1      29.938  39.562  -2.255 -0.03 +0.05    +0.306    41.181
ATOM     35  O   UNL d   1      29.181  40.493  -2.041 -0.06 -0.05    -0.251    41.181
ATOM     36  O   UNL d   1      30.308  38.726  -1.269 +0.00 -0.08    -0.481    41.181
ATOM     37  H   UNL d   1      30.870  38.055  -1.712 +0.02 +0.05    +0.295    41.181
ATOM     38  C   UNL d   1      23.980  42.036  -6.861 -0.13 +0.00    +0.017    41.181
ATOM     39  C   UNL d   1      22.694  41.865  -7.204 -0.22 +0.02    +0.092    41.181
ATOM     40  C   UNL d   1      21.874  43.025  -7.564 -0.14 +0.07    +0.330    41.181
ATOM     41  O   UNL d   1      21.489  43.918  -6.833 -0.20 -0.03    -0.246    41.181
ATOM     42  O   UNL d   1      21.584  42.997  -8.874 -0.05 -0.12    -0.477    41.181
ATOM     43  H   UNL d   1      21.844  42.095  -9.153 +0.07 +0.09    +0.295    41.181
ATOM     44  C   UNL d   1      26.489  32.946  -1.369 -0.12 +0.01    +0.141    41.181
ATOM     45  C   UNL d   1      27.547  32.944  -0.298 -0.09 +0.18    +0.306    41.181
ATOM     46  O   UNL d   1      28.541  33.648  -0.258 -0.12 -0.19    -0.251    41.181
ATOM     47  O   UNL d   1      27.308  32.031   0.660 -0.37 -0.48    -0.481    41.181
ATOM     48  H   UNL d   1      26.336  32.057   0.791 -0.08 -0.04    +0.295    41.181
ATOM     49  C   UNL d   1      20.890  37.465  -7.781 -0.29 +0.02    +0.048    41.181
ATOM     50  C   UNL d   1      21.607  37.524  -9.130 -0.15 +0.06    +0.125    41.181
ATOM     51  C   UNL d   1      21.657  38.933  -9.649 -0.08 +0.18    +0.305    41.181
ATOM     52  O   UNL d   1      21.599  39.965  -9.005 -0.13 -0.13    -0.251    41.181
ATOM     53  O   UNL d   1      21.769  38.971 -10.992 -0.08 -0.28    -0.481    41.181
ATOM     54  H   UNL d   1      22.661  38.605 -11.168 +0.03 +0.11    +0.295    41.181
TER
ENDMDL
MODEL       51
USER    Run = 51
USER    Cluster Rank = 40
USER    Number of conformations in this cluster = 1
USER  
USER    RMSD from reference structure       = 45.062 A
USER  
USER    Estimated Free Energy of Binding    =   -3.24 kcal/mol  [=(1)+(2)+(3)-(4)]
USER    Estimated Inhibition Constant, Ki   =    4.20 mM (millimolar)  [Temperature = 298.15 K]
USER    
USER    (1) Final Intermolecular Energy     =   -7.12 kcal/mol
USER        vdW + Hbond + desolv Energy     =   -6.69 kcal/mol
USER        Electrostatic Energy            =   -0.43 kcal/mol
USER    (2) Final Total Internal Energy     =   -2.44 kcal/mol
USER    (3) Torsional Free Energy           =   +3.88 kcal/mol
USER    (4) Unbound System's Energy  [=(2)] =   -2.44 kcal/mol
USER    
USER    
USER  
USER    DPF = D:/Protein_go_brrr/autodock/final/2DN3/heme/dock.dpf
USER    NEWDPF move	heme_opt.pdbqt
USER    NEWDPF about	0.153000 0.018000 -0.028000
USER    NEWDPF tran0	43.466196 16.500588 16.703415
USER    NEWDPF axisangle0	0.798329 0.056112 0.599602 -163.455822
USER    NEWDPF quaternion0	0.790023 0.055528 0.593364 -0.143874
USER    NEWDPF dihe0	146.95 43.80 150.49 128.79 -139.09 -34.33 162.66 74.89 16.30 -7.19 -106.68 -79.71 163.81 
USER  
USER                              x       y       z    vdW   Elec        q     RMS 
ATOM      1  O   UNL d   1      42.319  13.337  11.863 -0.00 -0.04    -0.289    45.062
ATOM      2  O   UNL d   1      41.593  20.684  13.236 -0.24 -0.05    -0.289    45.062
ATOM      3  N   UNL d   1      42.998  14.739  14.940 -0.04 -0.04    -0.247    45.062
ATOM      4  N   UNL d   1      42.727  17.654  14.438 -0.11 -0.05    -0.247    45.062
ATOM      5  N   UNL d   1      44.014  18.116  16.967 -0.10 -0.12    -0.354    45.062
ATOM      6  N   UNL d   1      44.309  15.090  17.471 -0.03 -0.08    -0.354    45.062
ATOM      7  C   UNL d   1      43.254  12.505  13.963 -0.01 +0.01    +0.084    45.062
ATOM      8  C   UNL d   1      41.259  18.342  12.609 -0.28 +0.01    +0.084    45.062
ATOM      9  C   UNL d   1      41.949  17.218  13.389 -0.17 +0.01    +0.058    45.062
ATOM     10  C   UNL d   1      43.424  13.440  15.164 -0.04 +0.01    +0.058    45.062
ATOM     11  C   UNL d   1      42.639  13.501  13.026 -0.01 +0.02    +0.193    45.062
ATOM     12  C   UNL d   1      42.513  14.809  13.744 -0.04 +0.02    +0.109    45.062
ATOM     13  C   UNL d   1      41.819  19.499  13.386 -0.26 +0.03    +0.193    45.062
ATOM     14  C   UNL d   1      44.600  12.054  13.391 -0.00 +0.00    +0.026    45.062
ATOM     15  C   UNL d   1      41.844  15.925  13.044 -0.11 +0.01    +0.055    45.062
ATOM     16  C   UNL d   1      39.739  18.312  12.795 -0.33 +0.00    +0.026    45.062
ATOM     17  C   UNL d   1      42.698  18.948  14.461 -0.24 +0.02    +0.109    45.062
ATOM     18  C   UNL d   1      43.869  12.986  16.351 -0.05 +0.01    +0.050    45.062
ATOM     19  C   UNL d   1      43.979  13.755  17.537 -0.08 +0.01    +0.045    45.062
ATOM     20  C   UNL d   1      44.010  19.393  16.468 -0.25 +0.02    +0.045    45.062
ATOM     21  C   UNL d   1      43.423  19.858  15.361 -0.31 +0.02    +0.057    45.062
ATOM     22  C   UNL d   1      45.225  19.360  18.402 -0.21 -0.01    -0.019    45.062
ATOM     23  C   UNL d   1      44.722  17.998  18.133 -0.23 +0.02    +0.045    45.062
ATOM     24  C   UNL d   1      44.799  20.181  17.414 -0.23 -0.01    -0.022    45.062
ATOM     25  C   UNL d   1      44.450  15.615  18.735 -0.16 +0.01    +0.049    45.062
ATOM     26  C   UNL d   1      43.866  13.414  18.876 -0.10 -0.00    -0.018    45.062
ATOM     27  C   UNL d   1      44.145  14.597  19.627 -0.17 +0.00    +0.003    45.062
ATOM     28  C   UNL d   1      44.940  16.936  18.924 -0.24 +0.01    +0.052    45.062
ATOM     29  C   UNL d   1      45.037  21.644  17.249 -0.29 +0.04    +0.046    45.062
ATOM     30  C   UNL d   1      43.519  12.072  19.426 -0.07 +0.01    +0.046    45.062
ATOM     31  H   UNL d   1      43.468  17.380  16.532 +0.06 +0.05    +0.166    45.062
ATOM     32  H   UNL d   1      44.463  15.587  16.602 +0.03 +0.04    +0.166    45.062
ATOM     33  C   UNL d   1      42.309  11.319  14.182 -0.01 +0.02    +0.141    45.062
ATOM     34  C   UNL d   1      40.890  11.748  14.435 -0.01 +0.03    +0.306    45.062
ATOM     35  O   UNL d   1      40.415  12.071  15.511 -0.03 -0.03    -0.251    45.062
ATOM     36  O   UNL d   1      40.142  11.750  13.318 +0.00 -0.05    -0.481    45.062
ATOM     37  H   UNL d   1      40.757  12.038  12.610 +0.01 +0.03    +0.295    45.062
ATOM     38  C   UNL d   1      44.153  14.684  21.056 -0.24 +0.00    +0.017    45.062
ATOM     39  C   UNL d   1      45.073  15.333  21.787 -0.15 +0.02    +0.092    45.062
ATOM     40  C   UNL d   1      44.957  15.362  23.247 -0.06 +0.06    +0.330    45.062
ATOM     41  O   UNL d   1      43.940  15.431  23.911 -0.15 -0.04    -0.246    45.062
ATOM     42  O   UNL d   1      46.174  15.290  23.809 -0.01 -0.07    -0.477    45.062
ATOM     43  H   UNL d   1      46.057  14.650  24.541 +0.03 +0.03    +0.295    45.062
ATOM     44  C   UNL d   1      41.634  18.444  11.127 -0.23 +0.01    +0.141    45.062
ATOM     45  C   UNL d   1      43.112  18.611  10.898 -0.14 +0.04    +0.306    45.062
ATOM     46  O   UNL d   1      43.844  17.850  10.290 -0.10 -0.05    -0.251    45.062
ATOM     47  O   UNL d   1      43.600  19.724  11.475 -0.09 -0.04    -0.481    45.062
ATOM     48  H   UNL d   1      42.852  20.359  11.460 -0.29 -0.06    +0.295    45.062
ATOM     49  C   UNL d   1      46.078  19.725  19.581 -0.15 +0.02    +0.048    45.062
ATOM     50  C   UNL d   1      47.545  19.360  19.356 -0.08 +0.06    +0.125    45.062
ATOM     51  C   UNL d   1      48.194  20.314  18.393 -0.02 +0.30    +0.305    45.062
ATOM     52  O   UNL d   1      48.448  21.492  18.571 -0.15 -0.26    -0.251    45.062
ATOM     53  O   UNL d   1      48.485  19.722  17.217 -0.55 -0.68    -0.481    45.062
ATOM     54  H   UNL d   1      48.985  18.919  17.472 +0.03 +0.23    +0.295    45.062
TER
ENDMDL
MODEL       58
USER    Run = 58
USER    Cluster Rank = 41
USER    Number of conformations in this cluster = 1
USER  
USER    RMSD from reference structure       = 42.823 A
USER  
USER    Estimated Free Energy of Binding    =   -3.22 kcal/mol  [=(1)+(2)+(3)-(4)]
USER    Estimated Inhibition Constant, Ki   =    4.35 mM (millimolar)  [Temperature = 298.15 K]
USER    
USER    (1) Final Intermolecular Energy     =   -7.10 kcal/mol
USER        vdW + Hbond + desolv Energy     =   -6.78 kcal/mol
USER        Electrostatic Energy            =   -0.32 kcal/mol
USER    (2) Final Total Internal Energy     =   -3.46 kcal/mol
USER    (3) Torsional Free Energy           =   +3.88 kcal/mol
USER    (4) Unbound System's Energy  [=(2)] =   -3.46 kcal/mol
USER    
USER    
USER  
USER    DPF = D:/Protein_go_brrr/autodock/final/2DN3/heme/dock.dpf
USER    NEWDPF move	heme_opt.pdbqt
USER    NEWDPF about	0.153000 0.018000 -0.028000
USER    NEWDPF tran0	38.145767 13.818240 23.132963
USER    NEWDPF axisangle0	-0.285850 -0.645447 -0.708300 -173.356606
USER    NEWDPF quaternion0	-0.285369 -0.644362 -0.707110 -0.057942
USER    NEWDPF dihe0	-151.10 -179.27 -80.98 10.21 179.84 -133.61 156.26 49.97 0.15 -92.46 -58.03 34.33 16.47 
USER  
USER                              x       y       z    vdW   Elec        q     RMS 
ATOM      1  O   UNL d   1      43.778  12.551  21.937 -0.03 -0.03    -0.289    42.823
ATOM      2  O   UNL d   1      37.654  12.357  17.596 -0.05 -0.03    -0.289    42.823
ATOM      3  N   UNL d   1      40.620  13.260  23.129 -0.07 +0.04    -0.247    42.823
ATOM      4  N   UNL d   1      38.941  13.225  20.678 -0.06 -0.01    -0.247    42.823
ATOM      5  N   UNL d   1      36.852  14.481  22.203 -0.09 +0.05    -0.354    42.823
ATOM      6  N   UNL d   1      38.607  14.531  24.736 -0.06 +0.10    -0.354    42.823
ATOM      7  C   UNL d   1      42.884  13.368  24.061 -0.10 +0.00    +0.084    42.823
ATOM      8  C   UNL d   1      39.722  11.860  18.807 -0.09 +0.01    +0.084    42.823
ATOM      9  C   UNL d   1      39.970  12.443  20.203 -0.07 +0.00    +0.058    42.823
ATOM     10  C   UNL d   1      41.379  13.580  24.243 -0.14 -0.00    +0.058    42.823
ATOM     11  C   UNL d   1      42.841  12.855  22.653 -0.08 +0.01    +0.193    42.823
ATOM     12  C   UNL d   1      41.411  12.811  22.210 -0.12 -0.00    +0.109    42.823
ATOM     13  C   UNL d   1      38.378  12.487  18.563 -0.07 +0.02    +0.193    42.823
ATOM     14  C   UNL d   1      43.657  14.690  24.082 -0.18 +0.00    +0.026    42.823
ATOM     15  C   UNL d   1      41.113  12.247  20.878 -0.14 +0.00    +0.055    42.823
ATOM     16  C   UNL d   1      39.554  10.338  18.849 -0.04 +0.00    +0.026    42.823
ATOM     17  C   UNL d   1      38.022  13.295  19.769 -0.08 +0.01    +0.109    42.823
ATOM     18  C   UNL d   1      40.860  13.959  25.426 -0.15 -0.00    +0.050    42.823
ATOM     19  C   UNL d   1      39.478  14.098  25.711 -0.13 -0.01    +0.045    42.823
ATOM     20  C   UNL d   1      36.321  14.588  20.943 -0.21 +0.00    +0.045    42.823
ATOM     21  C   UNL d   1      36.770  14.065  19.798 -0.20 +0.01    +0.057    42.823
ATOM     22  C   UNL d   1      35.000  15.748  22.402 -0.25 +0.00    -0.019    42.823
ATOM     23  C   UNL d   1      36.124  15.149  23.150 -0.24 -0.01    +0.045    42.823
ATOM     24  C   UNL d   1      35.122  15.411  21.096 -0.23 -0.00    -0.022    42.823
ATOM     25  C   UNL d   1      37.340  14.681  25.251 -0.20 -0.01    +0.049    42.823
ATOM     26  C   UNL d   1      38.751  13.927  26.879 -0.07 +0.00    -0.018    42.823
ATOM     27  C   UNL d   1      37.399  14.277  26.577 -0.13 -0.00    +0.003    42.823
ATOM     28  C   UNL d   1      36.303  15.266  24.475 -0.27 -0.02    +0.052    42.823
ATOM     29  C   UNL d   1      34.231  15.765  19.954 -0.31 +0.01    +0.046    42.823
ATOM     30  C   UNL d   1      39.277  13.464  28.195 -0.03 -0.00    +0.046    42.823
ATOM     31  H   UNL d   1      37.656  13.891  22.386 -0.11 -0.03    +0.166    42.823
ATOM     32  H   UNL d   1      38.890  14.744  23.787 -0.39 -0.10    +0.166    42.823
ATOM     33  C   UNL d   1      43.519  12.331  24.993 -0.02 +0.01    +0.141    42.823
ATOM     34  C   UNL d   1      42.740  11.044  25.043 -0.00 +0.01    +0.306    42.823
ATOM     35  O   UNL d   1      42.322  10.494  26.048 -0.00 -0.01    -0.251    42.823
ATOM     36  O   UNL d   1      42.526  10.520  23.824 +0.00 -0.02    -0.481    42.823
ATOM     37  H   UNL d   1      43.268  10.856  23.277 +0.02 +0.02    +0.295    42.823
ATOM     38  C   UNL d   1      36.313  14.257  27.511 -0.11 -0.01    +0.017    42.823
ATOM     39  C   UNL d   1      35.305  13.372  27.507 -0.05 -0.03    +0.092    42.823
ATOM     40  C   UNL d   1      34.261  13.449  28.532 -0.02 -0.15    +0.330    42.823
ATOM     41  O   UNL d   1      33.775  12.534  29.169 -0.01 +0.06    -0.246    42.823
ATOM     42  O   UNL d   1      33.882  14.725  28.709 +0.13 +0.58    -0.477    42.823
ATOM     43  H   UNL d   1      34.431  15.224  28.070 -0.44 -0.65    +0.295    42.823
ATOM     44  C   UNL d   1      40.727  12.278  17.729 -0.07 +0.02    +0.141    42.823
ATOM     45  C   UNL d   1      40.093  12.507  16.383 -0.06 +0.04    +0.306    42.823
ATOM     46  O   UNL d   1      39.982  13.574  15.804 -0.12 -0.03    -0.251    42.823
ATOM     47  O   UNL d   1      39.604  11.376  15.845 +0.00 -0.05    -0.481    42.823
ATOM     48  H   UNL d   1      38.646  11.396  16.054 +0.03 +0.03    +0.295    42.823
ATOM     49  C   UNL d   1      33.931  16.598  23.024 -0.35 +0.00    +0.048    42.823
ATOM     50  C   UNL d   1      33.049  15.794  23.978 -0.18 -0.00    +0.125    42.823
ATOM     51  C   UNL d   1      33.058  16.397  25.354 -0.18 -0.14    +0.305    42.823
ATOM     52  O   UNL d   1      32.972  17.576  25.649 -0.67 +0.11    -0.251    42.823
ATOM     53  O   UNL d   1      33.192  15.461  26.315 -0.06 +0.39    -0.481    42.823
ATOM     54  H   UNL d   1      33.023  15.949  27.148 -0.26 -0.51    +0.295    42.823
TER
ENDMDL
MODEL       98
USER    Run = 98
USER    Cluster Rank = 42
USER    Number of conformations in this cluster = 1
USER  
USER    RMSD from reference structure       = 22.486 A
USER  
USER    Estimated Free Energy of Binding    =   -3.18 kcal/mol  [=(1)+(2)+(3)-(4)]
USER    Estimated Inhibition Constant, Ki   =    4.64 mM (millimolar)  [Temperature = 298.15 K]
USER    
USER    (1) Final Intermolecular Energy     =   -7.06 kcal/mol
USER        vdW + Hbond + desolv Energy     =   -7.09 kcal/mol
USER        Electrostatic Energy            =   +0.03 kcal/mol
USER    (2) Final Total Internal Energy     =   -2.46 kcal/mol
USER    (3) Torsional Free Energy           =   +3.88 kcal/mol
USER    (4) Unbound System's Energy  [=(2)] =   -2.46 kcal/mol
USER    
USER    
USER  
USER    DPF = D:/Protein_go_brrr/autodock/final/2DN3/heme/dock.dpf
USER    NEWDPF move	heme_opt.pdbqt
USER    NEWDPF about	0.153000 0.018000 -0.028000
USER    NEWDPF tran0	2.171804 20.519528 14.457588
USER    NEWDPF axisangle0	0.156101 -0.692739 0.704092 -63.497003
USER    NEWDPF quaternion0	0.082139 -0.364513 0.370487 -0.850366
USER    NEWDPF dihe0	-70.16 -95.76 -95.10 82.63 33.37 164.73 123.84 167.62 105.73 -35.25 52.61 12.14 162.92 
USER  
USER                              x       y       z    vdW   Elec        q     RMS 
ATOM      1  O   UNL d   1      -1.935  18.257  10.884 -0.07 +0.02    -0.289    22.486
ATOM      2  O   UNL d   1       5.177  16.201  12.143 -0.39 +0.11    -0.289    22.486
ATOM      3  N   UNL d   1       0.165  19.993  12.999 -0.15 +0.08    -0.247    22.486
ATOM      4  N   UNL d   1       2.601  18.294  13.088 -0.06 +0.08    -0.247    22.486
ATOM      5  N   UNL d   1       3.480  19.834  15.352 -0.03 +0.08    -0.354    22.486
ATOM      6  N   UNL d   1       0.940  21.579  15.264 -0.07 +0.06    -0.354    22.486
ATOM      7  C   UNL d   1      -2.213  20.138  12.421 -0.08 -0.01    +0.084    22.486
ATOM      8  C   UNL d   1       3.034  16.859  11.158 -0.28 -0.00    +0.084    22.486
ATOM      9  C   UNL d   1       2.107  17.839  11.886 -0.17 -0.01    +0.058    22.486
ATOM     10  C   UNL d   1      -1.025  20.662  13.233 -0.15 -0.01    +0.058    22.486
ATOM     11  C   UNL d   1      -1.480  19.065  11.673 -0.09 -0.02    +0.193    22.486
ATOM     12  C   UNL d   1      -0.043  19.095  12.092 -0.17 -0.03    +0.109    22.486
ATOM     13  C   UNL d   1       4.128  16.814  12.188 -0.27 -0.03    +0.193    22.486
ATOM     14  C   UNL d   1      -3.274  19.485  13.311 -0.02 -0.00    +0.026    22.486
ATOM     15  C   UNL d   1       0.898  18.180  11.414 -0.09 -0.01    +0.055    22.486
ATOM     16  C   UNL d   1       3.597  17.462   9.868 -0.29 +0.00    +0.026    22.486
ATOM     17  C   UNL d   1       3.740  17.721  13.310 -0.24 -0.02    +0.109    22.486
ATOM     18  C   UNL d   1      -1.139  21.742  14.029 -0.12 -0.01    +0.050    22.486
ATOM     19  C   UNL d   1      -0.079  22.348  14.750 -0.04 -0.01    +0.045    22.486
ATOM     20  C   UNL d   1       4.405  18.823  15.381 -0.25 -0.00    +0.045    22.486
ATOM     21  C   UNL d   1       4.607  17.846  14.491 -0.33 -0.01    +0.057    22.486
ATOM     22  C   UNL d   1       4.664  20.115  17.247 -0.19 -0.00    -0.019    22.486
ATOM     23  C   UNL d   1       3.558  20.665  16.437 -0.21 -0.00    +0.045    22.486
ATOM     24  C   UNL d   1       5.162  19.026  16.616 -0.22 -0.00    -0.022    22.486
ATOM     25  C   UNL d   1       1.807  22.354  16.000 -0.09 -0.00    +0.049    22.486
ATOM     26  C   UNL d   1       0.151  23.661  15.130 +0.01 +0.00    -0.018    22.486
ATOM     27  C   UNL d   1       1.353  23.662  15.902 -0.05 -0.00    +0.003    22.486
ATOM     28  C   UNL d   1       2.852  21.760  16.758 -0.21 -0.00    +0.052    22.486
ATOM     29  C   UNL d   1       6.287  18.140  17.031 -0.03 +0.02    +0.046    22.486
ATOM     30  C   UNL d   1      -0.692  24.845  14.795 -0.08 -0.00    +0.046    22.486
ATOM     31  H   UNL d   1       2.871  19.967  14.551 -0.23 -0.09    +0.166    22.486
ATOM     32  H   UNL d   1       1.002  20.575  15.141 -0.04 -0.04    +0.166    22.486
ATOM     33  C   UNL d   1      -2.837  21.142  11.446 -0.08 -0.02    +0.141    22.486
ATOM     34  C   UNL d   1      -3.510  20.474  10.278 -0.04 -0.02    +0.306    22.486
ATOM     35  O   UNL d   1      -4.664  20.082  10.239 -0.01 +0.01    -0.251    22.486
ATOM     36  O   UNL d   1      -2.693  20.336   9.219 -0.59 +0.00    -0.481    22.486
ATOM     37  H   UNL d   1      -2.486  19.377   9.190 +0.03 +0.01    +0.295    22.486
ATOM     38  C   UNL d   1       1.946  24.818  16.505 -0.18 -0.00    +0.017    22.486
ATOM     39  C   UNL d   1       3.239  25.164  16.409 -0.29 -0.01    +0.092    22.486
ATOM     40  C   UNL d   1       3.717  26.386  17.062 -0.17 -0.01    +0.330    22.486
ATOM     41  O   UNL d   1       4.866  26.690  17.320 -0.33 -0.00    -0.246    22.486
ATOM     42  O   UNL d   1       2.682  27.188  17.356 -0.01 +0.02    -0.477    22.486
ATOM     43  H   UNL d   1       2.356  26.846  18.213 +0.10 -0.01    +0.295    22.486
ATOM     44  C   UNL d   1       2.455  15.462  10.911 -0.11 -0.01    +0.141    22.486
ATOM     45  C   UNL d   1       2.630  14.531  12.081 -0.02 -0.03    +0.306    22.486
ATOM     46  O   UNL d   1       1.947  14.497  13.091 -0.01 +0.02    -0.251    22.486
ATOM     47  O   UNL d   1       3.680  13.704  11.929 -0.02 +0.06    -0.481    22.486
ATOM     48  H   UNL d   1       4.452  14.226  12.234 +0.08 -0.08    +0.295    22.486
ATOM     49  C   UNL d   1       5.116  20.691  18.557 -0.20 +0.00    +0.048    22.486
ATOM     50  C   UNL d   1       4.203  20.272  19.708 -0.09 +0.00    +0.125    22.486
ATOM     51  C   UNL d   1       3.712  21.471  20.468 -0.06 -0.01    +0.305    22.486
ATOM     52  O   UNL d   1       2.754  21.535  21.217 -0.03 +0.00    -0.251    22.486
ATOM     53  O   UNL d   1       4.466  22.563  20.228 +0.01 +0.04    -0.481    22.486
ATOM     54  H   UNL d   1       5.084  22.596  20.988 -0.33 -0.08    +0.295    22.486
TER
ENDMDL
MODEL       38
USER    Run = 38
USER    Cluster Rank = 43
USER    Number of conformations in this cluster = 1
USER  
USER    RMSD from reference structure       = 53.042 A
USER  
USER    Estimated Free Energy of Binding    =   -3.08 kcal/mol  [=(1)+(2)+(3)-(4)]
USER    Estimated Inhibition Constant, Ki   =    5.48 mM (millimolar)  [Temperature = 298.15 K]
USER    
USER    (1) Final Intermolecular Energy     =   -6.96 kcal/mol
USER        vdW + Hbond + desolv Energy     =   -6.83 kcal/mol
USER        Electrostatic Energy            =   -0.14 kcal/mol
USER    (2) Final Total Internal Energy     =   -3.87 kcal/mol
USER    (3) Torsional Free Energy           =   +3.88 kcal/mol
USER    (4) Unbound System's Energy  [=(2)] =   -3.87 kcal/mol
USER    
USER    
USER  
USER    DPF = D:/Protein_go_brrr/autodock/final/2DN3/heme/dock.dpf
USER    NEWDPF move	heme_opt.pdbqt
USER    NEWDPF about	0.153000 0.018000 -0.028000
USER    NEWDPF tran0	22.188562 52.929306 0.872148
USER    NEWDPF axisangle0	-0.050195 -0.904562 -0.423376 -59.204870
USER    NEWDPF quaternion0	-0.024795 -0.446835 -0.209139 -0.869474
USER    NEWDPF dihe0	144.53 112.39 -109.71 33.05 -137.51 37.54 122.70 179.44 17.99 -22.73 -77.78 -30.36 -33.75 
USER  
USER                              x       y       z    vdW   Elec        q     RMS 
ATOM      1  O   UNL d   1      19.464  56.534  -2.915 -0.05 +0.02    -0.289    53.042
ATOM      2  O   UNL d   1      20.166  49.057  -2.863 -0.12 +0.08    -0.289    53.042
ATOM      3  N   UNL d   1      21.294  54.846  -0.528 +0.06 +0.06    -0.247    53.042
ATOM      4  N   UNL d   1      20.745  51.990  -1.139 -0.12 +0.05    -0.247    53.042
ATOM      5  N   UNL d   1      21.879  51.321   1.417 -0.08 +0.04    -0.354    53.042
ATOM      6  N   UNL d   1      22.427  54.287   2.051 -0.08 +0.05    -0.354    53.042
ATOM      7  C   UNL d   1      20.622  57.179  -0.861 -0.09 -0.01    +0.084    53.042
ATOM      8  C   UNL d   1      20.142  51.436  -3.441 -0.08 -0.01    +0.084    53.042
ATOM      9  C   UNL d   1      20.452  52.501  -2.384 -0.13 -0.01    +0.058    53.042
ATOM     10  C   UNL d   1      21.352  56.131  -0.016 -0.12 -0.01    +0.058    53.042
ATOM     11  C   UNL d   1      20.157  56.262  -1.952 -0.07 -0.01    +0.193    53.042
ATOM     12  C   UNL d   1      20.650  54.880  -1.649 -0.10 -0.01    +0.109    53.042
ATOM     13  C   UNL d   1      20.277  50.229  -2.557 -0.12 -0.04    +0.193    53.042
ATOM     14  C   UNL d   1      19.398  57.749  -0.139 -0.16 -0.00    +0.026    53.042
ATOM     15  C   UNL d   1      20.391  53.817  -2.640 -0.12 -0.00    +0.055    53.042
ATOM     16  C   UNL d   1      21.224  51.377  -4.523 -0.03 -0.00    +0.026    53.042
ATOM     17  C   UNL d   1      20.637  50.701  -1.186 -0.20 -0.02    +0.109    53.042
ATOM     18  C   UNL d   1      22.056  56.476   1.078 -0.11 -0.00    +0.050    53.042
ATOM     19  C   UNL d   1      22.830  55.591   1.872 -0.10 -0.00    +0.045    53.042
ATOM     20  C   UNL d   1      21.349  50.106   1.068 -0.26 -0.00    +0.045    53.042
ATOM     21  C   UNL d   1      20.794  49.734  -0.090 -0.27 -0.00    +0.057    53.042
ATOM     22  C   UNL d   1      22.118  49.988   3.216 -0.28 -0.00    -0.019    53.042
ATOM     23  C   UNL d   1      22.367  51.347   2.696 -0.20 -0.00    +0.045    53.042
ATOM     24  C   UNL d   1      21.516  49.257   2.248 -0.34 -0.00    -0.022    53.042
ATOM     25  C   UNL d   1      23.269  53.637   2.923 -0.12 -0.00    +0.049    53.042
ATOM     26  C   UNL d   1      23.983  55.783   2.617 -0.04 +0.00    -0.018    53.042
ATOM     27  C   UNL d   1      24.267  54.541   3.263 -0.05 +0.00    +0.003    53.042
ATOM     28  C   UNL d   1      22.969  52.327   3.386 -0.18 +0.00    +0.052    53.042
ATOM     29  C   UNL d   1      21.078  47.833   2.290 -0.42 +0.00    +0.046    53.042
ATOM     30  C   UNL d   1      24.775  57.042   2.723 -0.02 +0.00    +0.046    53.042
ATOM     31  H   UNL d   1      21.956  52.074   0.741 +0.01 -0.03    +0.166    53.042
ATOM     32  H   UNL d   1      21.598  53.893   1.623 -0.46 -0.06    +0.166    53.042
ATOM     33  C   UNL d   1      21.505  58.292  -1.434 -0.02 -0.01    +0.141    53.042
ATOM     34  C   UNL d   1      22.501  57.781  -2.440 -0.00 -0.01    +0.306    53.042
ATOM     35  O   UNL d   1      23.586  57.284  -2.191 -0.00 +0.00    -0.251    53.042
ATOM     36  O   UNL d   1      22.075  57.921  -3.708 +0.00 +0.01    -0.481    53.042
ATOM     37  H   UNL d   1      21.115  57.726  -3.669 +0.01 -0.01    +0.295    53.042
ATOM     38  C   UNL d   1      25.368  54.302   4.146 -0.04 +0.00    +0.017    53.042
ATOM     39  C   UNL d   1      25.706  53.109   4.659 -0.05 +0.00    +0.092    53.042
ATOM     40  C   UNL d   1      26.871  52.997   5.541 -0.06 +0.01    +0.330    53.042
ATOM     41  O   UNL d   1      27.267  53.807   6.357 -0.03 -0.02    -0.246    53.042
ATOM     42  O   UNL d   1      27.488  51.822   5.342 -0.25 +0.04    -0.477    53.042
ATOM     43  H   UNL d   1      26.847  51.161   5.676 +0.13 -0.07    +0.295    53.042
ATOM     44  C   UNL d   1      18.742  51.508  -4.061 -0.10 -0.02    +0.141    53.042
ATOM     45  C   UNL d   1      17.652  51.067  -3.121 -0.20 -0.07    +0.306    53.042
ATOM     46  O   UNL d   1      17.166  51.721  -2.215 -0.23 +0.06    -0.251    53.042
ATOM     47  O   UNL d   1      17.249  49.806  -3.357 -0.05 +0.18    -0.481    53.042
ATOM     48  H   UNL d   1      18.007  49.247  -3.081 -0.38 -0.22    +0.295    53.042
ATOM     49  C   UNL d   1      22.473  49.538   4.603 -0.31 +0.01    +0.048    53.042
ATOM     50  C   UNL d   1      23.506  48.412   4.588 -0.30 +0.03    +0.125    53.042
ATOM     51  C   UNL d   1      24.871  48.931   4.941 -0.14 +0.10    +0.305    53.042
ATOM     52  O   UNL d   1      25.887  48.284   5.130 -0.49 -0.18    -0.251    53.042
ATOM     53  O   UNL d   1      24.887  50.274   5.053 +0.02 -0.04    -0.481    53.042
ATOM     54  H   UNL d   1      25.784  50.528   4.750 +0.11 +0.01    +0.295    53.042
TER
ENDMDL
MODEL       18
USER    Run = 18
USER    Cluster Rank = 44
USER    Number of conformations in this cluster = 1
USER  
USER    RMSD from reference structure       = 45.201 A
USER  
USER    Estimated Free Energy of Binding    =   -2.97 kcal/mol  [=(1)+(2)+(3)-(4)]
USER    Estimated Inhibition Constant, Ki   =    6.69 mM (millimolar)  [Temperature = 298.15 K]
USER    
USER    (1) Final Intermolecular Energy     =   -6.84 kcal/mol
USER        vdW + Hbond + desolv Energy     =   -6.77 kcal/mol
USER        Electrostatic Energy            =   -0.07 kcal/mol
USER    (2) Final Total Internal Energy     =   -3.97 kcal/mol
USER    (3) Torsional Free Energy           =   +3.88 kcal/mol
USER    (4) Unbound System's Energy  [=(2)] =   -3.97 kcal/mol
USER    
USER    
USER  
USER    DPF = D:/Protein_go_brrr/autodock/final/2DN3/heme/dock.dpf
USER    NEWDPF move	heme_opt.pdbqt
USER    NEWDPF about	0.153000 0.018000 -0.028000
USER    NEWDPF tran0	40.522340 29.971141 -1.200301
USER    NEWDPF axisangle0	-0.142642 -0.005672 -0.989758 127.761794
USER    NEWDPF quaternion0	-0.128076 -0.005093 -0.888685 0.440239
USER    NEWDPF dihe0	-173.91 -160.52 119.63 -64.61 -158.08 89.59 131.21 -109.65 8.84 -163.69 -96.34 -103.15 2.14 
USER  
USER                              x       y       z    vdW   Elec        q     RMS 
ATOM      1  O   UNL d   1      42.605  24.472  -1.620 -0.10 -0.05    -0.289    45.201
ATOM      2  O   UNL d   1      45.481  31.020  -3.911 -0.03 -0.01    -0.289    45.201
ATOM      3  N   UNL d   1      40.936  27.470  -1.271 -0.12 -0.03    -0.247    45.201
ATOM      4  N   UNL d   1      42.940  29.475  -2.159 -0.13 -0.02    -0.247    45.201
ATOM      5  N   UNL d   1      41.270  31.516  -1.013 -0.10 -0.01    -0.354    45.201
ATOM      6  N   UNL d   1      39.205  29.427  -0.078 -0.14 -0.03    -0.354    45.201
ATOM      7  C   UNL d   1      40.527  25.167  -0.538 -0.18 +0.01    +0.084    45.201
ATOM      8  C   UNL d   1      44.653  28.723  -3.732 -0.13 +0.00    +0.084    45.201
ATOM      9  C   UNL d   1      43.468  28.388  -2.820 -0.18 +0.00    +0.058    45.201
ATOM     10  C   UNL d   1      40.079  26.631  -0.577 -0.19 +0.01    +0.058    45.201
ATOM     11  C   UNL d   1      41.778  25.323  -1.348 -0.12 +0.03    +0.193    45.201
ATOM     12  C   UNL d   1      41.902  26.759  -1.755 -0.15 +0.02    +0.109    45.201
ATOM     13  C   UNL d   1      44.724  30.195  -3.437 -0.08 +0.01    +0.193    45.201
ATOM     14  C   UNL d   1      40.905  24.720   0.877 -0.30 +0.00    +0.026    45.201
ATOM     15  C   UNL d   1      43.019  27.136  -2.644 -0.20 +0.01    +0.055    45.201
ATOM     16  C   UNL d   1      44.303  28.534  -5.211 -0.05 +0.00    +0.026    45.201
ATOM     17  C   UNL d   1      43.638  30.522  -2.465 -0.16 +0.00    +0.109    45.201
ATOM     18  C   UNL d   1      38.903  27.022  -0.052 -0.21 +0.01    +0.050    45.201
ATOM     19  C   UNL d   1      38.369  28.334  -0.115 -0.19 +0.01    +0.045    45.201
ATOM     20  C   UNL d   1      42.391  32.256  -1.288 -0.22 +0.00    +0.045    45.201
ATOM     21  C   UNL d   1      43.490  31.894  -1.957 -0.20 +0.00    +0.057    45.201
ATOM     22  C   UNL d   1      40.925  33.547  -0.104 -0.28 -0.00    -0.019    45.201
ATOM     23  C   UNL d   1      40.329  32.211  -0.302 -0.19 +0.00    +0.045    45.201
ATOM     24  C   UNL d   1      42.145  33.568  -0.691 -0.13 -0.00    -0.022    45.201
ATOM     25  C   UNL d   1      38.476  30.593  -0.059 -0.23 +0.00    +0.049    45.201
ATOM     26  C   UNL d   1      37.065  28.802  -0.158 -0.13 -0.00    -0.018    45.201
ATOM     27  C   UNL d   1      37.139  30.229  -0.142 -0.16 +0.00    +0.003    45.201
ATOM     28  C   UNL d   1      39.113  31.848   0.135 -0.27 +0.00    +0.052    45.201
ATOM     29  C   UNL d   1      43.123  34.690  -0.771 -0.16 +0.01    +0.046    45.201
ATOM     30  C   UNL d   1      35.824  27.976  -0.212 -0.12 +0.00    +0.046    45.201
ATOM     31  H   UNL d   1      41.153  30.580  -1.387 +0.05 +0.01    +0.166    45.201
ATOM     32  H   UNL d   1      40.215  29.358  -0.030 +0.05 +0.01    +0.166    45.201
ATOM     33  C   UNL d   1      39.574  24.171  -1.207 -0.07 +0.01    +0.141    45.201
ATOM     34  C   UNL d   1      39.296  24.512  -2.646 -0.02 +0.02    +0.306    45.201
ATOM     35  O   UNL d   1      38.277  25.018  -3.083 -0.01 -0.01    -0.251    45.201
ATOM     36  O   UNL d   1      40.320  24.198  -3.460 +0.00 -0.04    -0.481    45.201
ATOM     37  H   UNL d   1      40.976  23.762  -2.875 +0.03 +0.03    +0.295    45.201
ATOM     38  C   UNL d   1      36.014  31.114  -0.160 -0.11 +0.00    +0.017    45.201
ATOM     39  C   UNL d   1      35.652  31.927   0.844 -0.14 +0.02    +0.092    45.201
ATOM     40  C   UNL d   1      34.485  32.800   0.693 -0.02 +0.09    +0.330    45.201
ATOM     41  O   UNL d   1      33.322  32.536   0.935 -0.08 -0.14    -0.246    45.201
ATOM     42  O   UNL d   1      34.864  34.003   0.237 +0.01 -0.09    -0.477    45.201
ATOM     43  H   UNL d   1      35.748  33.838  -0.153 +0.06 +0.04    +0.295    45.201
ATOM     44  C   UNL d   1      45.973  28.029  -3.381 -0.13 +0.01    +0.141    45.201
ATOM     45  C   UNL d   1      46.815  27.708  -4.587 -0.11 +0.04    +0.306    45.201
ATOM     46  O   UNL d   1      47.625  28.444  -5.124 -0.05 -0.03    -0.251    45.201
ATOM     47  O   UNL d   1      46.571  26.478  -5.073 -0.05 -0.07    -0.481    45.201
ATOM     48  H   UNL d   1      46.805  25.870  -4.340 -0.49 +0.05    +0.295    45.201
ATOM     49  C   UNL d   1      40.260  34.664   0.646 -0.39 +0.01    +0.048    45.201
ATOM     50  C   UNL d   1      39.242  35.404  -0.221 -0.12 +0.02    +0.125    45.201
ATOM     51  C   UNL d   1      37.914  34.703  -0.206 -0.11 +0.04    +0.305    45.201
ATOM     52  O   UNL d   1      37.340  34.177  -1.143 -0.04 -0.03    -0.251    45.201
ATOM     53  O   UNL d   1      37.354  34.711   1.020 -0.12 -0.03    -0.481    45.201
ATOM     54  H   UNL d   1      36.545  35.253   0.909 -0.03 +0.00    +0.295    45.201
TER
ENDMDL
MODEL       30
USER    Run = 30
USER    Cluster Rank = 45
USER    Number of conformations in this cluster = 1
USER  
USER    RMSD from reference structure       = 44.124 A
USER  
USER    Estimated Free Energy of Binding    =   -2.95 kcal/mol  [=(1)+(2)+(3)-(4)]
USER    Estimated Inhibition Constant, Ki   =    6.90 mM (millimolar)  [Temperature = 298.15 K]
USER    
USER    (1) Final Intermolecular Energy     =   -6.83 kcal/mol
USER        vdW + Hbond + desolv Energy     =   -6.31 kcal/mol
USER        Electrostatic Energy            =   -0.51 kcal/mol
USER    (2) Final Total Internal Energy     =   -2.92 kcal/mol
USER    (3) Torsional Free Energy           =   +3.88 kcal/mol
USER    (4) Unbound System's Energy  [=(2)] =   -2.92 kcal/mol
USER    
USER    
USER  
USER    DPF = D:/Protein_go_brrr/autodock/final/2DN3/heme/dock.dpf
USER    NEWDPF move	heme_opt.pdbqt
USER    NEWDPF about	0.153000 0.018000 -0.028000
USER    NEWDPF tran0	45.147294 17.674101 7.621229
USER    NEWDPF axisangle0	-0.844900 -0.348711 0.405640 66.258812
USER    NEWDPF quaternion0	-0.461765 -0.190582 0.221695 0.837438
USER    NEWDPF dihe0	178.50 -144.05 113.08 -126.24 -144.60 -45.38 -46.76 -80.91 -126.86 -141.24 -160.38 17.83 -4.32 
USER  
USER                              x       y       z    vdW   Elec        q     RMS 
ATOM      1  O   UNL d   1      41.494  19.017  12.049 -0.22 -0.03    -0.289    44.124
ATOM      2  O   UNL d   1      40.111  17.245   4.884 -0.01 -0.02    -0.289    44.124
ATOM      3  N   UNL d   1      44.000  18.431   9.753 -0.14 -0.05    -0.247    44.124
ATOM      4  N   UNL d   1      42.518  17.527   7.341 -0.07 -0.05    -0.247    44.124
ATOM      5  N   UNL d   1      45.024  16.632   6.251 -0.04 -0.15    -0.354    44.124
ATOM      6  N   UNL d   1      46.550  17.555   8.765 -0.05 -0.15    -0.354    44.124
ATOM      7  C   UNL d   1      43.929  18.838  12.169 -0.19 +0.02    +0.084    44.124
ATOM      8  C   UNL d   1      40.211  18.293   7.094 -0.13 +0.00    +0.084    44.124
ATOM      9  C   UNL d   1      41.485  18.211   7.941 -0.17 +0.01    +0.058    44.124
ATOM     10  C   UNL d   1      44.752  18.555  10.909 -0.20 +0.01    +0.058    44.124
ATOM     11  C   UNL d   1      42.579  18.871  11.517 -0.18 +0.02    +0.193    44.124
ATOM     12  C   UNL d   1      42.758  18.636  10.049 -0.20 +0.01    +0.109    44.124
ATOM     13  C   UNL d   1      40.701  17.497   5.917 -0.03 +0.02    +0.193    44.124
ATOM     14  C   UNL d   1      43.973  17.671  13.158 -0.11 +0.01    +0.026    44.124
ATOM     15  C   UNL d   1      41.565  18.717   9.182 -0.30 +0.00    +0.055    44.124
ATOM     16  C   UNL d   1      39.926  19.726   6.635 -0.25 -0.00    +0.026    44.124
ATOM     17  C   UNL d   1      42.110  17.085   6.195 -0.05 +0.02    +0.109    44.124
ATOM     18  C   UNL d   1      46.098  18.525  10.940 -0.19 +0.01    +0.050    44.124
ATOM     19  C   UNL d   1      46.943  18.355   9.814 -0.16 +0.02    +0.045    44.124
ATOM     20  C   UNL d   1      44.160  16.080   5.340 -0.04 +0.01    +0.045    44.124
ATOM     21  C   UNL d   1      42.839  16.251   5.228 -0.03 +0.01    +0.057    44.124
ATOM     22  C   UNL d   1      46.272  15.326   4.906 -0.02 -0.01    -0.019    44.124
ATOM     23  C   UNL d   1      46.321  16.234   6.069 -0.06 +0.02    +0.045    44.124
ATOM     24  C   UNL d   1      44.990  15.240   4.478 -0.01 -0.01    -0.022    44.124
ATOM     25  C   UNL d   1      47.553  17.459   7.828 -0.11 +0.03    +0.049    44.124
ATOM     26  C   UNL d   1      48.219  18.820   9.535 -0.19 -0.01    -0.018    44.124
ATOM     27  C   UNL d   1      48.591  18.267   8.271 -0.13 +0.00    +0.003    44.124
ATOM     28  C   UNL d   1      47.442  16.563   6.731 -0.07 +0.03    +0.052    44.124
ATOM     29  C   UNL d   1      44.439  14.460   3.334 -0.00 +0.01    +0.046    44.124
ATOM     30  C   UNL d   1      49.043  19.725  10.387 -0.21 +0.02    +0.046    44.124
ATOM     31  H   UNL d   1      44.708  17.322   6.924 +0.03 +0.08    +0.166    44.124
ATOM     32  H   UNL d   1      45.657  17.078   8.728 +0.03 +0.06    +0.166    44.124
ATOM     33  C   UNL d   1      44.225  20.173  12.861 -0.31 +0.06    +0.141    44.124
ATOM     34  C   UNL d   1      45.472  20.126  13.702 -0.18 +0.29    +0.306    44.124
ATOM     35  O   UNL d   1      45.533  19.826  14.882 -0.15 -0.27    -0.251    44.124
ATOM     36  O   UNL d   1      46.576  20.456  13.010 -0.70 -0.60    -0.481    44.124
ATOM     37  H   UNL d   1      46.262  20.582  12.089 -0.29 +0.12    +0.295    44.124
ATOM     38  C   UNL d   1      49.845  18.481   7.613 -0.11 +0.01    +0.017    44.124
ATOM     39  C   UNL d   1      49.994  18.943   6.362 -0.06 +0.06    +0.092    44.124
ATOM     40  C   UNL d   1      51.338  19.136   5.810 -0.01 +0.17    +0.330    44.124
ATOM     41  O   UNL d   1      52.285  19.688   6.336 -0.01 -0.10    -0.246    44.124
ATOM     42  O   UNL d   1      51.416  18.592   4.586 +0.00 -0.23    -0.477    44.124
ATOM     43  H   UNL d   1      50.532  18.759   4.198 +0.03 +0.20    +0.295    44.124
ATOM     44  C   UNL d   1      38.964  17.650   7.711 -0.09 +0.00    +0.141    44.124
ATOM     45  C   UNL d   1      37.697  17.981   6.969 -0.05 -0.03    +0.306    44.124
ATOM     46  O   UNL d   1      36.951  18.919   7.188 -0.14 +0.06    -0.251    44.124
ATOM     47  O   UNL d   1      37.418  17.089   6.002 +0.02 +0.03    -0.481    44.124
ATOM     48  H   UNL d   1      38.124  17.220   5.333 +0.03 -0.02    +0.295    44.124
ATOM     49  C   UNL d   1      47.468  14.622   4.335 -0.00 +0.01    +0.048    44.124
ATOM     50  C   UNL d   1      48.185  15.476   3.290 -0.01 +0.04    +0.125    44.124
ATOM     51  C   UNL d   1      47.837  16.928   3.452 -0.04 +0.20    +0.305    44.124
ATOM     52  O   UNL d   1      46.891  17.524   2.968 -0.15 -0.20    -0.251    44.124
ATOM     53  O   UNL d   1      48.729  17.577   4.228 -0.63 -0.45    -0.481    44.124
ATOM     54  H   UNL d   1      49.594  17.378   3.813 +0.02 +0.18    +0.295    44.124
TER
ENDMDL
MODEL       14
USER    Run = 14
USER    Cluster Rank = 46
USER    Number of conformations in this cluster = 2
USER  
USER    RMSD from reference structure       = 47.306 A
USER  
USER    Estimated Free Energy of Binding    =   -2.92 kcal/mol  [=(1)+(2)+(3)-(4)]
USER    Estimated Inhibition Constant, Ki   =    7.26 mM (millimolar)  [Temperature = 298.15 K]
USER    
USER    (1) Final Intermolecular Energy     =   -6.80 kcal/mol
USER        vdW + Hbond + desolv Energy     =   -6.63 kcal/mol
USER        Electrostatic Energy            =   -0.17 kcal/mol
USER    (2) Final Total Internal Energy     =   -4.65 kcal/mol
USER    (3) Torsional Free Energy           =   +3.88 kcal/mol
USER    (4) Unbound System's Energy  [=(2)] =   -4.65 kcal/mol
USER    
USER    
USER  
USER    DPF = D:/Protein_go_brrr/autodock/final/2DN3/heme/dock.dpf
USER    NEWDPF move	heme_opt.pdbqt
USER    NEWDPF about	0.153000 0.018000 -0.028000
USER    NEWDPF tran0	14.578225 48.482220 -9.033723
USER    NEWDPF axisangle0	0.187397 -0.765513 0.615525 -81.793935
USER    NEWDPF quaternion0	0.122689 -0.501182 0.402985 -0.755888
USER    NEWDPF dihe0	133.44 149.94 97.64 -52.87 -134.26 77.01 -40.91 -8.09 21.43 -114.97 -70.44 -112.83 16.33 
USER  
USER                              x       y       z    vdW   Elec        q     RMS 
ATOM      1  O   UNL d   1      11.945  46.462 -13.906 -0.03 +0.09    -0.289    47.306
ATOM      2  O   UNL d   1      18.707  44.995 -10.989 -0.06 -0.03    -0.289    47.306
ATOM      3  N   UNL d   1      13.127  48.010 -11.060 -0.07 +0.07    -0.247    47.306
ATOM      4  N   UNL d   1      15.686  46.595 -10.526 -0.07 +0.07    -0.247    47.306
ATOM      5  N   UNL d   1      15.695  47.794  -7.912 -0.07 +0.05    -0.354    47.306
ATOM      6  N   UNL d   1      13.031  49.242  -8.468 +0.03 +0.04    -0.354    47.306
ATOM      7  C   UNL d   1      10.991  47.998 -12.261 -0.08 -0.02    +0.084    47.306
ATOM      8  C   UNL d   1      16.823  45.582 -12.436 -0.05 -0.01    +0.084    47.306
ATOM      9  C   UNL d   1      15.600  46.311 -11.870 -0.10 -0.02    +0.058    47.306
ATOM     10  C   UNL d   1      11.830  48.495 -11.080 -0.10 -0.01    +0.058    47.306
ATOM     11  C   UNL d   1      12.049  47.160 -12.914 -0.06 -0.07    +0.193    47.306
ATOM     12  C   UNL d   1      13.305  47.270 -12.106 -0.09 -0.05    +0.109    47.306
ATOM     13  C   UNL d   1      17.602  45.473 -11.157 -0.07 -0.01    +0.193    47.306
ATOM     14  C   UNL d   1       9.847  47.086 -11.809 -0.13 -0.01    +0.026    47.306
ATOM     15  C   UNL d   1      14.519  46.598 -12.612 -0.10 -0.02    +0.055    47.306
ATOM     16  C   UNL d   1      17.605  46.462 -13.416 -0.02 -0.00    +0.026    47.306
ATOM     17  C   UNL d   1      16.801  46.118 -10.074 -0.14 -0.02    +0.109    47.306
ATOM     18  C   UNL d   1      11.348  49.397 -10.205 -0.14 -0.01    +0.050    47.306
ATOM     19  C   UNL d   1      12.077  49.976  -9.135 -0.13 -0.01    +0.045    47.306
ATOM     20  C   UNL d   1      16.724  46.900  -7.765 -0.24 -0.01    +0.045    47.306
ATOM     21  C   UNL d   1      17.299  46.124  -8.690 -0.25 -0.00    +0.057    47.306
ATOM     22  C   UNL d   1      16.285  47.859  -5.739 -0.30 +0.00    -0.019    47.306
ATOM     23  C   UNL d   1      15.359  48.422  -6.743 -0.22 -0.01    +0.045    47.306
ATOM     24  C   UNL d   1      17.091  46.960  -6.351 -0.30 +0.00    -0.022    47.306
ATOM     25  C   UNL d   1      13.546  49.963  -7.415 -0.18 -0.01    +0.049    47.306
ATOM     26  C   UNL d   1      11.996  51.218  -8.524 -0.11 +0.00    -0.018    47.306
ATOM     27  C   UNL d   1      12.940  51.211  -7.451 -0.14 -0.00    +0.003    47.306
ATOM     28  C   UNL d   1      14.434  49.359  -6.484 -0.26 -0.01    +0.052    47.306
ATOM     29  C   UNL d   1      18.190  46.141  -5.764 -0.34 -0.00    +0.046    47.306
ATOM     30  C   UNL d   1      11.100  52.344  -8.913 -0.06 -0.00    +0.046    47.306
ATOM     31  H   UNL d   1      15.304  48.001  -8.825 +0.04 -0.02    +0.166    47.306
ATOM     32  H   UNL d   1      13.276  48.289  -8.709 +0.09 -0.01    +0.166    47.306
ATOM     33  C   UNL d   1      10.498  49.086 -13.221 -0.02 -0.01    +0.141    47.306
ATOM     34  C   UNL d   1      11.614  49.706 -14.017 -0.00 -0.02    +0.306    47.306
ATOM     35  O   UNL d   1      12.384  50.568 -13.628 -0.00 +0.01    -0.251    47.306
ATOM     36  O   UNL d   1      11.703  49.205 -15.261 +0.00 +0.02    -0.481    47.306
ATOM     37  H   UNL d   1      11.687  48.232 -15.137 +0.01 -0.02    +0.295    47.306
ATOM     38  C   UNL d   1      13.170  52.297  -6.548 -0.14 -0.00    +0.017    47.306
ATOM     39  C   UNL d   1      12.731  52.358  -5.282 -0.06 -0.02    +0.092    47.306
ATOM     40  C   UNL d   1      13.051  53.523  -4.453 -0.11 -0.09    +0.330    47.306
ATOM     41  O   UNL d   1      12.562  54.635  -4.513 -0.14 +0.05    -0.246    47.306
ATOM     42  O   UNL d   1      13.999  53.206  -3.557 -0.38 +0.16    -0.477    47.306
ATOM     43  H   UNL d   1      13.847  52.255  -3.382 -0.18 -0.09    +0.295    47.306
ATOM     44  C   UNL d   1      16.549  44.197 -13.032 -0.06 -0.01    +0.141    47.306
ATOM     45  C   UNL d   1      17.797  43.380 -13.234 -0.05 +0.06    +0.306    47.306
ATOM     46  O   UNL d   1      18.542  43.416 -14.198 -0.02 -0.04    -0.251    47.306
ATOM     47  O   UNL d   1      18.029  42.533 -12.214 -0.46 -0.27    -0.481    47.306
ATOM     48  H   UNL d   1      18.484  43.078 -11.538 +0.05 +0.13    +0.295    47.306
ATOM     49  C   UNL d   1      16.285  48.239  -4.287 -0.31 -0.01    +0.048    47.306
ATOM     50  C   UNL d   1      16.722  49.688  -4.078 -0.24 -0.03    +0.125    47.306
ATOM     51  C   UNL d   1      15.569  50.536  -3.624 -0.25 -0.06    +0.305    47.306
ATOM     52  O   UNL d   1      14.383  50.256  -3.655 -0.37 +0.07    -0.251    47.306
ATOM     53  O   UNL d   1      15.976  51.731  -3.151 -0.32 +0.09    -0.481    47.306
ATOM     54  H   UNL d   1      15.451  52.381  -3.662 +0.12 -0.06    +0.295    47.306
TER
ENDMDL
MODEL       43
USER    Run = 43
USER    Cluster Rank = 47
USER    Number of conformations in this cluster = 1
USER  
USER    RMSD from reference structure       = 34.113 A
USER  
USER    Estimated Free Energy of Binding    =   -2.92 kcal/mol  [=(1)+(2)+(3)-(4)]
USER    Estimated Inhibition Constant, Ki   =    7.28 mM (millimolar)  [Temperature = 298.15 K]
USER    
USER    (1) Final Intermolecular Energy     =   -6.79 kcal/mol
USER        vdW + Hbond + desolv Energy     =   -6.75 kcal/mol
USER        Electrostatic Energy            =   -0.05 kcal/mol
USER    (2) Final Total Internal Energy     =   -4.37 kcal/mol
USER    (3) Torsional Free Energy           =   +3.88 kcal/mol
USER    (4) Unbound System's Energy  [=(2)] =   -4.37 kcal/mol
USER    
USER    
USER  
USER    DPF = D:/Protein_go_brrr/autodock/final/2DN3/heme/dock.dpf
USER    NEWDPF move	heme_opt.pdbqt
USER    NEWDPF about	0.153000 0.018000 -0.028000
USER    NEWDPF tran0	2.076169 31.285845 19.573029
USER    NEWDPF axisangle0	-0.798215 0.152104 0.582852 131.250239
USER    NEWDPF quaternion0	-0.727066 0.138546 0.530899 0.412705
USER    NEWDPF dihe0	129.57 -139.36 -116.62 -16.66 -134.99 -69.07 122.17 -22.06 24.82 -26.03 67.19 -31.70 119.94 
USER  
USER                              x       y       z    vdW   Elec        q     RMS 
ATOM      1  O   UNL d   1      -0.331  33.533  24.463 -0.02 +0.02    -0.289    34.113
ATOM      2  O   UNL d   1       1.271  36.710  17.850 -0.47 +0.04    -0.289    34.113
ATOM      3  N   UNL d   1       1.224  31.828  21.900 -0.04 +0.03    -0.247    34.113
ATOM      4  N   UNL d   1       1.155  33.767  19.649 -0.11 +0.05    -0.247    34.113
ATOM      5  N   UNL d   1       1.873  31.610  17.890 -0.08 +0.04    -0.354    34.113
ATOM      6  N   UNL d   1       1.924  29.601  20.227 -0.05 +0.01    -0.354    34.113
ATOM      7  C   UNL d   1       0.340  31.210  24.101 -0.05 -0.00    +0.084    34.113
ATOM      8  C   UNL d   1       1.059  36.141  20.222 -0.16 -0.02    +0.084    34.113
ATOM      9  C   UNL d   1       1.035  34.678  20.675 -0.14 -0.01    +0.058    34.113
ATOM     10  C   UNL d   1       1.026  30.792  22.797 -0.09 -0.00    +0.058    34.113
ATOM     11  C   UNL d   1       0.202  32.670  23.789 -0.05 -0.02    +0.193    34.113
ATOM     12  C   UNL d   1       0.798  32.924  22.439 -0.03 -0.02    +0.109    34.113
ATOM     13  C   UNL d   1       1.178  35.892  18.744 -0.18 -0.04    +0.193    34.113
ATOM     14  C   UNL d   1      -1.057  30.599  24.237 -0.01 -0.00    +0.026    34.113
ATOM     15  C   UNL d   1       0.859  34.318  21.956 -0.09 -0.01    +0.055    34.113
ATOM     16  C   UNL d   1       2.321  36.864  20.702 -0.33 -0.01    +0.026    34.113
ATOM     17  C   UNL d   1       1.218  34.414  18.530 -0.19 -0.02    +0.109    34.113
ATOM     18  C   UNL d   1       1.469  29.535  22.607 -0.12 -0.00    +0.050    34.113
ATOM     19  C   UNL d   1       2.187  29.078  21.473 -0.08 +0.00    +0.045    34.113
ATOM     20  C   UNL d   1       1.571  32.577  16.966 -0.18 -0.00    +0.045    34.113
ATOM     21  C   UNL d   1       1.289  33.868  17.166 +0.18 -0.01    +0.057    34.113
ATOM     22  C   UNL d   1       1.941  30.603  15.876 -0.23 +0.00    -0.019    34.113
ATOM     23  C   UNL d   1       2.111  30.385  17.326 -0.20 -0.00    +0.045    34.113
ATOM     24  C   UNL d   1       1.622  31.903  15.669 -0.23 +0.00    -0.022    34.113
ATOM     25  C   UNL d   1       2.665  28.954  19.265 -0.21 -0.00    +0.049    34.113
ATOM     26  C   UNL d   1       3.151  28.093  21.322 -0.22 +0.00    -0.018    34.113
ATOM     27  C   UNL d   1       3.463  28.032  19.928 -0.31 -0.00    +0.003    34.113
ATOM     28  C   UNL d   1       2.450  29.212  17.884 -0.21 -0.00    +0.052    34.113
ATOM     29  C   UNL d   1       1.365  32.607  14.380 -0.22 +0.00    +0.046    34.113
ATOM     30  C   UNL d   1       3.748  27.258  22.404 -0.28 -0.00    +0.046    34.113
ATOM     31  H   UNL d   1       1.980  31.836  18.873 +0.06 -0.02    +0.166    34.113
ATOM     32  H   UNL d   1       1.243  30.332  20.059 +0.04 -0.01    +0.166    34.113
ATOM     33  C   UNL d   1       1.169  31.008  25.374 -0.06 -0.00    +0.141    34.113
ATOM     34  C   UNL d   1       2.294  32.000  25.496 -0.09 -0.01    +0.306    34.113
ATOM     35  O   UNL d   1       3.377  31.933  24.939 -0.21 +0.00    -0.251    34.113
ATOM     36  O   UNL d   1       1.994  33.026  26.311 -0.01 +0.01    -0.481    34.113
ATOM     37  H   UNL d   1       1.145  33.376  25.967 +0.04 -0.01    +0.295    34.113
ATOM     38  C   UNL d   1       4.404  27.134  19.332 -0.37 +0.00    +0.017    34.113
ATOM     39  C   UNL d   1       4.767  27.138  18.040 -0.38 +0.00    +0.092    34.113
ATOM     40  C   UNL d   1       5.758  26.173  17.557 -0.15 +0.03    +0.330    34.113
ATOM     41  O   UNL d   1       6.952  26.153  17.789 -0.42 -0.04    -0.246    34.113
ATOM     42  O   UNL d   1       5.163  25.247  16.788 -0.18 +0.01    -0.477    34.113
ATOM     43  H   UNL d   1       4.521  25.761  16.256 +0.19 -0.02    +0.295    34.113
ATOM     44  C   UNL d   1      -0.200  36.953  20.542 -0.05 -0.02    +0.141    34.113
ATOM     45  C   UNL d   1      -1.359  36.635  19.634 -0.01 -0.04    +0.306    34.113
ATOM     46  O   UNL d   1      -2.090  35.663  19.702 -0.01 +0.02    -0.251    34.113
ATOM     47  O   UNL d   1      -1.518  37.553  18.663 +0.01 +0.09    -0.481    34.113
ATOM     48  H   UNL d   1      -0.691  37.505  18.138 +0.07 -0.07    +0.295    34.113
ATOM     49  C   UNL d   1       2.088  29.529  14.839 -0.17 -0.00    +0.048    34.113
ATOM     50  C   UNL d   1       1.559  28.183  15.334 -0.17 -0.01    +0.125    34.113
ATOM     51  C   UNL d   1       2.681  27.201  15.518 -0.20 -0.03    +0.305    34.113
ATOM     52  O   UNL d   1       3.742  27.165  14.920 -0.39 +0.04    -0.251    34.113
ATOM     53  O   UNL d   1       2.397  26.282  16.462 -0.02 +0.03    -0.481    34.113
ATOM     54  H   UNL d   1       3.043  25.563  16.297 +0.14 -0.02    +0.295    34.113
TER
ENDMDL
MODEL        2
USER    Run = 2
USER    Cluster Rank = 48
USER    Number of conformations in this cluster = 1
USER  
USER    RMSD from reference structure       = 63.207 A
USER  
USER    Estimated Free Energy of Binding    =   -2.87 kcal/mol  [=(1)+(2)+(3)-(4)]
USER    Estimated Inhibition Constant, Ki   =    7.91 mM (millimolar)  [Temperature = 298.15 K]
USER    
USER    (1) Final Intermolecular Energy     =   -6.75 kcal/mol
USER        vdW + Hbond + desolv Energy     =   -6.12 kcal/mol
USER        Electrostatic Energy            =   -0.63 kcal/mol
USER    (2) Final Total Internal Energy     =   -3.76 kcal/mol
USER    (3) Torsional Free Energy           =   +3.88 kcal/mol
USER    (4) Unbound System's Energy  [=(2)] =   -3.76 kcal/mol
USER    
USER    
USER  
USER    DPF = D:/Protein_go_brrr/autodock/final/2DN3/heme/dock.dpf
USER    NEWDPF move	heme_opt.pdbqt
USER    NEWDPF about	0.153000 0.018000 -0.028000
USER    NEWDPF tran0	38.567927 53.291861 16.508648
USER    NEWDPF axisangle0	0.592773 -0.682684 -0.427274 78.473223
USER    NEWDPF quaternion0	0.374943 -0.431814 -0.270261 0.774540
USER    NEWDPF dihe0	-93.57 117.02 130.42 -65.74 36.22 -8.21 -44.10 -95.30 122.39 -141.45 -131.11 6.86 -16.93 
USER  
USER                              x       y       z    vdW   Elec        q     RMS 
ATOM      1  O   UNL d   1      34.917  54.255  21.036 -0.04 -0.04    -0.289    63.207
ATOM      2  O   UNL d   1      40.152  48.979  19.962 -0.12 -0.07    -0.289    63.207
ATOM      3  N   UNL d   1      36.745  54.003  18.122 -0.04 -0.08    -0.247    63.207
ATOM      4  N   UNL d   1      38.721  51.870  18.738 -0.08 -0.11    -0.247    63.207
ATOM      5  N   UNL d   1      40.171  52.664  16.385 -0.08 -0.24    -0.354    63.207
ATOM      6  N   UNL d   1      38.127  54.887  15.765 -0.01 -0.15    -0.354    63.207
ATOM      7  C   UNL d   1      35.117  55.606  19.009 -0.07 +0.01    +0.084    63.207
ATOM      8  C   UNL d   1      38.098  50.224  20.432 -0.16 +0.02    +0.084    63.207
ATOM      9  C   UNL d   1      37.776  51.517  19.675 -0.14 +0.02    +0.058    63.207
ATOM     10  C   UNL d   1      36.062  55.183  17.881 -0.12 +0.01    +0.058    63.207
ATOM     11  C   UNL d   1      35.373  54.446  19.924 -0.08 +0.03    +0.193    63.207
ATOM     12  C   UNL d   1      36.357  53.532  19.263 -0.14 +0.03    +0.109    63.207
ATOM     13  C   UNL d   1      39.417  49.930  19.777 -0.12 +0.05    +0.193    63.207
ATOM     14  C   UNL d   1      35.583  56.891  19.698 -0.03 +0.00    +0.026    63.207
ATOM     15  C   UNL d   1      36.694  52.264  19.942 -0.22 +0.01    +0.055    63.207
ATOM     16  C   UNL d   1      37.114  49.103  20.084 -0.42 +0.01    +0.026    63.207
ATOM     17  C   UNL d   1      39.683  51.006  18.775 -0.18 +0.04    +0.109    63.207
ATOM     18  C   UNL d   1      36.132  55.873  16.727 -0.13 +0.01    +0.050    63.207
ATOM     19  C   UNL d   1      36.912  55.511  15.599 -0.13 +0.01    +0.045    63.207
ATOM     20  C   UNL d   1      41.081  51.805  16.944 -0.23 +0.02    +0.045    63.207
ATOM     21  C   UNL d   1      40.935  51.004  18.004 -0.25 +0.02    +0.057    63.207
ATOM     22  C   UNL d   1      42.047  52.838  15.151 -0.14 -0.00    -0.019    63.207
ATOM     23  C   UNL d   1      40.664  53.334  15.297 -0.12 +0.02    +0.045    63.207
ATOM     24  C   UNL d   1      42.288  51.933  16.128 -0.18 -0.00    -0.022    63.207
ATOM     25  C   UNL d   1      38.751  54.711  14.552 -0.09 +0.02    +0.049    63.207
ATOM     26  C   UNL d   1      36.724  55.713  14.240 -0.18 -0.00    -0.018    63.207
ATOM     27  C   UNL d   1      37.879  55.188  13.583 -0.14 +0.00    +0.003    63.207
ATOM     28  C   UNL d   1      40.086  54.229  14.481 -0.11 +0.02    +0.052    63.207
ATOM     29  C   UNL d   1      43.530  51.151  16.390 +0.22 -0.00    +0.046    63.207
ATOM     30  C   UNL d   1      35.544  56.352  13.590 -0.04 +0.00    +0.046    63.207
ATOM     31  H   UNL d   1      39.216  52.711  16.723 +0.15 +0.13    +0.166    63.207
ATOM     32  H   UNL d   1      38.509  54.637  16.670 +0.03 +0.06    +0.166    63.207
ATOM     33  C   UNL d   1      33.633  55.676  18.632 -0.12 +0.02    +0.141    63.207
ATOM     34  C   UNL d   1      32.739  55.862  19.828 -0.04 +0.04    +0.306    63.207
ATOM     35  O   UNL d   1      32.377  56.927  20.298 -0.02 -0.03    -0.251    63.207
ATOM     36  O   UNL d   1      32.347  54.694  20.368 -0.04 -0.08    -0.481    63.207
ATOM     37  H   UNL d   1      33.084  54.436  20.961 +0.08 +0.04    +0.295    63.207
ATOM     38  C   UNL d   1      38.104  55.206  12.169 -0.17 +0.00    +0.017    63.207
ATOM     39  C   UNL d   1      38.583  54.181  11.447 -0.23 +0.03    +0.092    63.207
ATOM     40  C   UNL d   1      38.750  54.323   9.999 -0.10 +0.07    +0.330    63.207
ATOM     41  O   UNL d   1      38.347  55.224   9.288 -0.15 -0.07    -0.246    63.207
ATOM     42  O   UNL d   1      39.449  53.286   9.511 -0.11 +0.10    -0.477    63.207
ATOM     43  H   UNL d   1      40.322  53.367   9.947 -0.41 -0.33    +0.295    63.207
ATOM     44  C   UNL d   1      38.258  50.369  21.949 -0.07 +0.02    +0.141    63.207
ATOM     45  C   UNL d   1      38.308  49.049  22.671 -0.04 +0.03    +0.306    63.207
ATOM     46  O   UNL d   1      37.356  48.416  23.094 -0.12 -0.02    -0.251    63.207
ATOM     47  O   UNL d   1      39.565  48.605  22.847 +0.02 -0.05    -0.481    63.207
ATOM     48  H   UNL d   1      39.975  48.663  21.958 +0.08 +0.04    +0.295    63.207
ATOM     49  C   UNL d   1      43.000  53.302  14.089 -0.09 +0.00    +0.048    63.207
ATOM     50  C   UNL d   1      43.089  52.309  12.931 -0.18 -0.00    +0.125    63.207
ATOM     51  C   UNL d   1      41.720  51.928  12.443 -0.23 +0.03    +0.305    63.207
ATOM     52  O   UNL d   1      41.103  50.906  12.685 -0.47 -0.15    -0.251    63.207
ATOM     53  O   UNL d   1      41.188  52.875  11.645 -0.06 +0.10    -0.481    63.207
ATOM     54  H   UNL d   1      41.133  52.443  10.767 -0.22 -0.31    +0.295    63.207
TER
ENDMDL
MODEL       65
USER    Run = 65
USER    Cluster Rank = 49
USER    Number of conformations in this cluster = 1
USER  
USER    RMSD from reference structure       = 37.682 A
USER  
USER    Estimated Free Energy of Binding    =   -2.85 kcal/mol  [=(1)+(2)+(3)-(4)]
USER    Estimated Inhibition Constant, Ki   =    8.09 mM (millimolar)  [Temperature = 298.15 K]
USER    
USER    (1) Final Intermolecular Energy     =   -6.73 kcal/mol
USER        vdW + Hbond + desolv Energy     =   -6.55 kcal/mol
USER        Electrostatic Energy            =   -0.18 kcal/mol
USER    (2) Final Total Internal Energy     =   -2.42 kcal/mol
USER    (3) Torsional Free Energy           =   +3.88 kcal/mol
USER    (4) Unbound System's Energy  [=(2)] =   -2.42 kcal/mol
USER    
USER    
USER  
USER    DPF = D:/Protein_go_brrr/autodock/final/2DN3/heme/dock.dpf
USER    NEWDPF move	heme_opt.pdbqt
USER    NEWDPF about	0.153000 0.018000 -0.028000
USER    NEWDPF tran0	37.389779 15.500954 10.490357
USER    NEWDPF axisangle0	-0.406236 0.247216 0.879691 -174.974363
USER    NEWDPF quaternion0	-0.405845 0.246978 0.878845 -0.043843
USER    NEWDPF dihe0	112.57 -4.08 -168.32 25.49 -131.79 -129.80 -70.34 111.10 32.55 -159.33 174.05 -92.94 -172.01 
USER  
USER                              x       y       z    vdW   Elec        q     RMS 
ATOM      1  O   UNL d   1      40.214  15.021  15.643 -0.19 -0.02    -0.289    37.682
ATOM      2  O   UNL d   1      41.598  19.323   9.646 -0.27 +0.00    -0.289    37.682
ATOM      3  N   UNL d   1      38.336  14.860  12.755 -0.13 -0.02    -0.247    37.682
ATOM      4  N   UNL d   1      39.416  17.088  11.112 -0.15 -0.03    -0.247    37.682
ATOM      5  N   UNL d   1      37.128  16.808   9.394 -0.05 +0.01    -0.354    37.682
ATOM      6  N   UNL d   1      36.004  14.511  11.115 -0.06 -0.02    -0.354    37.682
ATOM      7  C   UNL d   1      38.177  13.844  14.980 -0.17 +0.01    +0.084    37.682
ATOM      8  C   UNL d   1      41.724  17.770  11.534 -0.15 +0.01    +0.084    37.682
ATOM      9  C   UNL d   1      40.518  16.908  11.919 -0.18 +0.01    +0.058    37.682
ATOM     10  C   UNL d   1      37.601  14.016  13.571 -0.15 +0.01    +0.058    37.682
ATOM     11  C   UNL d   1      39.377  14.726  14.810 -0.15 +0.01    +0.193    37.682
ATOM     12  C   UNL d   1      39.375  15.262  13.411 -0.13 +0.00    +0.109    37.682
ATOM     13  C   UNL d   1      41.092  18.500  10.383 -0.18 +0.01    +0.193    37.682
ATOM     14  C   UNL d   1      37.265  14.449  16.050 -0.25 +0.00    +0.026    37.682
ATOM     15  C   UNL d   1      40.521  16.089  12.981 -0.19 +0.00    +0.055    37.682
ATOM     16  C   UNL d   1      42.882  16.921  11.001 -0.09 +0.00    +0.026    37.682
ATOM     17  C   UNL d   1      39.691  18.001  10.236 -0.21 +0.01    +0.109    37.682
ATOM     18  C   UNL d   1      36.523  13.321  13.162 -0.12 +0.01    +0.050    37.682
ATOM     19  C   UNL d   1      35.972  13.351  11.856 -0.08 +0.00    +0.045    37.682
ATOM     20  C   UNL d   1      37.650  17.977   8.903 -0.19 -0.00    +0.045    37.682
ATOM     21  C   UNL d   1      38.808  18.571   9.208 -0.23 +0.00    +0.057    37.682
ATOM     22  C   UNL d   1      35.630  17.594   7.907 -0.09 +0.00    -0.019    37.682
ATOM     23  C   UNL d   1      35.910  16.495   8.852 -0.09 -0.00    +0.045    37.682
ATOM     24  C   UNL d   1      36.664  18.467   7.940 -0.17 +0.00    -0.022    37.682
ATOM     25  C   UNL d   1      35.338  14.342   9.923 -0.07 +0.00    +0.049    37.682
ATOM     26  C   UNL d   1      35.300  12.394  11.112 -0.03 -0.00    -0.018    37.682
ATOM     27  C   UNL d   1      34.919  13.019   9.885 -0.03 +0.00    +0.003    37.682
ATOM     28  C   UNL d   1      35.101  15.444   9.057 -0.08 -0.00    +0.052    37.682
ATOM     29  C   UNL d   1      36.850  19.723   7.159 -0.21 -0.02    +0.046    37.682
ATOM     30  C   UNL d   1      35.029  10.983  11.513 -0.01 +0.00    +0.046    37.682
ATOM     31  H   UNL d   1      37.657  16.223  10.032 +0.03 +0.00    +0.166    37.682
ATOM     32  H   UNL d   1      36.429  15.371  11.439 -0.07 -0.00    +0.166    37.682
ATOM     33  C   UNL d   1      38.605  12.419  15.345 -0.07 +0.02    +0.141    37.682
ATOM     34  C   UNL d   1      39.955  12.058  14.788 -0.02 +0.03    +0.306    37.682
ATOM     35  O   UNL d   1      40.199  11.747  13.634 -0.01 -0.03    -0.251    37.682
ATOM     36  O   UNL d   1      40.929  12.112  15.713 -0.01 -0.06    -0.481    37.682
ATOM     37  H   UNL d   1      41.035  13.068  15.905 +0.05 +0.04    +0.295    37.682
ATOM     38  C   UNL d   1      34.187  12.387   8.829 -0.01 +0.00    +0.017    37.682
ATOM     39  C   UNL d   1      33.029  12.830   8.315 -0.01 +0.01    +0.092    37.682
ATOM     40  C   UNL d   1      32.388  12.097   7.220 -0.00 +0.02    +0.330    37.682
ATOM     41  O   UNL d   1      31.948  12.550   6.181 -0.00 -0.01    -0.246    37.682
ATOM     42  O   UNL d   1      32.345  10.787   7.505 +0.00 -0.03    -0.477    37.682
ATOM     43  H   UNL d   1      31.845  10.400   6.757 +0.00 +0.02    +0.295    37.682
ATOM     44  C   UNL d   1      42.205  18.752  12.608 -0.25 +0.02    +0.141    37.682
ATOM     45  C   UNL d   1      43.679  19.048  12.526 -0.14 +0.07    +0.306    37.682
ATOM     46  O   UNL d   1      44.525  18.757  13.353 -0.09 -0.10    -0.251    37.682
ATOM     47  O   UNL d   1      44.006  19.724  11.410 -0.12 -0.06    -0.481    37.682
ATOM     48  H   UNL d   1      43.147  19.998  11.025 -0.14 -0.05    +0.295    37.682
ATOM     49  C   UNL d   1      34.383  17.695   7.078 -0.07 -0.01    +0.048    37.682
ATOM     50  C   UNL d   1      33.419  18.746   7.627 -0.14 -0.02    +0.125    37.682
ATOM     51  C   UNL d   1      33.923  19.312   8.924 -0.22 -0.05    +0.305    37.682
ATOM     52  O   UNL d   1      34.432  20.403   9.111 -0.81 +0.04    -0.251    37.682
ATOM     53  O   UNL d   1      33.769  18.446   9.945 -0.15 +0.07    -0.481    37.682
ATOM     54  H   UNL d   1      33.729  19.019  10.739 -0.20 -0.11    +0.295    37.682
TER
ENDMDL
MODEL       76
USER    Run = 76
USER    Cluster Rank = 50
USER    Number of conformations in this cluster = 1
USER  
USER    RMSD from reference structure       = 42.969 A
USER  
USER    Estimated Free Energy of Binding    =   -2.81 kcal/mol  [=(1)+(2)+(3)-(4)]
USER    Estimated Inhibition Constant, Ki   =    8.72 mM (millimolar)  [Temperature = 298.15 K]
USER    
USER    (1) Final Intermolecular Energy     =   -6.69 kcal/mol
USER        vdW + Hbond + desolv Energy     =   -6.64 kcal/mol
USER        Electrostatic Energy            =   -0.05 kcal/mol
USER    (2) Final Total Internal Energy     =   -4.68 kcal/mol
USER    (3) Torsional Free Energy           =   +3.88 kcal/mol
USER    (4) Unbound System's Energy  [=(2)] =   -4.68 kcal/mol
USER    
USER    
USER  
USER    DPF = D:/Protein_go_brrr/autodock/final/2DN3/heme/dock.dpf
USER    NEWDPF move	heme_opt.pdbqt
USER    NEWDPF about	0.153000 0.018000 -0.028000
USER    NEWDPF tran0	6.219915 38.402679 25.183916
USER    NEWDPF axisangle0	-0.559878 -0.418496 -0.715121 -106.876070
USER    NEWDPF quaternion0	-0.449702 -0.336141 -0.574394 -0.595692
USER    NEWDPF dihe0	145.28 175.16 140.49 -67.66 -143.33 -23.60 -50.34 -90.98 34.18 -154.94 -111.44 11.60 -6.26 
USER  
USER                              x       y       z    vdW   Elec        q     RMS 
ATOM      1  O   UNL d   1       7.321  41.035  20.025 -0.02 +0.08    -0.289    42.969
ATOM      2  O   UNL d   1       0.952  38.274  22.889 -0.01 +0.03    -0.289    42.969
ATOM      3  N   UNL d   1       7.184  39.437  23.078 -0.09 +0.07    -0.247    42.969
ATOM      4  N   UNL d   1       4.275  38.987  23.484 -0.09 +0.05    -0.247    42.969
ATOM      5  N   UNL d   1       4.849  38.366  26.232 -0.02 +0.02    -0.354    42.969
ATOM      6  N   UNL d   1       7.863  38.853  25.807 -0.04 +0.05    -0.354    42.969
ATOM      7  C   UNL d   1       8.918  40.642  21.834 -0.20 -0.02    +0.084    42.969
ATOM      8  C   UNL d   1       2.879  38.831  21.485 -0.21 -0.02    +0.084    42.969
ATOM      9  C   UNL d   1       4.250  39.102  22.112 -0.24 -0.01    +0.058    42.969
ATOM     10  C   UNL d   1       8.499  39.873  23.090 -0.19 -0.01    +0.058    42.969
ATOM     11  C   UNL d   1       7.613  40.548  21.102 -0.17 -0.04    +0.193    42.969
ATOM     12  C   UNL d   1       6.652  39.772  21.948 -0.21 -0.03    +0.109    42.969
ATOM     13  C   UNL d   1       2.122  38.578  22.759 -0.05 -0.03    +0.193    42.969
ATOM     14  C   UNL d   1       9.212  42.114  22.133 -0.13 -0.01    +0.026    42.969
ATOM     15  C   UNL d   1       5.319  39.470  21.389 -0.14 -0.01    +0.055    42.969
ATOM     16  C   UNL d   1       2.880  37.548  20.650 -0.30 -0.01    +0.026    42.969
ATOM     17  C   UNL d   1       3.080  38.710  23.897 -0.07 -0.01    +0.109    42.969
ATOM     18  C   UNL d   1       9.381  39.583  24.064 -0.24 -0.01    +0.050    42.969
ATOM     19  C   UNL d   1       9.107  38.806  25.218 -0.19 -0.01    +0.045    42.969
ATOM     20  C   UNL d   1       3.481  38.428  26.285 -0.03 -0.00    +0.045    42.969
ATOM     21  C   UNL d   1       2.608  38.556  25.281 -0.04 -0.00    +0.057    42.969
ATOM     22  C   UNL d   1       4.293  38.202  28.409 -0.02 +0.00    -0.019    42.969
ATOM     23  C   UNL d   1       5.429  38.230  27.465 -0.04 -0.00    +0.045    42.969
ATOM     24  C   UNL d   1       3.142  38.318  27.704 -0.02 +0.00    -0.022    42.969
ATOM     25  C   UNL d   1       7.844  38.099  26.957 -0.11 -0.00    +0.049    42.969
ATOM     26  C   UNL d   1       9.905  37.972  25.985 -0.24 +0.01    -0.018    42.969
ATOM     27  C   UNL d   1       9.097  37.513  27.071 -0.19 -0.00    +0.003    42.969
ATOM     28  C   UNL d   1       6.717  38.117  27.823 -0.06 -0.00    +0.052    42.969
ATOM     29  C   UNL d   1       1.738  38.330  28.205 -0.00 -0.00    +0.046    42.969
ATOM     30  C   UNL d   1      11.331  37.620  25.726 -0.19 -0.03    +0.046    42.969
ATOM     31  H   UNL d   1       5.340  38.344  25.345 +0.03 -0.02    +0.166    42.969
ATOM     32  H   UNL d   1       7.094  39.406  25.448 +0.04 -0.02    +0.166    42.969
ATOM     33  C   UNL d   1      10.042  40.000  21.014 -0.30 -0.02    +0.141    42.969
ATOM     34  C   UNL d   1       9.543  38.915  20.097 -0.35 -0.00    +0.306    42.969
ATOM     35  O   UNL d   1       9.429  37.734  20.375 -0.43 +0.01    -0.251    42.969
ATOM     36  O   UNL d   1       9.211  39.378  18.879 -0.55 -0.06    -0.481    42.969
ATOM     37  H   UNL d   1       8.807  40.256  19.050 +0.19 -0.03    +0.295    42.969
ATOM     38  C   UNL d   1       9.538  36.637  28.115 -0.22 -0.00    +0.017    42.969
ATOM     39  C   UNL d   1       8.883  35.545  28.538 -0.21 +0.02    +0.092    42.969
ATOM     40  C   UNL d   1       9.453  34.721  29.607 -0.08 +0.11    +0.330    42.969
ATOM     41  O   UNL d   1      10.624  34.607  29.914 -0.18 +0.05    -0.246    42.969
ATOM     42  O   UNL d   1       8.476  34.070  30.258 -0.40 -0.29    -0.477    42.969
ATOM     43  H   UNL d   1       7.654  34.418  29.856 +0.04 +0.16    +0.295    42.969
ATOM     44  C   UNL d   1       2.266  39.999  20.706 -0.18 -0.03    +0.141    42.969
ATOM     45  C   UNL d   1       1.277  39.562  19.658 -0.14 -0.08    +0.306    42.969
ATOM     46  O   UNL d   1       1.509  39.364  18.478 -0.35 +0.08    -0.251    42.969
ATOM     47  O   UNL d   1       0.033  39.421  20.151 +0.01 +0.10    -0.481    42.969
ATOM     48  H   UNL d   1       0.160  39.004  21.030 +0.06 -0.05    +0.295    42.969
ATOM     49  C   UNL d   1       4.437  38.081  29.897 -0.01 +0.00    +0.048    42.969
ATOM     50  C   UNL d   1       4.441  36.621  30.351 -0.01 +0.00    +0.125    42.969
ATOM     51  C   UNL d   1       5.698  35.926  29.913 -0.01 +0.03    +0.305    42.969
ATOM     52  O   UNL d   1       5.855  35.224  28.929 -0.07 -0.05    -0.251    42.969
ATOM     53  O   UNL d   1       6.720  36.147  30.764 +0.01 -0.04    -0.481    42.969
ATOM     54  H   UNL d   1       6.879  35.272  31.176 +0.02 +0.04    +0.295    42.969
TER
ENDMDL
MODEL       84
USER    Run = 84
USER    Cluster Rank = 51
USER    Number of conformations in this cluster = 1
USER  
USER    RMSD from reference structure       = 30.198 A
USER  
USER    Estimated Free Energy of Binding    =   -2.79 kcal/mol  [=(1)+(2)+(3)-(4)]
USER    Estimated Inhibition Constant, Ki   =    9.07 mM (millimolar)  [Temperature = 298.15 K]
USER    
USER    (1) Final Intermolecular Energy     =   -6.66 kcal/mol
USER        vdW + Hbond + desolv Energy     =   -6.60 kcal/mol
USER        Electrostatic Energy            =   -0.07 kcal/mol
USER    (2) Final Total Internal Energy     =   -4.30 kcal/mol
USER    (3) Torsional Free Energy           =   +3.88 kcal/mol
USER    (4) Unbound System's Energy  [=(2)] =   -4.30 kcal/mol
USER    
USER    
USER  
USER    DPF = D:/Protein_go_brrr/autodock/final/2DN3/heme/dock.dpf
USER    NEWDPF move	heme_opt.pdbqt
USER    NEWDPF about	0.153000 0.018000 -0.028000
USER    NEWDPF tran0	0.357971 32.800650 7.340800
USER    NEWDPF axisangle0	0.238453 -0.904235 -0.354260 -85.765398
USER    NEWDPF quaternion0	0.162267 -0.615331 -0.241074 -0.732748
USER    NEWDPF dihe0	96.91 -138.82 -101.27 -15.62 174.25 38.54 130.23 180.00 115.66 -21.61 -65.72 -92.28 -1.18 
USER  
USER                              x       y       z    vdW   Elec        q     RMS 
ATOM      1  O   UNL d   1      -0.727  37.345   3.746 +0.00 -0.20    -0.289    30.198
ATOM      2  O   UNL d   1       0.825  30.149   2.262 -0.04 +0.03    -0.289    30.198
ATOM      3  N   UNL d   1      -0.019  35.040   6.212 -0.15 -0.05    -0.247    30.198
ATOM      4  N   UNL d   1       0.152  32.476   4.721 -0.05 -0.00    -0.247    30.198
ATOM      5  N   UNL d   1       0.040  31.107   7.247 -0.06 +0.05    -0.354    30.198
ATOM      6  N   UNL d   1      -0.157  33.771   8.784 -0.04 -0.03    -0.354    30.198
ATOM      7  C   UNL d   1      -0.753  37.379   6.190 -0.22 +0.04    +0.084    30.198
ATOM      8  C   UNL d   1       0.767  32.595   2.359 -0.08 +0.01    +0.084    30.198
ATOM      9  C   UNL d   1       0.409  33.317   3.662 -0.14 +0.01    +0.058    30.198
ATOM     10  C   UNL d   1      -0.373  36.130   6.990 -0.24 +0.02    +0.058    30.198
ATOM     11  C   UNL d   1      -0.534  36.808   4.821 -0.07 +0.09    +0.193    30.198
ATOM     12  C   UNL d   1      -0.066  35.394   4.969 -0.17 +0.03    +0.109    30.198
ATOM     13  C   UNL d   1       0.629  31.187   2.865 -0.04 -0.01    +0.193    30.198
ATOM     14  C   UNL d   1      -2.234  37.733   6.347 -0.12 +0.01    +0.026    30.198
ATOM     15  C   UNL d   1       0.306  34.653   3.746 -0.18 +0.02    +0.055    30.198
ATOM     16  C   UNL d   1       2.226  32.833   1.960 -0.22 +0.00    +0.026    30.198
ATOM     17  C   UNL d   1       0.245  31.253   4.308 -0.07 -0.01    +0.109    30.198
ATOM     18  C   UNL d   1      -0.310  36.148   8.335 -0.26 +0.01    +0.050    30.198
ATOM     19  C   UNL d   1       0.111  35.070   9.154 -0.23 +0.01    +0.045    30.198
ATOM     20  C   UNL d   1      -0.105  30.042   6.395 -0.14 -0.01    +0.045    30.198
ATOM     21  C   UNL d   1      -0.004  30.016   5.062 -0.11 -0.02    +0.057    30.198
ATOM     22  C   UNL d   1      -0.418  29.320   8.540 -0.17 +0.01    -0.019    30.198
ATOM     23  C   UNL d   1      -0.131  30.769   8.563 -0.15 -0.01    +0.045    30.198
ATOM     24  C   UNL d   1      -0.400  28.896   7.254 -0.16 +0.01    -0.022    30.198
ATOM     25  C   UNL d   1       0.258  32.896   9.761 -0.10 +0.00    +0.049    30.198
ATOM     26  C   UNL d   1       0.749  35.035  10.384 -0.29 -0.00    -0.018    30.198
ATOM     27  C   UNL d   1       0.856  33.659  10.754 -0.23 +0.00    +0.003    30.198
ATOM     28  C   UNL d   1      -0.052  31.511   9.678 -0.17 -0.00    +0.052    30.198
ATOM     29  C   UNL d   1      -0.619  27.520   6.722 -0.01 -0.05    +0.046    30.198
ATOM     30  C   UNL d   1       1.232  36.207  11.170 -0.42 +0.00    +0.046    30.198
ATOM     31  H   UNL d   1       0.325  32.018   6.905 +0.06 -0.01    +0.166    30.198
ATOM     32  H   UNL d   1      -0.632  33.519   7.926 +0.05 +0.01    +0.166    30.198
ATOM     33  C   UNL d   1       0.144  38.601   6.414 -0.26 +0.08    +0.141    30.198
ATOM     34  C   UNL d   1      -0.016  39.641   5.338 -0.23 +0.18    +0.306    30.198
ATOM     35  O   UNL d   1       0.886  40.194   4.731 -0.28 -0.14    -0.251    30.198
ATOM     36  O   UNL d   1      -1.304  39.929   5.083 -0.04 -0.28    -0.481    30.198
ATOM     37  H   UNL d   1      -1.584  39.253   4.430 +0.08 +0.18    +0.295    30.198
ATOM     38  C   UNL d   1       1.440  33.173  11.968 -0.35 +0.00    +0.017    30.198
ATOM     39  C   UNL d   1       0.828  32.376  12.856 -0.20 +0.01    +0.092    30.198
ATOM     40  C   UNL d   1       1.545  31.934  14.055 -0.09 +0.04    +0.330    30.198
ATOM     41  O   UNL d   1       2.344  32.566  14.720 -0.41 -0.03    -0.246    30.198
ATOM     42  O   UNL d   1       1.194  30.676  14.366 -0.05 -0.02    -0.477    30.198
ATOM     43  H   UNL d   1       1.155  30.223  13.498 +0.11 +0.02    +0.295    30.198
ATOM     44  C   UNL d   1      -0.179  32.850   1.181 -0.04 +0.02    +0.141    30.198
ATOM     45  C   UNL d   1      -1.524  32.194   1.346 -0.00 +0.03    +0.306    30.198
ATOM     46  O   UNL d   1      -2.490  32.654   1.928 -0.00 -0.03    -0.251    30.198
ATOM     47  O   UNL d   1      -1.571  30.971   0.787 +0.00 -0.02    -0.481    30.198
ATOM     48  H   UNL d   1      -1.109  30.388   1.427 +0.02 -0.00    +0.295    30.198
ATOM     49  C   UNL d   1      -0.694  28.497   9.763 -0.17 -0.02    +0.048    30.198
ATOM     50  C   UNL d   1       0.595  28.017  10.429 -0.22 -0.05    +0.125    30.198
ATOM     51  C   UNL d   1       0.751  28.622  11.795 -0.13 -0.04    +0.305    30.198
ATOM     52  O   UNL d   1       1.606  28.370  12.627 -0.15 +0.01    -0.251    30.198
ATOM     53  O   UNL d   1      -0.210  29.531  12.057 -0.01 +0.03    -0.481    30.198
ATOM     54  H   UNL d   1      -0.166  29.650  13.028 +0.07 -0.01    +0.295    30.198
TER
ENDMDL
MODEL        8
USER    Run = 8
USER    Cluster Rank = 52
USER    Number of conformations in this cluster = 1
USER  
USER    RMSD from reference structure       = 41.222 A
USER  
USER    Estimated Free Energy of Binding    =   -2.77 kcal/mol  [=(1)+(2)+(3)-(4)]
USER    Estimated Inhibition Constant, Ki   =    9.25 mM (millimolar)  [Temperature = 298.15 K]
USER    
USER    (1) Final Intermolecular Energy     =   -6.65 kcal/mol
USER        vdW + Hbond + desolv Energy     =   -6.23 kcal/mol
USER        Electrostatic Energy            =   -0.42 kcal/mol
USER    (2) Final Total Internal Energy     =   -2.69 kcal/mol
USER    (3) Torsional Free Energy           =   +3.88 kcal/mol
USER    (4) Unbound System's Energy  [=(2)] =   -2.69 kcal/mol
USER    
USER    
USER  
USER    DPF = D:/Protein_go_brrr/autodock/final/2DN3/heme/dock.dpf
USER    NEWDPF move	heme_opt.pdbqt
USER    NEWDPF about	0.153000 0.018000 -0.028000
USER    NEWDPF tran0	38.846644 13.551906 19.143792
USER    NEWDPF axisangle0	0.818013 0.327940 -0.472557 -107.610225
USER    NEWDPF quaternion0	0.660147 0.264651 -0.381360 -0.590534
USER    NEWDPF dihe0	104.85 -31.42 116.46 28.07 -140.82 149.61 -47.68 -78.62 50.99 -118.54 135.05 6.03 11.54 
USER  
USER                              x       y       z    vdW   Elec        q     RMS 
ATOM      1  O   UNL d   1      36.881  13.208  24.691 -0.03 +0.04    -0.289    41.222
ATOM      2  O   UNL d   1      33.760  16.157  18.530 -0.28 -0.11    -0.289    41.222
ATOM      3  N   UNL d   1      38.491  13.299  21.642 -0.10 +0.02    -0.247    41.222
ATOM      4  N   UNL d   1      36.405  14.340  19.799 -0.13 -0.02    -0.247    41.222
ATOM      5  N   UNL d   1      38.070  13.524  17.602 -0.05 -0.05    -0.354    41.222
ATOM      6  N   UNL d   1      40.220  12.429  19.521 -0.02 -0.04    -0.354    41.222
ATOM      7  C   UNL d   1      38.984  12.308  23.829 -0.07 -0.01    +0.084    41.222
ATOM      8  C   UNL d   1      34.650  15.735  20.771 -0.22 +0.01    +0.084    41.222
ATOM      9  C   UNL d   1      35.878  14.840  20.969 -0.21 +0.00    +0.058    41.222
ATOM     10  C   UNL d   1      39.394  12.545  22.373 -0.12 -0.00    +0.058    41.222
ATOM     11  C   UNL d   1      37.697  13.077  23.798 -0.06 -0.02    +0.193    41.222
ATOM     12  C   UNL d   1      37.524  13.651  22.426 -0.04 -0.02    +0.109    41.222
ATOM     13  C   UNL d   1      34.555  15.619  19.276 -0.22 +0.04    +0.193    41.222
ATOM     14  C   UNL d   1      38.673  10.835  24.106 -0.02 -0.00    +0.026    41.222
ATOM     15  C   UNL d   1      36.363  14.532  22.182 -0.23 -0.01    +0.055    41.222
ATOM     16  C   UNL d   1      34.945  17.193  21.135 -0.46 -0.00    +0.026    41.222
ATOM     17  C   UNL d   1      35.671  14.741  18.812 -0.22 +0.02    +0.109    41.222
ATOM     18  C   UNL d   1      40.581  12.121  21.899 -0.13 +0.00    +0.050    41.222
ATOM     19  C   UNL d   1      41.080  12.367  20.594 -0.13 +0.00    +0.045    41.222
ATOM     20  C   UNL d   1      36.922  13.839  16.923 -0.22 +0.01    +0.045    41.222
ATOM     21  C   UNL d   1      35.806  14.411  17.385 -0.28 +0.01    +0.057    41.222
ATOM     22  C   UNL d   1      38.402  12.884  15.468 -0.11 -0.00    -0.019    41.222
ATOM     23  C   UNL d   1      39.022  12.942  16.807 -0.11 +0.01    +0.045    41.222
ATOM     24  C   UNL d   1      37.160  13.418  15.543 -0.17 -0.00    -0.022    41.222
ATOM     25  C   UNL d   1      40.921  12.583  18.348 -0.01 +0.01    +0.049    41.222
ATOM     26  C   UNL d   1      42.370  12.522  20.111 -0.13 -0.00    -0.018    41.222
ATOM     27  C   UNL d   1      42.262  12.678  18.694 -0.09 +0.00    +0.003    41.222
ATOM     28  C   UNL d   1      40.262  12.516  17.090 -0.11 +0.01    +0.052    41.222
ATOM     29  C   UNL d   1      36.153  13.593  14.458 -0.02 +0.01    +0.046    41.222
ATOM     30  C   UNL d   1      43.627  12.528  20.913 -0.09 +0.00    +0.046    41.222
ATOM     31  H   UNL d   1      38.195  13.784  18.575 +0.06 +0.03    +0.166    41.222
ATOM     32  H   UNL d   1      39.215  12.330  19.602 +0.03 +0.02    +0.166    41.222
ATOM     33  C   UNL d   1      39.933  12.890  24.882 -0.08 -0.01    +0.141    41.222
ATOM     34  C   UNL d   1      39.457  14.212  25.423 -0.10 -0.05    +0.306    41.222
ATOM     35  O   UNL d   1      39.680  15.309  24.941 -0.27 +0.07    -0.251    41.222
ATOM     36  O   UNL d   1      38.724  14.080  26.542 +0.00 +0.07    -0.481    41.222
ATOM     37  H   UNL d   1      37.842  13.787  26.226 +0.07 -0.05    +0.295    41.222
ATOM     38  C   UNL d   1      43.365  12.851  17.797 -0.09 +0.00    +0.017    41.222
ATOM     39  C   UNL d   1      43.402  13.720  16.775 -0.09 +0.02    +0.092    41.222
ATOM     40  C   UNL d   1      44.602  13.812  15.939 -0.02 +0.06    +0.330    41.222
ATOM     41  O   UNL d   1      44.663  14.075  14.753 -0.01 -0.04    -0.246    41.222
ATOM     42  O   UNL d   1      45.697  13.567  16.674 +0.00 -0.08    -0.477    41.222
ATOM     43  H   UNL d   1      46.316  13.149  16.041 +0.01 +0.05    +0.295    41.222
ATOM     44  C   UNL d   1      33.362  15.246  21.442 -0.12 +0.04    +0.141    41.222
ATOM     45  C   UNL d   1      32.136  15.994  20.991 -0.10 +0.24    +0.306    41.222
ATOM     46  O   UNL d   1      31.656  16.985  21.514 -0.40 -0.23    -0.251    41.222
ATOM     47  O   UNL d   1      31.558  15.434  19.914 -0.27 -0.58    -0.481    41.222
ATOM     48  H   UNL d   1      32.224  15.524  19.200 +0.10 +0.24    +0.295    41.222
ATOM     49  C   UNL d   1      39.069  12.305  14.255 -0.05 +0.00    +0.048    41.222
ATOM     50  C   UNL d   1      40.196  13.202  13.744 -0.05 +0.01    +0.125    41.222
ATOM     51  C   UNL d   1      39.772  14.643  13.732 -0.11 +0.02    +0.305    41.222
ATOM     52  O   UNL d   1      39.158  15.230  12.858 -0.15 -0.02    -0.251    41.222
ATOM     53  O   UNL d   1      40.163  15.293  14.847 -0.11 -0.00    -0.481    41.222
ATOM     54  H   UNL d   1      39.498  16.005  14.953 -0.40 -0.11    +0.295    41.222
TER
ENDMDL
MODEL       21
USER    Run = 21
USER    Cluster Rank = 53
USER    Number of conformations in this cluster = 1
USER  
USER    RMSD from reference structure       = 41.366 A
USER  
USER    Estimated Free Energy of Binding    =   -2.77 kcal/mol  [=(1)+(2)+(3)-(4)]
USER    Estimated Inhibition Constant, Ki   =    9.33 mM (millimolar)  [Temperature = 298.15 K]
USER    
USER    (1) Final Intermolecular Energy     =   -6.65 kcal/mol
USER        vdW + Hbond + desolv Energy     =   -6.59 kcal/mol
USER        Electrostatic Energy            =   -0.06 kcal/mol
USER    (2) Final Total Internal Energy     =   -3.81 kcal/mol
USER    (3) Torsional Free Energy           =   +3.88 kcal/mol
USER    (4) Unbound System's Energy  [=(2)] =   -3.81 kcal/mol
USER    
USER    
USER  
USER    DPF = D:/Protein_go_brrr/autodock/final/2DN3/heme/dock.dpf
USER    NEWDPF move	heme_opt.pdbqt
USER    NEWDPF about	0.153000 0.018000 -0.028000
USER    NEWDPF tran0	26.468843 37.247926 -2.018082
USER    NEWDPF axisangle0	-0.150070 -0.969741 0.192565 131.187047
USER    NEWDPF quaternion0	-0.136659 -0.883082 0.175357 0.413207
USER    NEWDPF dihe0	113.04 -132.44 -60.49 10.42 -132.63 11.68 138.09 150.06 29.62 -180.00 -47.97 -72.23 9.48 
USER  
USER                              x       y       z    vdW   Elec        q     RMS 
ATOM      1  O   UNL d   1      31.048  37.955   1.626 -0.04 -0.05    -0.289    41.366
ATOM      2  O   UNL d   1      25.171  33.292   1.945 -0.17 +0.02    -0.289    41.366
ATOM      3  N   UNL d   1      28.505  37.994  -0.702 -0.09 -0.04    -0.247    41.366
ATOM      4  N   UNL d   1      26.841  35.654   0.063 -0.11 -0.04    -0.247    41.366
ATOM      5  N   UNL d   1      25.510  35.887  -2.474 -0.07 +0.00    -0.354    41.366
ATOM      6  N   UNL d   1      27.253  38.302  -3.269 -0.12 -0.04    -0.354    41.366
ATOM      7  C   UNL d   1      30.661  39.138  -0.477 -0.03 +0.02    +0.084    41.366
ATOM      8  C   UNL d   1      26.917  34.946   2.401 -0.27 +0.02    +0.084    41.366
ATOM      9  C   UNL d   1      27.443  35.855   1.286 -0.21 +0.01    +0.058    41.366
ATOM     10  C   UNL d   1      29.379  38.899  -1.281 -0.09 +0.01    +0.058    41.366
ATOM     11  C   UNL d   1      30.348  38.221   0.667 -0.03 +0.03    +0.193    41.366
ATOM     12  C   UNL d   1      29.004  37.607   0.426 -0.10 +0.02    +0.109    41.366
ATOM     13  C   UNL d   1      25.931  34.167   1.577 -0.22 +0.03    +0.193    41.366
ATOM     14  C   UNL d   1      31.901  38.614  -1.206 -0.02 +0.01    +0.026    41.366
ATOM     15  C   UNL d   1      28.441  36.733   1.475 -0.18 +0.01    +0.055    41.366
ATOM     16  C   UNL d   1      26.151  35.738   3.465 -0.09 +0.00    +0.026    41.366
ATOM     17  C   UNL d   1      25.988  34.688   0.178 -0.25 +0.01    +0.109    41.366
ATOM     18  C   UNL d   1      29.113  39.594  -2.403 -0.10 +0.01    +0.050    41.366
ATOM     19  C   UNL d   1      27.919  39.502  -3.163 -0.15 +0.01    +0.045    41.366
ATOM     20  C   UNL d   1      25.010  34.682  -2.055 -0.29 -0.00    +0.045    41.366
ATOM     21  C   UNL d   1      25.155  34.080  -0.870 -0.34 -0.00    +0.057    41.366
ATOM     22  C   UNL d   1      24.339  35.052  -4.208 -0.24 +0.00    -0.019    41.366
ATOM     23  C   UNL d   1      25.159  36.196  -3.761 -0.25 -0.00    +0.045    41.366
ATOM     24  C   UNL d   1      24.253  34.159  -3.193 -0.31 +0.00    -0.022    41.366
ATOM     25  C   UNL d   1      26.180  38.418  -4.121 -0.19 +0.00    +0.049    41.366
ATOM     26  C   UNL d   1      27.241  40.431  -3.937 -0.17 -0.00    -0.018    41.366
ATOM     27  C   UNL d   1      26.132  39.746  -4.524 -0.20 +0.00    +0.003    41.366
ATOM     28  C   UNL d   1      25.432  37.275  -4.511 -0.25 +0.00    +0.052    41.366
ATOM     29  C   UNL d   1      23.528  32.857  -3.154 -0.29 -0.02    +0.046    41.366
ATOM     30  C   UNL d   1      27.597  41.867  -4.121 -0.13 +0.01    +0.046    41.366
ATOM     31  H   UNL d   1      26.016  36.495  -1.840 +0.05 +0.01    +0.166    41.366
ATOM     32  H   UNL d   1      27.554  37.452  -2.806 +0.03 +0.02    +0.166    41.366
ATOM     33  C   UNL d   1      30.866  40.572   0.023 -0.03 +0.04    +0.141    41.366
ATOM     34  C   UNL d   1      30.020  40.892   1.225 -0.04 +0.07    +0.306    41.366
ATOM     35  O   UNL d   1      28.832  41.166   1.218 -0.11 -0.05    -0.251    41.366
ATOM     36  O   UNL d   1      30.716  40.847   2.375 -0.01 -0.10    -0.481    41.366
ATOM     37  H   UNL d   1      30.917  39.896   2.505 +0.11 +0.04    +0.295    41.366
ATOM     38  C   UNL d   1      25.176  40.333  -5.413 -0.08 +0.00    +0.017    41.366
ATOM     39  C   UNL d   1      24.596  39.709  -6.449 -0.15 +0.02    +0.092    41.366
ATOM     40  C   UNL d   1      23.616  40.420  -7.275 -0.09 +0.07    +0.330    41.366
ATOM     41  O   UNL d   1      23.346  41.606  -7.252 -0.12 -0.05    -0.246    41.366
ATOM     42  O   UNL d   1      23.017  39.566  -8.119 -0.02 -0.12    -0.477    41.366
ATOM     43  H   UNL d   1      22.769  38.808  -7.550 +0.10 +0.07    +0.295    41.366
ATOM     44  C   UNL d   1      27.953  34.016   3.040 -0.15 +0.11    +0.141    41.366
ATOM     45  C   UNL d   1      27.951  34.070   4.545 -0.12 +0.17    +0.306    41.366
ATOM     46  O   UNL d   1      27.341  33.331   5.298 -0.58 -0.20    -0.251    41.366
ATOM     47  O   UNL d   1      28.704  35.076   5.025 -0.05 -0.07    -0.481    41.366
ATOM     48  H   UNL d   1      28.074  35.643   5.520 +0.17 -0.07    +0.295    41.366
ATOM     49  C   UNL d   1      23.734  34.931  -5.575 -0.19 -0.00    +0.048    41.366
ATOM     50  C   UNL d   1      22.535  35.864  -5.751 -0.23 +0.01    +0.125    41.366
ATOM     51  C   UNL d   1      22.627  36.616  -7.049 -0.06 +0.04    +0.305    41.366
ATOM     52  O   UNL d   1      21.713  36.930  -7.791 -0.10 -0.07    -0.251    41.366
ATOM     53  O   UNL d   1      23.900  36.932  -7.360 +0.01 -0.04    -0.481    41.366
ATOM     54  H   UNL d   1      23.814  37.547  -8.118 +0.06 +0.04    +0.295    41.366
TER
ENDMDL
MODEL       66
USER    Run = 66
USER    Cluster Rank = 54
USER    Number of conformations in this cluster = 1
USER  
USER    RMSD from reference structure       = 41.759 A
USER  
USER    Estimated Free Energy of Binding    =   -2.75 kcal/mol  [=(1)+(2)+(3)-(4)]
USER    Estimated Inhibition Constant, Ki   =    9.67 mM (millimolar)  [Temperature = 298.15 K]
USER    
USER    (1) Final Intermolecular Energy     =   -6.63 kcal/mol
USER        vdW + Hbond + desolv Energy     =   -6.11 kcal/mol
USER        Electrostatic Energy            =   -0.52 kcal/mol
USER    (2) Final Total Internal Energy     =   -3.60 kcal/mol
USER    (3) Torsional Free Energy           =   +3.88 kcal/mol
USER    (4) Unbound System's Energy  [=(2)] =   -3.60 kcal/mol
USER    
USER    
USER  
USER    DPF = D:/Protein_go_brrr/autodock/final/2DN3/heme/dock.dpf
USER    NEWDPF move	heme_opt.pdbqt
USER    NEWDPF about	0.153000 0.018000 -0.028000
USER    NEWDPF tran0	26.475129 37.523686 -3.558388
USER    NEWDPF axisangle0	-0.003021 -0.551392 -0.834241 -72.151064
USER    NEWDPF quaternion0	-0.001779 -0.324688 -0.491244 -0.808241
USER    NEWDPF dihe0	-102.96 122.88 102.03 -172.38 31.68 -115.08 -52.43 29.39 129.13 -118.49 -61.32 43.33 38.83 
USER  
USER                              x       y       z    vdW   Elec        q     RMS 
ATOM      1  O   UNL d   1      25.759  43.055  -5.468 -0.08 -0.04    -0.289    41.759
ATOM      2  O   UNL d   1      22.633  36.615  -7.736 -0.04 -0.05    -0.289    41.759
ATOM      3  N   UNL d   1      26.600  39.994  -4.119 -0.15 -0.04    -0.247    41.759
ATOM      4  N   UNL d   1      24.672  38.131  -5.400 -0.15 -0.02    -0.247    41.759
ATOM      5  N   UNL d   1      25.426  36.157  -3.450 -0.14 +0.01    -0.354    41.759
ATOM      6  N   UNL d   1      27.410  38.103  -2.116 -0.07 -0.04    -0.354    41.759
ATOM      7  C   UNL d   1      27.170  42.323  -3.611 -0.14 +0.02    +0.084    41.759
ATOM      8  C   UNL d   1      23.776  38.774  -7.581 -0.10 +0.01    +0.084    41.759
ATOM      9  C   UNL d   1      24.621  39.125  -6.352 -0.14 +0.01    +0.058    41.759
ATOM     10  C   UNL d   1      27.313  40.834  -3.281 -0.14 +0.01    +0.058    41.759
ATOM     11  C   UNL d   1      26.264  42.174  -4.796 -0.13 +0.03    +0.193    41.759
ATOM     12  C   UNL d   1      26.013  40.715  -5.018 -0.17 +0.02    +0.109    41.759
ATOM     13  C   UNL d   1      23.327  37.412  -7.134 -0.07 +0.03    +0.193    41.759
ATOM     14  C   UNL d   1      26.427  43.086  -2.511 -0.28 +0.01    +0.026    41.759
ATOM     15  C   UNL d   1      25.215  40.318  -6.196 -0.16 +0.01    +0.055    41.759
ATOM     16  C   UNL d   1      24.638  38.621  -8.838 -0.04 +0.00    +0.026    41.759
ATOM     17  C   UNL d   1      23.933  37.144  -5.795 -0.16 +0.01    +0.109    41.759
ATOM     18  C   UNL d   1      28.142  40.406  -2.310 -0.16 +0.01    +0.050    41.759
ATOM     19  C   UNL d   1      28.402  39.049  -1.991 -0.12 +0.01    +0.045    41.759
ATOM     20  C   UNL d   1      24.346  35.530  -4.015 -0.25 -0.00    +0.045    41.759
ATOM     21  C   UNL d   1      23.631  35.892  -5.085 -0.25 -0.00    +0.057    41.759
ATOM     22  C   UNL d   1      25.043  34.318  -2.208 -0.29 +0.00    -0.019    41.759
ATOM     23  C   UNL d   1      25.916  35.500  -2.353 -0.22 +0.00    +0.045    41.759
ATOM     24  C   UNL d   1      24.116  34.341  -3.195 -0.33 +0.00    -0.022    41.759
ATOM     25  C   UNL d   1      27.850  36.878  -1.669 -0.15 +0.01    +0.049    41.759
ATOM     26  C   UNL d   1      29.527  38.416  -1.485 -0.08 -0.00    -0.018    41.759
ATOM     27  C   UNL d   1      29.179  37.042  -1.302 -0.08 +0.00    +0.003    41.759
ATOM     28  C   UNL d   1      26.956  35.780  -1.553 -0.19 +0.01    +0.052    41.759
ATOM     29  C   UNL d   1      23.027  33.362  -3.476 -0.45 -0.02    +0.046    41.759
ATOM     30  C   UNL d   1      30.846  39.046  -1.190 -0.03 +0.01    +0.046    41.759
ATOM     31  H   UNL d   1      25.841  36.978  -3.879 +0.04 +0.01    +0.166    41.759
ATOM     32  H   UNL d   1      26.477  38.310  -2.453 +0.03 +0.02    +0.166    41.759
ATOM     33  C   UNL d   1      28.467  43.035  -4.011 -0.04 +0.02    +0.141    41.759
ATOM     34  C   UNL d   1      28.243  44.473  -4.395 -0.01 +0.05    +0.306    41.759
ATOM     35  O   UNL d   1      28.206  45.424  -3.634 -0.01 -0.05    -0.251    41.759
ATOM     36  O   UNL d   1      28.081  44.636  -5.720 +0.01 -0.06    -0.481    41.759
ATOM     37  H   UNL d   1      27.176  44.301  -5.901 +0.03 +0.04    +0.295    41.759
ATOM     38  C   UNL d   1      30.050  36.032  -0.782 -0.05 +0.00    +0.017    41.759
ATOM     39  C   UNL d   1      30.725  35.137  -1.518 -0.02 +0.03    +0.092    41.759
ATOM     40  C   UNL d   1      31.601  34.163  -0.862 -0.02 +0.15    +0.330    41.759
ATOM     41  O   UNL d   1      32.806  34.046  -0.983 -0.01 -0.08    -0.246    41.759
ATOM     42  O   UNL d   1      30.884  33.368  -0.053 -0.49 -0.54    -0.477    41.759
ATOM     43  H   UNL d   1      30.445  33.992   0.560 +0.03 +0.30    +0.295    41.759
ATOM     44  C   UNL d   1      22.576  39.690  -7.840 -0.17 +0.04    +0.141    41.759
ATOM     45  C   UNL d   1      21.626  39.147  -8.875 -0.08 +0.16    +0.306    41.759
ATOM     46  O   UNL d   1      21.602  39.431 -10.060 -0.13 -0.15    -0.251    41.759
ATOM     47  O   UNL d   1      20.732  38.287  -8.352 -0.09 -0.35    -0.481    41.759
ATOM     48  H   UNL d   1      21.226  37.446  -8.253 +0.11 +0.14    +0.295    41.759
ATOM     49  C   UNL d   1      25.184  33.294  -1.120 +0.10 -0.00    +0.048    41.759
ATOM     50  C   UNL d   1      26.642  32.887  -0.909 -0.16 +0.02    +0.125    41.759
ATOM     51  C   UNL d   1      27.090  33.203   0.490 -0.14 +0.16    +0.305    41.759
ATOM     52  O   UNL d   1      26.393  33.339   1.481 -0.33 -0.07    -0.251    41.759
ATOM     53  O   UNL d   1      28.427  33.346   0.572 +0.02 -0.60    -0.481    41.759
ATOM     54  H   UNL d   1      28.727  33.315  -0.361 +0.05 +0.27    +0.295    41.759
TER
ENDMDL
MODEL       92
USER    Run = 92
USER    Cluster Rank = 55
USER    Number of conformations in this cluster = 1
USER  
USER    RMSD from reference structure       = 28.748 A
USER  
USER    Estimated Free Energy of Binding    =   -2.74 kcal/mol  [=(1)+(2)+(3)-(4)]
USER    Estimated Inhibition Constant, Ki   =    9.81 mM (millimolar)  [Temperature = 298.15 K]
USER    
USER    (1) Final Intermolecular Energy     =   -6.62 kcal/mol
USER        vdW + Hbond + desolv Energy     =   -5.87 kcal/mol
USER        Electrostatic Energy            =   -0.75 kcal/mol
USER    (2) Final Total Internal Energy     =   -4.53 kcal/mol
USER    (3) Torsional Free Energy           =   +3.88 kcal/mol
USER    (4) Unbound System's Energy  [=(2)] =   -4.53 kcal/mol
USER    
USER    
USER  
USER    DPF = D:/Protein_go_brrr/autodock/final/2DN3/heme/dock.dpf
USER    NEWDPF move	heme_opt.pdbqt
USER    NEWDPF about	0.153000 0.018000 -0.028000
USER    NEWDPF tran0	2.012022 31.826498 -6.214665
USER    NEWDPF axisangle0	0.087796 -0.976801 0.195326 81.275883
USER    NEWDPF quaternion0	0.057179 -0.636168 0.127212 0.758840
USER    NEWDPF dihe0	-103.68 -147.58 -135.88 36.81 40.79 79.23 123.35 25.92 114.02 -33.10 -83.42 -96.41 -0.75 
USER  
USER                              x       y       z    vdW   Elec        q     RMS 
ATOM      1  O   UNL d   1       1.963  34.893  -1.180 -0.07 -0.12    -0.289    28.748
ATOM      2  O   UNL d   1      -0.539  27.994  -2.774 -0.41 -0.04    -0.289    28.748
ATOM      3  N   UNL d   1       2.087  33.547  -4.353 -0.06 -0.04    -0.247    28.748
ATOM      4  N   UNL d   1       1.181  30.747  -3.944 -0.06 -0.01    -0.247    28.748
ATOM      5  N   UNL d   1       2.150  30.146  -6.583 -0.05 -0.01    -0.354    28.748
ATOM      6  N   UNL d   1       3.105  33.048  -6.992 -0.03 -0.05    -0.354    28.748
ATOM      7  C   UNL d   1       2.920  35.605  -3.313 -0.08 +0.03    +0.084    28.748
ATOM      8  C   UNL d   1      -0.277  30.312  -2.032 -0.05 +0.00    +0.084    28.748
ATOM      9  C   UNL d   1       0.600  31.291  -2.820 -0.07 +0.00    +0.058    28.748
ATOM     10  C   UNL d   1       2.786  34.725  -4.559 -0.09 +0.01    +0.058    28.748
ATOM     11  C   UNL d   1       2.156  34.725  -2.370 -0.05 +0.06    +0.193    28.748
ATOM     12  C   UNL d   1       1.681  33.522  -3.125 -0.06 +0.02    +0.109    28.748
ATOM     13  C   UNL d   1      -0.056  29.102  -2.896 -0.08 +0.02    +0.193    28.748
ATOM     14  C   UNL d   1       4.370  35.705  -2.833 -0.18 +0.01    +0.026    28.748
ATOM     15  C   UNL d   1       0.821  32.552  -2.419 -0.06 +0.01    +0.055    28.748
ATOM     16  C   UNL d   1      -1.758  30.698  -2.096 -0.01 +0.00    +0.026    28.748
ATOM     17  C   UNL d   1       0.852  29.497  -4.015 -0.13 +0.00    +0.109    28.748
ATOM     18  C   UNL d   1       3.242  35.131  -5.759 -0.11 +0.01    +0.050    28.748
ATOM     19  C   UNL d   1       3.089  34.425  -6.979 -0.10 +0.01    +0.045    28.748
ATOM     20  C   UNL d   1       1.885  28.878  -6.135 -0.19 -0.00    +0.045    28.748
ATOM     21  C   UNL d   1       1.283  28.498  -5.004 -0.08 -0.00    +0.057    28.748
ATOM     22  C   UNL d   1       2.939  28.741  -8.157 -0.20 +0.00    -0.019    28.748
ATOM     23  C   UNL d   1       2.786  30.165  -7.796 -0.17 +0.00    +0.045    28.748
ATOM     24  C   UNL d   1       2.403  27.984  -7.170 -0.24 +0.00    -0.022    28.748
ATOM     25  C   UNL d   1       3.033  32.576  -8.282 -0.14 +0.01    +0.049    28.748
ATOM     26  C   UNL d   1       2.968  34.857  -8.291 -0.09 -0.00    -0.018    28.748
ATOM     27  C   UNL d   1       2.913  33.685  -9.107 -0.11 +0.00    +0.003    28.748
ATOM     28  C   UNL d   1       3.190  31.191  -8.560 -0.20 +0.01    +0.052    28.748
ATOM     29  C   UNL d   1       2.306  26.499  -7.082 -0.22 -0.03    +0.046    28.748
ATOM     30  C   UNL d   1       2.904  36.271  -8.760 -0.05 +0.01    +0.046    28.748
ATOM     31  H   UNL d   1       1.821  30.962  -6.078 +0.04 +0.01    +0.166    28.748
ATOM     32  H   UNL d   1       3.198  32.482  -6.157 +0.04 +0.02    +0.166    28.748
ATOM     33  C   UNL d   1       2.263  36.986  -3.411 -0.06 +0.07    +0.141    28.748
ATOM     34  C   UNL d   1       2.038  37.617  -2.064 +0.02 +0.35    +0.306    28.748
ATOM     35  O   UNL d   1       2.782  38.405  -1.504 -0.31 -0.37    -0.251    28.748
ATOM     36  O   UNL d   1       0.886  37.224  -1.493 -0.42 -0.83    -0.481    28.748
ATOM     37  H   UNL d   1       1.057  36.303  -1.200 +0.04 +0.31    +0.295    28.748
ATOM     38  C   UNL d   1       2.803  33.678 -10.535 -0.11 +0.01    +0.017    28.748
ATOM     39  C   UNL d   1       3.691  33.129 -11.377 -0.12 +0.06    +0.092    28.748
ATOM     40  C   UNL d   1       3.452  33.175 -12.822 -0.03 +0.28    +0.330    28.748
ATOM     41  O   UNL d   1       3.606  34.120 -13.572 -0.07 -0.13    -0.246    28.748
ATOM     42  O   UNL d   1       3.025  31.979 -13.257 -0.29 -0.63    -0.477    28.748
ATOM     43  H   UNL d   1       2.515  31.622 -12.501 +0.03 +0.30    +0.295    28.748
ATOM     44  C   UNL d   1       0.164  30.044  -0.589 -0.07 +0.00    +0.141    28.748
ATOM     45  C   UNL d   1       1.248  29.005  -0.483 -0.10 -0.01    +0.306    28.748
ATOM     46  O   UNL d   1       2.437  29.171  -0.689 -0.17 +0.02    -0.251    28.748
ATOM     47  O   UNL d   1       0.768  27.794  -0.145 -0.05 +0.02    -0.481    28.748
ATOM     48  H   UNL d   1      -0.038  27.685  -0.693 +0.06 +0.02    +0.295    28.748
ATOM     49  C   UNL d   1       3.602  28.257  -9.413 -0.23 +0.00    +0.048    28.748
ATOM     50  C   UNL d   1       2.636  28.244 -10.597 -0.08 +0.03    +0.125    28.748
ATOM     51  C   UNL d   1       2.793  29.483 -11.432 -0.05 +0.24    +0.305    28.748
ATOM     52  O   UNL d   1       3.747  30.241 -11.464 -0.45 -0.41    -0.251    28.748
ATOM     53  O   UNL d   1       1.707  29.719 -12.194 -0.05 -0.28    -0.481    28.748
ATOM     54  H   UNL d   1       2.075  30.080 -13.028 +0.02 +0.27    +0.295    28.748
TER
ENDMDL
MODEL       32
USER    Run = 32
USER    Cluster Rank = 56
USER    Number of conformations in this cluster = 1
USER  
USER    RMSD from reference structure       = 42.569 A
USER  
USER    Estimated Free Energy of Binding    =   -2.72 kcal/mol  [=(1)+(2)+(3)-(4)]
USER    Estimated Inhibition Constant, Ki   =   10.17 mM (millimolar)  [Temperature = 298.15 K]
USER    
USER    (1) Final Intermolecular Energy     =   -6.60 kcal/mol
USER        vdW + Hbond + desolv Energy     =   -6.40 kcal/mol
USER        Electrostatic Energy            =   -0.20 kcal/mol
USER    (2) Final Total Internal Energy     =   -3.95 kcal/mol
USER    (3) Torsional Free Energy           =   +3.88 kcal/mol
USER    (4) Unbound System's Energy  [=(2)] =   -3.95 kcal/mol
USER    
USER    
USER  
USER    DPF = D:/Protein_go_brrr/autodock/final/2DN3/heme/dock.dpf
USER    NEWDPF move	heme_opt.pdbqt
USER    NEWDPF about	0.153000 0.018000 -0.028000
USER    NEWDPF tran0	24.918588 39.828057 -5.347656
USER    NEWDPF axisangle0	-0.749399 -0.613319 -0.249482 135.865054
USER    NEWDPF quaternion0	-0.694499 -0.568389 -0.231205 0.375698
USER    NEWDPF dihe0	-105.90 180.00 133.85 -9.38 41.87 91.65 -37.89 -15.80 134.03 -119.86 69.17 -123.28 119.01 
USER  
USER                              x       y       z    vdW   Elec        q     RMS 
ATOM      1  O   UNL d   1      25.058  34.135  -3.824 -0.09 +0.04    -0.289    42.569
ATOM      2  O   UNL d   1      20.097  38.025  -7.904 -0.40 -0.24    -0.289    42.569
ATOM      3  N   UNL d   1      25.325  37.533  -4.347 -0.20 -0.01    -0.247    42.569
ATOM      4  N   UNL d   1      23.140  38.101  -6.278 -0.12 -0.04    -0.247    42.569
ATOM      5  N   UNL d   1      24.338  40.675  -6.735 -0.05 -0.07    -0.354    42.569
ATOM      6  N   UNL d   1      26.612  40.070  -4.744 -0.10 -0.05    -0.354    42.569
ATOM      7  C   UNL d   1      26.737  35.830  -3.292 -0.13 +0.00    +0.084    42.569
ATOM      8  C   UNL d   1      21.222  36.586  -6.274 -0.25 +0.02    +0.084    42.569
ATOM      9  C   UNL d   1      22.622  36.936  -5.758 -0.17 +0.01    +0.058    42.569
ATOM     10  C   UNL d   1      26.522  37.292  -3.693 -0.21 +0.00    +0.058    42.569
ATOM     11  C   UNL d   1      25.440  35.290  -3.817 -0.13 -0.01    +0.193    42.569
ATOM     12  C   UNL d   1      24.663  36.424  -4.410 -0.20 -0.00    +0.109    42.569
ATOM     13  C   UNL d   1      21.058  37.748  -7.213 -0.21 +0.07    +0.193    42.569
ATOM     14  C   UNL d   1      27.891  35.185  -4.064 -0.05 +0.00    +0.026    42.569
ATOM     15  C   UNL d   1      23.302  36.147  -4.911 -0.24 -0.00    +0.055    42.569
ATOM     16  C   UNL d   1      20.167  36.692  -5.170 -0.44 +0.01    +0.026    42.569
ATOM     17  C   UNL d   1      22.292  38.587  -7.127 -0.19 +0.03    +0.109    42.569
ATOM     18  C   UNL d   1      27.399  38.253  -3.346 -0.20 +0.01    +0.050    42.569
ATOM     19  C   UNL d   1      27.243  39.639  -3.599 -0.17 +0.01    +0.045    42.569
ATOM     20  C   UNL d   1      23.406  40.667  -7.740 -0.13 +0.01    +0.045    42.569
ATOM     21  C   UNL d   1      22.434  39.780  -7.975 -0.21 +0.02    +0.057    42.569
ATOM     22  C   UNL d   1      24.739  42.505  -7.984 -0.06 -0.00    -0.019    42.569
ATOM     23  C   UNL d   1      25.188  41.746  -6.800 -0.11 +0.01    +0.045    42.569
ATOM     24  C   UNL d   1      23.683  41.862  -8.536 -0.08 -0.00    -0.022    42.569
ATOM     25  C   UNL d   1      26.652  41.442  -4.832 -0.16 +0.01    +0.049    42.569
ATOM     26  C   UNL d   1      27.672  40.761  -2.906 -0.14 -0.00    -0.018    42.569
ATOM     27  C   UNL d   1      27.279  41.897  -3.680 -0.16 +0.00    +0.003    42.569
ATOM     28  C   UNL d   1      26.204  42.111  -6.002 -0.11 +0.01    +0.052    42.569
ATOM     29  C   UNL d   1      22.881  42.242  -9.734 -0.08 +0.01    +0.046    42.569
ATOM     30  C   UNL d   1      28.399  40.780  -1.605 -0.12 +0.01    +0.046    42.569
ATOM     31  H   UNL d   1      24.316  39.984  -5.993 +0.05 +0.04    +0.166    42.569
ATOM     32  H   UNL d   1      26.216  39.443  -5.435 +0.03 +0.02    +0.166    42.569
ATOM     33  C   UNL d   1      26.855  35.573  -1.785 -0.17 +0.01    +0.141    42.569
ATOM     34  C   UNL d   1      27.105  34.124  -1.463 -0.07 +0.05    +0.306    42.569
ATOM     35  O   UNL d   1      28.190  33.609  -1.256 -0.06 -0.10    -0.251    42.569
ATOM     36  O   UNL d   1      25.972  33.401  -1.415 -0.04 -0.01    -0.481    42.569
ATOM     37  H   UNL d   1      25.684  33.332  -2.350 +0.12 -0.02    +0.295    42.569
ATOM     38  C   UNL d   1      27.539  43.262  -3.333 -0.13 +0.00    +0.017    42.569
ATOM     39  C   UNL d   1      28.598  43.976  -3.744 -0.03 +0.02    +0.092    42.569
ATOM     40  C   UNL d   1      28.740  45.375  -3.330 +0.00 +0.07    +0.330    42.569
ATOM     41  O   UNL d   1      29.298  45.804  -2.338 -0.01 -0.07    -0.246    42.569
ATOM     42  O   UNL d   1      28.157  46.183  -4.228 +0.01 -0.08    -0.477    42.569
ATOM     43  H   UNL d   1      27.806  45.568  -4.905 +0.02 +0.04    +0.295    42.569
ATOM     44  C   UNL d   1      21.109  35.255  -7.024 -0.23 +0.02    +0.141    42.569
ATOM     45  C   UNL d   1      19.787  35.077  -7.722 -0.23 +0.08    +0.306    42.569
ATOM     46  O   UNL d   1      18.745  34.695  -7.218 -0.77 -0.07    -0.251    42.569
ATOM     47  O   UNL d   1      19.855  35.365  -9.034 -0.08 -0.22    -0.481    42.569
ATOM     48  H   UNL d   1      20.335  36.219  -9.076 +0.11 +0.18    +0.295    42.569
ATOM     49  C   UNL d   1      25.388  43.768  -8.471 -0.02 +0.01    +0.048    42.569
ATOM     50  C   UNL d   1      26.902  43.746  -8.266 -0.01 +0.01    +0.125    42.569
ATOM     51  C   UNL d   1      27.313  44.714  -7.193 -0.00 +0.03    +0.305    42.569
ATOM     52  O   UNL d   1      26.697  45.688  -6.796 -0.00 -0.02    -0.251    42.569
ATOM     53  O   UNL d   1      28.516  44.406  -6.669 +0.00 -0.06    -0.481    42.569
ATOM     54  H   UNL d   1      28.739  45.182  -6.114 +0.00 +0.04    +0.295    42.569
TER
ENDMDL
MODEL       24
USER    Run = 24
USER    Cluster Rank = 57
USER    Number of conformations in this cluster = 1
USER  
USER    RMSD from reference structure       = 35.885 A
USER  
USER    Estimated Free Energy of Binding    =   -2.68 kcal/mol  [=(1)+(2)+(3)-(4)]
USER    Estimated Inhibition Constant, Ki   =   10.80 mM (millimolar)  [Temperature = 298.15 K]
USER    
USER    (1) Final Intermolecular Energy     =   -6.56 kcal/mol
USER        vdW + Hbond + desolv Energy     =   -6.28 kcal/mol
USER        Electrostatic Energy            =   -0.28 kcal/mol
USER    (2) Final Total Internal Energy     =   -4.77 kcal/mol
USER    (3) Torsional Free Energy           =   +3.88 kcal/mol
USER    (4) Unbound System's Energy  [=(2)] =   -4.77 kcal/mol
USER    
USER    
USER  
USER    DPF = D:/Protein_go_brrr/autodock/final/2DN3/heme/dock.dpf
USER    NEWDPF move	heme_opt.pdbqt
USER    NEWDPF about	0.153000 0.018000 -0.028000
USER    NEWDPF tran0	8.404149 36.812988 -12.426146
USER    NEWDPF axisangle0	-0.431946 0.370152 -0.822441 75.534207
USER    NEWDPF quaternion0	-0.264547 0.226701 -0.503707 0.790507
USER    NEWDPF dihe0	-180.00 164.95 -117.87 -40.29 -152.81 68.32 126.01 -97.65 11.84 -36.38 -95.93 -60.78 -15.51 
USER  
USER                              x       y       z    vdW   Elec        q     RMS 
ATOM      1  O   UNL d   1       4.610  33.194 -15.121 -0.24 -0.27    -0.289    35.885
ATOM      2  O   UNL d   1      11.954  34.328 -16.202 -0.10 -0.01    -0.289    35.885
ATOM      3  N   UNL d   1       6.414  35.552 -13.366 -0.07 -0.07    -0.247    35.885
ATOM      4  N   UNL d   1       9.212  35.061 -14.240 -0.11 -0.02    -0.247    35.885
ATOM      5  N   UNL d   1      10.086  36.710 -12.054 -0.09 +0.02    -0.354    35.885
ATOM      6  N   UNL d   1       7.183  37.198 -11.142 -0.05 -0.02    -0.354    35.885
ATOM      7  C   UNL d   1       4.122  34.692 -13.252 -0.08 +0.04    +0.084    35.885
ATOM      8  C   UNL d   1       9.534  34.052 -16.442 -0.06 +0.01    +0.084    35.885
ATOM      9  C   UNL d   1       8.582  34.501 -15.329 -0.11 +0.01    +0.058    35.885
ATOM     10  C   UNL d   1       5.200  35.633 -12.706 -0.09 +0.02    +0.058    35.885
ATOM     11  C   UNL d   1       4.937  34.077 -14.350 -0.01 +0.12    +0.193    35.885
ATOM     12  C   UNL d   1       6.299  34.700 -14.332 -0.03 +0.05    +0.109    35.885
ATOM     13  C   UNL d   1      10.823  34.428 -15.768 -0.08 +0.01    +0.193    35.885
ATOM     14  C   UNL d   1       3.747  33.602 -12.245 -0.11 +0.02    +0.026    35.885
ATOM     15  C   UNL d   1       7.254  34.314 -15.390 -0.10 +0.02    +0.055    35.885
ATOM     16  C   UNL d   1       9.372  34.904 -17.705 -0.02 +0.00    +0.026    35.885
ATOM     17  C   UNL d   1      10.490  35.022 -14.438 -0.16 -0.00    +0.109    35.885
ATOM     18  C   UNL d   1       4.931  36.516 -11.726 -0.08 +0.01    +0.050    35.885
ATOM     19  C   UNL d   1       5.837  37.481 -11.217 -0.06 +0.00    +0.045    35.885
ATOM     20  C   UNL d   1      11.291  36.194 -12.456 -0.25 -0.00    +0.045    35.885
ATOM     21  C   UNL d   1      11.565  35.446 -13.529 -0.25 -0.00    +0.057    35.885
ATOM     22  C   UNL d   1      11.602  37.374 -10.525 -0.28 +0.00    -0.019    35.885
ATOM     23  C   UNL d   1      10.174  37.437 -10.896 -0.16 -0.00    +0.045    35.885
ATOM     24  C   UNL d   1      12.258  36.638 -11.453 -0.31 +0.00    -0.022    35.885
ATOM     25  C   UNL d   1       7.860  38.231 -10.537 -0.09 -0.00    +0.049    35.885
ATOM     26  C   UNL d   1       5.641  38.744 -10.681 -0.03 -0.00    -0.018    35.885
ATOM     27  C   UNL d   1       6.925  39.221 -10.271 -0.04 -0.00    +0.003    35.885
ATOM     28  C   UNL d   1       9.237  38.105 -10.205 -0.03 -0.00    +0.052    35.885
ATOM     29  C   UNL d   1      13.708  36.301 -11.521 -0.29 -0.00    +0.046    35.885
ATOM     30  C   UNL d   1       4.343  39.467 -10.558 -0.01 +0.00    +0.046    35.885
ATOM     31  H   UNL d   1       9.254  36.610 -12.624 +0.04 -0.00    +0.166    35.885
ATOM     32  H   UNL d   1       7.590  36.326 -11.457 +0.04 +0.02    +0.166    35.885
ATOM     33  C   UNL d   1       2.879  35.379 -13.826 -0.02 +0.04    +0.141    35.885
ATOM     34  C   UNL d   1       3.203  36.303 -14.968 -0.00 +0.05    +0.306    35.885
ATOM     35  O   UNL d   1       3.333  37.514 -14.902 -0.00 -0.03    -0.251    35.885
ATOM     36  O   UNL d   1       3.350  35.652 -16.136 +0.01 -0.09    -0.481    35.885
ATOM     37  H   UNL d   1       3.240  34.705 -15.906 +0.02 +0.08    +0.295    35.885
ATOM     38  C   UNL d   1       7.175  40.486  -9.649 -0.04 -0.00    +0.017    35.885
ATOM     39  C   UNL d   1       8.226  40.769  -8.865 -0.11 -0.02    +0.092    35.885
ATOM     40  C   UNL d   1       8.376  42.114  -8.302 -0.14 -0.12    +0.330    35.885
ATOM     41  O   UNL d   1       7.662  42.660  -7.482 -0.16 +0.03    -0.246    35.885
ATOM     42  O   UNL d   1       9.462  42.712  -8.816 -0.15 +0.43    -0.477    35.885
ATOM     43  H   UNL d   1       9.962  41.977  -9.226 -0.02 -0.33    +0.295    35.885
ATOM     44  C   UNL d   1       9.504  32.557 -16.775 -0.08 +0.02    +0.141    35.885
ATOM     45  C   UNL d   1      10.413  31.735 -15.900 -0.05 +0.05    +0.306    35.885
ATOM     46  O   UNL d   1      10.168  31.327 -14.778 -0.54 -0.02    -0.251    35.885
ATOM     47  O   UNL d   1      11.603  31.493 -16.479 -0.44 -0.06    -0.481    35.885
ATOM     48  H   UNL d   1      11.997  32.381 -16.617 +0.05 +0.03    +0.295    35.885
ATOM     49  C   UNL d   1      12.183  38.020  -9.302 -0.34 -0.01    +0.048    35.885
ATOM     50  C   UNL d   1      12.847  39.358  -9.626 -0.34 -0.04    +0.125    35.885
ATOM     51  C   UNL d   1      11.838  40.471  -9.631 -0.17 -0.26    +0.305    35.885
ATOM     52  O   UNL d   1      11.351  41.028 -10.599 -0.15 +0.23    -0.251    35.885
ATOM     53  O   UNL d   1      11.493  40.844  -8.383 +0.07 +0.60    -0.481    35.885
ATOM     54  H   UNL d   1      11.444  41.821  -8.431 -0.34 -0.82    +0.295    35.885
TER
ENDMDL
MODEL       81
USER    Run = 81
USER    Cluster Rank = 58
USER    Number of conformations in this cluster = 1
USER  
USER    RMSD from reference structure       = 61.986 A
USER  
USER    Estimated Free Energy of Binding    =   -2.65 kcal/mol  [=(1)+(2)+(3)-(4)]
USER    Estimated Inhibition Constant, Ki   =   11.39 mM (millimolar)  [Temperature = 298.15 K]
USER    
USER    (1) Final Intermolecular Energy     =   -6.53 kcal/mol
USER        vdW + Hbond + desolv Energy     =   -6.39 kcal/mol
USER        Electrostatic Energy            =   -0.14 kcal/mol
USER    (2) Final Total Internal Energy     =   -4.04 kcal/mol
USER    (3) Torsional Free Energy           =   +3.88 kcal/mol
USER    (4) Unbound System's Energy  [=(2)] =   -4.04 kcal/mol
USER    
USER    
USER  
USER    DPF = D:/Protein_go_brrr/autodock/final/2DN3/heme/dock.dpf
USER    NEWDPF move	heme_opt.pdbqt
USER    NEWDPF about	0.153000 0.018000 -0.028000
USER    NEWDPF tran0	35.846284 51.415979 22.004990
USER    NEWDPF axisangle0	0.073932 0.494378 0.866097 -131.642874
USER    NEWDPF quaternion0	0.067446 0.451008 0.790118 -0.409582
USER    NEWDPF dihe0	119.64 -159.72 119.45 -23.61 -130.60 -71.98 -21.68 -82.97 32.77 144.42 -91.85 9.26 -13.49 
USER  
USER                              x       y       z    vdW   Elec        q     RMS 
ATOM      1  O   UNL d   1      38.842  47.434  25.155 -0.02 -0.02    -0.289    61.986
ATOM      2  O   UNL d   1      39.678  49.745  18.060 -0.31 -0.17    -0.289    61.986
ATOM      3  N   UNL d   1      36.732  49.726  23.677 -0.07 -0.02    -0.247    61.986
ATOM      4  N   UNL d   1      38.008  50.228  21.041 -0.07 -0.04    -0.247    61.986
ATOM      5  N   UNL d   1      36.286  52.512  20.746 -0.07 -0.06    -0.354    61.986
ATOM      6  N   UNL d   1      34.981  51.995  23.490 -0.04 -0.04    -0.354    61.986
ATOM      7  C   UNL d   1      36.991  48.824  25.941 -0.08 +0.00    +0.084    61.986
ATOM      8  C   UNL d   1      39.404  48.448  20.118 -0.22 +0.02    +0.084    61.986
ATOM      9  C   UNL d   1      38.569  48.994  21.281 -0.13 +0.01    +0.058    61.986
ATOM     10  C   UNL d   1      36.259  49.763  24.978 -0.11 +0.00    +0.058    61.986
ATOM     11  C   UNL d   1      37.950  48.237  24.950 -0.03 +0.01    +0.193    61.986
ATOM     12  C   UNL d   1      37.675  48.845  23.609 -0.09 +0.01    +0.109    61.986
ATOM     13  C   UNL d   1      39.243  49.618  19.188 -0.19 +0.07    +0.193    61.986
ATOM     14  C   UNL d   1      37.784  49.593  27.001 -0.03 +0.00    +0.026    61.986
ATOM     15  C   UNL d   1      38.442  48.347  22.449 -0.14 +0.01    +0.055    61.986
ATOM     16  C   UNL d   1      38.752  47.218  19.479 -0.29 +0.01    +0.026    61.986
ATOM     17  C   UNL d   1      38.382  50.631  19.869 -0.16 +0.03    +0.109    61.986
ATOM     18  C   UNL d   1      35.191  50.482  25.373 -0.14 +0.00    +0.050    61.986
ATOM     19  C   UNL d   1      34.401  51.310  24.534 -0.10 +0.00    +0.045    61.986
ATOM     20  C   UNL d   1      37.131  52.716  19.686 -0.15 +0.01    +0.045    61.986
ATOM     21  C   UNL d   1      38.085  51.911  19.209 -0.15 +0.02    +0.057    61.986
ATOM     22  C   UNL d   1      35.765  54.534  19.902 -0.10 -0.00    -0.019    61.986
ATOM     23  C   UNL d   1      35.424  53.556  20.954 -0.12 +0.01    +0.045    61.986
ATOM     24  C   UNL d   1      36.775  54.031  19.154 -0.13 -0.01    -0.022    61.986
ATOM     25  C   UNL d   1      34.055  52.802  22.870 -0.14 +0.01    +0.049    61.986
ATOM     26  C   UNL d   1      33.059  51.652  24.571 -0.11 -0.00    -0.018    61.986
ATOM     27  C   UNL d   1      32.842  52.580  23.505 -0.21 +0.00    +0.003    61.986
ATOM     28  C   UNL d   1      34.451  53.724  21.863 -0.12 +0.01    +0.052    61.986
ATOM     29  C   UNL d   1      37.454  54.638  17.974 -0.09 +0.01    +0.046    61.986
ATOM     30  C   UNL d   1      32.037  51.149  25.533 -0.19 +0.01    +0.046    61.986
ATOM     31  H   UNL d   1      36.275  51.631  21.248 +0.05 +0.02    +0.166    61.986
ATOM     32  H   UNL d   1      35.964  51.931  23.254 +0.04 +0.02    +0.166    61.986
ATOM     33  C   UNL d   1      36.128  47.726  26.571 -0.16 +0.01    +0.141    61.986
ATOM     34  C   UNL d   1      35.920  46.554  25.651 -0.14 +0.02    +0.306    61.986
ATOM     35  O   UNL d   1      35.161  46.513  24.697 -0.61 +0.00    -0.251    61.986
ATOM     36  O   UNL d   1      36.680  45.495  25.979 -0.09 -0.03    -0.481    61.986
ATOM     37  H   UNL d   1      37.603  45.809  25.867 +0.12 +0.02    +0.295    61.986
ATOM     38  C   UNL d   1      31.590  53.200  23.193 -0.23 +0.00    +0.017    61.986
ATOM     39  C   UNL d   1      31.065  53.312  21.963 -0.23 +0.02    +0.092    61.986
ATOM     40  C   UNL d   1      29.762  53.957  21.781 -0.11 +0.12    +0.330    61.986
ATOM     41  O   UNL d   1      28.666  53.507  22.054 -0.15 -0.16    -0.246    61.986
ATOM     42  O   UNL d   1      29.922  55.180  21.253 -0.02 -0.11    -0.477    61.986
ATOM     43  H   UNL d   1      30.814  55.147  20.849 +0.06 +0.06    +0.295    61.986
ATOM     44  C   UNL d   1      40.883  48.194  20.428 -0.17 +0.02    +0.141    61.986
ATOM     45  C   UNL d   1      41.170  46.771  20.828 -0.17 +0.04    +0.306    61.986
ATOM     46  O   UNL d   1      40.777  46.205  21.833 -0.16 -0.03    -0.251    61.986
ATOM     47  O   UNL d   1      41.966  46.139  19.946 -0.14 -0.05    -0.481    61.986
ATOM     48  H   UNL d   1      41.459  46.145  19.106 -0.17 -0.01    +0.295    61.986
ATOM     49  C   UNL d   1      35.089  55.863  19.736 -0.06 +0.01    +0.048    61.986
ATOM     50  C   UNL d   1      33.984  55.811  18.681 -0.10 +0.02    +0.125    61.986
ATOM     51  C   UNL d   1      32.671  55.420  19.298 -0.08 +0.04    +0.305    61.986
ATOM     52  O   UNL d   1      32.228  54.295  19.451 -0.12 -0.04    -0.251    61.986
ATOM     53  O   UNL d   1      31.958  56.494  19.691 -0.00 -0.06    -0.481    61.986
ATOM     54  H   UNL d   1      31.031  56.176  19.695 +0.05 +0.04    +0.295    61.986
TER
ENDMDL
MODEL       55
USER    Run = 55
USER    Cluster Rank = 59
USER    Number of conformations in this cluster = 1
USER  
USER    RMSD from reference structure       = 49.065 A
USER  
USER    Estimated Free Energy of Binding    =   -2.63 kcal/mol  [=(1)+(2)+(3)-(4)]
USER    Estimated Inhibition Constant, Ki   =   11.81 mM (millimolar)  [Temperature = 298.15 K]
USER    
USER    (1) Final Intermolecular Energy     =   -6.51 kcal/mol
USER        vdW + Hbond + desolv Energy     =   -6.37 kcal/mol
USER        Electrostatic Energy            =   -0.14 kcal/mol
USER    (2) Final Total Internal Energy     =   -3.82 kcal/mol
USER    (3) Torsional Free Energy           =   +3.88 kcal/mol
USER    (4) Unbound System's Energy  [=(2)] =   -3.82 kcal/mol
USER    
USER    
USER  
USER    DPF = D:/Protein_go_brrr/autodock/final/2DN3/heme/dock.dpf
USER    NEWDPF move	heme_opt.pdbqt
USER    NEWDPF about	0.153000 0.018000 -0.028000
USER    NEWDPF tran0	17.864079 38.674048 30.087412
USER    NEWDPF axisangle0	0.278686 0.875545 -0.394657 -144.567623
USER    NEWDPF quaternion0	0.265470 0.834023 -0.375941 -0.304302
USER    NEWDPF dihe0	-133.77 152.43 -127.57 -88.30 47.57 -6.65 124.77 -29.81 152.21 -17.53 122.81 -20.69 37.73 
USER  
USER                              x       y       z    vdW   Elec        q     RMS 
ATOM      1  O   UNL d   1      22.979  37.936  32.924 -0.05 -0.02    -0.289    49.065
ATOM      2  O   UNL d   1      15.914  36.558  35.063 -0.00 -0.01    -0.289    49.065
ATOM      3  N   UNL d   1      20.252  38.665  30.943 -0.08 -0.02    -0.247    49.065
ATOM      4  N   UNL d   1      17.974  37.513  32.465 -0.06 -0.03    -0.247    49.065
ATOM      5  N   UNL d   1      16.360  37.828  30.107 -0.08 +0.00    -0.354    49.065
ATOM      6  N   UNL d   1      18.733  39.004  28.530 -0.10 -0.06    -0.354    49.065
ATOM      7  C   UNL d   1      22.682  38.740  30.635 -0.15 -0.00    +0.084    49.065
ATOM      8  C   UNL d   1      18.237  37.307  34.885 -0.02 +0.01    +0.084    49.065
ATOM      9  C   UNL d   1      18.846  37.652  33.522 -0.06 +0.01    +0.058    49.065
ATOM     10  C   UNL d   1      21.279  38.953  30.060 -0.17 +0.00    +0.058    49.065
ATOM     11  C   UNL d   1      22.267  38.298  32.006 -0.07 +0.01    +0.193    49.065
ATOM     12  C   UNL d   1      20.771  38.319  32.076 -0.09 +0.01    +0.109    49.065
ATOM     13  C   UNL d   1      16.871  36.911  34.402 -0.01 +0.01    +0.193    49.065
ATOM     14  C   UNL d   1      23.417  37.588  29.945 -0.24 -0.00    +0.026    49.065
ATOM     15  C   UNL d   1      20.130  38.008  33.370 -0.08 +0.01    +0.055    49.065
ATOM     16  C   UNL d   1      18.104  38.545  35.777 -0.01 +0.00    +0.026    49.065
ATOM     17  C   UNL d   1      16.844  37.073  32.917 -0.05 +0.01    +0.109    49.065
ATOM     18  C   UNL d   1      21.094  39.465  28.829 -0.31 -0.00    +0.050    49.065
ATOM     19  C   UNL d   1      19.838  39.774  28.247 -0.27 -0.00    +0.045    49.065
ATOM     20  C   UNL d   1      15.508  37.079  30.877 -0.12 -0.00    +0.045    49.065
ATOM     21  C   UNL d   1      15.637  36.715  32.157 -0.07 +0.00    +0.057    49.065
ATOM     22  C   UNL d   1      14.617  37.292  28.784 -0.28 +0.01    -0.019    49.065
ATOM     23  C   UNL d   1      15.907  38.009  28.827 -0.27 -0.01    +0.045    49.065
ATOM     24  C   UNL d   1      14.386  36.745  30.001 -0.18 +0.00    -0.022    49.065
ATOM     25  C   UNL d   1      17.650  39.424  27.792 -0.18 +0.00    +0.049    49.065
ATOM     26  C   UNL d   1      19.456  40.741  27.330 -0.30 +0.00    -0.018    49.065
ATOM     27  C   UNL d   1      18.068  40.528  27.062 -0.28 -0.00    +0.003    49.065
ATOM     28  C   UNL d   1      16.435  38.686  27.796 -0.26 -0.01    +0.052    49.065
ATOM     29  C   UNL d   1      13.216  35.940  30.455 -0.11 -0.01    +0.046    49.065
ATOM     30  C   UNL d   1      20.322  41.801  26.740 -0.15 -0.01    +0.046    49.065
ATOM     31  H   UNL d   1      17.191  38.254  30.503 +0.04 +0.01    +0.166    49.065
ATOM     32  H   UNL d   1      18.747  38.216  29.165 +0.05 +0.05    +0.166    49.065
ATOM     33  C   UNL d   1      23.556  39.997  30.717 -0.11 -0.02    +0.141    49.065
ATOM     34  C   UNL d   1      25.022  39.676  30.824 -0.12 -0.09    +0.306    49.065
ATOM     35  O   UNL d   1      25.839  39.730  29.920 -0.55 +0.12    -0.251    49.065
ATOM     36  O   UNL d   1      25.383  39.306  32.066 -0.01 +0.14    -0.481    49.065
ATOM     37  H   UNL d   1      24.675  38.691  32.355 +0.07 -0.05    +0.295    49.065
ATOM     38  C   UNL d   1      17.275  41.300  26.154 -0.32 -0.00    +0.017    49.065
ATOM     39  C   UNL d   1      15.934  41.313  26.115 -0.25 -0.02    +0.092    49.065
ATOM     40  C   UNL d   1      15.239  42.164  25.145 -0.14 -0.09    +0.330    49.065
ATOM     41  O   UNL d   1      15.723  43.011  24.419 -0.19 +0.06    -0.246    49.065
ATOM     42  O   UNL d   1      13.927  41.881  25.139 -0.05 +0.15    -0.477    49.065
ATOM     43  H   UNL d   1      13.888  40.943  25.417 -0.02 -0.12    +0.295    49.065
ATOM     44  C   UNL d   1      18.910  36.153  35.636 -0.02 +0.02    +0.141    49.065
ATOM     45  C   UNL d   1      18.728  34.819  34.961 -0.03 +0.07    +0.306    49.065
ATOM     46  O   UNL d   1      19.366  34.390  34.016 -0.10 -0.12    -0.251    49.065
ATOM     47  O   UNL d   1      17.725  34.102  35.500 +0.00 -0.08    -0.481    49.065
ATOM     48  H   UNL d   1      16.957  34.713  35.503 +0.01 +0.03    +0.295    49.065
ATOM     49  C   UNL d   1      13.745  37.197  27.566 -0.24 -0.04    +0.048    49.065
ATOM     50  C   UNL d   1      13.588  38.550  26.872 -0.29 -0.06    +0.125    49.065
ATOM     51  C   UNL d   1      13.047  39.580  27.822 -0.06 -0.08    +0.305    49.065
ATOM     52  O   UNL d   1      12.228  39.416  28.709 -0.03 +0.05    -0.251    49.065
ATOM     53  O   UNL d   1      13.569  40.801  27.593 +0.00 +0.09    -0.481    49.065
ATOM     54  H   UNL d   1      12.944  41.213  26.961 +0.06 -0.06    +0.295    49.065
TER
ENDMDL
MODEL       44
USER    Run = 44
USER    Cluster Rank = 60
USER    Number of conformations in this cluster = 1
USER  
USER    RMSD from reference structure       = 39.919 A
USER  
USER    Estimated Free Energy of Binding    =   -2.63 kcal/mol  [=(1)+(2)+(3)-(4)]
USER    Estimated Inhibition Constant, Ki   =   11.83 mM (millimolar)  [Temperature = 298.15 K]
USER    
USER    (1) Final Intermolecular Energy     =   -6.51 kcal/mol
USER        vdW + Hbond + desolv Energy     =   -6.44 kcal/mol
USER        Electrostatic Energy            =   -0.06 kcal/mol
USER    (2) Final Total Internal Energy     =   -4.59 kcal/mol
USER    (3) Torsional Free Energy           =   +3.88 kcal/mol
USER    (4) Unbound System's Energy  [=(2)] =   -4.59 kcal/mol
USER    
USER    
USER  
USER    DPF = D:/Protein_go_brrr/autodock/final/2DN3/heme/dock.dpf
USER    NEWDPF move	heme_opt.pdbqt
USER    NEWDPF about	0.153000 0.018000 -0.028000
USER    NEWDPF tran0	37.589462 13.138515 18.344257
USER    NEWDPF axisangle0	0.509539 -0.747292 -0.426526 118.835736
USER    NEWDPF quaternion0	0.438663 -0.643344 -0.367197 0.508773
USER    NEWDPF dihe0	-117.63 180.00 -110.12 -45.59 64.56 -1.80 120.23 -106.15 153.58 -37.33 -96.67 -12.25 -15.77 
USER  
USER                              x       y       z    vdW   Elec        q     RMS 
ATOM      1  O   UNL d   1      36.767  15.388  23.731 -0.22 +0.10    -0.289    39.919
ATOM      2  O   UNL d   1      41.869  10.520  21.149 -0.01 -0.02    -0.289    39.919
ATOM      3  N   UNL d   1      36.775  14.240  20.479 -0.13 -0.01    -0.247    39.919
ATOM      4  N   UNL d   1      39.277  12.643  20.324 -0.07 -0.02    -0.247    39.919
ATOM      5  N   UNL d   1      38.988  12.640  17.464 -0.04 -0.05    -0.354    39.919
ATOM      6  N   UNL d   1      36.404  14.313  17.632 -0.13 -0.06    -0.354    39.919
ATOM      7  C   UNL d   1      35.489  15.920  21.717 -0.29 -0.01    +0.084    39.919
ATOM      8  C   UNL d   1      40.120  11.683  22.407 -0.07 -0.00    +0.084    39.919
ATOM      9  C   UNL d   1      39.107  12.581  21.689 -0.14 -0.00    +0.058    39.919
ATOM     10  C   UNL d   1      35.773  15.192  20.399 -0.26 +0.00    +0.058    39.919
ATOM     11  C   UNL d   1      36.496  15.197  22.560 -0.20 -0.04    +0.193    39.919
ATOM     12  C   UNL d   1      37.193  14.186  21.702 -0.12 -0.01    +0.109    39.919
ATOM     13  C   UNL d   1      40.919  11.277  21.200 -0.05 +0.01    +0.193    39.919
ATOM     14  C   UNL d   1      35.872  17.400  21.649 -0.25 -0.01    +0.026    39.919
ATOM     15  C   UNL d   1      38.170  13.285  22.344 -0.11 -0.01    +0.055    39.919
ATOM     16  C   UNL d   1      39.455  10.437  22.999 -0.02 +0.00    +0.026    39.919
ATOM     17  C   UNL d   1      40.309  11.932  20.004 -0.09 +0.01    +0.109    39.919
ATOM     18  C   UNL d   1      35.032  15.417  19.298 -0.33 +0.01    +0.050    39.919
ATOM     19  C   UNL d   1      35.166  14.734  18.063 -0.25 +0.01    +0.045    39.919
ATOM     20  C   UNL d   1      40.251  12.119  17.574 -0.08 +0.01    +0.045    39.919
ATOM     21  C   UNL d   1      40.912  11.749  18.675 -0.10 +0.01    +0.057    39.919
ATOM     22  C   UNL d   1      39.800  12.502  15.367 -0.07 -0.00    -0.019    39.919
ATOM     23  C   UNL d   1      38.627  12.904  16.169 -0.12 +0.01    +0.045    39.919
ATOM     24  C   UNL d   1      40.757  12.037  16.204 -0.07 -0.00    -0.022    39.919
ATOM     25  C   UNL d   1      36.316  13.758  16.377 -0.19 +0.01    +0.049    39.919
ATOM     26  C   UNL d   1      34.245  14.412  17.078 -0.22 -0.00    -0.018    39.919
ATOM     27  C   UNL d   1      34.974  13.778  16.024 -0.13 +0.00    +0.003    39.919
ATOM     28  C   UNL d   1      37.487  13.392  15.658 -0.19 +0.01    +0.052    39.919
ATOM     29  C   UNL d   1      42.110  11.506  15.871 -0.03 +0.01    +0.046    39.919
ATOM     30  C   UNL d   1      32.777  14.673  17.112 -0.25 +0.02    +0.046    39.919
ATOM     31  H   UNL d   1      38.383  12.729  18.273 +0.03 +0.02    +0.166    39.919
ATOM     32  H   UNL d   1      37.256  14.441  18.165 +0.06 +0.02    +0.166    39.919
ATOM     33  C   UNL d   1      34.078  15.729  22.282 -0.18 +0.01    +0.141    39.919
ATOM     34  C   UNL d   1      33.687  16.817  23.245 -0.23 +0.01    +0.306    39.919
ATOM     35  O   UNL d   1      32.755  17.593  23.116 -0.47 -0.06    -0.251    39.919
ATOM     36  O   UNL d   1      34.491  16.869  24.322 -0.57 +0.10    -0.481    39.919
ATOM     37  H   UNL d   1      35.385  17.037  23.955 -0.22 -0.13    +0.295    39.919
ATOM     38  C   UNL d   1      34.406  13.298  14.801 -0.09 +0.00    +0.017    39.919
ATOM     39  C   UNL d   1      34.927  12.329  14.033 -0.07 +0.01    +0.092    39.919
ATOM     40  C   UNL d   1      34.236  11.916  12.809 -0.02 +0.04    +0.330    39.919
ATOM     41  O   UNL d   1      33.161  12.307  12.394 -0.03 -0.03    -0.246    39.919
ATOM     42  O   UNL d   1      34.969  11.007  12.148 +0.00 -0.05    -0.477    39.919
ATOM     43  H   UNL d   1      35.767  10.899  12.706 +0.01 +0.03    +0.295    39.919
ATOM     44  C   UNL d   1      41.007  12.383  23.442 -0.09 -0.00    +0.141    39.919
ATOM     45  C   UNL d   1      42.251  12.986  22.847 -0.10 +0.01    +0.306    39.919
ATOM     46  O   UNL d   1      42.321  14.015  22.197 -0.22 -0.01    -0.251    39.919
ATOM     47  O   UNL d   1      43.347  12.242  23.081 -0.00 -0.03    -0.481    39.919
ATOM     48  H   UNL d   1      43.217  11.433  22.542 +0.03 +0.02    +0.295    39.919
ATOM     49  C   UNL d   1      39.880  12.622  13.874 -0.05 +0.00    +0.048    39.919
ATOM     50  C   UNL d   1      39.589  11.292  13.179 -0.01 +0.01    +0.125    39.919
ATOM     51  C   UNL d   1      38.110  11.085  13.015 -0.00 +0.03    +0.305    39.919
ATOM     52  O   UNL d   1      37.411  10.252  13.564 -0.00 -0.02    -0.251    39.919
ATOM     53  O   UNL d   1      37.574  11.953  12.135 +0.00 -0.04    -0.481    39.919
ATOM     54  H   UNL d   1      37.003  11.395  11.567 +0.01 +0.03    +0.295    39.919
TER
ENDMDL
MODEL        1
USER    Run = 1
USER    Cluster Rank = 61
USER    Number of conformations in this cluster = 1
USER  
USER    RMSD from reference structure       = 25.488 A
USER  
USER    Estimated Free Energy of Binding    =   -2.55 kcal/mol  [=(1)+(2)+(3)-(4)]
USER    Estimated Inhibition Constant, Ki   =   13.44 mM (millimolar)  [Temperature = 298.15 K]
USER    
USER    (1) Final Intermolecular Energy     =   -6.43 kcal/mol
USER        vdW + Hbond + desolv Energy     =   -6.30 kcal/mol
USER        Electrostatic Energy            =   -0.13 kcal/mol
USER    (2) Final Total Internal Energy     =   -3.97 kcal/mol
USER    (3) Torsional Free Energy           =   +3.88 kcal/mol
USER    (4) Unbound System's Energy  [=(2)] =   -3.97 kcal/mol
USER    
USER    
USER  
USER    DPF = D:/Protein_go_brrr/autodock/final/2DN3/heme/dock.dpf
USER    NEWDPF move	heme_opt.pdbqt
USER    NEWDPF about	0.153000 0.018000 -0.028000
USER    NEWDPF tran0	0.444680 23.435423 15.659898
USER    NEWDPF axisangle0	0.058970 -0.986345 -0.153774 167.041105
USER    NEWDPF quaternion0	0.058594 -0.980044 -0.152791 0.112847
USER    NEWDPF dihe0	114.36 -160.73 -96.06 -123.25 -138.27 94.87 135.11 -29.21 47.41 -57.57 133.92 -72.58 37.71 
USER  
USER                              x       y       z    vdW   Elec        q     RMS 
ATOM      1  O   UNL d   1       5.754  25.688  16.884 -0.32 -0.01    -0.289    25.488
ATOM      2  O   UNL d   1       3.418  18.569  16.373 -0.05 +0.01    -0.289    25.488
ATOM      3  N   UNL d   1       2.468  24.839  16.267 -0.12 +0.02    -0.247    25.488
ATOM      4  N   UNL d   1       2.574  21.887  15.944 -0.12 +0.03    -0.247    25.488
ATOM      5  N   UNL d   1      -0.083  22.004  14.853 -0.06 +0.05    -0.354    25.488
ATOM      6  N   UNL d   1      -0.177  25.068  15.173 -0.02 +0.03    -0.354    25.488
ATOM      7  C   UNL d   1       3.729  26.940  16.332 -0.31 -0.01    +0.084    25.488
ATOM      8  C   UNL d   1       4.392  20.704  17.070 -0.19 -0.00    +0.084    25.488
ATOM      9  C   UNL d   1       3.729  22.029  16.680 -0.24 -0.01    +0.058    25.488
ATOM     10  C   UNL d   1       2.398  26.213  16.112 -0.20 -0.00    +0.058    25.488
ATOM     11  C   UNL d   1       4.559  25.735  16.656 -0.29 -0.01    +0.193    25.488
ATOM     12  C   UNL d   1       3.675  24.527  16.609 -0.26 -0.01    +0.109    25.488
ATOM     13  C   UNL d   1       3.420  19.784  16.386 -0.11 -0.02    +0.193    25.488
ATOM     14  C   UNL d   1       4.257  27.573  15.042 -0.50 -0.00    +0.026    25.488
ATOM     15  C   UNL d   1       4.259  23.223  16.988 -0.29 -0.01    +0.055    25.488
ATOM     16  C   UNL d   1       4.324  20.457  18.580 -0.14 +0.00    +0.026    25.488
ATOM     17  C   UNL d   1       2.371  20.626  15.735 -0.13 -0.02    +0.109    25.488
ATOM     18  C   UNL d   1       1.258  26.890  15.880 -0.14 -0.00    +0.050    25.488
ATOM     19  C   UNL d   1      -0.030  26.310  15.749 -0.05 -0.00    +0.045    25.488
ATOM     20  C   UNL d   1       0.230  20.700  14.570 -0.11 -0.01    +0.045    25.488
ATOM     21  C   UNL d   1       1.301  19.995  14.949 -0.01 -0.01    +0.057    25.488
ATOM     22  C   UNL d   1      -1.765  21.210  13.582 -0.09 +0.00    -0.019    25.488
ATOM     23  C   UNL d   1      -1.270  22.403  14.298 -0.09 -0.01    +0.045    25.488
ATOM     24  C   UNL d   1      -0.873  20.205  13.748 -0.12 +0.00    -0.022    25.488
ATOM     25  C   UNL d   1      -1.509  24.741  15.064 -0.04 -0.00    +0.049    25.488
ATOM     26  C   UNL d   1      -1.295  26.786  16.055 -0.02 +0.00    -0.018    25.488
ATOM     27  C   UNL d   1      -2.224  25.783  15.639 -0.02 -0.00    +0.003    25.488
ATOM     28  C   UNL d   1      -1.918  23.576  14.360 -0.06 -0.00    +0.052    25.488
ATOM     29  C   UNL d   1      -0.934  18.809  13.228 -0.10 -0.01    +0.046    25.488
ATOM     30  C   UNL d   1      -1.625  28.091  16.698 -0.01 -0.00    +0.046    25.488
ATOM     31  H   UNL d   1       0.490  22.559  15.479 +0.03 -0.02    +0.166    25.488
ATOM     32  H   UNL d   1       0.600  24.508  14.844 +0.06 -0.01    +0.166    25.488
ATOM     33  C   UNL d   1       3.749  27.936  17.496 -0.17 -0.00    +0.141    25.488
ATOM     34  C   UNL d   1       4.283  27.331  18.766 -0.25 +0.01    +0.306    25.488
ATOM     35  O   UNL d   1       3.647  26.679  19.577 -0.20 -0.00    -0.251    25.488
ATOM     36  O   UNL d   1       5.593  27.579  18.947 -0.12 -0.04    -0.481    25.488
ATOM     37  H   UNL d   1       6.040  27.066  18.241 +0.21 +0.04    +0.295    25.488
ATOM     38  C   UNL d   1      -3.648  25.876  15.757 -0.00 -0.00    +0.017    25.488
ATOM     39  C   UNL d   1      -4.532  25.394  14.871 -0.00 -0.00    +0.092    25.488
ATOM     40  C   UNL d   1      -5.969  25.540  15.119 +0.00 -0.01    +0.330    25.488
ATOM     41  O   UNL d   1      -6.702  26.434  14.740 +0.00 +0.01    -0.246    25.488
ATOM     42  O   UNL d   1      -6.419  24.508  15.850 +0.00 +0.01    -0.477    25.488
ATOM     43  H   UNL d   1      -5.608  24.138  16.257 +0.00 -0.01    +0.295    25.488
ATOM     44  C   UNL d   1       5.813  20.495  16.537 -0.32 -0.00    +0.141    25.488
ATOM     45  C   UNL d   1       5.887  19.482  15.425 -0.30 +0.01    +0.306    25.488
ATOM     46  O   UNL d   1       5.798  19.706  14.231 -1.00 -0.01    -0.251    25.488
ATOM     47  O   UNL d   1       6.044  18.227  15.882 -0.12 -0.10    -0.481    25.488
ATOM     48  H   UNL d   1       5.137  17.929  16.107 +0.11 +0.04    +0.295    25.488
ATOM     49  C   UNL d   1      -3.044  21.169  12.797 -0.05 -0.00    +0.048    25.488
ATOM     50  C   UNL d   1      -4.202  21.807  13.563 -0.01 -0.01    +0.125    25.488
ATOM     51  C   UNL d   1      -4.221  21.343  14.992 +0.00 -0.01    +0.305    25.488
ATOM     52  O   UNL d   1      -3.928  20.240  15.419 -0.00 +0.01    -0.251    25.488
ATOM     53  O   UNL d   1      -4.632  22.314  15.832 +0.00 +0.01    -0.481    25.488
ATOM     54  H   UNL d   1      -5.511  22.574  15.484 +0.00 -0.01    +0.295    25.488
TER
ENDMDL
MODEL       49
USER    Run = 49
USER    Cluster Rank = 62
USER    Number of conformations in this cluster = 1
USER  
USER    RMSD from reference structure       = 34.724 A
USER  
USER    Estimated Free Energy of Binding    =   -2.53 kcal/mol  [=(1)+(2)+(3)-(4)]
USER    Estimated Inhibition Constant, Ki   =   13.92 mM (millimolar)  [Temperature = 298.15 K]
USER    
USER    (1) Final Intermolecular Energy     =   -6.41 kcal/mol
USER        vdW + Hbond + desolv Energy     =   -5.93 kcal/mol
USER        Electrostatic Energy            =   -0.48 kcal/mol
USER    (2) Final Total Internal Energy     =   -4.30 kcal/mol
USER    (3) Torsional Free Energy           =   +3.88 kcal/mol
USER    (4) Unbound System's Energy  [=(2)] =   -4.30 kcal/mol
USER    
USER    
USER  
USER    DPF = D:/Protein_go_brrr/autodock/final/2DN3/heme/dock.dpf
USER    NEWDPF move	heme_opt.pdbqt
USER    NEWDPF about	0.153000 0.018000 -0.028000
USER    NEWDPF tran0	4.713916 37.350263 -7.260940
USER    NEWDPF axisangle0	0.145897 -0.675557 0.722729 114.207787
USER    NEWDPF quaternion0	0.122503 -0.567236 0.606844 0.543117
USER    NEWDPF dihe0	60.04 170.70 169.40 29.63 -148.48 12.32 -53.49 44.42 59.32 -126.33 -81.22 -20.01 -14.88 
USER  
USER                              x       y       z    vdW   Elec        q     RMS 
ATOM      1  O   UNL d   1       8.221  41.863  -5.814 -0.25 +0.06    -0.289    34.724
ATOM      2  O   UNL d   1       1.995  39.217  -2.553 -0.15 -0.34    -0.289    34.724
ATOM      3  N   UNL d   1       6.400  39.240  -7.117 -0.03 -0.01    -0.247    34.724
ATOM      4  N   UNL d   1       4.349  38.727  -5.029 -0.02 -0.05    -0.247    34.724
ATOM      5  N   UNL d   1       3.767  36.237  -6.342 -0.04 -0.05    -0.354    34.724
ATOM      6  N   UNL d   1       5.910  36.767  -8.494 -0.07 -0.03    -0.354    34.724
ATOM      7  C   UNL d   1       8.532  40.311  -7.677 -0.15 -0.02    +0.084    34.724
ATOM      8  C   UNL d   1       3.728  40.601  -3.588 -0.09 +0.04    +0.084    34.724
ATOM      9  C   UNL d   1       4.626  40.034  -4.693 -0.07 +0.01    +0.058    34.724
ATOM     10  C   UNL d   1       7.489  39.230  -7.973 -0.09 -0.00    +0.058    34.724
ATOM     11  C   UNL d   1       7.831  40.946  -6.514 -0.14 -0.03    +0.193    34.724
ATOM     12  C   UNL d   1       6.539  40.224  -6.289 -0.07 +0.00    +0.109    34.724
ATOM     13  C   UNL d   1       2.916  39.363  -3.334 -0.06 +0.12    +0.193    34.724
ATOM     14  C   UNL d   1       9.856  39.715  -7.192 -0.05 -0.01    +0.026    34.724
ATOM     15  C   UNL d   1       5.628  40.735  -5.246 -0.13 +0.01    +0.055    34.724
ATOM     16  C   UNL d   1       2.801  41.699  -4.118 -0.07 +0.01    +0.026    34.724
ATOM     17  C   UNL d   1       3.396  38.298  -4.266 -0.04 +0.04    +0.109    34.724
ATOM     18  C   UNL d   1       7.605  38.413  -9.037 -0.10 -0.00    +0.050    34.724
ATOM     19  C   UNL d   1       6.651  37.443  -9.437 -0.11 +0.00    +0.045    34.724
ATOM     20  C   UNL d   1       3.046  36.069  -5.189 -0.07 +0.01    +0.045    34.724
ATOM     21  C   UNL d   1       2.808  36.952  -4.214 -0.06 +0.02    +0.057    34.724
ATOM     22  C   UNL d   1       3.010  34.116  -6.373 -0.12 -0.00    -0.019    34.724
ATOM     23  C   UNL d   1       3.803  35.112  -7.122 -0.08 +0.01    +0.045    34.724
ATOM     24  C   UNL d   1       2.563  34.689  -5.230 -0.10 -0.00    -0.022    34.724
ATOM     25  C   UNL d   1       5.118  35.815  -9.093 -0.16 +0.01    +0.049    34.724
ATOM     26  C   UNL d   1       6.306  36.942 -10.683 -0.12 -0.00    -0.018    34.724
ATOM     27  C   UNL d   1       5.323  35.929 -10.461 -0.15 +0.00    +0.003    34.724
ATOM     28  C   UNL d   1       4.379  34.885  -8.312 -0.11 +0.01    +0.052    34.724
ATOM     29  C   UNL d   1       1.717  34.094  -4.157 -0.07 +0.01    +0.046    34.724
ATOM     30  C   UNL d   1       6.852  37.379 -12.000 -0.09 +0.00    +0.046    34.724
ATOM     31  H   UNL d   1       4.151  37.141  -6.596 +0.02 +0.02    +0.166    34.724
ATOM     32  H   UNL d   1       5.983  36.936  -7.498 +0.04 +0.01    +0.166    34.724
ATOM     33  C   UNL d   1       8.753  41.335  -8.796 -0.16 -0.06    +0.141    34.724
ATOM     34  C   UNL d   1       8.167  42.683  -8.471 -0.16 -0.09    +0.306    34.724
ATOM     35  O   UNL d   1       7.062  43.084  -8.795 -0.10 +0.01    -0.251    34.724
ATOM     36  O   UNL d   1       9.004  43.453  -7.754 -0.46 +0.23    -0.481    34.724
ATOM     37  H   UNL d   1       8.502  43.671  -6.940 -0.10 -0.06    +0.295    34.724
ATOM     38  C   UNL d   1       4.705  35.141 -11.484 -0.11 +0.01    +0.017    34.724
ATOM     39  C   UNL d   1       3.579  34.426 -11.337 -0.11 +0.03    +0.092    34.724
ATOM     40  C   UNL d   1       3.038  33.674 -12.472 -0.07 +0.18    +0.330    34.724
ATOM     41  O   UNL d   1       3.572  33.459 -13.544 -0.10 -0.19    -0.246    34.724
ATOM     42  O   UNL d   1       1.813  33.211 -12.178 -0.01 -0.19    -0.477    34.724
ATOM     43  H   UNL d   1       1.717  33.394 -11.221 +0.03 +0.09    +0.295    34.724
ATOM     44  C   UNL d   1       4.453  41.053  -2.316 -0.22 +0.07    +0.141    34.724
ATOM     45  C   UNL d   1       3.516  41.511  -1.230 -0.06 +0.27    +0.306    34.724
ATOM     46  O   UNL d   1       3.207  42.662  -0.974 -0.22 -0.17    -0.251    34.724
ATOM     47  O   UNL d   1       3.035  40.489  -0.500 -1.10 -0.92    -0.481    34.724
ATOM     48  H   UNL d   1       3.290  39.685  -1.001 +0.09 +0.51    +0.295    34.724
ATOM     49  C   UNL d   1       2.777  32.706  -6.832 -0.14 +0.01    +0.048    34.724
ATOM     50  C   UNL d   1       1.419  32.547  -7.515 -0.06 +0.02    +0.125    34.724
ATOM     51  C   UNL d   1       1.565  32.566  -9.010 -0.02 +0.06    +0.305    34.724
ATOM     52  O   UNL d   1       2.456  32.070  -9.676 -0.06 -0.08    -0.251    34.724
ATOM     53  O   UNL d   1       0.559  33.236  -9.606 +0.01 -0.08    -0.481    34.724
ATOM     54  H   UNL d   1       0.473  32.807 -10.483 +0.02 +0.06    +0.295    34.724
TER
ENDMDL
MODEL       25
USER    Run = 25
USER    Cluster Rank = 63
USER    Number of conformations in this cluster = 1
USER  
USER    RMSD from reference structure       = 42.901 A
USER  
USER    Estimated Free Energy of Binding    =   -2.51 kcal/mol  [=(1)+(2)+(3)-(4)]
USER    Estimated Inhibition Constant, Ki   =   14.35 mM (millimolar)  [Temperature = 298.15 K]
USER    
USER    (1) Final Intermolecular Energy     =   -6.39 kcal/mol
USER        vdW + Hbond + desolv Energy     =   -6.29 kcal/mol
USER        Electrostatic Energy            =   -0.10 kcal/mol
USER    (2) Final Total Internal Energy     =   -4.33 kcal/mol
USER    (3) Torsional Free Energy           =   +3.88 kcal/mol
USER    (4) Unbound System's Energy  [=(2)] =   -4.33 kcal/mol
USER    
USER    
USER  
USER    DPF = D:/Protein_go_brrr/autodock/final/2DN3/heme/dock.dpf
USER    NEWDPF move	heme_opt.pdbqt
USER    NEWDPF about	0.153000 0.018000 -0.028000
USER    NEWDPF tran0	39.042988 14.043327 22.418321
USER    NEWDPF axisangle0	-0.970221 0.239655 -0.035175 63.461291
USER    NEWDPF quaternion0	-0.510265 0.126041 -0.018500 0.850530
USER    NEWDPF dihe0	93.74 164.03 -69.94 -46.11 -175.95 38.67 156.59 -79.73 105.14 -92.89 -104.84 -27.39 -12.58 
USER  
USER                              x       y       z    vdW   Elec        q     RMS 
ATOM      1  O   UNL d   1      33.217  14.831  22.858 -0.03 -0.03    -0.289    42.901
ATOM      2  O   UNL d   1      37.557  13.360  16.908 -0.11 -0.04    -0.289    42.901
ATOM      3  N   UNL d   1      36.651  14.582  23.066 -0.13 +0.05    -0.247    42.901
ATOM      4  N   UNL d   1      37.438  13.698  20.340 -0.10 -0.01    -0.247    42.901
ATOM      5  N   UNL d   1      40.039  13.073  21.395 -0.03 +0.02    -0.354    42.901
ATOM      6  N   UNL d   1      39.207  13.974  24.223 -0.03 +0.10    -0.354    42.901
ATOM      7  C   UNL d   1      34.834  14.845  24.690 -0.14 -0.02    +0.084    42.901
ATOM      8  C   UNL d   1      35.943  14.287  18.499 -0.20 +0.01    +0.084    42.901
ATOM      9  C   UNL d   1      36.227  14.261  20.005 -0.18 +0.00    +0.058    42.901
ATOM     10  C   UNL d   1      36.333  14.702  24.408 -0.18 -0.01    +0.058    42.901
ATOM     11  C   UNL d   1      34.363  14.805  23.268 -0.06 -0.01    +0.193    42.901
ATOM     12  C   UNL d   1      35.559  14.669  22.378 -0.13 -0.01    +0.109    42.901
ATOM     13  C   UNL d   1      37.201  13.601  18.045 -0.13 +0.03    +0.193    42.901
ATOM     14  C   UNL d   1      34.271  13.631  25.434 -0.06 -0.01    +0.026    42.901
ATOM     15  C   UNL d   1      35.346  14.701  20.917 -0.19 +0.00    +0.055    42.901
ATOM     16  C   UNL d   1      35.935  15.715  17.947 -0.35 +0.00    +0.026    42.901
ATOM     17  C   UNL d   1      38.018  13.290  19.258 -0.04 +0.01    +0.109    42.901
ATOM     18  C   UNL d   1      37.245  14.780  25.396 -0.23 -0.01    +0.050    42.901
ATOM     19  C   UNL d   1      38.651  14.743  25.221 -0.22 -0.01    +0.045    42.901
ATOM     20  C   UNL d   1      40.146  12.506  20.152 -0.05 +0.00    +0.045    42.901
ATOM     21  C   UNL d   1      39.295  12.574  19.123 -0.02 +0.01    +0.057    42.901
ATOM     22  C   UNL d   1      41.992  11.952  21.378 -0.09 -0.00    -0.019    42.901
ATOM     23  C   UNL d   1      41.106  12.794  22.207 -0.12 -0.00    +0.045    42.901
ATOM     24  C   UNL d   1      41.419  11.786  20.163 -0.10 -0.00    -0.022    42.901
ATOM     25  C   UNL d   1      40.581  14.013  24.292 -0.06 -0.01    +0.049    42.901
ATOM     26  C   UNL d   1      39.689  15.326  25.932 -0.27 +0.00    -0.018    42.901
ATOM     27  C   UNL d   1      40.904  14.877  25.329 -0.22 -0.00    +0.003    42.901
ATOM     28  C   UNL d   1      41.376  13.175  23.465 -0.15 -0.00    +0.052    42.901
ATOM     29  C   UNL d   1      41.932  11.029  18.985 -0.05 +0.00    +0.046    42.901
ATOM     30  C   UNL d   1      39.562  16.245  27.099 -0.32 -0.01    +0.046    42.901
ATOM     31  H   UNL d   1      39.272  13.696  21.625 -0.33 -0.04    +0.166    42.901
ATOM     32  H   UNL d   1      38.662  13.429  23.566 -0.07 -0.04    +0.166    42.901
ATOM     33  C   UNL d   1      34.414  16.159  25.359 -0.19 -0.08    +0.141    42.901
ATOM     34  C   UNL d   1      32.996  16.545  25.036 -0.19 -0.09    +0.306    42.901
ATOM     35  O   UNL d   1      32.635  17.581  24.505 -0.76 -0.01    -0.251    42.901
ATOM     36  O   UNL d   1      32.107  15.603  25.399 -0.04 +0.12    -0.481    42.901
ATOM     37  H   UNL d   1      32.042  15.012  24.619 +0.07 -0.01    +0.295    42.901
ATOM     38  C   UNL d   1      42.222  15.230  25.766 -0.21 -0.00    +0.017    42.901
ATOM     39  C   UNL d   1      43.356  14.957  25.103 -0.15 +0.01    +0.092    42.901
ATOM     40  C   UNL d   1      44.644  15.390  25.652 -0.05 +0.03    +0.330    42.901
ATOM     41  O   UNL d   1      44.981  15.425  26.820 -0.02 -0.02    -0.246    42.901
ATOM     42  O   UNL d   1      45.468  15.760  24.659 -0.03 -0.06    -0.477    42.901
ATOM     43  H   UNL d   1      45.052  15.383  23.857 +0.06 +0.04    +0.295    42.901
ATOM     44  C   UNL d   1      34.702  13.510  18.047 -0.10 +0.03    +0.141    42.901
ATOM     45  C   UNL d   1      34.889  12.804  16.731 -0.05 +0.05    +0.306    42.901
ATOM     46  O   UNL d   1      34.930  11.599  16.551 -0.02 -0.03    -0.251    42.901
ATOM     47  O   UNL d   1      35.044  13.661  15.705 -0.05 -0.11    -0.481    42.901
ATOM     48  H   UNL d   1      35.987  13.572  15.448 +0.07 +0.06    +0.295    42.901
ATOM     49  C   UNL d   1      43.297  11.381  21.852 -0.04 +0.00    +0.048    42.901
ATOM     50  C   UNL d   1      44.482  12.254  21.441 -0.04 +0.01    +0.125    42.901
ATOM     51  C   UNL d   1      44.571  13.479  22.307 -0.05 +0.03    +0.305    42.901
ATOM     52  O   UNL d   1      43.995  14.542  22.152 -0.15 -0.04    -0.251    42.901
ATOM     53  O   UNL d   1      45.413  13.304  23.345 +0.01 -0.05    -0.481    42.901
ATOM     54  H   UNL d   1      45.962  14.116  23.346 +0.03 +0.04    +0.295    42.901
TER
ENDMDL
MODEL       20
USER    Run = 20
USER    Cluster Rank = 64
USER    Number of conformations in this cluster = 1
USER  
USER    RMSD from reference structure       = 60.556 A
USER  
USER    Estimated Free Energy of Binding    =   -2.50 kcal/mol  [=(1)+(2)+(3)-(4)]
USER    Estimated Inhibition Constant, Ki   =   14.61 mM (millimolar)  [Temperature = 298.15 K]
USER    
USER    (1) Final Intermolecular Energy     =   -6.38 kcal/mol
USER        vdW + Hbond + desolv Energy     =   -6.39 kcal/mol
USER        Electrostatic Energy            =   +0.00 kcal/mol
USER    (2) Final Total Internal Energy     =   -4.92 kcal/mol
USER    (3) Torsional Free Energy           =   +3.88 kcal/mol
USER    (4) Unbound System's Energy  [=(2)] =   -4.92 kcal/mol
USER    
USER    
USER  
USER    DPF = D:/Protein_go_brrr/autodock/final/2DN3/heme/dock.dpf
USER    NEWDPF move	heme_opt.pdbqt
USER    NEWDPF about	0.153000 0.018000 -0.028000
USER    NEWDPF tran0	47.582556 40.295904 18.362492
USER    NEWDPF axisangle0	-0.498968 0.753450 0.428188 131.912353
USER    NEWDPF quaternion0	-0.455674 0.688076 0.391036 0.407435
USER    NEWDPF dihe0	128.86 147.42 -99.75 60.52 -134.28 -51.71 127.75 57.66 22.99 -23.39 -93.01 15.38 -2.84 
USER  
USER                              x       y       z    vdW   Elec        q     RMS 
ATOM      1  O   UNL d   1      47.885  46.182  18.517 -0.08 +0.01    -0.289    60.556
ATOM      2  O   UNL d   1      51.197  41.194  13.984 -0.07 +0.02    -0.289    60.556
ATOM      3  N   UNL d   1      47.509  42.774  18.897 -0.09 +0.02    -0.247    60.556
ATOM      4  N   UNL d   1      48.903  41.664  16.519 -0.15 +0.02    -0.247    60.556
ATOM      5  N   UNL d   1      47.662  39.133  17.089 -0.03 -0.01    -0.354    60.556
ATOM      6  N   UNL d   1      46.205  40.298  19.543 -0.11 +0.01    -0.354    60.556
ATOM      7  C   UNL d   1      46.521  44.752  19.956 -0.12 -0.00    +0.084    60.556
ATOM      8  C   UNL d   1      50.679  43.020  15.531 -0.06 -0.01    +0.084    60.556
ATOM      9  C   UNL d   1      49.550  42.879  16.556 -0.13 -0.00    +0.058    60.556
ATOM     10  C   UNL d   1      46.607  43.226  19.846 -0.15 -0.00    +0.058    60.556
ATOM     11  C   UNL d   1      47.547  45.081  18.914 -0.09 -0.01    +0.193    60.556
ATOM     12  C   UNL d   1      48.091  43.799  18.365 -0.12 -0.01    +0.109    60.556
ATOM     13  C   UNL d   1      50.529  41.673  14.880 -0.08 -0.01    +0.193    60.556
ATOM     14  C   UNL d   1      45.161  45.284  19.497 -0.33 +0.00    +0.026    60.556
ATOM     15  C   UNL d   1      49.191  43.874  17.382 -0.15 -0.01    +0.055    60.556
ATOM     16  C   UNL d   1      52.053  43.090  16.205 -0.02 -0.00    +0.026    60.556
ATOM     17  C   UNL d   1      49.414  40.953  15.566 -0.15 -0.00    +0.109    60.556
ATOM     18  C   UNL d   1      45.920  42.421  20.677 -0.20 -0.00    +0.050    60.556
ATOM     19  C   UNL d   1      46.001  41.006  20.706 -0.20 -0.00    +0.045    60.556
ATOM     20  C   UNL d   1      48.191  38.864  15.853 -0.16 +0.00    +0.045    60.556
ATOM     21  C   UNL d   1      49.008  39.616  15.109 -0.07 -0.00    +0.057    60.556
ATOM     22  C   UNL d   1      46.885  37.104  16.498 -0.27 -0.00    -0.019    60.556
ATOM     23  C   UNL d   1      46.860  38.129  17.560 -0.19 +0.00    +0.045    60.556
ATOM     24  C   UNL d   1      47.675  37.544  15.490 -0.32 -0.00    -0.022    60.556
ATOM     25  C   UNL d   1      46.160  38.945  19.786 -0.21 -0.00    +0.049    60.556
ATOM     26  C   UNL d   1      45.856  40.091  21.737 -0.17 +0.00    -0.018    60.556
ATOM     27  C   UNL d   1      45.977  38.791  21.154 -0.18 -0.00    +0.003    60.556
ATOM     28  C   UNL d   1      46.188  38.011  18.716 -0.26 +0.00    +0.052    60.556
ATOM     29  C   UNL d   1      48.021  36.863  14.210 -0.51 +0.01    +0.046    60.556
ATOM     30  C   UNL d   1      45.622  40.401  23.176 -0.12 -0.02    +0.046    60.556
ATOM     31  H   UNL d   1      47.928  39.966  17.604 +0.04 -0.00    +0.166    60.556
ATOM     32  H   UNL d   1      46.328  40.734  18.636 +0.06 +0.00    +0.166    60.556
ATOM     33  C   UNL d   1      46.925  45.337  21.313 -0.03 +0.00    +0.141    60.556
ATOM     34  C   UNL d   1      48.404  45.234  21.570 +0.00 +0.01    +0.306    60.556
ATOM     35  O   UNL d   1      49.001  44.243  21.956 -0.00 -0.00    -0.251    60.556
ATOM     36  O   UNL d   1      49.054  46.386  21.326 +0.01 -0.01    -0.481    60.556
ATOM     37  H   UNL d   1      48.799  46.623  20.409 +0.03 +0.00    +0.295    60.556
ATOM     38  C   UNL d   1      45.873  37.554  21.866 -0.16 -0.00    +0.017    60.556
ATOM     39  C   UNL d   1      46.773  36.559  21.825 -0.13 -0.01    +0.092    60.556
ATOM     40  C   UNL d   1      46.557  35.346  22.618 -0.09 +0.00    +0.330    60.556
ATOM     41  O   UNL d   1      46.341  35.268  23.813 -0.13 +0.02    -0.246    60.556
ATOM     42  O   UNL d   1      46.618  34.262  21.830 -0.05 -0.10    -0.477    60.556
ATOM     43  H   UNL d   1      46.263  34.574  20.973 +0.10 +0.05    +0.295    60.556
ATOM     44  C   UNL d   1      50.506  44.146  14.507 -0.13 -0.02    +0.141    60.556
ATOM     45  C   UNL d   1      49.455  43.851  13.470 -0.22 -0.06    +0.306    60.556
ATOM     46  O   UNL d   1      48.254  44.023  13.584 -0.30 +0.05    -0.251    60.556
ATOM     47  O   UNL d   1      49.974  43.324  12.347 -0.12 +0.12    -0.481    60.556
ATOM     48  H   UNL d   1      50.123  42.379  12.562 +0.11 -0.07    +0.295    60.556
ATOM     49  C   UNL d   1      46.129  35.809  16.558 -0.27 +0.01    +0.048    60.556
ATOM     50  C   UNL d   1      46.920  34.722  17.285 -0.17 +0.02    +0.125    60.556
ATOM     51  C   UNL d   1      46.661  34.769  18.765 -0.07 +0.05    +0.305    60.556
ATOM     52  O   UNL d   1      45.582  34.779  19.330 -0.15 -0.03    -0.251    60.556
ATOM     53  O   UNL d   1      47.805  34.814  19.476 +0.01 -0.07    -0.481    60.556
ATOM     54  H   UNL d   1      47.771  34.007  20.032 +0.06 +0.06    +0.295    60.556
TER
ENDMDL
MODEL       34
USER    Run = 34
USER    Cluster Rank = 65
USER    Number of conformations in this cluster = 1
USER  
USER    RMSD from reference structure       = 52.143 A
USER  
USER    Estimated Free Energy of Binding    =   -2.29 kcal/mol  [=(1)+(2)+(3)-(4)]
USER    Estimated Inhibition Constant, Ki   =   20.82 mM (millimolar)  [Temperature = 298.15 K]
USER    
USER    (1) Final Intermolecular Energy     =   -6.17 kcal/mol
USER        vdW + Hbond + desolv Energy     =   -6.11 kcal/mol
USER        Electrostatic Energy            =   -0.06 kcal/mol
USER    (2) Final Total Internal Energy     =   -2.72 kcal/mol
USER    (3) Torsional Free Energy           =   +3.88 kcal/mol
USER    (4) Unbound System's Energy  [=(2)] =   -2.72 kcal/mol
USER    
USER    
USER  
USER    DPF = D:/Protein_go_brrr/autodock/final/2DN3/heme/dock.dpf
USER    NEWDPF move	heme_opt.pdbqt
USER    NEWDPF about	0.153000 0.018000 -0.028000
USER    NEWDPF tran0	46.099847 34.184861 -0.198067
USER    NEWDPF axisangle0	-0.951610 -0.113292 -0.285664 -162.841409
USER    NEWDPF quaternion0	-0.940962 -0.112024 -0.282467 -0.149178
USER    NEWDPF dihe0	150.46 -85.96 -110.31 -88.47 -139.18 3.64 121.24 -65.87 18.55 -31.87 146.12 170.59 -176.95 
USER  
USER                              x       y       z    vdW   Elec        q     RMS 
ATOM      1  O   UNL d   1      42.346  32.126  -4.251 -0.00 -0.02    -0.289    52.143
ATOM      2  O   UNL d   1      41.717  37.814   0.611 -0.14 -0.06    -0.289    52.143
ATOM      3  N   UNL d   1      44.790  32.887  -1.939 -0.06 +0.02    -0.247    52.143
ATOM      4  N   UNL d   1      43.807  35.406  -0.710 -0.08 -0.03    -0.247    52.143
ATOM      5  N   UNL d   1      46.420  35.757   0.438 -0.10 -0.05    -0.354    52.143
ATOM      6  N   UNL d   1      47.437  33.152  -0.858 -0.07 +0.01    -0.354    52.143
ATOM      7  C   UNL d   1      44.607  31.310  -3.807 -0.05 +0.00    +0.084    52.143
ATOM      8  C   UNL d   1      41.395  35.797  -0.737 -0.14 +0.01    +0.084    52.143
ATOM      9  C   UNL d   1      42.593  34.941  -1.163 -0.14 +0.01    +0.058    52.143
ATOM     10  C   UNL d   1      45.438  31.899  -2.663 -0.13 -0.00    +0.058    52.143
ATOM     11  C   UNL d   1      43.369  32.126  -3.590 -0.02 +0.01    +0.193    52.143
ATOM     12  C   UNL d   1      43.595  33.025  -2.414 -0.10 +0.00    +0.109    52.143
ATOM     13  C   UNL d   1      42.158  36.854   0.010 -0.12 +0.04    +0.193    52.143
ATOM     14  C   UNL d   1      45.193  31.654  -5.179 -0.02 +0.00    +0.026    52.143
ATOM     15  C   UNL d   1      42.470  33.863  -1.952 -0.13 +0.00    +0.055    52.143
ATOM     16  C   UNL d   1      40.488  35.054   0.249 -0.31 +0.00    +0.026    52.143
ATOM     17  C   UNL d   1      43.609  36.505  -0.054 +0.04 +0.02    +0.109    52.143
ATOM     18  C   UNL d   1      46.655  31.414  -2.356 -0.21 -0.00    +0.050    52.143
ATOM     19  C   UNL d   1      47.459  31.838  -1.267 -0.25 -0.00    +0.045    52.143
ATOM     20  C   UNL d   1      45.870  36.980   0.725 -0.17 +0.01    +0.045    52.143
ATOM     21  C   UNL d   1      44.609  37.392   0.559 -0.09 +0.01    +0.057    52.143
ATOM     22  C   UNL d   1      48.085  37.016   1.284 -0.14 -0.01    -0.019    52.143
ATOM     23  C   UNL d   1      47.753  35.684   0.741 -0.19 +0.01    +0.045    52.143
ATOM     24  C   UNL d   1      46.965  37.778   1.274 -0.15 -0.01    -0.022    52.143
ATOM     25  C   UNL d   1      48.353  33.360   0.147 -0.21 +0.01    +0.049    52.143
ATOM     26  C   UNL d   1      48.385  31.167  -0.483 -0.34 -0.00    -0.018    52.143
ATOM     27  C   UNL d   1      48.932  32.129   0.421 -0.32 +0.00    +0.003    52.143
ATOM     28  C   UNL d   1      48.626  34.671   0.625 -0.20 +0.01    +0.052    52.143
ATOM     29  C   UNL d   1      46.791  39.186   1.732 -0.16 +0.01    +0.046    52.143
ATOM     30  C   UNL d   1      48.740  29.721  -0.566 +0.30 +0.00    +0.046    52.143
ATOM     31  H   UNL d   1      45.847  34.987   0.112 -0.30 -0.02    +0.166    52.143
ATOM     32  H   UNL d   1      46.850  33.861  -1.281 -0.06 -0.01    +0.166    52.143
ATOM     33  C   UNL d   1      44.294  29.815  -3.689 -0.09 +0.01    +0.141    52.143
ATOM     34  C   UNL d   1      43.390  29.503  -2.527 -0.13 +0.02    +0.306    52.143
ATOM     35  O   UNL d   1      43.737  29.318  -1.373 -0.28 -0.01    -0.251    52.143
ATOM     36  O   UNL d   1      42.093  29.442  -2.880 -0.00 -0.04    -0.481    52.143
ATOM     37  H   UNL d   1      42.007  30.090  -3.612 +0.04 +0.02    +0.295    52.143
ATOM     38  C   UNL d   1      49.941  31.860   1.401 -0.36 +0.00    +0.017    52.143
ATOM     39  C   UNL d   1      50.870  30.896   1.311 -0.32 +0.03    +0.092    52.143
ATOM     40  C   UNL d   1      51.861  30.735   2.379 -0.15 +0.14    +0.330    52.143
ATOM     41  O   UNL d   1      51.953  31.373   3.410 -0.21 -0.04    -0.246    52.143
ATOM     42  O   UNL d   1      52.705  29.736   2.079 -0.49 -0.39    -0.477    52.143
ATOM     43  H   UNL d   1      53.457  30.187   1.644 +0.08 +0.17    +0.295    52.143
ATOM     44  C   UNL d   1      40.583  36.412  -1.882 -0.05 +0.02    +0.141    52.143
ATOM     45  C   UNL d   1      41.194  37.672  -2.434 -0.01 +0.04    +0.306    52.143
ATOM     46  O   UNL d   1      42.149  37.746  -3.188 -0.01 -0.03    -0.251    52.143
ATOM     47  O   UNL d   1      40.582  38.782  -1.983 -0.00 -0.07    -0.481    52.143
ATOM     48  H   UNL d   1      40.813  38.822  -1.031 +0.05 +0.05    +0.295    52.143
ATOM     49  C   UNL d   1      49.454  37.421   1.745 -0.10 +0.02    +0.048    52.143
ATOM     50  C   UNL d   1      50.191  38.240   0.685 -0.02 +0.02    +0.125    52.143
ATOM     51  C   UNL d   1      49.811  37.794  -0.698 +0.00 +0.04    +0.305    52.143
ATOM     52  O   UNL d   1      50.128  36.760  -1.259 -0.00 -0.03    -0.251    52.143
ATOM     53  O   UNL d   1      49.039  38.703  -1.326 +0.00 -0.06    -0.481    52.143
ATOM     54  H   UNL d   1      49.680  39.272  -1.801 +0.00 +0.03    +0.295    52.143
TER
ENDMDL
MODEL       96
USER    Run = 96
USER    Cluster Rank = 66
USER    Number of conformations in this cluster = 1
USER  
USER    RMSD from reference structure       = 13.726 A
USER  
USER    Estimated Free Energy of Binding    =   -2.24 kcal/mol  [=(1)+(2)+(3)-(4)]
USER    Estimated Inhibition Constant, Ki   =   22.85 mM (millimolar)  [Temperature = 298.15 K]
USER    
USER    (1) Final Intermolecular Energy     =   -6.12 kcal/mol
USER        vdW + Hbond + desolv Energy     =   -5.68 kcal/mol
USER        Electrostatic Energy            =   -0.44 kcal/mol
USER    (2) Final Total Internal Energy     =   -4.30 kcal/mol
USER    (3) Torsional Free Energy           =   +3.88 kcal/mol
USER    (4) Unbound System's Energy  [=(2)] =   -4.30 kcal/mol
USER    
USER    
USER  
USER    DPF = D:/Protein_go_brrr/autodock/final/2DN3/heme/dock.dpf
USER    NEWDPF move	heme_opt.pdbqt
USER    NEWDPF about	0.153000 0.018000 -0.028000
USER    NEWDPF tran0	10.993147 11.376713 5.591455
USER    NEWDPF axisangle0	-0.166191 -0.022957 0.985826 134.371715
USER    NEWDPF quaternion0	-0.153190 -0.021161 0.908703 0.387743
USER    NEWDPF dihe0	122.88 -149.04 -8.48 -75.28 -131.32 -39.57 136.18 -111.55 33.85 2.78 -106.33 4.07 -9.62 
USER  
USER                              x       y       z    vdW   Elec        q     RMS 
ATOM      1  O   UNL d   1      15.685  14.013   7.998 -0.53 -0.49    -0.289    13.726
ATOM      2  O   UNL d   1       9.694  16.865   4.482 -0.64 -0.19    -0.289    13.726
ATOM      3  N   UNL d   1      13.217  12.041   6.614 +0.00 -0.07    -0.247    13.726
ATOM      4  N   UNL d   1      11.173  14.014   5.746 -0.03 -0.07    -0.247    13.726
ATOM      5  N   UNL d   1       9.336  11.827   5.414 -0.00 -0.03    -0.354    13.726
ATOM      6  N   UNL d   1      11.457   9.788   6.335 +0.00 -0.03    -0.354    13.726
ATOM      7  C   UNL d   1      15.203  11.616   7.987 -0.03 +0.03    +0.084    13.726
ATOM      8  C   UNL d   1      11.947  16.275   5.235 -0.19 +0.04    +0.084    13.726
ATOM      9  C   UNL d   1      12.253  14.868   5.760 -0.10 +0.03    +0.058    13.726
ATOM     10  C   UNL d   1      13.976  11.072   7.250 +0.00 +0.01    +0.058    13.726
ATOM     11  C   UNL d   1      15.014  13.062   7.639 -0.07 +0.16    +0.193    13.726
ATOM     12  C   UNL d   1      13.792  13.187   6.783 -0.05 +0.07    +0.109    13.726
ATOM     13  C   UNL d   1      10.485  16.072   4.955 -0.25 +0.08    +0.193    13.726
ATOM     14  C   UNL d   1      15.083  11.452   9.504 -0.09 +0.01    +0.026    13.726
ATOM     15  C   UNL d   1      13.456  14.518   6.239 -0.11 +0.05    +0.055    13.726
ATOM     16  C   UNL d   1      12.667  16.556   3.912 -0.22 +0.01    +0.026    13.726
ATOM     17  C   UNL d   1      10.139  14.663   5.314 -0.18 +0.03    +0.109    13.726
ATOM     18  C   UNL d   1      13.733   9.750   7.170 +0.00 +0.01    +0.050    13.726
ATOM     19  C   UNL d   1      12.673   9.152   6.442 +0.00 +0.00    +0.045    13.726
ATOM     20  C   UNL d   1       8.475  12.882   5.265 -0.12 +0.00    +0.045    13.726
ATOM     21  C   UNL d   1       8.754  14.187   5.185 -0.25 +0.01    +0.057    13.726
ATOM     22  C   UNL d   1       7.266  10.945   5.317 -0.03 -0.00    -0.019    13.726
ATOM     23  C   UNL d   1       8.699  10.616   5.456 -0.02 +0.00    +0.045    13.726
ATOM     24  C   UNL d   1       7.140  12.288   5.203 -0.12 -0.00    -0.022    13.726
ATOM     25  C   UNL d   1      10.553   8.994   5.669 -0.00 +0.00    +0.049    13.726
ATOM     26  C   UNL d   1      12.567   7.928   5.798 +0.00 -0.00    -0.018    13.726
ATOM     27  C   UNL d   1      11.232   7.843   5.295 -0.00 +0.00    +0.003    13.726
ATOM     28  C   UNL d   1       9.185   9.370   5.571 -0.01 +0.00    +0.052    13.726
ATOM     29  C   UNL d   1       5.900  13.097   5.030 -0.19 +0.00    +0.046    13.726
ATOM     30  C   UNL d   1      13.638   6.901   5.656 +0.00 +0.00    +0.046    13.726
ATOM     31  H   UNL d   1      10.341  11.963   5.407 +0.02 +0.02    +0.166    13.726
ATOM     32  H   UNL d   1      11.264  10.699   6.735 +0.01 +0.02    +0.166    13.726
ATOM     33  C   UNL d   1      16.555  11.112   7.472 -0.01 +0.04    +0.141    13.726
ATOM     34  C   UNL d   1      17.030  11.863   6.257 +0.01 +0.09    +0.306    13.726
ATOM     35  O   UNL d   1      16.626  11.716   5.116 +0.00 -0.06    -0.251    13.726
ATOM     36  O   UNL d   1      17.988  12.762   6.545 +0.00 -0.16    -0.481    13.726
ATOM     37  H   UNL d   1      17.568  13.371   7.189 +0.05 +0.16    +0.295    13.726
ATOM     38  C   UNL d   1      10.692   6.730   4.574 +0.00 +0.00    +0.017    13.726
ATOM     39  C   UNL d   1       9.884   6.818   3.506 +0.00 +0.01    +0.092    13.726
ATOM     40  C   UNL d   1       9.413   5.598   2.845 +0.00 +0.02    +0.330    13.726
ATOM     41  O   UNL d   1      10.050   4.591   2.600 +0.00 -0.01    -0.246    13.726
ATOM     42  O   UNL d   1       8.114   5.717   2.528 +0.00 -0.03    -0.477    13.726
ATOM     43  H   UNL d   1       8.001   6.675   2.360 +0.00 +0.02    +0.295    13.726
ATOM     44  C   UNL d   1      12.162  17.414   6.236 -0.35 +0.10    +0.141    13.726
ATOM     45  C   UNL d   1      11.561  17.138   7.588 -0.34 +0.21    +0.306    13.726
ATOM     46  O   UNL d   1      12.121  16.625   8.541 -0.78 -0.32    -0.251    13.726
ATOM     47  O   UNL d   1      10.268  17.502   7.661 -0.79 -0.18    -0.481    13.726
ATOM     48  H   UNL d   1       9.955  17.138   8.517 -0.28 -0.02    +0.295    13.726
ATOM     49  C   UNL d   1       6.163   9.927   5.323 -0.02 +0.00    +0.048    13.726
ATOM     50  C   UNL d   1       5.801   9.472   3.910 -0.00 +0.01    +0.125    13.726
ATOM     51  C   UNL d   1       6.851   8.550   3.358 +0.00 +0.03    +0.305    13.726
ATOM     52  O   UNL d   1       7.555   8.726   2.379 +0.00 -0.03    -0.251    13.726
ATOM     53  O   UNL d   1       6.955   7.416   4.079 +0.00 -0.03    -0.481    13.726
ATOM     54  H   UNL d   1       6.510   6.740   3.526 +0.00 +0.02    +0.295    13.726
TER
ENDMDL
MODEL       88
USER    Run = 88
USER    Cluster Rank = 67
USER    Number of conformations in this cluster = 1
USER  
USER    RMSD from reference structure       = 30.500 A
USER  
USER    Estimated Free Energy of Binding    =   -2.18 kcal/mol  [=(1)+(2)+(3)-(4)]
USER    Estimated Inhibition Constant, Ki   =   25.45 mM (millimolar)  [Temperature = 298.15 K]
USER    
USER    (1) Final Intermolecular Energy     =   -6.05 kcal/mol
USER        vdW + Hbond + desolv Energy     =   -5.92 kcal/mol
USER        Electrostatic Energy            =   -0.14 kcal/mol
USER    (2) Final Total Internal Energy     =   -4.55 kcal/mol
USER    (3) Torsional Free Energy           =   +3.88 kcal/mol
USER    (4) Unbound System's Energy  [=(2)] =   -4.55 kcal/mol
USER    
USER    
USER  
USER    DPF = D:/Protein_go_brrr/autodock/final/2DN3/heme/dock.dpf
USER    NEWDPF move	heme_opt.pdbqt
USER    NEWDPF about	0.153000 0.018000 -0.028000
USER    NEWDPF tran0	4.203108 24.154174 22.065352
USER    NEWDPF axisangle0	0.174965 0.872864 -0.455517 77.167087
USER    NEWDPF quaternion0	0.109118 0.544366 -0.284086 0.781700
USER    NEWDPF dihe0	157.22 -172.14 -83.57 19.68 -145.38 93.74 168.38 -3.28 9.66 -105.85 -71.32 -106.95 7.12 
USER  
USER                              x       y       z    vdW   Elec        q     RMS 
ATOM      1  O   UNL d   1       1.682  22.282  17.076 -0.06 +0.02    -0.289    30.500
ATOM      2  O   UNL d   1       6.568  18.929  21.689 -0.16 -0.04    -0.289    30.500
ATOM      3  N   UNL d   1       3.006  23.845  19.851 -0.08 +0.00    -0.247    30.500
ATOM      4  N   UNL d   1       4.552  21.683  21.180 -0.09 +0.02    -0.247    30.500
ATOM      5  N   UNL d   1       4.718  23.360  23.509 +0.01 +0.02    -0.354    30.500
ATOM      6  N   UNL d   1       3.096  25.590  22.130 -0.08 -0.00    -0.354    30.500
ATOM      7  C   UNL d   1       1.290  24.418  18.197 -0.04 -0.00    +0.084    30.500
ATOM      8  C   UNL d   1       5.378  19.869  19.767 -0.16 +0.01    +0.084    30.500
ATOM      9  C   UNL d   1       4.543  21.145  19.912 -0.13 -0.00    +0.058    30.500
ATOM     10  C   UNL d   1       2.082  24.796  19.453 -0.07 -0.00    +0.058    30.500
ATOM     11  C   UNL d   1       1.943  23.092  17.946 -0.05 -0.01    +0.193    30.500
ATOM     12  C   UNL d   1       2.983  22.871  19.001 -0.09 -0.00    +0.109    30.500
ATOM     13  C   UNL d   1       5.831  19.761  21.196 -0.15 +0.01    +0.193    30.500
ATOM     14  C   UNL d   1      -0.193  24.190  18.501 -0.02 -0.00    +0.026    30.500
ATOM     15  C   UNL d   1       3.826  21.662  18.903 -0.13 -0.00    +0.055    30.500
ATOM     16  C   UNL d   1       6.605  20.091  18.877 -0.33 +0.01    +0.026    30.500
ATOM     17  C   UNL d   1       5.256  20.916  21.949 -0.16 -0.01    +0.109    30.500
ATOM     18  C   UNL d   1       1.933  25.997  20.042 -0.09 -0.00    +0.050    30.500
ATOM     19  C   UNL d   1       2.680  26.466  21.153 -0.14 -0.00    +0.045    30.500
ATOM     20  C   UNL d   1       5.203  22.188  24.028 -0.16 -0.00    +0.045    30.500
ATOM     21  C   UNL d   1       5.497  21.049  23.393 -0.21 -0.00    +0.057    30.500
ATOM     22  C   UNL d   1       4.952  23.698  25.724 -0.12 +0.00    -0.019    30.500
ATOM     23  C   UNL d   1       4.533  24.331  24.457 -0.17 +0.00    +0.045    30.500
ATOM     24  C   UNL d   1       5.349  22.430  25.463 -0.14 +0.00    -0.022    30.500
ATOM     25  C   UNL d   1       3.721  26.267  23.152 -0.22 +0.00    +0.049    30.500
ATOM     26  C   UNL d   1       3.076  27.739  21.532 -0.22 +0.00    -0.018    30.500
ATOM     27  C   UNL d   1       3.750  27.605  22.785 -0.28 -0.00    +0.003    30.500
ATOM     28  C   UNL d   1       4.099  25.596  24.346 -0.21 +0.00    +0.052    30.500
ATOM     29  C   UNL d   1       5.867  21.401  26.409 -0.11 -0.00    +0.046    30.500
ATOM     30  C   UNL d   1       2.846  29.005  20.777 -0.07 -0.00    +0.046    30.500
ATOM     31  H   UNL d   1       4.598  23.484  22.510 -0.24 -0.03    +0.166    30.500
ATOM     32  H   UNL d   1       2.920  24.593  22.100 +0.03 -0.00    +0.166    30.500
ATOM     33  C   UNL d   1       1.481  25.349  16.995 -0.09 -0.01    +0.141    30.500
ATOM     34  C   UNL d   1       2.922  25.464  16.575 -0.15 -0.02    +0.306    30.500
ATOM     35  O   UNL d   1       3.722  26.295  16.968 -0.19 +0.01    -0.251    30.500
ATOM     36  O   UNL d   1       3.278  24.523  15.683 -0.09 +0.05    -0.481    30.500
ATOM     37  H   UNL d   1       2.657  23.781  15.844 +0.11 -0.02    +0.295    30.500
ATOM     38  C   UNL d   1       4.309  28.685  23.541 -0.28 -0.00    +0.017    30.500
ATOM     39  C   UNL d   1       3.825  29.148  24.704 -0.25 +0.00    +0.092    30.500
ATOM     40  C   UNL d   1       4.503  30.251  25.389 -0.20 +0.02    +0.330    30.500
ATOM     41  O   UNL d   1       4.282  31.442  25.280 -0.27 -0.02    -0.246    30.500
ATOM     42  O   UNL d   1       5.450  29.773  26.211 -0.11 -0.08    -0.477    30.500
ATOM     43  H   UNL d   1       5.481  28.816  26.001 +0.05 +0.04    +0.295    30.500
ATOM     44  C   UNL d   1       4.603  18.617  19.341 -0.07 +0.02    +0.141    30.500
ATOM     45  C   UNL d   1       5.269  17.334  19.762 -0.06 +0.09    +0.306    30.500
ATOM     46  O   UNL d   1       4.773  16.443  20.429 -0.03 -0.05    -0.251    30.500
ATOM     47  O   UNL d   1       6.543  17.253  19.338 -0.09 -0.30    -0.481    30.500
ATOM     48  H   UNL d   1       7.077  17.568  20.098 +0.11 +0.15    +0.295    30.500
ATOM     49  C   UNL d   1       4.911  24.379  27.060 -0.07 +0.00    +0.048    30.500
ATOM     50  C   UNL d   1       6.060  25.373  27.227 -0.09 +0.00    +0.125    30.500
ATOM     51  C   UNL d   1       5.554  26.787  27.203 -0.04 +0.03    +0.305    30.500
ATOM     52  O   UNL d   1       4.433  27.171  26.916 -0.06 -0.02    -0.251    30.500
ATOM     53  O   UNL d   1       6.514  27.672  27.540 +0.00 -0.10    -0.481    30.500
ATOM     54  H   UNL d   1       6.016  28.477  27.795 +0.07 +0.07    +0.295    30.500
TER
ENDMDL
MODEL       71
USER    Run = 71
USER    Cluster Rank = 68
USER    Number of conformations in this cluster = 1
USER  
USER    RMSD from reference structure       = 24.204 A
USER  
USER    Estimated Free Energy of Binding    =   -2.15 kcal/mol  [=(1)+(2)+(3)-(4)]
USER    Estimated Inhibition Constant, Ki   =   26.34 mM (millimolar)  [Temperature = 298.15 K]
USER    
USER    (1) Final Intermolecular Energy     =   -6.03 kcal/mol
USER        vdW + Hbond + desolv Energy     =   -5.90 kcal/mol
USER        Electrostatic Energy            =   -0.13 kcal/mol
USER    (2) Final Total Internal Energy     =   -4.51 kcal/mol
USER    (3) Torsional Free Energy           =   +3.88 kcal/mol
USER    (4) Unbound System's Energy  [=(2)] =   -4.51 kcal/mol
USER    
USER    
USER  
USER    DPF = D:/Protein_go_brrr/autodock/final/2DN3/heme/dock.dpf
USER    NEWDPF move	heme_opt.pdbqt
USER    NEWDPF about	0.153000 0.018000 -0.028000
USER    NEWDPF tran0	6.478860 15.295060 20.119039
USER    NEWDPF axisangle0	-0.723098 -0.150252 -0.674206 173.255113
USER    NEWDPF quaternion0	-0.721845 -0.149991 -0.673039 0.058826
USER    NEWDPF dihe0	159.36 175.67 -115.49 12.71 -143.17 -19.64 130.29 29.40 16.31 -64.80 -57.57 -24.92 -9.97 
USER  
USER                              x       y       z    vdW   Elec        q     RMS 
ATOM      1  O   UNL d   1       7.077  12.110  15.194 -0.08 +0.04    -0.289    24.204
ATOM      2  O   UNL d   1       4.121  18.919  16.332 -0.08 +0.00    -0.289    24.204
ATOM      3  N   UNL d   1       6.819  13.536  18.324 -0.12 -0.19    -0.247    24.204
ATOM      4  N   UNL d   1       5.835  16.279  17.746 -0.52 -0.21    -0.247    24.204
ATOM      5  N   UNL d   1       6.504  16.989  20.451 -0.09 -0.14    -0.354    24.204
ATOM      6  N   UNL d   1       7.541  14.145  21.036 -0.07 -0.15    -0.354    24.204
ATOM      7  C   UNL d   1       7.844  11.496  17.432 -0.04 +0.02    +0.084    24.204
ATOM      8  C   UNL d   1       4.560  16.599  15.687 -0.11 +0.00    +0.084    24.204
ATOM      9  C   UNL d   1       5.395  15.682  16.586 -0.09 +0.02    +0.058    24.204
ATOM     10  C   UNL d   1       7.546  12.398  18.633 -0.08 +0.03    +0.058    24.204
ATOM     11  C   UNL d   1       7.141  12.315  16.392 -0.06 +0.05    +0.193    24.204
ATOM     12  C   UNL d   1       6.539  13.512  17.062 -0.03 +0.07    +0.109    24.204
ATOM     13  C   UNL d   1       4.638  17.838  16.533 -0.08 +0.02    +0.193    24.204
ATOM     14  C   UNL d   1       9.338  11.453  17.102 -0.07 +0.01    +0.026    24.204
ATOM     15  C   UNL d   1       5.712  14.423  16.245 -0.12 +0.02    +0.055    24.204
ATOM     16  C   UNL d   1       3.099  16.145  15.613 -0.05 -0.00    +0.026    24.204
ATOM     17  C   UNL d   1       5.445  17.513  17.749 -0.12 +0.05    +0.109    24.204
ATOM     18  C   UNL d   1       7.895  12.042  19.884 -0.09 +0.02    +0.050    24.204
ATOM     19  C   UNL d   1       7.588  12.770  21.062 -0.08 +0.01    +0.045    24.204
ATOM     20  C   UNL d   1       6.229  18.232  19.943 -0.16 +0.01    +0.045    24.204
ATOM     21  C   UNL d   1       5.728  18.556  18.747 -0.19 +0.02    +0.057    24.204
ATOM     22  C   UNL d   1       7.066  18.467  22.055 -0.30 -0.00    -0.019    24.204
ATOM     23  C   UNL d   1       7.013  17.029  21.722 -0.23 +0.01    +0.045    24.204
ATOM     24  C   UNL d   1       6.599  19.173  20.999 -0.26 -0.00    -0.022    24.204
ATOM     25  C   UNL d   1       7.318  14.645  22.298 -0.13 +0.01    +0.049    24.204
ATOM     26  C   UNL d   1       7.354  12.364  22.366 -0.08 -0.00    -0.018    24.204
ATOM     27  C   UNL d   1       7.164  13.551  23.139 -0.10 +0.00    +0.003    24.204
ATOM     28  C   UNL d   1       7.383  16.042  22.552 -0.18 +0.01    +0.052    24.204
ATOM     29  C   UNL d   1       6.446  20.649  20.858 -0.33 -0.00    +0.046    24.204
ATOM     30  C   UNL d   1       7.306  10.960  22.867 -0.04 +0.00    +0.046    24.204
ATOM     31  H   UNL d   1       6.264  16.146  19.940 +0.04 +0.09    +0.166    24.204
ATOM     32  H   UNL d   1       7.693  14.696  20.199 +0.04 +0.12    +0.166    24.204
ATOM     33  C   UNL d   1       7.243  10.087  17.503 +0.00 +0.01    +0.141    24.204
ATOM     34  C   UNL d   1       5.739  10.099  17.506 +0.01 +0.02    +0.306    24.204
ATOM     35  O   UNL d   1       5.021  10.171  18.490 +0.00 -0.02    -0.251    24.204
ATOM     36  O   UNL d   1       5.217  10.022  16.269 +0.01 -0.01    -0.481    24.204
ATOM     37  H   UNL d   1       5.929  10.353  15.681 +0.01 -0.00    +0.295    24.204
ATOM     38  C   UNL d   1       6.910  13.587  24.548 -0.08 +0.00    +0.017    24.204
ATOM     39  C   UNL d   1       6.514  14.668  25.236 -0.05 +0.01    +0.092    24.204
ATOM     40  C   UNL d   1       6.270  14.568  26.677 -0.01 +0.01    +0.330    24.204
ATOM     41  O   UNL d   1       6.026  13.566  27.322 -0.00 -0.01    -0.246    24.204
ATOM     42  O   UNL d   1       6.360  15.780  27.246 +0.01 -0.01    -0.477    24.204
ATOM     43  H   UNL d   1       6.638  16.364  26.511 +0.03 +0.01    +0.295    24.204
ATOM     44  C   UNL d   1       5.132  16.853  14.288 -0.24 -0.05    +0.141    24.204
ATOM     45  C   UNL d   1       5.533  18.286  14.061 -0.25 -0.04    +0.306    24.204
ATOM     46  O   UNL d   1       6.603  18.795  14.344 -0.51 -0.01    -0.251    24.204
ATOM     47  O   UNL d   1       4.545  19.015  13.511 -0.35 +0.08    -0.481    24.204
ATOM     48  H   UNL d   1       3.830  19.012  14.183 +0.00 -0.09    +0.295    24.204
ATOM     49  C   UNL d   1       7.576  19.011  23.357 -0.32 +0.00    +0.048    24.204
ATOM     50  C   UNL d   1       6.448  19.219  24.368 -0.15 +0.01    +0.125    24.204
ATOM     51  C   UNL d   1       6.717  18.458  25.635 -0.06 +0.01    +0.305    24.204
ATOM     52  O   UNL d   1       7.794  18.082  26.062 -0.10 -0.01    -0.251    24.204
ATOM     53  O   UNL d   1       5.583  18.191  26.313 +0.01 -0.01    -0.481    24.204
ATOM     54  H   UNL d   1       5.896  17.885  27.190 +0.02 +0.01    +0.295    24.204
TER
ENDMDL
MODEL       33
USER    Run = 33
USER    Cluster Rank = 69
USER    Number of conformations in this cluster = 1
USER  
USER    RMSD from reference structure       = 30.403 A
USER  
USER    Estimated Free Energy of Binding    =   -2.14 kcal/mol  [=(1)+(2)+(3)-(4)]
USER    Estimated Inhibition Constant, Ki   =   26.80 mM (millimolar)  [Temperature = 298.15 K]
USER    
USER    (1) Final Intermolecular Energy     =   -6.02 kcal/mol
USER        vdW + Hbond + desolv Energy     =   -5.93 kcal/mol
USER        Electrostatic Energy            =   -0.09 kcal/mol
USER    (2) Final Total Internal Energy     =   -3.81 kcal/mol
USER    (3) Torsional Free Energy           =   +3.88 kcal/mol
USER    (4) Unbound System's Energy  [=(2)] =   -3.81 kcal/mol
USER    
USER    
USER  
USER    DPF = D:/Protein_go_brrr/autodock/final/2DN3/heme/dock.dpf
USER    NEWDPF move	heme_opt.pdbqt
USER    NEWDPF about	0.153000 0.018000 -0.028000
USER    NEWDPF tran0	14.367635 27.514217 -14.442060
USER    NEWDPF axisangle0	0.142358 -0.364253 -0.920355 -141.286308
USER    NEWDPF quaternion0	0.134311 -0.343663 -0.868330 -0.331451
USER    NEWDPF dihe0	179.78 167.12 -142.97 54.99 55.86 117.99 128.44 77.05 161.19 -11.42 -57.79 -167.45 19.63 
USER  
USER                              x       y       z    vdW   Elec        q     RMS 
ATOM      1  O   UNL d   1      19.061  30.672 -12.782 -0.06 +0.02    -0.289    30.403
ATOM      2  O   UNL d   1      14.731  31.124 -18.900 -0.01 -0.00    -0.289    30.403
ATOM      3  N   UNL d   1      16.464  28.487 -13.398 -0.14 +0.03    -0.247    30.403
ATOM      4  N   UNL d   1      15.182  29.619 -15.828 -0.05 +0.03    -0.247    30.403
ATOM      5  N   UNL d   1      12.940  27.886 -15.339 -0.02 +0.07    -0.354    30.403
ATOM      6  N   UNL d   1      14.270  26.731 -12.809 -0.15 +0.16    -0.354    30.403
ATOM      7  C   UNL d   1      17.995  28.868 -11.522 -0.23 -0.01    +0.084    30.403
ATOM      8  C   UNL d   1      16.585  30.961 -17.311 -0.03 -0.00    +0.084    30.403
ATOM      9  C   UNL d   1      16.423  30.191 -15.996 -0.10 -0.00    +0.058    30.403
ATOM     10  C   UNL d   1      16.823  28.086 -12.122 -0.24 -0.01    +0.058    30.403
ATOM     11  C   UNL d   1      18.247  29.771 -12.692 -0.11 -0.02    +0.193    30.403
ATOM     12  C   UNL d   1      17.272  29.425 -13.774 -0.12 -0.01    +0.109    30.403
ATOM     13  C   UNL d   1      15.195  30.751 -17.841 -0.03 -0.00    +0.193    30.403
ATOM     14  C   UNL d   1      17.565  29.719 -10.324 -0.35 -0.01    +0.026    30.403
ATOM     15  C   UNL d   1      17.390  30.127 -15.068 -0.12 -0.00    +0.055    30.403
ATOM     16  C   UNL d   1      17.580  30.274 -18.252 -0.01 -0.00    +0.026    30.403
ATOM     17  C   UNL d   1      14.443  29.929 -16.845 -0.07 -0.01    +0.109    30.403
ATOM     18  C   UNL d   1      16.271  27.042 -11.476 -0.22 -0.01    +0.050    30.403
ATOM     19  C   UNL d   1      15.243  26.209 -11.987 -0.28 -0.02    +0.045    30.403
ATOM     20  C   UNL d   1      12.417  28.672 -16.332 -0.09 -0.00    +0.045    30.403
ATOM     21  C   UNL d   1      13.029  29.599 -17.077 -0.09 -0.00    +0.057    30.403
ATOM     22  C   UNL d   1      10.767  27.322 -15.514 -0.14 +0.00    -0.019    30.403
ATOM     23  C   UNL d   1      12.019  27.038 -14.784 -0.18 -0.01    +0.045    30.403
ATOM     24  C   UNL d   1      11.009  28.290 -16.429 -0.10 +0.00    -0.022    30.403
ATOM     25  C   UNL d   1      13.329  25.775 -13.111 -0.16 -0.04    +0.049    30.403
ATOM     26  C   UNL d   1      14.947  24.870 -11.781 -0.27 +0.01    -0.018    30.403
ATOM     27  C   UNL d   1      13.748  24.597 -12.509 -0.17 -0.00    +0.003    30.403
ATOM     28  C   UNL d   1      12.143  26.116 -13.818 -0.22 -0.03    +0.052    30.403
ATOM     29  C   UNL d   1      10.069  28.904 -17.409 -0.05 +0.00    +0.046    30.403
ATOM     30  C   UNL d   1      15.730  23.902 -10.960 -0.31 -0.02    +0.046    30.403
ATOM     31  H   UNL d   1      13.931  27.901 -15.122 +0.04 -0.03    +0.166    30.403
ATOM     32  H   UNL d   1      14.246  27.700 -13.104 +0.06 -0.06    +0.166    30.403
ATOM     33  C   UNL d   1      19.244  28.040 -11.204 -0.14 -0.03    +0.141    30.403
ATOM     34  C   UNL d   1      20.040  28.608 -10.060 -0.12 -0.10    +0.306    30.403
ATOM     35  O   UNL d   1      20.154  28.119  -8.949 -0.24 +0.12    -0.251    30.403
ATOM     36  O   UNL d   1      20.652  29.762 -10.377 -0.01 +0.16    -0.481    30.403
ATOM     37  H   UNL d   1      20.439  29.903 -11.324 +0.08 -0.06    +0.295    30.403
ATOM     38  C   UNL d   1      13.082  23.330 -12.556 -0.13 -0.01    +0.017    30.403
ATOM     39  C   UNL d   1      12.771  22.579 -11.488 -0.21 -0.08    +0.092    30.403
ATOM     40  C   UNL d   1      12.070  21.305 -11.671 -0.10 -0.06    +0.330    30.403
ATOM     41  O   UNL d   1      12.477  20.189 -11.413 -0.13 +0.03    -0.246    30.403
ATOM     42  O   UNL d   1      10.847  21.520 -12.180 -0.35 -0.07    -0.477    30.403
ATOM     43  H   UNL d   1      10.716  22.485 -12.077 +0.00 -0.15    +0.295    30.403
ATOM     44  C   UNL d   1      16.898  32.454 -17.168 -0.03 +0.00    +0.141    30.403
ATOM     45  C   UNL d   1      15.821  33.220 -16.447 -0.06 +0.00    +0.306    30.403
ATOM     46  O   UNL d   1      15.694  33.334 -15.241 -0.12 +0.00    -0.251    30.403
ATOM     47  O   UNL d   1      14.939  33.785 -17.291 -0.01 -0.01    -0.481    30.403
ATOM     48  H   UNL d   1      14.846  33.137 -18.022 +0.02 +0.01    +0.295    30.403
ATOM     49  C   UNL d   1       9.459  26.639 -15.240 -0.14 -0.00    +0.048    30.403
ATOM     50  C   UNL d   1       9.526  25.142 -15.539 -0.05 -0.02    +0.125    30.403
ATOM     51  C   UNL d   1       9.156  24.336 -14.326 -0.07 -0.10    +0.305    30.403
ATOM     52  O   UNL d   1       8.054  24.217 -13.820 -0.10 +0.07    -0.251    30.403
ATOM     53  O   UNL d   1      10.224  23.713 -13.790 -0.06 +0.28    -0.481    30.403
ATOM     54  H   UNL d   1       9.957  22.770 -13.754 +0.06 -0.09    +0.295    30.403
TER
ENDMDL
MODEL       52
USER    Run = 52
USER    Cluster Rank = 70
USER    Number of conformations in this cluster = 1
USER  
USER    RMSD from reference structure       = 44.211 A
USER  
USER    Estimated Free Energy of Binding    =   -2.14 kcal/mol  [=(1)+(2)+(3)-(4)]
USER    Estimated Inhibition Constant, Ki   =   26.85 mM (millimolar)  [Temperature = 298.15 K]
USER    
USER    (1) Final Intermolecular Energy     =   -6.02 kcal/mol
USER        vdW + Hbond + desolv Energy     =   -5.46 kcal/mol
USER        Electrostatic Energy            =   -0.56 kcal/mol
USER    (2) Final Total Internal Energy     =   -3.21 kcal/mol
USER    (3) Torsional Free Energy           =   +3.88 kcal/mol
USER    (4) Unbound System's Energy  [=(2)] =   -3.21 kcal/mol
USER    
USER    
USER  
USER    DPF = D:/Protein_go_brrr/autodock/final/2DN3/heme/dock.dpf
USER    NEWDPF move	heme_opt.pdbqt
USER    NEWDPF about	0.153000 0.018000 -0.028000
USER    NEWDPF tran0	43.003223 15.558353 16.318696
USER    NEWDPF axisangle0	0.379013 -0.817468 0.433700 168.285796
USER    NEWDPF quaternion0	0.377034 -0.813200 0.431436 0.102048
USER    NEWDPF dihe0	168.00 162.88 136.40 51.21 -154.30 -81.18 117.29 81.46 2.27 125.42 -31.95 14.54 17.23 
USER  
USER                              x       y       z    vdW   Elec        q     RMS 
ATOM      1  O   UNL d   1      46.333  19.668  13.716 -0.39 -0.32    -0.289    44.211
ATOM      2  O   UNL d   1      46.619  16.744  20.627 -0.06 -0.07    -0.289    44.211
ATOM      3  N   UNL d   1      44.054  17.345  14.857 -0.04 -0.07    -0.247    44.211
ATOM      4  N   UNL d   1      45.135  16.576  17.516 -0.06 -0.07    -0.247    44.211
ATOM      5  N   UNL d   1      43.321  14.345  17.505 +0.07 -0.07    -0.354    44.211
ATOM      6  N   UNL d   1      42.219  15.139  14.738 -0.05 -0.05    -0.354    44.211
ATOM      7  C   UNL d   1      44.493  18.421  12.699 -0.12 +0.03    +0.084    44.211
ATOM      8  C   UNL d   1      46.526  18.217  18.674 -0.09 +0.03    +0.084    44.211
ATOM      9  C   UNL d   1      45.752  17.803  17.418 -0.09 +0.02    +0.058    44.211
ATOM     10  C   UNL d   1      43.667  17.435  13.530 -0.07 +0.01    +0.058    44.211
ATOM     11  C   UNL d   1      45.403  18.887  13.796 -0.11 +0.11    +0.193    44.211
ATOM     12  C   UNL d   1      45.020  18.181  15.059 -0.07 +0.05    +0.109    44.211
ATOM     13  C   UNL d   1      46.264  16.982  19.489 -0.08 +0.05    +0.193    44.211
ATOM     14  C   UNL d   1      45.328  17.713  11.630 -0.11 +0.01    +0.026    44.211
ATOM     15  C   UNL d   1      45.724  18.550  16.304 -0.12 +0.03    +0.055    44.211
ATOM     16  C   UNL d   1      45.875  19.415  19.373 -0.19 +0.01    +0.026    44.211
ATOM     17  C   UNL d   1      45.416  16.063  18.670 -0.10 +0.03    +0.109    44.211
ATOM     18  C   UNL d   1      42.605  16.794  13.009 -0.11 +0.01    +0.050    44.211
ATOM     19  C   UNL d   1      41.734  15.931  13.721 -0.13 +0.01    +0.045    44.211
ATOM     20  C   UNL d   1      44.087  14.021  18.594 -0.11 +0.01    +0.045    44.211
ATOM     21  C   UNL d   1      45.034  14.745  19.198 -0.12 +0.01    +0.057    44.211
ATOM     22  C   UNL d   1      42.678  12.282  18.138 -0.08 -0.00    -0.019    44.211
ATOM     23  C   UNL d   1      42.441  13.357  17.154 -0.08 +0.01    +0.045    44.211
ATOM     24  C   UNL d   1      43.652  12.681  18.989 -0.08 -0.00    -0.022    44.211
ATOM     25  C   UNL d   1      41.228  14.320  15.227 -0.13 +0.01    +0.049    44.211
ATOM     26  C   UNL d   1      40.386  15.645  13.571 -0.16 -0.00    -0.018    44.211
ATOM     27  C   UNL d   1      40.067  14.642  14.538 -0.19 +0.00    +0.003    44.211
ATOM     28  C   UNL d   1      41.525  13.303  16.175 -0.12 +0.01    +0.052    44.211
ATOM     29  C   UNL d   1      44.231  11.952  20.153 -0.04 +0.01    +0.046    44.211
ATOM     30  C   UNL d   1      39.448  16.267  12.592 -0.24 +0.00    +0.046    44.211
ATOM     31  H   UNL d   1      43.373  15.265  17.080 +0.04 +0.04    +0.166    44.211
ATOM     32  H   UNL d   1      43.186  15.145  15.040 +0.03 +0.03    +0.166    44.211
ATOM     33  C   UNL d   1      43.712  19.602  12.112 -0.27 +0.03    +0.141    44.211
ATOM     34  C   UNL d   1      42.868  20.306  13.140 -0.25 +0.07    +0.306    44.211
ATOM     35  O   UNL d   1      41.668  20.162  13.308 -0.32 -0.04    -0.251    44.211
ATOM     36  O   UNL d   1      43.580  21.153  13.903 -0.10 -0.22    -0.481    44.211
ATOM     37  H   UNL d   1      44.515  20.908  13.737 +0.15 +0.21    +0.295    44.211
ATOM     38  C   UNL d   1      38.777  14.047  14.715 -0.21 +0.00    +0.017    44.211
ATOM     39  C   UNL d   1      38.126  13.944  15.884 -0.24 +0.01    +0.092    44.211
ATOM     40  C   UNL d   1      36.798  13.327  15.928 -0.10 +0.05    +0.330    44.211
ATOM     41  O   UNL d   1      35.726  13.850  15.689 -0.15 -0.06    -0.246    44.211
ATOM     42  O   UNL d   1      36.901  12.035  16.275 +0.00 -0.06    -0.477    44.211
ATOM     43  H   UNL d   1      37.845  11.825  16.121 +0.04 +0.03    +0.295    44.211
ATOM     44  C   UNL d   1      48.030  18.439  18.481 -0.04 +0.07    +0.141    44.211
ATOM     45  C   UNL d   1      48.355  19.736  17.790 -0.02 +0.33    +0.306    44.211
ATOM     46  O   UNL d   1      48.280  20.854  18.270 -0.27 -0.30    -0.251    44.211
ATOM     47  O   UNL d   1      48.736  19.558  16.512 -0.40 -0.80    -0.481    44.211
ATOM     48  H   UNL d   1      49.360  18.801  16.543 +0.02 +0.26    +0.295    44.211
ATOM     49  C   UNL d   1      41.947  10.971  18.146 -0.04 +0.01    +0.048    44.211
ATOM     50  C   UNL d   1      40.464  11.148  18.468 -0.06 +0.01    +0.125    44.211
ATOM     51  C   UNL d   1      39.636  10.100  17.780 -0.01 +0.03    +0.305    44.211
ATOM     52  O   UNL d   1      39.525   8.925  18.083 -0.00 -0.02    -0.251    44.211
ATOM     53  O   UNL d   1      38.983  10.595  16.710 +0.00 -0.05    -0.481    44.211
ATOM     54  H   UNL d   1      38.054  10.312  16.846 +0.02 +0.03    +0.295    44.211
TER
ENDMDL
MODEL       17
USER    Run = 17
USER    Cluster Rank = 71
USER    Number of conformations in this cluster = 1
USER  
USER    RMSD from reference structure       = 26.882 A
USER  
USER    Estimated Free Energy of Binding    =   -2.02 kcal/mol  [=(1)+(2)+(3)-(4)]
USER    Estimated Inhibition Constant, Ki   =   33.13 mM (millimolar)  [Temperature = 298.15 K]
USER    
USER    (1) Final Intermolecular Energy     =   -5.90 kcal/mol
USER        vdW + Hbond + desolv Energy     =   -5.65 kcal/mol
USER        Electrostatic Energy            =   -0.24 kcal/mol
USER    (2) Final Total Internal Energy     =   -4.23 kcal/mol
USER    (3) Torsional Free Energy           =   +3.88 kcal/mol
USER    (4) Unbound System's Energy  [=(2)] =   -4.23 kcal/mol
USER    
USER    
USER  
USER    DPF = D:/Protein_go_brrr/autodock/final/2DN3/heme/dock.dpf
USER    NEWDPF move	heme_opt.pdbqt
USER    NEWDPF about	0.153000 0.018000 -0.028000
USER    NEWDPF tran0	5.322287 19.389544 21.005794
USER    NEWDPF axisangle0	0.364540 -0.919146 -0.149268 -73.574244
USER    NEWDPF quaternion0	0.218303 -0.550425 -0.089388 -0.800866
USER    NEWDPF dihe0	91.53 -151.11 -75.69 21.32 -167.95 5.19 179.15 31.54 96.19 -111.79 -64.62 -80.03 8.42 
USER  
USER                              x       y       z    vdW   Elec        q     RMS 
ATOM      1  O   UNL d   1       2.440  22.880  17.228 -0.09 +0.02    -0.289    26.882
ATOM      2  O   UNL d   1       6.242  16.499  16.124 -0.14 -0.19    -0.289    26.882
ATOM      3  N   UNL d   1       4.104  21.234  19.762 -0.07 +0.00    -0.247    26.882
ATOM      4  N   UNL d   1       5.020  18.725  18.460 -0.06 -0.05    -0.247    26.882
ATOM      5  N   UNL d   1       5.600  17.687  21.079 -0.03 -0.07    -0.354    26.882
ATOM      6  N   UNL d   1       4.629  20.287  22.422 -0.02 +0.00    -0.354    26.882
ATOM      7  C   UNL d   1       2.611  23.174  19.649 -0.07 -0.00    +0.084    26.882
ATOM      8  C   UNL d   1       5.355  18.778  16.041 -0.25 +0.01    +0.084    26.882
ATOM      9  C   UNL d   1       4.882  19.480  17.318 -0.16 +0.00    +0.058    26.882
ATOM     10  C   UNL d   1       3.464  22.222  20.492 -0.10 -0.00    +0.058    26.882
ATOM     11  C   UNL d   1       2.897  22.561  18.311 -0.08 -0.01    +0.193    26.882
ATOM     12  C   UNL d   1       3.834  21.410  18.510 -0.10 -0.00    +0.109    26.882
ATOM     13  C   UNL d   1       5.753  17.471  16.665 -0.13 +0.08    +0.193    26.882
ATOM     14  C   UNL d   1       1.117  23.029  19.951 -0.03 -0.00    +0.026    26.882
ATOM     15  C   UNL d   1       4.333  20.705  17.312 -0.21 -0.00    +0.055    26.882
ATOM     16  C   UNL d   1       6.604  19.445  15.456 -0.22 +0.00    +0.026    26.882
ATOM     17  C   UNL d   1       5.493  17.565  18.133 -0.12 +0.05    +0.109    26.882
ATOM     18  C   UNL d   1       3.630  22.410  21.814 -0.12 -0.00    +0.050    26.882
ATOM     19  C   UNL d   1       4.464  21.633  22.658 -0.13 -0.00    +0.045    26.882
ATOM     20  C   UNL d   1       5.758  16.548  20.333 -0.11 +0.02    +0.045    26.882
ATOM     21  C   UNL d   1       5.749  16.408  19.004 -0.14 +0.03    +0.057    26.882
ATOM     22  C   UNL d   1       5.896  16.007  22.548 -0.08 -0.00    -0.019    26.882
ATOM     23  C   UNL d   1       5.667  17.460  22.427 -0.08 +0.01    +0.045    26.882
ATOM     24  C   UNL d   1       5.950  15.472  21.305 -0.09 -0.01    -0.022    26.882
ATOM     25  C   UNL d   1       5.400  19.714  23.407 -0.10 +0.00    +0.049    26.882
ATOM     26  C   UNL d   1       5.176  21.951  23.804 -0.17 +0.00    -0.018    26.882
ATOM     27  C   UNL d   1       5.781  20.740  24.261 -0.17 -0.00    +0.003    26.882
ATOM     28  C   UNL d   1       5.580  18.306  23.466 -0.09 +0.00    +0.052    26.882
ATOM     29  C   UNL d   1       6.173  14.052  20.909 -0.09 +0.01    +0.046    26.882
ATOM     30  C   UNL d   1       5.291  23.296  24.436 -0.22 -0.00    +0.046    26.882
ATOM     31  H   UNL d   1       5.524  18.598  20.638 +0.05 +0.03    +0.166    26.882
ATOM     32  H   UNL d   1       4.198  19.796  21.647 +0.03 +0.00    +0.166    26.882
ATOM     33  C   UNL d   1       3.049  24.643  19.672 -0.12 +0.00    +0.141    26.882
ATOM     34  C   UNL d   1       2.857  25.325  18.345 -0.08 -0.00    +0.306    26.882
ATOM     35  O   UNL d   1       3.741  25.745  17.617 -0.17 +0.00    -0.251    26.882
ATOM     36  O   UNL d   1       1.562  25.441  18.003 +0.01 +0.01    -0.481    26.882
ATOM     37  H   UNL d   1       1.369  24.629  17.488 +0.06 -0.01    +0.295    26.882
ATOM     38  C   UNL d   1       6.597  20.616  25.432 -0.15 +0.00    +0.017    26.882
ATOM     39  C   UNL d   1       6.518  19.620  26.328 -0.10 +0.00    +0.092    26.882
ATOM     40  C   UNL d   1       7.426  19.601  27.478 -0.04 +0.02    +0.330    26.882
ATOM     41  O   UNL d   1       8.259  20.434  27.783 -0.13 -0.05    -0.246    26.882
ATOM     42  O   UNL d   1       7.219  18.496  28.212 +0.00 -0.01    -0.477    26.882
ATOM     43  H   UNL d   1       6.897  17.839  27.560 +0.04 +0.01    +0.295    26.882
ATOM     44  C   UNL d   1       4.283  18.570  14.966 -0.26 -0.02    +0.141    26.882
ATOM     45  C   UNL d   1       4.653  17.518  13.954 -0.24 -0.06    +0.306    26.882
ATOM     46  O   UNL d   1       3.932  16.632  13.530 -0.16 +0.05    -0.251    26.882
ATOM     47  O   UNL d   1       5.931  17.623  13.547 -0.32 +0.21    -0.481    26.882
ATOM     48  H   UNL d   1       6.402  16.904  14.021 -0.39 -0.34    +0.295    26.882
ATOM     49  C   UNL d   1       6.024  15.280  23.855 -0.07 +0.00    +0.048    26.882
ATOM     50  C   UNL d   1       7.379  15.531  24.515 -0.11 +0.01    +0.125    26.882
ATOM     51  C   UNL d   1       7.214  16.252  25.822 -0.05 +0.02    +0.305    26.882
ATOM     52  O   UNL d   1       6.239  16.253  26.552 -0.01 -0.01    -0.251    26.882
ATOM     53  O   UNL d   1       8.312  16.964  26.148 -0.04 -0.02    -0.481    26.882
ATOM     54  H   UNL d   1       8.234  17.091  27.116 +0.06 +0.01    +0.295    26.882
TER
ENDMDL
MODEL       77
USER    Run = 77
USER    Cluster Rank = 72
USER    Number of conformations in this cluster = 1
USER  
USER    RMSD from reference structure       = 53.479 A
USER  
USER    Estimated Free Energy of Binding    =   -1.85 kcal/mol  [=(1)+(2)+(3)-(4)]
USER    Estimated Inhibition Constant, Ki   =   44.39 mM (millimolar)  [Temperature = 298.15 K]
USER    
USER    (1) Final Intermolecular Energy     =   -5.72 kcal/mol
USER        vdW + Hbond + desolv Energy     =   -5.20 kcal/mol
USER        Electrostatic Energy            =   -0.52 kcal/mol
USER    (2) Final Total Internal Energy     =   -3.55 kcal/mol
USER    (3) Torsional Free Energy           =   +3.88 kcal/mol
USER    (4) Unbound System's Energy  [=(2)] =   -3.55 kcal/mol
USER    
USER    
USER  
USER    DPF = D:/Protein_go_brrr/autodock/final/2DN3/heme/dock.dpf
USER    NEWDPF move	heme_opt.pdbqt
USER    NEWDPF about	0.153000 0.018000 -0.028000
USER    NEWDPF tran0	49.558653 24.916761 17.527120
USER    NEWDPF axisangle0	0.475145 -0.465746 0.746538 64.691829
USER    NEWDPF quaternion0	0.254217 -0.249188 0.399420 0.844833
USER    NEWDPF dihe0	85.00 -124.19 127.28 -158.09 -174.05 -26.44 -80.25 -29.02 101.36 -23.82 145.99 0.32 24.98 
USER  
USER                              x       y       z    vdW   Elec        q     RMS 
ATOM      1  O   UNL d   1      47.765  30.496  18.172 -0.08 -0.10    -0.289    53.479
ATOM      2  O   UNL d   1      44.437  24.009  19.974 -0.68 -0.19    -0.289    53.479
ATOM      3  N   UNL d   1      49.162  27.421  17.470 -0.07 -0.11    -0.247    53.479
ATOM      4  N   UNL d   1      47.313  25.512  18.799 -0.05 -0.15    -0.247    53.479
ATOM      5  N   UNL d   1      49.310  23.474  18.441 -0.05 -0.29    -0.354    53.479
ATOM      6  N   UNL d   1      51.229  25.466  17.081 -0.06 -0.18    -0.354    53.479
ATOM      7  C   UNL d   1      49.910  29.747  17.269 -0.11 +0.02    +0.084    53.479
ATOM      8  C   UNL d   1      44.999  26.230  19.112 -0.15 +0.05    +0.084    53.479
ATOM      9  C   UNL d   1      46.429  26.560  18.673 -0.13 +0.03    +0.058    53.479
ATOM     10  C   UNL d   1      50.202  28.254  17.092 -0.12 +0.02    +0.058    53.479
ATOM     11  C   UNL d   1      48.513  29.611  17.797 -0.06 +0.07    +0.193    53.479
ATOM     12  C   UNL d   1      48.167  28.155  17.848 -0.03 +0.05    +0.109    53.479
ATOM     13  C   UNL d   1      45.243  24.812  19.545 -0.11 +0.11    +0.193    53.479
ATOM     14  C   UNL d   1      50.789  30.380  18.351 -0.05 +0.01    +0.026    53.479
ATOM     15  C   UNL d   1      46.796  27.780  18.252 -0.05 +0.03    +0.055    53.479
ATOM     16  C   UNL d   1      44.029  26.223  17.927 -0.30 +0.01    +0.026    53.479
ATOM     17  C   UNL d   1      46.686  24.502  19.311 -0.08 +0.07    +0.109    53.479
ATOM     18  C   UNL d   1      51.347  27.823  16.529 -0.11 +0.02    +0.050    53.479
ATOM     19  C   UNL d   1      51.668  26.471  16.249 -0.12 +0.02    +0.045    53.479
ATOM     20  C   UNL d   1      48.439  22.808  19.264 -0.08 +0.03    +0.045    53.479
ATOM     21  C   UNL d   1      47.228  23.188  19.685 -0.12 +0.04    +0.057    53.479
ATOM     22  C   UNL d   1      50.314  21.534  18.989 -0.05 -0.01    -0.019    53.479
ATOM     23  C   UNL d   1      50.470  22.783  18.217 -0.03 +0.03    +0.045    53.479
ATOM     24  C   UNL d   1      49.109  21.554  19.606 -0.05 -0.01    -0.022    53.479
ATOM     25  C   UNL d   1      51.728  24.250  16.675 -0.05 +0.03    +0.049    53.479
ATOM     26  C   UNL d   1      52.440  25.889  15.256 -0.12 -0.01    -0.018    53.479
ATOM     27  C   UNL d   1      52.459  24.484  15.519 -0.11 +0.00    +0.003    53.479
ATOM     28  C   UNL d   1      51.541  23.084  17.467 -0.04 +0.03    +0.052    53.479
ATOM     29  C   UNL d   1      48.493  20.519  20.484 -0.05 +0.02    +0.046    53.479
ATOM     30  C   UNL d   1      53.119  26.592  14.130 -0.10 +0.01    +0.046    53.479
ATOM     31  H   UNL d   1      49.050  24.348  17.998 +0.03 +0.14    +0.166    53.479
ATOM     32  H   UNL d   1      50.653  25.627  17.899 +0.02 +0.08    +0.166    53.479
ATOM     33  C   UNL d   1      49.920  30.576  15.981 -0.19 +0.03    +0.141    53.479
ATOM     34  C   UNL d   1      48.970  31.742  16.035 -0.19 +0.06    +0.306    53.479
ATOM     35  O   UNL d   1      48.027  31.938  15.287 -0.35 -0.05    -0.251    53.479
ATOM     36  O   UNL d   1      49.257  32.598  17.031 -0.03 -0.10    -0.481    53.479
ATOM     37  H   UNL d   1      48.651  32.342  17.758 +0.07 +0.07    +0.295    53.479
ATOM     38  C   UNL d   1      53.159  23.508  14.739 -0.10 +0.01    +0.017    53.479
ATOM     39  C   UNL d   1      52.717  22.270  14.470 -0.08 +0.05    +0.092    53.479
ATOM     40  C   UNL d   1      53.524  21.371  13.642 -0.03 +0.13    +0.330    53.479
ATOM     41  O   UNL d   1      54.313  21.673  12.767 -0.02 -0.08    -0.246    53.479
ATOM     42  O   UNL d   1      53.290  20.094  13.984 -0.00 -0.18    -0.477    53.479
ATOM     43  H   UNL d   1      52.320  19.999  13.888 +0.03 +0.14    +0.295    53.479
ATOM     44  C   UNL d   1      44.453  27.072  20.270 +0.05 +0.11    +0.141    53.479
ATOM     45  C   UNL d   1      45.052  26.708  21.603 -0.03 +0.40    +0.306    53.479
ATOM     46  O   UNL d   1      44.444  26.379  22.607 -0.58 -0.37    -0.251    53.479
ATOM     47  O   UNL d   1      46.394  26.806  21.608 -0.05 -0.60    -0.481    53.479
ATOM     48  H   UNL d   1      46.685  26.260  20.847 +0.07 +0.23    +0.295    53.479
ATOM     49  C   UNL d   1      51.353  20.453  19.063 -0.02 +0.02    +0.048    53.479
ATOM     50  C   UNL d   1      51.701  19.903  17.680 -0.03 +0.06    +0.125    53.479
ATOM     51  C   UNL d   1      50.500  19.923  16.777 -0.01 +0.28    +0.305    53.479
ATOM     52  O   UNL d   1      49.337  19.728  17.083 -0.53 -0.31    -0.251    53.479
ATOM     53  O   UNL d   1      50.836  20.182  15.498 -0.02 -0.48    -0.481    53.479
ATOM     54  H   UNL d   1      51.785  19.943  15.448 +0.03 +0.18    +0.295    53.479
TER
ENDMDL
MODEL       70
USER    Run = 70
USER    Cluster Rank = 73
USER    Number of conformations in this cluster = 1
USER  
USER    RMSD from reference structure       = 61.079 A
USER  
USER    Estimated Free Energy of Binding    =   -1.66 kcal/mol  [=(1)+(2)+(3)-(4)]
USER    Estimated Inhibition Constant, Ki   =   60.90 mM (millimolar)  [Temperature = 298.15 K]
USER    
USER    (1) Final Intermolecular Energy     =   -5.54 kcal/mol
USER        vdW + Hbond + desolv Energy     =   -5.49 kcal/mol
USER        Electrostatic Energy            =   -0.04 kcal/mol
USER    (2) Final Total Internal Energy     =   -4.34 kcal/mol
USER    (3) Torsional Free Energy           =   +3.88 kcal/mol
USER    (4) Unbound System's Energy  [=(2)] =   -4.34 kcal/mol
USER    
USER    
USER  
USER    DPF = D:/Protein_go_brrr/autodock/final/2DN3/heme/dock.dpf
USER    NEWDPF move	heme_opt.pdbqt
USER    NEWDPF about	0.153000 0.018000 -0.028000
USER    NEWDPF tran0	43.080552 43.706072 22.734952
USER    NEWDPF axisangle0	-0.780169 0.476228 -0.405640 -68.935856
USER    NEWDPF quaternion0	-0.441532 0.269519 -0.229570 -0.824443
USER    NEWDPF dihe0	-142.32 -180.00 -129.30 39.73 180.00 70.59 128.29 48.92 7.37 -55.89 -76.99 -102.61 2.39 
USER  
USER                              x       y       z    vdW   Elec        q     RMS 
ATOM      1  O   UNL d   1      39.533  48.409  22.954 -0.02 -0.03    -0.289    61.079
ATOM      2  O   UNL d   1      39.387  41.944  26.771 -0.17 -0.16    -0.289    61.079
ATOM      3  N   UNL d   1      41.774  45.851  22.382 -0.09 -0.02    -0.247    61.079
ATOM      4  N   UNL d   1      41.136  43.892  24.523 -0.07 -0.01    -0.247    61.079
ATOM      5  N   UNL d   1      43.608  42.558  23.911 -0.08 +0.07    -0.354    61.079
ATOM      6  N   UNL d   1      44.272  44.606  21.705 -0.05 -0.01    -0.354    61.079
ATOM      7  C   UNL d   1      41.530  48.150  21.568 -0.08 +0.01    +0.084    61.079
ATOM      8  C   UNL d   1      38.861  43.913  25.415 -0.16 +0.01    +0.084    61.079
ATOM      9  C   UNL d   1      39.921  44.540  24.503 -0.12 +0.01    +0.058    61.079
ATOM     10  C   UNL d   1      42.310  46.832  21.564 -0.14 +0.01    +0.058    61.079
ATOM     11  C   UNL d   1      40.448  47.735  22.519 -0.04 +0.02    +0.193    61.079
ATOM     12  C   UNL d   1      40.693  46.313  22.921 -0.10 +0.01    +0.109    61.079
ATOM     13  C   UNL d   1      39.711  42.812  25.984 -0.11 +0.06    +0.193    61.079
ATOM     14  C   UNL d   1      42.333  49.291  22.199 -0.04 +0.00    +0.026    61.079
ATOM     15  C   UNL d   1      39.697  45.654  23.789 -0.16 +0.01    +0.055    61.079
ATOM     16  C   UNL d   1      37.718  43.287  24.610 -0.37 +0.00    +0.026    61.079
ATOM     17  C   UNL d   1      41.068  42.914  25.368 -0.13 +0.02    +0.109    61.079
ATOM     18  C   UNL d   1      43.368  46.644  20.754 -0.19 +0.00    +0.050    61.079
ATOM     19  C   UNL d   1      44.097  45.435  20.620 -0.23 +0.00    +0.045    61.079
ATOM     20  C   UNL d   1      43.265  41.902  25.065 -0.14 -0.00    +0.045    61.079
ATOM     21  C   UNL d   1      42.133  41.985  25.771 -0.12 +0.02    +0.057    61.079
ATOM     22  C   UNL d   1      45.363  41.248  24.438 -0.11 +0.00    -0.019    61.079
ATOM     23  C   UNL d   1      44.857  42.228  23.457 -0.12 -0.01    +0.045    61.079
ATOM     24  C   UNL d   1      44.415  41.058  25.387 -0.11 +0.00    -0.022    61.079
ATOM     25  C   UNL d   1      45.081  43.543  21.375 -0.15 -0.00    +0.049    61.079
ATOM     26  C   UNL d   1      44.779  44.878  19.549 -0.33 -0.00    -0.018    61.079
ATOM     27  C   UNL d   1      45.382  43.674  20.027 -0.27 +0.00    +0.003    61.079
ATOM     28  C   UNL d   1      45.533  42.635  22.371 -0.12 -0.00    +0.052    61.079
ATOM     29  C   UNL d   1      44.452  40.158  26.575 -0.12 +0.01    +0.046    61.079
ATOM     30  C   UNL d   1      44.866  45.428  18.166 +0.06 -0.00    +0.046    61.079
ATOM     31  H   UNL d   1      42.945  43.156  23.429 +0.01 -0.03    +0.166    61.079
ATOM     32  H   UNL d   1      43.884  44.793  22.622 +0.04 -0.00    +0.166    61.079
ATOM     33  C   UNL d   1      40.931  48.564  20.220 -0.16 +0.03    +0.141    61.079
ATOM     34  C   UNL d   1      40.050  47.498  19.626 -0.24 +0.06    +0.306    61.079
ATOM     35  O   UNL d   1      40.156  47.014  18.512 -0.30 -0.05    -0.251    61.079
ATOM     36  O   UNL d   1      39.083  47.096  20.470 -0.12 -0.09    -0.481    61.079
ATOM     37  H   UNL d   1      38.832  47.906  20.962 +0.14 +0.05    +0.295    61.079
ATOM     38  C   UNL d   1      46.195  42.792  19.245 -0.22 -0.00    +0.017    61.079
ATOM     39  C   UNL d   1      47.502  42.562  19.445 -0.13 -0.00    +0.092    61.079
ATOM     40  C   UNL d   1      48.218  41.620  18.582 -0.07 -0.01    +0.330    61.079
ATOM     41  O   UNL d   1      48.488  41.748  17.403 -0.11 +0.02    -0.246    61.079
ATOM     42  O   UNL d   1      48.574  40.531  19.282 -0.00 -0.00    -0.477    61.079
ATOM     43  H   UNL d   1      48.235  40.711  20.183 +0.05 -0.00    +0.295    61.079
ATOM     44  C   UNL d   1      38.324  44.822  26.525 -0.15 +0.01    +0.141    61.079
ATOM     45  C   UNL d   1      38.853  44.468  27.890 -0.08 +0.04    +0.306    61.079
ATOM     46  O   UNL d   1      39.911  44.830  28.375 -0.03 -0.04    -0.251    61.079
ATOM     47  O   UNL d   1      38.027  43.649  28.566 -0.12 -0.05    -0.481    61.079
ATOM     48  H   UNL d   1      37.828  42.924  27.936 -0.00 +0.02    +0.295    61.079
ATOM     49  C   UNL d   1      46.717  40.605  24.367 -0.06 -0.01    +0.048    61.079
ATOM     50  C   UNL d   1      46.738  39.430  23.390 -0.09 -0.03    +0.125    61.079
ATOM     51  C   UNL d   1      47.418  39.812  22.106 -0.02 -0.03    +0.305    61.079
ATOM     52  O   UNL d   1      48.442  40.460  21.971 -0.01 +0.00    -0.251    61.079
ATOM     53  O   UNL d   1      46.751  39.357  21.027 -0.02 +0.04    -0.481    61.079
ATOM     54  H   UNL d   1      47.459  39.069  20.413 +0.06 -0.01    +0.295    61.079
TER
ENDMDL
MODEL       46
USER    Run = 46
USER    Cluster Rank = 74
USER    Number of conformations in this cluster = 1
USER  
USER    RMSD from reference structure       = 22.227 A
USER  
USER    Estimated Free Energy of Binding    =   -1.26 kcal/mol  [=(1)+(2)+(3)-(4)]
USER    Estimated Inhibition Constant, Ki   =  118.27 mM (millimolar)  [Temperature = 298.15 K]
USER    
USER    (1) Final Intermolecular Energy     =   -5.14 kcal/mol
USER        vdW + Hbond + desolv Energy     =   -4.67 kcal/mol
USER        Electrostatic Energy            =   -0.47 kcal/mol
USER    (2) Final Total Internal Energy     =   -4.85 kcal/mol
USER    (3) Torsional Free Energy           =   +3.88 kcal/mol
USER    (4) Unbound System's Energy  [=(2)] =   -4.85 kcal/mol
USER    
USER    
USER  
USER    DPF = D:/Protein_go_brrr/autodock/final/2DN3/heme/dock.dpf
USER    NEWDPF move	heme_opt.pdbqt
USER    NEWDPF about	0.153000 0.018000 -0.028000
USER    NEWDPF tran0	17.798392 11.602188 14.080384
USER    NEWDPF axisangle0	0.516741 0.528166 0.673810 134.601799
USER    NEWDPF quaternion0	0.476716 0.487256 0.621620 0.385892
USER    NEWDPF dihe0	137.72 -179.60 -168.95 -45.10 -135.55 -3.84 140.61 -104.16 24.28 -7.44 -96.36 -11.53 -15.40 
USER  
USER                              x       y       z    vdW   Elec        q     RMS 
ATOM      1  O   UNL d   1      20.923  11.934   9.092 -0.04 -0.06    -0.289    22.227
ATOM      2  O   UNL d   1      13.538  11.207  10.242 -0.02 -0.05    -0.289    22.227
ATOM      3  N   UNL d   1      19.543  11.642  12.239 -0.14 -0.07    -0.247    22.227
ATOM      4  N   UNL d   1      16.619  11.713  11.712 -0.52 -0.11    -0.247    22.227
ATOM      5  N   UNL d   1      16.214  12.121  14.529 -0.02 -0.11    -0.354    22.227
ATOM      6  N   UNL d   1      19.250  12.067  15.065 -0.04 -0.10    -0.354    22.227
ATOM      7  C   UNL d   1      21.793  12.081  11.372 -0.06 +0.01    +0.084    22.227
ATOM      8  C   UNL d   1      15.862  10.968   9.511 -0.05 +0.02    +0.084    22.227
ATOM      9  C   UNL d   1      17.018  11.300  10.460 -0.06 +0.02    +0.058    22.227
ATOM     10  C   UNL d   1      20.862  11.899  12.574 -0.09 +0.01    +0.058    22.227
ATOM     11  C   UNL d   1      20.770  11.864  10.298 -0.06 +0.04    +0.193    22.227
ATOM     12  C   UNL d   1      19.452  11.582  10.951 +0.01 +0.03    +0.109    22.227
ATOM     13  C   UNL d   1      14.733  11.304  10.444 -0.05 +0.05    +0.193    22.227
ATOM     14  C   UNL d   1      22.324  13.513  11.268 -0.10 +0.00    +0.026    22.227
ATOM     15  C   UNL d   1      18.305  11.242  10.084 -0.07 +0.02    +0.055    22.227
ATOM     16  C   UNL d   1      15.805   9.472   9.188 -0.01 +0.00    +0.026    22.227
ATOM     17  C   UNL d   1      15.326  11.750  11.741 -0.15 +0.03    +0.109    22.227
ATOM     18  C   UNL d   1      21.333  11.903  13.836 -0.06 +0.01    +0.050    22.227
ATOM     19  C   UNL d   1      20.563  11.660  15.002 -0.04 +0.01    +0.045    22.227
ATOM     20  C   UNL d   1      14.943  12.353  14.072 -0.12 +0.01    +0.045    22.227
ATOM     21  C   UNL d   1      14.452  12.188  12.840 -0.18 +0.01    +0.057    22.227
ATOM     22  C   UNL d   1      15.032  12.861  16.298 -0.27 -0.00    -0.019    22.227
ATOM     23  C   UNL d   1      16.365  12.400  15.861 -0.17 +0.01    +0.045    22.227
ATOM     24  C   UNL d   1      14.194  12.830  15.235 -0.21 -0.01    -0.022    22.227
ATOM     25  C   UNL d   1      18.725  11.814  16.311 -0.06 +0.01    +0.049    22.227
ATOM     26  C   UNL d   1      20.889  11.095  16.225 -0.01 -0.00    -0.018    22.227
ATOM     27  C   UNL d   1      19.718  11.177  17.041 -0.02 +0.00    +0.003    22.227
ATOM     28  C   UNL d   1      17.432  12.287  16.667 -0.15 +0.01    +0.052    22.227
ATOM     29  C   UNL d   1      12.749  13.189  15.175 -0.28 +0.01    +0.046    22.227
ATOM     30  C   UNL d   1      22.205  10.512  16.614 +0.00 +0.01    +0.046    22.227
ATOM     31  H   UNL d   1      16.921  11.709  13.930 +0.03 +0.05    +0.166    22.227
ATOM     32  H   UNL d   1      18.768  12.525  14.300 +0.03 +0.06    +0.166    22.227
ATOM     33  C   UNL d   1      22.923  11.052  11.255 -0.01 +0.02    +0.141    22.227
ATOM     34  C   UNL d   1      22.427   9.692  10.844 +0.00 +0.04    +0.306    22.227
ATOM     35  O   UNL d   1      21.932   8.854  11.578 -0.00 -0.03    -0.251    22.227
ATOM     36  O   UNL d   1      22.580   9.460   9.528 +0.00 -0.05    -0.481    22.227
ATOM     37  H   UNL d   1      22.273  10.285   9.095 +0.01 +0.04    +0.295    22.227
ATOM     38  C   UNL d   1      19.622  10.720  18.395 -0.01 +0.00    +0.017    22.227
ATOM     39  C   UNL d   1      18.488  10.347  19.007 -0.02 +0.01    +0.092    22.227
ATOM     40  C   UNL d   1      18.528   9.880  20.396 -0.00 +0.02    +0.330    22.227
ATOM     41  O   UNL d   1      19.510   9.683  21.086 -0.00 -0.01    -0.246    22.227
ATOM     42  O   UNL d   1      17.282   9.691  20.855 +0.00 -0.03    -0.477    22.227
ATOM     43  H   UNL d   1      16.713   9.925  20.093 +0.02 +0.02    +0.295    22.227
ATOM     44  C   UNL d   1      15.791  11.814   8.236 -0.06 +0.06    +0.141    22.227
ATOM     45  C   UNL d   1      15.703  13.292   8.507 -0.12 +0.32    +0.306    22.227
ATOM     46  O   UNL d   1      16.628  14.085   8.515 -0.60 -0.34    -0.251    22.227
ATOM     47  O   UNL d   1      14.448  13.691   8.783 -0.35 -0.69    -0.481    22.227
ATOM     48  H   UNL d   1      13.942  12.858   8.894 +0.07 +0.19    +0.295    22.227
ATOM     49  C   UNL d   1      14.708  13.299  17.696 -0.33 +0.01    +0.048    22.227
ATOM     50  C   UNL d   1      14.031  12.187  18.498 -0.21 +0.02    +0.125    22.227
ATOM     51  C   UNL d   1      15.051  11.265  19.103 -0.07 +0.05    +0.305    22.227
ATOM     52  O   UNL d   1      15.280  10.108  18.797 -0.02 -0.03    -0.251    22.227
ATOM     53  O   UNL d   1      15.741  11.859  20.097 -0.06 -0.08    -0.481    22.227
ATOM     54  H   UNL d   1      15.752  11.189  20.812 +0.05 +0.03    +0.295    22.227
TER
ENDMDL
MODEL       62
USER    Run = 62
USER    Cluster Rank = 75
USER    Number of conformations in this cluster = 1
USER  
USER    RMSD from reference structure       = 36.037 A
USER  
USER    Estimated Free Energy of Binding    =   -1.25 kcal/mol  [=(1)+(2)+(3)-(4)]
USER    Estimated Inhibition Constant, Ki   =  121.11 mM (millimolar)  [Temperature = 298.15 K]
USER    
USER    (1) Final Intermolecular Energy     =   -5.13 kcal/mol
USER        vdW + Hbond + desolv Energy     =   -5.07 kcal/mol
USER        Electrostatic Energy            =   -0.06 kcal/mol
USER    (2) Final Total Internal Energy     =   -4.72 kcal/mol
USER    (3) Torsional Free Energy           =   +3.88 kcal/mol
USER    (4) Unbound System's Energy  [=(2)] =   -4.72 kcal/mol
USER    
USER    
USER  
USER    DPF = D:/Protein_go_brrr/autodock/final/2DN3/heme/dock.dpf
USER    NEWDPF move	heme_opt.pdbqt
USER    NEWDPF about	0.153000 0.018000 -0.028000
USER    NEWDPF tran0	33.987004 14.147773 15.515695
USER    NEWDPF axisangle0	0.343768 0.585048 -0.734535 -149.501853
USER    NEWDPF quaternion0	0.331664 0.564450 -0.708674 -0.263016
USER    NEWDPF dihe0	-119.02 -176.43 -139.25 -52.54 41.61 -64.03 125.04 -94.38 149.61 -22.12 -104.44 28.33 -6.31 
USER  
USER                              x       y       z    vdW   Elec        q     RMS 
ATOM      1  O   UNL d   1      38.737  13.128  18.855 +0.04 -0.04    -0.289    36.037
ATOM      2  O   UNL d   1      32.344  16.770  20.360 -0.21 -0.24    -0.289    36.037
ATOM      3  N   UNL d   1      36.256  13.595  16.506 -0.11 -0.04    -0.247    36.037
ATOM      4  N   UNL d   1      34.056  14.833  18.072 -0.14 -0.07    -0.247    36.037
ATOM      5  N   UNL d   1      32.302  14.298  15.858 -0.05 -0.12    -0.354    36.037
ATOM      6  N   UNL d   1      34.586  12.998  14.247 -0.04 -0.06    -0.354    36.037
ATOM      7  C   UNL d   1      38.368  12.353  16.566 -0.08 +0.01    +0.084    36.037
ATOM      8  C   UNL d   1      34.678  16.089  20.075 -0.31 +0.01    +0.084    36.037
ATOM      9  C   UNL d   1      35.092  15.186  18.908 -0.27 +0.01    +0.058    36.037
ATOM     10  C   UNL d   1      37.110  12.766  15.798 -0.10 +0.01    +0.058    36.037
ATOM     11  C   UNL d   1      38.084  13.111  17.828 -0.07 +0.03    +0.193    36.037
ATOM     12  C   UNL d   1      36.789  13.844  17.657 -0.18 +0.02    +0.109    36.037
ATOM     13  C   UNL d   1      33.208  16.152  19.768 -0.21 +0.10    +0.193    36.037
ATOM     14  C   UNL d   1      38.384  10.855  16.881 -0.04 +0.00    +0.026    36.037
ATOM     15  C   UNL d   1      36.347  14.738  18.746 -0.32 +0.01    +0.055    36.037
ATOM     16  C   UNL d   1      35.270  17.495  19.943 -0.43 -0.00    +0.026    36.037
ATOM     17  C   UNL d   1      32.960  15.344  18.536 -0.23 +0.06    +0.109    36.037
ATOM     18  C   UNL d   1      36.923  12.411  14.512 -0.08 +0.01    +0.050    36.037
ATOM     19  C   UNL d   1      35.834  12.814  13.698 -0.09 +0.01    +0.045    36.037
ATOM     20  C   UNL d   1      31.382  14.684  16.799 -0.21 +0.03    +0.045    36.037
ATOM     21  C   UNL d   1      31.593  15.188  18.019 -0.13 +0.05    +0.057    36.037
ATOM     22  C   UNL d   1      30.274  13.921  14.952 -0.12 -0.01    -0.019    36.037
ATOM     23  C   UNL d   1      31.727  13.824  14.709 -0.10 +0.01    +0.045    36.037
ATOM     24  C   UNL d   1      30.077  14.433  16.191 -0.18 -0.01    -0.022    36.037
ATOM     25  C   UNL d   1      33.666  13.297  13.269 -0.04 +0.01    +0.049    36.037
ATOM     26  C   UNL d   1      35.731  13.036  12.333 -0.08 -0.00    -0.018    36.037
ATOM     27  C   UNL d   1      34.364  13.359  12.071 -0.08 +0.00    +0.003    36.037
ATOM     28  C   UNL d   1      32.280  13.376  13.571 -0.09 +0.01    +0.052    36.037
ATOM     29  C   UNL d   1      28.790  14.729  16.883 -0.16 +0.05    +0.046    36.037
ATOM     30  C   UNL d   1      36.834  12.955  11.332 -0.05 +0.00    +0.046    36.037
ATOM     31  H   UNL d   1      33.295  14.442  16.004 +0.05 +0.05    +0.166    36.037
ATOM     32  H   UNL d   1      34.385  12.882  15.233 +0.03 +0.03    +0.166    36.037
ATOM     33  C   UNL d   1      39.694  12.813  15.951 -0.10 +0.02    +0.141    36.037
ATOM     34  C   UNL d   1      40.876  12.053  16.489 -0.05 +0.04    +0.306    36.037
ATOM     35  O   UNL d   1      41.402  11.080  15.976 -0.01 -0.03    -0.251    36.037
ATOM     36  O   UNL d   1      41.337  12.562  17.646 -0.05 -0.07    -0.481    36.037
ATOM     37  H   UNL d   1      40.570  12.521  18.256 +0.05 +0.04    +0.295    36.037
ATOM     38  C   UNL d   1      33.818  13.647  10.779 -0.08 +0.00    +0.017    36.037
ATOM     39  C   UNL d   1      33.308  14.829  10.399 -0.12 +0.01    +0.092    36.037
ATOM     40  C   UNL d   1      32.794  14.998   9.038 -0.03 +0.02    +0.330    36.037
ATOM     41  O   UNL d   1      33.422  14.972   7.997 -0.02 -0.01    -0.246    36.037
ATOM     42  O   UNL d   1      31.466  15.191   9.066 -0.03 -0.04    -0.477    36.037
ATOM     43  H   UNL d   1      31.252  15.214  10.022 +0.06 +0.04    +0.295    36.037
ATOM     44  C   UNL d   1      34.923  15.513  21.473 -0.20 +0.00    +0.141    36.037
ATOM     45  C   UNL d   1      33.981  14.394  21.829 -0.02 +0.04    +0.306    36.037
ATOM     46  O   UNL d   1      34.079  13.227  21.490 -0.01 -0.03    -0.251    36.037
ATOM     47  O   UNL d   1      32.943  14.812  22.575 +0.02 -0.08    -0.481    36.037
ATOM     48  H   UNL d   1      32.692  15.677  22.187 +0.10 +0.09    +0.295    36.037
ATOM     49  C   UNL d   1      29.225  13.497  13.968 -0.08 +0.01    +0.048    36.037
ATOM     50  C   UNL d   1      28.825  14.639  13.034 -0.14 +0.03    +0.125    36.037
ATOM     51  C   UNL d   1      29.873  14.864  11.982 -0.11 +0.06    +0.305    36.037
ATOM     52  O   UNL d   1      30.734  15.727  11.963 -0.20 -0.06    -0.251    36.037
ATOM     53  O   UNL d   1      29.775  13.975  10.974 -0.01 -0.07    -0.481    36.037
ATOM     54  H   UNL d   1      29.735  14.532  10.168 +0.05 +0.04    +0.295    36.037
TER
ENDMDL
MODEL       99
USER    Run = 99
USER    Cluster Rank = 76
USER    Number of conformations in this cluster = 1
USER  
USER    RMSD from reference structure       = 49.219 A
USER  
USER    Estimated Free Energy of Binding    =   -1.25 kcal/mol  [=(1)+(2)+(3)-(4)]
USER    Estimated Inhibition Constant, Ki   =  122.02 mM (millimolar)  [Temperature = 298.15 K]
USER    
USER    (1) Final Intermolecular Energy     =   -5.12 kcal/mol
USER        vdW + Hbond + desolv Energy     =   -5.03 kcal/mol
USER        Electrostatic Energy            =   -0.09 kcal/mol
USER    (2) Final Total Internal Energy     =   -4.85 kcal/mol
USER    (3) Torsional Free Energy           =   +3.88 kcal/mol
USER    (4) Unbound System's Energy  [=(2)] =   -4.85 kcal/mol
USER    
USER    
USER  
USER    DPF = D:/Protein_go_brrr/autodock/final/2DN3/heme/dock.dpf
USER    NEWDPF move	heme_opt.pdbqt
USER    NEWDPF about	0.153000 0.018000 -0.028000
USER    NEWDPF tran0	40.678775 17.426928 29.114646
USER    NEWDPF axisangle0	0.625524 -0.682500 -0.378039 -175.602664
USER    NEWDPF quaternion0	0.625063 -0.681998 -0.377761 -0.038365
USER    NEWDPF dihe0	105.82 -180.00 -134.55 36.30 -132.76 73.55 124.20 10.31 35.39 -25.81 -71.11 -114.12 11.68 
USER  
USER                              x       y       z    vdW   Elec        q     RMS 
ATOM      1  O   UNL d   1      40.158  22.563  31.961 -0.17 -0.06    -0.289    49.219
ATOM      2  O   UNL d   1      46.071  19.355  28.625 -0.01 -0.04    -0.289    49.219
ATOM      3  N   UNL d   1      40.018  19.434  30.517 -0.08 +0.02    -0.247    49.219
ATOM      4  N   UNL d   1      42.678  19.160  29.222 +0.04 -0.01    -0.247    49.219
ATOM      5  N   UNL d   1      41.642  16.896  27.784 -0.10 +0.02    -0.354    49.219
ATOM      6  N   UNL d   1      38.879  17.200  29.117 -0.11 +0.07    -0.354    49.219
ATOM      7  C   UNL d   1      38.375  20.949  31.524 -0.24 +0.00    +0.084    49.219
ATOM      8  C   UNL d   1      44.523  20.447  30.175 -0.05 +0.01    +0.084    49.219
ATOM      9  C   UNL d   1      43.029  20.110  30.155 -0.10 +0.01    +0.058    49.219
ATOM     10  C   UNL d   1      38.682  19.616  30.835 -0.19 -0.01    +0.058    49.219
ATOM     11  C   UNL d   1      39.776  21.481  31.555 -0.17 +0.02    +0.193    49.219
ATOM     12  C   UNL d   1      40.682  20.460  30.939 -0.09 +0.01    +0.109    49.219
ATOM     13  C   UNL d   1      44.950  19.540  29.056 -0.04 +0.02    +0.193    49.219
ATOM     14  C   UNL d   1      37.517  21.865  30.647 -0.43 +0.00    +0.026    49.219
ATOM     15  C   UNL d   1      42.135  20.727  30.943 -0.13 +0.01    +0.055    49.219
ATOM     16  C   UNL d   1      45.193  19.979  31.470 -0.01 +0.00    +0.026    49.219
ATOM     17  C   UNL d   1      43.737  18.822  28.559 -0.09 +0.01    +0.109    49.219
ATOM     18  C   UNL d   1      37.729  18.684  30.651 -0.19 -0.01    +0.050    49.219
ATOM     19  C   UNL d   1      37.936  17.393  30.102 -0.06 -0.01    +0.045    49.219
ATOM     20  C   UNL d   1      42.835  17.064  27.130 -0.14 -0.00    +0.045    49.219
ATOM     21  C   UNL d   1      43.843  17.890  27.426 -0.17 +0.00    +0.057    49.219
ATOM     22  C   UNL d   1      41.614  15.471  26.040 -0.20 +0.00    -0.019    49.219
ATOM     23  C   UNL d   1      40.837  15.955  27.199 -0.19 -0.00    +0.045    49.219
ATOM     24  C   UNL d   1      42.796  16.130  26.006 -0.16 +0.00    -0.022    49.219
ATOM     25  C   UNL d   1      38.850  15.900  28.668 -0.14 -0.01    +0.049    49.219
ATOM     26  C   UNL d   1      37.304  16.179  30.324 -0.09 +0.01    -0.018    49.219
ATOM     27  C   UNL d   1      37.898  15.236  29.429 -0.09 -0.00    +0.003    49.219
ATOM     28  C   UNL d   1      39.623  15.499  27.545 -0.17 -0.01    +0.052    49.219
ATOM     29  C   UNL d   1      43.918  15.983  25.035 -0.16 +0.00    +0.046    49.219
ATOM     30  C   UNL d   1      36.216  15.909  31.307 -0.08 -0.02    +0.046    49.219
ATOM     31  H   UNL d   1      41.446  17.379  28.654 +0.04 -0.01    +0.166    49.219
ATOM     32  H   UNL d   1      39.474  17.938  28.759 -0.03 -0.03    +0.166    49.219
ATOM     33  C   UNL d   1      37.809  20.840  32.944 -0.11 +0.01    +0.141    49.219
ATOM     34  C   UNL d   1      38.883  20.662  33.983 -0.01 +0.02    +0.306    49.219
ATOM     35  O   UNL d   1      39.470  19.625  34.242 -0.01 -0.01    -0.251    49.219
ATOM     36  O   UNL d   1      39.163  21.801  34.640 -0.01 -0.05    -0.481    49.219
ATOM     37  H   UNL d   1      39.708  22.321  34.011 +0.05 +0.04    +0.295    49.219
ATOM     38  C   UNL d   1      37.527  13.858  29.318 -0.05 -0.00    +0.017    49.219
ATOM     39  C   UNL d   1      36.769  13.336  28.341 -0.04 -0.02    +0.092    49.219
ATOM     40  C   UNL d   1      36.475  11.901  28.332 +0.00 -0.04    +0.330    49.219
ATOM     41  O   UNL d   1      35.741  11.288  29.083 -0.00 +0.02    -0.246    49.219
ATOM     42  O   UNL d   1      37.142  11.299  27.334 +0.00 +0.03    -0.477    49.219
ATOM     43  H   UNL d   1      37.633  12.030  26.906 +0.02 -0.02    +0.295    49.219
ATOM     44  C   UNL d   1      44.876  21.906  29.864 -0.06 +0.03    +0.141    49.219
ATOM     45  C   UNL d   1      44.760  22.246  28.402 -0.07 +0.08    +0.306    49.219
ATOM     46  O   UNL d   1      43.736  22.503  27.794 -0.65 -0.11    -0.251    49.219
ATOM     47  O   UNL d   1      45.948  22.218  27.772 +0.00 -0.11    -0.481    49.219
ATOM     48  H   UNL d   1      46.380  21.397  28.092 +0.03 +0.06    +0.295    49.219
ATOM     49  C   UNL d   1      41.127  14.429  25.076 -0.21 -0.00    +0.048    49.219
ATOM     50  C   UNL d   1      41.108  13.036  25.705 -0.05 -0.00    +0.125    49.219
ATOM     51  C   UNL d   1      39.698  12.568  25.927 -0.01 -0.02    +0.305    49.219
ATOM     52  O   UNL d   1      38.668  13.133  25.605 -0.04 +0.03    -0.251    49.219
ATOM     53  O   UNL d   1      39.656  11.385  26.573 +0.00 +0.01    -0.481    49.219
ATOM     54  H   UNL d   1      38.890  10.923  26.172 +0.01 -0.01    +0.295    49.219
TER
ENDMDL


AVSFLD: # AVS field file
AVSFLD: #
AVSFLD: # Created by AutoDock
AVSFLD: #
AVSFLD: ndim=2           # number of dimensions in the field
AVSFLD: nspace=1         # number of physical coordinates
AVSFLD: veclen=7         # vector size
AVSFLD: dim1=54          # atoms
AVSFLD: dim2=76          # conformations
AVSFLD: data=Real       # data type (byte,integer,Real,double)
AVSFLD: field=uniform    # field coordinate layout
AVSFLD: label= x y z vdW Elec q RMS
AVSFLD: variable 1 file = D:/Protein_go_brrr/autodock/final/2DN3/heme/dock.dlg.pdb filetype = ascii offset = 5 stride = 12
AVSFLD: variable 2 file = D:/Protein_go_brrr/autodock/final/2DN3/heme/dock.dlg.pdb filetype = ascii offset = 6 stride = 12
AVSFLD: variable 3 file = D:/Protein_go_brrr/autodock/final/2DN3/heme/dock.dlg.pdb filetype = ascii offset = 7 stride = 12
AVSFLD: variable 4 file = D:/Protein_go_brrr/autodock/final/2DN3/heme/dock.dlg.pdb filetype = ascii offset = 8 stride = 12
AVSFLD: variable 5 file = D:/Protein_go_brrr/autodock/final/2DN3/heme/dock.dlg.pdb filetype = ascii offset = 9 stride = 12
AVSFLD: variable 6 file = D:/Protein_go_brrr/autodock/final/2DN3/heme/dock.dlg.pdb filetype = ascii offset = 10 stride = 12
AVSFLD: variable 7 file = D:/Protein_go_brrr/autodock/final/2DN3/heme/dock.dlg.pdb filetype = ascii offset = 11 stride = 12
AVSFLD: # end of file

>>> Closing the docking parameter file (DPF)...
This docking finished at:			3:15 49" p.m., 09/28/2025


________________________________________________________________________________

D:/autodockScripts/autodock4.exe: Successful Completion on "ACER"

Real= 19h 22m 12.53s,  CPU= 1m 42.52s,  System= 2m 24.83s
________________________________________________________________________________

