          AutoDock 4.2 Release 4.2.6   
         (C) 1989-2012 The Scripps Research Institute
        AutoDock comes with ABSOLUTELY NO WARRANTY.
        AutoDock is free software, and you are welcome
        to redistribute it under certain conditions;
        for details type 'autodock4 -C'

                     main.cc  $Revision: 1.213 $

                   Compiled on Jul 18 2014 at 15:34:58


This file was created at:			1:31 18" a.m., 10/18/2025
                   on host:		"ACER"
Current Working Directory = "D:\Protein_go_brrr\autodock\final\mut_N102T\heme_Co"

      ________________________________________________________________

                   SETTING UP DEFAULT PARAMETER LIBRARY
      ________________________________________________________________


Random number generator was seeded with values 56264, 1760743878.
Docking parameter file (DPF) used for this docking:		D:/Protein_go_brrr/autodock/final/mut_N102T/heme_Co/dock.dpf
DPF> autodock_parameter_version 4.2       # used by autodock to validate parameter set

	Autodock parameter version 4.2.
DPF> outlev 1                             # diagnostic output level

Output Level = 1  ADT-COMPATIBLE OUTPUT DURING DOCKING.
DPF> intelec                              # calculate internal electrostatics

Electrostatic energies will be calculated for all non-bonds between moving atoms.
DPF> seed pid time                        # seeds for random generator

Random number generator was seeded with values 56264, 1760743878.
DPF> ligand_types A C OA N Fe HD          # atoms types in ligand

DPF> fld mut_N102T_m0.maps.fld            # grid_data_file

Opening Grid Map Dimensions file:		mut_N102T_m0.maps.fld
Grid Point Spacing =				0.658 Angstroms

Even Number of User-specified Grid Points =	126 x-points
						126 y-points
						126 z-points

Coordinates of Central Grid Point of Maps =	(1.333, -0.428, -0.352)
Macromolecule file used to create Grid Maps =	mut_N102T_m0.pdbqt
Grid Parameter file used to create Grid Maps =	D:/Protein_go_brrr/autodock/final/mut_N102T/heme_Co/grid.gpf
Minimum coordinates in grid = (-40.121, -41.882, -41.806)
Maximum coordinates in grid = (42.787, 41.026, 41.102)

DPF> map mut_N102T_m0.A.map               # atom-specific affinity map

DPF> map mut_N102T_m0.C.map               # atom-specific affinity map

DPF> map mut_N102T_m0.OA.map              # atom-specific affinity map

DPF> map mut_N102T_m0.N.map               # atom-specific affinity map

DPF> map mut_N102T_m0.Fe.map              # atom-specific affinity map

DPF> map mut_N102T_m0.HD.map              # atom-specific affinity map

DPF> elecmap mut_N102T_m0.e.map           # electrostatics map

DPF> desolvmap mut_N102T_m0.d.map         # desolvation map

DPF> move heme_Co_opt.pdbqt               # small molecule

1,4-interactions will be _ignored_ in the non-bonded internal energy calculation.

Ligand PDBQT file = "heme_Co_opt.pdbqt"

INPUT LIGAND PDBQT FILE:
________________________

INPUT-LIGAND-PDBQT: REMARK  12 active torsions:
INPUT-LIGAND-PDBQT: REMARK  status: ('A' for Active; 'I' for Inactive)
INPUT-LIGAND-PDBQT: REMARK    1  A    between atoms: C_6  and  C_10 
INPUT-LIGAND-PDBQT: REMARK    2  A    between atoms: C_10  and  C_11 
INPUT-LIGAND-PDBQT: REMARK    3  A    between atoms: C_11  and  C_12 
INPUT-LIGAND-PDBQT: REMARK    4  A    between atoms: C_12  and  O_14 
INPUT-LIGAND-PDBQT: REMARK    5  A    between atoms: C_17  and  C_20 
INPUT-LIGAND-PDBQT: REMARK    6  A    between atoms: C_24  and  C_27 
INPUT-LIGAND-PDBQT: REMARK    7  A    between atoms: C_31  and  C_34 
INPUT-LIGAND-PDBQT: REMARK    8  A    between atoms: C_34  and  C_35 
INPUT-LIGAND-PDBQT: REMARK    9  A    between atoms: C_35  and  C_36 
INPUT-LIGAND-PDBQT: REMARK   10  A    between atoms: C_36  and  O_38 
INPUT-LIGAND-PDBQT: REMARK   11  A    between atoms: FE_43  and  C_44 
INPUT-LIGAND-PDBQT: REMARK   12  A    between atoms: C_44  and  O_45 
INPUT-LIGAND-PDBQT: ROOT
INPUT-LIGAND-PDBQT: ATOM      1  C   UNL d   1       6.846  35.483  -1.586  0.00  0.00     0.064 A 
INPUT-LIGAND-PDBQT: ATOM      2  C   UNL d   1       8.105  32.823   2.149  0.00  0.00     0.064 C 
INPUT-LIGAND-PDBQT: ATOM      3  C   UNL d   1      12.720  33.414   1.062  0.00  0.00     0.064 A 
INPUT-LIGAND-PDBQT: ATOM      4  C   UNL d   1      11.472  36.449  -2.529  0.00  0.00     0.064 A 
INPUT-LIGAND-PDBQT: ATOM      5  C   UNL d   1       6.850  34.683  -0.507  0.00  0.00     0.066 A 
INPUT-LIGAND-PDBQT: ATOM      6  C   UNL d   1       5.664  34.330   0.166  0.00  0.00    -0.021 A 
INPUT-LIGAND-PDBQT: ATOM      7  C   UNL d   1       6.037  33.577   1.262  0.00  0.00    -0.025 A 
INPUT-LIGAND-PDBQT: ATOM      8  C   UNL d   1       7.432  33.489   1.202  0.00  0.00     0.066 A 
INPUT-LIGAND-PDBQT: ATOM      9  C   UNL d   1       5.127  32.958   2.334  0.00  0.00     0.051 C 
INPUT-LIGAND-PDBQT: ATOM     10  C   UNL d   1       9.537  32.657   2.156  0.00  0.00     0.066 A 
INPUT-LIGAND-PDBQT: ATOM     11  C   UNL d   1      10.289  31.854   3.041  0.00  0.00    -0.021 A 
INPUT-LIGAND-PDBQT: ATOM     12  C   UNL d   1      11.631  32.042   2.699  0.00  0.00     0.000 A 
INPUT-LIGAND-PDBQT: ATOM     13  C   UNL d   1      11.598  32.933   1.626  0.00  0.00     0.070 A 
INPUT-LIGAND-PDBQT: ATOM     14  C   UNL d   1       9.736  30.905   4.073  0.00  0.00     0.052 C 
INPUT-LIGAND-PDBQT: ATOM     15  C   UNL d   1      12.870  34.375  -0.013  0.00  0.00     0.066 A 
INPUT-LIGAND-PDBQT: ATOM     16  C   UNL d   1      14.059  34.940  -0.452  0.00  0.00    -0.021 A 
INPUT-LIGAND-PDBQT: ATOM     17  C   UNL d   1      13.704  35.818  -1.486  0.00  0.00     0.000 A 
INPUT-LIGAND-PDBQT: ATOM     18  C   UNL d   1      12.323  35.706  -1.608  0.00  0.00     0.070 A 
INPUT-LIGAND-PDBQT: ATOM     19  C   UNL d   1      15.432  34.638   0.106  0.00  0.00     0.052 C 
INPUT-LIGAND-PDBQT: ATOM     20  C   UNL d   1      10.120  36.421  -2.607  0.00  0.00     0.066 A 
INPUT-LIGAND-PDBQT: ATOM     21  C   UNL d   1       9.411  37.209  -3.511  0.00  0.00    -0.025 A 
INPUT-LIGAND-PDBQT: ATOM     22  C   UNL d   1       8.076  36.930  -3.282  0.00  0.00    -0.021 A 
INPUT-LIGAND-PDBQT: ATOM     23  C   UNL d   1       8.036  35.987  -2.233  0.00  0.00     0.066 A 
INPUT-LIGAND-PDBQT: ATOM     24  C   UNL d   1       9.976  38.195  -4.530  0.00  0.00     0.051 C 
INPUT-LIGAND-PDBQT: ATOM     25  N   UNL d   1       7.962  34.160   0.113  0.00  0.00    -0.248 N 
INPUT-LIGAND-PDBQT: ATOM     26  N   UNL d   1      10.329  33.260   1.263  0.00  0.00    -0.248 N 
INPUT-LIGAND-PDBQT: ATOM     27  N   UNL d   1      11.857  34.861  -0.695  0.00  0.00    -0.248 N 
INPUT-LIGAND-PDBQT: ATOM     28  N   UNL d   1       9.271  35.678  -1.820  0.00  0.00    -0.248 N 
INPUT-LIGAND-PDBQT: ATOM     29 FE   UNL d   1      10.024  34.533  -0.318  0.00  0.00     0.000 Fe
INPUT-LIGAND-PDBQT: ENDROOT
INPUT-LIGAND-PDBQT: BRANCH   6  30
INPUT-LIGAND-PDBQT: ATOM     30  C   UNL d   1       4.249  34.772  -0.192  0.00  0.00     0.052 C 
INPUT-LIGAND-PDBQT: BRANCH  30  31
INPUT-LIGAND-PDBQT: ATOM     31  C   UNL d   1       3.660  33.865  -1.272  0.00  0.00     0.115 C 
INPUT-LIGAND-PDBQT: BRANCH  31  32
INPUT-LIGAND-PDBQT: ATOM     32  C   UNL d   1       2.237  34.239  -1.627  0.00  0.00     0.139 C 
INPUT-LIGAND-PDBQT: ATOM     33  O   UNL d   1       1.374  33.374  -1.641  0.00  0.00    -0.650 OA
INPUT-LIGAND-PDBQT: BRANCH  32  34
INPUT-LIGAND-PDBQT: ATOM     34  O   UNL d   1       1.874  35.517  -1.885  0.00  0.00    -0.776 OA
INPUT-LIGAND-PDBQT: ATOM     35  H   UNL d   1       2.467  36.277  -1.807  0.00  0.00     0.167 HD
INPUT-LIGAND-PDBQT: ENDBRANCH  32  34
INPUT-LIGAND-PDBQT: ENDBRANCH  31  32
INPUT-LIGAND-PDBQT: ENDBRANCH  30  31
INPUT-LIGAND-PDBQT: ENDBRANCH   6  30
INPUT-LIGAND-PDBQT: BRANCH  29  36
INPUT-LIGAND-PDBQT: ATOM     36  C   UNL d   1       9.893  36.149   1.011  0.00  0.00     0.190 C 
INPUT-LIGAND-PDBQT: BRANCH  36  37
INPUT-LIGAND-PDBQT: ATOM     37  O   UNL d   1      10.463  37.389   1.317  0.00  0.00    -0.399 OA
INPUT-LIGAND-PDBQT: ATOM     38  H   UNL d   1      10.901  37.258   2.204  0.00  0.00     0.209 HD
INPUT-LIGAND-PDBQT: ENDBRANCH  36  37
INPUT-LIGAND-PDBQT: ENDBRANCH  29  36
INPUT-LIGAND-PDBQT: BRANCH  22  39
INPUT-LIGAND-PDBQT: ATOM     39  C   UNL d   1       6.906  37.586  -3.991  0.00  0.00     0.052 C 
INPUT-LIGAND-PDBQT: BRANCH  39  40
INPUT-LIGAND-PDBQT: ATOM     40  C   UNL d   1       6.343  36.659  -5.081  0.00  0.00     0.115 C 
INPUT-LIGAND-PDBQT: BRANCH  40  41
INPUT-LIGAND-PDBQT: ATOM     41  C   UNL d   1       5.088  37.175  -5.753  0.00  0.00     0.139 C 
INPUT-LIGAND-PDBQT: ATOM     42  O   UNL d   1       4.969  37.063  -6.965  0.00  0.00    -0.650 OA
INPUT-LIGAND-PDBQT: BRANCH  41  43
INPUT-LIGAND-PDBQT: ATOM     43  O   UNL d   1       4.056  37.678  -5.040  0.00  0.00    -0.776 OA
INPUT-LIGAND-PDBQT: ATOM     44  H   UNL d   1       4.103  37.816  -4.085  0.00  0.00     0.167 HD
INPUT-LIGAND-PDBQT: ENDBRANCH  41  43
INPUT-LIGAND-PDBQT: ENDBRANCH  40  41
INPUT-LIGAND-PDBQT: ENDBRANCH  39  40
INPUT-LIGAND-PDBQT: ENDBRANCH  22  39
INPUT-LIGAND-PDBQT: BRANCH  12  45
INPUT-LIGAND-PDBQT: ATOM     45  C   UNL d   1      12.932  31.471   3.247  0.00  0.00     0.004 C 
INPUT-LIGAND-PDBQT: ATOM     46  C   UNL d   1      13.165  30.727   4.325  0.00  0.00     0.012 C 
INPUT-LIGAND-PDBQT: ENDBRANCH  12  45
INPUT-LIGAND-PDBQT: BRANCH  17  47
INPUT-LIGAND-PDBQT: ATOM     47  C   UNL d   1      14.559  36.745  -2.286  0.00  0.00     0.004 C 
INPUT-LIGAND-PDBQT: ATOM     48  C   UNL d   1      15.750  37.188  -1.876  0.00  0.00     0.012 C 
INPUT-LIGAND-PDBQT: ENDBRANCH  17  47
INPUT-LIGAND-PDBQT: TORSDOF 12
________________________________________________________________________________

Total charge on ligand                               =	-2.002 e
REMARK  12 active torsions:
REMARK  status: ('A' for Active; 'I' for Inactive)
REMARK    1  A    between atoms: C_6  and  C_10 
REMARK    2  A    between atoms: C_10  and  C_11 
REMARK    3  A    between atoms: C_11  and  C_12 
REMARK    4  A    between atoms: C_12  and  O_14 
REMARK    5  A    between atoms: C_17  and  C_20 
REMARK    6  A    between atoms: C_24  and  C_27 
REMARK    7  A    between atoms: C_31  and  C_34 
REMARK    8  A    between atoms: C_34  and  C_35 
REMARK    9  A    between atoms: C_35  and  C_36 
REMARK   10  A    between atoms: C_36  and  O_38 
REMARK   11  A    between atoms: FE_43  and  C_44 
REMARK   12  A    between atoms: C_44  and  O_45 


Number of Rotatable Bonds in Small Molecule =	12 torsions
Number of atoms in ligand:  48

Number of non-hydrogen atoms in ligand:  45

Number of vibrational degrees of freedom of ligand:  138


Number of torsional degrees of freedom = 12
Estimated loss of torsional free energy upon binding = +3.5796 kcal/mol


DPF> about 8.781 34.984 -0.736            # small molecule center

Small molecule center of rotation =	(+8.781, +34.984, -0.736)

DPF> tran0 random                         # initial coordinates/A or random

Initial translation =			(-18.883, 38.865, 36.136) Angstroms
DPF> quaternion0 random                   # initial orientation

Each run will begin with a new, random initial orientation.
Initial quaternion,  (x,y,z,w) =	( 0.148, -0.305, -0.931, 0.137 ),
DPF> dihe0 random                         # initial dihedrals (relative) or random

DPF> torsdof 12                            # torsional degrees of freedom

Number of torsional degrees of freedom = 12
Free energy coefficient for torsional degrees of freedom = 0.2983, the factory default value.

Estimated loss of torsional free energy upon binding = +3.5796 kcal/mol

DPF> rmstol 2.0                           # cluster_tolerance/A

Maximum RMS tolerance for conformational cluster analysis = 2.00 Angstroms
DPF> extnrg 1000.0                        # external grid energy

External grid energy (beyond grid map walls) = 1000.00

DPF> e0max 0.0 10000                      # max initial energy; max number of retries

Using user-specified maximum number of retries for simanneal initialization, 10000 retries.
If the simanneal initial energy is greater than e0max, 0.000,
then a new, random initial state will be created.

DPF> ga_pop_size 150                      # number of individuals in population

A population of 150 individuals will be used
DPF> ga_num_evals 25000000                # maximum number of energy evaluations

There will be at most 25000000 function evaluations used.
DPF> ga_num_generations 27000             # maximum number of generations

The GA will run for at most 27000 generations.
DPF> ga_elitism 1                         # number of top individuals to survive to next generation

The 1 best will be preserved each GA generation.
DPF> ga_mutation_rate 0.02                # rate of gene mutation

The mutation rate is 0.020000.
DPF> ga_crossover_rate 0.8                # rate of crossover

The crossover rate is 0.800000.
DPF> ga_window_size 10                    # 

The GA's selection window is 10 generations.
DPF> ga_cauchy_alpha 0.0                  # Alpha parameter of Cauchy distribution

The alpha parameter (for the Cauchy distribution) is being set to 0.000000.
DPF> ga_cauchy_beta 1.0                   # Beta parameter Cauchy distribution

The beta parameter (for the Cauchy distribution) is being set to 1.000000.
DPF> set_ga                               # set the above parameters for GA or LGA

DPF> sw_max_its 300                       # iterations of Solis & Wets local search

Solis & Wets algorithms will perform at most 300 iterations.
DPF> sw_max_succ 4                        # consecutive successes before changing rho

Solis & Wets algorithms expand rho every 4 in a row successes.
DPF> sw_max_fail 4                        # consecutive failures before changing rho

Solis & Wets algorithms contract rho every 4 in a row failures.
DPF> sw_rho 1.0                           # size of local search space to sample

rho is set to 1.000000.
DPF> sw_lb_rho 0.01                       # lower bound on rho

rho will never get smaller than 0.010000.
DPF> ls_search_freq 0.06                  # probability of performing local search on individual

Local search will be performed with frequency 0.060000.
DPF> set_psw1                             # set the above pseudo-Solis & Wets parameters

Creating a new Local Search object using the pseudo-Solis-Wets algorithm (pSW1) with the current settings.

DPF> unbound_model bound                  # state of unbound ligand

DPF> ga_run 100                           # do this many hybrid GA-LS runs

centering ligand on specified point: 8.781 34.984 -0.736
Furthest true ligand atom from "about" center is 7.934 Angstroms (maxrad).
Number of requested GA dockings = 100 runs
Unbound model to be used is 'same as bound' [AutoDock 4.2 default].

	BEGINNING GENETIC ALGORITHM DOCKING 1 of 100
Run: 1 Seed: 530393960 674836243 [ Run 1 of 100 GA/GALS ]
Beginning LAMARCKIAN GENETIC ALGORITHM (LGA), with a maximum of 25000000 energy evaluations.

Final-Value: -9.354


	FINAL GENETIC ALGORITHM DOCKED STATE
	_______________________________________________


Detailed state:  trans 15.484 3.402 -4.987 quatxyzw -0.468557 -0.730989 0.341058 0.360262 center 8.781 34.984 -0.736 ntor 12 22.2642 106.2863 120.1392 -30.6591 127.2341 134.1962 -121.5279 147.1040 -0.1651 82.3796 173.8956 150.3846
State:	 15.484   3.402  -4.987  -0.502 -0.784  0.366 137.767     22.26  106.29  120.14  -30.66  127.23  134.20 -121.53  147.10   -0.17   82.38  173.90  150.38

DOCKED: MODEL        1
DOCKED: USER    Run = 1
DOCKED: USER    DPF = D:/Protein_go_brrr/autodock/final/mut_N102T/heme_Co/dock.dpf
DOCKED: USER  
DOCKED: USER    Estimated Free Energy of Binding    =   -3.63 kcal/mol  [=(1)+(2)+(3)-(4)]
DOCKED: USER    Estimated Inhibition Constant, Ki   =    2.19 mM (millimolar)  [Temperature = 298.15 K]
DOCKED: USER    
DOCKED: USER    (1) Final Intermolecular Energy     =   -7.21 kcal/mol
DOCKED: USER        vdW + Hbond + desolv Energy     =   -6.12 kcal/mol
DOCKED: USER        Electrostatic Energy            =   -1.09 kcal/mol
DOCKED: USER    (2) Final Total Internal Energy     =   -2.15 kcal/mol
DOCKED: USER    (3) Torsional Free Energy           =   +3.58 kcal/mol
DOCKED: USER    (4) Unbound System's Energy  [=(2)] =   -2.15 kcal/mol
DOCKED: USER    
DOCKED: USER    
DOCKED: USER    NEWDPF move heme_Co_opt.pdbqt
DOCKED: USER    NEWDPF about 8.781000 34.984000 -0.736000
DOCKED: USER    NEWDPF tran0 15.483890 3.401958 -4.987120
DOCKED: USER    NEWDPF quaternion0 -0.468557 -0.730989 0.341058 0.360262
DOCKED: USER    NEWDPF axisangle0 -0.502285 -0.783608 0.365608 137.767376
DOCKED: USER    NEWDPF quat0 -0.502285 -0.783608 0.365608 137.767376
DOCKED: USER    NEWDPF dihe0 22.26 106.29 120.14 -30.66 127.23 134.20 -121.53 147.10 -0.17 82.38 173.90 150.38 
DOCKED: USER  keepresnum = 1 
DOCKED: USER  
DOCKED: REMARK  12 active torsions:
DOCKED: REMARK  status: ('A' for Active; 'I' for Inactive)
DOCKED: REMARK    1  A    between atoms: C_6  and  C_10 
DOCKED: REMARK    2  A    between atoms: C_10  and  C_11 
DOCKED: REMARK    3  A    between atoms: C_11  and  C_12 
DOCKED: REMARK    4  A    between atoms: C_12  and  O_14 
DOCKED: REMARK    5  A    between atoms: C_17  and  C_20 
DOCKED: REMARK    6  A    between atoms: C_24  and  C_27 
DOCKED: REMARK    7  A    between atoms: C_31  and  C_34 
DOCKED: REMARK    8  A    between atoms: C_34  and  C_35 
DOCKED: REMARK    9  A    between atoms: C_35  and  C_36 
DOCKED: REMARK   10  A    between atoms: C_36  and  O_38 
DOCKED: REMARK   11  A    between atoms: FE_43  and  C_44 
DOCKED: REMARK   12  A    between atoms: C_44  and  O_45 
DOCKED: USER                              x       y       z     vdW  Elec       q    Type
DOCKED: USER                           _______ _______ _______ _____ _____    ______ ____
DOCKED: ROOT
DOCKED: ATOM      1  C   UNL d   1      16.355   3.427  -2.998 -0.16 -0.01    +0.064 A 
DOCKED: ATOM      2  C   UNL d   1      14.274  -0.017  -5.532 -0.14 -0.01    +0.064 C 
DOCKED: ATOM      3  C   UNL d   1      13.208   3.113  -8.981 -0.19 -0.02    +0.064 A 
DOCKED: ATOM      4  C   UNL d   1      15.665   6.564  -6.590 -0.15 -0.01    +0.064 A 
DOCKED: ATOM      5  C   UNL d   1      15.833   2.263  -3.421 -0.18 -0.01    +0.066 A 
DOCKED: ATOM      6  C   UNL d   1      16.001   1.064  -2.702 -0.14 -0.00    -0.021 A 
DOCKED: ATOM      7  C   UNL d   1      15.415   0.064  -3.453 -0.10 +0.00    -0.025 A 
DOCKED: ATOM      8  C   UNL d   1      14.900   0.698  -4.589 -0.11 -0.01    +0.066 A 
DOCKED: ATOM      9  C   UNL d   1      15.335  -1.435  -3.127 -0.08 -0.00    +0.051 C 
DOCKED: ATOM     10  C   UNL d   1      13.689   0.552  -6.721 -0.11 -0.01    +0.066 A 
DOCKED: ATOM     11  C   UNL d   1      12.898  -0.122  -7.677 -0.21 +0.00    -0.021 A 
DOCKED: ATOM     12  C   UNL d   1      12.598   0.816  -8.670 -0.28 -0.00    +0.000 A 
DOCKED: ATOM     13  C   UNL d   1      13.215   1.991  -8.240 -0.21 -0.02    +0.070 A 
DOCKED: ATOM     14  C   UNL d   1      12.395  -1.539  -7.580 -0.21 -0.00    +0.052 C 
DOCKED: ATOM     15  C   UNL d   1      13.835   4.394  -8.717 -0.20 -0.02    +0.066 A 
DOCKED: ATOM     16  C   UNL d   1      13.911   5.469  -9.591 -0.27 +0.01    -0.021 A 
DOCKED: ATOM     17  C   UNL d   1      14.621   6.465  -8.907 -0.20 -0.00    +0.000 A 
DOCKED: ATOM     18  C   UNL d   1      14.908   5.924  -7.658 -0.19 -0.01    +0.070 A 
DOCKED: ATOM     19  C   UNL d   1      13.332   5.506 -10.988 -0.28 -0.02    +0.052 C 
DOCKED: ATOM     20  C   UNL d   1      16.030   6.026  -5.402 -0.16 -0.02    +0.066 A 
DOCKED: ATOM     21  C   UNL d   1      16.790   6.730  -4.469 -0.15 +0.01    -0.025 A 
DOCKED: ATOM     22  C   UNL d   1      16.980   5.860  -3.411 -0.10 +0.01    -0.021 A 
DOCKED: ATOM     23  C   UNL d   1      16.332   4.656  -3.758 -0.17 -0.03    +0.066 A 
DOCKED: ATOM     24  C   UNL d   1      17.327   8.154  -4.589 -0.09 -0.01    +0.051 C 
DOCKED: ATOM     25  N   UNL d   1      15.140   2.062  -4.592 -0.10 +0.03    -0.248 N 
DOCKED: ATOM     26  N   UNL d   1      13.827   1.844  -7.035 -0.10 +0.03    -0.248 N 
DOCKED: ATOM     27  N   UNL d   1      14.451   4.679  -7.591 -0.15 +0.05    -0.248 N 
DOCKED: ATOM     28  N   UNL d   1      15.758   4.751  -4.963 -0.12 +0.07    -0.248 N 
DOCKED: ATOM     29 FE   UNL d   1      14.776   3.450  -6.179 -0.04 -0.00    +0.000 Fe
DOCKED: ENDROOT
DOCKED: BRANCH   6  30
DOCKED: ATOM     30  C   UNL d   1      16.765   0.887  -1.394 -0.06 +0.02    +0.052 C 
DOCKED: BRANCH  30  31
DOCKED: ATOM     31  C   UNL d   1      18.140   0.273  -1.654 -0.04 +0.02    +0.115 C 
DOCKED: BRANCH  31  32
DOCKED: ATOM     32  C   UNL d   1      18.955   0.124  -0.387 -0.03 +0.03    +0.139 C 
DOCKED: ATOM     33  O   UNL d   1      19.153  -0.990   0.073 +0.01 -0.07    -0.650 OA
DOCKED: BRANCH  32  34
DOCKED: ATOM     34  O   UNL d   1      19.517   1.188   0.234 +0.00 -0.25    -0.776 OA
DOCKED: ATOM     35  H   UNL d   1      19.251   2.106   0.087 +0.01 +0.10    +0.167 HD
DOCKED: ENDBRANCH  32  34
DOCKED: ENDBRANCH  31  32
DOCKED: ENDBRANCH  30  31
DOCKED: ENDBRANCH   6  30
DOCKED: BRANCH  29  36
DOCKED: ATOM     36  C   UNL d   1      16.595   2.812  -7.003 -0.01 -0.02    +0.190 C 
DOCKED: BRANCH  36  37
DOCKED: ATOM     37  O   UNL d   1      17.803   2.182  -6.684 +0.01 +0.03    -0.399 OA
DOCKED: ATOM     38  H   UNL d   1      17.787   2.084  -5.691 +0.02 -0.01    +0.209 HD
DOCKED: ENDBRANCH  36  37
DOCKED: ENDBRANCH  29  36
DOCKED: BRANCH  22  39
DOCKED: ATOM     39  C   UNL d   1      17.797   6.154  -2.166 +0.03 -0.02    +0.052 C 
DOCKED: BRANCH  39  40
DOCKED: ATOM     40  C   UNL d   1      19.109   5.352  -2.176 -0.08 +0.02    +0.115 C 
DOCKED: BRANCH  40  41
DOCKED: ATOM     41  C   UNL d   1      19.109   4.145  -1.262 +0.10 +0.10    +0.139 C 
DOCKED: ATOM     42  O   UNL d   1      19.208   4.308  -0.054 -0.10 -0.66    -0.650 OA
DOCKED: BRANCH  41  43
DOCKED: ATOM     43  O   UNL d   1      18.915   2.894  -1.737 -0.34 -0.44    -0.776 OA
DOCKED: ATOM     44  H   UNL d   1      19.529   2.170  -1.559 +0.01 +0.06    +0.167 HD
DOCKED: ENDBRANCH  41  43
DOCKED: ENDBRANCH  40  41
DOCKED: ENDBRANCH  39  40
DOCKED: ENDBRANCH  22  39
DOCKED: BRANCH  12  45
DOCKED: ATOM     45  C   UNL d   1      11.788   0.742  -9.957 -0.41 -0.00    +0.004 C 
DOCKED: ATOM     46  C   UNL d   1      11.694  -0.225 -10.866 -0.33 -0.00    +0.012 C 
DOCKED: ENDBRANCH  12  45
DOCKED: BRANCH  17  47
DOCKED: ATOM     47  C   UNL d   1      15.061   7.814  -9.374 -0.13 -0.00    +0.004 C 
DOCKED: ATOM     48  C   UNL d   1      14.481   8.953  -8.987 -0.17 -0.00    +0.012 C 
DOCKED: ENDBRANCH  17  47
DOCKED: TORSDOF 12
DOCKED: TER
DOCKED: ENDMDL
________________________________________________________________________________


	BEGINNING GENETIC ALGORITHM DOCKING 2 of 100
Run: 2 Seed: 550104956 2091521795 [ Run 2 of 100 GA/GALS ]
Beginning LAMARCKIAN GENETIC ALGORITHM (LGA), with a maximum of 25000000 energy evaluations.

Final-Value: -10.364


	FINAL GENETIC ALGORITHM DOCKED STATE
	_______________________________________________


Detailed state:  trans -11.130 6.150 11.153 quatxyzw -0.509963 0.749587 0.171836 0.385395 center 8.781 34.984 -0.736 ntor 12 57.7191 137.1676 -140.5180 127.6487 117.0218 94.2325 21.4723 118.6946 -179.6461 141.0172 -177.1116 168.7321
State:	-11.130   6.150  11.153  -0.553  0.812  0.186 134.664     57.72  137.17 -140.52  127.65  117.02   94.23   21.47  118.69 -179.65  141.02 -177.11  168.73

DOCKED: MODEL        2
DOCKED: USER    Run = 2
DOCKED: USER    DPF = D:/Protein_go_brrr/autodock/final/mut_N102T/heme_Co/dock.dpf
DOCKED: USER  
DOCKED: USER    Estimated Free Energy of Binding    =   -2.85 kcal/mol  [=(1)+(2)+(3)-(4)]
DOCKED: USER    Estimated Inhibition Constant, Ki   =    8.17 mM (millimolar)  [Temperature = 298.15 K]
DOCKED: USER    
DOCKED: USER    (1) Final Intermolecular Energy     =   -6.43 kcal/mol
DOCKED: USER        vdW + Hbond + desolv Energy     =   -6.48 kcal/mol
DOCKED: USER        Electrostatic Energy            =   +0.05 kcal/mol
DOCKED: USER    (2) Final Total Internal Energy     =   -3.94 kcal/mol
DOCKED: USER    (3) Torsional Free Energy           =   +3.58 kcal/mol
DOCKED: USER    (4) Unbound System's Energy  [=(2)] =   -3.94 kcal/mol
DOCKED: USER    
DOCKED: USER    
DOCKED: USER    NEWDPF move heme_Co_opt.pdbqt
DOCKED: USER    NEWDPF about 8.781000 34.984000 -0.736000
DOCKED: USER    NEWDPF tran0 -11.129551 6.150294 11.152651
DOCKED: USER    NEWDPF quaternion0 -0.509963 0.749587 0.171836 0.385395
DOCKED: USER    NEWDPF axisangle0 -0.552655 0.812339 0.186221 134.663511
DOCKED: USER    NEWDPF quat0 -0.552655 0.812339 0.186221 134.663511
DOCKED: USER    NEWDPF dihe0 57.72 137.17 -140.52 127.65 117.02 94.23 21.47 118.69 -179.65 141.02 -177.11 168.73 
DOCKED: USER  keepresnum = 1 
DOCKED: USER  
DOCKED: REMARK  12 active torsions:
DOCKED: REMARK  status: ('A' for Active; 'I' for Inactive)
DOCKED: REMARK    1  A    between atoms: C_6  and  C_10 
DOCKED: REMARK    2  A    between atoms: C_10  and  C_11 
DOCKED: REMARK    3  A    between atoms: C_11  and  C_12 
DOCKED: REMARK    4  A    between atoms: C_12  and  O_14 
DOCKED: REMARK    5  A    between atoms: C_17  and  C_20 
DOCKED: REMARK    6  A    between atoms: C_24  and  C_27 
DOCKED: REMARK    7  A    between atoms: C_31  and  C_34 
DOCKED: REMARK    8  A    between atoms: C_34  and  C_35 
DOCKED: REMARK    9  A    between atoms: C_35  and  C_36 
DOCKED: REMARK   10  A    between atoms: C_36  and  O_38 
DOCKED: REMARK   11  A    between atoms: FE_43  and  C_44 
DOCKED: REMARK   12  A    between atoms: C_44  and  O_45 
DOCKED: USER                              x       y       z     vdW  Elec       q    Type
DOCKED: USER                           _______ _______ _______ _____ _____    ______ ____
DOCKED: ROOT
DOCKED: ATOM      1  C   UNL d   1     -10.451   8.211  11.246 -0.23 +0.00    +0.064 A 
DOCKED: ATOM      2  C   UNL d   1     -11.813   5.456   7.617 -0.24 -0.00    +0.064 C 
DOCKED: ATOM      3  C   UNL d   1     -12.211   1.713  10.559 -0.19 -0.01    +0.064 A 
DOCKED: ATOM      4  C   UNL d   1     -11.197   4.596  14.344 -0.13 +0.01    +0.064 A 
DOCKED: ATOM      5  C   UNL d   1     -10.759   7.725  10.032 -0.30 -0.00    +0.066 A 
DOCKED: ATOM      6  C   UNL d   1     -10.826   8.549   8.892 -0.26 +0.00    -0.021 A 
DOCKED: ATOM      7  C   UNL d   1     -11.243   7.749   7.846 -0.28 +0.00    -0.025 A 
DOCKED: ATOM      8  C   UNL d   1     -11.397   6.469   8.389 -0.26 -0.00    +0.066 A 
DOCKED: ATOM      9  C   UNL d   1     -11.493   8.159   6.387 -0.26 -0.01    +0.051 C 
DOCKED: ATOM     10  C   UNL d   1     -11.975   4.101   8.081 -0.24 -0.00    +0.066 A 
DOCKED: ATOM     11  C   UNL d   1     -12.271   2.969   7.291 -0.23 +0.00    -0.021 A 
DOCKED: ATOM     12  C   UNL d   1     -12.378   1.891   8.174 -0.22 -0.00    +0.000 A 
DOCKED: ATOM     13  C   UNL d   1     -12.127   2.440   9.431 -0.19 -0.01    +0.070 A 
DOCKED: ATOM     14  C   UNL d   1     -12.347   2.926   5.786 -0.24 -0.00    +0.052 C 
DOCKED: ATOM     15  C   UNL d   1     -12.037   2.128  11.937 -0.19 -0.00    +0.066 A 
DOCKED: ATOM     16  C   UNL d   1     -12.281   1.359  13.066 -0.13 +0.00    -0.021 A 
DOCKED: ATOM     17  C   UNL d   1     -11.992   2.187  14.160 -0.13 +0.00    +0.000 A 
DOCKED: ATOM     18  C   UNL d   1     -11.577   3.395  13.610 -0.13 +0.00    +0.070 A 
DOCKED: ATOM     19  C   UNL d   1     -12.761  -0.075  13.062 -0.07 -0.00    +0.052 C 
DOCKED: ATOM     20  C   UNL d   1     -10.874   5.807  13.831 -0.12 +0.01    +0.066 A 
DOCKED: ATOM     21  C   UNL d   1     -10.561   6.897  14.641 -0.17 -0.00    -0.025 A 
DOCKED: ATOM     22  C   UNL d   1     -10.313   7.946  13.774 -0.22 -0.00    -0.021 A 
DOCKED: ATOM     23  C   UNL d   1     -10.500   7.443  12.469 -0.28 +0.00    +0.066 A 
DOCKED: ATOM     24  C   UNL d   1     -10.521   6.944  16.166 -0.09 +0.00    +0.051 C 
DOCKED: ATOM     25  N   UNL d   1     -11.098   6.423   9.740 -0.19 +0.00    -0.248 N 
DOCKED: ATOM     26  N   UNL d   1     -11.828   3.765   9.367 -0.15 +0.01    -0.248 N 
DOCKED: ATOM     27  N   UNL d   1     -11.645   3.334  12.284 -0.06 -0.00    -0.248 N 
DOCKED: ATOM     28  N   UNL d   1     -10.842   6.150  12.499 -0.15 -0.02    -0.248 N 
DOCKED: ATOM     29 FE   UNL d   1     -11.386   4.789  11.090 -0.06 -0.00    +0.000 Fe
DOCKED: ENDROOT
DOCKED: BRANCH   6  30
DOCKED: ATOM     30  C   UNL d   1     -10.577  10.052   8.840 -0.23 -0.01    +0.052 C 
DOCKED: BRANCH  30  31
DOCKED: ATOM     31  C   UNL d   1     -11.888  10.820   9.008 -0.08 -0.01    +0.115 C 
DOCKED: BRANCH  31  32
DOCKED: ATOM     32  C   UNL d   1     -13.082   9.900   9.141 -0.03 -0.01    +0.139 C 
DOCKED: ATOM     33  O   UNL d   1     -13.877   9.809   8.218 +0.02 +0.03    -0.650 OA
DOCKED: BRANCH  32  34
DOCKED: ATOM     34  O   UNL d   1     -13.277   9.132  10.239 +0.04 +0.03    -0.776 OA
DOCKED: ATOM     35  H   UNL d   1     -13.292   9.471  11.144 +0.02 -0.01    +0.167 HD
DOCKED: ENDBRANCH  32  34
DOCKED: ENDBRANCH  31  32
DOCKED: ENDBRANCH  30  31
DOCKED: ENDBRANCH   6  30
DOCKED: BRANCH  29  36
DOCKED: ATOM     36  C   UNL d   1     -13.385   5.406  11.233 -0.06 -0.00    +0.190 C 
DOCKED: BRANCH  36  37
DOCKED: ATOM     37  O   UNL d   1     -14.194   6.483  11.611 +0.00 +0.01    -0.399 OA
DOCKED: ATOM     38  H   UNL d   1     -13.607   7.286  11.529 +0.03 -0.01    +0.209 HD
DOCKED: ENDBRANCH  36  37
DOCKED: ENDBRANCH  29  36
DOCKED: BRANCH  22  39
DOCKED: ATOM     39  C   UNL d   1      -9.980   9.368  14.187 -0.16 +0.00    +0.052 C 
DOCKED: BRANCH  39  40
DOCKED: ATOM     40  C   UNL d   1     -11.262  10.203  14.339 -0.05 -0.00    +0.115 C 
DOCKED: BRANCH  40  41
DOCKED: ATOM     41  C   UNL d   1     -12.266  10.017  13.221 -0.03 -0.00    +0.139 C 
DOCKED: ATOM     42  O   UNL d   1     -12.369  10.879  12.360 +0.02 +0.02    -0.650 OA
DOCKED: BRANCH  41  43
DOCKED: ATOM     43  O   UNL d   1     -12.992   8.883  13.099 +0.04 +0.02    -0.776 OA
DOCKED: ATOM     44  H   UNL d   1     -13.106   8.428  12.255 +0.02 -0.00    +0.167 HD
DOCKED: ENDBRANCH  41  43
DOCKED: ENDBRANCH  40  41
DOCKED: ENDBRANCH  39  40
DOCKED: ENDBRANCH  22  39
DOCKED: BRANCH  12  45
DOCKED: ATOM     45  C   UNL d   1     -12.667   0.409   7.973 -0.21 -0.00    +0.004 C 
DOCKED: ATOM     46  C   UNL d   1     -11.932  -0.663   8.256 -0.23 -0.00    +0.012 C 
DOCKED: ENDBRANCH  12  45
DOCKED: BRANCH  17  47
DOCKED: ATOM     47  C   UNL d   1     -12.132   1.919  15.622 -0.07 +0.00    +0.004 C 
DOCKED: ATOM     48  C   UNL d   1     -11.129   1.490  16.392 -0.11 +0.00    +0.012 C 
DOCKED: ENDBRANCH  17  47
DOCKED: TORSDOF 12
DOCKED: TER
DOCKED: ENDMDL
________________________________________________________________________________


	BEGINNING GENETIC ALGORITHM DOCKING 3 of 100
Run: 3 Seed: 2018854726 919264818 [ Run 3 of 100 GA/GALS ]
Beginning LAMARCKIAN GENETIC ALGORITHM (LGA), with a maximum of 25000000 energy evaluations.

Final-Value: -9.858


	FINAL GENETIC ALGORITHM DOCKED STATE
	_______________________________________________


Detailed state:  trans -11.441 2.498 11.576 quatxyzw 0.591556 -0.242918 -0.703705 0.309598 center 8.781 34.984 -0.736 ntor 12 159.9160 104.9905 63.4149 120.3699 -85.0978 158.8407 153.3637 -177.9817 -121.0837 62.4184 -22.5455 128.8908
State:	-11.441   2.498  11.576   0.622 -0.255 -0.740 143.930    159.92  104.99   63.41  120.37  -85.10  158.84  153.36 -177.98 -121.08   62.42  -22.55  128.89

DOCKED: MODEL        3
DOCKED: USER    Run = 3
DOCKED: USER    DPF = D:/Protein_go_brrr/autodock/final/mut_N102T/heme_Co/dock.dpf
DOCKED: USER  
DOCKED: USER    Estimated Free Energy of Binding    =   -5.44 kcal/mol  [=(1)+(2)+(3)-(4)]
DOCKED: USER    Estimated Inhibition Constant, Ki   =  102.52 uM (micromolar)  [Temperature = 298.15 K]
DOCKED: USER    
DOCKED: USER    (1) Final Intermolecular Energy     =   -9.02 kcal/mol
DOCKED: USER        vdW + Hbond + desolv Energy     =   -7.95 kcal/mol
DOCKED: USER        Electrostatic Energy            =   -1.07 kcal/mol
DOCKED: USER    (2) Final Total Internal Energy     =   -0.84 kcal/mol
DOCKED: USER    (3) Torsional Free Energy           =   +3.58 kcal/mol
DOCKED: USER    (4) Unbound System's Energy  [=(2)] =   -0.84 kcal/mol
DOCKED: USER    
DOCKED: USER    
DOCKED: USER    NEWDPF move heme_Co_opt.pdbqt
DOCKED: USER    NEWDPF about 8.781000 34.984000 -0.736000
DOCKED: USER    NEWDPF tran0 -11.441302 2.497616 11.575915
DOCKED: USER    NEWDPF quaternion0 0.591556 -0.242918 -0.703705 0.309598
DOCKED: USER    NEWDPF axisangle0 0.622123 -0.255470 -0.740067 143.930028
DOCKED: USER    NEWDPF quat0 0.622123 -0.255470 -0.740067 143.930028
DOCKED: USER    NEWDPF dihe0 159.92 104.99 63.41 120.37 -85.10 158.84 153.36 -177.98 -121.08 62.42 -22.55 128.89 
DOCKED: USER  keepresnum = 1 
DOCKED: USER  
DOCKED: REMARK  12 active torsions:
DOCKED: REMARK  status: ('A' for Active; 'I' for Inactive)
DOCKED: REMARK    1  A    between atoms: C_6  and  C_10 
DOCKED: REMARK    2  A    between atoms: C_10  and  C_11 
DOCKED: REMARK    3  A    between atoms: C_11  and  C_12 
DOCKED: REMARK    4  A    between atoms: C_12  and  O_14 
DOCKED: REMARK    5  A    between atoms: C_17  and  C_20 
DOCKED: REMARK    6  A    between atoms: C_24  and  C_27 
DOCKED: REMARK    7  A    between atoms: C_31  and  C_34 
DOCKED: REMARK    8  A    between atoms: C_34  and  C_35 
DOCKED: REMARK    9  A    between atoms: C_35  and  C_36 
DOCKED: REMARK   10  A    between atoms: C_36  and  O_38 
DOCKED: REMARK   11  A    between atoms: FE_43  and  C_44 
DOCKED: REMARK   12  A    between atoms: C_44  and  O_45 
DOCKED: USER                              x       y       z     vdW  Elec       q    Type
DOCKED: USER                           _______ _______ _______ _____ _____    ______ ____
DOCKED: ROOT
DOCKED: ATOM      1  C   UNL d   1     -11.013   1.264  13.311 -0.23 +0.01    +0.064 A 
DOCKED: ATOM      2  C   UNL d   1     -11.773   5.932  12.819 -0.17 +0.00    +0.064 C 
DOCKED: ATOM      3  C   UNL d   1     -11.960   5.439   8.070 -0.22 -0.00    +0.064 A 
DOCKED: ATOM      4  C   UNL d   1     -11.569   0.616   8.568 -0.24 -0.02    +0.064 A 
DOCKED: ATOM      5  C   UNL d   1     -11.170   2.581  13.523 -0.18 +0.01    +0.066 A 
DOCKED: ATOM      6  C   UNL d   1     -11.246   3.125  14.820 -0.14 -0.00    -0.021 A 
DOCKED: ATOM      7  C   UNL d   1     -11.489   4.477  14.671 -0.13 -0.00    -0.025 A 
DOCKED: ATOM      8  C   UNL d   1     -11.536   4.702  13.291 -0.12 +0.00    +0.066 A 
DOCKED: ATOM      9  C   UNL d   1     -11.674   5.528  15.776 -0.07 +0.00    +0.051 C 
DOCKED: ATOM     10  C   UNL d   1     -11.813   6.264  11.416 -0.16 +0.00    +0.066 A 
DOCKED: ATOM     11  C   UNL d   1     -11.918   7.557  10.858 -0.14 +0.00    -0.021 A 
DOCKED: ATOM     12  C   UNL d   1     -11.966   7.384   9.472 -0.18 -0.00    +0.000 A 
DOCKED: ATOM     13  C   UNL d   1     -11.875   6.004   9.287 -0.21 -0.00    +0.070 A 
DOCKED: ATOM     14  C   UNL d   1     -11.876   8.861  11.612 -0.11 -0.00    +0.052 C 
DOCKED: ATOM     15  C   UNL d   1     -11.937   4.037   7.703 -0.24 -0.00    +0.066 A 
DOCKED: ATOM     16  C   UNL d   1     -12.175   3.512   6.441 -0.23 +0.00    -0.021 A 
DOCKED: ATOM     17  C   UNL d   1     -12.067   2.121   6.580 -0.28 -0.00    +0.000 A 
DOCKED: ATOM     18  C   UNL d   1     -11.753   1.907   7.918 -0.26 -0.01    +0.070 A 
DOCKED: ATOM     19  C   UNL d   1     -12.487   4.319   5.200 -0.19 +0.00    +0.052 C 
DOCKED: ATOM     20  C   UNL d   1     -11.349   0.379   9.884 -0.21 -0.02    +0.066 A 
DOCKED: ATOM     21  C   UNL d   1     -11.226  -0.910  10.397 -0.28 +0.01    -0.025 A 
DOCKED: ATOM     22  C   UNL d   1     -11.035  -0.753  11.758 -0.27 +0.01    -0.021 A 
DOCKED: ATOM     23  C   UNL d   1     -11.065   0.635  12.011 -0.24 -0.00    +0.066 A 
DOCKED: ATOM     24  C   UNL d   1     -11.305  -2.228   9.632 -0.28 -0.04    +0.051 C 
DOCKED: ATOM     25  N   UNL d   1     -11.336   3.546  12.556 +0.02 -0.01    -0.248 N 
DOCKED: ATOM     26  N   UNL d   1     -11.726   5.333  10.460 -0.05 +0.00    -0.248 N 
DOCKED: ATOM     27  N   UNL d   1     -11.714   3.068   8.563 -0.13 +0.01    -0.248 N 
DOCKED: ATOM     28  N   UNL d   1     -11.257   1.324  10.880 -0.18 +0.04    -0.248 N 
DOCKED: ATOM     29 FE   UNL d   1     -11.535   3.289  10.441 -0.07 -0.00    +0.000 Fe
DOCKED: ENDROOT
DOCKED: BRANCH   6  30
DOCKED: ATOM     30  C   UNL d   1     -11.168   2.357  16.135 -0.10 +0.01    +0.052 C 
DOCKED: BRANCH  30  31
DOCKED: ATOM     31  C   UNL d   1      -9.817   1.654  16.267 -0.17 +0.05    +0.115 C 
DOCKED: BRANCH  31  32
DOCKED: ATOM     32  C   UNL d   1      -8.653   2.616  16.169 -0.23 +0.06    +0.139 C 
DOCKED: ATOM     33  O   UNL d   1      -8.825   3.796  16.438 +0.01 -0.14    -0.650 OA
DOCKED: BRANCH  32  34
DOCKED: ATOM     34  O   UNL d   1      -7.407   2.205  15.837 +0.02 -0.45    -0.776 OA
DOCKED: ATOM     35  H   UNL d   1      -6.733   2.775  15.443 -0.42 +0.04    +0.167 HD
DOCKED: ENDBRANCH  32  34
DOCKED: ENDBRANCH  31  32
DOCKED: ENDBRANCH  30  31
DOCKED: ENDBRANCH   6  30
DOCKED: BRANCH  29  36
DOCKED: ATOM     36  C   UNL d   1     -13.596   3.096  10.773 -0.07 -0.01    +0.190 C 
DOCKED: BRANCH  36  37
DOCKED: ATOM     37  O   UNL d   1     -14.575   3.157  11.770 -0.00 +0.02    -0.399 OA
DOCKED: ATOM     38  H   UNL d   1     -14.066   3.236  12.624 +0.02 -0.01    +0.209 HD
DOCKED: ENDBRANCH  36  37
DOCKED: ENDBRANCH  29  36
DOCKED: BRANCH  22  39
DOCKED: ATOM     39  C   UNL d   1     -10.899  -1.882  12.763 -0.19 -0.02    +0.052 C 
DOCKED: BRANCH  39  40
DOCKED: ATOM     40  C   UNL d   1     -11.853  -1.669  13.950 -0.09 -0.00    +0.115 C 
DOCKED: BRANCH  40  41
DOCKED: ATOM     41  C   UNL d   1     -11.171  -1.630  15.301 -0.10 +0.04    +0.139 C 
DOCKED: ATOM     42  O   UNL d   1     -10.253  -2.405  15.531 -0.51 -0.44    -0.650 OA
DOCKED: BRANCH  41  43
DOCKED: ATOM     43  O   UNL d   1     -11.489  -0.702  16.230 -0.06 -0.22    -0.776 OA
DOCKED: ATOM     44  H   UNL d   1     -12.336  -0.702  16.696 +0.01 +0.02    +0.167 HD
DOCKED: ENDBRANCH  41  43
DOCKED: ENDBRANCH  40  41
DOCKED: ENDBRANCH  39  40
DOCKED: ENDBRANCH  22  39
DOCKED: BRANCH  12  45
DOCKED: ATOM     45  C   UNL d   1     -12.068   8.359   8.307 -0.18 -0.00    +0.004 C 
DOCKED: ATOM     46  C   UNL d   1     -11.185   8.677   7.364 -0.27 -0.00    +0.012 C 
DOCKED: ENDBRANCH  12  45
DOCKED: BRANCH  17  47
DOCKED: ATOM     47  C   UNL d   1     -12.284   1.041   5.571 -0.27 -0.00    +0.004 C 
DOCKED: ATOM     48  C   UNL d   1     -13.350   0.238   5.570 -0.16 -0.01    +0.012 C 
DOCKED: ENDBRANCH  17  47
DOCKED: TORSDOF 12
DOCKED: TER
DOCKED: ENDMDL
________________________________________________________________________________


	BEGINNING GENETIC ALGORITHM DOCKING 4 of 100
Run: 4 Seed: 1901045317 1660484211 [ Run 4 of 100 GA/GALS ]
Beginning LAMARCKIAN GENETIC ALGORITHM (LGA), with a maximum of 25000000 energy evaluations.

Final-Value: -9.985


	FINAL GENETIC ALGORITHM DOCKED STATE
	_______________________________________________


Detailed state:  trans 7.392 -5.538 16.128 quatxyzw 0.287694 0.506458 0.798545 0.151850 center 8.781 34.984 -0.736 ntor 12 54.2543 104.2027 -67.2801 -141.6872 137.2479 151.0348 -170.8331 -97.1302 -94.8658 -56.2844 7.8150 176.8186
State:	  7.392  -5.538  16.128   0.291  0.512  0.808 162.532     54.25  104.20  -67.28 -141.69  137.25  151.03 -170.83  -97.13  -94.87  -56.28    7.81  176.82

DOCKED: MODEL        4
DOCKED: USER    Run = 4
DOCKED: USER    DPF = D:/Protein_go_brrr/autodock/final/mut_N102T/heme_Co/dock.dpf
DOCKED: USER  
DOCKED: USER    Estimated Free Energy of Binding    =   -5.56 kcal/mol  [=(1)+(2)+(3)-(4)]
DOCKED: USER    Estimated Inhibition Constant, Ki   =   83.34 uM (micromolar)  [Temperature = 298.15 K]
DOCKED: USER    
DOCKED: USER    (1) Final Intermolecular Energy     =   -9.14 kcal/mol
DOCKED: USER        vdW + Hbond + desolv Energy     =   -6.17 kcal/mol
DOCKED: USER        Electrostatic Energy            =   -2.98 kcal/mol
DOCKED: USER    (2) Final Total Internal Energy     =   -0.84 kcal/mol
DOCKED: USER    (3) Torsional Free Energy           =   +3.58 kcal/mol
DOCKED: USER    (4) Unbound System's Energy  [=(2)] =   -0.84 kcal/mol
DOCKED: USER    
DOCKED: USER    
DOCKED: USER    NEWDPF move heme_Co_opt.pdbqt
DOCKED: USER    NEWDPF about 8.781000 34.984000 -0.736000
DOCKED: USER    NEWDPF tran0 7.391716 -5.537791 16.127802
DOCKED: USER    NEWDPF quaternion0 0.287694 0.506458 0.798545 0.151850
DOCKED: USER    NEWDPF axisangle0 0.291069 0.512400 0.807914 162.531726
DOCKED: USER    NEWDPF quat0 0.291069 0.512400 0.807914 162.531726
DOCKED: USER    NEWDPF dihe0 54.25 104.20 -67.28 -141.69 137.25 151.03 -170.83 -97.13 -94.87 -56.28 7.81 176.82 
DOCKED: USER  keepresnum = 1 
DOCKED: USER  
DOCKED: REMARK  12 active torsions:
DOCKED: REMARK  status: ('A' for Active; 'I' for Inactive)
DOCKED: REMARK    1  A    between atoms: C_6  and  C_10 
DOCKED: REMARK    2  A    between atoms: C_10  and  C_11 
DOCKED: REMARK    3  A    between atoms: C_11  and  C_12 
DOCKED: REMARK    4  A    between atoms: C_12  and  O_14 
DOCKED: REMARK    5  A    between atoms: C_17  and  C_20 
DOCKED: REMARK    6  A    between atoms: C_24  and  C_27 
DOCKED: REMARK    7  A    between atoms: C_31  and  C_34 
DOCKED: REMARK    8  A    between atoms: C_34  and  C_35 
DOCKED: REMARK    9  A    between atoms: C_35  and  C_36 
DOCKED: REMARK   10  A    between atoms: C_36  and  O_38 
DOCKED: REMARK   11  A    between atoms: FE_43  and  C_44 
DOCKED: REMARK   12  A    between atoms: C_44  and  O_45 
DOCKED: USER                              x       y       z     vdW  Elec       q    Type
DOCKED: USER                           _______ _______ _______ _____ _____    ______ ____
DOCKED: ROOT
DOCKED: ATOM      1  C   UNL d   1       8.924  -6.614  15.028 -0.12 +0.01    +0.064 A 
DOCKED: ATOM      2  C   UNL d   1       7.653  -2.032  15.082 -0.14 +0.01    +0.064 C 
DOCKED: ATOM      3  C   UNL d   1       3.998  -3.042  17.989 -0.10 -0.01    +0.064 A 
DOCKED: ATOM      4  C   UNL d   1       5.504  -7.659  18.259 -0.14 -0.01    +0.064 A 
DOCKED: ATOM      5  C   UNL d   1       8.823  -5.294  14.800 -0.09 +0.01    +0.066 A 
DOCKED: ATOM      6  C   UNL d   1       9.776  -4.593  14.034 -0.05 -0.01    -0.021 A 
DOCKED: ATOM      7  C   UNL d   1       9.414  -3.261  14.072 -0.05 -0.01    -0.025 A 
DOCKED: ATOM      8  C   UNL d   1       8.249  -3.208  14.845 -0.07 +0.01    +0.066 A 
DOCKED: ATOM      9  C   UNL d   1      10.129  -2.072  13.412 -0.06 +0.01    +0.051 C 
DOCKED: ATOM     10  C   UNL d   1       6.437  -1.883  15.842 -0.17 +0.00    +0.066 A 
DOCKED: ATOM     11  C   UNL d   1       5.686  -0.699  16.009 -0.32 +0.00    -0.021 A 
DOCKED: ATOM     12  C   UNL d   1       4.624  -1.023  16.857 -0.32 -0.00    +0.000 A 
DOCKED: ATOM     13  C   UNL d   1       4.798  -2.379  17.135 -0.15 -0.01    +0.070 A 
DOCKED: ATOM     14  C   UNL d   1       5.931   0.617  15.316 -0.25 -0.01    +0.052 C 
DOCKED: ATOM     15  C   UNL d   1       4.064  -4.421  18.429 -0.10 -0.01    +0.066 A 
DOCKED: ATOM     16  C   UNL d   1       3.294  -5.006  19.424 -0.08 +0.00    -0.021 A 
DOCKED: ATOM     17  C   UNL d   1       3.727  -6.337  19.508 -0.12 -0.00    +0.000 A 
DOCKED: ATOM     18  C   UNL d   1       4.718  -6.464  18.541 -0.15 -0.01    +0.070 A 
DOCKED: ATOM     19  C   UNL d   1       2.221  -4.305  20.228 -0.05 -0.01    +0.052 C 
DOCKED: ATOM     20  C   UNL d   1       6.531  -7.783  17.384 -0.22 +0.00    +0.066 A 
DOCKED: ATOM     21  C   UNL d   1       7.235  -8.975  17.227 -0.22 -0.01    -0.025 A 
DOCKED: ATOM     22  C   UNL d   1       8.208  -8.712  16.281 -0.22 -0.01    -0.021 A 
DOCKED: ATOM     23  C   UNL d   1       8.057  -7.358  15.913 -0.18 +0.01    +0.066 A 
DOCKED: ATOM     24  C   UNL d   1       7.004 -10.295  17.958 -0.13 +0.01    +0.051 C 
DOCKED: ATOM     25  N   UNL d   1       7.857  -4.454  15.304 -0.05 -0.03    -0.248 N 
DOCKED: ATOM     26  N   UNL d   1       5.862  -2.910  16.476 -0.07 +0.01    -0.248 N 
DOCKED: ATOM     27  N   UNL d   1       4.914  -5.296  17.939 -0.10 +0.03    -0.248 N 
DOCKED: ATOM     28  N   UNL d   1       7.045  -6.791  16.581 -0.08 -0.02    -0.248 N 
DOCKED: ATOM     29 FE   UNL d   1       6.299  -4.904  16.699 -0.03 -0.00    +0.000 Fe
DOCKED: ENDROOT
DOCKED: BRANCH   6  30
DOCKED: ATOM     30  C   UNL d   1      11.018  -5.178  13.370 -0.04 +0.02    +0.052 C 
DOCKED: BRANCH  30  31
DOCKED: ATOM     31  C   UNL d   1      10.711  -5.600  11.934 -0.09 +0.07    +0.115 C 
DOCKED: BRANCH  31  32
DOCKED: ATOM     32  C   UNL d   1      10.796  -4.443  10.962 +0.05 +0.18    +0.139 C 
DOCKED: ATOM     33  O   UNL d   1      11.848  -3.833  10.844 -0.04 -0.91    -0.650 OA
DOCKED: BRANCH  32  34
DOCKED: ATOM     34  O   UNL d   1       9.752  -4.086  10.177 -0.25 -1.32    -0.776 OA
DOCKED: ATOM     35  H   UNL d   1       8.853  -3.939  10.501 +0.05 +0.15    +0.167 HD
DOCKED: ENDBRANCH  32  34
DOCKED: ENDBRANCH  31  32
DOCKED: ENDBRANCH  30  31
DOCKED: ENDBRANCH   6  30
DOCKED: BRANCH  29  36
DOCKED: ATOM     36  C   UNL d   1       7.671  -4.431  18.212 -0.03 +0.00    +0.190 C 
DOCKED: BRANCH  36  37
DOCKED: ATOM     37  O   UNL d   1       9.003  -4.065  18.434 +0.00 -0.02    -0.399 OA
DOCKED: ATOM     38  H   UNL d   1       9.449  -4.170  17.547 +0.01 +0.02    +0.209 HD
DOCKED: ENDBRANCH  36  37
DOCKED: ENDBRANCH  29  36
DOCKED: BRANCH  22  39
DOCKED: ATOM     39  C   UNL d   1       9.264  -9.694  15.809 -0.15 +0.03    +0.052 C 
DOCKED: BRANCH  39  40
DOCKED: ATOM     40  C   UNL d   1      10.441  -9.742  16.797 -0.09 +0.06    +0.115 C 
DOCKED: BRANCH  40  41
DOCKED: ATOM     41  C   UNL d   1      10.663 -11.094  17.440 -0.08 +0.10    +0.139 C 
DOCKED: ATOM     42  O   UNL d   1      10.557 -12.105  16.760 -0.52 -1.10    -0.650 OA
DOCKED: BRANCH  41  43
DOCKED: ATOM     43  O   UNL d   1      11.059 -11.213  18.727 +0.01 -0.27    -0.776 OA
DOCKED: ATOM     44  H   UNL d   1      11.895 -10.851  19.048 +0.01 +0.04    +0.167 HD
DOCKED: ENDBRANCH  41  43
DOCKED: ENDBRANCH  40  41
DOCKED: ENDBRANCH  39  40
DOCKED: ENDBRANCH  22  39
DOCKED: BRANCH  12  45
DOCKED: ATOM     45  C   UNL d   1       3.461  -0.216  17.419 -0.43 -0.00    +0.004 C 
DOCKED: ATOM     46  C   UNL d   1       2.792  -0.342  18.563 -0.42 -0.01    +0.012 C 
DOCKED: ENDBRANCH  12  45
DOCKED: BRANCH  17  47
DOCKED: ATOM     47  C   UNL d   1       3.303  -7.421  20.444 -0.12 -0.00    +0.004 C 
DOCKED: ATOM     48  C   UNL d   1       2.684  -8.536  20.048 -0.21 -0.00    +0.012 C 
DOCKED: ENDBRANCH  17  47
DOCKED: TORSDOF 12
DOCKED: TER
DOCKED: ENDMDL
________________________________________________________________________________


	BEGINNING GENETIC ALGORITHM DOCKING 5 of 100
Run: 5 Seed: 1298223303 1062667852 [ Run 5 of 100 GA/GALS ]
Beginning LAMARCKIAN GENETIC ALGORITHM (LGA), with a maximum of 25000000 energy evaluations.

Final-Value: -10.082


	FINAL GENETIC ALGORITHM DOCKED STATE
	_______________________________________________


Detailed state:  trans -0.010 -21.428 -4.919 quatxyzw -0.151326 0.399156 0.227449 -0.875238 center 8.781 34.984 -0.736 ntor 12 -56.7210 22.8060 -102.2161 -43.6726 61.1073 -2.1006 -98.6361 160.8982 -64.4011 166.8414 -171.6442 -171.2560
State:	 -0.010 -21.428  -4.919  -0.313  0.825  0.470 -57.854    -56.72   22.81 -102.22  -43.67   61.11   -2.10  -98.64  160.90  -64.40  166.84 -171.64 -171.26

DOCKED: MODEL        5
DOCKED: USER    Run = 5
DOCKED: USER    DPF = D:/Protein_go_brrr/autodock/final/mut_N102T/heme_Co/dock.dpf
DOCKED: USER  
DOCKED: USER    Estimated Free Energy of Binding    =   -5.34 kcal/mol  [=(1)+(2)+(3)-(4)]
DOCKED: USER    Estimated Inhibition Constant, Ki   =  121.15 uM (micromolar)  [Temperature = 298.15 K]
DOCKED: USER    
DOCKED: USER    (1) Final Intermolecular Energy     =   -8.92 kcal/mol
DOCKED: USER        vdW + Hbond + desolv Energy     =   -5.45 kcal/mol
DOCKED: USER        Electrostatic Energy            =   -3.47 kcal/mol
DOCKED: USER    (2) Final Total Internal Energy     =   -1.16 kcal/mol
DOCKED: USER    (3) Torsional Free Energy           =   +3.58 kcal/mol
DOCKED: USER    (4) Unbound System's Energy  [=(2)] =   -1.16 kcal/mol
DOCKED: USER    
DOCKED: USER    
DOCKED: USER    NEWDPF move heme_Co_opt.pdbqt
DOCKED: USER    NEWDPF about 8.781000 34.984000 -0.736000
DOCKED: USER    NEWDPF tran0 -0.009736 -21.427569 -4.919468
DOCKED: USER    NEWDPF quaternion0 -0.151326 0.399156 0.227449 -0.875238
DOCKED: USER    NEWDPF axisangle0 -0.312856 0.825227 0.470235 -57.853670
DOCKED: USER    NEWDPF quat0 -0.312856 0.825227 0.470235 -57.853670
DOCKED: USER    NEWDPF dihe0 -56.72 22.81 -102.22 -43.67 61.11 -2.10 -98.64 160.90 -64.40 166.84 -171.64 -171.26 
DOCKED: USER  keepresnum = 1 
DOCKED: USER  
DOCKED: REMARK  12 active torsions:
DOCKED: REMARK  status: ('A' for Active; 'I' for Inactive)
DOCKED: REMARK    1  A    between atoms: C_6  and  C_10 
DOCKED: REMARK    2  A    between atoms: C_10  and  C_11 
DOCKED: REMARK    3  A    between atoms: C_11  and  C_12 
DOCKED: REMARK    4  A    between atoms: C_12  and  O_14 
DOCKED: REMARK    5  A    between atoms: C_17  and  C_20 
DOCKED: REMARK    6  A    between atoms: C_24  and  C_27 
DOCKED: REMARK    7  A    between atoms: C_31  and  C_34 
DOCKED: REMARK    8  A    between atoms: C_34  and  C_35 
DOCKED: REMARK    9  A    between atoms: C_35  and  C_36 
DOCKED: REMARK   10  A    between atoms: C_36  and  O_38 
DOCKED: REMARK   11  A    between atoms: FE_43  and  C_44 
DOCKED: REMARK   12  A    between atoms: C_44  and  O_45 
DOCKED: USER                              x       y       z     vdW  Elec       q    Type
DOCKED: USER                           _______ _______ _______ _____ _____    ______ ____
DOCKED: ROOT
DOCKED: ATOM      1  C   UNL d   1      -1.922 -21.919  -4.016 -0.03 +0.02    +0.064 A 
DOCKED: ATOM      2  C   UNL d   1       2.538 -22.165  -2.387 -0.05 +0.00    +0.064 C 
DOCKED: ATOM      3  C   UNL d   1       4.214 -20.868  -6.669 -0.06 -0.01    +0.064 A 
DOCKED: ATOM      4  C   UNL d   1      -0.344 -20.235  -8.247 -0.08 +0.01    +0.064 A 
DOCKED: ATOM      5  C   UNL d   1      -0.825 -22.117  -3.267 -0.03 +0.02    +0.066 A 
DOCKED: ATOM      6  C   UNL d   1      -0.903 -22.446  -1.899 -0.04 -0.01    -0.021 A 
DOCKED: ATOM      7  C   UNL d   1       0.393 -22.494  -1.426 -0.03 -0.00    -0.025 A 
DOCKED: ATOM      8  C   UNL d   1       1.207 -22.208  -2.528 -0.03 +0.01    +0.066 A 
DOCKED: ATOM      9  C   UNL d   1       0.864 -22.794   0.005 -0.03 +0.01    +0.051 C 
DOCKED: ATOM     10  C   UNL d   1       3.456 -21.906  -3.468 -0.08 +0.00    +0.066 A 
DOCKED: ATOM     11  C   UNL d   1       4.865 -21.986  -3.416 -0.08 -0.00    -0.021 A 
DOCKED: ATOM     12  C   UNL d   1       5.328 -21.606  -4.679 -0.11 +0.00    +0.000 A 
DOCKED: ATOM     13  C   UNL d   1       4.170 -21.337  -5.410 -0.07 -0.00    +0.070 A 
DOCKED: ATOM     14  C   UNL d   1       5.688 -22.486  -2.256 -0.04 +0.00    +0.052 C 
DOCKED: ATOM     15  C   UNL d   1       3.125 -20.489  -7.548 -0.14 -0.01    +0.066 A 
DOCKED: ATOM     16  C   UNL d   1       3.242 -19.874  -8.786 -0.22 +0.00    -0.021 A 
DOCKED: ATOM     17  C   UNL d   1       1.930 -19.688  -9.244 -0.21 -0.00    +0.000 A 
DOCKED: ATOM     18  C   UNL d   1       1.113 -20.220  -8.252 -0.15 -0.00    +0.070 A 
DOCKED: ATOM     19  C   UNL d   1       4.544 -19.501  -9.460 -0.25 -0.02    +0.052 C 
DOCKED: ATOM     20  C   UNL d   1      -1.160 -20.669  -7.256 -0.07 +0.02    +0.066 A 
DOCKED: ATOM     21  C   UNL d   1      -2.548 -20.599  -7.352 -0.07 -0.01    -0.025 A 
DOCKED: ATOM     22  C   UNL d   1      -3.031 -21.104  -6.159 -0.04 -0.01    -0.021 A 
DOCKED: ATOM     23  C   UNL d   1      -1.904 -21.449  -5.383 -0.03 +0.02    +0.066 A 
DOCKED: ATOM     24  C   UNL d   1      -3.375 -20.058  -8.515 -0.03 +0.02    +0.051 C 
DOCKED: ATOM     25  N   UNL d   1       0.479 -21.977  -3.683 -0.01 -0.04    -0.248 N 
DOCKED: ATOM     26  N   UNL d   1       3.039 -21.572  -4.694 -0.07 +0.00    -0.248 N 
DOCKED: ATOM     27  N   UNL d   1       1.857 -20.661  -7.244 -0.09 +0.00    -0.248 N 
DOCKED: ATOM     28  N   UNL d   1      -0.770 -21.185  -6.042 -0.01 -0.06    -0.248 N 
DOCKED: ATOM     29 FE   UNL d   1       1.206 -21.280  -5.570 -0.02 +0.00    +0.000 Fe
DOCKED: ENDROOT
DOCKED: BRANCH   6  30
DOCKED: ATOM     30  C   UNL d   1      -2.176 -22.622  -1.078 -0.06 +0.02    +0.052 C 
DOCKED: BRANCH  30  31
DOCKED: ATOM     31  C   UNL d   1      -2.637 -21.281  -0.507 -0.10 +0.07    +0.115 C 
DOCKED: BRANCH  31  32
DOCKED: ATOM     32  C   UNL d   1      -3.955 -20.826  -1.096 -0.10 +0.17    +0.139 C 
DOCKED: ATOM     33  O   UNL d   1      -4.844 -20.440  -0.353 -0.56 -0.98    -0.650 OA
DOCKED: BRANCH  32  34
DOCKED: ATOM     34  O   UNL d   1      -4.168 -20.786  -2.432 -0.32 -1.04    -0.776 OA
DOCKED: ATOM     35  H   UNL d   1      -3.657 -20.243  -3.048 +0.01 +0.27    +0.167 HD
DOCKED: ENDBRANCH  32  34
DOCKED: ENDBRANCH  31  32
DOCKED: ENDBRANCH  30  31
DOCKED: ENDBRANCH   6  30
DOCKED: BRANCH  29  36
DOCKED: ATOM     36  C   UNL d   1       1.129 -19.348  -4.760 -0.18 +0.02    +0.190 C 
DOCKED: BRANCH  36  37
DOCKED: ATOM     37  O   UNL d   1       1.038 -17.996  -5.108 -0.30 -0.10    -0.399 OA
DOCKED: ATOM     38  H   UNL d   1       1.984 -17.692  -5.203 -0.50 -0.02    +0.209 HD
DOCKED: ENDBRANCH  36  37
DOCKED: ENDBRANCH  29  36
DOCKED: BRANCH  22  39
DOCKED: ATOM     39  C   UNL d   1      -4.494 -21.187  -5.766 -0.03 +0.03    +0.052 C 
DOCKED: BRANCH  39  40
DOCKED: ATOM     40  C   UNL d   1      -5.068 -19.784  -5.511 -0.07 +0.10    +0.115 C 
DOCKED: BRANCH  40  41
DOCKED: ATOM     41  C   UNL d   1      -4.022 -18.717  -5.260 -0.14 +0.18    +0.139 C 
DOCKED: ATOM     42  O   UNL d   1      -3.270 -18.830  -4.302 -0.16 -1.02    -0.650 OA
DOCKED: BRANCH  41  43
DOCKED: ATOM     43  O   UNL d   1      -3.839 -17.688  -6.116 -0.48 -1.43    -0.776 OA
DOCKED: ATOM     44  H   UNL d   1      -3.163 -17.700  -6.806 +0.04 +0.28    +0.167 HD
DOCKED: ENDBRANCH  41  43
DOCKED: ENDBRANCH  40  41
DOCKED: ENDBRANCH  39  40
DOCKED: ENDBRANCH  22  39
DOCKED: BRANCH  12  45
DOCKED: ATOM     45  C   UNL d   1       6.721 -21.487  -5.281 -0.10 +0.00    +0.004 C 
DOCKED: ATOM     46  C   UNL d   1       7.801 -20.844  -4.845 -0.08 +0.00    +0.012 C 
DOCKED: ENDBRANCH  12  45
DOCKED: BRANCH  17  47
DOCKED: ATOM     47  C   UNL d   1       1.439 -19.019 -10.486 +0.08 -0.00    +0.004 C 
DOCKED: ATOM     48  C   UNL d   1       2.038 -19.139 -11.674 -0.24 -0.00    +0.012 C 
DOCKED: ENDBRANCH  17  47
DOCKED: TORSDOF 12
DOCKED: TER
DOCKED: ENDMDL
________________________________________________________________________________


	BEGINNING GENETIC ALGORITHM DOCKING 6 of 100
Run: 6 Seed: 1258209040 1895248219 [ Run 6 of 100 GA/GALS ]
Beginning LAMARCKIAN GENETIC ALGORITHM (LGA), with a maximum of 25000000 energy evaluations.

Final-Value: -9.301


	FINAL GENETIC ALGORITHM DOCKED STATE
	_______________________________________________


Detailed state:  trans 15.515 -3.307 3.576 quatxyzw -0.706608 0.404044 0.577420 0.063553 center 8.781 34.984 -0.736 ntor 12 72.0388 57.0320 -61.0927 -6.4267 -87.9378 -110.0169 -152.2755 -28.8326 -45.6831 138.3833 161.0392 180.0000
State:	 15.515  -3.307   3.576  -0.708  0.405  0.579 172.712     72.04   57.03  -61.09   -6.43  -87.94 -110.02 -152.28  -28.83  -45.68  138.38  161.04  180.00

DOCKED: MODEL        6
DOCKED: USER    Run = 6
DOCKED: USER    DPF = D:/Protein_go_brrr/autodock/final/mut_N102T/heme_Co/dock.dpf
DOCKED: USER  
DOCKED: USER    Estimated Free Energy of Binding    =   -3.99 kcal/mol  [=(1)+(2)+(3)-(4)]
DOCKED: USER    Estimated Inhibition Constant, Ki   =    1.19 mM (millimolar)  [Temperature = 298.15 K]
DOCKED: USER    
DOCKED: USER    (1) Final Intermolecular Energy     =   -7.57 kcal/mol
DOCKED: USER        vdW + Hbond + desolv Energy     =   -5.30 kcal/mol
DOCKED: USER        Electrostatic Energy            =   -2.27 kcal/mol
DOCKED: USER    (2) Final Total Internal Energy     =   -1.73 kcal/mol
DOCKED: USER    (3) Torsional Free Energy           =   +3.58 kcal/mol
DOCKED: USER    (4) Unbound System's Energy  [=(2)] =   -1.73 kcal/mol
DOCKED: USER    
DOCKED: USER    
DOCKED: USER    NEWDPF move heme_Co_opt.pdbqt
DOCKED: USER    NEWDPF about 8.781000 34.984000 -0.736000
DOCKED: USER    NEWDPF tran0 15.515224 -3.306630 3.575826
DOCKED: USER    NEWDPF quaternion0 -0.706608 0.404044 0.577420 0.063553
DOCKED: USER    NEWDPF axisangle0 -0.708040 0.404862 0.578590 172.712499
DOCKED: USER    NEWDPF quat0 -0.708040 0.404862 0.578590 172.712499
DOCKED: USER    NEWDPF dihe0 72.04 57.03 -61.09 -6.43 -87.94 -110.02 -152.28 -28.83 -45.68 138.38 161.04 180.00 
DOCKED: USER  keepresnum = 1 
DOCKED: USER  
DOCKED: REMARK  12 active torsions:
DOCKED: REMARK  status: ('A' for Active; 'I' for Inactive)
DOCKED: REMARK    1  A    between atoms: C_6  and  C_10 
DOCKED: REMARK    2  A    between atoms: C_10  and  C_11 
DOCKED: REMARK    3  A    between atoms: C_11  and  C_12 
DOCKED: REMARK    4  A    between atoms: C_12  and  O_14 
DOCKED: REMARK    5  A    between atoms: C_17  and  C_20 
DOCKED: REMARK    6  A    between atoms: C_24  and  C_27 
DOCKED: REMARK    7  A    between atoms: C_31  and  C_34 
DOCKED: REMARK    8  A    between atoms: C_34  and  C_35 
DOCKED: REMARK    9  A    between atoms: C_35  and  C_36 
DOCKED: REMARK   10  A    between atoms: C_36  and  O_38 
DOCKED: REMARK   11  A    between atoms: FE_43  and  C_44 
DOCKED: REMARK   12  A    between atoms: C_44  and  O_45 
DOCKED: USER                              x       y       z     vdW  Elec       q    Type
DOCKED: USER                           _______ _______ _______ _____ _____    ______ ____
DOCKED: ROOT
DOCKED: ATOM      1  C   UNL d   1      15.991  -2.712   5.609 -0.07 +0.02    +0.064 A 
DOCKED: ATOM      2  C   UNL d   1      14.084  -0.346   1.952 -0.35 +0.01    +0.064 C 
DOCKED: ATOM      3  C   UNL d   1      14.763  -4.123  -0.894 -0.09 -0.02    +0.064 A 
DOCKED: ATOM      4  C   UNL d   1      16.359  -6.691   2.916 -0.00 -0.00    +0.064 A 
DOCKED: ATOM      5  C   UNL d   1      15.453  -1.776   4.810 -0.11 +0.02    +0.066 A 
DOCKED: ATOM      6  C   UNL d   1      15.038  -0.523   5.302 -0.18 -0.01    -0.021 A 
DOCKED: ATOM      7  C   UNL d   1      14.464   0.151   4.242 -0.30 -0.01    -0.025 A 
DOCKED: ATOM      8  C   UNL d   1      14.569  -0.712   3.145 -0.25 +0.01    +0.066 A 
DOCKED: ATOM      9  C   UNL d   1      13.836   1.553   4.245 -0.37 +0.01    +0.051 C 
DOCKED: ATOM     10  C   UNL d   1      14.170  -1.156   0.763 -0.27 +0.00    +0.066 A 
DOCKED: ATOM     11  C   UNL d   1      13.807  -0.772  -0.547 -0.30 +0.00    -0.021 A 
DOCKED: ATOM     12  C   UNL d   1      14.019  -1.891  -1.357 -0.15 -0.00    +0.000 A 
DOCKED: ATOM     13  C   UNL d   1      14.506  -2.867  -0.487 -0.11 -0.01    +0.070 A 
DOCKED: ATOM     14  C   UNL d   1      13.380   0.604  -0.987 -0.34 -0.00    +0.052 C 
DOCKED: ATOM     15  C   UNL d   1      15.218  -5.264  -0.125 -0.04 -0.02    +0.066 A 
DOCKED: ATOM     16  C   UNL d   1      15.326  -6.571  -0.577 -0.05 +0.01    -0.021 A 
DOCKED: ATOM     17  C   UNL d   1      15.784  -7.317   0.519 -0.02 -0.00    +0.000 A 
DOCKED: ATOM     18  C   UNL d   1      15.936  -6.398   1.553 -0.01 -0.01    +0.070 A 
DOCKED: ATOM     19  C   UNL d   1      15.001  -7.045  -1.976 -0.09 -0.04    +0.052 C 
DOCKED: ATOM     20  C   UNL d   1      16.432  -5.831   3.960 -0.01 +0.01    +0.066 A 
DOCKED: ATOM     21  C   UNL d   1      16.819  -6.239   5.234 -0.01 -0.00    -0.025 A 
DOCKED: ATOM     22  C   UNL d   1      16.751  -5.107   6.025 -0.02 -0.00    -0.021 A 
DOCKED: ATOM     23  C   UNL d   1      16.310  -4.058   5.190 -0.03 +0.01    +0.066 A 
DOCKED: ATOM     24  C   UNL d   1      17.216  -7.643   5.682 -0.00 +0.00    +0.051 C 
DOCKED: ATOM     25  N   UNL d   1      15.183  -1.911   3.468 -0.08 -0.05    -0.248 N 
DOCKED: ATOM     26  N   UNL d   1      14.650  -2.404   0.783 -0.07 +0.00    -0.248 N 
DOCKED: ATOM     27  N   UNL d   1      15.561  -5.191   1.142 -0.01 +0.03    -0.248 N 
DOCKED: ATOM     28  N   UNL d   1      16.113  -4.493   3.940 -0.01 -0.03    -0.248 N 
DOCKED: ATOM     29 FE   UNL d   1      15.385  -3.650   2.239 -0.02 +0.00    +0.000 Fe
DOCKED: ENDROOT
DOCKED: BRANCH   6  30
DOCKED: ATOM     30  C   UNL d   1      15.119  -0.040   6.746 -0.15 +0.01    +0.052 C 
DOCKED: BRANCH  30  31
DOCKED: ATOM     31  C   UNL d   1      13.718   0.167   7.323 -0.25 +0.04    +0.115 C 
DOCKED: BRANCH  31  32
DOCKED: ATOM     32  C   UNL d   1      13.558  -0.463   8.690 -0.15 +0.07    +0.139 C 
DOCKED: ATOM     33  O   UNL d   1      14.016   0.104   9.671 +0.04 -0.23    -0.650 OA
DOCKED: BRANCH  32  34
DOCKED: ATOM     34  O   UNL d   1      12.878  -1.619   8.872 -0.16 -0.87    -0.776 OA
DOCKED: ATOM     35  H   UNL d   1      13.173  -2.481   8.547 +0.02 +0.30    +0.167 HD
DOCKED: ENDBRANCH  32  34
DOCKED: ENDBRANCH  31  32
DOCKED: ENDBRANCH  30  31
DOCKED: ENDBRANCH   6  30
DOCKED: BRANCH  29  36
DOCKED: ATOM     36  C   UNL d   1      13.428  -4.140   2.806 -0.16 +0.02    +0.190 C 
DOCKED: BRANCH  36  37
DOCKED: ATOM     37  O   UNL d   1      12.092  -4.033   2.405 -0.18 -0.00    -0.399 OA
DOCKED: ATOM     38  H   UNL d   1      11.939  -3.055   2.280 -0.23 -0.00    +0.209 HD
DOCKED: ENDBRANCH  36  37
DOCKED: ENDBRANCH  29  36
DOCKED: BRANCH  22  39
DOCKED: ATOM     39  C   UNL d   1      17.031  -5.056   7.516 -0.01 +0.01    +0.052 C 
DOCKED: BRANCH  39  40
DOCKED: ATOM     40  C   UNL d   1      15.829  -5.589   8.313 -0.03 +0.05    +0.115 C 
DOCKED: BRANCH  40  41
DOCKED: ATOM     41  C   UNL d   1      14.492  -5.027   7.877 -0.07 +0.13    +0.139 C 
DOCKED: ATOM     42  O   UNL d   1      13.700  -5.753   7.293 +0.11 -0.79    -0.650 OA
DOCKED: BRANCH  41  43
DOCKED: ATOM     43  O   UNL d   1      14.114  -3.769   8.194 -0.16 -1.16    -0.776 OA
DOCKED: ATOM     44  H   UNL d   1      14.098  -3.445   9.104 +0.00 +0.22    +0.167 HD
DOCKED: ENDBRANCH  41  43
DOCKED: ENDBRANCH  40  41
DOCKED: ENDBRANCH  39  40
DOCKED: ENDBRANCH  22  39
DOCKED: BRANCH  12  45
DOCKED: ATOM     45  C   UNL d   1      13.836  -2.143  -2.848 -0.22 -0.00    +0.004 C 
DOCKED: ATOM     46  C   UNL d   1      13.176  -1.447  -3.769 -0.32 -0.00    +0.012 C 
DOCKED: ENDBRANCH  12  45
DOCKED: BRANCH  17  47
DOCKED: ATOM     47  C   UNL d   1      16.022  -8.786   0.641 -0.01 -0.00    +0.004 C 
DOCKED: ATOM     48  C   UNL d   1      15.257  -9.598   1.374 -0.01 -0.00    +0.012 C 
DOCKED: ENDBRANCH  17  47
DOCKED: TORSDOF 12
DOCKED: TER
DOCKED: ENDMDL
________________________________________________________________________________


	BEGINNING GENETIC ALGORITHM DOCKING 7 of 100
Run: 7 Seed: 297402186 1942023169 [ Run 7 of 100 GA/GALS ]
Beginning LAMARCKIAN GENETIC ALGORITHM (LGA), with a maximum of 25000000 energy evaluations.

Final-Value: -9.146


	FINAL GENETIC ALGORITHM DOCKED STATE
	_______________________________________________


Detailed state:  trans 9.761 17.535 9.914 quatxyzw 0.129485 0.099976 0.352923 0.921240 center 8.781 34.984 -0.736 ntor 12 -171.8347 112.6048 11.2347 96.9758 122.6872 133.0304 43.2729 129.2560 163.3660 178.0136 -159.8426 -11.7060
State:	  9.761  17.535   9.914   0.333  0.257  0.907 45.784   -171.83  112.60   11.23   96.98  122.69  133.03   43.27  129.26  163.37  178.01 -159.84  -11.71

DOCKED: MODEL        7
DOCKED: USER    Run = 7
DOCKED: USER    DPF = D:/Protein_go_brrr/autodock/final/mut_N102T/heme_Co/dock.dpf
DOCKED: USER  
DOCKED: USER    Estimated Free Energy of Binding    =   -3.24 kcal/mol  [=(1)+(2)+(3)-(4)]
DOCKED: USER    Estimated Inhibition Constant, Ki   =    4.19 mM (millimolar)  [Temperature = 298.15 K]
DOCKED: USER    
DOCKED: USER    (1) Final Intermolecular Energy     =   -6.82 kcal/mol
DOCKED: USER        vdW + Hbond + desolv Energy     =   -5.55 kcal/mol
DOCKED: USER        Electrostatic Energy            =   -1.27 kcal/mol
DOCKED: USER    (2) Final Total Internal Energy     =   -2.32 kcal/mol
DOCKED: USER    (3) Torsional Free Energy           =   +3.58 kcal/mol
DOCKED: USER    (4) Unbound System's Energy  [=(2)] =   -2.32 kcal/mol
DOCKED: USER    
DOCKED: USER    
DOCKED: USER    NEWDPF move heme_Co_opt.pdbqt
DOCKED: USER    NEWDPF about 8.781000 34.984000 -0.736000
DOCKED: USER    NEWDPF tran0 9.760579 17.535341 9.913629
DOCKED: USER    NEWDPF quaternion0 0.129485 0.099976 0.352923 0.921240
DOCKED: USER    NEWDPF axisangle0 0.332871 0.257012 0.907271 45.783806
DOCKED: USER    NEWDPF quat0 0.332871 0.257012 0.907271 45.783806
DOCKED: USER    NEWDPF dihe0 -171.83 112.60 11.23 96.98 122.69 133.03 43.27 129.26 163.37 178.01 -159.84 -11.71 
DOCKED: USER  keepresnum = 1 
DOCKED: USER  
DOCKED: REMARK  12 active torsions:
DOCKED: REMARK  status: ('A' for Active; 'I' for Inactive)
DOCKED: REMARK    1  A    between atoms: C_6  and  C_10 
DOCKED: REMARK    2  A    between atoms: C_10  and  C_11 
DOCKED: REMARK    3  A    between atoms: C_11  and  C_12 
DOCKED: REMARK    4  A    between atoms: C_12  and  O_14 
DOCKED: REMARK    5  A    between atoms: C_17  and  C_20 
DOCKED: REMARK    6  A    between atoms: C_24  and  C_27 
DOCKED: REMARK    7  A    between atoms: C_31  and  C_34 
DOCKED: REMARK    8  A    between atoms: C_34  and  C_35 
DOCKED: REMARK    9  A    between atoms: C_35  and  C_36 
DOCKED: REMARK   10  A    between atoms: C_36  and  O_38 
DOCKED: REMARK   11  A    between atoms: FE_43  and  C_44 
DOCKED: REMARK   12  A    between atoms: C_44  and  O_45 
DOCKED: USER                              x       y       z     vdW  Elec       q    Type
DOCKED: USER                           _______ _______ _______ _____ _____    ______ ____
DOCKED: ROOT
DOCKED: ATOM      1  C   UNL d   1       8.763  18.839   8.492 -0.11 -0.00    +0.064 A 
DOCKED: ATOM      2  C   UNL d   1       7.538  17.299  12.821 -0.23 -0.02    +0.064 C 
DOCKED: ATOM      3  C   UNL d   1      11.411  14.506  12.965 -0.12 +0.00    +0.064 A 
DOCKED: ATOM      4  C   UNL d   1      12.884  16.352   8.712 -0.10 +0.02    +0.064 A 
DOCKED: ATOM      5  C   UNL d   1       8.124  18.596   9.649 -0.17 -0.01    +0.066 A 
DOCKED: ATOM      6  C   UNL d   1       6.956  19.291  10.018 -0.20 +0.01    -0.021 A 
DOCKED: ATOM      7  C   UNL d   1       6.618  18.857  11.285 -0.19 +0.01    -0.025 A 
DOCKED: ATOM      8  C   UNL d   1       7.584  17.904  11.627 -0.23 -0.01    +0.066 A 
DOCKED: ATOM      9  C   UNL d   1       5.435  19.312  12.153 -0.18 -0.02    +0.051 C 
DOCKED: ATOM     10  C   UNL d   1       8.471  16.288  13.250 -0.20 -0.01    +0.066 A 
DOCKED: ATOM     11  C   UNL d   1       8.396  15.516  14.430 -0.22 +0.01    -0.021 A 
DOCKED: ATOM     12  C   UNL d   1       9.536  14.707  14.445 -0.19 -0.00    +0.000 A 
DOCKED: ATOM     13  C   UNL d   1      10.214  15.035  13.270 -0.19 -0.00    +0.070 A 
DOCKED: ATOM     14  C   UNL d   1       7.254  15.500  15.414 -0.25 -0.03    +0.052 C 
DOCKED: ATOM     15  C   UNL d   1      12.270  14.769  11.827 -0.16 +0.00    +0.066 A 
DOCKED: ATOM     16  C   UNL d   1      13.562  14.296  11.644 -0.09 -0.00    -0.021 A 
DOCKED: ATOM     17  C   UNL d   1      13.992  14.828  10.420 -0.15 +0.00    +0.000 A 
DOCKED: ATOM     18  C   UNL d   1      12.919  15.572   9.943 -0.14 +0.01    +0.070 A 
DOCKED: ATOM     19  C   UNL d   1      14.310  13.395  12.602 +0.03 +0.01    +0.052 C 
DOCKED: ATOM     20  C   UNL d   1      11.885  17.152   8.270 -0.11 +0.02    +0.066 A 
DOCKED: ATOM     21  C   UNL d   1      11.983  17.880   7.087 -0.06 -0.01    -0.025 A 
DOCKED: ATOM     22  C   UNL d   1      10.797  18.584   6.983 -0.05 -0.00    -0.021 A 
DOCKED: ATOM     23  C   UNL d   1      10.033  18.257   8.123 -0.09 +0.01    +0.066 A 
DOCKED: ATOM     24  C   UNL d   1      13.157  17.920   6.113 -0.02 +0.01    +0.051 C 
DOCKED: ATOM     25  N   UNL d   1       8.526  17.718  10.630 -0.13 +0.02    -0.248 N 
DOCKED: ATOM     26  N   UNL d   1       9.541  15.950  12.522 -0.13 +0.03    -0.248 N 
DOCKED: ATOM     27  N   UNL d   1      11.922  15.539  10.821 -0.13 -0.00    -0.248 N 
DOCKED: ATOM     28  N   UNL d   1      10.689  17.392   8.906 -0.09 -0.04    -0.248 N 
DOCKED: ATOM     29 FE   UNL d   1      10.325  16.565  10.728 -0.05 -0.00    +0.000 Fe
DOCKED: ENDROOT
DOCKED: BRANCH   6  30
DOCKED: ATOM     30  C   UNL d   1       6.254  20.381   9.215 -0.09 -0.02    +0.052 C 
DOCKED: BRANCH  30  31
DOCKED: ATOM     31  C   UNL d   1       7.027  21.697   9.305 -0.07 -0.03    +0.115 C 
DOCKED: BRANCH  31  32
DOCKED: ATOM     32  C   UNL d   1       7.987  21.723  10.475 -0.02 -0.03    +0.139 C 
DOCKED: ATOM     33  O   UNL d   1       7.586  22.076  11.574 +0.02 +0.13    -0.650 OA
DOCKED: BRANCH  32  34
DOCKED: ATOM     34  O   UNL d   1       9.274  21.321  10.356 +0.03 +0.09    -0.776 OA
DOCKED: ATOM     35  H   UNL d   1       9.899  21.272  11.092 +0.01 -0.02    +0.167 HD
DOCKED: ENDBRANCH  32  34
DOCKED: ENDBRANCH  31  32
DOCKED: ENDBRANCH  30  31
DOCKED: ENDBRANCH   6  30
DOCKED: BRANCH  29  36
DOCKED: ATOM     36  C   UNL d   1      11.199  18.217  11.678 -0.03 -0.01    +0.190 C 
DOCKED: BRANCH  36  37
DOCKED: ATOM     37  O   UNL d   1      11.072  19.599  11.850 +0.00 +0.02    -0.399 OA
DOCKED: ATOM     38  H   UNL d   1      10.275  19.853  11.306 +0.02 -0.01    +0.209 HD
DOCKED: ENDBRANCH  36  37
DOCKED: ENDBRANCH  29  36
DOCKED: BRANCH  22  39
DOCKED: ATOM     39  C   UNL d   1      10.452  19.566   5.879 -0.02 +0.01    +0.052 C 
DOCKED: BRANCH  39  40
DOCKED: ATOM     40  C   UNL d   1       9.763  18.846   4.708 -0.03 +0.02    +0.115 C 
DOCKED: BRANCH  40  41
DOCKED: ATOM     41  C   UNL d   1       9.747  17.337   4.825 -0.10 +0.11    +0.139 C 
DOCKED: ATOM     42  O   UNL d   1      10.647  16.687   4.313 -0.11 -0.85    -0.650 OA
DOCKED: BRANCH  41  43
DOCKED: ATOM     43  O   UNL d   1       8.811  16.691   5.556 -0.52 -0.73    -0.776 OA
DOCKED: ATOM     44  H   UNL d   1       7.984  17.109   5.827 +0.05 +0.06    +0.167 HD
DOCKED: ENDBRANCH  41  43
DOCKED: ENDBRANCH  40  41
DOCKED: ENDBRANCH  39  40
DOCKED: ENDBRANCH  22  39
DOCKED: BRANCH  12  45
DOCKED: ATOM     45  C   UNL d   1      10.050  13.655  15.418 -0.20 -0.00    +0.004 C 
DOCKED: ATOM     46  C   UNL d   1       9.820  12.346  15.479 -0.35 +0.00    +0.012 C 
DOCKED: ENDBRANCH  12  45
DOCKED: BRANCH  17  47
DOCKED: ATOM     47  C   UNL d   1      15.318  14.712   9.743 -0.09 +0.00    +0.004 C 
DOCKED: ATOM     48  C   UNL d   1      15.559  13.873   8.732 -0.11 +0.00    +0.012 C 
DOCKED: ENDBRANCH  17  47
DOCKED: TORSDOF 12
DOCKED: TER
DOCKED: ENDMDL
________________________________________________________________________________


	BEGINNING GENETIC ALGORITHM DOCKING 8 of 100
Run: 8 Seed: 1645570354 1327244487 [ Run 8 of 100 GA/GALS ]
Beginning LAMARCKIAN GENETIC ALGORITHM (LGA), with a maximum of 25000000 energy evaluations.

Final-Value: -9.549


	FINAL GENETIC ALGORITHM DOCKED STATE
	_______________________________________________


Detailed state:  trans -4.479 13.784 -12.791 quatxyzw 0.285400 -0.318488 0.841545 0.330023 center 8.781 34.984 -0.736 ntor 12 -51.1340 -129.9410 -90.0900 13.5619 -72.2873 -6.2852 161.2802 -107.6344 -51.9175 39.0916 180.0000 20.7680
State:	 -4.479  13.784 -12.791   0.302 -0.337  0.891 141.460    -51.13 -129.94  -90.09   13.56  -72.29   -6.29  161.28 -107.63  -51.92   39.09  180.00   20.77

DOCKED: MODEL        8
DOCKED: USER    Run = 8
DOCKED: USER    DPF = D:/Protein_go_brrr/autodock/final/mut_N102T/heme_Co/dock.dpf
DOCKED: USER  
DOCKED: USER    Estimated Free Energy of Binding    =   -5.36 kcal/mol  [=(1)+(2)+(3)-(4)]
DOCKED: USER    Estimated Inhibition Constant, Ki   =  118.36 uM (micromolar)  [Temperature = 298.15 K]
DOCKED: USER    
DOCKED: USER    (1) Final Intermolecular Energy     =   -8.94 kcal/mol
DOCKED: USER        vdW + Hbond + desolv Energy     =   -7.72 kcal/mol
DOCKED: USER        Electrostatic Energy            =   -1.22 kcal/mol
DOCKED: USER    (2) Final Total Internal Energy     =   -0.61 kcal/mol
DOCKED: USER    (3) Torsional Free Energy           =   +3.58 kcal/mol
DOCKED: USER    (4) Unbound System's Energy  [=(2)] =   -0.61 kcal/mol
DOCKED: USER    
DOCKED: USER    
DOCKED: USER    NEWDPF move heme_Co_opt.pdbqt
DOCKED: USER    NEWDPF about 8.781000 34.984000 -0.736000
DOCKED: USER    NEWDPF tran0 -4.478655 13.783760 -12.790593
DOCKED: USER    NEWDPF quaternion0 0.285400 -0.318488 0.841545 0.330023
DOCKED: USER    NEWDPF axisangle0 0.302340 -0.337391 0.891492 141.459678
DOCKED: USER    NEWDPF quat0 0.302340 -0.337391 0.891492 141.459678
DOCKED: USER    NEWDPF dihe0 -51.13 -129.94 -90.09 13.56 -72.29 -6.29 161.28 -107.63 -51.92 39.09 180.00 20.77 
DOCKED: USER  keepresnum = 1 
DOCKED: USER  
DOCKED: REMARK  12 active torsions:
DOCKED: REMARK  status: ('A' for Active; 'I' for Inactive)
DOCKED: REMARK    1  A    between atoms: C_6  and  C_10 
DOCKED: REMARK    2  A    between atoms: C_10  and  C_11 
DOCKED: REMARK    3  A    between atoms: C_11  and  C_12 
DOCKED: REMARK    4  A    between atoms: C_12  and  O_14 
DOCKED: REMARK    5  A    between atoms: C_17  and  C_20 
DOCKED: REMARK    6  A    between atoms: C_24  and  C_27 
DOCKED: REMARK    7  A    between atoms: C_31  and  C_34 
DOCKED: REMARK    8  A    between atoms: C_34  and  C_35 
DOCKED: REMARK    9  A    between atoms: C_35  and  C_36 
DOCKED: REMARK   10  A    between atoms: C_36  and  O_38 
DOCKED: REMARK   11  A    between atoms: FE_43  and  C_44 
DOCKED: REMARK   12  A    between atoms: C_44  and  O_45 
DOCKED: USER                              x       y       z     vdW  Elec       q    Type
DOCKED: USER                           _______ _______ _______ _____ _____    ______ ____
DOCKED: ROOT
DOCKED: ATOM      1  C   UNL d   1      -3.681  15.217 -14.214 -0.16 +0.01    +0.064 A 
DOCKED: ATOM      2  C   UNL d   1      -2.875  14.531  -9.578 -0.27 -0.00    +0.064 C 
DOCKED: ATOM      3  C   UNL d   1      -6.263  11.164  -9.449 -0.10 -0.00    +0.064 A 
DOCKED: ATOM      4  C   UNL d   1      -6.836  11.575 -14.262 -0.10 -0.00    +0.064 A 
DOCKED: ATOM      5  C   UNL d   1      -3.237  15.302 -12.949 -0.13 +0.00    +0.066 A 
DOCKED: ATOM      6  C   UNL d   1      -2.170  16.147 -12.587 -0.13 -0.00    -0.021 A 
DOCKED: ATOM      7  C   UNL d   1      -1.925  15.927 -11.245 -0.19 +0.00    -0.025 A 
DOCKED: ATOM      8  C   UNL d   1      -2.864  14.971 -10.843 -0.21 -0.00    +0.066 A 
DOCKED: ATOM      9  C   UNL d   1      -0.853  16.584 -10.363 -0.22 -0.01    +0.051 C 
DOCKED: ATOM     10  C   UNL d   1      -3.819  13.569  -9.066 -0.23 -0.00    +0.066 A 
DOCKED: ATOM     11  C   UNL d   1      -3.974  13.172  -7.720 -0.30 +0.00    -0.021 A 
DOCKED: ATOM     12  C   UNL d   1      -4.971  12.193  -7.711 -0.26 -0.00    +0.000 A 
DOCKED: ATOM     13  C   UNL d   1      -5.358  12.074  -9.046 -0.17 -0.00    +0.070 A 
DOCKED: ATOM     14  C   UNL d   1      -3.273  13.771  -6.528 -0.14 +0.00    +0.052 C 
DOCKED: ATOM     15  C   UNL d   1      -6.739  10.871 -10.786 -0.11 -0.00    +0.066 A 
DOCKED: ATOM     16  C   UNL d   1      -7.567   9.819 -11.153 -0.16 +0.00    -0.021 A 
DOCKED: ATOM     17  C   UNL d   1      -7.734   9.932 -12.541 -0.15 -0.00    +0.000 A 
DOCKED: ATOM     18  C   UNL d   1      -7.004  11.057 -12.910 -0.09 -0.01    +0.070 A 
DOCKED: ATOM     19  C   UNL d   1      -8.145   8.788 -10.209 -0.17 -0.01    +0.052 C 
DOCKED: ATOM     20  C   UNL d   1      -6.063  12.615 -14.657 -0.10 -0.00    +0.066 A 
DOCKED: ATOM     21  C   UNL d   1      -5.954  12.995 -15.992 -0.13 -0.00    -0.025 A 
DOCKED: ATOM     22  C   UNL d   1      -5.073  14.061 -16.005 -0.17 -0.00    -0.021 A 
DOCKED: ATOM     23  C   UNL d   1      -4.676  14.272 -14.668 -0.16 +0.00    +0.066 A 
DOCKED: ATOM     24  C   UNL d   1      -6.639  12.362 -17.200 -0.12 +0.00    +0.051 C 
DOCKED: ATOM     25  N   UNL d   1      -3.693  14.570 -11.876 -0.10 +0.01    -0.248 N 
DOCKED: ATOM     26  N   UNL d   1      -4.701  12.946  -9.856 -0.13 +0.01    -0.248 N 
DOCKED: ATOM     27  N   UNL d   1      -6.401  11.573 -11.845 -0.05 +0.02    -0.248 N 
DOCKED: ATOM     28  N   UNL d   1      -5.271  13.397 -13.848 -0.07 +0.01    -0.248 N 
DOCKED: ATOM     29 FE   UNL d   1      -5.128  12.983 -11.863 -0.03 -0.00    +0.000 Fe
DOCKED: ENDROOT
DOCKED: BRANCH   6  30
DOCKED: ATOM     30  C   UNL d   1      -1.376  17.059 -13.516 -0.12 +0.01    +0.052 C 
DOCKED: BRANCH  30  31
DOCKED: ATOM     31  C   UNL d   1      -0.096  16.366 -13.984 -0.14 +0.02    +0.115 C 
DOCKED: BRANCH  31  32
DOCKED: ATOM     32  C   UNL d   1       0.033  16.349 -15.492 -0.21 +0.05    +0.139 C 
DOCKED: ATOM     33  O   UNL d   1      -0.432  17.271 -16.145 -0.06 -0.30    -0.650 OA
DOCKED: BRANCH  32  34
DOCKED: ATOM     34  O   UNL d   1       0.693  15.364 -16.145 -0.63 -0.39    -0.776 OA
DOCKED: ATOM     35  H   UNL d   1       1.610  15.113 -15.965 +0.04 +0.04    +0.167 HD
DOCKED: ENDBRANCH  32  34
DOCKED: ENDBRANCH  31  32
DOCKED: ENDBRANCH  30  31
DOCKED: ENDBRANCH   6  30
DOCKED: BRANCH  29  36
DOCKED: ATOM     36  C   UNL d   1      -3.526  11.682 -12.226 -0.13 -0.05    +0.190 C 
DOCKED: BRANCH  36  37
DOCKED: ATOM     37  O   UNL d   1      -3.214  10.400 -12.692 -0.27 +0.12    -0.399 OA
DOCKED: ATOM     38  H   UNL d   1      -2.666  10.551 -13.512 -0.43 -0.13    +0.209 HD
DOCKED: ENDBRANCH  36  37
DOCKED: ENDBRANCH  29  36
DOCKED: BRANCH  22  39
DOCKED: ATOM     39  C   UNL d   1      -4.593  14.790 -17.246 -0.11 +0.02    +0.052 C 
DOCKED: BRANCH  39  40
DOCKED: ATOM     40  C   UNL d   1      -4.927  16.289 -17.159 -0.10 +0.04    +0.115 C 
DOCKED: BRANCH  40  41
DOCKED: ATOM     41  C   UNL d   1      -5.250  16.936 -18.489 -0.08 +0.07    +0.139 C 
DOCKED: ATOM     42  O   UNL d   1      -5.771  16.265 -19.370 -0.02 -0.28    -0.650 OA
DOCKED: BRANCH  41  43
DOCKED: ATOM     43  O   UNL d   1      -5.059  18.257 -18.702 +0.01 -0.52    -0.776 OA
DOCKED: ATOM     44  H   UNL d   1      -5.709  18.923 -18.443 +0.01 +0.07    +0.167 HD
DOCKED: ENDBRANCH  41  43
DOCKED: ENDBRANCH  40  41
DOCKED: ENDBRANCH  39  40
DOCKED: ENDBRANCH  22  39
DOCKED: BRANCH  12  45
DOCKED: ATOM     45  C   UNL d   1      -5.611  11.374  -6.598 -0.28 +0.00    +0.004 C 
DOCKED: ATOM     46  C   UNL d   1      -5.451  11.430  -5.279 -0.23 +0.00    +0.012 C 
DOCKED: ENDBRANCH  12  45
DOCKED: BRANCH  17  47
DOCKED: ATOM     47  C   UNL d   1      -8.469   9.043 -13.488 -0.24 -0.00    +0.004 C 
DOCKED: ATOM     48  C   UNL d   1      -7.889   8.052 -14.170 -0.38 -0.00    +0.012 C 
DOCKED: ENDBRANCH  17  47
DOCKED: TORSDOF 12
DOCKED: TER
DOCKED: ENDMDL
________________________________________________________________________________


	BEGINNING GENETIC ALGORITHM DOCKING 9 of 100
Run: 9 Seed: 1548788071 1706215372 [ Run 9 of 100 GA/GALS ]
Beginning LAMARCKIAN GENETIC ALGORITHM (LGA), with a maximum of 25000000 energy evaluations.

Final-Value: -10.496


	FINAL GENETIC ALGORITHM DOCKED STATE
	_______________________________________________


Detailed state:  trans -6.021 11.311 -12.963 quatxyzw 0.248068 0.234534 -0.343659 0.874845 center 8.781 34.984 -0.736 ntor 12 40.1986 97.2155 -142.6066 20.3349 114.8705 117.6024 35.0951 116.2680 161.3662 142.6307 -163.5952 168.5577
State:	 -6.021  11.311 -12.963   0.512  0.484 -0.709 57.947     40.20   97.22 -142.61   20.33  114.87  117.60   35.10  116.27  161.37  142.63 -163.60  168.56

DOCKED: MODEL        9
DOCKED: USER    Run = 9
DOCKED: USER    DPF = D:/Protein_go_brrr/autodock/final/mut_N102T/heme_Co/dock.dpf
DOCKED: USER  
DOCKED: USER    Estimated Free Energy of Binding    =   -2.92 kcal/mol  [=(1)+(2)+(3)-(4)]
DOCKED: USER    Estimated Inhibition Constant, Ki   =    7.25 mM (millimolar)  [Temperature = 298.15 K]
DOCKED: USER    
DOCKED: USER    (1) Final Intermolecular Energy     =   -6.50 kcal/mol
DOCKED: USER        vdW + Hbond + desolv Energy     =   -6.54 kcal/mol
DOCKED: USER        Electrostatic Energy            =   +0.04 kcal/mol
DOCKED: USER    (2) Final Total Internal Energy     =   -4.00 kcal/mol
DOCKED: USER    (3) Torsional Free Energy           =   +3.58 kcal/mol
DOCKED: USER    (4) Unbound System's Energy  [=(2)] =   -4.00 kcal/mol
DOCKED: USER    
DOCKED: USER    
DOCKED: USER    NEWDPF move heme_Co_opt.pdbqt
DOCKED: USER    NEWDPF about 8.781000 34.984000 -0.736000
DOCKED: USER    NEWDPF tran0 -6.021453 11.310917 -12.963302
DOCKED: USER    NEWDPF quaternion0 0.248068 0.234534 -0.343659 0.874845
DOCKED: USER    NEWDPF axisangle0 0.512112 0.484172 -0.709450 57.946635
DOCKED: USER    NEWDPF quat0 0.512112 0.484172 -0.709450 57.946635
DOCKED: USER    NEWDPF dihe0 40.20 97.22 -142.61 20.33 114.87 117.60 35.10 116.27 161.37 142.63 -163.60 168.56 
DOCKED: USER  keepresnum = 1 
DOCKED: USER  
DOCKED: REMARK  12 active torsions:
DOCKED: REMARK  status: ('A' for Active; 'I' for Inactive)
DOCKED: REMARK    1  A    between atoms: C_6  and  C_10 
DOCKED: REMARK    2  A    between atoms: C_10  and  C_11 
DOCKED: REMARK    3  A    between atoms: C_11  and  C_12 
DOCKED: REMARK    4  A    between atoms: C_12  and  O_14 
DOCKED: REMARK    5  A    between atoms: C_17  and  C_20 
DOCKED: REMARK    6  A    between atoms: C_24  and  C_27 
DOCKED: REMARK    7  A    between atoms: C_31  and  C_34 
DOCKED: REMARK    8  A    between atoms: C_34  and  C_35 
DOCKED: REMARK    9  A    between atoms: C_35  and  C_36 
DOCKED: REMARK   10  A    between atoms: C_36  and  O_38 
DOCKED: REMARK   11  A    between atoms: FE_43  and  C_44 
DOCKED: REMARK   12  A    between atoms: C_44  and  O_45 
DOCKED: USER                              x       y       z     vdW  Elec       q    Type
DOCKED: USER                           _______ _______ _______ _____ _____    ______ ____
DOCKED: ROOT
DOCKED: ATOM      1  C   UNL d   1      -7.035  10.010 -14.376 -0.22 -0.01    +0.064 A 
DOCKED: ATOM      2  C   UNL d   1      -7.091  10.228  -9.627 -0.15 -0.00    +0.064 C 
DOCKED: ATOM      3  C   UNL d   1      -3.729  13.622  -9.705 -0.22 -0.01    +0.064 A 
DOCKED: ATOM      4  C   UNL d   1      -3.931  13.692 -14.565 -0.15 +0.00    +0.064 A 
DOCKED: ATOM      5  C   UNL d   1      -7.271   9.795 -13.072 -0.18 -0.01    +0.066 A 
DOCKED: ATOM      6  C   UNL d   1      -8.266   8.901 -12.630 -0.12 +0.00    -0.021 A 
DOCKED: ATOM      7  C   UNL d   1      -8.294   8.985 -11.252 -0.07 +0.00    -0.025 A 
DOCKED: ATOM      8  C   UNL d   1      -7.304   9.914 -10.911 -0.15 -0.01    +0.066 A 
DOCKED: ATOM      9  C   UNL d   1      -9.211   8.228 -10.279 -0.00 -0.00    +0.051 C 
DOCKED: ATOM     10  C   UNL d   1      -6.079  11.152  -9.179 -0.11 -0.00    +0.066 A 
DOCKED: ATOM     11  C   UNL d   1      -5.712  11.418  -7.842 -0.20 +0.00    -0.021 A 
DOCKED: ATOM     12  C   UNL d   1      -4.727  12.408  -7.894 -0.27 -0.00    +0.000 A 
DOCKED: ATOM     13  C   UNL d   1      -4.557  12.663  -9.255 -0.21 -0.00    +0.070 A 
DOCKED: ATOM     14  C   UNL d   1      -6.212  10.695  -6.618 -0.23 +0.00    +0.052 C 
DOCKED: ATOM     15  C   UNL d   1      -3.473  14.052 -11.066 -0.22 -0.01    +0.066 A 
DOCKED: ATOM     16  C   UNL d   1      -2.714  15.148 -11.453 -0.21 +0.00    -0.021 A 
DOCKED: ATOM     17  C   UNL d   1      -2.772  15.174 -12.854 -0.11 +0.00    +0.000 A 
DOCKED: ATOM     18  C   UNL d   1      -3.549  14.078 -13.212 -0.10 +0.00    +0.070 A 
DOCKED: ATOM     19  C   UNL d   1      -1.994  16.092 -10.516 -0.22 -0.00    +0.052 C 
DOCKED: ATOM     20  C   UNL d   1      -4.756  12.682 -14.932 -0.22 -0.00    +0.066 A 
DOCKED: ATOM     21  C   UNL d   1      -5.077  12.432 -16.265 -0.26 +0.00    -0.025 A 
DOCKED: ATOM     22  C   UNL d   1      -5.947  11.357 -16.243 -0.24 +0.00    -0.021 A 
DOCKED: ATOM     23  C   UNL d   1      -6.125  11.010 -14.887 -0.21 -0.01    +0.066 A 
DOCKED: ATOM     24  C   UNL d   1      -4.594  13.191 -17.498 -0.25 +0.01    +0.051 C 
DOCKED: ATOM     25  N   UNL d   1      -6.650  10.427 -12.018 -0.09 +0.03    -0.248 N 
DOCKED: ATOM     26  N   UNL d   1      -5.335  11.863 -10.033 -0.09 +0.01    -0.248 N 
DOCKED: ATOM     27  N   UNL d   1      -3.975  13.451 -12.121 -0.15 +0.02    -0.248 N 
DOCKED: ATOM     28  N   UNL d   1      -5.408  11.811 -14.090 -0.12 +0.03    -0.248 N 
DOCKED: ATOM     29 FE   UNL d   1      -5.233  12.028 -12.076 -0.04 -0.00    +0.000 Fe
DOCKED: ENDROOT
DOCKED: BRANCH   6  30
DOCKED: ATOM     30  C   UNL d   1      -9.198   8.071 -13.507 -0.23 -0.01    +0.052 C 
DOCKED: BRANCH  30  31
DOCKED: ATOM     31  C   UNL d   1     -10.350   8.929 -14.029 -0.11 -0.00    +0.115 C 
DOCKED: BRANCH  31  32
DOCKED: ATOM     32  C   UNL d   1     -10.568  10.173 -13.195 -0.03 -0.00    +0.139 C 
DOCKED: ATOM     33  O   UNL d   1     -11.394  10.156 -12.294 +0.01 +0.01    -0.650 OA
DOCKED: BRANCH  32  34
DOCKED: ATOM     34  O   UNL d   1      -9.839  11.298 -13.381 +0.03 +0.02    -0.776 OA
DOCKED: ATOM     35  H   UNL d   1      -9.536  11.613 -14.243 +0.02 -0.00    +0.167 HD
DOCKED: ENDBRANCH  32  34
DOCKED: ENDBRANCH  31  32
DOCKED: ENDBRANCH  30  31
DOCKED: ENDBRANCH   6  30
DOCKED: BRANCH  29  36
DOCKED: ATOM     36  C   UNL d   1      -6.874  13.332 -12.050 -0.02 -0.00    +0.190 C 
DOCKED: BRANCH  36  37
DOCKED: ATOM     37  O   UNL d   1      -8.179  13.491 -12.529 +0.00 +0.00    -0.399 OA
DOCKED: ATOM     38  H   UNL d   1      -8.262  12.828 -13.270 +0.02 -0.00    +0.209 HD
DOCKED: ENDBRANCH  36  37
DOCKED: ENDBRANCH  29  36
DOCKED: BRANCH  22  39
DOCKED: ATOM     39  C   UNL d   1      -6.618  10.744 -17.458 -0.24 +0.00    +0.052 C 
DOCKED: BRANCH  39  40
DOCKED: ATOM     40  C   UNL d   1      -7.966  11.430 -17.737 -0.10 +0.01    +0.115 C 
DOCKED: BRANCH  40  41
DOCKED: ATOM     41  C   UNL d   1      -8.803  11.689 -16.501 -0.06 +0.00    +0.139 C 
DOCKED: ATOM     42  O   UNL d   1      -9.783  10.990 -16.285 +0.00 -0.02    -0.650 OA
DOCKED: BRANCH  41  43
DOCKED: ATOM     43  O   UNL d   1      -8.447  12.616 -15.584 +0.04 -0.01    -0.776 OA
DOCKED: ATOM     44  H   UNL d   1      -8.494  12.450 -14.634 +0.02 -0.00    +0.167 HD
DOCKED: ENDBRANCH  41  43
DOCKED: ENDBRANCH  40  41
DOCKED: ENDBRANCH  39  40
DOCKED: ENDBRANCH  22  39
DOCKED: BRANCH  12  45
DOCKED: ATOM     45  C   UNL d   1      -3.918  13.126  -6.822 -0.34 +0.00    +0.004 C 
DOCKED: ATOM     46  C   UNL d   1      -3.774  12.864  -5.525 -0.33 +0.00    +0.012 C 
DOCKED: ENDBRANCH  12  45
DOCKED: BRANCH  17  47
DOCKED: ATOM     47  C   UNL d   1      -2.198  16.163 -13.814 -0.18 +0.00    +0.004 C 
DOCKED: ATOM     48  C   UNL d   1      -1.000  16.023 -14.389 -0.20 +0.00    +0.012 C 
DOCKED: ENDBRANCH  17  47
DOCKED: TORSDOF 12
DOCKED: TER
DOCKED: ENDMDL
________________________________________________________________________________


	BEGINNING GENETIC ALGORITHM DOCKING 10 of 100
Run: 10 Seed: 167873945 2003041279 [ Run 10 of 100 GA/GALS ]
Beginning LAMARCKIAN GENETIC ALGORITHM (LGA), with a maximum of 25000000 energy evaluations.

Final-Value: -10.343


	FINAL GENETIC ALGORITHM DOCKED STATE
	_______________________________________________


Detailed state:  trans -5.654 6.463 17.162 quatxyzw -0.035971 0.412591 0.778617 -0.471413 center 8.781 34.984 -0.736 ntor 12 146.1178 108.8359 -70.1988 118.2264 134.9772 110.0295 -118.0457 -35.8838 -128.2451 -144.8068 -178.4934 152.1655
State:	 -5.654   6.463  17.162  -0.041  0.468  0.883 -123.748    146.12  108.84  -70.20  118.23  134.98  110.03 -118.05  -35.88 -128.25 -144.81 -178.49  152.17

DOCKED: MODEL       10
DOCKED: USER    Run = 10
DOCKED: USER    DPF = D:/Protein_go_brrr/autodock/final/mut_N102T/heme_Co/dock.dpf
DOCKED: USER  
DOCKED: USER    Estimated Free Energy of Binding    =   -2.61 kcal/mol  [=(1)+(2)+(3)-(4)]
DOCKED: USER    Estimated Inhibition Constant, Ki   =   12.27 mM (millimolar)  [Temperature = 298.15 K]
DOCKED: USER    
DOCKED: USER    (1) Final Intermolecular Energy     =   -6.19 kcal/mol
DOCKED: USER        vdW + Hbond + desolv Energy     =   -6.32 kcal/mol
DOCKED: USER        Electrostatic Energy            =   +0.13 kcal/mol
DOCKED: USER    (2) Final Total Internal Energy     =   -4.16 kcal/mol
DOCKED: USER    (3) Torsional Free Energy           =   +3.58 kcal/mol
DOCKED: USER    (4) Unbound System's Energy  [=(2)] =   -4.16 kcal/mol
DOCKED: USER    
DOCKED: USER    
DOCKED: USER    NEWDPF move heme_Co_opt.pdbqt
DOCKED: USER    NEWDPF about 8.781000 34.984000 -0.736000
DOCKED: USER    NEWDPF tran0 -5.653940 6.462663 17.162010
DOCKED: USER    NEWDPF quaternion0 -0.035971 0.412591 0.778617 -0.471413
DOCKED: USER    NEWDPF axisangle0 -0.040788 0.467836 0.882873 -123.747946
DOCKED: USER    NEWDPF quat0 -0.040788 0.467836 0.882873 -123.747946
DOCKED: USER    NEWDPF dihe0 146.12 108.84 -70.20 118.23 134.98 110.03 -118.05 -35.88 -128.25 -144.81 -178.49 152.17 
DOCKED: USER  keepresnum = 1 
DOCKED: USER  
DOCKED: REMARK  12 active torsions:
DOCKED: REMARK  status: ('A' for Active; 'I' for Inactive)
DOCKED: REMARK    1  A    between atoms: C_6  and  C_10 
DOCKED: REMARK    2  A    between atoms: C_10  and  C_11 
DOCKED: REMARK    3  A    between atoms: C_11  and  C_12 
DOCKED: REMARK    4  A    between atoms: C_12  and  O_14 
DOCKED: REMARK    5  A    between atoms: C_17  and  C_20 
DOCKED: REMARK    6  A    between atoms: C_24  and  C_27 
DOCKED: REMARK    7  A    between atoms: C_31  and  C_34 
DOCKED: REMARK    8  A    between atoms: C_34  and  C_35 
DOCKED: REMARK    9  A    between atoms: C_35  and  C_36 
DOCKED: REMARK   10  A    between atoms: C_36  and  O_38 
DOCKED: REMARK   11  A    between atoms: FE_43  and  C_44 
DOCKED: REMARK   12  A    between atoms: C_44  and  O_45 
DOCKED: USER                              x       y       z     vdW  Elec       q    Type
DOCKED: USER                           _______ _______ _______ _____ _____    ______ ____
DOCKED: ROOT
DOCKED: ATOM      1  C   UNL d   1      -5.248   4.417  17.768 -0.25 +0.00    +0.064 A 
DOCKED: ATOM      2  C   UNL d   1      -2.669   8.403  18.043 -0.19 -0.02    +0.064 C 
DOCKED: ATOM      3  C   UNL d   1      -6.034  10.791  15.635 -0.13 -0.01    +0.064 A 
DOCKED: ATOM      4  C   UNL d   1      -8.858   6.830  15.678 -0.20 +0.00    +0.064 A 
DOCKED: ATOM      5  C   UNL d   1      -4.280   5.322  17.989 -0.25 -0.01    +0.066 A 
DOCKED: ATOM      6  C   UNL d   1      -3.131   5.018  18.744 -0.25 +0.00    -0.021 A 
DOCKED: ATOM      7  C   UNL d   1      -2.397   6.184  18.839 -0.22 +0.01    -0.025 A 
DOCKED: ATOM      8  C   UNL d   1      -3.121   7.145  18.126 -0.19 -0.01    +0.066 A 
DOCKED: ATOM      9  C   UNL d   1      -1.064   6.401  19.572 -0.20 -0.02    +0.051 C 
DOCKED: ATOM     10  C   UNL d   1      -3.332   9.452  17.309 -0.11 -0.02    +0.066 A 
DOCKED: ATOM     11  C   UNL d   1      -2.839  10.753  17.067 -0.18 +0.01    -0.021 A 
DOCKED: ATOM     12  C   UNL d   1      -3.839  11.426  16.360 -0.26 -0.00    +0.000 A 
DOCKED: ATOM     13  C   UNL d   1      -4.859  10.486  16.212 -0.20 -0.01    +0.070 A 
DOCKED: ATOM     14  C   UNL d   1      -1.465  11.266  17.414 -0.26 -0.02    +0.052 C 
DOCKED: ATOM     15  C   UNL d   1      -7.209   9.963  15.447 -0.04 -0.00    +0.066 A 
DOCKED: ATOM     16  C   UNL d   1      -8.444  10.382  14.973 -0.10 +0.00    -0.021 A 
DOCKED: ATOM     17  C   UNL d   1      -9.263   9.244  14.986 -0.16 +0.00    +0.000 A 
DOCKED: ATOM     18  C   UNL d   1      -8.454   8.213  15.452 -0.21 +0.00    +0.070 A 
DOCKED: ATOM     19  C   UNL d   1      -8.787  11.792  14.545 -0.10 -0.00    +0.052 C 
DOCKED: ATOM     20  C   UNL d   1      -8.115   5.831  16.212 -0.11 +0.01    +0.066 A 
DOCKED: ATOM     21  C   UNL d   1      -8.626   4.551  16.413 -0.04 -0.00    -0.025 A 
DOCKED: ATOM     22  C   UNL d   1      -7.598   3.825  16.987 -0.26 -0.00    -0.021 A 
DOCKED: ATOM     23  C   UNL d   1      -6.507   4.710  17.121 -0.26 +0.00    +0.066 A 
DOCKED: ATOM     24  C   UNL d   1     -10.031   4.048  16.092 -0.14 +0.01    +0.051 C 
DOCKED: ATOM     25  N   UNL d   1      -4.289   6.637  17.583 -0.16 +0.04    -0.248 N 
DOCKED: ATOM     26  N   UNL d   1      -4.528   9.276  16.737 -0.15 +0.06    -0.248 N 
DOCKED: ATOM     27  N   UNL d   1      -7.247   8.684  15.745 -0.13 +0.00    -0.248 N 
DOCKED: ATOM     28  N   UNL d   1      -6.816   5.925  16.654 -0.16 -0.00    -0.248 N 
DOCKED: ATOM     29 FE   UNL d   1      -5.858   7.718  16.609 -0.05 -0.00    +0.000 Fe
DOCKED: ENDROOT
DOCKED: BRANCH   6  30
DOCKED: ATOM     30  C   UNL d   1      -2.805   3.684  19.407 -0.15 -0.03    +0.052 C 
DOCKED: BRANCH  30  31
DOCKED: ATOM     31  C   UNL d   1      -3.268   3.681  20.864 -0.14 -0.07    +0.115 C 
DOCKED: BRANCH  31  32
DOCKED: ATOM     32  C   UNL d   1      -4.703   4.139  21.014 -0.05 -0.03    +0.139 C 
DOCKED: ATOM     33  O   UNL d   1      -5.554   3.340  21.376 +0.03 +0.11    -0.650 OA
DOCKED: BRANCH  32  34
DOCKED: ATOM     34  O   UNL d   1      -5.071   5.425  20.807 +0.05 +0.12    -0.776 OA
DOCKED: ATOM     35  H   UNL d   1      -5.898   5.692  20.382 +0.02 -0.02    +0.167 HD
DOCKED: ENDBRANCH  32  34
DOCKED: ENDBRANCH  31  32
DOCKED: ENDBRANCH  30  31
DOCKED: ENDBRANCH   6  30
DOCKED: BRANCH  29  36
DOCKED: ATOM     36  C   UNL d   1      -6.577   8.177  18.524 -0.03 -0.02    +0.190 C 
DOCKED: BRANCH  36  37
DOCKED: ATOM     37  O   UNL d   1      -6.842   7.618  19.778 +0.00 +0.03    -0.399 OA
DOCKED: ATOM     38  H   UNL d   1      -6.652   6.644  19.670 +0.03 -0.02    +0.209 HD
DOCKED: ENDBRANCH  36  37
DOCKED: ENDBRANCH  29  36
DOCKED: BRANCH  22  39
DOCKED: ATOM     39  C   UNL d   1      -7.688   2.381  17.442 -0.25 +0.02    +0.052 C 
DOCKED: BRANCH  39  40
DOCKED: ATOM     40  C   UNL d   1      -7.741   2.296  18.976 -0.11 +0.02    +0.115 C 
DOCKED: BRANCH  40  41
DOCKED: ATOM     41  C   UNL d   1      -8.382   3.493  19.646 -0.03 +0.01    +0.139 C 
DOCKED: ATOM     42  O   UNL d   1      -9.531   3.406  20.055 +0.02 -0.02    -0.650 OA
DOCKED: BRANCH  41  43
DOCKED: ATOM     43  O   UNL d   1      -7.690   4.630  19.883 +0.04 +0.01    -0.776 OA
DOCKED: ATOM     44  H   UNL d   1      -6.931   4.661  20.479 +0.02 -0.01    +0.167 HD
DOCKED: ENDBRANCH  41  43
DOCKED: ENDBRANCH  40  41
DOCKED: ENDBRANCH  39  40
DOCKED: ENDBRANCH  22  39
DOCKED: BRANCH  12  45
DOCKED: ATOM     45  C   UNL d   1      -3.940  12.836  15.793 -0.28 -0.00    +0.004 C 
DOCKED: ATOM     46  C   UNL d   1      -3.933  13.266  14.534 -0.31 -0.00    +0.012 C 
DOCKED: ENDBRANCH  12  45
DOCKED: BRANCH  17  47
DOCKED: ATOM     47  C   UNL d   1     -10.710   9.106  14.644 -0.10 -0.00    +0.004 C 
DOCKED: ATOM     48  C   UNL d   1     -11.156   8.413  13.594 -0.13 +0.00    +0.012 C 
DOCKED: ENDBRANCH  17  47
DOCKED: TORSDOF 12
DOCKED: TER
DOCKED: ENDMDL
________________________________________________________________________________


	BEGINNING GENETIC ALGORITHM DOCKING 11 of 100
Run: 11 Seed: 1185168731 991775936 [ Run 11 of 100 GA/GALS ]
Beginning LAMARCKIAN GENETIC ALGORITHM (LGA), with a maximum of 25000000 energy evaluations.

Final-Value: -11.179


	FINAL GENETIC ALGORITHM DOCKED STATE
	_______________________________________________


Detailed state:  trans 14.469 2.701 8.700 quatxyzw 0.699800 0.471576 0.453362 -0.286981 center 8.781 34.984 -0.736 ntor 12 -159.0444 107.3492 24.8416 116.0144 -91.9349 120.4031 28.9723 14.7417 -70.8917 -48.9950 -169.2915 10.7725
State:	 14.469   2.701   8.700   0.731  0.492  0.473 -146.645   -159.04  107.35   24.84  116.01  -91.93  120.40   28.97   14.74  -70.89  -49.00 -169.29   10.77

DOCKED: MODEL       11
DOCKED: USER    Run = 11
DOCKED: USER    DPF = D:/Protein_go_brrr/autodock/final/mut_N102T/heme_Co/dock.dpf
DOCKED: USER  
DOCKED: USER    Estimated Free Energy of Binding    =   -5.50 kcal/mol  [=(1)+(2)+(3)-(4)]
DOCKED: USER    Estimated Inhibition Constant, Ki   =   92.39 uM (micromolar)  [Temperature = 298.15 K]
DOCKED: USER    
DOCKED: USER    (1) Final Intermolecular Energy     =   -9.08 kcal/mol
DOCKED: USER        vdW + Hbond + desolv Energy     =   -6.25 kcal/mol
DOCKED: USER        Electrostatic Energy            =   -2.83 kcal/mol
DOCKED: USER    (2) Final Total Internal Energy     =   -2.10 kcal/mol
DOCKED: USER    (3) Torsional Free Energy           =   +3.58 kcal/mol
DOCKED: USER    (4) Unbound System's Energy  [=(2)] =   -2.10 kcal/mol
DOCKED: USER    
DOCKED: USER    
DOCKED: USER    NEWDPF move heme_Co_opt.pdbqt
DOCKED: USER    NEWDPF about 8.781000 34.984000 -0.736000
DOCKED: USER    NEWDPF tran0 14.468615 2.701304 8.699545
DOCKED: USER    NEWDPF quaternion0 0.699800 0.471576 0.453362 -0.286981
DOCKED: USER    NEWDPF axisangle0 0.730529 0.492284 0.473270 -146.645379
DOCKED: USER    NEWDPF quat0 0.730529 0.492284 0.473270 -146.645379
DOCKED: USER    NEWDPF dihe0 -159.04 107.35 24.84 116.01 -91.93 120.40 28.97 14.74 -70.89 -49.00 -169.29 10.77 
DOCKED: USER  keepresnum = 1 
DOCKED: USER  
DOCKED: REMARK  12 active torsions:
DOCKED: REMARK  status: ('A' for Active; 'I' for Inactive)
DOCKED: REMARK    1  A    between atoms: C_6  and  C_10 
DOCKED: REMARK    2  A    between atoms: C_10  and  C_11 
DOCKED: REMARK    3  A    between atoms: C_11  and  C_12 
DOCKED: REMARK    4  A    between atoms: C_12  and  O_14 
DOCKED: REMARK    5  A    between atoms: C_17  and  C_20 
DOCKED: REMARK    6  A    between atoms: C_24  and  C_27 
DOCKED: REMARK    7  A    between atoms: C_31  and  C_34 
DOCKED: REMARK    8  A    between atoms: C_34  and  C_35 
DOCKED: REMARK    9  A    between atoms: C_35  and  C_36 
DOCKED: REMARK   10  A    between atoms: C_36  and  O_38 
DOCKED: REMARK   11  A    between atoms: FE_43  and  C_44 
DOCKED: REMARK   12  A    between atoms: C_44  and  O_45 
DOCKED: USER                              x       y       z     vdW  Elec       q    Type
DOCKED: USER                           _______ _______ _______ _____ _____    ______ ____
DOCKED: ROOT
DOCKED: ATOM      1  C   UNL d   1      13.620   0.704   8.770 -0.18 +0.02    +0.064 A 
DOCKED: ATOM      2  C   UNL d   1      16.119   2.998   5.438 -0.18 +0.02    +0.064 C 
DOCKED: ATOM      3  C   UNL d   1      16.036   6.986   8.068 -0.15 +0.01    +0.064 A 
DOCKED: ATOM      4  C   UNL d   1      13.819   4.559  11.654 -0.23 +0.02    +0.064 A 
DOCKED: ATOM      5  C   UNL d   1      14.277   1.048   7.650 -0.19 +0.02    +0.066 A 
DOCKED: ATOM      6  C   UNL d   1      14.574   0.112   6.640 -0.20 -0.01    -0.021 A 
DOCKED: ATOM      7  C   UNL d   1      15.319   0.777   5.687 -0.18 -0.01    -0.025 A 
DOCKED: ATOM      8  C   UNL d   1      15.431   2.094   6.147 -0.17 +0.01    +0.066 A 
DOCKED: ATOM      9  C   UNL d   1      15.911   0.210   4.388 -0.15 +0.01    +0.051 C 
DOCKED: ATOM     10  C   UNL d   1      16.265   4.381   5.818 -0.12 +0.01    +0.066 A 
DOCKED: ATOM     11  C   UNL d   1      16.854   5.409   5.050 -0.11 -0.00    -0.021 A 
DOCKED: ATOM     12  C   UNL d   1      16.813   6.562   5.840 -0.09 +0.00    +0.000 A 
DOCKED: ATOM     13  C   UNL d   1      16.193   6.156   7.022 -0.07 +0.01    +0.070 A 
DOCKED: ATOM     14  C   UNL d   1      17.329   5.298   3.625 -0.14 +0.03    +0.052 C 
DOCKED: ATOM     15  C   UNL d   1      15.469   6.721   9.376 -0.19 +0.01    +0.066 A 
DOCKED: ATOM     16  C   UNL d   1      15.469   7.583  10.463 -0.23 -0.00    -0.021 A 
DOCKED: ATOM     17  C   UNL d   1      14.833   6.886  11.501 -0.29 +0.00    +0.000 A 
DOCKED: ATOM     18  C   UNL d   1      14.479   5.656  10.957 -0.26 +0.02    +0.070 A 
DOCKED: ATOM     19  C   UNL d   1      16.051   8.979  10.475 -0.05 +0.01    +0.052 C 
DOCKED: ATOM     20  C   UNL d   1      13.543   3.324  11.172 -0.20 +0.02    +0.066 A 
DOCKED: ATOM     21  C   UNL d   1      12.937   2.340  11.951 -0.17 -0.01    -0.025 A 
DOCKED: ATOM     22  C   UNL d   1      12.840   1.227  11.137 -0.13 -0.01    -0.021 A 
DOCKED: ATOM     23  C   UNL d   1      13.407   1.585   9.895 -0.16 +0.02    +0.066 A 
DOCKED: ATOM     24  C   UNL d   1      12.490   2.449  13.407 -0.22 +0.02    +0.051 C 
DOCKED: ATOM     25  N   UNL d   1      14.790   2.291   7.358 -0.06 -0.05    -0.248 N 
DOCKED: ATOM     26  N   UNL d   1      15.812   4.851   6.985 +0.04 -0.05    -0.248 N 
DOCKED: ATOM     27  N   UNL d   1      14.900   5.581   9.699 +0.04 -0.04    -0.248 N 
DOCKED: ATOM     28  N   UNL d   1      13.835   2.853   9.913 -0.09 -0.06    -0.248 N 
DOCKED: ATOM     29 FE   UNL d   1      14.846   4.032   8.601 -0.03 +0.00    +0.000 Fe
DOCKED: ENDROOT
DOCKED: BRANCH   6  30
DOCKED: ATOM     30  C   UNL d   1      14.223  -1.372   6.644 -0.04 +0.03    +0.052 C 
DOCKED: BRANCH  30  31
DOCKED: ATOM     31  C   UNL d   1      15.286  -2.174   7.394 -0.10 +0.05    +0.115 C 
DOCKED: BRANCH  31  32
DOCKED: ATOM     32  C   UNL d   1      14.797  -2.662   8.741 -0.08 +0.10    +0.139 C 
DOCKED: ATOM     33  O   UNL d   1      15.125  -2.062   9.753 +0.01 -0.29    -0.650 OA
DOCKED: BRANCH  32  34
DOCKED: ATOM     34  O   UNL d   1      13.963  -3.721   8.861 -0.38 -1.27    -0.776 OA
DOCKED: ATOM     35  H   UNL d   1      13.449  -3.921   9.656 +0.01 +0.32    +0.167 HD
DOCKED: ENDBRANCH  32  34
DOCKED: ENDBRANCH  31  32
DOCKED: ENDBRANCH  30  31
DOCKED: ENDBRANCH   6  30
DOCKED: BRANCH  29  36
DOCKED: ATOM     36  C   UNL d   1      16.676   3.315   9.329 -0.04 +0.03    +0.190 C 
DOCKED: BRANCH  36  37
DOCKED: ATOM     37  O   UNL d   1      17.368   2.140   9.641 -0.00 -0.05    -0.399 OA
DOCKED: ATOM     38  H   UNL d   1      16.699   1.409   9.521 +0.01 +0.03    +0.209 HD
DOCKED: ENDBRANCH  36  37
DOCKED: ENDBRANCH  29  36
DOCKED: BRANCH  22  39
DOCKED: ATOM     39  C   UNL d   1      12.292  -0.125  11.556 -0.11 +0.02    +0.052 C 
DOCKED: BRANCH  39  40
DOCKED: ATOM     40  C   UNL d   1      10.970  -0.423  10.829 -0.19 +0.06    +0.115 C 
DOCKED: BRANCH  40  41
DOCKED: ATOM     41  C   UNL d   1      10.954  -1.737  10.077 -0.18 +0.15    +0.139 C 
DOCKED: ATOM     42  O   UNL d   1       9.888  -2.311   9.898 -0.44 -0.83    -0.650 OA
DOCKED: BRANCH  41  43
DOCKED: ATOM     43  O   UNL d   1      12.073  -2.251   9.521 -0.05 -1.38    -0.776 OA
DOCKED: ATOM     44  H   UNL d   1      12.952  -2.109   9.896 +0.02 +0.19    +0.167 HD
DOCKED: ENDBRANCH  41  43
DOCKED: ENDBRANCH  40  41
DOCKED: ENDBRANCH  39  40
DOCKED: ENDBRANCH  22  39
DOCKED: BRANCH  12  45
DOCKED: ATOM     45  C   UNL d   1      17.268   7.996   5.607 -0.06 +0.00    +0.004 C 
DOCKED: ATOM     46  C   UNL d   1      16.564   9.104   5.391 -0.07 +0.00    +0.012 C 
DOCKED: ENDBRANCH  12  45
DOCKED: BRANCH  17  47
DOCKED: ATOM     47  C   UNL d   1      14.603   7.291  12.920 -0.27 +0.00    +0.004 C 
DOCKED: ATOM     48  C   UNL d   1      15.178   6.685  13.961 -0.17 +0.00    +0.012 C 
DOCKED: ENDBRANCH  17  47
DOCKED: TORSDOF 12
DOCKED: TER
DOCKED: ENDMDL
________________________________________________________________________________


	BEGINNING GENETIC ALGORITHM DOCKING 12 of 100
Run: 12 Seed: 1178744700 1919239058 [ Run 12 of 100 GA/GALS ]
Beginning LAMARCKIAN GENETIC ALGORITHM (LGA), with a maximum of 25000000 energy evaluations.

Final-Value: -9.678


	FINAL GENETIC ALGORITHM DOCKED STATE
	_______________________________________________


Detailed state:  trans -4.728 14.104 -15.008 quatxyzw -0.212294 0.620908 -0.105853 0.747128 center 8.781 34.984 -0.736 ntor 12 -169.8023 116.0766 32.9575 -97.1133 157.4412 136.5724 34.6467 -180.0000 179.9993 23.8228 -171.0020 131.7989
State:	 -4.728  14.104 -15.008  -0.319  0.934 -0.159 83.316   -169.80  116.08   32.96  -97.11  157.44  136.57   34.65 -180.00  180.00   23.82 -171.00  131.80

DOCKED: MODEL       12
DOCKED: USER    Run = 12
DOCKED: USER    DPF = D:/Protein_go_brrr/autodock/final/mut_N102T/heme_Co/dock.dpf
DOCKED: USER  
DOCKED: USER    Estimated Free Energy of Binding    =   -3.89 kcal/mol  [=(1)+(2)+(3)-(4)]
DOCKED: USER    Estimated Inhibition Constant, Ki   =    1.40 mM (millimolar)  [Temperature = 298.15 K]
DOCKED: USER    
DOCKED: USER    (1) Final Intermolecular Energy     =   -7.47 kcal/mol
DOCKED: USER        vdW + Hbond + desolv Energy     =   -6.41 kcal/mol
DOCKED: USER        Electrostatic Energy            =   -1.06 kcal/mol
DOCKED: USER    (2) Final Total Internal Energy     =   -2.20 kcal/mol
DOCKED: USER    (3) Torsional Free Energy           =   +3.58 kcal/mol
DOCKED: USER    (4) Unbound System's Energy  [=(2)] =   -2.20 kcal/mol
DOCKED: USER    
DOCKED: USER    
DOCKED: USER    NEWDPF move heme_Co_opt.pdbqt
DOCKED: USER    NEWDPF about 8.781000 34.984000 -0.736000
DOCKED: USER    NEWDPF tran0 -4.728353 14.104375 -15.008122
DOCKED: USER    NEWDPF quaternion0 -0.212294 0.620908 -0.105853 0.747128
DOCKED: USER    NEWDPF axisangle0 -0.319393 0.934145 -0.159253 83.315646
DOCKED: USER    NEWDPF quat0 -0.319393 0.934145 -0.159253 83.315646
DOCKED: USER    NEWDPF dihe0 -169.80 116.08 32.96 -97.11 157.44 136.57 34.65 -180.00 180.00 23.82 -171.00 131.80 
DOCKED: USER  keepresnum = 1 
DOCKED: USER  
DOCKED: REMARK  12 active torsions:
DOCKED: REMARK  status: ('A' for Active; 'I' for Inactive)
DOCKED: REMARK    1  A    between atoms: C_6  and  C_10 
DOCKED: REMARK    2  A    between atoms: C_10  and  C_11 
DOCKED: REMARK    3  A    between atoms: C_11  and  C_12 
DOCKED: REMARK    4  A    between atoms: C_12  and  O_14 
DOCKED: REMARK    5  A    between atoms: C_17  and  C_20 
DOCKED: REMARK    6  A    between atoms: C_24  and  C_27 
DOCKED: REMARK    7  A    between atoms: C_31  and  C_34 
DOCKED: REMARK    8  A    between atoms: C_34  and  C_35 
DOCKED: REMARK    9  A    between atoms: C_35  and  C_36 
DOCKED: REMARK   10  A    between atoms: C_36  and  O_38 
DOCKED: REMARK   11  A    between atoms: FE_43  and  C_44 
DOCKED: REMARK   12  A    between atoms: C_44  and  O_45 
DOCKED: USER                              x       y       z     vdW  Elec       q    Type
DOCKED: USER                           _______ _______ _______ _____ _____    ______ ____
DOCKED: ROOT
DOCKED: ATOM      1  C   UNL d   1      -4.588  15.133 -16.916 -0.13 +0.02    +0.064 A 
DOCKED: ATOM      2  C   UNL d   1      -6.503  10.963 -15.667 -0.23 -0.00    +0.064 C 
DOCKED: ATOM      3  C   UNL d   1      -4.840  11.489 -11.219 -0.13 -0.01    +0.064 A 
DOCKED: ATOM      4  C   UNL d   1      -3.208  15.925 -12.367 -0.09 +0.00    +0.064 A 
DOCKED: ATOM      5  C   UNL d   1      -5.202  13.938 -16.911 -0.16 +0.01    +0.066 A 
DOCKED: ATOM      6  C   UNL d   1      -5.893  13.448 -18.036 -0.13 -0.00    -0.021 A 
DOCKED: ATOM      7  C   UNL d   1      -6.466  12.249 -17.661 -0.12 -0.00    -0.025 A 
DOCKED: ATOM      8  C   UNL d   1      -6.087  12.050 -16.329 -0.15 +0.00    +0.066 A 
DOCKED: ATOM      9  C   UNL d   1      -7.339  11.314 -18.513 -0.13 +0.00    +0.051 C 
DOCKED: ATOM     10  C   UNL d   1      -6.144  10.662 -14.304 -0.22 -0.01    +0.066 A 
DOCKED: ATOM     11  C   UNL d   1      -6.431   9.473 -13.598 -0.31 +0.01    -0.021 A 
DOCKED: ATOM     12  C   UNL d   1      -5.931   9.652 -12.306 -0.33 -0.00    +0.000 A 
DOCKED: ATOM     13  C   UNL d   1      -5.367  10.927 -12.321 -0.24 -0.01    +0.070 A 
DOCKED: ATOM     14  C   UNL d   1      -7.056   8.226 -14.169 -0.45 -0.01    +0.052 C 
DOCKED: ATOM     15  C   UNL d   1      -4.265  12.808 -11.043 -0.21 -0.01    +0.066 A 
DOCKED: ATOM     16  C   UNL d   1      -3.870  13.381  -9.843 -0.25 +0.00    -0.021 A 
DOCKED: ATOM     17  C   UNL d   1      -3.401  14.662 -10.169 -0.23 -0.00    +0.000 A 
DOCKED: ATOM     18  C   UNL d   1      -3.531  14.763 -11.550 -0.15 -0.00    +0.070 A 
DOCKED: ATOM     19  C   UNL d   1      -3.952  12.718  -8.486 -0.31 -0.00    +0.052 C 
DOCKED: ATOM     20  C   UNL d   1      -3.406  16.078 -13.698 -0.10 +0.01    +0.066 A 
DOCKED: ATOM     21  C   UNL d   1      -3.087  17.258 -14.367 -0.08 -0.00    -0.025 A 
DOCKED: ATOM     22  C   UNL d   1      -3.447  17.048 -15.686 -0.13 -0.01    -0.021 A 
DOCKED: ATOM     23  C   UNL d   1      -3.984  15.745 -15.754 -0.16 +0.02    +0.066 A 
DOCKED: ATOM     24  C   UNL d   1      -2.486  18.530 -13.776 -0.03 +0.01    +0.051 C 
DOCKED: ATOM     25  N   UNL d   1      -5.299  13.079 -15.840 -0.11 -0.01    -0.248 N 
DOCKED: ATOM     26  N   UNL d   1      -5.446  11.514 -13.545 -0.12 +0.03    -0.248 N 
DOCKED: ATOM     27  N   UNL d   1      -4.077  13.652 -12.033 -0.13 +0.02    -0.248 N 
DOCKED: ATOM     28  N   UNL d   1      -3.963  15.155 -14.553 -0.11 -0.03    -0.248 N 
DOCKED: ATOM     29 FE   UNL d   1      -4.650  13.386 -13.825 -0.04 -0.00    +0.000 Fe
DOCKED: ENDROOT
DOCKED: BRANCH   6  30
DOCKED: ATOM     30  C   UNL d   1      -6.055  14.150 -19.380 -0.10 +0.01    +0.052 C 
DOCKED: BRANCH  30  31
DOCKED: ATOM     31  C   UNL d   1      -7.269  15.079 -19.358 -0.03 +0.02    +0.115 C 
DOCKED: BRANCH  31  32
DOCKED: ATOM     32  C   UNL d   1      -8.011  15.027 -18.040 -0.02 +0.01    +0.139 C 
DOCKED: ATOM     33  O   UNL d   1      -8.974  14.283 -17.922 +0.01 -0.04    -0.650 OA
DOCKED: BRANCH  32  34
DOCKED: ATOM     34  O   UNL d   1      -7.615  15.745 -16.964 +0.02 -0.09    -0.776 OA
DOCKED: ATOM     35  H   UNL d   1      -8.013  15.673 -16.085 +0.01 +0.01    +0.167 HD
DOCKED: ENDBRANCH  32  34
DOCKED: ENDBRANCH  31  32
DOCKED: ENDBRANCH  30  31
DOCKED: ENDBRANCH   6  30
DOCKED: BRANCH  29  36
DOCKED: ATOM     36  C   UNL d   1      -6.532  14.237 -13.468 -0.02 +0.00    +0.190 C 
DOCKED: BRANCH  36  37
DOCKED: ATOM     37  O   UNL d   1      -7.643  14.794 -14.109 +0.00 -0.01    -0.399 OA
DOCKED: ATOM     38  H   UNL d   1      -7.445  14.711 -15.084 +0.02 +0.01    +0.209 HD
DOCKED: ENDBRANCH  36  37
DOCKED: ENDBRANCH  29  36
DOCKED: BRANCH  22  39
DOCKED: ATOM     39  C   UNL d   1      -3.339  18.072 -16.800 +0.06 +0.03    +0.052 C 
DOCKED: BRANCH  39  40
DOCKED: ATOM     40  C   UNL d   1      -4.688  18.233 -17.521 -0.06 +0.06    +0.115 C 
DOCKED: BRANCH  40  41
DOCKED: ATOM     41  C   UNL d   1      -4.593  18.879 -18.887 +0.03 +0.12    +0.139 C 
DOCKED: ATOM     42  O   UNL d   1      -3.851  19.838 -19.046 -0.24 -0.72    -0.650 OA
DOCKED: BRANCH  41  43
DOCKED: ATOM     43  O   UNL d   1      -5.241  18.371 -19.959 -0.02 -0.57    -0.776 OA
DOCKED: ATOM     44  H   UNL d   1      -6.134  18.007 -19.902 +0.01 +0.07    +0.167 HD
DOCKED: ENDBRANCH  41  43
DOCKED: ENDBRANCH  40  41
DOCKED: ENDBRANCH  39  40
DOCKED: ENDBRANCH  22  39
DOCKED: BRANCH  12  45
DOCKED: ATOM     45  C   UNL d   1      -5.906   8.762 -11.070 -0.33 -0.00    +0.004 C 
DOCKED: ATOM     46  C   UNL d   1      -6.619   8.817  -9.948 -0.32 -0.00    +0.012 C 
DOCKED: ENDBRANCH  12  45
DOCKED: BRANCH  17  47
DOCKED: ATOM     47  C   UNL d   1      -2.909  15.753  -9.276 -0.22 +0.00    +0.004 C 
DOCKED: ATOM     48  C   UNL d   1      -1.818  16.479  -9.531 -0.22 -0.00    +0.012 C 
DOCKED: ENDBRANCH  17  47
DOCKED: TORSDOF 12
DOCKED: TER
DOCKED: ENDMDL
________________________________________________________________________________


	BEGINNING GENETIC ALGORITHM DOCKING 13 of 100
Run: 13 Seed: 1209272391 1776833144 [ Run 13 of 100 GA/GALS ]
Beginning LAMARCKIAN GENETIC ALGORITHM (LGA), with a maximum of 25000000 energy evaluations.

Final-Value: -9.855


	FINAL GENETIC ALGORITHM DOCKED STATE
	_______________________________________________


Detailed state:  trans -8.620 -14.306 -9.256 quatxyzw 0.514703 -0.456120 -0.679638 0.255201 center 8.781 34.984 -0.736 ntor 12 -77.1964 104.3320 -90.9567 122.6072 136.7423 141.4092 81.9230 -71.2693 59.3144 123.2116 6.1203 54.8084
State:	 -8.620 -14.306  -9.256   0.532 -0.472 -0.703 150.429    -77.20  104.33  -90.96  122.61  136.74  141.41   81.92  -71.27   59.31  123.21    6.12   54.81

DOCKED: MODEL       13
DOCKED: USER    Run = 13
DOCKED: USER    DPF = D:/Protein_go_brrr/autodock/final/mut_N102T/heme_Co/dock.dpf
DOCKED: USER  
DOCKED: USER    Estimated Free Energy of Binding    =   -4.56 kcal/mol  [=(1)+(2)+(3)-(4)]
DOCKED: USER    Estimated Inhibition Constant, Ki   =  456.77 uM (micromolar)  [Temperature = 298.15 K]
DOCKED: USER    
DOCKED: USER    (1) Final Intermolecular Energy     =   -8.14 kcal/mol
DOCKED: USER        vdW + Hbond + desolv Energy     =   -4.58 kcal/mol
DOCKED: USER        Electrostatic Energy            =   -3.56 kcal/mol
DOCKED: USER    (2) Final Total Internal Energy     =   -1.72 kcal/mol
DOCKED: USER    (3) Torsional Free Energy           =   +3.58 kcal/mol
DOCKED: USER    (4) Unbound System's Energy  [=(2)] =   -1.72 kcal/mol
DOCKED: USER    
DOCKED: USER    
DOCKED: USER    NEWDPF move heme_Co_opt.pdbqt
DOCKED: USER    NEWDPF about 8.781000 34.984000 -0.736000
DOCKED: USER    NEWDPF tran0 -8.620176 -14.305685 -9.255519
DOCKED: USER    NEWDPF quaternion0 0.514703 -0.456120 -0.679638 0.255201
DOCKED: USER    NEWDPF axisangle0 0.532329 -0.471740 -0.702913 150.429012
DOCKED: USER    NEWDPF quat0 0.532329 -0.471740 -0.702913 150.429012
DOCKED: USER    NEWDPF dihe0 -77.20 104.33 -90.96 122.61 136.74 141.41 81.92 -71.27 59.31 123.21 6.12 54.81 
DOCKED: USER  keepresnum = 1 
DOCKED: USER  
DOCKED: REMARK  12 active torsions:
DOCKED: REMARK  status: ('A' for Active; 'I' for Inactive)
DOCKED: REMARK    1  A    between atoms: C_6  and  C_10 
DOCKED: REMARK    2  A    between atoms: C_10  and  C_11 
DOCKED: REMARK    3  A    between atoms: C_11  and  C_12 
DOCKED: REMARK    4  A    between atoms: C_12  and  O_14 
DOCKED: REMARK    5  A    between atoms: C_17  and  C_20 
DOCKED: REMARK    6  A    between atoms: C_24  and  C_27 
DOCKED: REMARK    7  A    between atoms: C_31  and  C_34 
DOCKED: REMARK    8  A    between atoms: C_34  and  C_35 
DOCKED: REMARK    9  A    between atoms: C_35  and  C_36 
DOCKED: REMARK   10  A    between atoms: C_36  and  O_38 
DOCKED: REMARK   11  A    between atoms: FE_43  and  C_44 
DOCKED: REMARK   12  A    between atoms: C_44  and  O_45 
DOCKED: USER                              x       y       z     vdW  Elec       q    Type
DOCKED: USER                           _______ _______ _______ _____ _____    ______ ____
DOCKED: ROOT
DOCKED: ATOM      1  C   UNL d   1      -7.973 -15.045  -7.319 -0.11 +0.05    +0.064 A 
DOCKED: ATOM      2  C   UNL d   1      -7.973 -10.696  -9.241 -0.22 +0.02    +0.064 C 
DOCKED: ATOM      3  C   UNL d   1      -9.517 -12.489 -13.392 -0.10 +0.01    +0.064 A 
DOCKED: ATOM      4  C   UNL d   1      -9.894 -16.883 -11.338 -0.07 +0.01    +0.064 A 
DOCKED: ATOM      5  C   UNL d   1      -7.825 -13.730  -7.550 -0.13 +0.05    +0.066 A 
DOCKED: ATOM      6  C   UNL d   1      -7.448 -12.831  -6.534 -0.17 -0.01    -0.021 A 
DOCKED: ATOM      7  C   UNL d   1      -7.471 -11.567  -7.092 -0.20 -0.01    -0.025 A 
DOCKED: ATOM      8  C   UNL d   1      -7.846 -11.751  -8.427 -0.15 +0.02    +0.066 A 
DOCKED: ATOM      9  C   UNL d   1      -7.157 -10.229  -6.406 -0.31 +0.02    +0.051 C 
DOCKED: ATOM     10  C   UNL d   1      -8.327 -10.790 -10.635 -0.21 +0.02    +0.066 A 
DOCKED: ATOM     11  C   UNL d   1      -8.341  -9.737 -11.576 -0.27 -0.01    -0.021 A 
DOCKED: ATOM     12  C   UNL d   1      -8.791 -10.289 -12.778 -0.24 +0.00    +0.000 A 
DOCKED: ATOM     13  C   UNL d   1      -9.006 -11.636 -12.487 -0.15 +0.02    +0.070 A 
DOCKED: ATOM     14  C   UNL d   1      -7.860  -8.327 -11.343 -0.13 +0.02    +0.052 C 
DOCKED: ATOM     15  C   UNL d   1      -9.850 -13.893 -13.247 -0.11 +0.01    +0.066 A 
DOCKED: ATOM     16  C   UNL d   1     -10.511 -14.682 -14.177 -0.08 -0.00    -0.021 A 
DOCKED: ATOM     17  C   UNL d   1     -10.624 -15.950 -13.588 -0.06 +0.00    +0.000 A 
DOCKED: ATOM     18  C   UNL d   1     -10.007 -15.837 -12.347 -0.09 +0.01    +0.070 A 
DOCKED: ATOM     19  C   UNL d   1     -10.991 -14.221 -15.535 -0.04 +0.00    +0.052 C 
DOCKED: ATOM     20  C   UNL d   1      -9.375 -16.773 -10.092 -0.07 +0.02    +0.066 A 
DOCKED: ATOM     21  C   UNL d   1      -9.355 -17.842  -9.198 -0.03 -0.01    -0.025 A 
DOCKED: ATOM     22  C   UNL d   1      -8.781 -17.349  -8.041 -0.03 -0.01    -0.021 A 
DOCKED: ATOM     23  C   UNL d   1      -8.487 -15.991  -8.283 -0.09 +0.04    +0.066 A 
DOCKED: ATOM     24  C   UNL d   1      -9.877 -19.258  -9.428 -0.01 +0.01    +0.051 C 
DOCKED: ATOM     25  N   UNL d   1      -8.065 -13.082  -8.740 -0.11 -0.10    -0.248 N 
DOCKED: ATOM     26  N   UNL d   1      -8.672 -11.949 -11.207 -0.12 -0.06    -0.248 N 
DOCKED: ATOM     27  N   UNL d   1      -9.584 -14.591 -12.165 -0.01 -0.04    -0.248 N 
DOCKED: ATOM     28  N   UNL d   1      -8.847 -15.637  -9.523 -0.08 -0.10    -0.248 N 
DOCKED: ATOM     29 FE   UNL d   1      -8.870 -13.885 -10.553 -0.04 +0.00    +0.000 Fe
DOCKED: ENDROOT
DOCKED: BRANCH   6  30
DOCKED: ATOM     30  C   UNL d   1      -7.161 -13.173  -5.076 -0.19 +0.04    +0.052 C 
DOCKED: BRANCH  30  31
DOCKED: ATOM     31  C   UNL d   1      -5.680 -13.497  -4.882 -0.21 +0.16    +0.115 C 
DOCKED: BRANCH  31  32
DOCKED: ATOM     32  C   UNL d   1      -5.462 -14.877  -4.300 -0.19 +0.21    +0.139 C 
DOCKED: ATOM     33  O   UNL d   1      -6.113 -15.229  -3.328 +0.02 -0.86    -0.650 OA
DOCKED: BRANCH  32  34
DOCKED: ATOM     34  O   UNL d   1      -4.598 -15.761  -4.852 +0.15 -1.78    -0.776 OA
DOCKED: ATOM     35  H   UNL d   1      -4.804 -16.319  -5.614 +0.05 +0.48    +0.167 HD
DOCKED: ENDBRANCH  32  34
DOCKED: ENDBRANCH  31  32
DOCKED: ENDBRANCH  30  31
DOCKED: ENDBRANCH   6  30
DOCKED: BRANCH  29  36
DOCKED: ATOM     36  C   UNL d   1     -10.765 -13.428  -9.782 -0.02 +0.03    +0.190 C 
DOCKED: BRANCH  36  37
DOCKED: ATOM     37  O   UNL d   1     -11.432 -13.064  -8.608 +0.01 -0.06    -0.399 OA
DOCKED: ATOM     38  H   UNL d   1     -10.749 -13.156  -7.886 +0.02 +0.04    +0.209 HD
DOCKED: ENDBRANCH  36  37
DOCKED: ENDBRANCH  29  36
DOCKED: BRANCH  22  39
DOCKED: ATOM     39  C   UNL d   1      -8.588 -18.129  -6.754 -0.01 +0.02    +0.052 C 
DOCKED: BRANCH  39  40
DOCKED: ATOM     40  C   UNL d   1      -7.448 -17.524  -5.918 -0.05 +0.10    +0.115 C 
DOCKED: BRANCH  40  41
DOCKED: ATOM     41  C   UNL d   1      -6.092 -17.562  -6.590 -0.10 +0.19    +0.139 C 
DOCKED: ATOM     42  O   UNL d   1      -5.900 -16.885  -7.590 -0.04 -1.37    -0.650 OA
DOCKED: BRANCH  41  43
DOCKED: ATOM     43  O   UNL d   1      -5.058 -18.258  -6.066 -0.08 -1.02    -0.776 OA
DOCKED: ATOM     44  H   UNL d   1      -4.479 -17.892  -5.385 +0.03 +0.28    +0.167 HD
DOCKED: ENDBRANCH  41  43
DOCKED: ENDBRANCH  40  41
DOCKED: ENDBRANCH  39  40
DOCKED: ENDBRANCH  22  39
DOCKED: BRANCH  12  45
DOCKED: ATOM     45  C   UNL d   1      -9.022  -9.705 -14.166 -0.25 +0.00    +0.004 C 
DOCKED: ATOM     46  C   UNL d   1      -8.408  -9.948 -15.321 -0.26 +0.01    +0.012 C 
DOCKED: ENDBRANCH  12  45
DOCKED: BRANCH  17  47
DOCKED: ATOM     47  C   UNL d   1     -11.298 -17.181 -14.098 -0.02 +0.00    +0.004 C 
DOCKED: ATOM     48  C   UNL d   1     -10.647 -18.307 -14.401 -0.02 +0.00    +0.012 C 
DOCKED: ENDBRANCH  17  47
DOCKED: TORSDOF 12
DOCKED: TER
DOCKED: ENDMDL
________________________________________________________________________________


	BEGINNING GENETIC ALGORITHM DOCKING 14 of 100
Run: 14 Seed: 131541847 1451324589 [ Run 14 of 100 GA/GALS ]
Beginning LAMARCKIAN GENETIC ALGORITHM (LGA), with a maximum of 25000000 energy evaluations.

Final-Value: -8.898


	FINAL GENETIC ALGORITHM DOCKED STATE
	_______________________________________________


Detailed state:  trans 11.715 9.280 -12.010 quatxyzw 0.142729 0.840192 0.045223 -0.521211 center 8.781 34.984 -0.736 ntor 12 157.9258 135.4018 71.2062 116.8174 137.8228 128.2109 -133.5092 -64.5212 -131.3746 -170.1633 -175.5134 -16.2548
State:	 11.715   9.280 -12.010   0.167  0.984  0.053 -117.173    157.93  135.40   71.21  116.82  137.82  128.21 -133.51  -64.52 -131.37 -170.16 -175.51  -16.25

DOCKED: MODEL       14
DOCKED: USER    Run = 14
DOCKED: USER    DPF = D:/Protein_go_brrr/autodock/final/mut_N102T/heme_Co/dock.dpf
DOCKED: USER  
DOCKED: USER    Estimated Free Energy of Binding    =   -3.06 kcal/mol  [=(1)+(2)+(3)-(4)]
DOCKED: USER    Estimated Inhibition Constant, Ki   =    5.71 mM (millimolar)  [Temperature = 298.15 K]
DOCKED: USER    
DOCKED: USER    (1) Final Intermolecular Energy     =   -6.64 kcal/mol
DOCKED: USER        vdW + Hbond + desolv Energy     =   -6.82 kcal/mol
DOCKED: USER        Electrostatic Energy            =   +0.18 kcal/mol
DOCKED: USER    (2) Final Total Internal Energy     =   -2.26 kcal/mol
DOCKED: USER    (3) Torsional Free Energy           =   +3.58 kcal/mol
DOCKED: USER    (4) Unbound System's Energy  [=(2)] =   -2.26 kcal/mol
DOCKED: USER    
DOCKED: USER    
DOCKED: USER    NEWDPF move heme_Co_opt.pdbqt
DOCKED: USER    NEWDPF about 8.781000 34.984000 -0.736000
DOCKED: USER    NEWDPF tran0 11.715290 9.280194 -12.010300
DOCKED: USER    NEWDPF quaternion0 0.142729 0.840192 0.045223 -0.521211
DOCKED: USER    NEWDPF axisangle0 0.167242 0.984491 0.052989 -117.172917
DOCKED: USER    NEWDPF quat0 0.167242 0.984491 0.052989 -117.172917
DOCKED: USER    NEWDPF dihe0 157.93 135.40 71.21 116.82 137.82 128.21 -133.51 -64.52 -131.37 -170.16 -175.51 -16.25 
DOCKED: USER  keepresnum = 1 
DOCKED: USER  
DOCKED: REMARK  12 active torsions:
DOCKED: REMARK  status: ('A' for Active; 'I' for Inactive)
DOCKED: REMARK    1  A    between atoms: C_6  and  C_10 
DOCKED: REMARK    2  A    between atoms: C_10  and  C_11 
DOCKED: REMARK    3  A    between atoms: C_11  and  C_12 
DOCKED: REMARK    4  A    between atoms: C_12  and  O_14 
DOCKED: REMARK    5  A    between atoms: C_17  and  C_20 
DOCKED: REMARK    6  A    between atoms: C_24  and  C_27 
DOCKED: REMARK    7  A    between atoms: C_31  and  C_34 
DOCKED: REMARK    8  A    between atoms: C_34  and  C_35 
DOCKED: REMARK    9  A    between atoms: C_35  and  C_36 
DOCKED: REMARK   10  A    between atoms: C_36  and  O_38 
DOCKED: REMARK   11  A    between atoms: FE_43  and  C_44 
DOCKED: REMARK   12  A    between atoms: C_44  and  O_45 
DOCKED: USER                              x       y       z     vdW  Elec       q    Type
DOCKED: USER                           _______ _______ _______ _____ _____    ______ ____
DOCKED: ROOT
DOCKED: ATOM      1  C   UNL d   1      11.861   9.263  -9.844 -0.17 -0.02    +0.064 A 
DOCKED: ATOM      2  C   UNL d   1      14.144   6.812 -13.218 -0.18 -0.01    +0.064 C 
DOCKED: ATOM      3  C   UNL d   1      11.372   8.780 -16.576 -0.12 +0.01    +0.064 A 
DOCKED: ATOM      4  C   UNL d   1       9.285  11.582 -13.192 -0.13 -0.01    +0.064 A 
DOCKED: ATOM      5  C   UNL d   1      12.664   8.422 -10.515 -0.18 -0.02    +0.066 A 
DOCKED: ATOM      6  C   UNL d   1      13.687   7.695  -9.876 -0.25 +0.00    -0.021 A 
DOCKED: ATOM      7  C   UNL d   1      14.361   7.003 -10.863 -0.16 +0.00    -0.025 A 
DOCKED: ATOM      8  C   UNL d   1      13.711   7.324 -12.059 -0.19 -0.01    +0.066 A 
DOCKED: ATOM      9  C   UNL d   1      15.573   6.073 -10.702 -0.08 -0.01    +0.051 C 
DOCKED: ATOM     10  C   UNL d   1      13.523   7.064 -14.495 -0.17 -0.01    +0.066 A 
DOCKED: ATOM     11  C   UNL d   1      13.842   6.448 -15.725 -0.13 +0.00    -0.021 A 
DOCKED: ATOM     12  C   UNL d   1      13.016   7.038 -16.686 -0.13 +0.00    +0.000 A 
DOCKED: ATOM     13  C   UNL d   1      12.248   7.958 -15.971 -0.11 +0.01    +0.070 A 
DOCKED: ATOM     14  C   UNL d   1      14.806   5.308 -15.928 -0.08 -0.00    +0.052 C 
DOCKED: ATOM     15  C   UNL d   1      10.540   9.819 -16.003 -0.14 +0.01    +0.066 A 
DOCKED: ATOM     16  C   UNL d   1       9.764  10.732 -16.703 -0.15 +0.00    -0.021 A 
DOCKED: ATOM     17  C   UNL d   1       9.162  11.544 -15.732 -0.14 -0.00    +0.000 A 
DOCKED: ATOM     18  C   UNL d   1       9.606  11.050 -14.510 -0.14 -0.01    +0.070 A 
DOCKED: ATOM     19  C   UNL d   1       9.631  10.797 -18.208 -0.13 +0.00    +0.052 C 
DOCKED: ATOM     20  C   UNL d   1       9.772  11.173 -11.996 -0.15 -0.02    +0.066 A 
DOCKED: ATOM     21  C   UNL d   1       9.416  11.788 -10.798 -0.15 +0.01    -0.025 A 
DOCKED: ATOM     22  C   UNL d   1      10.121  11.122  -9.812 -0.21 +0.01    -0.021 A 
DOCKED: ATOM     23  C   UNL d   1      10.888  10.133 -10.464 -0.20 -0.02    +0.066 A 
DOCKED: ATOM     24  C   UNL d   1       8.465  12.966 -10.603 -0.16 -0.02    +0.051 C 
DOCKED: ATOM     25  N   UNL d   1      12.652   8.196 -11.873 -0.14 +0.06    -0.248 N 
DOCKED: ATOM     26  N   UNL d   1      12.516   7.932 -14.638 -0.15 +0.01    -0.248 N 
DOCKED: ATOM     27  N   UNL d   1      10.449  10.042 -14.711 -0.13 +0.01    -0.248 N 
DOCKED: ATOM     28  N   UNL d   1      10.682  10.163 -11.787 -0.13 +0.07    -0.248 N 
DOCKED: ATOM     29 FE   UNL d   1      11.483   9.176 -13.373 -0.05 -0.00    +0.000 Fe
DOCKED: ENDROOT
DOCKED: BRANCH   6  30
DOCKED: ATOM     30  C   UNL d   1      14.043   7.738  -8.393 -0.19 -0.01    +0.052 C 
DOCKED: BRANCH  30  31
DOCKED: ATOM     31  C   UNL d   1      15.105   8.803  -8.126 -0.13 -0.02    +0.115 C 
DOCKED: BRANCH  31  32
DOCKED: ATOM     32  C   UNL d   1      14.786  10.119  -8.802 -0.09 -0.02    +0.139 C 
DOCKED: ATOM     33  O   UNL d   1      14.237  11.005  -8.163 -0.07 +0.11    -0.650 OA
DOCKED: BRANCH  32  34
DOCKED: ATOM     34  O   UNL d   1      15.133  10.370 -10.086 +0.04 +0.10    -0.776 OA
DOCKED: ATOM     35  H   UNL d   1      14.669  10.992 -10.663 +0.02 -0.02    +0.167 HD
DOCKED: ENDBRANCH  32  34
DOCKED: ENDBRANCH  31  32
DOCKED: ENDBRANCH  30  31
DOCKED: ENDBRANCH   6  30
DOCKED: BRANCH  29  36
DOCKED: ATOM     36  C   UNL d   1      13.030  10.585 -13.499 -0.04 -0.02    +0.190 C 
DOCKED: BRANCH  36  37
DOCKED: ATOM     37  O   UNL d   1      14.068  11.168 -12.765 +0.00 +0.04    -0.399 OA
DOCKED: ATOM     38  H   UNL d   1      14.269  10.513 -12.040 +0.03 -0.03    +0.209 HD
DOCKED: ENDBRANCH  36  37
DOCKED: ENDBRANCH  29  36
DOCKED: BRANCH  22  39
DOCKED: ATOM     39  C   UNL d   1      10.104  11.464  -8.334 -0.30 -0.04    +0.052 C 
DOCKED: BRANCH  39  40
DOCKED: ATOM     40  C   UNL d   1       8.914  10.787  -7.634 -0.38 -0.08    +0.115 C 
DOCKED: BRANCH  40  41
DOCKED: ATOM     41  C   UNL d   1       8.104   9.869  -8.525 -0.49 -0.04    +0.139 C 
DOCKED: ATOM     42  O   UNL d   1       8.568   8.785  -8.847 -0.67 +0.01    -0.650 OA
DOCKED: BRANCH  41  43
DOCKED: ATOM     43  O   UNL d   1       6.845  10.179  -8.906 +0.13 +0.17    -0.776 OA
DOCKED: ATOM     44  H   UNL d   1       6.655  10.819  -9.604 +0.09 -0.04    +0.167 HD
DOCKED: ENDBRANCH  41  43
DOCKED: ENDBRANCH  40  41
DOCKED: ENDBRANCH  39  40
DOCKED: ENDBRANCH  22  39
DOCKED: BRANCH  12  45
DOCKED: ATOM     45  C   UNL d   1      12.852   6.826 -18.185 -0.10 +0.00    +0.004 C 
DOCKED: ATOM     46  C   UNL d   1      11.864   6.264 -18.877 -0.13 +0.00    +0.012 C 
DOCKED: ENDBRANCH  12  45
DOCKED: BRANCH  17  47
DOCKED: ATOM     47  C   UNL d   1       8.274  12.733 -15.899 -0.11 -0.00    +0.004 C 
DOCKED: ATOM     48  C   UNL d   1       7.004  12.769 -15.487 -0.17 -0.01    +0.012 C 
DOCKED: ENDBRANCH  17  47
DOCKED: TORSDOF 12
DOCKED: TER
DOCKED: ENDMDL
________________________________________________________________________________


	BEGINNING GENETIC ALGORITHM DOCKING 15 of 100
Run: 15 Seed: 693889013 1515126281 [ Run 15 of 100 GA/GALS ]
Beginning LAMARCKIAN GENETIC ALGORITHM (LGA), with a maximum of 25000000 energy evaluations.

Final-Value: -9.203


	FINAL GENETIC ALGORITHM DOCKED STATE
	_______________________________________________


Detailed state:  trans 11.219 16.765 8.275 quatxyzw 0.323853 0.548304 0.543116 0.547273 center 8.781 34.984 -0.736 ntor 12 -1.7999 114.6913 130.3771 -25.6766 82.5288 159.3052 -152.0226 -84.8939 146.8574 -74.9192 28.3645 14.5840
State:	 11.219  16.765   8.275   0.387  0.655  0.649 113.640     -1.80  114.69  130.38  -25.68   82.53  159.31 -152.02  -84.89  146.86  -74.92   28.36   14.58

DOCKED: MODEL       15
DOCKED: USER    Run = 15
DOCKED: USER    DPF = D:/Protein_go_brrr/autodock/final/mut_N102T/heme_Co/dock.dpf
DOCKED: USER  
DOCKED: USER    Estimated Free Energy of Binding    =   -3.90 kcal/mol  [=(1)+(2)+(3)-(4)]
DOCKED: USER    Estimated Inhibition Constant, Ki   =    1.38 mM (millimolar)  [Temperature = 298.15 K]
DOCKED: USER    
DOCKED: USER    (1) Final Intermolecular Energy     =   -7.48 kcal/mol
DOCKED: USER        vdW + Hbond + desolv Energy     =   -5.24 kcal/mol
DOCKED: USER        Electrostatic Energy            =   -2.24 kcal/mol
DOCKED: USER    (2) Final Total Internal Energy     =   -1.72 kcal/mol
DOCKED: USER    (3) Torsional Free Energy           =   +3.58 kcal/mol
DOCKED: USER    (4) Unbound System's Energy  [=(2)] =   -1.72 kcal/mol
DOCKED: USER    
DOCKED: USER    
DOCKED: USER    NEWDPF move heme_Co_opt.pdbqt
DOCKED: USER    NEWDPF about 8.781000 34.984000 -0.736000
DOCKED: USER    NEWDPF tran0 11.219271 16.765071 8.275385
DOCKED: USER    NEWDPF quaternion0 0.323853 0.548304 0.543116 0.547273
DOCKED: USER    NEWDPF axisangle0 0.386942 0.655119 0.648919 113.639801
DOCKED: USER    NEWDPF quat0 0.386942 0.655119 0.648919 113.639801
DOCKED: USER    NEWDPF dihe0 -1.80 114.69 130.38 -25.68 82.53 159.31 -152.02 -84.89 146.86 -74.92 28.36 14.58 
DOCKED: USER  keepresnum = 1 
DOCKED: USER  
DOCKED: REMARK  12 active torsions:
DOCKED: REMARK  status: ('A' for Active; 'I' for Inactive)
DOCKED: REMARK    1  A    between atoms: C_6  and  C_10 
DOCKED: REMARK    2  A    between atoms: C_10  and  C_11 
DOCKED: REMARK    3  A    between atoms: C_11  and  C_12 
DOCKED: REMARK    4  A    between atoms: C_12  and  O_14 
DOCKED: REMARK    5  A    between atoms: C_17  and  C_20 
DOCKED: REMARK    6  A    between atoms: C_24  and  C_27 
DOCKED: REMARK    7  A    between atoms: C_31  and  C_34 
DOCKED: REMARK    8  A    between atoms: C_34  and  C_35 
DOCKED: REMARK    9  A    between atoms: C_35  and  C_36 
DOCKED: REMARK   10  A    between atoms: C_36  and  O_38 
DOCKED: REMARK   11  A    between atoms: FE_43  and  C_44 
DOCKED: REMARK   12  A    between atoms: C_44  and  O_45 
DOCKED: USER                              x       y       z     vdW  Elec       q    Type
DOCKED: USER                           _______ _______ _______ _____ _____    ______ ____
DOCKED: ROOT
DOCKED: ATOM      1  C   UNL d   1      12.274  16.521   6.393 -0.04 +0.06    +0.064 A 
DOCKED: ATOM      2  C   UNL d   1       8.580  19.235   7.656 -0.10 -0.00    +0.064 C 
DOCKED: ATOM      3  C   UNL d   1       8.529  17.216  11.986 -0.21 -0.01    +0.064 A 
DOCKED: ATOM      4  C   UNL d   1      12.541  14.711  10.851 -0.19 +0.00    +0.064 A 
DOCKED: ATOM      5  C   UNL d   1      11.246  17.384   6.408 -0.11 +0.04    +0.066 A 
DOCKED: ATOM      6  C   UNL d   1      10.970  18.237   5.321 -0.05 -0.01    -0.021 A 
DOCKED: ATOM      7  C   UNL d   1       9.912  19.038   5.702 -0.04 -0.00    -0.025 A 
DOCKED: ATOM      8  C   UNL d   1       9.576  18.630   6.997 -0.07 +0.01    +0.066 A 
DOCKED: ATOM      9  C   UNL d   1       9.232  20.150   4.889 -0.01 +0.00    +0.051 C 
DOCKED: ATOM     10  C   UNL d   1       8.147  18.866   8.980 -0.15 -0.01    +0.066 A 
DOCKED: ATOM     11  C   UNL d   1       7.021  19.366   9.670 -0.20 +0.01    -0.021 A 
DOCKED: ATOM     12  C   UNL d   1       7.027  18.757  10.928 -0.20 -0.00    +0.000 A 
DOCKED: ATOM     13  C   UNL d   1       8.146  17.924  10.909 -0.21 -0.01    +0.070 A 
DOCKED: ATOM     14  C   UNL d   1       5.969  20.288   9.110 -0.01 -0.02    +0.052 C 
DOCKED: ATOM     15  C   UNL d   1       9.679  16.351  12.158 -0.19 -0.01    +0.066 A 
DOCKED: ATOM     16  C   UNL d   1      10.098  15.763  13.343 -0.14 +0.00    -0.021 A 
DOCKED: ATOM     17  C   UNL d   1      11.256  15.041  13.021 -0.17 -0.00    +0.000 A 
DOCKED: ATOM     18  C   UNL d   1      11.444  15.234  11.656 -0.17 -0.00    +0.070 A 
DOCKED: ATOM     19  C   UNL d   1       9.410  15.904  14.682 -0.11 -0.01    +0.052 C 
DOCKED: ATOM     20  C   UNL d   1      12.792  14.955   9.543 -0.14 +0.01    +0.066 A 
DOCKED: ATOM     21  C   UNL d   1      13.901  14.424   8.887 -0.19 -0.01    -0.025 A 
DOCKED: ATOM     22  C   UNL d   1      13.834  14.905   7.592 -0.14 -0.01    -0.021 A 
DOCKED: ATOM     23  C   UNL d   1      12.686  15.722   7.525 -0.15 +0.04    +0.066 A 
DOCKED: ATOM     24  C   UNL d   1      14.982  13.518   9.470 -0.15 +0.01    +0.051 C 
DOCKED: ATOM     25  N   UNL d   1      10.383  17.603   7.458 -0.10 -0.10    -0.248 N 
DOCKED: ATOM     26  N   UNL d   1       8.790  17.948   9.711 -0.10 +0.00    -0.248 N 
DOCKED: ATOM     27  N   UNL d   1      10.504  16.043  11.182 -0.12 +0.01    -0.248 N 
DOCKED: ATOM     28  N   UNL d   1      12.054  15.757   8.704 -0.04 -0.07    -0.248 N 
DOCKED: ATOM     29 FE   UNL d   1      10.449  16.774   9.429 -0.05 +0.00    +0.000 Fe
DOCKED: ENDROOT
DOCKED: BRANCH   6  30
DOCKED: ATOM     30  C   UNL d   1      11.749  18.324   4.013 -0.03 +0.02    +0.052 C 
DOCKED: BRANCH  30  31
DOCKED: ATOM     31  C   UNL d   1      10.898  17.824   2.846 -0.03 +0.04    +0.115 C 
DOCKED: BRANCH  31  32
DOCKED: ATOM     32  C   UNL d   1       9.990  16.679   3.243 -0.06 +0.11    +0.139 C 
DOCKED: ATOM     33  O   UNL d   1       8.958  16.915   3.854 -0.22 -0.43    -0.650 OA
DOCKED: BRANCH  32  34
DOCKED: ATOM     34  O   UNL d   1      10.259  15.398   2.901 +0.07 -0.99    -0.776 OA
DOCKED: ATOM     35  H   UNL d   1      10.986  15.131   2.322 +0.02 +0.15    +0.167 HD
DOCKED: ENDBRANCH  32  34
DOCKED: ENDBRANCH  31  32
DOCKED: ENDBRANCH  30  31
DOCKED: ENDBRANCH   6  30
DOCKED: BRANCH  29  36
DOCKED: ATOM     36  C   UNL d   1      11.679  18.392   9.945 -0.03 +0.01    +0.190 C 
DOCKED: BRANCH  36  37
DOCKED: ATOM     37  O   UNL d   1      12.226  19.579   9.447 +0.00 -0.01    -0.399 OA
DOCKED: ATOM     38  H   UNL d   1      11.867  19.658   8.519 +0.01 +0.01    +0.209 HD
DOCKED: ENDBRANCH  36  37
DOCKED: ENDBRANCH  29  36
DOCKED: BRANCH  22  39
DOCKED: ATOM     39  C   UNL d   1      14.857  14.643   6.503 -0.08 +0.02    +0.052 C 
DOCKED: BRANCH  39  40
DOCKED: ATOM     40  C   UNL d   1      14.229  13.843   5.350 -0.11 +0.08    +0.115 C 
DOCKED: BRANCH  40  41
DOCKED: ATOM     41  C   UNL d   1      13.818  14.682   4.158 -0.08 +0.11    +0.139 C 
DOCKED: ATOM     42  O   UNL d   1      14.637  15.428   3.641 +0.01 -0.22    -0.650 OA
DOCKED: BRANCH  41  43
DOCKED: ATOM     43  O   UNL d   1      12.594  14.566   3.596 -0.41 -1.29    -0.776 OA
DOCKED: ATOM     44  H   UNL d   1      12.071  15.332   3.327 +0.01 +0.25    +0.167 HD
DOCKED: ENDBRANCH  41  43
DOCKED: ENDBRANCH  40  41
DOCKED: ENDBRANCH  39  40
DOCKED: ENDBRANCH  22  39
DOCKED: BRANCH  12  45
DOCKED: ATOM     45  C   UNL d   1       6.100  18.852  12.132 -0.23 -0.00    +0.004 C 
DOCKED: ATOM     46  C   UNL d   1       5.404  19.880  12.610 -0.23 -0.00    +0.012 C 
DOCKED: ENDBRANCH  12  45
DOCKED: BRANCH  17  47
DOCKED: ATOM     47  C   UNL d   1      12.172  14.262  13.907 -0.14 +0.00    +0.004 C 
DOCKED: ATOM     48  C   UNL d   1      11.781  13.205  14.624 -0.16 +0.00    +0.012 C 
DOCKED: ENDBRANCH  17  47
DOCKED: TORSDOF 12
DOCKED: TER
DOCKED: ENDMDL
________________________________________________________________________________


	BEGINNING GENETIC ALGORITHM DOCKING 16 of 100
Run: 16 Seed: 1731292416 954663724 [ Run 16 of 100 GA/GALS ]
Beginning LAMARCKIAN GENETIC ALGORITHM (LGA), with a maximum of 25000000 energy evaluations.

Final-Value: -9.579


	FINAL GENETIC ALGORITHM DOCKED STATE
	_______________________________________________


Detailed state:  trans 13.698 3.652 15.778 quatxyzw 0.678895 0.501110 -0.335416 -0.418911 center 8.781 34.984 -0.736 ntor 12 -91.8824 105.2897 -8.8654 -76.9084 118.4818 137.5888 -154.2921 175.8989 -112.2711 163.0341 -38.6124 16.8897
State:	 13.698   3.652  15.778   0.748  0.552 -0.369 -130.468    -91.88  105.29   -8.87  -76.91  118.48  137.59 -154.29  175.90 -112.27  163.03  -38.61   16.89

DOCKED: MODEL       16
DOCKED: USER    Run = 16
DOCKED: USER    DPF = D:/Protein_go_brrr/autodock/final/mut_N102T/heme_Co/dock.dpf
DOCKED: USER  
DOCKED: USER    Estimated Free Energy of Binding    =   -4.33 kcal/mol  [=(1)+(2)+(3)-(4)]
DOCKED: USER    Estimated Inhibition Constant, Ki   =  664.44 uM (micromolar)  [Temperature = 298.15 K]
DOCKED: USER    
DOCKED: USER    (1) Final Intermolecular Energy     =   -7.91 kcal/mol
DOCKED: USER        vdW + Hbond + desolv Energy     =   -5.76 kcal/mol
DOCKED: USER        Electrostatic Energy            =   -2.16 kcal/mol
DOCKED: USER    (2) Final Total Internal Energy     =   -1.66 kcal/mol
DOCKED: USER    (3) Torsional Free Energy           =   +3.58 kcal/mol
DOCKED: USER    (4) Unbound System's Energy  [=(2)] =   -1.66 kcal/mol
DOCKED: USER    
DOCKED: USER    
DOCKED: USER    NEWDPF move heme_Co_opt.pdbqt
DOCKED: USER    NEWDPF about 8.781000 34.984000 -0.736000
DOCKED: USER    NEWDPF tran0 13.697906 3.652181 15.777730
DOCKED: USER    NEWDPF quaternion0 0.678895 0.501110 -0.335416 -0.418911
DOCKED: USER    NEWDPF axisangle0 0.747659 0.551867 -0.369390 -130.468317
DOCKED: USER    NEWDPF quat0 0.747659 0.551867 -0.369390 -130.468317
DOCKED: USER    NEWDPF dihe0 -91.88 105.29 -8.87 -76.91 118.48 137.59 -154.29 175.90 -112.27 163.03 -38.61 16.89 
DOCKED: USER  keepresnum = 1 
DOCKED: USER  
DOCKED: REMARK  12 active torsions:
DOCKED: REMARK  status: ('A' for Active; 'I' for Inactive)
DOCKED: REMARK    1  A    between atoms: C_6  and  C_10 
DOCKED: REMARK    2  A    between atoms: C_10  and  C_11 
DOCKED: REMARK    3  A    between atoms: C_11  and  C_12 
DOCKED: REMARK    4  A    between atoms: C_12  and  O_14 
DOCKED: REMARK    5  A    between atoms: C_17  and  C_20 
DOCKED: REMARK    6  A    between atoms: C_24  and  C_27 
DOCKED: REMARK    7  A    between atoms: C_31  and  C_34 
DOCKED: REMARK    8  A    between atoms: C_34  and  C_35 
DOCKED: REMARK    9  A    between atoms: C_35  and  C_36 
DOCKED: REMARK   10  A    between atoms: C_36  and  O_38 
DOCKED: REMARK   11  A    between atoms: FE_43  and  C_44 
DOCKED: REMARK   12  A    between atoms: C_44  and  O_45 
DOCKED: USER                              x       y       z     vdW  Elec       q    Type
DOCKED: USER                           _______ _______ _______ _____ _____    ______ ____
DOCKED: ROOT
DOCKED: ATOM      1  C   UNL d   1      13.680   3.575  17.948 -0.07 +0.05    +0.064 A 
DOCKED: ATOM      2  C   UNL d   1      11.333   1.089  14.643 -0.19 +0.02    +0.064 C 
DOCKED: ATOM      3  C   UNL d   1      13.199   3.829  11.202 -0.27 +0.02    +0.064 A 
DOCKED: ATOM      4  C   UNL d   1      15.904   6.134  14.523 -0.08 +0.02    +0.064 A 
DOCKED: ATOM      5  C   UNL d   1      12.874   2.718  17.301 -0.13 +0.05    +0.066 A 
DOCKED: ATOM      6  C   UNL d   1      12.187   1.687  17.971 -0.12 -0.01    -0.021 A 
DOCKED: ATOM      7  C   UNL d   1      11.526   0.955  17.005 -0.13 -0.01    -0.025 A 
DOCKED: ATOM      8  C   UNL d   1      11.824   1.579  15.789 -0.17 +0.03    +0.066 A 
DOCKED: ATOM      9  C   UNL d   1      10.644  -0.288  17.203 -0.09 +0.02    +0.051 C 
DOCKED: ATOM     10  C   UNL d   1      11.564   1.679  13.348 -0.19 +0.02    +0.066 A 
DOCKED: ATOM     11  C   UNL d   1      10.966   1.296  12.128 -0.25 -0.01    -0.021 A 
DOCKED: ATOM     12  C   UNL d   1      11.525   2.114  11.142 -0.37 +0.00    +0.000 A 
DOCKED: ATOM     13  C   UNL d   1      12.410   2.941  11.833 -0.26 +0.02    +0.070 A 
DOCKED: ATOM     14  C   UNL d   1       9.866   0.280  11.954 -0.27 +0.02    +0.052 C 
DOCKED: ATOM     15  C   UNL d   1      14.202   4.720  11.751 -0.20 +0.02    +0.066 A 
DOCKED: ATOM     16  C   UNL d   1      15.085   5.510  11.027 -0.20 -0.00    -0.021 A 
DOCKED: ATOM     17  C   UNL d   1      15.869   6.175  11.981 -0.12 +0.00    +0.000 A 
DOCKED: ATOM     18  C   UNL d   1      15.389   5.750  13.215 -0.12 +0.02    +0.070 A 
DOCKED: ATOM     19  C   UNL d   1      15.149   5.597   9.519 -0.06 +0.01    +0.052 C 
DOCKED: ATOM     20  C   UNL d   1      15.511   5.669  15.733 -0.06 +0.03    +0.066 A 
DOCKED: ATOM     21  C   UNL d   1      16.108   6.088  16.921 -0.05 -0.01    -0.025 A 
DOCKED: ATOM     22  C   UNL d   1      15.467   5.389  17.927 -0.05 -0.01    -0.021 A 
DOCKED: ATOM     23  C   UNL d   1      14.512   4.562  17.298 -0.06 +0.05    +0.066 A 
DOCKED: ATOM     24  C   UNL d   1      17.246   7.091  17.087 -0.01 +0.01    +0.051 C 
DOCKED: ATOM     25  N   UNL d   1      12.652   2.678  15.943 -0.12 -0.18    -0.248 N 
DOCKED: ATOM     26  N   UNL d   1      12.392   2.715  13.174 -0.14 -0.10    -0.248 N 
DOCKED: ATOM     27  N   UNL d   1      14.417   4.862  13.039 -0.11 -0.10    -0.248 N 
DOCKED: ATOM     28  N   UNL d   1      14.537   4.727  15.970 -0.01 -0.20    -0.248 N 
DOCKED: ATOM     29 FE   UNL d   1      13.588   3.837  14.408 -0.04 +0.00    +0.000 Fe
DOCKED: ENDROOT
DOCKED: BRANCH   6  30
DOCKED: ATOM     30  C   UNL d   1      12.239   1.381  19.464 -0.06 +0.02    +0.052 C 
DOCKED: BRANCH  30  31
DOCKED: ATOM     31  C   UNL d   1      12.096   2.665  20.281 -0.07 +0.04    +0.115 C 
DOCKED: BRANCH  31  32
DOCKED: ATOM     32  C   UNL d   1      10.733   3.304  20.119 -0.15 +0.07    +0.139 C 
DOCKED: ATOM     33  O   UNL d   1       9.771   2.822  20.697 -0.02 -0.22    -0.650 OA
DOCKED: BRANCH  32  34
DOCKED: ATOM     34  O   UNL d   1      10.551   4.429  19.389 +0.07 -0.75    -0.776 OA
DOCKED: ATOM     35  H   UNL d   1      10.525   5.321  19.761 -0.11 +0.16    +0.167 HD
DOCKED: ENDBRANCH  32  34
DOCKED: ENDBRANCH  31  32
DOCKED: ENDBRANCH  30  31
DOCKED: ENDBRANCH   6  30
DOCKED: BRANCH  29  36
DOCKED: ATOM     36  C   UNL d   1      15.059   2.344  14.335 -0.03 +0.05    +0.190 C 
DOCKED: BRANCH  36  37
DOCKED: ATOM     37  O   UNL d   1      15.589   1.266  15.051 +0.00 -0.08    -0.399 OA
DOCKED: ATOM     38  H   UNL d   1      15.140   1.304  15.941 +0.01 +0.05    +0.209 HD
DOCKED: ENDBRANCH  36  37
DOCKED: ENDBRANCH  29  36
DOCKED: BRANCH  22  39
DOCKED: ATOM     39  C   UNL d   1      15.804   5.467  19.404 -0.02 +0.02    +0.052 C 
DOCKED: BRANCH  39  40
DOCKED: ATOM     40  C   UNL d   1      14.604   5.995  20.207 -0.03 +0.05    +0.115 C 
DOCKED: BRANCH  40  41
DOCKED: ATOM     41  C   UNL d   1      13.612   6.800  19.393 -0.03 +0.13    +0.139 C 
DOCKED: ATOM     42  O   UNL d   1      14.025   7.658  18.626 -0.14 -0.50    -0.650 OA
DOCKED: BRANCH  41  43
DOCKED: ATOM     43  O   UNL d   1      12.287   6.536  19.426 -0.20 -1.17    -0.776 OA
DOCKED: ATOM     44  H   UNL d   1      11.915   5.807  19.938 +0.02 +0.19    +0.167 HD
DOCKED: ENDBRANCH  41  43
DOCKED: ENDBRANCH  40  41
DOCKED: ENDBRANCH  39  40
DOCKED: ENDBRANCH  22  39
DOCKED: BRANCH  12  45
DOCKED: ATOM     45  C   UNL d   1      11.311   2.221   9.638 -0.50 +0.00    +0.004 C 
DOCKED: ATOM     46  C   UNL d   1      11.862   1.544   8.635 -0.37 +0.00    +0.012 C 
DOCKED: ENDBRANCH  12  45
DOCKED: BRANCH  17  47
DOCKED: ATOM     47  C   UNL d   1      17.022   7.104  11.787 -0.08 +0.00    +0.004 C 
DOCKED: ATOM     48  C   UNL d   1      16.907   8.434  11.801 -0.10 +0.00    +0.012 C 
DOCKED: ENDBRANCH  17  47
DOCKED: TORSDOF 12
DOCKED: TER
DOCKED: ENDMDL
________________________________________________________________________________


	BEGINNING GENETIC ALGORITHM DOCKING 17 of 100
Run: 17 Seed: 1976163971 1908891428 [ Run 17 of 100 GA/GALS ]
Beginning LAMARCKIAN GENETIC ALGORITHM (LGA), with a maximum of 25000000 energy evaluations.

Final-Value: -9.109


	FINAL GENETIC ALGORITHM DOCKED STATE
	_______________________________________________


Detailed state:  trans 9.886 16.383 3.173 quatxyzw 0.157092 0.959458 0.118680 0.201687 center 8.781 34.984 -0.736 ntor 12 174.4339 117.6173 -114.6120 -18.5494 162.6791 130.2721 -130.9809 -33.1643 -135.1402 -151.6455 -173.1663 -20.3932
State:	  9.886  16.383   3.173   0.160  0.980  0.121 156.729    174.43  117.62 -114.61  -18.55  162.68  130.27 -130.98  -33.16 -135.14 -151.65 -173.17  -20.39

DOCKED: MODEL       17
DOCKED: USER    Run = 17
DOCKED: USER    DPF = D:/Protein_go_brrr/autodock/final/mut_N102T/heme_Co/dock.dpf
DOCKED: USER  
DOCKED: USER    Estimated Free Energy of Binding    =   -3.39 kcal/mol  [=(1)+(2)+(3)-(4)]
DOCKED: USER    Estimated Inhibition Constant, Ki   =    3.27 mM (millimolar)  [Temperature = 298.15 K]
DOCKED: USER    
DOCKED: USER    (1) Final Intermolecular Energy     =   -6.97 kcal/mol
DOCKED: USER        vdW + Hbond + desolv Energy     =   -5.36 kcal/mol
DOCKED: USER        Electrostatic Energy            =   -1.61 kcal/mol
DOCKED: USER    (2) Final Total Internal Energy     =   -2.14 kcal/mol
DOCKED: USER    (3) Torsional Free Energy           =   +3.58 kcal/mol
DOCKED: USER    (4) Unbound System's Energy  [=(2)] =   -2.14 kcal/mol
DOCKED: USER    
DOCKED: USER    
DOCKED: USER    NEWDPF move heme_Co_opt.pdbqt
DOCKED: USER    NEWDPF about 8.781000 34.984000 -0.736000
DOCKED: USER    NEWDPF tran0 9.886144 16.383272 3.173353
DOCKED: USER    NEWDPF quaternion0 0.157092 0.959458 0.118680 0.201687
DOCKED: USER    NEWDPF axisangle0 0.160388 0.979588 0.121170 156.728730
DOCKED: USER    NEWDPF quat0 0.160388 0.979588 0.121170 156.728730
DOCKED: USER    NEWDPF dihe0 174.43 117.62 -114.61 -18.55 162.68 130.27 -130.98 -33.16 -135.14 -151.65 -173.17 -20.39 
DOCKED: USER  keepresnum = 1 
DOCKED: USER  
DOCKED: REMARK  12 active torsions:
DOCKED: REMARK  status: ('A' for Active; 'I' for Inactive)
DOCKED: REMARK    1  A    between atoms: C_6  and  C_10 
DOCKED: REMARK    2  A    between atoms: C_10  and  C_11 
DOCKED: REMARK    3  A    between atoms: C_11  and  C_12 
DOCKED: REMARK    4  A    between atoms: C_12  and  O_14 
DOCKED: REMARK    5  A    between atoms: C_17  and  C_20 
DOCKED: REMARK    6  A    between atoms: C_24  and  C_27 
DOCKED: REMARK    7  A    between atoms: C_31  and  C_34 
DOCKED: REMARK    8  A    between atoms: C_34  and  C_35 
DOCKED: REMARK    9  A    between atoms: C_35  and  C_36 
DOCKED: REMARK   10  A    between atoms: C_36  and  O_38 
DOCKED: REMARK   11  A    between atoms: FE_43  and  C_44 
DOCKED: REMARK   12  A    between atoms: C_44  and  O_45 
DOCKED: USER                              x       y       z     vdW  Elec       q    Type
DOCKED: USER                           _______ _______ _______ _____ _____    ______ ____
DOCKED: ROOT
DOCKED: ATOM      1  C   UNL d   1      12.040  16.105   3.191 -0.01 +0.06    +0.064 A 
DOCKED: ATOM      2  C   UNL d   1       8.710  15.058  -0.038 -0.10 -0.01    +0.064 C 
DOCKED: ATOM      3  C   UNL d   1       5.285  16.457   2.986 -0.15 -0.00    +0.064 A 
DOCKED: ATOM      4  C   UNL d   1       8.686  17.895   6.153 -0.15 +0.02    +0.064 A 
DOCKED: ATOM      5  C   UNL d   1      11.380  15.683   2.101 -0.06 +0.04    +0.066 A 
DOCKED: ATOM      6  C   UNL d   1      12.052  15.252   0.940 -0.04 -0.00    -0.021 A 
DOCKED: ATOM      7  C   UNL d   1      11.081  14.971  -0.001 -0.06 +0.00    -0.025 A 
DOCKED: ATOM      8  C   UNL d   1       9.859  15.226   0.629 -0.06 +0.00    +0.066 A 
DOCKED: ATOM      9  C   UNL d   1      11.281  14.481  -1.444 -0.13 -0.02    +0.051 C 
DOCKED: ATOM     10  C   UNL d   1       7.405  15.270   0.536 -0.07 -0.01    +0.066 A 
DOCKED: ATOM     11  C   UNL d   1       6.161  14.978  -0.065 -0.15 +0.01    -0.021 A 
DOCKED: ATOM     12  C   UNL d   1       5.180  15.392   0.840 -0.16 -0.00    +0.000 A 
DOCKED: ATOM     13  C   UNL d   1       5.895  15.893   1.928 -0.11 -0.00    +0.070 A 
DOCKED: ATOM     14  C   UNL d   1       5.949  14.263  -1.374 -0.27 -0.05    +0.052 C 
DOCKED: ATOM     15  C   UNL d   1       5.866  17.069   4.164 -0.16 +0.00    +0.066 A 
DOCKED: ATOM     16  C   UNL d   1       5.183  17.764   5.153 -0.18 +0.00    -0.021 A 
DOCKED: ATOM     17  C   UNL d   1       6.160  18.183   6.067 -0.27 -0.00    +0.000 A 
DOCKED: ATOM     18  C   UNL d   1       7.364  17.694   5.571 -0.19 +0.01    +0.070 A 
DOCKED: ATOM     19  C   UNL d   1       3.689  17.996   5.189 -0.29 -0.02    +0.052 C 
DOCKED: ATOM     20  C   UNL d   1       9.878  17.504   5.644 -0.12 +0.05    +0.066 A 
DOCKED: ATOM     21  C   UNL d   1      11.086  17.788   6.277 -0.09 -0.01    -0.025 A 
DOCKED: ATOM     22  C   UNL d   1      12.069  17.258   5.461 -0.07 -0.01    -0.021 A 
DOCKED: ATOM     23  C   UNL d   1      11.408  16.684   4.355 +0.08 +0.08    +0.066 A 
DOCKED: ATOM     24  C   UNL d   1      11.296  18.544   7.587 -0.05 +0.01    +0.051 C 
DOCKED: ATOM     25  N   UNL d   1      10.013  15.663   1.934 -0.06 -0.12    -0.248 N 
DOCKED: ATOM     26  N   UNL d   1       7.239  15.767   1.767 -0.04 -0.01    -0.248 N 
DOCKED: ATOM     27  N   UNL d   1       7.155  17.062   4.422 -0.13 -0.05    -0.248 N 
DOCKED: ATOM     28  N   UNL d   1      10.082  16.832   4.461 +0.09 -0.30    -0.248 N 
DOCKED: ATOM     29 FE   UNL d   1       8.502  16.404   3.254 -0.03 +0.00    +0.000 Fe
DOCKED: ENDROOT
DOCKED: BRANCH   6  30
DOCKED: ATOM     30  C   UNL d   1      13.561  15.197   0.731 -0.02 +0.00    +0.052 C 
DOCKED: BRANCH  30  31
DOCKED: ATOM     31  C   UNL d   1      14.076  16.525   0.176 +0.00 +0.00    +0.115 C 
DOCKED: BRANCH  31  32
DOCKED: ATOM     32  C   UNL d   1      13.452  17.719   0.866 +0.01 +0.01    +0.139 C 
DOCKED: ATOM     33  O   UNL d   1      14.072  18.296   1.747 +0.01 -0.04    -0.650 OA
DOCKED: BRANCH  32  34
DOCKED: ATOM     34  O   UNL d   1      12.241  18.204   0.505 +0.01 -0.01    -0.776 OA
DOCKED: ATOM     35  H   UNL d   1      11.753  18.873   1.004 +0.00 +0.00    +0.167 HD
DOCKED: ENDBRANCH  32  34
DOCKED: ENDBRANCH  31  32
DOCKED: ENDBRANCH  30  31
DOCKED: ENDBRANCH   6  30
DOCKED: BRANCH  29  36
DOCKED: ATOM     36  C   UNL d   1       8.715  18.248   2.281 -0.01 +0.02    +0.190 C 
DOCKED: BRANCH  36  37
DOCKED: ATOM     37  O   UNL d   1       9.616  19.019   1.538 +0.01 -0.01    -0.399 OA
DOCKED: ATOM     38  H   UNL d   1      10.409  18.428   1.405 +0.01 +0.01    +0.209 HD
DOCKED: ENDBRANCH  36  37
DOCKED: ENDBRANCH  29  36
DOCKED: BRANCH  22  39
DOCKED: ATOM     39  C   UNL d   1      13.563  17.361   5.704 -0.03 +0.02    +0.052 C 
DOCKED: BRANCH  39  40
DOCKED: ATOM     40  C   UNL d   1      14.022  16.298   6.717 -0.05 +0.04    +0.115 C 
DOCKED: BRANCH  40  41
DOCKED: ATOM     41  C   UNL d   1      13.102  15.101   6.827 -0.03 +0.13    +0.139 C 
DOCKED: ATOM     42  O   UNL d   1      13.436  14.040   6.318 -0.20 -0.68    -0.650 OA
DOCKED: BRANCH  41  43
DOCKED: ATOM     43  O   UNL d   1      11.959  15.148   7.547 -0.45 -0.81    -0.776 OA
DOCKED: ATOM     44  H   UNL d   1      11.857  14.685   8.389 -0.51 +0.07    +0.167 HD
DOCKED: ENDBRANCH  41  43
DOCKED: ENDBRANCH  40  41
DOCKED: ENDBRANCH  39  40
DOCKED: ENDBRANCH  22  39
DOCKED: BRANCH  12  45
DOCKED: ATOM     45  C   UNL d   1       3.658  15.355   0.810 -0.23 -0.00    +0.004 C 
DOCKED: ATOM     46  C   UNL d   1       2.811  15.364  -0.216 -0.28 -0.00    +0.012 C 
DOCKED: ENDBRANCH  12  45
DOCKED: BRANCH  17  47
DOCKED: ATOM     47  C   UNL d   1       6.021  19.022   7.295 -0.30 -0.00    +0.004 C 
DOCKED: ATOM     48  C   UNL d   1       6.696  18.794   8.424 -0.25 -0.00    +0.012 C 
DOCKED: ENDBRANCH  17  47
DOCKED: TORSDOF 12
DOCKED: TER
DOCKED: ENDMDL
________________________________________________________________________________


	BEGINNING GENETIC ALGORITHM DOCKING 18 of 100
Run: 18 Seed: 376158999 1564469804 [ Run 18 of 100 GA/GALS ]
Beginning LAMARCKIAN GENETIC ALGORITHM (LGA), with a maximum of 25000000 energy evaluations.

Final-Value: -10.094


	FINAL GENETIC ALGORITHM DOCKED STATE
	_______________________________________________


Detailed state:  trans -12.220 6.167 4.812 quatxyzw 0.175209 -0.540287 0.302168 -0.765563 center 8.781 34.984 -0.736 ntor 12 2.2944 124.1895 114.8749 17.1098 140.8709 93.4352 44.0109 -42.8226 -107.8712 -134.4657 4.7449 136.9707
State:	-12.220   6.167   4.812   0.272 -0.840  0.470 -80.086      2.29  124.19  114.87   17.11  140.87   93.44   44.01  -42.82 -107.87 -134.47    4.74  136.97

DOCKED: MODEL       18
DOCKED: USER    Run = 18
DOCKED: USER    DPF = D:/Protein_go_brrr/autodock/final/mut_N102T/heme_Co/dock.dpf
DOCKED: USER  
DOCKED: USER    Estimated Free Energy of Binding    =   -4.32 kcal/mol  [=(1)+(2)+(3)-(4)]
DOCKED: USER    Estimated Inhibition Constant, Ki   =  682.43 uM (micromolar)  [Temperature = 298.15 K]
DOCKED: USER    
DOCKED: USER    (1) Final Intermolecular Energy     =   -7.90 kcal/mol
DOCKED: USER        vdW + Hbond + desolv Energy     =   -6.85 kcal/mol
DOCKED: USER        Electrostatic Energy            =   -1.05 kcal/mol
DOCKED: USER    (2) Final Total Internal Energy     =   -2.19 kcal/mol
DOCKED: USER    (3) Torsional Free Energy           =   +3.58 kcal/mol
DOCKED: USER    (4) Unbound System's Energy  [=(2)] =   -2.19 kcal/mol
DOCKED: USER    
DOCKED: USER    
DOCKED: USER    NEWDPF move heme_Co_opt.pdbqt
DOCKED: USER    NEWDPF about 8.781000 34.984000 -0.736000
DOCKED: USER    NEWDPF tran0 -12.220417 6.167223 4.812384
DOCKED: USER    NEWDPF quaternion0 0.175209 -0.540287 0.302168 -0.765563
DOCKED: USER    NEWDPF axisangle0 0.272333 -0.839788 0.469671 -80.085762
DOCKED: USER    NEWDPF quat0 0.272333 -0.839788 0.469671 -80.085762
DOCKED: USER    NEWDPF dihe0 2.29 124.19 114.87 17.11 140.87 93.44 44.01 -42.82 -107.87 -134.47 4.74 136.97 
DOCKED: USER  keepresnum = 1 
DOCKED: USER  
DOCKED: REMARK  12 active torsions:
DOCKED: REMARK  status: ('A' for Active; 'I' for Inactive)
DOCKED: REMARK    1  A    between atoms: C_6  and  C_10 
DOCKED: REMARK    2  A    between atoms: C_10  and  C_11 
DOCKED: REMARK    3  A    between atoms: C_11  and  C_12 
DOCKED: REMARK    4  A    between atoms: C_12  and  O_14 
DOCKED: REMARK    5  A    between atoms: C_17  and  C_20 
DOCKED: REMARK    6  A    between atoms: C_24  and  C_27 
DOCKED: REMARK    7  A    between atoms: C_31  and  C_34 
DOCKED: REMARK    8  A    between atoms: C_34  and  C_35 
DOCKED: REMARK    9  A    between atoms: C_35  and  C_36 
DOCKED: REMARK   10  A    between atoms: C_36  and  O_38 
DOCKED: REMARK   11  A    between atoms: FE_43  and  C_44 
DOCKED: REMARK   12  A    between atoms: C_44  and  O_45 
DOCKED: USER                              x       y       z     vdW  Elec       q    Type
DOCKED: USER                           _______ _______ _______ _____ _____    ______ ____
DOCKED: ROOT
DOCKED: ATOM      1  C   UNL d   1     -12.385   6.521   2.676 -0.07 +0.01    +0.064 A 
DOCKED: ATOM      2  C   UNL d   1     -13.051   2.633   5.331 -0.16 -0.00    +0.064 C 
DOCKED: ATOM      3  C   UNL d   1     -11.574   4.988   9.217 -0.06 -0.00    +0.064 A 
DOCKED: ATOM      4  C   UNL d   1     -11.254   9.077   6.602 -0.21 -0.01    +0.064 A 
DOCKED: ATOM      5  C   UNL d   1     -12.640   5.276   3.109 -0.13 +0.01    +0.066 A 
DOCKED: ATOM      6  C   UNL d   1     -13.173   4.284   2.262 -0.10 -0.00    -0.021 A 
DOCKED: ATOM      7  C   UNL d   1     -13.385   3.165   3.043 -0.11 -0.00    -0.025 A 
DOCKED: ATOM      8  C   UNL d   1     -12.959   3.516   4.328 -0.14 +0.00    +0.066 A 
DOCKED: ATOM      9  C   UNL d   1     -13.968   1.811   2.610 -0.05 +0.01    +0.051 C 
DOCKED: ATOM     10  C   UNL d   1     -12.613   2.895   6.679 -0.17 -0.01    +0.066 A 
DOCKED: ATOM     11  C   UNL d   1     -12.552   1.967   7.742 -0.19 +0.00    -0.021 A 
DOCKED: ATOM     12  C   UNL d   1     -12.114   2.679   8.862 -0.23 -0.00    +0.000 A 
DOCKED: ATOM     13  C   UNL d   1     -11.929   3.982   8.398 -0.23 -0.00    +0.070 A 
DOCKED: ATOM     14  C   UNL d   1     -12.807   0.484   7.647 -0.18 -0.01    +0.052 C 
DOCKED: ATOM     15  C   UNL d   1     -11.390   6.394   8.920 -0.28 -0.00    +0.066 A 
DOCKED: ATOM     16  C   UNL d   1     -11.164   7.408   9.841 -0.28 +0.00    -0.021 A 
DOCKED: ATOM     17  C   UNL d   1     -11.073   8.589   9.092 -0.26 -0.00    +0.000 A 
DOCKED: ATOM     18  C   UNL d   1     -11.235   8.200   7.766 -0.25 -0.01    +0.070 A 
DOCKED: ATOM     19  C   UNL d   1     -11.049   7.223  11.338 -0.27 +0.00    +0.052 C 
DOCKED: ATOM     20  C   UNL d   1     -11.495   8.732   5.314 -0.21 -0.01    +0.066 A 
DOCKED: ATOM     21  C   UNL d   1     -11.522   9.672   4.286 -0.16 +0.00    -0.025 A 
DOCKED: ATOM     22  C   UNL d   1     -11.817   8.960   3.138 -0.14 +0.00    -0.021 A 
DOCKED: ATOM     23  C   UNL d   1     -11.968   7.612   3.528 -0.16 +0.00    +0.066 A 
DOCKED: ATOM     24  C   UNL d   1     -11.298  11.178   4.394 -0.12 -0.00    +0.051 C 
DOCKED: ATOM     25  N   UNL d   1     -12.487   4.815   4.397 -0.12 -0.02    -0.248 N 
DOCKED: ATOM     26  N   UNL d   1     -12.177   4.098   7.067 -0.14 +0.00    -0.248 N 
DOCKED: ATOM     27  N   UNL d   1     -11.451   6.891   7.704 -0.16 +0.02    -0.248 N 
DOCKED: ATOM     28  N   UNL d   1     -11.776   7.471   4.845 -0.09 -0.00    -0.248 N 
DOCKED: ATOM     29 FE   UNL d   1     -11.938   5.917   6.147 -0.05 +0.00    +0.000 Fe
DOCKED: ENDROOT
DOCKED: BRANCH   6  30
DOCKED: ATOM     30  C   UNL d   1     -13.533   4.445   0.789 -0.04 +0.01    +0.052 C 
DOCKED: BRANCH  30  31
DOCKED: ATOM     31  C   UNL d   1     -12.329   4.126  -0.097 -0.10 +0.03    +0.115 C 
DOCKED: BRANCH  31  32
DOCKED: ATOM     32  C   UNL d   1     -11.984   2.652  -0.093 -0.08 +0.09    +0.139 C 
DOCKED: ATOM     33  O   UNL d   1     -11.262   2.206   0.786 -0.32 -0.60    -0.650 OA
DOCKED: BRANCH  32  34
DOCKED: ATOM     34  O   UNL d   1     -12.491   1.794  -1.009 -0.50 -0.63    -0.776 OA
DOCKED: ATOM     35  H   UNL d   1     -13.116   2.046  -1.702 +0.02 +0.07    +0.167 HD
DOCKED: ENDBRANCH  32  34
DOCKED: ENDBRANCH  31  32
DOCKED: ENDBRANCH  30  31
DOCKED: ENDBRANCH   6  30
DOCKED: BRANCH  29  36
DOCKED: ATOM     36  C   UNL d   1     -13.980   6.313   6.402 -0.04 -0.00    +0.190 C 
DOCKED: BRANCH  36  37
DOCKED: ATOM     37  O   UNL d   1     -15.081   6.925   5.794 +0.00 +0.01    -0.399 OA
DOCKED: ATOM     38  H   UNL d   1     -14.780   7.130   4.865 +0.01 -0.00    +0.209 HD
DOCKED: ENDBRANCH  36  37
DOCKED: ENDBRANCH  29  36
DOCKED: BRANCH  22  39
DOCKED: ATOM     39  C   UNL d   1     -12.007   9.558   1.756 -0.07 -0.00    +0.052 C 
DOCKED: BRANCH  39  40
DOCKED: ATOM     40  C   UNL d   1     -13.404   9.223   1.207 -0.01 +0.00    +0.115 C 
DOCKED: BRANCH  40  41
DOCKED: ATOM     41  C   UNL d   1     -14.513   9.296   2.235 -0.01 -0.00    +0.139 C 
DOCKED: ATOM     42  O   UNL d   1     -15.169  10.323   2.336 +0.00 +0.01    -0.650 OA
DOCKED: BRANCH  41  43
DOCKED: ATOM     43  O   UNL d   1     -14.857   8.226   2.986 +0.02 +0.00    -0.776 OA
DOCKED: ATOM     44  H   UNL d   1     -14.825   8.238   3.952 +0.01 -0.00    +0.167 HD
DOCKED: ENDBRANCH  41  43
DOCKED: ENDBRANCH  40  41
DOCKED: ENDBRANCH  39  40
DOCKED: ENDBRANCH  22  39
DOCKED: BRANCH  12  45
DOCKED: ATOM     45  C   UNL d   1     -11.834   2.277  10.304 -0.25 -0.00    +0.004 C 
DOCKED: ATOM     46  C   UNL d   1     -11.787   1.076  10.874 -0.27 -0.00    +0.012 C 
DOCKED: ENDBRANCH  12  45
DOCKED: BRANCH  17  47
DOCKED: ATOM     47  C   UNL d   1     -10.901  10.000   9.552 -0.23 -0.00    +0.004 C 
DOCKED: ATOM     48  C   UNL d   1      -9.859  10.764   9.213 -0.26 -0.00    +0.012 C 
DOCKED: ENDBRANCH  17  47
DOCKED: TORSDOF 12
DOCKED: TER
DOCKED: ENDMDL
________________________________________________________________________________


	BEGINNING GENETIC ALGORITHM DOCKING 19 of 100
Run: 19 Seed: 311559541 1758599652 [ Run 19 of 100 GA/GALS ]
Beginning LAMARCKIAN GENETIC ALGORITHM (LGA), with a maximum of 25000000 energy evaluations.

Final-Value: -8.496


	FINAL GENETIC ALGORITHM DOCKED STATE
	_______________________________________________


Detailed state:  trans 11.478 16.561 9.438 quatxyzw 0.304604 0.605007 0.545105 0.494008 center 8.781 34.984 -0.736 ntor 12 -72.2816 109.7599 -112.7430 -36.9767 133.5927 158.8400 -102.9995 123.6387 60.0213 156.9799 17.1284 20.5716
State:	 11.478  16.561   9.438   0.350  0.696  0.627 120.791    -72.28  109.76 -112.74  -36.98  133.59  158.84 -103.00  123.64   60.02  156.98   17.13   20.57

DOCKED: MODEL       19
DOCKED: USER    Run = 19
DOCKED: USER    DPF = D:/Protein_go_brrr/autodock/final/mut_N102T/heme_Co/dock.dpf
DOCKED: USER  
DOCKED: USER    Estimated Free Energy of Binding    =   -4.43 kcal/mol  [=(1)+(2)+(3)-(4)]
DOCKED: USER    Estimated Inhibition Constant, Ki   =  569.49 uM (micromolar)  [Temperature = 298.15 K]
DOCKED: USER    
DOCKED: USER    (1) Final Intermolecular Energy     =   -8.01 kcal/mol
DOCKED: USER        vdW + Hbond + desolv Energy     =   -5.94 kcal/mol
DOCKED: USER        Electrostatic Energy            =   -2.06 kcal/mol
DOCKED: USER    (2) Final Total Internal Energy     =   -0.49 kcal/mol
DOCKED: USER    (3) Torsional Free Energy           =   +3.58 kcal/mol
DOCKED: USER    (4) Unbound System's Energy  [=(2)] =   -0.49 kcal/mol
DOCKED: USER    
DOCKED: USER    
DOCKED: USER    NEWDPF move heme_Co_opt.pdbqt
DOCKED: USER    NEWDPF about 8.781000 34.984000 -0.736000
DOCKED: USER    NEWDPF tran0 11.477810 16.561167 9.438283
DOCKED: USER    NEWDPF quaternion0 0.304604 0.605007 0.545105 0.494008
DOCKED: USER    NEWDPF axisangle0 0.350339 0.695844 0.626948 120.791321
DOCKED: USER    NEWDPF quat0 0.350339 0.695844 0.626948 120.791321
DOCKED: USER    NEWDPF dihe0 -72.28 109.76 -112.74 -36.98 133.59 158.84 -103.00 123.64 60.02 156.98 17.13 20.57 
DOCKED: USER  keepresnum = 1 
DOCKED: USER  
DOCKED: REMARK  12 active torsions:
DOCKED: REMARK  status: ('A' for Active; 'I' for Inactive)
DOCKED: REMARK    1  A    between atoms: C_6  and  C_10 
DOCKED: REMARK    2  A    between atoms: C_10  and  C_11 
DOCKED: REMARK    3  A    between atoms: C_11  and  C_12 
DOCKED: REMARK    4  A    between atoms: C_12  and  O_14 
DOCKED: REMARK    5  A    between atoms: C_17  and  C_20 
DOCKED: REMARK    6  A    between atoms: C_24  and  C_27 
DOCKED: REMARK    7  A    between atoms: C_31  and  C_34 
DOCKED: REMARK    8  A    between atoms: C_34  and  C_35 
DOCKED: REMARK    9  A    between atoms: C_35  and  C_36 
DOCKED: REMARK   10  A    between atoms: C_36  and  O_38 
DOCKED: REMARK   11  A    between atoms: FE_43  and  C_44 
DOCKED: REMARK   12  A    between atoms: C_44  and  O_45 
DOCKED: USER                              x       y       z     vdW  Elec       q    Type
DOCKED: USER                           _______ _______ _______ _____ _____    ______ ____
DOCKED: ROOT
DOCKED: ATOM      1  C   UNL d   1      12.788  16.184   7.748 -0.12 +0.03    +0.064 A 
DOCKED: ATOM      2  C   UNL d   1       8.972  18.971   8.272 -0.11 +0.00    +0.064 C 
DOCKED: ATOM      3  C   UNL d   1       8.290  17.273  12.686 -0.18 -0.01    +0.064 A 
DOCKED: ATOM      4  C   UNL d   1      12.405  14.704  12.318 -0.15 +0.00    +0.064 A 
DOCKED: ATOM      5  C   UNL d   1      11.774  17.043   7.554 -0.12 +0.03    +0.066 A 
DOCKED: ATOM      6  C   UNL d   1      11.662  17.813   6.380 -0.07 -0.01    -0.021 A 
DOCKED: ATOM      7  C   UNL d   1      10.566  18.637   6.547 -0.05 -0.01    -0.025 A 
DOCKED: ATOM      8  C   UNL d   1      10.047  18.323   7.807 -0.09 +0.01    +0.066 A 
DOCKED: ATOM      9  C   UNL d   1      10.017  19.685   5.567 -0.02 +0.01    +0.051 C 
DOCKED: ATOM     10  C   UNL d   1       8.352  18.698   9.545 -0.15 -0.01    +0.066 A 
DOCKED: ATOM     11  C   UNL d   1       7.143  19.244  10.029 -0.19 +0.01    -0.021 A 
DOCKED: ATOM     12  C   UNL d   1       6.966  18.728  11.316 -0.22 -0.00    +0.000 A 
DOCKED: ATOM     13  C   UNL d   1       8.070  17.900  11.517 -0.21 -0.01    +0.070 A 
DOCKED: ATOM     14  C   UNL d   1       6.188  20.120   9.260 -0.02 -0.02    +0.052 C 
DOCKED: ATOM     15  C   UNL d   1       9.399  16.426  13.082 -0.14 -0.01    +0.066 A 
DOCKED: ATOM     16  C   UNL d   1       9.640  15.927  14.354 -0.10 +0.00    -0.021 A 
DOCKED: ATOM     17  C   UNL d   1      10.827  15.187  14.253 -0.10 -0.00    +0.000 A 
DOCKED: ATOM     18  C   UNL d   1      11.209  15.280  12.919 -0.15 -0.00    +0.070 A 
DOCKED: ATOM     19  C   UNL d   1       8.770  16.163  15.568 -0.12 -0.02    +0.052 C 
DOCKED: ATOM     20  C   UNL d   1      12.841  14.853  11.045 -0.17 +0.00    +0.066 A 
DOCKED: ATOM     21  C   UNL d   1      14.028  14.278  10.593 -0.16 -0.00    -0.025 A 
DOCKED: ATOM     22  C   UNL d   1      14.150  14.664   9.271 -0.15 -0.00    -0.021 A 
DOCKED: ATOM     23  C   UNL d   1      13.029  15.471   8.982 -0.15 +0.01    +0.066 A 
DOCKED: ATOM     24  C   UNL d   1      15.009  13.421  11.389 -0.09 +0.01    +0.051 C 
DOCKED: ATOM     25  N   UNL d   1      10.772  17.334   8.451 -0.10 -0.06    -0.248 N 
DOCKED: ATOM     26  N   UNL d   1       8.878  17.839  10.424 -0.11 +0.01    -0.248 N 
DOCKED: ATOM     27  N   UNL d   1      10.352  16.051  12.258 -0.11 +0.01    -0.248 N 
DOCKED: ATOM     28  N   UNL d   1      12.235  15.589  10.054 -0.08 -0.01    -0.248 N 
DOCKED: ATOM     29 FE   UNL d   1      10.552  16.652  10.467 -0.04 +0.00    +0.000 Fe
DOCKED: ENDROOT
DOCKED: BRANCH   6  30
DOCKED: ATOM     30  C   UNL d   1      12.620  17.807   5.193 -0.04 +0.02    +0.052 C 
DOCKED: BRANCH  30  31
DOCKED: ATOM     31  C   UNL d   1      12.047  16.978   4.045 -0.05 +0.08    +0.115 C 
DOCKED: BRANCH  31  32
DOCKED: ATOM     32  C   UNL d   1      12.963  15.842   3.640 -0.02 +0.11    +0.139 C 
DOCKED: ATOM     33  O   UNL d   1      12.520  14.705   3.582 -0.46 -1.10    -0.650 OA
DOCKED: BRANCH  32  34
DOCKED: ATOM     34  O   UNL d   1      14.253  16.051   3.290 +0.01 -0.25    -0.776 OA
DOCKED: ATOM     35  H   UNL d   1      14.535  16.410   2.437 +0.01 +0.03    +0.167 HD
DOCKED: ENDBRANCH  32  34
DOCKED: ENDBRANCH  31  32
DOCKED: ENDBRANCH  30  31
DOCKED: ENDBRANCH   6  30
DOCKED: BRANCH  29  36
DOCKED: ATOM     36  C   UNL d   1      11.708  18.307  11.034 -0.02 -0.00    +0.190 C 
DOCKED: BRANCH  36  37
DOCKED: ATOM     37  O   UNL d   1      12.334  19.453  10.533 +0.00 +0.00    -0.399 OA
DOCKED: ATOM     38  H   UNL d   1      12.187  19.415   9.547 +0.01 +0.00    +0.209 HD
DOCKED: ENDBRANCH  36  37
DOCKED: ENDBRANCH  29  36
DOCKED: BRANCH  22  39
DOCKED: ATOM     39  C   UNL d   1      15.315  14.326   8.360 -0.09 +0.01    +0.052 C 
DOCKED: BRANCH  39  40
DOCKED: ATOM     40  C   UNL d   1      14.827  13.570   7.113 -0.12 +0.04    +0.115 C 
DOCKED: BRANCH  40  41
DOCKED: ATOM     41  C   UNL d   1      13.572  12.752   7.330 -0.28 +0.08    +0.139 C 
DOCKED: ATOM     42  O   UNL d   1      13.669  11.551   7.544 -0.01 -0.28    -0.650 OA
DOCKED: BRANCH  41  43
DOCKED: ATOM     43  O   UNL d   1      12.350  13.326   7.380 -0.32 -0.85    -0.776 OA
DOCKED: ATOM     44  H   UNL d   1      11.859  13.432   8.206 -0.42 +0.08    +0.167 HD
DOCKED: ENDBRANCH  41  43
DOCKED: ENDBRANCH  40  41
DOCKED: ENDBRANCH  39  40
DOCKED: ENDBRANCH  22  39
DOCKED: BRANCH  12  45
DOCKED: ATOM     45  C   UNL d   1       5.878  18.908  12.366 -0.22 -0.00    +0.004 C 
DOCKED: ATOM     46  C   UNL d   1       5.267  20.007  12.801 -0.25 -0.00    +0.012 C 
DOCKED: ENDBRANCH  12  45
DOCKED: BRANCH  17  47
DOCKED: ATOM     47  C   UNL d   1      11.601  14.478  15.315 -0.08 -0.00    +0.004 C 
DOCKED: ATOM     48  C   UNL d   1      11.717  13.149  15.379 -0.14 +0.00    +0.012 C 
DOCKED: ENDBRANCH  17  47
DOCKED: TORSDOF 12
DOCKED: TER
DOCKED: ENDMDL
________________________________________________________________________________


	BEGINNING GENETIC ALGORITHM DOCKING 20 of 100
Run: 20 Seed: 1155126504 1920555128 [ Run 20 of 100 GA/GALS ]
Beginning LAMARCKIAN GENETIC ALGORITHM (LGA), with a maximum of 25000000 energy evaluations.

Final-Value: -8.870


	FINAL GENETIC ALGORITHM DOCKED STATE
	_______________________________________________


Detailed state:  trans -7.605 12.762 3.089 quatxyzw 0.061979 -0.822802 -0.009098 -0.564865 center 8.781 34.984 -0.736 ntor 12 153.6076 110.0295 -15.4395 122.1285 135.8780 156.9466 -127.6412 147.6341 147.0209 169.8947 22.5550 10.9244
State:	 -7.605  12.762   3.089   0.075 -0.997 -0.011 -111.214    153.61  110.03  -15.44  122.13  135.88  156.95 -127.64  147.63  147.02  169.89   22.56   10.92

DOCKED: MODEL       20
DOCKED: USER    Run = 20
DOCKED: USER    DPF = D:/Protein_go_brrr/autodock/final/mut_N102T/heme_Co/dock.dpf
DOCKED: USER  
DOCKED: USER    Estimated Free Energy of Binding    =   -3.33 kcal/mol  [=(1)+(2)+(3)-(4)]
DOCKED: USER    Estimated Inhibition Constant, Ki   =    3.61 mM (millimolar)  [Temperature = 298.15 K]
DOCKED: USER    
DOCKED: USER    (1) Final Intermolecular Energy     =   -6.91 kcal/mol
DOCKED: USER        vdW + Hbond + desolv Energy     =   -6.03 kcal/mol
DOCKED: USER        Electrostatic Energy            =   -0.88 kcal/mol
DOCKED: USER    (2) Final Total Internal Energy     =   -1.96 kcal/mol
DOCKED: USER    (3) Torsional Free Energy           =   +3.58 kcal/mol
DOCKED: USER    (4) Unbound System's Energy  [=(2)] =   -1.96 kcal/mol
DOCKED: USER    
DOCKED: USER    
DOCKED: USER    NEWDPF move heme_Co_opt.pdbqt
DOCKED: USER    NEWDPF about 8.781000 34.984000 -0.736000
DOCKED: USER    NEWDPF tran0 -7.604529 12.761941 3.089181
DOCKED: USER    NEWDPF quaternion0 0.061979 -0.822802 -0.009098 -0.564865
DOCKED: USER    NEWDPF axisangle0 0.075110 -0.997114 -0.011026 -111.214162
DOCKED: USER    NEWDPF quat0 0.075110 -0.997114 -0.011026 -111.214162
DOCKED: USER    NEWDPF dihe0 153.61 110.03 -15.44 122.13 135.88 156.95 -127.64 147.63 147.02 169.89 22.56 10.92 
DOCKED: USER  keepresnum = 1 
DOCKED: USER  
DOCKED: REMARK  12 active torsions:
DOCKED: REMARK  status: ('A' for Active; 'I' for Inactive)
DOCKED: REMARK    1  A    between atoms: C_6  and  C_10 
DOCKED: REMARK    2  A    between atoms: C_10  and  C_11 
DOCKED: REMARK    3  A    between atoms: C_11  and  C_12 
DOCKED: REMARK    4  A    between atoms: C_12  and  O_14 
DOCKED: REMARK    5  A    between atoms: C_17  and  C_20 
DOCKED: REMARK    6  A    between atoms: C_24  and  C_27 
DOCKED: REMARK    7  A    between atoms: C_31  and  C_34 
DOCKED: REMARK    8  A    between atoms: C_34  and  C_35 
DOCKED: REMARK    9  A    between atoms: C_35  and  C_36 
DOCKED: REMARK   10  A    between atoms: C_36  and  O_38 
DOCKED: REMARK   11  A    between atoms: FE_43  and  C_44 
DOCKED: REMARK   12  A    between atoms: C_44  and  O_45 
DOCKED: USER                              x       y       z     vdW  Elec       q    Type
DOCKED: USER                           _______ _______ _______ _____ _____    ______ ____
DOCKED: ROOT
DOCKED: ATOM      1  C   UNL d   1      -6.174  13.521   1.643 -0.11 +0.01    +0.064 A 
DOCKED: ATOM      2  C   UNL d   1      -9.852  10.535   1.234 -0.11 +0.00    +0.064 C 
DOCKED: ATOM      3  C   UNL d   1     -10.529  10.663   5.962 -0.19 -0.01    +0.064 A 
DOCKED: ATOM      4  C   UNL d   1      -7.023  14.012   6.361 -0.24 -0.01    +0.064 A 
DOCKED: ATOM      5  C   UNL d   1      -7.106  12.667   1.188 -0.09 +0.01    +0.066 A 
DOCKED: ATOM      6  C   UNL d   1      -7.280  12.413  -0.187 -0.08 -0.00    -0.021 A 
DOCKED: ATOM      7  C   UNL d   1      -8.363  11.564  -0.301 -0.07 -0.00    -0.025 A 
DOCKED: ATOM      8  C   UNL d   1      -8.793  11.323   1.009 -0.10 +0.00    +0.066 A 
DOCKED: ATOM      9  C   UNL d   1      -8.982  10.993  -1.586 -0.05 +0.00    +0.051 C 
DOCKED: ATOM     10  C   UNL d   1     -10.350  10.209   2.547 -0.06 -0.00    +0.066 A 
DOCKED: ATOM     11  C   UNL d   1     -11.367   9.279   2.857 -0.15 +0.00    -0.021 A 
DOCKED: ATOM     12  C   UNL d   1     -11.541   9.334   4.243 -0.18 -0.00    +0.000 A 
DOCKED: ATOM     13  C   UNL d   1     -10.612  10.281   4.676 -0.14 -0.01    +0.070 A 
DOCKED: ATOM     14  C   UNL d   1     -12.044   8.343   1.890 -0.11 +0.00    +0.052 C 
DOCKED: ATOM     15  C   UNL d   1      -9.670  11.659   6.572 -0.18 -0.01    +0.066 A 
DOCKED: ATOM     16  C   UNL d   1      -9.734  12.110   7.883 -0.22 +0.00    -0.021 A 
DOCKED: ATOM     17  C   UNL d   1      -8.727  13.078   8.002 -0.23 -0.00    +0.000 A 
DOCKED: ATOM     18  C   UNL d   1      -8.114  13.129   6.754 -0.26 -0.01    +0.070 A 
DOCKED: ATOM     19  C   UNL d   1     -10.712  11.626   8.930 -0.15 -0.01    +0.052 C 
DOCKED: ATOM     20  C   UNL d   1      -6.469  14.140   5.131 -0.21 -0.00    +0.066 A 
DOCKED: ATOM     21  C   UNL d   1      -5.449  15.052   4.867 -0.15 -0.00    -0.025 A 
DOCKED: ATOM     22  C   UNL d   1      -5.164  14.912   3.521 -0.14 -0.00    -0.021 A 
DOCKED: ATOM     23  C   UNL d   1      -6.039  13.923   3.024 -0.08 +0.01    +0.066 A 
DOCKED: ATOM     24  C   UNL d   1      -4.791  16.022   5.844 -0.11 -0.00    +0.051 C 
DOCKED: ATOM     25  N   UNL d   1      -8.029  11.990   1.952 -0.07 -0.01    -0.248 N 
DOCKED: ATOM     26  N   UNL d   1      -9.855  10.768   3.657 +0.04 +0.01    -0.248 N 
DOCKED: ATOM     27  N   UNL d   1      -8.721  12.292   5.920 -0.19 +0.02    -0.248 N 
DOCKED: ATOM     28  N   UNL d   1      -6.833  13.455   3.995 -0.09 -0.01    -0.248 N 
DOCKED: ATOM     29 FE   UNL d   1      -8.392  12.152   4.054 -0.05 +0.00    +0.000 Fe
DOCKED: ENDROOT
DOCKED: BRANCH   6  30
DOCKED: ATOM     30  C   UNL d   1      -6.486  13.030  -1.333 -0.08 +0.01    +0.052 C 
DOCKED: BRANCH  30  31
DOCKED: ATOM     31  C   UNL d   1      -5.527  12.005  -1.935 -0.17 +0.03    +0.115 C 
DOCKED: BRANCH  31  32
DOCKED: ATOM     32  C   UNL d   1      -4.964  11.060  -0.895 -0.25 +0.05    +0.139 C 
DOCKED: ATOM     33  O   UNL d   1      -5.411   9.926  -0.809 +0.00 -0.13    -0.650 OA
DOCKED: BRANCH  32  34
DOCKED: ATOM     34  O   UNL d   1      -3.943  11.414  -0.082 -0.34 -0.68    -0.776 OA
DOCKED: ATOM     35  H   UNL d   1      -3.822  11.078   0.817 +0.08 +0.11    +0.167 HD
DOCKED: ENDBRANCH  32  34
DOCKED: ENDBRANCH  31  32
DOCKED: ENDBRANCH  30  31
DOCKED: ENDBRANCH   6  30
DOCKED: BRANCH  29  36
DOCKED: ATOM     36  C   UNL d   1      -9.731  13.697   3.589 -0.05 -0.00    +0.190 C 
DOCKED: BRANCH  36  37
DOCKED: ATOM     37  O   UNL d   1     -10.294  14.399   2.518 -0.00 +0.00    -0.399 OA
DOCKED: ATOM     38  H   UNL d   1      -9.850  14.026   1.706 +0.01 +0.00    +0.209 HD
DOCKED: ENDBRANCH  36  37
DOCKED: ENDBRANCH  29  36
DOCKED: BRANCH  22  39
DOCKED: ATOM     39  C   UNL d   1      -4.150  15.733   2.747 -0.11 +0.01    +0.052 C 
DOCKED: BRANCH  39  40
DOCKED: ATOM     40  C   UNL d   1      -2.966  14.857   2.304 -0.20 +0.04    +0.115 C 
DOCKED: BRANCH  40  41
DOCKED: ATOM     41  C   UNL d   1      -2.870  13.527   3.022 -0.35 +0.05    +0.139 C 
DOCKED: ATOM     42  O   UNL d   1      -2.479  13.500   4.181 -0.05 -0.10    -0.650 OA
DOCKED: BRANCH  41  43
DOCKED: ATOM     43  O   UNL d   1      -3.287  12.378   2.447 -0.07 -0.38    -0.776 OA
DOCKED: ATOM     44  H   UNL d   1      -3.778  12.362   1.615 +0.06 +0.11    +0.167 HD
DOCKED: ENDBRANCH  41  43
DOCKED: ENDBRANCH  40  41
DOCKED: ENDBRANCH  39  40
DOCKED: ENDBRANCH  22  39
DOCKED: BRANCH  12  45
DOCKED: ATOM     45  C   UNL d   1     -12.459   8.591   5.204 -0.15 -0.00    +0.004 C 
DOCKED: ATOM     46  C   UNL d   1     -12.180   7.717   6.167 -0.20 -0.00    +0.012 C 
DOCKED: ENDBRANCH  12  45
DOCKED: BRANCH  17  47
DOCKED: ATOM     47  C   UNL d   1      -8.370  13.946   9.164 -0.18 -0.00    +0.004 C 
DOCKED: ATOM     48  C   UNL d   1      -7.212  13.856   9.823 -0.24 -0.00    +0.012 C 
DOCKED: ENDBRANCH  17  47
DOCKED: TORSDOF 12
DOCKED: TER
DOCKED: ENDMDL
________________________________________________________________________________


	BEGINNING GENETIC ALGORITHM DOCKING 21 of 100
Run: 21 Seed: 1084368137 1438993001 [ Run 21 of 100 GA/GALS ]
Beginning LAMARCKIAN GENETIC ALGORITHM (LGA), with a maximum of 25000000 energy evaluations.

Final-Value: -8.565


	FINAL GENETIC ALGORITHM DOCKED STATE
	_______________________________________________


Detailed state:  trans 11.334 9.090 -15.449 quatxyzw -0.476143 -0.566476 -0.376511 -0.557344 center 8.781 34.984 -0.736 ntor 12 109.4559 91.1645 106.0257 138.1951 108.8043 125.5323 42.8623 -48.6232 153.1511 177.6310 -153.0739 180.0000
State:	 11.334   9.090 -15.449  -0.573 -0.682 -0.453 -112.255    109.46   91.16  106.03  138.20  108.80  125.53   42.86  -48.62  153.15  177.63 -153.07  180.00

DOCKED: MODEL       21
DOCKED: USER    Run = 21
DOCKED: USER    DPF = D:/Protein_go_brrr/autodock/final/mut_N102T/heme_Co/dock.dpf
DOCKED: USER  
DOCKED: USER    Estimated Free Energy of Binding    =   -2.11 kcal/mol  [=(1)+(2)+(3)-(4)]
DOCKED: USER    Estimated Inhibition Constant, Ki   =   28.62 mM (millimolar)  [Temperature = 298.15 K]
DOCKED: USER    
DOCKED: USER    (1) Final Intermolecular Energy     =   -5.69 kcal/mol
DOCKED: USER        vdW + Hbond + desolv Energy     =   -5.64 kcal/mol
DOCKED: USER        Electrostatic Energy            =   -0.04 kcal/mol
DOCKED: USER    (2) Final Total Internal Energy     =   -2.88 kcal/mol
DOCKED: USER    (3) Torsional Free Energy           =   +3.58 kcal/mol
DOCKED: USER    (4) Unbound System's Energy  [=(2)] =   -2.88 kcal/mol
DOCKED: USER    
DOCKED: USER    
DOCKED: USER    NEWDPF move heme_Co_opt.pdbqt
DOCKED: USER    NEWDPF about 8.781000 34.984000 -0.736000
DOCKED: USER    NEWDPF tran0 11.333617 9.089974 -15.449466
DOCKED: USER    NEWDPF quaternion0 -0.476143 -0.566476 -0.376511 -0.557344
DOCKED: USER    NEWDPF axisangle0 -0.573471 -0.682270 -0.453474 -112.255430
DOCKED: USER    NEWDPF quat0 -0.573471 -0.682270 -0.453474 -112.255430
DOCKED: USER    NEWDPF dihe0 109.46 91.16 106.03 138.20 108.80 125.53 42.86 -48.62 153.15 177.63 -153.07 180.00 
DOCKED: USER  keepresnum = 1 
DOCKED: USER  
DOCKED: REMARK  12 active torsions:
DOCKED: REMARK  status: ('A' for Active; 'I' for Inactive)
DOCKED: REMARK    1  A    between atoms: C_6  and  C_10 
DOCKED: REMARK    2  A    between atoms: C_10  and  C_11 
DOCKED: REMARK    3  A    between atoms: C_11  and  C_12 
DOCKED: REMARK    4  A    between atoms: C_12  and  O_14 
DOCKED: REMARK    5  A    between atoms: C_17  and  C_20 
DOCKED: REMARK    6  A    between atoms: C_24  and  C_27 
DOCKED: REMARK    7  A    between atoms: C_31  and  C_34 
DOCKED: REMARK    8  A    between atoms: C_34  and  C_35 
DOCKED: REMARK    9  A    between atoms: C_35  and  C_36 
DOCKED: REMARK   10  A    between atoms: C_36  and  O_38 
DOCKED: REMARK   11  A    between atoms: FE_43  and  C_44 
DOCKED: REMARK   12  A    between atoms: C_44  and  O_45 
DOCKED: USER                              x       y       z     vdW  Elec       q    Type
DOCKED: USER                           _______ _______ _______ _____ _____    ______ ____
DOCKED: ROOT
DOCKED: ATOM      1  C   UNL d   1      11.900   8.176 -17.336 -0.12 +0.01    +0.064 A 
DOCKED: ATOM      2  C   UNL d   1       8.423  11.202 -16.168 -0.19 -0.03    +0.064 C 
DOCKED: ATOM      3  C   UNL d   1       9.631  10.870 -11.558 -0.19 -0.02    +0.064 A 
DOCKED: ATOM      4  C   UNL d   1      13.429   8.081 -12.767 -0.17 -0.01    +0.064 A 
DOCKED: ATOM      5  C   UNL d   1      10.838   8.999 -17.352 -0.03 +0.02    +0.066 A 
DOCKED: ATOM      6  C   UNL d   1      10.227   9.408 -18.553 -0.08 -0.01    -0.021 A 
DOCKED: ATOM      7  C   UNL d   1       9.234  10.304 -18.210 -0.15 -0.01    -0.025 A 
DOCKED: ATOM      8  C   UNL d   1       9.270  10.390 -16.814 -0.17 +0.00    +0.066 A 
DOCKED: ATOM      9  C   UNL d   1       8.280  11.058 -19.148 -0.14 -0.01    +0.051 C 
DOCKED: ATOM     10  C   UNL d   1       8.369  11.337 -14.734 -0.19 -0.02    +0.066 A 
DOCKED: ATOM     11  C   UNL d   1       7.413  12.063 -13.990 -0.22 +0.01    -0.021 A 
DOCKED: ATOM     12  C   UNL d   1       7.787  11.946 -12.649 -0.23 -0.00    +0.000 A 
DOCKED: ATOM     13  C   UNL d   1       8.932  11.149 -12.672 -0.19 -0.02    +0.070 A 
DOCKED: ATOM     14  C   UNL d   1       6.180  12.735 -14.537 -0.28 -0.03    +0.052 C 
DOCKED: ATOM     15  C   UNL d   1      10.858  10.112 -11.407 -0.16 -0.02    +0.066 A 
DOCKED: ATOM     16  C   UNL d   1      11.608   9.982 -10.247 -0.20 +0.01    -0.021 A 
DOCKED: ATOM     17  C   UNL d   1      12.706   9.181 -10.591 -0.21 -0.00    +0.000 A 
DOCKED: ATOM     18  C   UNL d   1      12.529   8.869 -11.935 -0.17 -0.02    +0.070 A 
DOCKED: ATOM     19  C   UNL d   1      11.269  10.602  -8.909 -0.21 -0.02    +0.052 C 
DOCKED: ATOM     20  C   UNL d   1      13.322   7.837 -14.095 -0.17 -0.01    +0.066 A 
DOCKED: ATOM     21  C   UNL d   1      14.272   7.094 -14.793 -0.11 +0.00    -0.025 A 
DOCKED: ATOM     22  C   UNL d   1      13.842   7.080 -16.108 -0.09 +0.00    -0.021 A 
DOCKED: ATOM     23  C   UNL d   1      12.649   7.831 -16.149 -0.14 +0.00    +0.066 A 
DOCKED: ATOM     24  C   UNL d   1      15.538   6.446 -14.240 -0.06 -0.01    +0.051 C 
DOCKED: ATOM     25  N   UNL d   1      10.250   9.588 -16.255 -0.10 -0.04    -0.248 N 
DOCKED: ATOM     26  N   UNL d   1       9.250  10.736 -13.928 -0.13 +0.05    -0.248 N 
DOCKED: ATOM     27  N   UNL d   1      11.434   9.465 -12.395 -0.12 +0.07    -0.248 N 
DOCKED: ATOM     28  N   UNL d   1      12.332   8.293 -14.933 -0.13 -0.00    -0.248 N 
DOCKED: ATOM     29 FE   UNL d   1      10.880   9.520 -14.212 -0.04 -0.00    +0.000 Fe
DOCKED: ENDROOT
DOCKED: BRANCH   6  30
DOCKED: ATOM     30  C   UNL d   1      10.643   9.012 -19.966 -0.08 +0.02    +0.052 C 
DOCKED: BRANCH  30  31
DOCKED: ATOM     31  C   UNL d   1      11.991   9.639 -20.324 -0.02 +0.01    +0.115 C 
DOCKED: BRANCH  31  32
DOCKED: ATOM     32  C   UNL d   1      12.232  10.945 -19.599 -0.00 +0.01    +0.139 C 
DOCKED: ATOM     33  O   UNL d   1      11.815  11.987 -20.082 +0.02 -0.01    -0.650 OA
DOCKED: BRANCH  32  34
DOCKED: ATOM     34  O   UNL d   1      12.856  10.995 -18.399 +0.02 -0.01    -0.776 OA
DOCKED: ATOM     35  H   UNL d   1      13.766  11.298 -18.272 +0.01 -0.00    +0.167 HD
DOCKED: ENDBRANCH  32  34
DOCKED: ENDBRANCH  31  32
DOCKED: ENDBRANCH  30  31
DOCKED: ENDBRANCH   6  30
DOCKED: BRANCH  29  36
DOCKED: ATOM     36  C   UNL d   1      12.057  11.202 -14.636 -0.04 -0.02    +0.190 C 
DOCKED: BRANCH  36  37
DOCKED: ATOM     37  O   UNL d   1      12.758  11.841 -15.665 +0.00 +0.02    -0.399 OA
DOCKED: ATOM     38  H   UNL d   1      12.943  11.123 -16.333 +0.02 -0.01    +0.209 HD
DOCKED: ENDBRANCH  36  37
DOCKED: ENDBRANCH  29  36
DOCKED: BRANCH  22  39
DOCKED: ATOM     39  C   UNL d   1      14.578   6.434 -17.267 -0.04 -0.00    +0.052 C 
DOCKED: BRANCH  39  40
DOCKED: ATOM     40  C   UNL d   1      15.737   7.326 -17.739 -0.01 -0.00    +0.115 C 
DOCKED: BRANCH  40  41
DOCKED: ATOM     41  C   UNL d   1      15.772   8.697 -17.097 -0.01 -0.00    +0.139 C 
DOCKED: ATOM     42  O   UNL d   1      16.392   8.854 -16.054 +0.01 +0.02    -0.650 OA
DOCKED: BRANCH  41  43
DOCKED: ATOM     43  O   UNL d   1      15.210   9.774 -17.689 +0.01 +0.01    -0.776 OA
DOCKED: ATOM     44  H   UNL d   1      14.432  10.218 -17.328 +0.01 -0.00    +0.167 HD
DOCKED: ENDBRANCH  41  43
DOCKED: ENDBRANCH  40  41
DOCKED: ENDBRANCH  39  40
DOCKED: ENDBRANCH  22  39
DOCKED: BRANCH  12  45
DOCKED: ATOM     45  C   UNL d   1       7.187  12.476 -11.353 -0.28 -0.00    +0.004 C 
DOCKED: ATOM     46  C   UNL d   1       6.888  11.850 -10.218 -0.36 -0.00    +0.012 C 
DOCKED: ENDBRANCH  12  45
DOCKED: BRANCH  17  47
DOCKED: ATOM     47  C   UNL d   1      13.877   8.761  -9.765 -0.20 -0.00    +0.004 C 
DOCKED: ATOM     48  C   UNL d   1      13.880   7.676  -8.988 -0.28 -0.00    +0.012 C 
DOCKED: ENDBRANCH  17  47
DOCKED: TORSDOF 12
DOCKED: TER
DOCKED: ENDMDL
________________________________________________________________________________


	BEGINNING GENETIC ALGORITHM DOCKING 22 of 100
Run: 22 Seed: 841705139 596842966 [ Run 22 of 100 GA/GALS ]
Beginning LAMARCKIAN GENETIC ALGORITHM (LGA), with a maximum of 25000000 energy evaluations.

Final-Value: -9.026


	FINAL GENETIC ALGORITHM DOCKED STATE
	_______________________________________________


Detailed state:  trans -4.478 17.333 -15.613 quatxyzw -0.538133 0.646452 0.107070 0.530141 center 8.781 34.984 -0.736 ntor 12 -50.9720 108.9133 -50.3644 -108.1608 156.2227 133.2983 -161.5657 -180.0000 -128.0974 131.0869 -23.1029 36.0027
State:	 -4.478  17.333 -15.613  -0.635  0.762  0.126 115.970    -50.97  108.91  -50.36 -108.16  156.22  133.30 -161.57 -180.00 -128.10  131.09  -23.10   36.00

DOCKED: MODEL       22
DOCKED: USER    Run = 22
DOCKED: USER    DPF = D:/Protein_go_brrr/autodock/final/mut_N102T/heme_Co/dock.dpf
DOCKED: USER  
DOCKED: USER    Estimated Free Energy of Binding    =   -3.43 kcal/mol  [=(1)+(2)+(3)-(4)]
DOCKED: USER    Estimated Inhibition Constant, Ki   =    3.08 mM (millimolar)  [Temperature = 298.15 K]
DOCKED: USER    
DOCKED: USER    (1) Final Intermolecular Energy     =   -7.01 kcal/mol
DOCKED: USER        vdW + Hbond + desolv Energy     =   -5.13 kcal/mol
DOCKED: USER        Electrostatic Energy            =   -1.88 kcal/mol
DOCKED: USER    (2) Final Total Internal Energy     =   -2.02 kcal/mol
DOCKED: USER    (3) Torsional Free Energy           =   +3.58 kcal/mol
DOCKED: USER    (4) Unbound System's Energy  [=(2)] =   -2.02 kcal/mol
DOCKED: USER    
DOCKED: USER    
DOCKED: USER    NEWDPF move heme_Co_opt.pdbqt
DOCKED: USER    NEWDPF about 8.781000 34.984000 -0.736000
DOCKED: USER    NEWDPF tran0 -4.478079 17.332785 -15.612638
DOCKED: USER    NEWDPF quaternion0 -0.538133 0.646452 0.107070 0.530141
DOCKED: USER    NEWDPF axisangle0 -0.634658 0.762407 0.126275 115.970091
DOCKED: USER    NEWDPF quat0 -0.634658 0.762407 0.126275 115.970091
DOCKED: USER    NEWDPF dihe0 -50.97 108.91 -50.36 -108.16 156.22 133.30 -161.57 -180.00 -128.10 131.09 -23.10 36.00 
DOCKED: USER  keepresnum = 1 
DOCKED: USER  
DOCKED: REMARK  12 active torsions:
DOCKED: REMARK  status: ('A' for Active; 'I' for Inactive)
DOCKED: REMARK    1  A    between atoms: C_6  and  C_10 
DOCKED: REMARK    2  A    between atoms: C_10  and  C_11 
DOCKED: REMARK    3  A    between atoms: C_11  and  C_12 
DOCKED: REMARK    4  A    between atoms: C_12  and  O_14 
DOCKED: REMARK    5  A    between atoms: C_17  and  C_20 
DOCKED: REMARK    6  A    between atoms: C_24  and  C_27 
DOCKED: REMARK    7  A    between atoms: C_31  and  C_34 
DOCKED: REMARK    8  A    between atoms: C_34  and  C_35 
DOCKED: REMARK    9  A    between atoms: C_35  and  C_36 
DOCKED: REMARK   10  A    between atoms: C_36  and  O_38 
DOCKED: REMARK   11  A    between atoms: FE_43  and  C_44 
DOCKED: REMARK   12  A    between atoms: C_44  and  O_45 
DOCKED: USER                              x       y       z     vdW  Elec       q    Type
DOCKED: USER                           _______ _______ _______ _____ _____    ______ ____
DOCKED: ROOT
DOCKED: ATOM      1  C   UNL d   1      -4.361  19.465 -16.009 -0.03 +0.02    +0.064 A 
DOCKED: ATOM      2  C   UNL d   1      -5.625  15.773 -18.727 -0.11 +0.02    +0.064 C 
DOCKED: ATOM      3  C   UNL d   1      -4.447  12.743 -15.226 -0.15 -0.00    +0.064 A 
DOCKED: ATOM      4  C   UNL d   1      -3.515  16.513 -12.296 -0.05 +0.00    +0.064 A 
DOCKED: ATOM      5  C   UNL d   1      -4.759  18.677 -17.022 -0.06 +0.03    +0.066 A 
DOCKED: ATOM      6  C   UNL d   1      -5.260  19.205 -18.228 -0.06 -0.01    -0.021 A 
DOCKED: ATOM      7  C   UNL d   1      -5.646  18.130 -19.004 -0.07 -0.01    -0.025 A 
DOCKED: ATOM      8  C   UNL d   1      -5.350  16.992 -18.246 -0.08 +0.03    +0.066 A 
DOCKED: ATOM      9  C   UNL d   1      -6.273  18.157 -20.407 -0.05 +0.02    +0.051 C 
DOCKED: ATOM     10  C   UNL d   1      -5.332  14.545 -18.032 -0.14 +0.02    +0.066 A 
DOCKED: ATOM     11  C   UNL d   1      -5.467  13.235 -18.539 -0.16 -0.00    -0.021 A 
DOCKED: ATOM     12  C   UNL d   1      -5.113  12.371 -17.499 -0.26 +0.00    +0.000 A 
DOCKED: ATOM     13  C   UNL d   1      -4.777  13.216 -16.441 -0.22 +0.01    +0.070 A 
DOCKED: ATOM     14  C   UNL d   1      -5.819  12.859 -19.956 -0.11 +0.01    +0.052 C 
DOCKED: ATOM     15  C   UNL d   1      -4.125  13.469 -14.013 -0.16 -0.00    +0.066 A 
DOCKED: ATOM     16  C   UNL d   1      -3.934  12.921 -12.752 -0.27 +0.00    -0.021 A 
DOCKED: ATOM     17  C   UNL d   1      -3.668  14.005 -11.903 -0.22 -0.00    +0.000 A 
DOCKED: ATOM     18  C   UNL d   1      -3.700  15.130 -12.719 -0.12 +0.00    +0.070 A 
DOCKED: ATOM     19  C   UNL d   1      -4.011  11.449 -12.415 -0.41 -0.01    +0.052 C 
DOCKED: ATOM     20  C   UNL d   1      -3.628  17.629 -13.054 -0.02 +0.00    +0.066 A 
DOCKED: ATOM     21  C   UNL d   1      -3.463  18.907 -12.524 -0.01 -0.00    -0.025 A 
DOCKED: ATOM     22  C   UNL d   1      -3.672  19.778 -13.578 -0.01 -0.00    -0.021 A 
DOCKED: ATOM     23  C   UNL d   1      -3.969  18.982 -14.705 -0.02 +0.01    +0.066 A 
DOCKED: ATOM     24  C   UNL d   1      -3.141  19.283 -11.080 -0.01 +0.00    +0.051 C 
DOCKED: ATOM     25  N   UNL d   1      -4.794  17.301 -17.016 -0.07 -0.10    -0.248 N 
DOCKED: ATOM     26  N   UNL d   1      -4.856  14.530 -16.782 -0.13 -0.05    -0.248 N 
DOCKED: ATOM     27  N   UNL d   1      -4.005  14.777 -13.963 -0.11 -0.02    -0.248 N 
DOCKED: ATOM     28  N   UNL d   1      -3.945  17.681 -14.391 -0.02 -0.04    -0.248 N 
DOCKED: ATOM     29 FE   UNL d   1      -4.375  15.967 -15.397 -0.02 +0.00    +0.000 Fe
DOCKED: ENDROOT
DOCKED: BRANCH   6  30
DOCKED: ATOM     30  C   UNL d   1      -5.430  20.681 -18.573 -0.03 +0.02    +0.052 C 
DOCKED: BRANCH  30  31
DOCKED: ATOM     31  C   UNL d   1      -4.081  21.398 -18.548 -0.03 +0.05    +0.115 C 
DOCKED: BRANCH  31  32
DOCKED: ATOM     32  C   UNL d   1      -3.026  20.671 -19.354 +0.10 +0.16    +0.139 C 
DOCKED: ATOM     33  O   UNL d   1      -3.124  20.629 -20.572 -0.56 -0.86    -0.650 OA
DOCKED: BRANCH  32  34
DOCKED: ATOM     34  O   UNL d   1      -1.944  20.102 -18.773 -0.06 -1.16    -0.776 OA
DOCKED: ATOM     35  H   UNL d   1      -1.324  20.574 -18.200 +0.00 +0.14    +0.167 HD
DOCKED: ENDBRANCH  32  34
DOCKED: ENDBRANCH  31  32
DOCKED: ENDBRANCH  30  31
DOCKED: ENDBRANCH   6  30
DOCKED: BRANCH  29  36
DOCKED: ATOM     36  C   UNL d   1      -6.398  16.141 -14.878 -0.02 +0.02    +0.190 C 
DOCKED: BRANCH  36  37
DOCKED: ATOM     37  O   UNL d   1      -7.520  16.963 -15.027 +0.00 -0.03    -0.399 OA
DOCKED: ATOM     38  H   UNL d   1      -7.188  17.763 -15.524 +0.01 +0.02    +0.209 HD
DOCKED: ENDBRANCH  36  37
DOCKED: ENDBRANCH  29  36
DOCKED: BRANCH  22  39
DOCKED: ATOM     39  C   UNL d   1      -3.652  21.292 -13.486 -0.00 +0.00    +0.052 C 
DOCKED: BRANCH  39  40
DOCKED: ATOM     40  C   UNL d   1      -2.901  21.899 -14.683 -0.00 +0.01    +0.115 C 
DOCKED: BRANCH  40  41
DOCKED: ATOM     41  C   UNL d   1      -1.498  21.362 -14.878 -0.00 +0.02    +0.139 C 
DOCKED: ATOM     42  O   UNL d   1      -0.781  21.192 -13.901 +0.01 -0.05    -0.650 OA
DOCKED: BRANCH  41  43
DOCKED: ATOM     43  O   UNL d   1      -1.046  20.981 -16.093 +0.02 -0.20    -0.776 OA
DOCKED: ATOM     44  H   UNL d   1      -1.577  20.453 -16.703 +0.01 +0.07    +0.167 HD
DOCKED: ENDBRANCH  41  43
DOCKED: ENDBRANCH  40  41
DOCKED: ENDBRANCH  39  40
DOCKED: ENDBRANCH  22  39
DOCKED: BRANCH  12  45
DOCKED: ATOM     45  C   UNL d   1      -5.035  10.854 -17.389 -0.46 -0.00    +0.004 C 
DOCKED: ATOM     46  C   UNL d   1      -5.716  10.006 -16.623 -0.36 -0.00    +0.012 C 
DOCKED: ENDBRANCH  12  45
DOCKED: BRANCH  17  47
DOCKED: ATOM     47  C   UNL d   1      -3.446  14.027 -10.426 -0.29 -0.00    +0.004 C 
DOCKED: ATOM     48  C   UNL d   1      -2.465  14.716  -9.839 -0.31 -0.00    +0.012 C 
DOCKED: ENDBRANCH  17  47
DOCKED: TORSDOF 12
DOCKED: TER
DOCKED: ENDMDL
________________________________________________________________________________


	BEGINNING GENETIC ALGORITHM DOCKING 23 of 100
Run: 23 Seed: 2120181758 398652948 [ Run 23 of 100 GA/GALS ]
Beginning LAMARCKIAN GENETIC ALGORITHM (LGA), with a maximum of 25000000 energy evaluations.

Final-Value: -9.367


	FINAL GENETIC ALGORITHM DOCKED STATE
	_______________________________________________


Detailed state:  trans 6.834 9.332 21.360 quatxyzw 0.151452 -0.496912 -0.775962 -0.357805 center 8.781 34.984 -0.736 ntor 12 5.9759 118.2571 -41.6954 100.3280 150.7781 156.1003 -156.6964 172.6877 -172.7165 126.5629 -5.7137 28.3435
State:	  6.834   9.332  21.360   0.162 -0.532 -0.831 -138.069      5.98  118.26  -41.70  100.33  150.78  156.10 -156.70  172.69 -172.72  126.56   -5.71   28.34

DOCKED: MODEL       23
DOCKED: USER    Run = 23
DOCKED: USER    DPF = D:/Protein_go_brrr/autodock/final/mut_N102T/heme_Co/dock.dpf
DOCKED: USER  
DOCKED: USER    Estimated Free Energy of Binding    =   -3.84 kcal/mol  [=(1)+(2)+(3)-(4)]
DOCKED: USER    Estimated Inhibition Constant, Ki   =    1.53 mM (millimolar)  [Temperature = 298.15 K]
DOCKED: USER    
DOCKED: USER    (1) Final Intermolecular Energy     =   -7.42 kcal/mol
DOCKED: USER        vdW + Hbond + desolv Energy     =   -5.33 kcal/mol
DOCKED: USER        Electrostatic Energy            =   -2.08 kcal/mol
DOCKED: USER    (2) Final Total Internal Energy     =   -1.95 kcal/mol
DOCKED: USER    (3) Torsional Free Energy           =   +3.58 kcal/mol
DOCKED: USER    (4) Unbound System's Energy  [=(2)] =   -1.95 kcal/mol
DOCKED: USER    
DOCKED: USER    
DOCKED: USER    NEWDPF move heme_Co_opt.pdbqt
DOCKED: USER    NEWDPF about 8.781000 34.984000 -0.736000
DOCKED: USER    NEWDPF tran0 6.834484 9.331895 21.359689
DOCKED: USER    NEWDPF quaternion0 0.151452 -0.496912 -0.775962 -0.357805
DOCKED: USER    NEWDPF axisangle0 0.162189 -0.532142 -0.830975 -138.069145
DOCKED: USER    NEWDPF quat0 0.162189 -0.532142 -0.830975 -138.069145
DOCKED: USER    NEWDPF dihe0 5.98 118.26 -41.70 100.33 150.78 156.10 -156.70 172.69 -172.72 126.56 -5.71 28.34 
DOCKED: USER  keepresnum = 1 
DOCKED: USER  
DOCKED: REMARK  12 active torsions:
DOCKED: REMARK  status: ('A' for Active; 'I' for Inactive)
DOCKED: REMARK    1  A    between atoms: C_6  and  C_10 
DOCKED: REMARK    2  A    between atoms: C_10  and  C_11 
DOCKED: REMARK    3  A    between atoms: C_11  and  C_12 
DOCKED: REMARK    4  A    between atoms: C_12  and  O_14 
DOCKED: REMARK    5  A    between atoms: C_17  and  C_20 
DOCKED: REMARK    6  A    between atoms: C_24  and  C_27 
DOCKED: REMARK    7  A    between atoms: C_31  and  C_34 
DOCKED: REMARK    8  A    between atoms: C_34  and  C_35 
DOCKED: REMARK    9  A    between atoms: C_35  and  C_36 
DOCKED: REMARK   10  A    between atoms: C_36  and  O_38 
DOCKED: REMARK   11  A    between atoms: FE_43  and  C_44 
DOCKED: REMARK   12  A    between atoms: C_44  and  O_45 
DOCKED: USER                              x       y       z     vdW  Elec       q    Type
DOCKED: USER                           _______ _______ _______ _____ _____    ______ ____
DOCKED: ROOT
DOCKED: ATOM      1  C   UNL d   1       8.889  10.009  21.174 -0.07 +0.01    +0.064 A 
DOCKED: ATOM      2  C   UNL d   1       4.728  12.262  20.705 -0.21 -0.02    +0.064 C 
DOCKED: ATOM      3  C   UNL d   1       2.387   8.136  21.281 -0.10 -0.02    +0.064 A 
DOCKED: ATOM      4  C   UNL d   1       6.608   5.878  22.147 -0.15 -0.01    +0.064 A 
DOCKED: ATOM      5  C   UNL d   1       7.925  10.922  20.968 -0.09 +0.00    +0.066 A 
DOCKED: ATOM      6  C   UNL d   1       8.213  12.293  20.824 -0.12 +0.00    -0.021 A 
DOCKED: ATOM      7  C   UNL d   1       7.000  12.945  20.711 -0.15 +0.00    -0.025 A 
DOCKED: ATOM      8  C   UNL d   1       6.026  11.942  20.774 -0.15 -0.01    +0.066 A 
DOCKED: ATOM      9  C   UNL d   1       6.752  14.452  20.550 -0.08 -0.02    +0.051 C 
DOCKED: ATOM     10  C   UNL d   1       3.657  11.297  20.735 -0.20 -0.02    +0.066 A 
DOCKED: ATOM     11  C   UNL d   1       2.284  11.554  20.527 -0.21 +0.01    -0.021 A 
DOCKED: ATOM     12  C   UNL d   1       1.625  10.333  20.697 -0.13 -0.00    +0.000 A 
DOCKED: ATOM     13  C   UNL d   1       2.643   9.422  20.983 -0.12 -0.02    +0.070 A 
DOCKED: ATOM     14  C   UNL d   1       1.676  12.865  20.101 -0.27 -0.03    +0.052 C 
DOCKED: ATOM     15  C   UNL d   1       3.307   7.077  21.650 -0.15 -0.02    +0.066 A 
DOCKED: ATOM     16  C   UNL d   1       2.964   5.806  22.088 -0.18 +0.01    -0.021 A 
DOCKED: ATOM     17  C   UNL d   1       4.178   5.152  22.342 -0.16 -0.00    +0.000 A 
DOCKED: ATOM     18  C   UNL d   1       5.169   6.073  22.020 -0.12 -0.02    +0.070 A 
DOCKED: ATOM     19  C   UNL d   1       1.554   5.282  22.245 -0.14 -0.03    +0.052 C 
DOCKED: ATOM     20  C   UNL d   1       7.586   6.787  21.924 -0.14 +0.00    +0.066 A 
DOCKED: ATOM     21  C   UNL d   1       8.934   6.492  22.115 -0.09 -0.00    -0.025 A 
DOCKED: ATOM     22  C   UNL d   1       9.618   7.655  21.814 -0.07 -0.00    -0.021 A 
DOCKED: ATOM     23  C   UNL d   1       8.645   8.615  21.463 -0.10 +0.01    +0.066 A 
DOCKED: ATOM     24  C   UNL d   1       9.541   5.171  22.582 -0.06 +0.01    +0.051 C 
DOCKED: ATOM     25  N   UNL d   1       6.571  10.679  20.927 -0.08 -0.00    -0.248 N 
DOCKED: ATOM     26  N   UNL d   1       3.875   9.995  20.950 -0.12 +0.06    -0.248 N 
DOCKED: ATOM     27  N   UNL d   1       4.613   7.219  21.641 -0.11 +0.06    -0.248 N 
DOCKED: ATOM     28  N   UNL d   1       7.414   8.094  21.530 -0.10 -0.01    -0.248 N 
DOCKED: ATOM     29 FE   UNL d   1       5.537   8.844  21.305 -0.04 -0.00    +0.000 Fe
DOCKED: ENDROOT
DOCKED: BRANCH   6  30
DOCKED: ATOM     30  C   UNL d   1       9.591  12.944  20.877 -0.05 -0.00    +0.052 C 
DOCKED: BRANCH  30  31
DOCKED: ATOM     31  C   UNL d   1      10.330  12.747  19.554 -0.05 +0.00    +0.115 C 
DOCKED: BRANCH  31  32
DOCKED: ATOM     32  C   UNL d   1       9.466  12.083  18.504 -0.15 +0.02    +0.139 C 
DOCKED: ATOM     33  O   UNL d   1       8.575  12.723  17.965 -0.57 -0.11    -0.650 OA
DOCKED: BRANCH  32  34
DOCKED: ATOM     34  O   UNL d   1       9.677  10.808  18.103 -0.04 -0.21    -0.776 OA
DOCKED: ATOM     35  H   UNL d   1      10.362  10.230  18.465 +0.05 +0.05    +0.167 HD
DOCKED: ENDBRANCH  32  34
DOCKED: ENDBRANCH  31  32
DOCKED: ENDBRANCH  30  31
DOCKED: ENDBRANCH   6  30
DOCKED: BRANCH  29  36
DOCKED: ATOM     36  C   UNL d   1       5.498   9.414  23.323 -0.02 -0.02    +0.190 C 
DOCKED: BRANCH  36  37
DOCKED: ATOM     37  O   UNL d   1       5.870  10.439  24.199 +0.00 +0.03    -0.399 OA
DOCKED: ATOM     38  H   UNL d   1       6.229  11.160  23.611 +0.02 -0.02    +0.209 HD
DOCKED: ENDBRANCH  36  37
DOCKED: ENDBRANCH  29  36
DOCKED: BRANCH  22  39
DOCKED: ATOM     39  C   UNL d   1      11.119   7.847  21.924 -0.03 +0.01    +0.052 C 
DOCKED: BRANCH  39  40
DOCKED: ATOM     40  C   UNL d   1      11.686   8.446  20.626 -0.06 +0.04    +0.115 C 
DOCKED: BRANCH  40  41
DOCKED: ATOM     41  C   UNL d   1      11.435   7.610  19.390 -0.06 +0.15    +0.139 C 
DOCKED: ATOM     42  O   UNL d   1      11.696   6.415  19.412 +0.03 -1.06    -0.650 OA
DOCKED: BRANCH  41  43
DOCKED: ATOM     43  O   UNL d   1      10.847   8.128  18.289 -0.09 -1.04    -0.776 OA
DOCKED: ATOM     44  H   UNL d   1      10.150   8.795  18.337 +0.03 +0.12    +0.167 HD
DOCKED: ENDBRANCH  41  43
DOCKED: ENDBRANCH  40  41
DOCKED: ENDBRANCH  39  40
DOCKED: ENDBRANCH  22  39
DOCKED: BRANCH  12  45
DOCKED: ATOM     45  C   UNL d   1       0.162   9.921  20.604 -0.09 -0.00    +0.004 C 
DOCKED: ATOM     46  C   UNL d   1      -0.543   9.455  19.576 -0.14 -0.00    +0.012 C 
DOCKED: ENDBRANCH  12  45
DOCKED: BRANCH  17  47
DOCKED: ATOM     47  C   UNL d   1       4.429   3.786  22.892 -0.20 -0.00    +0.004 C 
DOCKED: ATOM     48  C   UNL d   1       5.242   2.897  22.315 -0.22 -0.00    +0.012 C 
DOCKED: ENDBRANCH  17  47
DOCKED: TORSDOF 12
DOCKED: TER
DOCKED: ENDMDL
________________________________________________________________________________


	BEGINNING GENETIC ALGORITHM DOCKING 24 of 100
Run: 24 Seed: 948054152 1231778853 [ Run 24 of 100 GA/GALS ]
Beginning LAMARCKIAN GENETIC ALGORITHM (LGA), with a maximum of 25000000 energy evaluations.

Final-Value: -10.639


	FINAL GENETIC ALGORITHM DOCKED STATE
	_______________________________________________


Detailed state:  trans 0.278 -14.018 -18.831 quatxyzw 0.115940 0.912849 0.363284 -0.145910 center 8.781 34.984 -0.736 ntor 12 1.9758 119.7426 155.9354 -96.2086 -33.2480 126.5938 -32.9423 -13.7276 -125.2519 126.9659 145.0890 170.9020
State:	  0.278 -14.018 -18.831   0.117  0.923  0.367 -163.220      1.98  119.74  155.94  -96.21  -33.25  126.59  -32.94  -13.73 -125.25  126.97  145.09  170.90

DOCKED: MODEL       24
DOCKED: USER    Run = 24
DOCKED: USER    DPF = D:/Protein_go_brrr/autodock/final/mut_N102T/heme_Co/dock.dpf
DOCKED: USER  
DOCKED: USER    Estimated Free Energy of Binding    =   -5.09 kcal/mol  [=(1)+(2)+(3)-(4)]
DOCKED: USER    Estimated Inhibition Constant, Ki   =  185.79 uM (micromolar)  [Temperature = 298.15 K]
DOCKED: USER    
DOCKED: USER    (1) Final Intermolecular Energy     =   -8.67 kcal/mol
DOCKED: USER        vdW + Hbond + desolv Energy     =   -6.40 kcal/mol
DOCKED: USER        Electrostatic Energy            =   -2.27 kcal/mol
DOCKED: USER    (2) Final Total Internal Energy     =   -1.97 kcal/mol
DOCKED: USER    (3) Torsional Free Energy           =   +3.58 kcal/mol
DOCKED: USER    (4) Unbound System's Energy  [=(2)] =   -1.97 kcal/mol
DOCKED: USER    
DOCKED: USER    
DOCKED: USER    NEWDPF move heme_Co_opt.pdbqt
DOCKED: USER    NEWDPF about 8.781000 34.984000 -0.736000
DOCKED: USER    NEWDPF tran0 0.278115 -14.017511 -18.831401
DOCKED: USER    NEWDPF quaternion0 0.115940 0.912849 0.363284 -0.145910
DOCKED: USER    NEWDPF axisangle0 0.117194 0.922724 0.367214 -163.220096
DOCKED: USER    NEWDPF quat0 0.117194 0.922724 0.367214 -163.220096
DOCKED: USER    NEWDPF dihe0 1.98 119.74 155.94 -96.21 -33.25 126.59 -32.94 -13.73 -125.25 126.97 145.09 170.90 
DOCKED: USER  keepresnum = 1 
DOCKED: USER  
DOCKED: REMARK  12 active torsions:
DOCKED: REMARK  status: ('A' for Active; 'I' for Inactive)
DOCKED: REMARK    1  A    between atoms: C_6  and  C_10 
DOCKED: REMARK    2  A    between atoms: C_10  and  C_11 
DOCKED: REMARK    3  A    between atoms: C_11  and  C_12 
DOCKED: REMARK    4  A    between atoms: C_12  and  O_14 
DOCKED: REMARK    5  A    between atoms: C_17  and  C_20 
DOCKED: REMARK    6  A    between atoms: C_24  and  C_27 
DOCKED: REMARK    7  A    between atoms: C_31  and  C_34 
DOCKED: REMARK    8  A    between atoms: C_34  and  C_35 
DOCKED: REMARK    9  A    between atoms: C_35  and  C_36 
DOCKED: REMARK   10  A    between atoms: C_36  and  O_38 
DOCKED: REMARK   11  A    between atoms: FE_43  and  C_44 
DOCKED: REMARK   12  A    between atoms: C_44  and  O_45 
DOCKED: USER                              x       y       z     vdW  Elec       q    Type
DOCKED: USER                           _______ _______ _______ _____ _____    ______ ____
DOCKED: ROOT
DOCKED: ATOM      1  C   UNL d   1       1.833 -14.813 -17.542 -0.03 +0.01    +0.064 A 
DOCKED: ATOM      2  C   UNL d   1       1.690 -13.949 -22.215 -0.08 +0.00    +0.064 C 
DOCKED: ATOM      3  C   UNL d   1      -2.923 -12.748 -21.890 -0.11 -0.00    +0.064 A 
DOCKED: ATOM      4  C   UNL d   1      -2.700 -13.252 -17.057 -0.22 -0.00    +0.064 A 
DOCKED: ATOM      5  C   UNL d   1       2.123 -14.700 -18.848 -0.02 +0.01    +0.066 A 
DOCKED: ATOM      6  C   UNL d   1       3.426 -14.904 -19.345 -0.02 -0.00    -0.021 A 
DOCKED: ATOM      7  C   UNL d   1       3.383 -14.629 -20.698 -0.02 -0.00    -0.025 A 
DOCKED: ATOM      8  C   UNL d   1       2.055 -14.286 -20.972 -0.05 +0.00    +0.066 A 
DOCKED: ATOM      9  C   UNL d   1       4.541 -14.683 -21.707 -0.01 +0.00    +0.051 C 
DOCKED: ATOM     10  C   UNL d   1       0.343 -13.607 -22.597 -0.08 -0.00    +0.066 A 
DOCKED: ATOM     11  C   UNL d   1      -0.132 -13.381 -23.907 -0.01 +0.00    -0.021 A 
DOCKED: ATOM     12  C   UNL d   1      -1.480 -13.036 -23.783 -0.07 -0.00    +0.000 A 
DOCKED: ATOM     13  C   UNL d   1      -1.732 -13.090 -22.412 -0.05 -0.00    +0.070 A 
DOCKED: ATOM     14  C   UNL d   1       0.645 -13.580 -25.184 -0.06 -0.00    +0.052 C 
DOCKED: ATOM     15  C   UNL d   1      -3.338 -12.695 -20.502 -0.20 -0.00    +0.066 A 
DOCKED: ATOM     16  C   UNL d   1      -4.538 -12.193 -20.020 -0.22 +0.00    -0.021 A 
DOCKED: ATOM     17  C   UNL d   1      -4.478 -12.334 -18.627 -0.29 -0.00    +0.000 A 
DOCKED: ATOM     18  C   UNL d   1      -3.247 -12.929 -18.369 -0.21 -0.01    +0.070 A 
DOCKED: ATOM     19  C   UNL d   1      -5.652 -11.620 -20.868 -0.16 -0.00    +0.052 C 
DOCKED: ATOM     20  C   UNL d   1      -1.472 -13.751 -16.776 -0.22 +0.00    +0.066 A 
DOCKED: ATOM     21  C   UNL d   1      -1.046 -13.986 -15.471 -0.29 -0.00    -0.025 A 
DOCKED: ATOM     22  C   UNL d   1       0.247 -14.464 -15.581 -0.15 -0.00    -0.021 A 
DOCKED: ATOM     23  C   UNL d   1       0.552 -14.485 -16.958 -0.06 +0.01    +0.066 A 
DOCKED: ATOM     24  C   UNL d   1      -1.825 -13.749 -14.180 -0.28 -0.00    +0.051 C 
DOCKED: ATOM     25  N   UNL d   1       1.251 -14.328 -19.845 -0.02 -0.02    -0.248 N 
DOCKED: ATOM     26  N   UNL d   1      -0.644 -13.490 -21.701 -0.07 +0.00    -0.248 N 
DOCKED: ATOM     27  N   UNL d   1      -2.583 -13.102 -19.506 -0.14 +0.02    -0.248 N 
DOCKED: ATOM     28  N   UNL d   1      -0.485 -14.052 -17.685 -0.05 -0.00    -0.248 N 
DOCKED: ATOM     29 FE   UNL d   1      -0.780 -13.679 -19.662 -0.03 -0.00    +0.000 Fe
DOCKED: ENDROOT
DOCKED: BRANCH   6  30
DOCKED: ATOM     30  C   UNL d   1       4.664 -15.265 -18.531 -0.02 +0.01    +0.052 C 
DOCKED: BRANCH  30  31
DOCKED: ATOM     31  C   UNL d   1       5.828 -14.340 -18.884 -0.03 +0.04    +0.115 C 
DOCKED: BRANCH  31  32
DOCKED: ATOM     32  C   UNL d   1       5.457 -12.877 -18.772 -0.07 +0.11    +0.139 C 
DOCKED: ATOM     33  O   UNL d   1       6.156 -12.036 -19.319 -0.17 -0.44    -0.650 OA
DOCKED: BRANCH  32  34
DOCKED: ATOM     34  O   UNL d   1       4.343 -12.467 -18.123 -0.28 -1.01    -0.776 OA
DOCKED: ATOM     35  H   UNL d   1       3.698 -13.064 -17.718 +0.03 +0.16    +0.167 HD
DOCKED: ENDBRANCH  32  34
DOCKED: ENDBRANCH  31  32
DOCKED: ENDBRANCH  30  31
DOCKED: ENDBRANCH   6  30
DOCKED: BRANCH  29  36
DOCKED: ATOM     36  C   UNL d   1      -0.021 -11.738 -19.433 -0.25 -0.02    +0.190 C 
DOCKED: BRANCH  36  37
DOCKED: ATOM     37  O   UNL d   1       1.095 -11.024 -18.985 -0.27 -0.03    -0.399 OA
DOCKED: ATOM     38  H   UNL d   1       1.776 -11.720 -18.772 +0.08 +0.05    +0.209 HD
DOCKED: ENDBRANCH  36  37
DOCKED: ENDBRANCH  29  36
DOCKED: BRANCH  22  39
DOCKED: ATOM     39  C   UNL d   1       1.157 -14.817 -14.419 -0.20 +0.00    +0.052 C 
DOCKED: BRANCH  39  40
DOCKED: ATOM     40  C   UNL d   1       1.936 -13.579 -13.945 -0.21 +0.02    +0.115 C 
DOCKED: BRANCH  40  41
DOCKED: ATOM     41  C   UNL d   1       2.797 -12.936 -15.012 -0.14 +0.11    +0.139 C 
DOCKED: ATOM     42  O   UNL d   1       2.642 -11.751 -15.272 -0.40 -0.79    -0.650 OA
DOCKED: BRANCH  41  43
DOCKED: ATOM     43  O   UNL d   1       3.791 -13.614 -15.627 -0.24 -0.75    -0.776 OA
DOCKED: ATOM     44  H   UNL d   1       4.180 -13.322 -16.462 +0.03 +0.25    +0.167 HD
DOCKED: ENDBRANCH  41  43
DOCKED: ENDBRANCH  40  41
DOCKED: ENDBRANCH  39  40
DOCKED: ENDBRANCH  22  39
DOCKED: BRANCH  12  45
DOCKED: ATOM     45  C   UNL d   1      -2.559 -12.683 -24.798 -0.10 -0.00    +0.004 C 
DOCKED: ATOM     46  C   UNL d   1      -3.095 -11.508 -25.119 -0.13 -0.00    +0.012 C 
DOCKED: ENDBRANCH  12  45
DOCKED: BRANCH  17  47
DOCKED: ATOM     47  C   UNL d   1      -5.456 -11.909 -17.581 -0.37 +0.00    +0.004 C 
DOCKED: ATOM     48  C   UNL d   1      -5.908 -10.658 -17.460 -0.43 +0.00    +0.012 C 
DOCKED: ENDBRANCH  17  47
DOCKED: TORSDOF 12
DOCKED: TER
DOCKED: ENDMDL
________________________________________________________________________________


	BEGINNING GENETIC ALGORITHM DOCKING 25 of 100
Run: 25 Seed: 1473149875 605350870 [ Run 25 of 100 GA/GALS ]
Beginning LAMARCKIAN GENETIC ALGORITHM (LGA), with a maximum of 25000000 energy evaluations.

Final-Value: -8.884


	FINAL GENETIC ALGORITHM DOCKED STATE
	_______________________________________________


Detailed state:  trans -7.213 9.861 15.312 quatxyzw 0.303355 -0.371651 -0.310815 -0.820515 center 8.781 34.984 -0.736 ntor 12 158.0273 132.3673 157.7005 118.8282 73.3521 132.7933 -130.6171 132.3410 -133.2835 -124.5563 -179.2256 -23.9672
State:	 -7.213   9.861  15.312   0.531 -0.650 -0.544 -69.727    158.03  132.37  157.70  118.83   73.35  132.79 -130.62  132.34 -133.28 -124.56 -179.23  -23.97

DOCKED: MODEL       25
DOCKED: USER    Run = 25
DOCKED: USER    DPF = D:/Protein_go_brrr/autodock/final/mut_N102T/heme_Co/dock.dpf
DOCKED: USER  
DOCKED: USER    Estimated Free Energy of Binding    =   -3.07 kcal/mol  [=(1)+(2)+(3)-(4)]
DOCKED: USER    Estimated Inhibition Constant, Ki   =    5.65 mM (millimolar)  [Temperature = 298.15 K]
DOCKED: USER    
DOCKED: USER    (1) Final Intermolecular Energy     =   -6.65 kcal/mol
DOCKED: USER        vdW + Hbond + desolv Energy     =   -6.81 kcal/mol
DOCKED: USER        Electrostatic Energy            =   +0.16 kcal/mol
DOCKED: USER    (2) Final Total Internal Energy     =   -2.24 kcal/mol
DOCKED: USER    (3) Torsional Free Energy           =   +3.58 kcal/mol
DOCKED: USER    (4) Unbound System's Energy  [=(2)] =   -2.24 kcal/mol
DOCKED: USER    
DOCKED: USER    
DOCKED: USER    NEWDPF move heme_Co_opt.pdbqt
DOCKED: USER    NEWDPF about 8.781000 34.984000 -0.736000
DOCKED: USER    NEWDPF tran0 -7.213293 9.861244 15.311926
DOCKED: USER    NEWDPF quaternion0 0.303355 -0.371651 -0.310815 -0.820515
DOCKED: USER    NEWDPF axisangle0 0.530689 -0.650166 -0.543740 -69.727185
DOCKED: USER    NEWDPF quat0 0.530689 -0.650166 -0.543740 -69.727185
DOCKED: USER    NEWDPF dihe0 158.03 132.37 157.70 118.83 73.35 132.79 -130.62 132.34 -133.28 -124.56 -179.23 -23.97 
DOCKED: USER  keepresnum = 1 
DOCKED: USER  
DOCKED: REMARK  12 active torsions:
DOCKED: REMARK  status: ('A' for Active; 'I' for Inactive)
DOCKED: REMARK    1  A    between atoms: C_6  and  C_10 
DOCKED: REMARK    2  A    between atoms: C_10  and  C_11 
DOCKED: REMARK    3  A    between atoms: C_11  and  C_12 
DOCKED: REMARK    4  A    between atoms: C_12  and  O_14 
DOCKED: REMARK    5  A    between atoms: C_17  and  C_20 
DOCKED: REMARK    6  A    between atoms: C_24  and  C_27 
DOCKED: REMARK    7  A    between atoms: C_31  and  C_34 
DOCKED: REMARK    8  A    between atoms: C_34  and  C_35 
DOCKED: REMARK    9  A    between atoms: C_35  and  C_36 
DOCKED: REMARK   10  A    between atoms: C_36  and  O_38 
DOCKED: REMARK   11  A    between atoms: FE_43  and  C_44 
DOCKED: REMARK   12  A    between atoms: C_44  and  O_45 
DOCKED: USER                              x       y       z     vdW  Elec       q    Type
DOCKED: USER                           _______ _______ _______ _____ _____    ______ ____
DOCKED: ROOT
DOCKED: ATOM      1  C   UNL d   1      -7.419  11.822  14.402 +0.00 -0.00    +0.064 A 
DOCKED: ATOM      2  C   UNL d   1     -10.490   8.243  15.009 -0.11 +0.00    +0.064 C 
DOCKED: ATOM      3  C   UNL d   1      -7.006   5.507  16.798 -0.23 +0.00    +0.064 A 
DOCKED: ATOM      4  C   UNL d   1      -3.937   9.273  16.546 -0.14 -0.02    +0.064 A 
DOCKED: ATOM      5  C   UNL d   1      -8.506  11.033  14.403 -0.05 -0.00    +0.066 A 
DOCKED: ATOM      6  C   UNL d   1      -9.773  11.506  14.009 -0.09 +0.00    -0.021 A 
DOCKED: ATOM      7  C   UNL d   1     -10.665  10.470  14.209 -0.08 +0.00    -0.025 A 
DOCKED: ATOM      8  C   UNL d   1      -9.902   9.405  14.700 -0.12 +0.00    +0.066 A 
DOCKED: ATOM      9  C   UNL d   1     -12.180  10.468  13.953 -0.03 -0.00    +0.051 C 
DOCKED: ATOM     10  C   UNL d   1      -9.784   7.085  15.495 -0.15 +0.00    +0.066 A 
DOCKED: ATOM     11  C   UNL d   1     -10.320   5.795  15.704 -0.13 -0.00    -0.021 A 
DOCKED: ATOM     12  C   UNL d   1      -9.281   5.016  16.222 -0.13 +0.00    +0.000 A 
DOCKED: ATOM     13  C   UNL d   1      -8.188   5.882  16.279 -0.13 +0.01    +0.070 A 
DOCKED: ATOM     14  C   UNL d   1     -11.707   5.336  15.337 -0.09 +0.00    +0.052 C 
DOCKED: ATOM     15  C   UNL d   1      -5.795   6.281  16.981 -0.27 -0.00    +0.066 A 
DOCKED: ATOM     16  C   UNL d   1      -4.652   5.876  17.657 -0.28 +0.00    -0.021 A 
DOCKED: ATOM     17  C   UNL d   1      -3.765   6.960  17.589 -0.28 -0.00    +0.000 A 
DOCKED: ATOM     18  C   UNL d   1      -4.432   7.938  16.860 -0.26 -0.02    +0.070 A 
DOCKED: ATOM     19  C   UNL d   1      -4.455   4.529  18.316 -0.18 -0.00    +0.052 C 
DOCKED: ATOM     20  C   UNL d   1      -4.600  10.270  15.914 -0.24 -0.02    +0.066 A 
DOCKED: ATOM     21  C   UNL d   1      -4.030  11.524  15.701 -0.29 +0.01    -0.025 A 
DOCKED: ATOM     22  C   UNL d   1      -5.001  12.271  15.059 -0.23 +0.00    -0.021 A 
DOCKED: ATOM     23  C   UNL d   1      -6.128  11.433  14.921 -0.08 -0.01    +0.066 A 
DOCKED: ATOM     24  C   UNL d   1      -2.636  11.994  16.108 -0.25 -0.02    +0.051 C 
DOCKED: ATOM     25  N   UNL d   1      -8.560   9.724  14.825 -0.11 -0.00    -0.248 N 
DOCKED: ATOM     26  N   UNL d   1      -8.479   7.116  15.786 -0.16 -0.01    -0.248 N 
DOCKED: ATOM     27  N   UNL d   1      -5.649   7.511  16.540 -0.18 +0.03    -0.248 N 
DOCKED: ATOM     28  N   UNL d   1      -5.890  10.222  15.439 -0.09 +0.02    -0.248 N 
DOCKED: ATOM     29 FE   UNL d   1      -7.016   8.555  15.733 -0.05 -0.00    +0.000 Fe
DOCKED: ENDROOT
DOCKED: BRANCH   6  30
DOCKED: ATOM     30  C   UNL d   1     -10.112  12.918  13.542 -0.05 -0.00    +0.052 C 
DOCKED: BRANCH  30  31
DOCKED: ATOM     31  C   UNL d   1     -10.625  13.761  14.709 -0.01 -0.01    +0.115 C 
DOCKED: BRANCH  31  32
DOCKED: ATOM     32  C   UNL d   1      -9.785  13.591  15.956 -0.01 -0.01    +0.139 C 
DOCKED: ATOM     33  O   UNL d   1      -8.946  14.435  16.235 +0.01 +0.05    -0.650 OA
DOCKED: BRANCH  32  34
DOCKED: ATOM     34  O   UNL d   1      -9.965  12.554  16.807 +0.01 +0.04    -0.776 OA
DOCKED: ATOM     35  H   UNL d   1      -9.275  12.196  17.382 +0.01 -0.01    +0.167 HD
DOCKED: ENDBRANCH  32  34
DOCKED: ENDBRANCH  31  32
DOCKED: ENDBRANCH  30  31
DOCKED: ENDBRANCH   6  30
DOCKED: BRANCH  29  36
DOCKED: ATOM     36  C   UNL d   1      -7.687   9.303  17.572 -0.04 -0.01    +0.190 C 
DOCKED: BRANCH  36  37
DOCKED: ATOM     37  O   UNL d   1      -8.397  10.358  18.154 +0.00 +0.02    -0.399 OA
DOCKED: ATOM     38  H   UNL d   1      -8.923  10.756  17.406 +0.02 -0.01    +0.209 HD
DOCKED: ENDBRANCH  36  37
DOCKED: ENDBRANCH  29  36
DOCKED: BRANCH  22  39
DOCKED: ATOM     39  C   UNL d   1      -4.869  13.729  14.662 -0.21 -0.01    +0.052 C 
DOCKED: BRANCH  39  40
DOCKED: ATOM     40  C   UNL d   1      -4.011  13.870  13.393 -0.32 -0.03    +0.115 C 
DOCKED: BRANCH  40  41
DOCKED: ATOM     41  C   UNL d   1      -4.424  12.961  12.255 -0.39 -0.02    +0.139 C 
DOCKED: ATOM     42  O   UNL d   1      -3.933  11.844  12.173 -0.09 +0.10    -0.650 OA
DOCKED: BRANCH  41  43
DOCKED: ATOM     43  O   UNL d   1      -5.386  13.317  11.376 +0.05 +0.13    -0.776 OA
DOCKED: ATOM     44  H   UNL d   1      -5.508  12.867  10.529 -0.20 -0.05    +0.167 HD
DOCKED: ENDBRANCH  41  43
DOCKED: ENDBRANCH  40  41
DOCKED: ENDBRANCH  39  40
DOCKED: ENDBRANCH  22  39
DOCKED: BRANCH  12  45
DOCKED: ATOM     45  C   UNL d   1      -9.191   3.558  16.650 -0.19 +0.00    +0.004 C 
DOCKED: ATOM     46  C   UNL d   1      -8.546   2.532  16.100 -0.30 +0.01    +0.012 C 
DOCKED: ENDBRANCH  12  45
DOCKED: BRANCH  17  47
DOCKED: ATOM     47  C   UNL d   1      -2.409   7.121  18.193 -0.27 -0.00    +0.004 C 
DOCKED: ATOM     48  C   UNL d   1      -1.425   6.232  18.044 -0.39 -0.00    +0.012 C 
DOCKED: ENDBRANCH  17  47
DOCKED: TORSDOF 12
DOCKED: TER
DOCKED: ENDMDL
________________________________________________________________________________


	BEGINNING GENETIC ALGORITHM DOCKING 26 of 100
Run: 26 Seed: 744475593 48747700 [ Run 26 of 100 GA/GALS ]
Beginning LAMARCKIAN GENETIC ALGORITHM (LGA), with a maximum of 25000000 energy evaluations.

Final-Value: -9.405


	FINAL GENETIC ALGORITHM DOCKED STATE
	_______________________________________________


Detailed state:  trans 7.314 19.499 10.644 quatxyzw 0.239671 0.296573 0.586598 0.714496 center 8.781 34.984 -0.736 ntor 12 -164.4287 110.2475 -107.0799 62.8572 98.9475 137.9919 33.7588 -172.0051 -177.6420 104.1547 -172.5535 0.6464
State:	  7.314  19.499  10.644   0.343  0.424  0.838 88.796   -164.43  110.25 -107.08   62.86   98.95  137.99   33.76 -172.01 -177.64  104.15 -172.55    0.65

DOCKED: MODEL       26
DOCKED: USER    Run = 26
DOCKED: USER    DPF = D:/Protein_go_brrr/autodock/final/mut_N102T/heme_Co/dock.dpf
DOCKED: USER  
DOCKED: USER    Estimated Free Energy of Binding    =   -3.55 kcal/mol  [=(1)+(2)+(3)-(4)]
DOCKED: USER    Estimated Inhibition Constant, Ki   =    2.49 mM (millimolar)  [Temperature = 298.15 K]
DOCKED: USER    
DOCKED: USER    (1) Final Intermolecular Energy     =   -7.13 kcal/mol
DOCKED: USER        vdW + Hbond + desolv Energy     =   -5.73 kcal/mol
DOCKED: USER        Electrostatic Energy            =   -1.40 kcal/mol
DOCKED: USER    (2) Final Total Internal Energy     =   -2.27 kcal/mol
DOCKED: USER    (3) Torsional Free Energy           =   +3.58 kcal/mol
DOCKED: USER    (4) Unbound System's Energy  [=(2)] =   -2.27 kcal/mol
DOCKED: USER    
DOCKED: USER    
DOCKED: USER    NEWDPF move heme_Co_opt.pdbqt
DOCKED: USER    NEWDPF about 8.781000 34.984000 -0.736000
DOCKED: USER    NEWDPF tran0 7.313889 19.498829 10.643504
DOCKED: USER    NEWDPF quaternion0 0.239671 0.296573 0.586598 0.714496
DOCKED: USER    NEWDPF axisangle0 0.342563 0.423894 0.838429 88.796127
DOCKED: USER    NEWDPF quat0 0.342563 0.423894 0.838429 88.796127
DOCKED: USER    NEWDPF dihe0 -164.43 110.25 -107.08 62.86 98.95 137.99 33.76 -172.01 -177.64 104.15 -172.55 0.65 
DOCKED: USER  keepresnum = 1 
DOCKED: USER  
DOCKED: REMARK  12 active torsions:
DOCKED: REMARK  status: ('A' for Active; 'I' for Inactive)
DOCKED: REMARK    1  A    between atoms: C_6  and  C_10 
DOCKED: REMARK    2  A    between atoms: C_10  and  C_11 
DOCKED: REMARK    3  A    between atoms: C_11  and  C_12 
DOCKED: REMARK    4  A    between atoms: C_12  and  O_14 
DOCKED: REMARK    5  A    between atoms: C_17  and  C_20 
DOCKED: REMARK    6  A    between atoms: C_24  and  C_27 
DOCKED: REMARK    7  A    between atoms: C_31  and  C_34 
DOCKED: REMARK    8  A    between atoms: C_34  and  C_35 
DOCKED: REMARK    9  A    between atoms: C_35  and  C_36 
DOCKED: REMARK   10  A    between atoms: C_36  and  O_38 
DOCKED: REMARK   11  A    between atoms: FE_43  and  C_44 
DOCKED: REMARK   12  A    between atoms: C_44  and  O_45 
DOCKED: USER                              x       y       z     vdW  Elec       q    Type
DOCKED: USER                           _______ _______ _______ _____ _____    ______ ____
DOCKED: ROOT
DOCKED: ATOM      1  C   UNL d   1       7.661  20.357   8.679 -0.08 -0.01    +0.064 A 
DOCKED: ATOM      2  C   UNL d   1       4.692  21.536  12.201 -0.14 -0.03    +0.064 C 
DOCKED: ATOM      3  C   UNL d   1       6.054  17.689  14.687 -0.03 -0.04    +0.064 A 
DOCKED: ATOM      4  C   UNL d   1       9.372  16.676  11.277 -0.18 -0.00    +0.064 A 
DOCKED: ATOM      5  C   UNL d   1       6.724  20.942   9.443 -0.11 -0.02    +0.066 A 
DOCKED: ATOM      6  C   UNL d   1       6.120  22.163   9.082 -0.09 +0.01    -0.021 A 
DOCKED: ATOM      7  C   UNL d   1       5.277  22.511  10.118 -0.09 +0.02    -0.025 A 
DOCKED: ATOM      8  C   UNL d   1       5.388  21.481  11.059 -0.05 -0.03    +0.066 A 
DOCKED: ATOM      9  C   UNL d   1       4.393  23.763  10.234 -0.05 -0.04    +0.051 C 
DOCKED: ATOM     10  C   UNL d   1       4.723  20.511  13.215 -0.17 -0.02    +0.066 A 
DOCKED: ATOM     11  C   UNL d   1       3.911  20.441  14.368 -0.16 +0.01    -0.021 A 
DOCKED: ATOM     12  C   UNL d   1       4.327  19.307  15.073 -0.22 -0.00    +0.000 A 
DOCKED: ATOM     13  C   UNL d   1       5.349  18.765  14.293 -0.20 -0.03    +0.070 A 
DOCKED: ATOM     14  C   UNL d   1       2.759  21.351  14.705 -0.13 -0.01    +0.052 C 
DOCKED: ATOM     15  C   UNL d   1       7.169  17.032  14.036 -0.15 -0.03    +0.066 A 
DOCKED: ATOM     16  C   UNL d   1       7.947  16.012  14.566 -0.21 +0.01    -0.021 A 
DOCKED: ATOM     17  C   UNL d   1       8.908  15.718  13.587 -0.22 -0.00    +0.000 A 
DOCKED: ATOM     18  C   UNL d   1       8.627  16.573  12.526 -0.22 -0.01    +0.070 A 
DOCKED: ATOM     19  C   UNL d   1       7.758  15.382  15.928 -0.14 -0.03    +0.052 C 
DOCKED: ATOM     20  C   UNL d   1       9.172  17.558  10.268 -0.12 -0.00    +0.066 A 
DOCKED: ATOM     21  C   UNL d   1       9.977  17.583   9.132 -0.08 -0.00    -0.025 A 
DOCKED: ATOM     22  C   UNL d   1       9.489  18.615   8.351 -0.10 -0.00    -0.021 A 
DOCKED: ATOM     23  C   UNL d   1       8.409  19.181   9.062 -0.11 -0.01    +0.066 A 
DOCKED: ATOM     24  C   UNL d   1      11.165  16.680   8.813 -0.15 +0.01    +0.051 C 
DOCKED: ATOM     25  N   UNL d   1       6.274  20.493  10.664 -0.10 +0.08    -0.248 N 
DOCKED: ATOM     26  N   UNL d   1       5.549  19.462  13.143 -0.15 +0.08    -0.248 N 
DOCKED: ATOM     27  N   UNL d   1       7.605  17.362  12.840 -0.14 +0.06    -0.248 N 
DOCKED: ATOM     28  N   UNL d   1       8.215  18.546  10.224 -0.11 +0.03    -0.248 N 
DOCKED: ATOM     29 FE   UNL d   1       6.981  18.833  11.814 -0.05 -0.00    +0.000 Fe
DOCKED: ENDROOT
DOCKED: BRANCH   6  30
DOCKED: ATOM     30  C   UNL d   1       6.413  22.987   7.833 -0.05 -0.02    +0.052 C 
DOCKED: BRANCH  30  31
DOCKED: ATOM     31  C   UNL d   1       7.564  23.960   8.089 -0.01 -0.02    +0.115 C 
DOCKED: BRANCH  31  32
DOCKED: ATOM     32  C   UNL d   1       8.115  23.845   9.494 -0.00 -0.02    +0.139 C 
DOCKED: ATOM     33  O   UNL d   1       7.715  24.608  10.360 +0.01 +0.11    -0.650 OA
DOCKED: BRANCH  32  34
DOCKED: ATOM     34  O   UNL d   1       9.008  22.889   9.838 +0.02 +0.10    -0.776 OA
DOCKED: ATOM     35  H   UNL d   1       9.262  22.684  10.749 +0.01 -0.02    +0.167 HD
DOCKED: ENDBRANCH  32  34
DOCKED: ENDBRANCH  31  32
DOCKED: ENDBRANCH  30  31
DOCKED: ENDBRANCH   6  30
DOCKED: BRANCH  29  36
DOCKED: ATOM     36  C   UNL d   1       8.358  20.160  12.673 -0.02 -0.03    +0.190 C 
DOCKED: BRANCH  36  37
DOCKED: ATOM     37  O   UNL d   1       8.954  21.414  12.500 +0.00 +0.05    -0.399 OA
DOCKED: ATOM     38  H   UNL d   1       8.595  21.751  11.633 +0.02 -0.03    +0.209 HD
DOCKED: ENDBRANCH  36  37
DOCKED: ENDBRANCH  29  36
DOCKED: BRANCH  22  39
DOCKED: ATOM     39  C   UNL d   1      10.074  19.069   7.027 -0.05 +0.01    +0.052 C 
DOCKED: BRANCH  39  40
DOCKED: ATOM     40  C   UNL d   1       9.235  18.539   5.853 -0.08 +0.03    +0.115 C 
DOCKED: BRANCH  40  41
DOCKED: ATOM     41  C   UNL d   1       9.539  17.108   5.464 +0.12 +0.13    +0.139 C 
DOCKED: ATOM     42  O   UNL d   1      10.683  16.689   5.568 -0.06 -0.94    -0.650 OA
DOCKED: BRANCH  41  43
DOCKED: ATOM     43  O   UNL d   1       8.563  16.252   5.087 -0.55 -0.88    -0.776 OA
DOCKED: ATOM     44  H   UNL d   1       8.196  15.587   5.684 -0.19 +0.17    +0.167 HD
DOCKED: ENDBRANCH  41  43
DOCKED: ENDBRANCH  40  41
DOCKED: ENDBRANCH  39  40
DOCKED: ENDBRANCH  22  39
DOCKED: BRANCH  12  45
DOCKED: ATOM     45  C   UNL d   1       3.866  18.668  16.375 -0.25 -0.00    +0.004 C 
DOCKED: ATOM     46  C   UNL d   1       2.657  18.269  16.765 -0.28 -0.01    +0.012 C 
DOCKED: ENDBRANCH  12  45
DOCKED: BRANCH  17  47
DOCKED: ATOM     47  C   UNL d   1      10.047  14.753  13.627 -0.25 -0.00    +0.004 C 
DOCKED: ATOM     48  C   UNL d   1       9.902  13.435  13.472 -0.37 +0.00    +0.012 C 
DOCKED: ENDBRANCH  17  47
DOCKED: TORSDOF 12
DOCKED: TER
DOCKED: ENDMDL
________________________________________________________________________________


	BEGINNING GENETIC ALGORITHM DOCKING 27 of 100
Run: 27 Seed: 22049727 1723479208 [ Run 27 of 100 GA/GALS ]
Beginning LAMARCKIAN GENETIC ALGORITHM (LGA), with a maximum of 25000000 energy evaluations.

Final-Value: -10.473


	FINAL GENETIC ALGORITHM DOCKED STATE
	_______________________________________________


Detailed state:  trans -11.309 5.995 10.959 quatxyzw -0.522615 0.728159 0.122945 0.426079 center 8.781 34.984 -0.736 ntor 12 64.5193 119.9883 -140.4905 135.4043 133.0557 99.6801 34.1886 114.7079 163.0864 141.0899 -161.1108 174.1774
State:	-11.309   5.995  10.959  -0.578  0.805  0.136 129.562     64.52  119.99 -140.49  135.40  133.06   99.68   34.19  114.71  163.09  141.09 -161.11  174.18

DOCKED: MODEL       27
DOCKED: USER    Run = 27
DOCKED: USER    DPF = D:/Protein_go_brrr/autodock/final/mut_N102T/heme_Co/dock.dpf
DOCKED: USER  
DOCKED: USER    Estimated Free Energy of Binding    =   -2.80 kcal/mol  [=(1)+(2)+(3)-(4)]
DOCKED: USER    Estimated Inhibition Constant, Ki   =    8.88 mM (millimolar)  [Temperature = 298.15 K]
DOCKED: USER    
DOCKED: USER    (1) Final Intermolecular Energy     =   -6.38 kcal/mol
DOCKED: USER        vdW + Hbond + desolv Energy     =   -6.43 kcal/mol
DOCKED: USER        Electrostatic Energy            =   +0.05 kcal/mol
DOCKED: USER    (2) Final Total Internal Energy     =   -4.09 kcal/mol
DOCKED: USER    (3) Torsional Free Energy           =   +3.58 kcal/mol
DOCKED: USER    (4) Unbound System's Energy  [=(2)] =   -4.09 kcal/mol
DOCKED: USER    
DOCKED: USER    
DOCKED: USER    NEWDPF move heme_Co_opt.pdbqt
DOCKED: USER    NEWDPF about 8.781000 34.984000 -0.736000
DOCKED: USER    NEWDPF tran0 -11.309013 5.994597 10.959356
DOCKED: USER    NEWDPF quaternion0 -0.522615 0.728159 0.122945 0.426079
DOCKED: USER    NEWDPF axisangle0 -0.577675 0.804874 0.135898 129.562028
DOCKED: USER    NEWDPF quat0 -0.577675 0.804874 0.135898 129.562028
DOCKED: USER    NEWDPF dihe0 64.52 119.99 -140.49 135.40 133.06 99.68 34.19 114.71 163.09 141.09 -161.11 174.18 
DOCKED: USER  keepresnum = 1 
DOCKED: USER  
DOCKED: REMARK  12 active torsions:
DOCKED: REMARK  status: ('A' for Active; 'I' for Inactive)
DOCKED: REMARK    1  A    between atoms: C_6  and  C_10 
DOCKED: REMARK    2  A    between atoms: C_10  and  C_11 
DOCKED: REMARK    3  A    between atoms: C_11  and  C_12 
DOCKED: REMARK    4  A    between atoms: C_12  and  O_14 
DOCKED: REMARK    5  A    between atoms: C_17  and  C_20 
DOCKED: REMARK    6  A    between atoms: C_24  and  C_27 
DOCKED: REMARK    7  A    between atoms: C_31  and  C_34 
DOCKED: REMARK    8  A    between atoms: C_34  and  C_35 
DOCKED: REMARK    9  A    between atoms: C_35  and  C_36 
DOCKED: REMARK   10  A    between atoms: C_36  and  O_38 
DOCKED: REMARK   11  A    between atoms: FE_43  and  C_44 
DOCKED: REMARK   12  A    between atoms: C_44  and  O_45 
DOCKED: USER                              x       y       z     vdW  Elec       q    Type
DOCKED: USER                           _______ _______ _______ _____ _____    ______ ____
DOCKED: ROOT
DOCKED: ATOM      1  C   UNL d   1     -10.824   8.108  10.835 -0.24 -0.00    +0.064 A 
DOCKED: ATOM      2  C   UNL d   1     -11.990   4.896   7.527 -0.25 -0.00    +0.064 C 
DOCKED: ATOM      3  C   UNL d   1     -11.982   1.440  10.826 -0.21 -0.01    +0.064 A 
DOCKED: ATOM      4  C   UNL d   1     -11.172   4.762  14.286 -0.13 +0.01    +0.064 A 
DOCKED: ATOM      5  C   UNL d   1     -11.108   7.478   9.682 -0.28 -0.00    +0.066 A 
DOCKED: ATOM      6  C   UNL d   1     -11.273   8.176   8.470 -0.26 +0.00    -0.021 A 
DOCKED: ATOM      7  C   UNL d   1     -11.633   7.243   7.519 -0.22 +0.00    -0.025 A 
DOCKED: ATOM      8  C   UNL d   1     -11.657   6.013   8.186 -0.23 -0.00    +0.066 A 
DOCKED: ATOM      9  C   UNL d   1     -11.947   7.483   6.034 -0.19 -0.00    +0.051 C 
DOCKED: ATOM     10  C   UNL d   1     -12.016   3.584   8.124 -0.24 -0.00    +0.066 A 
DOCKED: ATOM     11  C   UNL d   1     -12.220   2.357   7.455 -0.24 +0.00    -0.021 A 
DOCKED: ATOM     12  C   UNL d   1     -12.209   1.366   8.441 -0.23 -0.00    +0.000 A 
DOCKED: ATOM     13  C   UNL d   1     -11.987   2.058   9.632 -0.20 -0.01    +0.070 A 
DOCKED: ATOM     14  C   UNL d   1     -12.320   2.160   5.965 -0.26 -0.01    +0.052 C 
DOCKED: ATOM     15  C   UNL d   1     -11.822   2.004  12.152 -0.21 -0.00    +0.066 A 
DOCKED: ATOM     16  C   UNL d   1     -11.971   1.330  13.356 -0.15 -0.00    -0.021 A 
DOCKED: ATOM     17  C   UNL d   1     -11.741   2.285  14.357 -0.14 +0.00    +0.000 A 
DOCKED: ATOM     18  C   UNL d   1     -11.451   3.466  13.682 -0.12 +0.01    +0.070 A 
DOCKED: ATOM     19  C   UNL d   1     -12.316  -0.135  13.505 -0.09 -0.00    +0.052 C 
DOCKED: ATOM     20  C   UNL d   1     -10.972   5.942  13.651 -0.15 +0.01    +0.066 A 
DOCKED: ATOM     21  C   UNL d   1     -10.748   7.130  14.342 -0.16 -0.00    -0.025 A 
DOCKED: ATOM     22  C   UNL d   1     -10.615   8.107  13.372 -0.20 -0.00    -0.021 A 
DOCKED: ATOM     23  C   UNL d   1     -10.778   7.463  12.127 -0.25 +0.00    +0.066 A 
DOCKED: ATOM     24  C   UNL d   1     -10.683   7.330  15.854 -0.09 +0.00    +0.051 C 
DOCKED: ATOM     25  N   UNL d   1     -11.330   6.129   9.527 -0.19 +0.00    -0.248 N 
DOCKED: ATOM     26  N   UNL d   1     -11.815   3.392   9.432 -0.13 +0.02    -0.248 N 
DOCKED: ATOM     27  N   UNL d   1     -11.538   3.268  12.371 -0.04 -0.00    -0.248 N 
DOCKED: ATOM     28  N   UNL d   1     -10.997   6.153  12.291 -0.14 -0.02    -0.248 N 
DOCKED: ATOM     29 FE   UNL d   1     -11.439   4.616  11.036 -0.06 -0.00    +0.000 Fe
DOCKED: ENDROOT
DOCKED: BRANCH   6  30
DOCKED: ATOM     30  C   UNL d   1     -11.166   9.684   8.267 -0.21 -0.01    +0.052 C 
DOCKED: BRANCH  30  31
DOCKED: ATOM     31  C   UNL d   1     -12.426  10.385   8.775 -0.06 -0.01    +0.115 C 
DOCKED: BRANCH  31  32
DOCKED: ATOM     32  C   UNL d   1     -13.598   9.437   8.913 -0.02 -0.01    +0.139 C 
DOCKED: ATOM     33  O   UNL d   1     -14.407   9.345   8.002 +0.01 +0.03    -0.650 OA
DOCKED: BRANCH  32  34
DOCKED: ATOM     34  O   UNL d   1     -13.757   8.645   9.999 +0.03 +0.03    -0.776 OA
DOCKED: ATOM     35  H   UNL d   1     -13.857   8.975  10.903 +0.01 -0.01    +0.167 HD
DOCKED: ENDBRANCH  32  34
DOCKED: ENDBRANCH  31  32
DOCKED: ENDBRANCH  30  31
DOCKED: ENDBRANCH   6  30
DOCKED: BRANCH  29  36
DOCKED: ATOM     36  C   UNL d   1     -13.483   5.060  11.174 -0.06 -0.01    +0.190 C 
DOCKED: BRANCH  36  37
DOCKED: ATOM     37  O   UNL d   1     -14.383   6.108  11.390 +0.00 +0.01    -0.399 OA
DOCKED: ATOM     38  H   UNL d   1     -13.819   6.931  11.408 +0.02 -0.01    +0.209 HD
DOCKED: ENDBRANCH  36  37
DOCKED: ENDBRANCH  29  36
DOCKED: BRANCH  22  39
DOCKED: ATOM     39  C   UNL d   1     -10.409   9.587  13.636 -0.15 +0.00    +0.052 C 
DOCKED: BRANCH  39  40
DOCKED: ATOM     40  C   UNL d   1     -11.756  10.288  13.878 -0.04 -0.00    +0.115 C 
DOCKED: BRANCH  40  41
DOCKED: ATOM     41  C   UNL d   1     -12.847   9.897  12.904 -0.02 -0.00    +0.139 C 
DOCKED: ATOM     42  O   UNL d   1     -13.196  10.693  12.044 +0.01 +0.02    -0.650 OA
DOCKED: BRANCH  41  43
DOCKED: ATOM     43  O   UNL d   1     -13.388   8.658  12.903 +0.03 +0.02    -0.776 OA
DOCKED: ATOM     44  H   UNL d   1     -13.530   8.154  12.091 +0.02 -0.00    +0.167 HD
DOCKED: ENDBRANCH  41  43
DOCKED: ENDBRANCH  40  41
DOCKED: ENDBRANCH  39  40
DOCKED: ENDBRANCH  22  39
DOCKED: BRANCH  12  45
DOCKED: ATOM     45  C   UNL d   1     -12.363  -0.148   8.392 -0.23 -0.00    +0.004 C 
DOCKED: ATOM     46  C   UNL d   1     -11.588  -1.113   8.878 -0.28 -0.01    +0.012 C 
DOCKED: ENDBRANCH  12  45
DOCKED: BRANCH  17  47
DOCKED: ATOM     47  C   UNL d   1     -11.828   2.150  15.842 -0.08 +0.00    +0.004 C 
DOCKED: ATOM     48  C   UNL d   1     -10.766   2.202  16.650 -0.12 +0.00    +0.012 C 
DOCKED: ENDBRANCH  17  47
DOCKED: TORSDOF 12
DOCKED: TER
DOCKED: ENDMDL
________________________________________________________________________________


	BEGINNING GENETIC ALGORITHM DOCKING 28 of 100
Run: 28 Seed: 863415249 838022380 [ Run 28 of 100 GA/GALS ]
Beginning LAMARCKIAN GENETIC ALGORITHM (LGA), with a maximum of 25000000 energy evaluations.

Final-Value: -10.285


	FINAL GENETIC ALGORITHM DOCKED STATE
	_______________________________________________


Detailed state:  trans 5.324 13.456 -13.016 quatxyzw -0.582904 -0.449804 -0.328914 -0.591367 center 8.781 34.984 -0.736 ntor 12 45.1336 104.9010 -29.6015 -103.9814 153.4919 150.0793 69.2123 122.3380 67.0999 0.1497 160.0064 180.0000
State:	  5.324  13.456 -13.016  -0.723 -0.558 -0.408 -107.492     45.13  104.90  -29.60 -103.98  153.49  150.08   69.21  122.34   67.10    0.15  160.01  180.00

DOCKED: MODEL       28
DOCKED: USER    Run = 28
DOCKED: USER    DPF = D:/Protein_go_brrr/autodock/final/mut_N102T/heme_Co/dock.dpf
DOCKED: USER  
DOCKED: USER    Estimated Free Energy of Binding    =   -5.95 kcal/mol  [=(1)+(2)+(3)-(4)]
DOCKED: USER    Estimated Inhibition Constant, Ki   =   43.40 uM (micromolar)  [Temperature = 298.15 K]
DOCKED: USER    
DOCKED: USER    (1) Final Intermolecular Energy     =   -9.53 kcal/mol
DOCKED: USER        vdW + Hbond + desolv Energy     =   -8.54 kcal/mol
DOCKED: USER        Electrostatic Energy            =   -0.99 kcal/mol
DOCKED: USER    (2) Final Total Internal Energy     =   -0.75 kcal/mol
DOCKED: USER    (3) Torsional Free Energy           =   +3.58 kcal/mol
DOCKED: USER    (4) Unbound System's Energy  [=(2)] =   -0.75 kcal/mol
DOCKED: USER    
DOCKED: USER    
DOCKED: USER    NEWDPF move heme_Co_opt.pdbqt
DOCKED: USER    NEWDPF about 8.781000 34.984000 -0.736000
DOCKED: USER    NEWDPF tran0 5.323751 13.456256 -13.015833
DOCKED: USER    NEWDPF quaternion0 -0.582904 -0.449804 -0.328914 -0.591367
DOCKED: USER    NEWDPF axisangle0 -0.722845 -0.557791 -0.407878 -107.491850
DOCKED: USER    NEWDPF quat0 -0.722845 -0.557791 -0.407878 -107.491850
DOCKED: USER    NEWDPF dihe0 45.13 104.90 -29.60 -103.98 153.49 150.08 69.21 122.34 67.10 0.15 160.01 180.00 
DOCKED: USER  keepresnum = 1 
DOCKED: USER  
DOCKED: REMARK  12 active torsions:
DOCKED: REMARK  status: ('A' for Active; 'I' for Inactive)
DOCKED: REMARK    1  A    between atoms: C_6  and  C_10 
DOCKED: REMARK    2  A    between atoms: C_10  and  C_11 
DOCKED: REMARK    3  A    between atoms: C_11  and  C_12 
DOCKED: REMARK    4  A    between atoms: C_12  and  O_14 
DOCKED: REMARK    5  A    between atoms: C_17  and  C_20 
DOCKED: REMARK    6  A    between atoms: C_24  and  C_27 
DOCKED: REMARK    7  A    between atoms: C_31  and  C_34 
DOCKED: REMARK    8  A    between atoms: C_34  and  C_35 
DOCKED: REMARK    9  A    between atoms: C_35  and  C_36 
DOCKED: REMARK   10  A    between atoms: C_36  and  O_38 
DOCKED: REMARK   11  A    between atoms: FE_43  and  C_44 
DOCKED: REMARK   12  A    between atoms: C_44  and  O_45 
DOCKED: USER                              x       y       z     vdW  Elec       q    Type
DOCKED: USER                           _______ _______ _______ _____ _____    ______ ____
DOCKED: ROOT
DOCKED: ATOM      1  C   UNL d   1       5.172  12.409 -14.912 -0.22 -0.05    +0.064 A 
DOCKED: ATOM      2  C   UNL d   1       2.665  15.982 -13.027 -0.21 -0.01    +0.064 C 
DOCKED: ATOM      3  C   UNL d   1       5.115  15.598  -8.943 -0.22 -0.02    +0.064 A 
DOCKED: ATOM      4  C   UNL d   1       7.948  12.206 -10.978 -0.22 -0.02    +0.064 A 
DOCKED: ATOM      5  C   UNL d   1       4.283  13.389 -14.684 -0.29 -0.03    +0.066 A 
DOCKED: ATOM      6  C   UNL d   1       3.411  13.855 -15.688 -0.28 +0.01    -0.021 A 
DOCKED: ATOM      7  C   UNL d   1       2.702  14.907 -15.142 -0.28 +0.00    -0.025 A 
DOCKED: ATOM      8  C   UNL d   1       3.159  15.028 -13.826 -0.24 -0.02    +0.066 A 
DOCKED: ATOM      9  C   UNL d   1       1.632  15.776 -15.822 -0.26 +0.01    +0.051 C 
DOCKED: ATOM     10  C   UNL d   1       3.055  16.166 -11.652 -0.18 -0.02    +0.066 A 
DOCKED: ATOM     11  C   UNL d   1       2.475  17.056 -10.722 -0.14 +0.01    -0.021 A 
DOCKED: ATOM     12  C   UNL d   1       3.206  16.920  -9.538 -0.19 -0.00    +0.000 A 
DOCKED: ATOM     13  C   UNL d   1       4.167  15.951  -9.829 -0.20 -0.03    +0.070 A 
DOCKED: ATOM     14  C   UNL d   1       1.246  17.899 -10.941 -0.09 -0.01    +0.052 C 
DOCKED: ATOM     15  C   UNL d   1       6.210  14.659  -9.094 -0.22 -0.03    +0.066 A 
DOCKED: ATOM     16  C   UNL d   1       7.242  14.446  -8.191 -0.17 +0.01    -0.021 A 
DOCKED: ATOM     17  C   UNL d   1       8.063  13.470  -8.774 -0.19 -0.00    +0.000 A 
DOCKED: ATOM     18  C   UNL d   1       7.455  13.152  -9.984 -0.21 -0.03    +0.070 A 
DOCKED: ATOM     19  C   UNL d   1       7.403  15.150  -6.862 -0.15 -0.05    +0.052 C 
DOCKED: ATOM     20  C   UNL d   1       7.422  11.944 -12.198 -0.25 -0.02    +0.066 A 
DOCKED: ATOM     21  C   UNL d   1       8.007  11.039 -13.081 -0.20 +0.01    -0.025 A 
DOCKED: ATOM     22  C   UNL d   1       7.212  11.055 -14.213 -0.22 +0.01    -0.021 A 
DOCKED: ATOM     23  C   UNL d   1       6.180  11.985 -13.967 -0.28 -0.04    +0.066 A 
DOCKED: ATOM     24  C   UNL d   1       9.273  10.214 -12.866 -0.31 -0.01    +0.051 C 
DOCKED: ATOM     25  N   UNL d   1       4.135  14.096 -13.513 -0.14 +0.11    -0.248 N 
DOCKED: ATOM     26  N   UNL d   1       4.039  15.456 -11.089 -0.13 +0.11    -0.248 N 
DOCKED: ATOM     27  N   UNL d   1       6.371  13.900 -10.155 -0.10 +0.11    -0.248 N 
DOCKED: ATOM     28  N   UNL d   1       6.304  12.527 -12.749 +0.03 +0.13    -0.248 N 
DOCKED: ATOM     29 FE   UNL d   1       5.321  13.989 -11.736 -0.05 -0.00    +0.000 Fe
DOCKED: ENDROOT
DOCKED: BRANCH   6  30
DOCKED: ATOM     30  C   UNL d   1       3.332  13.357 -17.127 -0.34 -0.02    +0.052 C 
DOCKED: BRANCH  30  31
DOCKED: ATOM     31  C   UNL d   1       3.726  14.466 -18.102 -0.16 -0.02    +0.115 C 
DOCKED: BRANCH  31  32
DOCKED: ATOM     32  C   UNL d   1       2.573  14.895 -18.984 -0.17 +0.02    +0.139 C 
DOCKED: ATOM     33  O   UNL d   1       2.046  14.078 -19.724 -0.05 -0.12    -0.650 OA
DOCKED: BRANCH  32  34
DOCKED: ATOM     34  O   UNL d   1       2.071  16.151 -18.947 +0.00 -0.32    -0.776 OA
DOCKED: ATOM     35  H   UNL d   1       2.610  16.951 -18.879 +0.03 +0.06    +0.167 HD
DOCKED: ENDBRANCH  32  34
DOCKED: ENDBRANCH  31  32
DOCKED: ENDBRANCH  30  31
DOCKED: ENDBRANCH   6  30
DOCKED: BRANCH  29  36
DOCKED: ATOM     36  C   UNL d   1       6.550  15.449 -12.603 -0.06 -0.05    +0.190 C 
DOCKED: BRANCH  36  37
DOCKED: ATOM     37  O   UNL d   1       6.747  16.186 -13.776 +0.00 +0.07    -0.399 OA
DOCKED: ATOM     38  H   UNL d   1       6.120  15.785 -14.440 +0.03 -0.04    +0.209 HD
DOCKED: ENDBRANCH  36  37
DOCKED: ENDBRANCH  29  36
DOCKED: BRANCH  22  39
DOCKED: ATOM     39  C   UNL d   1       7.473  10.266 -15.482 -0.21 -0.03    +0.052 C 
DOCKED: BRANCH  39  40
DOCKED: ATOM     40  C   UNL d   1       8.558  10.948 -16.332 -0.21 -0.03    +0.115 C 
DOCKED: BRANCH  40  41
DOCKED: ATOM     41  C   UNL d   1       8.978  10.164 -17.557 -0.11 +0.03    +0.139 C 
DOCKED: ATOM     42  O   UNL d   1      10.004   9.499 -17.519 -0.06 -0.27    -0.650 OA
DOCKED: BRANCH  41  43
DOCKED: ATOM     43  O   UNL d   1       8.205  10.108 -18.664 -0.48 -0.31    -0.776 OA
DOCKED: ATOM     44  H   UNL d   1       7.252  10.262 -18.640 -0.29 -0.07    +0.167 HD
DOCKED: ENDBRANCH  41  43
DOCKED: ENDBRANCH  40  41
DOCKED: ENDBRANCH  39  40
DOCKED: ENDBRANCH  22  39
DOCKED: BRANCH  12  45
DOCKED: ATOM     45  C   UNL d   1       3.096  17.577  -8.169 -0.17 -0.00    +0.004 C 
DOCKED: ATOM     46  C   UNL d   1       3.914  18.422  -7.545 -0.10 -0.00    +0.012 C 
DOCKED: ENDBRANCH  12  45
DOCKED: BRANCH  17  47
DOCKED: ATOM     47  C   UNL d   1       9.352  12.894  -8.289 -0.24 -0.00    +0.004 C 
DOCKED: ATOM     48  C   UNL d   1       9.607  11.584  -8.251 -0.35 -0.01    +0.012 C 
DOCKED: ENDBRANCH  17  47
DOCKED: TORSDOF 12
DOCKED: TER
DOCKED: ENDMDL
________________________________________________________________________________


	BEGINNING GENETIC ALGORITHM DOCKING 29 of 100
Run: 29 Seed: 987010708 2122641079 [ Run 29 of 100 GA/GALS ]
Beginning LAMARCKIAN GENETIC ALGORITHM (LGA), with a maximum of 25000000 energy evaluations.

Final-Value: -10.089


	FINAL GENETIC ALGORITHM DOCKED STATE
	_______________________________________________


Detailed state:  trans -11.736 2.900 10.267 quatxyzw -0.261051 -0.123222 0.665393 -0.688419 center 8.781 34.984 -0.736 ntor 12 40.7680 111.9061 -133.3996 115.5599 139.1120 115.0885 23.4018 122.1137 -175.7664 135.9624 180.0000 172.2838
State:	-11.736   2.900  10.267  -0.360 -0.170  0.917 -92.990     40.77  111.91 -133.40  115.56  139.11  115.09   23.40  122.11 -175.77  135.96  180.00  172.28

DOCKED: MODEL       29
DOCKED: USER    Run = 29
DOCKED: USER    DPF = D:/Protein_go_brrr/autodock/final/mut_N102T/heme_Co/dock.dpf
DOCKED: USER  
DOCKED: USER    Estimated Free Energy of Binding    =   -2.71 kcal/mol  [=(1)+(2)+(3)-(4)]
DOCKED: USER    Estimated Inhibition Constant, Ki   =   10.30 mM (millimolar)  [Temperature = 298.15 K]
DOCKED: USER    
DOCKED: USER    (1) Final Intermolecular Energy     =   -6.29 kcal/mol
DOCKED: USER        vdW + Hbond + desolv Energy     =   -6.46 kcal/mol
DOCKED: USER        Electrostatic Energy            =   +0.17 kcal/mol
DOCKED: USER    (2) Final Total Internal Energy     =   -3.80 kcal/mol
DOCKED: USER    (3) Torsional Free Energy           =   +3.58 kcal/mol
DOCKED: USER    (4) Unbound System's Energy  [=(2)] =   -3.80 kcal/mol
DOCKED: USER    
DOCKED: USER    
DOCKED: USER    NEWDPF move heme_Co_opt.pdbqt
DOCKED: USER    NEWDPF about 8.781000 34.984000 -0.736000
DOCKED: USER    NEWDPF tran0 -11.736033 2.899809 10.266988
DOCKED: USER    NEWDPF quaternion0 -0.261051 -0.123222 0.665393 -0.688419
DOCKED: USER    NEWDPF axisangle0 -0.359914 -0.169888 0.917387 -92.989853
DOCKED: USER    NEWDPF quat0 -0.359914 -0.169888 0.917387 -92.989853
DOCKED: USER    NEWDPF dihe0 40.77 111.91 -133.40 115.56 139.11 115.09 23.40 122.11 -175.77 135.96 180.00 172.28 
DOCKED: USER  keepresnum = 1 
DOCKED: USER  
DOCKED: REMARK  12 active torsions:
DOCKED: REMARK  status: ('A' for Active; 'I' for Inactive)
DOCKED: REMARK    1  A    between atoms: C_6  and  C_10 
DOCKED: REMARK    2  A    between atoms: C_10  and  C_11 
DOCKED: REMARK    3  A    between atoms: C_11  and  C_12 
DOCKED: REMARK    4  A    between atoms: C_12  and  O_14 
DOCKED: REMARK    5  A    between atoms: C_17  and  C_20 
DOCKED: REMARK    6  A    between atoms: C_24  and  C_27 
DOCKED: REMARK    7  A    between atoms: C_31  and  C_34 
DOCKED: REMARK    8  A    between atoms: C_34  and  C_35 
DOCKED: REMARK    9  A    between atoms: C_35  and  C_36 
DOCKED: REMARK   10  A    between atoms: C_36  and  O_38 
DOCKED: REMARK   11  A    between atoms: FE_43  and  C_44 
DOCKED: REMARK   12  A    between atoms: C_44  and  O_45 
DOCKED: USER                              x       y       z     vdW  Elec       q    Type
DOCKED: USER                           _______ _______ _______ _____ _____    ______ ____
DOCKED: ROOT
DOCKED: ATOM      1  C   UNL d   1     -11.884   0.826   9.641 -0.22 -0.01    +0.064 A 
DOCKED: ATOM      2  C   UNL d   1     -11.444   2.848  13.922 -0.18 +0.01    +0.064 C 
DOCKED: ATOM      3  C   UNL d   1     -10.997   7.148  11.887 -0.23 +0.00    +0.064 A 
DOCKED: ATOM      4  C   UNL d   1     -11.830   5.156   7.528 -0.22 -0.00    +0.064 A 
DOCKED: ATOM      5  C   UNL d   1     -11.761   1.058  10.959 -0.22 -0.01    +0.066 A 
DOCKED: ATOM      6  C   UNL d   1     -11.908   0.034  11.915 -0.18 +0.00    -0.021 A 
DOCKED: ATOM      7  C   UNL d   1     -11.801   0.631  13.156 -0.16 -0.00    -0.025 A 
DOCKED: ATOM      8  C   UNL d   1     -11.578   1.988  12.904 -0.19 +0.00    +0.066 A 
DOCKED: ATOM      9  C   UNL d   1     -11.905  -0.039  14.535 -0.10 +0.01    +0.051 C 
DOCKED: ATOM     10  C   UNL d   1     -11.186   4.257  13.761 -0.10 +0.01    +0.066 A 
DOCKED: ATOM     11  C   UNL d   1     -10.896   5.185  14.785 -0.11 -0.00    -0.021 A 
DOCKED: ATOM     12  C   UNL d   1     -10.766   6.430  14.163 -0.19 +0.00    +0.000 A 
DOCKED: ATOM     13  C   UNL d   1     -10.973   6.168  12.808 -0.19 +0.01    +0.070 A 
DOCKED: ATOM     14  C   UNL d   1     -10.668   4.865  16.240 -0.11 +0.00    +0.052 C 
DOCKED: ATOM     15  C   UNL d   1     -11.247   7.064  10.461 -0.24 -0.00    +0.066 A 
DOCKED: ATOM     16  C   UNL d   1     -11.401   8.131   9.589 -0.22 +0.00    -0.021 A 
DOCKED: ATOM     17  C   UNL d   1     -11.644   7.562   8.330 -0.24 -0.00    +0.000 A 
DOCKED: ATOM     18  C   UNL d   1     -11.602   6.186   8.533 -0.25 -0.00    +0.070 A 
DOCKED: ATOM     19  C   UNL d   1     -11.317   9.593   9.968 -0.17 -0.00    +0.052 C 
DOCKED: ATOM     20  C   UNL d   1     -11.880   3.816   7.718 -0.25 -0.00    +0.066 A 
DOCKED: ATOM     21  C   UNL d   1     -12.143   2.927   6.678 -0.25 +0.00    -0.025 A 
DOCKED: ATOM     22  C   UNL d   1     -12.137   1.669   7.252 -0.25 +0.00    -0.021 A 
DOCKED: ATOM     23  C   UNL d   1     -11.879   1.855   8.627 -0.24 -0.01    +0.066 A 
DOCKED: ATOM     24  C   UNL d   1     -12.409   3.260   5.212 -0.23 -0.00    +0.051 C 
DOCKED: ATOM     25  N   UNL d   1     -11.542   2.281  11.551 -0.14 +0.02    -0.248 N 
DOCKED: ATOM     26  N   UNL d   1     -11.171   4.846  12.560 +0.01 -0.02    -0.248 N 
DOCKED: ATOM     27  N   UNL d   1     -11.394   5.926   9.819 -0.14 +0.00    -0.248 N 
DOCKED: ATOM     28  N   UNL d   1     -11.725   3.153   8.913 -0.08 +0.02    -0.248 N 
DOCKED: ATOM     29 FE   UNL d   1     -11.463   4.210  10.630 -0.07 -0.00    +0.000 Fe
DOCKED: ENDROOT
DOCKED: BRANCH   6  30
DOCKED: ATOM     30  C   UNL d   1     -12.218  -1.433  11.637 -0.13 -0.02    +0.052 C 
DOCKED: BRANCH  30  31
DOCKED: ATOM     31  C   UNL d   1     -13.718  -1.697  11.761 -0.02 -0.02    +0.115 C 
DOCKED: BRANCH  31  32
DOCKED: ATOM     32  C   UNL d   1     -14.503  -0.440  12.068 -0.01 -0.01    +0.139 C 
DOCKED: ATOM     33  O   UNL d   1     -14.952  -0.271  13.192 +0.01 +0.04    -0.650 OA
DOCKED: BRANCH  32  34
DOCKED: ATOM     34  O   UNL d   1     -14.685   0.535  11.147 +0.03 +0.08    -0.776 OA
DOCKED: ATOM     35  H   UNL d   1     -14.820   0.372  10.203 +0.02 -0.02    +0.167 HD
DOCKED: ENDBRANCH  32  34
DOCKED: ENDBRANCH  31  32
DOCKED: ENDBRANCH  30  31
DOCKED: ENDBRANCH   6  30
DOCKED: BRANCH  29  36
DOCKED: ATOM     36  C   UNL d   1     -13.538   4.306  10.915 -0.07 -0.01    +0.190 C 
DOCKED: BRANCH  36  37
DOCKED: ATOM     37  O   UNL d   1     -14.707   3.540  10.859 -0.00 +0.02    -0.399 OA
DOCKED: ATOM     38  H   UNL d   1     -14.408   2.637  10.560 +0.02 -0.01    +0.209 HD
DOCKED: ENDBRANCH  36  37
DOCKED: ENDBRANCH  29  36
DOCKED: BRANCH  22  39
DOCKED: ATOM     39  C   UNL d   1     -12.427   0.369   6.526 -0.21 -0.02    +0.052 C 
DOCKED: BRANCH  39  40
DOCKED: ATOM     40  C   UNL d   1     -13.939   0.089   6.498 -0.10 -0.04    +0.115 C 
DOCKED: BRANCH  40  41
DOCKED: ATOM     41  C   UNL d   1     -14.621   0.207   7.845 -0.03 -0.03    +0.139 C 
DOCKED: ATOM     42  O   UNL d   1     -14.864  -0.807   8.484 +0.03 +0.12    -0.650 OA
DOCKED: BRANCH  41  43
DOCKED: ATOM     43  O   UNL d   1     -14.891   1.409   8.401 +0.04 +0.09    -0.776 OA
DOCKED: ATOM     44  H   UNL d   1     -14.614   1.641   9.297 +0.02 -0.02    +0.167 HD
DOCKED: ENDBRANCH  41  43
DOCKED: ENDBRANCH  40  41
DOCKED: ENDBRANCH  39  40
DOCKED: ENDBRANCH  22  39
DOCKED: BRANCH  12  45
DOCKED: ATOM     45  C   UNL d   1     -10.454   7.825  14.687 -0.17 +0.00    +0.004 C 
DOCKED: ATOM     46  C   UNL d   1      -9.352   8.563  14.581 -0.24 +0.00    +0.012 C 
DOCKED: ENDBRANCH  12  45
DOCKED: BRANCH  17  47
DOCKED: ATOM     47  C   UNL d   1     -11.948   8.224   7.027 -0.22 -0.00    +0.004 C 
DOCKED: ATOM     48  C   UNL d   1     -11.164   8.127   5.950 -0.28 -0.00    +0.012 C 
DOCKED: ENDBRANCH  17  47
DOCKED: TORSDOF 12
DOCKED: TER
DOCKED: ENDMDL
________________________________________________________________________________


	BEGINNING GENETIC ALGORITHM DOCKING 30 of 100
Run: 30 Seed: 213359058 1789203964 [ Run 30 of 100 GA/GALS ]
Beginning LAMARCKIAN GENETIC ALGORITHM (LGA), with a maximum of 25000000 energy evaluations.

Final-Value: -9.815


	FINAL GENETIC ALGORITHM DOCKED STATE
	_______________________________________________


Detailed state:  trans -11.527 5.080 10.277 quatxyzw 0.123121 -0.512732 0.327422 -0.784055 center 8.781 34.984 -0.736 ntor 12 127.8766 108.3108 -47.1931 116.2700 95.2910 116.6495 -125.1870 -21.1546 -119.9633 -179.5680 179.9775 -180.0000
State:	-11.527   5.080  10.277   0.198 -0.826  0.528 -76.733    127.88  108.31  -47.19  116.27   95.29  116.65 -125.19  -21.15 -119.96 -179.57  179.98 -180.00

DOCKED: MODEL       30
DOCKED: USER    Run = 30
DOCKED: USER    DPF = D:/Protein_go_brrr/autodock/final/mut_N102T/heme_Co/dock.dpf
DOCKED: USER  
DOCKED: USER    Estimated Free Energy of Binding    =   -2.53 kcal/mol  [=(1)+(2)+(3)-(4)]
DOCKED: USER    Estimated Inhibition Constant, Ki   =   13.90 mM (millimolar)  [Temperature = 298.15 K]
DOCKED: USER    
DOCKED: USER    (1) Final Intermolecular Energy     =   -6.11 kcal/mol
DOCKED: USER        vdW + Hbond + desolv Energy     =   -6.17 kcal/mol
DOCKED: USER        Electrostatic Energy            =   +0.06 kcal/mol
DOCKED: USER    (2) Final Total Internal Energy     =   -3.70 kcal/mol
DOCKED: USER    (3) Torsional Free Energy           =   +3.58 kcal/mol
DOCKED: USER    (4) Unbound System's Energy  [=(2)] =   -3.70 kcal/mol
DOCKED: USER    
DOCKED: USER    
DOCKED: USER    NEWDPF move heme_Co_opt.pdbqt
DOCKED: USER    NEWDPF about 8.781000 34.984000 -0.736000
DOCKED: USER    NEWDPF tran0 -11.527478 5.079937 10.276839
DOCKED: USER    NEWDPF quaternion0 0.123121 -0.512732 0.327422 -0.784055
DOCKED: USER    NEWDPF axisangle0 0.198361 -0.826066 0.527511 -76.733268
DOCKED: USER    NEWDPF quat0 0.198361 -0.826066 0.527511 -76.733268
DOCKED: USER    NEWDPF dihe0 127.88 108.31 -47.19 116.27 95.29 116.65 -125.19 -21.15 -119.96 -179.57 179.98 -180.00 
DOCKED: USER  keepresnum = 1 
DOCKED: USER  
DOCKED: REMARK  12 active torsions:
DOCKED: REMARK  status: ('A' for Active; 'I' for Inactive)
DOCKED: REMARK    1  A    between atoms: C_6  and  C_10 
DOCKED: REMARK    2  A    between atoms: C_10  and  C_11 
DOCKED: REMARK    3  A    between atoms: C_11  and  C_12 
DOCKED: REMARK    4  A    between atoms: C_12  and  O_14 
DOCKED: REMARK    5  A    between atoms: C_17  and  C_20 
DOCKED: REMARK    6  A    between atoms: C_24  and  C_27 
DOCKED: REMARK    7  A    between atoms: C_31  and  C_34 
DOCKED: REMARK    8  A    between atoms: C_34  and  C_35 
DOCKED: REMARK    9  A    between atoms: C_35  and  C_36 
DOCKED: REMARK   10  A    between atoms: C_36  and  O_38 
DOCKED: REMARK   11  A    between atoms: FE_43  and  C_44 
DOCKED: REMARK   12  A    between atoms: C_44  and  O_45 
DOCKED: USER                              x       y       z     vdW  Elec       q    Type
DOCKED: USER                           _______ _______ _______ _____ _____    ______ ____
DOCKED: ROOT
DOCKED: ATOM      1  C   UNL d   1     -11.735   5.157   8.117 -0.23 -0.00    +0.064 A 
DOCKED: ATOM      2  C   UNL d   1     -12.408   1.660  11.268 -0.19 -0.01    +0.064 C 
DOCKED: ATOM      3  C   UNL d   1     -10.800   4.468  14.784 -0.00 +0.01    +0.064 A 
DOCKED: ATOM      4  C   UNL d   1     -10.468   8.176  11.652 -0.25 +0.00    +0.064 A 
DOCKED: ATOM      5  C   UNL d   1     -12.002   3.984   8.713 -0.21 -0.00    +0.066 A 
DOCKED: ATOM      6  C   UNL d   1     -12.571   2.902   8.013 -0.19 +0.00    -0.021 A 
DOCKED: ATOM      7  C   UNL d   1     -12.786   1.898   8.937 -0.16 +0.00    -0.025 A 
DOCKED: ATOM      8  C   UNL d   1     -12.324   2.404  10.157 -0.18 -0.01    +0.066 A 
DOCKED: ATOM      9  C   UNL d   1     -13.402   0.512   8.696 -0.10 -0.01    +0.051 C 
DOCKED: ATOM     10  C   UNL d   1     -11.935   2.086  12.561 -0.18 -0.00    +0.066 A 
DOCKED: ATOM     11  C   UNL d   1     -11.866   1.302  13.734 -0.14 -0.00    -0.021 A 
DOCKED: ATOM     12  C   UNL d   1     -11.390   2.145  14.743 -0.15 +0.00    +0.000 A 
DOCKED: ATOM     13  C   UNL d   1     -11.192   3.372  14.110 -0.14 +0.01    +0.070 A 
DOCKED: ATOM     14  C   UNL d   1     -12.149  -0.174  13.838 -0.10 +0.00    +0.052 C 
DOCKED: ATOM     15  C   UNL d   1     -10.599   5.821  14.302 -0.11 +0.01    +0.066 A 
DOCKED: ATOM     16  C   UNL d   1     -10.334   6.940  15.078 -0.16 -0.00    -0.021 A 
DOCKED: ATOM     17  C   UNL d   1     -10.239   8.013  14.180 -0.20 +0.00    +0.000 A 
DOCKED: ATOM     18  C   UNL d   1     -10.438   7.458  12.920 -0.26 +0.00    +0.070 A 
DOCKED: ATOM     19  C   UNL d   1     -10.187   6.948  16.584 -0.08 +0.00    +0.052 C 
DOCKED: ATOM     20  C   UNL d   1     -10.745   7.673  10.426 -0.30 -0.00    +0.066 A 
DOCKED: ATOM     21  C   UNL d   1     -10.780   8.472   9.285 -0.28 +0.00    -0.025 A 
DOCKED: ATOM     22  C   UNL d   1     -11.114   7.623   8.245 -0.30 +0.00    -0.021 A 
DOCKED: ATOM     23  C   UNL d   1     -11.280   6.341   8.810 -0.30 -0.00    +0.066 A 
DOCKED: ATOM     24  C   UNL d   1     -10.526   9.974   9.192 -0.24 -0.01    +0.051 C 
DOCKED: ATOM     25  N   UNL d   1     -11.827   3.692  10.047 -0.12 +0.02    -0.248 N 
DOCKED: ATOM     26  N   UNL d   1     -11.469   3.320  12.780 -0.10 -0.01    -0.248 N 
DOCKED: ATOM     27  N   UNL d   1     -10.679   6.156  13.034 -0.17 -0.02    -0.248 N 
DOCKED: ATOM     28  N   UNL d   1     -11.060   6.367  10.130 -0.16 -0.00    -0.248 N 
DOCKED: ATOM     29 FE   UNL d   1     -11.218   5.000  11.626 -0.06 +0.00    +0.000 Fe
DOCKED: ENDROOT
DOCKED: BRANCH   6  30
DOCKED: ATOM     30  C   UNL d   1     -12.963   2.877   6.539 -0.16 -0.00    +0.052 C 
DOCKED: BRANCH  30  31
DOCKED: ATOM     31  C   UNL d   1     -14.447   3.201   6.372 -0.03 -0.01    +0.115 C 
DOCKED: BRANCH  31  32
DOCKED: ATOM     32  C   UNL d   1     -14.812   4.551   6.952 -0.02 -0.01    +0.139 C 
DOCKED: ATOM     33  O   UNL d   1     -15.025   5.490   6.200 +0.02 +0.02    -0.650 OA
DOCKED: BRANCH  32  34
DOCKED: ATOM     34  O   UNL d   1     -14.960   4.744   8.283 +0.03 +0.03    -0.776 OA
DOCKED: ATOM     35  H   UNL d   1     -14.470   5.402   8.795 +0.02 -0.01    +0.167 HD
DOCKED: ENDBRANCH  32  34
DOCKED: ENDBRANCH  31  32
DOCKED: ENDBRANCH  30  31
DOCKED: ENDBRANCH   6  30
DOCKED: BRANCH  29  36
DOCKED: ATOM     36  C   UNL d   1     -13.248   5.467  11.870 -0.06 -0.00    +0.190 C 
DOCKED: BRANCH  36  37
DOCKED: ATOM     37  O   UNL d   1     -14.432   5.690  11.161 -0.00 +0.01    -0.399 OA
DOCKED: ATOM     38  H   UNL d   1     -14.166   5.660  10.200 +0.02 -0.01    +0.209 HD
DOCKED: ENDBRANCH  36  37
DOCKED: ENDBRANCH  29  36
DOCKED: BRANCH  22  39
DOCKED: ATOM     39  C   UNL d   1     -11.324   8.041   6.802 -0.27 -0.01    +0.052 C 
DOCKED: BRANCH  39  40
DOCKED: ATOM     40  C   UNL d   1     -12.710   8.681   6.619 -0.10 -0.01    +0.115 C 
DOCKED: BRANCH  40  41
DOCKED: ATOM     41  C   UNL d   1     -13.585   8.641   7.855 -0.03 -0.01    +0.139 C 
DOCKED: ATOM     42  O   UNL d   1     -13.931   9.692   8.376 +0.02 +0.03    -0.650 OA
DOCKED: BRANCH  41  43
DOCKED: ATOM     43  O   UNL d   1     -14.066   7.479   8.347 +0.04 +0.03    -0.776 OA
DOCKED: ATOM     44  H   UNL d   1     -14.402   6.773   7.779 +0.02 -0.01    +0.167 HD
DOCKED: ENDBRANCH  41  43
DOCKED: ENDBRANCH  40  41
DOCKED: ENDBRANCH  39  40
DOCKED: ENDBRANCH  22  39
DOCKED: BRANCH  12  45
DOCKED: ATOM     45  C   UNL d   1     -11.083   1.928  16.218 -0.12 +0.00    +0.004 C 
DOCKED: ATOM     46  C   UNL d   1      -9.920   1.856  16.859 -0.17 +0.00    +0.012 C 
DOCKED: ENDBRANCH  12  45
DOCKED: BRANCH  17  47
DOCKED: ATOM     47  C   UNL d   1     -10.032   9.467  14.449 -0.15 +0.00    +0.004 C 
DOCKED: ATOM     48  C   UNL d   1      -8.862   9.986  14.828 -0.15 +0.00    +0.012 C 
DOCKED: ENDBRANCH  17  47
DOCKED: TORSDOF 12
DOCKED: TER
DOCKED: ENDMDL
________________________________________________________________________________


	BEGINNING GENETIC ALGORITHM DOCKING 31 of 100
Run: 31 Seed: 148167172 1772787987 [ Run 31 of 100 GA/GALS ]
Beginning LAMARCKIAN GENETIC ALGORITHM (LGA), with a maximum of 25000000 energy evaluations.

Final-Value: -9.631


	FINAL GENETIC ALGORITHM DOCKED STATE
	_______________________________________________


Detailed state:  trans -8.398 -14.433 -9.028 quatxyzw -0.339857 0.198136 0.773915 -0.496281 center 8.781 34.984 -0.736 ntor 12 63.8846 105.5407 -149.9057 -71.3937 134.6412 83.7969 37.2009 -58.3509 -71.3652 178.8384 -24.2438 3.2229
State:	 -8.398 -14.433  -9.028  -0.391  0.228  0.891 -120.491     63.88  105.54 -149.91  -71.39  134.64   83.80   37.20  -58.35  -71.37  178.84  -24.24    3.22

DOCKED: MODEL       31
DOCKED: USER    Run = 31
DOCKED: USER    DPF = D:/Protein_go_brrr/autodock/final/mut_N102T/heme_Co/dock.dpf
DOCKED: USER  
DOCKED: USER    Estimated Free Energy of Binding    =   -5.29 kcal/mol  [=(1)+(2)+(3)-(4)]
DOCKED: USER    Estimated Inhibition Constant, Ki   =  133.29 uM (micromolar)  [Temperature = 298.15 K]
DOCKED: USER    
DOCKED: USER    (1) Final Intermolecular Energy     =   -8.87 kcal/mol
DOCKED: USER        vdW + Hbond + desolv Energy     =   -6.11 kcal/mol
DOCKED: USER        Electrostatic Energy            =   -2.75 kcal/mol
DOCKED: USER    (2) Final Total Internal Energy     =   -0.76 kcal/mol
DOCKED: USER    (3) Torsional Free Energy           =   +3.58 kcal/mol
DOCKED: USER    (4) Unbound System's Energy  [=(2)] =   -0.76 kcal/mol
DOCKED: USER    
DOCKED: USER    
DOCKED: USER    NEWDPF move heme_Co_opt.pdbqt
DOCKED: USER    NEWDPF about 8.781000 34.984000 -0.736000
DOCKED: USER    NEWDPF tran0 -8.397901 -14.433110 -9.028111
DOCKED: USER    NEWDPF quaternion0 -0.339857 0.198136 0.773915 -0.496281
DOCKED: USER    NEWDPF axisangle0 -0.391467 0.228225 0.891441 -120.491457
DOCKED: USER    NEWDPF quat0 -0.391467 0.228225 0.891441 -120.491457
DOCKED: USER    NEWDPF dihe0 63.88 105.54 -149.91 -71.39 134.64 83.80 37.20 -58.35 -71.37 178.84 -24.24 3.22 
DOCKED: USER  keepresnum = 1 
DOCKED: USER  
DOCKED: REMARK  12 active torsions:
DOCKED: REMARK  status: ('A' for Active; 'I' for Inactive)
DOCKED: REMARK    1  A    between atoms: C_6  and  C_10 
DOCKED: REMARK    2  A    between atoms: C_10  and  C_11 
DOCKED: REMARK    3  A    between atoms: C_11  and  C_12 
DOCKED: REMARK    4  A    between atoms: C_12  and  O_14 
DOCKED: REMARK    5  A    between atoms: C_17  and  C_20 
DOCKED: REMARK    6  A    between atoms: C_24  and  C_27 
DOCKED: REMARK    7  A    between atoms: C_31  and  C_34 
DOCKED: REMARK    8  A    between atoms: C_34  and  C_35 
DOCKED: REMARK    9  A    between atoms: C_35  and  C_36 
DOCKED: REMARK   10  A    between atoms: C_36  and  O_38 
DOCKED: REMARK   11  A    between atoms: FE_43  and  C_44 
DOCKED: REMARK   12  A    between atoms: C_44  and  O_45 
DOCKED: USER                              x       y       z     vdW  Elec       q    Type
DOCKED: USER                           _______ _______ _______ _____ _____    ______ ____
DOCKED: ROOT
DOCKED: ATOM      1  C   UNL d   1      -8.034 -16.420  -8.232 -0.11 +0.04    +0.064 A 
DOCKED: ATOM      2  C   UNL d   1      -7.210 -12.077  -6.481 -0.23 +0.04    +0.064 C 
DOCKED: ATOM      3  C   UNL d   1      -8.661 -10.107 -10.585 -0.16 +0.02    +0.064 A 
DOCKED: ATOM      4  C   UNL d   1      -9.874 -14.511 -12.256 -0.10 +0.01    +0.064 A 
DOCKED: ATOM      5  C   UNL d   1      -7.668 -15.380  -7.465 -0.06 +0.07    +0.066 A 
DOCKED: ATOM      6  C   UNL d   1      -7.243 -15.546  -6.133 -0.10 -0.03    -0.021 A 
DOCKED: ATOM      7  C   UNL d   1      -7.027 -14.281  -5.622 -0.12 -0.03    -0.025 A 
DOCKED: ATOM      8  C   UNL d   1      -7.314 -13.398  -6.669 -0.15 +0.06    +0.066 A 
DOCKED: ATOM      9  C   UNL d   1      -6.570 -13.902  -4.205 -0.21 +0.05    +0.051 C 
DOCKED: ATOM     10  C   UNL d   1      -7.459 -11.094  -7.506 -0.19 +0.02    +0.066 A 
DOCKED: ATOM     11  C   UNL d   1      -7.233  -9.703  -7.414 -0.29 -0.01    -0.021 A 
DOCKED: ATOM     12  C   UNL d   1      -7.661  -9.154  -8.626 -0.27 +0.00    +0.000 A 
DOCKED: ATOM     13  C   UNL d   1      -8.103 -10.248  -9.370 -0.17 +0.02    +0.070 A 
DOCKED: ATOM     14  C   UNL d   1      -6.563  -8.982  -6.273 -0.29 +0.01    +0.052 C 
DOCKED: ATOM     15  C   UNL d   1      -9.216 -11.116 -11.465 -0.13 +0.02    +0.066 A 
DOCKED: ATOM     16  C   UNL d   1      -9.911 -10.888 -12.645 -0.10 -0.00    -0.021 A 
DOCKED: ATOM     17  C   UNL d   1     -10.265 -12.155 -13.129 -0.09 +0.00    +0.000 A 
DOCKED: ATOM     18  C   UNL d   1      -9.742 -13.061 -12.212 -0.07 +0.01    +0.070 A 
DOCKED: ATOM     19  C   UNL d   1     -10.201  -9.529 -13.243 -0.11 +0.01    +0.052 C 
DOCKED: ATOM     20  C   UNL d   1      -9.449 -15.406 -11.332 -0.06 +0.01    +0.066 A 
DOCKED: ATOM     21  C   UNL d   1      -9.667 -16.775 -11.468 -0.09 -0.00    -0.025 A 
DOCKED: ATOM     22  C   UNL d   1      -9.121 -17.354 -10.336 -0.08 -0.01    -0.021 A 
DOCKED: ATOM     23  C   UNL d   1      -8.604 -16.299  -9.554 -0.11 +0.03    +0.066 A 
DOCKED: ATOM     24  C   UNL d   1     -10.378 -17.497 -12.610 -0.05 +0.00    +0.051 C 
DOCKED: ATOM     25  N   UNL d   1      -7.707 -14.052  -7.825 -0.10 -0.20    -0.248 N 
DOCKED: ATOM     26  N   UNL d   1      -7.928 -11.426  -8.714 -0.10 -0.07    -0.248 N 
DOCKED: ATOM     27  N   UNL d   1      -9.151 -12.405 -11.219 -0.09 -0.06    -0.248 N 
DOCKED: ATOM     28  N   UNL d   1      -8.803 -15.118 -10.152 -0.10 -0.08    -0.248 N 
DOCKED: ATOM     29 FE   UNL d   1      -8.472 -13.183  -9.624 -0.04 +0.00    +0.000 Fe
DOCKED: ENDROOT
DOCKED: BRANCH   6  30
DOCKED: ATOM     30  C   UNL d   1      -7.133 -16.863  -5.371 -0.09 +0.05    +0.052 C 
DOCKED: BRANCH  30  31
DOCKED: ATOM     31  C   UNL d   1      -6.153 -17.806  -6.067 -0.11 +0.14    +0.115 C 
DOCKED: BRANCH  31  32
DOCKED: ATOM     32  C   UNL d   1      -4.844 -17.936  -5.318 -0.12 +0.22    +0.139 C 
DOCKED: ATOM     33  O   UNL d   1      -3.914 -17.197  -5.602 -0.51 -1.41    -0.650 OA
DOCKED: BRANCH  32  34
DOCKED: ATOM     34  O   UNL d   1      -4.683 -18.816  -4.303 -0.18 -1.47    -0.776 OA
DOCKED: ATOM     35  H   UNL d   1      -4.788 -19.774  -4.392 +0.02 +0.22    +0.167 HD
DOCKED: ENDBRANCH  32  34
DOCKED: ENDBRANCH  31  32
DOCKED: ENDBRANCH  30  31
DOCKED: ENDBRANCH   6  30
DOCKED: BRANCH  29  36
DOCKED: ATOM     36  C   UNL d   1     -10.332 -13.103  -8.661 -0.01 +0.04    +0.190 C 
DOCKED: BRANCH  36  37
DOCKED: ATOM     37  O   UNL d   1     -11.384 -13.902  -8.202 +0.01 -0.07    -0.399 OA
DOCKED: ATOM     38  H   UNL d   1     -11.180 -14.817  -8.544 +0.01 +0.04    +0.209 HD
DOCKED: ENDBRANCH  36  37
DOCKED: ENDBRANCH  29  36
DOCKED: BRANCH  22  39
DOCKED: ATOM     39  C   UNL d   1      -9.157 -18.833 -10.000 -0.03 +0.01    +0.052 C 
DOCKED: BRANCH  39  40
DOCKED: ATOM     40  C   UNL d   1      -7.782 -19.478 -10.242 -0.05 +0.03    +0.115 C 
DOCKED: BRANCH  40  41
DOCKED: ATOM     41  C   UNL d   1      -6.769 -18.562 -10.898 -0.13 +0.05    +0.139 C 
DOCKED: ATOM     42  O   UNL d   1      -6.179 -17.736 -10.216 -0.39 -0.41    -0.650 OA
DOCKED: BRANCH  41  43
DOCKED: ATOM     43  O   UNL d   1      -6.435 -18.691 -12.201 -0.02 -0.17    -0.776 OA
DOCKED: ATOM     44  H   UNL d   1      -5.537 -18.543 -12.524 -0.00 +0.03    +0.167 HD
DOCKED: ENDBRANCH  41  43
DOCKED: ENDBRANCH  40  41
DOCKED: ENDBRANCH  39  40
DOCKED: ENDBRANCH  22  39
DOCKED: BRANCH  12  45
DOCKED: ATOM     45  C   UNL d   1      -7.686  -7.732  -9.170 -0.31 +0.00    +0.004 C 
DOCKED: ATOM     46  C   UNL d   1      -8.538  -6.734  -8.949 -0.32 +0.00    +0.012 C 
DOCKED: ENDBRANCH  12  45
DOCKED: BRANCH  17  47
DOCKED: ATOM     47  C   UNL d   1     -11.074 -12.526 -14.328 -0.05 +0.00    +0.004 C 
DOCKED: ATOM     48  C   UNL d   1     -10.570 -13.155 -15.393 -0.06 +0.00    +0.012 C 
DOCKED: ENDBRANCH  17  47
DOCKED: TORSDOF 12
DOCKED: TER
DOCKED: ENDMDL
________________________________________________________________________________


	BEGINNING GENETIC ALGORITHM DOCKING 32 of 100
Run: 32 Seed: 1016206332 1823454575 [ Run 32 of 100 GA/GALS ]
Beginning LAMARCKIAN GENETIC ALGORITHM (LGA), with a maximum of 25000000 energy evaluations.

Final-Value: -9.713


	FINAL GENETIC ALGORITHM DOCKED STATE
	_______________________________________________


Detailed state:  trans 12.767 2.865 14.184 quatxyzw -0.878213 -0.297748 -0.355680 0.116528 center 8.781 34.984 -0.736 ntor 12 16.4692 109.6241 -173.8466 116.5352 137.4382 99.0207 163.9790 -51.5695 30.7406 116.7323 -150.5760 167.9828
State:	 12.767   2.865  14.184  -0.884 -0.300 -0.358 166.616     16.47  109.62 -173.85  116.54  137.44   99.02  163.98  -51.57   30.74  116.73 -150.58  167.98

DOCKED: MODEL       32
DOCKED: USER    Run = 32
DOCKED: USER    DPF = D:/Protein_go_brrr/autodock/final/mut_N102T/heme_Co/dock.dpf
DOCKED: USER  
DOCKED: USER    Estimated Free Energy of Binding    =   -3.98 kcal/mol  [=(1)+(2)+(3)-(4)]
DOCKED: USER    Estimated Inhibition Constant, Ki   =    1.20 mM (millimolar)  [Temperature = 298.15 K]
DOCKED: USER    
DOCKED: USER    (1) Final Intermolecular Energy     =   -7.56 kcal/mol
DOCKED: USER        vdW + Hbond + desolv Energy     =   -5.68 kcal/mol
DOCKED: USER        Electrostatic Energy            =   -1.88 kcal/mol
DOCKED: USER    (2) Final Total Internal Energy     =   -2.15 kcal/mol
DOCKED: USER    (3) Torsional Free Energy           =   +3.58 kcal/mol
DOCKED: USER    (4) Unbound System's Energy  [=(2)] =   -2.15 kcal/mol
DOCKED: USER    
DOCKED: USER    
DOCKED: USER    NEWDPF move heme_Co_opt.pdbqt
DOCKED: USER    NEWDPF about 8.781000 34.984000 -0.736000
DOCKED: USER    NEWDPF tran0 12.767222 2.865455 14.184329
DOCKED: USER    NEWDPF quaternion0 -0.878213 -0.297748 -0.355680 0.116528
DOCKED: USER    NEWDPF axisangle0 -0.884237 -0.299791 -0.358120 166.616426
DOCKED: USER    NEWDPF quat0 -0.884237 -0.299791 -0.358120 166.616426
DOCKED: USER    NEWDPF dihe0 16.47 109.62 -173.85 116.54 137.44 99.02 163.98 -51.57 30.74 116.73 -150.58 167.98 
DOCKED: USER  keepresnum = 1 
DOCKED: USER  
DOCKED: REMARK  12 active torsions:
DOCKED: REMARK  status: ('A' for Active; 'I' for Inactive)
DOCKED: REMARK    1  A    between atoms: C_6  and  C_10 
DOCKED: REMARK    2  A    between atoms: C_10  and  C_11 
DOCKED: REMARK    3  A    between atoms: C_11  and  C_12 
DOCKED: REMARK    4  A    between atoms: C_12  and  O_14 
DOCKED: REMARK    5  A    between atoms: C_17  and  C_20 
DOCKED: REMARK    6  A    between atoms: C_24  and  C_27 
DOCKED: REMARK    7  A    between atoms: C_31  and  C_34 
DOCKED: REMARK    8  A    between atoms: C_34  and  C_35 
DOCKED: REMARK    9  A    between atoms: C_35  and  C_36 
DOCKED: REMARK   10  A    between atoms: C_36  and  O_38 
DOCKED: REMARK   11  A    between atoms: FE_43  and  C_44 
DOCKED: REMARK   12  A    between atoms: C_44  and  O_45 
DOCKED: USER                              x       y       z     vdW  Elec       q    Type
DOCKED: USER                           _______ _______ _______ _____ _____    ______ ____
DOCKED: ROOT
DOCKED: ATOM      1  C   UNL d   1      11.294   1.290  13.929 -0.18 +0.02    +0.064 A 
DOCKED: ATOM      2  C   UNL d   1      13.434   4.196  10.832 -0.32 +0.02    +0.064 C 
DOCKED: ATOM      3  C   UNL d   1      15.568   6.514  14.424 -0.10 +0.02    +0.064 A 
DOCKED: ATOM      4  C   UNL d   1      13.700   3.318  17.580 -0.09 +0.05    +0.064 A 
DOCKED: ATOM      5  C   UNL d   1      11.694   1.937  12.822 -0.22 +0.02    +0.066 A 
DOCKED: ATOM      6  C   UNL d   1      11.330   1.504  11.532 -0.28 -0.01    -0.021 A 
DOCKED: ATOM      7  C   UNL d   1      11.972   2.337  10.636 -0.36 -0.01    -0.025 A 
DOCKED: ATOM      8  C   UNL d   1      12.686   3.251  11.418 -0.28 +0.02    +0.066 A 
DOCKED: ATOM      9  C   UNL d   1      11.925   2.285   9.101 -0.24 +0.01    +0.051 C 
DOCKED: ATOM     10  C   UNL d   1      14.181   5.195  11.553 -0.23 +0.02    +0.066 A 
DOCKED: ATOM     11  C   UNL d   1      14.871   6.296  10.999 -0.27 -0.00    -0.021 A 
DOCKED: ATOM     12  C   UNL d   1      15.480   6.957  12.069 -0.19 +0.00    +0.000 A 
DOCKED: ATOM     13  C   UNL d   1      15.109   6.221  13.194 -0.14 +0.02    +0.070 A 
DOCKED: ATOM     14  C   UNL d   1      14.854   6.723   9.554 -0.22 +0.01    +0.052 C 
DOCKED: ATOM     15  C   UNL d   1      15.330   5.832  15.681 -0.06 +0.04    +0.066 A 
DOCKED: ATOM     16  C   UNL d   1      15.952   6.100  16.893 -0.05 -0.01    -0.021 A 
DOCKED: ATOM     17  C   UNL d   1      15.418   5.179  17.805 -0.06 +0.00    +0.000 A 
DOCKED: ATOM     18  C   UNL d   1      14.497   4.431  17.080 -0.06 +0.06    +0.070 A 
DOCKED: ATOM     19  C   UNL d   1      16.988   7.176  17.128 -0.02 +0.01    +0.052 C 
DOCKED: ATOM     20  C   UNL d   1      12.864   2.520  16.873 -0.13 +0.05    +0.066 A 
DOCKED: ATOM     21  C   UNL d   1      12.179   1.457  17.458 -0.12 -0.01    -0.025 A 
DOCKED: ATOM     22  C   UNL d   1      11.455   0.872  16.436 -0.14 -0.01    -0.021 A 
DOCKED: ATOM     23  C   UNL d   1      11.745   1.605  15.266 -0.18 +0.03    +0.066 A 
DOCKED: ATOM     24  C   UNL d   1      12.228   1.008  18.916 -0.06 +0.02    +0.051 C 
DOCKED: ATOM     25  N   UNL d   1      12.527   3.031  12.775 -0.15 -0.10    -0.248 N 
DOCKED: ATOM     26  N   UNL d   1      14.278   5.189  12.887 -0.07 -0.10    -0.248 N 
DOCKED: ATOM     27  N   UNL d   1      14.494   4.827  15.812 +0.00 -0.20    -0.248 N 
DOCKED: ATOM     28  N   UNL d   1      12.599   2.602  15.526 -0.12 -0.16    -0.248 N 
DOCKED: ATOM     29 FE   UNL d   1      13.567   3.980  14.386 -0.05 +0.00    +0.000 Fe
DOCKED: ENDROOT
DOCKED: BRANCH   6  30
DOCKED: ATOM     30  C   UNL d   1      10.470   0.292  11.188 -0.24 +0.02    +0.052 C 
DOCKED: BRANCH  30  31
DOCKED: ATOM     31  C   UNL d   1      11.185  -1.002  11.576 -0.13 +0.06    +0.115 C 
DOCKED: BRANCH  31  32
DOCKED: ATOM     32  C   UNL d   1      10.784  -2.168  10.698 -0.15 +0.14    +0.139 C 
DOCKED: ATOM     33  O   UNL d   1      10.532  -1.974   9.518 -0.38 -0.97    -0.650 OA
DOCKED: BRANCH  32  34
DOCKED: ATOM     34  O   UNL d   1      10.742  -3.437  11.166 -0.05 -0.83    -0.776 OA
DOCKED: ATOM     35  H   UNL d   1      10.790  -3.673  12.103 +0.03 +0.10    +0.167 HD
DOCKED: ENDBRANCH  32  34
DOCKED: ENDBRANCH  31  32
DOCKED: ENDBRANCH  30  31
DOCKED: ENDBRANCH   6  30
DOCKED: BRANCH  29  36
DOCKED: ATOM     36  C   UNL d   1      15.126   2.625  14.030 -0.04 +0.05    +0.190 C 
DOCKED: BRANCH  36  37
DOCKED: ATOM     37  O   UNL d   1      15.416   1.260  13.937 +0.00 -0.08    -0.399 OA
DOCKED: ATOM     38  H   UNL d   1      14.561   0.800  14.165 +0.02 +0.05    +0.209 HD
DOCKED: ENDBRANCH  36  37
DOCKED: ENDBRANCH  29  36
DOCKED: BRANCH  22  39
DOCKED: ATOM     39  C   UNL d   1      10.585  -0.364  16.570 -0.10 +0.02    +0.052 C 
DOCKED: BRANCH  39  40
DOCKED: ATOM     40  C   UNL d   1      11.400  -1.635  16.282 -0.02 +0.02    +0.115 C 
DOCKED: BRANCH  40  41
DOCKED: ATOM     41  C   UNL d   1      11.826  -1.791  14.838 -0.01 +0.03    +0.139 C 
DOCKED: ATOM     42  O   UNL d   1      12.865  -1.267  14.460 +0.02 -0.15    -0.650 OA
DOCKED: BRANCH  41  43
DOCKED: ATOM     43  O   UNL d   1      11.135  -2.566  13.973 +0.04 -0.21    -0.776 OA
DOCKED: ATOM     44  H   UNL d   1      11.484  -2.817  13.107 +0.02 +0.06    +0.167 HD
DOCKED: ENDBRANCH  41  43
DOCKED: ENDBRANCH  40  41
DOCKED: ENDBRANCH  39  40
DOCKED: ENDBRANCH  22  39
DOCKED: BRANCH  12  45
DOCKED: ATOM     45  C   UNL d   1      16.351   8.204  12.159 -0.14 +0.00    +0.004 C 
DOCKED: ATOM     46  C   UNL d   1      16.080   9.416  12.634 -0.14 +0.00    +0.012 C 
DOCKED: ENDBRANCH  12  45
DOCKED: BRANCH  17  47
DOCKED: ATOM     47  C   UNL d   1      15.758   4.954  19.242 -0.02 +0.00    +0.004 C 
DOCKED: ATOM     48  C   UNL d   1      14.898   5.156  20.243 -0.02 +0.00    +0.012 C 
DOCKED: ENDBRANCH  17  47
DOCKED: TORSDOF 12
DOCKED: TER
DOCKED: ENDMDL
________________________________________________________________________________


	BEGINNING GENETIC ALGORITHM DOCKING 33 of 100
Run: 33 Seed: 717515724 1335433183 [ Run 33 of 100 GA/GALS ]
Beginning LAMARCKIAN GENETIC ALGORITHM (LGA), with a maximum of 25000000 energy evaluations.

Final-Value: -11.173


	FINAL GENETIC ALGORITHM DOCKED STATE
	_______________________________________________


Detailed state:  trans -8.826 -16.648 -3.972 quatxyzw -0.643740 -0.542434 -0.455425 -0.289745 center 8.781 34.984 -0.736 ntor 12 -57.0788 114.8654 -64.0235 -71.9055 -31.3274 104.9864 54.5332 -29.9756 148.2714 -152.7665 -151.5853 157.6240
State:	 -8.826 -16.648  -3.972  -0.673 -0.567 -0.476 -146.315    -57.08  114.87  -64.02  -71.91  -31.33  104.99   54.53  -29.98  148.27 -152.77 -151.59  157.62

DOCKED: MODEL       33
DOCKED: USER    Run = 33
DOCKED: USER    DPF = D:/Protein_go_brrr/autodock/final/mut_N102T/heme_Co/dock.dpf
DOCKED: USER  
DOCKED: USER    Estimated Free Energy of Binding    =   -4.02 kcal/mol  [=(1)+(2)+(3)-(4)]
DOCKED: USER    Estimated Inhibition Constant, Ki   =    1.12 mM (millimolar)  [Temperature = 298.15 K]
DOCKED: USER    
DOCKED: USER    (1) Final Intermolecular Energy     =   -7.60 kcal/mol
DOCKED: USER        vdW + Hbond + desolv Energy     =   -3.45 kcal/mol
DOCKED: USER        Electrostatic Energy            =   -4.15 kcal/mol
DOCKED: USER    (2) Final Total Internal Energy     =   -3.57 kcal/mol
DOCKED: USER    (3) Torsional Free Energy           =   +3.58 kcal/mol
DOCKED: USER    (4) Unbound System's Energy  [=(2)] =   -3.57 kcal/mol
DOCKED: USER    
DOCKED: USER    
DOCKED: USER    NEWDPF move heme_Co_opt.pdbqt
DOCKED: USER    NEWDPF about 8.781000 34.984000 -0.736000
DOCKED: USER    NEWDPF tran0 -8.825987 -16.648305 -3.971970
DOCKED: USER    NEWDPF quaternion0 -0.643740 -0.542434 -0.455425 -0.289745
DOCKED: USER    NEWDPF axisangle0 -0.672592 -0.566745 -0.475837 -146.314672
DOCKED: USER    NEWDPF quat0 -0.672592 -0.566745 -0.475837 -146.314672
DOCKED: USER    NEWDPF dihe0 -57.08 114.87 -64.02 -71.91 -31.33 104.99 54.53 -29.98 148.27 -152.77 -151.59 157.62 
DOCKED: USER  keepresnum = 1 
DOCKED: USER  
DOCKED: REMARK  12 active torsions:
DOCKED: REMARK  status: ('A' for Active; 'I' for Inactive)
DOCKED: REMARK    1  A    between atoms: C_6  and  C_10 
DOCKED: REMARK    2  A    between atoms: C_10  and  C_11 
DOCKED: REMARK    3  A    between atoms: C_11  and  C_12 
DOCKED: REMARK    4  A    between atoms: C_12  and  O_14 
DOCKED: REMARK    5  A    between atoms: C_17  and  C_20 
DOCKED: REMARK    6  A    between atoms: C_24  and  C_27 
DOCKED: REMARK    7  A    between atoms: C_31  and  C_34 
DOCKED: REMARK    8  A    between atoms: C_34  and  C_35 
DOCKED: REMARK    9  A    between atoms: C_35  and  C_36 
DOCKED: REMARK   10  A    between atoms: C_36  and  O_38 
DOCKED: REMARK   11  A    between atoms: FE_43  and  C_44 
DOCKED: REMARK   12  A    between atoms: C_44  and  O_45 
DOCKED: USER                              x       y       z     vdW  Elec       q    Type
DOCKED: USER                           _______ _______ _______ _____ _____    ______ ____
DOCKED: ROOT
DOCKED: ATOM      1  C   UNL d   1      -8.571 -18.348  -5.300 +0.00 +0.03    +0.064 A 
DOCKED: ATOM      2  C   UNL d   1     -10.118 -13.914  -6.046 -0.01 +0.02    +0.064 C 
DOCKED: ATOM      3  C   UNL d   1      -9.861 -12.995  -1.364 -0.09 +0.01    +0.064 A 
DOCKED: ATOM      4  C   UNL d   1      -7.913 -17.391  -0.623 -0.09 +0.05    +0.064 A 
DOCKED: ATOM      5  C   UNL d   1      -9.047 -17.215  -5.843 +0.00 +0.03    +0.066 A 
DOCKED: ATOM      6  C   UNL d   1      -9.200 -17.061  -7.235 -0.01 -0.01    -0.021 A 
DOCKED: ATOM      7  C   UNL d   1      -9.627 -15.765  -7.447 -0.01 -0.01    -0.025 A 
DOCKED: ATOM      8  C   UNL d   1      -9.733 -15.190  -6.177 +0.00 +0.02    +0.066 A 
DOCKED: ATOM      9  C   UNL d   1      -9.928 -15.080  -8.789 -0.04 +0.01    +0.051 C 
DOCKED: ATOM     10  C   UNL d   1     -10.281 -13.245  -4.779 -0.02 +0.02    +0.066 A 
DOCKED: ATOM     11  C   UNL d   1     -10.816 -11.955  -4.569 -0.04 -0.00    -0.021 A 
DOCKED: ATOM     12  C   UNL d   1     -10.732 -11.715  -3.194 -0.08 +0.00    +0.000 A 
DOCKED: ATOM     13  C   UNL d   1     -10.166 -12.877  -2.669 -0.06 +0.01    +0.070 A 
DOCKED: ATOM     14  C   UNL d   1     -11.446 -11.070  -5.612 -0.02 +0.01    +0.052 C 
DOCKED: ATOM     15  C   UNL d   1      -9.229 -14.097  -0.664 -0.07 +0.01    +0.066 A 
DOCKED: ATOM     16  C   UNL d   1      -8.808 -14.098   0.658 -0.15 -0.00    -0.021 A 
DOCKED: ATOM     17  C   UNL d   1      -8.244 -15.363   0.876 -0.17 +0.00    +0.000 A 
DOCKED: ATOM     18  C   UNL d   1      -8.380 -16.041  -0.330 -0.08 +0.03    +0.070 A 
DOCKED: ATOM     19  C   UNL d   1      -8.952 -12.944   1.625 -0.22 -0.00    +0.052 C 
DOCKED: ATOM     20  C   UNL d   1      -7.957 -18.039  -1.811 -0.05 +0.06    +0.066 A 
DOCKED: ATOM     21  C   UNL d   1      -7.442 -19.323  -1.977 -0.02 -0.03    -0.025 A 
DOCKED: ATOM     22  C   UNL d   1      -7.644 -19.636  -3.309 -0.04 -0.02    -0.021 A 
DOCKED: ATOM     23  C   UNL d   1      -8.266 -18.514  -3.897 -0.02 +0.04    +0.066 A 
DOCKED: ATOM     24  C   UNL d   1      -6.772 -20.201  -0.924 -0.10 +0.05    +0.051 C 
DOCKED: ATOM     25  N   UNL d   1      -9.385 -16.067  -5.164 +0.01 -0.11    -0.248 N 
DOCKED: ATOM     26  N   UNL d   1      -9.946 -13.822  -3.621 -0.01 -0.06    -0.248 N 
DOCKED: ATOM     27  N   UNL d   1      -8.943 -15.246  -1.233 -0.01 -0.09    -0.248 N 
DOCKED: ATOM     28  N   UNL d   1      -8.455 -17.544  -2.994 -0.02 -0.18    -0.248 N 
DOCKED: ATOM     29 FE   UNL d   1      -9.150 -15.636  -3.081 -0.01 +0.00    +0.000 Fe
DOCKED: ENDROOT
DOCKED: BRANCH   6  30
DOCKED: ATOM     30  C   UNL d   1      -8.867 -18.094  -8.307 -0.03 +0.02    +0.052 C 
DOCKED: BRANCH  30  31
DOCKED: ATOM     31  C   UNL d   1      -7.359 -18.332  -8.373 -0.07 +0.06    +0.115 C 
DOCKED: BRANCH  31  32
DOCKED: ATOM     32  C   UNL d   1      -6.563 -17.082  -8.067 -0.11 +0.18    +0.139 C 
DOCKED: ATOM     33  O   UNL d   1      -6.485 -16.199  -8.908 -0.50 -0.93    -0.650 OA
DOCKED: BRANCH  32  34
DOCKED: ATOM     34  O   UNL d   1      -5.968 -16.885  -6.868 +0.01 -1.58    -0.776 OA
DOCKED: ATOM     35  H   UNL d   1      -6.444 -16.834  -6.027 +0.03 +0.25    +0.167 HD
DOCKED: ENDBRANCH  32  34
DOCKED: ENDBRANCH  31  32
DOCKED: ENDBRANCH  30  31
DOCKED: ENDBRANCH   6  30
DOCKED: BRANCH  29  36
DOCKED: ATOM     36  C   UNL d   1      -7.233 -14.934  -3.558 -0.10 +0.16    +0.190 C 
DOCKED: BRANCH  36  37
DOCKED: ATOM     37  O   UNL d   1      -6.061 -15.273  -4.242 -0.07 -0.56    -0.399 OA
DOCKED: ATOM     38  H   UNL d   1      -6.250 -16.164  -4.648 +0.04 +0.31    +0.209 HD
DOCKED: ENDBRANCH  36  37
DOCKED: ENDBRANCH  29  36
DOCKED: BRANCH  22  39
DOCKED: ATOM     39  C   UNL d   1      -7.201 -20.919  -3.988 -0.02 +0.03    +0.052 C 
DOCKED: BRANCH  39  40
DOCKED: ATOM     40  C   UNL d   1      -5.911 -20.691  -4.792 -0.03 +0.08    +0.115 C 
DOCKED: BRANCH  40  41
DOCKED: ATOM     41  C   UNL d   1      -5.103 -19.489  -4.349 +0.02 +0.20    +0.139 C 
DOCKED: ATOM     42  O   UNL d   1      -4.048 -19.663  -3.755 -0.34 -1.25    -0.650 OA
DOCKED: BRANCH  41  43
DOCKED: ATOM     43  O   UNL d   1      -5.472 -18.229  -4.668 +0.01 -1.25    -0.776 OA
DOCKED: ATOM     44  H   UNL d   1      -5.589 -17.937  -5.582 +0.03 +0.23    +0.167 HD
DOCKED: ENDBRANCH  41  43
DOCKED: ENDBRANCH  40  41
DOCKED: ENDBRANCH  39  40
DOCKED: ENDBRANCH  22  39
DOCKED: BRANCH  12  45
DOCKED: ATOM     45  C   UNL d   1     -11.137 -10.535  -2.320 -0.10 +0.00    +0.004 C 
DOCKED: ATOM     46  C   UNL d   1     -10.520  -9.380  -2.085 -0.12 +0.00    +0.012 C 
DOCKED: ENDBRANCH  12  45
DOCKED: BRANCH  17  47
DOCKED: ATOM     47  C   UNL d   1      -7.572 -15.911   2.092 -0.30 +0.00    +0.004 C 
DOCKED: ATOM     48  C   UNL d   1      -6.561 -15.300   2.715 -0.36 +0.00    +0.012 C 
DOCKED: ENDBRANCH  17  47
DOCKED: TORSDOF 12
DOCKED: TER
DOCKED: ENDMDL
________________________________________________________________________________


	BEGINNING GENETIC ALGORITHM DOCKING 34 of 100
Run: 34 Seed: 884734308 1082446001 [ Run 34 of 100 GA/GALS ]
Beginning LAMARCKIAN GENETIC ALGORITHM (LGA), with a maximum of 25000000 energy evaluations.

Final-Value: -10.383


	FINAL GENETIC ALGORITHM DOCKED STATE
	_______________________________________________


Detailed state:  trans 13.064 -0.118 -8.260 quatxyzw 0.537215 -0.123850 0.680033 0.483339 center 8.781 34.984 -0.736 ntor 12 140.2472 107.9671 -59.8158 104.0869 158.7844 109.4791 -125.7043 -20.0538 -126.9746 -168.7852 -174.0701 171.3460
State:	 13.064  -0.118  -8.260   0.614 -0.141  0.777 122.193    140.25  107.97  -59.82  104.09  158.78  109.48 -125.70  -20.05 -126.97 -168.79 -174.07  171.35

DOCKED: MODEL       34
DOCKED: USER    Run = 34
DOCKED: USER    DPF = D:/Protein_go_brrr/autodock/final/mut_N102T/heme_Co/dock.dpf
DOCKED: USER  
DOCKED: USER    Estimated Free Energy of Binding    =   -2.81 kcal/mol  [=(1)+(2)+(3)-(4)]
DOCKED: USER    Estimated Inhibition Constant, Ki   =    8.71 mM (millimolar)  [Temperature = 298.15 K]
DOCKED: USER    
DOCKED: USER    (1) Final Intermolecular Energy     =   -6.39 kcal/mol
DOCKED: USER        vdW + Hbond + desolv Energy     =   -6.48 kcal/mol
DOCKED: USER        Electrostatic Energy            =   +0.09 kcal/mol
DOCKED: USER    (2) Final Total Internal Energy     =   -3.99 kcal/mol
DOCKED: USER    (3) Torsional Free Energy           =   +3.58 kcal/mol
DOCKED: USER    (4) Unbound System's Energy  [=(2)] =   -3.99 kcal/mol
DOCKED: USER    
DOCKED: USER    
DOCKED: USER    NEWDPF move heme_Co_opt.pdbqt
DOCKED: USER    NEWDPF about 8.781000 34.984000 -0.736000
DOCKED: USER    NEWDPF tran0 13.063703 -0.118335 -8.260393
DOCKED: USER    NEWDPF quaternion0 0.537215 -0.123850 0.680033 0.483339
DOCKED: USER    NEWDPF axisangle0 0.613656 -0.141473 0.776796 122.192545
DOCKED: USER    NEWDPF quat0 0.613656 -0.141473 0.776796 122.192545
DOCKED: USER    NEWDPF dihe0 140.25 107.97 -59.82 104.09 158.78 109.48 -125.70 -20.05 -126.97 -168.79 -174.07 171.35 
DOCKED: USER  keepresnum = 1 
DOCKED: USER  
DOCKED: REMARK  12 active torsions:
DOCKED: REMARK  status: ('A' for Active; 'I' for Inactive)
DOCKED: REMARK    1  A    between atoms: C_6  and  C_10 
DOCKED: REMARK    2  A    between atoms: C_10  and  C_11 
DOCKED: REMARK    3  A    between atoms: C_11  and  C_12 
DOCKED: REMARK    4  A    between atoms: C_12  and  O_14 
DOCKED: REMARK    5  A    between atoms: C_17  and  C_20 
DOCKED: REMARK    6  A    between atoms: C_24  and  C_27 
DOCKED: REMARK    7  A    between atoms: C_31  and  C_34 
DOCKED: REMARK    8  A    between atoms: C_34  and  C_35 
DOCKED: REMARK    9  A    between atoms: C_35  and  C_36 
DOCKED: REMARK   10  A    between atoms: C_36  and  O_38 
DOCKED: REMARK   11  A    between atoms: FE_43  and  C_44 
DOCKED: REMARK   12  A    between atoms: C_44  and  O_45 
DOCKED: USER                              x       y       z     vdW  Elec       q    Type
DOCKED: USER                           _______ _______ _______ _____ _____    ______ ____
DOCKED: ROOT
DOCKED: ATOM      1  C   UNL d   1      12.517   0.862 -10.119 -0.28 -0.01    +0.064 A 
DOCKED: ATOM      2  C   UNL d   1      14.354   2.513  -6.056 -0.17 -0.01    +0.064 C 
DOCKED: ATOM      3  C   UNL d   1      13.945  -1.813  -4.069 -0.16 -0.01    +0.064 A 
DOCKED: ATOM      4  C   UNL d   1      12.427  -3.610  -8.327 -0.17 -0.01    +0.064 A 
DOCKED: ATOM      5  C   UNL d   1      13.015   1.639  -9.143 -0.24 -0.02    +0.066 A 
DOCKED: ATOM      6  C   UNL d   1      13.349   2.990  -9.361 -0.27 +0.01    -0.021 A 
DOCKED: ATOM      7  C   UNL d   1      13.903   3.458  -8.186 -0.23 +0.01    -0.025 A 
DOCKED: ATOM      8  C   UNL d   1      13.868   2.379  -7.296 -0.18 -0.01    +0.066 A 
DOCKED: ATOM      9  C   UNL d   1      14.450   4.864  -7.895 -0.25 -0.01    +0.051 C 
DOCKED: ATOM     10  C   UNL d   1      14.337   1.467  -5.064 -0.10 -0.01    +0.066 A 
DOCKED: ATOM     11  C   UNL d   1      14.701   1.586  -3.705 -0.21 +0.00    -0.021 A 
DOCKED: ATOM     12  C   UNL d   1      14.569   0.311  -3.149 -0.19 -0.00    +0.000 A 
DOCKED: ATOM     13  C   UNL d   1      14.122  -0.486  -4.203 -0.15 -0.01    +0.070 A 
DOCKED: ATOM     14  C   UNL d   1      15.057   2.862  -2.986 -0.25 -0.02    +0.052 C 
DOCKED: ATOM     15  C   UNL d   1      13.541  -2.791  -5.060 -0.16 -0.02    +0.066 A 
DOCKED: ATOM     16  C   UNL d   1      13.517  -4.169  -4.894 -0.22 +0.01    -0.021 A 
DOCKED: ATOM     17  C   UNL d   1      13.082  -4.692  -6.120 -0.21 -0.00    +0.000 A 
DOCKED: ATOM     18  C   UNL d   1      12.858  -3.587  -6.935 +0.03 -0.01    +0.070 A 
DOCKED: ATOM     19  C   UNL d   1      13.894  -4.906  -3.629 -0.17 -0.05    +0.052 C 
DOCKED: ATOM     20  C   UNL d   1      12.286  -2.555  -9.164 -0.17 -0.01    +0.066 A 
DOCKED: ATOM     21  C   UNL d   1      11.898  -2.707 -10.494 -0.16 +0.00    -0.025 A 
DOCKED: ATOM     22  C   UNL d   1      11.888  -1.431 -11.028 -0.22 +0.00    -0.021 A 
DOCKED: ATOM     23  C   UNL d   1      12.283  -0.558  -9.992 -0.22 -0.01    +0.066 A 
DOCKED: ATOM     24  C   UNL d   1      11.574  -4.006 -11.226 -0.15 -0.00    +0.051 C 
DOCKED: ATOM     25  N   UNL d   1      13.317   1.241  -7.861 -0.10 +0.04    -0.248 N 
DOCKED: ATOM     26  N   UNL d   1      13.928   0.225  -5.345 -0.10 +0.02    -0.248 N 
DOCKED: ATOM     27  N   UNL d   1      13.171  -2.474  -6.281 -0.09 +0.03    -0.248 N 
DOCKED: ATOM     28  N   UNL d   1      12.528  -1.234  -8.863 -0.11 +0.03    -0.248 N 
DOCKED: ATOM     29 FE   UNL d   1      13.238  -0.728  -7.027 -0.04 -0.00    +0.000 Fe
DOCKED: ENDROOT
DOCKED: BRANCH   6  30
DOCKED: ATOM     30  C   UNL d   1      13.214   3.761 -10.670 +0.01 -0.02    +0.052 C 
DOCKED: BRANCH  30  31
DOCKED: ATOM     31  C   UNL d   1      14.491   3.639 -11.500 -0.08 -0.04    +0.115 C 
DOCKED: BRANCH  31  32
DOCKED: ATOM     32  C   UNL d   1      14.934   2.202 -11.671 -0.09 -0.03    +0.139 C 
DOCKED: ATOM     33  O   UNL d   1      14.757   1.643 -12.743 -0.02 +0.11    -0.650 OA
DOCKED: BRANCH  32  34
DOCKED: ATOM     34  O   UNL d   1      15.566   1.524 -10.686 +0.04 +0.10    -0.776 OA
DOCKED: ATOM     35  H   UNL d   1      15.361   0.613 -10.434 +0.02 -0.02    +0.167 HD
DOCKED: ENDBRANCH  32  34
DOCKED: ENDBRANCH  31  32
DOCKED: ENDBRANCH  30  31
DOCKED: ENDBRANCH   6  30
DOCKED: BRANCH  29  36
DOCKED: ATOM     36  C   UNL d   1      15.210  -0.969  -7.697 -0.02 -0.02    +0.190 C 
DOCKED: BRANCH  36  37
DOCKED: ATOM     37  O   UNL d   1      16.045  -0.759  -8.799 +0.00 +0.04    -0.399 OA
DOCKED: ATOM     38  H   UNL d   1      15.441  -0.428  -9.520 +0.02 -0.02    +0.209 HD
DOCKED: ENDBRANCH  36  37
DOCKED: ENDBRANCH  29  36
DOCKED: BRANCH  22  39
DOCKED: ATOM     39  C   UNL d   1      11.577  -1.085 -12.472 -0.27 -0.00    +0.052 C 
DOCKED: BRANCH  39  40
DOCKED: ATOM     40  C   UNL d   1      12.848  -1.158 -13.333 -0.12 -0.01    +0.115 C 
DOCKED: BRANCH  40  41
DOCKED: ATOM     41  C   UNL d   1      14.068  -1.679 -12.603 -0.03 -0.01    +0.139 C 
DOCKED: ATOM     42  O   UNL d   1      14.600  -2.711 -12.987 +0.02 +0.04    -0.650 OA
DOCKED: BRANCH  41  43
DOCKED: ATOM     43  O   UNL d   1      14.640  -0.987 -11.592 +0.04 +0.07    -0.776 OA
DOCKED: ATOM     44  H   UNL d   1      14.913  -0.065 -11.683 +0.02 -0.02    +0.167 HD
DOCKED: ENDBRANCH  41  43
DOCKED: ENDBRANCH  40  41
DOCKED: ENDBRANCH  39  40
DOCKED: ENDBRANCH  22  39
DOCKED: BRANCH  12  45
DOCKED: ATOM     45  C   UNL d   1      14.793  -0.238  -1.747 -0.23 +0.00    +0.004 C 
DOCKED: ATOM     46  C   UNL d   1      13.937  -0.439  -0.748 -0.37 +0.00    +0.012 C 
DOCKED: ENDBRANCH  12  45
DOCKED: BRANCH  17  47
DOCKED: ATOM     47  C   UNL d   1      12.926  -6.114  -6.549 -0.18 -0.00    +0.004 C 
DOCKED: ATOM     48  C   UNL d   1      11.879  -6.563  -7.246 -0.30 -0.01    +0.012 C 
DOCKED: ENDBRANCH  17  47
DOCKED: TORSDOF 12
DOCKED: TER
DOCKED: ENDMDL
________________________________________________________________________________


	BEGINNING GENETIC ALGORITHM DOCKING 35 of 100
Run: 35 Seed: 1169066672 1499834622 [ Run 35 of 100 GA/GALS ]
Beginning LAMARCKIAN GENETIC ALGORITHM (LGA), with a maximum of 25000000 energy evaluations.

Final-Value: -10.276


	FINAL GENETIC ALGORITHM DOCKED STATE
	_______________________________________________


Detailed state:  trans -8.227 -15.277 -8.335 quatxyzw 0.376942 -0.240497 -0.764826 0.463807 center 8.781 34.984 -0.736 ntor 12 -34.2911 93.2738 145.5823 -23.6897 135.6118 128.1627 -158.6043 -29.6830 -139.8719 -123.1384 -25.7375 -5.3163
State:	 -8.227 -15.277  -8.335   0.425 -0.271 -0.863 124.734    -34.29   93.27  145.58  -23.69  135.61  128.16 -158.60  -29.68 -139.87 -123.14  -25.74   -5.32

DOCKED: MODEL       35
DOCKED: USER    Run = 35
DOCKED: USER    DPF = D:/Protein_go_brrr/autodock/final/mut_N102T/heme_Co/dock.dpf
DOCKED: USER  
DOCKED: USER    Estimated Free Energy of Binding    =   -4.36 kcal/mol  [=(1)+(2)+(3)-(4)]
DOCKED: USER    Estimated Inhibition Constant, Ki   =  631.81 uM (micromolar)  [Temperature = 298.15 K]
DOCKED: USER    
DOCKED: USER    (1) Final Intermolecular Energy     =   -7.94 kcal/mol
DOCKED: USER        vdW + Hbond + desolv Energy     =   -5.06 kcal/mol
DOCKED: USER        Electrostatic Energy            =   -2.89 kcal/mol
DOCKED: USER    (2) Final Total Internal Energy     =   -2.33 kcal/mol
DOCKED: USER    (3) Torsional Free Energy           =   +3.58 kcal/mol
DOCKED: USER    (4) Unbound System's Energy  [=(2)] =   -2.33 kcal/mol
DOCKED: USER    
DOCKED: USER    
DOCKED: USER    NEWDPF move heme_Co_opt.pdbqt
DOCKED: USER    NEWDPF about 8.781000 34.984000 -0.736000
DOCKED: USER    NEWDPF tran0 -8.226968 -15.277365 -8.335211
DOCKED: USER    NEWDPF quaternion0 0.376942 -0.240497 -0.764826 0.463807
DOCKED: USER    NEWDPF axisangle0 0.425473 -0.271461 -0.863297 124.733941
DOCKED: USER    NEWDPF quat0 0.425473 -0.271461 -0.863297 124.733941
DOCKED: USER    NEWDPF dihe0 -34.29 93.27 145.58 -23.69 135.61 128.16 -158.60 -29.68 -139.87 -123.14 -25.74 -5.32 
DOCKED: USER  keepresnum = 1 
DOCKED: USER  
DOCKED: REMARK  12 active torsions:
DOCKED: REMARK  status: ('A' for Active; 'I' for Inactive)
DOCKED: REMARK    1  A    between atoms: C_6  and  C_10 
DOCKED: REMARK    2  A    between atoms: C_10  and  C_11 
DOCKED: REMARK    3  A    between atoms: C_11  and  C_12 
DOCKED: REMARK    4  A    between atoms: C_12  and  O_14 
DOCKED: REMARK    5  A    between atoms: C_17  and  C_20 
DOCKED: REMARK    6  A    between atoms: C_24  and  C_27 
DOCKED: REMARK    7  A    between atoms: C_31  and  C_34 
DOCKED: REMARK    8  A    between atoms: C_34  and  C_35 
DOCKED: REMARK    9  A    between atoms: C_35  and  C_36 
DOCKED: REMARK   10  A    between atoms: C_36  and  O_38 
DOCKED: REMARK   11  A    between atoms: FE_43  and  C_44 
DOCKED: REMARK   12  A    between atoms: C_44  and  O_45 
DOCKED: USER                              x       y       z     vdW  Elec       q    Type
DOCKED: USER                           _______ _______ _______ _____ _____    ______ ____
DOCKED: ROOT
DOCKED: ATOM      1  C   UNL d   1      -7.818 -17.136  -7.289 -0.06 +0.05    +0.064 A 
DOCKED: ATOM      2  C   UNL d   1      -7.129 -12.583  -6.103 -0.22 +0.05    +0.064 C 
DOCKED: ATOM      3  C   UNL d   1      -8.589 -11.194 -10.435 -0.17 +0.02    +0.064 A 
DOCKED: ATOM      4  C   UNL d   1      -9.667 -15.808 -11.537 -0.08 +0.01    +0.064 A 
DOCKED: ATOM      5  C   UNL d   1      -7.488 -15.996  -6.659 -0.07 +0.07    +0.066 A 
DOCKED: ATOM      6  C   UNL d   1      -7.073 -15.979  -5.313 -0.10 -0.02    -0.021 A 
DOCKED: ATOM      7  C   UNL d   1      -6.896 -14.654  -4.967 -0.13 -0.03    -0.025 A 
DOCKED: ATOM      8  C   UNL d   1      -7.195 -13.920  -6.121 -0.13 +0.07    +0.066 A 
DOCKED: ATOM      9  C   UNL d   1      -6.464 -14.084  -3.608 -0.22 +0.05    +0.051 C 
DOCKED: ATOM     10  C   UNL d   1      -7.392 -11.746  -7.247 -0.18 +0.03    +0.066 A 
DOCKED: ATOM     11  C   UNL d   1      -7.205 -10.349  -7.331 -0.27 -0.01    -0.021 A 
DOCKED: ATOM     12  C   UNL d   1      -7.635  -9.971  -8.606 -0.24 +0.00    +0.000 A 
DOCKED: ATOM     13  C   UNL d   1      -8.039 -11.163  -9.208 -0.17 +0.02    +0.070 A 
DOCKED: ATOM     14  C   UNL d   1      -6.566  -9.470  -6.287 -0.37 +0.02    +0.052 C 
DOCKED: ATOM     15  C   UNL d   1      -9.108 -12.322 -11.182 -0.12 +0.02    +0.066 A 
DOCKED: ATOM     16  C   UNL d   1      -9.796 -12.266 -12.386 -0.12 -0.00    -0.021 A 
DOCKED: ATOM     17  C   UNL d   1     -10.111 -13.594 -12.707 -0.10 +0.00    +0.000 A 
DOCKED: ATOM     18  C   UNL d   1      -9.573 -14.360 -11.678 +0.04 +0.01    +0.070 A 
DOCKED: ATOM     19  C   UNL d   1     -10.116 -11.003 -13.155 -0.10 +0.01    +0.052 C 
DOCKED: ATOM     20  C   UNL d   1      -9.228 -16.565 -10.503 -0.09 +0.02    +0.066 A 
DOCKED: ATOM     21  C   UNL d   1      -9.408 -17.946 -10.464 -0.05 -0.01    -0.025 A 
DOCKED: ATOM     22  C   UNL d   1      -8.859 -18.360  -9.264 -0.03 -0.01    -0.021 A 
DOCKED: ATOM     23  C   UNL d   1      -8.378 -17.200  -8.620 -0.07 +0.03    +0.066 A 
DOCKED: ATOM     24  C   UNL d   1     -10.087 -18.827 -11.509 -0.02 +0.01    +0.051 C 
DOCKED: ATOM     25  N   UNL d   1      -7.559 -14.727  -7.186 -0.09 -0.27    -0.248 N 
DOCKED: ATOM     26  N   UNL d   1      -7.840 -12.243  -8.405 -0.10 -0.09    -0.248 N 
DOCKED: ATOM     27  N   UNL d   1      -9.010 -13.567 -10.773 -0.04 -0.06    -0.248 N 
DOCKED: ATOM     28  N   UNL d   1      -8.602 -16.112  -9.365 -0.08 -0.11    -0.248 N 
DOCKED: ATOM     29 FE   UNL d   1      -8.328 -14.116  -9.087 -0.03 +0.00    +0.000 Fe
DOCKED: ENDROOT
DOCKED: BRANCH   6  30
DOCKED: ATOM     30  C   UNL d   1      -6.936 -17.184  -4.388 -0.09 +0.06    +0.052 C 
DOCKED: BRANCH  30  31
DOCKED: ATOM     31  C   UNL d   1      -5.952 -18.199  -4.970 -0.11 +0.15    +0.115 C 
DOCKED: BRANCH  31  32
DOCKED: ATOM     32  C   UNL d   1      -4.770 -17.536  -5.643 -0.09 +0.25    +0.139 C 
DOCKED: ATOM     33  O   UNL d   1      -3.919 -16.986  -4.959 -0.32 -1.32    -0.650 OA
DOCKED: BRANCH  32  34
DOCKED: ATOM     34  O   UNL d   1      -4.595 -17.572  -6.985 -0.22 -1.62    -0.776 OA
DOCKED: ATOM     35  H   UNL d   1      -4.789 -18.341  -7.538 +0.03 +0.20    +0.167 HD
DOCKED: ENDBRANCH  32  34
DOCKED: ENDBRANCH  31  32
DOCKED: ENDBRANCH  30  31
DOCKED: ENDBRANCH   6  30
DOCKED: BRANCH  29  36
DOCKED: ATOM     36  C   UNL d   1     -10.200 -13.966  -8.155 -0.01 +0.05    +0.190 C 
DOCKED: BRANCH  36  37
DOCKED: ATOM     37  O   UNL d   1     -10.959 -14.466  -7.092 +0.01 -0.08    -0.399 OA
DOCKED: ATOM     38  H   UNL d   1     -10.523 -15.330  -6.850 +0.01 +0.05    +0.209 HD
DOCKED: ENDBRANCH  36  37
DOCKED: ENDBRANCH  29  36
DOCKED: BRANCH  22  39
DOCKED: ATOM     39  C   UNL d   1      -8.859 -19.785  -8.742 -0.01 +0.01    +0.052 C 
DOCKED: BRANCH  39  40
DOCKED: ATOM     40  C   UNL d   1      -7.533 -20.486  -9.080 -0.01 +0.03    +0.115 C 
DOCKED: BRANCH  40  41
DOCKED: ATOM     41  C   UNL d   1      -6.296 -19.713  -8.676 -0.06 +0.06    +0.139 C 
DOCKED: ATOM     42  O   UNL d   1      -5.623 -20.110  -7.735 +0.03 -0.30    -0.650 OA
DOCKED: BRANCH  41  43
DOCKED: ATOM     43  O   UNL d   1      -5.864 -18.643  -9.381 -0.01 -0.45    -0.776 OA
DOCKED: ATOM     44  H   UNL d   1      -5.365 -17.922  -8.977 +0.03 +0.16    +0.167 HD
DOCKED: ENDBRANCH  41  43
DOCKED: ENDBRANCH  40  41
DOCKED: ENDBRANCH  39  40
DOCKED: ENDBRANCH  22  39
DOCKED: BRANCH  12  45
DOCKED: ATOM     45  C   UNL d   1      -7.691  -8.632  -9.328 -0.34 +0.00    +0.004 C 
DOCKED: ATOM     46  C   UNL d   1      -7.890  -7.403  -8.859 -0.33 +0.00    +0.012 C 
DOCKED: ENDBRANCH  12  45
DOCKED: BRANCH  17  47
DOCKED: ATOM     47  C   UNL d   1     -10.898 -14.138 -13.854 -0.07 +0.00    +0.004 C 
DOCKED: ATOM     48  C   UNL d   1     -10.370 -14.898 -14.816 -0.09 +0.00    +0.012 C 
DOCKED: ENDBRANCH  17  47
DOCKED: TORSDOF 12
DOCKED: TER
DOCKED: ENDMDL
________________________________________________________________________________


	BEGINNING GENETIC ALGORITHM DOCKING 36 of 100
Run: 36 Seed: 1652742266 1865071646 [ Run 36 of 100 GA/GALS ]
Beginning LAMARCKIAN GENETIC ALGORITHM (LGA), with a maximum of 25000000 energy evaluations.

Final-Value: -10.779


	FINAL GENETIC ALGORITHM DOCKED STATE
	_______________________________________________


Detailed state:  trans 10.451 0.414 13.934 quatxyzw 0.707547 -0.041737 0.699668 0.089994 center 8.781 34.984 -0.736 ntor 12 33.1828 97.9834 -104.1496 115.8519 137.0405 131.8190 32.6724 150.8788 -166.0877 104.8951 -172.1213 -169.7390
State:	 10.451   0.414  13.934   0.710 -0.042  0.703 169.673     33.18   97.98 -104.15  115.85  137.04  131.82   32.67  150.88 -166.09  104.90 -172.12 -169.74

DOCKED: MODEL       36
DOCKED: USER    Run = 36
DOCKED: USER    DPF = D:/Protein_go_brrr/autodock/final/mut_N102T/heme_Co/dock.dpf
DOCKED: USER  
DOCKED: USER    Estimated Free Energy of Binding    =   -4.15 kcal/mol  [=(1)+(2)+(3)-(4)]
DOCKED: USER    Estimated Inhibition Constant, Ki   =  912.63 uM (micromolar)  [Temperature = 298.15 K]
DOCKED: USER    
DOCKED: USER    (1) Final Intermolecular Energy     =   -7.73 kcal/mol
DOCKED: USER        vdW + Hbond + desolv Energy     =   -5.66 kcal/mol
DOCKED: USER        Electrostatic Energy            =   -2.07 kcal/mol
DOCKED: USER    (2) Final Total Internal Energy     =   -3.05 kcal/mol
DOCKED: USER    (3) Torsional Free Energy           =   +3.58 kcal/mol
DOCKED: USER    (4) Unbound System's Energy  [=(2)] =   -3.05 kcal/mol
DOCKED: USER    
DOCKED: USER    
DOCKED: USER    NEWDPF move heme_Co_opt.pdbqt
DOCKED: USER    NEWDPF about 8.781000 34.984000 -0.736000
DOCKED: USER    NEWDPF tran0 10.450733 0.413936 13.934025
DOCKED: USER    NEWDPF quaternion0 0.707547 -0.041737 0.699668 0.089994
DOCKED: USER    NEWDPF axisangle0 0.710430 -0.041907 0.702519 169.673425
DOCKED: USER    NEWDPF quat0 0.710430 -0.041907 0.702519 169.673425
DOCKED: USER    NEWDPF dihe0 33.18 97.98 -104.15 115.85 137.04 131.82 32.67 150.88 -166.09 104.90 -172.12 -169.74 
DOCKED: USER  keepresnum = 1 
DOCKED: USER  
DOCKED: REMARK  12 active torsions:
DOCKED: REMARK  status: ('A' for Active; 'I' for Inactive)
DOCKED: REMARK    1  A    between atoms: C_6  and  C_10 
DOCKED: REMARK    2  A    between atoms: C_10  and  C_11 
DOCKED: REMARK    3  A    between atoms: C_11  and  C_12 
DOCKED: REMARK    4  A    between atoms: C_12  and  O_14 
DOCKED: REMARK    5  A    between atoms: C_17  and  C_20 
DOCKED: REMARK    6  A    between atoms: C_24  and  C_27 
DOCKED: REMARK    7  A    between atoms: C_31  and  C_34 
DOCKED: REMARK    8  A    between atoms: C_34  and  C_35 
DOCKED: REMARK    9  A    between atoms: C_35  and  C_36 
DOCKED: REMARK   10  A    between atoms: C_36  and  O_38 
DOCKED: REMARK   11  A    between atoms: FE_43  and  C_44 
DOCKED: REMARK   12  A    between atoms: C_44  and  O_45 
DOCKED: USER                              x       y       z     vdW  Elec       q    Type
DOCKED: USER                           _______ _______ _______ _____ _____    ______ ____
DOCKED: ROOT
DOCKED: ATOM      1  C   UNL d   1       9.602   0.224  11.944 -0.21 +0.02    +0.064 A 
DOCKED: ATOM      2  C   UNL d   1      13.173   2.856  13.658 -0.18 +0.03    +0.064 C 
DOCKED: ATOM      3  C   UNL d   1      12.208   1.348  18.088 -0.09 +0.03    +0.064 A 
DOCKED: ATOM      4  C   UNL d   1       8.807  -1.644  16.315 -0.07 +0.01    +0.064 A 
DOCKED: ATOM      5  C   UNL d   1      10.625   1.082  12.091 -0.23 +0.02    +0.066 A 
DOCKED: ATOM      6  C   UNL d   1      11.252   1.694  10.989 -0.36 -0.01    -0.021 A 
DOCKED: ATOM      7  C   UNL d   1      12.302   2.439  11.490 -0.27 -0.01    -0.025 A 
DOCKED: ATOM      8  C   UNL d   1      12.261   2.263  12.877 -0.19 +0.02    +0.066 A 
DOCKED: ATOM      9  C   UNL d   1      13.314   3.288  10.705 -0.27 +0.01    +0.051 C 
DOCKED: ATOM     10  C   UNL d   1      13.193   2.755  15.095 -0.14 +0.04    +0.066 A 
DOCKED: ATOM     11  C   UNL d   1      14.036   3.464  15.979 -0.10 -0.01    -0.021 A 
DOCKED: ATOM     12  C   UNL d   1      13.731   3.008  17.265 -0.10 +0.00    +0.000 A 
DOCKED: ATOM     13  C   UNL d   1      12.719   2.066  17.072 -0.12 +0.04    +0.070 A 
DOCKED: ATOM     14  C   UNL d   1      14.992   4.568  15.607 -0.06 +0.03    +0.052 C 
DOCKED: ATOM     15  C   UNL d   1      11.203   0.304  18.062 -0.08 +0.02    +0.066 A 
DOCKED: ATOM     16  C   UNL d   1      10.823  -0.500  19.127 -0.05 -0.00    -0.021 A 
DOCKED: ATOM     17  C   UNL d   1       9.844  -1.366  18.620 -0.06 +0.00    +0.000 A 
DOCKED: ATOM     18  C   UNL d   1       9.691  -1.009  17.284 -0.04 +0.02    +0.070 A 
DOCKED: ATOM     19  C   UNL d   1      11.384  -0.419  20.529 -0.02 +0.01    +0.052 C 
DOCKED: ATOM     20  C   UNL d   1       8.704  -1.371  14.992 -0.11 +0.01    +0.066 A 
DOCKED: ATOM     21  C   UNL d   1       7.842  -2.075  14.153 -0.13 -0.00    -0.025 A 
DOCKED: ATOM     22  C   UNL d   1       8.029  -1.539  12.892 -0.20 -0.00    -0.021 A 
DOCKED: ATOM     23  C   UNL d   1       9.011  -0.535  13.023 -0.20 +0.01    +0.066 A 
DOCKED: ATOM     24  C   UNL d   1       6.901  -3.217  14.530 -0.10 +0.00    +0.051 C 
DOCKED: ATOM     25  N   UNL d   1      11.228   1.432  13.278 -0.12 -0.08    -0.248 N 
DOCKED: ATOM     26  N   UNL d   1      12.357   1.955  15.766 -0.10 -0.13    -0.248 N 
DOCKED: ATOM     27  N   UNL d   1      10.537  -0.032  16.979 -0.07 -0.09    -0.248 N 
DOCKED: ATOM     28  N   UNL d   1       9.424  -0.432  14.292 -0.10 -0.06    -0.248 N 
DOCKED: ATOM     29 FE   UNL d   1      10.859   0.655  15.237 -0.03 +0.00    +0.000 Fe
DOCKED: ENDROOT
DOCKED: BRANCH   6  30
DOCKED: ATOM     30  C   UNL d   1      10.900   1.498   9.518 -0.17 +0.02    +0.052 C 
DOCKED: BRANCH  30  31
DOCKED: ATOM     31  C   UNL d   1      11.661   0.306   8.937 -0.34 +0.06    +0.115 C 
DOCKED: BRANCH  31  32
DOCKED: ATOM     32  C   UNL d   1      12.324  -0.533  10.009 -0.17 +0.08    +0.139 C 
DOCKED: ATOM     33  O   UNL d   1      13.504  -0.352  10.270 +0.05 -0.27    -0.650 OA
DOCKED: BRANCH  32  34
DOCKED: ATOM     34  O   UNL d   1      11.637  -1.452  10.727 +0.01 -0.58    -0.776 OA
DOCKED: ATOM     35  H   UNL d   1      10.864  -1.931  10.399 +0.04 +0.17    +0.167 HD
DOCKED: ENDBRANCH  32  34
DOCKED: ENDBRANCH  31  32
DOCKED: ENDBRANCH  30  31
DOCKED: ENDBRANCH   6  30
DOCKED: BRANCH  29  36
DOCKED: ATOM     36  C   UNL d   1      12.291  -0.813  14.802 -0.01 +0.04    +0.190 C 
DOCKED: BRANCH  36  37
DOCKED: ATOM     37  O   UNL d   1      12.921  -1.476  13.744 +0.01 -0.10    -0.399 OA
DOCKED: ATOM     38  H   UNL d   1      12.357  -1.278  12.945 +0.03 +0.07    +0.209 HD
DOCKED: ENDBRANCH  36  37
DOCKED: ENDBRANCH  29  36
DOCKED: BRANCH  22  39
DOCKED: ATOM     39  C   UNL d   1       7.345  -2.014  11.624 -0.18 +0.01    +0.052 C 
DOCKED: BRANCH  39  40
DOCKED: ATOM     40  C   UNL d   1       7.840  -3.417  11.234 -0.20 +0.04    +0.115 C 
DOCKED: BRANCH  40  41
DOCKED: ATOM     41  C   UNL d   1       9.169  -3.431  10.508 -0.14 +0.14    +0.139 C 
DOCKED: ATOM     42  O   UNL d   1       9.228  -3.015   9.360 -0.51 -1.00    -0.650 OA
DOCKED: BRANCH  41  43
DOCKED: ATOM     43  O   UNL d   1      10.310  -3.811  11.124 -0.09 -0.83    -0.776 OA
DOCKED: ATOM     44  H   UNL d   1      10.936  -3.175  11.494 +0.03 +0.14    +0.167 HD
DOCKED: ENDBRANCH  41  43
DOCKED: ENDBRANCH  40  41
DOCKED: ENDBRANCH  39  40
DOCKED: ENDBRANCH  22  39
DOCKED: BRANCH  12  45
DOCKED: ATOM     45  C   UNL d   1      14.262   3.365  18.646 -0.07 +0.00    +0.004 C 
DOCKED: ATOM     46  C   UNL d   1      13.702   4.052  19.639 -0.07 +0.01    +0.012 C 
DOCKED: ENDBRANCH  12  45
DOCKED: BRANCH  17  47
DOCKED: ATOM     47  C   UNL d   1       9.123  -2.488  19.292 -0.03 +0.00    +0.004 C 
DOCKED: ATOM     48  C   UNL d   1       7.806  -2.491  19.512 -0.04 +0.00    +0.012 C 
DOCKED: ENDBRANCH  17  47
DOCKED: TORSDOF 12
DOCKED: TER
DOCKED: ENDMDL
________________________________________________________________________________


	BEGINNING GENETIC ALGORITHM DOCKING 37 of 100
Run: 37 Seed: 1353756386 736190001 [ Run 37 of 100 GA/GALS ]
Beginning LAMARCKIAN GENETIC ALGORITHM (LGA), with a maximum of 25000000 energy evaluations.

Final-Value: -9.089


	FINAL GENETIC ALGORITHM DOCKED STATE
	_______________________________________________


Detailed state:  trans -9.887 -12.396 -9.744 quatxyzw -0.532956 -0.622094 0.537349 0.200532 center 8.781 34.984 -0.736 ntor 12 -20.5503 81.8720 31.2380 -92.4331 -56.5439 155.7550 -5.2248 -47.3875 -124.6691 -51.6419 156.6704 49.2828
State:	 -9.887 -12.396  -9.744  -0.544 -0.635  0.548 156.864    -20.55   81.87   31.24  -92.43  -56.54  155.75   -5.22  -47.39 -124.67  -51.64  156.67   49.28

DOCKED: MODEL       37
DOCKED: USER    Run = 37
DOCKED: USER    DPF = D:/Protein_go_brrr/autodock/final/mut_N102T/heme_Co/dock.dpf
DOCKED: USER  
DOCKED: USER    Estimated Free Energy of Binding    =   -3.69 kcal/mol  [=(1)+(2)+(3)-(4)]
DOCKED: USER    Estimated Inhibition Constant, Ki   =    1.99 mM (millimolar)  [Temperature = 298.15 K]
DOCKED: USER    
DOCKED: USER    (1) Final Intermolecular Energy     =   -7.27 kcal/mol
DOCKED: USER        vdW + Hbond + desolv Energy     =   -4.35 kcal/mol
DOCKED: USER        Electrostatic Energy            =   -2.91 kcal/mol
DOCKED: USER    (2) Final Total Internal Energy     =   -1.82 kcal/mol
DOCKED: USER    (3) Torsional Free Energy           =   +3.58 kcal/mol
DOCKED: USER    (4) Unbound System's Energy  [=(2)] =   -1.82 kcal/mol
DOCKED: USER    
DOCKED: USER    
DOCKED: USER    NEWDPF move heme_Co_opt.pdbqt
DOCKED: USER    NEWDPF about 8.781000 34.984000 -0.736000
DOCKED: USER    NEWDPF tran0 -9.887113 -12.396154 -9.743879
DOCKED: USER    NEWDPF quaternion0 -0.532956 -0.622094 0.537349 0.200532
DOCKED: USER    NEWDPF axisangle0 -0.544006 -0.634992 0.548491 156.863904
DOCKED: USER    NEWDPF quat0 -0.544006 -0.634992 0.548491 156.863904
DOCKED: USER    NEWDPF dihe0 -20.55 81.87 31.24 -92.43 -56.54 155.75 -5.22 -47.39 -124.67 -51.64 156.67 49.28 
DOCKED: USER  keepresnum = 1 
DOCKED: USER  
DOCKED: REMARK  12 active torsions:
DOCKED: REMARK  status: ('A' for Active; 'I' for Inactive)
DOCKED: REMARK    1  A    between atoms: C_6  and  C_10 
DOCKED: REMARK    2  A    between atoms: C_10  and  C_11 
DOCKED: REMARK    3  A    between atoms: C_11  and  C_12 
DOCKED: REMARK    4  A    between atoms: C_12  and  O_14 
DOCKED: REMARK    5  A    between atoms: C_17  and  C_20 
DOCKED: REMARK    6  A    between atoms: C_24  and  C_27 
DOCKED: REMARK    7  A    between atoms: C_31  and  C_34 
DOCKED: REMARK    8  A    between atoms: C_34  and  C_35 
DOCKED: REMARK    9  A    between atoms: C_35  and  C_36 
DOCKED: REMARK   10  A    between atoms: C_36  and  O_38 
DOCKED: REMARK   11  A    between atoms: FE_43  and  C_44 
DOCKED: REMARK   12  A    between atoms: C_44  and  O_45 
DOCKED: USER                              x       y       z     vdW  Elec       q    Type
DOCKED: USER                           _______ _______ _______ _____ _____    ______ ____
DOCKED: ROOT
DOCKED: ATOM      1  C   UNL d   1      -8.494 -12.585  -8.089 -0.10 +0.02    +0.064 A 
DOCKED: ATOM      2  C   UNL d   1     -12.481 -14.930  -9.192 -0.00 +0.01    +0.064 C 
DOCKED: ATOM      3  C   UNL d   1     -13.232 -11.991 -12.884 -0.00 +0.00    +0.064 A 
DOCKED: ATOM      4  C   UNL d   1      -8.966  -9.823 -12.010 -0.18 +0.02    +0.064 A 
DOCKED: ATOM      5  C   UNL d   1      -9.547 -13.419  -8.098 -0.03 +0.02    +0.066 A 
DOCKED: ATOM      6  C   UNL d   1      -9.658 -14.492  -7.192 -0.02 -0.01    -0.021 A 
DOCKED: ATOM      7  C   UNL d   1     -10.805 -15.182  -7.531 +0.00 -0.01    -0.025 A 
DOCKED: ATOM      8  C   UNL d   1     -11.353 -14.492  -8.618 +0.00 +0.01    +0.066 A 
DOCKED: ATOM      9  C   UNL d   1     -11.375 -16.445  -6.868 +0.01 +0.01    +0.051 C 
DOCKED: ATOM     10  C   UNL d   1     -13.132 -14.271 -10.296 -0.00 +0.01    +0.066 A 
DOCKED: ATOM     11  C   UNL d   1     -14.388 -14.598 -10.852 +0.00 -0.00    -0.021 A 
DOCKED: ATOM     12  C   UNL d   1     -14.584 -13.723 -11.924 -0.00 +0.00    +0.000 A 
DOCKED: ATOM     13  C   UNL d   1     -13.443 -12.921 -11.935 -0.00 +0.00    +0.070 A 
DOCKED: ATOM     14  C   UNL d   1     -15.361 -15.618 -10.319 +0.00 +0.00    +0.052 C 
DOCKED: ATOM     15  C   UNL d   1     -12.093 -11.115 -13.076 -0.01 +0.01    +0.066 A 
DOCKED: ATOM     16  C   UNL d   1     -11.873 -10.278 -14.161 -0.02 -0.00    -0.021 A 
DOCKED: ATOM     17  C   UNL d   1     -10.642  -9.652 -13.915 -0.07 +0.00    +0.000 A 
DOCKED: ATOM     18  C   UNL d   1     -10.216 -10.147 -12.686 -0.07 +0.02    +0.070 A 
DOCKED: ATOM     19  C   UNL d   1     -12.801 -10.112 -15.343 -0.00 +0.01    +0.052 C 
DOCKED: ATOM     20  C   UNL d   1      -8.490 -10.355 -10.858 -0.19 +0.02    +0.066 A 
DOCKED: ATOM     21  C   UNL d   1      -7.257  -9.990 -10.325 -0.37 -0.01    -0.025 A 
DOCKED: ATOM     22  C   UNL d   1      -7.107 -10.749  -9.178 -0.29 -0.01    -0.021 A 
DOCKED: ATOM     23  C   UNL d   1      -8.260 -11.555  -9.075 -0.15 +0.02    +0.066 A 
DOCKED: ATOM     24  C   UNL d   1      -6.259  -8.981 -10.889 -0.52 +0.02    +0.051 C 
DOCKED: ATOM     25  N   UNL d   1     -10.598 -13.392  -8.986 -0.00 -0.05    -0.248 N 
DOCKED: ATOM     26  N   UNL d   1     -12.592 -13.216 -10.916 -0.00 -0.02    -0.248 N 
DOCKED: ATOM     27  N   UNL d   1     -11.090 -11.038 -12.231 -0.01 -0.04    -0.248 N 
DOCKED: ATOM     28  N   UNL d   1      -9.099 -11.321 -10.092 -0.05 -0.06    -0.248 N 
DOCKED: ATOM     29 FE   UNL d   1     -10.855 -12.143 -10.704 -0.01 +0.00    +0.000 Fe
DOCKED: ENDROOT
DOCKED: BRANCH   6  30
DOCKED: ATOM     30  C   UNL d   1      -8.656 -14.874  -6.107 -0.05 +0.03    +0.052 C 
DOCKED: BRANCH  30  31
DOCKED: ATOM     31  C   UNL d   1      -8.116 -16.283  -6.347 -0.05 +0.09    +0.115 C 
DOCKED: BRANCH  31  32
DOCKED: ATOM     32  C   UNL d   1      -7.551 -16.455  -7.741 -0.11 +0.14    +0.139 C 
DOCKED: ATOM     33  O   UNL d   1      -7.834 -17.454  -8.385 +0.01 -0.39    -0.650 OA
DOCKED: BRANCH  32  34
DOCKED: ATOM     34  O   UNL d   1      -6.775 -15.511  -8.322 -0.22 -1.40    -0.776 OA
DOCKED: ATOM     35  H   UNL d   1      -6.795 -14.572  -8.090 -0.24 +0.27    +0.167 HD
DOCKED: ENDBRANCH  32  34
DOCKED: ENDBRANCH  31  32
DOCKED: ENDBRANCH  30  31
DOCKED: ENDBRANCH   6  30
DOCKED: BRANCH  29  36
DOCKED: ATOM     36  C   UNL d   1      -9.819 -13.609 -11.786 -0.07 +0.03    +0.190 C 
DOCKED: BRANCH  36  37
DOCKED: ATOM     37  O   UNL d   1      -9.201 -14.858 -11.661 -0.05 -0.07    -0.399 OA
DOCKED: ATOM     38  H   UNL d   1      -8.848 -14.877 -10.728 +0.04 +0.06    +0.209 HD
DOCKED: ENDBRANCH  36  37
DOCKED: ENDBRANCH  29  36
DOCKED: BRANCH  22  39
DOCKED: ATOM     39  C   UNL d   1      -5.890 -10.742  -8.272 -0.19 +0.02    +0.052 C 
DOCKED: BRANCH  39  40
DOCKED: ATOM     40  C   UNL d   1      -6.289 -11.074  -6.825 -0.35 +0.06    +0.115 C 
DOCKED: BRANCH  40  41
DOCKED: ATOM     41  C   UNL d   1      -5.573 -12.273  -6.239 -0.28 +0.16    +0.139 C 
DOCKED: ATOM     42  O   UNL d   1      -4.523 -12.107  -5.635 -0.49 -0.78    -0.650 OA
DOCKED: BRANCH  41  43
DOCKED: ATOM     43  O   UNL d   1      -6.108 -13.514  -6.288 +0.18 -1.40    -0.776 OA
DOCKED: ATOM     44  H   UNL d   1      -6.604 -13.835  -7.052 -0.06 +0.27    +0.167 HD
DOCKED: ENDBRANCH  41  43
DOCKED: ENDBRANCH  40  41
DOCKED: ENDBRANCH  39  40
DOCKED: ENDBRANCH  22  39
DOCKED: BRANCH  12  45
DOCKED: ATOM     45  C   UNL d   1     -15.720 -13.541 -12.922 +0.00 +0.00    +0.004 C 
DOCKED: ATOM     46  C   UNL d   1     -15.838 -13.946 -14.184 +0.00 +0.00    +0.012 C 
DOCKED: ENDBRANCH  12  45
DOCKED: BRANCH  17  47
DOCKED: ATOM     47  C   UNL d   1      -9.870  -8.699 -14.766 -0.14 +0.00    +0.004 C 
DOCKED: ATOM     48  C   UNL d   1      -9.135  -9.076 -15.815 -0.18 +0.01    +0.012 C 
DOCKED: ENDBRANCH  17  47
DOCKED: TORSDOF 12
DOCKED: TER
DOCKED: ENDMDL
________________________________________________________________________________


	BEGINNING GENETIC ALGORITHM DOCKING 38 of 100
Run: 38 Seed: 274215852 765130351 [ Run 38 of 100 GA/GALS ]
Beginning LAMARCKIAN GENETIC ALGORITHM (LGA), with a maximum of 25000000 energy evaluations.

Final-Value: -10.576


	FINAL GENETIC ALGORITHM DOCKED STATE
	_______________________________________________


Detailed state:  trans 4.245 14.759 -12.481 quatxyzw 0.427767 -0.250661 0.259144 0.828872 center 8.781 34.984 -0.736 ntor 12 160.7434 125.1299 27.7300 131.7658 -69.7982 139.4296 -128.5677 174.9334 -136.3387 -43.4208 180.0000 170.9493
State:	  4.245  14.759 -12.481   0.765 -0.448  0.463 68.034    160.74  125.13   27.73  131.77  -69.80  139.43 -128.57  174.93 -136.34  -43.42  180.00  170.95

DOCKED: MODEL       38
DOCKED: USER    Run = 38
DOCKED: USER    DPF = D:/Protein_go_brrr/autodock/final/mut_N102T/heme_Co/dock.dpf
DOCKED: USER  
DOCKED: USER    Estimated Free Energy of Binding    =   -4.79 kcal/mol  [=(1)+(2)+(3)-(4)]
DOCKED: USER    Estimated Inhibition Constant, Ki   =  310.06 uM (micromolar)  [Temperature = 298.15 K]
DOCKED: USER    
DOCKED: USER    (1) Final Intermolecular Energy     =   -8.37 kcal/mol
DOCKED: USER        vdW + Hbond + desolv Energy     =   -7.53 kcal/mol
DOCKED: USER        Electrostatic Energy            =   -0.84 kcal/mol
DOCKED: USER    (2) Final Total Internal Energy     =   -2.21 kcal/mol
DOCKED: USER    (3) Torsional Free Energy           =   +3.58 kcal/mol
DOCKED: USER    (4) Unbound System's Energy  [=(2)] =   -2.21 kcal/mol
DOCKED: USER    
DOCKED: USER    
DOCKED: USER    NEWDPF move heme_Co_opt.pdbqt
DOCKED: USER    NEWDPF about 8.781000 34.984000 -0.736000
DOCKED: USER    NEWDPF tran0 4.245500 14.758868 -12.480635
DOCKED: USER    NEWDPF quaternion0 0.427767 -0.250661 0.259144 0.828872
DOCKED: USER    NEWDPF axisangle0 0.764637 -0.448058 0.463221 68.033900
DOCKED: USER    NEWDPF quat0 0.764637 -0.448058 0.463221 68.033900
DOCKED: USER    NEWDPF dihe0 160.74 125.13 27.73 131.77 -69.80 139.43 -128.57 174.93 -136.34 -43.42 180.00 170.95 
DOCKED: USER  keepresnum = 1 
DOCKED: USER  
DOCKED: REMARK  12 active torsions:
DOCKED: REMARK  status: ('A' for Active; 'I' for Inactive)
DOCKED: REMARK    1  A    between atoms: C_6  and  C_10 
DOCKED: REMARK    2  A    between atoms: C_10  and  C_11 
DOCKED: REMARK    3  A    between atoms: C_11  and  C_12 
DOCKED: REMARK    4  A    between atoms: C_12  and  O_14 
DOCKED: REMARK    5  A    between atoms: C_17  and  C_20 
DOCKED: REMARK    6  A    between atoms: C_24  and  C_27 
DOCKED: REMARK    7  A    between atoms: C_31  and  C_34 
DOCKED: REMARK    8  A    between atoms: C_34  and  C_35 
DOCKED: REMARK    9  A    between atoms: C_35  and  C_36 
DOCKED: REMARK   10  A    between atoms: C_36  and  O_38 
DOCKED: REMARK   11  A    between atoms: FE_43  and  C_44 
DOCKED: REMARK   12  A    between atoms: C_44  and  O_45 
DOCKED: USER                              x       y       z     vdW  Elec       q    Type
DOCKED: USER                           _______ _______ _______ _____ _____    ______ ____
DOCKED: ROOT
DOCKED: ATOM      1  C   UNL d   1       2.379  15.762 -12.956 -0.22 -0.01    +0.064 A 
DOCKED: ATOM      2  C   UNL d   1       5.119  15.785  -9.070 -0.22 -0.02    +0.064 C 
DOCKED: ATOM      3  C   UNL d   1       7.968  12.479 -11.013 -0.19 -0.02    +0.064 A 
DOCKED: ATOM      4  C   UNL d   1       5.410  12.719 -15.143 -0.21 -0.05    +0.064 A 
DOCKED: ATOM      5  C   UNL d   1       2.898  15.985 -11.737 -0.20 -0.02    +0.066 A 
DOCKED: ATOM      6  C   UNL d   1       2.373  16.962 -10.869 -0.15 +0.01    -0.021 A 
DOCKED: ATOM      7  C   UNL d   1       3.185  16.980  -9.753 -0.16 +0.01    -0.025 A 
DOCKED: ATOM      8  C   UNL d   1       4.161  16.003  -9.980 -0.19 -0.02    +0.066 A 
DOCKED: ATOM      9  C   UNL d   1       3.062  17.878  -8.512 -0.14 -0.01    +0.051 C 
DOCKED: ATOM     10  C   UNL d   1       6.147  14.784  -9.205 -0.22 -0.03    +0.066 A 
DOCKED: ATOM     11  C   UNL d   1       7.095  14.411  -8.227 -0.17 +0.01    -0.021 A 
DOCKED: ATOM     12  C   UNL d   1       7.911  13.443  -8.818 -0.19 -0.00    +0.000 A 
DOCKED: ATOM     13  C   UNL d   1       7.394  13.288 -10.105 -0.21 -0.03    +0.070 A 
DOCKED: ATOM     14  C   UNL d   1       7.139  14.891  -6.799 -0.14 -0.05    +0.052 C 
DOCKED: ATOM     15  C   UNL d   1       7.601  12.240 -12.395 -0.21 -0.02    +0.066 A 
DOCKED: ATOM     16  C   UNL d   1       8.323  11.502 -13.322 -0.20 +0.01    -0.021 A 
DOCKED: ATOM     17  C   UNL d   1       7.590  11.571 -14.516 -0.25 -0.00    +0.000 A 
DOCKED: ATOM     18  C   UNL d   1       6.466  12.333 -14.216 -0.26 -0.04    +0.070 A 
DOCKED: ATOM     19  C   UNL d   1       9.630  10.790 -13.051 -0.23 -0.01    +0.052 C 
DOCKED: ATOM     20  C   UNL d   1       4.353  13.531 -14.897 -0.29 -0.03    +0.066 A 
DOCKED: ATOM     21  C   UNL d   1       3.422  13.858 -15.880 -0.29 +0.01    -0.025 A 
DOCKED: ATOM     22  C   UNL d   1       2.520  14.711 -15.271 -0.31 +0.00    -0.021 A 
DOCKED: ATOM     23  C   UNL d   1       2.956  14.873 -13.939 -0.26 -0.01    +0.066 A 
DOCKED: ATOM     24  C   UNL d   1       3.403  13.396 -17.335 -0.34 -0.02    +0.051 C 
DOCKED: ATOM     25  N   UNL d   1       4.003  15.366 -11.199 -0.14 +0.11    -0.248 N 
DOCKED: ATOM     26  N   UNL d   1       6.294  14.058 -10.318 -0.10 +0.11    -0.248 N 
DOCKED: ATOM     27  N   UNL d   1       6.521  12.740 -12.953 -0.14 +0.11    -0.248 N 
DOCKED: ATOM     28  N   UNL d   1       4.067  14.162 -13.709 -0.16 +0.10    -0.248 N 
DOCKED: ATOM     29 FE   UNL d   1       5.335  13.975 -12.131 -0.06 -0.00    +0.000 Fe
DOCKED: ENDROOT
DOCKED: BRANCH   6  30
DOCKED: ATOM     30  C   UNL d   1       1.193  17.887 -11.148 -0.08 -0.01    +0.052 C 
DOCKED: BRANCH  30  31
DOCKED: ATOM     31  C   UNL d   1       1.681  19.238 -11.670 -0.01 -0.01    +0.115 C 
DOCKED: BRANCH  31  32
DOCKED: ATOM     32  C   UNL d   1       2.807  19.097 -12.671 -0.01 -0.01    +0.139 C 
DOCKED: ATOM     33  O   UNL d   1       2.568  19.210 -13.865 +0.02 -0.01    -0.650 OA
DOCKED: BRANCH  32  34
DOCKED: ATOM     34  O   UNL d   1       4.089  18.896 -12.286 +0.02 +0.07    -0.776 OA
DOCKED: ATOM     35  H   UNL d   1       4.766  18.489 -12.843 +0.01 -0.02    +0.167 HD
DOCKED: ENDBRANCH  32  34
DOCKED: ENDBRANCH  31  32
DOCKED: ENDBRANCH  30  31
DOCKED: ENDBRANCH   6  30
DOCKED: BRANCH  29  36
DOCKED: ATOM     36  C   UNL d   1       6.432  15.637 -12.786 -0.05 -0.05    +0.190 C 
DOCKED: BRANCH  36  37
DOCKED: ATOM     37  O   UNL d   1       6.362  17.024 -12.951 +0.00 +0.06    -0.399 OA
DOCKED: ATOM     38  H   UNL d   1       5.540  17.300 -12.457 +0.02 -0.03    +0.209 HD
DOCKED: ENDBRANCH  36  37
DOCKED: ENDBRANCH  29  36
DOCKED: BRANCH  22  39
DOCKED: ATOM     39  C   UNL d   1       1.344  15.381 -15.955 -0.28 +0.01    +0.052 C 
DOCKED: BRANCH  39  40
DOCKED: ATOM     40  C   UNL d   1       1.773  16.715 -16.590 -0.15 +0.03    +0.115 C 
DOCKED: BRANCH  40  41
DOCKED: ATOM     41  C   UNL d   1       1.334  16.892 -18.028 -0.11 +0.08    +0.139 C 
DOCKED: ATOM     42  O   UNL d   1       1.505  15.978 -18.823 +0.02 -0.35    -0.650 OA
DOCKED: BRANCH  41  43
DOCKED: ATOM     43  O   UNL d   1       0.678  18.000 -18.439 -0.07 -0.79    -0.776 OA
DOCKED: ATOM     44  H   UNL d   1       0.853  18.874 -18.068 +0.01 +0.12    +0.167 HD
DOCKED: ENDBRANCH  41  43
DOCKED: ENDBRANCH  40  41
DOCKED: ENDBRANCH  39  40
DOCKED: ENDBRANCH  22  39
DOCKED: BRANCH  12  45
DOCKED: ATOM     45  C   UNL d   1       9.100  12.637  -8.313 -0.26 -0.00    +0.004 C 
DOCKED: ATOM     46  C   UNL d   1       9.290  11.322  -8.249 -0.39 -0.01    +0.012 C 
DOCKED: ENDBRANCH  12  45
DOCKED: BRANCH  17  47
DOCKED: ATOM     47  C   UNL d   1       7.913  11.020 -15.866 -0.23 -0.00    +0.004 C 
DOCKED: ATOM     48  C   UNL d   1       8.569  11.706 -16.805 -0.16 -0.00    +0.012 C 
DOCKED: ENDBRANCH  17  47
DOCKED: TORSDOF 12
DOCKED: TER
DOCKED: ENDMDL
________________________________________________________________________________


	BEGINNING GENETIC ALGORITHM DOCKING 39 of 100
Run: 39 Seed: 1836506389 1108754286 [ Run 39 of 100 GA/GALS ]
Beginning LAMARCKIAN GENETIC ALGORITHM (LGA), with a maximum of 25000000 energy evaluations.

Final-Value: -10.034


	FINAL GENETIC ALGORITHM DOCKED STATE
	_______________________________________________


Detailed state:  trans -6.833 6.658 16.625 quatxyzw 0.173080 0.108257 0.461374 -0.863399 center 8.781 34.984 -0.736 ntor 12 -161.4921 121.7685 6.6831 105.6926 95.2187 128.2300 30.8573 -35.8096 -173.8817 122.9310 -174.2316 5.9840
State:	 -6.833   6.658  16.625   0.343  0.215  0.914 -60.599   -161.49  121.77    6.68  105.69   95.22  128.23   30.86  -35.81 -173.88  122.93 -174.23    5.98

DOCKED: MODEL       39
DOCKED: USER    Run = 39
DOCKED: USER    DPF = D:/Protein_go_brrr/autodock/final/mut_N102T/heme_Co/dock.dpf
DOCKED: USER  
DOCKED: USER    Estimated Free Energy of Binding    =   -4.13 kcal/mol  [=(1)+(2)+(3)-(4)]
DOCKED: USER    Estimated Inhibition Constant, Ki   =  937.13 uM (micromolar)  [Temperature = 298.15 K]
DOCKED: USER    
DOCKED: USER    (1) Final Intermolecular Energy     =   -7.71 kcal/mol
DOCKED: USER        vdW + Hbond + desolv Energy     =   -7.56 kcal/mol
DOCKED: USER        Electrostatic Energy            =   -0.15 kcal/mol
DOCKED: USER    (2) Final Total Internal Energy     =   -2.32 kcal/mol
DOCKED: USER    (3) Torsional Free Energy           =   +3.58 kcal/mol
DOCKED: USER    (4) Unbound System's Energy  [=(2)] =   -2.32 kcal/mol
DOCKED: USER    
DOCKED: USER    
DOCKED: USER    NEWDPF move heme_Co_opt.pdbqt
DOCKED: USER    NEWDPF about 8.781000 34.984000 -0.736000
DOCKED: USER    NEWDPF tran0 -6.833201 6.657842 16.625381
DOCKED: USER    NEWDPF quaternion0 0.173080 0.108257 0.461374 -0.863399
DOCKED: USER    NEWDPF axisangle0 0.343058 0.214573 0.914478 -60.599248
DOCKED: USER    NEWDPF quat0 0.343058 0.214573 0.914478 -60.599248
DOCKED: USER    NEWDPF dihe0 -161.49 121.77 6.68 105.69 95.22 128.23 30.86 -35.81 -173.88 122.93 -174.23 5.98 
DOCKED: USER  keepresnum = 1 
DOCKED: USER  
DOCKED: REMARK  12 active torsions:
DOCKED: REMARK  status: ('A' for Active; 'I' for Inactive)
DOCKED: REMARK    1  A    between atoms: C_6  and  C_10 
DOCKED: REMARK    2  A    between atoms: C_10  and  C_11 
DOCKED: REMARK    3  A    between atoms: C_11  and  C_12 
DOCKED: REMARK    4  A    between atoms: C_12  and  O_14 
DOCKED: REMARK    5  A    between atoms: C_17  and  C_20 
DOCKED: REMARK    6  A    between atoms: C_24  and  C_27 
DOCKED: REMARK    7  A    between atoms: C_31  and  C_34 
DOCKED: REMARK    8  A    between atoms: C_34  and  C_35 
DOCKED: REMARK    9  A    between atoms: C_35  and  C_36 
DOCKED: REMARK   10  A    between atoms: C_36  and  O_38 
DOCKED: REMARK   11  A    between atoms: FE_43  and  C_44 
DOCKED: REMARK   12  A    between atoms: C_44  and  O_45 
DOCKED: USER                              x       y       z     vdW  Elec       q    Type
DOCKED: USER                           _______ _______ _______ _____ _____    ______ ____
DOCKED: ROOT
DOCKED: ATOM      1  C   UNL d   1      -8.573   5.470  16.098 -0.11 +0.01    +0.064 A 
DOCKED: ATOM      2  C   UNL d   1      -4.565   4.408  18.427 -0.18 -0.00    +0.064 C 
DOCKED: ATOM      3  C   UNL d   1      -2.848   8.778  17.540 -0.14 -0.02    +0.064 A 
DOCKED: ATOM      4  C   UNL d   1      -7.085  10.013  15.493 -0.03 -0.00    +0.064 A 
DOCKED: ATOM      5  C   UNL d   1      -7.589   4.847  16.768 -0.21 +0.01    +0.066 A 
DOCKED: ATOM      6  C   UNL d   1      -7.741   3.542  17.276 -0.24 -0.00    -0.021 A 
DOCKED: ATOM      7  C   UNL d   1      -6.584   3.248  17.970 -0.23 -0.00    -0.025 A 
DOCKED: ATOM      8  C   UNL d   1      -5.769   4.378  17.842 -0.24 +0.00    +0.066 A 
DOCKED: ATOM      9  C   UNL d   1      -6.244   1.957  18.731 -0.13 +0.01    +0.051 C 
DOCKED: ATOM     10  C   UNL d   1      -3.648   5.516  18.328 -0.23 -0.01    +0.066 A 
DOCKED: ATOM     11  C   UNL d   1      -2.317   5.554  18.798 -0.27 +0.01    -0.021 A 
DOCKED: ATOM     12  C   UNL d   1      -1.839   6.839  18.523 -0.24 -0.00    +0.000 A 
DOCKED: ATOM     13  C   UNL d   1      -2.906   7.483  17.896 -0.20 -0.02    +0.070 A 
DOCKED: ATOM     14  C   UNL d   1      -1.543   4.400  19.381 -0.24 -0.03    +0.052 C 
DOCKED: ATOM     15  C   UNL d   1      -3.868   9.612  16.934 -0.16 -0.02    +0.066 A 
DOCKED: ATOM     16  C   UNL d   1      -3.794  10.981  16.724 -0.21 +0.01    -0.021 A 
DOCKED: ATOM     17  C   UNL d   1      -5.015  11.343  16.136 -0.18 -0.00    +0.000 A 
DOCKED: ATOM     18  C   UNL d   1      -5.733  10.157  16.018 -0.16 -0.01    +0.070 A 
DOCKED: ATOM     19  C   UNL d   1      -2.615  11.860  17.078 -0.26 -0.01    +0.052 C 
DOCKED: ATOM     20  C   UNL d   1      -7.835   8.886  15.447 -0.16 +0.00    +0.066 A 
DOCKED: ATOM     21  C   UNL d   1      -9.137   8.880  14.952 -0.18 -0.00    -0.025 A 
DOCKED: ATOM     22  C   UNL d   1      -9.582   7.577  15.087 -0.20 -0.00    -0.021 A 
DOCKED: ATOM     23  C   UNL d   1      -8.524   6.850  15.673 -0.22 +0.00    +0.066 A 
DOCKED: ATOM     24  C   UNL d   1      -9.928  10.061  14.396 -0.13 -0.00    +0.051 C 
DOCKED: ATOM     25  N   UNL d   1      -6.364   5.382  17.097 -0.18 -0.00    -0.248 N 
DOCKED: ATOM     26  N   UNL d   1      -3.979   6.665  17.728 -0.15 +0.04    -0.248 N 
DOCKED: ATOM     27  N   UNL d   1      -5.031   9.152  16.530 -0.16 +0.05    -0.248 N 
DOCKED: ATOM     28  N   UNL d   1      -7.466   7.639  15.895 -0.18 +0.00    -0.248 N 
DOCKED: ATOM     29 FE   UNL d   1      -5.661   7.380  16.795 -0.05 -0.00    +0.000 Fe
DOCKED: ENDROOT
DOCKED: BRANCH   6  30
DOCKED: ATOM     30  C   UNL d   1      -8.980   2.660  17.163 -0.20 +0.02    +0.052 C 
DOCKED: BRANCH  30  31
DOCKED: ATOM     31  C   UNL d   1      -9.913   2.889  18.352 -0.05 +0.01    +0.115 C 
DOCKED: BRANCH  31  32
DOCKED: ATOM     32  C   UNL d   1      -9.422   3.990  19.267 -0.02 +0.01    +0.139 C 
DOCKED: ATOM     33  O   UNL d   1      -8.814   3.698  20.286 +0.02 -0.01    -0.650 OA
DOCKED: BRANCH  32  34
DOCKED: ATOM     34  O   UNL d   1      -9.592   5.299  18.970 +0.03 -0.00    -0.776 OA
DOCKED: ATOM     35  H   UNL d   1      -9.129   6.022  19.415 +0.01 -0.00    +0.167 HD
DOCKED: ENDBRANCH  32  34
DOCKED: ENDBRANCH  31  32
DOCKED: ENDBRANCH  30  31
DOCKED: ENDBRANCH   6  30
DOCKED: BRANCH  29  36
DOCKED: ATOM     36  C   UNL d   1      -6.500   7.837  18.661 -0.03 -0.02    +0.190 C 
DOCKED: BRANCH  36  37
DOCKED: ATOM     37  O   UNL d   1      -7.504   7.453  19.556 +0.00 +0.02    -0.399 OA
DOCKED: ATOM     38  H   UNL d   1      -7.869   6.603  19.182 +0.02 -0.01    +0.209 HD
DOCKED: ENDBRANCH  36  37
DOCKED: ENDBRANCH  29  36
DOCKED: BRANCH  22  39
DOCKED: ATOM     39  C   UNL d   1     -10.970   7.080  14.730 -0.13 +0.00    +0.052 C 
DOCKED: BRANCH  39  40
DOCKED: ATOM     40  C   UNL d   1     -10.928   6.224  13.454 -0.20 +0.01    +0.115 C 
DOCKED: BRANCH  40  41
DOCKED: ATOM     41  C   UNL d   1     -10.471   6.968  12.217 -0.30 +0.01    +0.139 C 
DOCKED: ATOM     42  O   UNL d   1      -9.327   6.811  11.813 -0.51 -0.17    -0.650 OA
DOCKED: BRANCH  41  43
DOCKED: ATOM     43  O   UNL d   1     -11.318   7.735  11.496 +0.05 -0.00    -0.776 OA
DOCKED: ATOM     44  H   UNL d   1     -12.189   7.996  11.823 +0.04 -0.00    +0.167 HD
DOCKED: ENDBRANCH  41  43
DOCKED: ENDBRANCH  40  41
DOCKED: ENDBRANCH  39  40
DOCKED: ENDBRANCH  22  39
DOCKED: BRANCH  12  45
DOCKED: ATOM     45  C   UNL d   1      -0.499   7.521  18.762 -0.25 -0.00    +0.004 C 
DOCKED: ATOM     46  C   UNL d   1       0.537   7.704  17.948 -0.43 -0.00    +0.012 C 
DOCKED: ENDBRANCH  12  45
DOCKED: BRANCH  17  47
DOCKED: ATOM     47  C   UNL d   1      -5.525  12.692  15.749 -0.16 -0.00    +0.004 C 
DOCKED: ATOM     48  C   UNL d   1      -5.080  13.373  14.691 -0.23 -0.00    +0.012 C 
DOCKED: ENDBRANCH  17  47
DOCKED: TORSDOF 12
DOCKED: TER
DOCKED: ENDMDL
________________________________________________________________________________


	BEGINNING GENETIC ALGORITHM DOCKING 40 of 100
Run: 40 Seed: 2056299736 1565095058 [ Run 40 of 100 GA/GALS ]
Beginning LAMARCKIAN GENETIC ALGORITHM (LGA), with a maximum of 25000000 energy evaluations.

Final-Value: -9.887


	FINAL GENETIC ALGORITHM DOCKED STATE
	_______________________________________________


Detailed state:  trans -11.636 4.206 11.680 quatxyzw 0.589201 -0.449992 -0.616978 0.263982 center 8.781 34.984 -0.736 ntor 12 -167.1525 106.1771 98.8177 -2.8840 153.2465 137.4073 40.7952 115.1290 167.4714 85.9124 -166.4480 -10.5523
State:	-11.636   4.206  11.680   0.611 -0.467 -0.640 149.387   -167.15  106.18   98.82   -2.88  153.25  137.41   40.80  115.13  167.47   85.91 -166.45  -10.55

DOCKED: MODEL       40
DOCKED: USER    Run = 40
DOCKED: USER    DPF = D:/Protein_go_brrr/autodock/final/mut_N102T/heme_Co/dock.dpf
DOCKED: USER  
DOCKED: USER    Estimated Free Energy of Binding    =   -4.08 kcal/mol  [=(1)+(2)+(3)-(4)]
DOCKED: USER    Estimated Inhibition Constant, Ki   =    1.03 mM (millimolar)  [Temperature = 298.15 K]
DOCKED: USER    
DOCKED: USER    (1) Final Intermolecular Energy     =   -7.66 kcal/mol
DOCKED: USER        vdW + Hbond + desolv Energy     =   -7.47 kcal/mol
DOCKED: USER        Electrostatic Energy            =   -0.18 kcal/mol
DOCKED: USER    (2) Final Total Internal Energy     =   -2.23 kcal/mol
DOCKED: USER    (3) Torsional Free Energy           =   +3.58 kcal/mol
DOCKED: USER    (4) Unbound System's Energy  [=(2)] =   -2.23 kcal/mol
DOCKED: USER    
DOCKED: USER    
DOCKED: USER    NEWDPF move heme_Co_opt.pdbqt
DOCKED: USER    NEWDPF about 8.781000 34.984000 -0.736000
DOCKED: USER    NEWDPF tran0 -11.635881 4.206073 11.680402
DOCKED: USER    NEWDPF quaternion0 0.589201 -0.449992 -0.616978 0.263982
DOCKED: USER    NEWDPF axisangle0 0.610870 -0.466542 -0.639669 149.386999
DOCKED: USER    NEWDPF quat0 0.610870 -0.466542 -0.639669 149.386999
DOCKED: USER    NEWDPF dihe0 -167.15 106.18 98.82 -2.88 153.25 137.41 40.80 115.13 167.47 85.91 -166.45 -10.55 
DOCKED: USER  keepresnum = 1 
DOCKED: USER  
DOCKED: REMARK  12 active torsions:
DOCKED: REMARK  status: ('A' for Active; 'I' for Inactive)
DOCKED: REMARK    1  A    between atoms: C_6  and  C_10 
DOCKED: REMARK    2  A    between atoms: C_10  and  C_11 
DOCKED: REMARK    3  A    between atoms: C_11  and  C_12 
DOCKED: REMARK    4  A    between atoms: C_12  and  O_14 
DOCKED: REMARK    5  A    between atoms: C_17  and  C_20 
DOCKED: REMARK    6  A    between atoms: C_24  and  C_27 
DOCKED: REMARK    7  A    between atoms: C_31  and  C_34 
DOCKED: REMARK    8  A    between atoms: C_34  and  C_35 
DOCKED: REMARK    9  A    between atoms: C_35  and  C_36 
DOCKED: REMARK   10  A    between atoms: C_36  and  O_38 
DOCKED: REMARK   11  A    between atoms: FE_43  and  C_44 
DOCKED: REMARK   12  A    between atoms: C_44  and  O_45 
DOCKED: USER                              x       y       z     vdW  Elec       q    Type
DOCKED: USER                           _______ _______ _______ _____ _____    ______ ____
DOCKED: ROOT
DOCKED: ATOM      1  C   UNL d   1     -11.325   3.638  13.753 -0.11 +0.01    +0.064 A 
DOCKED: ATOM      2  C   UNL d   1     -11.086   7.828  11.518 -0.23 +0.00    +0.064 C 
DOCKED: ATOM      3  C   UNL d   1     -11.827   5.673   7.319 -0.16 -0.00    +0.064 A 
DOCKED: ATOM      4  C   UNL d   1     -12.460   1.435   9.620 -0.18 -0.01    +0.064 A 
DOCKED: ATOM      5  C   UNL d   1     -11.169   4.937  13.447 -0.13 +0.01    +0.066 A 
DOCKED: ATOM      6  C   UNL d   1     -10.999   5.923  14.438 -0.15 -0.00    -0.021 A 
DOCKED: ATOM      7  C   UNL d   1     -10.953   7.139  13.785 -0.17 -0.00    -0.025 A 
DOCKED: ATOM      8  C   UNL d   1     -11.080   6.842  12.424 -0.21 +0.00    +0.066 A 
DOCKED: ATOM      9  C   UNL d   1     -10.797   8.536  14.406 -0.12 +0.00    +0.051 C 
DOCKED: ATOM     10  C   UNL d   1     -11.185   7.617  10.096 -0.24 -0.00    +0.066 A 
DOCKED: ATOM     11  C   UNL d   1     -11.056   8.596   9.086 -0.25 +0.00    -0.021 A 
DOCKED: ATOM     12  C   UNL d   1     -11.273   7.940   7.872 -0.28 -0.00    +0.000 A 
DOCKED: ATOM     13  C   UNL d   1     -11.505   6.611   8.228 -0.25 -0.00    +0.070 A 
DOCKED: ATOM     14  C   UNL d   1     -10.657  10.036   9.286 -0.23 -0.01    +0.052 C 
DOCKED: ATOM     15  C   UNL d   1     -12.148   4.274   7.516 -0.22 -0.00    +0.066 A 
DOCKED: ATOM     16  C   UNL d   1     -12.615   3.393   6.550 -0.18 +0.00    -0.021 A 
DOCKED: ATOM     17  C   UNL d   1     -12.801   2.169   7.210 -0.17 -0.00    +0.000 A 
DOCKED: ATOM     18  C   UNL d   1     -12.416   2.397   8.527 -0.19 -0.01    +0.070 A 
DOCKED: ATOM     19  C   UNL d   1     -12.858   3.733   5.097 -0.17 +0.00    +0.052 C 
DOCKED: ATOM     20  C   UNL d   1     -12.173   1.657  10.925 -0.19 -0.01    +0.066 A 
DOCKED: ATOM     21  C   UNL d   1     -12.287   0.659  11.892 -0.15 +0.00    -0.025 A 
DOCKED: ATOM     22  C   UNL d   1     -11.938   1.258  13.088 -0.16 -0.00    -0.021 A 
DOCKED: ATOM     23  C   UNL d   1     -11.638   2.605  12.793 -0.16 +0.00    +0.066 A 
DOCKED: ATOM     24  C   UNL d   1     -12.726  -0.788  11.689 -0.09 -0.01    +0.051 C 
DOCKED: ATOM     25  N   UNL d   1     -11.210   5.485  12.185 -0.07 -0.01    -0.248 N 
DOCKED: ATOM     26  N   UNL d   1     -11.396   6.407   9.568 -0.18 +0.00    -0.248 N 
DOCKED: ATOM     27  N   UNL d   1     -12.062   3.669   8.679 -0.15 +0.01    -0.248 N 
DOCKED: ATOM     28  N   UNL d   1     -11.781   2.851  11.485 -0.13 +0.02    -0.248 N 
DOCKED: ATOM     29 FE   UNL d   1     -11.661   4.519  10.330 -0.06 -0.00    +0.000 Fe
DOCKED: ENDROOT
DOCKED: BRANCH   6  30
DOCKED: ATOM     30  C   UNL d   1     -10.967   5.701  15.946 -0.10 +0.00    +0.052 C 
DOCKED: BRANCH  30  31
DOCKED: ATOM     31  C   UNL d   1     -12.386   5.614  16.507 -0.02 +0.00    +0.115 C 
DOCKED: BRANCH  31  32
DOCKED: ATOM     32  C   UNL d   1     -13.426   6.108  15.524 -0.01 -0.00    +0.139 C 
DOCKED: ATOM     33  O   UNL d   1     -13.727   7.293  15.513 +0.01 +0.01    -0.650 OA
DOCKED: BRANCH  32  34
DOCKED: ATOM     34  O   UNL d   1     -14.005   5.287  14.618 +0.02 +0.01    -0.776 OA
DOCKED: ATOM     35  H   UNL d   1     -14.579   5.587  13.900 +0.01 -0.00    +0.167 HD
DOCKED: ENDBRANCH  32  34
DOCKED: ENDBRANCH  31  32
DOCKED: ENDBRANCH  30  31
DOCKED: ENDBRANCH   6  30
DOCKED: BRANCH  29  36
DOCKED: ATOM     36  C   UNL d   1     -13.673   4.961  10.719 -0.05 -0.01    +0.190 C 
DOCKED: BRANCH  36  37
DOCKED: ATOM     37  O   UNL d   1     -14.556   5.331  11.739 +0.00 +0.01    -0.399 OA
DOCKED: ATOM     38  H   UNL d   1     -14.014   5.286  12.576 +0.02 -0.00    +0.209 HD
DOCKED: ENDBRANCH  36  37
DOCKED: ENDBRANCH  29  36
DOCKED: BRANCH  22  39
DOCKED: ATOM     39  C   UNL d   1     -11.958   0.584  14.448 -0.10 +0.00    +0.052 C 
DOCKED: BRANCH  39  40
DOCKED: ATOM     40  C   UNL d   1     -10.594  -0.054  14.757 -0.15 +0.05    +0.115 C 
DOCKED: BRANCH  40  41
DOCKED: ATOM     41  C   UNL d   1     -10.531  -1.546  14.507 -0.09 +0.06    +0.139 C 
DOCKED: ATOM     42  O   UNL d   1     -10.511  -2.312  15.459 -0.57 -0.34    -0.650 OA
DOCKED: BRANCH  41  43
DOCKED: ATOM     43  O   UNL d   1     -10.583  -2.059  13.258 -0.12 +0.16    -0.776 OA
DOCKED: ATOM     44  H   UNL d   1      -9.804  -2.413  12.808 -0.45 -0.12    +0.167 HD
DOCKED: ENDBRANCH  41  43
DOCKED: ENDBRANCH  40  41
DOCKED: ENDBRANCH  39  40
DOCKED: ENDBRANCH  22  39
DOCKED: BRANCH  12  45
DOCKED: ATOM     45  C   UNL d   1     -11.269   8.408   6.423 -0.29 -0.00    +0.004 C 
DOCKED: ATOM     46  C   UNL d   1     -11.249   9.636   5.910 -0.24 -0.00    +0.012 C 
DOCKED: ENDBRANCH  12  45
DOCKED: BRANCH  17  47
DOCKED: ATOM     47  C   UNL d   1     -13.346   0.879   6.691 -0.16 -0.00    +0.004 C 
DOCKED: ATOM     48  C   UNL d   1     -12.753  -0.302   6.884 -0.17 -0.01    +0.012 C 
DOCKED: ENDBRANCH  17  47
DOCKED: TORSDOF 12
DOCKED: TER
DOCKED: ENDMDL
________________________________________________________________________________


	BEGINNING GENETIC ALGORITHM DOCKING 41 of 100
Run: 41 Seed: 1265346331 2126550457 [ Run 41 of 100 GA/GALS ]
Beginning LAMARCKIAN GENETIC ALGORITHM (LGA), with a maximum of 25000000 energy evaluations.

Final-Value: -10.295


	FINAL GENETIC ALGORITHM DOCKED STATE
	_______________________________________________


Detailed state:  trans -11.698 3.522 11.424 quatxyzw 0.331030 -0.030675 -0.641350 0.691482 center 8.781 34.984 -0.736 ntor 12 149.3012 117.4321 -86.0996 -108.0847 50.0005 107.5697 -109.5050 -31.3045 -131.5601 -146.3345 178.4608 148.9888
State:	-11.698   3.522  11.424   0.458 -0.042 -0.888 92.505    149.30  117.43  -86.10 -108.08   50.00  107.57 -109.51  -31.30 -131.56 -146.33  178.46  148.99

DOCKED: MODEL       41
DOCKED: USER    Run = 41
DOCKED: USER    DPF = D:/Protein_go_brrr/autodock/final/mut_N102T/heme_Co/dock.dpf
DOCKED: USER  
DOCKED: USER    Estimated Free Energy of Binding    =   -2.69 kcal/mol  [=(1)+(2)+(3)-(4)]
DOCKED: USER    Estimated Inhibition Constant, Ki   =   10.73 mM (millimolar)  [Temperature = 298.15 K]
DOCKED: USER    
DOCKED: USER    (1) Final Intermolecular Energy     =   -6.27 kcal/mol
DOCKED: USER        vdW + Hbond + desolv Energy     =   -6.36 kcal/mol
DOCKED: USER        Electrostatic Energy            =   +0.09 kcal/mol
DOCKED: USER    (2) Final Total Internal Energy     =   -4.03 kcal/mol
DOCKED: USER    (3) Torsional Free Energy           =   +3.58 kcal/mol
DOCKED: USER    (4) Unbound System's Energy  [=(2)] =   -4.03 kcal/mol
DOCKED: USER    
DOCKED: USER    
DOCKED: USER    NEWDPF move heme_Co_opt.pdbqt
DOCKED: USER    NEWDPF about 8.781000 34.984000 -0.736000
DOCKED: USER    NEWDPF tran0 -11.698239 3.522443 11.424383
DOCKED: USER    NEWDPF quaternion0 0.331030 -0.030675 -0.641350 0.691482
DOCKED: USER    NEWDPF axisangle0 0.458240 -0.042463 -0.887813 92.504853
DOCKED: USER    NEWDPF quat0 0.458240 -0.042463 -0.887813 92.504853
DOCKED: USER    NEWDPF dihe0 149.30 117.43 -86.10 -108.08 50.00 107.57 -109.51 -31.30 -131.56 -146.33 178.46 148.99 
DOCKED: USER  keepresnum = 1 
DOCKED: USER  
DOCKED: REMARK  12 active torsions:
DOCKED: REMARK  status: ('A' for Active; 'I' for Inactive)
DOCKED: REMARK    1  A    between atoms: C_6  and  C_10 
DOCKED: REMARK    2  A    between atoms: C_10  and  C_11 
DOCKED: REMARK    3  A    between atoms: C_11  and  C_12 
DOCKED: REMARK    4  A    between atoms: C_12  and  O_14 
DOCKED: REMARK    5  A    between atoms: C_17  and  C_20 
DOCKED: REMARK    6  A    between atoms: C_24  and  C_27 
DOCKED: REMARK    7  A    between atoms: C_31  and  C_34 
DOCKED: REMARK    8  A    between atoms: C_34  and  C_35 
DOCKED: REMARK    9  A    between atoms: C_35  and  C_36 
DOCKED: REMARK   10  A    between atoms: C_36  and  O_38 
DOCKED: REMARK   11  A    between atoms: FE_43  and  C_44 
DOCKED: REMARK   12  A    between atoms: C_44  and  O_45 
DOCKED: USER                              x       y       z     vdW  Elec       q    Type
DOCKED: USER                           _______ _______ _______ _____ _____    ______ ____
DOCKED: ROOT
DOCKED: ATOM      1  C   UNL d   1     -12.166   1.402  11.457 -0.18 -0.01    +0.064 A 
DOCKED: ATOM      2  C   UNL d   1     -10.959   4.461  14.892 -0.09 +0.01    +0.064 C 
DOCKED: ATOM      3  C   UNL d   1     -10.270   7.896  11.642 -0.24 +0.00    +0.064 A 
DOCKED: ATOM      4  C   UNL d   1     -11.870   4.902   8.158 -0.24 -0.00    +0.064 A 
DOCKED: ATOM      5  C   UNL d   1     -11.851   1.975  12.631 -0.19 -0.00    +0.066 A 
DOCKED: ATOM      6  C   UNL d   1     -11.997   1.297  13.856 -0.12 -0.00    -0.021 A 
DOCKED: ATOM      7  C   UNL d   1     -11.667   2.196  14.851 -0.11 -0.00    -0.025 A 
DOCKED: ATOM      8  C   UNL d   1     -11.319   3.379  14.190 -0.14 +0.01    +0.066 A 
DOCKED: ATOM      9  C   UNL d   1     -11.675   1.967  16.370 -0.06 +0.01    +0.051 C 
DOCKED: ATOM     10  C   UNL d   1     -10.560   5.713  14.298 -0.09 +0.01    +0.066 A 
DOCKED: ATOM     11  C   UNL d   1     -10.037   6.838  14.972 -0.19 -0.00    -0.021 A 
DOCKED: ATOM     12  C   UNL d   1      -9.842   7.823  14.000 -0.27 +0.00    +0.000 A 
DOCKED: ATOM     13  C   UNL d   1     -10.246   7.224  12.807 -0.29 +0.01    +0.070 A 
DOCKED: ATOM     14  C   UNL d   1      -9.668   6.911  16.431 -0.12 +0.00    +0.052 C 
DOCKED: ATOM     15  C   UNL d   1     -10.705   7.451  10.333 -0.32 -0.00    +0.066 A 
DOCKED: ATOM     16  C   UNL d   1     -10.841   8.240   9.199 -0.29 +0.00    -0.021 A 
DOCKED: ATOM     17  C   UNL d   1     -11.304   7.381   8.192 -0.30 -0.00    +0.000 A 
DOCKED: ATOM     18  C   UNL d   1     -11.399   6.128   8.789 -0.28 -0.00    +0.070 A 
DOCKED: ATOM     19  C   UNL d   1     -10.539   9.720   9.119 -0.24 -0.01    +0.052 C 
DOCKED: ATOM     20  C   UNL d   1     -12.052   3.693   8.740 -0.20 -0.00    +0.066 A 
DOCKED: ATOM     21  C   UNL d   1     -12.546   2.596   8.037 -0.19 +0.00    -0.025 A 
DOCKED: ATOM     22  C   UNL d   1     -12.614   1.564   8.956 -0.18 +0.00    -0.021 A 
DOCKED: ATOM     23  C   UNL d   1     -12.167   2.091  10.187 -0.19 -0.01    +0.066 A 
DOCKED: ATOM     24  C   UNL d   1     -12.952   2.538   6.567 -0.16 -0.01    +0.051 C 
DOCKED: ATOM     25  N   UNL d   1     -11.419   3.269  12.813 -0.11 -0.01    -0.248 N 
DOCKED: ATOM     26  N   UNL d   1     -10.626   5.930  12.980 -0.12 -0.03    -0.248 N 
DOCKED: ATOM     27  N   UNL d   1     -11.063   6.214  10.071 -0.15 -0.00    -0.248 N 
DOCKED: ATOM     28  N   UNL d   1     -11.828   3.379  10.061 -0.13 +0.02    -0.248 N 
DOCKED: ATOM     29 FE   UNL d   1     -11.231   4.826  11.358 -0.07 +0.00    +0.000 Fe
DOCKED: ENDROOT
DOCKED: BRANCH   6  30
DOCKED: ATOM     30  C   UNL d   1     -12.509  -0.126  14.053 -0.06 +0.00    +0.052 C 
DOCKED: BRANCH  30  31
DOCKED: ATOM     31  C   UNL d   1     -13.994  -0.117  14.416 -0.01 -0.00    +0.115 C 
DOCKED: BRANCH  31  32
DOCKED: ATOM     32  C   UNL d   1     -14.801   0.798  13.521 -0.01 -0.01    +0.139 C 
DOCKED: ATOM     33  O   UNL d   1     -15.721   0.336  12.863 +0.00 +0.04    -0.650 OA
DOCKED: BRANCH  32  34
DOCKED: ATOM     34  O   UNL d   1     -14.569   2.130  13.459 +0.02 +0.02    -0.776 OA
DOCKED: ATOM     35  H   UNL d   1     -14.660   2.661  12.656 +0.01 -0.01    +0.167 HD
DOCKED: ENDBRANCH  32  34
DOCKED: ENDBRANCH  31  32
DOCKED: ENDBRANCH  30  31
DOCKED: ENDBRANCH   6  30
DOCKED: BRANCH  29  36
DOCKED: ATOM     36  C   UNL d   1     -13.228   5.306  11.778 -0.06 -0.00    +0.190 C 
DOCKED: BRANCH  36  37
DOCKED: ATOM     37  O   UNL d   1     -14.498   4.744  11.944 -0.00 +0.01    -0.399 OA
DOCKED: ATOM     38  H   UNL d   1     -14.353   3.759  11.874 +0.02 -0.01    +0.209 HD
DOCKED: ENDBRANCH  36  37
DOCKED: ENDBRANCH  29  36
DOCKED: BRANCH  22  39
DOCKED: ATOM     39  C   UNL d   1     -13.144   0.170   8.676 -0.12 -0.01    +0.052 C 
DOCKED: BRANCH  39  40
DOCKED: ATOM     40  C   UNL d   1     -14.489  -0.052   9.386 -0.02 -0.02    +0.115 C 
DOCKED: BRANCH  40  41
DOCKED: ATOM     41  C   UNL d   1     -15.297   1.210   9.604 -0.01 -0.01    +0.139 C 
DOCKED: ATOM     42  O   UNL d   1     -16.293   1.409   8.923 +0.01 +0.05    -0.650 OA
DOCKED: BRANCH  41  43
DOCKED: ATOM     43  O   UNL d   1     -14.998   2.083  10.592 +0.02 +0.06    -0.776 OA
DOCKED: ATOM     44  H   UNL d   1     -15.257   1.937  11.511 +0.01 -0.01    +0.167 HD
DOCKED: ENDBRANCH  41  43
DOCKED: ENDBRANCH  40  41
DOCKED: ENDBRANCH  39  40
DOCKED: ENDBRANCH  22  39
DOCKED: BRANCH  12  45
DOCKED: ATOM     45  C   UNL d   1      -9.305   9.247  14.058 -0.20 +0.00    +0.004 C 
DOCKED: ATOM     46  C   UNL d   1      -9.898  10.408  13.791 -0.14 -0.00    +0.012 C 
DOCKED: ENDBRANCH  12  45
DOCKED: BRANCH  17  47
DOCKED: ATOM     47  C   UNL d   1     -11.690   7.686   6.782 -0.24 -0.00    +0.004 C 
DOCKED: ATOM     48  C   UNL d   1     -11.168   8.692   6.075 -0.29 -0.00    +0.012 C 
DOCKED: ENDBRANCH  17  47
DOCKED: TORSDOF 12
DOCKED: TER
DOCKED: ENDMDL
________________________________________________________________________________


	BEGINNING GENETIC ALGORITHM DOCKING 42 of 100
Run: 42 Seed: 70257944 1020230356 [ Run 42 of 100 GA/GALS ]
Beginning LAMARCKIAN GENETIC ALGORITHM (LGA), with a maximum of 25000000 energy evaluations.

Final-Value: -10.348


	FINAL GENETIC ALGORITHM DOCKED STATE
	_______________________________________________


Detailed state:  trans -9.590 -10.676 -10.659 quatxyzw 0.256407 -0.351704 -0.876616 0.205195 center 8.781 34.984 -0.736 ntor 12 118.3503 118.4357 -92.2432 100.0801 -85.3268 -23.4366 179.0293 -162.4883 -37.5175 43.8182 166.9864 146.7039
State:	 -9.590 -10.676 -10.659   0.262 -0.359 -0.896 156.318    118.35  118.44  -92.24  100.08  -85.33  -23.44  179.03 -162.49  -37.52   43.82  166.99  146.70

DOCKED: MODEL       42
DOCKED: USER    Run = 42
DOCKED: USER    DPF = D:/Protein_go_brrr/autodock/final/mut_N102T/heme_Co/dock.dpf
DOCKED: USER  
DOCKED: USER    Estimated Free Energy of Binding    =   -4.65 kcal/mol  [=(1)+(2)+(3)-(4)]
DOCKED: USER    Estimated Inhibition Constant, Ki   =  391.12 uM (micromolar)  [Temperature = 298.15 K]
DOCKED: USER    
DOCKED: USER    (1) Final Intermolecular Energy     =   -8.23 kcal/mol
DOCKED: USER        vdW + Hbond + desolv Energy     =   -5.25 kcal/mol
DOCKED: USER        Electrostatic Energy            =   -2.98 kcal/mol
DOCKED: USER    (2) Final Total Internal Energy     =   -2.12 kcal/mol
DOCKED: USER    (3) Torsional Free Energy           =   +3.58 kcal/mol
DOCKED: USER    (4) Unbound System's Energy  [=(2)] =   -2.12 kcal/mol
DOCKED: USER    
DOCKED: USER    
DOCKED: USER    NEWDPF move heme_Co_opt.pdbqt
DOCKED: USER    NEWDPF about 8.781000 34.984000 -0.736000
DOCKED: USER    NEWDPF tran0 -9.589528 -10.676100 -10.658948
DOCKED: USER    NEWDPF quaternion0 0.256407 -0.351704 -0.876616 0.205195
DOCKED: USER    NEWDPF axisangle0 0.261982 -0.359350 -0.895674 156.318215
DOCKED: USER    NEWDPF quat0 0.261982 -0.359350 -0.895674 156.318215
DOCKED: USER    NEWDPF dihe0 118.35 118.44 -92.24 100.08 -85.33 -23.44 179.03 -162.49 -37.52 43.82 166.99 146.70 
DOCKED: USER  keepresnum = 1 
DOCKED: USER  
DOCKED: REMARK  12 active torsions:
DOCKED: REMARK  status: ('A' for Active; 'I' for Inactive)
DOCKED: REMARK    1  A    between atoms: C_6  and  C_10 
DOCKED: REMARK    2  A    between atoms: C_10  and  C_11 
DOCKED: REMARK    3  A    between atoms: C_11  and  C_12 
DOCKED: REMARK    4  A    between atoms: C_12  and  O_14 
DOCKED: REMARK    5  A    between atoms: C_17  and  C_20 
DOCKED: REMARK    6  A    between atoms: C_24  and  C_27 
DOCKED: REMARK    7  A    between atoms: C_31  and  C_34 
DOCKED: REMARK    8  A    between atoms: C_34  and  C_35 
DOCKED: REMARK    9  A    between atoms: C_35  and  C_36 
DOCKED: REMARK   10  A    between atoms: C_36  and  O_38 
DOCKED: REMARK   11  A    between atoms: FE_43  and  C_44 
DOCKED: REMARK   12  A    between atoms: C_44  and  O_45 
DOCKED: USER                              x       y       z     vdW  Elec       q    Type
DOCKED: USER                           _______ _______ _______ _____ _____    ______ ____
DOCKED: ROOT
DOCKED: ATOM      1  C   UNL d   1      -8.082 -11.970  -9.783 -0.20 +0.02    +0.064 A 
DOCKED: ATOM      2  C   UNL d   1      -8.773  -7.270  -9.571 -0.24 +0.01    +0.064 C 
DOCKED: ATOM      3  C   UNL d   1     -12.380  -7.622 -12.684 -0.02 +0.01    +0.064 A 
DOCKED: ATOM      4  C   UNL d   1     -11.944 -12.467 -12.622 -0.01 +0.01    +0.064 A 
DOCKED: ATOM      5  C   UNL d   1      -7.982 -10.656  -9.524 -0.19 +0.02    +0.066 A 
DOCKED: ATOM      6  C   UNL d   1      -7.067 -10.147  -8.582 -0.31 -0.01    -0.021 A 
DOCKED: ATOM      7  C   UNL d   1      -7.287  -8.786  -8.508 -0.33 -0.01    -0.025 A 
DOCKED: ATOM      8  C   UNL d   1      -8.316  -8.520  -9.419 -0.20 +0.01    +0.066 A 
DOCKED: ATOM      9  C   UNL d   1      -6.566  -7.761  -7.618 +0.01 +0.00    +0.051 C 
DOCKED: ATOM     10  C   UNL d   1      -9.808  -6.898 -10.502 -0.14 +0.01    +0.066 A 
DOCKED: ATOM     11  C   UNL d   1     -10.234  -5.587 -10.809 -0.15 -0.00    -0.021 A 
DOCKED: ATOM     12  C   UNL d   1     -11.284  -5.719 -11.722 -0.09 +0.00    +0.000 A 
DOCKED: ATOM     13  C   UNL d   1     -11.412  -7.095 -11.914 -0.05 +0.01    +0.070 A 
DOCKED: ATOM     14  C   UNL d   1      -9.603  -4.307 -10.325 -0.30 +0.01    +0.052 C 
DOCKED: ATOM     15  C   UNL d   1     -12.688  -9.014 -12.950 -0.01 +0.01    +0.066 A 
DOCKED: ATOM     16  C   UNL d   1     -13.792  -9.495 -13.640 +0.00 -0.00    -0.021 A 
DOCKED: ATOM     17  C   UNL d   1     -13.672 -10.892 -13.622 +0.00 +0.00    +0.000 A 
DOCKED: ATOM     18  C   UNL d   1     -12.491 -11.153 -12.935 -0.00 +0.01    +0.070 A 
DOCKED: ATOM     19  C   UNL d   1     -14.876  -8.644 -14.263 +0.00 +0.00    +0.052 C 
DOCKED: ATOM     20  C   UNL d   1     -10.845 -12.747 -11.881 -0.04 +0.01    +0.066 A 
DOCKED: ATOM     21  C   UNL d   1     -10.438 -14.053 -11.619 -0.07 -0.00    -0.025 A 
DOCKED: ATOM     22  C   UNL d   1      -9.311 -13.941 -10.826 -0.09 -0.00    -0.021 A 
DOCKED: ATOM     23  C   UNL d   1      -9.090 -12.561 -10.633 -0.12 +0.02    +0.066 A 
DOCKED: ATOM     24  C   UNL d   1     -11.103 -15.347 -12.083 -0.04 +0.01    +0.051 C 
DOCKED: ATOM     25  N   UNL d   1      -8.761  -9.659 -10.067 -0.06 -0.06    -0.248 N 
DOCKED: ATOM     26  N   UNL d   1     -10.483  -7.803 -11.218 -0.05 -0.05    -0.248 N 
DOCKED: ATOM     27  N   UNL d   1     -11.948 -10.012 -12.523 -0.00 -0.03    -0.248 N 
DOCKED: ATOM     28  N   UNL d   1     -10.018 -11.835 -11.268 -0.04 -0.05    -0.248 N 
DOCKED: ATOM     29 FE   UNL d   1     -10.448  -9.850 -11.368 -0.02 +0.00    +0.000 Fe
DOCKED: ENDROOT
DOCKED: BRANCH   6  30
DOCKED: ATOM     30  C   UNL d   1      -6.087 -10.955  -7.738 -0.33 +0.02    +0.052 C 
DOCKED: BRANCH  30  31
DOCKED: ATOM     31  C   UNL d   1      -6.525 -10.971  -6.274 -0.33 +0.06    +0.115 C 
DOCKED: BRANCH  31  32
DOCKED: ATOM     32  C   UNL d   1      -6.308 -12.319  -5.621 -0.26 +0.13    +0.139 C 
DOCKED: ATOM     33  O   UNL d   1      -5.223 -12.872  -5.731 -0.39 -1.09    -0.650 OA
DOCKED: BRANCH  32  34
DOCKED: ATOM     34  O   UNL d   1      -7.264 -12.918  -4.874 -0.06 -0.57    -0.776 OA
DOCKED: ATOM     35  H   UNL d   1      -7.707 -13.742  -5.117 +0.04 +0.12    +0.167 HD
DOCKED: ENDBRANCH  32  34
DOCKED: ENDBRANCH  31  32
DOCKED: ENDBRANCH  30  31
DOCKED: ENDBRANCH   6  30
DOCKED: BRANCH  29  36
DOCKED: ATOM     36  C   UNL d   1     -11.624  -9.994  -9.638 -0.01 +0.02    +0.190 C 
DOCKED: BRANCH  36  37
DOCKED: ATOM     37  O   UNL d   1     -12.939 -10.176  -9.197 +0.00 -0.03    -0.399 OA
DOCKED: ATOM     38  H   UNL d   1     -13.466 -10.351 -10.026 +0.00 +0.02    +0.209 HD
DOCKED: ENDBRANCH  36  37
DOCKED: ENDBRANCH  29  36
DOCKED: BRANCH  22  39
DOCKED: ATOM     39  C   UNL d   1      -8.531 -15.101 -10.237 -0.12 +0.02    +0.052 C 
DOCKED: BRANCH  39  40
DOCKED: ATOM     40  C   UNL d   1      -8.684 -15.136  -8.707 -0.12 +0.06    +0.115 C 
DOCKED: BRANCH  40  41
DOCKED: ATOM     41  C   UNL d   1      -7.425 -15.525  -7.961 -0.06 +0.16    +0.139 C 
DOCKED: ATOM     42  O   UNL d   1      -6.573 -16.191  -8.533 -0.54 -1.04    -0.650 OA
DOCKED: BRANCH  41  43
DOCKED: ATOM     43  O   UNL d   1      -7.176 -15.083  -6.709 -0.19 -1.09    -0.776 OA
DOCKED: ATOM     44  H   UNL d   1      -6.751 -14.234  -6.533 +0.02 +0.27    +0.167 HD
DOCKED: ENDBRANCH  41  43
DOCKED: ENDBRANCH  40  41
DOCKED: ENDBRANCH  39  40
DOCKED: ENDBRANCH  22  39
DOCKED: BRANCH  12  45
DOCKED: ATOM     45  C   UNL d   1     -12.163  -4.708 -12.447 -0.06 +0.00    +0.004 C 
DOCKED: ATOM     46  C   UNL d   1     -12.016  -4.126 -13.634 -0.06 +0.00    +0.012 C 
DOCKED: ENDBRANCH  12  45
DOCKED: BRANCH  17  47
DOCKED: ATOM     47  C   UNL d   1     -14.599 -11.935 -14.153 +0.00 +0.00    +0.004 C 
DOCKED: ATOM     48  C   UNL d   1     -15.359 -12.711 -13.375 +0.00 +0.00    +0.012 C 
DOCKED: ENDBRANCH  17  47
DOCKED: TORSDOF 12
DOCKED: TER
DOCKED: ENDMDL
________________________________________________________________________________


	BEGINNING GENETIC ALGORITHM DOCKING 43 of 100
Run: 43 Seed: 1431162960 1457857309 [ Run 43 of 100 GA/GALS ]
Beginning LAMARCKIAN GENETIC ALGORITHM (LGA), with a maximum of 25000000 energy evaluations.

Final-Value: -11.321


	FINAL GENETIC ALGORITHM DOCKED STATE
	_______________________________________________


Detailed state:  trans 6.824 -2.028 16.164 quatxyzw -0.199346 -0.756985 -0.131856 -0.608152 center 8.781 34.984 -0.736 ntor 12 61.7481 53.1348 -123.8710 -81.2534 -85.7046 -108.5541 22.0541 65.1774 7.6094 -47.5055 -11.8663 13.1722
State:	  6.824  -2.028  16.164  -0.251 -0.954 -0.166 -105.088     61.75   53.13 -123.87  -81.25  -85.70 -108.55   22.05   65.18    7.61  -47.51  -11.87   13.17

DOCKED: MODEL       43
DOCKED: USER    Run = 43
DOCKED: USER    DPF = D:/Protein_go_brrr/autodock/final/mut_N102T/heme_Co/dock.dpf
DOCKED: USER  
DOCKED: USER    Estimated Free Energy of Binding    =   -5.50 kcal/mol  [=(1)+(2)+(3)-(4)]
DOCKED: USER    Estimated Inhibition Constant, Ki   =   93.46 uM (micromolar)  [Temperature = 298.15 K]
DOCKED: USER    
DOCKED: USER    (1) Final Intermolecular Energy     =   -9.08 kcal/mol
DOCKED: USER        vdW + Hbond + desolv Energy     =   -6.94 kcal/mol
DOCKED: USER        Electrostatic Energy            =   -2.13 kcal/mol
DOCKED: USER    (2) Final Total Internal Energy     =   -2.24 kcal/mol
DOCKED: USER    (3) Torsional Free Energy           =   +3.58 kcal/mol
DOCKED: USER    (4) Unbound System's Energy  [=(2)] =   -2.24 kcal/mol
DOCKED: USER    
DOCKED: USER    
DOCKED: USER    NEWDPF move heme_Co_opt.pdbqt
DOCKED: USER    NEWDPF about 8.781000 34.984000 -0.736000
DOCKED: USER    NEWDPF tran0 6.824247 -2.028043 16.163600
DOCKED: USER    NEWDPF quaternion0 -0.199346 -0.756985 -0.131856 -0.608152
DOCKED: USER    NEWDPF axisangle0 -0.251122 -0.953597 -0.166104 -105.087943
DOCKED: USER    NEWDPF quat0 -0.251122 -0.953597 -0.166104 -105.087943
DOCKED: USER    NEWDPF dihe0 61.75 53.13 -123.87 -81.25 -85.70 -108.55 22.05 65.18 7.61 -47.51 -11.87 13.17 
DOCKED: USER  keepresnum = 1 
DOCKED: USER  
DOCKED: REMARK  12 active torsions:
DOCKED: REMARK  status: ('A' for Active; 'I' for Inactive)
DOCKED: REMARK    1  A    between atoms: C_6  and  C_10 
DOCKED: REMARK    2  A    between atoms: C_10  and  C_11 
DOCKED: REMARK    3  A    between atoms: C_11  and  C_12 
DOCKED: REMARK    4  A    between atoms: C_12  and  O_14 
DOCKED: REMARK    5  A    between atoms: C_17  and  C_20 
DOCKED: REMARK    6  A    between atoms: C_24  and  C_27 
DOCKED: REMARK    7  A    between atoms: C_31  and  C_34 
DOCKED: REMARK    8  A    between atoms: C_34  and  C_35 
DOCKED: REMARK    9  A    between atoms: C_35  and  C_36 
DOCKED: REMARK   10  A    between atoms: C_36  and  O_38 
DOCKED: REMARK   11  A    between atoms: FE_43  and  C_44 
DOCKED: REMARK   12  A    between atoms: C_44  and  O_45 
DOCKED: USER                              x       y       z     vdW  Elec       q    Type
DOCKED: USER                           _______ _______ _______ _____ _____    ______ ____
DOCKED: ROOT
DOCKED: ATOM      1  C   UNL d   1       8.143  -2.235  14.451 -0.10 +0.01    +0.064 A 
DOCKED: ATOM      2  C   UNL d   1       3.443  -2.762  14.948 -0.15 -0.02    +0.064 C 
DOCKED: ATOM      3  C   UNL d   1       3.825  -2.067  19.659 -0.09 -0.02    +0.064 A 
DOCKED: ATOM      4  C   UNL d   1       8.571  -1.143  19.124 -0.07 +0.01    +0.064 A 
DOCKED: ATOM      5  C   UNL d   1       6.835  -2.467  14.245 -0.15 +0.00    +0.066 A 
DOCKED: ATOM      6  C   UNL d   1       6.303  -2.649  12.954 -0.24 -0.00    -0.021 A 
DOCKED: ATOM      7  C   UNL d   1       4.936  -2.779  13.103 -0.28 +0.00    -0.025 A 
DOCKED: ATOM      8  C   UNL d   1       4.695  -2.686  14.478 -0.21 -0.01    +0.066 A 
DOCKED: ATOM      9  C   UNL d   1       3.883  -2.982  12.002 -0.43 -0.00    +0.051 C 
DOCKED: ATOM     10  C   UNL d   1       3.101  -2.704  16.347 -0.28 -0.02    +0.066 A 
DOCKED: ATOM     11  C   UNL d   1       1.826  -2.917  16.914 -0.35 +0.01    -0.021 A 
DOCKED: ATOM     12  C   UNL d   1       1.967  -2.712  18.289 -0.21 -0.00    +0.000 A 
DOCKED: ATOM     13  C   UNL d   1       3.316  -2.402  18.461 -0.12 -0.02    +0.070 A 
DOCKED: ATOM     14  C   UNL d   1       0.591  -3.380  16.183 -0.26 -0.02    +0.052 C 
DOCKED: ATOM     15  C   UNL d   1       5.176  -1.670  20.006 -0.07 -0.01    +0.066 A 
DOCKED: ATOM     16  C   UNL d   1       5.603  -1.195  21.238 -0.06 +0.00    -0.021 A 
DOCKED: ATOM     17  C   UNL d   1       6.971  -0.925  21.089 -0.07 -0.00    +0.000 A 
DOCKED: ATOM     18  C   UNL d   1       7.274  -1.273  19.777 -0.07 +0.00    +0.070 A 
DOCKED: ATOM     19  C   UNL d   1       4.731  -1.022  22.462 -0.07 -0.02    +0.052 C 
DOCKED: ATOM     20  C   UNL d   1       8.871  -1.393  17.827 -0.06 +0.01    +0.066 A 
DOCKED: ATOM     21  C   UNL d   1      10.148  -1.195  17.307 -0.07 -0.01    -0.025 A 
DOCKED: ATOM     22  C   UNL d   1      10.061  -1.530  15.968 -0.06 -0.00    -0.021 A 
DOCKED: ATOM     23  C   UNL d   1       8.722  -1.907  15.733 -0.08 +0.01    +0.066 A 
DOCKED: ATOM     24  C   UNL d   1      11.386  -0.692  18.045 -0.05 +0.01    +0.051 C 
DOCKED: ATOM     25  N   UNL d   1       5.854  -2.498  15.210 -0.11 +0.01    -0.248 N 
DOCKED: ATOM     26  N   UNL d   1       4.012  -2.452  17.293 -0.09 +0.05    -0.248 N 
DOCKED: ATOM     27  N   UNL d   1       6.176  -1.684  19.153 -0.04 +0.02    -0.248 N 
DOCKED: ATOM     28  N   UNL d   1       7.997  -1.823  16.855 -0.06 -0.04    -0.248 N 
DOCKED: ATOM     29 FE   UNL d   1       6.028  -2.067  17.298 -0.03 -0.00    +0.000 Fe
DOCKED: ENDROOT
DOCKED: BRANCH   6  30
DOCKED: ATOM     30  C   UNL d   1       7.073  -2.616  11.639 -0.25 +0.01    +0.052 C 
DOCKED: BRANCH  30  31
DOCKED: ATOM     31  C   UNL d   1       7.934  -3.870  11.489 -0.20 +0.04    +0.115 C 
DOCKED: BRANCH  31  32
DOCKED: ATOM     32  C   UNL d   1       8.822  -3.818  10.265 -0.16 +0.14    +0.139 C 
DOCKED: ATOM     33  O   UNL d   1       8.560  -4.523   9.302 -0.29 -0.73    -0.650 OA
DOCKED: BRANCH  32  34
DOCKED: ATOM     34  O   UNL d   1       9.878  -2.976  10.180 -0.44 -1.13    -0.776 OA
DOCKED: ATOM     35  H   UNL d   1      10.614  -2.961  10.807 +0.03 +0.20    +0.167 HD
DOCKED: ENDBRANCH  32  34
DOCKED: ENDBRANCH  31  32
DOCKED: ENDBRANCH  30  31
DOCKED: ENDBRANCH   6  30
DOCKED: BRANCH  29  36
DOCKED: ATOM     36  C   UNL d   1       5.645  -0.067  16.802 -0.12 -0.01    +0.190 C 
DOCKED: BRANCH  36  37
DOCKED: ATOM     37  O   UNL d   1       4.625   0.888  16.729 -0.90 -0.01    -0.399 OA
DOCKED: ATOM     38  H   UNL d   1       3.966   0.510  16.082 -0.21 -0.07    +0.209 HD
DOCKED: ENDBRANCH  36  37
DOCKED: ENDBRANCH  29  36
DOCKED: BRANCH  22  39
DOCKED: ATOM     39  C   UNL d   1      11.192  -1.428  14.961 -0.03 +0.01    +0.052 C 
DOCKED: BRANCH  39  40
DOCKED: ATOM     40  C   UNL d   1      11.593  -2.822  14.452 -0.00 +0.03    +0.115 C 
DOCKED: BRANCH  40  41
DOCKED: ATOM     41  C   UNL d   1      11.598  -2.959  12.944 -0.02 +0.06    +0.139 C 
DOCKED: ATOM     42  O   UNL d   1      11.474  -4.068  12.443 +0.02 -0.35    -0.650 OA
DOCKED: BRANCH  41  43
DOCKED: ATOM     43  O   UNL d   1      11.648  -1.879  12.133 +0.06 -0.37    -0.776 OA
DOCKED: ATOM     44  H   UNL d   1      10.938  -1.660  11.516 +0.04 +0.10    +0.167 HD
DOCKED: ENDBRANCH  41  43
DOCKED: ENDBRANCH  40  41
DOCKED: ENDBRANCH  39  40
DOCKED: ENDBRANCH  22  39
DOCKED: BRANCH  12  45
DOCKED: ATOM     45  C   UNL d   1       0.992  -2.792  19.456 -0.17 -0.00    +0.004 C 
DOCKED: ATOM     46  C   UNL d   1       0.209  -1.861  19.995 -0.21 -0.01    +0.012 C 
DOCKED: ENDBRANCH  12  45
DOCKED: BRANCH  17  47
DOCKED: ATOM     47  C   UNL d   1       7.939  -0.336  22.061 -0.05 -0.00    +0.004 C 
DOCKED: ATOM     48  C   UNL d   1       8.424   0.904  21.960 -0.08 +0.00    +0.012 C 
DOCKED: ENDBRANCH  17  47
DOCKED: TORSDOF 12
DOCKED: TER
DOCKED: ENDMDL
________________________________________________________________________________


	BEGINNING GENETIC ALGORITHM DOCKING 44 of 100
Run: 44 Seed: 1811482843 1384216636 [ Run 44 of 100 GA/GALS ]
Beginning LAMARCKIAN GENETIC ALGORITHM (LGA), with a maximum of 25000000 energy evaluations.

Final-Value: -9.933


	FINAL GENETIC ALGORITHM DOCKED STATE
	_______________________________________________


Detailed state:  trans -5.291 16.447 -19.104 quatxyzw -0.355176 0.637211 -0.309613 0.609878 center 8.781 34.984 -0.736 ntor 12 99.7461 91.6625 -42.8269 -117.3350 -82.1629 -180.0000 -144.3581 -129.2951 139.8917 129.0280 12.0562 33.9682
State:	 -5.291  16.447 -19.104  -0.448  0.804 -0.391 104.839     99.75   91.66  -42.83 -117.34  -82.16 -180.00 -144.36 -129.30  139.89  129.03   12.06   33.97

DOCKED: MODEL       44
DOCKED: USER    Run = 44
DOCKED: USER    DPF = D:/Protein_go_brrr/autodock/final/mut_N102T/heme_Co/dock.dpf
DOCKED: USER  
DOCKED: USER    Estimated Free Energy of Binding    =   -4.59 kcal/mol  [=(1)+(2)+(3)-(4)]
DOCKED: USER    Estimated Inhibition Constant, Ki   =  429.15 uM (micromolar)  [Temperature = 298.15 K]
DOCKED: USER    
DOCKED: USER    (1) Final Intermolecular Energy     =   -8.17 kcal/mol
DOCKED: USER        vdW + Hbond + desolv Energy     =   -5.39 kcal/mol
DOCKED: USER        Electrostatic Energy            =   -2.78 kcal/mol
DOCKED: USER    (2) Final Total Internal Energy     =   -1.76 kcal/mol
DOCKED: USER    (3) Torsional Free Energy           =   +3.58 kcal/mol
DOCKED: USER    (4) Unbound System's Energy  [=(2)] =   -1.76 kcal/mol
DOCKED: USER    
DOCKED: USER    
DOCKED: USER    NEWDPF move heme_Co_opt.pdbqt
DOCKED: USER    NEWDPF about 8.781000 34.984000 -0.736000
DOCKED: USER    NEWDPF tran0 -5.291474 16.447142 -19.104451
DOCKED: USER    NEWDPF quaternion0 -0.355176 0.637211 -0.309613 0.609878
DOCKED: USER    NEWDPF axisangle0 -0.448175 0.804057 -0.390681 104.838599
DOCKED: USER    NEWDPF quat0 -0.448175 0.804057 -0.390681 104.838599
DOCKED: USER    NEWDPF dihe0 99.75 91.66 -42.83 -117.34 -82.16 -180.00 -144.36 -129.30 139.89 129.03 12.06 33.97 
DOCKED: USER  keepresnum = 1 
DOCKED: USER  
DOCKED: REMARK  12 active torsions:
DOCKED: REMARK  status: ('A' for Active; 'I' for Inactive)
DOCKED: REMARK    1  A    between atoms: C_6  and  C_10 
DOCKED: REMARK    2  A    between atoms: C_10  and  C_11 
DOCKED: REMARK    3  A    between atoms: C_11  and  C_12 
DOCKED: REMARK    4  A    between atoms: C_12  and  O_14 
DOCKED: REMARK    5  A    between atoms: C_17  and  C_20 
DOCKED: REMARK    6  A    between atoms: C_24  and  C_27 
DOCKED: REMARK    7  A    between atoms: C_31  and  C_34 
DOCKED: REMARK    8  A    between atoms: C_34  and  C_35 
DOCKED: REMARK    9  A    between atoms: C_35  and  C_36 
DOCKED: REMARK   10  A    between atoms: C_36  and  O_38 
DOCKED: REMARK   11  A    between atoms: FE_43  and  C_44 
DOCKED: REMARK   12  A    between atoms: C_44  and  O_45 
DOCKED: USER                              x       y       z     vdW  Elec       q    Type
DOCKED: USER                           _______ _______ _______ _____ _____    ______ ____
DOCKED: ROOT
DOCKED: ATOM      1  C   UNL d   1      -5.225  17.573 -20.960 -0.07 +0.05    +0.064 A 
DOCKED: ATOM      2  C   UNL d   1      -5.102  12.908 -20.048 -0.16 +0.01    +0.064 C 
DOCKED: ATOM      3  C   UNL d   1      -5.005  13.790 -15.353 -0.17 +0.00    +0.064 A 
DOCKED: ATOM      4  C   UNL d   1      -5.519  18.544 -16.249 -0.03 +0.01    +0.064 A 
DOCKED: ATOM      5  C   UNL d   1      -5.162  16.235 -21.056 -0.09 +0.04    +0.066 A 
DOCKED: ATOM      6  C   UNL d   1      -5.239  15.571 -22.296 -0.07 -0.01    -0.021 A 
DOCKED: ATOM      7  C   UNL d   1      -5.226  14.217 -22.024 -0.06 -0.01    -0.025 A 
DOCKED: ATOM      8  C   UNL d   1      -5.125  14.113 -20.632 -0.12 +0.02    +0.066 A 
DOCKED: ATOM      9  C   UNL d   1      -5.306  13.053 -23.024 -0.03 +0.01    +0.051 C 
DOCKED: ATOM     10  C   UNL d   1      -4.974  12.703 -18.627 -0.20 +0.01    +0.066 A 
DOCKED: ATOM     11  C   UNL d   1      -4.803  11.467 -17.965 -0.34 -0.00    -0.021 A 
DOCKED: ATOM     12  C   UNL d   1      -4.774  11.754 -16.597 -0.36 -0.00    +0.000 A 
DOCKED: ATOM     13  C   UNL d   1      -4.916  13.140 -16.527 -0.21 +0.01    +0.070 A 
DOCKED: ATOM     14  C   UNL d   1      -4.588  10.127 -18.619 -0.35 +0.00    +0.052 C 
DOCKED: ATOM     15  C   UNL d   1      -5.204  15.203 -15.097 -0.08 +0.01    +0.066 A 
DOCKED: ATOM     16  C   UNL d   1      -5.433  15.792 -13.861 -0.04 -0.00    -0.021 A 
DOCKED: ATOM     17  C   UNL d   1      -5.585  17.162 -14.115 -0.02 +0.00    +0.000 A 
DOCKED: ATOM     18  C   UNL d   1      -5.418  17.305 -15.488 -0.04 +0.01    +0.070 A 
DOCKED: ATOM     19  C   UNL d   1      -5.499  15.059 -12.540 -0.05 +0.00    +0.052 C 
DOCKED: ATOM     20  C   UNL d   1      -5.447  18.694 -17.593 -0.05 +0.03    +0.066 A 
DOCKED: ATOM     21  C   UNL d   1      -5.595  19.934 -18.212 -0.03 -0.01    -0.025 A 
DOCKED: ATOM     22  C   UNL d   1      -5.486  19.690 -19.568 -0.05 -0.01    -0.021 A 
DOCKED: ATOM     23  C   UNL d   1      -5.287  18.300 -19.712 -0.07 +0.05    +0.066 A 
DOCKED: ATOM     24  C   UNL d   1      -5.848  21.283 -17.544 -0.01 +0.01    +0.051 C 
DOCKED: ATOM     25  N   UNL d   1      -5.077  15.348 -20.008 -0.09 -0.13    -0.248 N 
DOCKED: ATOM     26  N   UNL d   1      -4.980  13.718 -17.756 -0.13 -0.05    -0.248 N 
DOCKED: ATOM     27  N   UNL d   1      -5.224  16.114 -16.045 -0.05 -0.05    -0.248 N 
DOCKED: ATOM     28  N   UNL d   1      -5.265  17.694 -18.519 -0.07 -0.14    -0.248 N 
DOCKED: ATOM     29 FE   UNL d   1      -5.155  15.757 -17.909 -0.03 +0.00    +0.000 Fe
DOCKED: ENDROOT
DOCKED: BRANCH   6  30
DOCKED: ATOM     30  C   UNL d   1      -5.401  16.219 -23.667 -0.02 +0.02    +0.052 C 
DOCKED: BRANCH  30  31
DOCKED: ATOM     31  C   UNL d   1      -4.043  16.381 -24.348 -0.03 +0.04    +0.115 C 
DOCKED: BRANCH  31  32
DOCKED: ATOM     32  C   UNL d   1      -2.971  16.858 -23.392 -0.06 +0.13    +0.139 C 
DOCKED: ATOM     33  O   UNL d   1      -2.356  16.041 -22.723 -0.52 -0.76    -0.650 OA
DOCKED: BRANCH  32  34
DOCKED: ATOM     34  O   UNL d   1      -2.633  18.164 -23.286 -0.32 -0.99    -0.776 OA
DOCKED: ATOM     35  H   UNL d   1      -2.994  18.767 -22.621 +0.00 +0.27    +0.167 HD
DOCKED: ENDBRANCH  32  34
DOCKED: ENDBRANCH  31  32
DOCKED: ENDBRANCH  30  31
DOCKED: ENDBRANCH   6  30
DOCKED: BRANCH  29  36
DOCKED: ATOM     36  C   UNL d   1      -7.237  15.565 -18.063 -0.02 +0.03    +0.190 C 
DOCKED: BRANCH  36  37
DOCKED: ATOM     37  O   UNL d   1      -8.247  14.968 -18.823 +0.00 -0.04    -0.399 OA
DOCKED: ATOM     38  H   UNL d   1      -7.824  14.774 -19.706 +0.01 +0.03    +0.209 HD
DOCKED: ENDBRANCH  36  37
DOCKED: ENDBRANCH  29  36
DOCKED: BRANCH  22  39
DOCKED: ATOM     39  C   UNL d   1      -5.631  20.729 -20.664 -0.02 +0.02    +0.052 C 
DOCKED: BRANCH  39  40
DOCKED: ATOM     40  C   UNL d   1      -4.524  20.564 -21.719 -0.04 +0.07    +0.115 C 
DOCKED: BRANCH  40  41
DOCKED: ATOM     41  C   UNL d   1      -3.117  20.629 -21.164 +0.14 +0.17    +0.139 C 
DOCKED: ATOM     42  O   UNL d   1      -2.952  20.638 -19.952 -0.58 -0.89    -0.650 OA
DOCKED: BRANCH  41  43
DOCKED: ATOM     43  O   UNL d   1      -2.033  20.590 -21.970 -0.08 -0.91    -0.776 OA
DOCKED: ATOM     44  H   UNL d   1      -1.999  20.047 -22.769 +0.00 +0.18    +0.167 HD
DOCKED: ENDBRANCH  41  43
DOCKED: ENDBRANCH  40  41
DOCKED: ENDBRANCH  39  40
DOCKED: ENDBRANCH  22  39
DOCKED: BRANCH  12  45
DOCKED: ATOM     45  C   UNL d   1      -4.610  10.886 -15.357 -0.42 -0.00    +0.004 C 
DOCKED: ATOM     46  C   UNL d   1      -5.371  10.774 -14.272 -0.35 -0.00    +0.012 C 
DOCKED: ENDBRANCH  12  45
DOCKED: BRANCH  17  47
DOCKED: ATOM     47  C   UNL d   1      -5.912  18.276 -13.175 -0.01 +0.00    +0.004 C 
DOCKED: ATOM     48  C   UNL d   1      -7.117  18.845 -13.097 -0.00 +0.00    +0.012 C 
DOCKED: ENDBRANCH  17  47
DOCKED: TORSDOF 12
DOCKED: TER
DOCKED: ENDMDL
________________________________________________________________________________


	BEGINNING GENETIC ALGORITHM DOCKING 45 of 100
Run: 45 Seed: 688487142 1278954279 [ Run 45 of 100 GA/GALS ]
Beginning LAMARCKIAN GENETIC ALGORITHM (LGA), with a maximum of 25000000 energy evaluations.

Final-Value: -9.233


	FINAL GENETIC ALGORITHM DOCKED STATE
	_______________________________________________


Detailed state:  trans -6.009 11.378 -12.896 quatxyzw 0.236893 0.240919 -0.344772 0.875769 center 8.781 34.984 -0.736 ntor 12 -145.3823 97.2336 -134.7697 24.2392 135.6888 130.7654 47.3162 104.9984 144.6712 17.2704 -146.8986 -36.7416
State:	 -6.009  11.378 -12.896   0.491  0.499 -0.714 57.728   -145.38   97.23 -134.77   24.24  135.69  130.77   47.32  105.00  144.67   17.27 -146.90  -36.74

DOCKED: MODEL       45
DOCKED: USER    Run = 45
DOCKED: USER    DPF = D:/Protein_go_brrr/autodock/final/mut_N102T/heme_Co/dock.dpf
DOCKED: USER  
DOCKED: USER    Estimated Free Energy of Binding    =   -3.47 kcal/mol  [=(1)+(2)+(3)-(4)]
DOCKED: USER    Estimated Inhibition Constant, Ki   =    2.85 mM (millimolar)  [Temperature = 298.15 K]
DOCKED: USER    
DOCKED: USER    (1) Final Intermolecular Energy     =   -7.05 kcal/mol
DOCKED: USER        vdW + Hbond + desolv Energy     =   -6.94 kcal/mol
DOCKED: USER        Electrostatic Energy            =   -0.11 kcal/mol
DOCKED: USER    (2) Final Total Internal Energy     =   -2.18 kcal/mol
DOCKED: USER    (3) Torsional Free Energy           =   +3.58 kcal/mol
DOCKED: USER    (4) Unbound System's Energy  [=(2)] =   -2.18 kcal/mol
DOCKED: USER    
DOCKED: USER    
DOCKED: USER    NEWDPF move heme_Co_opt.pdbqt
DOCKED: USER    NEWDPF about 8.781000 34.984000 -0.736000
DOCKED: USER    NEWDPF tran0 -6.008844 11.378069 -12.895779
DOCKED: USER    NEWDPF quaternion0 0.236893 0.240919 -0.344772 0.875769
DOCKED: USER    NEWDPF axisangle0 0.490736 0.499076 -0.714214 57.727659
DOCKED: USER    NEWDPF quat0 0.490736 0.499076 -0.714214 57.727659
DOCKED: USER    NEWDPF dihe0 -145.38 97.23 -134.77 24.24 135.69 130.77 47.32 105.00 144.67 17.27 -146.90 -36.74 
DOCKED: USER  keepresnum = 1 
DOCKED: USER  
DOCKED: REMARK  12 active torsions:
DOCKED: REMARK  status: ('A' for Active; 'I' for Inactive)
DOCKED: REMARK    1  A    between atoms: C_6  and  C_10 
DOCKED: REMARK    2  A    between atoms: C_10  and  C_11 
DOCKED: REMARK    3  A    between atoms: C_11  and  C_12 
DOCKED: REMARK    4  A    between atoms: C_12  and  O_14 
DOCKED: REMARK    5  A    between atoms: C_17  and  C_20 
DOCKED: REMARK    6  A    between atoms: C_24  and  C_27 
DOCKED: REMARK    7  A    between atoms: C_31  and  C_34 
DOCKED: REMARK    8  A    between atoms: C_34  and  C_35 
DOCKED: REMARK    9  A    between atoms: C_35  and  C_36 
DOCKED: REMARK   10  A    between atoms: C_36  and  O_38 
DOCKED: REMARK   11  A    between atoms: FE_43  and  C_44 
DOCKED: REMARK   12  A    between atoms: C_44  and  O_45 
DOCKED: USER                              x       y       z     vdW  Elec       q    Type
DOCKED: USER                           _______ _______ _______ _____ _____    ______ ____
DOCKED: ROOT
DOCKED: ATOM      1  C   UNL d   1      -7.006  10.102 -14.342 -0.21 -0.01    +0.064 A 
DOCKED: ATOM      2  C   UNL d   1      -7.076  10.206  -9.589 -0.15 -0.00    +0.064 C 
DOCKED: ATOM      3  C   UNL d   1      -3.747  13.633  -9.577 -0.22 -0.01    +0.064 A 
DOCKED: ATOM      4  C   UNL d   1      -3.938  13.816 -14.435 -0.17 +0.00    +0.064 A 
DOCKED: ATOM      5  C   UNL d   1      -7.243   9.853 -13.044 -0.18 -0.01    +0.066 A 
DOCKED: ATOM      6  C   UNL d   1      -8.231   8.939 -12.626 -0.12 +0.00    -0.021 A 
DOCKED: ATOM      7  C   UNL d   1      -8.262   8.990 -11.246 -0.07 +0.00    -0.025 A 
DOCKED: ATOM      8  C   UNL d   1      -7.283   9.920 -10.880 -0.15 -0.01    +0.066 A 
DOCKED: ATOM      9  C   UNL d   1      -9.175   8.201 -10.295 +0.02 -0.00    +0.051 C 
DOCKED: ATOM     10  C   UNL d   1      -6.073  11.128  -9.116 -0.11 -0.00    +0.066 A 
DOCKED: ATOM     11  C   UNL d   1      -5.712  11.366  -7.772 -0.21 +0.00    -0.021 A 
DOCKED: ATOM     12  C   UNL d   1      -4.737  12.367  -7.799 -0.27 -0.00    +0.000 A 
DOCKED: ATOM     13  C   UNL d   1      -4.567  12.655  -9.153 -0.21 -0.00    +0.070 A 
DOCKED: ATOM     14  C   UNL d   1      -6.209  10.609  -6.568 -0.22 +0.00    +0.052 C 
DOCKED: ATOM     15  C   UNL d   1      -3.492  14.098 -10.926 -0.22 -0.01    +0.066 A 
DOCKED: ATOM     16  C   UNL d   1      -2.743  15.210 -11.286 -0.20 +0.00    -0.021 A 
DOCKED: ATOM     17  C   UNL d   1      -2.797  15.268 -12.686 -0.14 +0.00    +0.000 A 
DOCKED: ATOM     18  C   UNL d   1      -3.563  14.174 -13.072 -0.13 +0.00    +0.070 A 
DOCKED: ATOM     19  C   UNL d   1      -2.034  16.138 -10.325 -0.22 -0.00    +0.052 C 
DOCKED: ATOM     20  C   UNL d   1      -4.752  12.808 -14.828 -0.21 -0.00    +0.066 A 
DOCKED: ATOM     21  C   UNL d   1      -5.067  12.586 -16.167 -0.25 -0.00    -0.025 A 
DOCKED: ATOM     22  C   UNL d   1      -5.927  11.503 -16.174 -0.23 +0.00    -0.021 A 
DOCKED: ATOM     23  C   UNL d   1      -6.105  11.123 -14.826 -0.20 -0.01    +0.066 A 
DOCKED: ATOM     24  C   UNL d   1      -4.588  13.379 -17.380 -0.25 +0.01    +0.051 C 
DOCKED: ATOM     25  N   UNL d   1      -6.631  10.466 -11.974 -0.08 +0.03    -0.248 N 
DOCKED: ATOM     26  N   UNL d   1      -5.334  11.866  -9.951 -0.09 +0.01    -0.248 N 
DOCKED: ATOM     27  N   UNL d   1      -3.985  13.517 -11.997 -0.14 +0.02    -0.248 N 
DOCKED: ATOM     28  N   UNL d   1      -5.398  11.911 -14.009 -0.11 +0.03    -0.248 N 
DOCKED: ATOM     29 FE   UNL d   1      -5.229  12.081 -11.990 -0.04 -0.00    +0.000 Fe
DOCKED: ENDROOT
DOCKED: BRANCH   6  30
DOCKED: ATOM     30  C   UNL d   1      -9.152   8.122 -13.525 -0.24 -0.01    +0.052 C 
DOCKED: BRANCH  30  31
DOCKED: ATOM     31  C   UNL d   1     -10.053   9.041 -14.349 -0.13 -0.00    +0.115 C 
DOCKED: BRANCH  31  32
DOCKED: ATOM     32  C   UNL d   1     -10.503  10.258 -13.570 -0.04 -0.00    +0.139 C 
DOCKED: ATOM     33  O   UNL d   1     -11.455  10.167 -12.810 +0.01 +0.01    -0.650 OA
DOCKED: BRANCH  32  34
DOCKED: ATOM     34  O   UNL d   1      -9.852  11.442 -13.650 +0.02 +0.01    -0.776 OA
DOCKED: ATOM     35  H   UNL d   1      -9.801  12.085 -12.929 +0.01 -0.00    +0.167 HD
DOCKED: ENDBRANCH  32  34
DOCKED: ENDBRANCH  31  32
DOCKED: ENDBRANCH  30  31
DOCKED: ENDBRANCH   6  30
DOCKED: BRANCH  29  36
DOCKED: ATOM     36  C   UNL d   1      -6.883  13.368 -11.937 -0.02 -0.00    +0.190 C 
DOCKED: BRANCH  36  37
DOCKED: ATOM     37  O   UNL d   1      -8.245  13.447 -12.248 +0.00 +0.00    -0.399 OA
DOCKED: ATOM     38  H   UNL d   1      -8.413  12.675 -12.858 +0.01 -0.00    +0.209 HD
DOCKED: ENDBRANCH  36  37
DOCKED: ENDBRANCH  29  36
DOCKED: BRANCH  22  39
DOCKED: ATOM     39  C   UNL d   1      -6.589  10.913 -17.404 -0.23 +0.00    +0.052 C 
DOCKED: BRANCH  39  40
DOCKED: ATOM     40  C   UNL d   1      -5.537  10.318 -18.354 -0.32 +0.01    +0.115 C 
DOCKED: BRANCH  40  41
DOCKED: ATOM     41  C   UNL d   1      -6.066   9.958 -19.726 -0.21 +0.02    +0.139 C 
DOCKED: ATOM     42  O   UNL d   1      -6.050   8.789 -20.087 -0.04 -0.13    -0.650 OA
DOCKED: BRANCH  41  43
DOCKED: ATOM     43  O   UNL d   1      -6.637  10.881 -20.532 +0.06 -0.07    -0.776 OA
DOCKED: ATOM     44  H   UNL d   1      -7.503  10.750 -20.940 +0.03 +0.01    +0.167 HD
DOCKED: ENDBRANCH  41  43
DOCKED: ENDBRANCH  40  41
DOCKED: ENDBRANCH  39  40
DOCKED: ENDBRANCH  22  39
DOCKED: BRANCH  12  45
DOCKED: ATOM     45  C   UNL d   1      -3.937  13.066  -6.707 -0.35 +0.00    +0.004 C 
DOCKED: ATOM     46  C   UNL d   1      -3.739  12.738  -5.433 -0.34 +0.00    +0.012 C 
DOCKED: ENDBRANCH  12  45
DOCKED: BRANCH  17  47
DOCKED: ATOM     47  C   UNL d   1      -2.230  16.286 -13.621 -0.17 +0.00    +0.004 C 
DOCKED: ATOM     48  C   UNL d   1      -1.255  16.023 -14.494 -0.22 +0.00    +0.012 C 
DOCKED: ENDBRANCH  17  47
DOCKED: TORSDOF 12
DOCKED: TER
DOCKED: ENDMDL
________________________________________________________________________________


	BEGINNING GENETIC ALGORITHM DOCKING 46 of 100
Run: 46 Seed: 1356683974 707294384 [ Run 46 of 100 GA/GALS ]
Beginning LAMARCKIAN GENETIC ALGORITHM (LGA), with a maximum of 25000000 energy evaluations.

Final-Value: -9.588


	FINAL GENETIC ALGORITHM DOCKED STATE
	_______________________________________________


Detailed state:  trans 13.267 2.917 15.884 quatxyzw -0.716610 -0.485936 0.303403 0.397847 center 8.781 34.984 -0.736 ntor 12 -155.8067 108.7970 -37.4768 -82.3499 121.8545 130.7269 52.0259 -28.5430 153.2829 -162.9498 -152.1898 -4.5604
State:	 13.267   2.917  15.884  -0.781 -0.530  0.331 133.113   -155.81  108.80  -37.48  -82.35  121.85  130.73   52.03  -28.54  153.28 -162.95 -152.19   -4.56

DOCKED: MODEL       46
DOCKED: USER    Run = 46
DOCKED: USER    DPF = D:/Protein_go_brrr/autodock/final/mut_N102T/heme_Co/dock.dpf
DOCKED: USER  
DOCKED: USER    Estimated Free Energy of Binding    =   -3.70 kcal/mol  [=(1)+(2)+(3)-(4)]
DOCKED: USER    Estimated Inhibition Constant, Ki   =    1.94 mM (millimolar)  [Temperature = 298.15 K]
DOCKED: USER    
DOCKED: USER    (1) Final Intermolecular Energy     =   -7.28 kcal/mol
DOCKED: USER        vdW + Hbond + desolv Energy     =   -5.40 kcal/mol
DOCKED: USER        Electrostatic Energy            =   -1.88 kcal/mol
DOCKED: USER    (2) Final Total Internal Energy     =   -2.31 kcal/mol
DOCKED: USER    (3) Torsional Free Energy           =   +3.58 kcal/mol
DOCKED: USER    (4) Unbound System's Energy  [=(2)] =   -2.31 kcal/mol
DOCKED: USER    
DOCKED: USER    
DOCKED: USER    NEWDPF move heme_Co_opt.pdbqt
DOCKED: USER    NEWDPF about 8.781000 34.984000 -0.736000
DOCKED: USER    NEWDPF tran0 13.267334 2.917101 15.883920
DOCKED: USER    NEWDPF quaternion0 -0.716610 -0.485936 0.303403 0.397847
DOCKED: USER    NEWDPF axisangle0 -0.781088 -0.529658 0.330702 133.112741
DOCKED: USER    NEWDPF quat0 -0.781088 -0.529658 0.330702 133.112741
DOCKED: USER    NEWDPF dihe0 -155.81 108.80 -37.48 -82.35 121.85 130.73 52.03 -28.54 153.28 -162.95 -152.19 -4.56 
DOCKED: USER  keepresnum = 1 
DOCKED: USER  
DOCKED: REMARK  12 active torsions:
DOCKED: REMARK  status: ('A' for Active; 'I' for Inactive)
DOCKED: REMARK    1  A    between atoms: C_6  and  C_10 
DOCKED: REMARK    2  A    between atoms: C_10  and  C_11 
DOCKED: REMARK    3  A    between atoms: C_11  and  C_12 
DOCKED: REMARK    4  A    between atoms: C_12  and  O_14 
DOCKED: REMARK    5  A    between atoms: C_17  and  C_20 
DOCKED: REMARK    6  A    between atoms: C_24  and  C_27 
DOCKED: REMARK    7  A    between atoms: C_31  and  C_34 
DOCKED: REMARK    8  A    between atoms: C_34  and  C_35 
DOCKED: REMARK    9  A    between atoms: C_35  and  C_36 
DOCKED: REMARK   10  A    between atoms: C_36  and  O_38 
DOCKED: REMARK   11  A    between atoms: FE_43  and  C_44 
DOCKED: REMARK   12  A    between atoms: C_44  and  O_45 
DOCKED: USER                              x       y       z     vdW  Elec       q    Type
DOCKED: USER                           _______ _______ _______ _____ _____    ______ ____
DOCKED: ROOT
DOCKED: ATOM      1  C   UNL d   1      13.111   2.667  18.035 -0.10 +0.04    +0.064 A 
DOCKED: ATOM      2  C   UNL d   1      10.869   0.570  14.404 -0.18 +0.02    +0.064 C 
DOCKED: ATOM      3  C   UNL d   1      13.062   3.486  11.318 -0.26 +0.02    +0.064 A 
DOCKED: ATOM      4  C   UNL d   1      15.652   5.383  14.972 -0.08 +0.03    +0.064 A 
DOCKED: ATOM      5  C   UNL d   1      12.310   1.904  17.273 -0.13 +0.04    +0.066 A 
DOCKED: ATOM      6  C   UNL d   1      11.539   0.857  17.814 -0.11 -0.01    -0.021 A 
DOCKED: ATOM      7  C   UNL d   1      10.909   0.237  16.753 -0.10 -0.01    -0.025 A 
DOCKED: ATOM      8  C   UNL d   1      11.308   0.942  15.613 -0.15 +0.02    +0.066 A 
DOCKED: ATOM      9  C   UNL d   1       9.964  -0.974  16.795 -0.08 +0.01    +0.051 C 
DOCKED: ATOM     10  C   UNL d   1      11.205   1.251  13.178 -0.18 +0.02    +0.066 A 
DOCKED: ATOM     11  C   UNL d   1      10.668   0.997  11.897 -0.27 -0.01    -0.021 A 
DOCKED: ATOM     12  C   UNL d   1      11.322   1.864  11.017 -0.38 +0.00    +0.000 A 
DOCKED: ATOM     13  C   UNL d   1      12.198   2.589  11.826 -0.26 +0.02    +0.070 A 
DOCKED: ATOM     14  C   UNL d   1       9.538   0.053  11.575 -0.25 +0.02    +0.052 C 
DOCKED: ATOM     15  C   UNL d   1      14.066   4.281  11.996 -0.19 +0.02    +0.066 A 
DOCKED: ATOM     16  C   UNL d   1      15.026   5.082  11.394 -0.17 -0.00    -0.021 A 
DOCKED: ATOM     17  C   UNL d   1      15.777   5.630  12.444 -0.11 +0.00    +0.000 A 
DOCKED: ATOM     18  C   UNL d   1      15.204   5.131  13.608 -0.11 +0.03    +0.070 A 
DOCKED: ATOM     19  C   UNL d   1      15.188   5.288   9.904 -0.12 +0.01    +0.052 C 
DOCKED: ATOM     20  C   UNL d   1      15.165   4.841  16.114 -0.08 +0.04    +0.066 A 
DOCKED: ATOM     21  C   UNL d   1      15.704   5.134  17.365 -0.05 -0.01    -0.025 A 
DOCKED: ATOM     22  C   UNL d   1      14.973   4.388  18.270 -0.06 -0.01    -0.021 A 
DOCKED: ATOM     23  C   UNL d   1      14.024   3.661  17.520 -0.07 +0.05    +0.066 A 
DOCKED: ATOM     24  C   UNL d   1      16.872   6.065  17.681 -0.02 +0.01    +0.051 C 
DOCKED: ATOM     25  N   UNL d   1      12.172   1.984  15.906 -0.12 -0.14    -0.248 N 
DOCKED: ATOM     26  N   UNL d   1      12.086   2.256  13.139 -0.13 -0.09    -0.248 N 
DOCKED: ATOM     27  N   UNL d   1      14.207   4.307  13.303 -0.10 -0.11    -0.248 N 
DOCKED: ATOM     28  N   UNL d   1      14.139   3.931  16.214 -0.03 -0.20    -0.248 N 
DOCKED: ATOM     29 FE   UNL d   1      13.251   3.216  14.530 -0.04 +0.00    +0.000 Fe
DOCKED: ENDROOT
DOCKED: BRANCH   6  30
DOCKED: ATOM     30  C   UNL d   1      11.485   0.429  19.277 -0.06 +0.01    +0.052 C 
DOCKED: BRANCH  30  31
DOCKED: ATOM     31  C   UNL d   1      12.819  -0.178  19.709 -0.01 +0.02    +0.115 C 
DOCKED: BRANCH  31  32
DOCKED: ATOM     32  C   UNL d   1      13.557  -0.830  18.559 +0.00 +0.02    +0.139 C 
DOCKED: ATOM     33  O   UNL d   1      13.203  -1.931  18.165 +0.01 -0.08    -0.650 OA
DOCKED: BRANCH  32  34
DOCKED: ATOM     34  O   UNL d   1      14.572  -0.209  17.915 +0.02 -0.12    -0.776 OA
DOCKED: ATOM     35  H   UNL d   1      14.881  -0.447  17.029 +0.00 +0.03    +0.167 HD
DOCKED: ENDBRANCH  32  34
DOCKED: ENDBRANCH  31  32
DOCKED: ENDBRANCH  30  31
DOCKED: ENDBRANCH   6  30
DOCKED: BRANCH  29  36
DOCKED: ATOM     36  C   UNL d   1      14.658   1.666  14.419 -0.02 +0.05    +0.190 C 
DOCKED: BRANCH  36  37
DOCKED: ATOM     37  O   UNL d   1      15.162   0.567  15.121 +0.00 -0.08    -0.399 OA
DOCKED: ATOM     38  H   UNL d   1      14.695   0.589  16.003 +0.01 +0.05    +0.209 HD
DOCKED: ENDBRANCH  36  37
DOCKED: ENDBRANCH  29  36
DOCKED: BRANCH  22  39
DOCKED: ATOM     39  C   UNL d   1      15.220   4.330  19.766 -0.02 +0.02    +0.052 C 
DOCKED: BRANCH  39  40
DOCKED: ATOM     40  C   UNL d   1      14.285   5.299  20.508 -0.03 +0.05    +0.115 C 
DOCKED: BRANCH  40  41
DOCKED: ATOM     41  C   UNL d   1      13.172   5.870  19.655 +0.10 +0.15    +0.139 C 
DOCKED: ATOM     42  O   UNL d   1      12.020   5.512  19.857 -0.11 -0.77    -0.650 OA
DOCKED: BRANCH  41  43
DOCKED: ATOM     43  O   UNL d   1      13.404   6.831  18.734 -0.43 -1.16    -0.776 OA
DOCKED: ATOM     44  H   UNL d   1      14.100   7.493  18.838 +0.01 +0.12    +0.167 HD
DOCKED: ENDBRANCH  41  43
DOCKED: ENDBRANCH  40  41
DOCKED: ENDBRANCH  39  40
DOCKED: ENDBRANCH  22  39
DOCKED: BRANCH  12  45
DOCKED: ATOM     45  C   UNL d   1      11.207   2.102   9.518 -0.50 +0.00    +0.004 C 
DOCKED: ATOM     46  C   UNL d   1      11.860   1.547   8.500 -0.32 +0.00    +0.012 C 
DOCKED: ENDBRANCH  12  45
DOCKED: BRANCH  17  47
DOCKED: ATOM     47  C   UNL d   1      16.979   6.515  12.396 -0.07 +0.00    +0.004 C 
DOCKED: ATOM     48  C   UNL d   1      16.929   7.837  12.579 -0.08 +0.00    +0.012 C 
DOCKED: ENDBRANCH  17  47
DOCKED: TORSDOF 12
DOCKED: TER
DOCKED: ENDMDL
________________________________________________________________________________


	BEGINNING GENETIC ALGORITHM DOCKING 47 of 100
Run: 47 Seed: 1654330886 214472854 [ Run 47 of 100 GA/GALS ]
Beginning LAMARCKIAN GENETIC ALGORITHM (LGA), with a maximum of 25000000 energy evaluations.

Final-Value: -12.204


	FINAL GENETIC ALGORITHM DOCKED STATE
	_______________________________________________


Detailed state:  trans 7.017 -1.557 16.764 quatxyzw -0.032653 -0.858637 -0.195273 -0.472805 center 8.781 34.984 -0.736 ntor 12 36.2473 102.3589 -59.6247 -72.7135 -83.6135 -162.8289 -178.9265 -30.9434 -53.3635 -53.8076 6.4552 138.8105
State:	  7.017  -1.557  16.764  -0.037 -0.974 -0.222 -123.567     36.25  102.36  -59.62  -72.71  -83.61 -162.83 -178.93  -30.94  -53.36  -53.81    6.46  138.81

DOCKED: MODEL       47
DOCKED: USER    Run = 47
DOCKED: USER    DPF = D:/Protein_go_brrr/autodock/final/mut_N102T/heme_Co/dock.dpf
DOCKED: USER  
DOCKED: USER    Estimated Free Energy of Binding    =   -7.82 kcal/mol  [=(1)+(2)+(3)-(4)]
DOCKED: USER    Estimated Inhibition Constant, Ki   =    1.86 uM (micromolar)  [Temperature = 298.15 K]
DOCKED: USER    
DOCKED: USER    (1) Final Intermolecular Energy     =  -11.40 kcal/mol
DOCKED: USER        vdW + Hbond + desolv Energy     =   -8.66 kcal/mol
DOCKED: USER        Electrostatic Energy            =   -2.74 kcal/mol
DOCKED: USER    (2) Final Total Internal Energy     =   -0.81 kcal/mol
DOCKED: USER    (3) Torsional Free Energy           =   +3.58 kcal/mol
DOCKED: USER    (4) Unbound System's Energy  [=(2)] =   -0.81 kcal/mol
DOCKED: USER    
DOCKED: USER    
DOCKED: USER    NEWDPF move heme_Co_opt.pdbqt
DOCKED: USER    NEWDPF about 8.781000 34.984000 -0.736000
DOCKED: USER    NEWDPF tran0 7.016841 -1.556658 16.764076
DOCKED: USER    NEWDPF quaternion0 -0.032653 -0.858637 -0.195273 -0.472805
DOCKED: USER    NEWDPF axisangle0 -0.037057 -0.974432 -0.221607 -123.566883
DOCKED: USER    NEWDPF quat0 -0.037057 -0.974432 -0.221607 -123.566883
DOCKED: USER    NEWDPF dihe0 36.25 102.36 -59.62 -72.71 -83.61 -162.83 -178.93 -30.94 -53.36 -53.81 6.46 138.81 
DOCKED: USER  keepresnum = 1 
DOCKED: USER  
DOCKED: REMARK  12 active torsions:
DOCKED: REMARK  status: ('A' for Active; 'I' for Inactive)
DOCKED: REMARK    1  A    between atoms: C_6  and  C_10 
DOCKED: REMARK    2  A    between atoms: C_10  and  C_11 
DOCKED: REMARK    3  A    between atoms: C_11  and  C_12 
DOCKED: REMARK    4  A    between atoms: C_12  and  O_14 
DOCKED: REMARK    5  A    between atoms: C_17  and  C_20 
DOCKED: REMARK    6  A    between atoms: C_24  and  C_27 
DOCKED: REMARK    7  A    between atoms: C_31  and  C_34 
DOCKED: REMARK    8  A    between atoms: C_34  and  C_35 
DOCKED: REMARK    9  A    between atoms: C_35  and  C_36 
DOCKED: REMARK   10  A    between atoms: C_36  and  O_38 
DOCKED: REMARK   11  A    between atoms: FE_43  and  C_44 
DOCKED: REMARK   12  A    between atoms: C_44  and  O_45 
DOCKED: USER                              x       y       z     vdW  Elec       q    Type
DOCKED: USER                           _______ _______ _______ _____ _____    ______ ____
DOCKED: ROOT
DOCKED: ATOM      1  C   UNL d   1       8.882  -1.159  15.725 -0.08 +0.02    +0.064 A 
DOCKED: ATOM      2  C   UNL d   1       4.563  -2.405  14.174 -0.30 -0.01    +0.064 C 
DOCKED: ATOM      3  C   UNL d   1       3.032  -2.852  18.678 -0.10 -0.02    +0.064 A 
DOCKED: ATOM      4  C   UNL d   1       7.320  -1.209  20.284 -0.06 +0.00    +0.064 A 
DOCKED: ATOM      5  C   UNL d   1       7.825  -1.502  14.971 -0.14 +0.01    +0.066 A 
DOCKED: ATOM      6  C   UNL d   1       7.855  -1.428  13.564 -0.19 -0.00    -0.021 A 
DOCKED: ATOM      7  C   UNL d   1       6.593  -1.769  13.120 -0.26 -0.00    -0.025 A 
DOCKED: ATOM      8  C   UNL d   1       5.851  -2.051  14.273 -0.23 -0.00    +0.066 A 
DOCKED: ATOM      9  C   UNL d   1       6.088  -1.830  11.671 -0.35 +0.00    +0.051 C 
DOCKED: ATOM     10  C   UNL d   1       3.729  -2.739  15.301 -0.19 -0.01    +0.066 A 
DOCKED: ATOM     11  C   UNL d   1       2.414  -3.252  15.254 -0.45 +0.00    -0.021 A 
DOCKED: ATOM     12  C   UNL d   1       1.994  -3.377  16.581 -0.38 -0.00    +0.000 A 
DOCKED: ATOM     13  C   UNL d   1       3.084  -2.944  17.337 -0.20 -0.02    +0.070 A 
DOCKED: ATOM     14  C   UNL d   1       1.666  -3.678  14.018 -0.34 -0.01    +0.052 C 
DOCKED: ATOM     15  C   UNL d   1       4.040  -2.379  19.606 -0.06 -0.02    +0.066 A 
DOCKED: ATOM     16  C   UNL d   1       3.872  -2.172  20.968 -0.06 +0.01    -0.021 A 
DOCKED: ATOM     17  C   UNL d   1       5.106  -1.696  21.435 -0.05 -0.00    +0.000 A 
DOCKED: ATOM     18  C   UNL d   1       5.937  -1.666  20.321 -0.05 -0.01    +0.070 A 
DOCKED: ATOM     19  C   UNL d   1       2.597  -2.422  21.742 -0.06 -0.03    +0.052 C 
DOCKED: ATOM     20  C   UNL d   1       8.121  -1.090  19.198 -0.08 +0.01    +0.066 A 
DOCKED: ATOM     21  C   UNL d   1       9.423  -0.603  19.284 -0.04 -0.00    -0.025 A 
DOCKED: ATOM     22  C   UNL d   1       9.908  -0.605  17.989 -0.06 -0.01    -0.021 A 
DOCKED: ATOM     23  C   UNL d   1       8.865  -1.085  17.169 -0.02 +0.02    +0.066 A 
DOCKED: ATOM     24  C   UNL d   1      10.164  -0.140  20.536 -0.05 +0.01    +0.051 C 
DOCKED: ATOM     25  N   UNL d   1       6.591  -1.900  15.433 -0.10 -0.00    -0.248 N 
DOCKED: ATOM     26  N   UNL d   1       4.152  -2.612  16.563 -0.13 +0.05    -0.248 N 
DOCKED: ATOM     27  N   UNL d   1       5.260  -2.051  19.244 -0.03 +0.04    -0.248 N 
DOCKED: ATOM     28  N   UNL d   1       7.780  -1.377  17.896 -0.07 -0.04    -0.248 N 
DOCKED: ATOM     29 FE   UNL d   1       5.890  -1.979  17.453 -0.03 -0.00    +0.000 Fe
DOCKED: ENDROOT
DOCKED: BRANCH   6  30
DOCKED: ATOM     30  C   UNL d   1       9.027  -0.970  12.703 -0.22 +0.01    +0.052 C 
DOCKED: BRANCH  30  31
DOCKED: ATOM     31  C   UNL d   1       9.911  -2.158  12.323 -0.11 +0.05    +0.115 C 
DOCKED: BRANCH  31  32
DOCKED: ATOM     32  C   UNL d   1      10.095  -2.284  10.826 -0.18 +0.12    +0.139 C 
DOCKED: ATOM     33  O   UNL d   1      10.461  -1.313  10.181 -0.42 -0.58    -0.650 OA
DOCKED: BRANCH  32  34
DOCKED: ATOM     34  O   UNL d   1       9.914  -3.458  10.177 -0.36 -1.33    -0.776 OA
DOCKED: ATOM     35  H   UNL d   1       9.278  -4.135  10.445 +0.04 +0.19    +0.167 HD
DOCKED: ENDBRANCH  32  34
DOCKED: ENDBRANCH  31  32
DOCKED: ENDBRANCH  30  31
DOCKED: ENDBRANCH   6  30
DOCKED: BRANCH  29  36
DOCKED: ATOM     36  C   UNL d   1       5.289   0.014  17.203 -0.33 -0.01    +0.190 C 
DOCKED: BRANCH  36  37
DOCKED: ATOM     37  O   UNL d   1       4.674   0.888  16.300 -0.56 +0.02    -0.399 OA
DOCKED: ATOM     38  H   UNL d   1       4.624   0.378  15.444 -0.39 -0.08    +0.209 HD
DOCKED: ENDBRANCH  36  37
DOCKED: ENDBRANCH  29  36
DOCKED: BRANCH  22  39
DOCKED: ATOM     39  C   UNL d   1      11.277  -0.110  17.561 -0.08 +0.01    +0.052 C 
DOCKED: BRANCH  39  40
DOCKED: ATOM     40  C   UNL d   1      11.147   1.047  16.557 -0.15 +0.05    +0.115 C 
DOCKED: BRANCH  40  41
DOCKED: ATOM     41  C   UNL d   1      11.791   2.341  17.006 -0.20 +0.11    +0.139 C 
DOCKED: ATOM     42  O   UNL d   1      12.831   2.708  16.476 -0.03 -0.49    -0.650 OA
DOCKED: BRANCH  41  43
DOCKED: ATOM     43  O   UNL d   1      11.204   3.148  17.918 -0.25 -0.97    -0.776 OA
DOCKED: ATOM     44  H   UNL d   1      10.297   3.467  17.821 -0.43 +0.19    +0.167 HD
DOCKED: ENDBRANCH  41  43
DOCKED: ENDBRANCH  40  41
DOCKED: ENDBRANCH  39  40
DOCKED: ENDBRANCH  22  39
DOCKED: BRANCH  12  45
DOCKED: ATOM     45  C   UNL d   1       0.702  -3.869  17.219 -0.34 -0.00    +0.004 C 
DOCKED: ATOM     46  C   UNL d   1      -0.460  -3.250  17.413 -0.41 -0.00    +0.012 C 
DOCKED: ENDBRANCH  12  45
DOCKED: BRANCH  17  47
DOCKED: ATOM     47  C   UNL d   1       5.497  -1.244  22.804 -0.04 -0.00    +0.004 C 
DOCKED: ATOM     48  C   UNL d   1       5.664   0.038  23.138 -0.06 -0.00    +0.012 C 
DOCKED: ENDBRANCH  17  47
DOCKED: TORSDOF 12
DOCKED: TER
DOCKED: ENDMDL
________________________________________________________________________________


	BEGINNING GENETIC ALGORITHM DOCKING 48 of 100
Run: 48 Seed: 716367333 26919321 [ Run 48 of 100 GA/GALS ]
Beginning LAMARCKIAN GENETIC ALGORITHM (LGA), with a maximum of 25000000 energy evaluations.

Final-Value: -10.030


	FINAL GENETIC ALGORITHM DOCKED STATE
	_______________________________________________


Detailed state:  trans 14.470 2.835 8.606 quatxyzw 0.697575 0.309470 0.527353 -0.373518 center 8.781 34.984 -0.736 ntor 12 54.2045 104.9234 33.4269 116.9735 55.1895 124.9384 -138.9605 94.4479 -110.7500 22.6251 -173.3281 168.0991
State:	 14.470   2.835   8.606   0.752  0.334  0.568 -136.134     54.20  104.92   33.43  116.97   55.19  124.94 -138.96   94.45 -110.75   22.63 -173.33  168.10

DOCKED: MODEL       48
DOCKED: USER    Run = 48
DOCKED: USER    DPF = D:/Protein_go_brrr/autodock/final/mut_N102T/heme_Co/dock.dpf
DOCKED: USER  
DOCKED: USER    Estimated Free Energy of Binding    =   -4.62 kcal/mol  [=(1)+(2)+(3)-(4)]
DOCKED: USER    Estimated Inhibition Constant, Ki   =  414.14 uM (micromolar)  [Temperature = 298.15 K]
DOCKED: USER    
DOCKED: USER    (1) Final Intermolecular Energy     =   -8.19 kcal/mol
DOCKED: USER        vdW + Hbond + desolv Energy     =   -5.93 kcal/mol
DOCKED: USER        Electrostatic Energy            =   -2.26 kcal/mol
DOCKED: USER    (2) Final Total Internal Energy     =   -1.84 kcal/mol
DOCKED: USER    (3) Torsional Free Energy           =   +3.58 kcal/mol
DOCKED: USER    (4) Unbound System's Energy  [=(2)] =   -1.84 kcal/mol
DOCKED: USER    
DOCKED: USER    
DOCKED: USER    NEWDPF move heme_Co_opt.pdbqt
DOCKED: USER    NEWDPF about 8.781000 34.984000 -0.736000
DOCKED: USER    NEWDPF tran0 14.470057 2.834948 8.606182
DOCKED: USER    NEWDPF quaternion0 0.697575 0.309470 0.527353 -0.373518
DOCKED: USER    NEWDPF axisangle0 0.752003 0.333616 0.568499 -136.134466
DOCKED: USER    NEWDPF quat0 0.752003 0.333616 0.568499 -136.134466
DOCKED: USER    NEWDPF dihe0 54.20 104.92 33.43 116.97 55.19 124.94 -138.96 94.45 -110.75 22.63 -173.33 168.10 
DOCKED: USER  keepresnum = 1 
DOCKED: USER  
DOCKED: REMARK  12 active torsions:
DOCKED: REMARK  status: ('A' for Active; 'I' for Inactive)
DOCKED: REMARK    1  A    between atoms: C_6  and  C_10 
DOCKED: REMARK    2  A    between atoms: C_10  and  C_11 
DOCKED: REMARK    3  A    between atoms: C_11  and  C_12 
DOCKED: REMARK    4  A    between atoms: C_12  and  O_14 
DOCKED: REMARK    5  A    between atoms: C_17  and  C_20 
DOCKED: REMARK    6  A    between atoms: C_24  and  C_27 
DOCKED: REMARK    7  A    between atoms: C_31  and  C_34 
DOCKED: REMARK    8  A    between atoms: C_34  and  C_35 
DOCKED: REMARK    9  A    between atoms: C_35  and  C_36 
DOCKED: REMARK   10  A    between atoms: C_36  and  O_38 
DOCKED: REMARK   11  A    between atoms: FE_43  and  C_44 
DOCKED: REMARK   12  A    between atoms: C_44  and  O_45 
DOCKED: USER                              x       y       z     vdW  Elec       q    Type
DOCKED: USER                           _______ _______ _______ _____ _____    ______ ____
DOCKED: ROOT
DOCKED: ATOM      1  C   UNL d   1      13.179   1.139   8.193 -0.27 +0.02    +0.064 A 
DOCKED: ATOM      2  C   UNL d   1      17.007   2.859   5.958 -0.09 +0.01    +0.064 C 
DOCKED: ATOM      3  C   UNL d   1      17.143   6.569   8.967 -0.06 +0.01    +0.064 A 
DOCKED: ATOM      4  C   UNL d   1      13.471   4.630  11.501 -0.20 +0.02    +0.064 A 
DOCKED: ATOM      5  C   UNL d   1      14.193   1.355   7.339 -0.21 +0.01    +0.066 A 
DOCKED: ATOM      6  C   UNL d   1      14.531   0.432   6.331 -0.23 -0.01    -0.021 A 
DOCKED: ATOM      7  C   UNL d   1      15.657   0.925   5.700 -0.14 -0.01    -0.025 A 
DOCKED: ATOM      8  C   UNL d   1      15.947   2.135   6.339 -0.12 +0.01    +0.066 A 
DOCKED: ATOM      9  C   UNL d   1      16.440   0.293   4.540 -0.11 +0.01    +0.051 C 
DOCKED: ATOM     10  C   UNL d   1      17.369   4.128   6.539 -0.05 +0.01    +0.066 A 
DOCKED: ATOM     11  C   UNL d   1      18.384   5.002   6.092 -0.02 -0.00    -0.021 A 
DOCKED: ATOM     12  C   UNL d   1      18.399   6.077   6.985 -0.02 +0.00    +0.000 A 
DOCKED: ATOM     13  C   UNL d   1      17.387   5.787   7.900 -0.05 +0.01    +0.070 A 
DOCKED: ATOM     14  C   UNL d   1      19.207   4.847   4.839 -0.02 +0.01    +0.052 C 
DOCKED: ATOM     15  C   UNL d   1      16.178   6.393  10.034 -0.12 +0.01    +0.066 A 
DOCKED: ATOM     16  C   UNL d   1      16.074   7.161  11.185 -0.15 -0.00    -0.021 A 
DOCKED: ATOM     17  C   UNL d   1      15.018   6.604  11.920 -0.24 +0.00    +0.000 A 
DOCKED: ATOM     18  C   UNL d   1      14.548   5.547  11.149 -0.25 +0.02    +0.070 A 
DOCKED: ATOM     19  C   UNL d   1      16.949   8.346  11.530 -0.10 +0.01    +0.052 C 
DOCKED: ATOM     20  C   UNL d   1      13.053   3.544  10.808 -0.28 +0.02    +0.066 A 
DOCKED: ATOM     21  C   UNL d   1      12.030   2.718  11.267 -0.35 -0.01    -0.025 A 
DOCKED: ATOM     22  C   UNL d   1      11.904   1.718  10.319 -0.33 -0.01    -0.021 A 
DOCKED: ATOM     23  C   UNL d   1      12.873   1.980   9.327 -0.24 +0.02    +0.066 A 
DOCKED: ATOM     24  C   UNL d   1      11.224   2.860  12.556 -0.40 +0.02    +0.051 C 
DOCKED: ATOM     25  N   UNL d   1      15.053   2.430   7.355 -0.06 -0.05    -0.248 N 
DOCKED: ATOM     26  N   UNL d   1      16.728   4.637   7.597 -0.04 -0.04    -0.248 N 
DOCKED: ATOM     27  N   UNL d   1      15.281   5.432  10.047 -0.10 -0.04    -0.248 N 
DOCKED: ATOM     28  N   UNL d   1      13.572   3.083   9.620 +0.11 -0.06    -0.248 N 
DOCKED: ATOM     29 FE   UNL d   1      15.171   4.019   8.782 -0.04 +0.00    +0.000 Fe
DOCKED: ENDROOT
DOCKED: BRANCH   6  30
DOCKED: ATOM     30  C   UNL d   1      13.845  -0.901   6.050 -0.04 +0.02    +0.052 C 
DOCKED: BRANCH  30  31
DOCKED: ATOM     31  C   UNL d   1      14.487  -2.019   6.871 -0.12 +0.07    +0.115 C 
DOCKED: BRANCH  31  32
DOCKED: ATOM     32  C   UNL d   1      14.241  -1.860   8.356 -0.10 +0.10    +0.139 C 
DOCKED: ATOM     33  O   UNL d   1      13.267  -2.394   8.864 -0.45 -1.02    -0.650 OA
DOCKED: BRANCH  32  34
DOCKED: ATOM     34  O   UNL d   1      15.096  -1.181   9.156 +0.04 -0.30    -0.776 OA
DOCKED: ATOM     35  H   UNL d   1      15.429  -0.293   8.966 +0.02 +0.05    +0.167 HD
DOCKED: ENDBRANCH  32  34
DOCKED: ENDBRANCH  31  32
DOCKED: ENDBRANCH  30  31
DOCKED: ENDBRANCH   6  30
DOCKED: BRANCH  29  36
DOCKED: ATOM     36  C   UNL d   1      16.484   2.796   9.867 -0.03 +0.03    +0.190 C 
DOCKED: BRANCH  36  37
DOCKED: ATOM     37  O   UNL d   1      16.791   1.460  10.142 +0.00 -0.06    -0.399 OA
DOCKED: ATOM     38  H   UNL d   1      16.048   0.936   9.732 +0.02 +0.04    +0.209 HD
DOCKED: ENDBRANCH  36  37
DOCKED: ENDBRANCH  29  36
DOCKED: BRANCH  22  39
DOCKED: ATOM     39  C   UNL d   1      10.948   0.543  10.402 -0.16 +0.02    +0.052 C 
DOCKED: BRANCH  39  40
DOCKED: ATOM     40  C   UNL d   1      11.616  -0.651  11.103 -0.15 +0.06    +0.115 C 
DOCKED: BRANCH  40  41
DOCKED: ATOM     41  C   UNL d   1      10.917  -1.976  10.882 -0.16 +0.12    +0.139 C 
DOCKED: ATOM     42  O   UNL d   1      10.609  -2.659  11.848 +0.02 -0.40    -0.650 OA
DOCKED: BRANCH  41  43
DOCKED: ATOM     43  O   UNL d   1      10.547  -2.386   9.648 -0.20 -1.39    -0.776 OA
DOCKED: ATOM     44  H   UNL d   1      11.100  -2.251   8.868 +0.05 +0.39    +0.167 HD
DOCKED: ENDBRANCH  41  43
DOCKED: ENDBRANCH  40  41
DOCKED: ENDBRANCH  39  40
DOCKED: ENDBRANCH  22  39
DOCKED: BRANCH  12  45
DOCKED: ATOM     45  C   UNL d   1      19.236   7.347   7.067 -0.01 +0.00    +0.004 C 
DOCKED: ATOM     46  C   UNL d   1      18.909   8.615   6.835 -0.01 +0.00    +0.012 C 
DOCKED: ENDBRANCH  12  45
DOCKED: BRANCH  17  47
DOCKED: ATOM     47  C   UNL d   1      14.495   6.975  13.269 -0.21 +0.00    +0.004 C 
DOCKED: ATOM     48  C   UNL d   1      14.481   8.226  13.736 -0.26 +0.00    +0.012 C 
DOCKED: ENDBRANCH  17  47
DOCKED: TORSDOF 12
DOCKED: TER
DOCKED: ENDMDL
________________________________________________________________________________


	BEGINNING GENETIC ALGORITHM DOCKING 49 of 100
Run: 49 Seed: 2146586281 272824795 [ Run 49 of 100 GA/GALS ]
Beginning LAMARCKIAN GENETIC ALGORITHM (LGA), with a maximum of 25000000 energy evaluations.

Final-Value: -9.889


	FINAL GENETIC ALGORITHM DOCKED STATE
	_______________________________________________


Detailed state:  trans 5.586 -8.298 18.094 quatxyzw 0.210735 0.562750 0.792494 0.104198 center 8.781 34.984 -0.736 ntor 12 -177.1764 108.3235 103.6881 63.1300 137.6869 133.0550 35.4467 139.3698 170.7282 61.3305 -166.9026 123.8027
State:	  5.586  -8.298  18.094   0.212  0.566  0.797 168.038   -177.18  108.32  103.69   63.13  137.69  133.06   35.45  139.37  170.73   61.33 -166.90  123.80

DOCKED: MODEL       49
DOCKED: USER    Run = 49
DOCKED: USER    DPF = D:/Protein_go_brrr/autodock/final/mut_N102T/heme_Co/dock.dpf
DOCKED: USER  
DOCKED: USER    Estimated Free Energy of Binding    =   -4.09 kcal/mol  [=(1)+(2)+(3)-(4)]
DOCKED: USER    Estimated Inhibition Constant, Ki   =    1.00 mM (millimolar)  [Temperature = 298.15 K]
DOCKED: USER    
DOCKED: USER    (1) Final Intermolecular Energy     =   -7.67 kcal/mol
DOCKED: USER        vdW + Hbond + desolv Energy     =   -6.33 kcal/mol
DOCKED: USER        Electrostatic Energy            =   -1.34 kcal/mol
DOCKED: USER    (2) Final Total Internal Energy     =   -2.22 kcal/mol
DOCKED: USER    (3) Torsional Free Energy           =   +3.58 kcal/mol
DOCKED: USER    (4) Unbound System's Energy  [=(2)] =   -2.22 kcal/mol
DOCKED: USER    
DOCKED: USER    
DOCKED: USER    NEWDPF move heme_Co_opt.pdbqt
DOCKED: USER    NEWDPF about 8.781000 34.984000 -0.736000
DOCKED: USER    NEWDPF tran0 5.586421 -8.298482 18.093850
DOCKED: USER    NEWDPF quaternion0 0.210735 0.562750 0.792494 0.104198
DOCKED: USER    NEWDPF axisangle0 0.211888 0.565830 0.796831 168.038037
DOCKED: USER    NEWDPF quat0 0.211888 0.565830 0.796831 168.038037
DOCKED: USER    NEWDPF dihe0 -177.18 108.32 103.69 63.13 137.69 133.06 35.45 139.37 170.73 61.33 -166.90 123.80 
DOCKED: USER  keepresnum = 1 
DOCKED: USER  
DOCKED: REMARK  12 active torsions:
DOCKED: REMARK  status: ('A' for Active; 'I' for Inactive)
DOCKED: REMARK    1  A    between atoms: C_6  and  C_10 
DOCKED: REMARK    2  A    between atoms: C_10  and  C_11 
DOCKED: REMARK    3  A    between atoms: C_11  and  C_12 
DOCKED: REMARK    4  A    between atoms: C_12  and  O_14 
DOCKED: REMARK    5  A    between atoms: C_17  and  C_20 
DOCKED: REMARK    6  A    between atoms: C_24  and  C_27 
DOCKED: REMARK    7  A    between atoms: C_31  and  C_34 
DOCKED: REMARK    8  A    between atoms: C_34  and  C_35 
DOCKED: REMARK    9  A    between atoms: C_35  and  C_36 
DOCKED: REMARK   10  A    between atoms: C_36  and  O_38 
DOCKED: REMARK   11  A    between atoms: FE_43  and  C_44 
DOCKED: REMARK   12  A    between atoms: C_44  and  O_45 
DOCKED: USER                              x       y       z     vdW  Elec       q    Type
DOCKED: USER                           _______ _______ _______ _____ _____    ______ ____
DOCKED: ROOT
DOCKED: ATOM      1  C   UNL d   1       7.324  -9.405  17.408 -0.19 +0.02    +0.064 A 
DOCKED: ATOM      2  C   UNL d   1       5.944  -4.902  16.758 -0.01 -0.00    +0.064 C 
DOCKED: ATOM      3  C   UNL d   1       1.841  -5.791  19.040 -0.18 -0.02    +0.064 A 
DOCKED: ATOM      4  C   UNL d   1       3.394 -10.288  20.053 -0.19 -0.01    +0.064 A 
DOCKED: ATOM      5  C   UNL d   1       7.233  -8.119  17.031 -0.22 +0.01    +0.066 A 
DOCKED: ATOM      6  C   UNL d   1       8.291  -7.453  16.383 -0.16 -0.00    -0.021 A 
DOCKED: ATOM      7  C   UNL d   1       7.894  -6.141  16.217 -0.12 -0.00    -0.025 A 
DOCKED: ATOM      8  C   UNL d   1       6.605  -6.066  16.756 -0.06 +0.00    +0.066 A 
DOCKED: ATOM      9  C   UNL d   1       8.687  -4.990  15.580 -0.08 +0.01    +0.051 C 
DOCKED: ATOM     10  C   UNL d   1       4.605  -4.735  17.265 -0.14 -0.01    +0.066 A 
DOCKED: ATOM     11  C   UNL d   1       3.804  -3.576  17.169 -0.19 +0.00    -0.021 A 
DOCKED: ATOM     12  C   UNL d   1       2.612  -3.864  17.839 -0.20 -0.00    +0.000 A 
DOCKED: ATOM     13  C   UNL d   1       2.768  -5.178  18.282 -0.19 -0.02    +0.070 A 
DOCKED: ATOM     14  C   UNL d   1       4.138  -2.322  16.402 -0.25 -0.01    +0.052 C 
DOCKED: ATOM     15  C   UNL d   1       1.861  -7.117  19.624 -0.17 -0.02    +0.066 A 
DOCKED: ATOM     16  C   UNL d   1       0.936  -7.637  20.517 -0.11 +0.00    -0.021 A 
DOCKED: ATOM     17  C   UNL d   1       1.381  -8.933  20.814 -0.14 -0.00    +0.000 A 
DOCKED: ATOM     18  C   UNL d   1       2.537  -9.108  20.062 -0.18 -0.01    +0.070 A 
DOCKED: ATOM     19  C   UNL d   1      -0.286  -6.912  21.036 -0.09 -0.01    +0.052 C 
DOCKED: ATOM     20  C   UNL d   1       4.568 -10.449  19.397 -0.20 -0.01    +0.066 A 
DOCKED: ATOM     21  C   UNL d   1       5.320 -11.618  19.494 -0.17 -0.00    -0.025 A 
DOCKED: ATOM     22  C   UNL d   1       6.445 -11.403  18.719 -0.18 -0.00    -0.021 A 
DOCKED: ATOM     23  C   UNL d   1       6.328 -10.099  18.192 -0.16 +0.01    +0.066 A 
DOCKED: ATOM     24  C   UNL d   1       4.993 -12.871  20.302 -0.09 -0.00    +0.051 C 
DOCKED: ATOM     25  N   UNL d   1       6.167  -7.279  17.261 -0.17 +0.01    -0.248 N 
DOCKED: ATOM     26  N   UNL d   1       3.949  -5.722  17.886 -0.16 +0.05    -0.248 N 
DOCKED: ATOM     27  N   UNL d   1       2.810  -7.996  19.389 -0.12 +0.08    -0.248 N 
DOCKED: ATOM     28  N   UNL d   1       5.195  -9.517  18.602 -0.11 +0.02    -0.248 N 
DOCKED: ATOM     29 FE   UNL d   1       4.390  -7.662  18.388 -0.05 -0.00    +0.000 Fe
DOCKED: ENDROOT
DOCKED: BRANCH   6  30
DOCKED: ATOM     30  C   UNL d   1       9.650  -8.043  16.020 -0.12 +0.01    +0.052 C 
DOCKED: BRANCH  30  31
DOCKED: ATOM     31  C   UNL d   1      10.591  -8.005  17.224 -0.03 +0.02    +0.115 C 
DOCKED: BRANCH  31  32
DOCKED: ATOM     32  C   UNL d   1      10.044  -7.166  18.358 -0.02 +0.02    +0.139 C 
DOCKED: ATOM     33  O   UNL d   1      10.369  -5.992  18.448 +0.01 -0.06    -0.650 OA
DOCKED: BRANCH  32  34
DOCKED: ATOM     34  O   UNL d   1       9.162  -7.662  19.257 +0.03 -0.07    -0.776 OA
DOCKED: ATOM     35  H   UNL d   1       8.806  -7.161  20.004 +0.01 +0.01    +0.167 HD
DOCKED: ENDBRANCH  32  34
DOCKED: ENDBRANCH  31  32
DOCKED: ENDBRANCH  30  31
DOCKED: ENDBRANCH   6  30
DOCKED: BRANCH  29  36
DOCKED: ATOM     36  C   UNL d   1       5.445  -6.985  20.069 -0.05 -0.02    +0.190 C 
DOCKED: BRANCH  36  37
DOCKED: ATOM     37  O   UNL d   1       6.736  -6.790  20.570 -0.00 +0.01    -0.399 OA
DOCKED: ATOM     38  H   UNL d   1       7.341  -7.166  19.872 +0.02 +0.00    +0.209 HD
DOCKED: ENDBRANCH  36  37
DOCKED: ENDBRANCH  29  36
DOCKED: BRANCH  22  39
DOCKED: ATOM     39  C   UNL d   1       7.596 -12.377  18.550 -0.11 +0.02    +0.052 C 
DOCKED: BRANCH  39  40
DOCKED: ATOM     40  C   UNL d   1       8.945 -11.651  18.678 -0.11 +0.05    +0.115 C 
DOCKED: BRANCH  40  41
DOCKED: ATOM     41  C   UNL d   1       9.867 -11.831  17.491 +0.02 +0.15    +0.139 C 
DOCKED: ATOM     42  O   UNL d   1      10.554 -12.839  17.414 -0.36 -0.78    -0.650 OA
DOCKED: BRANCH  41  43
DOCKED: ATOM     43  O   UNL d   1       9.887 -10.948  16.467 -0.42 -0.93    -0.776 OA
DOCKED: ATOM     44  H   UNL d   1      10.634 -10.357  16.306 +0.02 +0.13    +0.167 HD
DOCKED: ENDBRANCH  41  43
DOCKED: ENDBRANCH  40  41
DOCKED: ENDBRANCH  39  40
DOCKED: ENDBRANCH  22  39
DOCKED: BRANCH  12  45
DOCKED: ATOM     45  C   UNL d   1       1.344  -3.060  18.095 -0.27 -0.00    +0.004 C 
DOCKED: ATOM     46  C   UNL d   1       0.527  -2.439  17.248 -0.43 -0.00    +0.012 C 
DOCKED: ENDBRANCH  12  45
DOCKED: BRANCH  17  47
DOCKED: ATOM     47  C   UNL d   1       0.820  -9.940  21.764 -0.10 -0.00    +0.004 C 
DOCKED: ATOM     48  C   UNL d   1       0.322 -11.118  21.381 -0.11 -0.00    +0.012 C 
DOCKED: ENDBRANCH  17  47
DOCKED: TORSDOF 12
DOCKED: TER
DOCKED: ENDMDL
________________________________________________________________________________


	BEGINNING GENETIC ALGORITHM DOCKING 50 of 100
Run: 50 Seed: 2104969107 2038077646 [ Run 50 of 100 GA/GALS ]
Beginning LAMARCKIAN GENETIC ALGORITHM (LGA), with a maximum of 25000000 energy evaluations.

Final-Value: -10.013


	FINAL GENETIC ALGORITHM DOCKED STATE
	_______________________________________________


Detailed state:  trans -4.727 12.881 -11.151 quatxyzw -0.397000 -0.498187 0.634482 0.437758 center 8.781 34.984 -0.736 ntor 12 173.0937 178.4000 -17.1563 -92.8476 -3.8500 -18.1714 -103.1572 154.7268 112.0107 169.8499 7.2144 8.3857
State:	 -4.727  12.881 -11.151  -0.442 -0.554  0.706 128.078    173.09  178.40  -17.16  -92.85   -3.85  -18.17 -103.16  154.73  112.01  169.85    7.21    8.39

DOCKED: MODEL       50
DOCKED: USER    Run = 50
DOCKED: USER    DPF = D:/Protein_go_brrr/autodock/final/mut_N102T/heme_Co/dock.dpf
DOCKED: USER  
DOCKED: USER    Estimated Free Energy of Binding    =   -4.07 kcal/mol  [=(1)+(2)+(3)-(4)]
DOCKED: USER    Estimated Inhibition Constant, Ki   =    1.04 mM (millimolar)  [Temperature = 298.15 K]
DOCKED: USER    
DOCKED: USER    (1) Final Intermolecular Energy     =   -7.65 kcal/mol
DOCKED: USER        vdW + Hbond + desolv Energy     =   -7.53 kcal/mol
DOCKED: USER        Electrostatic Energy            =   -0.12 kcal/mol
DOCKED: USER    (2) Final Total Internal Energy     =   -2.36 kcal/mol
DOCKED: USER    (3) Torsional Free Energy           =   +3.58 kcal/mol
DOCKED: USER    (4) Unbound System's Energy  [=(2)] =   -2.36 kcal/mol
DOCKED: USER    
DOCKED: USER    
DOCKED: USER    NEWDPF move heme_Co_opt.pdbqt
DOCKED: USER    NEWDPF about 8.781000 34.984000 -0.736000
DOCKED: USER    NEWDPF tran0 -4.727377 12.880612 -11.151129
DOCKED: USER    NEWDPF quaternion0 -0.397000 -0.498187 0.634482 0.437758
DOCKED: USER    NEWDPF axisangle0 -0.441557 -0.554100 0.705692 128.078152
DOCKED: USER    NEWDPF quat0 -0.441557 -0.554100 0.705692 128.078152
DOCKED: USER    NEWDPF dihe0 173.09 178.40 -17.16 -92.85 -3.85 -18.17 -103.16 154.73 112.01 169.85 7.21 8.39 
DOCKED: USER  keepresnum = 1 
DOCKED: USER  
DOCKED: REMARK  12 active torsions:
DOCKED: REMARK  status: ('A' for Active; 'I' for Inactive)
DOCKED: REMARK    1  A    between atoms: C_6  and  C_10 
DOCKED: REMARK    2  A    between atoms: C_10  and  C_11 
DOCKED: REMARK    3  A    between atoms: C_11  and  C_12 
DOCKED: REMARK    4  A    between atoms: C_12  and  O_14 
DOCKED: REMARK    5  A    between atoms: C_17  and  C_20 
DOCKED: REMARK    6  A    between atoms: C_24  and  C_27 
DOCKED: REMARK    7  A    between atoms: C_31  and  C_34 
DOCKED: REMARK    8  A    between atoms: C_34  and  C_35 
DOCKED: REMARK    9  A    between atoms: C_35  and  C_36 
DOCKED: REMARK   10  A    between atoms: C_36  and  O_38 
DOCKED: REMARK   11  A    between atoms: FE_43  and  C_44 
DOCKED: REMARK   12  A    between atoms: C_44  and  O_45 
DOCKED: USER                              x       y       z     vdW  Elec       q    Type
DOCKED: USER                           _______ _______ _______ _____ _____    ______ ____
DOCKED: ROOT
DOCKED: ATOM      1  C   UNL d   1      -3.612  13.963  -9.634 -0.23 -0.00    +0.064 A 
DOCKED: ATOM      2  C   UNL d   1      -6.774  10.422  -9.357 -0.16 -0.00    +0.064 C 
DOCKED: ATOM      3  C   UNL d   1      -7.530  10.678 -14.068 -0.12 -0.01    +0.064 A 
DOCKED: ATOM      4  C   UNL d   1      -4.024  14.031 -14.435 -0.19 +0.00    +0.064 A 
DOCKED: ATOM      5  C   UNL d   1      -4.447  13.001  -9.207 -0.22 -0.00    +0.066 A 
DOCKED: ATOM      6  C   UNL d   1      -4.471  12.574  -7.865 -0.28 +0.00    -0.021 A 
DOCKED: ATOM      7  C   UNL d   1      -5.373  11.531  -7.795 -0.23 +0.00    -0.025 A 
DOCKED: ATOM      8  C   UNL d   1      -5.873  11.378  -9.093 -0.12 -0.00    +0.066 A 
DOCKED: ATOM      9  C   UNL d   1      -5.760  10.701  -6.562 -0.25 +0.00    +0.051 C 
DOCKED: ATOM     10  C   UNL d   1      -7.364  10.206 -10.655 -0.13 -0.01    +0.066 A 
DOCKED: ATOM     11  C   UNL d   1      -8.414   9.316 -10.966 -0.13 +0.00    -0.021 A 
DOCKED: ATOM     12  C   UNL d   1      -8.617   9.413 -12.346 -0.14 -0.00    +0.000 A 
DOCKED: ATOM     13  C   UNL d   1      -7.687  10.363 -12.770 -0.11 -0.01    +0.070 A 
DOCKED: ATOM     14  C   UNL d   1      -9.220   8.507  -9.982 -0.07 -0.00    +0.052 C 
DOCKED: ATOM     15  C   UNL d   1      -6.588  11.592 -14.685 -0.12 -0.00    +0.066 A 
DOCKED: ATOM     16  C   UNL d   1      -6.380  11.763 -16.046 -0.16 +0.00    -0.021 A 
DOCKED: ATOM     17  C   UNL d   1      -5.368  12.728 -16.157 -0.22 +0.00    +0.000 A 
DOCKED: ATOM     18  C   UNL d   1      -5.050  13.082 -14.850 -0.18 -0.00    +0.070 A 
DOCKED: ATOM     19  C   UNL d   1      -7.119  11.034 -17.146 -0.18 +0.00    +0.052 C 
DOCKED: ATOM     20  C   UNL d   1      -3.638  14.327 -13.171 -0.13 +0.00    +0.066 A 
DOCKED: ATOM     21  C   UNL d   1      -2.614  15.231 -12.899 -0.10 -0.00    -0.025 A 
DOCKED: ATOM     22  C   UNL d   1      -2.492  15.254 -11.522 -0.21 +0.00    -0.021 A 
DOCKED: ATOM     23  C   UNL d   1      -3.448  14.346 -11.018 -0.20 -0.01    +0.066 A 
DOCKED: ATOM     24  C   UNL d   1      -1.777  16.020 -13.903 -0.18 +0.01    +0.051 C 
DOCKED: ATOM     25  N   UNL d   1      -5.322  12.279  -9.987 -0.10 +0.01    -0.248 N 
DOCKED: ATOM     26  N   UNL d   1      -6.969  10.882 -11.739 -0.05 +0.02    -0.248 N 
DOCKED: ATOM     27  N   UNL d   1      -5.775  12.363 -14.000 -0.07 +0.02    -0.248 N 
DOCKED: ATOM     28  N   UNL d   1      -4.142  13.781 -12.013 -0.11 +0.01    -0.248 N 
DOCKED: ATOM     29 FE   UNL d   1      -5.559  12.327 -12.112 -0.03 -0.00    +0.000 Fe
DOCKED: ENDROOT
DOCKED: BRANCH   6  30
DOCKED: ATOM     30  C   UNL d   1      -3.599  13.098  -6.728 -0.19 +0.00    +0.052 C 
DOCKED: BRANCH  30  31
DOCKED: ATOM     31  C   UNL d   1      -4.296  14.250  -6.005 -0.16 +0.01    +0.115 C 
DOCKED: BRANCH  31  32
DOCKED: ATOM     32  C   UNL d   1      -4.375  15.501  -6.853 -0.11 +0.01    +0.139 C 
DOCKED: ATOM     33  O   UNL d   1      -5.455  16.047  -7.020 +0.03 -0.02    -0.650 OA
DOCKED: BRANCH  32  34
DOCKED: ATOM     34  O   UNL d   1      -3.274  16.069  -7.399 -0.48 -0.12    -0.776 OA
DOCKED: ATOM     35  H   UNL d   1      -3.297  16.770  -8.065 +0.02 +0.01    +0.167 HD
DOCKED: ENDBRANCH  32  34
DOCKED: ENDBRANCH  31  32
DOCKED: ENDBRANCH  30  31
DOCKED: ENDBRANCH   6  30
DOCKED: BRANCH  29  36
DOCKED: ATOM     36  C   UNL d   1      -4.073  10.851 -12.199 -0.32 -0.04    +0.190 C 
DOCKED: BRANCH  36  37
DOCKED: ATOM     37  O   UNL d   1      -3.271  10.127 -13.088 -0.22 +0.15    -0.399 OA
DOCKED: ATOM     38  H   UNL d   1      -2.676  10.809 -13.509 -0.42 -0.15    +0.209 HD
DOCKED: ENDBRANCH  36  37
DOCKED: ENDBRANCH  29  36
DOCKED: BRANCH  22  39
DOCKED: ATOM     39  C   UNL d   1      -1.467  16.056 -10.742 -0.24 -0.01    +0.052 C 
DOCKED: BRANCH  39  40
DOCKED: ATOM     40  C   UNL d   1      -2.145  17.210  -9.984 -0.11 -0.00    +0.115 C 
DOCKED: BRANCH  40  41
DOCKED: ATOM     41  C   UNL d   1      -3.549  17.527 -10.453 -0.03 -0.00    +0.139 C 
DOCKED: ATOM     42  O   UNL d   1      -3.715  17.992 -11.572 +0.03 -0.01    -0.650 OA
DOCKED: BRANCH  41  43
DOCKED: ATOM     43  O   UNL d   1      -4.633  17.230  -9.703 +0.04 -0.00    -0.776 OA
DOCKED: ATOM     44  H   UNL d   1      -4.582  16.673  -8.915 +0.02 +0.00    +0.167 HD
DOCKED: ENDBRANCH  41  43
DOCKED: ENDBRANCH  40  41
DOCKED: ENDBRANCH  39  40
DOCKED: ENDBRANCH  22  39
DOCKED: BRANCH  12  45
DOCKED: ATOM     45  C   UNL d   1      -9.589   8.737 -13.303 -0.18 -0.00    +0.004 C 
DOCKED: ATOM     46  C   UNL d   1      -9.410   7.724 -14.147 -0.26 -0.00    +0.012 C 
DOCKED: ENDBRANCH  12  45
DOCKED: BRANCH  17  47
DOCKED: ATOM     47  C   UNL d   1      -4.690  13.263 -17.375 -0.26 +0.00    +0.004 C 
DOCKED: ATOM     48  C   UNL d   1      -4.591  12.586 -18.522 -0.29 +0.00    +0.012 C 
DOCKED: ENDBRANCH  17  47
DOCKED: TORSDOF 12
DOCKED: TER
DOCKED: ENDMDL
________________________________________________________________________________


	BEGINNING GENETIC ALGORITHM DOCKING 51 of 100
Run: 51 Seed: 857596307 1707458501 [ Run 51 of 100 GA/GALS ]
Beginning LAMARCKIAN GENETIC ALGORITHM (LGA), with a maximum of 25000000 energy evaluations.

Final-Value: -9.119


	FINAL GENETIC ALGORITHM DOCKED STATE
	_______________________________________________


Detailed state:  trans -1.407 10.832 -22.133 quatxyzw 0.381853 -0.749770 0.414628 0.346579 center 8.781 34.984 -0.736 ntor 12 -10.8941 98.7677 50.4934 121.8825 121.1403 92.6372 -170.6534 -75.4218 -38.0111 141.4804 -138.2535 -180.0000
State:	 -1.407  10.832 -22.133   0.407 -0.799  0.442 139.444    -10.89   98.77   50.49  121.88  121.14   92.64 -170.65  -75.42  -38.01  141.48 -138.25 -180.00

DOCKED: MODEL       51
DOCKED: USER    Run = 51
DOCKED: USER    DPF = D:/Protein_go_brrr/autodock/final/mut_N102T/heme_Co/dock.dpf
DOCKED: USER  
DOCKED: USER    Estimated Free Energy of Binding    =   -3.02 kcal/mol  [=(1)+(2)+(3)-(4)]
DOCKED: USER    Estimated Inhibition Constant, Ki   =    6.09 mM (millimolar)  [Temperature = 298.15 K]
DOCKED: USER    
DOCKED: USER    (1) Final Intermolecular Energy     =   -6.60 kcal/mol
DOCKED: USER        vdW + Hbond + desolv Energy     =   -4.69 kcal/mol
DOCKED: USER        Electrostatic Energy            =   -1.91 kcal/mol
DOCKED: USER    (2) Final Total Internal Energy     =   -2.52 kcal/mol
DOCKED: USER    (3) Torsional Free Energy           =   +3.58 kcal/mol
DOCKED: USER    (4) Unbound System's Energy  [=(2)] =   -2.52 kcal/mol
DOCKED: USER    
DOCKED: USER    
DOCKED: USER    NEWDPF move heme_Co_opt.pdbqt
DOCKED: USER    NEWDPF about 8.781000 34.984000 -0.736000
DOCKED: USER    NEWDPF tran0 -1.406871 10.832098 -22.132761
DOCKED: USER    NEWDPF quaternion0 0.381853 -0.749770 0.414628 0.346579
DOCKED: USER    NEWDPF axisangle0 0.407084 -0.799311 0.442024 139.443517
DOCKED: USER    NEWDPF quat0 0.407084 -0.799311 0.442024 139.443517
DOCKED: USER    NEWDPF dihe0 -10.89 98.77 50.49 121.88 121.14 92.64 -170.65 -75.42 -38.01 141.48 -138.25 -180.00 
DOCKED: USER  keepresnum = 1 
DOCKED: USER  
DOCKED: REMARK  12 active torsions:
DOCKED: REMARK  status: ('A' for Active; 'I' for Inactive)
DOCKED: REMARK    1  A    between atoms: C_6  and  C_10 
DOCKED: REMARK    2  A    between atoms: C_10  and  C_11 
DOCKED: REMARK    3  A    between atoms: C_11  and  C_12 
DOCKED: REMARK    4  A    between atoms: C_12  and  O_14 
DOCKED: REMARK    5  A    between atoms: C_17  and  C_20 
DOCKED: REMARK    6  A    between atoms: C_24  and  C_27 
DOCKED: REMARK    7  A    between atoms: C_31  and  C_34 
DOCKED: REMARK    8  A    between atoms: C_34  and  C_35 
DOCKED: REMARK    9  A    between atoms: C_35  and  C_36 
DOCKED: REMARK   10  A    between atoms: C_36  and  O_38 
DOCKED: REMARK   11  A    between atoms: FE_43  and  C_44 
DOCKED: REMARK   12  A    between atoms: C_44  and  O_45 
DOCKED: USER                              x       y       z     vdW  Elec       q    Type
DOCKED: USER                           _______ _______ _______ _____ _____    ______ ____
DOCKED: ROOT
DOCKED: ATOM      1  C   UNL d   1      -1.354  12.982 -21.829 -0.09 +0.02    +0.064 A 
DOCKED: ATOM      2  C   UNL d   1       1.939   9.596 -21.280 -0.20 -0.00    +0.064 C 
DOCKED: ATOM      3  C   UNL d   1      -1.299   6.230 -22.289 -0.11 +0.00    +0.064 A 
DOCKED: ATOM      4  C   UNL d   1      -4.584   9.692 -23.232 -0.05 +0.00    +0.064 A 
DOCKED: ATOM      5  C   UNL d   1      -0.226  12.301 -21.569 -0.16 +0.01    +0.066 A 
DOCKED: ATOM      6  C   UNL d   1       0.993  12.952 -21.295 -0.16 -0.00    -0.021 A 
DOCKED: ATOM      7  C   UNL d   1       1.950  11.966 -21.159 -0.20 -0.00    -0.025 A 
DOCKED: ATOM      8  C   UNL d   1       1.272  10.755 -21.340 -0.21 -0.00    +0.066 A 
DOCKED: ATOM      9  C   UNL d   1       3.449  12.140 -20.872 -0.15 -0.01    +0.051 C 
DOCKED: ATOM     10  C   UNL d   1       1.322   8.301 -21.426 -0.18 -0.00    +0.066 A 
DOCKED: ATOM     11  C   UNL d   1       1.939   7.046 -21.235 -0.16 +0.00    -0.021 A 
DOCKED: ATOM     12  C   UNL d   1       0.971   6.082 -21.532 -0.13 -0.00    +0.000 A 
DOCKED: ATOM     13  C   UNL d   1      -0.165   6.818 -21.869 -0.13 -0.00    +0.070 A 
DOCKED: ATOM     14  C   UNL d   1       3.331   6.807 -20.711 -0.20 -0.00    +0.052 C 
DOCKED: ATOM     15  C   UNL d   1      -2.543   6.835 -22.724 -0.07 +0.01    +0.066 A 
DOCKED: ATOM     16  C   UNL d   1      -3.628   6.176 -23.284 -0.11 -0.00    -0.021 A 
DOCKED: ATOM     17  C   UNL d   1      -4.577   7.170 -23.560 -0.09 +0.00    +0.000 A 
DOCKED: ATOM     18  C   UNL d   1      -4.000   8.361 -23.129 -0.07 +0.01    +0.070 A 
DOCKED: ATOM     19  C   UNL d   1      -3.718   4.685 -23.527 -0.11 +0.00    +0.052 C 
DOCKED: ATOM     20  C   UNL d   1      -4.008  10.872 -22.900 -0.06 +0.01    +0.066 A 
DOCKED: ATOM     21  C   UNL d   1      -4.657  12.092 -23.079 -0.04 -0.00    -0.025 A 
DOCKED: ATOM     22  C   UNL d   1      -3.761  13.057 -22.656 -0.08 -0.00    -0.021 A 
DOCKED: ATOM     23  C   UNL d   1      -2.596  12.373 -22.248 -0.14 +0.01    +0.066 A 
DOCKED: ATOM     24  C   UNL d   1      -6.055  12.330 -23.644 -0.02 +0.00    +0.051 C 
DOCKED: ATOM     25  N   UNL d   1      -0.078  10.933 -21.589 -0.15 +0.00    -0.248 N 
DOCKED: ATOM     26  N   UNL d   1       0.032   8.159 -21.750 -0.11 +0.01    -0.248 N 
DOCKED: ATOM     27  N   UNL d   1      -2.778   8.127 -22.665 -0.01 -0.02    -0.248 N 
DOCKED: ATOM     28  N   UNL d   1      -2.741  11.051 -22.397 -0.07 -0.02    -0.248 N 
DOCKED: ATOM     29 FE   UNL d   1      -1.511   9.449 -22.159 -0.03 -0.00    +0.000 Fe
DOCKED: ENDROOT
DOCKED: BRANCH   6  30
DOCKED: ATOM     30  C   UNL d   1       1.230  14.458 -21.251 -0.10 +0.02    +0.052 C 
DOCKED: BRANCH  30  31
DOCKED: ATOM     31  C   UNL d   1       0.759  15.114 -22.548 -0.10 +0.05    +0.115 C 
DOCKED: BRANCH  31  32
DOCKED: ATOM     32  C   UNL d   1       0.068  16.439 -22.307 +0.09 +0.16    +0.139 C 
DOCKED: ATOM     33  O   UNL d   1       0.678  17.344 -21.758 -0.30 -0.92    -0.650 OA
DOCKED: BRANCH  32  34
DOCKED: ATOM     34  O   UNL d   1      -1.197  16.675 -22.726 -0.36 -1.25    -0.776 OA
DOCKED: ATOM     35  H   UNL d   1      -1.668  16.128 -23.369 +0.01 +0.15    +0.167 HD
DOCKED: ENDBRANCH  32  34
DOCKED: ENDBRANCH  31  32
DOCKED: ENDBRANCH  30  31
DOCKED: ENDBRANCH   6  30
DOCKED: BRANCH  29  36
DOCKED: ATOM     36  C   UNL d   1      -0.799   9.677 -24.118 -0.03 +0.01    +0.190 C 
DOCKED: BRANCH  36  37
DOCKED: ATOM     37  O   UNL d   1      -0.669  10.605 -25.156 -0.00 -0.02    -0.399 OA
DOCKED: ATOM     38  H   UNL d   1      -1.271  11.360 -24.901 +0.01 +0.01    +0.209 HD
DOCKED: ENDBRANCH  36  37
DOCKED: ENDBRANCH  29  36
DOCKED: BRANCH  22  39
DOCKED: ATOM     39  C   UNL d   1      -3.994  14.555 -22.705 -0.10 +0.02    +0.052 C 
DOCKED: BRANCH  39  40
DOCKED: ATOM     40  C   UNL d   1      -3.776  15.092 -24.129 -0.03 +0.04    +0.115 C 
DOCKED: BRANCH  40  41
DOCKED: ATOM     41  C   UNL d   1      -2.546  14.545 -24.822 -0.02 +0.03    +0.139 C 
DOCKED: ATOM     42  O   UNL d   1      -2.469  13.346 -25.047 +0.01 -0.10    -0.650 OA
DOCKED: BRANCH  41  43
DOCKED: ATOM     43  O   UNL d   1      -1.566  15.358 -25.276 +0.02 -0.20    -0.776 OA
DOCKED: ATOM     44  H   UNL d   1      -1.098  15.978 -24.703 +0.01 +0.06    +0.167 HD
DOCKED: ENDBRANCH  41  43
DOCKED: ENDBRANCH  40  41
DOCKED: ENDBRANCH  39  40
DOCKED: ENDBRANCH  22  39
DOCKED: BRANCH  12  45
DOCKED: ATOM     45  C   UNL d   1       0.983   4.559 -21.518 -0.13 -0.00    +0.004 C 
DOCKED: ATOM     46  C   UNL d   1       0.331   3.695 -20.745 -0.22 -0.00    +0.012 C 
DOCKED: ENDBRANCH  12  45
DOCKED: BRANCH  17  47
DOCKED: ATOM     47  C   UNL d   1      -5.910   7.058 -24.222 -0.05 +0.00    +0.004 C 
DOCKED: ATOM     48  C   UNL d   1      -7.065   7.011 -23.553 -0.08 +0.00    +0.012 C 
DOCKED: ENDBRANCH  17  47
DOCKED: TORSDOF 12
DOCKED: TER
DOCKED: ENDMDL
________________________________________________________________________________


	BEGINNING GENETIC ALGORITHM DOCKING 52 of 100
Run: 52 Seed: 972606739 473307885 [ Run 52 of 100 GA/GALS ]
Beginning LAMARCKIAN GENETIC ALGORITHM (LGA), with a maximum of 25000000 energy evaluations.

Final-Value: -10.009


	FINAL GENETIC ALGORITHM DOCKED STATE
	_______________________________________________


Detailed state:  trans -12.427 5.170 4.916 quatxyzw 0.125539 0.297022 -0.529044 0.784940 center 8.781 34.984 -0.736 ntor 12 -167.4631 120.2588 57.4503 115.4061 97.1936 133.2430 34.9902 -79.1705 180.0000 -105.2538 -169.9511 -15.7606
State:	-12.427   5.170   4.916   0.203  0.479 -0.854 76.570   -167.46  120.26   57.45  115.41   97.19  133.24   34.99  -79.17  180.00 -105.25 -169.95  -15.76

DOCKED: MODEL       52
DOCKED: USER    Run = 52
DOCKED: USER    DPF = D:/Protein_go_brrr/autodock/final/mut_N102T/heme_Co/dock.dpf
DOCKED: USER  
DOCKED: USER    Estimated Free Energy of Binding    =   -4.16 kcal/mol  [=(1)+(2)+(3)-(4)]
DOCKED: USER    Estimated Inhibition Constant, Ki   =  896.79 uM (micromolar)  [Temperature = 298.15 K]
DOCKED: USER    
DOCKED: USER    (1) Final Intermolecular Energy     =   -7.74 kcal/mol
DOCKED: USER        vdW + Hbond + desolv Energy     =   -6.96 kcal/mol
DOCKED: USER        Electrostatic Energy            =   -0.78 kcal/mol
DOCKED: USER    (2) Final Total Internal Energy     =   -2.27 kcal/mol
DOCKED: USER    (3) Torsional Free Energy           =   +3.58 kcal/mol
DOCKED: USER    (4) Unbound System's Energy  [=(2)] =   -2.27 kcal/mol
DOCKED: USER    
DOCKED: USER    
DOCKED: USER    NEWDPF move heme_Co_opt.pdbqt
DOCKED: USER    NEWDPF about 8.781000 34.984000 -0.736000
DOCKED: USER    NEWDPF tran0 -12.426825 5.169555 4.915997
DOCKED: USER    NEWDPF quaternion0 0.125539 0.297022 -0.529044 0.784940
DOCKED: USER    NEWDPF axisangle0 0.202622 0.479398 -0.853886 76.569783
DOCKED: USER    NEWDPF quat0 0.202622 0.479398 -0.853886 76.569783
DOCKED: USER    NEWDPF dihe0 -167.46 120.26 57.45 115.41 97.19 133.24 34.99 -79.17 180.00 -105.25 -169.95 -15.76 
DOCKED: USER  keepresnum = 1 
DOCKED: USER  
DOCKED: REMARK  12 active torsions:
DOCKED: REMARK  status: ('A' for Active; 'I' for Inactive)
DOCKED: REMARK    1  A    between atoms: C_6  and  C_10 
DOCKED: REMARK    2  A    between atoms: C_10  and  C_11 
DOCKED: REMARK    3  A    between atoms: C_11  and  C_12 
DOCKED: REMARK    4  A    between atoms: C_12  and  O_14 
DOCKED: REMARK    5  A    between atoms: C_17  and  C_20 
DOCKED: REMARK    6  A    between atoms: C_24  and  C_27 
DOCKED: REMARK    7  A    between atoms: C_31  and  C_34 
DOCKED: REMARK    8  A    between atoms: C_34  and  C_35 
DOCKED: REMARK    9  A    between atoms: C_35  and  C_36 
DOCKED: REMARK   10  A    between atoms: C_36  and  O_38 
DOCKED: REMARK   11  A    between atoms: FE_43  and  C_44 
DOCKED: REMARK   12  A    between atoms: C_44  and  O_45 
DOCKED: USER                              x       y       z     vdW  Elec       q    Type
DOCKED: USER                           _______ _______ _______ _____ _____    ______ ____
DOCKED: ROOT
DOCKED: ATOM      1  C   UNL d   1     -12.805   3.722   3.342 -0.15 +0.01    +0.064 A 
DOCKED: ATOM      2  C   UNL d   1     -12.700   3.336   8.081 -0.19 -0.00    +0.064 C 
DOCKED: ATOM      3  C   UNL d   1     -11.278   7.882   8.456 -0.26 -0.01    +0.064 A 
DOCKED: ATOM      4  C   UNL d   1     -11.750   8.414   3.644 -0.17 +0.00    +0.064 A 
DOCKED: ATOM      5  C   UNL d   1     -12.846   3.272   4.607 -0.15 +0.00    +0.066 A 
DOCKED: ATOM      6  C   UNL d   1     -13.295   1.975   4.925 -0.15 +0.00    -0.021 A 
DOCKED: ATOM      7  C   UNL d   1     -13.284   1.877   6.303 -0.12 +0.00    -0.025 A 
DOCKED: ATOM      8  C   UNL d   1     -12.814   3.110   6.766 -0.14 -0.00    +0.066 A 
DOCKED: ATOM      9  C   UNL d   1     -13.698   0.674   7.165 -0.10 -0.01    +0.051 C 
DOCKED: ATOM     10  C   UNL d   1     -12.201   4.564   8.649 -0.20 -0.00    +0.066 A 
DOCKED: ATOM     11  C   UNL d   1     -11.926   4.813  10.011 -0.15 +0.00    -0.021 A 
DOCKED: ATOM     12  C   UNL d   1     -11.509   6.144  10.091 -0.23 -0.00    +0.000 A 
DOCKED: ATOM     13  C   UNL d   1     -11.548   6.604   8.775 -0.25 -0.00    +0.070 A 
DOCKED: ATOM     14  C   UNL d   1     -11.973   3.803  11.129 -0.07 -0.00    +0.052 C 
DOCKED: ATOM     15  C   UNL d   1     -11.321   8.537   7.164 -0.22 -0.01    +0.066 A 
DOCKED: ATOM     16  C   UNL d   1     -11.171   9.895   6.923 -0.19 +0.00    -0.021 A 
DOCKED: ATOM     17  C   UNL d   1     -11.309  10.054   5.537 -0.19 -0.00    +0.000 A 
DOCKED: ATOM     18  C   UNL d   1     -11.516   8.773   5.037 -0.21 -0.00    +0.070 A 
DOCKED: ATOM     19  C   UNL d   1     -10.915  10.949   7.978 -0.17 -0.01    +0.052 C 
DOCKED: ATOM     20  C   UNL d   1     -12.039   7.188   3.146 -0.11 +0.01    +0.066 A 
DOCKED: ATOM     21  C   UNL d   1     -12.280   6.974   1.790 -0.10 -0.00    -0.025 A 
DOCKED: ATOM     22  C   UNL d   1     -12.559   5.625   1.669 -0.10 -0.00    -0.021 A 
DOCKED: ATOM     23  C   UNL d   1     -12.485   5.081   2.969 -0.14 +0.01    +0.066 A 
DOCKED: ATOM     24  C   UNL d   1     -12.266   8.008   0.668 -0.06 +0.00    +0.051 C 
DOCKED: ATOM     25  N   UNL d   1     -12.529   3.992   5.737 -0.11 +0.00    -0.248 N 
DOCKED: ATOM     26  N   UNL d   1     -11.913   5.632   7.897 -0.15 +0.00    -0.248 N 
DOCKED: ATOM     27  N   UNL d   1     -11.547   7.899   6.037 -0.13 +0.02    -0.248 N 
DOCKED: ATOM     28  N   UNL d   1     -12.173   6.024   3.866 +0.03 -0.03    -0.248 N 
DOCKED: ATOM     29 FE   UNL d   1     -12.008   6.061   5.892 -0.05 +0.00    +0.000 Fe
DOCKED: ENDROOT
DOCKED: BRANCH   6  30
DOCKED: ATOM     30  C   UNL d   1     -13.788   0.917   3.944 -0.11 -0.00    +0.052 C 
DOCKED: BRANCH  30  31
DOCKED: ATOM     31  C   UNL d   1     -15.276   1.108   3.651 -0.04 -0.00    +0.115 C 
DOCKED: BRANCH  31  32
DOCKED: ATOM     32  C   UNL d   1     -15.876   2.254   4.435 -0.00 -0.00    +0.139 C 
DOCKED: ATOM     33  O   UNL d   1     -16.432   2.028   5.500 +0.02 +0.03    -0.650 OA
DOCKED: BRANCH  32  34
DOCKED: ATOM     34  O   UNL d   1     -15.777   3.539   4.020 +0.03 -0.00    -0.776 OA
DOCKED: ATOM     35  H   UNL d   1     -16.045   4.303   4.548 +0.01 -0.00    +0.167 HD
DOCKED: ENDBRANCH  32  34
DOCKED: ENDBRANCH  31  32
DOCKED: ENDBRANCH  30  31
DOCKED: ENDBRANCH   6  30
DOCKED: BRANCH  29  36
DOCKED: ATOM     36  C   UNL d   1     -14.061   6.447   6.075 -0.04 -0.00    +0.190 C 
DOCKED: BRANCH  36  37
DOCKED: ATOM     37  O   UNL d   1     -15.324   5.912   5.803 +0.00 +0.01    -0.399 OA
DOCKED: ATOM     38  H   UNL d   1     -15.145   4.986   5.476 +0.01 -0.00    +0.209 HD
DOCKED: ENDBRANCH  36  37
DOCKED: ENDBRANCH  29  36
DOCKED: BRANCH  22  39
DOCKED: ATOM     39  C   UNL d   1     -12.938   4.917   0.382 -0.06 +0.01    +0.052 C 
DOCKED: BRANCH  39  40
DOCKED: ATOM     40  C   UNL d   1     -11.681   4.493  -0.395 -0.12 +0.02    +0.115 C 
DOCKED: BRANCH  40  41
DOCKED: ATOM     41  C   UNL d   1     -10.886   3.384   0.261 -0.22 +0.06    +0.139 C 
DOCKED: ATOM     42  O   UNL d   1     -11.426   2.308   0.479 -0.34 -0.57    -0.650 OA
DOCKED: BRANCH  41  43
DOCKED: ATOM     43  O   UNL d   1      -9.569   3.520   0.535 -0.41 -0.28    -0.776 OA
DOCKED: ATOM     44  H   UNL d   1      -9.234   4.175   1.160 -0.44 -0.01    +0.167 HD
DOCKED: ENDBRANCH  41  43
DOCKED: ENDBRANCH  40  41
DOCKED: ENDBRANCH  39  40
DOCKED: ENDBRANCH  22  39
DOCKED: BRANCH  12  45
DOCKED: ATOM     45  C   UNL d   1     -11.062   7.024  11.251 -0.30 +0.00    +0.004 C 
DOCKED: ATOM     46  C   UNL d   1      -9.854   7.471  11.584 -0.40 +0.00    +0.012 C 
DOCKED: ENDBRANCH  12  45
DOCKED: BRANCH  17  47
DOCKED: ATOM     47  C   UNL d   1     -11.305  11.301   4.715 -0.13 -0.00    +0.004 C 
DOCKED: ATOM     48  C   UNL d   1     -10.198  11.986   4.419 -0.16 -0.00    +0.012 C 
DOCKED: ENDBRANCH  17  47
DOCKED: TORSDOF 12
DOCKED: TER
DOCKED: ENDMDL
________________________________________________________________________________


	BEGINNING GENETIC ALGORITHM DOCKING 53 of 100
Run: 53 Seed: 1199794375 884308101 [ Run 53 of 100 GA/GALS ]
Beginning LAMARCKIAN GENETIC ALGORITHM (LGA), with a maximum of 25000000 energy evaluations.

Final-Value: -9.513


	FINAL GENETIC ALGORITHM DOCKED STATE
	_______________________________________________


Detailed state:  trans -2.069 8.284 -22.315 quatxyzw -0.528757 0.566677 -0.503918 -0.381261 center 8.781 34.984 -0.736 ntor 12 -21.7052 127.1287 -150.9968 46.6727 -88.9347 92.3492 41.2547 126.1216 13.5343 75.1464 -23.8982 159.7379
State:	 -2.069   8.284 -22.315  -0.572  0.613 -0.545 -135.176    -21.71  127.13 -151.00   46.67  -88.93   92.35   41.25  126.12   13.53   75.15  -23.90  159.74

DOCKED: MODEL       53
DOCKED: USER    Run = 53
DOCKED: USER    DPF = D:/Protein_go_brrr/autodock/final/mut_N102T/heme_Co/dock.dpf
DOCKED: USER  
DOCKED: USER    Estimated Free Energy of Binding    =   -3.61 kcal/mol  [=(1)+(2)+(3)-(4)]
DOCKED: USER    Estimated Inhibition Constant, Ki   =    2.25 mM (millimolar)  [Temperature = 298.15 K]
DOCKED: USER    
DOCKED: USER    (1) Final Intermolecular Energy     =   -7.19 kcal/mol
DOCKED: USER        vdW + Hbond + desolv Energy     =   -6.14 kcal/mol
DOCKED: USER        Electrostatic Energy            =   -1.05 kcal/mol
DOCKED: USER    (2) Final Total Internal Energy     =   -2.32 kcal/mol
DOCKED: USER    (3) Torsional Free Energy           =   +3.58 kcal/mol
DOCKED: USER    (4) Unbound System's Energy  [=(2)] =   -2.32 kcal/mol
DOCKED: USER    
DOCKED: USER    
DOCKED: USER    NEWDPF move heme_Co_opt.pdbqt
DOCKED: USER    NEWDPF about 8.781000 34.984000 -0.736000
DOCKED: USER    NEWDPF tran0 -2.068788 8.283543 -22.314805
DOCKED: USER    NEWDPF quaternion0 -0.528757 0.566677 -0.503918 -0.381261
DOCKED: USER    NEWDPF axisangle0 -0.571959 0.612977 -0.545090 -135.176369
DOCKED: USER    NEWDPF quat0 -0.571959 0.612977 -0.545090 -135.176369
DOCKED: USER    NEWDPF dihe0 -21.71 127.13 -151.00 46.67 -88.93 92.35 41.25 126.12 13.53 75.15 -23.90 159.74 
DOCKED: USER  keepresnum = 1 
DOCKED: USER  
DOCKED: REMARK  12 active torsions:
DOCKED: REMARK  status: ('A' for Active; 'I' for Inactive)
DOCKED: REMARK    1  A    between atoms: C_6  and  C_10 
DOCKED: REMARK    2  A    between atoms: C_10  and  C_11 
DOCKED: REMARK    3  A    between atoms: C_11  and  C_12 
DOCKED: REMARK    4  A    between atoms: C_12  and  O_14 
DOCKED: REMARK    5  A    between atoms: C_17  and  C_20 
DOCKED: REMARK    6  A    between atoms: C_24  and  C_27 
DOCKED: REMARK    7  A    between atoms: C_31  and  C_34 
DOCKED: REMARK    8  A    between atoms: C_34  and  C_35 
DOCKED: REMARK    9  A    between atoms: C_35  and  C_36 
DOCKED: REMARK   10  A    between atoms: C_36  and  O_38 
DOCKED: REMARK   11  A    between atoms: FE_43  and  C_44 
DOCKED: REMARK   12  A    between atoms: C_44  and  O_45 
DOCKED: USER                              x       y       z     vdW  Elec       q    Type
DOCKED: USER                           _______ _______ _______ _____ _____    ______ ____
DOCKED: ROOT
DOCKED: ATOM      1  C   UNL d   1      -2.706  10.296 -22.825 -0.09 +0.00    +0.064 A 
DOCKED: ATOM      2  C   UNL d   1       1.281   8.609 -20.859 -0.26 -0.00    +0.064 C 
DOCKED: ATOM      3  C   UNL d   1      -0.587   4.213 -20.750 -0.21 +0.00    +0.064 A 
DOCKED: ATOM      4  C   UNL d   1      -4.518   5.840 -23.110 -0.13 +0.01    +0.064 A 
DOCKED: ATOM      5  C   UNL d   1      -1.493  10.164 -22.262 -0.14 +0.00    +0.066 A 
DOCKED: ATOM      6  C   UNL d   1      -0.590  11.242 -22.173 -0.17 -0.00    -0.021 A 
DOCKED: ATOM      7  C   UNL d   1       0.574  10.741 -21.623 -0.21 +0.00    -0.025 A 
DOCKED: ATOM      8  C   UNL d   1       0.325   9.385 -21.385 -0.22 -0.00    +0.066 A 
DOCKED: ATOM      9  C   UNL d   1       1.878  11.498 -21.328 -0.21 -0.00    +0.051 C 
DOCKED: ATOM     10  C   UNL d   1       1.109   7.210 -20.554 -0.23 -0.01    +0.066 A 
DOCKED: ATOM     11  C   UNL d   1       2.023   6.376 -19.874 -0.26 +0.00    -0.021 A 
DOCKED: ATOM     12  C   UNL d   1       1.451   5.101 -19.853 -0.26 -0.00    +0.000 A 
DOCKED: ATOM     13  C   UNL d   1       0.229   5.254 -20.508 -0.23 -0.00    +0.070 A 
DOCKED: ATOM     14  C   UNL d   1       3.306   6.810 -19.213 -0.23 -0.02    +0.052 C 
DOCKED: ATOM     15  C   UNL d   1      -1.854   4.181 -21.455 -0.19 +0.01    +0.066 A 
DOCKED: ATOM     16  C   UNL d   1      -2.578   3.048 -21.797 -0.23 -0.00    -0.021 A 
DOCKED: ATOM     17  C   UNL d   1      -3.711   3.512 -22.480 -0.20 +0.00    +0.000 A 
DOCKED: ATOM     18  C   UNL d   1      -3.597   4.898 -22.486 -0.17 +0.01    +0.070 A 
DOCKED: ATOM     19  C   UNL d   1      -2.180   1.624 -21.477 -0.25 +0.00    +0.052 C 
DOCKED: ATOM     20  C   UNL d   1      -4.384   7.184 -23.203 -0.09 +0.01    +0.066 A 
DOCKED: ATOM     21  C   UNL d   1      -5.320   7.981 -23.860 -0.05 -0.00    -0.025 A 
DOCKED: ATOM     22  C   UNL d   1      -4.838   9.274 -23.769 -0.04 -0.00    -0.021 A 
DOCKED: ATOM     23  C   UNL d   1      -3.617   9.200 -23.066 -0.07 +0.00    +0.066 A 
DOCKED: ATOM     24  C   UNL d   1      -6.600   7.530 -24.559 -0.03 +0.00    +0.051 C 
DOCKED: ATOM     25  N   UNL d   1      -0.949   9.002 -21.766 -0.11 +0.01    -0.248 N 
DOCKED: ATOM     26  N   UNL d   1      -0.001   6.541 -20.882 -0.16 +0.01    -0.248 N 
DOCKED: ATOM     27  N   UNL d   1      -2.465   5.260 -21.893 -0.04 -0.05    -0.248 N 
DOCKED: ATOM     28  N   UNL d   1      -3.338   7.937 -22.723 -0.05 -0.02    -0.248 N 
DOCKED: ATOM     29 FE   UNL d   1      -1.755   7.021 -21.834 -0.04 +0.00    +0.000 Fe
DOCKED: ENDROOT
DOCKED: BRANCH   6  30
DOCKED: ATOM     30  C   UNL d   1      -0.818  12.664 -22.675 -0.14 +0.01    +0.052 C 
DOCKED: BRANCH  30  31
DOCKED: ATOM     31  C   UNL d   1      -2.021  13.294 -21.974 -0.14 +0.04    +0.115 C 
DOCKED: BRANCH  31  32
DOCKED: ATOM     32  C   UNL d   1      -2.460  14.586 -22.629 -0.10 +0.08    +0.139 C 
DOCKED: ATOM     33  O   UNL d   1      -1.955  15.641 -22.274 -0.12 -0.82    -0.650 OA
DOCKED: BRANCH  32  34
DOCKED: ATOM     34  O   UNL d   1      -3.363  14.609 -23.636 +0.02 -0.27    -0.776 OA
DOCKED: ATOM     35  H   UNL d   1      -3.523  13.871 -24.241 +0.01 +0.04    +0.167 HD
DOCKED: ENDBRANCH  32  34
DOCKED: ENDBRANCH  31  32
DOCKED: ENDBRANCH  30  31
DOCKED: ENDBRANCH   6  30
DOCKED: BRANCH  29  36
DOCKED: ATOM     36  C   UNL d   1      -0.800   6.818 -23.690 -0.03 +0.00    +0.190 C 
DOCKED: BRANCH  36  37
DOCKED: ATOM     37  O   UNL d   1      -0.767   7.337 -24.988 -0.00 -0.01    -0.399 OA
DOCKED: ATOM     38  H   UNL d   1      -1.277   8.193 -24.936 +0.01 +0.00    +0.209 HD
DOCKED: ENDBRANCH  36  37
DOCKED: ENDBRANCH  29  36
DOCKED: BRANCH  22  39
DOCKED: ATOM     39  C   UNL d   1      -5.488  10.500 -24.383 -0.01 +0.00    +0.052 C 
DOCKED: BRANCH  39  40
DOCKED: ATOM     40  C   UNL d   1      -4.807  10.866 -25.713 -0.00 +0.01    +0.115 C 
DOCKED: BRANCH  40  41
DOCKED: ATOM     41  C   UNL d   1      -4.000  12.146 -25.670 -0.00 +0.01    +0.139 C 
DOCKED: ATOM     42  O   UNL d   1      -4.514  13.191 -26.044 +0.00 -0.06    -0.650 OA
DOCKED: BRANCH  41  43
DOCKED: ATOM     43  O   UNL d   1      -2.754  12.183 -25.147 +0.02 -0.07    -0.776 OA
DOCKED: ATOM     44  H   UNL d   1      -2.418  12.946 -24.659 +0.01 +0.02    +0.167 HD
DOCKED: ENDBRANCH  41  43
DOCKED: ENDBRANCH  40  41
DOCKED: ENDBRANCH  39  40
DOCKED: ENDBRANCH  22  39
DOCKED: BRANCH  12  45
DOCKED: ATOM     45  C   UNL d   1       1.907   3.768 -19.276 -0.35 -0.00    +0.004 C 
DOCKED: ATOM     46  C   UNL d   1       2.549   3.488 -18.145 -0.53 -0.00    +0.012 C 
DOCKED: ENDBRANCH  12  45
DOCKED: BRANCH  17  47
DOCKED: ATOM     47  C   UNL d   1      -4.811   2.743 -23.136 -0.12 +0.00    +0.004 C 
DOCKED: ATOM     48  C   UNL d   1      -4.986   2.691 -24.459 -0.06 +0.00    +0.012 C 
DOCKED: ENDBRANCH  17  47
DOCKED: TORSDOF 12
DOCKED: TER
DOCKED: ENDMDL
________________________________________________________________________________


	BEGINNING GENETIC ALGORITHM DOCKING 54 of 100
Run: 54 Seed: 492147054 1360609931 [ Run 54 of 100 GA/GALS ]
Beginning LAMARCKIAN GENETIC ALGORITHM (LGA), with a maximum of 25000000 energy evaluations.

Final-Value: -9.382


	FINAL GENETIC ALGORITHM DOCKED STATE
	_______________________________________________


Detailed state:  trans 0.984 -20.522 -4.409 quatxyzw 0.936501 -0.070150 0.014824 -0.343258 center 8.781 34.984 -0.736 ntor 12 49.8443 98.0622 51.1233 106.5522 137.8017 170.6805 -86.0101 -168.2962 -94.4825 71.3578 -20.8294 153.9946
State:	  0.984 -20.522  -4.409   0.997 -0.075  0.016 -139.849     49.84   98.06   51.12  106.55  137.80  170.68  -86.01 -168.30  -94.48   71.36  -20.83  153.99

DOCKED: MODEL       54
DOCKED: USER    Run = 54
DOCKED: USER    DPF = D:/Protein_go_brrr/autodock/final/mut_N102T/heme_Co/dock.dpf
DOCKED: USER  
DOCKED: USER    Estimated Free Energy of Binding    =   -4.88 kcal/mol  [=(1)+(2)+(3)-(4)]
DOCKED: USER    Estimated Inhibition Constant, Ki   =  266.72 uM (micromolar)  [Temperature = 298.15 K]
DOCKED: USER    
DOCKED: USER    (1) Final Intermolecular Energy     =   -8.46 kcal/mol
DOCKED: USER        vdW + Hbond + desolv Energy     =   -4.82 kcal/mol
DOCKED: USER        Electrostatic Energy            =   -3.64 kcal/mol
DOCKED: USER    (2) Final Total Internal Energy     =   -0.93 kcal/mol
DOCKED: USER    (3) Torsional Free Energy           =   +3.58 kcal/mol
DOCKED: USER    (4) Unbound System's Energy  [=(2)] =   -0.93 kcal/mol
DOCKED: USER    
DOCKED: USER    
DOCKED: USER    NEWDPF move heme_Co_opt.pdbqt
DOCKED: USER    NEWDPF about 8.781000 34.984000 -0.736000
DOCKED: USER    NEWDPF tran0 0.983968 -20.522280 -4.408534
DOCKED: USER    NEWDPF quaternion0 0.936501 -0.070150 0.014824 -0.343258
DOCKED: USER    NEWDPF axisangle0 0.997082 -0.074688 0.015783 -139.849071
DOCKED: USER    NEWDPF quat0 0.997082 -0.074688 0.015783 -139.849071
DOCKED: USER    NEWDPF dihe0 49.84 98.06 51.12 106.55 137.80 170.68 -86.01 -168.30 -94.48 71.36 -20.83 153.99 
DOCKED: USER  keepresnum = 1 
DOCKED: USER  
DOCKED: REMARK  12 active torsions:
DOCKED: REMARK  status: ('A' for Active; 'I' for Inactive)
DOCKED: REMARK    1  A    between atoms: C_6  and  C_10 
DOCKED: REMARK    2  A    between atoms: C_10  and  C_11 
DOCKED: REMARK    3  A    between atoms: C_11  and  C_12 
DOCKED: REMARK    4  A    between atoms: C_12  and  O_14 
DOCKED: REMARK    5  A    between atoms: C_17  and  C_20 
DOCKED: REMARK    6  A    between atoms: C_24  and  C_27 
DOCKED: REMARK    7  A    between atoms: C_31  and  C_34 
DOCKED: REMARK    8  A    between atoms: C_34  and  C_35 
DOCKED: REMARK    9  A    between atoms: C_35  and  C_36 
DOCKED: REMARK   10  A    between atoms: C_36  and  O_38 
DOCKED: REMARK   11  A    between atoms: FE_43  and  C_44 
DOCKED: REMARK   12  A    between atoms: C_44  and  O_45 
DOCKED: USER                              x       y       z     vdW  Elec       q    Type
DOCKED: USER                           _______ _______ _______ _____ _____    ______ ____
DOCKED: ROOT
DOCKED: ATOM      1  C   UNL d   1      -0.984 -20.116  -3.586 -0.11 +0.04    +0.064 A 
DOCKED: ATOM      2  C   UNL d   1       0.562 -20.671  -8.049 -0.12 +0.00    +0.064 C 
DOCKED: ATOM      3  C   UNL d   1       5.068 -20.975  -6.489 +0.03 -0.01    +0.064 A 
DOCKED: ATOM      4  C   UNL d   1       3.476 -20.797  -1.896 -0.15 +0.00    +0.064 A 
DOCKED: ATOM      5  C   UNL d   1      -0.889 -20.209  -4.923 -0.11 +0.03    +0.066 A 
DOCKED: ATOM      6  C   UNL d   1      -2.027 -20.233  -5.753 -0.09 -0.01    -0.021 A 
DOCKED: ATOM      7  C   UNL d   1      -1.573 -20.417  -7.045 -0.08 -0.01    -0.025 A 
DOCKED: ATOM      8  C   UNL d   1      -0.179 -20.481  -6.949 -0.09 +0.01    +0.066 A 
DOCKED: ATOM      9  C   UNL d   1      -2.408 -20.531  -8.330 -0.01 +0.02    +0.051 C 
DOCKED: ATOM     10  C   UNL d   1       2.003 -20.724  -8.052 -0.13 -0.00    +0.066 A 
DOCKED: ATOM     11  C   UNL d   1       2.843 -20.780  -9.185 -0.12 +0.00    -0.021 A 
DOCKED: ATOM     12  C   UNL d   1       4.151 -20.864  -8.702 -0.13 -0.00    +0.000 A 
DOCKED: ATOM     13  C   UNL d   1       4.014 -20.840  -7.313 -0.11 -0.01    +0.070 A 
DOCKED: ATOM     14  C   UNL d   1       2.409 -20.662 -10.624 -0.12 -0.01    +0.052 C 
DOCKED: ATOM     15  C   UNL d   1       5.102 -21.025  -5.041 +0.09 -0.00    +0.066 A 
DOCKED: ATOM     16  C   UNL d   1       6.208 -21.312  -4.253 -0.06 -0.00    -0.021 A 
DOCKED: ATOM     17  C   UNL d   1       5.754 -21.265  -2.927 -0.12 +0.00    +0.000 A 
DOCKED: ATOM     18  C   UNL d   1       4.405 -20.934  -3.011 -0.15 +0.00    +0.070 A 
DOCKED: ATOM     19  C   UNL d   1       7.598 -21.611  -4.768 -0.06 +0.00    +0.052 C 
DOCKED: ATOM     20  C   UNL d   1       2.144 -20.562  -1.957 -0.17 +0.01    +0.066 A 
DOCKED: ATOM     21  C   UNL d   1       1.349 -20.488  -0.815 -0.18 -0.00    -0.025 A 
DOCKED: ATOM     22  C   UNL d   1       0.063 -20.263  -1.270 -0.21 -0.01    -0.021 A 
DOCKED: ATOM     23  C   UNL d   1       0.135 -20.223  -2.679 -0.17 +0.02    +0.066 A 
DOCKED: ATOM     24  C   UNL d   1       1.789 -20.643   0.638 -0.15 +0.01    +0.051 C 
DOCKED: ATOM     25  N   UNL d   1       0.273 -20.349  -5.647 -0.06 -0.05    -0.248 N 
DOCKED: ATOM     26  N   UNL d   1       2.719 -20.699  -6.923 -0.10 +0.02    -0.248 N 
DOCKED: ATOM     27  N   UNL d   1       4.045 -20.829  -4.285 -0.12 +0.01    -0.248 N 
DOCKED: ATOM     28  N   UNL d   1       1.393 -20.406  -3.099 -0.12 -0.04    -0.248 N 
DOCKED: ATOM     29 FE   UNL d   1       2.270 -20.602  -4.922 -0.04 -0.00    +0.000 Fe
DOCKED: ENDROOT
DOCKED: BRANCH   6  30
DOCKED: ATOM     30  C   UNL d   1      -3.483 -20.164  -5.304 -0.10 +0.04    +0.052 C 
DOCKED: BRANCH  30  31
DOCKED: ATOM     31  C   UNL d   1      -3.771 -18.827  -4.622 +0.19 +0.18    +0.115 C 
DOCKED: BRANCH  31  32
DOCKED: ATOM     32  C   UNL d   1      -4.086 -17.728  -5.614 -0.12 +0.24    +0.139 C 
DOCKED: ATOM     33  O   UNL d   1      -4.915 -16.878  -5.326 -0.23 -1.39    -0.650 OA
DOCKED: BRANCH  32  34
DOCKED: ATOM     34  O   UNL d   1      -3.441 -17.626  -6.800 -0.39 -1.44    -0.776 OA
DOCKED: ATOM     35  H   UNL d   1      -3.275 -18.371  -7.394 +0.04 +0.19    +0.167 HD
DOCKED: ENDBRANCH  32  34
DOCKED: ENDBRANCH  31  32
DOCKED: ENDBRANCH  30  31
DOCKED: ENDBRANCH   6  30
DOCKED: BRANCH  29  36
DOCKED: ATOM     36  C   UNL d   1       1.884 -22.663  -4.912 -0.02 +0.01    +0.190 C 
DOCKED: BRANCH  36  37
DOCKED: ATOM     37  O   UNL d   1       1.004 -23.634  -5.401 +0.00 -0.03    -0.399 OA
DOCKED: ATOM     38  H   UNL d   1       0.210 -23.123  -5.722 +0.01 +0.02    +0.209 HD
DOCKED: ENDBRANCH  36  37
DOCKED: ENDBRANCH  29  36
DOCKED: BRANCH  22  39
DOCKED: ATOM     39  C   UNL d   1      -1.174 -20.159  -0.397 -0.19 +0.03    +0.052 C 
DOCKED: BRANCH  39  40
DOCKED: ATOM     40  C   UNL d   1      -2.016 -21.442  -0.493 -0.14 +0.05    +0.115 C 
DOCKED: BRANCH  40  41
DOCKED: ATOM     41  C   UNL d   1      -3.374 -21.251  -1.135 -0.14 +0.12    +0.139 C 
DOCKED: ATOM     42  O   UNL d   1      -3.944 -20.175  -1.022 -0.40 -1.32    -0.650 OA
DOCKED: BRANCH  41  43
DOCKED: ATOM     43  O   UNL d   1      -3.936 -22.209  -1.905 +0.02 -0.42    -0.776 OA
DOCKED: ATOM     44  H   UNL d   1      -4.105 -23.103  -1.581 +0.02 +0.05    +0.167 HD
DOCKED: ENDBRANCH  41  43
DOCKED: ENDBRANCH  40  41
DOCKED: ENDBRANCH  39  40
DOCKED: ENDBRANCH  22  39
DOCKED: BRANCH  12  45
DOCKED: ATOM     45  C   UNL d   1       5.508 -20.944  -9.387 -0.09 -0.00    +0.004 C 
DOCKED: ATOM     46  C   UNL d   1       6.406 -19.996  -9.646 -0.13 -0.00    +0.012 C 
DOCKED: ENDBRANCH  12  45
DOCKED: BRANCH  17  47
DOCKED: ATOM     47  C   UNL d   1       6.485 -21.552  -1.657 -0.07 +0.00    +0.004 C 
DOCKED: ATOM     48  C   UNL d   1       6.709 -20.635  -0.712 -0.12 +0.00    +0.012 C 
DOCKED: ENDBRANCH  17  47
DOCKED: TORSDOF 12
DOCKED: TER
DOCKED: ENDMDL
________________________________________________________________________________


	BEGINNING GENETIC ALGORITHM DOCKING 55 of 100
Run: 55 Seed: 1192460792 1109888567 [ Run 55 of 100 GA/GALS ]
Beginning LAMARCKIAN GENETIC ALGORITHM (LGA), with a maximum of 25000000 energy evaluations.

Final-Value: -9.858


	FINAL GENETIC ALGORITHM DOCKED STATE
	_______________________________________________


Detailed state:  trans -11.728 5.657 6.659 quatxyzw -0.563524 0.426516 0.654119 -0.269541 center 8.781 34.984 -0.736 ntor 12 54.4618 106.1372 -132.7236 116.6744 74.5387 109.9197 43.4474 114.3593 157.0000 137.2685 -154.6751 -179.9026
State:	-11.728   5.657   6.659  -0.585  0.443  0.679 -148.726     54.46  106.14 -132.72  116.67   74.54  109.92   43.45  114.36  157.00  137.27 -154.68 -179.90

DOCKED: MODEL       55
DOCKED: USER    Run = 55
DOCKED: USER    DPF = D:/Protein_go_brrr/autodock/final/mut_N102T/heme_Co/dock.dpf
DOCKED: USER  
DOCKED: USER    Estimated Free Energy of Binding    =   -2.40 kcal/mol  [=(1)+(2)+(3)-(4)]
DOCKED: USER    Estimated Inhibition Constant, Ki   =   17.29 mM (millimolar)  [Temperature = 298.15 K]
DOCKED: USER    
DOCKED: USER    (1) Final Intermolecular Energy     =   -5.98 kcal/mol
DOCKED: USER        vdW + Hbond + desolv Energy     =   -6.04 kcal/mol
DOCKED: USER        Electrostatic Energy            =   +0.05 kcal/mol
DOCKED: USER    (2) Final Total Internal Energy     =   -3.87 kcal/mol
DOCKED: USER    (3) Torsional Free Energy           =   +3.58 kcal/mol
DOCKED: USER    (4) Unbound System's Energy  [=(2)] =   -3.87 kcal/mol
DOCKED: USER    
DOCKED: USER    
DOCKED: USER    NEWDPF move heme_Co_opt.pdbqt
DOCKED: USER    NEWDPF about 8.781000 34.984000 -0.736000
DOCKED: USER    NEWDPF tran0 -11.728293 5.657156 6.659088
DOCKED: USER    NEWDPF quaternion0 -0.563524 0.426516 0.654119 -0.269541
DOCKED: USER    NEWDPF axisangle0 -0.585183 0.442909 0.679259 -148.726102
DOCKED: USER    NEWDPF quat0 -0.585183 0.442909 0.679259 -148.726102
DOCKED: USER    NEWDPF dihe0 54.46 106.14 -132.72 116.67 74.54 109.92 43.45 114.36 157.00 137.27 -154.68 -179.90 
DOCKED: USER  keepresnum = 1 
DOCKED: USER  
DOCKED: REMARK  12 active torsions:
DOCKED: REMARK  status: ('A' for Active; 'I' for Inactive)
DOCKED: REMARK    1  A    between atoms: C_6  and  C_10 
DOCKED: REMARK    2  A    between atoms: C_10  and  C_11 
DOCKED: REMARK    3  A    between atoms: C_11  and  C_12 
DOCKED: REMARK    4  A    between atoms: C_12  and  O_14 
DOCKED: REMARK    5  A    between atoms: C_17  and  C_20 
DOCKED: REMARK    6  A    between atoms: C_24  and  C_27 
DOCKED: REMARK    7  A    between atoms: C_31  and  C_34 
DOCKED: REMARK    8  A    between atoms: C_34  and  C_35 
DOCKED: REMARK    9  A    between atoms: C_35  and  C_36 
DOCKED: REMARK   10  A    between atoms: C_36  and  O_38 
DOCKED: REMARK   11  A    between atoms: FE_43  and  C_44 
DOCKED: REMARK   12  A    between atoms: C_44  and  O_45 
DOCKED: USER                              x       y       z     vdW  Elec       q    Type
DOCKED: USER                           _______ _______ _______ _____ _____    ______ ____
DOCKED: ROOT
DOCKED: ATOM      1  C   UNL d   1     -11.288   4.928   8.656 -0.15 +0.00    +0.064 A 
DOCKED: ATOM      2  C   UNL d   1     -11.243   9.291   6.767 -0.23 -0.01    +0.064 C 
DOCKED: ATOM      3  C   UNL d   1     -12.197   7.473   2.452 -0.13 +0.01    +0.064 A 
DOCKED: ATOM      4  C   UNL d   1     -12.630   3.048   4.427 -0.18 +0.00    +0.064 A 
DOCKED: ATOM      5  C   UNL d   1     -11.170   6.250   8.450 -0.28 -0.00    +0.066 A 
DOCKED: ATOM      6  C   UNL d   1     -10.956   7.155   9.508 -0.34 +0.00    -0.021 A 
DOCKED: ATOM      7  C   UNL d   1     -10.967   8.421   8.957 -0.27 +0.00    -0.025 A 
DOCKED: ATOM      8  C   UNL d   1     -11.169   8.234   7.586 -0.25 -0.01    +0.066 A 
DOCKED: ATOM      9  C   UNL d   1     -10.795   9.765   9.681 -0.23 -0.01    +0.051 C 
DOCKED: ATOM     10  C   UNL d   1     -11.422   9.195   5.339 -0.20 -0.01    +0.066 A 
DOCKED: ATOM     11  C   UNL d   1     -11.367  10.255   4.409 -0.14 +0.00    -0.021 A 
DOCKED: ATOM     12  C   UNL d   1     -11.645   9.696   3.158 -0.12 -0.00    +0.000 A 
DOCKED: ATOM     13  C   UNL d   1     -11.836   8.339   3.416 -0.16 +0.00    +0.070 A 
DOCKED: ATOM     14  C   UNL d   1     -10.978  11.681   4.704 -0.12 -0.00    +0.052 C 
DOCKED: ATOM     15  C   UNL d   1     -12.485   6.055   2.550 -0.11 +0.01    +0.066 A 
DOCKED: ATOM     16  C   UNL d   1     -12.995   5.247   1.544 -0.08 -0.00    -0.021 A 
DOCKED: ATOM     17  C   UNL d   1     -13.124   3.971   2.109 -0.11 +0.00    +0.000 A 
DOCKED: ATOM     18  C   UNL d   1     -12.665   4.098   3.416 -0.15 +0.01    +0.070 A 
DOCKED: ATOM     19  C   UNL d   1     -13.328   5.701   0.139 -0.03 +0.00    +0.052 C 
DOCKED: ATOM     20  C   UNL d   1     -12.271   3.168   5.727 -0.20 -0.00    +0.066 A 
DOCKED: ATOM     21  C   UNL d   1     -12.313   2.093   6.612 -0.23 +0.00    -0.025 A 
DOCKED: ATOM     22  C   UNL d   1     -11.904   2.598   7.833 -0.28 +0.00    -0.021 A 
DOCKED: ATOM     23  C   UNL d   1     -11.641   3.970   7.633 -0.24 +0.00    +0.066 A 
DOCKED: ATOM     24  C   UNL d   1     -12.742   0.658   6.316 -0.21 -0.02    +0.051 C 
DOCKED: ATOM     25  N   UNL d   1     -11.292   6.898   7.243 -0.08 +0.02    -0.248 N 
DOCKED: ATOM     26  N   UNL d   1     -11.646   8.028   4.726 -0.13 +0.01    -0.248 N 
DOCKED: ATOM     27  N   UNL d   1     -12.322   5.359   3.653 -0.07 -0.04    -0.248 N 
DOCKED: ATOM     28  N   UNL d   1     -11.864   4.320   6.360 -0.13 -0.00    -0.248 N 
DOCKED: ATOM     29 FE   UNL d   1     -11.837   6.080   5.343 -0.05 +0.00    +0.000 Fe
DOCKED: ENDROOT
DOCKED: BRANCH   6  30
DOCKED: ATOM     30  C   UNL d   1     -10.832   6.810  10.989 -0.31 +0.00    +0.052 C 
DOCKED: BRANCH  30  31
DOCKED: ATOM     31  C   UNL d   1     -12.182   6.367  11.552 -0.14 -0.00    +0.115 C 
DOCKED: BRANCH  31  32
DOCKED: ATOM     32  C   UNL d   1     -13.348   6.925  10.765 -0.05 -0.00    +0.139 C 
DOCKED: ATOM     33  O   UNL d   1     -13.782   8.034  11.039 +0.02 +0.02    -0.650 OA
DOCKED: BRANCH  32  34
DOCKED: ATOM     34  O   UNL d   1     -13.900   6.254   9.727 +0.05 +0.03    -0.776 OA
DOCKED: ATOM     35  H   UNL d   1     -14.181   5.329   9.766 +0.02 -0.01    +0.167 HD
DOCKED: ENDBRANCH  32  34
DOCKED: ENDBRANCH  31  32
DOCKED: ENDBRANCH  30  31
DOCKED: ENDBRANCH   6  30
DOCKED: BRANCH  29  36
DOCKED: ATOM     36  C   UNL d   1     -13.830   6.448   5.882 -0.05 -0.00    +0.190 C 
DOCKED: BRANCH  36  37
DOCKED: ATOM     37  O   UNL d   1     -14.739   6.326   6.937 -0.00 +0.01    -0.399 OA
DOCKED: ATOM     38  H   UNL d   1     -14.253   5.806   7.636 +0.03 -0.01    +0.209 HD
DOCKED: ENDBRANCH  36  37
DOCKED: ENDBRANCH  29  36
DOCKED: BRANCH  22  39
DOCKED: ATOM     39  C   UNL d   1     -11.834   1.815   9.131 -0.28 -0.01    +0.052 C 
DOCKED: BRANCH  39  40
DOCKED: ATOM     40  C   UNL d   1     -13.233   1.665   9.750 -0.11 -0.01    +0.115 C 
DOCKED: BRANCH  40  41
DOCKED: ATOM     41  C   UNL d   1     -14.025   2.953   9.825 -0.05 -0.01    +0.139 C 
DOCKED: ATOM     42  O   UNL d   1     -14.194   3.489  10.911 +0.02 +0.03    -0.650 OA
DOCKED: BRANCH  41  43
DOCKED: ATOM     43  O   UNL d   1     -14.476   3.575   8.713 +0.04 +0.05    -0.776 OA
DOCKED: ATOM     44  H   UNL d   1     -14.289   4.504   8.525 +0.02 -0.01    +0.167 HD
DOCKED: ENDBRANCH  41  43
DOCKED: ENDBRANCH  40  41
DOCKED: ENDBRANCH  39  40
DOCKED: ENDBRANCH  22  39
DOCKED: BRANCH  12  45
DOCKED: ATOM     45  C   UNL d   1     -11.733  10.282   1.756 -0.07 -0.00    +0.004 C 
DOCKED: ATOM     46  C   UNL d   1     -10.916  10.158   0.713 -0.07 -0.00    +0.012 C 
DOCKED: ENDBRANCH  12  45
DOCKED: BRANCH  17  47
DOCKED: ATOM     47  C   UNL d   1     -13.678   2.717   1.517 -0.10 +0.00    +0.004 C 
DOCKED: ATOM     48  C   UNL d   1     -13.268   2.207   0.353 -0.12 +0.01    +0.012 C 
DOCKED: ENDBRANCH  17  47
DOCKED: TORSDOF 12
DOCKED: TER
DOCKED: ENDMDL
________________________________________________________________________________


	BEGINNING GENETIC ALGORITHM DOCKING 56 of 100
Run: 56 Seed: 453364811 580379157 [ Run 56 of 100 GA/GALS ]
Beginning LAMARCKIAN GENETIC ALGORITHM (LGA), with a maximum of 25000000 energy evaluations.

Final-Value: -9.330


	FINAL GENETIC ALGORITHM DOCKED STATE
	_______________________________________________


Detailed state:  trans -2.082 8.204 -22.405 quatxyzw 0.535308 -0.560658 0.512405 0.369526 center 8.781 34.984 -0.736 ntor 12 81.7440 107.3645 -113.2300 45.7027 -89.8306 121.3282 13.7136 -0.4301 9.3105 -26.8264 -13.5142 40.2075
State:	 -2.082   8.204 -22.405   0.576 -0.603  0.551 136.627     81.74  107.36 -113.23   45.70  -89.83  121.33   13.71   -0.43    9.31  -26.83  -13.51   40.21

DOCKED: MODEL       56
DOCKED: USER    Run = 56
DOCKED: USER    DPF = D:/Protein_go_brrr/autodock/final/mut_N102T/heme_Co/dock.dpf
DOCKED: USER  
DOCKED: USER    Estimated Free Energy of Binding    =   -3.59 kcal/mol  [=(1)+(2)+(3)-(4)]
DOCKED: USER    Estimated Inhibition Constant, Ki   =    2.32 mM (millimolar)  [Temperature = 298.15 K]
DOCKED: USER    
DOCKED: USER    (1) Final Intermolecular Energy     =   -7.17 kcal/mol
DOCKED: USER        vdW + Hbond + desolv Energy     =   -5.99 kcal/mol
DOCKED: USER        Electrostatic Energy            =   -1.19 kcal/mol
DOCKED: USER    (2) Final Total Internal Energy     =   -2.16 kcal/mol
DOCKED: USER    (3) Torsional Free Energy           =   +3.58 kcal/mol
DOCKED: USER    (4) Unbound System's Energy  [=(2)] =   -2.16 kcal/mol
DOCKED: USER    
DOCKED: USER    
DOCKED: USER    NEWDPF move heme_Co_opt.pdbqt
DOCKED: USER    NEWDPF about 8.781000 34.984000 -0.736000
DOCKED: USER    NEWDPF tran0 -2.081524 8.204018 -22.405476
DOCKED: USER    NEWDPF quaternion0 0.535308 -0.560658 0.512405 0.369526
DOCKED: USER    NEWDPF axisangle0 0.576083 -0.603364 0.551436 136.627215
DOCKED: USER    NEWDPF quat0 0.576083 -0.603364 0.551436 136.627215
DOCKED: USER    NEWDPF dihe0 81.74 107.36 -113.23 45.70 -89.83 121.33 13.71 -0.43 9.31 -26.83 -13.51 40.21 
DOCKED: USER  keepresnum = 1 
DOCKED: USER  
DOCKED: REMARK  12 active torsions:
DOCKED: REMARK  status: ('A' for Active; 'I' for Inactive)
DOCKED: REMARK    1  A    between atoms: C_6  and  C_10 
DOCKED: REMARK    2  A    between atoms: C_10  and  C_11 
DOCKED: REMARK    3  A    between atoms: C_11  and  C_12 
DOCKED: REMARK    4  A    between atoms: C_12  and  O_14 
DOCKED: REMARK    5  A    between atoms: C_17  and  C_20 
DOCKED: REMARK    6  A    between atoms: C_24  and  C_27 
DOCKED: REMARK    7  A    between atoms: C_31  and  C_34 
DOCKED: REMARK    8  A    between atoms: C_34  and  C_35 
DOCKED: REMARK    9  A    between atoms: C_35  and  C_36 
DOCKED: REMARK   10  A    between atoms: C_36  and  O_38 
DOCKED: REMARK   11  A    between atoms: FE_43  and  C_44 
DOCKED: REMARK   12  A    between atoms: C_44  and  O_45 
DOCKED: USER                              x       y       z     vdW  Elec       q    Type
DOCKED: USER                           _______ _______ _______ _____ _____    ______ ____
DOCKED: ROOT
DOCKED: ATOM      1  C   UNL d   1      -2.713  10.201 -22.978 -0.08 +0.00    +0.064 A 
DOCKED: ATOM      2  C   UNL d   1       1.279   8.562 -20.982 -0.25 -0.00    +0.064 C 
DOCKED: ATOM      3  C   UNL d   1      -0.608   4.180 -20.716 -0.19 +0.00    +0.064 A 
DOCKED: ATOM      4  C   UNL d   1      -4.547   5.747 -23.104 -0.14 +0.01    +0.064 A 
DOCKED: ATOM      5  C   UNL d   1      -1.497  10.083 -22.419 -0.13 +0.00    +0.066 A 
DOCKED: ATOM      6  C   UNL d   1      -0.589  11.158 -22.371 -0.15 -0.00    -0.021 A 
DOCKED: ATOM      7  C   UNL d   1       0.576  10.671 -21.812 -0.19 +0.00    -0.025 A 
DOCKED: ATOM      8  C   UNL d   1       0.323   9.325 -21.527 -0.21 -0.00    +0.066 A 
DOCKED: ATOM      9  C   UNL d   1       1.886  11.431 -21.550 -0.19 -0.00    +0.051 C 
DOCKED: ATOM     10  C   UNL d   1       1.103   7.175 -20.630 -0.23 -0.01    +0.066 A 
DOCKED: ATOM     11  C   UNL d   1       2.017   6.359 -19.928 -0.26 +0.00    -0.021 A 
DOCKED: ATOM     12  C   UNL d   1       1.440   5.088 -19.862 -0.26 -0.00    +0.000 A 
DOCKED: ATOM     13  C   UNL d   1       0.214   5.225 -20.514 -0.23 -0.00    +0.070 A 
DOCKED: ATOM     14  C   UNL d   1       3.306   6.809 -19.290 -0.25 -0.02    +0.052 C 
DOCKED: ATOM     15  C   UNL d   1      -1.879   4.132 -21.412 -0.20 +0.01    +0.066 A 
DOCKED: ATOM     16  C   UNL d   1      -2.610   2.991 -21.712 -0.24 -0.00    -0.021 A 
DOCKED: ATOM     17  C   UNL d   1      -3.746   3.437 -22.402 -0.21 +0.00    +0.000 A 
DOCKED: ATOM     18  C   UNL d   1      -3.626   4.822 -22.455 -0.17 +0.01    +0.070 A 
DOCKED: ATOM     19  C   UNL d   1      -2.217   1.576 -21.347 -0.26 +0.00    +0.052 C 
DOCKED: ATOM     20  C   UNL d   1      -4.407   7.087 -23.242 -0.09 +0.01    +0.066 A 
DOCKED: ATOM     21  C   UNL d   1      -5.344   7.865 -23.920 -0.05 -0.00    -0.025 A 
DOCKED: ATOM     22  C   UNL d   1      -4.856   9.159 -23.874 -0.04 -0.00    -0.021 A 
DOCKED: ATOM     23  C   UNL d   1      -3.631   9.103 -23.177 -0.07 +0.00    +0.066 A 
DOCKED: ATOM     24  C   UNL d   1      -6.630   7.398 -24.595 -0.03 +0.00    +0.051 C 
DOCKED: ATOM     25  N   UNL d   1      -0.955   8.935 -21.887 -0.11 +0.01    -0.248 N 
DOCKED: ATOM     26  N   UNL d   1      -0.013   6.500 -20.928 -0.16 +0.01    -0.248 N 
DOCKED: ATOM     27  N   UNL d   1      -2.488   5.198 -21.882 -0.04 -0.05    -0.248 N 
DOCKED: ATOM     28  N   UNL d   1      -3.354   7.850 -22.794 -0.05 -0.02    -0.248 N 
DOCKED: ATOM     29 FE   UNL d   1      -1.770   6.957 -21.885 -0.04 +0.00    +0.000 Fe
DOCKED: ENDROOT
DOCKED: BRANCH   6  30
DOCKED: ATOM     30  C   UNL d   1      -0.814  12.564 -22.918 -0.12 +0.01    +0.052 C 
DOCKED: BRANCH  30  31
DOCKED: ATOM     31  C   UNL d   1      -1.835  13.315 -22.064 -0.16 +0.04    +0.115 C 
DOCKED: BRANCH  31  32
DOCKED: ATOM     32  C   UNL d   1      -2.225  14.647 -22.669 -0.10 +0.08    +0.139 C 
DOCKED: ATOM     33  O   UNL d   1      -1.953  15.679 -22.074 -0.03 -0.92    -0.650 OA
DOCKED: BRANCH  32  34
DOCKED: ATOM     34  O   UNL d   1      -2.826  14.738 -23.878 +0.01 -0.28    -0.776 OA
DOCKED: ATOM     35  H   UNL d   1      -3.762  14.554 -24.035 +0.01 +0.05    +0.167 HD
DOCKED: ENDBRANCH  32  34
DOCKED: ENDBRANCH  31  32
DOCKED: ENDBRANCH  30  31
DOCKED: ENDBRANCH   6  30
DOCKED: BRANCH  29  36
DOCKED: ATOM     36  C   UNL d   1      -0.828   6.688 -23.739 -0.03 +0.00    +0.190 C 
DOCKED: BRANCH  36  37
DOCKED: ATOM     37  O   UNL d   1      -0.457   7.361 -24.908 +0.00 -0.00    -0.399 OA
DOCKED: ATOM     38  H   UNL d   1      -0.853   8.272 -24.816 +0.01 +0.00    +0.209 HD
DOCKED: ENDBRANCH  36  37
DOCKED: ENDBRANCH  29  36
DOCKED: BRANCH  22  39
DOCKED: ATOM     39  C   UNL d   1      -5.504  10.366 -24.525 -0.01 +0.00    +0.052 C 
DOCKED: BRANCH  39  40
DOCKED: ATOM     40  C   UNL d   1      -5.369  11.605 -23.624 -0.02 +0.01    +0.115 C 
DOCKED: BRANCH  40  41
DOCKED: ATOM     41  C   UNL d   1      -5.243  12.914 -24.376 -0.01 +0.02    +0.139 C 
DOCKED: ATOM     42  O   UNL d   1      -5.862  13.892 -23.982 +0.01 -0.09    -0.650 OA
DOCKED: BRANCH  41  43
DOCKED: ATOM     43  O   UNL d   1      -4.398  13.054 -25.421 +0.01 -0.08    -0.776 OA
DOCKED: ATOM     44  H   UNL d   1      -3.576  13.558 -25.360 +0.01 +0.02    +0.167 HD
DOCKED: ENDBRANCH  41  43
DOCKED: ENDBRANCH  40  41
DOCKED: ENDBRANCH  39  40
DOCKED: ENDBRANCH  22  39
DOCKED: BRANCH  12  45
DOCKED: ATOM     45  C   UNL d   1       1.894   3.773 -19.244 -0.35 -0.00    +0.004 C 
DOCKED: ATOM     46  C   UNL d   1       2.557   3.529 -18.116 -0.54 -0.00    +0.012 C 
DOCKED: ENDBRANCH  12  45
DOCKED: BRANCH  17  47
DOCKED: ATOM     47  C   UNL d   1      -4.853   2.652 -23.026 -0.11 +0.00    +0.004 C 
DOCKED: ATOM     48  C   UNL d   1      -5.048   2.571 -24.344 -0.07 +0.00    +0.012 C 
DOCKED: ENDBRANCH  17  47
DOCKED: TORSDOF 12
DOCKED: TER
DOCKED: ENDMDL
________________________________________________________________________________


	BEGINNING GENETIC ALGORITHM DOCKING 57 of 100
Run: 57 Seed: 723756688 1592761763 [ Run 57 of 100 GA/GALS ]
Beginning LAMARCKIAN GENETIC ALGORITHM (LGA), with a maximum of 25000000 energy evaluations.

Final-Value: -11.114


	FINAL GENETIC ALGORITHM DOCKED STATE
	_______________________________________________


Detailed state:  trans 12.795 -7.081 5.343 quatxyzw -0.606715 -0.585344 0.387149 0.373343 center 8.781 34.984 -0.736 ntor 12 -130.9481 114.6818 -47.8090 4.8666 114.0641 132.8083 -137.6637 98.4672 133.6302 -104.2383 3.0231 -45.5957
State:	 12.795  -7.081   5.343  -0.654 -0.631  0.417 136.156   -130.95  114.68  -47.81    4.87  114.06  132.81 -137.66   98.47  133.63 -104.24    3.02  -45.60

DOCKED: MODEL       57
DOCKED: USER    Run = 57
DOCKED: USER    DPF = D:/Protein_go_brrr/autodock/final/mut_N102T/heme_Co/dock.dpf
DOCKED: USER  
DOCKED: USER    Estimated Free Energy of Binding    =   -5.90 kcal/mol  [=(1)+(2)+(3)-(4)]
DOCKED: USER    Estimated Inhibition Constant, Ki   =   47.16 uM (micromolar)  [Temperature = 298.15 K]
DOCKED: USER    
DOCKED: USER    (1) Final Intermolecular Energy     =   -9.48 kcal/mol
DOCKED: USER        vdW + Hbond + desolv Energy     =   -6.56 kcal/mol
DOCKED: USER        Electrostatic Energy            =   -2.92 kcal/mol
DOCKED: USER    (2) Final Total Internal Energy     =   -1.63 kcal/mol
DOCKED: USER    (3) Torsional Free Energy           =   +3.58 kcal/mol
DOCKED: USER    (4) Unbound System's Energy  [=(2)] =   -1.63 kcal/mol
DOCKED: USER    
DOCKED: USER    
DOCKED: USER    NEWDPF move heme_Co_opt.pdbqt
DOCKED: USER    NEWDPF about 8.781000 34.984000 -0.736000
DOCKED: USER    NEWDPF tran0 12.794701 -7.081085 5.342581
DOCKED: USER    NEWDPF quaternion0 -0.606715 -0.585344 0.387149 0.373343
DOCKED: USER    NEWDPF axisangle0 -0.654004 -0.630967 0.417324 136.156155
DOCKED: USER    NEWDPF quat0 -0.654004 -0.630967 0.417324 136.156155
DOCKED: USER    NEWDPF dihe0 -130.95 114.68 -47.81 4.87 114.06 132.81 -137.66 98.47 133.63 -104.24 3.02 -45.60 
DOCKED: USER  keepresnum = 1 
DOCKED: USER  
DOCKED: REMARK  12 active torsions:
DOCKED: REMARK  status: ('A' for Active; 'I' for Inactive)
DOCKED: REMARK    1  A    between atoms: C_6  and  C_10 
DOCKED: REMARK    2  A    between atoms: C_10  and  C_11 
DOCKED: REMARK    3  A    between atoms: C_11  and  C_12 
DOCKED: REMARK    4  A    between atoms: C_12  and  O_14 
DOCKED: REMARK    5  A    between atoms: C_17  and  C_20 
DOCKED: REMARK    6  A    between atoms: C_24  and  C_27 
DOCKED: REMARK    7  A    between atoms: C_31  and  C_34 
DOCKED: REMARK    8  A    between atoms: C_34  and  C_35 
DOCKED: REMARK    9  A    between atoms: C_35  and  C_36 
DOCKED: REMARK   10  A    between atoms: C_36  and  O_38 
DOCKED: REMARK   11  A    between atoms: FE_43  and  C_44 
DOCKED: REMARK   12  A    between atoms: C_44  and  O_45 
DOCKED: USER                              x       y       z     vdW  Elec       q    Type
DOCKED: USER                           _______ _______ _______ _____ _____    ______ ____
DOCKED: ROOT
DOCKED: ATOM      1  C   UNL d   1      13.292  -7.144   7.455 -0.07 +0.05    +0.064 A 
DOCKED: ATOM      2  C   UNL d   1      10.531  -9.903   4.740 -0.19 +0.01    +0.064 C 
DOCKED: ATOM      3  C   UNL d   1      11.226  -6.995   1.013 -0.20 -0.05    +0.064 A 
DOCKED: ATOM      4  C   UNL d   1      14.358  -4.375   3.658 -0.11 +0.01    +0.064 A 
DOCKED: ATOM      5  C   UNL d   1      12.457  -8.091   6.997 -0.09 +0.04    +0.066 A 
DOCKED: ATOM      6  C   UNL d   1      12.065  -9.188   7.789 -0.08 -0.01    -0.021 A 
DOCKED: ATOM      7  C   UNL d   1      11.282  -9.997   6.989 -0.13 -0.01    -0.025 A 
DOCKED: ATOM      8  C   UNL d   1      11.217  -9.352   5.749 -0.11 +0.01    +0.066 A 
DOCKED: ATOM      9  C   UNL d   1      10.615 -11.329   7.363 -0.18 +0.01    +0.051 C 
DOCKED: ATOM     10  C   UNL d   1      10.386  -9.300   3.439 -0.16 -0.00    +0.066 A 
DOCKED: ATOM     11  C   UNL d   1       9.566  -9.756   2.384 -0.26 +0.00    -0.021 A 
DOCKED: ATOM     12  C   UNL d   1       9.785  -8.888   1.311 -0.30 -0.00    +0.000 A 
DOCKED: ATOM     13  C   UNL d   1      10.710  -7.961   1.793 -0.19 -0.02    +0.070 A 
DOCKED: ATOM     14  C   UNL d   1       8.575 -10.890   2.451 -0.46 -0.00    +0.052 C 
DOCKED: ATOM     15  C   UNL d   1      12.224  -5.992   1.330 -0.21 -0.03    +0.066 A 
DOCKED: ATOM     16  C   UNL d   1      12.820  -5.114   0.437 -0.25 +0.01    -0.021 A 
DOCKED: ATOM     17  C   UNL d   1      13.726  -4.358   1.194 -0.17 -0.00    +0.000 A 
DOCKED: ATOM     18  C   UNL d   1      13.598  -4.825   2.498 -0.13 +0.00    +0.070 A 
DOCKED: ATOM     19  C   UNL d   1      12.521  -5.030  -1.044 -0.01 -0.05    +0.052 C 
DOCKED: ATOM     20  C   UNL d   1      14.312  -4.873   4.917 -0.09 +0.03    +0.066 A 
DOCKED: ATOM     21  C   UNL d   1      15.118  -4.381   5.940 -0.10 -0.01    -0.025 A 
DOCKED: ATOM     22  C   UNL d   1      14.812  -5.141   7.055 -0.08 -0.01    -0.021 A 
DOCKED: ATOM     23  C   UNL d   1      13.835  -6.074   6.649 -0.02 +0.05    +0.066 A 
DOCKED: ATOM     24  C   UNL d   1      16.146  -3.255   5.857 -0.06 +0.01    +0.051 C 
DOCKED: ATOM     25  N   UNL d   1      11.931  -8.166   5.728 -0.06 -0.09    -0.248 N 
DOCKED: ATOM     26  N   UNL d   1      11.030  -8.179   3.097 -0.06 +0.01    -0.248 N 
DOCKED: ATOM     27  N   UNL d   1      12.717  -5.818   2.536 -0.08 +0.01    -0.248 N 
DOCKED: ATOM     28  N   UNL d   1      13.531  -5.917   5.355 -0.03 -0.15    -0.248 N 
DOCKED: ATOM     29 FE   UNL d   1      12.349  -6.920   4.039 -0.03 +0.00    +0.000 Fe
DOCKED: ENDROOT
DOCKED: BRANCH   6  30
DOCKED: ATOM     30  C   UNL d   1      12.497  -9.475   9.223 -0.06 +0.02    +0.052 C 
DOCKED: BRANCH  30  31
DOCKED: ATOM     31  C   UNL d   1      11.571  -8.772  10.215 -0.10 +0.05    +0.115 C 
DOCKED: BRANCH  31  32
DOCKED: ATOM     32  C   UNL d   1      11.346  -7.317   9.862 -0.08 +0.13    +0.139 C 
DOCKED: ATOM     33  O   UNL d   1      10.387  -7.007   9.172 -0.33 -0.79    -0.650 OA
DOCKED: BRANCH  32  34
DOCKED: ATOM     34  O   UNL d   1      12.151  -6.333  10.328 -0.11 -0.91    -0.776 OA
DOCKED: ATOM     35  H   UNL d   1      11.831  -5.495  10.690 +0.01 +0.23    +0.167 HD
DOCKED: ENDBRANCH  32  34
DOCKED: ENDBRANCH  31  32
DOCKED: ENDBRANCH  30  31
DOCKED: ENDBRANCH   6  30
DOCKED: BRANCH  29  36
DOCKED: ATOM     36  C   UNL d   1      13.918  -8.238   3.598 -0.01 +0.00    +0.190 C 
DOCKED: BRANCH  36  37
DOCKED: ATOM     37  O   UNL d   1      14.764  -9.195   4.168 +0.00 -0.01    -0.399 OA
DOCKED: ATOM     38  H   UNL d   1      14.476  -9.255   5.122 +0.01 +0.02    +0.209 HD
DOCKED: ENDBRANCH  36  37
DOCKED: ENDBRANCH  29  36
DOCKED: BRANCH  22  39
DOCKED: ATOM     39  C   UNL d   1      15.473  -5.015   8.414 -0.06 +0.03    +0.052 C 
DOCKED: BRANCH  39  40
DOCKED: ATOM     40  C   UNL d   1      15.360  -3.575   8.942 -0.06 +0.07    +0.115 C 
DOCKED: BRANCH  40  41
DOCKED: ATOM     41  C   UNL d   1      13.958  -3.165   9.343 +0.19 +0.17    +0.139 C 
DOCKED: ATOM     42  O   UNL d   1      13.451  -2.180   8.824 -0.36 -0.83    -0.650 OA
DOCKED: BRANCH  41  43
DOCKED: ATOM     43  O   UNL d   1      13.217  -3.908  10.195 -0.33 -1.17    -0.776 OA
DOCKED: ATOM     44  H   UNL d   1      13.190  -4.873  10.153 +0.00 +0.24    +0.167 HD
DOCKED: ENDBRANCH  41  43
DOCKED: ENDBRANCH  40  41
DOCKED: ENDBRANCH  39  40
DOCKED: ENDBRANCH  22  39
DOCKED: BRANCH  12  45
DOCKED: ATOM     45  C   UNL d   1       9.216  -8.816  -0.100 -0.45 -0.00    +0.004 C 
DOCKED: ATOM     46  C   UNL d   1       8.373  -9.625  -0.736 -0.56 -0.00    +0.012 C 
DOCKED: ENDBRANCH  12  45
DOCKED: BRANCH  17  47
DOCKED: ATOM     47  C   UNL d   1      14.692  -3.306   0.756 -0.14 -0.00    +0.004 C 
DOCKED: ATOM     48  C   UNL d   1      14.405  -2.002   0.742 -0.23 +0.00    +0.012 C 
DOCKED: ENDBRANCH  17  47
DOCKED: TORSDOF 12
DOCKED: TER
DOCKED: ENDMDL
________________________________________________________________________________


	BEGINNING GENETIC ALGORITHM DOCKING 58 of 100
Run: 58 Seed: 139739121 1532542548 [ Run 58 of 100 GA/GALS ]
Beginning LAMARCKIAN GENETIC ALGORITHM (LGA), with a maximum of 25000000 energy evaluations.

Final-Value: -11.311


	FINAL GENETIC ALGORITHM DOCKED STATE
	_______________________________________________


Detailed state:  trans 10.983 0.807 13.891 quatxyzw 0.724470 0.004753 0.685552 0.071689 center 8.781 34.984 -0.736 ntor 12 -97.2646 126.3615 -156.1652 88.0011 136.6839 127.4776 65.3759 141.0034 -122.1568 112.2328 164.6586 172.7792
State:	 10.983   0.807  13.891   0.726  0.005  0.687 171.778    -97.26  126.36 -156.17   88.00  136.68  127.48   65.38  141.00 -122.16  112.23  164.66  172.78

DOCKED: MODEL       58
DOCKED: USER    Run = 58
DOCKED: USER    DPF = D:/Protein_go_brrr/autodock/final/mut_N102T/heme_Co/dock.dpf
DOCKED: USER  
DOCKED: USER    Estimated Free Energy of Binding    =   -4.39 kcal/mol  [=(1)+(2)+(3)-(4)]
DOCKED: USER    Estimated Inhibition Constant, Ki   =  609.55 uM (micromolar)  [Temperature = 298.15 K]
DOCKED: USER    
DOCKED: USER    (1) Final Intermolecular Energy     =   -7.97 kcal/mol
DOCKED: USER        vdW + Hbond + desolv Energy     =   -5.75 kcal/mol
DOCKED: USER        Electrostatic Energy            =   -2.21 kcal/mol
DOCKED: USER    (2) Final Total Internal Energy     =   -3.34 kcal/mol
DOCKED: USER    (3) Torsional Free Energy           =   +3.58 kcal/mol
DOCKED: USER    (4) Unbound System's Energy  [=(2)] =   -3.34 kcal/mol
DOCKED: USER    
DOCKED: USER    
DOCKED: USER    NEWDPF move heme_Co_opt.pdbqt
DOCKED: USER    NEWDPF about 8.781000 34.984000 -0.736000
DOCKED: USER    NEWDPF tran0 10.983127 0.806843 13.890681
DOCKED: USER    NEWDPF quaternion0 0.724470 0.004753 0.685552 0.071689
DOCKED: USER    NEWDPF axisangle0 0.726339 0.004765 0.687320 171.778049
DOCKED: USER    NEWDPF quat0 0.726339 0.004765 0.687320 171.778049
DOCKED: USER    NEWDPF dihe0 -97.26 126.36 -156.17 88.00 136.68 127.48 65.38 141.00 -122.16 112.23 164.66 172.78 
DOCKED: USER  keepresnum = 1 
DOCKED: USER  
DOCKED: REMARK  12 active torsions:
DOCKED: REMARK  status: ('A' for Active; 'I' for Inactive)
DOCKED: REMARK    1  A    between atoms: C_6  and  C_10 
DOCKED: REMARK    2  A    between atoms: C_10  and  C_11 
DOCKED: REMARK    3  A    between atoms: C_11  and  C_12 
DOCKED: REMARK    4  A    between atoms: C_12  and  O_14 
DOCKED: REMARK    5  A    between atoms: C_17  and  C_20 
DOCKED: REMARK    6  A    between atoms: C_24  and  C_27 
DOCKED: REMARK    7  A    between atoms: C_31  and  C_34 
DOCKED: REMARK    8  A    between atoms: C_34  and  C_35 
DOCKED: REMARK    9  A    between atoms: C_35  and  C_36 
DOCKED: REMARK   10  A    between atoms: C_36  and  O_38 
DOCKED: REMARK   11  A    between atoms: FE_43  and  C_44 
DOCKED: REMARK   12  A    between atoms: C_44  and  O_45 
DOCKED: USER                              x       y       z     vdW  Elec       q    Type
DOCKED: USER                           _______ _______ _______ _____ _____    ______ ____
DOCKED: ROOT
DOCKED: ATOM      1  C   UNL d   1      10.076   0.396  11.961 -0.21 +0.02    +0.064 A 
DOCKED: ATOM      2  C   UNL d   1      13.579   3.326  13.286 -0.18 +0.03    +0.064 C 
DOCKED: ATOM      3  C   UNL d   1      12.839   2.199  17.869 -0.10 +0.03    +0.064 A 
DOCKED: ATOM      4  C   UNL d   1       9.519  -1.087  16.512 -0.07 +0.02    +0.064 A 
DOCKED: ATOM      5  C   UNL d   1      11.063   1.307  11.989 -0.23 +0.02    +0.066 A 
DOCKED: ATOM      6  C   UNL d   1      11.623   1.839  10.811 -0.34 -0.01    -0.021 A 
DOCKED: ATOM      7  C   UNL d   1      12.654   2.671  11.201 -0.26 -0.01    -0.025 A 
DOCKED: ATOM      8  C   UNL d   1      12.669   2.624  12.599 -0.19 +0.02    +0.066 A 
DOCKED: ATOM      9  C   UNL d   1      13.598   3.485  10.303 -0.20 +0.01    +0.051 C 
DOCKED: ATOM     10  C   UNL d   1      13.654   3.360  14.725 -0.11 +0.04    +0.066 A 
DOCKED: ATOM     11  C   UNL d   1      14.494   4.184  15.506 -0.08 -0.01    -0.021 A 
DOCKED: ATOM     12  C   UNL d   1      14.254   3.837  16.839 -0.06 +0.00    +0.000 A 
DOCKED: ATOM     13  C   UNL d   1      13.281   2.840  16.773 -0.12 +0.05    +0.070 A 
DOCKED: ATOM     14  C   UNL d   1      15.385   5.287  14.998 -0.10 +0.02    +0.052 C 
DOCKED: ATOM     15  C   UNL d   1      11.882   1.116  17.978 -0.09 +0.02    +0.066 A 
DOCKED: ATOM     16  C   UNL d   1      11.577   0.399  19.127 -0.06 -0.01    -0.021 A 
DOCKED: ATOM     17  C   UNL d   1      10.622  -0.551  18.740 -0.07 +0.00    +0.000 A 
DOCKED: ATOM     18  C   UNL d   1      10.406  -0.328  17.385 -0.04 +0.02    +0.070 A 
DOCKED: ATOM     19  C   UNL d   1      12.182   0.634  20.494 -0.02 +0.01    +0.052 C 
DOCKED: ATOM     20  C   UNL d   1       9.357  -0.944  15.175 -0.09 +0.02    +0.066 A 
DOCKED: ATOM     21  C   UNL d   1       8.500  -1.759  14.438 -0.11 -0.00    -0.025 A 
DOCKED: ATOM     22  C   UNL d   1       8.618  -1.336  13.127 -0.18 -0.00    -0.021 A 
DOCKED: ATOM     23  C   UNL d   1       9.558  -0.283  13.127 -0.17 +0.02    +0.066 A 
DOCKED: ATOM     24  C   UNL d   1       7.626  -2.899  14.955 -0.12 +0.01    +0.051 C 
DOCKED: ATOM     25  N   UNL d   1      11.690   1.791  13.115 -0.12 -0.08    -0.248 N 
DOCKED: ATOM     26  N   UNL d   1      12.879   2.592  15.498 -0.11 -0.15    -0.248 N 
DOCKED: ATOM     27  N   UNL d   1      11.195   0.652  16.958 -0.09 -0.09    -0.248 N 
DOCKED: ATOM     28  N   UNL d   1      10.009  -0.044  14.364 -0.10 -0.07    -0.248 N 
DOCKED: ATOM     29 FE   UNL d   1      11.425   1.186  15.149 -0.03 +0.00    +0.000 Fe
DOCKED: ENDROOT
DOCKED: BRANCH   6  30
DOCKED: ATOM     30  C   UNL d   1      11.229   1.491   9.379 -0.40 +0.02    +0.052 C 
DOCKED: BRANCH  30  31
DOCKED: ATOM     31  C   UNL d   1      12.350   0.716   8.687 -0.34 +0.04    +0.115 C 
DOCKED: BRANCH  31  32
DOCKED: ATOM     32  C   UNL d   1      12.744  -0.532   9.447 -0.18 +0.08    +0.139 C 
DOCKED: ATOM     33  O   UNL d   1      13.233  -0.428  10.562 +0.05 -0.28    -0.650 OA
DOCKED: BRANCH  32  34
DOCKED: ATOM     34  O   UNL d   1      12.527  -1.772   8.951 -0.15 -1.04    -0.776 OA
DOCKED: ATOM     35  H   UNL d   1      11.799  -2.348   9.224 +0.03 +0.37    +0.167 HD
DOCKED: ENDBRANCH  32  34
DOCKED: ENDBRANCH  31  32
DOCKED: ENDBRANCH  30  31
DOCKED: ENDBRANCH   6  30
DOCKED: BRANCH  29  36
DOCKED: ATOM     36  C   UNL d   1      12.907  -0.255  14.796 -0.01 +0.05    +0.190 C 
DOCKED: BRANCH  36  37
DOCKED: ATOM     37  O   UNL d   1      13.486  -1.033  13.788 +0.01 -0.10    -0.399 OA
DOCKED: ATOM     38  H   UNL d   1      13.154  -0.637  12.935 +0.03 +0.06    +0.209 HD
DOCKED: ENDBRANCH  36  37
DOCKED: ENDBRANCH  29  36
DOCKED: BRANCH  22  39
DOCKED: ATOM     39  C   UNL d   1       7.913  -1.956  11.936 -0.21 +0.01    +0.052 C 
DOCKED: BRANCH  39  40
DOCKED: ATOM     40  C   UNL d   1       8.720  -3.145  11.386 -0.18 +0.06    +0.115 C 
DOCKED: BRANCH  40  41
DOCKED: ATOM     41  C   UNL d   1       9.973  -2.754  10.631 -0.08 +0.15    +0.139 C 
DOCKED: ATOM     42  O   UNL d   1       9.882  -2.397   9.465 -0.48 -1.02    -0.650 OA
DOCKED: BRANCH  41  43
DOCKED: ATOM     43  O   UNL d   1      11.180  -2.705  11.236 +0.01 -0.70    -0.776 OA
DOCKED: ATOM     44  H   UNL d   1      11.876  -2.095  10.958 +0.03 +0.14    +0.167 HD
DOCKED: ENDBRANCH  41  43
DOCKED: ENDBRANCH  40  41
DOCKED: ENDBRANCH  39  40
DOCKED: ENDBRANCH  22  39
DOCKED: BRANCH  12  45
DOCKED: ATOM     45  C   UNL d   1      14.816   4.344  18.161 -0.07 +0.00    +0.004 C 
DOCKED: ATOM     46  C   UNL d   1      14.520   5.431  18.868 -0.07 +0.01    +0.012 C 
DOCKED: ENDBRANCH  12  45
DOCKED: BRANCH  17  47
DOCKED: ATOM     47  C   UNL d   1       9.976  -1.635  19.540 -0.04 +0.00    +0.004 C 
DOCKED: ATOM     48  C   UNL d   1       8.671  -1.669  19.817 -0.05 +0.00    +0.012 C 
DOCKED: ENDBRANCH  17  47
DOCKED: TORSDOF 12
DOCKED: TER
DOCKED: ENDMDL
________________________________________________________________________________


	BEGINNING GENETIC ALGORITHM DOCKING 59 of 100
Run: 59 Seed: 501913692 439734636 [ Run 59 of 100 GA/GALS ]
Beginning LAMARCKIAN GENETIC ALGORITHM (LGA), with a maximum of 25000000 energy evaluations.

Final-Value: -9.686


	FINAL GENETIC ALGORITHM DOCKED STATE
	_______________________________________________


Detailed state:  trans 12.141 -7.822 5.961 quatxyzw -0.690228 -0.497241 0.360460 0.382628 center 8.781 34.984 -0.736 ntor 12 11.4599 120.2677 142.9644 -2.9897 132.6806 110.9982 44.2535 166.5057 -0.2824 112.5721 138.1441 -4.6951
State:	 12.141  -7.822   5.961  -0.747 -0.538  0.390 135.007     11.46  120.27  142.96   -2.99  132.68  111.00   44.25  166.51   -0.28  112.57  138.14   -4.70

DOCKED: MODEL       59
DOCKED: USER    Run = 59
DOCKED: USER    DPF = D:/Protein_go_brrr/autodock/final/mut_N102T/heme_Co/dock.dpf
DOCKED: USER  
DOCKED: USER    Estimated Free Energy of Binding    =   -5.42 kcal/mol  [=(1)+(2)+(3)-(4)]
DOCKED: USER    Estimated Inhibition Constant, Ki   =  105.61 uM (micromolar)  [Temperature = 298.15 K]
DOCKED: USER    
DOCKED: USER    (1) Final Intermolecular Energy     =   -9.00 kcal/mol
DOCKED: USER        vdW + Hbond + desolv Energy     =   -6.65 kcal/mol
DOCKED: USER        Electrostatic Energy            =   -2.36 kcal/mol
DOCKED: USER    (2) Final Total Internal Energy     =   -0.68 kcal/mol
DOCKED: USER    (3) Torsional Free Energy           =   +3.58 kcal/mol
DOCKED: USER    (4) Unbound System's Energy  [=(2)] =   -0.68 kcal/mol
DOCKED: USER    
DOCKED: USER    
DOCKED: USER    NEWDPF move heme_Co_opt.pdbqt
DOCKED: USER    NEWDPF about 8.781000 34.984000 -0.736000
DOCKED: USER    NEWDPF tran0 12.140526 -7.822492 5.961433
DOCKED: USER    NEWDPF quaternion0 -0.690228 -0.497241 0.360460 0.382628
DOCKED: USER    NEWDPF axisangle0 -0.747079 -0.538197 0.390150 135.006824
DOCKED: USER    NEWDPF quat0 -0.747079 -0.538197 0.390150 135.006824
DOCKED: USER    NEWDPF dihe0 11.46 120.27 142.96 -2.99 132.68 111.00 44.25 166.51 -0.28 112.57 138.14 -4.70 
DOCKED: USER  keepresnum = 1 
DOCKED: USER  
DOCKED: REMARK  12 active torsions:
DOCKED: REMARK  status: ('A' for Active; 'I' for Inactive)
DOCKED: REMARK    1  A    between atoms: C_6  and  C_10 
DOCKED: REMARK    2  A    between atoms: C_10  and  C_11 
DOCKED: REMARK    3  A    between atoms: C_11  and  C_12 
DOCKED: REMARK    4  A    between atoms: C_12  and  O_14 
DOCKED: REMARK    5  A    between atoms: C_17  and  C_20 
DOCKED: REMARK    6  A    between atoms: C_24  and  C_27 
DOCKED: REMARK    7  A    between atoms: C_31  and  C_34 
DOCKED: REMARK    8  A    between atoms: C_34  and  C_35 
DOCKED: REMARK    9  A    between atoms: C_35  and  C_36 
DOCKED: REMARK   10  A    between atoms: C_36  and  O_38 
DOCKED: REMARK   11  A    between atoms: FE_43  and  C_44 
DOCKED: REMARK   12  A    between atoms: C_44  and  O_45 
DOCKED: USER                              x       y       z     vdW  Elec       q    Type
DOCKED: USER                           _______ _______ _______ _____ _____    ______ ____
DOCKED: ROOT
DOCKED: ATOM      1  C   UNL d   1      12.245  -7.969   8.126 -0.09 +0.05    +0.064 A 
DOCKED: ATOM      2  C   UNL d   1       9.557 -10.198   4.898 -0.29 +0.01    +0.064 C 
DOCKED: ATOM      3  C   UNL d   1      11.387  -7.466   1.432 -0.17 -0.03    +0.064 A 
DOCKED: ATOM      4  C   UNL d   1      14.421  -5.439   4.649 -0.08 +0.02    +0.064 A 
DOCKED: ATOM      5  C   UNL d   1      11.350  -8.754   7.504 -0.13 +0.03    +0.066 A 
DOCKED: ATOM      6  C   UNL d   1      10.640  -9.763   8.184 -0.17 -0.01    -0.021 A 
DOCKED: ATOM      7  C   UNL d   1       9.879 -10.421   7.238 -0.29 -0.01    -0.025 A 
DOCKED: ATOM      8  C   UNL d   1      10.144  -9.777   6.025 -0.22 +0.01    +0.066 A 
DOCKED: ATOM      9  C   UNL d   1       8.934 -11.614   7.453 -0.02 +0.01    +0.051 C 
DOCKED: ATOM     10  C   UNL d   1       9.748  -9.581   3.609 -0.22 +0.00    +0.066 A 
DOCKED: ATOM     11  C   UNL d   1       9.057  -9.887   2.416 -0.32 +0.00    -0.021 A 
DOCKED: ATOM     12  C   UNL d   1       9.607  -9.072   1.423 -0.31 -0.00    +0.000 A 
DOCKED: ATOM     13  C   UNL d   1      10.582  -8.324   2.083 -0.18 -0.02    +0.070 A 
DOCKED: ATOM     14  C   UNL d   1       7.887 -10.827   2.279 -0.38 -0.00    +0.052 C 
DOCKED: ATOM     15  C   UNL d   1      12.474  -6.655   1.944 -0.13 -0.02    +0.066 A 
DOCKED: ATOM     16  C   UNL d   1      13.361  -5.898   1.192 -0.14 +0.01    -0.021 A 
DOCKED: ATOM     17  C   UNL d   1      14.240  -5.314   2.116 -0.08 -0.00    +0.000 A 
DOCKED: ATOM     18  C   UNL d   1      13.807  -5.749   3.364 -0.08 +0.01    +0.070 A 
DOCKED: ATOM     19  C   UNL d   1      13.343  -5.765  -0.314 -0.19 -0.04    +0.052 C 
DOCKED: ATOM     20  C   UNL d   1      14.071  -5.919   5.866 -0.06 +0.04    +0.066 A 
DOCKED: ATOM     21  C   UNL d   1      14.761  -5.577   7.027 -0.08 -0.02    -0.025 A 
DOCKED: ATOM     22  C   UNL d   1      14.138  -6.268   8.050 -0.05 -0.02    -0.021 A 
DOCKED: ATOM     23  C   UNL d   1      13.098  -7.014   7.456 -0.05 +0.06    +0.066 A 
DOCKED: ATOM     24  C   UNL d   1      15.968  -4.651   7.154 -0.05 +0.02    +0.051 C 
DOCKED: ATOM     25  N   UNL d   1      11.047  -8.736   6.161 -0.08 -0.08    -0.248 N 
DOCKED: ATOM     26  N   UNL d   1      10.628  -8.593   3.415 -0.08 -0.00    -0.248 N 
DOCKED: ATOM     27  N   UNL d   1      12.773  -6.570   3.221 -0.05 -0.01    -0.248 N 
DOCKED: ATOM     28  N   UNL d   1      13.056  -6.808   6.134 -0.05 -0.18    -0.248 N 
DOCKED: ATOM     29 FE   UNL d   1      11.963  -7.587   4.606 -0.02 +0.00    +0.000 Fe
DOCKED: ENDROOT
DOCKED: BRANCH   6  30
DOCKED: ATOM     30  C   UNL d   1      10.760 -10.120   9.662 -0.13 +0.02    +0.052 C 
DOCKED: BRANCH  30  31
DOCKED: ATOM     31  C   UNL d   1      10.777 -11.637   9.848 -0.16 +0.03    +0.115 C 
DOCKED: BRANCH  31  32
DOCKED: ATOM     32  C   UNL d   1      10.947 -12.040  11.297 -0.14 +0.07    +0.139 C 
DOCKED: ATOM     33  O   UNL d   1      12.071 -12.119  11.770 +0.01 -0.31    -0.650 OA
DOCKED: BRANCH  32  34
DOCKED: ATOM     34  O   UNL d   1       9.888 -12.270  12.107 -0.57 -0.91    -0.776 OA
DOCKED: ATOM     35  H   UNL d   1       8.969 -12.296  11.807 +0.05 +0.16    +0.167 HD
DOCKED: ENDBRANCH  32  34
DOCKED: ENDBRANCH  31  32
DOCKED: ENDBRANCH  30  31
DOCKED: ENDBRANCH   6  30
DOCKED: BRANCH  29  36
DOCKED: ATOM     36  C   UNL d   1      13.330  -9.163   4.401 -0.01 +0.01    +0.190 C 
DOCKED: BRANCH  36  37
DOCKED: ATOM     37  O   UNL d   1      14.124 -10.051   5.133 +0.00 -0.03    -0.399 OA
DOCKED: ATOM     38  H   UNL d   1      13.864  -9.903   6.085 +0.01 +0.03    +0.209 HD
DOCKED: ENDBRANCH  36  37
DOCKED: ENDBRANCH  29  36
DOCKED: BRANCH  22  39
DOCKED: ATOM     39  C   UNL d   1      14.565  -6.260   9.506 -0.05 +0.03    +0.052 C 
DOCKED: BRANCH  39  40
DOCKED: ATOM     40  C   UNL d   1      13.739  -5.240  10.307 -0.04 +0.11    +0.115 C 
DOCKED: BRANCH  40  41
DOCKED: ATOM     41  C   UNL d   1      14.093  -3.794  10.032 +0.00 +0.14    +0.139 C 
DOCKED: ATOM     42  O   UNL d   1      15.250  -3.425  10.170 -0.00 -0.32    -0.650 OA
DOCKED: BRANCH  41  43
DOCKED: ATOM     43  O   UNL d   1      13.181  -2.919   9.553 -0.47 -1.38    -0.776 OA
DOCKED: ATOM     44  H   UNL d   1      13.208  -1.976   9.761 +0.02 +0.17    +0.167 HD
DOCKED: ENDBRANCH  41  43
DOCKED: ENDBRANCH  40  41
DOCKED: ENDBRANCH  39  40
DOCKED: ENDBRANCH  22  39
DOCKED: BRANCH  12  45
DOCKED: ATOM     45  C   UNL d   1       9.313  -8.903  -0.062 -0.42 -0.00    +0.004 C 
DOCKED: ATOM     46  C   UNL d   1       8.570  -9.635  -0.886 -0.56 -0.01    +0.012 C 
DOCKED: ENDBRANCH  12  45
DOCKED: BRANCH  17  47
DOCKED: ATOM     47  C   UNL d   1      15.436  -4.450   1.880 -0.06 -0.00    +0.004 C 
DOCKED: ATOM     48  C   UNL d   1      15.485  -3.155   2.200 -0.09 +0.00    +0.012 C 
DOCKED: ENDBRANCH  17  47
DOCKED: TORSDOF 12
DOCKED: TER
DOCKED: ENDMDL
________________________________________________________________________________


	BEGINNING GENETIC ALGORITHM DOCKING 60 of 100
Run: 60 Seed: 491184844 580517834 [ Run 60 of 100 GA/GALS ]
Beginning LAMARCKIAN GENETIC ALGORITHM (LGA), with a maximum of 25000000 energy evaluations.

Final-Value: -9.644


	FINAL GENETIC ALGORITHM DOCKED STATE
	_______________________________________________


Detailed state:  trans 14.707 -2.080 5.577 quatxyzw 0.269361 0.694308 -0.322525 -0.584259 center 8.781 34.984 -0.736 ntor 12 18.6290 111.4625 135.7842 106.0893 72.2832 89.7224 41.8795 -12.9025 -177.0297 -179.9611 8.3284 -179.7793
State:	 14.707  -2.080   5.577   0.332  0.856 -0.397 -108.499     18.63  111.46  135.78  106.09   72.28   89.72   41.88  -12.90 -177.03 -179.96    8.33 -179.78

DOCKED: MODEL       60
DOCKED: USER    Run = 60
DOCKED: USER    DPF = D:/Protein_go_brrr/autodock/final/mut_N102T/heme_Co/dock.dpf
DOCKED: USER  
DOCKED: USER    Estimated Free Energy of Binding    =   -4.07 kcal/mol  [=(1)+(2)+(3)-(4)]
DOCKED: USER    Estimated Inhibition Constant, Ki   =    1.03 mM (millimolar)  [Temperature = 298.15 K]
DOCKED: USER    
DOCKED: USER    (1) Final Intermolecular Energy     =   -7.65 kcal/mol
DOCKED: USER        vdW + Hbond + desolv Energy     =   -5.33 kcal/mol
DOCKED: USER        Electrostatic Energy            =   -2.33 kcal/mol
DOCKED: USER    (2) Final Total Internal Energy     =   -1.99 kcal/mol
DOCKED: USER    (3) Torsional Free Energy           =   +3.58 kcal/mol
DOCKED: USER    (4) Unbound System's Energy  [=(2)] =   -1.99 kcal/mol
DOCKED: USER    
DOCKED: USER    
DOCKED: USER    NEWDPF move heme_Co_opt.pdbqt
DOCKED: USER    NEWDPF about 8.781000 34.984000 -0.736000
DOCKED: USER    NEWDPF tran0 14.706997 -2.080125 5.576756
DOCKED: USER    NEWDPF quaternion0 0.269361 0.694308 -0.322525 -0.584259
DOCKED: USER    NEWDPF axisangle0 0.331902 0.855515 -0.397410 -108.498719
DOCKED: USER    NEWDPF quat0 0.331902 0.855515 -0.397410 -108.498719
DOCKED: USER    NEWDPF dihe0 18.63 111.46 135.78 106.09 72.28 89.72 41.88 -12.90 -177.03 -179.96 8.33 -179.78 
DOCKED: USER  keepresnum = 1 
DOCKED: USER  
DOCKED: REMARK  12 active torsions:
DOCKED: REMARK  status: ('A' for Active; 'I' for Inactive)
DOCKED: REMARK    1  A    between atoms: C_6  and  C_10 
DOCKED: REMARK    2  A    between atoms: C_10  and  C_11 
DOCKED: REMARK    3  A    between atoms: C_11  and  C_12 
DOCKED: REMARK    4  A    between atoms: C_12  and  O_14 
DOCKED: REMARK    5  A    between atoms: C_17  and  C_20 
DOCKED: REMARK    6  A    between atoms: C_24  and  C_27 
DOCKED: REMARK    7  A    between atoms: C_31  and  C_34 
DOCKED: REMARK    8  A    between atoms: C_34  and  C_35 
DOCKED: REMARK    9  A    between atoms: C_35  and  C_36 
DOCKED: REMARK   10  A    between atoms: C_36  and  O_38 
DOCKED: REMARK   11  A    between atoms: FE_43  and  C_44 
DOCKED: REMARK   12  A    between atoms: C_44  and  O_45 
DOCKED: USER                              x       y       z     vdW  Elec       q    Type
DOCKED: USER                           _______ _______ _______ _____ _____    ______ ____
DOCKED: ROOT
DOCKED: ATOM      1  C   UNL d   1      14.873  -1.104   7.509 -0.12 +0.03    +0.064 A 
DOCKED: ATOM      2  C   UNL d   1      15.040  -5.676   6.215 -0.07 +0.03    +0.064 C 
DOCKED: ATOM      3  C   UNL d   1      13.996  -4.478   1.709 -0.11 -0.00    +0.064 A 
DOCKED: ATOM      4  C   UNL d   1      14.201   0.227   2.927 -0.30 +0.01    +0.064 A 
DOCKED: ATOM      5  C   UNL d   1      14.959  -2.444   7.494 -0.10 +0.04    +0.066 A 
DOCKED: ATOM      6  C   UNL d   1      15.328  -3.182   8.636 -0.07 -0.01    -0.021 A 
DOCKED: ATOM      7  C   UNL d   1      15.397  -4.506   8.249 -0.07 -0.01    -0.025 A 
DOCKED: ATOM      8  C   UNL d   1      15.052  -4.521   6.893 -0.08 +0.04    +0.066 A 
DOCKED: ATOM      9  C   UNL d   1      15.772  -5.721   9.110 -0.03 +0.02    +0.051 C 
DOCKED: ATOM     10  C   UNL d   1      14.673  -5.793   4.826 -0.06 +0.02    +0.066 A 
DOCKED: ATOM     11  C   UNL d   1      14.505  -6.989   4.095 -0.03 -0.00    -0.021 A 
DOCKED: ATOM     12  C   UNL d   1      14.197  -6.611   2.786 -0.04 -0.00    +0.000 A 
DOCKED: ATOM     13  C   UNL d   1      14.188  -5.216   2.817 -0.07 +0.00    +0.070 A 
DOCKED: ATOM     14  C   UNL d   1      14.546  -8.389   4.654 -0.01 +0.01    +0.052 C 
DOCKED: ATOM     15  C   UNL d   1      14.007  -3.037   1.551 -0.19 +0.00    +0.066 A 
DOCKED: ATOM     16  C   UNL d   1      13.946  -2.340   0.352 -0.23 +0.00    -0.021 A 
DOCKED: ATOM     17  C   UNL d   1      14.007  -0.983   0.698 -0.34 +0.00    +0.000 A 
DOCKED: ATOM     18  C   UNL d   1      14.083  -0.958   2.087 -0.28 +0.01    +0.070 A 
DOCKED: ATOM     19  C   UNL d   1      13.839  -2.965  -1.021 -0.18 -0.01    +0.052 C 
DOCKED: ATOM     20  C   UNL d   1      14.363   0.272   4.271 -0.28 +0.01    +0.066 A 
DOCKED: ATOM     21  C   UNL d   1      14.500   1.474   4.963 -0.34 -0.00    -0.025 A 
DOCKED: ATOM     22  C   UNL d   1      14.666   1.122   6.290 -0.23 -0.00    -0.021 A 
DOCKED: ATOM     23  C   UNL d   1      14.634  -0.288   6.341 -0.18 +0.02    +0.066 A 
DOCKED: ATOM     24  C   UNL d   1      14.494   2.887   4.387 -0.07 +0.01    +0.051 C 
DOCKED: ATOM     25  N   UNL d   1      14.771  -3.258   6.400 -0.09 -0.15    -0.248 N 
DOCKED: ATOM     26  N   UNL d   1      14.420  -4.724   4.063 -0.07 -0.06    -0.248 N 
DOCKED: ATOM     27  N   UNL d   1      14.111  -2.200   2.559 -0.15 -0.04    -0.248 N 
DOCKED: ATOM     28  N   UNL d   1      14.453  -0.806   5.120 -0.14 -0.08    -0.248 N 
DOCKED: ATOM     29 FE   UNL d   1      14.421  -2.694   4.367 -0.04 +0.00    +0.000 Fe
DOCKED: ENDROOT
DOCKED: BRANCH   6  30
DOCKED: ATOM     30  C   UNL d   1      15.675  -2.619  10.010 -0.02 +0.02    +0.052 C 
DOCKED: BRANCH  30  31
DOCKED: ATOM     31  C   UNL d   1      14.434  -2.574  10.901 -0.03 +0.06    +0.115 C 
DOCKED: BRANCH  31  32
DOCKED: ATOM     32  C   UNL d   1      13.204  -3.117  10.206 +0.10 +0.18    +0.139 C 
DOCKED: ATOM     33  O   UNL d   1      12.514  -2.366   9.532 -0.30 -1.12    -0.650 OA
DOCKED: BRANCH  32  34
DOCKED: ATOM     34  O   UNL d   1      12.865  -4.425  10.266 +0.03 -1.33    -0.776 OA
DOCKED: ATOM     35  H   UNL d   1      13.241  -5.056  10.895 +0.01 +0.15    +0.167 HD
DOCKED: ENDBRANCH  32  34
DOCKED: ENDBRANCH  31  32
DOCKED: ENDBRANCH  30  31
DOCKED: ENDBRANCH   6  30
DOCKED: BRANCH  29  36
DOCKED: ATOM     36  C   UNL d   1      16.504  -2.662   4.135 -0.03 +0.03    +0.190 C 
DOCKED: BRANCH  36  37
DOCKED: ATOM     37  O   UNL d   1      17.662  -2.000   4.557 +0.00 -0.05    -0.399 OA
DOCKED: ATOM     38  H   UNL d   1      17.338  -1.284   5.171 +0.02 +0.03    +0.209 HD
DOCKED: ENDBRANCH  36  37
DOCKED: ENDBRANCH  29  36
DOCKED: BRANCH  22  39
DOCKED: ATOM     39  C   UNL d   1      14.908   2.091   7.433 -0.16 +0.01    +0.052 C 
DOCKED: BRANCH  39  40
DOCKED: ATOM     40  C   UNL d   1      16.374   2.554   7.450 -0.08 +0.02    +0.115 C 
DOCKED: BRANCH  40  41
DOCKED: ATOM     41  C   UNL d   1      17.261   1.860   6.438 -0.04 +0.02    +0.139 C 
DOCKED: ATOM     42  O   UNL d   1      17.904   2.534   5.644 +0.02 -0.12    -0.650 OA
DOCKED: BRANCH  41  43
DOCKED: ATOM     43  O   UNL d   1      17.430   0.520   6.442 +0.04 -0.13    -0.776 OA
DOCKED: ATOM     44  H   UNL d   1      17.498   0.002   5.629 +0.02 +0.03    +0.167 HD
DOCKED: ENDBRANCH  41  43
DOCKED: ENDBRANCH  40  41
DOCKED: ENDBRANCH  39  40
DOCKED: ENDBRANCH  22  39
DOCKED: BRANCH  12  45
DOCKED: ATOM     45  C   UNL d   1      13.894  -7.402   1.520 -0.07 -0.00    +0.004 C 
DOCKED: ATOM     46  C   UNL d   1      12.732  -7.733   0.964 -0.13 -0.01    +0.012 C 
DOCKED: ENDBRANCH  12  45
DOCKED: BRANCH  17  47
DOCKED: ATOM     47  C   UNL d   1      14.046   0.225  -0.180 -0.35 +0.00    +0.004 C 
DOCKED: ATOM     48  C   UNL d   1      13.178   0.444  -1.170 -0.37 -0.00    +0.012 C 
DOCKED: ENDBRANCH  17  47
DOCKED: TORSDOF 12
DOCKED: TER
DOCKED: ENDMDL
________________________________________________________________________________


	BEGINNING GENETIC ALGORITHM DOCKING 61 of 100
Run: 61 Seed: 610306841 1887929255 [ Run 61 of 100 GA/GALS ]
Beginning LAMARCKIAN GENETIC ALGORITHM (LGA), with a maximum of 25000000 energy evaluations.

Final-Value: -8.772


	FINAL GENETIC ALGORITHM DOCKED STATE
	_______________________________________________


Detailed state:  trans -7.846 -16.206 -3.503 quatxyzw -0.090526 0.592458 -0.591217 0.539686 center 8.781 34.984 -0.736 ntor 12 44.9569 102.4992 11.2968 -93.7097 72.7278 137.4726 24.1496 -153.3410 177.8960 84.0193 -0.7760 154.6886
State:	 -7.846 -16.206  -3.503  -0.108  0.704 -0.702 114.676     44.96  102.50   11.30  -93.71   72.73  137.47   24.15 -153.34  177.90   84.02   -0.78  154.69

DOCKED: MODEL       61
DOCKED: USER    Run = 61
DOCKED: USER    DPF = D:/Protein_go_brrr/autodock/final/mut_N102T/heme_Co/dock.dpf
DOCKED: USER  
DOCKED: USER    Estimated Free Energy of Binding    =   -4.35 kcal/mol  [=(1)+(2)+(3)-(4)]
DOCKED: USER    Estimated Inhibition Constant, Ki   =  644.66 uM (micromolar)  [Temperature = 298.15 K]
DOCKED: USER    
DOCKED: USER    (1) Final Intermolecular Energy     =   -7.93 kcal/mol
DOCKED: USER        vdW + Hbond + desolv Energy     =   -4.41 kcal/mol
DOCKED: USER        Electrostatic Energy            =   -3.52 kcal/mol
DOCKED: USER    (2) Final Total Internal Energy     =   -0.84 kcal/mol
DOCKED: USER    (3) Torsional Free Energy           =   +3.58 kcal/mol
DOCKED: USER    (4) Unbound System's Energy  [=(2)] =   -0.84 kcal/mol
DOCKED: USER    
DOCKED: USER    
DOCKED: USER    NEWDPF move heme_Co_opt.pdbqt
DOCKED: USER    NEWDPF about 8.781000 34.984000 -0.736000
DOCKED: USER    NEWDPF tran0 -7.845762 -16.205568 -3.502938
DOCKED: USER    NEWDPF quaternion0 -0.090526 0.592458 -0.591217 0.539686
DOCKED: USER    NEWDPF axisangle0 -0.107530 0.703744 -0.702269 114.675532
DOCKED: USER    NEWDPF quat0 -0.107530 0.703744 -0.702269 114.675532
DOCKED: USER    NEWDPF dihe0 44.96 102.50 11.30 -93.71 72.73 137.47 24.15 -153.34 177.90 84.02 -0.78 154.69 
DOCKED: USER  keepresnum = 1 
DOCKED: USER  
DOCKED: REMARK  12 active torsions:
DOCKED: REMARK  status: ('A' for Active; 'I' for Inactive)
DOCKED: REMARK    1  A    between atoms: C_6  and  C_10 
DOCKED: REMARK    2  A    between atoms: C_10  and  C_11 
DOCKED: REMARK    3  A    between atoms: C_11  and  C_12 
DOCKED: REMARK    4  A    between atoms: C_12  and  O_14 
DOCKED: REMARK    5  A    between atoms: C_17  and  C_20 
DOCKED: REMARK    6  A    between atoms: C_24  and  C_27 
DOCKED: REMARK    7  A    between atoms: C_31  and  C_34 
DOCKED: REMARK    8  A    between atoms: C_34  and  C_35 
DOCKED: REMARK    9  A    between atoms: C_35  and  C_36 
DOCKED: REMARK   10  A    between atoms: C_36  and  O_38 
DOCKED: REMARK   11  A    between atoms: FE_43  and  C_44 
DOCKED: REMARK   12  A    between atoms: C_44  and  O_45 
DOCKED: USER                              x       y       z     vdW  Elec       q    Type
DOCKED: USER                           _______ _______ _______ _____ _____    ______ ____
DOCKED: ROOT
DOCKED: ATOM      1  C   UNL d   1      -6.989 -16.412  -5.488 -0.09 +0.08    +0.064 A 
DOCKED: ATOM      2  C   UNL d   1      -7.500 -19.482  -1.892 -0.05 +0.06    +0.064 C 
DOCKED: ATOM      3  C   UNL d   1      -9.213 -15.996   0.890 -0.08 +0.01    +0.064 A 
DOCKED: ATOM      4  C   UNL d   1      -9.062 -12.929  -2.882 -0.08 +0.02    +0.064 A 
DOCKED: ATOM      5  C   UNL d   1      -6.969 -17.499  -4.699 -0.07 +0.07    +0.066 A 
DOCKED: ATOM      6  C   UNL d   1      -6.588 -18.766  -5.182 -0.06 -0.02    -0.021 A 
DOCKED: ATOM      7  C   UNL d   1      -6.760 -19.658  -4.141 -0.05 -0.02    -0.025 A 
DOCKED: ATOM      8  C   UNL d   1      -7.222 -18.894  -3.063 -0.02 +0.08    +0.066 A 
DOCKED: ATOM      9  C   UNL d   1      -6.505 -21.172  -4.145 -0.02 +0.03    +0.051 C 
DOCKED: ATOM     10  C   UNL d   1      -7.954 -18.775  -0.721 -0.07 +0.05    +0.066 A 
DOCKED: ATOM     11  C   UNL d   1      -8.129 -19.311   0.573 -0.07 -0.01    -0.021 A 
DOCKED: ATOM     12  C   UNL d   1      -8.625 -18.272   1.365 -0.09 +0.00    +0.000 A 
DOCKED: ATOM     13  C   UNL d   1      -8.704 -17.179   0.502 -0.07 +0.02    +0.070 A 
DOCKED: ATOM     14  C   UNL d   1      -7.749 -20.698   1.023 -0.05 +0.01    +0.052 C 
DOCKED: ATOM     15  C   UNL d   1      -9.417 -14.785   0.120 -0.06 +0.01    +0.066 A 
DOCKED: ATOM     16  C   UNL d   1     -10.081 -13.643   0.544 -0.09 -0.00    -0.021 A 
DOCKED: ATOM     17  C   UNL d   1     -10.043 -12.756  -0.542 -0.10 +0.00    +0.000 A 
DOCKED: ATOM     18  C   UNL d   1      -9.340 -13.424  -1.540 -0.09 +0.01    +0.070 A 
DOCKED: ATOM     19  C   UNL d   1     -10.704 -13.445   1.908 -0.12 -0.00    +0.052 C 
DOCKED: ATOM     20  C   UNL d   1      -8.458 -13.592  -3.896 -0.08 +0.03    +0.066 A 
DOCKED: ATOM     21  C   UNL d   1      -8.279 -13.023  -5.155 -0.10 -0.01    -0.025 A 
DOCKED: ATOM     22  C   UNL d   1      -7.658 -13.994  -5.919 -0.12 -0.02    -0.021 A 
DOCKED: ATOM     23  C   UNL d   1      -7.498 -15.121  -5.085 -0.08 +0.06    +0.066 A 
DOCKED: ATOM     24  C   UNL d   1      -8.698 -11.629  -5.615 -0.09 +0.02    +0.051 C 
DOCKED: ATOM     25  N   UNL d   1      -7.355 -17.553  -3.379 -0.03 -0.31    -0.248 N 
DOCKED: ATOM     26  N   UNL d   1      -8.246 -17.470  -0.745 -0.04 -0.17    -0.248 N 
DOCKED: ATOM     27  N   UNL d   1      -9.010 -14.640  -1.121 -0.02 -0.07    -0.248 N 
DOCKED: ATOM     28  N   UNL d   1      -7.982 -14.883  -3.861 -0.03 -0.16    -0.248 N 
DOCKED: ATOM     29 FE   UNL d   1      -8.231 -16.008  -2.185 -0.02 +0.00    +0.000 Fe
DOCKED: ENDROOT
DOCKED: BRANCH   6  30
DOCKED: ATOM     30  C   UNL d   1      -6.160 -19.106  -6.605 -0.07 +0.04    +0.052 C 
DOCKED: BRANCH  30  31
DOCKED: ATOM     31  C   UNL d   1      -4.677 -18.797  -6.808 -0.13 +0.12    +0.115 C 
DOCKED: BRANCH  31  32
DOCKED: ATOM     32  C   UNL d   1      -4.050 -18.151  -5.591 -0.17 +0.20    +0.139 C 
DOCKED: ATOM     33  O   UNL d   1      -3.796 -16.956  -5.608 -0.46 -1.53    -0.650 OA
DOCKED: BRANCH  32  34
DOCKED: ATOM     34  O   UNL d   1      -3.803 -18.847  -4.457 -0.17 -1.29    -0.776 OA
DOCKED: ATOM     35  H   UNL d   1      -3.455 -19.750  -4.437 +0.02 +0.19    +0.167 HD
DOCKED: ENDBRANCH  32  34
DOCKED: ENDBRANCH  31  32
DOCKED: ENDBRANCH  30  31
DOCKED: ENDBRANCH   6  30
DOCKED: BRANCH  29  36
DOCKED: ATOM     36  C   UNL d   1     -10.090 -16.678  -2.883 +0.01 +0.06    +0.190 C 
DOCKED: BRANCH  36  37
DOCKED: ATOM     37  O   UNL d   1     -10.694 -17.446  -3.885 +0.01 -0.10    -0.399 OA
DOCKED: ATOM     38  H   UNL d   1      -9.967 -17.625  -4.544 +0.01 +0.07    +0.209 HD
DOCKED: ENDBRANCH  36  37
DOCKED: ENDBRANCH  29  36
DOCKED: BRANCH  22  39
DOCKED: ATOM     39  C   UNL d   1      -7.300 -13.862  -7.388 -0.12 +0.05    +0.052 C 
DOCKED: BRANCH  39  40
DOCKED: ATOM     40  C   UNL d   1      -8.289 -14.653  -8.260 -0.14 +0.07    +0.115 C 
DOCKED: BRANCH  40  41
DOCKED: ATOM     41  C   UNL d   1      -7.764 -15.987  -8.747 -0.17 +0.11    +0.139 C 
DOCKED: ATOM     42  O   UNL d   1      -6.565 -16.220  -8.677 -0.57 -0.98    -0.650 OA
DOCKED: BRANCH  41  43
DOCKED: ATOM     43  O   UNL d   1      -8.594 -16.964  -9.176 +0.02 -0.33    -0.776 OA
DOCKED: ATOM     44  H   UNL d   1      -9.510 -16.792  -9.431 +0.02 +0.05    +0.167 HD
DOCKED: ENDBRANCH  41  43
DOCKED: ENDBRANCH  40  41
DOCKED: ENDBRANCH  39  40
DOCKED: ENDBRANCH  22  39
DOCKED: BRANCH  12  45
DOCKED: ATOM     45  C   UNL d   1      -9.013 -18.181   2.835 -0.17 -0.00    +0.004 C 
DOCKED: ATOM     46  C   UNL d   1     -10.209 -18.191   3.417 -0.13 -0.00    +0.012 C 
DOCKED: ENDBRANCH  12  45
DOCKED: BRANCH  17  47
DOCKED: ATOM     47  C   UNL d   1     -10.651 -11.400  -0.688 -0.11 -0.00    +0.004 C 
DOCKED: ATOM     48  C   UNL d   1     -10.487 -10.419   0.203 -0.12 -0.00    +0.012 C 
DOCKED: ENDBRANCH  17  47
DOCKED: TORSDOF 12
DOCKED: TER
DOCKED: ENDMDL
________________________________________________________________________________


	BEGINNING GENETIC ALGORITHM DOCKING 62 of 100
Run: 62 Seed: 53510437 920805642 [ Run 62 of 100 GA/GALS ]
Beginning LAMARCKIAN GENETIC ALGORITHM (LGA), with a maximum of 25000000 energy evaluations.

Final-Value: -11.642


	FINAL GENETIC ALGORITHM DOCKED STATE
	_______________________________________________


Detailed state:  trans 7.318 -4.858 14.456 quatxyzw -0.242435 -0.329922 -0.701606 -0.583204 center 8.781 34.984 -0.736 ntor 12 112.4640 97.0027 -42.9272 121.2980 -101.0405 139.7480 95.4341 142.0945 -54.1203 17.1272 -149.3503 -179.4130
State:	  7.318  -4.858  14.456  -0.298 -0.406 -0.864 -108.648    112.46   97.00  -42.93  121.30 -101.04  139.75   95.43  142.09  -54.12   17.13 -149.35 -179.41

DOCKED: MODEL       62
DOCKED: USER    Run = 62
DOCKED: USER    DPF = D:/Protein_go_brrr/autodock/final/mut_N102T/heme_Co/dock.dpf
DOCKED: USER  
DOCKED: USER    Estimated Free Energy of Binding    =   -5.76 kcal/mol  [=(1)+(2)+(3)-(4)]
DOCKED: USER    Estimated Inhibition Constant, Ki   =   59.68 uM (micromolar)  [Temperature = 298.15 K]
DOCKED: USER    
DOCKED: USER    (1) Final Intermolecular Energy     =   -9.34 kcal/mol
DOCKED: USER        vdW + Hbond + desolv Energy     =   -6.60 kcal/mol
DOCKED: USER        Electrostatic Energy            =   -2.74 kcal/mol
DOCKED: USER    (2) Final Total Internal Energy     =   -2.30 kcal/mol
DOCKED: USER    (3) Torsional Free Energy           =   +3.58 kcal/mol
DOCKED: USER    (4) Unbound System's Energy  [=(2)] =   -2.30 kcal/mol
DOCKED: USER    
DOCKED: USER    
DOCKED: USER    NEWDPF move heme_Co_opt.pdbqt
DOCKED: USER    NEWDPF about 8.781000 34.984000 -0.736000
DOCKED: USER    NEWDPF tran0 7.318426 -4.858368 14.456083
DOCKED: USER    NEWDPF quaternion0 -0.242435 -0.329922 -0.701606 -0.583204
DOCKED: USER    NEWDPF axisangle0 -0.298445 -0.406145 -0.863700 -108.647624
DOCKED: USER    NEWDPF quat0 -0.298445 -0.406145 -0.863700 -108.647624
DOCKED: USER    NEWDPF dihe0 112.46 97.00 -42.93 121.30 -101.04 139.75 95.43 142.09 -54.12 17.13 -149.35 -179.41 
DOCKED: USER  keepresnum = 1 
DOCKED: USER  
DOCKED: REMARK  12 active torsions:
DOCKED: REMARK  status: ('A' for Active; 'I' for Inactive)
DOCKED: REMARK    1  A    between atoms: C_6  and  C_10 
DOCKED: REMARK    2  A    between atoms: C_10  and  C_11 
DOCKED: REMARK    3  A    between atoms: C_11  and  C_12 
DOCKED: REMARK    4  A    between atoms: C_12  and  O_14 
DOCKED: REMARK    5  A    between atoms: C_17  and  C_20 
DOCKED: REMARK    6  A    between atoms: C_24  and  C_27 
DOCKED: REMARK    7  A    between atoms: C_31  and  C_34 
DOCKED: REMARK    8  A    between atoms: C_34  and  C_35 
DOCKED: REMARK    9  A    between atoms: C_35  and  C_36 
DOCKED: REMARK   10  A    between atoms: C_36  and  O_38 
DOCKED: REMARK   11  A    between atoms: FE_43  and  C_44 
DOCKED: REMARK   12  A    between atoms: C_44  and  O_45 
DOCKED: USER                              x       y       z     vdW  Elec       q    Type
DOCKED: USER                           _______ _______ _______ _____ _____    ______ ____
DOCKED: ROOT
DOCKED: ATOM      1  C   UNL d   1       8.236  -4.269  12.578 -0.14 +0.02    +0.064 A 
DOCKED: ATOM      2  C   UNL d   1       5.212  -2.041  15.494 -0.24 -0.01    +0.064 C 
DOCKED: ATOM      3  C   UNL d   1       4.906  -5.951  18.224 -0.16 -0.01    +0.064 A 
DOCKED: ATOM      4  C   UNL d   1       8.288  -8.117  15.479 -0.23 +0.02    +0.064 A 
DOCKED: ATOM      5  C   UNL d   1       7.404  -3.386  13.154 -0.14 +0.01    +0.066 A 
DOCKED: ATOM      6  C   UNL d   1       7.269  -2.067  12.678 -0.23 -0.00    -0.021 A 
DOCKED: ATOM      7  C   UNL d   1       6.408  -1.418  13.541 -0.29 -0.00    -0.025 A 
DOCKED: ATOM      8  C   UNL d   1       6.042  -2.372  14.497 -0.20 -0.00    +0.066 A 
DOCKED: ATOM      9  C   UNL d   1       5.938   0.044  13.483 -0.47 -0.00    +0.051 C 
DOCKED: ATOM     10  C   UNL d   1       4.760  -2.962  16.507 -0.17 -0.01    +0.066 A 
DOCKED: ATOM     11  C   UNL d   1       3.783  -2.715  17.496 -0.18 +0.00    -0.021 A 
DOCKED: ATOM     12  C   UNL d   1       3.711  -3.873  18.276 -0.12 -0.00    +0.000 A 
DOCKED: ATOM     13  C   UNL d   1       4.637  -4.742  17.699 -0.14 -0.01    +0.070 A 
DOCKED: ATOM     14  C   UNL d   1       2.920  -1.485  17.610 -0.35 -0.02    +0.052 C 
DOCKED: ATOM     15  C   UNL d   1       5.864  -6.949  17.792 -0.19 -0.00    +0.066 A 
DOCKED: ATOM     16  C   UNL d   1       6.196  -8.117  18.464 -0.18 +0.00    -0.021 A 
DOCKED: ATOM     17  C   UNL d   1       7.172  -8.744  17.677 -0.21 +0.00    +0.000 A 
DOCKED: ATOM     18  C   UNL d   1       7.348  -7.914  16.574 -0.23 +0.01    +0.070 A 
DOCKED: ATOM     19  C   UNL d   1       5.598  -8.574  19.776 -0.12 -0.00    +0.052 C 
DOCKED: ATOM     20  C   UNL d   1       8.537  -7.282  14.442 -0.19 +0.02    +0.066 A 
DOCKED: ATOM     21  C   UNL d   1       9.492  -7.570  13.469 -0.16 -0.01    -0.025 A 
DOCKED: ATOM     22  C   UNL d   1       9.478  -6.491  12.603 -0.17 -0.01    -0.021 A 
DOCKED: ATOM     23  C   UNL d   1       8.517  -5.587  13.102 -0.15 +0.02    +0.066 A 
DOCKED: ATOM     24  C   UNL d   1      10.388  -8.802  13.379 -0.14 +0.02    +0.051 C 
DOCKED: ATOM     25  N   UNL d   1       6.640  -3.602  14.278 +0.04 -0.02    -0.248 N 
DOCKED: ATOM     26  N   UNL d   1       5.230  -4.211  16.597 -0.01 +0.02    -0.248 N 
DOCKED: ATOM     27  N   UNL d   1       6.574  -6.840  16.691 -0.09 -0.01    -0.248 N 
DOCKED: ATOM     28  N   UNL d   1       7.947  -6.060  14.216 +0.01 -0.04    -0.248 N 
DOCKED: ATOM     29 FE   UNL d   1       6.607  -5.319  15.554 -0.04 +0.00    +0.000 Fe
DOCKED: ENDROOT
DOCKED: BRANCH   6  30
DOCKED: ATOM     30  C   UNL d   1       8.003  -1.447  11.494 -0.10 +0.01    +0.052 C 
DOCKED: BRANCH  30  31
DOCKED: ATOM     31  C   UNL d   1       9.503  -1.368  11.774 -0.18 +0.05    +0.115 C 
DOCKED: BRANCH  31  32
DOCKED: ATOM     32  C   UNL d   1      10.327  -2.068  10.714 -0.17 +0.12    +0.139 C 
DOCKED: ATOM     33  O   UNL d   1       9.884  -3.072  10.176 -0.49 -0.98    -0.650 OA
DOCKED: BRANCH  32  34
DOCKED: ATOM     34  O   UNL d   1      11.524  -1.590  10.304 -0.05 -0.72    -0.776 OA
DOCKED: ATOM     35  H   UNL d   1      12.375  -1.998  10.518 +0.03 +0.16    +0.167 HD
DOCKED: ENDBRANCH  32  34
DOCKED: ENDBRANCH  31  32
DOCKED: ENDBRANCH  30  31
DOCKED: ENDBRANCH   6  30
DOCKED: BRANCH  29  36
DOCKED: ATOM     36  C   UNL d   1       8.155  -4.407  16.634 -0.05 +0.01    +0.190 C 
DOCKED: BRANCH  36  37
DOCKED: ATOM     37  O   UNL d   1       9.106  -3.383  16.569 -0.01 -0.05    -0.399 OA
DOCKED: ATOM     38  H   UNL d   1       9.155  -3.139  15.602 +0.03 +0.03    +0.209 HD
DOCKED: ENDBRANCH  36  37
DOCKED: ENDBRANCH  29  36
DOCKED: BRANCH  22  39
DOCKED: ATOM     39  C   UNL d   1      10.388  -6.317  11.402 -0.15 +0.03    +0.052 C 
DOCKED: BRANCH  39  40
DOCKED: ATOM     40  C   UNL d   1      11.788  -5.858  11.843 -0.06 +0.07    +0.115 C 
DOCKED: BRANCH  40  41
DOCKED: ATOM     41  C   UNL d   1      12.680  -5.394  10.711 +0.07 +0.16    +0.139 C 
DOCKED: ATOM     42  O   UNL d   1      13.252  -6.226  10.020 -0.05 -0.65    -0.650 OA
DOCKED: BRANCH  41  43
DOCKED: ATOM     43  O   UNL d   1      12.793  -4.088  10.385 -0.04 -1.28    -0.776 OA
DOCKED: ATOM     44  H   UNL d   1      12.047  -3.475  10.429 +0.01 +0.31    +0.167 HD
DOCKED: ENDBRANCH  41  43
DOCKED: ENDBRANCH  40  41
DOCKED: ENDBRANCH  39  40
DOCKED: ENDBRANCH  22  39
DOCKED: BRANCH  12  45
DOCKED: ATOM     45  C   UNL d   1       2.864  -4.263  19.480 -0.09 -0.00    +0.004 C 
DOCKED: ATOM     46  C   UNL d   1       1.906  -5.176  19.606 -0.12 -0.00    +0.012 C 
DOCKED: ENDBRANCH  12  45
DOCKED: BRANCH  17  47
DOCKED: ATOM     47  C   UNL d   1       7.942  -9.998  17.932 -0.18 +0.00    +0.004 C 
DOCKED: ATOM     48  C   UNL d   1       9.276 -10.050  17.971 -0.12 +0.00    +0.012 C 
DOCKED: ENDBRANCH  17  47
DOCKED: TORSDOF 12
DOCKED: TER
DOCKED: ENDMDL
________________________________________________________________________________


	BEGINNING GENETIC ALGORITHM DOCKING 63 of 100
Run: 63 Seed: 637526930 1326287230 [ Run 63 of 100 GA/GALS ]
Beginning LAMARCKIAN GENETIC ALGORITHM (LGA), with a maximum of 25000000 energy evaluations.

Final-Value: -10.852


	FINAL GENETIC ALGORITHM DOCKED STATE
	_______________________________________________


Detailed state:  trans 6.803 -1.764 15.179 quatxyzw -0.370775 0.247574 -0.895068 0.009298 center 8.781 34.984 -0.736 ntor 12 -96.2549 90.4602 169.8555 115.3914 135.1906 118.5717 -31.4794 -51.3389 -45.4439 108.4224 170.1183 174.0719
State:	  6.803  -1.764  15.179  -0.371  0.248 -0.895 178.934    -96.25   90.46  169.86  115.39  135.19  118.57  -31.48  -51.34  -45.44  108.42  170.12  174.07

DOCKED: MODEL       63
DOCKED: USER    Run = 63
DOCKED: USER    DPF = D:/Protein_go_brrr/autodock/final/mut_N102T/heme_Co/dock.dpf
DOCKED: USER  
DOCKED: USER    Estimated Free Energy of Binding    =   -4.92 kcal/mol  [=(1)+(2)+(3)-(4)]
DOCKED: USER    Estimated Inhibition Constant, Ki   =  248.24 uM (micromolar)  [Temperature = 298.15 K]
DOCKED: USER    
DOCKED: USER    (1) Final Intermolecular Energy     =   -8.50 kcal/mol
DOCKED: USER        vdW + Hbond + desolv Energy     =   -6.29 kcal/mol
DOCKED: USER        Electrostatic Energy            =   -2.21 kcal/mol
DOCKED: USER    (2) Final Total Internal Energy     =   -2.35 kcal/mol
DOCKED: USER    (3) Torsional Free Energy           =   +3.58 kcal/mol
DOCKED: USER    (4) Unbound System's Energy  [=(2)] =   -2.35 kcal/mol
DOCKED: USER    
DOCKED: USER    
DOCKED: USER    NEWDPF move heme_Co_opt.pdbqt
DOCKED: USER    NEWDPF about 8.781000 34.984000 -0.736000
DOCKED: USER    NEWDPF tran0 6.803384 -1.763738 15.178706
DOCKED: USER    NEWDPF quaternion0 -0.370775 0.247574 -0.895068 0.009298
DOCKED: USER    NEWDPF axisangle0 -0.370791 0.247584 -0.895107 178.934469
DOCKED: USER    NEWDPF quat0 -0.370791 0.247584 -0.895107 178.934469
DOCKED: USER    NEWDPF dihe0 -96.25 90.46 169.86 115.39 135.19 118.57 -31.48 -51.34 -45.44 108.42 170.12 174.07 
DOCKED: USER  keepresnum = 1 
DOCKED: USER  
DOCKED: REMARK  12 active torsions:
DOCKED: REMARK  status: ('A' for Active; 'I' for Inactive)
DOCKED: REMARK    1  A    between atoms: C_6  and  C_10 
DOCKED: REMARK    2  A    between atoms: C_10  and  C_11 
DOCKED: REMARK    3  A    between atoms: C_11  and  C_12 
DOCKED: REMARK    4  A    between atoms: C_12  and  O_14 
DOCKED: REMARK    5  A    between atoms: C_17  and  C_20 
DOCKED: REMARK    6  A    between atoms: C_24  and  C_27 
DOCKED: REMARK    7  A    between atoms: C_31  and  C_34 
DOCKED: REMARK    8  A    between atoms: C_34  and  C_35 
DOCKED: REMARK    9  A    between atoms: C_35  and  C_36 
DOCKED: REMARK   10  A    between atoms: C_36  and  O_38 
DOCKED: REMARK   11  A    between atoms: FE_43  and  C_44 
DOCKED: REMARK   12  A    between atoms: C_44  and  O_45 
DOCKED: USER                              x       y       z     vdW  Elec       q    Type
DOCKED: USER                           _______ _______ _______ _____ _____    ______ ____
DOCKED: ROOT
DOCKED: ATOM      1  C   UNL d   1       7.546  -1.496  13.156 -0.20 +0.01    +0.064 A 
DOCKED: ATOM      2  C   UNL d   1       9.628  -1.054  17.408 -0.07 +0.02    +0.064 C 
DOCKED: ATOM      3  C   UNL d   1       5.448  -1.853  19.580 -0.06 -0.01    +0.064 A 
DOCKED: ATOM      4  C   UNL d   1       3.378  -2.691  15.258 -0.11 -0.02    +0.064 A 
DOCKED: ATOM      5  C   UNL d   1       8.414  -1.280  14.157 -0.14 +0.01    +0.066 A 
DOCKED: ATOM      6  C   UNL d   1       9.788  -1.076  13.924 -0.11 -0.01    -0.021 A 
DOCKED: ATOM      7  C   UNL d   1      10.391  -0.971  15.162 -0.08 -0.01    -0.025 A 
DOCKED: ATOM      8  C   UNL d   1       9.358  -1.099  16.097 -0.07 +0.02    +0.066 A 
DOCKED: ATOM      9  C   UNL d   1      11.881  -0.758  15.470 -0.04 +0.01    +0.051 C 
DOCKED: ATOM     10  C   UNL d   1       8.628  -1.150  18.442 -0.06 +0.01    +0.066 A 
DOCKED: ATOM     11  C   UNL d   1       8.827  -0.970  19.828 -0.06 -0.00    -0.021 A 
DOCKED: ATOM     12  C   UNL d   1       7.591  -1.205  20.437 -0.06 +0.00    +0.000 A 
DOCKED: ATOM     13  C   UNL d   1       6.729  -1.498  19.379 -0.08 -0.00    +0.070 A 
DOCKED: ATOM     14  C   UNL d   1      10.098  -0.509  20.494 -0.05 +0.01    +0.052 C 
DOCKED: ATOM     15  C   UNL d   1       4.438  -2.238  18.613 -0.09 -0.01    +0.066 A 
DOCKED: ATOM     16  C   UNL d   1       3.173  -2.734  18.897 -0.11 +0.01    -0.021 A 
DOCKED: ATOM     17  C   UNL d   1       2.573  -2.980  17.653 -0.23 -0.00    +0.000 A 
DOCKED: ATOM     18  C   UNL d   1       3.517  -2.596  16.706 -0.23 -0.02    +0.070 A 
DOCKED: ATOM     19  C   UNL d   1       2.606  -2.950  20.282 -0.07 -0.02    +0.052 C 
DOCKED: ATOM     20  C   UNL d   1       4.312  -2.406  14.319 -0.18 -0.01    +0.066 A 
DOCKED: ATOM     21  C   UNL d   1       4.072  -2.572  12.957 -0.39 +0.00    -0.025 A 
DOCKED: ATOM     22  C   UNL d   1       5.247  -2.207  12.325 -0.37 +0.00    -0.021 A 
DOCKED: ATOM     23  C   UNL d   1       6.156  -1.845  13.341 -0.26 +0.00    +0.066 A 
DOCKED: ATOM     24  C   UNL d   1       2.793  -3.072  12.291 -0.51 -0.00    +0.051 C 
DOCKED: ATOM     25  N   UNL d   1       8.122  -1.286  15.502 -0.08 -0.05    -0.248 N 
DOCKED: ATOM     26  N   UNL d   1       7.344  -1.410  18.170 -0.07 -0.02    -0.248 N 
DOCKED: ATOM     27  N   UNL d   1       4.625  -2.188  17.313 -0.09 +0.04    -0.248 N 
DOCKED: ATOM     28  N   UNL d   1       5.595  -1.966  14.550 -0.15 +0.02    -0.248 N 
DOCKED: ATOM     29 FE   UNL d   1       6.268  -1.764  16.458 -0.04 -0.00    +0.000 Fe
DOCKED: ENDROOT
DOCKED: BRANCH   6  30
DOCKED: ATOM     30  C   UNL d   1      10.490  -1.066  12.570 -0.13 +0.02    +0.052 C 
DOCKED: BRANCH  30  31
DOCKED: ATOM     31  C   UNL d   1      11.291  -2.352  12.371 -0.05 +0.05    +0.115 C 
DOCKED: BRANCH  31  32
DOCKED: ATOM     32  C   UNL d   1      11.051  -2.978  11.014 -0.09 +0.15    +0.139 C 
DOCKED: ATOM     33  O   UNL d   1      11.331  -4.154  10.837 -0.01 -0.95    -0.650 OA
DOCKED: BRANCH  32  34
DOCKED: ATOM     34  O   UNL d   1      10.488  -2.288   9.995 -0.28 -1.10    -0.776 OA
DOCKED: ATOM     35  H   UNL d   1       9.559  -2.362   9.736 +0.04 +0.20    +0.167 HD
DOCKED: ENDBRANCH  32  34
DOCKED: ENDBRANCH  31  32
DOCKED: ENDBRANCH  30  31
DOCKED: ENDBRANCH   6  30
DOCKED: BRANCH  29  36
DOCKED: ATOM     36  C   UNL d   1       6.916  -3.758  16.466 -0.07 +0.00    +0.190 C 
DOCKED: BRANCH  36  37
DOCKED: ATOM     37  O   UNL d   1       7.628  -4.701  15.719 -0.02 -0.03    -0.399 OA
DOCKED: ATOM     38  H   UNL d   1       7.587  -4.368  14.779 +0.04 +0.02    +0.209 HD
DOCKED: ENDBRANCH  36  37
DOCKED: ENDBRANCH  29  36
DOCKED: BRANCH  22  39
DOCKED: ATOM     39  C   UNL d   1       5.496  -2.268  10.829 -0.25 +0.00    +0.052 C 
DOCKED: BRANCH  39  40
DOCKED: ATOM     40  C   UNL d   1       5.943  -3.679  10.411 -0.13 +0.02    +0.115 C 
DOCKED: BRANCH  40  41
DOCKED: ATOM     41  C   UNL d   1       7.388  -3.997  10.732 -0.22 +0.05    +0.139 C 
DOCKED: ATOM     42  O   UNL d   1       7.671  -4.444  11.834 +0.01 -0.20    -0.650 OA
DOCKED: BRANCH  41  43
DOCKED: ATOM     43  O   UNL d   1       8.364  -3.884   9.804 -0.19 -0.68    -0.776 OA
DOCKED: ATOM     44  H   UNL d   1       9.296  -4.033  10.009 +0.05 +0.25    +0.167 HD
DOCKED: ENDBRANCH  41  43
DOCKED: ENDBRANCH  40  41
DOCKED: ENDBRANCH  39  40
DOCKED: ENDBRANCH  22  39
DOCKED: BRANCH  12  45
DOCKED: ATOM     45  C   UNL d   1       7.123  -1.168  21.885 -0.04 -0.00    +0.004 C 
DOCKED: ATOM     46  C   UNL d   1       6.361  -0.286  22.527 -0.06 -0.00    +0.012 C 
DOCKED: ENDBRANCH  12  45
DOCKED: BRANCH  17  47
DOCKED: ATOM     47  C   UNL d   1       1.241  -3.576  17.338 -0.36 -0.00    +0.004 C 
DOCKED: ATOM     48  C   UNL d   1       0.246  -2.895  16.763 -0.44 -0.00    +0.012 C 
DOCKED: ENDBRANCH  17  47
DOCKED: TORSDOF 12
DOCKED: TER
DOCKED: ENDMDL
________________________________________________________________________________


	BEGINNING GENETIC ALGORITHM DOCKING 64 of 100
Run: 64 Seed: 1826810041 1042850702 [ Run 64 of 100 GA/GALS ]
Beginning LAMARCKIAN GENETIC ALGORITHM (LGA), with a maximum of 25000000 energy evaluations.

Final-Value: -10.842


	FINAL GENETIC ALGORITHM DOCKED STATE
	_______________________________________________


Detailed state:  trans -4.946 12.311 -14.298 quatxyzw -0.226980 -0.173035 0.535104 -0.795112 center 8.781 34.984 -0.736 ntor 12 54.7404 116.7341 -153.8203 -91.8248 -84.5377 104.3466 31.0576 111.2309 166.7682 144.9111 -165.9136 169.6845
State:	 -4.946  12.311 -14.298  -0.374 -0.285  0.882 -74.668     54.74  116.73 -153.82  -91.82  -84.54  104.35   31.06  111.23  166.77  144.91 -165.91  169.68

DOCKED: MODEL       64
DOCKED: USER    Run = 64
DOCKED: USER    DPF = D:/Protein_go_brrr/autodock/final/mut_N102T/heme_Co/dock.dpf
DOCKED: USER  
DOCKED: USER    Estimated Free Energy of Binding    =   -3.13 kcal/mol  [=(1)+(2)+(3)-(4)]
DOCKED: USER    Estimated Inhibition Constant, Ki   =    5.05 mM (millimolar)  [Temperature = 298.15 K]
DOCKED: USER    
DOCKED: USER    (1) Final Intermolecular Energy     =   -6.71 kcal/mol
DOCKED: USER        vdW + Hbond + desolv Energy     =   -6.76 kcal/mol
DOCKED: USER        Electrostatic Energy            =   +0.05 kcal/mol
DOCKED: USER    (2) Final Total Internal Energy     =   -4.13 kcal/mol
DOCKED: USER    (3) Torsional Free Energy           =   +3.58 kcal/mol
DOCKED: USER    (4) Unbound System's Energy  [=(2)] =   -4.13 kcal/mol
DOCKED: USER    
DOCKED: USER    
DOCKED: USER    NEWDPF move heme_Co_opt.pdbqt
DOCKED: USER    NEWDPF about 8.781000 34.984000 -0.736000
DOCKED: USER    NEWDPF tran0 -4.946368 12.310661 -14.297867
DOCKED: USER    NEWDPF quaternion0 -0.226980 -0.173035 0.535104 -0.795112
DOCKED: USER    NEWDPF axisangle0 -0.374269 -0.285319 0.882336 -74.668337
DOCKED: USER    NEWDPF quat0 -0.374269 -0.285319 0.882336 -74.668337
DOCKED: USER    NEWDPF dihe0 54.74 116.73 -153.82 -91.82 -84.54 104.35 31.06 111.23 166.77 144.91 -165.91 169.68 
DOCKED: USER  keepresnum = 1 
DOCKED: USER  
DOCKED: REMARK  12 active torsions:
DOCKED: REMARK  status: ('A' for Active; 'I' for Inactive)
DOCKED: REMARK    1  A    between atoms: C_6  and  C_10 
DOCKED: REMARK    2  A    between atoms: C_10  and  C_11 
DOCKED: REMARK    3  A    between atoms: C_11  and  C_12 
DOCKED: REMARK    4  A    between atoms: C_12  and  O_14 
DOCKED: REMARK    5  A    between atoms: C_17  and  C_20 
DOCKED: REMARK    6  A    between atoms: C_24  and  C_27 
DOCKED: REMARK    7  A    between atoms: C_31  and  C_34 
DOCKED: REMARK    8  A    between atoms: C_34  and  C_35 
DOCKED: REMARK    9  A    between atoms: C_35  and  C_36 
DOCKED: REMARK   10  A    between atoms: C_36  and  O_38 
DOCKED: REMARK   11  A    between atoms: FE_43  and  C_44 
DOCKED: REMARK   12  A    between atoms: C_44  and  O_45 
DOCKED: USER                              x       y       z     vdW  Elec       q    Type
DOCKED: USER                           _______ _______ _______ _____ _____    ______ ____
DOCKED: ROOT
DOCKED: ATOM      1  C   UNL d   1      -5.602  10.525 -15.344 -0.26 -0.01    +0.064 A 
DOCKED: ATOM      2  C   UNL d   1      -5.020  11.489 -10.725 -0.06 -0.00    +0.064 C 
DOCKED: ATOM      3  C   UNL d   1      -3.218  15.779 -11.808 -0.10 +0.00    +0.064 A 
DOCKED: ATOM      4  C   UNL d   1      -4.160  14.972 -16.512 +0.04 +0.02    +0.064 A 
DOCKED: ATOM      5  C   UNL d   1      -5.542  10.458 -14.004 -0.23 -0.02    +0.066 A 
DOCKED: ATOM      6  C   UNL d   1      -6.054   9.360 -13.286 -0.31 +0.01    -0.021 A 
DOCKED: ATOM      7  C   UNL d   1      -5.903   9.655 -11.945 -0.31 +0.00    -0.025 A 
DOCKED: ATOM      8  C   UNL d   1      -5.291  10.913 -11.903 -0.23 -0.01    +0.066 A 
DOCKED: ATOM      9  C   UNL d   1      -6.315   8.797 -10.739 -0.25 -0.01    +0.051 C 
DOCKED: ATOM     10  C   UNL d   1      -4.370  12.767 -10.582 -0.20 -0.01    +0.066 A 
DOCKED: ATOM     11  C   UNL d   1      -3.931  13.361  -9.378 -0.27 +0.00    -0.021 A 
DOCKED: ATOM     12  C   UNL d   1      -3.406  14.609  -9.724 -0.25 -0.00    +0.000 A 
DOCKED: ATOM     13  C   UNL d   1      -3.551  14.679 -11.110 -0.17 -0.00    +0.070 A 
DOCKED: ATOM     14  C   UNL d   1      -3.936  12.721  -8.014 -0.34 -0.00    +0.052 C 
DOCKED: ATOM     15  C   UNL d   1      -3.348  16.041 -13.228 -0.10 +0.01    +0.066 A 
DOCKED: ATOM     16  C   UNL d   1      -3.120  17.252 -13.866 -0.06 -0.00    -0.021 A 
DOCKED: ATOM     17  C   UNL d   1      -3.393  17.025 -15.222 -0.12 +0.00    +0.000 A 
DOCKED: ATOM     18  C   UNL d   1      -3.751  15.684 -15.308 -0.17 +0.02    +0.070 A 
DOCKED: ATOM     19  C   UNL d   1      -2.671  18.528 -13.190 -0.03 +0.00    +0.052 C 
DOCKED: ATOM     20  C   UNL d   1      -4.595  13.692 -16.606 -0.22 +0.01    +0.066 A 
DOCKED: ATOM     21  C   UNL d   1      -4.996  13.130 -17.816 -0.21 -0.00    -0.025 A 
DOCKED: ATOM     22  C   UNL d   1      -5.389  11.839 -17.515 -0.26 -0.00    -0.021 A 
DOCKED: ATOM     23  C   UNL d   1      -5.219  11.680 -16.123 -0.28 -0.00    +0.066 A 
DOCKED: ATOM     24  C   UNL d   1      -5.022  13.796 -19.189 -0.16 +0.01    +0.051 C 
DOCKED: ATOM     25  N   UNL d   1      -5.051  11.431 -13.164 -0.16 +0.04    -0.248 N 
DOCKED: ATOM     26  N   UNL d   1      -4.082  13.542 -11.633 -0.13 +0.02    -0.248 N 
DOCKED: ATOM     27  N   UNL d   1      -3.742  15.137 -14.097 -0.11 -0.03    -0.248 N 
DOCKED: ATOM     28  N   UNL d   1      -4.741  12.801 -15.568 -0.17 +0.01    -0.248 N 
DOCKED: ATOM     29 FE   UNL d   1      -4.358  13.393 -13.662 -0.05 -0.00    +0.000 Fe
DOCKED: ENDROOT
DOCKED: BRANCH   6  30
DOCKED: ATOM     30  C   UNL d   1      -6.730   8.125 -13.873 -0.40 -0.02    +0.052 C 
DOCKED: BRANCH  30  31
DOCKED: ATOM     31  C   UNL d   1      -8.199   8.413 -14.182 -0.29 -0.02    +0.115 C 
DOCKED: BRANCH  31  32
DOCKED: ATOM     32  C   UNL d   1      -8.693   9.676 -13.510 -0.13 -0.01    +0.139 C 
DOCKED: ATOM     33  O   UNL d   1      -9.320   9.594 -12.464 +0.01 +0.06    -0.650 OA
DOCKED: BRANCH  32  34
DOCKED: ATOM     34  O   UNL d   1      -8.423  10.905 -14.007 +0.06 +0.03    -0.776 OA
DOCKED: ATOM     35  H   UNL d   1      -8.573  11.165 -14.926 +0.03 -0.00    +0.167 HD
DOCKED: ENDBRANCH  32  34
DOCKED: ENDBRANCH  31  32
DOCKED: ENDBRANCH  30  31
DOCKED: ENDBRANCH   6  30
DOCKED: BRANCH  29  36
DOCKED: ATOM     36  C   UNL d   1      -6.343  14.029 -13.436 -0.03 +0.00    +0.190 C 
DOCKED: BRANCH  36  37
DOCKED: ATOM     37  O   UNL d   1      -7.655  13.743 -13.824 +0.00 -0.00    -0.399 OA
DOCKED: ATOM     38  H   UNL d   1      -7.585  12.911 -14.372 +0.03 -0.00    +0.209 HD
DOCKED: ENDBRANCH  36  37
DOCKED: ENDBRANCH  29  36
DOCKED: BRANCH  22  39
DOCKED: ATOM     39  C   UNL d   1      -5.959  10.840 -18.504 -0.27 +0.00    +0.052 C 
DOCKED: BRANCH  39  40
DOCKED: ATOM     40  C   UNL d   1      -7.488  10.976 -18.594 -0.13 +0.01    +0.115 C 
DOCKED: BRANCH  40  41
DOCKED: ATOM     41  C   UNL d   1      -8.174  11.200 -17.263 -0.10 +0.01    +0.139 C 
DOCKED: ATOM     42  O   UNL d   1      -8.874  10.313 -16.793 -0.01 -0.04    -0.650 OA
DOCKED: BRANCH  41  43
DOCKED: ATOM     43  O   UNL d   1      -7.966  12.321 -16.537 +0.05 -0.03    -0.776 OA
DOCKED: ATOM     44  H   UNL d   1      -7.983  12.324 -15.571 +0.03 +0.00    +0.167 HD
DOCKED: ENDBRANCH  41  43
DOCKED: ENDBRANCH  40  41
DOCKED: ENDBRANCH  39  40
DOCKED: ENDBRANCH  22  39
DOCKED: BRANCH  12  45
DOCKED: ATOM     45  C   UNL d   1      -2.771  15.730  -8.911 -0.21 +0.00    +0.004 C 
DOCKED: ATOM     46  C   UNL d   1      -3.282  16.876  -8.470 -0.13 +0.00    +0.012 C 
DOCKED: ENDBRANCH  12  45
DOCKED: BRANCH  17  47
DOCKED: ATOM     47  C   UNL d   1      -3.380  17.980 -16.371 -0.06 +0.00    +0.004 C 
DOCKED: ATOM     48  C   UNL d   1      -4.487  18.444 -16.956 -0.08 +0.01    +0.012 C 
DOCKED: ENDBRANCH  17  47
DOCKED: TORSDOF 12
DOCKED: TER
DOCKED: ENDMDL
________________________________________________________________________________


	BEGINNING GENETIC ALGORITHM DOCKING 65 of 100
Run: 65 Seed: 818801496 1930655809 [ Run 65 of 100 GA/GALS ]
Beginning LAMARCKIAN GENETIC ALGORITHM (LGA), with a maximum of 25000000 energy evaluations.

Final-Value: -9.295


	FINAL GENETIC ALGORITHM DOCKED STATE
	_______________________________________________


Detailed state:  trans -9.330 -13.223 11.311 quatxyzw 0.449709 -0.157784 0.152046 -0.865880 center 8.781 34.984 -0.736 ntor 12 -103.9766 119.5587 -151.2750 127.7190 158.8309 131.2455 61.6019 110.7251 -121.6653 112.5870 167.4959 -178.6130
State:	 -9.330 -13.223  11.311   0.899 -0.315  0.304 -60.033   -103.98  119.56 -151.28  127.72  158.83  131.25   61.60  110.73 -121.67  112.59  167.50 -178.61

DOCKED: MODEL       65
DOCKED: USER    Run = 65
DOCKED: USER    DPF = D:/Protein_go_brrr/autodock/final/mut_N102T/heme_Co/dock.dpf
DOCKED: USER  
DOCKED: USER    Estimated Free Energy of Binding    =   -2.35 kcal/mol  [=(1)+(2)+(3)-(4)]
DOCKED: USER    Estimated Inhibition Constant, Ki   =   19.10 mM (millimolar)  [Temperature = 298.15 K]
DOCKED: USER    
DOCKED: USER    (1) Final Intermolecular Energy     =   -5.92 kcal/mol
DOCKED: USER        vdW + Hbond + desolv Energy     =   -6.19 kcal/mol
DOCKED: USER        Electrostatic Energy            =   +0.26 kcal/mol
DOCKED: USER    (2) Final Total Internal Energy     =   -3.37 kcal/mol
DOCKED: USER    (3) Torsional Free Energy           =   +3.58 kcal/mol
DOCKED: USER    (4) Unbound System's Energy  [=(2)] =   -3.37 kcal/mol
DOCKED: USER    
DOCKED: USER    
DOCKED: USER    NEWDPF move heme_Co_opt.pdbqt
DOCKED: USER    NEWDPF about 8.781000 34.984000 -0.736000
DOCKED: USER    NEWDPF tran0 -9.329557 -13.223437 11.311051
DOCKED: USER    NEWDPF quaternion0 0.449709 -0.157784 0.152046 -0.865880
DOCKED: USER    NEWDPF axisangle0 0.898965 -0.315409 0.303940 -60.033332
DOCKED: USER    NEWDPF quat0 0.898965 -0.315409 0.303940 -60.033332
DOCKED: USER    NEWDPF dihe0 -103.98 119.56 -151.28 127.72 158.83 131.25 61.60 110.73 -121.67 112.59 167.50 -178.61 
DOCKED: USER  keepresnum = 1 
DOCKED: USER  
DOCKED: REMARK  12 active torsions:
DOCKED: REMARK  status: ('A' for Active; 'I' for Inactive)
DOCKED: REMARK    1  A    between atoms: C_6  and  C_10 
DOCKED: REMARK    2  A    between atoms: C_10  and  C_11 
DOCKED: REMARK    3  A    between atoms: C_11  and  C_12 
DOCKED: REMARK    4  A    between atoms: C_12  and  O_14 
DOCKED: REMARK    5  A    between atoms: C_17  and  C_20 
DOCKED: REMARK    6  A    between atoms: C_24  and  C_27 
DOCKED: REMARK    7  A    between atoms: C_31  and  C_34 
DOCKED: REMARK    8  A    between atoms: C_34  and  C_35 
DOCKED: REMARK    9  A    between atoms: C_35  and  C_36 
DOCKED: REMARK   10  A    between atoms: C_36  and  O_38 
DOCKED: REMARK   11  A    between atoms: FE_43  and  C_44 
DOCKED: REMARK   12  A    between atoms: C_44  and  O_45 
DOCKED: USER                              x       y       z     vdW  Elec       q    Type
DOCKED: USER                           _______ _______ _______ _____ _____    ______ ____
DOCKED: ROOT
DOCKED: ATOM      1  C   UNL d   1     -11.165 -12.481  10.419 -0.11 -0.02    +0.064 A 
DOCKED: ATOM      2  C   UNL d   1      -9.459 -16.878  11.029 -0.19 -0.04    +0.064 C 
DOCKED: ATOM      3  C   UNL d   1      -5.378 -15.094  12.760 -0.23 -0.03    +0.064 A 
DOCKED: ATOM      4  C   UNL d   1      -7.246 -10.610  12.506 -0.19 -0.01    +0.064 A 
DOCKED: ATOM      5  C   UNL d   1     -10.984 -13.813  10.424 -0.14 -0.02    +0.066 A 
DOCKED: ATOM      6  C   UNL d   1     -12.005 -14.707  10.047 -0.12 +0.01    -0.021 A 
DOCKED: ATOM      7  C   UNL d   1     -11.513 -15.981  10.248 -0.14 +0.01    -0.025 A 
DOCKED: ATOM      8  C   UNL d   1     -10.208 -15.811  10.723 -0.06 -0.03    +0.066 A 
DOCKED: ATOM      9  C   UNL d   1     -12.231 -17.318  10.008 -0.08 -0.02    +0.051 C 
DOCKED: ATOM     10  C   UNL d   1      -8.098 -16.801  11.499 -0.17 -0.04    +0.066 A 
DOCKED: ATOM     11  C   UNL d   1      -7.214 -17.882  11.703 -0.18 +0.01    -0.021 A 
DOCKED: ATOM     12  C   UNL d   1      -6.030 -17.333  12.204 -0.19 -0.00    +0.000 A 
DOCKED: ATOM     13  C   UNL d   1      -6.274 -15.961  12.256 -0.22 -0.03    +0.070 A 
DOCKED: ATOM     14  C   UNL d   1      -7.470 -19.324  11.346 -0.13 -0.04    +0.052 C 
DOCKED: ATOM     15  C   UNL d   1      -5.485 -13.659  12.937 -0.26 -0.02    +0.066 A 
DOCKED: ATOM     16  C   UNL d   1      -4.579 -12.842  13.598 -0.31 +0.01    -0.021 A 
DOCKED: ATOM     17  C   UNL d   1      -5.115 -11.548  13.530 -0.33 -0.00    +0.000 A 
DOCKED: ATOM     18  C   UNL d   1      -6.301 -11.676  12.815 -0.17 -0.02    +0.070 A 
DOCKED: ATOM     19  C   UNL d   1      -3.292 -13.302  14.245 -0.29 -0.03    +0.052 C 
DOCKED: ATOM     20  C   UNL d   1      -8.446 -10.725  11.889 -0.18 -0.02    +0.066 A 
DOCKED: ATOM     21  C   UNL d   1      -9.283  -9.631  11.681 -0.15 +0.01    -0.025 A 
DOCKED: ATOM     22  C   UNL d   1     -10.408 -10.135  11.055 -0.10 +0.01    -0.021 A 
DOCKED: ATOM     23  C   UNL d   1     -10.205 -11.525  10.922 -0.12 -0.02    +0.066 A 
DOCKED: ATOM     24  C   UNL d   1      -9.033  -8.178  12.077 -0.23 -0.02    +0.051 C 
DOCKED: ATOM     25  N   UNL d   1      -9.852 -14.477  10.836 -0.05 +0.13    -0.248 N 
DOCKED: ATOM     26  N   UNL d   1      -7.504 -15.635  11.777 -0.04 +0.14    -0.248 N 
DOCKED: ATOM     27  N   UNL d   1      -6.505 -12.951  12.505 -0.18 +0.07    -0.248 N 
DOCKED: ATOM     28  N   UNL d   1      -9.020 -11.887  11.428 -0.12 +0.07    -0.248 N 
DOCKED: ATOM     29 FE   UNL d   1      -8.080 -13.666  11.719 -0.05 -0.00    +0.000 Fe
DOCKED: ENDROOT
DOCKED: BRANCH   6  30
DOCKED: ATOM     30  C   UNL d   1     -13.415 -14.340   9.595 -0.06 -0.01    +0.052 C 
DOCKED: BRANCH  30  31
DOCKED: ATOM     31  C   UNL d   1     -14.436 -14.698  10.674 -0.01 -0.02    +0.115 C 
DOCKED: BRANCH  31  32
DOCKED: ATOM     32  C   UNL d   1     -14.127 -14.040  12.002 -0.00 -0.02    +0.139 C 
DOCKED: ATOM     33  O   UNL d   1     -13.135 -14.385  12.627 +0.01 +0.10    -0.650 OA
DOCKED: BRANCH  32  34
DOCKED: ATOM     34  O   UNL d   1     -14.890 -13.040  12.502 +0.00 +0.09    -0.776 OA
DOCKED: ATOM     35  H   UNL d   1     -14.612 -12.115  12.549 +0.00 -0.02    +0.167 HD
DOCKED: ENDBRANCH  32  34
DOCKED: ENDBRANCH  31  32
DOCKED: ENDBRANCH  30  31
DOCKED: ENDBRANCH   6  30
DOCKED: BRANCH  29  36
DOCKED: ATOM     36  C   UNL d   1      -9.035 -13.893  13.572 -0.04 -0.05    +0.190 C 
DOCKED: BRANCH  36  37
DOCKED: ATOM     37  O   UNL d   1     -10.295 -13.993  14.171 +0.00 +0.07    -0.399 OA
DOCKED: ATOM     38  H   UNL d   1     -10.938 -14.036  13.410 +0.02 -0.04    +0.209 HD
DOCKED: ENDBRANCH  36  37
DOCKED: ENDBRANCH  29  36
DOCKED: BRANCH  22  39
DOCKED: ATOM     39  C   UNL d   1     -11.635  -9.331  10.668 -0.06 -0.01    +0.052 C 
DOCKED: BRANCH  39  40
DOCKED: ATOM     40  C   UNL d   1     -12.510  -9.049  11.900 -0.01 -0.03    +0.115 C 
DOCKED: BRANCH  40  41
DOCKED: ATOM     41  C   UNL d   1     -13.269 -10.254  12.415 +0.00 -0.02    +0.139 C 
DOCKED: ATOM     42  O   UNL d   1     -14.486 -10.287  12.303 +0.00 +0.08    -0.650 OA
DOCKED: BRANCH  41  43
DOCKED: ATOM     43  O   UNL d   1     -12.631 -11.334  12.918 +0.01 +0.12    -0.776 OA
DOCKED: ATOM     44  H   UNL d   1     -12.959 -12.234  12.797 +0.00 -0.02    +0.167 HD
DOCKED: ENDBRANCH  41  43
DOCKED: ENDBRANCH  40  41
DOCKED: ENDBRANCH  39  40
DOCKED: ENDBRANCH  22  39
DOCKED: BRANCH  12  45
DOCKED: ATOM     45  C   UNL d   1      -4.697 -17.942  12.619 -0.14 -0.00    +0.004 C 
DOCKED: ATOM     46  C   UNL d   1      -3.469 -17.740  12.149 -0.22 -0.01    +0.012 C 
DOCKED: ENDBRANCH  12  45
DOCKED: BRANCH  17  47
DOCKED: ATOM     47  C   UNL d   1      -4.608 -10.273  14.121 -0.48 -0.00    +0.004 C 
DOCKED: ATOM     48  C   UNL d   1      -4.598  -9.110  13.466 -0.51 -0.00    +0.012 C 
DOCKED: ENDBRANCH  17  47
DOCKED: TORSDOF 12
DOCKED: TER
DOCKED: ENDMDL
________________________________________________________________________________


	BEGINNING GENETIC ALGORITHM DOCKING 66 of 100
Run: 66 Seed: 1885766816 29580169 [ Run 66 of 100 GA/GALS ]
Beginning LAMARCKIAN GENETIC ALGORITHM (LGA), with a maximum of 25000000 energy evaluations.

Final-Value: -10.622


	FINAL GENETIC ALGORITHM DOCKED STATE
	_______________________________________________


Detailed state:  trans 7.931 -6.837 15.306 quatxyzw 0.469289 0.663886 0.558436 -0.164839 center 8.781 34.984 -0.736 ntor 12 -65.2073 138.5195 27.1124 137.6461 78.8007 120.9230 57.4404 -180.0000 -133.3617 42.6580 178.3949 135.6988
State:	  7.931  -6.837  15.306   0.476  0.673  0.566 -161.024    -65.21  138.52   27.11  137.65   78.80  120.92   57.44 -180.00 -133.36   42.66  178.39  135.70

DOCKED: MODEL       66
DOCKED: USER    Run = 66
DOCKED: USER    DPF = D:/Protein_go_brrr/autodock/final/mut_N102T/heme_Co/dock.dpf
DOCKED: USER  
DOCKED: USER    Estimated Free Energy of Binding    =   -4.37 kcal/mol  [=(1)+(2)+(3)-(4)]
DOCKED: USER    Estimated Inhibition Constant, Ki   =  631.51 uM (micromolar)  [Temperature = 298.15 K]
DOCKED: USER    
DOCKED: USER    (1) Final Intermolecular Energy     =   -7.94 kcal/mol
DOCKED: USER        vdW + Hbond + desolv Energy     =   -6.23 kcal/mol
DOCKED: USER        Electrostatic Energy            =   -1.72 kcal/mol
DOCKED: USER    (2) Final Total Internal Energy     =   -2.68 kcal/mol
DOCKED: USER    (3) Torsional Free Energy           =   +3.58 kcal/mol
DOCKED: USER    (4) Unbound System's Energy  [=(2)] =   -2.68 kcal/mol
DOCKED: USER    
DOCKED: USER    
DOCKED: USER    NEWDPF move heme_Co_opt.pdbqt
DOCKED: USER    NEWDPF about 8.781000 34.984000 -0.736000
DOCKED: USER    NEWDPF tran0 7.930973 -6.836761 15.306122
DOCKED: USER    NEWDPF quaternion0 0.469289 0.663886 0.558436 -0.164839
DOCKED: USER    NEWDPF axisangle0 0.475798 0.673093 0.566182 -161.024180
DOCKED: USER    NEWDPF quat0 0.475798 0.673093 0.566182 -161.024180
DOCKED: USER    NEWDPF dihe0 -65.21 138.52 27.11 137.65 78.80 120.92 57.44 -180.00 -133.36 42.66 178.39 135.70 
DOCKED: USER  keepresnum = 1 
DOCKED: USER  
DOCKED: REMARK  12 active torsions:
DOCKED: REMARK  status: ('A' for Active; 'I' for Inactive)
DOCKED: REMARK    1  A    between atoms: C_6  and  C_10 
DOCKED: REMARK    2  A    between atoms: C_10  and  C_11 
DOCKED: REMARK    3  A    between atoms: C_11  and  C_12 
DOCKED: REMARK    4  A    between atoms: C_12  and  O_14 
DOCKED: REMARK    5  A    between atoms: C_17  and  C_20 
DOCKED: REMARK    6  A    between atoms: C_24  and  C_27 
DOCKED: REMARK    7  A    between atoms: C_31  and  C_34 
DOCKED: REMARK    8  A    between atoms: C_34  and  C_35 
DOCKED: REMARK    9  A    between atoms: C_35  and  C_36 
DOCKED: REMARK   10  A    between atoms: C_36  and  O_38 
DOCKED: REMARK   11  A    between atoms: FE_43  and  C_44 
DOCKED: REMARK   12  A    between atoms: C_44  and  O_45 
DOCKED: USER                              x       y       z     vdW  Elec       q    Type
DOCKED: USER                           _______ _______ _______ _____ _____    ______ ____
DOCKED: ROOT
DOCKED: ATOM      1  C   UNL d   1       8.496  -8.929  15.436 -0.22 +0.03    +0.064 A 
DOCKED: ATOM      2  C   UNL d   1       9.467  -5.551  12.234 -0.16 +0.03    +0.064 C 
DOCKED: ATOM      3  C   UNL d   1       6.588  -2.501  14.523 -0.16 +0.00    +0.064 A 
DOCKED: ATOM      4  C   UNL d   1       5.882  -5.811  18.018 -0.12 -0.00    +0.064 A 
DOCKED: ATOM      5  C   UNL d   1       8.945  -8.242  14.373 -0.16 +0.02    +0.066 A 
DOCKED: ATOM      6  C   UNL d   1       9.889  -8.782  13.478 -0.13 -0.01    -0.021 A 
DOCKED: ATOM      7  C   UNL d   1      10.184  -7.789  12.564 -0.12 -0.01    -0.025 A 
DOCKED: ATOM      8  C   UNL d   1       9.396  -6.693  12.931 -0.16 +0.02    +0.066 A 
DOCKED: ATOM      9  C   UNL d   1      11.169  -7.855  11.387 -0.12 +0.02    +0.051 C 
DOCKED: ATOM     10  C   UNL d   1       8.676  -4.380  12.520 -0.13 +0.02    +0.066 A 
DOCKED: ATOM     11  C   UNL d   1       8.601  -3.202  11.745 -0.17 -0.01    -0.021 A 
DOCKED: ATOM     12  C   UNL d   1       7.752  -2.332  12.434 -0.20 +0.00    +0.000 A 
DOCKED: ATOM     13  C   UNL d   1       7.362  -3.045  13.568 -0.13 +0.01    +0.070 A 
DOCKED: ATOM     14  C   UNL d   1       9.231  -2.982  10.394 -0.16 +0.05    +0.052 C 
DOCKED: ATOM     15  C   UNL d   1       6.135  -3.073  15.776 -0.12 -0.00    +0.066 A 
DOCKED: ATOM     16  C   UNL d   1       5.456  -2.407  16.786 -0.16 +0.00    -0.021 A 
DOCKED: ATOM     17  C   UNL d   1       5.253  -3.356  17.798 -0.10 -0.00    +0.000 A 
DOCKED: ATOM     18  C   UNL d   1       5.811  -4.536  17.315 -0.09 -0.00    +0.070 A 
DOCKED: ATOM     19  C   UNL d   1       5.045  -0.952  16.755 -0.35 -0.01    +0.052 C 
DOCKED: ATOM     20  C   UNL d   1       6.495  -6.946  17.605 -0.17 -0.00    +0.066 A 
DOCKED: ATOM     21  C   UNL d   1       6.528  -8.099  18.386 -0.17 -0.00    -0.025 A 
DOCKED: ATOM     22  C   UNL d   1       7.250  -9.025  17.655 -0.21 -0.00    -0.021 A 
DOCKED: ATOM     23  C   UNL d   1       7.635  -8.381  16.460 -0.23 +0.01    +0.066 A 
DOCKED: ATOM     24  C   UNL d   1       5.918  -8.304  19.770 -0.10 -0.00    +0.051 C 
DOCKED: ATOM     25  N   UNL d   1       8.614  -6.947  14.044 -0.14 -0.06    -0.248 N 
DOCKED: ATOM     26  N   UNL d   1       7.877  -4.304  13.590 -0.07 -0.04    -0.248 N 
DOCKED: ATOM     27  N   UNL d   1       6.353  -4.322  16.122 +0.02 -0.00    -0.248 N 
DOCKED: ATOM     28  N   UNL d   1       7.183  -7.122  16.427 -0.12 -0.02    -0.248 N 
DOCKED: ATOM     29 FE   UNL d   1       7.416  -5.559  15.147 -0.04 +0.00    +0.000 Fe
DOCKED: ENDROOT
DOCKED: BRANCH   6  30
DOCKED: ATOM     30  C   UNL d   1      10.532 -10.162  13.558 -0.18 +0.04    +0.052 C 
DOCKED: BRANCH  30  31
DOCKED: ATOM     31  C   UNL d   1      11.905 -10.078  14.223 -0.07 +0.06    +0.115 C 
DOCKED: BRANCH  31  32
DOCKED: ATOM     32  C   UNL d   1      11.894  -9.208  15.462 -0.04 +0.05    +0.139 C 
DOCKED: ATOM     33  O   UNL d   1      11.796  -7.996  15.344 +0.02 -0.17    -0.650 OA
DOCKED: BRANCH  32  34
DOCKED: ATOM     34  O   UNL d   1      11.941  -9.734  16.708 +0.02 -0.28    -0.776 OA
DOCKED: ATOM     35  H   UNL d   1      11.221 -10.236  17.114 +0.01 +0.08    +0.167 HD
DOCKED: ENDBRANCH  32  34
DOCKED: ENDBRANCH  31  32
DOCKED: ENDBRANCH  30  31
DOCKED: ENDBRANCH   6  30
DOCKED: BRANCH  29  36
DOCKED: ATOM     36  C   UNL d   1       9.179  -4.989  16.127 -0.04 +0.02    +0.190 C 
DOCKED: BRANCH  36  37
DOCKED: ATOM     37  O   UNL d   1      10.401  -5.480  16.597 -0.00 -0.05    -0.399 OA
DOCKED: ATOM     38  H   UNL d   1      10.591  -6.280  16.032 +0.02 +0.04    +0.209 HD
DOCKED: ENDBRANCH  36  37
DOCKED: ENDBRANCH  29  36
DOCKED: BRANCH  22  39
DOCKED: ATOM     39  C   UNL d   1       7.602 -10.427  18.114 -0.18 +0.02    +0.052 C 
DOCKED: BRANCH  39  40
DOCKED: ATOM     40  C   UNL d   1       9.125 -10.639  18.092 -0.12 +0.05    +0.115 C 
DOCKED: BRANCH  40  41
DOCKED: ATOM     41  C   UNL d   1       9.557 -12.024  17.660 +0.08 +0.14    +0.139 C 
DOCKED: ATOM     42  O   UNL d   1       8.946 -12.999  18.076 -0.07 -0.54    -0.650 OA
DOCKED: BRANCH  41  43
DOCKED: ATOM     43  O   UNL d   1      10.545 -12.211  16.757 -0.47 -1.38    -0.776 OA
DOCKED: ATOM     44  H   UNL d   1      11.306 -11.619  16.690 +0.01 +0.16    +0.167 HD
DOCKED: ENDBRANCH  41  43
DOCKED: ENDBRANCH  40  41
DOCKED: ENDBRANCH  39  40
DOCKED: ENDBRANCH  22  39
DOCKED: BRANCH  12  45
DOCKED: ATOM     45  C   UNL d   1       7.251  -0.924  12.143 -0.38 +0.00    +0.004 C 
DOCKED: ATOM     46  C   UNL d   1       6.017  -0.427  12.137 -0.48 -0.00    +0.012 C 
DOCKED: ENDBRANCH  12  45
DOCKED: BRANCH  17  47
DOCKED: ATOM     47  C   UNL d   1       4.633  -3.195  19.147 -0.07 -0.00    +0.004 C 
DOCKED: ATOM     48  C   UNL d   1       3.394  -2.738  19.339 -0.10 -0.00    +0.012 C 
DOCKED: ENDBRANCH  17  47
DOCKED: TORSDOF 12
DOCKED: TER
DOCKED: ENDMDL
________________________________________________________________________________


	BEGINNING GENETIC ALGORITHM DOCKING 67 of 100
Run: 67 Seed: 555822629 1593736517 [ Run 67 of 100 GA/GALS ]
Beginning LAMARCKIAN GENETIC ALGORITHM (LGA), with a maximum of 25000000 energy evaluations.

Final-Value: -9.848


	FINAL GENETIC ALGORITHM DOCKED STATE
	_______________________________________________


Detailed state:  trans 9.503 16.811 3.419 quatxyzw -0.132914 -0.972610 -0.075252 -0.175218 center 8.781 34.984 -0.736 ntor 12 159.3689 116.0977 -47.0917 -35.7889 -99.4037 153.1222 -149.5432 161.8837 123.9872 178.4684 4.9833 0.4991
State:	  9.503  16.811   3.419  -0.135 -0.988 -0.076 -159.817    159.37  116.10  -47.09  -35.79  -99.40  153.12 -149.54  161.88  123.99  178.47    4.98    0.50

DOCKED: MODEL       67
DOCKED: USER    Run = 67
DOCKED: USER    DPF = D:/Protein_go_brrr/autodock/final/mut_N102T/heme_Co/dock.dpf
DOCKED: USER  
DOCKED: USER    Estimated Free Energy of Binding    =   -3.98 kcal/mol  [=(1)+(2)+(3)-(4)]
DOCKED: USER    Estimated Inhibition Constant, Ki   =    1.22 mM (millimolar)  [Temperature = 298.15 K]
DOCKED: USER    
DOCKED: USER    (1) Final Intermolecular Energy     =   -7.56 kcal/mol
DOCKED: USER        vdW + Hbond + desolv Energy     =   -4.81 kcal/mol
DOCKED: USER        Electrostatic Energy            =   -2.75 kcal/mol
DOCKED: USER    (2) Final Total Internal Energy     =   -2.29 kcal/mol
DOCKED: USER    (3) Torsional Free Energy           =   +3.58 kcal/mol
DOCKED: USER    (4) Unbound System's Energy  [=(2)] =   -2.29 kcal/mol
DOCKED: USER    
DOCKED: USER    
DOCKED: USER    NEWDPF move heme_Co_opt.pdbqt
DOCKED: USER    NEWDPF about 8.781000 34.984000 -0.736000
DOCKED: USER    NEWDPF tran0 9.503073 16.811293 3.419283
DOCKED: USER    NEWDPF quaternion0 -0.132914 -0.972610 -0.075252 -0.175218
DOCKED: USER    NEWDPF axisangle0 -0.135003 -0.987893 -0.076434 -159.817309
DOCKED: USER    NEWDPF quat0 -0.135003 -0.987893 -0.076434 -159.817309
DOCKED: USER    NEWDPF dihe0 159.37 116.10 -47.09 -35.79 -99.40 153.12 -149.54 161.88 123.99 178.47 4.98 0.50 
DOCKED: USER  keepresnum = 1 
DOCKED: USER  
DOCKED: REMARK  12 active torsions:
DOCKED: REMARK  status: ('A' for Active; 'I' for Inactive)
DOCKED: REMARK    1  A    between atoms: C_6  and  C_10 
DOCKED: REMARK    2  A    between atoms: C_10  and  C_11 
DOCKED: REMARK    3  A    between atoms: C_11  and  C_12 
DOCKED: REMARK    4  A    between atoms: C_12  and  O_14 
DOCKED: REMARK    5  A    between atoms: C_17  and  C_20 
DOCKED: REMARK    6  A    between atoms: C_24  and  C_27 
DOCKED: REMARK    7  A    between atoms: C_31  and  C_34 
DOCKED: REMARK    8  A    between atoms: C_34  and  C_35 
DOCKED: REMARK    9  A    between atoms: C_35  and  C_36 
DOCKED: REMARK   10  A    between atoms: C_36  and  O_38 
DOCKED: REMARK   11  A    between atoms: FE_43  and  C_44 
DOCKED: REMARK   12  A    between atoms: C_44  and  O_45 
DOCKED: USER                              x       y       z     vdW  Elec       q    Type
DOCKED: USER                           _______ _______ _______ _____ _____    ______ ____
DOCKED: ROOT
DOCKED: ATOM      1  C   UNL d   1      11.666  16.674   3.559 -0.05 +0.05    +0.064 A 
DOCKED: ATOM      2  C   UNL d   1       8.572  15.151   0.285 -0.09 -0.01    +0.064 C 
DOCKED: ATOM      3  C   UNL d   1       4.921  16.576   3.017 -0.14 -0.00    +0.064 A 
DOCKED: ATOM      4  C   UNL d   1       8.065  18.487   6.199 -0.12 +0.01    +0.064 A 
DOCKED: ATOM      5  C   UNL d   1      11.088  16.120   2.480 -0.05 +0.05    +0.066 A 
DOCKED: ATOM      6  C   UNL d   1      11.843  15.638   1.393 -0.05 -0.01    -0.021 A 
DOCKED: ATOM      7  C   UNL d   1      10.940  15.218   0.436 -0.05 -0.00    -0.025 A 
DOCKED: ATOM      8  C   UNL d   1       9.674  15.447   0.986 -0.06 +0.01    +0.066 A 
DOCKED: ATOM      9  C   UNL d   1      11.241  14.624  -0.948 -0.11 -0.01    +0.051 C 
DOCKED: ATOM     10  C   UNL d   1       7.229  15.326   0.778 -0.08 -0.01    +0.066 A 
DOCKED: ATOM     11  C   UNL d   1       6.037  14.906   0.149 -0.16 +0.01    -0.021 A 
DOCKED: ATOM     12  C   UNL d   1       4.988  15.331   0.969 -0.16 -0.00    +0.000 A 
DOCKED: ATOM     13  C   UNL d   1       5.616  15.966   2.041 -0.12 -0.00    +0.070 A 
DOCKED: ATOM     14  C   UNL d   1       5.935  14.072  -1.102 -0.29 -0.04    +0.052 C 
DOCKED: ATOM     15  C   UNL d   1       5.404  17.320   4.164 -0.16 -0.00    +0.066 A 
DOCKED: ATOM     16  C   UNL d   1       4.632  18.050   5.056 -0.23 +0.01    -0.021 A 
DOCKED: ATOM     17  C   UNL d   1       5.535  18.605   5.974 -0.26 -0.00    +0.000 A 
DOCKED: ATOM     18  C   UNL d   1       6.789  18.154   5.578 -0.17 -0.00    +0.070 A 
DOCKED: ATOM     19  C   UNL d   1       3.127  18.188   5.004 -0.26 -0.03    +0.052 C 
DOCKED: ATOM     20  C   UNL d   1       9.303  18.131   5.781 -0.10 +0.02    +0.066 A 
DOCKED: ATOM     21  C   UNL d   1      10.458  18.543   6.442 -0.06 -0.01    -0.025 A 
DOCKED: ATOM     22  C   UNL d   1      11.511  18.012   5.720 -0.06 -0.01    -0.021 A 
DOCKED: ATOM     23  C   UNL d   1      10.942  17.306   4.639 -0.05 +0.05    +0.066 A 
DOCKED: ATOM     24  C   UNL d   1      10.556  19.418   7.689 -0.03 +0.00    +0.051 C 
DOCKED: ATOM     25  N   UNL d   1       9.736  15.999   2.254 -0.06 -0.13    -0.248 N 
DOCKED: ATOM     26  N   UNL d   1       6.972  15.913   1.952 -0.05 -0.01    -0.248 N 
DOCKED: ATOM     27  N   UNL d   1       6.676  17.416   4.479 -0.11 -0.02    -0.248 N 
DOCKED: ATOM     28  N   UNL d   1       9.606  17.378   4.671 -0.08 -0.18    -0.248 N 
DOCKED: ATOM     29 FE   UNL d   1       8.118  16.751   3.435 -0.02 +0.00    +0.000 Fe
DOCKED: ENDROOT
DOCKED: BRANCH   6  30
DOCKED: ATOM     30  C   UNL d   1      13.362  15.662   1.258 -0.02 +0.01    +0.052 C 
DOCKED: BRANCH  30  31
DOCKED: ATOM     31  C   UNL d   1      13.973  14.392   1.848 -0.03 +0.03    +0.115 C 
DOCKED: BRANCH  31  32
DOCKED: ATOM     32  C   UNL d   1      13.610  14.199   3.305 -0.06 +0.10    +0.139 C 
DOCKED: ATOM     33  O   UNL d   1      12.523  13.722   3.595 -0.36 -1.12    -0.650 OA
DOCKED: BRANCH  32  34
DOCKED: ATOM     34  O   UNL d   1      14.473  14.494   4.305 +0.01 -0.38    -0.776 OA
DOCKED: ATOM     35  H   UNL d   1      14.205  14.717   5.207 +0.02 +0.11    +0.167 HD
DOCKED: ENDBRANCH  32  34
DOCKED: ENDBRANCH  31  32
DOCKED: ENDBRANCH  30  31
DOCKED: ENDBRANCH   6  30
DOCKED: BRANCH  29  36
DOCKED: ATOM     36  C   UNL d   1       8.270  18.517   2.317 -0.01 +0.01    +0.190 C 
DOCKED: BRANCH  36  37
DOCKED: ATOM     37  O   UNL d   1       9.004  19.130   1.296 +0.01 +0.01    -0.399 OA
DOCKED: ATOM     38  H   UNL d   1       9.657  18.437   0.998 +0.01 +0.00    +0.209 HD
DOCKED: ENDBRANCH  36  37
DOCKED: ENDBRANCH  29  36
DOCKED: BRANCH  22  39
DOCKED: ATOM     39  C   UNL d   1      12.982  18.228   6.021 -0.02 +0.01    +0.052 C 
DOCKED: BRANCH  39  40
DOCKED: ATOM     40  C   UNL d   1      13.579  16.999   6.725 -0.04 +0.04    +0.115 C 
DOCKED: BRANCH  40  41
DOCKED: ATOM     41  C   UNL d   1      12.563  15.944   7.109 -0.12 +0.11    +0.139 C 
DOCKED: ATOM     42  O   UNL d   1      11.655  16.239   7.873 -0.09 -0.37    -0.650 OA
DOCKED: BRANCH  41  43
DOCKED: ATOM     43  O   UNL d   1      12.581  14.708   6.563 -0.07 -1.37    -0.776 OA
DOCKED: ATOM     44  H   UNL d   1      12.760  14.557   5.626 +0.04 +0.35    +0.167 HD
DOCKED: ENDBRANCH  41  43
DOCKED: ENDBRANCH  40  41
DOCKED: ENDBRANCH  39  40
DOCKED: ENDBRANCH  22  39
DOCKED: BRANCH  12  45
DOCKED: ATOM     45  C   UNL d   1       3.475  15.195   0.873 -0.18 -0.00    +0.004 C 
DOCKED: ATOM     46  C   UNL d   1       2.654  15.364  -0.160 -0.29 -0.00    +0.012 C 
DOCKED: ENDBRANCH  12  45
DOCKED: BRANCH  17  47
DOCKED: ATOM     47  C   UNL d   1       5.283  19.533   7.117 -0.20 -0.00    +0.004 C 
DOCKED: ATOM     48  C   UNL d   1       5.845  20.739   7.225 -0.15 -0.01    +0.012 C 
DOCKED: ENDBRANCH  17  47
DOCKED: TORSDOF 12
DOCKED: TER
DOCKED: ENDMDL
________________________________________________________________________________


	BEGINNING GENETIC ALGORITHM DOCKING 68 of 100
Run: 68 Seed: 203071222 1657243300 [ Run 68 of 100 GA/GALS ]
Beginning LAMARCKIAN GENETIC ALGORITHM (LGA), with a maximum of 25000000 energy evaluations.

Final-Value: -9.971


	FINAL GENETIC ALGORITHM DOCKED STATE
	_______________________________________________


Detailed state:  trans -9.487 -11.246 -9.855 quatxyzw 0.656609 0.730276 0.040666 -0.184140 center 8.781 34.984 -0.736 ntor 12 -47.3458 169.2585 17.8054 -100.6542 141.9276 66.2264 -79.5919 56.9181 -62.0033 -11.7571 161.1460 156.9583
State:	 -9.487 -11.246  -9.855   0.668  0.743  0.041 -158.778    -47.35  169.26   17.81 -100.65  141.93   66.23  -79.59   56.92  -62.00  -11.76  161.15  156.96

DOCKED: MODEL       68
DOCKED: USER    Run = 68
DOCKED: USER    DPF = D:/Protein_go_brrr/autodock/final/mut_N102T/heme_Co/dock.dpf
DOCKED: USER  
DOCKED: USER    Estimated Free Energy of Binding    =   -5.82 kcal/mol  [=(1)+(2)+(3)-(4)]
DOCKED: USER    Estimated Inhibition Constant, Ki   =   54.63 uM (micromolar)  [Temperature = 298.15 K]
DOCKED: USER    
DOCKED: USER    (1) Final Intermolecular Energy     =   -9.39 kcal/mol
DOCKED: USER        vdW + Hbond + desolv Energy     =   -6.01 kcal/mol
DOCKED: USER        Electrostatic Energy            =   -3.38 kcal/mol
DOCKED: USER    (2) Final Total Internal Energy     =   -0.58 kcal/mol
DOCKED: USER    (3) Torsional Free Energy           =   +3.58 kcal/mol
DOCKED: USER    (4) Unbound System's Energy  [=(2)] =   -0.58 kcal/mol
DOCKED: USER    
DOCKED: USER    
DOCKED: USER    NEWDPF move heme_Co_opt.pdbqt
DOCKED: USER    NEWDPF about 8.781000 34.984000 -0.736000
DOCKED: USER    NEWDPF tran0 -9.486696 -11.245697 -9.854592
DOCKED: USER    NEWDPF quaternion0 0.656609 0.730276 0.040666 -0.184140
DOCKED: USER    NEWDPF axisangle0 0.668032 0.742981 0.041373 -158.778033
DOCKED: USER    NEWDPF quat0 0.668032 0.742981 0.041373 -158.778033
DOCKED: USER    NEWDPF dihe0 -47.35 169.26 17.81 -100.65 141.93 66.23 -79.59 56.92 -62.00 -11.76 161.15 156.96 
DOCKED: USER  keepresnum = 1 
DOCKED: USER  
DOCKED: REMARK  12 active torsions:
DOCKED: REMARK  status: ('A' for Active; 'I' for Inactive)
DOCKED: REMARK    1  A    between atoms: C_6  and  C_10 
DOCKED: REMARK    2  A    between atoms: C_10  and  C_11 
DOCKED: REMARK    3  A    between atoms: C_11  and  C_12 
DOCKED: REMARK    4  A    between atoms: C_12  and  O_14 
DOCKED: REMARK    5  A    between atoms: C_17  and  C_20 
DOCKED: REMARK    6  A    between atoms: C_24  and  C_27 
DOCKED: REMARK    7  A    between atoms: C_31  and  C_34 
DOCKED: REMARK    8  A    between atoms: C_34  and  C_35 
DOCKED: REMARK    9  A    between atoms: C_35  and  C_36 
DOCKED: REMARK   10  A    between atoms: C_36  and  O_38 
DOCKED: REMARK   11  A    between atoms: FE_43  and  C_44 
DOCKED: REMARK   12  A    between atoms: C_44  and  O_45 
DOCKED: USER                              x       y       z     vdW  Elec       q    Type
DOCKED: USER                           _______ _______ _______ _____ _____    ______ ____
DOCKED: ROOT
DOCKED: ATOM      1  C   UNL d   1      -9.154 -12.908  -8.498 -0.06 +0.02    +0.064 A 
DOCKED: ATOM      2  C   UNL d   1     -10.550 -12.721 -13.040 -0.08 +0.01    +0.064 C 
DOCKED: ATOM      3  C   UNL d   1     -10.665  -7.948 -12.847 -0.08 +0.02    +0.064 A 
DOCKED: ATOM      4  C   UNL d   1      -8.870  -8.101  -8.328 -0.16 +0.01    +0.064 A 
DOCKED: ATOM      5  C   UNL d   1      -9.562 -13.209  -9.742 -0.07 +0.02    +0.066 A 
DOCKED: ATOM      6  C   UNL d   1      -9.595 -14.534 -10.218 -0.10 -0.01    -0.021 A 
DOCKED: ATOM      7  C   UNL d   1      -9.979 -14.472 -11.543 -0.10 -0.00    -0.025 A 
DOCKED: ATOM      8  C   UNL d   1     -10.179 -13.114 -11.814 -0.08 +0.01    +0.066 A 
DOCKED: ATOM      9  C   UNL d   1     -10.154 -15.637 -12.529 -0.10 +0.01    +0.051 C 
DOCKED: ATOM     10  C   UNL d   1     -10.804 -11.350 -13.405 -0.04 +0.01    +0.066 A 
DOCKED: ATOM     11  C   UNL d   1     -11.329 -10.887 -14.631 -0.02 -0.00    -0.021 A 
DOCKED: ATOM     12  C   UNL d   1     -11.356  -9.492 -14.546 -0.04 +0.00    +0.000 A 
DOCKED: ATOM     13  C   UNL d   1     -10.858  -9.209 -13.274 -0.05 +0.02    +0.070 A 
DOCKED: ATOM     14  C   UNL d   1     -11.854 -11.741 -15.756 -0.01 +0.00    +0.052 C 
DOCKED: ATOM     15  C   UNL d   1     -10.114  -7.477 -11.591 -0.12 +0.02    +0.066 A 
DOCKED: ATOM     16  C   UNL d   1      -9.806  -6.163 -11.269 -0.09 -0.01    -0.021 A 
DOCKED: ATOM     17  C   UNL d   1      -9.285  -6.202  -9.968 -0.19 +0.00    +0.000 A 
DOCKED: ATOM     18  C   UNL d   1      -9.334  -7.540  -9.591 -0.15 +0.01    +0.070 A 
DOCKED: ATOM     19  C   UNL d   1     -10.007  -4.968 -12.174 -0.16 +0.02    +0.052 C 
DOCKED: ATOM     20  C   UNL d   1      -8.827  -9.407  -7.972 -0.10 +0.01    +0.066 A 
DOCKED: ATOM     21  C   UNL d   1      -8.325  -9.827  -6.743 -0.17 -0.01    -0.025 A 
DOCKED: ATOM     22  C   UNL d   1      -8.421 -11.206  -6.752 -0.12 -0.01    -0.021 A 
DOCKED: ATOM     23  C   UNL d   1      -8.970 -11.563  -8.001 -0.07 +0.02    +0.066 A 
DOCKED: ATOM     24  C   UNL d   1      -7.762  -8.958  -5.621 -0.16 +0.01    +0.051 C 
DOCKED: ATOM     25  N   UNL d   1      -9.934 -12.309 -10.715 -0.04 -0.05    -0.248 N 
DOCKED: ATOM     26  N   UNL d   1     -10.578 -10.334 -12.564 -0.02 -0.05    -0.248 N 
DOCKED: ATOM     27  N   UNL d   1      -9.805  -8.274 -10.593 -0.06 -0.05    -0.248 N 
DOCKED: ATOM     28  N   UNL d   1      -9.215 -10.477  -8.744 -0.02 -0.05    -0.248 N 
DOCKED: ATOM     29 FE   UNL d   1      -9.865 -10.172 -10.647 -0.02 +0.00    +0.000 Fe
DOCKED: ENDROOT
DOCKED: BRANCH   6  30
DOCKED: ATOM     30  C   UNL d   1      -9.195 -15.788  -9.447 -0.10 +0.02    +0.052 C 
DOCKED: BRANCH  30  31
DOCKED: ATOM     31  C   UNL d   1      -7.965 -16.438 -10.081 +0.08 +0.06    +0.115 C 
DOCKED: BRANCH  31  32
DOCKED: ATOM     32  C   UNL d   1      -6.768 -16.434  -9.155 -0.13 +0.15    +0.139 C 
DOCKED: ATOM     33  O   UNL d   1      -5.933 -17.321  -9.249 -0.16 -0.68    -0.650 OA
DOCKED: BRANCH  32  34
DOCKED: ATOM     34  O   UNL d   1      -6.563 -15.448  -8.251 +0.04 -1.67    -0.776 OA
DOCKED: ATOM     35  H   UNL d   1      -6.570 -14.504  -8.464 -0.45 +0.26    +0.167 HD
DOCKED: ENDBRANCH  32  34
DOCKED: ENDBRANCH  31  32
DOCKED: ENDBRANCH  30  31
DOCKED: ENDBRANCH   6  30
DOCKED: BRANCH  29  36
DOCKED: ATOM     36  C   UNL d   1      -7.901 -10.325 -11.366 -0.28 +0.06    +0.190 C 
DOCKED: BRANCH  36  37
DOCKED: ATOM     37  O   UNL d   1      -6.572 -10.462 -10.955 -0.81 -0.22    -0.399 OA
DOCKED: ATOM     38  H   UNL d   1      -6.560 -11.288 -10.395 -0.10 +0.09    +0.209 HD
DOCKED: ENDBRANCH  36  37
DOCKED: ENDBRANCH  29  36
DOCKED: BRANCH  22  39
DOCKED: ATOM     39  C   UNL d   1      -7.948 -12.128  -5.643 -0.12 +0.03    +0.052 C 
DOCKED: BRANCH  39  40
DOCKED: ATOM     40  C   UNL d   1      -6.599 -12.769  -6.009 -0.23 +0.11    +0.115 C 
DOCKED: BRANCH  40  41
DOCKED: ATOM     41  C   UNL d   1      -5.851 -13.363  -4.834 -0.23 +0.17    +0.139 C 
DOCKED: ATOM     42  O   UNL d   1      -4.667 -13.644  -4.958 -0.36 -1.21    -0.650 OA
DOCKED: BRANCH  41  43
DOCKED: ATOM     43  O   UNL d   1      -6.433 -13.512  -3.623 +0.04 -0.66    -0.776 OA
DOCKED: ATOM     44  H   UNL d   1      -7.390 -13.582  -3.512 +0.04 +0.11    +0.167 HD
DOCKED: ENDBRANCH  41  43
DOCKED: ENDBRANCH  40  41
DOCKED: ENDBRANCH  39  40
DOCKED: ENDBRANCH  22  39
DOCKED: BRANCH  12  45
DOCKED: ATOM     45  C   UNL d   1     -11.809  -8.401 -15.507 -0.03 +0.00    +0.004 C 
DOCKED: ATOM     46  C   UNL d   1     -11.105  -7.511 -16.201 -0.07 +0.00    +0.012 C 
DOCKED: ENDBRANCH  12  45
DOCKED: BRANCH  17  47
DOCKED: ATOM     47  C   UNL d   1      -8.728  -5.099  -9.130 -0.32 +0.00    +0.004 C 
DOCKED: ATOM     48  C   UNL d   1      -9.230  -4.749  -7.943 -0.34 +0.00    +0.012 C 
DOCKED: ENDBRANCH  17  47
DOCKED: TORSDOF 12
DOCKED: TER
DOCKED: ENDMDL
________________________________________________________________________________


	BEGINNING GENETIC ALGORITHM DOCKING 69 of 100
Run: 69 Seed: 1358882091 1831553680 [ Run 69 of 100 GA/GALS ]
Beginning LAMARCKIAN GENETIC ALGORITHM (LGA), with a maximum of 25000000 energy evaluations.

Final-Value: -9.842


	FINAL GENETIC ALGORITHM DOCKED STATE
	_______________________________________________


Detailed state:  trans -5.469 12.025 -11.788 quatxyzw 0.218925 0.256518 -0.339754 0.877974 center 8.781 34.984 -0.736 ntor 12 164.2850 133.0213 113.0979 38.6838 137.7964 131.4887 -131.0343 122.0222 -134.4753 49.4431 -177.2073 0.8265
State:	 -5.469  12.025 -11.788   0.457  0.536 -0.710 57.202    164.28  133.02  113.10   38.68  137.80  131.49 -131.03  122.02 -134.48   49.44 -177.21    0.83

DOCKED: MODEL       69
DOCKED: USER    Run = 69
DOCKED: USER    DPF = D:/Protein_go_brrr/autodock/final/mut_N102T/heme_Co/dock.dpf
DOCKED: USER  
DOCKED: USER    Estimated Free Energy of Binding    =   -4.08 kcal/mol  [=(1)+(2)+(3)-(4)]
DOCKED: USER    Estimated Inhibition Constant, Ki   =    1.03 mM (millimolar)  [Temperature = 298.15 K]
DOCKED: USER    
DOCKED: USER    (1) Final Intermolecular Energy     =   -7.66 kcal/mol
DOCKED: USER        vdW + Hbond + desolv Energy     =   -7.59 kcal/mol
DOCKED: USER        Electrostatic Energy            =   -0.06 kcal/mol
DOCKED: USER    (2) Final Total Internal Energy     =   -2.19 kcal/mol
DOCKED: USER    (3) Torsional Free Energy           =   +3.58 kcal/mol
DOCKED: USER    (4) Unbound System's Energy  [=(2)] =   -2.19 kcal/mol
DOCKED: USER    
DOCKED: USER    
DOCKED: USER    NEWDPF move heme_Co_opt.pdbqt
DOCKED: USER    NEWDPF about 8.781000 34.984000 -0.736000
DOCKED: USER    NEWDPF tran0 -5.468946 12.025182 -11.788200
DOCKED: USER    NEWDPF quaternion0 0.218925 0.256518 -0.339754 0.877974
DOCKED: USER    NEWDPF axisangle0 0.457324 0.535854 -0.709729 57.202222
DOCKED: USER    NEWDPF quat0 0.457324 0.535854 -0.709729 57.202222
DOCKED: USER    NEWDPF dihe0 164.28 133.02 113.10 38.68 137.80 131.49 -131.03 122.02 -134.48 49.44 -177.21 0.83 
DOCKED: USER  keepresnum = 1 
DOCKED: USER  
DOCKED: REMARK  12 active torsions:
DOCKED: REMARK  status: ('A' for Active; 'I' for Inactive)
DOCKED: REMARK    1  A    between atoms: C_6  and  C_10 
DOCKED: REMARK    2  A    between atoms: C_10  and  C_11 
DOCKED: REMARK    3  A    between atoms: C_11  and  C_12 
DOCKED: REMARK    4  A    between atoms: C_12  and  O_14 
DOCKED: REMARK    5  A    between atoms: C_17  and  C_20 
DOCKED: REMARK    6  A    between atoms: C_24  and  C_27 
DOCKED: REMARK    7  A    between atoms: C_31  and  C_34 
DOCKED: REMARK    8  A    between atoms: C_34  and  C_35 
DOCKED: REMARK    9  A    between atoms: C_35  and  C_36 
DOCKED: REMARK   10  A    between atoms: C_36  and  O_38 
DOCKED: REMARK   11  A    between atoms: FE_43  and  C_44 
DOCKED: REMARK   12  A    between atoms: C_44  and  O_45 
DOCKED: USER                              x       y       z     vdW  Elec       q    Type
DOCKED: USER                           _______ _______ _______ _____ _____    ______ ____
DOCKED: ROOT
DOCKED: ATOM      1  C   UNL d   1      -6.435  10.811 -13.307 -0.16 -0.01    +0.064 A 
DOCKED: ATOM      2  C   UNL d   1      -6.582  10.697  -8.556 -0.17 -0.00    +0.064 C 
DOCKED: ATOM      3  C   UNL d   1      -3.275  14.138  -8.334 -0.22 +0.00    +0.064 A 
DOCKED: ATOM      4  C   UNL d   1      -3.388  14.542 -13.180 -0.14 +0.00    +0.064 A 
DOCKED: ATOM      5  C   UNL d   1      -6.691  10.502 -12.026 -0.15 -0.01    +0.066 A 
DOCKED: ATOM      6  C   UNL d   1      -7.680   9.565 -11.666 -0.17 +0.00    -0.021 A 
DOCKED: ATOM      7  C   UNL d   1      -7.734   9.552 -10.286 -0.16 +0.00    -0.025 A 
DOCKED: ATOM      8  C   UNL d   1      -6.766  10.470  -9.863 -0.13 -0.00    +0.066 A 
DOCKED: ATOM      9  C   UNL d   1      -8.657   8.716  -9.387 -0.13 -0.00    +0.051 C 
DOCKED: ATOM     10  C   UNL d   1      -5.593  11.602  -8.026 -0.18 -0.00    +0.066 A 
DOCKED: ATOM     11  C   UNL d   1      -5.255  11.780  -6.667 -0.25 -0.00    -0.021 A 
DOCKED: ATOM     12  C   UNL d   1      -4.285  12.787  -6.631 -0.29 +0.00    +0.000 A 
DOCKED: ATOM     13  C   UNL d   1      -4.095  13.138  -7.968 -0.26 -0.00    +0.070 A 
DOCKED: ATOM     14  C   UNL d   1      -5.766  10.966  -5.506 -0.09 +0.00    +0.052 C 
DOCKED: ATOM     15  C   UNL d   1      -3.000  14.666  -9.656 -0.25 -0.00    +0.066 A 
DOCKED: ATOM     16  C   UNL d   1      -2.253  15.797  -9.952 -0.23 +0.00    -0.021 A 
DOCKED: ATOM     17  C   UNL d   1      -2.285  15.919 -11.348 -0.17 -0.00    +0.000 A 
DOCKED: ATOM     18  C   UNL d   1      -3.038  14.839 -11.797 -0.17 -0.00    +0.070 A 
DOCKED: ATOM     19  C   UNL d   1      -1.566  16.684  -8.938 -0.03 -0.00    +0.052 C 
DOCKED: ATOM     20  C   UNL d   1      -4.190  13.549 -13.633 -0.17 -0.00    +0.066 A 
DOCKED: ATOM     21  C   UNL d   1      -4.482  13.387 -14.985 -0.21 -0.00    -0.025 A 
DOCKED: ATOM     22  C   UNL d   1      -5.335  12.301 -15.055 -0.22 +0.00    -0.021 A 
DOCKED: ATOM     23  C   UNL d   1      -5.533  11.858 -13.730 -0.17 -0.01    +0.066 A 
DOCKED: ATOM     24  C   UNL d   1      -3.989  14.237 -16.153 -0.20 +0.01    +0.051 C 
DOCKED: ATOM     25  N   UNL d   1      -6.101  11.068 -10.919 -0.08 +0.02    -0.248 N 
DOCKED: ATOM     26  N   UNL d   1      -4.845  12.382  -8.814 -0.15 +0.01    -0.248 N 
DOCKED: ATOM     27  N   UNL d   1      -3.473  14.132 -10.760 -0.16 +0.02    -0.248 N 
DOCKED: ATOM     28  N   UNL d   1      -4.843  12.612 -12.866 -0.12 +0.02    -0.248 N 
DOCKED: ATOM     29 FE   UNL d   1      -4.709  12.691 -10.838 -0.04 -0.00    +0.000 Fe
DOCKED: ENDROOT
DOCKED: BRANCH   6  30
DOCKED: ATOM     30  C   UNL d   1      -8.582   8.784 -12.617 -0.15 -0.01    +0.052 C 
DOCKED: BRANCH  30  31
DOCKED: ATOM     31  C   UNL d   1      -9.901   9.524 -12.835 -0.08 -0.01    +0.115 C 
DOCKED: BRANCH  31  32
DOCKED: ATOM     32  C   UNL d   1      -9.701  11.009 -13.049 -0.03 -0.00    +0.139 C 
DOCKED: ATOM     33  O   UNL d   1      -9.712  11.460 -14.185 +0.02 +0.01    -0.650 OA
DOCKED: BRANCH  32  34
DOCKED: ATOM     34  O   UNL d   1      -9.558  11.870 -12.014 +0.02 +0.02    -0.776 OA
DOCKED: ATOM     35  H   UNL d   1      -9.164  12.750 -12.090 +0.01 -0.00    +0.167 HD
DOCKED: ENDBRANCH  32  34
DOCKED: ENDBRANCH  31  32
DOCKED: ENDBRANCH  30  31
DOCKED: ENDBRANCH   6  30
DOCKED: BRANCH  29  36
DOCKED: ATOM     36  C   UNL d   1      -6.371  13.965 -10.754 -0.02 -0.00    +0.190 C 
DOCKED: BRANCH  36  37
DOCKED: ATOM     37  O   UNL d   1      -7.730  14.046 -11.074 +0.00 +0.00    -0.399 OA
DOCKED: ATOM     38  H   UNL d   1      -8.028  13.098 -11.171 +0.01 -0.00    +0.209 HD
DOCKED: ENDBRANCH  36  37
DOCKED: ENDBRANCH  29  36
DOCKED: BRANCH  22  39
DOCKED: ATOM     39  C   UNL d   1      -5.974  11.764 -16.322 -0.22 -0.00    +0.052 C 
DOCKED: BRANCH  39  40
DOCKED: ATOM     40  C   UNL d   1      -5.244  10.500 -16.805 -0.41 -0.01    +0.115 C 
DOCKED: BRANCH  40  41
DOCKED: ATOM     41  C   UNL d   1      -4.985  10.459 -18.296 -0.35 +0.00    +0.139 C 
DOCKED: ATOM     42  O   UNL d   1      -5.725   9.802 -19.014 -0.05 -0.09    -0.650 OA
DOCKED: BRANCH  41  43
DOCKED: ATOM     43  O   UNL d   1      -4.009  11.198 -18.868 +0.01 +0.02    -0.776 OA
DOCKED: ATOM     44  H   UNL d   1      -3.273  10.802 -19.353 -0.53 -0.05    +0.167 HD
DOCKED: ENDBRANCH  41  43
DOCKED: ENDBRANCH  40  41
DOCKED: ENDBRANCH  39  40
DOCKED: ENDBRANCH  22  39
DOCKED: BRANCH  12  45
DOCKED: ATOM     45  C   UNL d   1      -3.508  13.440  -5.496 -0.29 +0.00    +0.004 C 
DOCKED: ATOM     46  C   UNL d   1      -3.114  12.951  -4.323 -0.41 +0.00    +0.012 C 
DOCKED: ENDBRANCH  12  45
DOCKED: BRANCH  17  47
DOCKED: ATOM     47  C   UNL d   1      -1.709  16.981 -12.226 -0.11 +0.00    +0.004 C 
DOCKED: ATOM     48  C   UNL d   1      -0.746  16.755 -13.123 -0.15 +0.00    +0.012 C 
DOCKED: ENDBRANCH  17  47
DOCKED: TORSDOF 12
DOCKED: TER
DOCKED: ENDMDL
________________________________________________________________________________


	BEGINNING GENETIC ALGORITHM DOCKING 70 of 100
Run: 70 Seed: 767685624 1408777088 [ Run 70 of 100 GA/GALS ]
Beginning LAMARCKIAN GENETIC ALGORITHM (LGA), with a maximum of 25000000 energy evaluations.

Final-Value: -9.438


	FINAL GENETIC ALGORITHM DOCKED STATE
	_______________________________________________


Detailed state:  trans 12.995 -7.435 6.856 quatxyzw 0.101496 0.492999 -0.761817 -0.407780 center 8.781 34.984 -0.736 ntor 12 -25.7470 105.1033 131.6171 -19.4068 90.2851 157.6927 179.2790 -13.6517 -128.5185 -76.5975 -27.1056 -15.3185
State:	 12.995  -7.435   6.856   0.111  0.540 -0.834 -131.869    -25.75  105.10  131.62  -19.41   90.29  157.69  179.28  -13.65 -128.52  -76.60  -27.11  -15.32

DOCKED: MODEL       70
DOCKED: USER    Run = 70
DOCKED: USER    DPF = D:/Protein_go_brrr/autodock/final/mut_N102T/heme_Co/dock.dpf
DOCKED: USER  
DOCKED: USER    Estimated Free Energy of Binding    =   -4.07 kcal/mol  [=(1)+(2)+(3)-(4)]
DOCKED: USER    Estimated Inhibition Constant, Ki   =    1.03 mM (millimolar)  [Temperature = 298.15 K]
DOCKED: USER    
DOCKED: USER    (1) Final Intermolecular Energy     =   -7.65 kcal/mol
DOCKED: USER        vdW + Hbond + desolv Energy     =   -5.41 kcal/mol
DOCKED: USER        Electrostatic Energy            =   -2.24 kcal/mol
DOCKED: USER    (2) Final Total Internal Energy     =   -1.79 kcal/mol
DOCKED: USER    (3) Torsional Free Energy           =   +3.58 kcal/mol
DOCKED: USER    (4) Unbound System's Energy  [=(2)] =   -1.79 kcal/mol
DOCKED: USER    
DOCKED: USER    
DOCKED: USER    NEWDPF move heme_Co_opt.pdbqt
DOCKED: USER    NEWDPF about 8.781000 34.984000 -0.736000
DOCKED: USER    NEWDPF tran0 12.994549 -7.434603 6.856321
DOCKED: USER    NEWDPF quaternion0 0.101496 0.492999 -0.761817 -0.407780
DOCKED: USER    NEWDPF axisangle0 0.111158 0.539930 -0.834338 -131.869033
DOCKED: USER    NEWDPF quat0 0.111158 0.539930 -0.834338 -131.869033
DOCKED: USER    NEWDPF dihe0 -25.75 105.10 131.62 -19.41 90.29 157.69 179.28 -13.65 -128.52 -76.60 -27.11 -15.32 
DOCKED: USER  keepresnum = 1 
DOCKED: USER  
DOCKED: REMARK  12 active torsions:
DOCKED: REMARK  status: ('A' for Active; 'I' for Inactive)
DOCKED: REMARK    1  A    between atoms: C_6  and  C_10 
DOCKED: REMARK    2  A    between atoms: C_10  and  C_11 
DOCKED: REMARK    3  A    between atoms: C_11  and  C_12 
DOCKED: REMARK    4  A    between atoms: C_12  and  O_14 
DOCKED: REMARK    5  A    between atoms: C_17  and  C_20 
DOCKED: REMARK    6  A    between atoms: C_24  and  C_27 
DOCKED: REMARK    7  A    between atoms: C_31  and  C_34 
DOCKED: REMARK    8  A    between atoms: C_34  and  C_35 
DOCKED: REMARK    9  A    between atoms: C_35  and  C_36 
DOCKED: REMARK   10  A    between atoms: C_36  and  O_38 
DOCKED: REMARK   11  A    between atoms: FE_43  and  C_44 
DOCKED: REMARK   12  A    between atoms: C_44  and  O_45 
DOCKED: USER                              x       y       z     vdW  Elec       q    Type
DOCKED: USER                           _______ _______ _______ _____ _____    ______ ____
DOCKED: ROOT
DOCKED: ATOM      1  C   UNL d   1      14.396  -5.808   7.181 -0.06 +0.05    +0.064 A 
DOCKED: ATOM      2  C   UNL d   1      12.587  -9.096  10.100 -0.05 +0.02    +0.064 C 
DOCKED: ATOM      3  C   UNL d   1       9.759 -10.702   6.600 -0.29 +0.01    +0.064 A 
DOCKED: ATOM      4  C   UNL d   1      11.867  -7.608   3.495 -0.09 +0.00    +0.064 A 
DOCKED: ATOM      5  C   UNL d   1      14.083  -6.564   8.245 -0.06 +0.05    +0.066 A 
DOCKED: ATOM      6  C   UNL d   1      14.762  -6.444   9.474 -0.04 -0.01    -0.021 A 
DOCKED: ATOM      7  C   UNL d   1      14.249  -7.415  10.310 -0.02 -0.01    -0.025 A 
DOCKED: ATOM      8  C   UNL d   1      13.268  -8.077   9.563 -0.04 +0.03    +0.066 A 
DOCKED: ATOM      9  C   UNL d   1      14.656  -7.723  11.759 -0.00 +0.01    +0.051 C 
DOCKED: ATOM     10  C   UNL d   1      11.542  -9.818   9.417 -0.09 +0.02    +0.066 A 
DOCKED: ATOM     11  C   UNL d   1      10.696 -10.803   9.972 -0.16 -0.01    -0.021 A 
DOCKED: ATOM     12  C   UNL d   1       9.879 -11.251   8.931 -0.25 +0.00    +0.000 A 
DOCKED: ATOM     13  C   UNL d   1      10.277 -10.501   7.824 -0.20 +0.02    +0.070 A 
DOCKED: ATOM     14  C   UNL d   1      10.624 -11.203  11.423 -0.19 +0.03    +0.052 C 
DOCKED: ATOM     15  C   UNL d   1      10.089 -10.058   5.344 -0.23 +0.01    +0.066 A 
DOCKED: ATOM     16  C   UNL d   1       9.619 -10.415   4.087 -0.28 -0.00    -0.021 A 
DOCKED: ATOM     17  C   UNL d   1      10.226  -9.526   3.188 -0.20 -0.00    +0.000 A 
DOCKED: ATOM     18  C   UNL d   1      11.009  -8.685   3.972 -0.11 +0.01    +0.070 A 
DOCKED: ATOM     19  C   UNL d   1       8.651 -11.541   3.800 -0.22 +0.01    +0.052 C 
DOCKED: ATOM     20  C   UNL d   1      12.702  -6.833   4.227 -0.09 +0.02    +0.066 A 
DOCKED: ATOM     21  C   UNL d   1      13.506  -5.852   3.650 -0.10 -0.00    -0.025 A 
DOCKED: ATOM     22  C   UNL d   1      14.224  -5.297   4.692 -0.09 -0.01    -0.021 A 
DOCKED: ATOM     23  C   UNL d   1      13.830  -5.980   5.862 -0.04 +0.04    +0.066 A 
DOCKED: ATOM     24  C   UNL d   1      13.599  -5.476   2.173 -0.12 -0.00    +0.051 C 
DOCKED: ATOM     25  N   UNL d   1      13.140  -7.566   8.282 -0.06 -0.19    -0.248 N 
DOCKED: ATOM     26  N   UNL d   1      11.244  -9.596   8.133 -0.07 -0.08    -0.248 N 
DOCKED: ATOM     27  N   UNL d   1      10.926  -9.050   5.246 -0.07 -0.05    -0.248 N 
DOCKED: ATOM     28  N   UNL d   1      12.910  -6.912   5.585 -0.06 -0.14    -0.248 N 
DOCKED: ATOM     29 FE   UNL d   1      11.969  -8.349   6.672 -0.02 +0.00    +0.000 Fe
DOCKED: ENDROOT
DOCKED: BRANCH   6  30
DOCKED: ATOM     30  C   UNL d   1      15.908  -5.488   9.789 -0.02 +0.02    +0.052 C 
DOCKED: BRANCH  30  31
DOCKED: ATOM     31  C   UNL d   1      15.486  -4.041   9.535 -0.04 +0.06    +0.115 C 
DOCKED: BRANCH  31  32
DOCKED: ATOM     32  C   UNL d   1      14.163  -3.702  10.188 -0.05 +0.13    +0.139 C 
DOCKED: ATOM     33  O   UNL d   1      13.986  -3.976  11.365 -0.01 -0.38    -0.650 OA
DOCKED: BRANCH  32  34
DOCKED: ATOM     34  O   UNL d   1      13.178  -3.057   9.520 -0.47 -1.50    -0.776 OA
DOCKED: ATOM     35  H   UNL d   1      13.329  -2.425   8.805 +0.02 +0.26    +0.167 HD
DOCKED: ENDBRANCH  32  34
DOCKED: ENDBRANCH  31  32
DOCKED: ENDBRANCH  30  31
DOCKED: ENDBRANCH   6  30
DOCKED: BRANCH  29  36
DOCKED: ATOM     36  C   UNL d   1      13.548  -9.682   6.320 -0.01 +0.03    +0.190 C 
DOCKED: BRANCH  36  37
DOCKED: ATOM     37  O   UNL d   1      14.798 -10.081   6.804 +0.00 -0.05    -0.399 OA
DOCKED: ATOM     38  H   UNL d   1      15.022  -9.416   7.514 +0.01 +0.04    +0.209 HD
DOCKED: ENDBRANCH  36  37
DOCKED: ENDBRANCH  29  36
DOCKED: BRANCH  22  39
DOCKED: ATOM     39  C   UNL d   1      15.279  -4.215   4.555 -0.09 +0.01    +0.052 C 
DOCKED: BRANCH  39  40
DOCKED: ATOM     40  C   UNL d   1      14.631  -2.820   4.575 -0.15 +0.04    +0.115 C 
DOCKED: BRANCH  40  41
DOCKED: ATOM     41  C   UNL d   1      14.670  -2.132   5.923 -0.13 +0.07    +0.139 C 
DOCKED: ATOM     42  O   UNL d   1      15.173  -1.021   6.014 +0.01 -0.20    -0.650 OA
DOCKED: BRANCH  41  43
DOCKED: ATOM     43  O   UNL d   1      14.086  -2.675   7.015 +0.11 -0.72    -0.776 OA
DOCKED: ATOM     44  H   UNL d   1      14.505  -2.669   7.885 +0.02 +0.14    +0.167 HD
DOCKED: ENDBRANCH  41  43
DOCKED: ENDBRANCH  40  41
DOCKED: ENDBRANCH  39  40
DOCKED: ENDBRANCH  22  39
DOCKED: BRANCH  12  45
DOCKED: ATOM     45  C   UNL d   1       8.761 -12.283   8.858 -0.23 +0.00    +0.004 C 
DOCKED: ATOM     46  C   UNL d   1       8.544 -13.377   9.583 -0.36 +0.00    +0.012 C 
DOCKED: ENDBRANCH  12  45
DOCKED: BRANCH  17  47
DOCKED: ATOM     47  C   UNL d   1      10.144  -9.473   1.698 -0.26 -0.00    +0.004 C 
DOCKED: ATOM     48  C   UNL d   1       9.037  -9.134   1.032 -0.44 -0.00    +0.012 C 
DOCKED: ENDBRANCH  17  47
DOCKED: TORSDOF 12
DOCKED: TER
DOCKED: ENDMDL
________________________________________________________________________________


	BEGINNING GENETIC ALGORITHM DOCKING 71 of 100
Run: 71 Seed: 1187868750 1666670930 [ Run 71 of 100 GA/GALS ]
Beginning LAMARCKIAN GENETIC ALGORITHM (LGA), with a maximum of 25000000 energy evaluations.

Final-Value: -9.749


	FINAL GENETIC ALGORITHM DOCKED STATE
	_______________________________________________


Detailed state:  trans 14.720 -2.057 5.622 quatxyzw -0.265584 -0.692733 0.327794 0.584925 center 8.781 34.984 -0.736 ntor 12 32.6835 120.8814 137.9834 118.2601 71.2675 99.0716 44.4700 -41.9145 169.2408 -148.6342 21.3311 148.6880
State:	 14.720  -2.057   5.622  -0.327 -0.854  0.404 108.405     32.68  120.88  137.98  118.26   71.27   99.07   44.47  -41.91  169.24 -148.63   21.33  148.69

DOCKED: MODEL       71
DOCKED: USER    Run = 71
DOCKED: USER    DPF = D:/Protein_go_brrr/autodock/final/mut_N102T/heme_Co/dock.dpf
DOCKED: USER  
DOCKED: USER    Estimated Free Energy of Binding    =   -3.95 kcal/mol  [=(1)+(2)+(3)-(4)]
DOCKED: USER    Estimated Inhibition Constant, Ki   =    1.27 mM (millimolar)  [Temperature = 298.15 K]
DOCKED: USER    
DOCKED: USER    (1) Final Intermolecular Energy     =   -7.53 kcal/mol
DOCKED: USER        vdW + Hbond + desolv Energy     =   -5.43 kcal/mol
DOCKED: USER        Electrostatic Energy            =   -2.10 kcal/mol
DOCKED: USER    (2) Final Total Internal Energy     =   -2.22 kcal/mol
DOCKED: USER    (3) Torsional Free Energy           =   +3.58 kcal/mol
DOCKED: USER    (4) Unbound System's Energy  [=(2)] =   -2.22 kcal/mol
DOCKED: USER    
DOCKED: USER    
DOCKED: USER    NEWDPF move heme_Co_opt.pdbqt
DOCKED: USER    NEWDPF about 8.781000 34.984000 -0.736000
DOCKED: USER    NEWDPF tran0 14.720157 -2.056941 5.621870
DOCKED: USER    NEWDPF quaternion0 -0.265584 -0.692733 0.327794 0.584925
DOCKED: USER    NEWDPF axisangle0 -0.327442 -0.854079 0.404141 108.404575
DOCKED: USER    NEWDPF quat0 -0.327442 -0.854079 0.404141 108.404575
DOCKED: USER    NEWDPF dihe0 32.68 120.88 137.98 118.26 71.27 99.07 44.47 -41.91 169.24 -148.63 21.33 148.69 
DOCKED: USER  keepresnum = 1 
DOCKED: USER  
DOCKED: REMARK  12 active torsions:
DOCKED: REMARK  status: ('A' for Active; 'I' for Inactive)
DOCKED: REMARK    1  A    between atoms: C_6  and  C_10 
DOCKED: REMARK    2  A    between atoms: C_10  and  C_11 
DOCKED: REMARK    3  A    between atoms: C_11  and  C_12 
DOCKED: REMARK    4  A    between atoms: C_12  and  O_14 
DOCKED: REMARK    5  A    between atoms: C_17  and  C_20 
DOCKED: REMARK    6  A    between atoms: C_24  and  C_27 
DOCKED: REMARK    7  A    between atoms: C_31  and  C_34 
DOCKED: REMARK    8  A    between atoms: C_34  and  C_35 
DOCKED: REMARK    9  A    between atoms: C_35  and  C_36 
DOCKED: REMARK   10  A    between atoms: C_36  and  O_38 
DOCKED: REMARK   11  A    between atoms: FE_43  and  C_44 
DOCKED: REMARK   12  A    between atoms: C_44  and  O_45 
DOCKED: USER                              x       y       z     vdW  Elec       q    Type
DOCKED: USER                           _______ _______ _______ _____ _____    ______ ____
DOCKED: ROOT
DOCKED: ATOM      1  C   UNL d   1      14.892  -1.055   7.541 -0.11 +0.03    +0.064 A 
DOCKED: ATOM      2  C   UNL d   1      15.050  -5.645   6.307 -0.08 +0.03    +0.064 C 
DOCKED: ATOM      3  C   UNL d   1      13.996  -4.504   1.788 -0.11 -0.00    +0.064 A 
DOCKED: ATOM      4  C   UNL d   1      14.210   0.216   2.943 -0.30 +0.01    +0.064 A 
DOCKED: ATOM      5  C   UNL d   1      14.977  -2.396   7.543 -0.10 +0.04    +0.066 A 
DOCKED: ATOM      6  C   UNL d   1      15.347  -3.120   8.693 -0.07 -0.01    -0.021 A 
DOCKED: ATOM      7  C   UNL d   1      15.413  -4.449   8.324 -0.06 -0.01    -0.025 A 
DOCKED: ATOM      8  C   UNL d   1      15.065  -4.481   6.969 -0.08 +0.04    +0.066 A 
DOCKED: ATOM      9  C   UNL d   1      15.789  -5.653   9.200 -0.02 +0.02    +0.051 C 
DOCKED: ATOM     10  C   UNL d   1      14.680  -5.779   4.920 -0.07 +0.02    +0.066 A 
DOCKED: ATOM     11  C   UNL d   1      14.508  -6.985   4.205 -0.03 -0.00    -0.021 A 
DOCKED: ATOM     12  C   UNL d   1      14.197  -6.623   2.892 -0.04 -0.00    +0.000 A 
DOCKED: ATOM     13  C   UNL d   1      14.190  -5.228   2.905 -0.07 +0.00    +0.070 A 
DOCKED: ATOM     14  C   UNL d   1      14.548  -8.377   4.782 -0.01 +0.01    +0.052 C 
DOCKED: ATOM     15  C   UNL d   1      14.008  -3.066   1.611 -0.19 +0.00    +0.066 A 
DOCKED: ATOM     16  C   UNL d   1      13.946  -2.384   0.403 -0.23 +0.00    -0.021 A 
DOCKED: ATOM     17  C   UNL d   1      14.010  -1.023   0.731 -0.34 +0.00    +0.000 A 
DOCKED: ATOM     18  C   UNL d   1      14.089  -0.980   2.119 -0.28 +0.01    +0.070 A 
DOCKED: ATOM     19  C   UNL d   1      13.834  -3.027  -0.961 -0.18 -0.01    +0.052 C 
DOCKED: ATOM     20  C   UNL d   1      14.376   0.279   4.286 -0.28 +0.01    +0.066 A 
DOCKED: ATOM     21  C   UNL d   1      14.516   1.489   4.962 -0.34 -0.00    -0.025 A 
DOCKED: ATOM     22  C   UNL d   1      14.686   1.155   6.293 -0.23 -0.00    -0.021 A 
DOCKED: ATOM     23  C   UNL d   1      14.651  -0.254   6.362 -0.18 +0.02    +0.066 A 
DOCKED: ATOM     24  C   UNL d   1      14.510   2.894   4.367 -0.06 +0.01    +0.051 C 
DOCKED: ATOM     25  N   UNL d   1      14.784  -3.224   6.461 -0.09 -0.15    -0.248 N 
DOCKED: ATOM     26  N   UNL d   1      14.426  -4.720   4.144 -0.07 -0.07    -0.248 N 
DOCKED: ATOM     27  N   UNL d   1      14.117  -2.215   2.607 -0.15 -0.04    -0.248 N 
DOCKED: ATOM     28  N   UNL d   1      14.466  -0.788   5.149 -0.14 -0.08    -0.248 N 
DOCKED: ATOM     29 FE   UNL d   1      14.430  -2.686   4.421 -0.04 +0.00    +0.000 Fe
DOCKED: ENDROOT
DOCKED: BRANCH   6  30
DOCKED: ATOM     30  C   UNL d   1      15.699  -2.539  10.059 -0.02 +0.02    +0.052 C 
DOCKED: BRANCH  30  31
DOCKED: ATOM     31  C   UNL d   1      14.559  -2.772  11.051 -0.03 +0.06    +0.115 C 
DOCKED: BRANCH  31  32
DOCKED: ATOM     32  C   UNL d   1      13.286  -3.226  10.371 +0.08 +0.17    +0.139 C 
DOCKED: ATOM     33  O   UNL d   1      12.520  -2.392   9.912 -0.33 -0.95    -0.650 OA
DOCKED: BRANCH  32  34
DOCKED: ATOM     34  O   UNL d   1      12.986  -4.536  10.211 -0.04 -1.27    -0.776 OA
DOCKED: ATOM     35  H   UNL d   1      13.285  -5.239  10.803 +0.01 +0.15    +0.167 HD
DOCKED: ENDBRANCH  32  34
DOCKED: ENDBRANCH  31  32
DOCKED: ENDBRANCH  30  31
DOCKED: ENDBRANCH   6  30
DOCKED: BRANCH  29  36
DOCKED: ATOM     36  C   UNL d   1      16.513  -2.660   4.184 -0.03 +0.03    +0.190 C 
DOCKED: BRANCH  36  37
DOCKED: ATOM     37  O   UNL d   1      17.685  -2.091   4.692 +0.00 -0.05    -0.399 OA
DOCKED: ATOM     38  H   UNL d   1      17.395  -1.590   5.505 +0.02 +0.03    +0.209 HD
DOCKED: ENDBRANCH  36  37
DOCKED: ENDBRANCH  29  36
DOCKED: BRANCH  22  39
DOCKED: ATOM     39  C   UNL d   1      14.932   2.137   7.423 -0.16 +0.01    +0.052 C 
DOCKED: BRANCH  39  40
DOCKED: ATOM     40  C   UNL d   1      16.372   2.013   7.946 -0.06 +0.02    +0.115 C 
DOCKED: BRANCH  40  41
DOCKED: ATOM     41  C   UNL d   1      17.361   1.476   6.933 -0.03 +0.02    +0.139 C 
DOCKED: ATOM     42  O   UNL d   1      18.040   2.261   6.286 +0.02 -0.10    -0.650 OA
DOCKED: BRANCH  41  43
DOCKED: ATOM     43  O   UNL d   1      17.578   0.150   6.786 +0.03 -0.12    -0.776 OA
DOCKED: ATOM     44  H   UNL d   1      17.759  -0.254   5.927 +0.02 +0.03    +0.167 HD
DOCKED: ENDBRANCH  41  43
DOCKED: ENDBRANCH  40  41
DOCKED: ENDBRANCH  39  40
DOCKED: ENDBRANCH  22  39
DOCKED: BRANCH  12  45
DOCKED: ATOM     45  C   UNL d   1      13.890  -7.430   1.638 -0.07 -0.00    +0.004 C 
DOCKED: ATOM     46  C   UNL d   1      12.751  -7.591   0.969 -0.14 -0.01    +0.012 C 
DOCKED: ENDBRANCH  12  45
DOCKED: BRANCH  17  47
DOCKED: ATOM     47  C   UNL d   1      14.048   0.173  -0.163 -0.35 +0.00    +0.004 C 
DOCKED: ATOM     48  C   UNL d   1      13.190   0.371  -1.166 -0.40 -0.00    +0.012 C 
DOCKED: ENDBRANCH  17  47
DOCKED: TORSDOF 12
DOCKED: TER
DOCKED: ENDMDL
________________________________________________________________________________


	BEGINNING GENETIC ALGORITHM DOCKING 72 of 100
Run: 72 Seed: 272874605 1322739931 [ Run 72 of 100 GA/GALS ]
Beginning LAMARCKIAN GENETIC ALGORITHM (LGA), with a maximum of 25000000 energy evaluations.

Final-Value: -11.281


	FINAL GENETIC ALGORITHM DOCKED STATE
	_______________________________________________


Detailed state:  trans 7.286 -4.603 14.806 quatxyzw 0.173264 0.330611 0.725269 0.578499 center 8.781 34.984 -0.736 ntor 12 -134.2753 85.9642 -52.2791 115.6199 -98.5164 139.5292 49.1635 -59.4108 146.6552 50.2910 -151.9350 123.4938
State:	  7.286  -4.603  14.806   0.212  0.405  0.889 109.310   -134.28   85.96  -52.28  115.62  -98.52  139.53   49.16  -59.41  146.66   50.29 -151.93  123.49

DOCKED: MODEL       72
DOCKED: USER    Run = 72
DOCKED: USER    DPF = D:/Protein_go_brrr/autodock/final/mut_N102T/heme_Co/dock.dpf
DOCKED: USER  
DOCKED: USER    Estimated Free Energy of Binding    =   -5.38 kcal/mol  [=(1)+(2)+(3)-(4)]
DOCKED: USER    Estimated Inhibition Constant, Ki   =  113.76 uM (micromolar)  [Temperature = 298.15 K]
DOCKED: USER    
DOCKED: USER    (1) Final Intermolecular Energy     =   -8.96 kcal/mol
DOCKED: USER        vdW + Hbond + desolv Energy     =   -6.71 kcal/mol
DOCKED: USER        Electrostatic Energy            =   -2.25 kcal/mol
DOCKED: USER    (2) Final Total Internal Energy     =   -2.32 kcal/mol
DOCKED: USER    (3) Torsional Free Energy           =   +3.58 kcal/mol
DOCKED: USER    (4) Unbound System's Energy  [=(2)] =   -2.32 kcal/mol
DOCKED: USER    
DOCKED: USER    
DOCKED: USER    NEWDPF move heme_Co_opt.pdbqt
DOCKED: USER    NEWDPF about 8.781000 34.984000 -0.736000
DOCKED: USER    NEWDPF tran0 7.285826 -4.603172 14.805971
DOCKED: USER    NEWDPF quaternion0 0.173264 0.330611 0.725269 0.578499
DOCKED: USER    NEWDPF axisangle0 0.212416 0.405318 0.889155 109.309982
DOCKED: USER    NEWDPF quat0 0.212416 0.405318 0.889155 109.309982
DOCKED: USER    NEWDPF dihe0 -134.28 85.96 -52.28 115.62 -98.52 139.53 49.16 -59.41 146.66 50.29 -151.93 123.49 
DOCKED: USER  keepresnum = 1 
DOCKED: USER  
DOCKED: REMARK  12 active torsions:
DOCKED: REMARK  status: ('A' for Active; 'I' for Inactive)
DOCKED: REMARK    1  A    between atoms: C_6  and  C_10 
DOCKED: REMARK    2  A    between atoms: C_10  and  C_11 
DOCKED: REMARK    3  A    between atoms: C_11  and  C_12 
DOCKED: REMARK    4  A    between atoms: C_12  and  O_14 
DOCKED: REMARK    5  A    between atoms: C_17  and  C_20 
DOCKED: REMARK    6  A    between atoms: C_24  and  C_27 
DOCKED: REMARK    7  A    between atoms: C_31  and  C_34 
DOCKED: REMARK    8  A    between atoms: C_34  and  C_35 
DOCKED: REMARK    9  A    between atoms: C_35  and  C_36 
DOCKED: REMARK   10  A    between atoms: C_36  and  O_38 
DOCKED: REMARK   11  A    between atoms: FE_43  and  C_44 
DOCKED: REMARK   12  A    between atoms: C_44  and  O_45 
DOCKED: USER                              x       y       z     vdW  Elec       q    Type
DOCKED: USER                           _______ _______ _______ _____ _____    ______ ____
DOCKED: ROOT
DOCKED: ATOM      1  C   UNL d   1       8.397  -3.835  13.106 -0.11 +0.02    +0.064 A 
DOCKED: ATOM      2  C   UNL d   1       5.029  -1.909  15.855 -0.23 -0.01    +0.064 C 
DOCKED: ATOM      3  C   UNL d   1       4.487  -6.059  18.161 -0.17 -0.01    +0.064 A 
DOCKED: ATOM      4  C   UNL d   1       8.190  -7.936  15.627 -0.22 +0.02    +0.064 A 
DOCKED: ATOM      5  C   UNL d   1       7.491  -3.015  13.663 -0.13 +0.01    +0.066 A 
DOCKED: ATOM      6  C   UNL d   1       7.387  -1.658  13.298 -0.21 -0.00    -0.021 A 
DOCKED: ATOM      7  C   UNL d   1       6.424  -1.099  14.115 -0.31 +0.00    -0.025 A 
DOCKED: ATOM      8  C   UNL d   1       5.971  -2.140  14.932 -0.20 -0.00    +0.066 A 
DOCKED: ATOM      9  C   UNL d   1       5.940   0.359  14.139 -0.48 -0.00    +0.051 C 
DOCKED: ATOM     10  C   UNL d   1       4.483  -2.924  16.722 -0.17 -0.01    +0.066 A 
DOCKED: ATOM     11  C   UNL d   1       3.397  -2.777  17.613 -0.19 +0.00    -0.021 A 
DOCKED: ATOM     12  C   UNL d   1       3.258  -4.003  18.269 -0.14 -0.00    +0.000 A 
DOCKED: ATOM     13  C   UNL d   1       4.258  -4.808  17.723 -0.16 -0.01    +0.070 A 
DOCKED: ATOM     14  C   UNL d   1       2.506  -1.568  17.742 -0.35 -0.02    +0.052 C 
DOCKED: ATOM     15  C   UNL d   1       5.504  -7.006  17.749 -0.19 -0.01    +0.066 A 
DOCKED: ATOM     16  C   UNL d   1       5.778  -8.229  18.344 -0.16 +0.00    -0.021 A 
DOCKED: ATOM     17  C   UNL d   1       6.847  -8.774  17.618 -0.23 +0.00    +0.000 A 
DOCKED: ATOM     18  C   UNL d   1       7.130  -7.843  16.624 -0.23 +0.01    +0.070 A 
DOCKED: ATOM     19  C   UNL d   1       5.045  -8.811  19.532 -0.16 -0.01    +0.052 C 
DOCKED: ATOM     20  C   UNL d   1       8.539  -7.007  14.706 -0.17 +0.01    +0.066 A 
DOCKED: ATOM     21  C   UNL d   1       9.601  -7.196  13.825 -0.15 -0.01    -0.025 A 
DOCKED: ATOM     22  C   UNL d   1       9.667  -6.042  13.066 -0.13 -0.01    -0.021 A 
DOCKED: ATOM     23  C   UNL d   1       8.640  -5.194  13.534 -0.13 +0.02    +0.066 A 
DOCKED: ATOM     24  C   UNL d   1      10.522  -8.409  13.723 -0.13 +0.02    +0.051 C 
DOCKED: ATOM     25  N   UNL d   1       6.610  -3.340  14.669 -0.03 -0.01    -0.248 N 
DOCKED: ATOM     26  N   UNL d   1       4.960  -4.172  16.748 -0.09 +0.02    -0.248 N 
DOCKED: ATOM     27  N   UNL d   1       6.331  -6.790  16.751 -0.11 -0.00    -0.248 N 
DOCKED: ATOM     28  N   UNL d   1       7.957  -5.773  14.528 +0.00 -0.04    -0.248 N 
DOCKED: ATOM     29 FE   UNL d   1       6.464  -5.169  15.769 -0.03 +0.00    +0.000 Fe
DOCKED: ENDROOT
DOCKED: BRANCH   6  30
DOCKED: ATOM     30  C   UNL d   1       8.239  -0.926  12.267 -0.29 +0.01    +0.052 C 
DOCKED: BRANCH  30  31
DOCKED: ATOM     31  C   UNL d   1       9.684  -0.807  12.750 -0.17 +0.03    +0.115 C 
DOCKED: BRANCH  31  32
DOCKED: ATOM     32  C   UNL d   1       9.778  -0.611  14.247 -0.13 +0.03    +0.139 C 
DOCKED: ATOM     33  O   UNL d   1       9.598   0.501  14.721 -0.04 -0.20    -0.650 OA
DOCKED: BRANCH  32  34
DOCKED: ATOM     34  O   UNL d   1      10.009  -1.643  15.093 +0.04 -0.17    -0.776 OA
DOCKED: ATOM     35  H   UNL d   1       9.560  -1.762  15.940 +0.03 +0.03    +0.167 HD
DOCKED: ENDBRANCH  32  34
DOCKED: ENDBRANCH  31  32
DOCKED: ENDBRANCH  30  31
DOCKED: ENDBRANCH   6  30
DOCKED: BRANCH  29  36
DOCKED: ATOM     36  C   UNL d   1       7.867  -4.351  17.096 -0.05 +0.01    +0.190 C 
DOCKED: BRANCH  36  37
DOCKED: ATOM     37  O   UNL d   1       8.803  -3.322  17.232 -0.00 -0.04    -0.399 OA
DOCKED: ATOM     38  H   UNL d   1       9.096  -3.116  16.300 +0.02 +0.03    +0.209 HD
DOCKED: ENDBRANCH  36  37
DOCKED: ENDBRANCH  29  36
DOCKED: BRANCH  22  39
DOCKED: ATOM     39  C   UNL d   1      10.702  -5.750  11.996 -0.10 +0.03    +0.052 C 
DOCKED: BRANCH  39  40
DOCKED: ATOM     40  C   UNL d   1      11.241  -4.317  12.139 -0.06 +0.07    +0.115 C 
DOCKED: BRANCH  40  41
DOCKED: ATOM     41  C   UNL d   1      11.346  -3.555  10.835 +0.05 +0.19    +0.139 C 
DOCKED: ATOM     42  O   UNL d   1      10.338  -3.065  10.346 -0.27 -1.03    -0.650 OA
DOCKED: BRANCH  41  43
DOCKED: ATOM     43  O   UNL d   1      12.537  -3.326  10.240 -0.16 -1.38    -0.776 OA
DOCKED: ATOM     44  H   UNL d   1      13.310  -3.012  10.728 +0.01 +0.15    +0.167 HD
DOCKED: ENDBRANCH  41  43
DOCKED: ENDBRANCH  40  41
DOCKED: ENDBRANCH  39  40
DOCKED: ENDBRANCH  22  39
DOCKED: BRANCH  12  45
DOCKED: ATOM     45  C   UNL d   1       2.290  -4.509  19.330 -0.12 -0.00    +0.004 C 
DOCKED: ATOM     46  C   UNL d   1       1.274  -5.363  19.238 -0.18 -0.00    +0.012 C 
DOCKED: ENDBRANCH  12  45
DOCKED: BRANCH  17  47
DOCKED: ATOM     47  C   UNL d   1       7.605 -10.041  17.842 -0.17 +0.00    +0.004 C 
DOCKED: ATOM     48  C   UNL d   1       8.919 -10.083  18.074 -0.13 +0.00    +0.012 C 
DOCKED: ENDBRANCH  17  47
DOCKED: TORSDOF 12
DOCKED: TER
DOCKED: ENDMDL
________________________________________________________________________________


	BEGINNING GENETIC ALGORITHM DOCKING 73 of 100
Run: 73 Seed: 999021959 1121115494 [ Run 73 of 100 GA/GALS ]
Beginning LAMARCKIAN GENETIC ALGORITHM (LGA), with a maximum of 25000000 energy evaluations.

Final-Value: -9.925


	FINAL GENETIC ALGORITHM DOCKED STATE
	_______________________________________________


Detailed state:  trans -11.147 6.143 11.109 quatxyzw -0.513379 0.745584 0.170070 0.389388 center 8.781 34.984 -0.736 ntor 12 28.8526 87.2157 138.3610 126.9019 134.0331 123.6833 44.7146 -54.8293 162.6445 134.4553 -159.8720 -179.9600
State:	-11.147   6.143  11.109  -0.557  0.809  0.185 134.167     28.85   87.22  138.36  126.90  134.03  123.68   44.71  -54.83  162.64  134.46 -159.87 -179.96

DOCKED: MODEL       73
DOCKED: USER    Run = 73
DOCKED: USER    DPF = D:/Protein_go_brrr/autodock/final/mut_N102T/heme_Co/dock.dpf
DOCKED: USER  
DOCKED: USER    Estimated Free Energy of Binding    =   -2.87 kcal/mol  [=(1)+(2)+(3)-(4)]
DOCKED: USER    Estimated Inhibition Constant, Ki   =    7.81 mM (millimolar)  [Temperature = 298.15 K]
DOCKED: USER    
DOCKED: USER    (1) Final Intermolecular Energy     =   -6.45 kcal/mol
DOCKED: USER        vdW + Hbond + desolv Energy     =   -6.50 kcal/mol
DOCKED: USER        Electrostatic Energy            =   +0.05 kcal/mol
DOCKED: USER    (2) Final Total Internal Energy     =   -3.47 kcal/mol
DOCKED: USER    (3) Torsional Free Energy           =   +3.58 kcal/mol
DOCKED: USER    (4) Unbound System's Energy  [=(2)] =   -3.47 kcal/mol
DOCKED: USER    
DOCKED: USER    
DOCKED: USER    NEWDPF move heme_Co_opt.pdbqt
DOCKED: USER    NEWDPF about 8.781000 34.984000 -0.736000
DOCKED: USER    NEWDPF tran0 -11.146775 6.143496 11.109171
DOCKED: USER    NEWDPF quaternion0 -0.513379 0.745584 0.170070 0.389388
DOCKED: USER    NEWDPF axisangle0 -0.557370 0.809473 0.184643 134.167206
DOCKED: USER    NEWDPF quat0 -0.557370 0.809473 0.184643 134.167206
DOCKED: USER    NEWDPF dihe0 28.85 87.22 138.36 126.90 134.03 123.68 44.71 -54.83 162.64 134.46 -159.87 -179.96 
DOCKED: USER  keepresnum = 1 
DOCKED: USER  
DOCKED: REMARK  12 active torsions:
DOCKED: REMARK  status: ('A' for Active; 'I' for Inactive)
DOCKED: REMARK    1  A    between atoms: C_6  and  C_10 
DOCKED: REMARK    2  A    between atoms: C_10  and  C_11 
DOCKED: REMARK    3  A    between atoms: C_11  and  C_12 
DOCKED: REMARK    4  A    between atoms: C_12  and  O_14 
DOCKED: REMARK    5  A    between atoms: C_17  and  C_20 
DOCKED: REMARK    6  A    between atoms: C_24  and  C_27 
DOCKED: REMARK    7  A    between atoms: C_31  and  C_34 
DOCKED: REMARK    8  A    between atoms: C_34  and  C_35 
DOCKED: REMARK    9  A    between atoms: C_35  and  C_36 
DOCKED: REMARK   10  A    between atoms: C_36  and  O_38 
DOCKED: REMARK   11  A    between atoms: FE_43  and  C_44 
DOCKED: REMARK   12  A    between atoms: C_44  and  O_45 
DOCKED: USER                              x       y       z     vdW  Elec       q    Type
DOCKED: USER                           _______ _______ _______ _____ _____    ______ ____
DOCKED: ROOT
DOCKED: ATOM      1  C   UNL d   1     -10.492   8.212  11.193 -0.25 +0.00    +0.064 A 
DOCKED: ATOM      2  C   UNL d   1     -11.843   5.432   7.579 -0.25 -0.00    +0.064 C 
DOCKED: ATOM      3  C   UNL d   1     -12.179   1.692  10.534 -0.20 -0.01    +0.064 A 
DOCKED: ATOM      4  C   UNL d   1     -11.177   4.597  14.305 -0.13 +0.01    +0.064 A 
DOCKED: ATOM      5  C   UNL d   1     -10.802   7.719   9.982 -0.30 -0.00    +0.066 A 
DOCKED: ATOM      6  C   UNL d   1     -10.885   8.539   8.840 -0.26 +0.00    -0.021 A 
DOCKED: ATOM      7  C   UNL d   1     -11.300   7.731   7.799 -0.27 +0.00    -0.025 A 
DOCKED: ATOM      8  C   UNL d   1     -11.435   6.451   8.346 -0.26 -0.00    +0.066 A 
DOCKED: ATOM      9  C   UNL d   1     -11.563   8.135   6.340 -0.25 -0.01    +0.051 C 
DOCKED: ATOM     10  C   UNL d   1     -11.986   4.076   8.048 -0.24 -0.00    +0.066 A 
DOCKED: ATOM     11  C   UNL d   1     -12.274   2.938   7.263 -0.23 +0.00    -0.021 A 
DOCKED: ATOM     12  C   UNL d   1     -12.362   1.861   8.149 -0.22 -0.00    +0.000 A 
DOCKED: ATOM     13  C   UNL d   1     -12.110   2.417   9.404 -0.19 -0.01    +0.070 A 
DOCKED: ATOM     14  C   UNL d   1     -12.358   2.890   5.759 -0.24 -0.00    +0.052 C 
DOCKED: ATOM     15  C   UNL d   1     -12.001   2.113  11.910 -0.19 -0.00    +0.066 A 
DOCKED: ATOM     16  C   UNL d   1     -12.229   1.344  13.042 -0.13 +0.00    -0.021 A 
DOCKED: ATOM     17  C   UNL d   1     -11.943   2.179  14.132 -0.13 +0.00    +0.000 A 
DOCKED: ATOM     18  C   UNL d   1     -11.546   3.390  13.576 -0.13 +0.00    +0.070 A 
DOCKED: ATOM     19  C   UNL d   1     -12.692  -0.096  13.046 -0.07 -0.00    +0.052 C 
DOCKED: ATOM     20  C   UNL d   1     -10.871   5.811  13.787 -0.11 +0.01    +0.066 A 
DOCKED: ATOM     21  C   UNL d   1     -10.566   6.907  14.592 -0.17 -0.00    -0.025 A 
DOCKED: ATOM     22  C   UNL d   1     -10.336   7.956  13.721 -0.22 -0.00    -0.021 A 
DOCKED: ATOM     23  C   UNL d   1     -10.525   7.448  12.418 -0.28 +0.00    +0.066 A 
DOCKED: ATOM     24  C   UNL d   1     -10.517   6.958  16.116 -0.09 +0.00    +0.051 C 
DOCKED: ATOM     25  N   UNL d   1     -11.127   6.413   9.696 -0.20 +0.00    -0.248 N 
DOCKED: ATOM     26  N   UNL d   1     -11.828   3.746   9.334 -0.15 +0.01    -0.248 N 
DOCKED: ATOM     27  N   UNL d   1     -11.622   3.324  12.252 -0.05 -0.00    -0.248 N 
DOCKED: ATOM     28  N   UNL d   1     -10.851   6.150  12.454 -0.14 -0.02    -0.248 N 
DOCKED: ATOM     29 FE   UNL d   1     -11.388   4.779  11.052 -0.06 -0.00    +0.000 Fe
DOCKED: ENDROOT
DOCKED: BRANCH   6  30
DOCKED: ATOM     30  C   UNL d   1     -10.655  10.046   8.783 -0.21 -0.01    +0.052 C 
DOCKED: BRANCH  30  31
DOCKED: ATOM     31  C   UNL d   1     -11.852  10.795   9.367 -0.08 -0.01    +0.115 C 
DOCKED: BRANCH  31  32
DOCKED: ATOM     32  C   UNL d   1     -13.101   9.941   9.413 -0.03 -0.01    +0.139 C 
DOCKED: ATOM     33  O   UNL d   1     -13.812   9.864   8.423 +0.02 +0.03    -0.650 OA
DOCKED: BRANCH  32  34
DOCKED: ATOM     34  O   UNL d   1     -13.435   9.216  10.506 +0.04 +0.03    -0.776 OA
DOCKED: ATOM     35  H   UNL d   1     -13.147   9.424  11.405 +0.02 -0.01    +0.167 HD
DOCKED: ENDBRANCH  32  34
DOCKED: ENDBRANCH  31  32
DOCKED: ENDBRANCH  30  31
DOCKED: ENDBRANCH   6  30
DOCKED: BRANCH  29  36
DOCKED: ATOM     36  C   UNL d   1     -13.392   5.373  11.206 -0.06 -0.01    +0.190 C 
DOCKED: BRANCH  36  37
DOCKED: ATOM     37  O   UNL d   1     -14.229   6.493  11.159 +0.00 +0.01    -0.399 OA
DOCKED: ATOM     38  H   UNL d   1     -13.648   7.259  11.424 +0.03 -0.01    +0.209 HD
DOCKED: ENDBRANCH  36  37
DOCKED: ENDBRANCH  29  36
DOCKED: BRANCH  22  39
DOCKED: ATOM     39  C   UNL d   1     -10.018   9.383  14.128 -0.16 +0.00    +0.052 C 
DOCKED: BRANCH  39  40
DOCKED: ATOM     40  C   UNL d   1     -11.295  10.123  14.557 -0.04 -0.00    +0.115 C 
DOCKED: BRANCH  40  41
DOCKED: ATOM     41  C   UNL d   1     -12.433  10.034  13.563 -0.02 -0.00    +0.139 C 
DOCKED: ATOM     42  O   UNL d   1     -13.160   9.051  13.572 +0.02 +0.02    -0.650 OA
DOCKED: BRANCH  41  43
DOCKED: ATOM     43  O   UNL d   1     -12.723  11.051  12.721 +0.02 +0.03    -0.776 OA
DOCKED: ATOM     44  H   UNL d   1     -13.040  10.906  11.821 +0.01 -0.01    +0.167 HD
DOCKED: ENDBRANCH  41  43
DOCKED: ENDBRANCH  40  41
DOCKED: ENDBRANCH  39  40
DOCKED: ENDBRANCH  22  39
DOCKED: BRANCH  12  45
DOCKED: ATOM     45  C   UNL d   1     -12.635   0.376   7.954 -0.21 -0.00    +0.004 C 
DOCKED: ATOM     46  C   UNL d   1     -11.880  -0.686   8.224 -0.22 -0.00    +0.012 C 
DOCKED: ENDBRANCH  12  45
DOCKED: BRANCH  17  47
DOCKED: ATOM     47  C   UNL d   1     -12.071   1.912  15.596 -0.08 +0.00    +0.004 C 
DOCKED: ATOM     48  C   UNL d   1     -11.026   1.820  16.423 -0.11 +0.00    +0.012 C 
DOCKED: ENDBRANCH  17  47
DOCKED: TORSDOF 12
DOCKED: TER
DOCKED: ENDMDL
________________________________________________________________________________


	BEGINNING GENETIC ALGORITHM DOCKING 74 of 100
Run: 74 Seed: 263868141 1286315917 [ Run 74 of 100 GA/GALS ]
Beginning LAMARCKIAN GENETIC ALGORITHM (LGA), with a maximum of 25000000 energy evaluations.

Final-Value: -9.196


	FINAL GENETIC ALGORITHM DOCKED STATE
	_______________________________________________


Detailed state:  trans -5.017 15.192 -18.076 quatxyzw 0.032207 -0.357713 0.578798 -0.732118 center 8.781 34.984 -0.736 ntor 12 -163.6941 118.7239 -31.3451 54.1406 -89.1585 135.3672 35.0071 -28.1949 -179.7849 169.0216 -173.7488 -8.3515
State:	 -5.017  15.192 -18.076   0.047 -0.525  0.850 -85.871   -163.69  118.72  -31.35   54.14  -89.16  135.37   35.01  -28.19 -179.78  169.02 -173.75   -8.35

DOCKED: MODEL       74
DOCKED: USER    Run = 74
DOCKED: USER    DPF = D:/Protein_go_brrr/autodock/final/mut_N102T/heme_Co/dock.dpf
DOCKED: USER  
DOCKED: USER    Estimated Free Energy of Binding    =   -3.33 kcal/mol  [=(1)+(2)+(3)-(4)]
DOCKED: USER    Estimated Inhibition Constant, Ki   =    3.65 mM (millimolar)  [Temperature = 298.15 K]
DOCKED: USER    
DOCKED: USER    (1) Final Intermolecular Energy     =   -6.91 kcal/mol
DOCKED: USER        vdW + Hbond + desolv Energy     =   -4.99 kcal/mol
DOCKED: USER        Electrostatic Energy            =   -1.91 kcal/mol
DOCKED: USER    (2) Final Total Internal Energy     =   -2.29 kcal/mol
DOCKED: USER    (3) Torsional Free Energy           =   +3.58 kcal/mol
DOCKED: USER    (4) Unbound System's Energy  [=(2)] =   -2.29 kcal/mol
DOCKED: USER    
DOCKED: USER    
DOCKED: USER    NEWDPF move heme_Co_opt.pdbqt
DOCKED: USER    NEWDPF about 8.781000 34.984000 -0.736000
DOCKED: USER    NEWDPF tran0 -5.017337 15.192498 -18.075951
DOCKED: USER    NEWDPF quaternion0 0.032207 -0.357713 0.578798 -0.732118
DOCKED: USER    NEWDPF axisangle0 0.047281 -0.525139 0.849702 -85.871420
DOCKED: USER    NEWDPF quat0 0.047281 -0.525139 0.849702 -85.871420
DOCKED: USER    NEWDPF dihe0 -163.69 118.72 -31.35 54.14 -89.16 135.37 35.01 -28.19 -179.78 169.02 -173.75 -8.35 
DOCKED: USER  keepresnum = 1 
DOCKED: USER  
DOCKED: REMARK  12 active torsions:
DOCKED: REMARK  status: ('A' for Active; 'I' for Inactive)
DOCKED: REMARK    1  A    between atoms: C_6  and  C_10 
DOCKED: REMARK    2  A    between atoms: C_10  and  C_11 
DOCKED: REMARK    3  A    between atoms: C_11  and  C_12 
DOCKED: REMARK    4  A    between atoms: C_12  and  O_14 
DOCKED: REMARK    5  A    between atoms: C_17  and  C_20 
DOCKED: REMARK    6  A    between atoms: C_24  and  C_27 
DOCKED: REMARK    7  A    between atoms: C_31  and  C_34 
DOCKED: REMARK    8  A    between atoms: C_34  and  C_35 
DOCKED: REMARK    9  A    between atoms: C_35  and  C_36 
DOCKED: REMARK   10  A    between atoms: C_36  and  O_38 
DOCKED: REMARK   11  A    between atoms: FE_43  and  C_44 
DOCKED: REMARK   12  A    between atoms: C_44  and  O_45 
DOCKED: USER                              x       y       z     vdW  Elec       q    Type
DOCKED: USER                           _______ _______ _______ _____ _____    ______ ____
DOCKED: ROOT
DOCKED: ATOM      1  C   UNL d   1      -5.182  14.153 -19.975 -0.13 +0.02    +0.064 A 
DOCKED: ATOM      2  C   UNL d   1      -4.590  12.596 -15.522 -0.30 -0.00    +0.064 C 
DOCKED: ATOM      3  C   UNL d   1      -4.234  17.096 -13.956 -0.04 +0.01    +0.064 A 
DOCKED: ATOM      4  C   UNL d   1      -5.221  18.719 -18.434 -0.06 +0.03    +0.064 A 
DOCKED: ATOM      5  C   UNL d   1      -5.010  13.396 -18.879 -0.16 +0.01    +0.066 A 
DOCKED: ATOM      6  C   UNL d   1      -5.118  11.992 -18.916 -0.23 -0.00    -0.021 A 
DOCKED: ATOM      7  C   UNL d   1      -4.968  11.547 -17.617 -0.33 -0.00    -0.025 A 
DOCKED: ATOM      8  C   UNL d   1      -4.759  12.696 -16.846 -0.24 +0.00    +0.066 A 
DOCKED: ATOM      9  C   UNL d   1      -5.018  10.100 -17.105 -0.44 -0.00    +0.051 C 
DOCKED: ATOM     10  C   UNL d   1      -4.343  13.719 -14.652 -0.18 +0.00    +0.066 A 
DOCKED: ATOM     11  C   UNL d   1      -4.018  13.667 -13.279 -0.20 +0.00    -0.021 A 
DOCKED: ATOM     12  C   UNL d   1      -3.916  14.993 -12.849 -0.14 +0.00    +0.000 A 
DOCKED: ATOM     13  C   UNL d   1      -4.172  15.753 -13.990 -0.09 +0.01    +0.070 A 
DOCKED: ATOM     14  C   UNL d   1      -3.735  12.424 -12.475 -0.26 -0.01    +0.052 C 
DOCKED: ATOM     15  C   UNL d   1      -4.536  18.031 -15.022 -0.03 +0.01    +0.066 A 
DOCKED: ATOM     16  C   UNL d   1      -4.726  19.399 -14.888 -0.01 -0.00    -0.021 A 
DOCKED: ATOM     17  C   UNL d   1      -5.014  19.871 -16.176 -0.02 +0.00    +0.000 A 
DOCKED: ATOM     18  C   UNL d   1      -4.959  18.752 -17.001 -0.05 +0.03    +0.070 A 
DOCKED: ATOM     19  C   UNL d   1      -4.633  20.174 -13.593 -0.00 +0.00    +0.052 C 
DOCKED: ATOM     20  C   UNL d   1      -5.259  17.631 -19.240 -0.06 +0.04    +0.066 A 
DOCKED: ATOM     21  C   UNL d   1      -5.558  17.721 -20.598 -0.08 -0.02    -0.025 A 
DOCKED: ATOM     22  C   UNL d   1      -5.525  16.424 -21.075 -0.09 -0.01    -0.021 A 
DOCKED: ATOM     23  C   UNL d   1      -5.217  15.598 -19.973 -0.10 +0.03    +0.066 A 
DOCKED: ATOM     24  C   UNL d   1      -5.878  18.981 -21.399 -0.05 +0.02    +0.051 C 
DOCKED: ATOM     25  N   UNL d   1      -4.774  13.855 -17.603 -0.14 -0.06    -0.248 N 
DOCKED: ATOM     26  N   UNL d   1      -4.374  14.981 -15.092 -0.11 -0.03    -0.248 N 
DOCKED: ATOM     27  N   UNL d   1      -4.702  17.669 -16.275 -0.05 -0.08    -0.248 N 
DOCKED: ATOM     28  N   UNL d   1      -5.058  16.324 -18.860 -0.00 -0.15    -0.248 N 
DOCKED: ATOM     29 FE   UNL d   1      -4.736  15.877 -16.903 -0.03 +0.00    +0.000 Fe
DOCKED: ENDROOT
DOCKED: BRANCH   6  30
DOCKED: ATOM     30  C   UNL d   1      -5.433  11.136 -20.137 -0.19 +0.00    +0.052 C 
DOCKED: BRANCH  30  31
DOCKED: ATOM     31  C   UNL d   1      -6.942  10.946 -20.285 -0.10 +0.01    +0.115 C 
DOCKED: BRANCH  31  32
DOCKED: ATOM     32  C   UNL d   1      -7.720  11.615 -19.172 -0.07 +0.01    +0.139 C 
DOCKED: ATOM     33  O   UNL d   1      -8.046  10.963 -18.191 +0.01 -0.05    -0.650 OA
DOCKED: BRANCH  32  34
DOCKED: ATOM     34  O   UNL d   1      -8.029  12.932 -19.203 +0.04 -0.07    -0.776 OA
DOCKED: ATOM     35  H   UNL d   1      -8.371  13.429 -18.447 +0.01 +0.01    +0.167 HD
DOCKED: ENDBRANCH  32  34
DOCKED: ENDBRANCH  31  32
DOCKED: ENDBRANCH  30  31
DOCKED: ENDBRANCH   6  30
DOCKED: BRANCH  29  36
DOCKED: ATOM     36  C   UNL d   1      -6.799  15.686 -16.583 -0.03 +0.03    +0.190 C 
DOCKED: BRANCH  36  37
DOCKED: ATOM     37  O   UNL d   1      -7.916  14.925 -16.942 +0.00 -0.03    -0.399 OA
DOCKED: ATOM     38  H   UNL d   1      -7.553  14.184 -17.504 +0.02 +0.02    +0.209 HD
DOCKED: ENDBRANCH  36  37
DOCKED: ENDBRANCH  29  36
DOCKED: BRANCH  22  39
DOCKED: ATOM     39  C   UNL d   1      -5.838  16.001 -22.498 -0.04 +0.02    +0.052 C 
DOCKED: BRANCH  39  40
DOCKED: ATOM     40  C   UNL d   1      -4.553  15.937 -23.340 -0.05 +0.05    +0.115 C 
DOCKED: BRANCH  40  41
DOCKED: ATOM     41  C   UNL d   1      -3.370  16.661 -22.731 +0.01 +0.16    +0.139 C 
DOCKED: ATOM     42  O   UNL d   1      -2.428  16.010 -22.300 -0.32 -0.93    -0.650 OA
DOCKED: BRANCH  41  43
DOCKED: ATOM     43  O   UNL d   1      -3.287  18.009 -22.730 -0.27 -1.14    -0.776 OA
DOCKED: ATOM     44  H   UNL d   1      -3.743  18.559 -23.380 +0.01 +0.13    +0.167 HD
DOCKED: ENDBRANCH  41  43
DOCKED: ENDBRANCH  40  41
DOCKED: ENDBRANCH  39  40
DOCKED: ENDBRANCH  22  39
DOCKED: BRANCH  12  45
DOCKED: ATOM     45  C   UNL d   1      -3.589  15.626 -11.503 -0.13 -0.00    +0.004 C 
DOCKED: ATOM     46  C   UNL d   1      -2.631  15.344 -10.623 -0.26 -0.00    +0.012 C 
DOCKED: ENDBRANCH  12  45
DOCKED: BRANCH  17  47
DOCKED: ATOM     47  C   UNL d   1      -5.368  21.249 -16.630 -0.01 +0.00    +0.004 C 
DOCKED: ATOM     48  C   UNL d   1      -6.580  21.589 -17.075 +0.00 +0.00    +0.012 C 
DOCKED: ENDBRANCH  17  47
DOCKED: TORSDOF 12
DOCKED: TER
DOCKED: ENDMDL
________________________________________________________________________________


	BEGINNING GENETIC ALGORITHM DOCKING 75 of 100
Run: 75 Seed: 119705967 1047262761 [ Run 75 of 100 GA/GALS ]
Beginning LAMARCKIAN GENETIC ALGORITHM (LGA), with a maximum of 25000000 energy evaluations.

Final-Value: -9.997


	FINAL GENETIC ALGORITHM DOCKED STATE
	_______________________________________________


Detailed state:  trans 12.116 1.439 16.601 quatxyzw -0.578063 -0.521222 0.505218 0.372727 center 8.781 34.984 -0.736 ntor 12 176.5748 105.6975 0.0424 76.7282 127.2041 159.7169 -144.1423 155.2285 125.1988 151.9310 5.7727 18.1964
State:	 12.116   1.439  16.601  -0.623 -0.562  0.544 136.232    176.57  105.70    0.04   76.73  127.20  159.72 -144.14  155.23  125.20  151.93    5.77   18.20

DOCKED: MODEL       75
DOCKED: USER    Run = 75
DOCKED: USER    DPF = D:/Protein_go_brrr/autodock/final/mut_N102T/heme_Co/dock.dpf
DOCKED: USER  
DOCKED: USER    Estimated Free Energy of Binding    =   -3.93 kcal/mol  [=(1)+(2)+(3)-(4)]
DOCKED: USER    Estimated Inhibition Constant, Ki   =    1.32 mM (millimolar)  [Temperature = 298.15 K]
DOCKED: USER    
DOCKED: USER    (1) Final Intermolecular Energy     =   -7.51 kcal/mol
DOCKED: USER        vdW + Hbond + desolv Energy     =   -5.60 kcal/mol
DOCKED: USER        Electrostatic Energy            =   -1.91 kcal/mol
DOCKED: USER    (2) Final Total Internal Energy     =   -2.49 kcal/mol
DOCKED: USER    (3) Torsional Free Energy           =   +3.58 kcal/mol
DOCKED: USER    (4) Unbound System's Energy  [=(2)] =   -2.49 kcal/mol
DOCKED: USER    
DOCKED: USER    
DOCKED: USER    NEWDPF move heme_Co_opt.pdbqt
DOCKED: USER    NEWDPF about 8.781000 34.984000 -0.736000
DOCKED: USER    NEWDPF tran0 12.115830 1.438603 16.600823
DOCKED: USER    NEWDPF quaternion0 -0.578063 -0.521222 0.505218 0.372727
DOCKED: USER    NEWDPF axisangle0 -0.622952 -0.561697 0.544451 136.232253
DOCKED: USER    NEWDPF quat0 -0.622952 -0.561697 0.544451 136.232253
DOCKED: USER    NEWDPF dihe0 176.57 105.70 0.04 76.73 127.20 159.72 -144.14 155.23 125.20 151.93 5.77 18.20 
DOCKED: USER  keepresnum = 1 
DOCKED: USER  
DOCKED: REMARK  12 active torsions:
DOCKED: REMARK  status: ('A' for Active; 'I' for Inactive)
DOCKED: REMARK    1  A    between atoms: C_6  and  C_10 
DOCKED: REMARK    2  A    between atoms: C_10  and  C_11 
DOCKED: REMARK    3  A    between atoms: C_11  and  C_12 
DOCKED: REMARK    4  A    between atoms: C_12  and  O_14 
DOCKED: REMARK    5  A    between atoms: C_17  and  C_20 
DOCKED: REMARK    6  A    between atoms: C_24  and  C_27 
DOCKED: REMARK    7  A    between atoms: C_31  and  C_34 
DOCKED: REMARK    8  A    between atoms: C_34  and  C_35 
DOCKED: REMARK    9  A    between atoms: C_35  and  C_36 
DOCKED: REMARK   10  A    between atoms: C_36  and  O_38 
DOCKED: REMARK   11  A    between atoms: FE_43  and  C_44 
DOCKED: REMARK   12  A    between atoms: C_44  and  O_45 
DOCKED: USER                              x       y       z     vdW  Elec       q    Type
DOCKED: USER                           _______ _______ _______ _____ _____    ______ ____
DOCKED: ROOT
DOCKED: ATOM      1  C   UNL d   1      12.875   1.726  18.615 -0.05 +0.02    +0.064 A 
DOCKED: ATOM      2  C   UNL d   1       9.472  -1.090  16.855 -0.08 +0.02    +0.064 C 
DOCKED: ATOM      3  C   UNL d   1      10.015   0.888  12.539 -0.07 +0.02    +0.064 A 
DOCKED: ATOM      4  C   UNL d   1      13.756   3.502  14.223 -0.13 +0.03    +0.064 A 
DOCKED: ATOM      5  C   UNL d   1      11.880   0.837  18.459 -0.07 +0.02    +0.066 A 
DOCKED: ATOM      6  C   UNL d   1      11.467  -0.013  19.504 -0.04 -0.00    -0.021 A 
DOCKED: ATOM      7  C   UNL d   1      10.495  -0.843  18.982 -0.05 -0.00    -0.025 A 
DOCKED: ATOM      8  C   UNL d   1      10.346  -0.455  17.646 -0.06 +0.02    +0.066 A 
DOCKED: ATOM      9  C   UNL d   1       9.728  -1.965  19.699 -0.03 +0.00    +0.051 C 
DOCKED: ATOM     10  C   UNL d   1       9.231  -0.744  15.476 +0.00 +0.02    +0.066 A 
DOCKED: ATOM     11  C   UNL d   1       8.231  -1.278  14.634 -0.16 -0.00    -0.021 A 
DOCKED: ATOM     12  C   UNL d   1       8.410  -0.681  13.383 -0.23 +0.00    +0.000 A 
DOCKED: ATOM     13  C   UNL d   1       9.494   0.180  13.557 -0.14 +0.02    +0.070 A 
DOCKED: ATOM     14  C   UNL d   1       7.130  -2.221  15.045 -0.16 +0.00    +0.052 C 
DOCKED: ATOM     15  C   UNL d   1      11.158   1.779  12.529 -0.24 +0.02    +0.066 A 
DOCKED: ATOM     16  C   UNL d   1      11.733   2.367  11.411 -0.34 -0.01    -0.021 A 
DOCKED: ATOM     17  C   UNL d   1      12.814   3.120  11.891 -0.26 +0.00    +0.000 A 
DOCKED: ATOM     18  C   UNL d   1      12.803   2.945  13.271 -0.18 +0.03    +0.070 A 
DOCKED: ATOM     19  C   UNL d   1      11.254   2.197   9.987 -0.49 +0.01    +0.052 C 
DOCKED: ATOM     20  C   UNL d   1      13.817   3.276  15.557 -0.10 +0.04    +0.066 A 
DOCKED: ATOM     21  C   UNL d   1      14.803   3.840  16.362 -0.08 -0.01    -0.025 A 
DOCKED: ATOM     22  C   UNL d   1      14.557   3.369  17.639 -0.07 -0.01    -0.021 A 
DOCKED: ATOM     23  C   UNL d   1      13.431   2.524  17.546 -0.09 +0.04    +0.066 A 
DOCKED: ATOM     24  C   UNL d   1      15.938   4.768  15.934 -0.06 +0.02    +0.051 C 
DOCKED: ATOM     25  N   UNL d   1      11.187   0.588  17.297 -0.08 -0.09    -0.248 N 
DOCKED: ATOM     26  N   UNL d   1       9.953   0.182  14.837 -0.11 -0.08    -0.248 N 
DOCKED: ATOM     27  N   UNL d   1      11.822   2.116  13.612 -0.14 -0.10    -0.248 N 
DOCKED: ATOM     28  N   UNL d   1      12.981   2.463  16.287 -0.09 -0.16    -0.248 N 
DOCKED: ATOM     29 FE   UNL d   1      11.526   1.400  15.347 -0.03 +0.00    +0.000 Fe
DOCKED: ENDROOT
DOCKED: BRANCH   6  30
DOCKED: ATOM     30  C   UNL d   1      12.046  -0.069  20.914 -0.01 +0.01    +0.052 C 
DOCKED: BRANCH  30  31
DOCKED: ATOM     31  C   UNL d   1      11.303   0.895  21.839 -0.01 +0.01    +0.115 C 
DOCKED: BRANCH  31  32
DOCKED: ATOM     32  C   UNL d   1      11.326   2.320  21.327 -0.04 +0.03    +0.139 C 
DOCKED: ATOM     33  O   UNL d   1      10.473   2.687  20.532 -0.02 -0.23    -0.650 OA
DOCKED: BRANCH  32  34
DOCKED: ATOM     34  O   UNL d   1      12.237   3.222  21.758 +0.03 -0.17    -0.776 OA
DOCKED: ATOM     35  H   UNL d   1      12.349   4.105  21.380 +0.02 +0.05    +0.167 HD
DOCKED: ENDBRANCH  32  34
DOCKED: ENDBRANCH  31  32
DOCKED: ENDBRANCH  30  31
DOCKED: ENDBRANCH   6  30
DOCKED: BRANCH  29  36
DOCKED: ATOM     36  C   UNL d   1      12.855  -0.191  15.038 -0.01 +0.05    +0.190 C 
DOCKED: BRANCH  36  37
DOCKED: ATOM     37  O   UNL d   1      13.345  -1.363  15.623 +0.01 -0.07    -0.399 OA
DOCKED: ATOM     38  H   UNL d   1      12.965  -1.368  16.546 +0.01 +0.04    +0.209 HD
DOCKED: ENDBRANCH  36  37
DOCKED: ENDBRANCH  29  36
DOCKED: BRANCH  22  39
DOCKED: ATOM     39  C   UNL d   1      15.401   3.667  18.864 -0.02 +0.02    +0.052 C 
DOCKED: BRANCH  39  40
DOCKED: ATOM     40  C   UNL d   1      14.565   4.382  19.939 -0.03 +0.05    +0.115 C 
DOCKED: BRANCH  40  41
DOCKED: ATOM     41  C   UNL d   1      13.503   5.310  19.388 +0.03 +0.14    +0.139 C 
DOCKED: ATOM     42  O   UNL d   1      13.843   6.317  18.784 -0.54 -0.78    -0.650 OA
DOCKED: BRANCH  41  43
DOCKED: ATOM     43  O   UNL d   1      12.187   5.011  19.470 -0.10 -1.06    -0.776 OA
DOCKED: ATOM     44  H   UNL d   1      11.858   4.245  19.958 +0.02 +0.13    +0.167 HD
DOCKED: ENDBRANCH  41  43
DOCKED: ENDBRANCH  40  41
DOCKED: ENDBRANCH  39  40
DOCKED: ENDBRANCH  22  39
DOCKED: BRANCH  12  45
DOCKED: ATOM     45  C   UNL d   1       7.674  -0.809  12.057 -0.32 +0.00    +0.004 C 
DOCKED: ATOM     46  C   UNL d   1       6.446  -0.433  11.708 -0.36 +0.00    +0.012 C 
DOCKED: ENDBRANCH  12  45
DOCKED: BRANCH  17  47
DOCKED: ATOM     47  C   UNL d   1      13.832   3.914  11.140 -0.27 +0.00    +0.004 C 
DOCKED: ATOM     48  C   UNL d   1      13.838   5.248  11.091 -0.35 +0.00    +0.012 C 
DOCKED: ENDBRANCH  17  47
DOCKED: TORSDOF 12
DOCKED: TER
DOCKED: ENDMDL
________________________________________________________________________________


	BEGINNING GENETIC ALGORITHM DOCKING 76 of 100
Run: 76 Seed: 1488989883 1092555763 [ Run 76 of 100 GA/GALS ]
Beginning LAMARCKIAN GENETIC ALGORITHM (LGA), with a maximum of 25000000 energy evaluations.

Final-Value: -10.374


	FINAL GENETIC ALGORITHM DOCKED STATE
	_______________________________________________


Detailed state:  trans 3.850 14.873 -12.935 quatxyzw -0.429905 0.082606 -0.202646 -0.875952 center 8.781 34.984 -0.736 ntor 12 -143.2331 116.1989 -116.9591 -101.8304 132.2632 117.2125 46.0356 143.4251 -101.1300 76.1459 -178.4740 -160.9474
State:	  3.850  14.873 -12.935  -0.891  0.171 -0.420 -57.684   -143.23  116.20 -116.96 -101.83  132.26  117.21   46.04  143.43 -101.13   76.15 -178.47 -160.95

DOCKED: MODEL       76
DOCKED: USER    Run = 76
DOCKED: USER    DPF = D:/Protein_go_brrr/autodock/final/mut_N102T/heme_Co/dock.dpf
DOCKED: USER  
DOCKED: USER    Estimated Free Energy of Binding    =   -3.76 kcal/mol  [=(1)+(2)+(3)-(4)]
DOCKED: USER    Estimated Inhibition Constant, Ki   =    1.76 mM (millimolar)  [Temperature = 298.15 K]
DOCKED: USER    
DOCKED: USER    (1) Final Intermolecular Energy     =   -7.34 kcal/mol
DOCKED: USER        vdW + Hbond + desolv Energy     =   -6.55 kcal/mol
DOCKED: USER        Electrostatic Energy            =   -0.79 kcal/mol
DOCKED: USER    (2) Final Total Internal Energy     =   -3.04 kcal/mol
DOCKED: USER    (3) Torsional Free Energy           =   +3.58 kcal/mol
DOCKED: USER    (4) Unbound System's Energy  [=(2)] =   -3.04 kcal/mol
DOCKED: USER    
DOCKED: USER    
DOCKED: USER    NEWDPF move heme_Co_opt.pdbqt
DOCKED: USER    NEWDPF about 8.781000 34.984000 -0.736000
DOCKED: USER    NEWDPF tran0 3.849912 14.872527 -12.934597
DOCKED: USER    NEWDPF quaternion0 -0.429905 0.082606 -0.202646 -0.875952
DOCKED: USER    NEWDPF axisangle0 -0.891184 0.171241 -0.420081 -57.684232
DOCKED: USER    NEWDPF quat0 -0.891184 0.171241 -0.420081 -57.684232
DOCKED: USER    NEWDPF dihe0 -143.23 116.20 -116.96 -101.83 132.26 117.21 46.04 143.43 -101.13 76.15 -178.47 -160.95 
DOCKED: USER  keepresnum = 1 
DOCKED: USER  
DOCKED: REMARK  12 active torsions:
DOCKED: REMARK  status: ('A' for Active; 'I' for Inactive)
DOCKED: REMARK    1  A    between atoms: C_6  and  C_10 
DOCKED: REMARK    2  A    between atoms: C_10  and  C_11 
DOCKED: REMARK    3  A    between atoms: C_11  and  C_12 
DOCKED: REMARK    4  A    between atoms: C_12  and  O_14 
DOCKED: REMARK    5  A    between atoms: C_17  and  C_20 
DOCKED: REMARK    6  A    between atoms: C_24  and  C_27 
DOCKED: REMARK    7  A    between atoms: C_31  and  C_34 
DOCKED: REMARK    8  A    between atoms: C_34  and  C_35 
DOCKED: REMARK    9  A    between atoms: C_35  and  C_36 
DOCKED: REMARK   10  A    between atoms: C_36  and  O_38 
DOCKED: REMARK   11  A    between atoms: FE_43  and  C_44 
DOCKED: REMARK   12  A    between atoms: C_44  and  O_45 
DOCKED: USER                              x       y       z     vdW  Elec       q    Type
DOCKED: USER                           _______ _______ _______ _____ _____    ______ ____
DOCKED: ROOT
DOCKED: ATOM      1  C   UNL d   1       1.971  15.359 -13.908 -0.25 -0.00    +0.064 A 
DOCKED: ATOM      2  C   UNL d   1       3.545  16.052  -9.475 -0.27 -0.02    +0.064 C 
DOCKED: ATOM      3  C   UNL d   1       7.539  13.628 -10.474 -0.16 -0.02    +0.064 A 
DOCKED: ATOM      4  C   UNL d   1       6.127  13.239 -15.113 -0.17 -0.04    +0.064 A 
DOCKED: ATOM      5  C   UNL d   1       2.091  15.695 -12.614 -0.24 -0.01    +0.066 A 
DOCKED: ATOM      6  C   UNL d   1       1.133  16.491 -11.956 -0.18 +0.00    -0.021 A 
DOCKED: ATOM      7  C   UNL d   1       1.606  16.708 -10.677 -0.18 +0.01    -0.025 A 
DOCKED: ATOM      8  C   UNL d   1       2.824  16.022 -10.603 -0.19 -0.03    +0.066 A 
DOCKED: ATOM      9  C   UNL d   1       0.950  17.528  -9.555 -0.19 -0.01    +0.051 C 
DOCKED: ATOM     10  C   UNL d   1       4.795  15.356  -9.298 -0.25 -0.03    +0.066 A 
DOCKED: ATOM     11  C   UNL d   1       5.529  15.232  -8.099 -0.25 +0.01    -0.021 A 
DOCKED: ATOM     12  C   UNL d   1       6.687  14.517  -8.418 -0.19 -0.00    +0.000 A 
DOCKED: ATOM     13  C   UNL d   1       6.568  14.248  -9.781 -0.20 -0.03    +0.070 A 
DOCKED: ATOM     14  C   UNL d   1       5.089  15.690  -6.732 -0.27 -0.03    +0.052 C 
DOCKED: ATOM     15  C   UNL d   1       7.605  13.317 -11.889 -0.13 -0.02    +0.066 A 
DOCKED: ATOM     16  C   UNL d   1       8.700  12.804 -12.569 -0.09 +0.01    -0.021 A 
DOCKED: ATOM     17  C   UNL d   1       8.299  12.693 -13.908 -0.11 -0.00    +0.000 A 
DOCKED: ATOM     18  C   UNL d   1       6.980  13.132 -13.936 -0.15 -0.03    +0.070 A 
DOCKED: ATOM     19  C   UNL d   1      10.034  12.455 -11.947 -0.07 -0.01    +0.052 C 
DOCKED: ATOM     20  C   UNL d   1       4.872  13.743 -15.179 -0.23 -0.03    +0.066 A 
DOCKED: ATOM     21  C   UNL d   1       4.166  13.827 -16.378 -0.24 +0.01    -0.025 A 
DOCKED: ATOM     22  C   UNL d   1       2.953  14.407 -16.056 -0.30 +0.00    -0.021 A 
DOCKED: ATOM     23  C   UNL d   1       2.984  14.662 -14.669 -0.26 -0.01    +0.066 A 
DOCKED: ATOM     24  C   UNL d   1       4.632  13.393 -17.765 -0.11 -0.03    +0.051 C 
DOCKED: ATOM     25  N   UNL d   1       3.146  15.381 -11.787 -0.18 +0.10    -0.248 N 
DOCKED: ATOM     26  N   UNL d   1       5.398  14.706 -10.300 -0.09 +0.12    -0.248 N 
DOCKED: ATOM     27  N   UNL d   1       6.609  13.524 -12.722 -0.10 +0.10    -0.248 N 
DOCKED: ATOM     28  N   UNL d   1       4.144  14.264 -14.135 -0.18 +0.09    -0.248 N 
DOCKED: ATOM     29 FE   UNL d   1       4.979  14.397 -12.285 -0.05 -0.00    +0.000 Fe
DOCKED: ENDROOT
DOCKED: BRANCH   6  30
DOCKED: ATOM     30  C   UNL d   1      -0.135  17.079 -12.566 -0.12 -0.00    +0.052 C 
DOCKED: BRANCH  30  31
DOCKED: ATOM     31  C   UNL d   1       0.117  18.503 -13.060 -0.03 +0.00    +0.115 C 
DOCKED: BRANCH  31  32
DOCKED: ATOM     32  C   UNL d   1       0.873  18.534 -14.371 -0.03 +0.01    +0.139 C 
DOCKED: ATOM     33  O   UNL d   1       2.092  18.448 -14.364 +0.03 -0.03    -0.650 OA
DOCKED: BRANCH  32  34
DOCKED: ATOM     34  O   UNL d   1       0.238  18.606 -15.564 +0.03 -0.20    -0.776 OA
DOCKED: ATOM     35  H   UNL d   1       0.563  18.198 -16.379 +0.02 +0.06    +0.167 HD
DOCKED: ENDBRANCH  32  34
DOCKED: ENDBRANCH  31  32
DOCKED: ENDBRANCH  30  31
DOCKED: ENDBRANCH   6  30
DOCKED: BRANCH  29  36
DOCKED: ATOM     36  C   UNL d   1       5.743  16.295 -12.741 -0.04 -0.04    +0.190 C 
DOCKED: BRANCH  36  37
DOCKED: ATOM     37  O   UNL d   1       5.401  17.528 -13.306 +0.00 +0.05    -0.399 OA
DOCKED: ATOM     38  H   UNL d   1       4.432  17.447 -13.530 +0.02 -0.02    +0.209 HD
DOCKED: ENDBRANCH  36  37
DOCKED: ENDBRANCH  29  36
DOCKED: BRANCH  22  39
DOCKED: ATOM     39  C   UNL d   1       1.855  14.755 -17.044 -0.25 +0.01    +0.052 C 
DOCKED: BRANCH  39  40
DOCKED: ATOM     40  C   UNL d   1       2.371  15.745 -18.102 -0.17 +0.03    +0.115 C 
DOCKED: BRANCH  40  41
DOCKED: ATOM     41  C   UNL d   1       1.804  17.144 -17.978 -0.12 +0.06    +0.139 C 
DOCKED: ATOM     42  O   UNL d   1       0.676  17.371 -18.392 +0.05 -0.63    -0.650 OA
DOCKED: BRANCH  41  43
DOCKED: ATOM     43  O   UNL d   1       2.477  18.129 -17.344 +0.04 -0.19    -0.776 OA
DOCKED: ATOM     44  H   UNL d   1       2.187  18.495 -16.498 +0.02 +0.03    +0.167 HD
DOCKED: ENDBRANCH  41  43
DOCKED: ENDBRANCH  40  41
DOCKED: ENDBRANCH  39  40
DOCKED: ENDBRANCH  22  39
DOCKED: BRANCH  12  45
DOCKED: ATOM     45  C   UNL d   1       7.876  14.045  -7.592 -0.21 -0.00    +0.004 C 
DOCKED: ATOM     46  C   UNL d   1       9.145  14.444  -7.594 -0.16 -0.01    +0.012 C 
DOCKED: ENDBRANCH  12  45
DOCKED: BRANCH  17  47
DOCKED: ATOM     47  C   UNL d   1       9.080  12.261 -15.105 -0.11 -0.00    +0.004 C 
DOCKED: ATOM     48  C   UNL d   1       8.859  11.116 -15.756 -0.22 -0.00    +0.012 C 
DOCKED: ENDBRANCH  17  47
DOCKED: TORSDOF 12
DOCKED: TER
DOCKED: ENDMDL
________________________________________________________________________________


	BEGINNING GENETIC ALGORITHM DOCKING 77 of 100
Run: 77 Seed: 1376514272 714960976 [ Run 77 of 100 GA/GALS ]
Beginning LAMARCKIAN GENETIC ALGORITHM (LGA), with a maximum of 25000000 energy evaluations.

Final-Value: -9.240


	FINAL GENETIC ALGORITHM DOCKED STATE
	_______________________________________________


Detailed state:  trans -4.574 17.370 -15.690 quatxyzw -0.543273 0.642401 0.089021 0.533151 center 8.781 34.984 -0.736 ntor 12 38.9479 96.4137 -149.2917 -106.4267 142.6414 88.6048 -13.4341 125.7652 -125.7781 146.9779 -18.0969 167.8080
State:	 -4.574  17.370 -15.690  -0.642  0.759  0.105 115.563     38.95   96.41 -149.29 -106.43  142.64   88.60  -13.43  125.77 -125.78  146.98  -18.10  167.81

DOCKED: MODEL       77
DOCKED: USER    Run = 77
DOCKED: USER    DPF = D:/Protein_go_brrr/autodock/final/mut_N102T/heme_Co/dock.dpf
DOCKED: USER  
DOCKED: USER    Estimated Free Energy of Binding    =   -3.42 kcal/mol  [=(1)+(2)+(3)-(4)]
DOCKED: USER    Estimated Inhibition Constant, Ki   =    3.10 mM (millimolar)  [Temperature = 298.15 K]
DOCKED: USER    
DOCKED: USER    (1) Final Intermolecular Energy     =   -7.00 kcal/mol
DOCKED: USER        vdW + Hbond + desolv Energy     =   -5.10 kcal/mol
DOCKED: USER        Electrostatic Energy            =   -1.90 kcal/mol
DOCKED: USER    (2) Final Total Internal Energy     =   -2.24 kcal/mol
DOCKED: USER    (3) Torsional Free Energy           =   +3.58 kcal/mol
DOCKED: USER    (4) Unbound System's Energy  [=(2)] =   -2.24 kcal/mol
DOCKED: USER    
DOCKED: USER    
DOCKED: USER    NEWDPF move heme_Co_opt.pdbqt
DOCKED: USER    NEWDPF about 8.781000 34.984000 -0.736000
DOCKED: USER    NEWDPF tran0 -4.573909 17.369815 -15.689864
DOCKED: USER    NEWDPF quaternion0 -0.543273 0.642401 0.089021 0.533151
DOCKED: USER    NEWDPF axisangle0 -0.642152 0.759322 0.105223 115.562758
DOCKED: USER    NEWDPF quat0 -0.642152 0.759322 0.105223 115.562758
DOCKED: USER    NEWDPF dihe0 38.95 96.41 -149.29 -106.43 142.64 88.60 -13.43 125.77 -125.78 146.98 -18.10 167.81 
DOCKED: USER  keepresnum = 1 
DOCKED: USER  
DOCKED: REMARK  12 active torsions:
DOCKED: REMARK  status: ('A' for Active; 'I' for Inactive)
DOCKED: REMARK    1  A    between atoms: C_6  and  C_10 
DOCKED: REMARK    2  A    between atoms: C_10  and  C_11 
DOCKED: REMARK    3  A    between atoms: C_11  and  C_12 
DOCKED: REMARK    4  A    between atoms: C_12  and  O_14 
DOCKED: REMARK    5  A    between atoms: C_17  and  C_20 
DOCKED: REMARK    6  A    between atoms: C_24  and  C_27 
DOCKED: REMARK    7  A    between atoms: C_31  and  C_34 
DOCKED: REMARK    8  A    between atoms: C_34  and  C_35 
DOCKED: REMARK    9  A    between atoms: C_35  and  C_36 
DOCKED: REMARK   10  A    between atoms: C_36  and  O_38 
DOCKED: REMARK   11  A    between atoms: FE_43  and  C_44 
DOCKED: REMARK   12  A    between atoms: C_44  and  O_45 
DOCKED: USER                              x       y       z     vdW  Elec       q    Type
DOCKED: USER                           _______ _______ _______ _____ _____    ______ ____
DOCKED: ROOT
DOCKED: ATOM      1  C   UNL d   1      -4.518  19.496 -16.129 -0.03 +0.02    +0.064 A 
DOCKED: ATOM      2  C   UNL d   1      -5.633  15.713 -18.786 -0.11 +0.02    +0.064 C 
DOCKED: ATOM      3  C   UNL d   1      -4.407  12.792 -15.209 -0.13 -0.00    +0.064 A 
DOCKED: ATOM      4  C   UNL d   1      -3.628  16.647 -12.345 -0.05 +0.00    +0.064 A 
DOCKED: ATOM      5  C   UNL d   1      -4.878  18.676 -17.130 -0.06 +0.03    +0.066 A 
DOCKED: ATOM      6  C   UNL d   1      -5.380  19.164 -18.352 -0.06 -0.01    -0.021 A 
DOCKED: ATOM      7  C   UNL d   1      -5.723  18.063 -19.111 -0.07 -0.01    -0.025 A 
DOCKED: ATOM      8  C   UNL d   1      -5.401  16.950 -18.326 -0.08 +0.03    +0.066 A 
DOCKED: ATOM      9  C   UNL d   1      -6.332  18.042 -20.521 -0.05 +0.02    +0.051 C 
DOCKED: ATOM     10  C   UNL d   1      -5.311  14.509 -18.061 -0.14 +0.02    +0.066 A 
DOCKED: ATOM     11  C   UNL d   1      -5.399  13.185 -18.544 -0.17 -0.00    -0.021 A 
DOCKED: ATOM     12  C   UNL d   1      -5.032  12.354 -17.482 -0.26 +0.00    +0.000 A 
DOCKED: ATOM     13  C   UNL d   1      -4.736  13.230 -16.437 -0.22 +0.01    +0.070 A 
DOCKED: ATOM     14  C   UNL d   1      -5.722  12.770 -19.956 -0.12 +0.01    +0.052 C 
DOCKED: ATOM     15  C   UNL d   1      -4.123  13.552 -14.007 -0.16 -0.00    +0.066 A 
DOCKED: ATOM     16  C   UNL d   1      -3.931  13.035 -12.734 -0.26 +0.00    -0.021 A 
DOCKED: ATOM     17  C   UNL d   1      -3.709  14.143 -11.904 -0.21 -0.00    +0.000 A 
DOCKED: ATOM     18  C   UNL d   1      -3.765  15.251 -12.743 -0.11 +0.00    +0.070 A 
DOCKED: ATOM     19  C   UNL d   1      -3.967  11.568 -12.367 -0.41 -0.01    +0.052 C 
DOCKED: ATOM     20  C   UNL d   1      -3.765  17.744 -13.128 -0.02 +0.01    +0.066 A 
DOCKED: ATOM     21  C   UNL d   1      -3.646  19.037 -12.622 -0.01 -0.00    -0.025 A 
DOCKED: ATOM     22  C   UNL d   1      -3.869  19.879 -13.696 -0.01 -0.00    -0.021 A 
DOCKED: ATOM     23  C   UNL d   1      -4.127  19.052 -14.810 -0.02 +0.01    +0.066 A 
DOCKED: ATOM     24  C   UNL d   1      -3.355  19.451 -11.183 -0.00 +0.00    +0.051 C 
DOCKED: ATOM     25  N   UNL d   1      -4.871  17.300 -17.096 -0.07 -0.10    -0.248 N 
DOCKED: ATOM     26  N   UNL d   1      -4.851  14.534 -16.806 -0.13 -0.05    -0.248 N 
DOCKED: ATOM     27  N   UNL d   1      -4.043  14.863 -13.983 -0.10 -0.02    -0.248 N 
DOCKED: ATOM     28  N   UNL d   1      -4.067  17.759 -14.470 -0.02 -0.04    -0.248 N 
DOCKED: ATOM     29 FE   UNL d   1      -4.431  16.012 -15.445 -0.02 +0.00    +0.000 Fe
DOCKED: ENDROOT
DOCKED: BRANCH   6  30
DOCKED: ATOM     30  C   UNL d   1      -5.591  20.627 -18.729 -0.03 +0.02    +0.052 C 
DOCKED: BRANCH  30  31
DOCKED: ATOM     31  C   UNL d   1      -4.251  21.356 -18.823 -0.03 +0.05    +0.115 C 
DOCKED: BRANCH  31  32
DOCKED: ATOM     32  C   UNL d   1      -3.268  20.643 -19.726 +0.09 +0.16    +0.139 C 
DOCKED: ATOM     33  O   UNL d   1      -2.082  20.629 -19.431 -0.38 -0.92    -0.650 OA
DOCKED: BRANCH  32  34
DOCKED: ATOM     34  O   UNL d   1      -3.665  19.973 -20.832 -0.27 -1.20    -0.776 OA
DOCKED: ATOM     35  H   UNL d   1      -4.400  20.245 -21.399 +0.00 +0.13    +0.167 HD
DOCKED: ENDBRANCH  32  34
DOCKED: ENDBRANCH  31  32
DOCKED: ENDBRANCH  30  31
DOCKED: ENDBRANCH   6  30
DOCKED: BRANCH  29  36
DOCKED: ATOM     36  C   UNL d   1      -6.466  16.135 -14.954 -0.02 +0.02    +0.190 C 
DOCKED: BRANCH  36  37
DOCKED: ATOM     37  O   UNL d   1      -7.455  17.022 -14.518 +0.00 -0.03    -0.399 OA
DOCKED: ATOM     38  H   UNL d   1      -6.955  17.804 -14.152 +0.01 +0.01    +0.209 HD
DOCKED: ENDBRANCH  36  37
DOCKED: ENDBRANCH  29  36
DOCKED: BRANCH  22  39
DOCKED: ATOM     39  C   UNL d   1      -3.896  21.395 -13.635 -0.00 +0.00    +0.052 C 
DOCKED: BRANCH  39  40
DOCKED: ATOM     40  C   UNL d   1      -5.322  21.901 -13.363 +0.00 +0.01    +0.115 C 
DOCKED: BRANCH  40  41
DOCKED: ATOM     41  C   UNL d   1      -6.409  21.122 -14.074 +0.00 +0.01    +0.139 C 
DOCKED: ATOM     42  O   UNL d   1      -6.842  21.536 -15.140 +0.00 -0.05    -0.650 OA
DOCKED: BRANCH  41  43
DOCKED: ATOM     43  O   UNL d   1      -6.852  19.934 -13.608 +0.00 -0.04    -0.776 OA
DOCKED: ATOM     44  H   UNL d   1      -7.097  19.205 -14.192 +0.00 +0.01    +0.167 HD
DOCKED: ENDBRANCH  41  43
DOCKED: ENDBRANCH  40  41
DOCKED: ENDBRANCH  39  40
DOCKED: ENDBRANCH  22  39
DOCKED: BRANCH  12  45
DOCKED: ATOM     45  C   UNL d   1      -4.910  10.843 -17.340 -0.48 -0.00    +0.004 C 
DOCKED: ATOM     46  C   UNL d   1      -5.594   9.985 -16.588 -0.33 -0.00    +0.012 C 
DOCKED: ENDBRANCH  12  45
DOCKED: BRANCH  17  47
DOCKED: ATOM     47  C   UNL d   1      -3.507  14.203 -10.425 -0.28 -0.00    +0.004 C 
DOCKED: ATOM     48  C   UNL d   1      -2.414  14.710  -9.850 -0.31 -0.00    +0.012 C 
DOCKED: ENDBRANCH  17  47
DOCKED: TORSDOF 12
DOCKED: TER
DOCKED: ENDMDL
________________________________________________________________________________


	BEGINNING GENETIC ALGORITHM DOCKING 78 of 100
Run: 78 Seed: 1717019117 2100322551 [ Run 78 of 100 GA/GALS ]
Beginning LAMARCKIAN GENETIC ALGORITHM (LGA), with a maximum of 25000000 energy evaluations.

Final-Value: -10.645


	FINAL GENETIC ALGORITHM DOCKED STATE
	_______________________________________________


Detailed state:  trans -9.033 -15.976 -4.281 quatxyzw -0.667545 -0.484408 -0.457378 -0.332472 center 8.781 34.984 -0.736 ntor 12 -106.4682 95.2613 -49.4638 -26.4770 137.8236 114.9573 44.1990 -12.7539 -180.0000 -177.8107 -166.5682 -179.8203
State:	 -9.033 -15.976  -4.281  -0.708 -0.514 -0.485 -141.162   -106.47   95.26  -49.46  -26.48  137.82  114.96   44.20  -12.75 -180.00 -177.81 -166.57 -179.82

DOCKED: MODEL       78
DOCKED: USER    Run = 78
DOCKED: USER    DPF = D:/Protein_go_brrr/autodock/final/mut_N102T/heme_Co/dock.dpf
DOCKED: USER  
DOCKED: USER    Estimated Free Energy of Binding    =   -3.82 kcal/mol  [=(1)+(2)+(3)-(4)]
DOCKED: USER    Estimated Inhibition Constant, Ki   =    1.58 mM (millimolar)  [Temperature = 298.15 K]
DOCKED: USER    
DOCKED: USER    (1) Final Intermolecular Energy     =   -7.40 kcal/mol
DOCKED: USER        vdW + Hbond + desolv Energy     =   -4.02 kcal/mol
DOCKED: USER        Electrostatic Energy            =   -3.39 kcal/mol
DOCKED: USER    (2) Final Total Internal Energy     =   -3.24 kcal/mol
DOCKED: USER    (3) Torsional Free Energy           =   +3.58 kcal/mol
DOCKED: USER    (4) Unbound System's Energy  [=(2)] =   -3.24 kcal/mol
DOCKED: USER    
DOCKED: USER    
DOCKED: USER    NEWDPF move heme_Co_opt.pdbqt
DOCKED: USER    NEWDPF about 8.781000 34.984000 -0.736000
DOCKED: USER    NEWDPF tran0 -9.033153 -15.975716 -4.280783
DOCKED: USER    NEWDPF quaternion0 -0.667545 -0.484408 -0.457378 -0.332472
DOCKED: USER    NEWDPF axisangle0 -0.707810 -0.513627 -0.484966 -141.162284
DOCKED: USER    NEWDPF quat0 -0.707810 -0.513627 -0.484966 -141.162284
DOCKED: USER    NEWDPF dihe0 -106.47 95.26 -49.46 -26.48 137.82 114.96 44.20 -12.75 -180.00 -177.81 -166.57 -179.82 
DOCKED: USER  keepresnum = 1 
DOCKED: USER  
DOCKED: REMARK  12 active torsions:
DOCKED: REMARK  status: ('A' for Active; 'I' for Inactive)
DOCKED: REMARK    1  A    between atoms: C_6  and  C_10 
DOCKED: REMARK    2  A    between atoms: C_10  and  C_11 
DOCKED: REMARK    3  A    between atoms: C_11  and  C_12 
DOCKED: REMARK    4  A    between atoms: C_12  and  O_14 
DOCKED: REMARK    5  A    between atoms: C_17  and  C_20 
DOCKED: REMARK    6  A    between atoms: C_24  and  C_27 
DOCKED: REMARK    7  A    between atoms: C_31  and  C_34 
DOCKED: REMARK    8  A    between atoms: C_34  and  C_35 
DOCKED: REMARK    9  A    between atoms: C_35  and  C_36 
DOCKED: REMARK   10  A    between atoms: C_36  and  O_38 
DOCKED: REMARK   11  A    between atoms: FE_43  and  C_44 
DOCKED: REMARK   12  A    between atoms: C_44  and  O_45 
DOCKED: USER                              x       y       z     vdW  Elec       q    Type
DOCKED: USER                           _______ _______ _______ _____ _____    ______ ____
DOCKED: ROOT
DOCKED: ATOM      1  C   UNL d   1      -9.021 -17.547  -5.780 +0.01 +0.03    +0.064 A 
DOCKED: ATOM      2  C   UNL d   1     -10.331 -12.979  -5.950 -0.01 +0.02    +0.064 C 
DOCKED: ATOM      3  C   UNL d   1      -9.565 -12.545  -1.254 -0.09 +0.01    +0.064 A 
DOCKED: ATOM      4  C   UNL d   1      -7.855 -17.098  -1.125 -0.06 +0.06    +0.064 A 
DOCKED: ATOM      5  C   UNL d   1      -9.470 -16.341  -6.164 +0.00 +0.03    +0.066 A 
DOCKED: ATOM      6  C   UNL d   1      -9.745 -16.041  -7.513 -0.01 -0.01    -0.021 A 
DOCKED: ATOM      7  C   UNL d   1     -10.103 -14.708  -7.560 -0.01 -0.01    -0.025 A 
DOCKED: ATOM      8  C   UNL d   1     -10.047 -14.256  -6.237 +0.00 +0.02    +0.066 A 
DOCKED: ATOM      9  C   UNL d   1     -10.484 -13.877  -8.794 -0.02 +0.01    +0.051 C 
DOCKED: ATOM     10  C   UNL d   1     -10.326 -12.431  -4.617 -0.04 +0.01    +0.066 A 
DOCKED: ATOM     11  C   UNL d   1     -10.750 -11.140  -4.234 -0.07 -0.00    -0.021 A 
DOCKED: ATOM     12  C   UNL d   1     -10.519 -11.042  -2.859 -0.08 +0.00    +0.000 A 
DOCKED: ATOM     13  C   UNL d   1      -9.985 -12.280  -2.503 -0.08 +0.01    +0.070 A 
DOCKED: ATOM     14  C   UNL d   1     -11.417 -10.120  -5.121 -0.04 +0.01    +0.052 C 
DOCKED: ATOM     15  C   UNL d   1      -8.944 -13.745  -0.727 -0.11 +0.01    +0.066 A 
DOCKED: ATOM     16  C   UNL d   1      -8.400 -13.902   0.540 -0.18 -0.00    -0.021 A 
DOCKED: ATOM     17  C   UNL d   1      -7.904 -15.213   0.581 -0.18 +0.00    +0.000 A 
DOCKED: ATOM     18  C   UNL d   1      -8.200 -15.759  -0.663 -0.08 +0.04    +0.070 A 
DOCKED: ATOM     19  C   UNL d   1      -8.372 -12.843   1.620 -0.30 +0.00    +0.052 C 
DOCKED: ATOM     20  C   UNL d   1      -8.056 -17.621  -2.358 -0.04 +0.06    +0.066 A 
DOCKED: ATOM     21  C   UNL d   1      -7.647 -18.910  -2.694 -0.02 -0.03    -0.025 A 
DOCKED: ATOM     22  C   UNL d   1      -7.997 -19.078  -4.022 -0.03 -0.01    -0.021 A 
DOCKED: ATOM     23  C   UNL d   1      -8.595 -17.869  -4.437 -0.01 +0.04    +0.066 A 
DOCKED: ATOM     24  C   UNL d   1      -6.940 -19.926  -1.801 +0.01 +0.06    +0.051 C 
DOCKED: ATOM     25  N   UNL d   1      -9.664 -15.248  -5.350 +0.01 -0.09    -0.248 N 
DOCKED: ATOM     26  N   UNL d   1      -9.922 -13.138  -3.556 -0.04 -0.06    -0.248 N 
DOCKED: ATOM     27  N   UNL d   1      -8.793 -14.847  -1.426 -0.02 -0.09    -0.248 N 
DOCKED: ATOM     28  N   UNL d   1      -8.631 -16.984  -3.433 -0.01 -0.15    -0.248 N 
DOCKED: ATOM     29 FE   UNL d   1      -9.202 -15.039  -3.272 -0.01 +0.00    +0.000 Fe
DOCKED: ENDROOT
DOCKED: BRANCH   6  30
DOCKED: ATOM     30  C   UNL d   1      -9.587 -16.980  -8.704 -0.03 +0.02    +0.052 C 
DOCKED: BRANCH  30  31
DOCKED: ATOM     31  C   UNL d   1      -8.134 -17.007  -9.178 -0.12 +0.06    +0.115 C 
DOCKED: BRANCH  31  32
DOCKED: ATOM     32  C   UNL d   1      -7.250 -16.071  -8.382 -0.15 +0.15    +0.139 C 
DOCKED: ATOM     33  O   UNL d   1      -7.176 -14.895  -8.704 -0.43 -0.69    -0.650 OA
DOCKED: BRANCH  32  34
DOCKED: ATOM     34  O   UNL d   1      -6.570 -16.484  -7.287 -0.27 -1.39    -0.776 OA
DOCKED: ATOM     35  H   UNL d   1      -6.774 -16.207  -6.384 +0.03 +0.26    +0.167 HD
DOCKED: ENDBRANCH  32  34
DOCKED: ENDBRANCH  31  32
DOCKED: ENDBRANCH  30  31
DOCKED: ENDBRANCH   6  30
DOCKED: BRANCH  29  36
DOCKED: ATOM     36  C   UNL d   1      -7.296 -14.406  -3.874 -0.11 +0.15    +0.190 C 
DOCKED: BRANCH  36  37
DOCKED: ATOM     37  O   UNL d   1      -6.281 -14.655  -4.804 -0.07 -0.54    -0.399 OA
DOCKED: ATOM     38  H   UNL d   1      -6.473 -15.570  -5.154 +0.05 +0.31    +0.209 HD
DOCKED: ENDBRANCH  36  37
DOCKED: ENDBRANCH  29  36
DOCKED: BRANCH  22  39
DOCKED: ATOM     39  C   UNL d   1      -7.709 -20.311  -4.858 -0.00 +0.02    +0.052 C 
DOCKED: BRANCH  39  40
DOCKED: ATOM     40  C   UNL d   1      -6.243 -20.322  -5.321 -0.03 +0.07    +0.115 C 
DOCKED: BRANCH  40  41
DOCKED: ATOM     41  C   UNL d   1      -5.452 -19.094  -4.922 -0.08 +0.17    +0.139 C 
DOCKED: ATOM     42  O   UNL d   1      -4.408 -19.231  -4.300 -0.38 -1.09    -0.650 OA
DOCKED: BRANCH  41  43
DOCKED: ATOM     43  O   UNL d   1      -5.822 -17.854  -5.310 -0.00 -1.06    -0.776 OA
DOCKED: ATOM     44  H   UNL d   1      -6.121 -17.658  -6.208 +0.03 +0.22    +0.167 HD
DOCKED: ENDBRANCH  41  43
DOCKED: ENDBRANCH  40  41
DOCKED: ENDBRANCH  39  40
DOCKED: ENDBRANCH  22  39
DOCKED: BRANCH  12  45
DOCKED: ATOM     45  C   UNL d   1     -10.758  -9.933  -1.842 -0.11 -0.00    +0.004 C 
DOCKED: ATOM     46  C   UNL d   1     -10.671  -8.611  -1.966 -0.13 -0.00    +0.012 C 
DOCKED: ENDBRANCH  12  45
DOCKED: BRANCH  17  47
DOCKED: ATOM     47  C   UNL d   1      -7.157 -15.916   1.666 -0.36 +0.00    +0.004 C 
DOCKED: ATOM     48  C   UNL d   1      -7.628 -16.986   2.311 -0.31 +0.00    +0.012 C 
DOCKED: ENDBRANCH  17  47
DOCKED: TORSDOF 12
DOCKED: TER
DOCKED: ENDMDL
________________________________________________________________________________


	BEGINNING GENETIC ALGORITHM DOCKING 79 of 100
Run: 79 Seed: 552740168 2038196749 [ Run 79 of 100 GA/GALS ]
Beginning LAMARCKIAN GENETIC ALGORITHM (LGA), with a maximum of 25000000 energy evaluations.

Final-Value: -10.774


	FINAL GENETIC ALGORITHM DOCKED STATE
	_______________________________________________


Detailed state:  trans 7.644 -1.613 16.474 quatxyzw -0.010977 -0.282545 0.950498 0.128844 center 8.781 34.984 -0.736 ntor 12 -179.3173 120.2316 -7.0899 -103.0303 168.5101 153.5124 177.6658 143.5356 -132.2466 -50.7259 -4.8717 180.0000
State:	  7.644  -1.613  16.474  -0.011 -0.285  0.958 165.194   -179.32  120.23   -7.09 -103.03  168.51  153.51  177.67  143.54 -132.25  -50.73   -4.87  180.00

DOCKED: MODEL       79
DOCKED: USER    Run = 79
DOCKED: USER    DPF = D:/Protein_go_brrr/autodock/final/mut_N102T/heme_Co/dock.dpf
DOCKED: USER  
DOCKED: USER    Estimated Free Energy of Binding    =   -6.31 kcal/mol  [=(1)+(2)+(3)-(4)]
DOCKED: USER    Estimated Inhibition Constant, Ki   =   23.67 uM (micromolar)  [Temperature = 298.15 K]
DOCKED: USER    
DOCKED: USER    (1) Final Intermolecular Energy     =   -9.89 kcal/mol
DOCKED: USER        vdW + Hbond + desolv Energy     =   -6.97 kcal/mol
DOCKED: USER        Electrostatic Energy            =   -2.92 kcal/mol
DOCKED: USER    (2) Final Total Internal Energy     =   -0.88 kcal/mol
DOCKED: USER    (3) Torsional Free Energy           =   +3.58 kcal/mol
DOCKED: USER    (4) Unbound System's Energy  [=(2)] =   -0.88 kcal/mol
DOCKED: USER    
DOCKED: USER    
DOCKED: USER    NEWDPF move heme_Co_opt.pdbqt
DOCKED: USER    NEWDPF about 8.781000 34.984000 -0.736000
DOCKED: USER    NEWDPF tran0 7.644366 -1.613231 16.474430
DOCKED: USER    NEWDPF quaternion0 -0.010977 -0.282545 0.950498 0.128844
DOCKED: USER    NEWDPF axisangle0 -0.011069 -0.284920 0.958487 165.194369
DOCKED: USER    NEWDPF quat0 -0.011069 -0.284920 0.958487 165.194369
DOCKED: USER    NEWDPF dihe0 -179.32 120.23 -7.09 -103.03 168.51 153.51 177.67 143.54 -132.25 -50.73 -4.87 180.00 
DOCKED: USER  keepresnum = 1 
DOCKED: USER  
DOCKED: REMARK  12 active torsions:
DOCKED: REMARK  status: ('A' for Active; 'I' for Inactive)
DOCKED: REMARK    1  A    between atoms: C_6  and  C_10 
DOCKED: REMARK    2  A    between atoms: C_10  and  C_11 
DOCKED: REMARK    3  A    between atoms: C_11  and  C_12 
DOCKED: REMARK    4  A    between atoms: C_12  and  O_14 
DOCKED: REMARK    5  A    between atoms: C_17  and  C_20 
DOCKED: REMARK    6  A    between atoms: C_24  and  C_27 
DOCKED: REMARK    7  A    between atoms: C_31  and  C_34 
DOCKED: REMARK    8  A    between atoms: C_34  and  C_35 
DOCKED: REMARK    9  A    between atoms: C_35  and  C_36 
DOCKED: REMARK   10  A    between atoms: C_36  and  O_38 
DOCKED: REMARK   11  A    between atoms: FE_43  and  C_44 
DOCKED: REMARK   12  A    between atoms: C_44  and  O_45 
DOCKED: USER                              x       y       z     vdW  Elec       q    Type
DOCKED: USER                           _______ _______ _______ _____ _____    ______ ____
DOCKED: ROOT
DOCKED: ATOM      1  C   UNL d   1       9.596  -1.095  15.675 -0.09 +0.02    +0.064 A 
DOCKED: ATOM      2  C   UNL d   1       7.905  -1.265  20.116 -0.07 +0.00    +0.064 C 
DOCKED: ATOM      3  C   UNL d   1       3.536  -2.257  18.455 -0.13 -0.02    +0.064 A 
DOCKED: ATOM      4  C   UNL d   1       5.318  -2.470  13.933 -0.24 -0.00    +0.064 A 
DOCKED: ATOM      5  C   UNL d   1       9.447  -1.033  17.009 +0.00 +0.02    +0.066 A 
DOCKED: ATOM      6  C   UNL d   1      10.540  -0.828  17.874 -0.07 -0.00    -0.021 A 
DOCKED: ATOM      7  C   UNL d   1      10.047  -0.901  19.162 -0.06 -0.00    -0.025 A 
DOCKED: ATOM      8  C   UNL d   1       8.673  -1.131  19.028 -0.07 +0.01    +0.066 A 
DOCKED: ATOM      9  C   UNL d   1      10.827  -0.763  20.478 -0.03 +0.01    +0.051 C 
DOCKED: ATOM     10  C   UNL d   1       6.479  -1.477  20.076 -0.06 -0.00    +0.066 A 
DOCKED: ATOM     11  C   UNL d   1       5.597  -1.486  21.179 -0.05 +0.00    -0.021 A 
DOCKED: ATOM     12  C   UNL d   1       4.329  -1.774  20.665 -0.08 -0.00    +0.000 A 
DOCKED: ATOM     13  C   UNL d   1       4.529  -1.906  19.291 -0.08 -0.02    +0.070 A 
DOCKED: ATOM     14  C   UNL d   1       5.947  -1.146  22.604 -0.03 -0.01    +0.052 C 
DOCKED: ATOM     15  C   UNL d   1       3.577  -2.488  17.024 -0.21 -0.01    +0.066 A 
DOCKED: ATOM     16  C   UNL d   1       2.547  -2.991  16.242 -0.37 +0.01    -0.021 A 
DOCKED: ATOM     17  C   UNL d   1       3.056  -3.057  14.938 -0.43 -0.00    +0.000 A 
DOCKED: ATOM     18  C   UNL d   1       4.357  -2.571  15.024 -0.19 -0.01    +0.070 A 
DOCKED: ATOM     19  C   UNL d   1       1.173  -3.376  16.744 -0.41 -0.02    +0.052 C 
DOCKED: ATOM     20  C   UNL d   1       6.614  -2.083  14.009 -0.19 +0.00    +0.066 A 
DOCKED: ATOM     21  C   UNL d   1       7.450  -2.061  12.895 -0.20 -0.00    -0.025 A 
DOCKED: ATOM     22  C   UNL d   1       8.682  -1.641  13.362 -0.14 -0.00    -0.021 A 
DOCKED: ATOM     23  C   UNL d   1       8.539  -1.437  14.751 -0.12 +0.01    +0.066 A 
DOCKED: ATOM     24  C   UNL d   1       7.099  -2.442  11.460 -0.20 +0.01    +0.051 C 
DOCKED: ATOM     25  N   UNL d   1       8.273  -1.211  17.705 -0.06 -0.05    -0.248 N 
DOCKED: ATOM     26  N   UNL d   1       5.819  -1.671  18.930 -0.05 +0.02    -0.248 N 
DOCKED: ATOM     27  N   UNL d   1       4.642  -2.270  16.286 -0.13 +0.04    -0.248 N 
DOCKED: ATOM     28  N   UNL d   1       7.289  -1.705  15.147 -0.09 -0.02    -0.248 N 
DOCKED: ATOM     29 FE   UNL d   1       6.351  -1.772  16.950 -0.04 -0.00    +0.000 Fe
DOCKED: ENDROOT
DOCKED: BRANCH   6  30
DOCKED: ATOM     30  C   UNL d   1      12.000  -0.654  17.469 -0.04 +0.01    +0.052 C 
DOCKED: BRANCH  30  31
DOCKED: ATOM     31  C   UNL d   1      12.257   0.773  16.987 -0.08 +0.04    +0.115 C 
DOCKED: BRANCH  31  32
DOCKED: ATOM     32  C   UNL d   1      11.646   1.811  17.904 -0.15 +0.07    +0.139 C 
DOCKED: ATOM     33  O   UNL d   1      11.826   1.728  19.109 +0.00 -0.26    -0.650 OA
DOCKED: BRANCH  32  34
DOCKED: ATOM     34  O   UNL d   1      10.942   2.864  17.427 -0.46 -0.79    -0.776 OA
DOCKED: ATOM     35  H   UNL d   1      10.498   3.518  17.984 -0.49 +0.21    +0.167 HD
DOCKED: ENDBRANCH  32  34
DOCKED: ENDBRANCH  31  32
DOCKED: ENDBRANCH  30  31
DOCKED: ENDBRANCH   6  30
DOCKED: BRANCH  29  36
DOCKED: ATOM     36  C   UNL d   1       6.953  -3.762  17.215 -0.05 +0.00    +0.190 C 
DOCKED: BRANCH  36  37
DOCKED: ATOM     37  O   UNL d   1       8.027  -4.556  17.632 -0.01 -0.02    -0.399 OA
DOCKED: ATOM     38  H   UNL d   1       8.697  -3.911  17.994 +0.01 +0.01    +0.209 HD
DOCKED: ENDBRANCH  36  37
DOCKED: ENDBRANCH  29  36
DOCKED: BRANCH  22  39
DOCKED: ATOM     39  C   UNL d   1       9.941  -1.508  12.525 -0.14 +0.02    +0.052 C 
DOCKED: BRANCH  39  40
DOCKED: ATOM     40  C   UNL d   1      10.587  -2.885  12.295 -0.07 +0.06    +0.115 C 
DOCKED: BRANCH  40  41
DOCKED: ATOM     41  C   UNL d   1      10.785  -3.245  10.837 -0.06 +0.17    +0.139 C 
DOCKED: ATOM     42  O   UNL d   1       9.830  -3.640  10.184 -0.39 -1.12    -0.650 OA
DOCKED: BRANCH  41  43
DOCKED: ATOM     43  O   UNL d   1      11.970  -3.060  10.215 +0.01 -1.46    -0.776 OA
DOCKED: ATOM     44  H   UNL d   1      12.739  -2.683  10.662 +0.02 +0.17    +0.167 HD
DOCKED: ENDBRANCH  41  43
DOCKED: ENDBRANCH  40  41
DOCKED: ENDBRANCH  39  40
DOCKED: ENDBRANCH  22  39
DOCKED: BRANCH  12  45
DOCKED: ATOM     45  C   UNL d   1       2.957  -1.919  21.309 -0.10 -0.00    +0.004 C 
DOCKED: ATOM     46  C   UNL d   1       2.185  -2.991  21.469 -0.05 -0.00    +0.012 C 
DOCKED: ENDBRANCH  12  45
DOCKED: BRANCH  17  47
DOCKED: ATOM     47  C   UNL d   1       2.421  -3.577  13.690 -0.47 -0.00    +0.004 C 
DOCKED: ATOM     48  C   UNL d   1       2.655  -3.071  12.477 -0.56 -0.00    +0.012 C 
DOCKED: ENDBRANCH  17  47
DOCKED: TORSDOF 12
DOCKED: TER
DOCKED: ENDMDL
________________________________________________________________________________


	BEGINNING GENETIC ALGORITHM DOCKING 80 of 100
Run: 80 Seed: 51068240 1579315099 [ Run 80 of 100 GA/GALS ]
Beginning LAMARCKIAN GENETIC ALGORITHM (LGA), with a maximum of 25000000 energy evaluations.

Final-Value: -10.227


	FINAL GENETIC ALGORITHM DOCKED STATE
	_______________________________________________


Detailed state:  trans -11.840 3.361 10.556 quatxyzw 0.332778 0.048934 -0.656916 0.674779 center 8.781 34.984 -0.736 ntor 12 74.9260 115.3612 134.2407 69.6813 70.4703 87.9299 62.6131 -16.4728 -108.8038 -178.4911 -15.7695 -180.0000
State:	-11.840   3.361  10.556   0.451  0.066 -0.890 95.126     74.93  115.36  134.24   69.68   70.47   87.93   62.61  -16.47 -108.80 -178.49  -15.77 -180.00

DOCKED: MODEL       80
DOCKED: USER    Run = 80
DOCKED: USER    DPF = D:/Protein_go_brrr/autodock/final/mut_N102T/heme_Co/dock.dpf
DOCKED: USER  
DOCKED: USER    Estimated Free Energy of Binding    =   -4.65 kcal/mol  [=(1)+(2)+(3)-(4)]
DOCKED: USER    Estimated Inhibition Constant, Ki   =  387.82 uM (micromolar)  [Temperature = 298.15 K]
DOCKED: USER    
DOCKED: USER    (1) Final Intermolecular Energy     =   -8.23 kcal/mol
DOCKED: USER        vdW + Hbond + desolv Energy     =   -7.73 kcal/mol
DOCKED: USER        Electrostatic Energy            =   -0.51 kcal/mol
DOCKED: USER    (2) Final Total Internal Energy     =   -1.99 kcal/mol
DOCKED: USER    (3) Torsional Free Energy           =   +3.58 kcal/mol
DOCKED: USER    (4) Unbound System's Energy  [=(2)] =   -1.99 kcal/mol
DOCKED: USER    
DOCKED: USER    
DOCKED: USER    NEWDPF move heme_Co_opt.pdbqt
DOCKED: USER    NEWDPF about 8.781000 34.984000 -0.736000
DOCKED: USER    NEWDPF tran0 -11.839718 3.361145 10.555971
DOCKED: USER    NEWDPF quaternion0 0.332778 0.048934 -0.656916 0.674779
DOCKED: USER    NEWDPF axisangle0 0.450906 0.066304 -0.890105 95.126063
DOCKED: USER    NEWDPF quat0 0.450906 0.066304 -0.890105 95.126063
DOCKED: USER    NEWDPF dihe0 74.93 115.36 134.24 69.68 70.47 87.93 62.61 -16.47 -108.80 -178.49 -15.77 -180.00 
DOCKED: USER  keepresnum = 1 
DOCKED: USER  
DOCKED: REMARK  12 active torsions:
DOCKED: REMARK  status: ('A' for Active; 'I' for Inactive)
DOCKED: REMARK    1  A    between atoms: C_6  and  C_10 
DOCKED: REMARK    2  A    between atoms: C_10  and  C_11 
DOCKED: REMARK    3  A    between atoms: C_11  and  C_12 
DOCKED: REMARK    4  A    between atoms: C_12  and  O_14 
DOCKED: REMARK    5  A    between atoms: C_17  and  C_20 
DOCKED: REMARK    6  A    between atoms: C_24  and  C_27 
DOCKED: REMARK    7  A    between atoms: C_31  and  C_34 
DOCKED: REMARK    8  A    between atoms: C_34  and  C_35 
DOCKED: REMARK    9  A    between atoms: C_35  and  C_36 
DOCKED: REMARK   10  A    between atoms: C_36  and  O_38 
DOCKED: REMARK   11  A    between atoms: FE_43  and  C_44 
DOCKED: REMARK   12  A    between atoms: C_44  and  O_45 
DOCKED: USER                              x       y       z     vdW  Elec       q    Type
DOCKED: USER                           _______ _______ _______ _____ _____    ______ ____
DOCKED: ROOT
DOCKED: ATOM      1  C   UNL d   1     -12.094   1.213  10.360 -0.20 -0.01    +0.064 A 
DOCKED: ATOM      2  C   UNL d   1     -11.535   4.033  14.149 -0.15 +0.00    +0.064 C 
DOCKED: ATOM      3  C   UNL d   1     -10.883   7.806  11.291 -0.24 +0.00    +0.064 A 
DOCKED: ATOM      4  C   UNL d   1     -11.833   5.021   7.418 -0.20 -0.00    +0.064 A 
DOCKED: ATOM      5  C   UNL d   1     -11.953   1.700  11.604 -0.20 -0.01    +0.066 A 
DOCKED: ATOM      6  C   UNL d   1     -12.147   0.899  12.747 -0.15 +0.00    -0.021 A 
DOCKED: ATOM      7  C   UNL d   1     -12.006   1.727  13.843 -0.13 -0.00    -0.025 A 
DOCKED: ATOM      8  C   UNL d   1     -11.717   2.993  13.324 -0.15 +0.00    +0.066 A 
DOCKED: ATOM      9  C   UNL d   1     -12.137   1.355  15.328 -0.07 +0.01    +0.051 C 
DOCKED: ATOM     10  C   UNL d   1     -11.208   5.366  13.708 -0.16 +0.00    +0.066 A 
DOCKED: ATOM     11  C   UNL d   1     -10.868   6.465  14.526 -0.16 -0.00    -0.021 A 
DOCKED: ATOM     12  C   UNL d   1     -10.679   7.551  13.666 -0.21 +0.00    +0.000 A 
DOCKED: ATOM     13  C   UNL d   1     -10.905   7.033  12.391 -0.23 +0.00    +0.070 A 
DOCKED: ATOM     14  C   UNL d   1     -10.650   6.434  16.016 -0.10 +0.00    +0.052 C 
DOCKED: ATOM     15  C   UNL d   1     -11.143   7.449   9.910 -0.26 -0.00    +0.066 A 
DOCKED: ATOM     16  C   UNL d   1     -11.248   8.325   8.839 -0.25 +0.00    -0.021 A 
DOCKED: ATOM     17  C   UNL d   1     -11.524   7.527   7.720 -0.26 -0.00    +0.000 A 
DOCKED: ATOM     18  C   UNL d   1     -11.549   6.220   8.196 -0.24 -0.00    +0.070 A 
DOCKED: ATOM     19  C   UNL d   1     -11.089   9.827   8.916 -0.20 -0.01    +0.052 C 
DOCKED: ATOM     20  C   UNL d   1     -11.948   3.750   7.874 -0.25 -0.00    +0.066 A 
DOCKED: ATOM     21  C   UNL d   1     -12.260   2.684   7.033 -0.23 +0.00    -0.025 A 
DOCKED: ATOM     22  C   UNL d   1     -12.313   1.569   7.849 -0.22 +0.00    -0.021 A 
DOCKED: ATOM     23  C   UNL d   1     -12.041   2.016   9.159 -0.21 -0.01    +0.066 A 
DOCKED: ATOM     24  C   UNL d   1     -12.515   2.728   5.528 -0.23 -0.00    +0.051 C 
DOCKED: ATOM     25  N   UNL d   1     -11.672   3.005  11.940 -0.07 +0.01    -0.248 N 
DOCKED: ATOM     26  N   UNL d   1     -11.169   5.699  12.413 -0.11 -0.02    -0.248 N 
DOCKED: ATOM     27  N   UNL d   1     -11.349   6.215   9.509 -0.19 +0.00    -0.248 N 
DOCKED: ATOM     28  N   UNL d   1     -11.822   3.336   9.179 -0.15 +0.02    -0.248 N 
DOCKED: ATOM     29 FE   UNL d   1     -11.501   4.703  10.650 -0.06 -0.00    +0.000 Fe
DOCKED: ENDROOT
DOCKED: BRANCH   6  30
DOCKED: ATOM     30  C   UNL d   1     -12.531  -0.577  12.768 -0.08 -0.01    +0.052 C 
DOCKED: BRANCH  30  31
DOCKED: ATOM     31  C   UNL d   1     -11.386  -1.438  12.236 -0.18 -0.04    +0.115 C 
DOCKED: BRANCH  31  32
DOCKED: ATOM     32  C   UNL d   1     -10.200  -1.465  13.175 -0.15 +0.00    +0.139 C 
DOCKED: ATOM     33  O   UNL d   1      -9.554  -0.443  13.358 -0.04 -0.28    -0.650 OA
DOCKED: BRANCH  32  34
DOCKED: ATOM     34  O   UNL d   1      -9.854  -2.578  13.863 -0.47 -0.17    -0.776 OA
DOCKED: ATOM     35  H   UNL d   1      -9.469  -3.369  13.460 -0.38 -0.07    +0.167 HD
DOCKED: ENDBRANCH  32  34
DOCKED: ENDBRANCH  31  32
DOCKED: ENDBRANCH  30  31
DOCKED: ENDBRANCH   6  30
DOCKED: BRANCH  29  36
DOCKED: ATOM     36  C   UNL d   1     -13.567   4.957  10.897 -0.06 -0.01    +0.190 C 
DOCKED: BRANCH  36  37
DOCKED: ATOM     37  O   UNL d   1     -14.804   4.370  10.611 -0.00 +0.02    -0.399 OA
DOCKED: ATOM     38  H   UNL d   1     -14.581   3.518  10.141 +0.02 -0.01    +0.209 HD
DOCKED: ENDBRANCH  36  37
DOCKED: ENDBRANCH  29  36
DOCKED: BRANCH  22  39
DOCKED: ATOM     39  C   UNL d   1     -12.671   0.165   7.398 -0.20 -0.02    +0.052 C 
DOCKED: BRANCH  39  40
DOCKED: ATOM     40  C   UNL d   1     -14.193   0.020   7.233 -0.06 -0.03    +0.115 C 
DOCKED: BRANCH  40  41
DOCKED: ATOM     41  C   UNL d   1     -14.986   1.243   7.642 -0.02 -0.02    +0.139 C 
DOCKED: ATOM     42  O   UNL d   1     -15.714   1.786   6.823 +0.02 +0.06    -0.650 OA
DOCKED: BRANCH  41  43
DOCKED: ATOM     43  O   UNL d   1     -14.979   1.703   8.913 +0.04 +0.08    -0.776 OA
DOCKED: ATOM     44  H   UNL d   1     -14.959   2.645   9.125 +0.01 -0.01    +0.167 HD
DOCKED: ENDBRANCH  41  43
DOCKED: ENDBRANCH  40  41
DOCKED: ENDBRANCH  39  40
DOCKED: ENDBRANCH  22  39
DOCKED: BRANCH  12  45
DOCKED: ATOM     45  C   UNL d   1     -10.296   9.006  13.901 -0.18 +0.00    +0.004 C 
DOCKED: ATOM     46  C   UNL d   1      -9.198   9.537  14.432 -0.19 +0.00    +0.012 C 
DOCKED: ENDBRANCH  12  45
DOCKED: BRANCH  17  47
DOCKED: ATOM     47  C   UNL d   1     -11.800   7.926   6.308 -0.24 -0.00    +0.004 C 
DOCKED: ATOM     48  C   UNL d   1     -11.040   8.783   5.622 -0.29 -0.00    +0.012 C 
DOCKED: ENDBRANCH  17  47
DOCKED: TORSDOF 12
DOCKED: TER
DOCKED: ENDMDL
________________________________________________________________________________


	BEGINNING GENETIC ALGORITHM DOCKING 81 of 100
Run: 81 Seed: 2132136029 1044793818 [ Run 81 of 100 GA/GALS ]
Beginning LAMARCKIAN GENETIC ALGORITHM (LGA), with a maximum of 25000000 energy evaluations.

Final-Value: -11.141


	FINAL GENETIC ALGORITHM DOCKED STATE
	_______________________________________________


Detailed state:  trans 14.420 2.771 8.141 quatxyzw 0.719886 0.323847 0.529266 -0.311069 center 8.781 34.984 -0.736 ntor 12 -112.8068 92.9696 -27.9116 116.8626 51.4615 140.5080 48.8495 174.7163 -116.9258 34.8530 -175.3423 -177.0681
State:	 14.420   2.771   8.141   0.757  0.341  0.557 -143.753   -112.81   92.97  -27.91  116.86   51.46  140.51   48.85  174.72 -116.93   34.85 -175.34 -177.07

DOCKED: MODEL       81
DOCKED: USER    Run = 81
DOCKED: USER    DPF = D:/Protein_go_brrr/autodock/final/mut_N102T/heme_Co/dock.dpf
DOCKED: USER  
DOCKED: USER    Estimated Free Energy of Binding    =   -5.33 kcal/mol  [=(1)+(2)+(3)-(4)]
DOCKED: USER    Estimated Inhibition Constant, Ki   =  123.49 uM (micromolar)  [Temperature = 298.15 K]
DOCKED: USER    
DOCKED: USER    (1) Final Intermolecular Energy     =   -8.91 kcal/mol
DOCKED: USER        vdW + Hbond + desolv Energy     =   -6.19 kcal/mol
DOCKED: USER        Electrostatic Energy            =   -2.72 kcal/mol
DOCKED: USER    (2) Final Total Internal Energy     =   -2.23 kcal/mol
DOCKED: USER    (3) Torsional Free Energy           =   +3.58 kcal/mol
DOCKED: USER    (4) Unbound System's Energy  [=(2)] =   -2.23 kcal/mol
DOCKED: USER    
DOCKED: USER    
DOCKED: USER    NEWDPF move heme_Co_opt.pdbqt
DOCKED: USER    NEWDPF about 8.781000 34.984000 -0.736000
DOCKED: USER    NEWDPF tran0 14.420140 2.770826 8.141335
DOCKED: USER    NEWDPF quaternion0 0.719886 0.323847 0.529266 -0.311069
DOCKED: USER    NEWDPF axisangle0 0.757466 0.340753 0.556895 -143.752669
DOCKED: USER    NEWDPF quat0 0.757466 0.340753 0.556895 -143.752669
DOCKED: USER    NEWDPF dihe0 -112.81 92.97 -27.91 116.86 51.46 140.51 48.85 174.72 -116.93 34.85 -175.34 -177.07 
DOCKED: USER  keepresnum = 1 
DOCKED: USER  
DOCKED: REMARK  12 active torsions:
DOCKED: REMARK  status: ('A' for Active; 'I' for Inactive)
DOCKED: REMARK    1  A    between atoms: C_6  and  C_10 
DOCKED: REMARK    2  A    between atoms: C_10  and  C_11 
DOCKED: REMARK    3  A    between atoms: C_11  and  C_12 
DOCKED: REMARK    4  A    between atoms: C_12  and  O_14 
DOCKED: REMARK    5  A    between atoms: C_17  and  C_20 
DOCKED: REMARK    6  A    between atoms: C_24  and  C_27 
DOCKED: REMARK    7  A    between atoms: C_31  and  C_34 
DOCKED: REMARK    8  A    between atoms: C_34  and  C_35 
DOCKED: REMARK    9  A    between atoms: C_35  and  C_36 
DOCKED: REMARK   10  A    between atoms: C_36  and  O_38 
DOCKED: REMARK   11  A    between atoms: FE_43  and  C_44 
DOCKED: REMARK   12  A    between atoms: C_44  and  O_45 
DOCKED: USER                              x       y       z     vdW  Elec       q    Type
DOCKED: USER                           _______ _______ _______ _____ _____    ______ ____
DOCKED: ROOT
DOCKED: ATOM      1  C   UNL d   1      13.224   1.023   7.661 -0.28 +0.02    +0.064 A 
DOCKED: ATOM      2  C   UNL d   1      16.748   3.219   5.343 -0.13 +0.02    +0.064 C 
DOCKED: ATOM      3  C   UNL d   1      16.843   6.652   8.665 -0.08 +0.01    +0.064 A 
DOCKED: ATOM      4  C   UNL d   1      13.512   4.226  11.250 -0.25 +0.02    +0.064 A 
DOCKED: ATOM      5  C   UNL d   1      14.155   1.390   6.765 -0.22 +0.01    +0.066 A 
DOCKED: ATOM      6  C   UNL d   1      14.483   0.587   5.655 -0.27 -0.00    -0.021 A 
DOCKED: ATOM      7  C   UNL d   1      15.521   1.218   4.999 -0.20 -0.01    -0.025 A 
DOCKED: ATOM      8  C   UNL d   1      15.772   2.386   5.726 -0.16 +0.01    +0.066 A 
DOCKED: ATOM      9  C   UNL d   1      16.260   0.750   3.735 -0.16 +0.01    +0.051 C 
DOCKED: ATOM     10  C   UNL d   1      17.062   4.457   6.013 -0.07 +0.01    +0.066 A 
DOCKED: ATOM     11  C   UNL d   1      17.977   5.441   5.582 -0.04 -0.00    -0.021 A 
DOCKED: ATOM     12  C   UNL d   1      17.982   6.433   6.567 -0.03 +0.00    +0.000 A 
DOCKED: ATOM     13  C   UNL d   1      17.063   5.988   7.517 -0.06 +0.01    +0.070 A 
DOCKED: ATOM     14  C   UNL d   1      18.714   5.459   4.267 -0.05 +0.01    +0.052 C 
DOCKED: ATOM     15  C   UNL d   1      15.974   6.311   9.774 -0.14 +0.01    +0.066 A 
DOCKED: ATOM     16  C   UNL d   1      15.902   6.966  10.995 -0.17 -0.00    -0.021 A 
DOCKED: ATOM     17  C   UNL d   1      14.944   6.268  11.745 -0.24 +0.00    +0.000 A 
DOCKED: ATOM     18  C   UNL d   1      14.494   5.249  10.912 -0.24 +0.02    +0.070 A 
DOCKED: ATOM     19  C   UNL d   1      16.714   8.180  11.389 -0.12 +0.01    +0.052 C 
DOCKED: ATOM     20  C   UNL d   1      13.122   3.175  10.489 -0.22 +0.02    +0.066 A 
DOCKED: ATOM     21  C   UNL d   1      12.196   2.236  10.937 -0.30 -0.01    -0.025 A 
DOCKED: ATOM     22  C   UNL d   1      12.071   1.316   9.912 -0.31 -0.01    -0.021 A 
DOCKED: ATOM     23  C   UNL d   1      12.944   1.737   8.885 -0.24 +0.02    +0.066 A 
DOCKED: ATOM     24  C   UNL d   1      11.479   2.204  12.284 -0.33 +0.02    +0.051 C 
DOCKED: ATOM     25  N   UNL d   1      14.937   2.522   6.822 -0.05 -0.05    -0.248 N 
DOCKED: ATOM     26  N   UNL d   1      16.466   4.821   7.154 -0.05 -0.04    -0.248 N 
DOCKED: ATOM     27  N   UNL d   1      15.150   5.287   9.758 -0.07 -0.04    -0.248 N 
DOCKED: ATOM     28  N   UNL d   1      13.583   2.860   9.232 +0.18 -0.06    -0.248 N 
DOCKED: ATOM     29 FE   UNL d   1      15.047   3.985   8.379 -0.04 +0.00    +0.000 Fe
DOCKED: ENDROOT
DOCKED: BRANCH   6  30
DOCKED: ATOM     30  C   UNL d   1      13.873  -0.765   5.299 -0.00 +0.02    +0.052 C 
DOCKED: BRANCH  30  31
DOCKED: ATOM     31  C   UNL d   1      14.680  -1.901   5.928 -0.14 +0.05    +0.115 C 
DOCKED: BRANCH  31  32
DOCKED: ATOM     32  C   UNL d   1      14.703  -1.825   7.439 -0.12 +0.08    +0.139 C 
DOCKED: ATOM     33  O   UNL d   1      15.481  -1.062   7.991 +0.02 -0.22    -0.650 OA
DOCKED: BRANCH  32  34
DOCKED: ATOM     34  O   UNL d   1      13.851  -2.544   8.207 -0.33 -0.95    -0.776 OA
DOCKED: ATOM     35  H   UNL d   1      13.188  -2.156   8.794 +0.02 +0.24    +0.167 HD
DOCKED: ENDBRANCH  32  34
DOCKED: ENDBRANCH  31  32
DOCKED: ENDBRANCH  30  31
DOCKED: ENDBRANCH   6  30
DOCKED: BRANCH  29  36
DOCKED: ATOM     36  C   UNL d   1      16.519   2.777   9.256 -0.04 +0.03    +0.190 C 
DOCKED: BRANCH  36  37
DOCKED: ATOM     37  O   UNL d   1      17.081   1.497   9.213 -0.00 -0.06    -0.399 OA
DOCKED: ATOM     38  H   UNL d   1      16.391   0.929   8.768 +0.02 +0.04    +0.209 HD
DOCKED: ENDBRANCH  36  37
DOCKED: ENDBRANCH  29  36
DOCKED: BRANCH  22  39
DOCKED: ATOM     39  C   UNL d   1      11.209   0.069   9.949 -0.29 +0.03    +0.052 C 
DOCKED: BRANCH  39  40
DOCKED: ATOM     40  C   UNL d   1      11.865  -1.019  10.816 -0.15 +0.07    +0.115 C 
DOCKED: BRANCH  40  41
DOCKED: ATOM     41  C   UNL d   1      11.529  -2.436  10.402 +0.02 +0.18    +0.139 C 
DOCKED: ATOM     42  O   UNL d   1      10.364  -2.733  10.177 -0.33 -1.00    -0.650 OA
DOCKED: BRANCH  41  43
DOCKED: ATOM     43  O   UNL d   1      12.491  -3.361  10.189 -0.12 -1.46    -0.776 OA
DOCKED: ATOM     44  H   UNL d   1      13.405  -3.122   9.990 +0.01 +0.23    +0.167 HD
DOCKED: ENDBRANCH  41  43
DOCKED: ENDBRANCH  40  41
DOCKED: ENDBRANCH  39  40
DOCKED: ENDBRANCH  22  39
DOCKED: BRANCH  12  45
DOCKED: ATOM     45  C   UNL d   1      18.731   7.751   6.710 -0.01 +0.00    +0.004 C 
DOCKED: ATOM     46  C   UNL d   1      18.301   9.006   6.616 -0.02 +0.00    +0.012 C 
DOCKED: ENDBRANCH  12  45
DOCKED: BRANCH  17  47
DOCKED: ATOM     47  C   UNL d   1      14.497   6.480  13.154 -0.19 +0.00    +0.004 C 
DOCKED: ATOM     48  C   UNL d   1      14.497   7.671  13.757 -0.23 +0.01    +0.012 C 
DOCKED: ENDBRANCH  17  47
DOCKED: TORSDOF 12
DOCKED: TER
DOCKED: ENDMDL
________________________________________________________________________________


	BEGINNING GENETIC ALGORITHM DOCKING 82 of 100
Run: 82 Seed: 1270988616 1595405589 [ Run 82 of 100 GA/GALS ]
Beginning LAMARCKIAN GENETIC ALGORITHM (LGA), with a maximum of 25000000 energy evaluations.

Final-Value: -10.319


	FINAL GENETIC ALGORITHM DOCKED STATE
	_______________________________________________


Detailed state:  trans 14.411 2.177 7.792 quatxyzw -0.728211 -0.310715 -0.536417 0.292270 center 8.781 34.984 -0.736 ntor 12 173.5766 123.8076 -153.2508 119.6855 -94.4898 89.3641 -113.8915 96.4826 -103.1209 141.2679 172.1360 180.0000
State:	 14.411   2.177   7.792  -0.761 -0.325 -0.561 146.012    173.58  123.81 -153.25  119.69  -94.49   89.36 -113.89   96.48 -103.12  141.27  172.14  180.00

DOCKED: MODEL       82
DOCKED: USER    Run = 82
DOCKED: USER    DPF = D:/Protein_go_brrr/autodock/final/mut_N102T/heme_Co/dock.dpf
DOCKED: USER  
DOCKED: USER    Estimated Free Energy of Binding    =   -3.81 kcal/mol  [=(1)+(2)+(3)-(4)]
DOCKED: USER    Estimated Inhibition Constant, Ki   =    1.61 mM (millimolar)  [Temperature = 298.15 K]
DOCKED: USER    
DOCKED: USER    (1) Final Intermolecular Energy     =   -7.39 kcal/mol
DOCKED: USER        vdW + Hbond + desolv Energy     =   -5.91 kcal/mol
DOCKED: USER        Electrostatic Energy            =   -1.48 kcal/mol
DOCKED: USER    (2) Final Total Internal Energy     =   -2.93 kcal/mol
DOCKED: USER    (3) Torsional Free Energy           =   +3.58 kcal/mol
DOCKED: USER    (4) Unbound System's Energy  [=(2)] =   -2.93 kcal/mol
DOCKED: USER    
DOCKED: USER    
DOCKED: USER    NEWDPF move heme_Co_opt.pdbqt
DOCKED: USER    NEWDPF about 8.781000 34.984000 -0.736000
DOCKED: USER    NEWDPF tran0 14.411010 2.176688 7.792246
DOCKED: USER    NEWDPF quaternion0 -0.728211 -0.310715 -0.536417 0.292270
DOCKED: USER    NEWDPF axisangle0 -0.761460 -0.324902 -0.560908 146.012239
DOCKED: USER    NEWDPF quat0 -0.761460 -0.324902 -0.560908 146.012239
DOCKED: USER    NEWDPF dihe0 173.58 123.81 -153.25 119.69 -94.49 89.36 -113.89 96.48 -103.12 141.27 172.14 180.00 
DOCKED: USER  keepresnum = 1 
DOCKED: USER  
DOCKED: REMARK  12 active torsions:
DOCKED: REMARK  status: ('A' for Active; 'I' for Inactive)
DOCKED: REMARK    1  A    between atoms: C_6  and  C_10 
DOCKED: REMARK    2  A    between atoms: C_10  and  C_11 
DOCKED: REMARK    3  A    between atoms: C_11  and  C_12 
DOCKED: REMARK    4  A    between atoms: C_12  and  O_14 
DOCKED: REMARK    5  A    between atoms: C_17  and  C_20 
DOCKED: REMARK    6  A    between atoms: C_24  and  C_27 
DOCKED: REMARK    7  A    between atoms: C_31  and  C_34 
DOCKED: REMARK    8  A    between atoms: C_34  and  C_35 
DOCKED: REMARK    9  A    between atoms: C_35  and  C_36 
DOCKED: REMARK   10  A    between atoms: C_36  and  O_38 
DOCKED: REMARK   11  A    between atoms: FE_43  and  C_44 
DOCKED: REMARK   12  A    between atoms: C_44  and  O_45 
DOCKED: USER                              x       y       z     vdW  Elec       q    Type
DOCKED: USER                           _______ _______ _______ _____ _____    ______ ____
DOCKED: ROOT
DOCKED: ATOM      1  C   UNL d   1      13.214   0.455   7.226 -0.28 +0.02    +0.064 A 
DOCKED: ATOM      2  C   UNL d   1      16.732   2.767   5.015 -0.14 +0.02    +0.064 C 
DOCKED: ATOM      3  C   UNL d   1      16.836   6.027   8.506 -0.07 +0.01    +0.064 A 
DOCKED: ATOM      4  C   UNL d   1      13.511   3.472  10.973 -0.22 +0.02    +0.064 A 
DOCKED: ATOM      5  C   UNL d   1      14.143   0.868   6.348 -0.26 +0.01    +0.066 A 
DOCKED: ATOM      6  C   UNL d   1      14.467   0.122   5.198 -0.27 -0.01    -0.021 A 
DOCKED: ATOM      7  C   UNL d   1      15.504   0.785   4.572 -0.20 -0.01    -0.025 A 
DOCKED: ATOM      8  C   UNL d   1      15.757   1.915   5.357 -0.17 +0.01    +0.066 A 
DOCKED: ATOM      9  C   UNL d   1      16.240   0.383   3.285 -0.15 +0.01    +0.051 C 
DOCKED: ATOM     10  C   UNL d   1      17.047   3.969   5.746 -0.08 +0.01    +0.066 A 
DOCKED: ATOM     11  C   UNL d   1      17.962   4.974   5.363 -0.05 -0.00    -0.021 A 
DOCKED: ATOM     12  C   UNL d   1      17.969   5.914   6.397 -0.03 +0.00    +0.000 A 
DOCKED: ATOM     13  C   UNL d   1      17.052   5.421   7.325 -0.06 +0.01    +0.070 A 
DOCKED: ATOM     14  C   UNL d   1      18.696   5.059   4.049 -0.06 +0.02    +0.052 C 
DOCKED: ATOM     15  C   UNL d   1      15.969   5.630   9.598 -0.11 +0.01    +0.066 A 
DOCKED: ATOM     16  C   UNL d   1      15.900   6.222  10.852 -0.14 -0.00    -0.021 A 
DOCKED: ATOM     17  C   UNL d   1      14.944   5.487  11.567 -0.21 +0.00    +0.000 A 
DOCKED: ATOM     18  C   UNL d   1      14.491   4.511  10.685 -0.17 +0.02    +0.070 A 
DOCKED: ATOM     19  C   UNL d   1      16.713   7.414  11.304 -0.11 +0.01    +0.052 C 
DOCKED: ATOM     20  C   UNL d   1      13.119   2.461  10.160 -0.21 +0.02    +0.066 A 
DOCKED: ATOM     21  C   UNL d   1      12.194   1.500  10.563 -0.25 -0.01    -0.025 A 
DOCKED: ATOM     22  C   UNL d   1      12.067   0.634   9.492 -0.30 -0.01    -0.021 A 
DOCKED: ATOM     23  C   UNL d   1      12.937   1.106   8.487 -0.28 +0.02    +0.066 A 
DOCKED: ATOM     24  C   UNL d   1      11.481   1.400  11.908 -0.26 +0.02    +0.051 C 
DOCKED: ATOM     25  N   UNL d   1      14.924   1.995   6.460 -0.13 -0.05    -0.248 N 
DOCKED: ATOM     26  N   UNL d   1      16.454   4.275   6.905 -0.05 -0.04    -0.248 N 
DOCKED: ATOM     27  N   UNL d   1      15.145   4.608   9.533 -0.01 -0.05    -0.248 N 
DOCKED: ATOM     28  N   UNL d   1      13.577   2.211   8.888 -0.12 -0.06    -0.248 N 
DOCKED: ATOM     29 FE   UNL d   1      15.038   3.377   8.089 -0.05 +0.00    +0.000 Fe
DOCKED: ENDROOT
DOCKED: BRANCH   6  30
DOCKED: ATOM     30  C   UNL d   1      13.857  -1.211   4.776 +0.18 +0.02    +0.052 C 
DOCKED: BRANCH  30  31
DOCKED: ATOM     31  C   UNL d   1      14.819  -2.361   5.072 -0.14 +0.04    +0.115 C 
DOCKED: BRANCH  31  32
DOCKED: ATOM     32  C   UNL d   1      14.877  -2.699   6.546 -0.10 +0.08    +0.139 C 
DOCKED: ATOM     33  O   UNL d   1      14.507  -3.800   6.926 -0.05 -0.55    -0.650 OA
DOCKED: BRANCH  32  34
DOCKED: ATOM     34  O   UNL d   1      15.375  -1.835   7.461 +0.02 -0.33    -0.776 OA
DOCKED: ATOM     35  H   UNL d   1      15.296  -1.951   8.418 +0.02 +0.08    +0.167 HD
DOCKED: ENDBRANCH  32  34
DOCKED: ENDBRANCH  31  32
DOCKED: ENDBRANCH  30  31
DOCKED: ENDBRANCH   6  30
DOCKED: BRANCH  29  36
DOCKED: ATOM     36  C   UNL d   1      16.512   2.126   8.900 -0.03 +0.03    +0.190 C 
DOCKED: BRANCH  36  37
DOCKED: ATOM     37  O   UNL d   1      16.722   0.849   9.430 +0.00 -0.07    -0.399 OA
DOCKED: ATOM     38  H   UNL d   1      15.882   0.348   9.231 +0.02 +0.05    +0.209 HD
DOCKED: ENDBRANCH  36  37
DOCKED: ENDBRANCH  29  36
DOCKED: BRANCH  22  39
DOCKED: ATOM     39  C   UNL d   1      11.205  -0.614   9.469 -0.25 +0.04    +0.052 C 
DOCKED: BRANCH  39  40
DOCKED: ATOM     40  C   UNL d   1      11.896  -1.766  10.216 -0.16 +0.12    +0.115 C 
DOCKED: BRANCH  40  41
DOCKED: ATOM     41  C   UNL d   1      13.368  -1.923   9.898 -0.08 +0.12    +0.139 C 
DOCKED: ATOM     42  O   UNL d   1      13.785  -3.005   9.510 -0.59 -0.83    -0.650 OA
DOCKED: BRANCH  41  43
DOCKED: ATOM     43  O   UNL d   1      14.221  -0.875   9.947 +0.05 -0.34    -0.776 OA
DOCKED: ATOM     44  H   UNL d   1      14.979  -0.794   9.353 +0.03 +0.06    +0.167 HD
DOCKED: ENDBRANCH  41  43
DOCKED: ENDBRANCH  40  41
DOCKED: ENDBRANCH  39  40
DOCKED: ENDBRANCH  22  39
DOCKED: BRANCH  12  45
DOCKED: ATOM     45  C   UNL d   1      18.719   7.224   6.604 -0.01 +0.00    +0.004 C 
DOCKED: ATOM     46  C   UNL d   1      18.279   8.479   6.625 -0.02 +0.00    +0.012 C 
DOCKED: ENDBRANCH  12  45
DOCKED: BRANCH  17  47
DOCKED: ATOM     47  C   UNL d   1      14.500   5.626  12.987 -0.20 +0.00    +0.004 C 
DOCKED: ATOM     48  C   UNL d   1      14.681   4.680  13.912 -0.15 +0.01    +0.012 C 
DOCKED: ENDBRANCH  17  47
DOCKED: TORSDOF 12
DOCKED: TER
DOCKED: ENDMDL
________________________________________________________________________________


	BEGINNING GENETIC ALGORITHM DOCKING 83 of 100
Run: 83 Seed: 225130412 1085710498 [ Run 83 of 100 GA/GALS ]
Beginning LAMARCKIAN GENETIC ALGORITHM (LGA), with a maximum of 25000000 energy evaluations.

Final-Value: -10.589


	FINAL GENETIC ALGORITHM DOCKED STATE
	_______________________________________________


Detailed state:  trans 13.444 -6.496 6.054 quatxyzw 0.561981 0.606008 -0.418551 -0.376492 center 8.781 34.984 -0.736 ntor 12 21.1741 121.3299 -179.9626 40.4279 111.1500 132.4262 -151.1203 123.9819 180.0000 -108.9541 -3.6104 -14.3390
State:	 13.444  -6.496   6.054   0.607  0.654 -0.452 -135.767     21.17  121.33 -179.96   40.43  111.15  132.43 -151.12  123.98  180.00 -108.95   -3.61  -14.34

DOCKED: MODEL       83
DOCKED: USER    Run = 83
DOCKED: USER    DPF = D:/Protein_go_brrr/autodock/final/mut_N102T/heme_Co/dock.dpf
DOCKED: USER  
DOCKED: USER    Estimated Free Energy of Binding    =   -4.84 kcal/mol  [=(1)+(2)+(3)-(4)]
DOCKED: USER    Estimated Inhibition Constant, Ki   =  284.27 uM (micromolar)  [Temperature = 298.15 K]
DOCKED: USER    
DOCKED: USER    (1) Final Intermolecular Energy     =   -8.42 kcal/mol
DOCKED: USER        vdW + Hbond + desolv Energy     =   -5.40 kcal/mol
DOCKED: USER        Electrostatic Energy            =   -3.01 kcal/mol
DOCKED: USER    (2) Final Total Internal Energy     =   -2.17 kcal/mol
DOCKED: USER    (3) Torsional Free Energy           =   +3.58 kcal/mol
DOCKED: USER    (4) Unbound System's Energy  [=(2)] =   -2.17 kcal/mol
DOCKED: USER    
DOCKED: USER    
DOCKED: USER    NEWDPF move heme_Co_opt.pdbqt
DOCKED: USER    NEWDPF about 8.781000 34.984000 -0.736000
DOCKED: USER    NEWDPF tran0 13.443829 -6.496007 6.054315
DOCKED: USER    NEWDPF quaternion0 0.561981 0.606008 -0.418551 -0.376492
DOCKED: USER    NEWDPF axisangle0 0.606616 0.654140 -0.451794 -135.766896
DOCKED: USER    NEWDPF quat0 0.606616 0.654140 -0.451794 -135.766896
DOCKED: USER    NEWDPF dihe0 21.17 121.33 -179.96 40.43 111.15 132.43 -151.12 123.98 180.00 -108.95 -3.61 -14.34 
DOCKED: USER  keepresnum = 1 
DOCKED: USER  
DOCKED: REMARK  12 active torsions:
DOCKED: REMARK  status: ('A' for Active; 'I' for Inactive)
DOCKED: REMARK    1  A    between atoms: C_6  and  C_10 
DOCKED: REMARK    2  A    between atoms: C_10  and  C_11 
DOCKED: REMARK    3  A    between atoms: C_11  and  C_12 
DOCKED: REMARK    4  A    between atoms: C_12  and  O_14 
DOCKED: REMARK    5  A    between atoms: C_17  and  C_20 
DOCKED: REMARK    6  A    between atoms: C_24  and  C_27 
DOCKED: REMARK    7  A    between atoms: C_31  and  C_34 
DOCKED: REMARK    8  A    between atoms: C_34  and  C_35 
DOCKED: REMARK    9  A    between atoms: C_35  and  C_36 
DOCKED: REMARK   10  A    between atoms: C_36  and  O_38 
DOCKED: REMARK   11  A    between atoms: FE_43  and  C_44 
DOCKED: REMARK   12  A    between atoms: C_44  and  O_45 
DOCKED: USER                              x       y       z     vdW  Elec       q    Type
DOCKED: USER                           _______ _______ _______ _____ _____    ______ ____
DOCKED: ROOT
DOCKED: ATOM      1  C   UNL d   1      14.117  -6.404   8.117 -0.06 +0.05    +0.064 A 
DOCKED: ATOM      2  C   UNL d   1      11.307  -9.467   5.806 -0.13 +0.01    +0.064 C 
DOCKED: ATOM      3  C   UNL d   1      11.520  -6.756   1.878 -0.19 -0.02    +0.064 A 
DOCKED: ATOM      4  C   UNL d   1      14.700  -3.817   4.094 -0.11 +0.02    +0.064 A 
DOCKED: ATOM      5  C   UNL d   1      13.305  -7.421   7.785 -0.07 +0.05    +0.066 A 
DOCKED: ATOM      6  C   UNL d   1      13.044  -8.488   8.668 -0.06 -0.01    -0.021 A 
DOCKED: ATOM      7  C   UNL d   1      12.247  -9.385   7.984 -0.07 -0.01    -0.025 A 
DOCKED: ATOM      8  C   UNL d   1      12.041  -8.820   6.721 -0.08 +0.02    +0.066 A 
DOCKED: ATOM      9  C   UNL d   1      11.692 -10.726   8.487 -0.11 +0.01    +0.051 C 
DOCKED: ATOM     10  C   UNL d   1      11.020  -8.952   4.491 -0.11 +0.01    +0.066 A 
DOCKED: ATOM     11  C   UNL d   1      10.144  -9.515   3.537 -0.20 -0.00    -0.021 A 
DOCKED: ATOM     12  C   UNL d   1      10.222  -8.702   2.403 -0.22 -0.00    +0.000 A 
DOCKED: ATOM     13  C   UNL d   1      11.128  -7.700   2.751 -0.14 -0.01    +0.070 A 
DOCKED: ATOM     14  C   UNL d   1       9.231 -10.694   3.752 -0.37 +0.00    +0.052 C 
DOCKED: ATOM     15  C   UNL d   1      12.480  -5.683   2.051 -0.18 -0.01    +0.066 A 
DOCKED: ATOM     16  C   UNL d   1      12.948  -4.829   1.063 -0.23 +0.01    -0.021 A 
DOCKED: ATOM     17  C   UNL d   1      13.868  -3.982   1.696 -0.17 -0.00    +0.000 A 
DOCKED: ATOM     18  C   UNL d   1      13.875  -4.375   3.030 -0.13 +0.01    +0.070 A 
DOCKED: ATOM     19  C   UNL d   1      12.523  -4.852  -0.389 -0.13 -0.04    +0.052 C 
DOCKED: ATOM     20  C   UNL d   1      14.788  -4.239   5.378 -0.10 +0.03    +0.066 A 
DOCKED: ATOM     21  C   UNL d   1      15.646  -3.643   6.299 -0.08 -0.01    -0.025 A 
DOCKED: ATOM     22  C   UNL d   1      15.478  -4.350   7.476 -0.07 -0.01    -0.021 A 
DOCKED: ATOM     23  C   UNL d   1      14.527  -5.358   7.208 -0.08 +0.05    +0.066 A 
DOCKED: ATOM     24  C   UNL d   1      16.595  -2.471   6.066 -0.04 +0.01    +0.051 C 
DOCKED: ATOM     25  N   UNL d   1      12.680  -7.601   6.572 -0.07 -0.15    -0.248 N 
DOCKED: ATOM     26  N   UNL d   1      11.567  -7.820   4.033 -0.05 -0.03    -0.248 N 
DOCKED: ATOM     27  N   UNL d   1      13.060  -5.411   3.199 -0.09 -0.03    -0.248 N 
DOCKED: ATOM     28  N   UNL d   1      14.109  -5.296   5.939 -0.03 -0.17    -0.248 N 
DOCKED: ATOM     29 FE   UNL d   1      12.883  -6.438   4.787 -0.03 +0.00    +0.000 Fe
DOCKED: ENDROOT
DOCKED: BRANCH   6  30
DOCKED: ATOM     30  C   UNL d   1      13.610  -8.665  10.073 -0.02 +0.02    +0.052 C 
DOCKED: BRANCH  30  31
DOCKED: ATOM     31  C   UNL d   1      12.825  -7.821  11.078 -0.04 +0.05    +0.115 C 
DOCKED: BRANCH  31  32
DOCKED: ATOM     32  C   UNL d   1      11.735  -7.004  10.419 -0.10 +0.12    +0.139 C 
DOCKED: ATOM     33  O   UNL d   1      10.680  -7.542  10.118 -0.06 -0.48    -0.650 OA
DOCKED: BRANCH  32  34
DOCKED: ATOM     34  O   UNL d   1      11.870  -5.676  10.192 +0.14 -1.36    -0.776 OA
DOCKED: ATOM     35  H   UNL d   1      12.715  -5.206  10.204 +0.00 +0.27    +0.167 HD
DOCKED: ENDBRANCH  32  34
DOCKED: ENDBRANCH  31  32
DOCKED: ENDBRANCH  30  31
DOCKED: ENDBRANCH   6  30
DOCKED: BRANCH  29  36
DOCKED: ATOM     36  C   UNL d   1      14.485  -7.694   4.286 -0.01 +0.02    +0.190 C 
DOCKED: BRANCH  36  37
DOCKED: ATOM     37  O   UNL d   1      15.433  -8.563   4.835 +0.00 -0.03    -0.399 OA
DOCKED: ATOM     38  H   UNL d   1      15.166  -8.663   5.791 +0.01 +0.03    +0.209 HD
DOCKED: ENDBRANCH  36  37
DOCKED: ENDBRANCH  29  36
DOCKED: BRANCH  22  39
DOCKED: ATOM     39  C   UNL d   1      16.241  -4.107   8.765 -0.03 +0.02    +0.052 C 
DOCKED: BRANCH  39  40
DOCKED: ATOM     40  C   UNL d   1      15.543  -3.032   9.614 -0.04 +0.05    +0.115 C 
DOCKED: BRANCH  40  41
DOCKED: ATOM     41  C   UNL d   1      14.176  -3.432  10.128 -0.05 +0.12    +0.139 C 
DOCKED: ATOM     42  O   UNL d   1      13.178  -3.060   9.526 -0.49 -1.25    -0.650 OA
DOCKED: BRANCH  41  43
DOCKED: ATOM     43  O   UNL d   1      14.029  -4.262  11.184 -0.01 -0.49    -0.776 OA
DOCKED: ATOM     44  H   UNL d   1      13.167  -4.597  11.465 +0.01 +0.12    +0.167 HD
DOCKED: ENDBRANCH  41  43
DOCKED: ENDBRANCH  40  41
DOCKED: ENDBRANCH  39  40
DOCKED: ENDBRANCH  22  39
DOCKED: BRANCH  12  45
DOCKED: ATOM     45  C   UNL d   1       9.535  -8.746   1.045 -0.38 -0.00    +0.004 C 
DOCKED: ATOM     46  C   UNL d   1       8.323  -9.172   0.701 -0.52 -0.00    +0.012 C 
DOCKED: ENDBRANCH  12  45
DOCKED: BRANCH  17  47
DOCKED: ATOM     47  C   UNL d   1      14.730  -2.908   1.119 -0.15 -0.00    +0.004 C 
DOCKED: ATOM     48  C   UNL d   1      14.345  -1.634   1.006 -0.27 +0.00    +0.012 C 
DOCKED: ENDBRANCH  17  47
DOCKED: TORSDOF 12
DOCKED: TER
DOCKED: ENDMDL
________________________________________________________________________________


	BEGINNING GENETIC ALGORITHM DOCKING 84 of 100
Run: 84 Seed: 1097431226 1423325401 [ Run 84 of 100 GA/GALS ]
Beginning LAMARCKIAN GENETIC ALGORITHM (LGA), with a maximum of 25000000 energy evaluations.

Final-Value: -10.105


	FINAL GENETIC ALGORITHM DOCKED STATE
	_______________________________________________


Detailed state:  trans -5.399 16.416 -18.824 quatxyzw 0.369932 -0.635379 0.304761 -0.605446 center 8.781 34.984 -0.736 ntor 12 36.0755 113.5836 -62.1574 -127.0918 -88.1490 152.0114 -140.8412 119.6978 135.5833 -124.1097 21.8324 -22.3495
State:	 -5.399  16.416 -18.824   0.465 -0.798  0.383 -105.478     36.08  113.58  -62.16 -127.09  -88.15  152.01 -140.84  119.70  135.58 -124.11   21.83  -22.35

DOCKED: MODEL       84
DOCKED: USER    Run = 84
DOCKED: USER    DPF = D:/Protein_go_brrr/autodock/final/mut_N102T/heme_Co/dock.dpf
DOCKED: USER  
DOCKED: USER    Estimated Free Energy of Binding    =   -4.84 kcal/mol  [=(1)+(2)+(3)-(4)]
DOCKED: USER    Estimated Inhibition Constant, Ki   =  282.29 uM (micromolar)  [Temperature = 298.15 K]
DOCKED: USER    
DOCKED: USER    (1) Final Intermolecular Energy     =   -8.42 kcal/mol
DOCKED: USER        vdW + Hbond + desolv Energy     =   -5.31 kcal/mol
DOCKED: USER        Electrostatic Energy            =   -3.11 kcal/mol
DOCKED: USER    (2) Final Total Internal Energy     =   -1.68 kcal/mol
DOCKED: USER    (3) Torsional Free Energy           =   +3.58 kcal/mol
DOCKED: USER    (4) Unbound System's Energy  [=(2)] =   -1.68 kcal/mol
DOCKED: USER    
DOCKED: USER    
DOCKED: USER    NEWDPF move heme_Co_opt.pdbqt
DOCKED: USER    NEWDPF about 8.781000 34.984000 -0.736000
DOCKED: USER    NEWDPF tran0 -5.398657 16.416378 -18.823518
DOCKED: USER    NEWDPF quaternion0 0.369932 -0.635379 0.304761 -0.605446
DOCKED: USER    NEWDPF axisangle0 0.464805 -0.798328 0.382921 -105.478077
DOCKED: USER    NEWDPF quat0 0.464805 -0.798328 0.382921 -105.478077
DOCKED: USER    NEWDPF dihe0 36.08 113.58 -62.16 -127.09 -88.15 152.01 -140.84 119.70 135.58 -124.11 21.83 -22.35 
DOCKED: USER  keepresnum = 1 
DOCKED: USER  
DOCKED: REMARK  12 active torsions:
DOCKED: REMARK  status: ('A' for Active; 'I' for Inactive)
DOCKED: REMARK    1  A    between atoms: C_6  and  C_10 
DOCKED: REMARK    2  A    between atoms: C_10  and  C_11 
DOCKED: REMARK    3  A    between atoms: C_11  and  C_12 
DOCKED: REMARK    4  A    between atoms: C_12  and  O_14 
DOCKED: REMARK    5  A    between atoms: C_17  and  C_20 
DOCKED: REMARK    6  A    between atoms: C_24  and  C_27 
DOCKED: REMARK    7  A    between atoms: C_31  and  C_34 
DOCKED: REMARK    8  A    between atoms: C_34  and  C_35 
DOCKED: REMARK    9  A    between atoms: C_35  and  C_36 
DOCKED: REMARK   10  A    between atoms: C_36  and  O_38 
DOCKED: REMARK   11  A    between atoms: FE_43  and  C_44 
DOCKED: REMARK   12  A    between atoms: C_44  and  O_45 
DOCKED: USER                              x       y       z     vdW  Elec       q    Type
DOCKED: USER                           _______ _______ _______ _____ _____    ______ ____
DOCKED: ROOT
DOCKED: ATOM      1  C   UNL d   1      -5.368  17.592 -20.649 -0.08 +0.04    +0.064 A 
DOCKED: ATOM      2  C   UNL d   1      -5.159  12.907 -19.861 -0.17 +0.01    +0.064 C 
DOCKED: ATOM      3  C   UNL d   1      -5.032  13.668 -15.146 -0.17 +0.00    +0.064 A 
DOCKED: ATOM      4  C   UNL d   1      -5.634  18.434 -15.912 -0.02 +0.01    +0.064 A 
DOCKED: ATOM      5  C   UNL d   1      -5.284  16.258 -20.781 -0.10 +0.04    +0.066 A 
DOCKED: ATOM      6  C   UNL d   1      -5.362  15.624 -22.037 -0.07 -0.01    -0.021 A 
DOCKED: ATOM      7  C   UNL d   1      -5.323  14.264 -21.801 -0.07 -0.01    -0.025 A 
DOCKED: ATOM      8  C   UNL d   1      -5.207  14.126 -20.413 -0.12 +0.02    +0.066 A 
DOCKED: ATOM      9  C   UNL d   1      -5.393  13.126 -22.831 -0.04 +0.01    +0.051 C 
DOCKED: ATOM     10  C   UNL d   1      -5.014  12.667 -18.447 -0.20 +0.01    +0.066 A 
DOCKED: ATOM     11  C   UNL d   1      -4.816  11.417 -17.820 -0.35 -0.00    -0.021 A 
DOCKED: ATOM     12  C   UNL d   1      -4.779  11.669 -16.445 -0.37 -0.00    +0.000 A 
DOCKED: ATOM     13  C   UNL d   1      -4.943  13.050 -16.337 -0.22 +0.00    +0.070 A 
DOCKED: ATOM     14  C   UNL d   1      -4.585  10.098 -18.511 -0.35 +0.00    +0.052 C 
DOCKED: ATOM     15  C   UNL d   1      -5.253  15.070 -14.851 -0.08 +0.01    +0.066 A 
DOCKED: ATOM     16  C   UNL d   1      -5.480  15.622 -13.598 -0.04 -0.00    -0.021 A 
DOCKED: ATOM     17  C   UNL d   1      -5.657  16.996 -13.814 -0.02 +0.00    +0.000 A 
DOCKED: ATOM     18  C   UNL d   1      -5.506  17.177 -15.185 -0.03 +0.01    +0.070 A 
DOCKED: ATOM     19  C   UNL d   1      -5.521  14.854 -12.296 -0.05 +0.00    +0.052 C 
DOCKED: ATOM     20  C   UNL d   1      -5.578  18.621 -17.252 -0.04 +0.02    +0.066 A 
DOCKED: ATOM     21  C   UNL d   1      -5.752  19.873 -17.837 -0.03 -0.01    -0.025 A 
DOCKED: ATOM     22  C   UNL d   1      -5.652  19.666 -19.200 -0.05 -0.01    -0.021 A 
DOCKED: ATOM     23  C   UNL d   1      -5.431  18.284 -19.382 -0.06 +0.04    +0.066 A 
DOCKED: ATOM     24  C   UNL d   1      -6.021  21.200 -17.132 -0.00 +0.01    +0.051 C 
DOCKED: ATOM     25  N   UNL d   1      -5.175  15.345 -19.757 -0.09 -0.12    -0.248 N 
DOCKED: ATOM     26  N   UNL d   1      -5.029  13.658 -17.550 -0.13 -0.05    -0.248 N 
DOCKED: ATOM     27  N   UNL d   1      -5.297  16.005 -15.774 -0.04 -0.04    -0.248 N 
DOCKED: ATOM     28  N   UNL d   1      -5.388  17.647 -18.206 -0.06 -0.12    -0.248 N 
DOCKED: ATOM     29 FE   UNL d   1      -5.239  15.698 -17.648 -0.02 +0.00    +0.000 Fe
DOCKED: ENDROOT
DOCKED: BRANCH   6  30
DOCKED: ATOM     30  C   UNL d   1      -5.548  16.305 -23.389 -0.03 +0.02    +0.052 C 
DOCKED: BRANCH  30  31
DOCKED: ATOM     31  C   UNL d   1      -4.241  16.292 -24.182 -0.03 +0.04    +0.115 C 
DOCKED: BRANCH  31  32
DOCKED: ATOM     32  C   UNL d   1      -3.052  16.710 -23.343 -0.05 +0.13    +0.139 C 
DOCKED: ATOM     33  O   UNL d   1      -2.426  15.863 -22.724 -0.42 -0.69    -0.650 OA
DOCKED: BRANCH  32  34
DOCKED: ATOM     34  O   UNL d   1      -2.626  17.993 -23.291 -0.38 -1.01    -0.776 OA
DOCKED: ATOM     35  H   UNL d   1      -3.207  18.763 -23.370 +0.00 +0.15    +0.167 HD
DOCKED: ENDBRANCH  32  34
DOCKED: ENDBRANCH  31  32
DOCKED: ENDBRANCH  30  31
DOCKED: ENDBRANCH   6  30
DOCKED: BRANCH  29  36
DOCKED: ATOM     36  C   UNL d   1      -7.319  15.475 -17.788 -0.02 +0.03    +0.190 C 
DOCKED: BRANCH  36  37
DOCKED: ATOM     37  O   UNL d   1      -8.358  15.261 -18.700 +0.00 -0.04    -0.399 OA
DOCKED: ATOM     38  H   UNL d   1      -7.909  15.191 -19.589 +0.01 +0.03    +0.209 HD
DOCKED: ENDBRANCH  36  37
DOCKED: ENDBRANCH  29  36
DOCKED: BRANCH  22  39
DOCKED: ATOM     39  C   UNL d   1      -5.824  20.731 -20.267 -0.02 +0.02    +0.052 C 
DOCKED: BRANCH  39  40
DOCKED: ATOM     40  C   UNL d   1      -4.549  21.579 -20.399 -0.02 +0.05    +0.115 C 
DOCKED: BRANCH  40  41
DOCKED: ATOM     41  C   UNL d   1      -3.276  20.773 -20.551 +0.10 +0.16    +0.139 C 
DOCKED: ATOM     42  O   UNL d   1      -2.538  20.633 -19.586 -0.50 -0.91    -0.650 OA
DOCKED: BRANCH  41  43
DOCKED: ATOM     43  O   UNL d   1      -2.975  20.131 -21.701 -0.10 -1.16    -0.776 OA
DOCKED: ATOM     44  H   UNL d   1      -3.570  19.488 -22.108 -0.00 +0.21    +0.167 HD
DOCKED: ENDBRANCH  41  43
DOCKED: ENDBRANCH  40  41
DOCKED: ENDBRANCH  39  40
DOCKED: ENDBRANCH  22  39
DOCKED: BRANCH  12  45
DOCKED: ATOM     45  C   UNL d   1      -4.589  10.771 -15.230 -0.42 -0.00    +0.004 C 
DOCKED: ATOM     46  C   UNL d   1      -5.237  10.737 -14.069 -0.36 -0.00    +0.012 C 
DOCKED: ENDBRANCH  12  45
DOCKED: BRANCH  17  47
DOCKED: ATOM     47  C   UNL d   1      -5.994  18.079 -12.843 -0.01 +0.00    +0.004 C 
DOCKED: ATOM     48  C   UNL d   1      -7.173  18.705 -12.816 +0.00 +0.00    +0.012 C 
DOCKED: ENDBRANCH  17  47
DOCKED: TORSDOF 12
DOCKED: TER
DOCKED: ENDMDL
________________________________________________________________________________


	BEGINNING GENETIC ALGORITHM DOCKING 85 of 100
Run: 85 Seed: 684737062 866961004 [ Run 85 of 100 GA/GALS ]
Beginning LAMARCKIAN GENETIC ALGORITHM (LGA), with a maximum of 25000000 energy evaluations.

Final-Value: -10.507


	FINAL GENETIC ALGORITHM DOCKED STATE
	_______________________________________________


Detailed state:  trans 7.258 -4.923 15.145 quatxyzw -0.164672 -0.378126 -0.729372 -0.545821 center 8.781 34.984 -0.736 ntor 12 -165.9583 128.6176 -132.1888 116.6866 70.7946 128.0783 33.1518 -177.3014 -176.2821 55.0003 -172.7477 44.2250
State:	  7.258  -4.923  15.145  -0.197 -0.451 -0.870 -113.838   -165.96  128.62 -132.19  116.69   70.79  128.08   33.15 -177.30 -176.28   55.00 -172.75   44.22

DOCKED: MODEL       85
DOCKED: USER    Run = 85
DOCKED: USER    DPF = D:/Protein_go_brrr/autodock/final/mut_N102T/heme_Co/dock.dpf
DOCKED: USER  
DOCKED: USER    Estimated Free Energy of Binding    =   -4.84 kcal/mol  [=(1)+(2)+(3)-(4)]
DOCKED: USER    Estimated Inhibition Constant, Ki   =  285.17 uM (micromolar)  [Temperature = 298.15 K]
DOCKED: USER    
DOCKED: USER    (1) Final Intermolecular Energy     =   -8.42 kcal/mol
DOCKED: USER        vdW + Hbond + desolv Energy     =   -6.62 kcal/mol
DOCKED: USER        Electrostatic Energy            =   -1.80 kcal/mol
DOCKED: USER    (2) Final Total Internal Energy     =   -2.09 kcal/mol
DOCKED: USER    (3) Torsional Free Energy           =   +3.58 kcal/mol
DOCKED: USER    (4) Unbound System's Energy  [=(2)] =   -2.09 kcal/mol
DOCKED: USER    
DOCKED: USER    
DOCKED: USER    NEWDPF move heme_Co_opt.pdbqt
DOCKED: USER    NEWDPF about 8.781000 34.984000 -0.736000
DOCKED: USER    NEWDPF tran0 7.258295 -4.922751 15.144651
DOCKED: USER    NEWDPF quaternion0 -0.164672 -0.378126 -0.729372 -0.545821
DOCKED: USER    NEWDPF axisangle0 -0.196529 -0.451277 -0.870474 -113.838473
DOCKED: USER    NEWDPF quat0 -0.196529 -0.451277 -0.870474 -113.838473
DOCKED: USER    NEWDPF dihe0 -165.96 128.62 -132.19 116.69 70.79 128.08 33.15 -177.30 -176.28 55.00 -172.75 44.22 
DOCKED: USER  keepresnum = 1 
DOCKED: USER  
DOCKED: REMARK  12 active torsions:
DOCKED: REMARK  status: ('A' for Active; 'I' for Inactive)
DOCKED: REMARK    1  A    between atoms: C_6  and  C_10 
DOCKED: REMARK    2  A    between atoms: C_10  and  C_11 
DOCKED: REMARK    3  A    between atoms: C_11  and  C_12 
DOCKED: REMARK    4  A    between atoms: C_12  and  O_14 
DOCKED: REMARK    5  A    between atoms: C_17  and  C_20 
DOCKED: REMARK    6  A    between atoms: C_24  and  C_27 
DOCKED: REMARK    7  A    between atoms: C_31  and  C_34 
DOCKED: REMARK    8  A    between atoms: C_34  and  C_35 
DOCKED: REMARK    9  A    between atoms: C_35  and  C_36 
DOCKED: REMARK   10  A    between atoms: C_36  and  O_38 
DOCKED: REMARK   11  A    between atoms: FE_43  and  C_44 
DOCKED: REMARK   12  A    between atoms: C_44  and  O_45 
DOCKED: USER                              x       y       z     vdW  Elec       q    Type
DOCKED: USER                           _______ _______ _______ _____ _____    ______ ____
DOCKED: ROOT
DOCKED: ATOM      1  C   UNL d   1       8.542  -4.304  13.506 -0.10 +0.01    +0.064 A 
DOCKED: ATOM      2  C   UNL d   1       5.007  -2.103  15.803 -0.23 -0.01    +0.064 C 
DOCKED: ATOM      3  C   UNL d   1       4.124  -6.068  18.319 -0.16 -0.01    +0.064 A 
DOCKED: ATOM      4  C   UNL d   1       7.975  -8.215  16.264 -0.21 +0.02    +0.064 A 
DOCKED: ATOM      5  C   UNL d   1       7.617  -3.423  13.923 -0.10 +0.01    +0.066 A 
DOCKED: ATOM      6  C   UNL d   1       7.591  -2.092  13.461 -0.17 -0.00    -0.021 A 
DOCKED: ATOM      7  C   UNL d   1       6.578  -1.452  14.148 -0.26 -0.00    -0.025 A 
DOCKED: ATOM      8  C   UNL d   1       6.019  -2.423  14.987 -0.18 -0.00    +0.066 A 
DOCKED: ATOM      9  C   UNL d   1       6.142   0.016  14.031 -0.46 -0.00    +0.051 C 
DOCKED: ATOM     10  C   UNL d   1       4.352  -3.040  16.681 -0.18 -0.01    +0.066 A 
DOCKED: ATOM     11  C   UNL d   1       3.197  -2.803  17.458 -0.21 +0.00    -0.021 A 
DOCKED: ATOM     12  C   UNL d   1       2.959  -3.977  18.178 -0.16 -0.00    +0.000 A 
DOCKED: ATOM     13  C   UNL d   1       3.977  -4.845  17.780 -0.17 -0.01    +0.070 A 
DOCKED: ATOM     14  C   UNL d   1       2.339  -1.565  17.425 -0.37 -0.02    +0.052 C 
DOCKED: ATOM     15  C   UNL d   1       5.142  -7.068  18.065 -0.10 -0.01    +0.066 A 
DOCKED: ATOM     16  C   UNL d   1       5.322  -8.255  18.762 -0.17 +0.00    -0.021 A 
DOCKED: ATOM     17  C   UNL d   1       6.433  -8.877  18.175 -0.22 +0.00    +0.000 A 
DOCKED: ATOM     18  C   UNL d   1       6.834  -8.025  17.151 -0.23 +0.01    +0.070 A 
DOCKED: ATOM     19  C   UNL d   1       4.467  -8.733  19.915 -0.14 -0.01    +0.052 C 
DOCKED: ATOM     20  C   UNL d   1       8.436  -7.360  15.319 -0.18 +0.01    +0.066 A 
DOCKED: ATOM     21  C   UNL d   1       9.565  -7.638  14.552 -0.14 -0.01    -0.025 A 
DOCKED: ATOM     22  C   UNL d   1       9.736  -6.541  13.728 -0.12 -0.01    -0.021 A 
DOCKED: ATOM     23  C   UNL d   1       8.701  -5.636  14.043 -0.12 +0.01    +0.066 A 
DOCKED: ATOM     24  C   UNL d   1      10.451  -8.880  14.616 -0.14 +0.02    +0.051 C 
DOCKED: ATOM     25  N   UNL d   1       6.640  -3.654  14.864 +0.01 -0.01    -0.248 N 
DOCKED: ATOM     26  N   UNL d   1       4.784  -4.297  16.833 -0.10 +0.02    -0.248 N 
DOCKED: ATOM     27  N   UNL d   1       6.062  -6.944  17.135 -0.15 +0.01    -0.248 N 
DOCKED: ATOM     28  N   UNL d   1       7.913  -6.127  15.007 -0.04 -0.04    -0.248 N 
DOCKED: ATOM     29 FE   UNL d   1       6.336  -5.399  16.064 -0.04 +0.00    +0.000 Fe
DOCKED: ENDROOT
DOCKED: BRANCH   6  30
DOCKED: ATOM     30  C   UNL d   1       8.555  -1.456  12.465 -0.22 +0.01    +0.052 C 
DOCKED: BRANCH  30  31
DOCKED: ATOM     31  C   UNL d   1       9.770  -0.876  13.189 -0.14 +0.03    +0.115 C 
DOCKED: BRANCH  31  32
DOCKED: ATOM     32  C   UNL d   1       9.723  -1.119  14.682 -0.10 +0.03    +0.139 C 
DOCKED: ATOM     33  O   UNL d   1       9.292  -0.246  15.421 -0.31 -0.27    -0.650 OA
DOCKED: BRANCH  32  34
DOCKED: ATOM     34  O   UNL d   1      10.099  -2.299  15.229 +0.04 -0.15    -0.776 OA
DOCKED: ATOM     35  H   UNL d   1       9.956  -2.539  16.155 +0.02 +0.03    +0.167 HD
DOCKED: ENDBRANCH  32  34
DOCKED: ENDBRANCH  31  32
DOCKED: ENDBRANCH  30  31
DOCKED: ENDBRANCH   6  30
DOCKED: BRANCH  29  36
DOCKED: ATOM     36  C   UNL d   1       7.640  -4.530  17.457 -0.05 +0.01    +0.190 C 
DOCKED: BRANCH  36  37
DOCKED: ATOM     37  O   UNL d   1       8.710  -3.637  17.575 -0.00 -0.03    -0.399 OA
DOCKED: ATOM     38  H   UNL d   1       8.722  -3.135  16.712 +0.02 +0.02    +0.209 HD
DOCKED: ENDBRANCH  36  37
DOCKED: ENDBRANCH  29  36
DOCKED: BRANCH  22  39
DOCKED: ATOM     39  C   UNL d   1      10.872  -6.351  12.740 -0.08 +0.02    +0.052 C 
DOCKED: BRANCH  39  40
DOCKED: ATOM     40  C   UNL d   1      10.386  -5.594  11.493 -0.12 +0.08    +0.115 C 
DOCKED: BRANCH  40  41
DOCKED: ATOM     41  C   UNL d   1      10.768  -6.243  10.180 +0.10 +0.19    +0.139 C 
DOCKED: ATOM     42  O   UNL d   1      11.873  -6.753  10.063 -0.20 -0.76    -0.650 OA
DOCKED: BRANCH  41  43
DOCKED: ATOM     43  O   UNL d   1       9.889  -6.351   9.159 -0.07 -1.15    -0.776 OA
DOCKED: ATOM     44  H   UNL d   1       9.686  -7.196   8.736 +0.05 +0.15    +0.167 HD
DOCKED: ENDBRANCH  41  43
DOCKED: ENDBRANCH  40  41
DOCKED: ENDBRANCH  39  40
DOCKED: ENDBRANCH  22  39
DOCKED: BRANCH  12  45
DOCKED: ATOM     45  C   UNL d   1       1.884  -4.383  19.177 -0.13 -0.00    +0.004 C 
DOCKED: ATOM     46  C   UNL d   1       0.864  -5.228  19.056 -0.20 -0.00    +0.012 C 
DOCKED: ENDBRANCH  12  45
DOCKED: BRANCH  17  47
DOCKED: ATOM     47  C   UNL d   1       7.125 -10.145  18.550 -0.19 +0.00    +0.004 C 
DOCKED: ATOM     48  C   UNL d   1       6.486 -11.297  18.767 -0.21 +0.00    +0.012 C 
DOCKED: ENDBRANCH  17  47
DOCKED: TORSDOF 12
DOCKED: TER
DOCKED: ENDMDL
________________________________________________________________________________


	BEGINNING GENETIC ALGORITHM DOCKING 86 of 100
Run: 86 Seed: 1055614659 1359718311 [ Run 86 of 100 GA/GALS ]
Beginning LAMARCKIAN GENETIC ALGORITHM (LGA), with a maximum of 25000000 energy evaluations.

Final-Value: -10.360


	FINAL GENETIC ALGORITHM DOCKED STATE
	_______________________________________________


Detailed state:  trans -7.141 6.579 16.600 quatxyzw 0.179962 0.161757 0.486714 -0.839380 center 8.781 34.984 -0.736 ntor 12 59.9880 127.0657 -135.5388 82.9733 115.6641 100.4667 18.5862 125.5606 -180.0000 140.9469 -176.9381 165.9556
State:	 -7.141   6.579  16.600   0.331  0.298  0.895 -65.851     59.99  127.07 -135.54   82.97  115.66  100.47   18.59  125.56 -180.00  140.95 -176.94  165.96

DOCKED: MODEL       86
DOCKED: USER    Run = 86
DOCKED: USER    DPF = D:/Protein_go_brrr/autodock/final/mut_N102T/heme_Co/dock.dpf
DOCKED: USER  
DOCKED: USER    Estimated Free Energy of Binding    =   -2.88 kcal/mol  [=(1)+(2)+(3)-(4)]
DOCKED: USER    Estimated Inhibition Constant, Ki   =    7.74 mM (millimolar)  [Temperature = 298.15 K]
DOCKED: USER    
DOCKED: USER    (1) Final Intermolecular Energy     =   -6.46 kcal/mol
DOCKED: USER        vdW + Hbond + desolv Energy     =   -6.47 kcal/mol
DOCKED: USER        Electrostatic Energy            =   +0.01 kcal/mol
DOCKED: USER    (2) Final Total Internal Energy     =   -3.90 kcal/mol
DOCKED: USER    (3) Torsional Free Energy           =   +3.58 kcal/mol
DOCKED: USER    (4) Unbound System's Energy  [=(2)] =   -3.90 kcal/mol
DOCKED: USER    
DOCKED: USER    
DOCKED: USER    NEWDPF move heme_Co_opt.pdbqt
DOCKED: USER    NEWDPF about 8.781000 34.984000 -0.736000
DOCKED: USER    NEWDPF tran0 -7.141128 6.578863 16.599878
DOCKED: USER    NEWDPF quaternion0 0.179962 0.161757 0.486714 -0.839380
DOCKED: USER    NEWDPF axisangle0 0.331089 0.297597 0.895442 -65.850667
DOCKED: USER    NEWDPF quat0 0.331089 0.297597 0.895442 -65.850667
DOCKED: USER    NEWDPF dihe0 59.99 127.07 -135.54 82.97 115.66 100.47 18.59 125.56 -180.00 140.95 -176.94 165.96 
DOCKED: USER  keepresnum = 1 
DOCKED: USER  
DOCKED: REMARK  12 active torsions:
DOCKED: REMARK  status: ('A' for Active; 'I' for Inactive)
DOCKED: REMARK    1  A    between atoms: C_6  and  C_10 
DOCKED: REMARK    2  A    between atoms: C_10  and  C_11 
DOCKED: REMARK    3  A    between atoms: C_11  and  C_12 
DOCKED: REMARK    4  A    between atoms: C_12  and  O_14 
DOCKED: REMARK    5  A    between atoms: C_17  and  C_20 
DOCKED: REMARK    6  A    between atoms: C_24  and  C_27 
DOCKED: REMARK    7  A    between atoms: C_31  and  C_34 
DOCKED: REMARK    8  A    between atoms: C_34  and  C_35 
DOCKED: REMARK    9  A    between atoms: C_35  and  C_36 
DOCKED: REMARK   10  A    between atoms: C_36  and  O_38 
DOCKED: REMARK   11  A    between atoms: FE_43  and  C_44 
DOCKED: REMARK   12  A    between atoms: C_44  and  O_45 
DOCKED: USER                              x       y       z     vdW  Elec       q    Type
DOCKED: USER                           _______ _______ _______ _____ _____    ______ ____
DOCKED: ROOT
DOCKED: ATOM      1  C   UNL d   1      -8.816   5.238  16.265 -0.09 +0.01    +0.064 A 
DOCKED: ATOM      2  C   UNL d   1      -4.533   4.573  18.219 -0.20 -0.00    +0.064 C 
DOCKED: ATOM      3  C   UNL d   1      -3.280   9.042  17.086 -0.00 -0.02    +0.064 A 
DOCKED: ATOM      4  C   UNL d   1      -7.779   9.870  15.431 -0.10 -0.00    +0.064 A 
DOCKED: ATOM      5  C   UNL d   1      -7.725   4.717  16.850 -0.20 +0.01    +0.066 A 
DOCKED: ATOM      6  C   UNL d   1      -7.719   3.418  17.396 -0.23 -0.00    -0.021 A 
DOCKED: ATOM      7  C   UNL d   1      -6.481   3.239  17.982 -0.22 -0.00    -0.025 A 
DOCKED: ATOM      8  C   UNL d   1      -5.780   4.428  17.754 -0.25 +0.00    +0.066 A 
DOCKED: ATOM      9  C   UNL d   1      -5.964   2.002  18.731 -0.09 +0.01    +0.051 C 
DOCKED: ATOM     10  C   UNL d   1      -3.725   5.748  18.011 -0.25 -0.01    +0.066 A 
DOCKED: ATOM     11  C   UNL d   1      -2.364   5.908  18.351 -0.29 +0.01    -0.021 A 
DOCKED: ATOM     12  C   UNL d   1      -2.023   7.219  18.006 -0.27 -0.00    +0.000 A 
DOCKED: ATOM     13  C   UNL d   1      -3.195   7.756  17.471 -0.23 -0.02    +0.070 A 
DOCKED: ATOM     14  C   UNL d   1      -1.445   4.837  18.879 -0.36 -0.02    +0.052 C 
DOCKED: ATOM     15  C   UNL d   1      -4.418   9.772  16.564 -0.19 -0.02    +0.066 A 
DOCKED: ATOM     16  C   UNL d   1      -4.480  11.137  16.322 -0.21 +0.00    -0.021 A 
DOCKED: ATOM     17  C   UNL d   1      -5.776  11.381  15.847 -0.15 -0.00    +0.000 A 
DOCKED: ATOM     18  C   UNL d   1      -6.400  10.138  15.820 -0.08 -0.01    +0.070 A 
DOCKED: ATOM     19  C   UNL d   1      -3.351  12.119  16.543 -0.30 -0.01    +0.052 C 
DOCKED: ATOM     20  C   UNL d   1      -8.433   8.685  15.479 -0.18 +0.00    +0.066 A 
DOCKED: ATOM     21  C   UNL d   1      -9.771   8.558  15.112 -0.14 -0.00    -0.025 A 
DOCKED: ATOM     22  C   UNL d   1     -10.089   7.228  15.314 -0.15 -0.00    -0.021 A 
DOCKED: ATOM     23  C   UNL d   1      -8.924   6.606  15.811 -0.17 +0.00    +0.066 A 
DOCKED: ATOM     24  C   UNL d   1     -10.706   9.655  14.611 -0.08 -0.00    +0.051 C 
DOCKED: ATOM     25  N   UNL d   1      -6.525   5.359  17.050 -0.17 -0.01    -0.248 N 
DOCKED: ATOM     26  N   UNL d   1      -4.206   6.849  17.423 -0.17 +0.04    -0.248 N 
DOCKED: ATOM     27  N   UNL d   1      -5.572   9.209  16.283 -0.16 +0.03    -0.248 N 
DOCKED: ATOM     28  N   UNL d   1      -7.920   7.485  15.915 -0.17 -0.00    -0.248 N 
DOCKED: ATOM     29 FE   UNL d   1      -6.023   7.398  16.642 -0.05 -0.00    +0.000 Fe
DOCKED: ENDROOT
DOCKED: BRANCH   6  30
DOCKED: ATOM     30  C   UNL d   1      -8.885   2.436  17.420 -0.18 +0.02    +0.052 C 
DOCKED: BRANCH  30  31
DOCKED: ATOM     31  C   UNL d   1      -9.678   2.574  18.718 -0.04 +0.02    +0.115 C 
DOCKED: BRANCH  31  32
DOCKED: ATOM     32  C   UNL d   1      -9.081   3.605  19.652 -0.02 +0.01    +0.139 C 
DOCKED: ATOM     33  O   UNL d   1      -8.559   3.240  20.695 +0.02 -0.00    -0.650 OA
DOCKED: BRANCH  32  34
DOCKED: ATOM     34  O   UNL d   1      -9.064   4.924  19.348 +0.04 -0.00    -0.776 OA
DOCKED: ATOM     35  H   UNL d   1      -9.850   5.442  19.129 +0.01 -0.00    +0.167 HD
DOCKED: ENDBRANCH  32  34
DOCKED: ENDBRANCH  31  32
DOCKED: ENDBRANCH  30  31
DOCKED: ENDBRANCH   6  30
DOCKED: BRANCH  29  36
DOCKED: ATOM     36  C   UNL d   1      -6.718   7.837  18.571 -0.03 -0.01    +0.190 C 
DOCKED: BRANCH  36  37
DOCKED: ATOM     37  O   UNL d   1      -7.824   7.699  19.415 +0.00 +0.02    -0.399 OA
DOCKED: ATOM     38  H   UNL d   1      -8.407   7.025  18.965 +0.02 -0.01    +0.209 HD
DOCKED: ENDBRANCH  36  37
DOCKED: ENDBRANCH  29  36
DOCKED: BRANCH  22  39
DOCKED: ATOM     39  C   UNL d   1     -11.458   6.609  15.103 -0.09 +0.00    +0.052 C 
DOCKED: BRANCH  39  40
DOCKED: ATOM     40  C   UNL d   1     -12.268   6.623  16.410 -0.02 -0.00    +0.115 C 
DOCKED: BRANCH  40  41
DOCKED: ATOM     41  C   UNL d   1     -11.488   6.189  17.633 -0.01 -0.00    +0.139 C 
DOCKED: ATOM     42  O   UNL d   1     -11.567   5.029  18.012 +0.02 -0.01    -0.650 OA
DOCKED: BRANCH  41  43
DOCKED: ATOM     43  O   UNL d   1     -10.637   7.026  18.267 +0.02 +0.01    -0.776 OA
DOCKED: ATOM     44  H   UNL d   1      -9.727   6.780  18.478 +0.01 -0.00    +0.167 HD
DOCKED: ENDBRANCH  41  43
DOCKED: ENDBRANCH  40  41
DOCKED: ENDBRANCH  39  40
DOCKED: ENDBRANCH  22  39
DOCKED: BRANCH  12  45
DOCKED: ATOM     45  C   UNL d   1      -0.729   8.015  18.102 -0.31 -0.00    +0.004 C 
DOCKED: ATOM     46  C   UNL d   1       0.382   7.953  17.373 -0.47 -0.00    +0.012 C 
DOCKED: ENDBRANCH  12  45
DOCKED: BRANCH  17  47
DOCKED: ATOM     47  C   UNL d   1      -6.432  12.673  15.484 -0.11 -0.00    +0.004 C 
DOCKED: ATOM     48  C   UNL d   1      -6.462  13.161  14.241 -0.14 -0.00    +0.012 C 
DOCKED: ENDBRANCH  17  47
DOCKED: TORSDOF 12
DOCKED: TER
DOCKED: ENDMDL
________________________________________________________________________________


	BEGINNING GENETIC ALGORITHM DOCKING 87 of 100
Run: 87 Seed: 419485985 527525170 [ Run 87 of 100 GA/GALS ]
Beginning LAMARCKIAN GENETIC ALGORITHM (LGA), with a maximum of 25000000 energy evaluations.

Final-Value: -8.918


	FINAL GENETIC ALGORITHM DOCKED STATE
	_______________________________________________


Detailed state:  trans -4.609 -20.068 -8.961 quatxyzw -0.906800 0.210781 0.155460 0.330330 center 8.781 34.984 -0.736 ntor 12 84.3900 101.2454 -51.9497 119.4727 136.4256 -180.0000 -134.6548 -113.5577 125.9624 114.4611 17.8391 44.5978
State:	 -4.609 -20.068  -8.961  -0.961  0.223  0.165 141.422     84.39  101.25  -51.95  119.47  136.43 -180.00 -134.65 -113.56  125.96  114.46   17.84   44.60

DOCKED: MODEL       87
DOCKED: USER    Run = 87
DOCKED: USER    DPF = D:/Protein_go_brrr/autodock/final/mut_N102T/heme_Co/dock.dpf
DOCKED: USER  
DOCKED: USER    Estimated Free Energy of Binding    =   -3.61 kcal/mol  [=(1)+(2)+(3)-(4)]
DOCKED: USER    Estimated Inhibition Constant, Ki   =    2.26 mM (millimolar)  [Temperature = 298.15 K]
DOCKED: USER    
DOCKED: USER    (1) Final Intermolecular Energy     =   -7.19 kcal/mol
DOCKED: USER        vdW + Hbond + desolv Energy     =   -3.62 kcal/mol
DOCKED: USER        Electrostatic Energy            =   -3.57 kcal/mol
DOCKED: USER    (2) Final Total Internal Energy     =   -1.73 kcal/mol
DOCKED: USER    (3) Torsional Free Energy           =   +3.58 kcal/mol
DOCKED: USER    (4) Unbound System's Energy  [=(2)] =   -1.73 kcal/mol
DOCKED: USER    
DOCKED: USER    
DOCKED: USER    NEWDPF move heme_Co_opt.pdbqt
DOCKED: USER    NEWDPF about 8.781000 34.984000 -0.736000
DOCKED: USER    NEWDPF tran0 -4.608682 -20.068161 -8.960960
DOCKED: USER    NEWDPF quaternion0 -0.906800 0.210781 0.155460 0.330330
DOCKED: USER    NEWDPF axisangle0 -0.960730 0.223317 0.164706 141.422417
DOCKED: USER    NEWDPF quat0 -0.960730 0.223317 0.164706 141.422417
DOCKED: USER    NEWDPF dihe0 84.39 101.25 -51.95 119.47 136.43 -180.00 -134.65 -113.56 125.96 114.46 17.84 44.60 
DOCKED: USER  keepresnum = 1 
DOCKED: USER  
DOCKED: REMARK  12 active torsions:
DOCKED: REMARK  status: ('A' for Active; 'I' for Inactive)
DOCKED: REMARK    1  A    between atoms: C_6  and  C_10 
DOCKED: REMARK    2  A    between atoms: C_10  and  C_11 
DOCKED: REMARK    3  A    between atoms: C_11  and  C_12 
DOCKED: REMARK    4  A    between atoms: C_12  and  O_14 
DOCKED: REMARK    5  A    between atoms: C_17  and  C_20 
DOCKED: REMARK    6  A    between atoms: C_24  and  C_27 
DOCKED: REMARK    7  A    between atoms: C_31  and  C_34 
DOCKED: REMARK    8  A    between atoms: C_34  and  C_35 
DOCKED: REMARK    9  A    between atoms: C_35  and  C_36 
DOCKED: REMARK   10  A    between atoms: C_36  and  O_38 
DOCKED: REMARK   11  A    between atoms: FE_43  and  C_44 
DOCKED: REMARK   12  A    between atoms: C_44  and  O_45 
DOCKED: USER                              x       y       z     vdW  Elec       q    Type
DOCKED: USER                           _______ _______ _______ _____ _____    ______ ____
DOCKED: ROOT
DOCKED: ATOM      1  C   UNL d   1      -6.060 -19.022  -7.730 -0.08 +0.04    +0.064 A 
DOCKED: ATOM      2  C   UNL d   1      -5.803 -19.782 -12.417 -0.13 +0.01    +0.064 C 
DOCKED: ATOM      3  C   UNL d   1      -1.528 -21.850 -11.885 -0.04 +0.00    +0.064 A 
DOCKED: ATOM      4  C   UNL d   1      -1.941 -21.432  -7.056 -0.04 +0.02    +0.064 A 
DOCKED: ATOM      5  C   UNL d   1      -6.287 -19.045  -9.053 -0.10 +0.03    +0.066 A 
DOCKED: ATOM      6  C   UNL d   1      -7.495 -18.585  -9.612 -0.09 -0.01    -0.021 A 
DOCKED: ATOM      7  C   UNL d   1      -7.424 -18.828 -10.970 -0.11 -0.01    -0.025 A 
DOCKED: ATOM      8  C   UNL d   1      -6.171 -19.412 -11.183 -0.13 +0.02    +0.066 A 
DOCKED: ATOM      9  C   UNL d   1      -8.488 -18.530 -12.038 -0.10 +0.01    +0.051 C 
DOCKED: ATOM     10  C   UNL d   1      -4.524 -20.365 -12.736 -0.10 +0.01    +0.066 A 
DOCKED: ATOM     11  C   UNL d   1      -4.023 -20.646 -14.027 -0.08 -0.00    -0.021 A 
DOCKED: ATOM     12  C   UNL d   1      -2.774 -21.245 -13.842 -0.06 +0.00    +0.000 A 
DOCKED: ATOM     13  C   UNL d   1      -2.600 -21.273 -12.458 -0.03 +0.00    +0.070 A 
DOCKED: ATOM     14  C   UNL d   1      -4.670 -20.271 -15.335 -0.05 +0.00    +0.052 C 
DOCKED: ATOM     15  C   UNL d   1      -1.215 -22.015 -10.479 -0.03 +0.01    +0.066 A 
DOCKED: ATOM     16  C   UNL d   1      -0.162 -22.749  -9.952 -0.04 -0.00    -0.021 A 
DOCKED: ATOM     17  C   UNL d   1      -0.278 -22.633  -8.559 -0.03 +0.00    +0.000 A 
DOCKED: ATOM     18  C   UNL d   1      -1.387 -21.821  -8.347 -0.05 +0.01    +0.070 A 
DOCKED: ATOM     19  C   UNL d   1       0.872 -23.503 -10.757 -0.01 +0.00    +0.052 C 
DOCKED: ATOM     20  C   UNL d   1      -3.067 -20.715  -6.825 -0.05 +0.03    +0.066 A 
DOCKED: ATOM     21  C   UNL d   1      -3.518 -20.435  -5.537 -0.07 -0.02    -0.025 A 
DOCKED: ATOM     22  C   UNL d   1      -4.689 -19.716  -5.700 -0.08 -0.02    -0.021 A 
DOCKED: ATOM     23  C   UNL d   1      -4.901 -19.603  -7.090 -0.08 +0.04    +0.066 A 
DOCKED: ATOM     24  C   UNL d   1      -2.877 -20.848  -4.215 -0.10 +0.03    +0.051 C 
DOCKED: ATOM     25  N   UNL d   1      -5.443 -19.553 -10.014 -0.09 -0.09    -0.248 N 
DOCKED: ATOM     26  N   UNL d   1      -3.633 -20.691 -11.794 -0.01 -0.03    -0.248 N 
DOCKED: ATOM     27  N   UNL d   1      -1.938 -21.497  -9.512 -0.04 -0.04    -0.248 N 
DOCKED: ATOM     28  N   UNL d   1      -3.923 -20.208  -7.775 -0.05 -0.12    -0.248 N 
DOCKED: ATOM     29 FE   UNL d   1      -3.586 -20.582  -9.745 -0.02 +0.00    +0.000 Fe
DOCKED: ENDROOT
DOCKED: BRANCH   6  30
DOCKED: ATOM     30  C   UNL d   1      -8.689 -18.014  -8.854 -0.04 +0.02    +0.052 C 
DOCKED: BRANCH  30  31
DOCKED: ATOM     31  C   UNL d   1      -8.714 -16.489  -8.961 -0.09 +0.05    +0.115 C 
DOCKED: BRANCH  31  32
DOCKED: ATOM     32  C   UNL d   1      -7.427 -15.855  -8.480 -0.15 +0.14    +0.139 C 
DOCKED: ATOM     33  O   UNL d   1      -6.558 -15.569  -9.291 -0.48 -0.82    -0.650 OA
DOCKED: BRANCH  32  34
DOCKED: ATOM     34  O   UNL d   1      -7.221 -15.548  -7.178 -0.41 -1.09    -0.776 OA
DOCKED: ATOM     35  H   UNL d   1      -6.954 -16.187  -6.504 +0.03 +0.24    +0.167 HD
DOCKED: ENDBRANCH  32  34
DOCKED: ENDBRANCH  31  32
DOCKED: ENDBRANCH  30  31
DOCKED: ENDBRANCH   6  30
DOCKED: BRANCH  29  36
DOCKED: ATOM     36  C   UNL d   1      -4.711 -22.347  -9.627 -0.02 +0.03    +0.190 C 
DOCKED: BRANCH  36  37
DOCKED: ATOM     37  O   UNL d   1      -5.922 -22.924 -10.020 +0.00 -0.04    -0.399 OA
DOCKED: ATOM     38  H   UNL d   1      -6.470 -22.163 -10.361 +0.01 +0.03    +0.209 HD
DOCKED: ENDBRANCH  36  37
DOCKED: ENDBRANCH  29  36
DOCKED: BRANCH  22  39
DOCKED: ATOM     39  C   UNL d   1      -5.583 -19.225  -4.577 -0.03 +0.07    +0.052 C 
DOCKED: BRANCH  39  40
DOCKED: ATOM     40  C   UNL d   1      -6.227 -17.879  -4.946 -0.10 +0.15    +0.115 C 
DOCKED: BRANCH  40  41
DOCKED: ATOM     41  C   UNL d   1      -5.266 -16.709  -4.958 -0.10 +0.27    +0.139 C 
DOCKED: ATOM     42  O   UNL d   1      -4.075 -16.915  -5.140 -0.35 -1.41    -0.650 OA
DOCKED: BRANCH  41  43
DOCKED: ATOM     43  O   UNL d   1      -5.700 -15.432  -4.862 +0.07 -1.39    -0.776 OA
DOCKED: ATOM     44  H   UNL d   1      -6.448 -15.098  -5.373 +0.04 +0.26    +0.167 HD
DOCKED: ENDBRANCH  41  43
DOCKED: ENDBRANCH  40  41
DOCKED: ENDBRANCH  39  40
DOCKED: ENDBRANCH  22  39
DOCKED: BRANCH  12  45
DOCKED: ATOM     45  C   UNL d   1      -1.723 -21.772 -14.809 -0.03 +0.00    +0.004 C 
DOCKED: ATOM     46  C   UNL d   1      -0.506 -21.318 -15.099 -0.03 -0.00    +0.012 C 
DOCKED: ENDBRANCH  12  45
DOCKED: BRANCH  17  47
DOCKED: ATOM     47  C   UNL d   1       0.537 -23.264  -7.478 -0.02 +0.00    +0.004 C 
DOCKED: ATOM     48  C   UNL d   1       1.303 -22.570  -6.633 -0.03 +0.00    +0.012 C 
DOCKED: ENDBRANCH  17  47
DOCKED: TORSDOF 12
DOCKED: TER
DOCKED: ENDMDL
________________________________________________________________________________


	BEGINNING GENETIC ALGORITHM DOCKING 88 of 100
Run: 88 Seed: 1426493835 2028692566 [ Run 88 of 100 GA/GALS ]
Beginning LAMARCKIAN GENETIC ALGORITHM (LGA), with a maximum of 25000000 energy evaluations.

Final-Value: -10.991


	FINAL GENETIC ALGORITHM DOCKED STATE
	_______________________________________________


Detailed state:  trans 7.231 -4.819 15.442 quatxyzw 0.135384 0.394805 0.731036 0.539803 center 8.781 34.984 -0.736 ntor 12 -153.3476 126.1875 -1.3396 116.6799 83.3428 118.0253 38.9590 17.3591 -174.1473 -52.5798 -167.9982 -16.3563
State:	  7.231  -4.819  15.442   0.161  0.469  0.868 114.660   -153.35  126.19   -1.34  116.68   83.34  118.03   38.96   17.36 -174.15  -52.58 -168.00  -16.36

DOCKED: MODEL       88
DOCKED: USER    Run = 88
DOCKED: USER    DPF = D:/Protein_go_brrr/autodock/final/mut_N102T/heme_Co/dock.dpf
DOCKED: USER  
DOCKED: USER    Estimated Free Energy of Binding    =   -5.32 kcal/mol  [=(1)+(2)+(3)-(4)]
DOCKED: USER    Estimated Inhibition Constant, Ki   =  126.05 uM (micromolar)  [Temperature = 298.15 K]
DOCKED: USER    
DOCKED: USER    (1) Final Intermolecular Energy     =   -8.90 kcal/mol
DOCKED: USER        vdW + Hbond + desolv Energy     =   -6.61 kcal/mol
DOCKED: USER        Electrostatic Energy            =   -2.29 kcal/mol
DOCKED: USER    (2) Final Total Internal Energy     =   -2.09 kcal/mol
DOCKED: USER    (3) Torsional Free Energy           =   +3.58 kcal/mol
DOCKED: USER    (4) Unbound System's Energy  [=(2)] =   -2.09 kcal/mol
DOCKED: USER    
DOCKED: USER    
DOCKED: USER    NEWDPF move heme_Co_opt.pdbqt
DOCKED: USER    NEWDPF about 8.781000 34.984000 -0.736000
DOCKED: USER    NEWDPF tran0 7.230627 -4.819038 15.442005
DOCKED: USER    NEWDPF quaternion0 0.135384 0.394805 0.731036 0.539803
DOCKED: USER    NEWDPF axisangle0 0.160829 0.469006 0.868428 114.659562
DOCKED: USER    NEWDPF quat0 0.160829 0.469006 0.868428 114.659562
DOCKED: USER    NEWDPF dihe0 -153.35 126.19 -1.34 116.68 83.34 118.03 38.96 17.36 -174.15 -52.58 -168.00 -16.36 
DOCKED: USER  keepresnum = 1 
DOCKED: USER  
DOCKED: REMARK  12 active torsions:
DOCKED: REMARK  status: ('A' for Active; 'I' for Inactive)
DOCKED: REMARK    1  A    between atoms: C_6  and  C_10 
DOCKED: REMARK    2  A    between atoms: C_10  and  C_11 
DOCKED: REMARK    3  A    between atoms: C_11  and  C_12 
DOCKED: REMARK    4  A    between atoms: C_12  and  O_14 
DOCKED: REMARK    5  A    between atoms: C_17  and  C_20 
DOCKED: REMARK    6  A    between atoms: C_24  and  C_27 
DOCKED: REMARK    7  A    between atoms: C_31  and  C_34 
DOCKED: REMARK    8  A    between atoms: C_34  and  C_35 
DOCKED: REMARK    9  A    between atoms: C_35  and  C_36 
DOCKED: REMARK   10  A    between atoms: C_36  and  O_38 
DOCKED: REMARK   11  A    between atoms: FE_43  and  C_44 
DOCKED: REMARK   12  A    between atoms: C_44  and  O_45 
DOCKED: USER                              x       y       z     vdW  Elec       q    Type
DOCKED: USER                           _______ _______ _______ _____ _____    ______ ____
DOCKED: ROOT
DOCKED: ATOM      1  C   UNL d   1       8.608  -4.166  13.895 -0.09 +0.01    +0.064 A 
DOCKED: ATOM      2  C   UNL d   1       4.893  -2.043  15.968 -0.23 -0.01    +0.064 C 
DOCKED: ATOM      3  C   UNL d   1       3.914  -6.040  18.395 -0.16 -0.01    +0.064 A 
DOCKED: ATOM      4  C   UNL d   1       7.929  -8.107  16.585 -0.19 +0.01    +0.064 A 
DOCKED: ATOM      5  C   UNL d   1       7.643  -3.304  14.256 -0.10 +0.01    +0.066 A 
DOCKED: ATOM      6  C   UNL d   1       7.625  -1.971  13.802 -0.16 -0.00    -0.021 A 
DOCKED: ATOM      7  C   UNL d   1       6.558  -1.353  14.425 -0.26 -0.00    -0.025 A 
DOCKED: ATOM      8  C   UNL d   1       5.962  -2.339  15.218 -0.18 -0.00    +0.066 A 
DOCKED: ATOM      9  C   UNL d   1       6.105   0.109  14.288 -0.48 -0.00    +0.051 C 
DOCKED: ATOM     10  C   UNL d   1       4.197  -2.997  16.795 -0.18 -0.01    +0.066 A 
DOCKED: ATOM     11  C   UNL d   1       2.990  -2.786  17.495 -0.22 +0.01    -0.021 A 
DOCKED: ATOM     12  C   UNL d   1       2.725  -3.968  18.191 -0.16 -0.00    +0.000 A 
DOCKED: ATOM     13  C   UNL d   1       3.781  -4.816  17.855 -0.17 -0.01    +0.070 A 
DOCKED: ATOM     14  C   UNL d   1       2.114  -1.562  17.413 -0.38 -0.02    +0.052 C 
DOCKED: ATOM     15  C   UNL d   1       4.964  -7.022  18.203 -0.08 -0.01    +0.066 A 
DOCKED: ATOM     16  C   UNL d   1       5.118  -8.210  18.902 -0.10 +0.00    -0.021 A 
DOCKED: ATOM     17  C   UNL d   1       6.276  -8.809  18.386 -0.21 +0.00    +0.000 A 
DOCKED: ATOM     18  C   UNL d   1       6.729  -7.943  17.396 -0.22 +0.00    +0.070 A 
DOCKED: ATOM     19  C   UNL d   1       4.197  -8.712  19.993 -0.15 -0.01    +0.052 C 
DOCKED: ATOM     20  C   UNL d   1       8.436  -7.238  15.678 -0.16 +0.01    +0.066 A 
DOCKED: ATOM     21  C   UNL d   1       9.618  -7.491  14.986 -0.12 -0.01    -0.025 A 
DOCKED: ATOM     22  C   UNL d   1       9.824  -6.385  14.182 -0.10 -0.01    -0.021 A 
DOCKED: ATOM     23  C   UNL d   1       8.755  -5.499  14.434 -0.11 +0.01    +0.066 A 
DOCKED: ATOM     24  C   UNL d   1      10.519  -8.718  15.100 -0.11 +0.02    +0.051 C 
DOCKED: ATOM     25  N   UNL d   1       6.610  -3.559  15.129 -0.03 -0.01    -0.248 N 
DOCKED: ATOM     26  N   UNL d   1       4.640  -4.247  16.968 -0.10 +0.03    -0.248 N 
DOCKED: ATOM     27  N   UNL d   1       5.940  -6.875  17.336 -0.15 +0.01    -0.248 N 
DOCKED: ATOM     28  N   UNL d   1       7.914  -6.011  15.341 -0.06 -0.03    -0.248 N 
DOCKED: ATOM     29 FE   UNL d   1       6.258  -5.317  16.296 -0.04 +0.00    +0.000 Fe
DOCKED: ENDROOT
DOCKED: BRANCH   6  30
DOCKED: ATOM     30  C   UNL d   1       8.641  -1.311  12.876 -0.21 +0.01    +0.052 C 
DOCKED: BRANCH  30  31
DOCKED: ATOM     31  C   UNL d   1       9.851  -0.819  13.670 -0.13 +0.03    +0.115 C 
DOCKED: BRANCH  31  32
DOCKED: ATOM     32  C   UNL d   1       9.773  -1.196  15.134 -0.09 +0.03    +0.139 C 
DOCKED: ATOM     33  O   UNL d   1       9.245  -0.428  15.925 -0.51 -0.31    -0.650 OA
DOCKED: BRANCH  32  34
DOCKED: ATOM     34  O   UNL d   1      10.228  -2.384  15.595 +0.03 -0.14    -0.776 OA
DOCKED: ATOM     35  H   UNL d   1       9.934  -2.797  16.419 +0.01 +0.03    +0.167 HD
DOCKED: ENDBRANCH  32  34
DOCKED: ENDBRANCH  31  32
DOCKED: ENDBRANCH  30  31
DOCKED: ENDBRANCH   6  30
DOCKED: BRANCH  29  36
DOCKED: ATOM     36  C   UNL d   1       7.453  -4.437  17.777 -0.04 +0.00    +0.190 C 
DOCKED: BRANCH  36  37
DOCKED: ATOM     37  O   UNL d   1       8.588  -3.643  17.966 -0.00 -0.02    -0.399 OA
DOCKED: ATOM     38  H   UNL d   1       8.793  -3.269  17.063 +0.02 +0.02    +0.209 HD
DOCKED: ENDBRANCH  36  37
DOCKED: ENDBRANCH  29  36
DOCKED: BRANCH  22  39
DOCKED: ATOM     39  C   UNL d   1      11.019  -6.169  13.272 -0.05 +0.02    +0.052 C 
DOCKED: BRANCH  39  40
DOCKED: ATOM     40  C   UNL d   1      10.794  -6.846  11.910 -0.11 +0.06    +0.115 C 
DOCKED: BRANCH  40  41
DOCKED: ATOM     41  C   UNL d   1      10.866  -5.906  10.726 +0.01 +0.16    +0.139 C 
DOCKED: ATOM     42  O   UNL d   1      11.153  -6.353   9.624 -0.09 -1.25    -0.650 OA
DOCKED: BRANCH  41  43
DOCKED: ATOM     43  O   UNL d   1      10.538  -4.599  10.834 -0.04 -1.03    -0.776 OA
DOCKED: ATOM     44  H   UNL d   1      10.312  -4.189  11.679 +0.03 +0.13    +0.167 HD
DOCKED: ENDBRANCH  41  43
DOCKED: ENDBRANCH  40  41
DOCKED: ENDBRANCH  39  40
DOCKED: ENDBRANCH  22  39
DOCKED: BRANCH  12  45
DOCKED: ATOM     45  C   UNL d   1       1.593  -4.400  19.114 -0.14 -0.00    +0.004 C 
DOCKED: ATOM     46  C   UNL d   1       0.598  -5.261  18.920 -0.23 -0.00    +0.012 C 
DOCKED: ENDBRANCH  12  45
DOCKED: BRANCH  17  47
DOCKED: ATOM     47  C   UNL d   1       6.964 -10.069  18.798 -0.18 +0.00    +0.004 C 
DOCKED: ATOM     48  C   UNL d   1       6.394 -11.274  18.734 -0.21 +0.00    +0.012 C 
DOCKED: ENDBRANCH  17  47
DOCKED: TORSDOF 12
DOCKED: TER
DOCKED: ENDMDL
________________________________________________________________________________


	BEGINNING GENETIC ALGORITHM DOCKING 89 of 100
Run: 89 Seed: 443559221 369231834 [ Run 89 of 100 GA/GALS ]
Beginning LAMARCKIAN GENETIC ALGORITHM (LGA), with a maximum of 25000000 energy evaluations.

Final-Value: -10.828


	FINAL GENETIC ALGORITHM DOCKED STATE
	_______________________________________________


Detailed state:  trans -9.262 -10.355 -10.207 quatxyzw -0.664277 -0.729692 -0.111557 0.117648 center 8.781 34.984 -0.736 ntor 12 17.6191 -132.9051 27.6030 -95.5882 134.8763 144.5541 145.8205 -150.3520 8.9129 39.7718 -110.0537 -150.1970
State:	 -9.262 -10.355 -10.207  -0.669 -0.735 -0.112 166.487     17.62 -132.91   27.60  -95.59  134.88  144.55  145.82 -150.35    8.91   39.77 -110.05 -150.20

DOCKED: MODEL       89
DOCKED: USER    Run = 89
DOCKED: USER    DPF = D:/Protein_go_brrr/autodock/final/mut_N102T/heme_Co/dock.dpf
DOCKED: USER  
DOCKED: USER    Estimated Free Energy of Binding    =   -6.98 kcal/mol  [=(1)+(2)+(3)-(4)]
DOCKED: USER    Estimated Inhibition Constant, Ki   =    7.60 uM (micromolar)  [Temperature = 298.15 K]
DOCKED: USER    
DOCKED: USER    (1) Final Intermolecular Energy     =  -10.56 kcal/mol
DOCKED: USER        vdW + Hbond + desolv Energy     =   -7.11 kcal/mol
DOCKED: USER        Electrostatic Energy            =   -3.45 kcal/mol
DOCKED: USER    (2) Final Total Internal Energy     =   -0.26 kcal/mol
DOCKED: USER    (3) Torsional Free Energy           =   +3.58 kcal/mol
DOCKED: USER    (4) Unbound System's Energy  [=(2)] =   -0.26 kcal/mol
DOCKED: USER    
DOCKED: USER    
DOCKED: USER    NEWDPF move heme_Co_opt.pdbqt
DOCKED: USER    NEWDPF about 8.781000 34.984000 -0.736000
DOCKED: USER    NEWDPF tran0 -9.262155 -10.354788 -10.207108
DOCKED: USER    NEWDPF quaternion0 -0.664277 -0.729692 -0.111557 0.117648
DOCKED: USER    NEWDPF axisangle0 -0.668922 -0.734795 -0.112337 166.487205
DOCKED: USER    NEWDPF quat0 -0.668922 -0.734795 -0.112337 166.487205
DOCKED: USER    NEWDPF dihe0 17.62 -132.91 27.60 -95.59 134.88 144.55 145.82 -150.35 8.91 39.77 -110.05 -150.20 
DOCKED: USER  keepresnum = 1 
DOCKED: USER  
DOCKED: REMARK  12 active torsions:
DOCKED: REMARK  status: ('A' for Active; 'I' for Inactive)
DOCKED: REMARK    1  A    between atoms: C_6  and  C_10 
DOCKED: REMARK    2  A    between atoms: C_10  and  C_11 
DOCKED: REMARK    3  A    between atoms: C_11  and  C_12 
DOCKED: REMARK    4  A    between atoms: C_12  and  O_14 
DOCKED: REMARK    5  A    between atoms: C_17  and  C_20 
DOCKED: REMARK    6  A    between atoms: C_24  and  C_27 
DOCKED: REMARK    7  A    between atoms: C_31  and  C_34 
DOCKED: REMARK    8  A    between atoms: C_34  and  C_35 
DOCKED: REMARK    9  A    between atoms: C_35  and  C_36 
DOCKED: REMARK   10  A    between atoms: C_36  and  O_38 
DOCKED: REMARK   11  A    between atoms: FE_43  and  C_44 
DOCKED: REMARK   12  A    between atoms: C_44  and  O_45 
DOCKED: USER                              x       y       z     vdW  Elec       q    Type
DOCKED: USER                           _______ _______ _______ _____ _____    ______ ____
DOCKED: ROOT
DOCKED: ATOM      1  C   UNL d   1      -8.890 -12.241  -9.197 -0.10 +0.02    +0.064 A 
DOCKED: ATOM      2  C   UNL d   1     -10.317 -11.209 -13.614 -0.09 +0.01    +0.064 C 
DOCKED: ATOM      3  C   UNL d   1     -10.521  -6.566 -12.504 -0.10 +0.02    +0.064 A 
DOCKED: ATOM      4  C   UNL d   1      -8.696  -7.551  -8.104 -0.20 +0.01    +0.064 A 
DOCKED: ATOM      5  C   UNL d   1      -9.299 -12.304 -10.475 -0.11 +0.01    +0.066 A 
DOCKED: ATOM      6  C   UNL d   1      -9.311 -13.513 -11.197 -0.04 -0.00    -0.021 A 
DOCKED: ATOM      7  C   UNL d   1      -9.704 -13.204 -12.485 -0.05 -0.00    -0.025 A 
DOCKED: ATOM      8  C   UNL d   1      -9.931 -11.824 -12.489 -0.10 +0.01    +0.066 A 
DOCKED: ATOM      9  C   UNL d   1      -9.863 -14.161 -13.676 -0.13 +0.01    +0.051 C 
DOCKED: ATOM     10  C   UNL d   1     -10.600  -9.799 -13.707 -0.06 +0.02    +0.066 A 
DOCKED: ATOM     11  C   UNL d   1     -11.141  -9.119 -14.820 -0.05 -0.01    -0.021 A 
DOCKED: ATOM     12  C   UNL d   1     -11.194  -7.767 -14.467 -0.07 +0.00    +0.000 A 
DOCKED: ATOM     13  C   UNL d   1     -10.694  -7.724 -13.166 -0.09 +0.02    +0.070 A 
DOCKED: ATOM     14  C   UNL d   1     -11.657  -9.750 -16.087 -0.02 +0.01    +0.052 C 
DOCKED: ATOM     15  C   UNL d   1      -9.972  -6.335 -11.182 -0.13 +0.02    +0.066 A 
DOCKED: ATOM     16  C   UNL d   1      -9.687  -5.102 -10.614 -0.15 -0.00    -0.021 A 
DOCKED: ATOM     17  C   UNL d   1      -9.158  -5.381  -9.346 -0.29 +0.00    +0.000 A 
DOCKED: ATOM     18  C   UNL d   1      -9.178  -6.767  -9.234 -0.19 +0.01    +0.070 A 
DOCKED: ATOM     19  C   UNL d   1      -9.916  -3.759 -11.271 -0.29 +0.01    +0.052 C 
DOCKED: ATOM     20  C   UNL d   1      -8.626  -8.901  -8.007 -0.13 +0.01    +0.066 A 
DOCKED: ATOM     21  C   UNL d   1      -8.108  -9.540  -6.883 -0.20 -0.01    -0.025 A 
DOCKED: ATOM     22  C   UNL d   1      -8.178 -10.893  -7.157 -0.14 -0.01    -0.021 A 
DOCKED: ATOM     23  C   UNL d   1      -8.728 -11.013  -8.451 -0.09 +0.02    +0.066 A 
DOCKED: ATOM     24  C   UNL d   1      -7.555  -8.892  -5.616 -0.08 +0.01    +0.051 C 
DOCKED: ATOM     25  N   UNL d   1      -9.694 -11.241 -11.255 -0.05 -0.05    -0.248 N 
DOCKED: ATOM     26  N   UNL d   1     -10.388  -8.960 -12.688 -0.05 -0.07    -0.248 N 
DOCKED: ATOM     27  N   UNL d   1      -9.641  -7.303 -10.357 -0.09 -0.05    -0.248 N 
DOCKED: ATOM     28  N   UNL d   1      -8.998  -9.810  -8.970 -0.03 -0.05    -0.248 N 
DOCKED: ATOM     29 FE   UNL d   1      -9.665  -9.156 -10.776 -0.03 +0.00    +0.000 Fe
DOCKED: ENDROOT
DOCKED: BRANCH   6  30
DOCKED: ATOM     30  C   UNL d   1      -8.881 -14.883 -10.684 +0.10 +0.01    +0.052 C 
DOCKED: BRANCH  30  31
DOCKED: ATOM     31  C   UNL d   1      -7.868 -14.738  -9.549 -0.21 +0.06    +0.115 C 
DOCKED: BRANCH  31  32
DOCKED: ATOM     32  C   UNL d   1      -7.285 -16.068  -9.122 -0.20 +0.12    +0.139 C 
DOCKED: ATOM     33  O   UNL d   1      -7.406 -17.040  -9.853 -0.44 -0.42    -0.650 OA
DOCKED: BRANCH  32  34
DOCKED: ATOM     34  O   UNL d   1      -6.588 -16.210  -7.971 -0.42 -1.44    -0.776 OA
DOCKED: ATOM     35  H   UNL d   1      -6.568 -15.551  -7.263 +0.03 +0.41    +0.167 HD
DOCKED: ENDBRANCH  32  34
DOCKED: ENDBRANCH  31  32
DOCKED: ENDBRANCH  30  31
DOCKED: ENDBRANCH   6  30
DOCKED: BRANCH  29  36
DOCKED: ATOM     36  C   UNL d   1      -7.704  -9.128 -11.517 -0.30 +0.07    +0.190 C 
DOCKED: BRANCH  36  37
DOCKED: ATOM     37  O   UNL d   1      -6.663  -9.958 -11.944 -0.57 -0.20    -0.399 OA
DOCKED: ATOM     38  H   UNL d   1      -6.562  -9.763 -12.917 -0.42 +0.06    +0.209 HD
DOCKED: ENDBRANCH  36  37
DOCKED: ENDBRANCH  29  36
DOCKED: BRANCH  22  39
DOCKED: ATOM     39  C   UNL d   1      -7.681 -12.002  -6.249 -0.18 +0.03    +0.052 C 
DOCKED: BRANCH  39  40
DOCKED: ATOM     40  C   UNL d   1      -6.254 -11.705  -5.761 -0.24 +0.09    +0.115 C 
DOCKED: BRANCH  40  41
DOCKED: ATOM     41  C   UNL d   1      -5.385 -12.933  -5.583 +0.02 +0.22    +0.139 C 
DOCKED: ATOM     42  O   UNL d   1      -5.904 -14.040  -5.607 +0.04 -1.24    -0.650 OA
DOCKED: BRANCH  41  43
DOCKED: ATOM     43  O   UNL d   1      -4.040 -12.844  -5.486 -0.48 -1.36    -0.776 OA
DOCKED: ATOM     44  H   UNL d   1      -3.599 -12.098  -5.059 +0.07 +0.16    +0.167 HD
DOCKED: ENDBRANCH  41  43
DOCKED: ENDBRANCH  40  41
DOCKED: ENDBRANCH  39  40
DOCKED: ENDBRANCH  22  39
DOCKED: BRANCH  12  45
DOCKED: ATOM     45  C   UNL d   1     -11.674  -6.521 -15.199 -0.06 +0.00    +0.004 C 
DOCKED: ATOM     46  C   UNL d   1     -10.989  -5.544 -15.787 -0.09 +0.00    +0.012 C 
DOCKED: ENDBRANCH  12  45
DOCKED: BRANCH  17  47
DOCKED: ATOM     47  C   UNL d   1      -8.616  -4.449  -8.312 -0.33 +0.00    +0.004 C 
DOCKED: ATOM     48  C   UNL d   1      -9.196  -4.244  -7.127 -0.31 +0.00    +0.012 C 
DOCKED: ENDBRANCH  17  47
DOCKED: TORSDOF 12
DOCKED: TER
DOCKED: ENDMDL
________________________________________________________________________________


	BEGINNING GENETIC ALGORITHM DOCKING 90 of 100
Run: 90 Seed: 2050822681 1699788634 [ Run 90 of 100 GA/GALS ]
Beginning LAMARCKIAN GENETIC ALGORITHM (LGA), with a maximum of 25000000 energy evaluations.

Final-Value: -8.683


	FINAL GENETIC ALGORITHM DOCKED STATE
	_______________________________________________


Detailed state:  trans -6.489 11.827 -13.087 quatxyzw -0.791849 -0.030888 -0.609678 -0.017724 center 8.781 34.984 -0.736 ntor 12 -171.5007 70.0419 -68.2459 55.0904 135.8365 148.6151 24.8340 123.8411 178.2189 148.1208 -167.7062 -9.9861
State:	 -6.489  11.827 -13.087  -0.792 -0.031 -0.610 -177.969   -171.50   70.04  -68.25   55.09  135.84  148.62   24.83  123.84  178.22  148.12 -167.71   -9.99

DOCKED: MODEL       90
DOCKED: USER    Run = 90
DOCKED: USER    DPF = D:/Protein_go_brrr/autodock/final/mut_N102T/heme_Co/dock.dpf
DOCKED: USER  
DOCKED: USER    Estimated Free Energy of Binding    =   -3.14 kcal/mol  [=(1)+(2)+(3)-(4)]
DOCKED: USER    Estimated Inhibition Constant, Ki   =    5.01 mM (millimolar)  [Temperature = 298.15 K]
DOCKED: USER    
DOCKED: USER    (1) Final Intermolecular Energy     =   -6.72 kcal/mol
DOCKED: USER        vdW + Hbond + desolv Energy     =   -6.93 kcal/mol
DOCKED: USER        Electrostatic Energy            =   +0.21 kcal/mol
DOCKED: USER    (2) Final Total Internal Energy     =   -1.97 kcal/mol
DOCKED: USER    (3) Torsional Free Energy           =   +3.58 kcal/mol
DOCKED: USER    (4) Unbound System's Energy  [=(2)] =   -1.97 kcal/mol
DOCKED: USER    
DOCKED: USER    
DOCKED: USER    NEWDPF move heme_Co_opt.pdbqt
DOCKED: USER    NEWDPF about 8.781000 34.984000 -0.736000
DOCKED: USER    NEWDPF tran0 -6.489058 11.827441 -13.087162
DOCKED: USER    NEWDPF quaternion0 -0.791849 -0.030888 -0.609678 -0.017724
DOCKED: USER    NEWDPF axisangle0 -0.791973 -0.030893 -0.609773 -177.968835
DOCKED: USER    NEWDPF quat0 -0.791973 -0.030893 -0.609773 -177.968835
DOCKED: USER    NEWDPF dihe0 -171.50 70.04 -68.25 55.09 135.84 148.62 24.83 123.84 178.22 148.12 -167.71 -9.99 
DOCKED: USER  keepresnum = 1 
DOCKED: USER  
DOCKED: REMARK  12 active torsions:
DOCKED: REMARK  status: ('A' for Active; 'I' for Inactive)
DOCKED: REMARK    1  A    between atoms: C_6  and  C_10 
DOCKED: REMARK    2  A    between atoms: C_10  and  C_11 
DOCKED: REMARK    3  A    between atoms: C_11  and  C_12 
DOCKED: REMARK    4  A    between atoms: C_12  and  O_14 
DOCKED: REMARK    5  A    between atoms: C_17  and  C_20 
DOCKED: REMARK    6  A    between atoms: C_24  and  C_27 
DOCKED: REMARK    7  A    between atoms: C_31  and  C_34 
DOCKED: REMARK    8  A    between atoms: C_34  and  C_35 
DOCKED: REMARK    9  A    between atoms: C_35  and  C_36 
DOCKED: REMARK   10  A    between atoms: C_36  and  O_38 
DOCKED: REMARK   11  A    between atoms: FE_43  and  C_44 
DOCKED: REMARK   12  A    between atoms: C_44  and  O_45 
DOCKED: USER                              x       y       z     vdW  Elec       q    Type
DOCKED: USER                           _______ _______ _______ _____ _____    ______ ____
DOCKED: ROOT
DOCKED: ATOM      1  C   UNL d   1      -7.766  11.221 -14.735 -0.09 -0.00    +0.064 A 
DOCKED: ATOM      2  C   UNL d   1      -4.031  14.154 -14.500 -0.22 +0.00    +0.064 C 
DOCKED: ATOM      3  C   UNL d   1      -3.863  13.619  -9.755 -0.22 -0.01    +0.064 A 
DOCKED: ATOM      4  C   UNL d   1      -7.430  10.322 -10.013 -0.11 -0.00    +0.064 A 
DOCKED: ATOM      5  C   UNL d   1      -6.781  12.090 -15.015 -0.08 -0.00    +0.066 A 
DOCKED: ATOM      6  C   UNL d   1      -6.459  12.454 -16.337 -0.11 -0.00    -0.021 A 
DOCKED: ATOM      7  C   UNL d   1      -5.360  13.287 -16.265 -0.18 -0.00    -0.025 A 
DOCKED: ATOM      8  C   UNL d   1      -5.069  13.409 -14.902 -0.17 +0.00    +0.066 A 
DOCKED: ATOM      9  C   UNL d   1      -4.602  13.950 -17.424 -0.18 +0.01    +0.051 C 
DOCKED: ATOM     10  C   UNL d   1      -3.671  14.359 -13.119 -0.14 +0.00    +0.066 A 
DOCKED: ATOM     11  C   UNL d   1      -2.683  15.239 -12.626 -0.13 -0.00    -0.021 A 
DOCKED: ATOM     12  C   UNL d   1      -2.658  15.066 -11.240 -0.23 -0.00    +0.000 A 
DOCKED: ATOM     13  C   UNL d   1      -3.638  14.105 -10.988 -0.20 -0.01    +0.070 A 
DOCKED: ATOM     14  C   UNL d   1      -1.895  16.238 -13.434 -0.16 +0.01    +0.052 C 
DOCKED: ATOM     15  C   UNL d   1      -4.793  12.594  -9.325 -0.19 -0.00    +0.066 A 
DOCKED: ATOM     16  C   UNL d   1      -4.874  12.034  -8.058 -0.25 +0.00    -0.021 A 
DOCKED: ATOM     17  C   UNL d   1      -5.900  11.081  -8.128 -0.20 -0.00    +0.000 A 
DOCKED: ATOM     18  C   UNL d   1      -6.377  11.147  -9.433 -0.10 -0.00    +0.070 A 
DOCKED: ATOM     19  C   UNL d   1      -4.008  12.410  -6.877 -0.36 -0.00    +0.052 C 
DOCKED: ATOM     20  C   UNL d   1      -7.851  10.308 -11.300 -0.10 -0.01    +0.066 A 
DOCKED: ATOM     21  C   UNL d   1      -8.848   9.443 -11.747 -0.12 +0.00    -0.025 A 
DOCKED: ATOM     22  C   UNL d   1      -8.987   9.700 -13.098 -0.12 +0.00    -0.021 A 
DOCKED: ATOM     23  C   UNL d   1      -8.052  10.708 -13.415 -0.08 -0.00    +0.066 A 
DOCKED: ATOM     24  C   UNL d   1      -9.617   8.408 -10.930 -0.08 -0.00    +0.051 C 
DOCKED: ATOM     25  N   UNL d   1      -5.937  12.683 -14.104 -0.05 +0.01    -0.248 N 
DOCKED: ATOM     26  N   UNL d   1      -4.288  13.721 -12.119 -0.10 +0.01    -0.248 N 
DOCKED: ATOM     27  N   UNL d   1      -5.675  12.037 -10.125 -0.08 +0.01    -0.248 N 
DOCKED: ATOM     28  N   UNL d   1      -7.361  11.077 -12.329 -0.03 +0.02    -0.248 N 
DOCKED: ATOM     29 FE   UNL d   1      -5.801  12.339 -11.997 -0.03 -0.00    +0.000 Fe
DOCKED: ENDROOT
DOCKED: BRANCH   6  30
DOCKED: ATOM     30  C   UNL d   1      -7.134  11.951 -17.609 -0.11 +0.00    +0.052 C 
DOCKED: BRANCH  30  31
DOCKED: ATOM     31  C   UNL d   1      -6.543  10.607 -18.035 -0.21 +0.01    +0.115 C 
DOCKED: BRANCH  31  32
DOCKED: ATOM     32  C   UNL d   1      -5.396  10.173 -17.148 -0.37 -0.00    +0.139 C 
DOCKED: ATOM     33  O   UNL d   1      -4.250  10.263 -17.560 -0.17 +0.07    -0.650 OA
DOCKED: BRANCH  32  34
DOCKED: ATOM     34  O   UNL d   1      -5.594   9.731 -15.884 +0.15 +0.17    -0.776 OA
DOCKED: ATOM     35  H   UNL d   1      -4.883   9.503 -15.270 -0.27 -0.11    +0.167 HD
DOCKED: ENDBRANCH  32  34
DOCKED: ENDBRANCH  31  32
DOCKED: ENDBRANCH  30  31
DOCKED: ENDBRANCH   6  30
DOCKED: BRANCH  29  36
DOCKED: ATOM     36  C   UNL d   1      -4.439  10.811 -12.448 -0.33 -0.04    +0.190 C 
DOCKED: BRANCH  36  37
DOCKED: ATOM     37  O   UNL d   1      -3.866  10.107 -13.513 -0.20 +0.18    -0.399 OA
DOCKED: ATOM     38  H   UNL d   1      -4.624   9.917 -14.132 -0.23 -0.12    +0.209 HD
DOCKED: ENDBRANCH  36  37
DOCKED: ENDBRANCH  29  36
DOCKED: BRANCH  22  39
DOCKED: ATOM     39  C   UNL d   1      -9.922   8.967 -14.042 -0.15 -0.00    +0.052 C 
DOCKED: BRANCH  39  40
DOCKED: ATOM     40  C   UNL d   1     -11.282   9.681 -14.121 -0.05 -0.00    +0.115 C 
DOCKED: BRANCH  40  41
DOCKED: ATOM     41  C   UNL d   1     -11.759  10.265 -12.808 -0.01 -0.00    +0.139 C 
DOCKED: ATOM     42  O   UNL d   1     -12.562   9.637 -12.131 +0.01 +0.01    -0.650 OA
DOCKED: BRANCH  41  43
DOCKED: ATOM     43  O   UNL d   1     -11.257  11.420 -12.320 +0.01 +0.01    -0.776 OA
DOCKED: ATOM     44  H   UNL d   1     -10.324  11.525 -12.090 +0.01 -0.00    +0.167 HD
DOCKED: ENDBRANCH  41  43
DOCKED: ENDBRANCH  40  41
DOCKED: ENDBRANCH  39  40
DOCKED: ENDBRANCH  22  39
DOCKED: BRANCH  12  45
DOCKED: ATOM     45  C   UNL d   1      -1.838  15.707 -10.128 -0.30 -0.00    +0.004 C 
DOCKED: ATOM     46  C   UNL d   1      -1.551  16.984  -9.890 -0.19 -0.00    +0.012 C 
DOCKED: ENDBRANCH  12  45
DOCKED: BRANCH  17  47
DOCKED: ATOM     47  C   UNL d   1      -6.388  10.127  -7.088 -0.27 -0.00    +0.004 C 
DOCKED: ATOM     48  C   UNL d   1      -7.608  10.186  -6.548 -0.14 -0.00    +0.012 C 
DOCKED: ENDBRANCH  17  47
DOCKED: TORSDOF 12
DOCKED: TER
DOCKED: ENDMDL
________________________________________________________________________________


	BEGINNING GENETIC ALGORITHM DOCKING 91 of 100
Run: 91 Seed: 1172598233 909256763 [ Run 91 of 100 GA/GALS ]
Beginning LAMARCKIAN GENETIC ALGORITHM (LGA), with a maximum of 25000000 energy evaluations.

Final-Value: -9.188


	FINAL GENETIC ALGORITHM DOCKED STATE
	_______________________________________________


Detailed state:  trans -11.886 3.560 9.604 quatxyzw 0.144612 -0.467820 0.483444 -0.725613 center 8.781 34.984 -0.736 ntor 12 -92.4439 105.8151 155.3006 121.7472 132.7728 115.4155 34.1164 -23.1541 -179.1381 180.0000 -176.5935 169.7109
State:	-11.886   3.560   9.604   0.210 -0.680  0.703 -86.960    -92.44  105.82  155.30  121.75  132.77  115.42   34.12  -23.15 -179.14  180.00 -176.59  169.71

DOCKED: MODEL       91
DOCKED: USER    Run = 91
DOCKED: USER    DPF = D:/Protein_go_brrr/autodock/final/mut_N102T/heme_Co/dock.dpf
DOCKED: USER  
DOCKED: USER    Estimated Free Energy of Binding    =   -2.34 kcal/mol  [=(1)+(2)+(3)-(4)]
DOCKED: USER    Estimated Inhibition Constant, Ki   =   19.14 mM (millimolar)  [Temperature = 298.15 K]
DOCKED: USER    
DOCKED: USER    (1) Final Intermolecular Energy     =   -5.92 kcal/mol
DOCKED: USER        vdW + Hbond + desolv Energy     =   -6.07 kcal/mol
DOCKED: USER        Electrostatic Energy            =   +0.14 kcal/mol
DOCKED: USER    (2) Final Total Internal Energy     =   -3.26 kcal/mol
DOCKED: USER    (3) Torsional Free Energy           =   +3.58 kcal/mol
DOCKED: USER    (4) Unbound System's Energy  [=(2)] =   -3.26 kcal/mol
DOCKED: USER    
DOCKED: USER    
DOCKED: USER    NEWDPF move heme_Co_opt.pdbqt
DOCKED: USER    NEWDPF about 8.781000 34.984000 -0.736000
DOCKED: USER    NEWDPF tran0 -11.885901 3.559776 9.604373
DOCKED: USER    NEWDPF quaternion0 0.144612 -0.467820 0.483444 -0.725613
DOCKED: USER    NEWDPF axisangle0 0.210161 -0.679869 0.702574 -86.960316
DOCKED: USER    NEWDPF quat0 0.210161 -0.679869 0.702574 -86.960316
DOCKED: USER    NEWDPF dihe0 -92.44 105.82 155.30 121.75 132.77 115.42 34.12 -23.15 -179.14 180.00 -176.59 169.71 
DOCKED: USER  keepresnum = 1 
DOCKED: USER  
DOCKED: REMARK  12 active torsions:
DOCKED: REMARK  status: ('A' for Active; 'I' for Inactive)
DOCKED: REMARK    1  A    between atoms: C_6  and  C_10 
DOCKED: REMARK    2  A    between atoms: C_10  and  C_11 
DOCKED: REMARK    3  A    between atoms: C_11  and  C_12 
DOCKED: REMARK    4  A    between atoms: C_12  and  O_14 
DOCKED: REMARK    5  A    between atoms: C_17  and  C_20 
DOCKED: REMARK    6  A    between atoms: C_24  and  C_27 
DOCKED: REMARK    7  A    between atoms: C_31  and  C_34 
DOCKED: REMARK    8  A    between atoms: C_34  and  C_35 
DOCKED: REMARK    9  A    between atoms: C_35  and  C_36 
DOCKED: REMARK   10  A    between atoms: C_36  and  O_38 
DOCKED: REMARK   11  A    between atoms: FE_43  and  C_44 
DOCKED: REMARK   12  A    between atoms: C_44  and  O_45 
DOCKED: USER                              x       y       z     vdW  Elec       q    Type
DOCKED: USER                           _______ _______ _______ _____ _____    ______ ____
DOCKED: ROOT
DOCKED: ATOM      1  C   UNL d   1     -12.029   3.272   7.457 -0.25 -0.00    +0.064 A 
DOCKED: ATOM      2  C   UNL d   1     -11.697   0.206  11.076 -0.24 -0.01    +0.064 C 
DOCKED: ATOM      3  C   UNL d   1     -11.168   3.829  14.146 -0.12 +0.01    +0.064 A 
DOCKED: ATOM      4  C   UNL d   1     -11.890   6.990  10.519 -0.15 -0.00    +0.064 A 
DOCKED: ATOM      5  C   UNL d   1     -11.941   2.167   8.216 -0.24 -0.01    +0.066 A 
DOCKED: ATOM      6  C   UNL d   1     -12.120   0.876   7.680 -0.25 +0.01    -0.021 A 
DOCKED: ATOM      7  C   UNL d   1     -12.046  -0.008   8.739 -0.22 +0.01    -0.025 A 
DOCKED: ATOM      8  C   UNL d   1     -11.807   0.779   9.871 -0.22 -0.01    +0.066 A 
DOCKED: ATOM      9  C   UNL d   1     -12.192  -1.537   8.702 -0.17 -0.02    +0.051 C 
DOCKED: ATOM     10  C   UNL d   1     -11.426   0.931  12.293 -0.23 -0.00    +0.066 A 
DOCKED: ATOM     11  C   UNL d   1     -11.160   0.377  13.564 -0.22 -0.00    -0.021 A 
DOCKED: ATOM     12  C   UNL d   1     -11.005   1.455  14.439 -0.21 +0.00    +0.000 A 
DOCKED: ATOM     13  C   UNL d   1     -11.176   2.584  13.637 -0.18 +0.01    +0.070 A 
DOCKED: ATOM     14  C   UNL d   1     -10.974  -1.086  13.878 -0.21 +0.01    +0.052 C 
DOCKED: ATOM     15  C   UNL d   1     -11.378   5.098  13.476 -0.14 +0.00    +0.066 A 
DOCKED: ATOM     16  C   UNL d   1     -11.502   6.339  14.084 -0.13 -0.00    -0.021 A 
DOCKED: ATOM     17  C   UNL d   1     -11.713   7.253  13.042 -0.13 +0.00    +0.000 A 
DOCKED: ATOM     18  C   UNL d   1     -11.684   6.497  11.875 -0.16 +0.00    +0.070 A 
DOCKED: ATOM     19  C   UNL d   1     -11.419   6.599  15.572 -0.08 +0.00    +0.052 C 
DOCKED: ATOM     20  C   UNL d   1     -11.953   6.262   9.378 -0.19 -0.00    +0.066 A 
DOCKED: ATOM     21  C   UNL d   1     -12.192   6.846   8.136 -0.18 +0.00    -0.025 A 
DOCKED: ATOM     22  C   UNL d   1     -12.209   5.801   7.230 -0.16 +0.00    -0.021 A 
DOCKED: ATOM     23  C   UNL d   1     -11.989   4.621   7.972 -0.23 -0.00    +0.066 A 
DOCKED: ATOM     24  C   UNL d   1     -12.415   8.325   7.830 -0.14 -0.00    +0.051 C 
DOCKED: ATOM     25  N   UNL d   1     -11.732   2.129   9.575 -0.13 +0.04    -0.248 N 
DOCKED: ATOM     26  N   UNL d   1     -11.374   2.267  12.330 -0.16 +0.00    -0.248 N 
DOCKED: ATOM     27  N   UNL d   1     -11.513   5.214  12.174 -0.04 -0.01    -0.248 N 
DOCKED: ATOM     28  N   UNL d   1     -11.836   4.896   9.273 -0.16 +0.01    -0.248 N 
DOCKED: ATOM     29 FE   UNL d   1     -11.616   3.766  10.949 -0.06 -0.00    +0.000 Fe
DOCKED: ENDROOT
DOCKED: BRANCH   6  30
DOCKED: ATOM     30  C   UNL d   1     -12.432   0.529   6.228 -0.22 -0.03    +0.052 C 
DOCKED: BRANCH  30  31
DOCKED: ATOM     31  C   UNL d   1     -13.941   0.431   6.011 -0.11 -0.03    +0.115 C 
DOCKED: BRANCH  31  32
DOCKED: ATOM     32  C   UNL d   1     -14.725   0.676   7.283 -0.03 -0.02    +0.139 C 
DOCKED: ATOM     33  O   UNL d   1     -15.087  -0.276   7.959 +0.03 +0.11    -0.650 OA
DOCKED: BRANCH  32  34
DOCKED: ATOM     34  O   UNL d   1     -14.999   1.924   7.727 +0.04 +0.08    -0.776 OA
DOCKED: ATOM     35  H   UNL d   1     -14.478   2.391   8.395 +0.02 -0.01    +0.167 HD
DOCKED: ENDBRANCH  32  34
DOCKED: ENDBRANCH  31  32
DOCKED: ENDBRANCH  30  31
DOCKED: ENDBRANCH   6  30
DOCKED: BRANCH  29  36
DOCKED: ATOM     36  C   UNL d   1     -13.697   3.604  11.142 -0.06 -0.01    +0.190 C 
DOCKED: BRANCH  36  37
DOCKED: ATOM     37  O   UNL d   1     -14.868   3.366  10.415 -0.00 +0.02    -0.399 OA
DOCKED: ATOM     38  H   UNL d   1     -14.579   3.350   9.460 +0.02 -0.01    +0.209 HD
DOCKED: ENDBRANCH  36  37
DOCKED: ENDBRANCH  29  36
DOCKED: BRANCH  22  39
DOCKED: ATOM     39  C   UNL d   1     -12.487   5.930   5.744 -0.14 +0.00    +0.052 C 
DOCKED: BRANCH  39  40
DOCKED: ATOM     40  C   UNL d   1     -13.994   5.817   5.462 -0.06 -0.00    +0.115 C 
DOCKED: BRANCH  40  41
DOCKED: ATOM     41  C   UNL d   1     -14.833   5.476   6.676 -0.02 -0.00    +0.139 C 
DOCKED: ATOM     42  O   UNL d   1     -15.642   6.293   7.092 +0.01 +0.02    -0.650 OA
DOCKED: BRANCH  41  43
DOCKED: ATOM     43  O   UNL d   1     -14.775   4.259   7.260 +0.04 +0.03    -0.776 OA
DOCKED: ATOM     44  H   UNL d   1     -15.089   4.099   8.159 +0.01 -0.01    +0.167 HD
DOCKED: ENDBRANCH  41  43
DOCKED: ENDBRANCH  40  41
DOCKED: ENDBRANCH  39  40
DOCKED: ENDBRANCH  22  39
DOCKED: BRANCH  12  45
DOCKED: ATOM     45  C   UNL d   1     -10.699   1.549  15.928 -0.17 +0.00    +0.004 C 
DOCKED: ATOM     46  C   UNL d   1      -9.631   2.022  16.564 -0.20 +0.00    +0.012 C 
DOCKED: ENDBRANCH  12  45
DOCKED: BRANCH  17  47
DOCKED: ATOM     47  C   UNL d   1     -11.976   8.722  13.101 -0.08 -0.00    +0.004 C 
DOCKED: ATOM     48  C   UNL d   1     -11.107   9.645  12.681 -0.13 -0.00    +0.012 C 
DOCKED: ENDBRANCH  17  47
DOCKED: TORSDOF 12
DOCKED: TER
DOCKED: ENDMDL
________________________________________________________________________________


	BEGINNING GENETIC ALGORITHM DOCKING 92 of 100
Run: 92 Seed: 1170791362 1492259463 [ Run 92 of 100 GA/GALS ]
Beginning LAMARCKIAN GENETIC ALGORITHM (LGA), with a maximum of 25000000 energy evaluations.

Final-Value: -10.094


	FINAL GENETIC ALGORITHM DOCKED STATE
	_______________________________________________


Detailed state:  trans 4.250 14.763 -12.518 quatxyzw -0.423544 0.250097 -0.261884 -0.830348 center 8.781 34.984 -0.736 ntor 12 52.4887 115.5019 26.6573 129.4416 -3.3187 163.9832 179.2499 174.0915 -94.7325 -42.0013 -16.5051 174.9760
State:	  4.250  14.763 -12.518  -0.760  0.449 -0.470 -67.731     52.49  115.50   26.66  129.44   -3.32  163.98  179.25  174.09  -94.73  -42.00  -16.51  174.98

DOCKED: MODEL       92
DOCKED: USER    Run = 92
DOCKED: USER    DPF = D:/Protein_go_brrr/autodock/final/mut_N102T/heme_Co/dock.dpf
DOCKED: USER  
DOCKED: USER    Estimated Free Energy of Binding    =   -5.68 kcal/mol  [=(1)+(2)+(3)-(4)]
DOCKED: USER    Estimated Inhibition Constant, Ki   =   68.57 uM (micromolar)  [Temperature = 298.15 K]
DOCKED: USER    
DOCKED: USER    (1) Final Intermolecular Energy     =   -9.26 kcal/mol
DOCKED: USER        vdW + Hbond + desolv Energy     =   -8.44 kcal/mol
DOCKED: USER        Electrostatic Energy            =   -0.82 kcal/mol
DOCKED: USER    (2) Final Total Internal Energy     =   -0.83 kcal/mol
DOCKED: USER    (3) Torsional Free Energy           =   +3.58 kcal/mol
DOCKED: USER    (4) Unbound System's Energy  [=(2)] =   -0.83 kcal/mol
DOCKED: USER    
DOCKED: USER    
DOCKED: USER    NEWDPF move heme_Co_opt.pdbqt
DOCKED: USER    NEWDPF about 8.781000 34.984000 -0.736000
DOCKED: USER    NEWDPF tran0 4.249904 14.763304 -12.518480
DOCKED: USER    NEWDPF quaternion0 -0.423544 0.250097 -0.261884 -0.830348
DOCKED: USER    NEWDPF axisangle0 -0.760069 0.448810 -0.469963 -67.730945
DOCKED: USER    NEWDPF quat0 -0.760069 0.448810 -0.469963 -67.730945
DOCKED: USER    NEWDPF dihe0 52.49 115.50 26.66 129.44 -3.32 163.98 179.25 174.09 -94.73 -42.00 -16.51 174.98 
DOCKED: USER  keepresnum = 1 
DOCKED: USER  
DOCKED: REMARK  12 active torsions:
DOCKED: REMARK  status: ('A' for Active; 'I' for Inactive)
DOCKED: REMARK    1  A    between atoms: C_6  and  C_10 
DOCKED: REMARK    2  A    between atoms: C_10  and  C_11 
DOCKED: REMARK    3  A    between atoms: C_11  and  C_12 
DOCKED: REMARK    4  A    between atoms: C_12  and  O_14 
DOCKED: REMARK    5  A    between atoms: C_17  and  C_20 
DOCKED: REMARK    6  A    between atoms: C_24  and  C_27 
DOCKED: REMARK    7  A    between atoms: C_31  and  C_34 
DOCKED: REMARK    8  A    between atoms: C_34  and  C_35 
DOCKED: REMARK    9  A    between atoms: C_35  and  C_36 
DOCKED: REMARK   10  A    between atoms: C_36  and  O_38 
DOCKED: REMARK   11  A    between atoms: FE_43  and  C_44 
DOCKED: REMARK   12  A    between atoms: C_44  and  O_45 
DOCKED: USER                              x       y       z     vdW  Elec       q    Type
DOCKED: USER                           _______ _______ _______ _____ _____    ______ ____
DOCKED: ROOT
DOCKED: ATOM      1  C   UNL d   1       2.392  15.780 -12.999 -0.22 -0.01    +0.064 A 
DOCKED: ATOM      2  C   UNL d   1       5.107  15.763  -9.096 -0.22 -0.02    +0.064 C 
DOCKED: ATOM      3  C   UNL d   1       7.951  12.453 -11.043 -0.20 -0.02    +0.064 A 
DOCKED: ATOM      4  C   UNL d   1       5.419  12.735 -15.187 -0.21 -0.05    +0.064 A 
DOCKED: ATOM      5  C   UNL d   1       2.904  15.992 -11.776 -0.20 -0.02    +0.066 A 
DOCKED: ATOM      6  C   UNL d   1       2.379  16.966 -10.904 -0.14 +0.01    -0.021 A 
DOCKED: ATOM      7  C   UNL d   1       3.185  16.972  -9.782 -0.16 +0.01    -0.025 A 
DOCKED: ATOM      8  C   UNL d   1       4.156  15.992 -10.010 -0.19 -0.02    +0.066 A 
DOCKED: ATOM      9  C   UNL d   1       3.058  17.863  -8.537 -0.14 -0.01    +0.051 C 
DOCKED: ATOM     10  C   UNL d   1       6.131  14.757  -9.231 -0.22 -0.03    +0.066 A 
DOCKED: ATOM     11  C   UNL d   1       7.071  14.372  -8.249 -0.17 +0.01    -0.021 A 
DOCKED: ATOM     12  C   UNL d   1       7.885  13.403  -8.842 -0.19 -0.00    +0.000 A 
DOCKED: ATOM     13  C   UNL d   1       7.376  13.260 -10.133 -0.21 -0.03    +0.070 A 
DOCKED: ATOM     14  C   UNL d   1       7.109  14.842  -6.818 -0.14 -0.05    +0.052 C 
DOCKED: ATOM     15  C   UNL d   1       7.591  12.226 -12.428 -0.21 -0.02    +0.066 A 
DOCKED: ATOM     16  C   UNL d   1       8.315  11.490 -13.356 -0.21 +0.01    -0.021 A 
DOCKED: ATOM     17  C   UNL d   1       7.590  11.570 -14.554 -0.25 -0.00    +0.000 A 
DOCKED: ATOM     18  C   UNL d   1       6.468  12.337 -14.256 -0.26 -0.04    +0.070 A 
DOCKED: ATOM     19  C   UNL d   1       9.616  10.769 -13.082 -0.23 -0.01    +0.052 C 
DOCKED: ATOM     20  C   UNL d   1       4.366  13.551 -14.942 -0.28 -0.03    +0.066 A 
DOCKED: ATOM     21  C   UNL d   1       3.443  13.889 -15.929 -0.30 +0.01    -0.025 A 
DOCKED: ATOM     22  C   UNL d   1       2.542  14.743 -15.320 -0.30 +0.00    -0.021 A 
DOCKED: ATOM     23  C   UNL d   1       2.970  14.894 -13.984 -0.26 -0.01    +0.066 A 
DOCKED: ATOM     24  C   UNL d   1       3.430  13.437 -17.387 -0.33 -0.02    +0.051 C 
DOCKED: ATOM     25  N   UNL d   1       4.003  15.364 -11.234 -0.13 +0.11    -0.248 N 
DOCKED: ATOM     26  N   UNL d   1       6.281  14.037 -10.348 -0.08 +0.11    -0.248 N 
DOCKED: ATOM     27  N   UNL d   1       6.518  12.735 -12.990 -0.14 +0.11    -0.248 N 
DOCKED: ATOM     28  N   UNL d   1       4.075  14.176 -13.752 -0.16 +0.10    -0.248 N 
DOCKED: ATOM     29 FE   UNL d   1       5.333  13.971 -12.167 -0.06 -0.00    +0.000 Fe
DOCKED: ENDROOT
DOCKED: BRANCH   6  30
DOCKED: ATOM     30  C   UNL d   1       1.206  17.899 -11.184 -0.08 -0.01    +0.052 C 
DOCKED: BRANCH  30  31
DOCKED: ATOM     31  C   UNL d   1      -0.100  17.109 -11.270 -0.13 -0.01    +0.115 C 
DOCKED: BRANCH  31  32
DOCKED: ATOM     32  C   UNL d   1      -0.704  16.843  -9.908 -0.19 -0.02    +0.139 C 
DOCKED: ATOM     33  O   UNL d   1      -0.837  17.766  -9.118 -0.02 +0.06    -0.650 OA
DOCKED: BRANCH  32  34
DOCKED: ATOM     34  O   UNL d   1      -1.149  15.616  -9.548 -0.04 +0.14    -0.776 OA
DOCKED: ATOM     35  H   UNL d   1      -0.646  14.799  -9.665 -0.48 -0.07    +0.167 HD
DOCKED: ENDBRANCH  32  34
DOCKED: ENDBRANCH  31  32
DOCKED: ENDBRANCH  30  31
DOCKED: ENDBRANCH   6  30
DOCKED: BRANCH  29  36
DOCKED: ATOM     36  C   UNL d   1       6.443  15.631 -12.804 -0.05 -0.05    +0.190 C 
DOCKED: BRANCH  36  37
DOCKED: ATOM     37  O   UNL d   1       6.564  17.016 -12.651 +0.00 +0.06    -0.399 OA
DOCKED: ATOM     38  H   UNL d   1       5.876  17.260 -11.971 +0.02 -0.04    +0.209 HD
DOCKED: ENDBRANCH  36  37
DOCKED: ENDBRANCH  29  36
DOCKED: BRANCH  22  39
DOCKED: ATOM     39  C   UNL d   1       1.373  15.424 -16.007 -0.28 +0.01    +0.052 C 
DOCKED: BRANCH  39  40
DOCKED: ATOM     40  C   UNL d   1       1.834  16.709 -16.715 -0.15 +0.03    +0.115 C 
DOCKED: BRANCH  40  41
DOCKED: ATOM     41  C   UNL d   1       1.337  16.851 -18.138 -0.10 +0.08    +0.139 C 
DOCKED: ATOM     42  O   UNL d   1       1.442  15.904 -18.906 +0.03 -0.36    -0.650 OA
DOCKED: BRANCH  41  43
DOCKED: ATOM     43  O   UNL d   1       0.700  17.966 -18.561 -0.08 -0.83    -0.776 OA
DOCKED: ATOM     44  H   UNL d   1       0.910  18.844 -18.219 +0.01 +0.12    +0.167 HD
DOCKED: ENDBRANCH  41  43
DOCKED: ENDBRANCH  40  41
DOCKED: ENDBRANCH  39  40
DOCKED: ENDBRANCH  22  39
DOCKED: BRANCH  12  45
DOCKED: ATOM     45  C   UNL d   1       9.067  12.588  -8.335 -0.26 -0.00    +0.004 C 
DOCKED: ATOM     46  C   UNL d   1       9.233  11.271  -8.241 -0.40 -0.01    +0.012 C 
DOCKED: ENDBRANCH  12  45
DOCKED: BRANCH  17  47
DOCKED: ATOM     47  C   UNL d   1       7.918  11.027 -15.906 -0.22 -0.00    +0.004 C 
DOCKED: ATOM     48  C   UNL d   1       9.163  10.774 -16.317 -0.22 -0.00    +0.012 C 
DOCKED: ENDBRANCH  17  47
DOCKED: TORSDOF 12
DOCKED: TER
DOCKED: ENDMDL
________________________________________________________________________________


	BEGINNING GENETIC ALGORITHM DOCKING 93 of 100
Run: 93 Seed: 1246883931 998457066 [ Run 93 of 100 GA/GALS ]
Beginning LAMARCKIAN GENETIC ALGORITHM (LGA), with a maximum of 25000000 energy evaluations.

Final-Value: -10.977


	FINAL GENETIC ALGORITHM DOCKED STATE
	_______________________________________________


Detailed state:  trans 5.387 13.584 -13.048 quatxyzw -0.544729 -0.480987 -0.306477 -0.614812 center 8.781 34.984 -0.736 ntor 12 45.0436 112.0776 -150.3850 -101.0795 152.4331 110.9642 26.7045 116.9682 175.6849 144.7202 -176.7603 164.0431
State:	  5.387  13.584 -13.048  -0.691 -0.610 -0.389 -104.123     45.04  112.08 -150.39 -101.08  152.43  110.96   26.70  116.97  175.68  144.72 -176.76  164.04

DOCKED: MODEL       93
DOCKED: USER    Run = 93
DOCKED: USER    DPF = D:/Protein_go_brrr/autodock/final/mut_N102T/heme_Co/dock.dpf
DOCKED: USER  
DOCKED: USER    Estimated Free Energy of Binding    =   -3.44 kcal/mol  [=(1)+(2)+(3)-(4)]
DOCKED: USER    Estimated Inhibition Constant, Ki   =    3.01 mM (millimolar)  [Temperature = 298.15 K]
DOCKED: USER    
DOCKED: USER    (1) Final Intermolecular Energy     =   -7.02 kcal/mol
DOCKED: USER        vdW + Hbond + desolv Energy     =   -7.51 kcal/mol
DOCKED: USER        Electrostatic Energy            =   +0.49 kcal/mol
DOCKED: USER    (2) Final Total Internal Energy     =   -3.96 kcal/mol
DOCKED: USER    (3) Torsional Free Energy           =   +3.58 kcal/mol
DOCKED: USER    (4) Unbound System's Energy  [=(2)] =   -3.96 kcal/mol
DOCKED: USER    
DOCKED: USER    
DOCKED: USER    NEWDPF move heme_Co_opt.pdbqt
DOCKED: USER    NEWDPF about 8.781000 34.984000 -0.736000
DOCKED: USER    NEWDPF tran0 5.386852 13.583739 -13.047512
DOCKED: USER    NEWDPF quaternion0 -0.544729 -0.480987 -0.306477 -0.614812
DOCKED: USER    NEWDPF axisangle0 -0.690690 -0.609868 -0.388598 -104.123450
DOCKED: USER    NEWDPF quat0 -0.690690 -0.609868 -0.388598 -104.123450
DOCKED: USER    NEWDPF dihe0 45.04 112.08 -150.39 -101.08 152.43 110.96 26.70 116.97 175.68 144.72 -176.76 164.04 
DOCKED: USER  keepresnum = 1 
DOCKED: USER  
DOCKED: REMARK  12 active torsions:
DOCKED: REMARK  status: ('A' for Active; 'I' for Inactive)
DOCKED: REMARK    1  A    between atoms: C_6  and  C_10 
DOCKED: REMARK    2  A    between atoms: C_10  and  C_11 
DOCKED: REMARK    3  A    between atoms: C_11  and  C_12 
DOCKED: REMARK    4  A    between atoms: C_12  and  O_14 
DOCKED: REMARK    5  A    between atoms: C_17  and  C_20 
DOCKED: REMARK    6  A    between atoms: C_24  and  C_27 
DOCKED: REMARK    7  A    between atoms: C_31  and  C_34 
DOCKED: REMARK    8  A    between atoms: C_34  and  C_35 
DOCKED: REMARK    9  A    between atoms: C_35  and  C_36 
DOCKED: REMARK   10  A    between atoms: C_36  and  O_38 
DOCKED: REMARK   11  A    between atoms: FE_43  and  C_44 
DOCKED: REMARK   12  A    between atoms: C_44  and  O_45 
DOCKED: USER                              x       y       z     vdW  Elec       q    Type
DOCKED: USER                           _______ _______ _______ _____ _____    ______ ____
DOCKED: ROOT
DOCKED: ATOM      1  C   UNL d   1       5.379  12.588 -14.977 -0.20 -0.05    +0.064 A 
DOCKED: ATOM      2  C   UNL d   1       2.461  15.795 -13.025 -0.24 -0.01    +0.064 C 
DOCKED: ATOM      3  C   UNL d   1       4.886  15.554  -8.915 -0.24 -0.02    +0.064 A 
DOCKED: ATOM      4  C   UNL d   1       8.109  12.571 -11.006 -0.17 -0.02    +0.064 A 
DOCKED: ATOM      5  C   UNL d   1       4.382  13.455 -14.734 -0.29 -0.03    +0.066 A 
DOCKED: ATOM      6  C   UNL d   1       3.476  13.852 -15.737 -0.28 +0.01    -0.021 A 
DOCKED: ATOM      7  C   UNL d   1       2.646  14.800 -15.171 -0.29 +0.00    -0.025 A 
DOCKED: ATOM      8  C   UNL d   1       3.070  14.928 -13.844 -0.25 -0.02    +0.066 A 
DOCKED: ATOM      9  C   UNL d   1       1.494  15.564 -15.841 -0.27 +0.01    +0.051 C 
DOCKED: ATOM     10  C   UNL d   1       2.810  15.976 -11.638 -0.21 -0.02    +0.066 A 
DOCKED: ATOM     11  C   UNL d   1       2.121  16.765 -10.691 -0.18 +0.01    -0.021 A 
DOCKED: ATOM     12  C   UNL d   1       2.848  16.673  -9.500 -0.23 -0.00    +0.000 A 
DOCKED: ATOM     13  C   UNL d   1       3.915  15.828  -9.804 -0.22 -0.03    +0.070 A 
DOCKED: ATOM     14  C   UNL d   1       0.807  17.471 -10.904 -0.13 -0.01    +0.052 C 
DOCKED: ATOM     15  C   UNL d   1       6.081  14.750  -9.076 -0.23 -0.03    +0.066 A 
DOCKED: ATOM     16  C   UNL d   1       7.118  14.625  -8.163 -0.18 +0.01    -0.021 A 
DOCKED: ATOM     17  C   UNL d   1       8.052  13.767  -8.763 -0.18 -0.00    +0.000 A 
DOCKED: ATOM     18  C   UNL d   1       7.500  13.422  -9.992 -0.19 -0.03    +0.070 A 
DOCKED: ATOM     19  C   UNL d   1       7.182  15.299  -6.811 -0.18 -0.05    +0.052 C 
DOCKED: ATOM     20  C   UNL d   1       7.631  12.290 -12.242 -0.20 -0.02    +0.066 A 
DOCKED: ATOM     21  C   UNL d   1       8.326  11.486 -13.143 -0.21 +0.01    -0.025 A 
DOCKED: ATOM     22  C   UNL d   1       7.549  11.450 -14.287 -0.26 +0.01    -0.021 A 
DOCKED: ATOM     23  C   UNL d   1       6.416  12.249 -14.029 -0.28 -0.03    +0.066 A 
DOCKED: ATOM     24  C   UNL d   1       9.674  10.802 -12.933 -0.22 -0.01    +0.051 C 
DOCKED: ATOM     25  N   UNL d   1       4.140  14.102 -13.544 -0.15 +0.11    -0.248 N 
DOCKED: ATOM     26  N   UNL d   1       3.860  15.363 -11.081 -0.15 +0.11    -0.248 N 
DOCKED: ATOM     27  N   UNL d   1       6.340  14.049 -10.157 -0.13 +0.11    -0.248 N 
DOCKED: ATOM     28  N   UNL d   1       6.462  12.762 -12.793 -0.08 +0.12    -0.248 N 
DOCKED: ATOM     29 FE   UNL d   1       5.307  14.071 -11.752 -0.06 -0.00    +0.000 Fe
DOCKED: ENDROOT
DOCKED: BRANCH   6  30
DOCKED: ATOM     30  C   UNL d   1       3.472  13.395 -17.192 -0.34 -0.02    +0.052 C 
DOCKED: BRANCH  30  31
DOCKED: ATOM     31  C   UNL d   1       4.282  14.358 -18.060 -0.13 -0.03    +0.115 C 
DOCKED: BRANCH  31  32
DOCKED: ATOM     32  C   UNL d   1       4.744  15.578 -17.292 -0.05 -0.02    +0.139 C 
DOCKED: ATOM     33  O   UNL d   1       4.161  16.641 -17.446 +0.04 -0.01    -0.650 OA
DOCKED: BRANCH  32  34
DOCKED: ATOM     34  O   UNL d   1       5.758  15.521 -16.397 +0.06 +0.14    -0.776 OA
DOCKED: ATOM     35  H   UNL d   1       6.573  15.018 -16.531 +0.02 -0.04    +0.167 HD
DOCKED: ENDBRANCH  32  34
DOCKED: ENDBRANCH  31  32
DOCKED: ENDBRANCH  30  31
DOCKED: ENDBRANCH   6  30
DOCKED: BRANCH  29  36
DOCKED: ATOM     36  C   UNL d   1       6.375  15.687 -12.554 -0.05 -0.05    +0.190 C 
DOCKED: BRANCH  36  37
DOCKED: ATOM     37  O   UNL d   1       6.968  16.158 -13.730 +0.00 +0.07    -0.399 OA
DOCKED: ATOM     38  H   UNL d   1       6.819  15.433 -14.399 +0.03 -0.04    +0.209 HD
DOCKED: ENDBRANCH  36  37
DOCKED: ENDBRANCH  29  36
DOCKED: BRANCH  22  39
DOCKED: ATOM     39  C   UNL d   1       7.914  10.737 -15.575 -0.28 -0.03    +0.052 C 
DOCKED: BRANCH  39  40
DOCKED: ATOM     40  C   UNL d   1       8.594  11.705 -16.557 -0.14 -0.04    +0.115 C 
DOCKED: BRANCH  40  41
DOCKED: ATOM     41  C   UNL d   1       7.972  13.085 -16.607 -0.07 -0.06    +0.139 C 
DOCKED: ATOM     42  O   UNL d   1       7.275  13.393 -17.564 +0.00 +0.33    -0.650 OA
DOCKED: BRANCH  41  43
DOCKED: ATOM     43  O   UNL d   1       8.092  13.956 -15.581 +0.05 +0.21    -0.776 OA
DOCKED: ATOM     44  H   UNL d   1       7.382  14.560 -15.326 +0.03 -0.04    +0.167 HD
DOCKED: ENDBRANCH  41  43
DOCKED: ENDBRANCH  40  41
DOCKED: ENDBRANCH  39  40
DOCKED: ENDBRANCH  22  39
DOCKED: BRANCH  12  45
DOCKED: ATOM     45  C   UNL d   1       2.647  17.269  -8.113 -0.15 -0.00    +0.004 C 
DOCKED: ATOM     46  C   UNL d   1       3.326  18.215  -7.470 -0.13 -0.00    +0.012 C 
DOCKED: ENDBRANCH  12  45
DOCKED: BRANCH  17  47
DOCKED: ATOM     47  C   UNL d   1       9.392  13.324  -8.274 -0.21 -0.00    +0.004 C 
DOCKED: ATOM     48  C   UNL d   1       9.784  12.048  -8.254 -0.29 -0.01    +0.012 C 
DOCKED: ENDBRANCH  17  47
DOCKED: TORSDOF 12
DOCKED: TER
DOCKED: ENDMDL
________________________________________________________________________________


	BEGINNING GENETIC ALGORITHM DOCKING 94 of 100
Run: 94 Seed: 1114141408 2115720433 [ Run 94 of 100 GA/GALS ]
Beginning LAMARCKIAN GENETIC ALGORITHM (LGA), with a maximum of 25000000 energy evaluations.

Final-Value: -9.267


	FINAL GENETIC ALGORITHM DOCKED STATE
	_______________________________________________


Detailed state:  trans -10.363 -0.766 -10.016 quatxyzw -0.148632 0.601814 -0.489489 0.613294 center 8.781 34.984 -0.736 ntor 12 68.7882 104.3242 42.4473 116.6367 132.3367 108.6644 41.4875 -41.6423 151.7220 -147.0241 -149.9511 156.8171
State:	-10.363  -0.766 -10.016  -0.188  0.762 -0.620 104.344     68.79  104.32   42.45  116.64  132.34  108.66   41.49  -41.64  151.72 -147.02 -149.95  156.82

DOCKED: MODEL       94
DOCKED: USER    Run = 94
DOCKED: USER    DPF = D:/Protein_go_brrr/autodock/final/mut_N102T/heme_Co/dock.dpf
DOCKED: USER  
DOCKED: USER    Estimated Free Energy of Binding    =   -2.21 kcal/mol  [=(1)+(2)+(3)-(4)]
DOCKED: USER    Estimated Inhibition Constant, Ki   =   24.01 mM (millimolar)  [Temperature = 298.15 K]
DOCKED: USER    
DOCKED: USER    (1) Final Intermolecular Energy     =   -5.79 kcal/mol
DOCKED: USER        vdW + Hbond + desolv Energy     =   -5.68 kcal/mol
DOCKED: USER        Electrostatic Energy            =   -0.11 kcal/mol
DOCKED: USER    (2) Final Total Internal Energy     =   -3.48 kcal/mol
DOCKED: USER    (3) Torsional Free Energy           =   +3.58 kcal/mol
DOCKED: USER    (4) Unbound System's Energy  [=(2)] =   -3.48 kcal/mol
DOCKED: USER    
DOCKED: USER    
DOCKED: USER    NEWDPF move heme_Co_opt.pdbqt
DOCKED: USER    NEWDPF about 8.781000 34.984000 -0.736000
DOCKED: USER    NEWDPF tran0 -10.363308 -0.766218 -10.015526
DOCKED: USER    NEWDPF quaternion0 -0.148632 0.601814 -0.489489 0.613294
DOCKED: USER    NEWDPF axisangle0 -0.188176 0.761930 -0.619720 104.343853
DOCKED: USER    NEWDPF quat0 -0.188176 0.761930 -0.619720 104.343853
DOCKED: USER    NEWDPF dihe0 68.79 104.32 42.45 116.64 132.34 108.66 41.49 -41.64 151.72 -147.02 -149.95 156.82 
DOCKED: USER  keepresnum = 1 
DOCKED: USER  
DOCKED: REMARK  12 active torsions:
DOCKED: REMARK  status: ('A' for Active; 'I' for Inactive)
DOCKED: REMARK    1  A    between atoms: C_6  and  C_10 
DOCKED: REMARK    2  A    between atoms: C_10  and  C_11 
DOCKED: REMARK    3  A    between atoms: C_11  and  C_12 
DOCKED: REMARK    4  A    between atoms: C_12  and  O_14 
DOCKED: REMARK    5  A    between atoms: C_17  and  C_20 
DOCKED: REMARK    6  A    between atoms: C_24  and  C_27 
DOCKED: REMARK    7  A    between atoms: C_31  and  C_34 
DOCKED: REMARK    8  A    between atoms: C_34  and  C_35 
DOCKED: REMARK    9  A    between atoms: C_35  and  C_36 
DOCKED: REMARK   10  A    between atoms: C_36  and  O_38 
DOCKED: REMARK   11  A    between atoms: FE_43  and  C_44 
DOCKED: REMARK   12  A    between atoms: C_44  and  O_45 
DOCKED: USER                              x       y       z     vdW  Elec       q    Type
DOCKED: USER                           _______ _______ _______ _____ _____    ______ ____
DOCKED: ROOT
DOCKED: ATOM      1  C   UNL d   1      -9.855  -0.688 -12.125 -0.14 +0.01    +0.064 A 
DOCKED: ATOM      2  C   UNL d   1     -10.251  -4.307  -9.066 -0.21 +0.01    +0.064 C 
DOCKED: ATOM      3  C   UNL d   1     -11.007  -1.241  -5.480 -0.09 +0.01    +0.064 A 
DOCKED: ATOM      4  C   UNL d   1     -10.990   2.450  -8.649 -0.14 +0.00    +0.064 A 
DOCKED: ATOM      5  C   UNL d   1      -9.871  -1.900 -11.546 -0.26 +0.01    +0.066 A 
DOCKED: ATOM      6  C   UNL d   1      -9.754  -3.088 -12.295 -0.29 -0.00    -0.021 A 
DOCKED: ATOM      7  C   UNL d   1      -9.892  -4.135 -11.405 -0.24 -0.00    -0.025 A 
DOCKED: ATOM      8  C   UNL d   1     -10.072  -3.542 -10.151 -0.23 +0.01    +0.066 A 
DOCKED: ATOM      9  C   UNL d   1      -9.860  -5.640 -11.710 -0.13 +0.02    +0.051 C 
DOCKED: ATOM     10  C   UNL d   1     -10.418  -3.788  -7.731 -0.17 +0.01    +0.066 A 
DOCKED: ATOM     11  C   UNL d   1     -10.470  -4.536  -6.535 -0.13 -0.00    -0.021 A 
DOCKED: ATOM     12  C   UNL d   1     -10.687  -3.617  -5.505 -0.15 +0.00    +0.000 A 
DOCKED: ATOM     13  C   UNL d   1     -10.738  -2.379  -6.145 -0.13 +0.01    +0.070 A 
DOCKED: ATOM     14  C   UNL d   1     -10.229  -6.018  -6.399 -0.10 +0.01    +0.052 C 
DOCKED: ATOM     15  C   UNL d   1     -11.150   0.109  -5.987 -0.12 +0.01    +0.066 A 
DOCKED: ATOM     16  C   UNL d   1     -11.572   1.218  -5.268 -0.13 -0.00    -0.021 A 
DOCKED: ATOM     17  C   UNL d   1     -11.571   2.285  -6.178 -0.09 +0.00    +0.000 A 
DOCKED: ATOM     18  C   UNL d   1     -11.130   1.744  -7.381 -0.12 +0.00    +0.070 A 
DOCKED: ATOM     19  C   UNL d   1     -11.947   1.223  -3.802 -0.14 +0.01    +0.052 C 
DOCKED: ATOM     20  C   UNL d   1     -10.647   1.927  -9.850 -0.18 +0.00    +0.066 A 
DOCKED: ATOM     21  C   UNL d   1     -10.581   2.701 -11.006 -0.20 -0.00    -0.025 A 
DOCKED: ATOM     22  C   UNL d   1     -10.227   1.828 -12.020 -0.27 -0.00    -0.021 A 
DOCKED: ATOM     23  C   UNL d   1     -10.106   0.553 -11.428 -0.25 +0.01    +0.066 A 
DOCKED: ATOM     24  C   UNL d   1     -10.860   4.195 -11.144 -0.10 -0.00    +0.051 C 
DOCKED: ATOM     25  N   UNL d   1     -10.058  -2.159 -10.208 -0.13 -0.04    -0.248 N 
DOCKED: ATOM     26  N   UNL d   1     -10.520  -2.478  -7.483 -0.05 -0.05    -0.248 N 
DOCKED: ATOM     27  N   UNL d   1     -10.918   0.440  -7.238 -0.03 -0.02    -0.248 N 
DOCKED: ATOM     28  N   UNL d   1     -10.361   0.607 -10.116 -0.12 -0.02    -0.248 N 
DOCKED: ATOM     29 FE   UNL d   1     -10.513  -0.780  -8.637 -0.05 +0.00    +0.000 Fe
DOCKED: ENDROOT
DOCKED: BRANCH   6  30
DOCKED: ATOM     30  C   UNL d   1      -9.598  -3.197 -13.808 -0.22 +0.01    +0.052 C 
DOCKED: BRANCH  30  31
DOCKED: ATOM     31  C   UNL d   1     -10.856  -2.693 -14.516 -0.11 +0.02    +0.115 C 
DOCKED: BRANCH  31  32
DOCKED: ATOM     32  C   UNL d   1     -12.107  -2.909 -13.692 -0.04 +0.01    +0.139 C 
DOCKED: ATOM     33  O   UNL d   1     -12.715  -3.964 -13.788 +0.02 -0.07    -0.650 OA
DOCKED: BRANCH  32  34
DOCKED: ATOM     34  O   UNL d   1     -12.553  -1.984 -12.810 +0.04 -0.05    -0.776 OA
DOCKED: ATOM     35  H   UNL d   1     -12.865  -1.103 -13.057 +0.02 +0.01    +0.167 HD
DOCKED: ENDBRANCH  32  34
DOCKED: ENDBRANCH  31  32
DOCKED: ENDBRANCH  30  31
DOCKED: ENDBRANCH   6  30
DOCKED: BRANCH  29  36
DOCKED: ATOM     36  C   UNL d   1     -12.533  -1.090  -9.102 -0.04 +0.01    +0.190 C 
DOCKED: BRANCH  36  37
DOCKED: ATOM     37  O   UNL d   1     -13.431  -1.168 -10.172 -0.00 -0.02    -0.399 OA
DOCKED: ATOM     38  H   UNL d   1     -12.907  -0.873 -10.969 +0.02 +0.01    +0.209 HD
DOCKED: ENDBRANCH  36  37
DOCKED: ENDBRANCH  29  36
DOCKED: BRANCH  22  39
DOCKED: ATOM     39  C   UNL d   1     -10.080   2.195 -13.484 -0.34 +0.00    +0.052 C 
DOCKED: BRANCH  39  40
DOCKED: ATOM     40  C   UNL d   1     -11.316   1.748 -14.282 -0.15 +0.00    +0.115 C 
DOCKED: BRANCH  40  41
DOCKED: ATOM     41  C   UNL d   1     -12.592   1.677 -13.470 -0.04 +0.00    +0.139 C 
DOCKED: ATOM     42  O   UNL d   1     -13.366   2.624 -13.487 +0.02 -0.01    -0.650 OA
DOCKED: BRANCH  41  43
DOCKED: ATOM     43  O   UNL d   1     -12.942   0.560 -12.794 +0.04 -0.03    -0.776 OA
DOCKED: ATOM     44  H   UNL d   1     -12.329   0.091 -12.214 +0.03 +0.01    +0.167 HD
DOCKED: ENDBRANCH  41  43
DOCKED: ENDBRANCH  40  41
DOCKED: ENDBRANCH  39  40
DOCKED: ENDBRANCH  22  39
DOCKED: BRANCH  12  45
DOCKED: ATOM     45  C   UNL d   1     -10.831  -3.764  -3.996 -0.16 +0.00    +0.004 C 
DOCKED: ATOM     46  C   UNL d   1     -10.004  -3.427  -3.010 -0.27 +0.00    +0.012 C 
DOCKED: ENDBRANCH  12  45
DOCKED: BRANCH  17  47
DOCKED: ATOM     47  C   UNL d   1     -11.993   3.704  -5.985 -0.04 +0.00    +0.004 C 
DOCKED: ATOM     48  C   UNL d   1     -11.141   4.732  -5.976 -0.06 +0.00    +0.012 C 
DOCKED: ENDBRANCH  17  47
DOCKED: TORSDOF 12
DOCKED: TER
DOCKED: ENDMDL
________________________________________________________________________________


	BEGINNING GENETIC ALGORITHM DOCKING 95 of 100
Run: 95 Seed: 1616115464 1259458057 [ Run 95 of 100 GA/GALS ]
Beginning LAMARCKIAN GENETIC ALGORITHM (LGA), with a maximum of 25000000 energy evaluations.

Final-Value: -8.998


	FINAL GENETIC ALGORITHM DOCKED STATE
	_______________________________________________


Detailed state:  trans -5.281 14.801 -19.112 quatxyzw 0.083846 -0.447027 0.509479 -0.730457 center 8.781 34.984 -0.736 ntor 12 -150.7937 126.3578 -41.1514 21.6382 137.7300 111.5619 46.7876 -55.6961 161.5253 -172.2871 -160.6895 -24.8136
State:	 -5.281  14.801 -19.112   0.123 -0.655  0.746 -86.151   -150.79  126.36  -41.15   21.64  137.73  111.56   46.79  -55.70  161.53 -172.29 -160.69  -24.81

DOCKED: MODEL       95
DOCKED: USER    Run = 95
DOCKED: USER    DPF = D:/Protein_go_brrr/autodock/final/mut_N102T/heme_Co/dock.dpf
DOCKED: USER  
DOCKED: USER    Estimated Free Energy of Binding    =   -3.18 kcal/mol  [=(1)+(2)+(3)-(4)]
DOCKED: USER    Estimated Inhibition Constant, Ki   =    4.68 mM (millimolar)  [Temperature = 298.15 K]
DOCKED: USER    
DOCKED: USER    (1) Final Intermolecular Energy     =   -6.76 kcal/mol
DOCKED: USER        vdW + Hbond + desolv Energy     =   -4.88 kcal/mol
DOCKED: USER        Electrostatic Energy            =   -1.88 kcal/mol
DOCKED: USER    (2) Final Total Internal Energy     =   -2.24 kcal/mol
DOCKED: USER    (3) Torsional Free Energy           =   +3.58 kcal/mol
DOCKED: USER    (4) Unbound System's Energy  [=(2)] =   -2.24 kcal/mol
DOCKED: USER    
DOCKED: USER    
DOCKED: USER    NEWDPF move heme_Co_opt.pdbqt
DOCKED: USER    NEWDPF about 8.781000 34.984000 -0.736000
DOCKED: USER    NEWDPF tran0 -5.280769 14.801096 -19.111501
DOCKED: USER    NEWDPF quaternion0 0.083846 -0.447027 0.509479 -0.730457
DOCKED: USER    NEWDPF axisangle0 0.122769 -0.654546 0.745988 -86.150531
DOCKED: USER    NEWDPF quat0 0.122769 -0.654546 0.745988 -86.150531
DOCKED: USER    NEWDPF dihe0 -150.79 126.36 -41.15 21.64 137.73 111.56 46.79 -55.70 161.53 -172.29 -160.69 -24.81 
DOCKED: USER  keepresnum = 1 
DOCKED: USER  
DOCKED: REMARK  12 active torsions:
DOCKED: REMARK  status: ('A' for Active; 'I' for Inactive)
DOCKED: REMARK    1  A    between atoms: C_6  and  C_10 
DOCKED: REMARK    2  A    between atoms: C_10  and  C_11 
DOCKED: REMARK    3  A    between atoms: C_11  and  C_12 
DOCKED: REMARK    4  A    between atoms: C_12  and  O_14 
DOCKED: REMARK    5  A    between atoms: C_17  and  C_20 
DOCKED: REMARK    6  A    between atoms: C_24  and  C_27 
DOCKED: REMARK    7  A    between atoms: C_31  and  C_34 
DOCKED: REMARK    8  A    between atoms: C_34  and  C_35 
DOCKED: REMARK    9  A    between atoms: C_35  and  C_36 
DOCKED: REMARK   10  A    between atoms: C_36  and  O_38 
DOCKED: REMARK   11  A    between atoms: FE_43  and  C_44 
DOCKED: REMARK   12  A    between atoms: C_44  and  O_45 
DOCKED: USER                              x       y       z     vdW  Elec       q    Type
DOCKED: USER                           _______ _______ _______ _____ _____    ______ ____
DOCKED: ROOT
DOCKED: ATOM      1  C   UNL d   1      -5.364  14.230 -21.205 -0.08 +0.02    +0.064 A 
DOCKED: ATOM      2  C   UNL d   1      -5.203  11.672 -17.200 -0.32 +0.00    +0.064 C 
DOCKED: ATOM      3  C   UNL d   1      -4.695  15.666 -14.626 -0.09 +0.01    +0.064 A 
DOCKED: ATOM      4  C   UNL d   1      -5.245  18.323 -18.663 -0.07 +0.04    +0.064 A 
DOCKED: ATOM      5  C   UNL d   1      -5.321  13.236 -20.303 -0.11 +0.01    +0.066 A 
DOCKED: ATOM      6  C   UNL d   1      -5.510  11.888 -20.667 -0.11 -0.00    -0.021 A 
DOCKED: ATOM      7  C   UNL d   1      -5.485  11.153 -19.498 -0.21 -0.00    -0.025 A 
DOCKED: ATOM      8  C   UNL d   1      -5.266  12.080 -18.474 -0.21 +0.01    +0.066 A 
DOCKED: ATOM      9  C   UNL d   1      -5.660   9.635 -19.335 -0.18 +0.01    +0.051 C 
DOCKED: ATOM     10  C   UNL d   1      -4.955  12.549 -16.083 -0.24 -0.00    +0.066 A 
DOCKED: ATOM     11  C   UNL d   1      -4.738  12.166 -14.741 -0.26 +0.00    -0.021 A 
DOCKED: ATOM     12  C   UNL d   1      -4.589  13.350 -14.013 -0.21 -0.00    +0.000 A 
DOCKED: ATOM     13  C   UNL d   1      -4.712  14.364 -14.963 -0.16 +0.01    +0.070 A 
DOCKED: ATOM     14  C   UNL d   1      -4.591  10.757 -14.228 -0.37 -0.02    +0.052 C 
DOCKED: ATOM     15  C   UNL d   1      -4.860  16.836 -15.465 -0.07 +0.01    +0.066 A 
DOCKED: ATOM     16  C   UNL d   1      -4.977  18.149 -15.033 -0.03 -0.00    -0.021 A 
DOCKED: ATOM     17  C   UNL d   1      -5.139  18.919 -16.193 -0.04 +0.00    +0.000 A 
DOCKED: ATOM     18  C   UNL d   1      -5.090  18.013 -17.247 -0.07 +0.03    +0.070 A 
DOCKED: ATOM     19  C   UNL d   1      -4.935  18.605 -13.591 -0.01 +0.00    +0.052 C 
DOCKED: ATOM     20  C   UNL d   1      -5.287  17.450 -19.698 -0.06 +0.05    +0.066 A 
DOCKED: ATOM     21  C   UNL d   1      -5.477  17.865 -21.014 -0.08 -0.02    -0.025 A 
DOCKED: ATOM     22  C   UNL d   1      -5.487  16.709 -21.773 -0.07 -0.01    -0.021 A 
DOCKED: ATOM     23  C   UNL d   1      -5.313  15.636 -20.873 -0.10 +0.03    +0.066 A 
DOCKED: ATOM     24  C   UNL d   1      -5.661  19.293 -21.523 -0.04 +0.03    +0.051 C 
DOCKED: ATOM     25  N   UNL d   1      -5.154  13.378 -18.944 -0.11 -0.05    -0.248 N 
DOCKED: ATOM     26  N   UNL d   1      -4.877  13.877 -16.222 -0.14 -0.03    -0.248 N 
DOCKED: ATOM     27  N   UNL d   1      -4.954  16.779 -16.775 -0.07 -0.08    -0.248 N 
DOCKED: ATOM     28  N   UNL d   1      -5.194  16.080 -19.616 -0.07 -0.14    -0.248 N 
DOCKED: ATOM     29 FE   UNL d   1      -5.048  15.181 -17.798 -0.03 +0.00    +0.000 Fe
DOCKED: ENDROOT
DOCKED: BRANCH   6  30
DOCKED: ATOM     30  C   UNL d   1      -5.784  11.354 -22.069 -0.06 +0.00    +0.052 C 
DOCKED: BRANCH  30  31
DOCKED: ATOM     31  C   UNL d   1      -7.236  11.614 -22.469 -0.02 +0.01    +0.115 C 
DOCKED: BRANCH  31  32
DOCKED: ATOM     32  C   UNL d   1      -8.130  11.857 -21.272 -0.02 +0.01    +0.139 C 
DOCKED: ATOM     33  O   UNL d   1      -8.581  10.904 -20.656 +0.01 -0.05    -0.650 OA
DOCKED: BRANCH  32  34
DOCKED: ATOM     34  O   UNL d   1      -8.410  13.104 -20.826 +0.02 -0.07    -0.776 OA
DOCKED: ATOM     35  H   UNL d   1      -8.663  13.313 -19.917 +0.01 +0.01    +0.167 HD
DOCKED: ENDBRANCH  32  34
DOCKED: ENDBRANCH  31  32
DOCKED: ENDBRANCH  30  31
DOCKED: ENDBRANCH   6  30
DOCKED: BRANCH  29  36
DOCKED: ATOM     36  C   UNL d   1      -7.137  15.079 -17.654 -0.03 +0.03    +0.190 C 
DOCKED: BRANCH  36  37
DOCKED: ATOM     37  O   UNL d   1      -8.293  14.818 -18.396 +0.00 -0.04    -0.399 OA
DOCKED: ATOM     38  H   UNL d   1      -7.967  14.402 -19.242 +0.01 +0.02    +0.209 HD
DOCKED: ENDBRANCH  36  37
DOCKED: ENDBRANCH  29  36
DOCKED: BRANCH  22  39
DOCKED: ATOM     39  C   UNL d   1      -5.717  16.642 -23.271 -0.03 +0.02    +0.052 C 
DOCKED: BRANCH  39  40
DOCKED: ATOM     40  C   UNL d   1      -4.455  17.077 -24.034 -0.03 +0.05    +0.115 C 
DOCKED: BRANCH  40  41
DOCKED: ATOM     41  C   UNL d   1      -3.275  17.417 -23.147 +0.09 +0.15    +0.139 C 
DOCKED: ATOM     42  O   UNL d   1      -2.565  16.515 -22.725 -0.57 -0.95    -0.650 OA
DOCKED: BRANCH  41  43
DOCKED: ATOM     43  O   UNL d   1      -2.933  18.697 -22.881 -0.10 -1.09    -0.776 OA
DOCKED: ATOM     44  H   UNL d   1      -3.031  19.406 -23.529 +0.00 +0.13    +0.167 HD
DOCKED: ENDBRANCH  41  43
DOCKED: ENDBRANCH  40  41
DOCKED: ENDBRANCH  39  40
DOCKED: ENDBRANCH  22  39
DOCKED: BRANCH  12  45
DOCKED: ATOM     45  C   UNL d   1      -4.327  13.638 -12.541 -0.22 -0.00    +0.004 C 
DOCKED: ATOM     46  C   UNL d   1      -3.937  12.831 -11.557 -0.31 -0.00    +0.012 C 
DOCKED: ENDBRANCH  12  45
DOCKED: BRANCH  17  47
DOCKED: ATOM     47  C   UNL d   1      -5.375  20.386 -16.340 -0.01 +0.00    +0.004 C 
DOCKED: ATOM     48  C   UNL d   1      -4.515  21.215 -16.937 -0.02 +0.00    +0.012 C 
DOCKED: ENDBRANCH  17  47
DOCKED: TORSDOF 12
DOCKED: TER
DOCKED: ENDMDL
________________________________________________________________________________


	BEGINNING GENETIC ALGORITHM DOCKING 96 of 100
Run: 96 Seed: 740938225 1164037284 [ Run 96 of 100 GA/GALS ]
Beginning LAMARCKIAN GENETIC ALGORITHM (LGA), with a maximum of 25000000 energy evaluations.

Final-Value: -8.767


	FINAL GENETIC ALGORITHM DOCKED STATE
	_______________________________________________


Detailed state:  trans 10.076 17.975 8.391 quatxyzw 0.231998 0.259473 0.454310 0.820032 center 8.781 34.984 -0.736 ntor 12 140.0348 128.3792 -52.7859 115.4645 146.3496 132.5944 -130.1827 -78.5470 -127.3047 -127.6969 180.0000 -55.7702
State:	 10.076  17.975   8.391   0.405  0.453  0.794 69.824    140.03  128.38  -52.79  115.46  146.35  132.59 -130.18  -78.55 -127.30 -127.70  180.00  -55.77

DOCKED: MODEL       96
DOCKED: USER    Run = 96
DOCKED: USER    DPF = D:/Protein_go_brrr/autodock/final/mut_N102T/heme_Co/dock.dpf
DOCKED: USER  
DOCKED: USER    Estimated Free Energy of Binding    =   -3.08 kcal/mol  [=(1)+(2)+(3)-(4)]
DOCKED: USER    Estimated Inhibition Constant, Ki   =    5.56 mM (millimolar)  [Temperature = 298.15 K]
DOCKED: USER    
DOCKED: USER    (1) Final Intermolecular Energy     =   -6.66 kcal/mol
DOCKED: USER        vdW + Hbond + desolv Energy     =   -4.92 kcal/mol
DOCKED: USER        Electrostatic Energy            =   -1.74 kcal/mol
DOCKED: USER    (2) Final Total Internal Energy     =   -2.11 kcal/mol
DOCKED: USER    (3) Torsional Free Energy           =   +3.58 kcal/mol
DOCKED: USER    (4) Unbound System's Energy  [=(2)] =   -2.11 kcal/mol
DOCKED: USER    
DOCKED: USER    
DOCKED: USER    NEWDPF move heme_Co_opt.pdbqt
DOCKED: USER    NEWDPF about 8.781000 34.984000 -0.736000
DOCKED: USER    NEWDPF tran0 10.075681 17.974909 8.391320
DOCKED: USER    NEWDPF quaternion0 0.231998 0.259473 0.454310 0.820032
DOCKED: USER    NEWDPF axisangle0 0.405366 0.453373 0.793808 69.823965
DOCKED: USER    NEWDPF quat0 0.405366 0.453373 0.793808 69.823965
DOCKED: USER    NEWDPF dihe0 140.03 128.38 -52.79 115.46 146.35 132.59 -130.18 -78.55 -127.30 -127.70 180.00 -55.77 
DOCKED: USER  keepresnum = 1 
DOCKED: USER  
DOCKED: REMARK  12 active torsions:
DOCKED: REMARK  status: ('A' for Active; 'I' for Inactive)
DOCKED: REMARK    1  A    between atoms: C_6  and  C_10 
DOCKED: REMARK    2  A    between atoms: C_10  and  C_11 
DOCKED: REMARK    3  A    between atoms: C_11  and  C_12 
DOCKED: REMARK    4  A    between atoms: C_12  and  O_14 
DOCKED: REMARK    5  A    between atoms: C_17  and  C_20 
DOCKED: REMARK    6  A    between atoms: C_24  and  C_27 
DOCKED: REMARK    7  A    between atoms: C_31  and  C_34 
DOCKED: REMARK    8  A    between atoms: C_34  and  C_35 
DOCKED: REMARK    9  A    between atoms: C_35  and  C_36 
DOCKED: REMARK   10  A    between atoms: C_36  and  O_38 
DOCKED: REMARK   11  A    between atoms: FE_43  and  C_44 
DOCKED: REMARK   12  A    between atoms: C_44  and  O_45 
DOCKED: USER                              x       y       z     vdW  Elec       q    Type
DOCKED: USER                           _______ _______ _______ _____ _____    ______ ____
DOCKED: ROOT
DOCKED: ATOM      1  C   UNL d   1       9.814  18.899   6.444 -0.05 +0.01    +0.064 A 
DOCKED: ATOM      2  C   UNL d   1       7.280  19.139  10.460 -0.21 -0.01    +0.064 C 
DOCKED: ATOM      3  C   UNL d   1      10.113  15.869  12.487 -0.18 -0.00    +0.064 A 
DOCKED: ATOM      4  C   UNL d   1      12.947  15.891   8.533 -0.13 +0.02    +0.064 A 
DOCKED: ATOM      5  C   UNL d   1       8.892  19.178   7.380 -0.07 +0.00    +0.066 A 
DOCKED: ATOM      6  C   UNL d   1       7.905  20.164   7.186 -0.06 +0.00    -0.021 A 
DOCKED: ATOM      7  C   UNL d   1       7.187  20.246   8.363 -0.12 +0.01    -0.025 A 
DOCKED: ATOM      8  C   UNL d   1       7.755  19.295   9.218 -0.15 -0.01    +0.066 A 
DOCKED: ATOM      9  C   UNL d   1       6.009  21.178   8.685 -0.14 -0.03    +0.051 C 
DOCKED: ATOM     10  C   UNL d   1       7.783  18.169  11.400 -0.21 -0.01    +0.066 A 
DOCKED: ATOM     11  C   UNL d   1       7.238  17.859  12.666 -0.22 +0.01    -0.021 A 
DOCKED: ATOM     12  C   UNL d   1       8.081  16.900  13.233 -0.21 -0.00    +0.000 A 
DOCKED: ATOM     13  C   UNL d   1       9.068  16.687  12.270 -0.19 -0.01    +0.070 A 
DOCKED: ATOM     14  C   UNL d   1       5.945  18.386  13.233 -0.11 -0.02    +0.052 C 
DOCKED: ATOM     15  C   UNL d   1      11.244  15.574  11.629 -0.18 -0.00    +0.066 A 
DOCKED: ATOM     16  C   UNL d   1      12.365  14.832  11.972 -0.17 -0.00    -0.021 A 
DOCKED: ATOM     17  C   UNL d   1      13.186  14.837  10.835 -0.19 +0.00    +0.000 A 
DOCKED: ATOM     18  C   UNL d   1      12.491  15.571   9.880 -0.13 +0.01    +0.070 A 
DOCKED: ATOM     19  C   UNL d   1      12.605  14.173  13.312 -0.12 +0.00    +0.052 C 
DOCKED: ATOM     20  C   UNL d   1      12.327  16.675   7.618 -0.12 +0.03    +0.066 A 
DOCKED: ATOM     21  C   UNL d   1      12.882  16.938   6.368 -0.07 -0.01    -0.025 A 
DOCKED: ATOM     22  C   UNL d   1      11.988  17.780   5.732 -0.06 -0.01    -0.021 A 
DOCKED: ATOM     23  C   UNL d   1      10.928  17.999   6.638 -0.08 +0.03    +0.066 A 
DOCKED: ATOM     24  C   UNL d   1      14.210  16.430   5.812 -0.04 +0.02    +0.051 C 
DOCKED: ATOM     25  N   UNL d   1       8.810  18.615   8.633 -0.07 -0.00    -0.248 N 
DOCKED: ATOM     26  N   UNL d   1       8.855  17.413  11.141 -0.13 +0.02    -0.248 N 
DOCKED: ATOM     27  N   UNL d   1      11.352  16.020  10.398 -0.08 +0.00    -0.248 N 
DOCKED: ATOM     28  N   UNL d   1      11.131  17.334   7.781 -0.09 -0.09    -0.248 N 
DOCKED: ATOM     29 FE   UNL d   1      10.158  17.240   9.564 -0.04 +0.00    +0.000 Fe
DOCKED: ENDROOT
DOCKED: BRANCH   6  30
DOCKED: ATOM     30  C   UNL d   1       7.724  21.040   5.950 -0.02 -0.01    +0.052 C 
DOCKED: BRANCH  30  31
DOCKED: ATOM     31  C   UNL d   1       8.417  22.389   6.142 -0.00 -0.01    +0.115 C 
DOCKED: BRANCH  31  32
DOCKED: ATOM     32  C   UNL d   1       9.852  22.242   6.598 +0.00 -0.01    +0.139 C 
DOCKED: ATOM     33  O   UNL d   1      10.756  22.351   5.784 +0.00 +0.02    -0.650 OA
DOCKED: BRANCH  32  34
DOCKED: ATOM     34  O   UNL d   1      10.175  22.039   7.897 +0.01 +0.05    -0.776 OA
DOCKED: ATOM     35  H   UNL d   1      10.829  21.395   8.200 +0.00 -0.01    +0.167 HD
DOCKED: ENDBRANCH  32  34
DOCKED: ENDBRANCH  31  32
DOCKED: ENDBRANCH  30  31
DOCKED: ENDBRANCH   6  30
DOCKED: BRANCH  29  36
DOCKED: ATOM     36  C   UNL d   1      11.212  18.916  10.254 -0.02 +0.00    +0.190 C 
DOCKED: BRANCH  36  37
DOCKED: ATOM     37  O   UNL d   1      11.436  20.273  10.001 +0.00 +0.01    -0.399 OA
DOCKED: ATOM     38  H   UNL d   1      10.705  20.541   9.377 +0.01 -0.01    +0.209 HD
DOCKED: ENDBRANCH  36  37
DOCKED: ENDBRANCH  29  36
DOCKED: BRANCH  22  39
DOCKED: ATOM     39  C   UNL d   1      12.178  18.388   4.355 -0.02 +0.02    +0.052 C 
DOCKED: BRANCH  39  40
DOCKED: ATOM     40  C   UNL d   1      12.667  17.327   3.356 -0.03 +0.04    +0.115 C 
DOCKED: BRANCH  40  41
DOCKED: ATOM     41  C   UNL d   1      11.900  16.022   3.405 +0.08 +0.15    +0.139 C 
DOCKED: ATOM     42  O   UNL d   1      10.696  16.027   3.188 +0.02 -0.79    -0.650 OA
DOCKED: BRANCH  41  43
DOCKED: ATOM     43  O   UNL d   1      12.523  14.838   3.596 -0.42 -1.26    -0.776 OA
DOCKED: ATOM     44  H   UNL d   1      13.322  14.589   3.113 +0.01 +0.13    +0.167 HD
DOCKED: ENDBRANCH  41  43
DOCKED: ENDBRANCH  40  41
DOCKED: ENDBRANCH  39  40
DOCKED: ENDBRANCH  22  39
DOCKED: BRANCH  12  45
DOCKED: ATOM     45  C   UNL d   1       8.058  16.152  14.559 -0.23 -0.00    +0.004 C 
DOCKED: ATOM     46  C   UNL d   1       7.767  14.883  14.832 -0.37 -0.00    +0.012 C 
DOCKED: ENDBRANCH  12  45
DOCKED: BRANCH  17  47
DOCKED: ATOM     47  C   UNL d   1      14.548  14.255  10.639 -0.16 +0.00    +0.004 C 
DOCKED: ATOM     48  C   UNL d   1      14.847  13.392   9.665 -0.16 +0.00    +0.012 C 
DOCKED: ENDBRANCH  17  47
DOCKED: TORSDOF 12
DOCKED: TER
DOCKED: ENDMDL
________________________________________________________________________________


	BEGINNING GENETIC ALGORITHM DOCKING 97 of 100
Run: 97 Seed: 1361393693 187927670 [ Run 97 of 100 GA/GALS ]
Beginning LAMARCKIAN GENETIC ALGORITHM (LGA), with a maximum of 25000000 energy evaluations.

Final-Value: -9.545


	FINAL GENETIC ALGORITHM DOCKED STATE
	_______________________________________________


Detailed state:  trans 14.728 3.670 11.788 quatxyzw -0.761871 -0.223393 0.233531 0.561347 center 8.781 34.984 -0.736 ntor 12 -161.5749 112.3167 -101.7280 54.6386 -87.6212 115.6379 13.0361 -173.1636 -79.2176 47.7461 -175.9724 177.9948
State:	 14.728   3.670  11.788  -0.921 -0.270  0.282 111.702   -161.57  112.32 -101.73   54.64  -87.62  115.64   13.04 -173.16  -79.22   47.75 -175.97  177.99

DOCKED: MODEL       97
DOCKED: USER    Run = 97
DOCKED: USER    DPF = D:/Protein_go_brrr/autodock/final/mut_N102T/heme_Co/dock.dpf
DOCKED: USER  
DOCKED: USER    Estimated Free Energy of Binding    =   -3.25 kcal/mol  [=(1)+(2)+(3)-(4)]
DOCKED: USER    Estimated Inhibition Constant, Ki   =    4.15 mM (millimolar)  [Temperature = 298.15 K]
DOCKED: USER    
DOCKED: USER    (1) Final Intermolecular Energy     =   -6.83 kcal/mol
DOCKED: USER        vdW + Hbond + desolv Energy     =   -4.86 kcal/mol
DOCKED: USER        Electrostatic Energy            =   -1.97 kcal/mol
DOCKED: USER    (2) Final Total Internal Energy     =   -2.72 kcal/mol
DOCKED: USER    (3) Torsional Free Energy           =   +3.58 kcal/mol
DOCKED: USER    (4) Unbound System's Energy  [=(2)] =   -2.72 kcal/mol
DOCKED: USER    
DOCKED: USER    
DOCKED: USER    NEWDPF move heme_Co_opt.pdbqt
DOCKED: USER    NEWDPF about 8.781000 34.984000 -0.736000
DOCKED: USER    NEWDPF tran0 14.728417 3.669892 11.788191
DOCKED: USER    NEWDPF quaternion0 -0.761871 -0.223393 0.233531 0.561347
DOCKED: USER    NEWDPF axisangle0 -0.920601 -0.269935 0.282185 111.701927
DOCKED: USER    NEWDPF quat0 -0.920601 -0.269935 0.282185 111.701927
DOCKED: USER    NEWDPF dihe0 -161.57 112.32 -101.73 54.64 -87.62 115.64 13.04 -173.16 -79.22 47.75 -175.97 177.99 
DOCKED: USER  keepresnum = 1 
DOCKED: USER  
DOCKED: REMARK  12 active torsions:
DOCKED: REMARK  status: ('A' for Active; 'I' for Inactive)
DOCKED: REMARK    1  A    between atoms: C_6  and  C_10 
DOCKED: REMARK    2  A    between atoms: C_10  and  C_11 
DOCKED: REMARK    3  A    between atoms: C_11  and  C_12 
DOCKED: REMARK    4  A    between atoms: C_12  and  O_14 
DOCKED: REMARK    5  A    between atoms: C_17  and  C_20 
DOCKED: REMARK    6  A    between atoms: C_24  and  C_27 
DOCKED: REMARK    7  A    between atoms: C_31  and  C_34 
DOCKED: REMARK    8  A    between atoms: C_34  and  C_35 
DOCKED: REMARK    9  A    between atoms: C_35  and  C_36 
DOCKED: REMARK   10  A    between atoms: C_36  and  O_38 
DOCKED: REMARK   11  A    between atoms: FE_43  and  C_44 
DOCKED: REMARK   12  A    between atoms: C_44  and  O_45 
DOCKED: USER                              x       y       z     vdW  Elec       q    Type
DOCKED: USER                           _______ _______ _______ _____ _____    ______ ____
DOCKED: ROOT
DOCKED: ATOM      1  C   UNL d   1      13.588   4.200  13.558 +0.01 +0.03    +0.064 A 
DOCKED: ATOM      2  C   UNL d   1      12.588   1.432   9.823 -0.28 +0.02    +0.064 C 
DOCKED: ATOM      3  C   UNL d   1      16.710   2.676   7.751 -0.05 +0.01    +0.064 A 
DOCKED: ATOM      4  C   UNL d   1      17.928   5.206  11.723 -0.02 +0.01    +0.064 A 
DOCKED: ATOM      5  C   UNL d   1      12.995   3.380  12.674 -0.20 +0.03    +0.066 A 
DOCKED: ATOM      6  C   UNL d   1      11.774   2.737  12.953 -0.30 -0.01    -0.021 A 
DOCKED: ATOM      7  C   UNL d   1      11.500   1.918  11.875 -0.29 -0.01    -0.025 A 
DOCKED: ATOM      8  C   UNL d   1      12.557   2.108  10.979 -0.21 +0.02    +0.066 A 
DOCKED: ATOM      9  C   UNL d   1      10.294   0.985  11.683 -0.26 +0.02    +0.051 C 
DOCKED: ATOM     10  C   UNL d   1      13.621   1.582   8.828 -0.20 +0.02    +0.066 A 
DOCKED: ATOM     11  C   UNL d   1      13.639   1.008   7.538 -0.27 -0.01    -0.021 A 
DOCKED: ATOM     12  C   UNL d   1      14.850   1.391   6.954 -0.20 +0.00    +0.000 A 
DOCKED: ATOM     13  C   UNL d   1      15.473   2.177   7.923 -0.10 +0.01    +0.070 A 
DOCKED: ATOM     14  C   UNL d   1      12.521   0.231   6.892 -0.07 +0.02    +0.052 C 
DOCKED: ATOM     15  C   UNL d   1      17.520   3.460   8.662 -0.03 +0.01    +0.066 A 
DOCKED: ATOM     16  C   UNL d   1      18.848   3.822   8.479 -0.01 -0.00    -0.021 A 
DOCKED: ATOM     17  C   UNL d   1      19.204   4.550   9.624 -0.01 +0.00    +0.000 A 
DOCKED: ATOM     18  C   UNL d   1      18.057   4.589  10.409 -0.02 +0.01    +0.070 A 
DOCKED: ATOM     19  C   UNL d   1      19.693   3.475   7.274 -0.00 +0.00    +0.052 C 
DOCKED: ATOM     20  C   UNL d   1      16.850   5.182  12.543 -0.04 +0.01    +0.066 A 
DOCKED: ATOM     21  C   UNL d   1      16.859   5.782  13.800 -0.04 -0.01    -0.025 A 
DOCKED: ATOM     22  C   UNL d   1      15.611   5.533  14.341 -0.10 -0.01    -0.021 A 
DOCKED: ATOM     23  C   UNL d   1      14.901   4.777  13.384 -0.12 +0.02    +0.066 A 
DOCKED: ATOM     24  C   UNL d   1      18.007   6.538  14.464 -0.02 +0.01    +0.051 C 
DOCKED: ATOM     25  N   UNL d   1      13.495   3.014  11.445 -0.10 -0.07    -0.248 N 
DOCKED: ATOM     26  N   UNL d   1      14.704   2.338   9.033 -0.06 -0.05    -0.248 N 
DOCKED: ATOM     27  N   UNL d   1      17.083   3.904   9.819 -0.02 -0.03    -0.248 N 
DOCKED: ATOM     28  N   UNL d   1      15.648   4.561  12.295 -0.04 -0.06    -0.248 N 
DOCKED: ATOM     29 FE   UNL d   1      15.396   3.488  10.586 -0.02 +0.00    +0.000 Fe
DOCKED: ENDROOT
DOCKED: BRANCH   6  30
DOCKED: ATOM     30  C   UNL d   1      10.958   2.851  14.236 -0.34 +0.03    +0.052 C 
DOCKED: BRANCH  30  31
DOCKED: ATOM     31  C   UNL d   1      11.355   1.753  15.224 -0.24 +0.05    +0.115 C 
DOCKED: BRANCH  31  32
DOCKED: ATOM     32  C   UNL d   1      12.323   2.246  16.277 -0.17 +0.09    +0.139 C 
DOCKED: ATOM     33  O   UNL d   1      13.447   1.769  16.330 +0.02 -0.27    -0.650 OA
DOCKED: BRANCH  32  34
DOCKED: ATOM     34  O   UNL d   1      12.002   3.239  17.138 -0.06 -1.09    -0.776 OA
DOCKED: ATOM     35  H   UNL d   1      12.644   3.714  17.685 +0.02 +0.25    +0.167 HD
DOCKED: ENDBRANCH  32  34
DOCKED: ENDBRANCH  31  32
DOCKED: ENDBRANCH  30  31
DOCKED: ENDBRANCH   6  30
DOCKED: BRANCH  29  36
DOCKED: ATOM     36  C   UNL d   1      16.127   1.766  11.533 -0.01 +0.03    +0.190 C 
DOCKED: BRANCH  36  37
DOCKED: ATOM     37  O   UNL d   1      16.042   1.023  12.715 +0.00 -0.07    -0.399 OA
DOCKED: ATOM     38  H   UNL d   1      15.404   1.530  13.291 +0.01 +0.04    +0.209 HD
DOCKED: ENDBRANCH  36  37
DOCKED: ENDBRANCH  29  36
DOCKED: BRANCH  22  39
DOCKED: ATOM     39  C   UNL d   1      15.155   5.945  15.728 -0.07 +0.03    +0.052 C 
DOCKED: BRANCH  39  40
DOCKED: ATOM     40  C   UNL d   1      15.677   4.958  16.786 -0.06 +0.05    +0.115 C 
DOCKED: BRANCH  40  41
DOCKED: ATOM     41  C   UNL d   1      14.665   4.590  17.850 -0.07 +0.10    +0.139 C 
DOCKED: ATOM     42  O   UNL d   1      13.866   5.433  18.233 -0.34 -0.94    -0.650 OA
DOCKED: BRANCH  41  43
DOCKED: ATOM     43  O   UNL d   1      14.563   3.330  18.328 +0.02 -0.37    -0.776 OA
DOCKED: ATOM     44  H   UNL d   1      13.925   2.693  17.980 +0.02 +0.08    +0.167 HD
DOCKED: ENDBRANCH  41  43
DOCKED: ENDBRANCH  40  41
DOCKED: ENDBRANCH  39  40
DOCKED: ENDBRANCH  22  39
DOCKED: BRANCH  12  45
DOCKED: ATOM     45  C   UNL d   1      15.477   1.121   5.593 -0.21 +0.00    +0.004 C 
DOCKED: ATOM     46  C   UNL d   1      14.957   1.189   4.371 -0.33 +0.00    +0.012 C 
DOCKED: ENDBRANCH  12  45
DOCKED: BRANCH  17  47
DOCKED: ATOM     47  C   UNL d   1      20.523   5.134  10.010 -0.00 +0.00    +0.004 C 
DOCKED: ATOM     48  C   UNL d   1      21.282   4.653  10.998 +0.00 +0.00    +0.012 C 
DOCKED: ENDBRANCH  17  47
DOCKED: TORSDOF 12
DOCKED: TER
DOCKED: ENDMDL
________________________________________________________________________________


	BEGINNING GENETIC ALGORITHM DOCKING 98 of 100
Run: 98 Seed: 831514031 1966098954 [ Run 98 of 100 GA/GALS ]
Beginning LAMARCKIAN GENETIC ALGORITHM (LGA), with a maximum of 25000000 energy evaluations.

Final-Value: -8.895


	FINAL GENETIC ALGORITHM DOCKED STATE
	_______________________________________________


Detailed state:  trans 11.688 16.688 8.368 quatxyzw 0.263684 0.800826 0.488816 0.224068 center 8.781 34.984 -0.736 ntor 12 30.3415 135.9390 139.5628 61.6610 106.2269 91.4299 29.0907 -41.0627 178.8783 -148.0000 9.1154 147.3324
State:	 11.688  16.688   8.368   0.271  0.822  0.502 154.104     30.34  135.94  139.56   61.66  106.23   91.43   29.09  -41.06  178.88 -148.00    9.12  147.33

DOCKED: MODEL       98
DOCKED: USER    Run = 98
DOCKED: USER    DPF = D:/Protein_go_brrr/autodock/final/mut_N102T/heme_Co/dock.dpf
DOCKED: USER  
DOCKED: USER    Estimated Free Energy of Binding    =   -3.13 kcal/mol  [=(1)+(2)+(3)-(4)]
DOCKED: USER    Estimated Inhibition Constant, Ki   =    5.11 mM (millimolar)  [Temperature = 298.15 K]
DOCKED: USER    
DOCKED: USER    (1) Final Intermolecular Energy     =   -6.71 kcal/mol
DOCKED: USER        vdW + Hbond + desolv Energy     =   -4.70 kcal/mol
DOCKED: USER        Electrostatic Energy            =   -2.00 kcal/mol
DOCKED: USER    (2) Final Total Internal Energy     =   -2.19 kcal/mol
DOCKED: USER    (3) Torsional Free Energy           =   +3.58 kcal/mol
DOCKED: USER    (4) Unbound System's Energy  [=(2)] =   -2.19 kcal/mol
DOCKED: USER    
DOCKED: USER    
DOCKED: USER    NEWDPF move heme_Co_opt.pdbqt
DOCKED: USER    NEWDPF about 8.781000 34.984000 -0.736000
DOCKED: USER    NEWDPF tran0 11.687561 16.688430 8.368126
DOCKED: USER    NEWDPF quaternion0 0.263684 0.800826 0.488816 0.224068
DOCKED: USER    NEWDPF axisangle0 0.270563 0.821720 0.501570 154.103882
DOCKED: USER    NEWDPF quat0 0.270563 0.821720 0.501570 154.103882
DOCKED: USER    NEWDPF dihe0 30.34 135.94 139.56 61.66 106.23 91.43 29.09 -41.06 178.88 -148.00 9.12 147.33 
DOCKED: USER  keepresnum = 1 
DOCKED: USER  
DOCKED: REMARK  12 active torsions:
DOCKED: REMARK  status: ('A' for Active; 'I' for Inactive)
DOCKED: REMARK    1  A    between atoms: C_6  and  C_10 
DOCKED: REMARK    2  A    between atoms: C_10  and  C_11 
DOCKED: REMARK    3  A    between atoms: C_11  and  C_12 
DOCKED: REMARK    4  A    between atoms: C_12  and  O_14 
DOCKED: REMARK    5  A    between atoms: C_17  and  C_20 
DOCKED: REMARK    6  A    between atoms: C_24  and  C_27 
DOCKED: REMARK    7  A    between atoms: C_31  and  C_34 
DOCKED: REMARK    8  A    between atoms: C_34  and  C_35 
DOCKED: REMARK    9  A    between atoms: C_35  and  C_36 
DOCKED: REMARK   10  A    between atoms: C_36  and  O_38 
DOCKED: REMARK   11  A    between atoms: FE_43  and  C_44 
DOCKED: REMARK   12  A    between atoms: C_44  and  O_45 
DOCKED: USER                              x       y       z     vdW  Elec       q    Type
DOCKED: USER                           _______ _______ _______ _____ _____    ______ ____
DOCKED: ROOT
DOCKED: ATOM      1  C   UNL d   1      13.565  15.720   7.865 -0.10 +0.02    +0.064 A 
DOCKED: ATOM      2  C   UNL d   1      10.524  18.323   5.298 -0.06 +0.02    +0.064 C 
DOCKED: ATOM      3  C   UNL d   1       7.503  18.508   8.995 -0.17 -0.01    +0.064 A 
DOCKED: ATOM      4  C   UNL d   1      10.762  16.181  11.758 -0.16 -0.00    +0.064 A 
DOCKED: ATOM      5  C   UNL d   1      12.940  16.387   6.881 -0.09 +0.04    +0.066 A 
DOCKED: ATOM      6  C   UNL d   1      13.547  16.617   5.631 -0.06 -0.01    -0.021 A 
DOCKED: ATOM      7  C   UNL d   1      12.670  17.392   4.898 -0.05 -0.01    -0.025 A 
DOCKED: ATOM      8  C   UNL d   1      11.559  17.588   5.725 -0.07 +0.04    +0.066 A 
DOCKED: ATOM      9  C   UNL d   1      12.857  17.936   3.473 -0.01 +0.01    +0.051 C 
DOCKED: ATOM     10  C   UNL d   1       9.328  18.557   6.068 -0.07 +0.01    +0.066 A 
DOCKED: ATOM     11  C   UNL d   1       8.151  19.199   5.625 -0.05 -0.00    -0.021 A 
DOCKED: ATOM     12  C   UNL d   1       7.286  19.236   6.721 -0.13 -0.00    +0.000 A 
DOCKED: ATOM     13  C   UNL d   1       7.991  18.604   7.746 -0.15 -0.00    +0.070 A 
DOCKED: ATOM     14  C   UNL d   1       7.859  19.653   4.218 -0.02 -0.00    +0.052 C 
DOCKED: ATOM     15  C   UNL d   1       8.114  17.938  10.180 -0.19 -0.01    +0.066 A 
DOCKED: ATOM     16  C   UNL d   1       7.617  18.000  11.474 -0.25 +0.00    -0.021 A 
DOCKED: ATOM     17  C   UNL d   1       8.554  17.333  12.275 -0.20 -0.00    +0.000 A 
DOCKED: ATOM     18  C   UNL d   1       9.545  16.899  11.400 -0.17 -0.00    +0.070 A 
DOCKED: ATOM     19  C   UNL d   1       6.322  18.667  11.884 -0.16 -0.02    +0.052 C 
DOCKED: ATOM     20  C   UNL d   1      11.780  15.825  10.938 -0.14 +0.00    +0.066 A 
DOCKED: ATOM     21  C   UNL d   1      12.916  15.168  11.406 -0.16 -0.00    -0.025 A 
DOCKED: ATOM     22  C   UNL d   1      13.729  14.996  10.301 -0.15 -0.00    -0.021 A 
DOCKED: ATOM     23  C   UNL d   1      13.049  15.572   9.207 -0.14 +0.01    +0.066 A 
DOCKED: ATOM     24  C   UNL d   1      13.222  14.743  12.839 -0.12 +0.00    +0.051 C 
DOCKED: ATOM     25  N   UNL d   1      11.696  16.971   6.957 -0.09 -0.16    -0.248 N 
DOCKED: ATOM     26  N   UNL d   1       9.202  18.144   7.334 -0.08 -0.05    -0.248 N 
DOCKED: ATOM     27  N   UNL d   1       9.265  17.304  10.166 -0.09 -0.01    -0.248 N 
DOCKED: ATOM     28  N   UNL d   1      11.870  16.077   9.589 -0.10 -0.02    -0.248 N 
DOCKED: ATOM     29 FE   UNL d   1      10.411  17.145   8.659 -0.04 +0.00    +0.000 Fe
DOCKED: ENDROOT
DOCKED: BRANCH   6  30
DOCKED: ATOM     30  C   UNL d   1      14.943  16.176   5.203 -0.02 +0.02    +0.052 C 
DOCKED: BRANCH  30  31
DOCKED: ATOM     31  C   UNL d   1      14.885  14.827   4.487 -0.04 +0.04    +0.115 C 
DOCKED: BRANCH  31  32
DOCKED: ATOM     32  C   UNL d   1      13.485  14.252   4.454 +0.10 +0.15    +0.139 C 
DOCKED: ATOM     33  O   UNL d   1      13.175  13.379   5.251 -0.08 -0.86    -0.650 OA
DOCKED: BRANCH  32  34
DOCKED: ATOM     34  O   UNL d   1      12.542  14.707   3.596 -0.43 -1.31    -0.776 OA
DOCKED: ATOM     35  H   UNL d   1      12.737  15.125   2.746 +0.01 +0.13    +0.167 HD
DOCKED: ENDBRANCH  32  34
DOCKED: ENDBRANCH  31  32
DOCKED: ENDBRANCH  30  31
DOCKED: ENDBRANCH   6  30
DOCKED: BRANCH  29  36
DOCKED: ATOM     36  C   UNL d   1      11.412  18.935   9.092 -0.02 +0.01    +0.190 C 
DOCKED: BRANCH  36  37
DOCKED: ATOM     37  O   UNL d   1      12.664  19.457   9.433 +0.00 -0.01    -0.399 OA
DOCKED: ATOM     38  H   UNL d   1      13.321  18.775   9.116 +0.01 +0.01    +0.209 HD
DOCKED: ENDBRANCH  36  37
DOCKED: ENDBRANCH  29  36
DOCKED: BRANCH  22  39
DOCKED: ATOM     39  C   UNL d   1      15.111  14.371  10.314 -0.11 +0.01    +0.052 C 
DOCKED: BRANCH  39  40
DOCKED: ATOM     40  C   UNL d   1      16.189  15.428  10.021 -0.02 +0.01    +0.115 C 
DOCKED: BRANCH  40  41
DOCKED: ATOM     41  C   UNL d   1      15.797  16.841  10.401 -0.01 +0.01    +0.139 C 
DOCKED: ATOM     42  O   UNL d   1      16.166  17.296  11.475 +0.01 -0.02    -0.650 OA
DOCKED: BRANCH  41  43
DOCKED: ATOM     43  O   UNL d   1      15.124  17.645   9.549 +0.02 -0.05    -0.776 OA
DOCKED: ATOM     44  H   UNL d   1      14.473  18.292   9.850 +0.01 +0.01    +0.167 HD
DOCKED: ENDBRANCH  41  43
DOCKED: ENDBRANCH  40  41
DOCKED: ENDBRANCH  39  40
DOCKED: ENDBRANCH  22  39
DOCKED: BRANCH  12  45
DOCKED: ATOM     45  C   UNL d   1       5.875  19.776   6.913 -0.22 -0.00    +0.004 C 
DOCKED: ATOM     46  C   UNL d   1       4.758  19.544   6.228 -0.19 -0.01    +0.012 C 
DOCKED: ENDBRANCH  12  45
DOCKED: BRANCH  17  47
DOCKED: ATOM     47  C   UNL d   1       8.579  17.141  13.755 -0.15 -0.00    +0.004 C 
DOCKED: ATOM     48  C   UNL d   1       7.931  16.156  14.382 -0.25 -0.00    +0.012 C 
DOCKED: ENDBRANCH  17  47
DOCKED: TORSDOF 12
DOCKED: TER
DOCKED: ENDMDL
________________________________________________________________________________


	BEGINNING GENETIC ALGORITHM DOCKING 99 of 100
Run: 99 Seed: 1952001808 1280882002 [ Run 99 of 100 GA/GALS ]
Beginning LAMARCKIAN GENETIC ALGORITHM (LGA), with a maximum of 25000000 energy evaluations.

Final-Value: -8.898


	FINAL GENETIC ALGORITHM DOCKED STATE
	_______________________________________________


Detailed state:  trans -5.123 15.264 -17.851 quatxyzw 0.078876 -0.400259 0.576844 -0.707688 center 8.781 34.984 -0.736 ntor 12 160.6702 137.2168 50.6440 57.7396 -84.1239 132.7630 -127.6451 55.8989 -133.9068 -113.6140 180.0000 -40.3973
State:	 -5.123  15.264 -17.851   0.112 -0.567  0.816 -89.906    160.67  137.22   50.64   57.74  -84.12  132.76 -127.65   55.90 -133.91 -113.61  180.00  -40.40

DOCKED: MODEL       99
DOCKED: USER    Run = 99
DOCKED: USER    DPF = D:/Protein_go_brrr/autodock/final/mut_N102T/heme_Co/dock.dpf
DOCKED: USER  
DOCKED: USER    Estimated Free Energy of Binding    =   -3.14 kcal/mol  [=(1)+(2)+(3)-(4)]
DOCKED: USER    Estimated Inhibition Constant, Ki   =    5.03 mM (millimolar)  [Temperature = 298.15 K]
DOCKED: USER    
DOCKED: USER    (1) Final Intermolecular Energy     =   -6.71 kcal/mol
DOCKED: USER        vdW + Hbond + desolv Energy     =   -5.02 kcal/mol
DOCKED: USER        Electrostatic Energy            =   -1.70 kcal/mol
DOCKED: USER    (2) Final Total Internal Energy     =   -2.18 kcal/mol
DOCKED: USER    (3) Torsional Free Energy           =   +3.58 kcal/mol
DOCKED: USER    (4) Unbound System's Energy  [=(2)] =   -2.18 kcal/mol
DOCKED: USER    
DOCKED: USER    
DOCKED: USER    NEWDPF move heme_Co_opt.pdbqt
DOCKED: USER    NEWDPF about 8.781000 34.984000 -0.736000
DOCKED: USER    NEWDPF tran0 -5.123213 15.264418 -17.851133
DOCKED: USER    NEWDPF quaternion0 0.078876 -0.400259 0.576844 -0.707688
DOCKED: USER    NEWDPF axisangle0 0.111639 -0.566517 0.816453 -89.905764
DOCKED: USER    NEWDPF quat0 0.111639 -0.566517 0.816453 -89.905764
DOCKED: USER    NEWDPF dihe0 160.67 137.22 50.64 57.74 -84.12 132.76 -127.65 55.90 -133.91 -113.61 180.00 -40.40 
DOCKED: USER  keepresnum = 1 
DOCKED: USER  
DOCKED: REMARK  12 active torsions:
DOCKED: REMARK  status: ('A' for Active; 'I' for Inactive)
DOCKED: REMARK    1  A    between atoms: C_6  and  C_10 
DOCKED: REMARK    2  A    between atoms: C_10  and  C_11 
DOCKED: REMARK    3  A    between atoms: C_11  and  C_12 
DOCKED: REMARK    4  A    between atoms: C_12  and  O_14 
DOCKED: REMARK    5  A    between atoms: C_17  and  C_20 
DOCKED: REMARK    6  A    between atoms: C_24  and  C_27 
DOCKED: REMARK    7  A    between atoms: C_31  and  C_34 
DOCKED: REMARK    8  A    between atoms: C_34  and  C_35 
DOCKED: REMARK    9  A    between atoms: C_35  and  C_36 
DOCKED: REMARK   10  A    between atoms: C_36  and  O_38 
DOCKED: REMARK   11  A    between atoms: FE_43  and  C_44 
DOCKED: REMARK   12  A    between atoms: C_44  and  O_45 
DOCKED: USER                              x       y       z     vdW  Elec       q    Type
DOCKED: USER                           _______ _______ _______ _____ _____    ______ ____
DOCKED: ROOT
DOCKED: ATOM      1  C   UNL d   1      -5.185  14.455 -19.865 -0.12 +0.02    +0.064 A 
DOCKED: ATOM      2  C   UNL d   1      -4.604  12.405 -15.614 -0.31 -0.00    +0.064 C 
DOCKED: ATOM      3  C   UNL d   1      -4.542  16.695 -13.512 -0.03 +0.01    +0.064 A 
DOCKED: ATOM      4  C   UNL d   1      -5.521  18.792 -17.791 -0.05 +0.03    +0.064 A 
DOCKED: ATOM      5  C   UNL d   1      -4.995  13.582 -18.863 -0.15 +0.02    +0.066 A 
DOCKED: ATOM      6  C   UNL d   1      -5.021  12.189 -19.070 -0.22 -0.00    -0.021 A 
DOCKED: ATOM      7  C   UNL d   1      -4.874  11.599 -17.830 -0.32 -0.00    -0.025 A 
DOCKED: ATOM      8  C   UNL d   1      -4.749  12.655 -16.922 -0.24 +0.00    +0.066 A 
DOCKED: ATOM      9  C   UNL d   1      -4.852  10.099 -17.496 -0.44 -0.00    +0.051 C 
DOCKED: ATOM     10  C   UNL d   1      -4.441  13.426 -14.610 -0.18 -0.00    +0.066 A 
DOCKED: ATOM     11  C   UNL d   1      -4.145  13.227 -13.244 -0.21 +0.00    -0.021 A 
DOCKED: ATOM     12  C   UNL d   1      -4.129  14.494 -12.655 -0.15 +0.00    +0.000 A 
DOCKED: ATOM     13  C   UNL d   1      -4.403  15.372 -13.705 -0.09 +0.00    +0.070 A 
DOCKED: ATOM     14  C   UNL d   1      -3.809  11.913 -12.587 -0.31 -0.01    +0.052 C 
DOCKED: ATOM     15  C   UNL d   1      -4.874  17.734 -14.467 -0.02 +0.01    +0.066 A 
DOCKED: ATOM     16  C   UNL d   1      -5.145  19.063 -14.176 -0.01 -0.00    -0.021 A 
DOCKED: ATOM     17  C   UNL d   1      -5.431  19.672 -15.407 -0.01 +0.00    +0.000 A 
DOCKED: ATOM     18  C   UNL d   1      -5.294  18.665 -16.357 -0.03 +0.02    +0.070 A 
DOCKED: ATOM     19  C   UNL d   1      -5.126  19.680 -12.795 -0.00 +0.00    +0.052 C 
DOCKED: ATOM     20  C   UNL d   1      -5.479  17.809 -18.722 -0.06 +0.04    +0.066 A 
DOCKED: ATOM     21  C   UNL d   1      -5.752  18.047 -20.067 -0.07 -0.01    -0.025 A 
DOCKED: ATOM     22  C   UNL d   1      -5.634  16.820 -20.695 -0.08 -0.01    -0.021 A 
DOCKED: ATOM     23  C   UNL d   1      -5.304  15.885 -19.691 -0.10 +0.03    +0.066 A 
DOCKED: ATOM     24  C   UNL d   1      -6.127  19.374 -20.721 -0.04 +0.02    +0.051 C 
DOCKED: ATOM     25  N   UNL d   1      -4.814  13.895 -17.535 -0.13 -0.06    -0.248 N 
DOCKED: ATOM     26  N   UNL d   1      -4.536  14.729 -14.896 -0.10 -0.03    -0.248 N 
DOCKED: ATOM     27  N   UNL d   1      -4.991  17.518 -15.758 -0.03 -0.06    -0.248 N 
DOCKED: ATOM     28  N   UNL d   1      -5.211  16.479 -18.495 -0.07 -0.13    -0.248 N 
DOCKED: ATOM     29 FE   UNL d   1      -4.908  15.816 -16.597 -0.02 +0.00    +0.000 Fe
DOCKED: ENDROOT
DOCKED: BRANCH   6  30
DOCKED: ATOM     30  C   UNL d   1      -5.259  11.470 -20.394 -0.17 +0.01    +0.052 C 
DOCKED: BRANCH  30  31
DOCKED: ATOM     31  C   UNL d   1      -6.730  11.081 -20.536 -0.09 +0.01    +0.115 C 
DOCKED: BRANCH  31  32
DOCKED: ATOM     32  C   UNL d   1      -7.666  12.198 -20.126 -0.04 +0.01    +0.139 C 
DOCKED: ATOM     33  O   UNL d   1      -8.222  12.862 -20.987 +0.01 -0.06    -0.650 OA
DOCKED: BRANCH  32  34
DOCKED: ATOM     34  O   UNL d   1      -7.947  12.458 -18.828 +0.05 -0.06    -0.776 OA
DOCKED: ATOM     35  H   UNL d   1      -8.253  13.314 -18.499 +0.02 +0.01    +0.167 HD
DOCKED: ENDBRANCH  32  34
DOCKED: ENDBRANCH  31  32
DOCKED: ENDBRANCH  30  31
DOCKED: ENDBRANCH   6  30
DOCKED: BRANCH  29  36
DOCKED: ATOM     36  C   UNL d   1      -6.963  15.476 -16.362 -0.02 +0.02    +0.190 C 
DOCKED: BRANCH  36  37
DOCKED: ATOM     37  O   UNL d   1      -8.034  14.732 -16.868 +0.00 -0.03    -0.399 OA
DOCKED: ATOM     38  H   UNL d   1      -7.614  13.928 -17.285 +0.02 +0.02    +0.209 HD
DOCKED: ENDBRANCH  36  37
DOCKED: ENDBRANCH  29  36
DOCKED: BRANCH  22  39
DOCKED: ATOM     39  C   UNL d   1      -5.891  16.556 -22.167 -0.05 +0.02    +0.052 C 
DOCKED: BRANCH  39  40
DOCKED: ATOM     40  C   UNL d   1      -4.928  17.378 -23.041 -0.05 +0.06    +0.115 C 
DOCKED: BRANCH  40  41
DOCKED: ATOM     41  C   UNL d   1      -3.463  17.067 -22.819 +0.11 +0.16    +0.139 C 
DOCKED: ATOM     42  O   UNL d   1      -2.616  17.830 -23.262 -0.42 -0.87    -0.650 OA
DOCKED: BRANCH  41  43
DOCKED: ATOM     43  O   UNL d   1      -3.066  16.016 -22.068 -0.30 -1.01    -0.776 OA
DOCKED: ATOM     44  H   UNL d   1      -3.336  15.109 -22.260 +0.01 +0.12    +0.167 HD
DOCKED: ENDBRANCH  41  43
DOCKED: ENDBRANCH  40  41
DOCKED: ENDBRANCH  39  40
DOCKED: ENDBRANCH  22  39
DOCKED: BRANCH  12  45
DOCKED: ATOM     45  C   UNL d   1      -3.869  14.976 -11.235 -0.16 -0.00    +0.004 C 
DOCKED: ATOM     46  C   UNL d   1      -2.881  14.691 -10.390 -0.30 -0.00    +0.012 C 
DOCKED: ENDBRANCH  12  45
DOCKED: BRANCH  17  47
DOCKED: ATOM     47  C   UNL d   1      -5.854  21.073 -15.703 -0.00 +0.00    +0.004 C 
DOCKED: ATOM     48  C   UNL d   1      -7.099  21.410 -16.045 -0.00 +0.00    +0.012 C 
DOCKED: ENDBRANCH  17  47
DOCKED: TORSDOF 12
DOCKED: TER
DOCKED: ENDMDL
________________________________________________________________________________


	BEGINNING GENETIC ALGORITHM DOCKING 100 of 100
Run: 100 Seed: 855226948 387843825 [ Run 100 of 100 GA/GALS ]
Beginning LAMARCKIAN GENETIC ALGORITHM (LGA), with a maximum of 25000000 energy evaluations.

Final-Value: -9.575


	FINAL GENETIC ALGORITHM DOCKED STATE
	_______________________________________________


Detailed state:  trans -1.429 11.616 -23.464 quatxyzw 0.357966 -0.471883 -0.380461 -0.710236 center 8.781 34.984 -0.736 ntor 12 -71.1204 -107.6163 75.3040 -101.5400 67.0886 -106.3754 13.2493 70.3673 -108.5869 40.5609 175.4652 -176.5635
State:	 -1.429  11.616 -23.464   0.509 -0.670 -0.540 -89.492    -71.12 -107.62   75.30 -101.54   67.09 -106.38   13.25   70.37 -108.59   40.56  175.47 -176.56

DOCKED: MODEL      100
DOCKED: USER    Run = 100
DOCKED: USER    DPF = D:/Protein_go_brrr/autodock/final/mut_N102T/heme_Co/dock.dpf
DOCKED: USER  
DOCKED: USER    Estimated Free Energy of Binding    =   -4.28 kcal/mol  [=(1)+(2)+(3)-(4)]
DOCKED: USER    Estimated Inhibition Constant, Ki   =  734.92 uM (micromolar)  [Temperature = 298.15 K]
DOCKED: USER    
DOCKED: USER    (1) Final Intermolecular Energy     =   -7.85 kcal/mol
DOCKED: USER        vdW + Hbond + desolv Energy     =   -5.21 kcal/mol
DOCKED: USER        Electrostatic Energy            =   -2.64 kcal/mol
DOCKED: USER    (2) Final Total Internal Energy     =   -1.72 kcal/mol
DOCKED: USER    (3) Torsional Free Energy           =   +3.58 kcal/mol
DOCKED: USER    (4) Unbound System's Energy  [=(2)] =   -1.72 kcal/mol
DOCKED: USER    
DOCKED: USER    
DOCKED: USER    NEWDPF move heme_Co_opt.pdbqt
DOCKED: USER    NEWDPF about 8.781000 34.984000 -0.736000
DOCKED: USER    NEWDPF tran0 -1.428550 11.615925 -23.464049
DOCKED: USER    NEWDPF quaternion0 0.357966 -0.471883 -0.380461 -0.710236
DOCKED: USER    NEWDPF axisangle0 0.508501 -0.670324 -0.540456 -89.491725
DOCKED: USER    NEWDPF quat0 0.508501 -0.670324 -0.540456 -89.491725
DOCKED: USER    NEWDPF dihe0 -71.12 -107.62 75.30 -101.54 67.09 -106.38 13.25 70.37 -108.59 40.56 175.47 -176.56 
DOCKED: USER  keepresnum = 1 
DOCKED: USER  
DOCKED: REMARK  12 active torsions:
DOCKED: REMARK  status: ('A' for Active; 'I' for Inactive)
DOCKED: REMARK    1  A    between atoms: C_6  and  C_10 
DOCKED: REMARK    2  A    between atoms: C_10  and  C_11 
DOCKED: REMARK    3  A    between atoms: C_11  and  C_12 
DOCKED: REMARK    4  A    between atoms: C_12  and  O_14 
DOCKED: REMARK    5  A    between atoms: C_17  and  C_20 
DOCKED: REMARK    6  A    between atoms: C_24  and  C_27 
DOCKED: REMARK    7  A    between atoms: C_31  and  C_34 
DOCKED: REMARK    8  A    between atoms: C_34  and  C_35 
DOCKED: REMARK    9  A    between atoms: C_35  and  C_36 
DOCKED: REMARK   10  A    between atoms: C_36  and  O_38 
DOCKED: REMARK   11  A    between atoms: FE_43  and  C_44 
DOCKED: REMARK   12  A    between atoms: C_44  and  O_45 
DOCKED: USER                              x       y       z     vdW  Elec       q    Type
DOCKED: USER                           _______ _______ _______ _____ _____    ______ ____
DOCKED: ROOT
DOCKED: ATOM      1  C   UNL d   1      -1.039  13.669 -24.055 -0.04 +0.01    +0.064 A 
DOCKED: ATOM      2  C   UNL d   1      -4.765  10.797 -24.747 -0.01 +0.00    +0.064 C 
DOCKED: ATOM      3  C   UNL d   1      -2.397   7.175 -22.722 -0.06 +0.00    +0.064 A 
DOCKED: ATOM      4  C   UNL d   1       1.272  10.186 -21.657 -0.18 -0.00    +0.064 A 
DOCKED: ATOM      5  C   UNL d   1      -2.217  13.141 -24.425 -0.02 +0.01    +0.066 A 
DOCKED: ATOM      6  C   UNL d   1      -3.238  13.922 -25.003 -0.01 -0.00    -0.021 A 
DOCKED: ATOM      7  C   UNL d   1      -4.325  13.088 -25.180 -0.01 -0.00    -0.025 A 
DOCKED: ATOM      8  C   UNL d   1      -3.916  11.832 -24.720 -0.01 +0.01    +0.066 A 
DOCKED: ATOM      9  C   UNL d   1      -5.702  13.446 -25.760 +0.00 +0.00    +0.051 C 
DOCKED: ATOM     10  C   UNL d   1      -4.426   9.463 -24.319 -0.02 +0.00    +0.066 A 
DOCKED: ATOM     11  C   UNL d   1      -5.223   8.305 -24.452 -0.03 -0.00    -0.021 A 
DOCKED: ATOM     12  C   UNL d   1      -4.507   7.263 -23.857 -0.07 +0.00    +0.000 A 
DOCKED: ATOM     13  C   UNL d   1      -3.324   7.857 -23.418 -0.07 +0.00    +0.070 A 
DOCKED: ATOM     14  C   UNL d   1      -6.535   8.206 -25.188 -0.01 +0.00    +0.052 C 
DOCKED: ATOM     15  C   UNL d   1      -1.149   7.640 -22.150 -0.06 +0.00    +0.066 A 
DOCKED: ATOM     16  C   UNL d   1      -0.306   6.918 -21.317 -0.15 +0.00    -0.021 A 
DOCKED: ATOM     17  C   UNL d   1       0.753   7.783 -21.005 -0.25 -0.00    +0.000 A 
DOCKED: ATOM     18  C   UNL d   1       0.479   8.963 -21.688 -0.19 -0.00    +0.070 A 
DOCKED: ATOM     19  C   UNL d   1      -0.529   5.492 -20.866 -0.27 -0.00    +0.052 C 
DOCKED: ATOM     20  C   UNL d   1       0.981  11.372 -22.243 -0.12 +0.00    +0.066 A 
DOCKED: ATOM     21  C   UNL d   1       1.805  12.488 -22.111 -0.11 -0.00    -0.025 A 
DOCKED: ATOM     22  C   UNL d   1       1.179  13.499 -22.816 -0.07 -0.00    -0.021 A 
DOCKED: ATOM     23  C   UNL d   1      -0.012  12.949 -23.337 -0.06 +0.01    +0.066 A 
DOCKED: ATOM     24  C   UNL d   1       3.115  12.592 -21.335 -0.13 -0.00    +0.051 C 
DOCKED: ATOM     25  N   UNL d   1      -2.613  11.834 -24.251 -0.01 -0.03    -0.248 N 
DOCKED: ATOM     26  N   UNL d   1      -3.252   9.175 -23.747 -0.03 -0.01    -0.248 N 
DOCKED: ATOM     27  N   UNL d   1      -0.677   8.852 -22.335 -0.08 +0.00    -0.248 N 
DOCKED: ATOM     28  N   UNL d   1      -0.136  11.663 -22.990 -0.04 -0.02    -0.248 N 
DOCKED: ATOM     29 FE   UNL d   1      -1.584  10.257 -23.236 -0.02 +0.00    +0.000 Fe
DOCKED: ENDROOT
DOCKED: BRANCH   6  30
DOCKED: ATOM     30  C   UNL d   1      -3.186  15.419 -25.289 -0.01 +0.01    +0.052 C 
DOCKED: BRANCH  30  31
DOCKED: ATOM     31  C   UNL d   1      -3.926  16.199 -24.203 -0.04 +0.05    +0.115 C 
DOCKED: BRANCH  31  32
DOCKED: ATOM     32  C   UNL d   1      -3.201  16.168 -22.875 -0.05 +0.13    +0.139 C 
DOCKED: ATOM     33  O   UNL d   1      -3.731  15.631 -21.913 -0.09 -0.56    -0.650 OA
DOCKED: BRANCH  32  34
DOCKED: ATOM     34  O   UNL d   1      -1.956  16.676 -22.724 -0.53 -1.38    -0.776 OA
DOCKED: ATOM     35  H   UNL d   1      -1.151  16.245 -23.042 +0.00 +0.18    +0.167 HD
DOCKED: ENDBRANCH  32  34
DOCKED: ENDBRANCH  31  32
DOCKED: ENDBRANCH  30  31
DOCKED: ENDBRANCH   6  30
DOCKED: BRANCH  29  36
DOCKED: ATOM     36  C   UNL d   1      -2.545  10.907 -21.490 -0.16 +0.00    +0.190 C 
DOCKED: BRANCH  36  37
DOCKED: ATOM     37  O   UNL d   1      -3.632  10.642 -20.651 -0.11 +0.00    -0.399 OA
DOCKED: ATOM     38  H   UNL d   1      -3.278  10.761 -19.726 -0.44 -0.05    +0.209 HD
DOCKED: ENDBRANCH  36  37
DOCKED: ENDBRANCH  29  36
DOCKED: BRANCH  22  39
DOCKED: ATOM     39  C   UNL d   1       1.670  14.931 -22.924 -0.06 +0.01    +0.052 C 
DOCKED: BRANCH  39  40
DOCKED: ATOM     40  C   UNL d   1       1.407  15.695 -21.616 -0.11 +0.06    +0.115 C 
DOCKED: BRANCH  40  41
DOCKED: ATOM     41  C   UNL d   1       1.056  17.156 -21.805 +0.04 +0.14    +0.139 C 
DOCKED: ATOM     42  O   UNL d   1       1.333  17.957 -20.923 -0.58 -0.75    -0.650 OA
DOCKED: BRANCH  41  43
DOCKED: ATOM     43  O   UNL d   1       0.523  17.614 -22.959 -0.06 -0.70    -0.776 OA
DOCKED: ATOM     44  H   UNL d   1      -0.419  17.541 -23.161 +0.00 +0.20    +0.167 HD
DOCKED: ENDBRANCH  41  43
DOCKED: ENDBRANCH  40  41
DOCKED: ENDBRANCH  39  40
DOCKED: ENDBRANCH  22  39
DOCKED: BRANCH  12  45
DOCKED: ATOM     45  C   UNL d   1      -4.794   5.779 -23.672 -0.11 +0.00    +0.004 C 
DOCKED: ATOM     46  C   UNL d   1      -5.074   5.082 -22.573 -0.23 +0.00    +0.012 C 
DOCKED: ENDBRANCH  12  45
DOCKED: BRANCH  17  47
DOCKED: ATOM     47  C   UNL d   1       1.921   7.573 -20.100 -0.24 -0.00    +0.004 C 
DOCKED: ATOM     48  C   UNL d   1       2.660   6.460 -20.095 -0.29 -0.00    +0.012 C 
DOCKED: ENDBRANCH  17  47
DOCKED: TORSDOF 12
DOCKED: TER
DOCKED: ENDMDL
________________________________________________________________________________

DPF> analysis                             # perform a ranked cluster analysis


		CLUSTER ANALYSIS OF CONFORMATIONS
		_________________________________

Number of conformations = 100

RMSD cluster analysis will be performed using the ligand atoms only (48 / 48 total atoms).

Outputting structurally similar clusters, ranked in order of increasing energy.


________________________________________________________________________________

Number of distinct conformational clusters found = 53,  out of 100 runs,
Using an rmsd-tolerance of 2.0 A


	CLUSTERING HISTOGRAM
	____________________

________________________________________________________________________________
     |           |     |           |     |                                    
Clus | Lowest    | Run | Mean      | Num | Histogram                          
-ter | Binding   |     | Binding   | in  |                                    
Rank | Energy    |     | Energy    | Clus|    5    10   15   20   25   30   35
_____|___________|_____|___________|_____|____:____|____:____|____:____|____:___
   1 |     -7.82 |  47 |     -6.14 |   4 |####
   2 |     -6.98 |  89 |     -6.40 |   2 |##
   3 |     -5.95 |  28 |     -4.48 |   4 |####
   4 |     -5.90 |  57 |     -5.37 |   2 |##
   5 |     -5.76 |  62 |     -5.32 |   4 |####
   6 |     -5.68 |  92 |     -5.68 |   1 |#
   7 |     -5.56 |   4 |     -5.56 |   1 |#
   8 |     -5.50 |  11 |     -4.82 |   4 |####
   9 |     -5.44 |   3 |     -4.76 |   2 |##
  10 |     -5.42 |  59 |     -4.75 |   2 |##
  11 |     -5.36 |   8 |     -5.36 |   1 |#
  12 |     -5.34 |   5 |     -5.11 |   2 |##
  13 |     -5.29 |  31 |     -4.74 |   3 |###
  14 |     -5.09 |  24 |     -5.09 |   1 |#
  15 |     -4.84 |  84 |     -3.82 |   5 |#####
  16 |     -4.65 |  80 |     -2.99 |   5 |#####
  17 |     -4.65 |  42 |     -4.65 |   1 |#
  18 |     -4.43 |  19 |     -3.55 |   5 |#####
  19 |     -4.39 |  58 |     -4.27 |   2 |##
  20 |     -4.37 |  66 |     -4.37 |   1 |#
  21 |     -4.35 |  61 |     -4.35 |   1 |#
  22 |     -4.33 |  16 |     -4.02 |   2 |##
  23 |     -4.32 |  18 |     -4.24 |   2 |##
  24 |     -4.28 | 100 |     -3.65 |   2 |##
  25 |     -4.13 |  39 |     -3.21 |   3 |###
  26 |     -4.09 |  49 |     -4.09 |   1 |#
  27 |     -4.08 |  69 |     -3.49 |   3 |###
  28 |     -4.07 |  60 |     -4.01 |   2 |##
  29 |     -4.07 |  50 |     -4.07 |   1 |#
  30 |     -4.02 |  33 |     -3.92 |   2 |##
  31 |     -3.99 |   6 |     -3.99 |   1 |#
  32 |     -3.98 |  32 |     -3.98 |   1 |#
  33 |     -3.98 |  67 |     -3.68 |   2 |##
  34 |     -3.93 |  75 |     -3.93 |   1 |#
  35 |     -3.89 |  12 |     -3.51 |   2 |##
  36 |     -3.84 |  23 |     -3.84 |   1 |#
  37 |     -3.69 |  37 |     -3.69 |   1 |#
  38 |     -3.63 |   1 |     -3.63 |   1 |#
  39 |     -3.61 |  53 |     -3.60 |   2 |##
  40 |     -3.61 |  87 |     -3.61 |   1 |#
  41 |     -3.55 |  26 |     -3.55 |   1 |#
  42 |     -3.43 |  22 |     -3.42 |   2 |##
  43 |     -3.33 |  20 |     -3.33 |   1 |#
  44 |     -3.25 |  97 |     -3.25 |   1 |#
  45 |     -3.14 |  90 |     -3.14 |   1 |#
  46 |     -3.07 |  25 |     -3.07 |   1 |#
  47 |     -3.06 |  14 |     -3.06 |   1 |#
  48 |     -2.87 |  73 |     -2.84 |   3 |###
  49 |     -2.81 |  34 |     -2.81 |   1 |#
  50 |     -2.40 |  55 |     -2.40 |   1 |#
  51 |     -2.35 |  65 |     -2.35 |   1 |#
  52 |     -2.21 |  94 |     -2.21 |   1 |#
  53 |     -2.11 |  21 |     -2.11 |   1 |#
_____|___________|_____|___________|_____|______________________________________


Number of multi-member conformational clusters found = 26, out of 100 runs.

	RMSD TABLE
	__________

_____________________________________________________________________
     |      |      |           |         |                 |
Rank | Sub- | Run  | Binding   | Cluster | Reference       | Grep
     | Rank |      | Energy    | RMSD    | RMSD            | Pattern
_____|______|______|___________|_________|_________________|___________
   1      1     47       -7.82      0.00     36.96           RANKING
   1      2     79       -6.31      1.81     37.21           RANKING
   1      3     43       -5.50      1.61     37.34           RANKING
   1      4     63       -4.92      1.84     37.28           RANKING
   2      1     89       -6.98      0.00     47.51           RANKING
   2      2     68       -5.82      1.37     48.35           RANKING
   3      1     28       -5.95      0.00     24.23           RANKING
   3      2     38       -4.79      1.51     23.03           RANKING
   3      3     76       -3.76      1.95     22.95           RANKING
   3      4     93       -3.44      1.13     23.65           RANKING
   4      1     57       -5.90      0.00     39.57           RANKING
   4      2     83       -4.84      1.04     39.24           RANKING
   5      1     62       -5.76      0.00     39.40           RANKING
   5      2     72       -5.38      1.07     39.23           RANKING
   5      3     88       -5.32      1.41     39.81           RANKING
   5      4     85       -4.84      1.43     39.84           RANKING
   6      1     92       -5.68      0.00     23.16           RANKING
   7      1      4       -5.56      0.00     40.56           RANKING
   8      1     11       -5.50      0.00     31.11           RANKING
   8      2     81       -5.33      1.07     31.09           RANKING
   8      3     48       -4.62      1.23     31.04           RANKING
   8      4     82       -3.81      1.44     31.51           RANKING
   9      1      3       -5.44      0.00     37.03           RANKING
   9      2     40       -4.08      1.95     36.01           RANKING
  10      1     59       -5.42      0.00     40.71           RANKING
  10      2     70       -4.07      1.84     40.35           RANKING
  11      1      8       -5.36      0.00     26.13           RANKING
  12      1      5       -5.34      0.00     54.27           RANKING
  12      2     54       -4.88      1.96     54.05           RANKING
  13      1     31       -5.29      0.00     50.87           RANKING
  13      2     13       -4.56      1.66     51.05           RANKING
  13      3     35       -4.36      1.41     51.37           RANKING
  14      1     24       -5.09      0.00     51.20           RANKING
  15      1     84       -4.84      0.00     27.43           RANKING
  15      2     44       -4.59      0.51     27.51           RANKING
  15      3     74       -3.33      1.70     27.34           RANKING
  15      4     95       -3.18      1.56     28.33           RANKING
  15      5     99       -3.14      1.70     27.33           RANKING
  16      1     80       -4.65      0.00     36.12           RANKING
  16      2     29       -2.71      1.30     36.51           RANKING
  16      3     41       -2.69      1.47     36.07           RANKING
  16      4     30       -2.53      1.86     34.85           RANKING
  16      5     91       -2.34      1.62     36.29           RANKING
  17      1     42       -4.65      0.00     48.27           RANKING
  18      1     19       -4.43      0.00     18.14           RANKING
  18      2     15       -3.90      1.43     17.33           RANKING
  18      3      7       -3.24      1.96     17.47           RANKING
  18      4     98       -3.13      1.97     17.13           RANKING
  18      5     96       -3.08      1.85     16.56           RANKING
  19      1     58       -4.39      0.00     34.19           RANKING
  19      2     36       -4.15      0.91     34.68           RANKING
  20      1     66       -4.37      0.00     41.31           RANKING
  21      1     61       -4.35      0.00     51.97           RANKING
  22      1     16       -4.33      0.00     31.74           RANKING
  22      2     46       -3.70      1.35     32.62           RANKING
  23      1     18       -4.32      0.00     33.43           RANKING
  23      2     52       -4.16      1.76     33.81           RANKING
  24      1    100       -4.28      0.00     32.56           RANKING
  24      2     51       -3.02      1.99     32.98           RANKING
  25      1     39       -4.13      0.00     33.09           RANKING
  25      2     86       -2.88      0.95     33.54           RANKING
  25      3     10       -2.61      1.46     33.35           RANKING
  26      1     49       -4.09      0.00     43.70           RANKING
  27      1     69       -4.08      0.00     26.73           RANKING
  27      2     45       -3.47      1.46     27.93           RANKING
  27      3      9       -2.92      1.52     27.70           RANKING
  28      1     60       -4.07      0.00     35.46           RANKING
  28      2     71       -3.95      0.24     35.53           RANKING
  29      1     50       -4.07      0.00     26.18           RANKING
  30      1     33       -4.02      0.00     51.73           RANKING
  30      2     78       -3.82      0.86     51.26           RANKING
  31      1      6       -3.99      0.00     36.44           RANKING
  32      1     32       -3.98      0.00     32.40           RANKING
  33      1     67       -3.98      0.00     16.81           RANKING
  33      2     17       -3.39      1.27     16.68           RANKING
  34      1     75       -3.93      0.00     33.97           RANKING
  35      1     12       -3.89      0.00     26.69           RANKING
  35      2     64       -3.13      1.65     27.26           RANKING
  36      1     23       -3.84      0.00     30.17           RANKING
  37      1     37       -3.69      0.00     50.23           RANKING
  38      1      1       -3.63      0.00     31.40           RANKING
  39      1     53       -3.61      0.00     34.81           RANKING
  39      2     56       -3.59      0.58     34.77           RANKING
  40      1     87       -3.61      0.00     55.09           RANKING
  41      1     26       -3.55      0.00     16.56           RANKING
  42      1     22       -3.43      0.00     24.89           RANKING
  42      2     77       -3.42      1.23     25.06           RANKING
  43      1     20       -3.33      0.00     25.54           RANKING
  44      1     97       -3.25      0.00     31.40           RANKING
  45      1     90       -3.14      0.00     27.87           RANKING
  46      1     25       -3.07      0.00     30.98           RANKING
  47      1     14       -3.06      0.00     27.80           RANKING
  48      1     73       -2.87      0.00     34.43           RANKING
  48      2      2       -2.85      0.27     34.46           RANKING
  48      3     27       -2.80      0.61     34.67           RANKING
  49      1     34       -2.81      0.00     35.05           RANKING
  50      1     55       -2.40      0.00     33.62           RANKING
  51      1     65       -2.35      0.00     50.19           RANKING
  52      1     94       -2.21      0.00     39.45           RANKING
  53      1     21       -2.11      0.00     28.82           RANKING
_______________________________________________________________________



	INFORMATION ENTROPY ANALYSIS FOR THIS CLUSTERING
	________________________________________________


Information entropy for this clustering = 0.83  (rmstol = 2.00 Angstrom)

_______________________________________________________________________


	STATISTICAL MECHANICAL ANALYSIS
	_______________________________


Partition function, Q =   100.69            at Temperature, T = 298.15 K
Free energy,        A ~ -2732.56 kcal/mol   at Temperature, T = 298.15 K
Internal energy,    U =    -4.08 kcal/mol   at Temperature, T = 298.15 K
Entropy,            S =     9.15 kcal/mol/K at Temperature, T = 298.15 K

_______________________________________________________________________


	LOWEST ENERGY DOCKED CONFORMATION from EACH CLUSTER
	___________________________________________________



Keeping original residue number (specified in the input PDBQ file) for outputting.

MODEL       47
USER    Run = 47
USER    Cluster Rank = 1
USER    Number of conformations in this cluster = 4
USER  
USER    RMSD from reference structure       = 36.961 A
USER  
USER    Estimated Free Energy of Binding    =   -7.82 kcal/mol  [=(1)+(2)+(3)-(4)]
USER    Estimated Inhibition Constant, Ki   =    1.86 uM (micromolar)  [Temperature = 298.15 K]
USER    
USER    (1) Final Intermolecular Energy     =  -11.40 kcal/mol
USER        vdW + Hbond + desolv Energy     =   -8.66 kcal/mol
USER        Electrostatic Energy            =   -2.74 kcal/mol
USER    (2) Final Total Internal Energy     =   -0.81 kcal/mol
USER    (3) Torsional Free Energy           =   +3.58 kcal/mol
USER    (4) Unbound System's Energy  [=(2)] =   -0.81 kcal/mol
USER    
USER    
USER  
USER    DPF = D:/Protein_go_brrr/autodock/final/mut_N102T/heme_Co/dock.dpf
USER    NEWDPF move	heme_Co_opt.pdbqt
USER    NEWDPF about	8.781000 34.984000 -0.736000
USER    NEWDPF tran0	7.016841 -1.556658 16.764076
USER    NEWDPF axisangle0	-0.037057 -0.974432 -0.221607 -123.566883
USER    NEWDPF quaternion0	-0.032653 -0.858637 -0.195273 -0.472805
USER    NEWDPF dihe0	36.25 102.36 -59.62 -72.71 -83.61 -162.83 -178.93 -30.94 -53.36 -53.81 6.46 138.81 
USER  
USER                              x       y       z    vdW   Elec        q     RMS 
ATOM      1  C   UNL d   1       8.882  -1.159  15.725 -0.08 +0.02    +0.064    36.961
ATOM      2  C   UNL d   1       4.563  -2.405  14.174 -0.30 -0.01    +0.064    36.961
ATOM      3  C   UNL d   1       3.032  -2.852  18.678 -0.10 -0.02    +0.064    36.961
ATOM      4  C   UNL d   1       7.320  -1.209  20.284 -0.06 +0.00    +0.064    36.961
ATOM      5  C   UNL d   1       7.825  -1.502  14.971 -0.14 +0.01    +0.066    36.961
ATOM      6  C   UNL d   1       7.855  -1.428  13.564 -0.19 -0.00    -0.021    36.961
ATOM      7  C   UNL d   1       6.593  -1.769  13.120 -0.26 -0.00    -0.025    36.961
ATOM      8  C   UNL d   1       5.851  -2.051  14.273 -0.23 -0.00    +0.066    36.961
ATOM      9  C   UNL d   1       6.088  -1.830  11.671 -0.35 +0.00    +0.051    36.961
ATOM     10  C   UNL d   1       3.729  -2.739  15.301 -0.19 -0.01    +0.066    36.961
ATOM     11  C   UNL d   1       2.414  -3.252  15.254 -0.45 +0.00    -0.021    36.961
ATOM     12  C   UNL d   1       1.994  -3.377  16.581 -0.38 -0.00    +0.000    36.961
ATOM     13  C   UNL d   1       3.084  -2.944  17.337 -0.20 -0.02    +0.070    36.961
ATOM     14  C   UNL d   1       1.666  -3.678  14.018 -0.34 -0.01    +0.052    36.961
ATOM     15  C   UNL d   1       4.040  -2.379  19.606 -0.06 -0.02    +0.066    36.961
ATOM     16  C   UNL d   1       3.872  -2.172  20.968 -0.06 +0.01    -0.021    36.961
ATOM     17  C   UNL d   1       5.106  -1.696  21.435 -0.05 -0.00    +0.000    36.961
ATOM     18  C   UNL d   1       5.937  -1.666  20.321 -0.05 -0.01    +0.070    36.961
ATOM     19  C   UNL d   1       2.597  -2.422  21.742 -0.06 -0.03    +0.052    36.961
ATOM     20  C   UNL d   1       8.121  -1.090  19.198 -0.08 +0.01    +0.066    36.961
ATOM     21  C   UNL d   1       9.423  -0.603  19.284 -0.04 -0.00    -0.025    36.961
ATOM     22  C   UNL d   1       9.908  -0.605  17.989 -0.06 -0.01    -0.021    36.961
ATOM     23  C   UNL d   1       8.865  -1.085  17.169 -0.02 +0.02    +0.066    36.961
ATOM     24  C   UNL d   1      10.164  -0.140  20.536 -0.05 +0.01    +0.051    36.961
ATOM     25  N   UNL d   1       6.591  -1.900  15.433 -0.10 -0.00    -0.248    36.961
ATOM     26  N   UNL d   1       4.152  -2.612  16.563 -0.13 +0.05    -0.248    36.961
ATOM     27  N   UNL d   1       5.260  -2.051  19.244 -0.03 +0.04    -0.248    36.961
ATOM     28  N   UNL d   1       7.780  -1.377  17.896 -0.07 -0.04    -0.248    36.961
ATOM     29 FE   UNL d   1       5.890  -1.979  17.453 -0.03 -0.00    +0.000    36.961
ATOM     30  C   UNL d   1       9.027  -0.970  12.703 -0.22 +0.01    +0.052    36.961
ATOM     31  C   UNL d   1       9.911  -2.158  12.323 -0.11 +0.05    +0.115    36.961
ATOM     32  C   UNL d   1      10.095  -2.284  10.826 -0.18 +0.12    +0.139    36.961
ATOM     33  O   UNL d   1      10.461  -1.313  10.181 -0.42 -0.58    -0.650    36.961
ATOM     34  O   UNL d   1       9.914  -3.458  10.177 -0.36 -1.33    -0.776    36.961
ATOM     35  H   UNL d   1       9.278  -4.135  10.445 +0.04 +0.19    +0.167    36.961
ATOM     36  C   UNL d   1       5.289   0.014  17.203 -0.33 -0.01    +0.190    36.961
ATOM     37  O   UNL d   1       4.674   0.888  16.300 -0.56 +0.02    -0.399    36.961
ATOM     38  H   UNL d   1       4.624   0.378  15.444 -0.39 -0.08    +0.209    36.961
ATOM     39  C   UNL d   1      11.277  -0.110  17.561 -0.08 +0.01    +0.052    36.961
ATOM     40  C   UNL d   1      11.147   1.047  16.557 -0.15 +0.05    +0.115    36.961
ATOM     41  C   UNL d   1      11.791   2.341  17.006 -0.20 +0.11    +0.139    36.961
ATOM     42  O   UNL d   1      12.831   2.708  16.476 -0.03 -0.49    -0.650    36.961
ATOM     43  O   UNL d   1      11.204   3.148  17.918 -0.25 -0.97    -0.776    36.961
ATOM     44  H   UNL d   1      10.297   3.467  17.821 -0.43 +0.19    +0.167    36.961
ATOM     45  C   UNL d   1       0.702  -3.869  17.219 -0.34 -0.00    +0.004    36.961
ATOM     46  C   UNL d   1      -0.460  -3.250  17.413 -0.41 -0.00    +0.012    36.961
ATOM     47  C   UNL d   1       5.497  -1.244  22.804 -0.04 -0.00    +0.004    36.961
ATOM     48  C   UNL d   1       5.664   0.038  23.138 -0.06 -0.00    +0.012    36.961
TER
ENDMDL
MODEL       89
USER    Run = 89
USER    Cluster Rank = 2
USER    Number of conformations in this cluster = 2
USER  
USER    RMSD from reference structure       = 47.506 A
USER  
USER    Estimated Free Energy of Binding    =   -6.98 kcal/mol  [=(1)+(2)+(3)-(4)]
USER    Estimated Inhibition Constant, Ki   =    7.60 uM (micromolar)  [Temperature = 298.15 K]
USER    
USER    (1) Final Intermolecular Energy     =  -10.56 kcal/mol
USER        vdW + Hbond + desolv Energy     =   -7.11 kcal/mol
USER        Electrostatic Energy            =   -3.45 kcal/mol
USER    (2) Final Total Internal Energy     =   -0.26 kcal/mol
USER    (3) Torsional Free Energy           =   +3.58 kcal/mol
USER    (4) Unbound System's Energy  [=(2)] =   -0.26 kcal/mol
USER    
USER    
USER  
USER    DPF = D:/Protein_go_brrr/autodock/final/mut_N102T/heme_Co/dock.dpf
USER    NEWDPF move	heme_Co_opt.pdbqt
USER    NEWDPF about	8.781000 34.984000 -0.736000
USER    NEWDPF tran0	-9.262155 -10.354788 -10.207108
USER    NEWDPF axisangle0	-0.668922 -0.734795 -0.112337 166.487205
USER    NEWDPF quaternion0	-0.664277 -0.729692 -0.111557 0.117648
USER    NEWDPF dihe0	17.62 -132.91 27.60 -95.59 134.88 144.55 145.82 -150.35 8.91 39.77 -110.05 -150.20 
USER  
USER                              x       y       z    vdW   Elec        q     RMS 
ATOM      1  C   UNL d   1      -8.890 -12.241  -9.197 -0.10 +0.02    +0.064    47.506
ATOM      2  C   UNL d   1     -10.317 -11.209 -13.614 -0.09 +0.01    +0.064    47.506
ATOM      3  C   UNL d   1     -10.521  -6.566 -12.504 -0.10 +0.02    +0.064    47.506
ATOM      4  C   UNL d   1      -8.696  -7.551  -8.104 -0.20 +0.01    +0.064    47.506
ATOM      5  C   UNL d   1      -9.299 -12.304 -10.475 -0.11 +0.01    +0.066    47.506
ATOM      6  C   UNL d   1      -9.311 -13.513 -11.197 -0.04 -0.00    -0.021    47.506
ATOM      7  C   UNL d   1      -9.704 -13.204 -12.485 -0.05 -0.00    -0.025    47.506
ATOM      8  C   UNL d   1      -9.931 -11.824 -12.489 -0.10 +0.01    +0.066    47.506
ATOM      9  C   UNL d   1      -9.863 -14.161 -13.676 -0.13 +0.01    +0.051    47.506
ATOM     10  C   UNL d   1     -10.600  -9.799 -13.707 -0.06 +0.02    +0.066    47.506
ATOM     11  C   UNL d   1     -11.141  -9.119 -14.820 -0.05 -0.01    -0.021    47.506
ATOM     12  C   UNL d   1     -11.194  -7.767 -14.467 -0.07 +0.00    +0.000    47.506
ATOM     13  C   UNL d   1     -10.694  -7.724 -13.166 -0.09 +0.02    +0.070    47.506
ATOM     14  C   UNL d   1     -11.657  -9.750 -16.087 -0.02 +0.01    +0.052    47.506
ATOM     15  C   UNL d   1      -9.972  -6.335 -11.182 -0.13 +0.02    +0.066    47.506
ATOM     16  C   UNL d   1      -9.687  -5.102 -10.614 -0.15 -0.00    -0.021    47.506
ATOM     17  C   UNL d   1      -9.158  -5.381  -9.346 -0.29 +0.00    +0.000    47.506
ATOM     18  C   UNL d   1      -9.178  -6.767  -9.234 -0.19 +0.01    +0.070    47.506
ATOM     19  C   UNL d   1      -9.916  -3.759 -11.271 -0.29 +0.01    +0.052    47.506
ATOM     20  C   UNL d   1      -8.626  -8.901  -8.007 -0.13 +0.01    +0.066    47.506
ATOM     21  C   UNL d   1      -8.108  -9.540  -6.883 -0.20 -0.01    -0.025    47.506
ATOM     22  C   UNL d   1      -8.178 -10.893  -7.157 -0.14 -0.01    -0.021    47.506
ATOM     23  C   UNL d   1      -8.728 -11.013  -8.451 -0.09 +0.02    +0.066    47.506
ATOM     24  C   UNL d   1      -7.555  -8.892  -5.616 -0.08 +0.01    +0.051    47.506
ATOM     25  N   UNL d   1      -9.694 -11.241 -11.255 -0.05 -0.05    -0.248    47.506
ATOM     26  N   UNL d   1     -10.388  -8.960 -12.688 -0.05 -0.07    -0.248    47.506
ATOM     27  N   UNL d   1      -9.641  -7.303 -10.357 -0.09 -0.05    -0.248    47.506
ATOM     28  N   UNL d   1      -8.998  -9.810  -8.970 -0.03 -0.05    -0.248    47.506
ATOM     29 FE   UNL d   1      -9.665  -9.156 -10.776 -0.03 +0.00    +0.000    47.506
ATOM     30  C   UNL d   1      -8.881 -14.883 -10.684 +0.10 +0.01    +0.052    47.506
ATOM     31  C   UNL d   1      -7.868 -14.738  -9.549 -0.21 +0.06    +0.115    47.506
ATOM     32  C   UNL d   1      -7.285 -16.068  -9.122 -0.20 +0.12    +0.139    47.506
ATOM     33  O   UNL d   1      -7.406 -17.040  -9.853 -0.44 -0.42    -0.650    47.506
ATOM     34  O   UNL d   1      -6.588 -16.210  -7.971 -0.42 -1.44    -0.776    47.506
ATOM     35  H   UNL d   1      -6.568 -15.551  -7.263 +0.03 +0.41    +0.167    47.506
ATOM     36  C   UNL d   1      -7.704  -9.128 -11.517 -0.30 +0.07    +0.190    47.506
ATOM     37  O   UNL d   1      -6.663  -9.958 -11.944 -0.57 -0.20    -0.399    47.506
ATOM     38  H   UNL d   1      -6.562  -9.763 -12.917 -0.42 +0.06    +0.209    47.506
ATOM     39  C   UNL d   1      -7.681 -12.002  -6.249 -0.18 +0.03    +0.052    47.506
ATOM     40  C   UNL d   1      -6.254 -11.705  -5.761 -0.24 +0.09    +0.115    47.506
ATOM     41  C   UNL d   1      -5.385 -12.933  -5.583 +0.02 +0.22    +0.139    47.506
ATOM     42  O   UNL d   1      -5.904 -14.040  -5.607 +0.04 -1.24    -0.650    47.506
ATOM     43  O   UNL d   1      -4.040 -12.844  -5.486 -0.48 -1.36    -0.776    47.506
ATOM     44  H   UNL d   1      -3.599 -12.098  -5.059 +0.07 +0.16    +0.167    47.506
ATOM     45  C   UNL d   1     -11.674  -6.521 -15.199 -0.06 +0.00    +0.004    47.506
ATOM     46  C   UNL d   1     -10.989  -5.544 -15.787 -0.09 +0.00    +0.012    47.506
ATOM     47  C   UNL d   1      -8.616  -4.449  -8.312 -0.33 +0.00    +0.004    47.506
ATOM     48  C   UNL d   1      -9.196  -4.244  -7.127 -0.31 +0.00    +0.012    47.506
TER
ENDMDL
MODEL       28
USER    Run = 28
USER    Cluster Rank = 3
USER    Number of conformations in this cluster = 4
USER  
USER    RMSD from reference structure       = 24.231 A
USER  
USER    Estimated Free Energy of Binding    =   -5.95 kcal/mol  [=(1)+(2)+(3)-(4)]
USER    Estimated Inhibition Constant, Ki   =   43.40 uM (micromolar)  [Temperature = 298.15 K]
USER    
USER    (1) Final Intermolecular Energy     =   -9.53 kcal/mol
USER        vdW + Hbond + desolv Energy     =   -8.54 kcal/mol
USER        Electrostatic Energy            =   -0.99 kcal/mol
USER    (2) Final Total Internal Energy     =   -0.75 kcal/mol
USER    (3) Torsional Free Energy           =   +3.58 kcal/mol
USER    (4) Unbound System's Energy  [=(2)] =   -0.75 kcal/mol
USER    
USER    
USER  
USER    DPF = D:/Protein_go_brrr/autodock/final/mut_N102T/heme_Co/dock.dpf
USER    NEWDPF move	heme_Co_opt.pdbqt
USER    NEWDPF about	8.781000 34.984000 -0.736000
USER    NEWDPF tran0	5.323751 13.456256 -13.015833
USER    NEWDPF axisangle0	-0.722845 -0.557791 -0.407878 -107.491850
USER    NEWDPF quaternion0	-0.582904 -0.449804 -0.328914 -0.591367
USER    NEWDPF dihe0	45.13 104.90 -29.60 -103.98 153.49 150.08 69.21 122.34 67.10 0.15 160.01 180.00 
USER  
USER                              x       y       z    vdW   Elec        q     RMS 
ATOM      1  C   UNL d   1       5.172  12.409 -14.912 -0.22 -0.05    +0.064    24.231
ATOM      2  C   UNL d   1       2.665  15.982 -13.027 -0.21 -0.01    +0.064    24.231
ATOM      3  C   UNL d   1       5.115  15.598  -8.943 -0.22 -0.02    +0.064    24.231
ATOM      4  C   UNL d   1       7.948  12.206 -10.978 -0.22 -0.02    +0.064    24.231
ATOM      5  C   UNL d   1       4.283  13.389 -14.684 -0.29 -0.03    +0.066    24.231
ATOM      6  C   UNL d   1       3.411  13.855 -15.688 -0.28 +0.01    -0.021    24.231
ATOM      7  C   UNL d   1       2.702  14.907 -15.142 -0.28 +0.00    -0.025    24.231
ATOM      8  C   UNL d   1       3.159  15.028 -13.826 -0.24 -0.02    +0.066    24.231
ATOM      9  C   UNL d   1       1.632  15.776 -15.822 -0.26 +0.01    +0.051    24.231
ATOM     10  C   UNL d   1       3.055  16.166 -11.652 -0.18 -0.02    +0.066    24.231
ATOM     11  C   UNL d   1       2.475  17.056 -10.722 -0.14 +0.01    -0.021    24.231
ATOM     12  C   UNL d   1       3.206  16.920  -9.538 -0.19 -0.00    +0.000    24.231
ATOM     13  C   UNL d   1       4.167  15.951  -9.829 -0.20 -0.03    +0.070    24.231
ATOM     14  C   UNL d   1       1.246  17.899 -10.941 -0.09 -0.01    +0.052    24.231
ATOM     15  C   UNL d   1       6.210  14.659  -9.094 -0.22 -0.03    +0.066    24.231
ATOM     16  C   UNL d   1       7.242  14.446  -8.191 -0.17 +0.01    -0.021    24.231
ATOM     17  C   UNL d   1       8.063  13.470  -8.774 -0.19 -0.00    +0.000    24.231
ATOM     18  C   UNL d   1       7.455  13.152  -9.984 -0.21 -0.03    +0.070    24.231
ATOM     19  C   UNL d   1       7.403  15.150  -6.862 -0.15 -0.05    +0.052    24.231
ATOM     20  C   UNL d   1       7.422  11.944 -12.198 -0.25 -0.02    +0.066    24.231
ATOM     21  C   UNL d   1       8.007  11.039 -13.081 -0.20 +0.01    -0.025    24.231
ATOM     22  C   UNL d   1       7.212  11.055 -14.213 -0.22 +0.01    -0.021    24.231
ATOM     23  C   UNL d   1       6.180  11.985 -13.967 -0.28 -0.04    +0.066    24.231
ATOM     24  C   UNL d   1       9.273  10.214 -12.866 -0.31 -0.01    +0.051    24.231
ATOM     25  N   UNL d   1       4.135  14.096 -13.513 -0.14 +0.11    -0.248    24.231
ATOM     26  N   UNL d   1       4.039  15.456 -11.089 -0.13 +0.11    -0.248    24.231
ATOM     27  N   UNL d   1       6.371  13.900 -10.155 -0.10 +0.11    -0.248    24.231
ATOM     28  N   UNL d   1       6.304  12.527 -12.749 +0.03 +0.13    -0.248    24.231
ATOM     29 FE   UNL d   1       5.321  13.989 -11.736 -0.05 -0.00    +0.000    24.231
ATOM     30  C   UNL d   1       3.332  13.357 -17.127 -0.34 -0.02    +0.052    24.231
ATOM     31  C   UNL d   1       3.726  14.466 -18.102 -0.16 -0.02    +0.115    24.231
ATOM     32  C   UNL d   1       2.573  14.895 -18.984 -0.17 +0.02    +0.139    24.231
ATOM     33  O   UNL d   1       2.046  14.078 -19.724 -0.05 -0.12    -0.650    24.231
ATOM     34  O   UNL d   1       2.071  16.151 -18.947 +0.00 -0.32    -0.776    24.231
ATOM     35  H   UNL d   1       2.610  16.951 -18.879 +0.03 +0.06    +0.167    24.231
ATOM     36  C   UNL d   1       6.550  15.449 -12.603 -0.06 -0.05    +0.190    24.231
ATOM     37  O   UNL d   1       6.747  16.186 -13.776 +0.00 +0.07    -0.399    24.231
ATOM     38  H   UNL d   1       6.120  15.785 -14.440 +0.03 -0.04    +0.209    24.231
ATOM     39  C   UNL d   1       7.473  10.266 -15.482 -0.21 -0.03    +0.052    24.231
ATOM     40  C   UNL d   1       8.558  10.948 -16.332 -0.21 -0.03    +0.115    24.231
ATOM     41  C   UNL d   1       8.978  10.164 -17.557 -0.11 +0.03    +0.139    24.231
ATOM     42  O   UNL d   1      10.004   9.499 -17.519 -0.06 -0.27    -0.650    24.231
ATOM     43  O   UNL d   1       8.205  10.108 -18.664 -0.48 -0.31    -0.776    24.231
ATOM     44  H   UNL d   1       7.252  10.262 -18.640 -0.29 -0.07    +0.167    24.231
ATOM     45  C   UNL d   1       3.096  17.577  -8.169 -0.17 -0.00    +0.004    24.231
ATOM     46  C   UNL d   1       3.914  18.422  -7.545 -0.10 -0.00    +0.012    24.231
ATOM     47  C   UNL d   1       9.352  12.894  -8.289 -0.24 -0.00    +0.004    24.231
ATOM     48  C   UNL d   1       9.607  11.584  -8.251 -0.35 -0.01    +0.012    24.231
TER
ENDMDL
MODEL       57
USER    Run = 57
USER    Cluster Rank = 4
USER    Number of conformations in this cluster = 2
USER  
USER    RMSD from reference structure       = 39.572 A
USER  
USER    Estimated Free Energy of Binding    =   -5.90 kcal/mol  [=(1)+(2)+(3)-(4)]
USER    Estimated Inhibition Constant, Ki   =   47.16 uM (micromolar)  [Temperature = 298.15 K]
USER    
USER    (1) Final Intermolecular Energy     =   -9.48 kcal/mol
USER        vdW + Hbond + desolv Energy     =   -6.56 kcal/mol
USER        Electrostatic Energy            =   -2.92 kcal/mol
USER    (2) Final Total Internal Energy     =   -1.63 kcal/mol
USER    (3) Torsional Free Energy           =   +3.58 kcal/mol
USER    (4) Unbound System's Energy  [=(2)] =   -1.63 kcal/mol
USER    
USER    
USER  
USER    DPF = D:/Protein_go_brrr/autodock/final/mut_N102T/heme_Co/dock.dpf
USER    NEWDPF move	heme_Co_opt.pdbqt
USER    NEWDPF about	8.781000 34.984000 -0.736000
USER    NEWDPF tran0	12.794701 -7.081085 5.342581
USER    NEWDPF axisangle0	-0.654004 -0.630967 0.417324 136.156155
USER    NEWDPF quaternion0	-0.606715 -0.585344 0.387149 0.373343
USER    NEWDPF dihe0	-130.95 114.68 -47.81 4.87 114.06 132.81 -137.66 98.47 133.63 -104.24 3.02 -45.60 
USER  
USER                              x       y       z    vdW   Elec        q     RMS 
ATOM      1  C   UNL d   1      13.292  -7.144   7.455 -0.07 +0.05    +0.064    39.572
ATOM      2  C   UNL d   1      10.531  -9.903   4.740 -0.19 +0.01    +0.064    39.572
ATOM      3  C   UNL d   1      11.226  -6.995   1.013 -0.20 -0.05    +0.064    39.572
ATOM      4  C   UNL d   1      14.358  -4.375   3.658 -0.11 +0.01    +0.064    39.572
ATOM      5  C   UNL d   1      12.457  -8.091   6.997 -0.09 +0.04    +0.066    39.572
ATOM      6  C   UNL d   1      12.065  -9.188   7.789 -0.08 -0.01    -0.021    39.572
ATOM      7  C   UNL d   1      11.282  -9.997   6.989 -0.13 -0.01    -0.025    39.572
ATOM      8  C   UNL d   1      11.217  -9.352   5.749 -0.11 +0.01    +0.066    39.572
ATOM      9  C   UNL d   1      10.615 -11.329   7.363 -0.18 +0.01    +0.051    39.572
ATOM     10  C   UNL d   1      10.386  -9.300   3.439 -0.16 -0.00    +0.066    39.572
ATOM     11  C   UNL d   1       9.566  -9.756   2.384 -0.26 +0.00    -0.021    39.572
ATOM     12  C   UNL d   1       9.785  -8.888   1.311 -0.30 -0.00    +0.000    39.572
ATOM     13  C   UNL d   1      10.710  -7.961   1.793 -0.19 -0.02    +0.070    39.572
ATOM     14  C   UNL d   1       8.575 -10.890   2.451 -0.46 -0.00    +0.052    39.572
ATOM     15  C   UNL d   1      12.224  -5.992   1.330 -0.21 -0.03    +0.066    39.572
ATOM     16  C   UNL d   1      12.820  -5.114   0.437 -0.25 +0.01    -0.021    39.572
ATOM     17  C   UNL d   1      13.726  -4.358   1.194 -0.17 -0.00    +0.000    39.572
ATOM     18  C   UNL d   1      13.598  -4.825   2.498 -0.13 +0.00    +0.070    39.572
ATOM     19  C   UNL d   1      12.521  -5.030  -1.044 -0.01 -0.05    +0.052    39.572
ATOM     20  C   UNL d   1      14.312  -4.873   4.917 -0.09 +0.03    +0.066    39.572
ATOM     21  C   UNL d   1      15.118  -4.381   5.940 -0.10 -0.01    -0.025    39.572
ATOM     22  C   UNL d   1      14.812  -5.141   7.055 -0.08 -0.01    -0.021    39.572
ATOM     23  C   UNL d   1      13.835  -6.074   6.649 -0.02 +0.05    +0.066    39.572
ATOM     24  C   UNL d   1      16.146  -3.255   5.857 -0.06 +0.01    +0.051    39.572
ATOM     25  N   UNL d   1      11.931  -8.166   5.728 -0.06 -0.09    -0.248    39.572
ATOM     26  N   UNL d   1      11.030  -8.179   3.097 -0.06 +0.01    -0.248    39.572
ATOM     27  N   UNL d   1      12.717  -5.818   2.536 -0.08 +0.01    -0.248    39.572
ATOM     28  N   UNL d   1      13.531  -5.917   5.355 -0.03 -0.15    -0.248    39.572
ATOM     29 FE   UNL d   1      12.349  -6.920   4.039 -0.03 +0.00    +0.000    39.572
ATOM     30  C   UNL d   1      12.497  -9.475   9.223 -0.06 +0.02    +0.052    39.572
ATOM     31  C   UNL d   1      11.571  -8.772  10.215 -0.10 +0.05    +0.115    39.572
ATOM     32  C   UNL d   1      11.346  -7.317   9.862 -0.08 +0.13    +0.139    39.572
ATOM     33  O   UNL d   1      10.387  -7.007   9.172 -0.33 -0.79    -0.650    39.572
ATOM     34  O   UNL d   1      12.151  -6.333  10.328 -0.11 -0.91    -0.776    39.572
ATOM     35  H   UNL d   1      11.831  -5.495  10.690 +0.01 +0.23    +0.167    39.572
ATOM     36  C   UNL d   1      13.918  -8.238   3.598 -0.01 +0.00    +0.190    39.572
ATOM     37  O   UNL d   1      14.764  -9.195   4.168 +0.00 -0.01    -0.399    39.572
ATOM     38  H   UNL d   1      14.476  -9.255   5.122 +0.01 +0.02    +0.209    39.572
ATOM     39  C   UNL d   1      15.473  -5.015   8.414 -0.06 +0.03    +0.052    39.572
ATOM     40  C   UNL d   1      15.360  -3.575   8.942 -0.06 +0.07    +0.115    39.572
ATOM     41  C   UNL d   1      13.958  -3.165   9.343 +0.19 +0.17    +0.139    39.572
ATOM     42  O   UNL d   1      13.451  -2.180   8.824 -0.36 -0.83    -0.650    39.572
ATOM     43  O   UNL d   1      13.217  -3.908  10.195 -0.33 -1.17    -0.776    39.572
ATOM     44  H   UNL d   1      13.190  -4.873  10.153 +0.00 +0.24    +0.167    39.572
ATOM     45  C   UNL d   1       9.216  -8.816  -0.100 -0.45 -0.00    +0.004    39.572
ATOM     46  C   UNL d   1       8.373  -9.625  -0.736 -0.56 -0.00    +0.012    39.572
ATOM     47  C   UNL d   1      14.692  -3.306   0.756 -0.14 -0.00    +0.004    39.572
ATOM     48  C   UNL d   1      14.405  -2.002   0.742 -0.23 +0.00    +0.012    39.572
TER
ENDMDL
MODEL       62
USER    Run = 62
USER    Cluster Rank = 5
USER    Number of conformations in this cluster = 4
USER  
USER    RMSD from reference structure       = 39.404 A
USER  
USER    Estimated Free Energy of Binding    =   -5.76 kcal/mol  [=(1)+(2)+(3)-(4)]
USER    Estimated Inhibition Constant, Ki   =   59.68 uM (micromolar)  [Temperature = 298.15 K]
USER    
USER    (1) Final Intermolecular Energy     =   -9.34 kcal/mol
USER        vdW + Hbond + desolv Energy     =   -6.60 kcal/mol
USER        Electrostatic Energy            =   -2.74 kcal/mol
USER    (2) Final Total Internal Energy     =   -2.30 kcal/mol
USER    (3) Torsional Free Energy           =   +3.58 kcal/mol
USER    (4) Unbound System's Energy  [=(2)] =   -2.30 kcal/mol
USER    
USER    
USER  
USER    DPF = D:/Protein_go_brrr/autodock/final/mut_N102T/heme_Co/dock.dpf
USER    NEWDPF move	heme_Co_opt.pdbqt
USER    NEWDPF about	8.781000 34.984000 -0.736000
USER    NEWDPF tran0	7.318426 -4.858368 14.456083
USER    NEWDPF axisangle0	-0.298445 -0.406145 -0.863700 -108.647624
USER    NEWDPF quaternion0	-0.242435 -0.329922 -0.701606 -0.583204
USER    NEWDPF dihe0	112.46 97.00 -42.93 121.30 -101.04 139.75 95.43 142.09 -54.12 17.13 -149.35 -179.41 
USER  
USER                              x       y       z    vdW   Elec        q     RMS 
ATOM      1  C   UNL d   1       8.236  -4.269  12.578 -0.14 +0.02    +0.064    39.404
ATOM      2  C   UNL d   1       5.212  -2.041  15.494 -0.24 -0.01    +0.064    39.404
ATOM      3  C   UNL d   1       4.906  -5.951  18.224 -0.16 -0.01    +0.064    39.404
ATOM      4  C   UNL d   1       8.288  -8.117  15.479 -0.23 +0.02    +0.064    39.404
ATOM      5  C   UNL d   1       7.404  -3.386  13.154 -0.14 +0.01    +0.066    39.404
ATOM      6  C   UNL d   1       7.269  -2.067  12.678 -0.23 -0.00    -0.021    39.404
ATOM      7  C   UNL d   1       6.408  -1.418  13.541 -0.29 -0.00    -0.025    39.404
ATOM      8  C   UNL d   1       6.042  -2.372  14.497 -0.20 -0.00    +0.066    39.404
ATOM      9  C   UNL d   1       5.938   0.044  13.483 -0.47 -0.00    +0.051    39.404
ATOM     10  C   UNL d   1       4.760  -2.962  16.507 -0.17 -0.01    +0.066    39.404
ATOM     11  C   UNL d   1       3.783  -2.715  17.496 -0.18 +0.00    -0.021    39.404
ATOM     12  C   UNL d   1       3.711  -3.873  18.276 -0.12 -0.00    +0.000    39.404
ATOM     13  C   UNL d   1       4.637  -4.742  17.699 -0.14 -0.01    +0.070    39.404
ATOM     14  C   UNL d   1       2.920  -1.485  17.610 -0.35 -0.02    +0.052    39.404
ATOM     15  C   UNL d   1       5.864  -6.949  17.792 -0.19 -0.00    +0.066    39.404
ATOM     16  C   UNL d   1       6.196  -8.117  18.464 -0.18 +0.00    -0.021    39.404
ATOM     17  C   UNL d   1       7.172  -8.744  17.677 -0.21 +0.00    +0.000    39.404
ATOM     18  C   UNL d   1       7.348  -7.914  16.574 -0.23 +0.01    +0.070    39.404
ATOM     19  C   UNL d   1       5.598  -8.574  19.776 -0.12 -0.00    +0.052    39.404
ATOM     20  C   UNL d   1       8.537  -7.282  14.442 -0.19 +0.02    +0.066    39.404
ATOM     21  C   UNL d   1       9.492  -7.570  13.469 -0.16 -0.01    -0.025    39.404
ATOM     22  C   UNL d   1       9.478  -6.491  12.603 -0.17 -0.01    -0.021    39.404
ATOM     23  C   UNL d   1       8.517  -5.587  13.102 -0.15 +0.02    +0.066    39.404
ATOM     24  C   UNL d   1      10.388  -8.802  13.379 -0.14 +0.02    +0.051    39.404
ATOM     25  N   UNL d   1       6.640  -3.602  14.278 +0.04 -0.02    -0.248    39.404
ATOM     26  N   UNL d   1       5.230  -4.211  16.597 -0.01 +0.02    -0.248    39.404
ATOM     27  N   UNL d   1       6.574  -6.840  16.691 -0.09 -0.01    -0.248    39.404
ATOM     28  N   UNL d   1       7.947  -6.060  14.216 +0.01 -0.04    -0.248    39.404
ATOM     29 FE   UNL d   1       6.607  -5.319  15.554 -0.04 +0.00    +0.000    39.404
ATOM     30  C   UNL d   1       8.003  -1.447  11.494 -0.10 +0.01    +0.052    39.404
ATOM     31  C   UNL d   1       9.503  -1.368  11.774 -0.18 +0.05    +0.115    39.404
ATOM     32  C   UNL d   1      10.327  -2.068  10.714 -0.17 +0.12    +0.139    39.404
ATOM     33  O   UNL d   1       9.884  -3.072  10.176 -0.49 -0.98    -0.650    39.404
ATOM     34  O   UNL d   1      11.524  -1.590  10.304 -0.05 -0.72    -0.776    39.404
ATOM     35  H   UNL d   1      12.375  -1.998  10.518 +0.03 +0.16    +0.167    39.404
ATOM     36  C   UNL d   1       8.155  -4.407  16.634 -0.05 +0.01    +0.190    39.404
ATOM     37  O   UNL d   1       9.106  -3.383  16.569 -0.01 -0.05    -0.399    39.404
ATOM     38  H   UNL d   1       9.155  -3.139  15.602 +0.03 +0.03    +0.209    39.404
ATOM     39  C   UNL d   1      10.388  -6.317  11.402 -0.15 +0.03    +0.052    39.404
ATOM     40  C   UNL d   1      11.788  -5.858  11.843 -0.06 +0.07    +0.115    39.404
ATOM     41  C   UNL d   1      12.680  -5.394  10.711 +0.07 +0.16    +0.139    39.404
ATOM     42  O   UNL d   1      13.252  -6.226  10.020 -0.05 -0.65    -0.650    39.404
ATOM     43  O   UNL d   1      12.793  -4.088  10.385 -0.04 -1.28    -0.776    39.404
ATOM     44  H   UNL d   1      12.047  -3.475  10.429 +0.01 +0.31    +0.167    39.404
ATOM     45  C   UNL d   1       2.864  -4.263  19.480 -0.09 -0.00    +0.004    39.404
ATOM     46  C   UNL d   1       1.906  -5.176  19.606 -0.12 -0.00    +0.012    39.404
ATOM     47  C   UNL d   1       7.942  -9.998  17.932 -0.18 +0.00    +0.004    39.404
ATOM     48  C   UNL d   1       9.276 -10.050  17.971 -0.12 +0.00    +0.012    39.404
TER
ENDMDL
MODEL       92
USER    Run = 92
USER    Cluster Rank = 6
USER    Number of conformations in this cluster = 1
USER  
USER    RMSD from reference structure       = 23.157 A
USER  
USER    Estimated Free Energy of Binding    =   -5.68 kcal/mol  [=(1)+(2)+(3)-(4)]
USER    Estimated Inhibition Constant, Ki   =   68.57 uM (micromolar)  [Temperature = 298.15 K]
USER    
USER    (1) Final Intermolecular Energy     =   -9.26 kcal/mol
USER        vdW + Hbond + desolv Energy     =   -8.44 kcal/mol
USER        Electrostatic Energy            =   -0.82 kcal/mol
USER    (2) Final Total Internal Energy     =   -0.83 kcal/mol
USER    (3) Torsional Free Energy           =   +3.58 kcal/mol
USER    (4) Unbound System's Energy  [=(2)] =   -0.83 kcal/mol
USER    
USER    
USER  
USER    DPF = D:/Protein_go_brrr/autodock/final/mut_N102T/heme_Co/dock.dpf
USER    NEWDPF move	heme_Co_opt.pdbqt
USER    NEWDPF about	8.781000 34.984000 -0.736000
USER    NEWDPF tran0	4.249904 14.763304 -12.518480
USER    NEWDPF axisangle0	-0.760069 0.448810 -0.469963 -67.730945
USER    NEWDPF quaternion0	-0.423544 0.250097 -0.261884 -0.830348
USER    NEWDPF dihe0	52.49 115.50 26.66 129.44 -3.32 163.98 179.25 174.09 -94.73 -42.00 -16.51 174.98 
USER  
USER                              x       y       z    vdW   Elec        q     RMS 
ATOM      1  C   UNL d   1       2.392  15.780 -12.999 -0.22 -0.01    +0.064    23.157
ATOM      2  C   UNL d   1       5.107  15.763  -9.096 -0.22 -0.02    +0.064    23.157
ATOM      3  C   UNL d   1       7.951  12.453 -11.043 -0.20 -0.02    +0.064    23.157
ATOM      4  C   UNL d   1       5.419  12.735 -15.187 -0.21 -0.05    +0.064    23.157
ATOM      5  C   UNL d   1       2.904  15.992 -11.776 -0.20 -0.02    +0.066    23.157
ATOM      6  C   UNL d   1       2.379  16.966 -10.904 -0.14 +0.01    -0.021    23.157
ATOM      7  C   UNL d   1       3.185  16.972  -9.782 -0.16 +0.01    -0.025    23.157
ATOM      8  C   UNL d   1       4.156  15.992 -10.010 -0.19 -0.02    +0.066    23.157
ATOM      9  C   UNL d   1       3.058  17.863  -8.537 -0.14 -0.01    +0.051    23.157
ATOM     10  C   UNL d   1       6.131  14.757  -9.231 -0.22 -0.03    +0.066    23.157
ATOM     11  C   UNL d   1       7.071  14.372  -8.249 -0.17 +0.01    -0.021    23.157
ATOM     12  C   UNL d   1       7.885  13.403  -8.842 -0.19 -0.00    +0.000    23.157
ATOM     13  C   UNL d   1       7.376  13.260 -10.133 -0.21 -0.03    +0.070    23.157
ATOM     14  C   UNL d   1       7.109  14.842  -6.818 -0.14 -0.05    +0.052    23.157
ATOM     15  C   UNL d   1       7.591  12.226 -12.428 -0.21 -0.02    +0.066    23.157
ATOM     16  C   UNL d   1       8.315  11.490 -13.356 -0.21 +0.01    -0.021    23.157
ATOM     17  C   UNL d   1       7.590  11.570 -14.554 -0.25 -0.00    +0.000    23.157
ATOM     18  C   UNL d   1       6.468  12.337 -14.256 -0.26 -0.04    +0.070    23.157
ATOM     19  C   UNL d   1       9.616  10.769 -13.082 -0.23 -0.01    +0.052    23.157
ATOM     20  C   UNL d   1       4.366  13.551 -14.942 -0.28 -0.03    +0.066    23.157
ATOM     21  C   UNL d   1       3.443  13.889 -15.929 -0.30 +0.01    -0.025    23.157
ATOM     22  C   UNL d   1       2.542  14.743 -15.320 -0.30 +0.00    -0.021    23.157
ATOM     23  C   UNL d   1       2.970  14.894 -13.984 -0.26 -0.01    +0.066    23.157
ATOM     24  C   UNL d   1       3.430  13.437 -17.387 -0.33 -0.02    +0.051    23.157
ATOM     25  N   UNL d   1       4.003  15.364 -11.234 -0.13 +0.11    -0.248    23.157
ATOM     26  N   UNL d   1       6.281  14.037 -10.348 -0.08 +0.11    -0.248    23.157
ATOM     27  N   UNL d   1       6.518  12.735 -12.990 -0.14 +0.11    -0.248    23.157
ATOM     28  N   UNL d   1       4.075  14.176 -13.752 -0.16 +0.10    -0.248    23.157
ATOM     29 FE   UNL d   1       5.333  13.971 -12.167 -0.06 -0.00    +0.000    23.157
ATOM     30  C   UNL d   1       1.206  17.899 -11.184 -0.08 -0.01    +0.052    23.157
ATOM     31  C   UNL d   1      -0.100  17.109 -11.270 -0.13 -0.01    +0.115    23.157
ATOM     32  C   UNL d   1      -0.704  16.843  -9.908 -0.19 -0.02    +0.139    23.157
ATOM     33  O   UNL d   1      -0.837  17.766  -9.118 -0.02 +0.06    -0.650    23.157
ATOM     34  O   UNL d   1      -1.149  15.616  -9.548 -0.04 +0.14    -0.776    23.157
ATOM     35  H   UNL d   1      -0.646  14.799  -9.665 -0.48 -0.07    +0.167    23.157
ATOM     36  C   UNL d   1       6.443  15.631 -12.804 -0.05 -0.05    +0.190    23.157
ATOM     37  O   UNL d   1       6.564  17.016 -12.651 +0.00 +0.06    -0.399    23.157
ATOM     38  H   UNL d   1       5.876  17.260 -11.971 +0.02 -0.04    +0.209    23.157
ATOM     39  C   UNL d   1       1.373  15.424 -16.007 -0.28 +0.01    +0.052    23.157
ATOM     40  C   UNL d   1       1.834  16.709 -16.715 -0.15 +0.03    +0.115    23.157
ATOM     41  C   UNL d   1       1.337  16.851 -18.138 -0.10 +0.08    +0.139    23.157
ATOM     42  O   UNL d   1       1.442  15.904 -18.906 +0.03 -0.36    -0.650    23.157
ATOM     43  O   UNL d   1       0.700  17.966 -18.561 -0.08 -0.83    -0.776    23.157
ATOM     44  H   UNL d   1       0.910  18.844 -18.219 +0.01 +0.12    +0.167    23.157
ATOM     45  C   UNL d   1       9.067  12.588  -8.335 -0.26 -0.00    +0.004    23.157
ATOM     46  C   UNL d   1       9.233  11.271  -8.241 -0.40 -0.01    +0.012    23.157
ATOM     47  C   UNL d   1       7.918  11.027 -15.906 -0.22 -0.00    +0.004    23.157
ATOM     48  C   UNL d   1       9.163  10.774 -16.317 -0.22 -0.00    +0.012    23.157
TER
ENDMDL
MODEL        4
USER    Run = 4
USER    Cluster Rank = 7
USER    Number of conformations in this cluster = 1
USER  
USER    RMSD from reference structure       = 40.557 A
USER  
USER    Estimated Free Energy of Binding    =   -5.56 kcal/mol  [=(1)+(2)+(3)-(4)]
USER    Estimated Inhibition Constant, Ki   =   83.34 uM (micromolar)  [Temperature = 298.15 K]
USER    
USER    (1) Final Intermolecular Energy     =   -9.14 kcal/mol
USER        vdW + Hbond + desolv Energy     =   -6.17 kcal/mol
USER        Electrostatic Energy            =   -2.98 kcal/mol
USER    (2) Final Total Internal Energy     =   -0.84 kcal/mol
USER    (3) Torsional Free Energy           =   +3.58 kcal/mol
USER    (4) Unbound System's Energy  [=(2)] =   -0.84 kcal/mol
USER    
USER    
USER  
USER    DPF = D:/Protein_go_brrr/autodock/final/mut_N102T/heme_Co/dock.dpf
USER    NEWDPF move	heme_Co_opt.pdbqt
USER    NEWDPF about	8.781000 34.984000 -0.736000
USER    NEWDPF tran0	7.391716 -5.537791 16.127802
USER    NEWDPF axisangle0	0.291069 0.512400 0.807914 162.531726
USER    NEWDPF quaternion0	0.287694 0.506458 0.798545 0.151850
USER    NEWDPF dihe0	54.25 104.20 -67.28 -141.69 137.25 151.03 -170.83 -97.13 -94.87 -56.28 7.81 176.82 
USER  
USER                              x       y       z    vdW   Elec        q     RMS 
ATOM      1  C   UNL d   1       8.924  -6.614  15.028 -0.12 +0.01    +0.064    40.557
ATOM      2  C   UNL d   1       7.653  -2.032  15.082 -0.14 +0.01    +0.064    40.557
ATOM      3  C   UNL d   1       3.998  -3.042  17.989 -0.10 -0.01    +0.064    40.557
ATOM      4  C   UNL d   1       5.504  -7.659  18.259 -0.14 -0.01    +0.064    40.557
ATOM      5  C   UNL d   1       8.823  -5.294  14.800 -0.09 +0.01    +0.066    40.557
ATOM      6  C   UNL d   1       9.776  -4.593  14.034 -0.05 -0.01    -0.021    40.557
ATOM      7  C   UNL d   1       9.414  -3.261  14.072 -0.05 -0.01    -0.025    40.557
ATOM      8  C   UNL d   1       8.249  -3.208  14.845 -0.07 +0.01    +0.066    40.557
ATOM      9  C   UNL d   1      10.129  -2.072  13.412 -0.06 +0.01    +0.051    40.557
ATOM     10  C   UNL d   1       6.437  -1.883  15.842 -0.17 +0.00    +0.066    40.557
ATOM     11  C   UNL d   1       5.686  -0.699  16.009 -0.32 +0.00    -0.021    40.557
ATOM     12  C   UNL d   1       4.624  -1.023  16.857 -0.32 -0.00    +0.000    40.557
ATOM     13  C   UNL d   1       4.798  -2.379  17.135 -0.15 -0.01    +0.070    40.557
ATOM     14  C   UNL d   1       5.931   0.617  15.316 -0.25 -0.01    +0.052    40.557
ATOM     15  C   UNL d   1       4.064  -4.421  18.429 -0.10 -0.01    +0.066    40.557
ATOM     16  C   UNL d   1       3.294  -5.006  19.424 -0.08 +0.00    -0.021    40.557
ATOM     17  C   UNL d   1       3.727  -6.337  19.508 -0.12 -0.00    +0.000    40.557
ATOM     18  C   UNL d   1       4.718  -6.464  18.541 -0.15 -0.01    +0.070    40.557
ATOM     19  C   UNL d   1       2.221  -4.305  20.228 -0.05 -0.01    +0.052    40.557
ATOM     20  C   UNL d   1       6.531  -7.783  17.384 -0.22 +0.00    +0.066    40.557
ATOM     21  C   UNL d   1       7.235  -8.975  17.227 -0.22 -0.01    -0.025    40.557
ATOM     22  C   UNL d   1       8.208  -8.712  16.281 -0.22 -0.01    -0.021    40.557
ATOM     23  C   UNL d   1       8.057  -7.358  15.913 -0.18 +0.01    +0.066    40.557
ATOM     24  C   UNL d   1       7.004 -10.295  17.958 -0.13 +0.01    +0.051    40.557
ATOM     25  N   UNL d   1       7.857  -4.454  15.304 -0.05 -0.03    -0.248    40.557
ATOM     26  N   UNL d   1       5.862  -2.910  16.476 -0.07 +0.01    -0.248    40.557
ATOM     27  N   UNL d   1       4.914  -5.296  17.939 -0.10 +0.03    -0.248    40.557
ATOM     28  N   UNL d   1       7.045  -6.791  16.581 -0.08 -0.02    -0.248    40.557
ATOM     29 FE   UNL d   1       6.299  -4.904  16.699 -0.03 -0.00    +0.000    40.557
ATOM     30  C   UNL d   1      11.018  -5.178  13.370 -0.04 +0.02    +0.052    40.557
ATOM     31  C   UNL d   1      10.711  -5.600  11.934 -0.09 +0.07    +0.115    40.557
ATOM     32  C   UNL d   1      10.796  -4.443  10.962 +0.05 +0.18    +0.139    40.557
ATOM     33  O   UNL d   1      11.848  -3.833  10.844 -0.04 -0.91    -0.650    40.557
ATOM     34  O   UNL d   1       9.752  -4.086  10.177 -0.25 -1.32    -0.776    40.557
ATOM     35  H   UNL d   1       8.853  -3.939  10.501 +0.05 +0.15    +0.167    40.557
ATOM     36  C   UNL d   1       7.671  -4.431  18.212 -0.03 +0.00    +0.190    40.557
ATOM     37  O   UNL d   1       9.003  -4.065  18.434 +0.00 -0.02    -0.399    40.557
ATOM     38  H   UNL d   1       9.449  -4.170  17.547 +0.01 +0.02    +0.209    40.557
ATOM     39  C   UNL d   1       9.264  -9.694  15.809 -0.15 +0.03    +0.052    40.557
ATOM     40  C   UNL d   1      10.441  -9.742  16.797 -0.09 +0.06    +0.115    40.557
ATOM     41  C   UNL d   1      10.663 -11.094  17.440 -0.08 +0.10    +0.139    40.557
ATOM     42  O   UNL d   1      10.557 -12.105  16.760 -0.52 -1.10    -0.650    40.557
ATOM     43  O   UNL d   1      11.059 -11.213  18.727 +0.01 -0.27    -0.776    40.557
ATOM     44  H   UNL d   1      11.895 -10.851  19.048 +0.01 +0.04    +0.167    40.557
ATOM     45  C   UNL d   1       3.461  -0.216  17.419 -0.43 -0.00    +0.004    40.557
ATOM     46  C   UNL d   1       2.792  -0.342  18.563 -0.42 -0.01    +0.012    40.557
ATOM     47  C   UNL d   1       3.303  -7.421  20.444 -0.12 -0.00    +0.004    40.557
ATOM     48  C   UNL d   1       2.684  -8.536  20.048 -0.21 -0.00    +0.012    40.557
TER
ENDMDL
MODEL       11
USER    Run = 11
USER    Cluster Rank = 8
USER    Number of conformations in this cluster = 4
USER  
USER    RMSD from reference structure       = 31.109 A
USER  
USER    Estimated Free Energy of Binding    =   -5.50 kcal/mol  [=(1)+(2)+(3)-(4)]
USER    Estimated Inhibition Constant, Ki   =   92.39 uM (micromolar)  [Temperature = 298.15 K]
USER    
USER    (1) Final Intermolecular Energy     =   -9.08 kcal/mol
USER        vdW + Hbond + desolv Energy     =   -6.25 kcal/mol
USER        Electrostatic Energy            =   -2.83 kcal/mol
USER    (2) Final Total Internal Energy     =   -2.10 kcal/mol
USER    (3) Torsional Free Energy           =   +3.58 kcal/mol
USER    (4) Unbound System's Energy  [=(2)] =   -2.10 kcal/mol
USER    
USER    
USER  
USER    DPF = D:/Protein_go_brrr/autodock/final/mut_N102T/heme_Co/dock.dpf
USER    NEWDPF move	heme_Co_opt.pdbqt
USER    NEWDPF about	8.781000 34.984000 -0.736000
USER    NEWDPF tran0	14.468615 2.701304 8.699545
USER    NEWDPF axisangle0	0.730529 0.492284 0.473270 -146.645379
USER    NEWDPF quaternion0	0.699800 0.471576 0.453362 -0.286981
USER    NEWDPF dihe0	-159.04 107.35 24.84 116.01 -91.93 120.40 28.97 14.74 -70.89 -49.00 -169.29 10.77 
USER  
USER                              x       y       z    vdW   Elec        q     RMS 
ATOM      1  C   UNL d   1      13.620   0.704   8.770 -0.18 +0.02    +0.064    31.109
ATOM      2  C   UNL d   1      16.119   2.998   5.438 -0.18 +0.02    +0.064    31.109
ATOM      3  C   UNL d   1      16.036   6.986   8.068 -0.15 +0.01    +0.064    31.109
ATOM      4  C   UNL d   1      13.819   4.559  11.654 -0.23 +0.02    +0.064    31.109
ATOM      5  C   UNL d   1      14.277   1.048   7.650 -0.19 +0.02    +0.066    31.109
ATOM      6  C   UNL d   1      14.574   0.112   6.640 -0.20 -0.01    -0.021    31.109
ATOM      7  C   UNL d   1      15.319   0.777   5.687 -0.18 -0.01    -0.025    31.109
ATOM      8  C   UNL d   1      15.431   2.094   6.147 -0.17 +0.01    +0.066    31.109
ATOM      9  C   UNL d   1      15.911   0.210   4.388 -0.15 +0.01    +0.051    31.109
ATOM     10  C   UNL d   1      16.265   4.381   5.818 -0.12 +0.01    +0.066    31.109
ATOM     11  C   UNL d   1      16.854   5.409   5.050 -0.11 -0.00    -0.021    31.109
ATOM     12  C   UNL d   1      16.813   6.562   5.840 -0.09 +0.00    +0.000    31.109
ATOM     13  C   UNL d   1      16.193   6.156   7.022 -0.07 +0.01    +0.070    31.109
ATOM     14  C   UNL d   1      17.329   5.298   3.625 -0.14 +0.03    +0.052    31.109
ATOM     15  C   UNL d   1      15.469   6.721   9.376 -0.19 +0.01    +0.066    31.109
ATOM     16  C   UNL d   1      15.469   7.583  10.463 -0.23 -0.00    -0.021    31.109
ATOM     17  C   UNL d   1      14.833   6.886  11.501 -0.29 +0.00    +0.000    31.109
ATOM     18  C   UNL d   1      14.479   5.656  10.957 -0.26 +0.02    +0.070    31.109
ATOM     19  C   UNL d   1      16.051   8.979  10.475 -0.05 +0.01    +0.052    31.109
ATOM     20  C   UNL d   1      13.543   3.324  11.172 -0.20 +0.02    +0.066    31.109
ATOM     21  C   UNL d   1      12.937   2.340  11.951 -0.17 -0.01    -0.025    31.109
ATOM     22  C   UNL d   1      12.840   1.227  11.137 -0.13 -0.01    -0.021    31.109
ATOM     23  C   UNL d   1      13.407   1.585   9.895 -0.16 +0.02    +0.066    31.109
ATOM     24  C   UNL d   1      12.490   2.449  13.407 -0.22 +0.02    +0.051    31.109
ATOM     25  N   UNL d   1      14.790   2.291   7.358 -0.06 -0.05    -0.248    31.109
ATOM     26  N   UNL d   1      15.812   4.851   6.985 +0.04 -0.05    -0.248    31.109
ATOM     27  N   UNL d   1      14.900   5.581   9.699 +0.04 -0.04    -0.248    31.109
ATOM     28  N   UNL d   1      13.835   2.853   9.913 -0.09 -0.06    -0.248    31.109
ATOM     29 FE   UNL d   1      14.846   4.032   8.601 -0.03 +0.00    +0.000    31.109
ATOM     30  C   UNL d   1      14.223  -1.372   6.644 -0.04 +0.03    +0.052    31.109
ATOM     31  C   UNL d   1      15.286  -2.174   7.394 -0.10 +0.05    +0.115    31.109
ATOM     32  C   UNL d   1      14.797  -2.662   8.741 -0.08 +0.10    +0.139    31.109
ATOM     33  O   UNL d   1      15.125  -2.062   9.753 +0.01 -0.29    -0.650    31.109
ATOM     34  O   UNL d   1      13.963  -3.721   8.861 -0.38 -1.27    -0.776    31.109
ATOM     35  H   UNL d   1      13.449  -3.921   9.656 +0.01 +0.32    +0.167    31.109
ATOM     36  C   UNL d   1      16.676   3.315   9.329 -0.04 +0.03    +0.190    31.109
ATOM     37  O   UNL d   1      17.368   2.140   9.641 -0.00 -0.05    -0.399    31.109
ATOM     38  H   UNL d   1      16.699   1.409   9.521 +0.01 +0.03    +0.209    31.109
ATOM     39  C   UNL d   1      12.292  -0.125  11.556 -0.11 +0.02    +0.052    31.109
ATOM     40  C   UNL d   1      10.970  -0.423  10.829 -0.19 +0.06    +0.115    31.109
ATOM     41  C   UNL d   1      10.954  -1.737  10.077 -0.18 +0.15    +0.139    31.109
ATOM     42  O   UNL d   1       9.888  -2.311   9.898 -0.44 -0.83    -0.650    31.109
ATOM     43  O   UNL d   1      12.073  -2.251   9.521 -0.05 -1.38    -0.776    31.109
ATOM     44  H   UNL d   1      12.952  -2.109   9.896 +0.02 +0.19    +0.167    31.109
ATOM     45  C   UNL d   1      17.268   7.996   5.607 -0.06 +0.00    +0.004    31.109
ATOM     46  C   UNL d   1      16.564   9.104   5.391 -0.07 +0.00    +0.012    31.109
ATOM     47  C   UNL d   1      14.603   7.291  12.920 -0.27 +0.00    +0.004    31.109
ATOM     48  C   UNL d   1      15.178   6.685  13.961 -0.17 +0.00    +0.012    31.109
TER
ENDMDL
MODEL        3
USER    Run = 3
USER    Cluster Rank = 9
USER    Number of conformations in this cluster = 2
USER  
USER    RMSD from reference structure       = 37.029 A
USER  
USER    Estimated Free Energy of Binding    =   -5.44 kcal/mol  [=(1)+(2)+(3)-(4)]
USER    Estimated Inhibition Constant, Ki   =  102.52 uM (micromolar)  [Temperature = 298.15 K]
USER    
USER    (1) Final Intermolecular Energy     =   -9.02 kcal/mol
USER        vdW + Hbond + desolv Energy     =   -7.95 kcal/mol
USER        Electrostatic Energy            =   -1.07 kcal/mol
USER    (2) Final Total Internal Energy     =   -0.84 kcal/mol
USER    (3) Torsional Free Energy           =   +3.58 kcal/mol
USER    (4) Unbound System's Energy  [=(2)] =   -0.84 kcal/mol
USER    
USER    
USER  
USER    DPF = D:/Protein_go_brrr/autodock/final/mut_N102T/heme_Co/dock.dpf
USER    NEWDPF move	heme_Co_opt.pdbqt
USER    NEWDPF about	8.781000 34.984000 -0.736000
USER    NEWDPF tran0	-11.441302 2.497616 11.575915
USER    NEWDPF axisangle0	0.622123 -0.255470 -0.740067 143.930028
USER    NEWDPF quaternion0	0.591556 -0.242918 -0.703705 0.309598
USER    NEWDPF dihe0	159.92 104.99 63.41 120.37 -85.10 158.84 153.36 -177.98 -121.08 62.42 -22.55 128.89 
USER  
USER                              x       y       z    vdW   Elec        q     RMS 
ATOM      1  C   UNL d   1     -11.013   1.264  13.311 -0.23 +0.01    +0.064    37.029
ATOM      2  C   UNL d   1     -11.773   5.932  12.819 -0.17 +0.00    +0.064    37.029
ATOM      3  C   UNL d   1     -11.960   5.439   8.070 -0.22 -0.00    +0.064    37.029
ATOM      4  C   UNL d   1     -11.569   0.616   8.568 -0.24 -0.02    +0.064    37.029
ATOM      5  C   UNL d   1     -11.170   2.581  13.523 -0.18 +0.01    +0.066    37.029
ATOM      6  C   UNL d   1     -11.246   3.125  14.820 -0.14 -0.00    -0.021    37.029
ATOM      7  C   UNL d   1     -11.489   4.477  14.671 -0.13 -0.00    -0.025    37.029
ATOM      8  C   UNL d   1     -11.536   4.702  13.291 -0.12 +0.00    +0.066    37.029
ATOM      9  C   UNL d   1     -11.674   5.528  15.776 -0.07 +0.00    +0.051    37.029
ATOM     10  C   UNL d   1     -11.813   6.264  11.416 -0.16 +0.00    +0.066    37.029
ATOM     11  C   UNL d   1     -11.918   7.557  10.858 -0.14 +0.00    -0.021    37.029
ATOM     12  C   UNL d   1     -11.966   7.384   9.472 -0.18 -0.00    +0.000    37.029
ATOM     13  C   UNL d   1     -11.875   6.004   9.287 -0.21 -0.00    +0.070    37.029
ATOM     14  C   UNL d   1     -11.876   8.861  11.612 -0.11 -0.00    +0.052    37.029
ATOM     15  C   UNL d   1     -11.937   4.037   7.703 -0.24 -0.00    +0.066    37.029
ATOM     16  C   UNL d   1     -12.175   3.512   6.441 -0.23 +0.00    -0.021    37.029
ATOM     17  C   UNL d   1     -12.067   2.121   6.580 -0.28 -0.00    +0.000    37.029
ATOM     18  C   UNL d   1     -11.753   1.907   7.918 -0.26 -0.01    +0.070    37.029
ATOM     19  C   UNL d   1     -12.487   4.319   5.200 -0.19 +0.00    +0.052    37.029
ATOM     20  C   UNL d   1     -11.349   0.379   9.884 -0.21 -0.02    +0.066    37.029
ATOM     21  C   UNL d   1     -11.226  -0.910  10.397 -0.28 +0.01    -0.025    37.029
ATOM     22  C   UNL d   1     -11.035  -0.753  11.758 -0.27 +0.01    -0.021    37.029
ATOM     23  C   UNL d   1     -11.065   0.635  12.011 -0.24 -0.00    +0.066    37.029
ATOM     24  C   UNL d   1     -11.305  -2.228   9.632 -0.28 -0.04    +0.051    37.029
ATOM     25  N   UNL d   1     -11.336   3.546  12.556 +0.02 -0.01    -0.248    37.029
ATOM     26  N   UNL d   1     -11.726   5.333  10.460 -0.05 +0.00    -0.248    37.029
ATOM     27  N   UNL d   1     -11.714   3.068   8.563 -0.13 +0.01    -0.248    37.029
ATOM     28  N   UNL d   1     -11.257   1.324  10.880 -0.18 +0.04    -0.248    37.029
ATOM     29 FE   UNL d   1     -11.535   3.289  10.441 -0.07 -0.00    +0.000    37.029
ATOM     30  C   UNL d   1     -11.168   2.357  16.135 -0.10 +0.01    +0.052    37.029
ATOM     31  C   UNL d   1      -9.817   1.654  16.267 -0.17 +0.05    +0.115    37.029
ATOM     32  C   UNL d   1      -8.653   2.616  16.169 -0.23 +0.06    +0.139    37.029
ATOM     33  O   UNL d   1      -8.825   3.796  16.438 +0.01 -0.14    -0.650    37.029
ATOM     34  O   UNL d   1      -7.407   2.205  15.837 +0.02 -0.45    -0.776    37.029
ATOM     35  H   UNL d   1      -6.733   2.775  15.443 -0.42 +0.04    +0.167    37.029
ATOM     36  C   UNL d   1     -13.596   3.096  10.773 -0.07 -0.01    +0.190    37.029
ATOM     37  O   UNL d   1     -14.575   3.157  11.770 -0.00 +0.02    -0.399    37.029
ATOM     38  H   UNL d   1     -14.066   3.236  12.624 +0.02 -0.01    +0.209    37.029
ATOM     39  C   UNL d   1     -10.899  -1.882  12.763 -0.19 -0.02    +0.052    37.029
ATOM     40  C   UNL d   1     -11.853  -1.669  13.950 -0.09 -0.00    +0.115    37.029
ATOM     41  C   UNL d   1     -11.171  -1.630  15.301 -0.10 +0.04    +0.139    37.029
ATOM     42  O   UNL d   1     -10.253  -2.405  15.531 -0.51 -0.44    -0.650    37.029
ATOM     43  O   UNL d   1     -11.489  -0.702  16.230 -0.06 -0.22    -0.776    37.029
ATOM     44  H   UNL d   1     -12.336  -0.702  16.696 +0.01 +0.02    +0.167    37.029
ATOM     45  C   UNL d   1     -12.068   8.359   8.307 -0.18 -0.00    +0.004    37.029
ATOM     46  C   UNL d   1     -11.185   8.677   7.364 -0.27 -0.00    +0.012    37.029
ATOM     47  C   UNL d   1     -12.284   1.041   5.571 -0.27 -0.00    +0.004    37.029
ATOM     48  C   UNL d   1     -13.350   0.238   5.570 -0.16 -0.01    +0.012    37.029
TER
ENDMDL
MODEL       59
USER    Run = 59
USER    Cluster Rank = 10
USER    Number of conformations in this cluster = 2
USER  
USER    RMSD from reference structure       = 40.708 A
USER  
USER    Estimated Free Energy of Binding    =   -5.42 kcal/mol  [=(1)+(2)+(3)-(4)]
USER    Estimated Inhibition Constant, Ki   =  105.61 uM (micromolar)  [Temperature = 298.15 K]
USER    
USER    (1) Final Intermolecular Energy     =   -9.00 kcal/mol
USER        vdW + Hbond + desolv Energy     =   -6.65 kcal/mol
USER        Electrostatic Energy            =   -2.36 kcal/mol
USER    (2) Final Total Internal Energy     =   -0.68 kcal/mol
USER    (3) Torsional Free Energy           =   +3.58 kcal/mol
USER    (4) Unbound System's Energy  [=(2)] =   -0.68 kcal/mol
USER    
USER    
USER  
USER    DPF = D:/Protein_go_brrr/autodock/final/mut_N102T/heme_Co/dock.dpf
USER    NEWDPF move	heme_Co_opt.pdbqt
USER    NEWDPF about	8.781000 34.984000 -0.736000
USER    NEWDPF tran0	12.140526 -7.822492 5.961433
USER    NEWDPF axisangle0	-0.747079 -0.538197 0.390150 135.006824
USER    NEWDPF quaternion0	-0.690228 -0.497241 0.360460 0.382628
USER    NEWDPF dihe0	11.46 120.27 142.96 -2.99 132.68 111.00 44.25 166.51 -0.28 112.57 138.14 -4.70 
USER  
USER                              x       y       z    vdW   Elec        q     RMS 
ATOM      1  C   UNL d   1      12.245  -7.969   8.126 -0.09 +0.05    +0.064    40.708
ATOM      2  C   UNL d   1       9.557 -10.198   4.898 -0.29 +0.01    +0.064    40.708
ATOM      3  C   UNL d   1      11.387  -7.466   1.432 -0.17 -0.03    +0.064    40.708
ATOM      4  C   UNL d   1      14.421  -5.439   4.649 -0.08 +0.02    +0.064    40.708
ATOM      5  C   UNL d   1      11.350  -8.754   7.504 -0.13 +0.03    +0.066    40.708
ATOM      6  C   UNL d   1      10.640  -9.763   8.184 -0.17 -0.01    -0.021    40.708
ATOM      7  C   UNL d   1       9.879 -10.421   7.238 -0.29 -0.01    -0.025    40.708
ATOM      8  C   UNL d   1      10.144  -9.777   6.025 -0.22 +0.01    +0.066    40.708
ATOM      9  C   UNL d   1       8.934 -11.614   7.453 -0.02 +0.01    +0.051    40.708
ATOM     10  C   UNL d   1       9.748  -9.581   3.609 -0.22 +0.00    +0.066    40.708
ATOM     11  C   UNL d   1       9.057  -9.887   2.416 -0.32 +0.00    -0.021    40.708
ATOM     12  C   UNL d   1       9.607  -9.072   1.423 -0.31 -0.00    +0.000    40.708
ATOM     13  C   UNL d   1      10.582  -8.324   2.083 -0.18 -0.02    +0.070    40.708
ATOM     14  C   UNL d   1       7.887 -10.827   2.279 -0.38 -0.00    +0.052    40.708
ATOM     15  C   UNL d   1      12.474  -6.655   1.944 -0.13 -0.02    +0.066    40.708
ATOM     16  C   UNL d   1      13.361  -5.898   1.192 -0.14 +0.01    -0.021    40.708
ATOM     17  C   UNL d   1      14.240  -5.314   2.116 -0.08 -0.00    +0.000    40.708
ATOM     18  C   UNL d   1      13.807  -5.749   3.364 -0.08 +0.01    +0.070    40.708
ATOM     19  C   UNL d   1      13.343  -5.765  -0.314 -0.19 -0.04    +0.052    40.708
ATOM     20  C   UNL d   1      14.071  -5.919   5.866 -0.06 +0.04    +0.066    40.708
ATOM     21  C   UNL d   1      14.761  -5.577   7.027 -0.08 -0.02    -0.025    40.708
ATOM     22  C   UNL d   1      14.138  -6.268   8.050 -0.05 -0.02    -0.021    40.708
ATOM     23  C   UNL d   1      13.098  -7.014   7.456 -0.05 +0.06    +0.066    40.708
ATOM     24  C   UNL d   1      15.968  -4.651   7.154 -0.05 +0.02    +0.051    40.708
ATOM     25  N   UNL d   1      11.047  -8.736   6.161 -0.08 -0.08    -0.248    40.708
ATOM     26  N   UNL d   1      10.628  -8.593   3.415 -0.08 -0.00    -0.248    40.708
ATOM     27  N   UNL d   1      12.773  -6.570   3.221 -0.05 -0.01    -0.248    40.708
ATOM     28  N   UNL d   1      13.056  -6.808   6.134 -0.05 -0.18    -0.248    40.708
ATOM     29 FE   UNL d   1      11.963  -7.587   4.606 -0.02 +0.00    +0.000    40.708
ATOM     30  C   UNL d   1      10.760 -10.120   9.662 -0.13 +0.02    +0.052    40.708
ATOM     31  C   UNL d   1      10.777 -11.637   9.848 -0.16 +0.03    +0.115    40.708
ATOM     32  C   UNL d   1      10.947 -12.040  11.297 -0.14 +0.07    +0.139    40.708
ATOM     33  O   UNL d   1      12.071 -12.119  11.770 +0.01 -0.31    -0.650    40.708
ATOM     34  O   UNL d   1       9.888 -12.270  12.107 -0.57 -0.91    -0.776    40.708
ATOM     35  H   UNL d   1       8.969 -12.296  11.807 +0.05 +0.16    +0.167    40.708
ATOM     36  C   UNL d   1      13.330  -9.163   4.401 -0.01 +0.01    +0.190    40.708
ATOM     37  O   UNL d   1      14.124 -10.051   5.133 +0.00 -0.03    -0.399    40.708
ATOM     38  H   UNL d   1      13.864  -9.903   6.085 +0.01 +0.03    +0.209    40.708
ATOM     39  C   UNL d   1      14.565  -6.260   9.506 -0.05 +0.03    +0.052    40.708
ATOM     40  C   UNL d   1      13.739  -5.240  10.307 -0.04 +0.11    +0.115    40.708
ATOM     41  C   UNL d   1      14.093  -3.794  10.032 +0.00 +0.14    +0.139    40.708
ATOM     42  O   UNL d   1      15.250  -3.425  10.170 -0.00 -0.32    -0.650    40.708
ATOM     43  O   UNL d   1      13.181  -2.919   9.553 -0.47 -1.38    -0.776    40.708
ATOM     44  H   UNL d   1      13.208  -1.976   9.761 +0.02 +0.17    +0.167    40.708
ATOM     45  C   UNL d   1       9.313  -8.903  -0.062 -0.42 -0.00    +0.004    40.708
ATOM     46  C   UNL d   1       8.570  -9.635  -0.886 -0.56 -0.01    +0.012    40.708
ATOM     47  C   UNL d   1      15.436  -4.450   1.880 -0.06 -0.00    +0.004    40.708
ATOM     48  C   UNL d   1      15.485  -3.155   2.200 -0.09 +0.00    +0.012    40.708
TER
ENDMDL
MODEL        8
USER    Run = 8
USER    Cluster Rank = 11
USER    Number of conformations in this cluster = 1
USER  
USER    RMSD from reference structure       = 26.133 A
USER  
USER    Estimated Free Energy of Binding    =   -5.36 kcal/mol  [=(1)+(2)+(3)-(4)]
USER    Estimated Inhibition Constant, Ki   =  118.36 uM (micromolar)  [Temperature = 298.15 K]
USER    
USER    (1) Final Intermolecular Energy     =   -8.94 kcal/mol
USER        vdW + Hbond + desolv Energy     =   -7.72 kcal/mol
USER        Electrostatic Energy            =   -1.22 kcal/mol
USER    (2) Final Total Internal Energy     =   -0.61 kcal/mol
USER    (3) Torsional Free Energy           =   +3.58 kcal/mol
USER    (4) Unbound System's Energy  [=(2)] =   -0.61 kcal/mol
USER    
USER    
USER  
USER    DPF = D:/Protein_go_brrr/autodock/final/mut_N102T/heme_Co/dock.dpf
USER    NEWDPF move	heme_Co_opt.pdbqt
USER    NEWDPF about	8.781000 34.984000 -0.736000
USER    NEWDPF tran0	-4.478655 13.783760 -12.790593
USER    NEWDPF axisangle0	0.302340 -0.337391 0.891492 141.459678
USER    NEWDPF quaternion0	0.285400 -0.318488 0.841545 0.330023
USER    NEWDPF dihe0	-51.13 -129.94 -90.09 13.56 -72.29 -6.29 161.28 -107.63 -51.92 39.09 180.00 20.77 
USER  
USER                              x       y       z    vdW   Elec        q     RMS 
ATOM      1  C   UNL d   1      -3.681  15.217 -14.214 -0.16 +0.01    +0.064    26.133
ATOM      2  C   UNL d   1      -2.875  14.531  -9.578 -0.27 -0.00    +0.064    26.133
ATOM      3  C   UNL d   1      -6.263  11.164  -9.449 -0.10 -0.00    +0.064    26.133
ATOM      4  C   UNL d   1      -6.836  11.575 -14.262 -0.10 -0.00    +0.064    26.133
ATOM      5  C   UNL d   1      -3.237  15.302 -12.949 -0.13 +0.00    +0.066    26.133
ATOM      6  C   UNL d   1      -2.170  16.147 -12.587 -0.13 -0.00    -0.021    26.133
ATOM      7  C   UNL d   1      -1.925  15.927 -11.245 -0.19 +0.00    -0.025    26.133
ATOM      8  C   UNL d   1      -2.864  14.971 -10.843 -0.21 -0.00    +0.066    26.133
ATOM      9  C   UNL d   1      -0.853  16.584 -10.363 -0.22 -0.01    +0.051    26.133
ATOM     10  C   UNL d   1      -3.819  13.569  -9.066 -0.23 -0.00    +0.066    26.133
ATOM     11  C   UNL d   1      -3.974  13.172  -7.720 -0.30 +0.00    -0.021    26.133
ATOM     12  C   UNL d   1      -4.971  12.193  -7.711 -0.26 -0.00    +0.000    26.133
ATOM     13  C   UNL d   1      -5.358  12.074  -9.046 -0.17 -0.00    +0.070    26.133
ATOM     14  C   UNL d   1      -3.273  13.771  -6.528 -0.14 +0.00    +0.052    26.133
ATOM     15  C   UNL d   1      -6.739  10.871 -10.786 -0.11 -0.00    +0.066    26.133
ATOM     16  C   UNL d   1      -7.567   9.819 -11.153 -0.16 +0.00    -0.021    26.133
ATOM     17  C   UNL d   1      -7.734   9.932 -12.541 -0.15 -0.00    +0.000    26.133
ATOM     18  C   UNL d   1      -7.004  11.057 -12.910 -0.09 -0.01    +0.070    26.133
ATOM     19  C   UNL d   1      -8.145   8.788 -10.209 -0.17 -0.01    +0.052    26.133
ATOM     20  C   UNL d   1      -6.063  12.615 -14.657 -0.10 -0.00    +0.066    26.133
ATOM     21  C   UNL d   1      -5.954  12.995 -15.992 -0.13 -0.00    -0.025    26.133
ATOM     22  C   UNL d   1      -5.073  14.061 -16.005 -0.17 -0.00    -0.021    26.133
ATOM     23  C   UNL d   1      -4.676  14.272 -14.668 -0.16 +0.00    +0.066    26.133
ATOM     24  C   UNL d   1      -6.639  12.362 -17.200 -0.12 +0.00    +0.051    26.133
ATOM     25  N   UNL d   1      -3.693  14.570 -11.876 -0.10 +0.01    -0.248    26.133
ATOM     26  N   UNL d   1      -4.701  12.946  -9.856 -0.13 +0.01    -0.248    26.133
ATOM     27  N   UNL d   1      -6.401  11.573 -11.845 -0.05 +0.02    -0.248    26.133
ATOM     28  N   UNL d   1      -5.271  13.397 -13.848 -0.07 +0.01    -0.248    26.133
ATOM     29 FE   UNL d   1      -5.128  12.983 -11.863 -0.03 -0.00    +0.000    26.133
ATOM     30  C   UNL d   1      -1.376  17.059 -13.516 -0.12 +0.01    +0.052    26.133
ATOM     31  C   UNL d   1      -0.096  16.366 -13.984 -0.14 +0.02    +0.115    26.133
ATOM     32  C   UNL d   1       0.033  16.349 -15.492 -0.21 +0.05    +0.139    26.133
ATOM     33  O   UNL d   1      -0.432  17.271 -16.145 -0.06 -0.30    -0.650    26.133
ATOM     34  O   UNL d   1       0.693  15.364 -16.145 -0.63 -0.39    -0.776    26.133
ATOM     35  H   UNL d   1       1.610  15.113 -15.965 +0.04 +0.04    +0.167    26.133
ATOM     36  C   UNL d   1      -3.526  11.682 -12.226 -0.13 -0.05    +0.190    26.133
ATOM     37  O   UNL d   1      -3.214  10.400 -12.692 -0.27 +0.12    -0.399    26.133
ATOM     38  H   UNL d   1      -2.666  10.551 -13.512 -0.43 -0.13    +0.209    26.133
ATOM     39  C   UNL d   1      -4.593  14.790 -17.246 -0.11 +0.02    +0.052    26.133
ATOM     40  C   UNL d   1      -4.927  16.289 -17.159 -0.10 +0.04    +0.115    26.133
ATOM     41  C   UNL d   1      -5.250  16.936 -18.489 -0.08 +0.07    +0.139    26.133
ATOM     42  O   UNL d   1      -5.771  16.265 -19.370 -0.02 -0.28    -0.650    26.133
ATOM     43  O   UNL d   1      -5.059  18.257 -18.702 +0.01 -0.52    -0.776    26.133
ATOM     44  H   UNL d   1      -5.709  18.923 -18.443 +0.01 +0.07    +0.167    26.133
ATOM     45  C   UNL d   1      -5.611  11.374  -6.598 -0.28 +0.00    +0.004    26.133
ATOM     46  C   UNL d   1      -5.451  11.430  -5.279 -0.23 +0.00    +0.012    26.133
ATOM     47  C   UNL d   1      -8.469   9.043 -13.488 -0.24 -0.00    +0.004    26.133
ATOM     48  C   UNL d   1      -7.889   8.052 -14.170 -0.38 -0.00    +0.012    26.133
TER
ENDMDL
MODEL        5
USER    Run = 5
USER    Cluster Rank = 12
USER    Number of conformations in this cluster = 2
USER  
USER    RMSD from reference structure       = 54.265 A
USER  
USER    Estimated Free Energy of Binding    =   -5.34 kcal/mol  [=(1)+(2)+(3)-(4)]
USER    Estimated Inhibition Constant, Ki   =  121.15 uM (micromolar)  [Temperature = 298.15 K]
USER    
USER    (1) Final Intermolecular Energy     =   -8.92 kcal/mol
USER        vdW + Hbond + desolv Energy     =   -5.45 kcal/mol
USER        Electrostatic Energy            =   -3.47 kcal/mol
USER    (2) Final Total Internal Energy     =   -1.16 kcal/mol
USER    (3) Torsional Free Energy           =   +3.58 kcal/mol
USER    (4) Unbound System's Energy  [=(2)] =   -1.16 kcal/mol
USER    
USER    
USER  
USER    DPF = D:/Protein_go_brrr/autodock/final/mut_N102T/heme_Co/dock.dpf
USER    NEWDPF move	heme_Co_opt.pdbqt
USER    NEWDPF about	8.781000 34.984000 -0.736000
USER    NEWDPF tran0	-0.009736 -21.427569 -4.919468
USER    NEWDPF axisangle0	-0.312856 0.825227 0.470235 -57.853670
USER    NEWDPF quaternion0	-0.151326 0.399156 0.227449 -0.875238
USER    NEWDPF dihe0	-56.72 22.81 -102.22 -43.67 61.11 -2.10 -98.64 160.90 -64.40 166.84 -171.64 -171.26 
USER  
USER                              x       y       z    vdW   Elec        q     RMS 
ATOM      1  C   UNL d   1      -1.922 -21.919  -4.016 -0.03 +0.02    +0.064    54.265
ATOM      2  C   UNL d   1       2.538 -22.165  -2.387 -0.05 +0.00    +0.064    54.265
ATOM      3  C   UNL d   1       4.214 -20.868  -6.669 -0.06 -0.01    +0.064    54.265
ATOM      4  C   UNL d   1      -0.344 -20.235  -8.247 -0.08 +0.01    +0.064    54.265
ATOM      5  C   UNL d   1      -0.825 -22.117  -3.267 -0.03 +0.02    +0.066    54.265
ATOM      6  C   UNL d   1      -0.903 -22.446  -1.899 -0.04 -0.01    -0.021    54.265
ATOM      7  C   UNL d   1       0.393 -22.494  -1.426 -0.03 -0.00    -0.025    54.265
ATOM      8  C   UNL d   1       1.207 -22.208  -2.528 -0.03 +0.01    +0.066    54.265
ATOM      9  C   UNL d   1       0.864 -22.794   0.005 -0.03 +0.01    +0.051    54.265
ATOM     10  C   UNL d   1       3.456 -21.906  -3.468 -0.08 +0.00    +0.066    54.265
ATOM     11  C   UNL d   1       4.865 -21.986  -3.416 -0.08 -0.00    -0.021    54.265
ATOM     12  C   UNL d   1       5.328 -21.606  -4.679 -0.11 +0.00    +0.000    54.265
ATOM     13  C   UNL d   1       4.170 -21.337  -5.410 -0.07 -0.00    +0.070    54.265
ATOM     14  C   UNL d   1       5.688 -22.486  -2.256 -0.04 +0.00    +0.052    54.265
ATOM     15  C   UNL d   1       3.125 -20.489  -7.548 -0.14 -0.01    +0.066    54.265
ATOM     16  C   UNL d   1       3.242 -19.874  -8.786 -0.22 +0.00    -0.021    54.265
ATOM     17  C   UNL d   1       1.930 -19.688  -9.244 -0.21 -0.00    +0.000    54.265
ATOM     18  C   UNL d   1       1.113 -20.220  -8.252 -0.15 -0.00    +0.070    54.265
ATOM     19  C   UNL d   1       4.544 -19.501  -9.460 -0.25 -0.02    +0.052    54.265
ATOM     20  C   UNL d   1      -1.160 -20.669  -7.256 -0.07 +0.02    +0.066    54.265
ATOM     21  C   UNL d   1      -2.548 -20.599  -7.352 -0.07 -0.01    -0.025    54.265
ATOM     22  C   UNL d   1      -3.031 -21.104  -6.159 -0.04 -0.01    -0.021    54.265
ATOM     23  C   UNL d   1      -1.904 -21.449  -5.383 -0.03 +0.02    +0.066    54.265
ATOM     24  C   UNL d   1      -3.375 -20.058  -8.515 -0.03 +0.02    +0.051    54.265
ATOM     25  N   UNL d   1       0.479 -21.977  -3.683 -0.01 -0.04    -0.248    54.265
ATOM     26  N   UNL d   1       3.039 -21.572  -4.694 -0.07 +0.00    -0.248    54.265
ATOM     27  N   UNL d   1       1.857 -20.661  -7.244 -0.09 +0.00    -0.248    54.265
ATOM     28  N   UNL d   1      -0.770 -21.185  -6.042 -0.01 -0.06    -0.248    54.265
ATOM     29 FE   UNL d   1       1.206 -21.280  -5.570 -0.02 +0.00    +0.000    54.265
ATOM     30  C   UNL d   1      -2.176 -22.622  -1.078 -0.06 +0.02    +0.052    54.265
ATOM     31  C   UNL d   1      -2.637 -21.281  -0.507 -0.10 +0.07    +0.115    54.265
ATOM     32  C   UNL d   1      -3.955 -20.826  -1.096 -0.10 +0.17    +0.139    54.265
ATOM     33  O   UNL d   1      -4.844 -20.440  -0.353 -0.56 -0.98    -0.650    54.265
ATOM     34  O   UNL d   1      -4.168 -20.786  -2.432 -0.32 -1.04    -0.776    54.265
ATOM     35  H   UNL d   1      -3.657 -20.243  -3.048 +0.01 +0.27    +0.167    54.265
ATOM     36  C   UNL d   1       1.129 -19.348  -4.760 -0.18 +0.02    +0.190    54.265
ATOM     37  O   UNL d   1       1.038 -17.996  -5.108 -0.30 -0.10    -0.399    54.265
ATOM     38  H   UNL d   1       1.984 -17.692  -5.203 -0.50 -0.02    +0.209    54.265
ATOM     39  C   UNL d   1      -4.494 -21.187  -5.766 -0.03 +0.03    +0.052    54.265
ATOM     40  C   UNL d   1      -5.068 -19.784  -5.511 -0.07 +0.10    +0.115    54.265
ATOM     41  C   UNL d   1      -4.022 -18.717  -5.260 -0.14 +0.18    +0.139    54.265
ATOM     42  O   UNL d   1      -3.270 -18.830  -4.302 -0.16 -1.02    -0.650    54.265
ATOM     43  O   UNL d   1      -3.839 -17.688  -6.116 -0.48 -1.43    -0.776    54.265
ATOM     44  H   UNL d   1      -3.163 -17.700  -6.806 +0.04 +0.28    +0.167    54.265
ATOM     45  C   UNL d   1       6.721 -21.487  -5.281 -0.10 +0.00    +0.004    54.265
ATOM     46  C   UNL d   1       7.801 -20.844  -4.845 -0.08 +0.00    +0.012    54.265
ATOM     47  C   UNL d   1       1.439 -19.019 -10.486 +0.08 -0.00    +0.004    54.265
ATOM     48  C   UNL d   1       2.038 -19.139 -11.674 -0.24 -0.00    +0.012    54.265
TER
ENDMDL
MODEL       31
USER    Run = 31
USER    Cluster Rank = 13
USER    Number of conformations in this cluster = 3
USER  
USER    RMSD from reference structure       = 50.873 A
USER  
USER    Estimated Free Energy of Binding    =   -5.29 kcal/mol  [=(1)+(2)+(3)-(4)]
USER    Estimated Inhibition Constant, Ki   =  133.29 uM (micromolar)  [Temperature = 298.15 K]
USER    
USER    (1) Final Intermolecular Energy     =   -8.87 kcal/mol
USER        vdW + Hbond + desolv Energy     =   -6.11 kcal/mol
USER        Electrostatic Energy            =   -2.75 kcal/mol
USER    (2) Final Total Internal Energy     =   -0.76 kcal/mol
USER    (3) Torsional Free Energy           =   +3.58 kcal/mol
USER    (4) Unbound System's Energy  [=(2)] =   -0.76 kcal/mol
USER    
USER    
USER  
USER    DPF = D:/Protein_go_brrr/autodock/final/mut_N102T/heme_Co/dock.dpf
USER    NEWDPF move	heme_Co_opt.pdbqt
USER    NEWDPF about	8.781000 34.984000 -0.736000
USER    NEWDPF tran0	-8.397901 -14.433110 -9.028111
USER    NEWDPF axisangle0	-0.391467 0.228225 0.891441 -120.491457
USER    NEWDPF quaternion0	-0.339857 0.198136 0.773915 -0.496281
USER    NEWDPF dihe0	63.88 105.54 -149.91 -71.39 134.64 83.80 37.20 -58.35 -71.37 178.84 -24.24 3.22 
USER  
USER                              x       y       z    vdW   Elec        q     RMS 
ATOM      1  C   UNL d   1      -8.034 -16.420  -8.232 -0.11 +0.04    +0.064    50.873
ATOM      2  C   UNL d   1      -7.210 -12.077  -6.481 -0.23 +0.04    +0.064    50.873
ATOM      3  C   UNL d   1      -8.661 -10.107 -10.585 -0.16 +0.02    +0.064    50.873
ATOM      4  C   UNL d   1      -9.874 -14.511 -12.256 -0.10 +0.01    +0.064    50.873
ATOM      5  C   UNL d   1      -7.668 -15.380  -7.465 -0.06 +0.07    +0.066    50.873
ATOM      6  C   UNL d   1      -7.243 -15.546  -6.133 -0.10 -0.03    -0.021    50.873
ATOM      7  C   UNL d   1      -7.027 -14.281  -5.622 -0.12 -0.03    -0.025    50.873
ATOM      8  C   UNL d   1      -7.314 -13.398  -6.669 -0.15 +0.06    +0.066    50.873
ATOM      9  C   UNL d   1      -6.570 -13.902  -4.205 -0.21 +0.05    +0.051    50.873
ATOM     10  C   UNL d   1      -7.459 -11.094  -7.506 -0.19 +0.02    +0.066    50.873
ATOM     11  C   UNL d   1      -7.233  -9.703  -7.414 -0.29 -0.01    -0.021    50.873
ATOM     12  C   UNL d   1      -7.661  -9.154  -8.626 -0.27 +0.00    +0.000    50.873
ATOM     13  C   UNL d   1      -8.103 -10.248  -9.370 -0.17 +0.02    +0.070    50.873
ATOM     14  C   UNL d   1      -6.563  -8.982  -6.273 -0.29 +0.01    +0.052    50.873
ATOM     15  C   UNL d   1      -9.216 -11.116 -11.465 -0.13 +0.02    +0.066    50.873
ATOM     16  C   UNL d   1      -9.911 -10.888 -12.645 -0.10 -0.00    -0.021    50.873
ATOM     17  C   UNL d   1     -10.265 -12.155 -13.129 -0.09 +0.00    +0.000    50.873
ATOM     18  C   UNL d   1      -9.742 -13.061 -12.212 -0.07 +0.01    +0.070    50.873
ATOM     19  C   UNL d   1     -10.201  -9.529 -13.243 -0.11 +0.01    +0.052    50.873
ATOM     20  C   UNL d   1      -9.449 -15.406 -11.332 -0.06 +0.01    +0.066    50.873
ATOM     21  C   UNL d   1      -9.667 -16.775 -11.468 -0.09 -0.00    -0.025    50.873
ATOM     22  C   UNL d   1      -9.121 -17.354 -10.336 -0.08 -0.01    -0.021    50.873
ATOM     23  C   UNL d   1      -8.604 -16.299  -9.554 -0.11 +0.03    +0.066    50.873
ATOM     24  C   UNL d   1     -10.378 -17.497 -12.610 -0.05 +0.00    +0.051    50.873
ATOM     25  N   UNL d   1      -7.707 -14.052  -7.825 -0.10 -0.20    -0.248    50.873
ATOM     26  N   UNL d   1      -7.928 -11.426  -8.714 -0.10 -0.07    -0.248    50.873
ATOM     27  N   UNL d   1      -9.151 -12.405 -11.219 -0.09 -0.06    -0.248    50.873
ATOM     28  N   UNL d   1      -8.803 -15.118 -10.152 -0.10 -0.08    -0.248    50.873
ATOM     29 FE   UNL d   1      -8.472 -13.183  -9.624 -0.04 +0.00    +0.000    50.873
ATOM     30  C   UNL d   1      -7.133 -16.863  -5.371 -0.09 +0.05    +0.052    50.873
ATOM     31  C   UNL d   1      -6.153 -17.806  -6.067 -0.11 +0.14    +0.115    50.873
ATOM     32  C   UNL d   1      -4.844 -17.936  -5.318 -0.12 +0.22    +0.139    50.873
ATOM     33  O   UNL d   1      -3.914 -17.197  -5.602 -0.51 -1.41    -0.650    50.873
ATOM     34  O   UNL d   1      -4.683 -18.816  -4.303 -0.18 -1.47    -0.776    50.873
ATOM     35  H   UNL d   1      -4.788 -19.774  -4.392 +0.02 +0.22    +0.167    50.873
ATOM     36  C   UNL d   1     -10.332 -13.103  -8.661 -0.01 +0.04    +0.190    50.873
ATOM     37  O   UNL d   1     -11.384 -13.902  -8.202 +0.01 -0.07    -0.399    50.873
ATOM     38  H   UNL d   1     -11.180 -14.817  -8.544 +0.01 +0.04    +0.209    50.873
ATOM     39  C   UNL d   1      -9.157 -18.833 -10.000 -0.03 +0.01    +0.052    50.873
ATOM     40  C   UNL d   1      -7.782 -19.478 -10.242 -0.05 +0.03    +0.115    50.873
ATOM     41  C   UNL d   1      -6.769 -18.562 -10.898 -0.13 +0.05    +0.139    50.873
ATOM     42  O   UNL d   1      -6.179 -17.736 -10.216 -0.39 -0.41    -0.650    50.873
ATOM     43  O   UNL d   1      -6.435 -18.691 -12.201 -0.02 -0.17    -0.776    50.873
ATOM     44  H   UNL d   1      -5.537 -18.543 -12.524 -0.00 +0.03    +0.167    50.873
ATOM     45  C   UNL d   1      -7.686  -7.732  -9.170 -0.31 +0.00    +0.004    50.873
ATOM     46  C   UNL d   1      -8.538  -6.734  -8.949 -0.32 +0.00    +0.012    50.873
ATOM     47  C   UNL d   1     -11.074 -12.526 -14.328 -0.05 +0.00    +0.004    50.873
ATOM     48  C   UNL d   1     -10.570 -13.155 -15.393 -0.06 +0.00    +0.012    50.873
TER
ENDMDL
MODEL       24
USER    Run = 24
USER    Cluster Rank = 14
USER    Number of conformations in this cluster = 1
USER  
USER    RMSD from reference structure       = 51.196 A
USER  
USER    Estimated Free Energy of Binding    =   -5.09 kcal/mol  [=(1)+(2)+(3)-(4)]
USER    Estimated Inhibition Constant, Ki   =  185.79 uM (micromolar)  [Temperature = 298.15 K]
USER    
USER    (1) Final Intermolecular Energy     =   -8.67 kcal/mol
USER        vdW + Hbond + desolv Energy     =   -6.40 kcal/mol
USER        Electrostatic Energy            =   -2.27 kcal/mol
USER    (2) Final Total Internal Energy     =   -1.97 kcal/mol
USER    (3) Torsional Free Energy           =   +3.58 kcal/mol
USER    (4) Unbound System's Energy  [=(2)] =   -1.97 kcal/mol
USER    
USER    
USER  
USER    DPF = D:/Protein_go_brrr/autodock/final/mut_N102T/heme_Co/dock.dpf
USER    NEWDPF move	heme_Co_opt.pdbqt
USER    NEWDPF about	8.781000 34.984000 -0.736000
USER    NEWDPF tran0	0.278115 -14.017511 -18.831401
USER    NEWDPF axisangle0	0.117194 0.922724 0.367214 -163.220096
USER    NEWDPF quaternion0	0.115940 0.912849 0.363284 -0.145910
USER    NEWDPF dihe0	1.98 119.74 155.94 -96.21 -33.25 126.59 -32.94 -13.73 -125.25 126.97 145.09 170.90 
USER  
USER                              x       y       z    vdW   Elec        q     RMS 
ATOM      1  C   UNL d   1       1.833 -14.813 -17.542 -0.03 +0.01    +0.064    51.196
ATOM      2  C   UNL d   1       1.690 -13.949 -22.215 -0.08 +0.00    +0.064    51.196
ATOM      3  C   UNL d   1      -2.923 -12.748 -21.890 -0.11 -0.00    +0.064    51.196
ATOM      4  C   UNL d   1      -2.700 -13.252 -17.057 -0.22 -0.00    +0.064    51.196
ATOM      5  C   UNL d   1       2.123 -14.700 -18.848 -0.02 +0.01    +0.066    51.196
ATOM      6  C   UNL d   1       3.426 -14.904 -19.345 -0.02 -0.00    -0.021    51.196
ATOM      7  C   UNL d   1       3.383 -14.629 -20.698 -0.02 -0.00    -0.025    51.196
ATOM      8  C   UNL d   1       2.055 -14.286 -20.972 -0.05 +0.00    +0.066    51.196
ATOM      9  C   UNL d   1       4.541 -14.683 -21.707 -0.01 +0.00    +0.051    51.196
ATOM     10  C   UNL d   1       0.343 -13.607 -22.597 -0.08 -0.00    +0.066    51.196
ATOM     11  C   UNL d   1      -0.132 -13.381 -23.907 -0.01 +0.00    -0.021    51.196
ATOM     12  C   UNL d   1      -1.480 -13.036 -23.783 -0.07 -0.00    +0.000    51.196
ATOM     13  C   UNL d   1      -1.732 -13.090 -22.412 -0.05 -0.00    +0.070    51.196
ATOM     14  C   UNL d   1       0.645 -13.580 -25.184 -0.06 -0.00    +0.052    51.196
ATOM     15  C   UNL d   1      -3.338 -12.695 -20.502 -0.20 -0.00    +0.066    51.196
ATOM     16  C   UNL d   1      -4.538 -12.193 -20.020 -0.22 +0.00    -0.021    51.196
ATOM     17  C   UNL d   1      -4.478 -12.334 -18.627 -0.29 -0.00    +0.000    51.196
ATOM     18  C   UNL d   1      -3.247 -12.929 -18.369 -0.21 -0.01    +0.070    51.196
ATOM     19  C   UNL d   1      -5.652 -11.620 -20.868 -0.16 -0.00    +0.052    51.196
ATOM     20  C   UNL d   1      -1.472 -13.751 -16.776 -0.22 +0.00    +0.066    51.196
ATOM     21  C   UNL d   1      -1.046 -13.986 -15.471 -0.29 -0.00    -0.025    51.196
ATOM     22  C   UNL d   1       0.247 -14.464 -15.581 -0.15 -0.00    -0.021    51.196
ATOM     23  C   UNL d   1       0.552 -14.485 -16.958 -0.06 +0.01    +0.066    51.196
ATOM     24  C   UNL d   1      -1.825 -13.749 -14.180 -0.28 -0.00    +0.051    51.196
ATOM     25  N   UNL d   1       1.251 -14.328 -19.845 -0.02 -0.02    -0.248    51.196
ATOM     26  N   UNL d   1      -0.644 -13.490 -21.701 -0.07 +0.00    -0.248    51.196
ATOM     27  N   UNL d   1      -2.583 -13.102 -19.506 -0.14 +0.02    -0.248    51.196
ATOM     28  N   UNL d   1      -0.485 -14.052 -17.685 -0.05 -0.00    -0.248    51.196
ATOM     29 FE   UNL d   1      -0.780 -13.679 -19.662 -0.03 -0.00    +0.000    51.196
ATOM     30  C   UNL d   1       4.664 -15.265 -18.531 -0.02 +0.01    +0.052    51.196
ATOM     31  C   UNL d   1       5.828 -14.340 -18.884 -0.03 +0.04    +0.115    51.196
ATOM     32  C   UNL d   1       5.457 -12.877 -18.772 -0.07 +0.11    +0.139    51.196
ATOM     33  O   UNL d   1       6.156 -12.036 -19.319 -0.17 -0.44    -0.650    51.196
ATOM     34  O   UNL d   1       4.343 -12.467 -18.123 -0.28 -1.01    -0.776    51.196
ATOM     35  H   UNL d   1       3.698 -13.064 -17.718 +0.03 +0.16    +0.167    51.196
ATOM     36  C   UNL d   1      -0.021 -11.738 -19.433 -0.25 -0.02    +0.190    51.196
ATOM     37  O   UNL d   1       1.095 -11.024 -18.985 -0.27 -0.03    -0.399    51.196
ATOM     38  H   UNL d   1       1.776 -11.720 -18.772 +0.08 +0.05    +0.209    51.196
ATOM     39  C   UNL d   1       1.157 -14.817 -14.419 -0.20 +0.00    +0.052    51.196
ATOM     40  C   UNL d   1       1.936 -13.579 -13.945 -0.21 +0.02    +0.115    51.196
ATOM     41  C   UNL d   1       2.797 -12.936 -15.012 -0.14 +0.11    +0.139    51.196
ATOM     42  O   UNL d   1       2.642 -11.751 -15.272 -0.40 -0.79    -0.650    51.196
ATOM     43  O   UNL d   1       3.791 -13.614 -15.627 -0.24 -0.75    -0.776    51.196
ATOM     44  H   UNL d   1       4.180 -13.322 -16.462 +0.03 +0.25    +0.167    51.196
ATOM     45  C   UNL d   1      -2.559 -12.683 -24.798 -0.10 -0.00    +0.004    51.196
ATOM     46  C   UNL d   1      -3.095 -11.508 -25.119 -0.13 -0.00    +0.012    51.196
ATOM     47  C   UNL d   1      -5.456 -11.909 -17.581 -0.37 +0.00    +0.004    51.196
ATOM     48  C   UNL d   1      -5.908 -10.658 -17.460 -0.43 +0.00    +0.012    51.196
TER
ENDMDL
MODEL       84
USER    Run = 84
USER    Cluster Rank = 15
USER    Number of conformations in this cluster = 5
USER  
USER    RMSD from reference structure       = 27.426 A
USER  
USER    Estimated Free Energy of Binding    =   -4.84 kcal/mol  [=(1)+(2)+(3)-(4)]
USER    Estimated Inhibition Constant, Ki   =  282.29 uM (micromolar)  [Temperature = 298.15 K]
USER    
USER    (1) Final Intermolecular Energy     =   -8.42 kcal/mol
USER        vdW + Hbond + desolv Energy     =   -5.31 kcal/mol
USER        Electrostatic Energy            =   -3.11 kcal/mol
USER    (2) Final Total Internal Energy     =   -1.68 kcal/mol
USER    (3) Torsional Free Energy           =   +3.58 kcal/mol
USER    (4) Unbound System's Energy  [=(2)] =   -1.68 kcal/mol
USER    
USER    
USER  
USER    DPF = D:/Protein_go_brrr/autodock/final/mut_N102T/heme_Co/dock.dpf
USER    NEWDPF move	heme_Co_opt.pdbqt
USER    NEWDPF about	8.781000 34.984000 -0.736000
USER    NEWDPF tran0	-5.398657 16.416378 -18.823518
USER    NEWDPF axisangle0	0.464805 -0.798328 0.382921 -105.478077
USER    NEWDPF quaternion0	0.369932 -0.635379 0.304761 -0.605446
USER    NEWDPF dihe0	36.08 113.58 -62.16 -127.09 -88.15 152.01 -140.84 119.70 135.58 -124.11 21.83 -22.35 
USER  
USER                              x       y       z    vdW   Elec        q     RMS 
ATOM      1  C   UNL d   1      -5.368  17.592 -20.649 -0.08 +0.04    +0.064    27.426
ATOM      2  C   UNL d   1      -5.159  12.907 -19.861 -0.17 +0.01    +0.064    27.426
ATOM      3  C   UNL d   1      -5.032  13.668 -15.146 -0.17 +0.00    +0.064    27.426
ATOM      4  C   UNL d   1      -5.634  18.434 -15.912 -0.02 +0.01    +0.064    27.426
ATOM      5  C   UNL d   1      -5.284  16.258 -20.781 -0.10 +0.04    +0.066    27.426
ATOM      6  C   UNL d   1      -5.362  15.624 -22.037 -0.07 -0.01    -0.021    27.426
ATOM      7  C   UNL d   1      -5.323  14.264 -21.801 -0.07 -0.01    -0.025    27.426
ATOM      8  C   UNL d   1      -5.207  14.126 -20.413 -0.12 +0.02    +0.066    27.426
ATOM      9  C   UNL d   1      -5.393  13.126 -22.831 -0.04 +0.01    +0.051    27.426
ATOM     10  C   UNL d   1      -5.014  12.667 -18.447 -0.20 +0.01    +0.066    27.426
ATOM     11  C   UNL d   1      -4.816  11.417 -17.820 -0.35 -0.00    -0.021    27.426
ATOM     12  C   UNL d   1      -4.779  11.669 -16.445 -0.37 -0.00    +0.000    27.426
ATOM     13  C   UNL d   1      -4.943  13.050 -16.337 -0.22 +0.00    +0.070    27.426
ATOM     14  C   UNL d   1      -4.585  10.098 -18.511 -0.35 +0.00    +0.052    27.426
ATOM     15  C   UNL d   1      -5.253  15.070 -14.851 -0.08 +0.01    +0.066    27.426
ATOM     16  C   UNL d   1      -5.480  15.622 -13.598 -0.04 -0.00    -0.021    27.426
ATOM     17  C   UNL d   1      -5.657  16.996 -13.814 -0.02 +0.00    +0.000    27.426
ATOM     18  C   UNL d   1      -5.506  17.177 -15.185 -0.03 +0.01    +0.070    27.426
ATOM     19  C   UNL d   1      -5.521  14.854 -12.296 -0.05 +0.00    +0.052    27.426
ATOM     20  C   UNL d   1      -5.578  18.621 -17.252 -0.04 +0.02    +0.066    27.426
ATOM     21  C   UNL d   1      -5.752  19.873 -17.837 -0.03 -0.01    -0.025    27.426
ATOM     22  C   UNL d   1      -5.652  19.666 -19.200 -0.05 -0.01    -0.021    27.426
ATOM     23  C   UNL d   1      -5.431  18.284 -19.382 -0.06 +0.04    +0.066    27.426
ATOM     24  C   UNL d   1      -6.021  21.200 -17.132 -0.00 +0.01    +0.051    27.426
ATOM     25  N   UNL d   1      -5.175  15.345 -19.757 -0.09 -0.12    -0.248    27.426
ATOM     26  N   UNL d   1      -5.029  13.658 -17.550 -0.13 -0.05    -0.248    27.426
ATOM     27  N   UNL d   1      -5.297  16.005 -15.774 -0.04 -0.04    -0.248    27.426
ATOM     28  N   UNL d   1      -5.388  17.647 -18.206 -0.06 -0.12    -0.248    27.426
ATOM     29 FE   UNL d   1      -5.239  15.698 -17.648 -0.02 +0.00    +0.000    27.426
ATOM     30  C   UNL d   1      -5.548  16.305 -23.389 -0.03 +0.02    +0.052    27.426
ATOM     31  C   UNL d   1      -4.241  16.292 -24.182 -0.03 +0.04    +0.115    27.426
ATOM     32  C   UNL d   1      -3.052  16.710 -23.343 -0.05 +0.13    +0.139    27.426
ATOM     33  O   UNL d   1      -2.426  15.863 -22.724 -0.42 -0.69    -0.650    27.426
ATOM     34  O   UNL d   1      -2.626  17.993 -23.291 -0.38 -1.01    -0.776    27.426
ATOM     35  H   UNL d   1      -3.207  18.763 -23.370 +0.00 +0.15    +0.167    27.426
ATOM     36  C   UNL d   1      -7.319  15.475 -17.788 -0.02 +0.03    +0.190    27.426
ATOM     37  O   UNL d   1      -8.358  15.261 -18.700 +0.00 -0.04    -0.399    27.426
ATOM     38  H   UNL d   1      -7.909  15.191 -19.589 +0.01 +0.03    +0.209    27.426
ATOM     39  C   UNL d   1      -5.824  20.731 -20.267 -0.02 +0.02    +0.052    27.426
ATOM     40  C   UNL d   1      -4.549  21.579 -20.399 -0.02 +0.05    +0.115    27.426
ATOM     41  C   UNL d   1      -3.276  20.773 -20.551 +0.10 +0.16    +0.139    27.426
ATOM     42  O   UNL d   1      -2.538  20.633 -19.586 -0.50 -0.91    -0.650    27.426
ATOM     43  O   UNL d   1      -2.975  20.131 -21.701 -0.10 -1.16    -0.776    27.426
ATOM     44  H   UNL d   1      -3.570  19.488 -22.108 -0.00 +0.21    +0.167    27.426
ATOM     45  C   UNL d   1      -4.589  10.771 -15.230 -0.42 -0.00    +0.004    27.426
ATOM     46  C   UNL d   1      -5.237  10.737 -14.069 -0.36 -0.00    +0.012    27.426
ATOM     47  C   UNL d   1      -5.994  18.079 -12.843 -0.01 +0.00    +0.004    27.426
ATOM     48  C   UNL d   1      -7.173  18.705 -12.816 +0.00 +0.00    +0.012    27.426
TER
ENDMDL
MODEL       80
USER    Run = 80
USER    Cluster Rank = 16
USER    Number of conformations in this cluster = 5
USER  
USER    RMSD from reference structure       = 36.122 A
USER  
USER    Estimated Free Energy of Binding    =   -4.65 kcal/mol  [=(1)+(2)+(3)-(4)]
USER    Estimated Inhibition Constant, Ki   =  387.82 uM (micromolar)  [Temperature = 298.15 K]
USER    
USER    (1) Final Intermolecular Energy     =   -8.23 kcal/mol
USER        vdW + Hbond + desolv Energy     =   -7.73 kcal/mol
USER        Electrostatic Energy            =   -0.51 kcal/mol
USER    (2) Final Total Internal Energy     =   -1.99 kcal/mol
USER    (3) Torsional Free Energy           =   +3.58 kcal/mol
USER    (4) Unbound System's Energy  [=(2)] =   -1.99 kcal/mol
USER    
USER    
USER  
USER    DPF = D:/Protein_go_brrr/autodock/final/mut_N102T/heme_Co/dock.dpf
USER    NEWDPF move	heme_Co_opt.pdbqt
USER    NEWDPF about	8.781000 34.984000 -0.736000
USER    NEWDPF tran0	-11.839718 3.361145 10.555971
USER    NEWDPF axisangle0	0.450906 0.066304 -0.890105 95.126063
USER    NEWDPF quaternion0	0.332778 0.048934 -0.656916 0.674779
USER    NEWDPF dihe0	74.93 115.36 134.24 69.68 70.47 87.93 62.61 -16.47 -108.80 -178.49 -15.77 -180.00 
USER  
USER                              x       y       z    vdW   Elec        q     RMS 
ATOM      1  C   UNL d   1     -12.094   1.213  10.360 -0.20 -0.01    +0.064    36.122
ATOM      2  C   UNL d   1     -11.535   4.033  14.149 -0.15 +0.00    +0.064    36.122
ATOM      3  C   UNL d   1     -10.883   7.806  11.291 -0.24 +0.00    +0.064    36.122
ATOM      4  C   UNL d   1     -11.833   5.021   7.418 -0.20 -0.00    +0.064    36.122
ATOM      5  C   UNL d   1     -11.953   1.700  11.604 -0.20 -0.01    +0.066    36.122
ATOM      6  C   UNL d   1     -12.147   0.899  12.747 -0.15 +0.00    -0.021    36.122
ATOM      7  C   UNL d   1     -12.006   1.727  13.843 -0.13 -0.00    -0.025    36.122
ATOM      8  C   UNL d   1     -11.717   2.993  13.324 -0.15 +0.00    +0.066    36.122
ATOM      9  C   UNL d   1     -12.137   1.355  15.328 -0.07 +0.01    +0.051    36.122
ATOM     10  C   UNL d   1     -11.208   5.366  13.708 -0.16 +0.00    +0.066    36.122
ATOM     11  C   UNL d   1     -10.868   6.465  14.526 -0.16 -0.00    -0.021    36.122
ATOM     12  C   UNL d   1     -10.679   7.551  13.666 -0.21 +0.00    +0.000    36.122
ATOM     13  C   UNL d   1     -10.905   7.033  12.391 -0.23 +0.00    +0.070    36.122
ATOM     14  C   UNL d   1     -10.650   6.434  16.016 -0.10 +0.00    +0.052    36.122
ATOM     15  C   UNL d   1     -11.143   7.449   9.910 -0.26 -0.00    +0.066    36.122
ATOM     16  C   UNL d   1     -11.248   8.325   8.839 -0.25 +0.00    -0.021    36.122
ATOM     17  C   UNL d   1     -11.524   7.527   7.720 -0.26 -0.00    +0.000    36.122
ATOM     18  C   UNL d   1     -11.549   6.220   8.196 -0.24 -0.00    +0.070    36.122
ATOM     19  C   UNL d   1     -11.089   9.827   8.916 -0.20 -0.01    +0.052    36.122
ATOM     20  C   UNL d   1     -11.948   3.750   7.874 -0.25 -0.00    +0.066    36.122
ATOM     21  C   UNL d   1     -12.260   2.684   7.033 -0.23 +0.00    -0.025    36.122
ATOM     22  C   UNL d   1     -12.313   1.569   7.849 -0.22 +0.00    -0.021    36.122
ATOM     23  C   UNL d   1     -12.041   2.016   9.159 -0.21 -0.01    +0.066    36.122
ATOM     24  C   UNL d   1     -12.515   2.728   5.528 -0.23 -0.00    +0.051    36.122
ATOM     25  N   UNL d   1     -11.672   3.005  11.940 -0.07 +0.01    -0.248    36.122
ATOM     26  N   UNL d   1     -11.169   5.699  12.413 -0.11 -0.02    -0.248    36.122
ATOM     27  N   UNL d   1     -11.349   6.215   9.509 -0.19 +0.00    -0.248    36.122
ATOM     28  N   UNL d   1     -11.822   3.336   9.179 -0.15 +0.02    -0.248    36.122
ATOM     29 FE   UNL d   1     -11.501   4.703  10.650 -0.06 -0.00    +0.000    36.122
ATOM     30  C   UNL d   1     -12.531  -0.577  12.768 -0.08 -0.01    +0.052    36.122
ATOM     31  C   UNL d   1     -11.386  -1.438  12.236 -0.18 -0.04    +0.115    36.122
ATOM     32  C   UNL d   1     -10.200  -1.465  13.175 -0.15 +0.00    +0.139    36.122
ATOM     33  O   UNL d   1      -9.554  -0.443  13.358 -0.04 -0.28    -0.650    36.122
ATOM     34  O   UNL d   1      -9.854  -2.578  13.863 -0.47 -0.17    -0.776    36.122
ATOM     35  H   UNL d   1      -9.469  -3.369  13.460 -0.38 -0.07    +0.167    36.122
ATOM     36  C   UNL d   1     -13.567   4.957  10.897 -0.06 -0.01    +0.190    36.122
ATOM     37  O   UNL d   1     -14.804   4.370  10.611 -0.00 +0.02    -0.399    36.122
ATOM     38  H   UNL d   1     -14.581   3.518  10.141 +0.02 -0.01    +0.209    36.122
ATOM     39  C   UNL d   1     -12.671   0.165   7.398 -0.20 -0.02    +0.052    36.122
ATOM     40  C   UNL d   1     -14.193   0.020   7.233 -0.06 -0.03    +0.115    36.122
ATOM     41  C   UNL d   1     -14.986   1.243   7.642 -0.02 -0.02    +0.139    36.122
ATOM     42  O   UNL d   1     -15.714   1.786   6.823 +0.02 +0.06    -0.650    36.122
ATOM     43  O   UNL d   1     -14.979   1.703   8.913 +0.04 +0.08    -0.776    36.122
ATOM     44  H   UNL d   1     -14.959   2.645   9.125 +0.01 -0.01    +0.167    36.122
ATOM     45  C   UNL d   1     -10.296   9.006  13.901 -0.18 +0.00    +0.004    36.122
ATOM     46  C   UNL d   1      -9.198   9.537  14.432 -0.19 +0.00    +0.012    36.122
ATOM     47  C   UNL d   1     -11.800   7.926   6.308 -0.24 -0.00    +0.004    36.122
ATOM     48  C   UNL d   1     -11.040   8.783   5.622 -0.29 -0.00    +0.012    36.122
TER
ENDMDL
MODEL       42
USER    Run = 42
USER    Cluster Rank = 17
USER    Number of conformations in this cluster = 1
USER  
USER    RMSD from reference structure       = 48.269 A
USER  
USER    Estimated Free Energy of Binding    =   -4.65 kcal/mol  [=(1)+(2)+(3)-(4)]
USER    Estimated Inhibition Constant, Ki   =  391.12 uM (micromolar)  [Temperature = 298.15 K]
USER    
USER    (1) Final Intermolecular Energy     =   -8.23 kcal/mol
USER        vdW + Hbond + desolv Energy     =   -5.25 kcal/mol
USER        Electrostatic Energy            =   -2.98 kcal/mol
USER    (2) Final Total Internal Energy     =   -2.12 kcal/mol
USER    (3) Torsional Free Energy           =   +3.58 kcal/mol
USER    (4) Unbound System's Energy  [=(2)] =   -2.12 kcal/mol
USER    
USER    
USER  
USER    DPF = D:/Protein_go_brrr/autodock/final/mut_N102T/heme_Co/dock.dpf
USER    NEWDPF move	heme_Co_opt.pdbqt
USER    NEWDPF about	8.781000 34.984000 -0.736000
USER    NEWDPF tran0	-9.589528 -10.676100 -10.658948
USER    NEWDPF axisangle0	0.261982 -0.359350 -0.895674 156.318215
USER    NEWDPF quaternion0	0.256407 -0.351704 -0.876616 0.205195
USER    NEWDPF dihe0	118.35 118.44 -92.24 100.08 -85.33 -23.44 179.03 -162.49 -37.52 43.82 166.99 146.70 
USER  
USER                              x       y       z    vdW   Elec        q     RMS 
ATOM      1  C   UNL d   1      -8.082 -11.970  -9.783 -0.20 +0.02    +0.064    48.269
ATOM      2  C   UNL d   1      -8.773  -7.270  -9.571 -0.24 +0.01    +0.064    48.269
ATOM      3  C   UNL d   1     -12.380  -7.622 -12.684 -0.02 +0.01    +0.064    48.269
ATOM      4  C   UNL d   1     -11.944 -12.467 -12.622 -0.01 +0.01    +0.064    48.269
ATOM      5  C   UNL d   1      -7.982 -10.656  -9.524 -0.19 +0.02    +0.066    48.269
ATOM      6  C   UNL d   1      -7.067 -10.147  -8.582 -0.31 -0.01    -0.021    48.269
ATOM      7  C   UNL d   1      -7.287  -8.786  -8.508 -0.33 -0.01    -0.025    48.269
ATOM      8  C   UNL d   1      -8.316  -8.520  -9.419 -0.20 +0.01    +0.066    48.269
ATOM      9  C   UNL d   1      -6.566  -7.761  -7.618 +0.01 +0.00    +0.051    48.269
ATOM     10  C   UNL d   1      -9.808  -6.898 -10.502 -0.14 +0.01    +0.066    48.269
ATOM     11  C   UNL d   1     -10.234  -5.587 -10.809 -0.15 -0.00    -0.021    48.269
ATOM     12  C   UNL d   1     -11.284  -5.719 -11.722 -0.09 +0.00    +0.000    48.269
ATOM     13  C   UNL d   1     -11.412  -7.095 -11.914 -0.05 +0.01    +0.070    48.269
ATOM     14  C   UNL d   1      -9.603  -4.307 -10.325 -0.30 +0.01    +0.052    48.269
ATOM     15  C   UNL d   1     -12.688  -9.014 -12.950 -0.01 +0.01    +0.066    48.269
ATOM     16  C   UNL d   1     -13.792  -9.495 -13.640 +0.00 -0.00    -0.021    48.269
ATOM     17  C   UNL d   1     -13.672 -10.892 -13.622 +0.00 +0.00    +0.000    48.269
ATOM     18  C   UNL d   1     -12.491 -11.153 -12.935 -0.00 +0.01    +0.070    48.269
ATOM     19  C   UNL d   1     -14.876  -8.644 -14.263 +0.00 +0.00    +0.052    48.269
ATOM     20  C   UNL d   1     -10.845 -12.747 -11.881 -0.04 +0.01    +0.066    48.269
ATOM     21  C   UNL d   1     -10.438 -14.053 -11.619 -0.07 -0.00    -0.025    48.269
ATOM     22  C   UNL d   1      -9.311 -13.941 -10.826 -0.09 -0.00    -0.021    48.269
ATOM     23  C   UNL d   1      -9.090 -12.561 -10.633 -0.12 +0.02    +0.066    48.269
ATOM     24  C   UNL d   1     -11.103 -15.347 -12.083 -0.04 +0.01    +0.051    48.269
ATOM     25  N   UNL d   1      -8.761  -9.659 -10.067 -0.06 -0.06    -0.248    48.269
ATOM     26  N   UNL d   1     -10.483  -7.803 -11.218 -0.05 -0.05    -0.248    48.269
ATOM     27  N   UNL d   1     -11.948 -10.012 -12.523 -0.00 -0.03    -0.248    48.269
ATOM     28  N   UNL d   1     -10.018 -11.835 -11.268 -0.04 -0.05    -0.248    48.269
ATOM     29 FE   UNL d   1     -10.448  -9.850 -11.368 -0.02 +0.00    +0.000    48.269
ATOM     30  C   UNL d   1      -6.087 -10.955  -7.738 -0.33 +0.02    +0.052    48.269
ATOM     31  C   UNL d   1      -6.525 -10.971  -6.274 -0.33 +0.06    +0.115    48.269
ATOM     32  C   UNL d   1      -6.308 -12.319  -5.621 -0.26 +0.13    +0.139    48.269
ATOM     33  O   UNL d   1      -5.223 -12.872  -5.731 -0.39 -1.09    -0.650    48.269
ATOM     34  O   UNL d   1      -7.264 -12.918  -4.874 -0.06 -0.57    -0.776    48.269
ATOM     35  H   UNL d   1      -7.707 -13.742  -5.117 +0.04 +0.12    +0.167    48.269
ATOM     36  C   UNL d   1     -11.624  -9.994  -9.638 -0.01 +0.02    +0.190    48.269
ATOM     37  O   UNL d   1     -12.939 -10.176  -9.197 +0.00 -0.03    -0.399    48.269
ATOM     38  H   UNL d   1     -13.466 -10.351 -10.026 +0.00 +0.02    +0.209    48.269
ATOM     39  C   UNL d   1      -8.531 -15.101 -10.237 -0.12 +0.02    +0.052    48.269
ATOM     40  C   UNL d   1      -8.684 -15.136  -8.707 -0.12 +0.06    +0.115    48.269
ATOM     41  C   UNL d   1      -7.425 -15.525  -7.961 -0.06 +0.16    +0.139    48.269
ATOM     42  O   UNL d   1      -6.573 -16.191  -8.533 -0.54 -1.04    -0.650    48.269
ATOM     43  O   UNL d   1      -7.176 -15.083  -6.709 -0.19 -1.09    -0.776    48.269
ATOM     44  H   UNL d   1      -6.751 -14.234  -6.533 +0.02 +0.27    +0.167    48.269
ATOM     45  C   UNL d   1     -12.163  -4.708 -12.447 -0.06 +0.00    +0.004    48.269
ATOM     46  C   UNL d   1     -12.016  -4.126 -13.634 -0.06 +0.00    +0.012    48.269
ATOM     47  C   UNL d   1     -14.599 -11.935 -14.153 +0.00 +0.00    +0.004    48.269
ATOM     48  C   UNL d   1     -15.359 -12.711 -13.375 +0.00 +0.00    +0.012    48.269
TER
ENDMDL
MODEL       19
USER    Run = 19
USER    Cluster Rank = 18
USER    Number of conformations in this cluster = 5
USER  
USER    RMSD from reference structure       = 18.139 A
USER  
USER    Estimated Free Energy of Binding    =   -4.43 kcal/mol  [=(1)+(2)+(3)-(4)]
USER    Estimated Inhibition Constant, Ki   =  569.49 uM (micromolar)  [Temperature = 298.15 K]
USER    
USER    (1) Final Intermolecular Energy     =   -8.01 kcal/mol
USER        vdW + Hbond + desolv Energy     =   -5.94 kcal/mol
USER        Electrostatic Energy            =   -2.06 kcal/mol
USER    (2) Final Total Internal Energy     =   -0.49 kcal/mol
USER    (3) Torsional Free Energy           =   +3.58 kcal/mol
USER    (4) Unbound System's Energy  [=(2)] =   -0.49 kcal/mol
USER    
USER    
USER  
USER    DPF = D:/Protein_go_brrr/autodock/final/mut_N102T/heme_Co/dock.dpf
USER    NEWDPF move	heme_Co_opt.pdbqt
USER    NEWDPF about	8.781000 34.984000 -0.736000
USER    NEWDPF tran0	11.477810 16.561167 9.438283
USER    NEWDPF axisangle0	0.350339 0.695844 0.626948 120.791321
USER    NEWDPF quaternion0	0.304604 0.605007 0.545105 0.494008
USER    NEWDPF dihe0	-72.28 109.76 -112.74 -36.98 133.59 158.84 -103.00 123.64 60.02 156.98 17.13 20.57 
USER  
USER                              x       y       z    vdW   Elec        q     RMS 
ATOM      1  C   UNL d   1      12.788  16.184   7.748 -0.12 +0.03    +0.064    18.139
ATOM      2  C   UNL d   1       8.972  18.971   8.272 -0.11 +0.00    +0.064    18.139
ATOM      3  C   UNL d   1       8.290  17.273  12.686 -0.18 -0.01    +0.064    18.139
ATOM      4  C   UNL d   1      12.405  14.704  12.318 -0.15 +0.00    +0.064    18.139
ATOM      5  C   UNL d   1      11.774  17.043   7.554 -0.12 +0.03    +0.066    18.139
ATOM      6  C   UNL d   1      11.662  17.813   6.380 -0.07 -0.01    -0.021    18.139
ATOM      7  C   UNL d   1      10.566  18.637   6.547 -0.05 -0.01    -0.025    18.139
ATOM      8  C   UNL d   1      10.047  18.323   7.807 -0.09 +0.01    +0.066    18.139
ATOM      9  C   UNL d   1      10.017  19.685   5.567 -0.02 +0.01    +0.051    18.139
ATOM     10  C   UNL d   1       8.352  18.698   9.545 -0.15 -0.01    +0.066    18.139
ATOM     11  C   UNL d   1       7.143  19.244  10.029 -0.19 +0.01    -0.021    18.139
ATOM     12  C   UNL d   1       6.966  18.728  11.316 -0.22 -0.00    +0.000    18.139
ATOM     13  C   UNL d   1       8.070  17.900  11.517 -0.21 -0.01    +0.070    18.139
ATOM     14  C   UNL d   1       6.188  20.120   9.260 -0.02 -0.02    +0.052    18.139
ATOM     15  C   UNL d   1       9.399  16.426  13.082 -0.14 -0.01    +0.066    18.139
ATOM     16  C   UNL d   1       9.640  15.927  14.354 -0.10 +0.00    -0.021    18.139
ATOM     17  C   UNL d   1      10.827  15.187  14.253 -0.10 -0.00    +0.000    18.139
ATOM     18  C   UNL d   1      11.209  15.280  12.919 -0.15 -0.00    +0.070    18.139
ATOM     19  C   UNL d   1       8.770  16.163  15.568 -0.12 -0.02    +0.052    18.139
ATOM     20  C   UNL d   1      12.841  14.853  11.045 -0.17 +0.00    +0.066    18.139
ATOM     21  C   UNL d   1      14.028  14.278  10.593 -0.16 -0.00    -0.025    18.139
ATOM     22  C   UNL d   1      14.150  14.664   9.271 -0.15 -0.00    -0.021    18.139
ATOM     23  C   UNL d   1      13.029  15.471   8.982 -0.15 +0.01    +0.066    18.139
ATOM     24  C   UNL d   1      15.009  13.421  11.389 -0.09 +0.01    +0.051    18.139
ATOM     25  N   UNL d   1      10.772  17.334   8.451 -0.10 -0.06    -0.248    18.139
ATOM     26  N   UNL d   1       8.878  17.839  10.424 -0.11 +0.01    -0.248    18.139
ATOM     27  N   UNL d   1      10.352  16.051  12.258 -0.11 +0.01    -0.248    18.139
ATOM     28  N   UNL d   1      12.235  15.589  10.054 -0.08 -0.01    -0.248    18.139
ATOM     29 FE   UNL d   1      10.552  16.652  10.467 -0.04 +0.00    +0.000    18.139
ATOM     30  C   UNL d   1      12.620  17.807   5.193 -0.04 +0.02    +0.052    18.139
ATOM     31  C   UNL d   1      12.047  16.978   4.045 -0.05 +0.08    +0.115    18.139
ATOM     32  C   UNL d   1      12.963  15.842   3.640 -0.02 +0.11    +0.139    18.139
ATOM     33  O   UNL d   1      12.520  14.705   3.582 -0.46 -1.10    -0.650    18.139
ATOM     34  O   UNL d   1      14.253  16.051   3.290 +0.01 -0.25    -0.776    18.139
ATOM     35  H   UNL d   1      14.535  16.410   2.437 +0.01 +0.03    +0.167    18.139
ATOM     36  C   UNL d   1      11.708  18.307  11.034 -0.02 -0.00    +0.190    18.139
ATOM     37  O   UNL d   1      12.334  19.453  10.533 +0.00 +0.00    -0.399    18.139
ATOM     38  H   UNL d   1      12.187  19.415   9.547 +0.01 +0.00    +0.209    18.139
ATOM     39  C   UNL d   1      15.315  14.326   8.360 -0.09 +0.01    +0.052    18.139
ATOM     40  C   UNL d   1      14.827  13.570   7.113 -0.12 +0.04    +0.115    18.139
ATOM     41  C   UNL d   1      13.572  12.752   7.330 -0.28 +0.08    +0.139    18.139
ATOM     42  O   UNL d   1      13.669  11.551   7.544 -0.01 -0.28    -0.650    18.139
ATOM     43  O   UNL d   1      12.350  13.326   7.380 -0.32 -0.85    -0.776    18.139
ATOM     44  H   UNL d   1      11.859  13.432   8.206 -0.42 +0.08    +0.167    18.139
ATOM     45  C   UNL d   1       5.878  18.908  12.366 -0.22 -0.00    +0.004    18.139
ATOM     46  C   UNL d   1       5.267  20.007  12.801 -0.25 -0.00    +0.012    18.139
ATOM     47  C   UNL d   1      11.601  14.478  15.315 -0.08 -0.00    +0.004    18.139
ATOM     48  C   UNL d   1      11.717  13.149  15.379 -0.14 +0.00    +0.012    18.139
TER
ENDMDL
MODEL       58
USER    Run = 58
USER    Cluster Rank = 19
USER    Number of conformations in this cluster = 2
USER  
USER    RMSD from reference structure       = 34.189 A
USER  
USER    Estimated Free Energy of Binding    =   -4.39 kcal/mol  [=(1)+(2)+(3)-(4)]
USER    Estimated Inhibition Constant, Ki   =  609.55 uM (micromolar)  [Temperature = 298.15 K]
USER    
USER    (1) Final Intermolecular Energy     =   -7.97 kcal/mol
USER        vdW + Hbond + desolv Energy     =   -5.75 kcal/mol
USER        Electrostatic Energy            =   -2.21 kcal/mol
USER    (2) Final Total Internal Energy     =   -3.34 kcal/mol
USER    (3) Torsional Free Energy           =   +3.58 kcal/mol
USER    (4) Unbound System's Energy  [=(2)] =   -3.34 kcal/mol
USER    
USER    
USER  
USER    DPF = D:/Protein_go_brrr/autodock/final/mut_N102T/heme_Co/dock.dpf
USER    NEWDPF move	heme_Co_opt.pdbqt
USER    NEWDPF about	8.781000 34.984000 -0.736000
USER    NEWDPF tran0	10.983127 0.806843 13.890681
USER    NEWDPF axisangle0	0.726339 0.004765 0.687320 171.778049
USER    NEWDPF quaternion0	0.724470 0.004753 0.685552 0.071689
USER    NEWDPF dihe0	-97.26 126.36 -156.17 88.00 136.68 127.48 65.38 141.00 -122.16 112.23 164.66 172.78 
USER  
USER                              x       y       z    vdW   Elec        q     RMS 
ATOM      1  C   UNL d   1      10.076   0.396  11.961 -0.21 +0.02    +0.064    34.189
ATOM      2  C   UNL d   1      13.579   3.326  13.286 -0.18 +0.03    +0.064    34.189
ATOM      3  C   UNL d   1      12.839   2.199  17.869 -0.10 +0.03    +0.064    34.189
ATOM      4  C   UNL d   1       9.519  -1.087  16.512 -0.07 +0.02    +0.064    34.189
ATOM      5  C   UNL d   1      11.063   1.307  11.989 -0.23 +0.02    +0.066    34.189
ATOM      6  C   UNL d   1      11.623   1.839  10.811 -0.34 -0.01    -0.021    34.189
ATOM      7  C   UNL d   1      12.654   2.671  11.201 -0.26 -0.01    -0.025    34.189
ATOM      8  C   UNL d   1      12.669   2.624  12.599 -0.19 +0.02    +0.066    34.189
ATOM      9  C   UNL d   1      13.598   3.485  10.303 -0.20 +0.01    +0.051    34.189
ATOM     10  C   UNL d   1      13.654   3.360  14.725 -0.11 +0.04    +0.066    34.189
ATOM     11  C   UNL d   1      14.494   4.184  15.506 -0.08 -0.01    -0.021    34.189
ATOM     12  C   UNL d   1      14.254   3.837  16.839 -0.06 +0.00    +0.000    34.189
ATOM     13  C   UNL d   1      13.281   2.840  16.773 -0.12 +0.05    +0.070    34.189
ATOM     14  C   UNL d   1      15.385   5.287  14.998 -0.10 +0.02    +0.052    34.189
ATOM     15  C   UNL d   1      11.882   1.116  17.978 -0.09 +0.02    +0.066    34.189
ATOM     16  C   UNL d   1      11.577   0.399  19.127 -0.06 -0.01    -0.021    34.189
ATOM     17  C   UNL d   1      10.622  -0.551  18.740 -0.07 +0.00    +0.000    34.189
ATOM     18  C   UNL d   1      10.406  -0.328  17.385 -0.04 +0.02    +0.070    34.189
ATOM     19  C   UNL d   1      12.182   0.634  20.494 -0.02 +0.01    +0.052    34.189
ATOM     20  C   UNL d   1       9.357  -0.944  15.175 -0.09 +0.02    +0.066    34.189
ATOM     21  C   UNL d   1       8.500  -1.759  14.438 -0.11 -0.00    -0.025    34.189
ATOM     22  C   UNL d   1       8.618  -1.336  13.127 -0.18 -0.00    -0.021    34.189
ATOM     23  C   UNL d   1       9.558  -0.283  13.127 -0.17 +0.02    +0.066    34.189
ATOM     24  C   UNL d   1       7.626  -2.899  14.955 -0.12 +0.01    +0.051    34.189
ATOM     25  N   UNL d   1      11.690   1.791  13.115 -0.12 -0.08    -0.248    34.189
ATOM     26  N   UNL d   1      12.879   2.592  15.498 -0.11 -0.15    -0.248    34.189
ATOM     27  N   UNL d   1      11.195   0.652  16.958 -0.09 -0.09    -0.248    34.189
ATOM     28  N   UNL d   1      10.009  -0.044  14.364 -0.10 -0.07    -0.248    34.189
ATOM     29 FE   UNL d   1      11.425   1.186  15.149 -0.03 +0.00    +0.000    34.189
ATOM     30  C   UNL d   1      11.229   1.491   9.379 -0.40 +0.02    +0.052    34.189
ATOM     31  C   UNL d   1      12.350   0.716   8.687 -0.34 +0.04    +0.115    34.189
ATOM     32  C   UNL d   1      12.744  -0.532   9.447 -0.18 +0.08    +0.139    34.189
ATOM     33  O   UNL d   1      13.233  -0.428  10.562 +0.05 -0.28    -0.650    34.189
ATOM     34  O   UNL d   1      12.527  -1.772   8.951 -0.15 -1.04    -0.776    34.189
ATOM     35  H   UNL d   1      11.799  -2.348   9.224 +0.03 +0.37    +0.167    34.189
ATOM     36  C   UNL d   1      12.907  -0.255  14.796 -0.01 +0.05    +0.190    34.189
ATOM     37  O   UNL d   1      13.486  -1.033  13.788 +0.01 -0.10    -0.399    34.189
ATOM     38  H   UNL d   1      13.154  -0.637  12.935 +0.03 +0.06    +0.209    34.189
ATOM     39  C   UNL d   1       7.913  -1.956  11.936 -0.21 +0.01    +0.052    34.189
ATOM     40  C   UNL d   1       8.720  -3.145  11.386 -0.18 +0.06    +0.115    34.189
ATOM     41  C   UNL d   1       9.973  -2.754  10.631 -0.08 +0.15    +0.139    34.189
ATOM     42  O   UNL d   1       9.882  -2.397   9.465 -0.48 -1.02    -0.650    34.189
ATOM     43  O   UNL d   1      11.180  -2.705  11.236 +0.01 -0.70    -0.776    34.189
ATOM     44  H   UNL d   1      11.876  -2.095  10.958 +0.03 +0.14    +0.167    34.189
ATOM     45  C   UNL d   1      14.816   4.344  18.161 -0.07 +0.00    +0.004    34.189
ATOM     46  C   UNL d   1      14.520   5.431  18.868 -0.07 +0.01    +0.012    34.189
ATOM     47  C   UNL d   1       9.976  -1.635  19.540 -0.04 +0.00    +0.004    34.189
ATOM     48  C   UNL d   1       8.671  -1.669  19.817 -0.05 +0.00    +0.012    34.189
TER
ENDMDL
MODEL       66
USER    Run = 66
USER    Cluster Rank = 20
USER    Number of conformations in this cluster = 1
USER  
USER    RMSD from reference structure       = 41.306 A
USER  
USER    Estimated Free Energy of Binding    =   -4.37 kcal/mol  [=(1)+(2)+(3)-(4)]
USER    Estimated Inhibition Constant, Ki   =  631.51 uM (micromolar)  [Temperature = 298.15 K]
USER    
USER    (1) Final Intermolecular Energy     =   -7.94 kcal/mol
USER        vdW + Hbond + desolv Energy     =   -6.23 kcal/mol
USER        Electrostatic Energy            =   -1.72 kcal/mol
USER    (2) Final Total Internal Energy     =   -2.68 kcal/mol
USER    (3) Torsional Free Energy           =   +3.58 kcal/mol
USER    (4) Unbound System's Energy  [=(2)] =   -2.68 kcal/mol
USER    
USER    
USER  
USER    DPF = D:/Protein_go_brrr/autodock/final/mut_N102T/heme_Co/dock.dpf
USER    NEWDPF move	heme_Co_opt.pdbqt
USER    NEWDPF about	8.781000 34.984000 -0.736000
USER    NEWDPF tran0	7.930973 -6.836761 15.306122
USER    NEWDPF axisangle0	0.475798 0.673093 0.566182 -161.024180
USER    NEWDPF quaternion0	0.469289 0.663886 0.558436 -0.164839
USER    NEWDPF dihe0	-65.21 138.52 27.11 137.65 78.80 120.92 57.44 -180.00 -133.36 42.66 178.39 135.70 
USER  
USER                              x       y       z    vdW   Elec        q     RMS 
ATOM      1  C   UNL d   1       8.496  -8.929  15.436 -0.22 +0.03    +0.064    41.306
ATOM      2  C   UNL d   1       9.467  -5.551  12.234 -0.16 +0.03    +0.064    41.306
ATOM      3  C   UNL d   1       6.588  -2.501  14.523 -0.16 +0.00    +0.064    41.306
ATOM      4  C   UNL d   1       5.882  -5.811  18.018 -0.12 -0.00    +0.064    41.306
ATOM      5  C   UNL d   1       8.945  -8.242  14.373 -0.16 +0.02    +0.066    41.306
ATOM      6  C   UNL d   1       9.889  -8.782  13.478 -0.13 -0.01    -0.021    41.306
ATOM      7  C   UNL d   1      10.184  -7.789  12.564 -0.12 -0.01    -0.025    41.306
ATOM      8  C   UNL d   1       9.396  -6.693  12.931 -0.16 +0.02    +0.066    41.306
ATOM      9  C   UNL d   1      11.169  -7.855  11.387 -0.12 +0.02    +0.051    41.306
ATOM     10  C   UNL d   1       8.676  -4.380  12.520 -0.13 +0.02    +0.066    41.306
ATOM     11  C   UNL d   1       8.601  -3.202  11.745 -0.17 -0.01    -0.021    41.306
ATOM     12  C   UNL d   1       7.752  -2.332  12.434 -0.20 +0.00    +0.000    41.306
ATOM     13  C   UNL d   1       7.362  -3.045  13.568 -0.13 +0.01    +0.070    41.306
ATOM     14  C   UNL d   1       9.231  -2.982  10.394 -0.16 +0.05    +0.052    41.306
ATOM     15  C   UNL d   1       6.135  -3.073  15.776 -0.12 -0.00    +0.066    41.306
ATOM     16  C   UNL d   1       5.456  -2.407  16.786 -0.16 +0.00    -0.021    41.306
ATOM     17  C   UNL d   1       5.253  -3.356  17.798 -0.10 -0.00    +0.000    41.306
ATOM     18  C   UNL d   1       5.811  -4.536  17.315 -0.09 -0.00    +0.070    41.306
ATOM     19  C   UNL d   1       5.045  -0.952  16.755 -0.35 -0.01    +0.052    41.306
ATOM     20  C   UNL d   1       6.495  -6.946  17.605 -0.17 -0.00    +0.066    41.306
ATOM     21  C   UNL d   1       6.528  -8.099  18.386 -0.17 -0.00    -0.025    41.306
ATOM     22  C   UNL d   1       7.250  -9.025  17.655 -0.21 -0.00    -0.021    41.306
ATOM     23  C   UNL d   1       7.635  -8.381  16.460 -0.23 +0.01    +0.066    41.306
ATOM     24  C   UNL d   1       5.918  -8.304  19.770 -0.10 -0.00    +0.051    41.306
ATOM     25  N   UNL d   1       8.614  -6.947  14.044 -0.14 -0.06    -0.248    41.306
ATOM     26  N   UNL d   1       7.877  -4.304  13.590 -0.07 -0.04    -0.248    41.306
ATOM     27  N   UNL d   1       6.353  -4.322  16.122 +0.02 -0.00    -0.248    41.306
ATOM     28  N   UNL d   1       7.183  -7.122  16.427 -0.12 -0.02    -0.248    41.306
ATOM     29 FE   UNL d   1       7.416  -5.559  15.147 -0.04 +0.00    +0.000    41.306
ATOM     30  C   UNL d   1      10.532 -10.162  13.558 -0.18 +0.04    +0.052    41.306
ATOM     31  C   UNL d   1      11.905 -10.078  14.223 -0.07 +0.06    +0.115    41.306
ATOM     32  C   UNL d   1      11.894  -9.208  15.462 -0.04 +0.05    +0.139    41.306
ATOM     33  O   UNL d   1      11.796  -7.996  15.344 +0.02 -0.17    -0.650    41.306
ATOM     34  O   UNL d   1      11.941  -9.734  16.708 +0.02 -0.28    -0.776    41.306
ATOM     35  H   UNL d   1      11.221 -10.236  17.114 +0.01 +0.08    +0.167    41.306
ATOM     36  C   UNL d   1       9.179  -4.989  16.127 -0.04 +0.02    +0.190    41.306
ATOM     37  O   UNL d   1      10.401  -5.480  16.597 -0.00 -0.05    -0.399    41.306
ATOM     38  H   UNL d   1      10.591  -6.280  16.032 +0.02 +0.04    +0.209    41.306
ATOM     39  C   UNL d   1       7.602 -10.427  18.114 -0.18 +0.02    +0.052    41.306
ATOM     40  C   UNL d   1       9.125 -10.639  18.092 -0.12 +0.05    +0.115    41.306
ATOM     41  C   UNL d   1       9.557 -12.024  17.660 +0.08 +0.14    +0.139    41.306
ATOM     42  O   UNL d   1       8.946 -12.999  18.076 -0.07 -0.54    -0.650    41.306
ATOM     43  O   UNL d   1      10.545 -12.211  16.757 -0.47 -1.38    -0.776    41.306
ATOM     44  H   UNL d   1      11.306 -11.619  16.690 +0.01 +0.16    +0.167    41.306
ATOM     45  C   UNL d   1       7.251  -0.924  12.143 -0.38 +0.00    +0.004    41.306
ATOM     46  C   UNL d   1       6.017  -0.427  12.137 -0.48 -0.00    +0.012    41.306
ATOM     47  C   UNL d   1       4.633  -3.195  19.147 -0.07 -0.00    +0.004    41.306
ATOM     48  C   UNL d   1       3.394  -2.738  19.339 -0.10 -0.00    +0.012    41.306
TER
ENDMDL
MODEL       61
USER    Run = 61
USER    Cluster Rank = 21
USER    Number of conformations in this cluster = 1
USER  
USER    RMSD from reference structure       = 51.970 A
USER  
USER    Estimated Free Energy of Binding    =   -4.35 kcal/mol  [=(1)+(2)+(3)-(4)]
USER    Estimated Inhibition Constant, Ki   =  644.66 uM (micromolar)  [Temperature = 298.15 K]
USER    
USER    (1) Final Intermolecular Energy     =   -7.93 kcal/mol
USER        vdW + Hbond + desolv Energy     =   -4.41 kcal/mol
USER        Electrostatic Energy            =   -3.52 kcal/mol
USER    (2) Final Total Internal Energy     =   -0.84 kcal/mol
USER    (3) Torsional Free Energy           =   +3.58 kcal/mol
USER    (4) Unbound System's Energy  [=(2)] =   -0.84 kcal/mol
USER    
USER    
USER  
USER    DPF = D:/Protein_go_brrr/autodock/final/mut_N102T/heme_Co/dock.dpf
USER    NEWDPF move	heme_Co_opt.pdbqt
USER    NEWDPF about	8.781000 34.984000 -0.736000
USER    NEWDPF tran0	-7.845762 -16.205568 -3.502938
USER    NEWDPF axisangle0	-0.107530 0.703744 -0.702269 114.675532
USER    NEWDPF quaternion0	-0.090526 0.592458 -0.591217 0.539686
USER    NEWDPF dihe0	44.96 102.50 11.30 -93.71 72.73 137.47 24.15 -153.34 177.90 84.02 -0.78 154.69 
USER  
USER                              x       y       z    vdW   Elec        q     RMS 
ATOM      1  C   UNL d   1      -6.989 -16.412  -5.488 -0.09 +0.08    +0.064    51.970
ATOM      2  C   UNL d   1      -7.500 -19.482  -1.892 -0.05 +0.06    +0.064    51.970
ATOM      3  C   UNL d   1      -9.213 -15.996   0.890 -0.08 +0.01    +0.064    51.970
ATOM      4  C   UNL d   1      -9.062 -12.929  -2.882 -0.08 +0.02    +0.064    51.970
ATOM      5  C   UNL d   1      -6.969 -17.499  -4.699 -0.07 +0.07    +0.066    51.970
ATOM      6  C   UNL d   1      -6.588 -18.766  -5.182 -0.06 -0.02    -0.021    51.970
ATOM      7  C   UNL d   1      -6.760 -19.658  -4.141 -0.05 -0.02    -0.025    51.970
ATOM      8  C   UNL d   1      -7.222 -18.894  -3.063 -0.02 +0.08    +0.066    51.970
ATOM      9  C   UNL d   1      -6.505 -21.172  -4.145 -0.02 +0.03    +0.051    51.970
ATOM     10  C   UNL d   1      -7.954 -18.775  -0.721 -0.07 +0.05    +0.066    51.970
ATOM     11  C   UNL d   1      -8.129 -19.311   0.573 -0.07 -0.01    -0.021    51.970
ATOM     12  C   UNL d   1      -8.625 -18.272   1.365 -0.09 +0.00    +0.000    51.970
ATOM     13  C   UNL d   1      -8.704 -17.179   0.502 -0.07 +0.02    +0.070    51.970
ATOM     14  C   UNL d   1      -7.749 -20.698   1.023 -0.05 +0.01    +0.052    51.970
ATOM     15  C   UNL d   1      -9.417 -14.785   0.120 -0.06 +0.01    +0.066    51.970
ATOM     16  C   UNL d   1     -10.081 -13.643   0.544 -0.09 -0.00    -0.021    51.970
ATOM     17  C   UNL d   1     -10.043 -12.756  -0.542 -0.10 +0.00    +0.000    51.970
ATOM     18  C   UNL d   1      -9.340 -13.424  -1.540 -0.09 +0.01    +0.070    51.970
ATOM     19  C   UNL d   1     -10.704 -13.445   1.908 -0.12 -0.00    +0.052    51.970
ATOM     20  C   UNL d   1      -8.458 -13.592  -3.896 -0.08 +0.03    +0.066    51.970
ATOM     21  C   UNL d   1      -8.279 -13.023  -5.155 -0.10 -0.01    -0.025    51.970
ATOM     22  C   UNL d   1      -7.658 -13.994  -5.919 -0.12 -0.02    -0.021    51.970
ATOM     23  C   UNL d   1      -7.498 -15.121  -5.085 -0.08 +0.06    +0.066    51.970
ATOM     24  C   UNL d   1      -8.698 -11.629  -5.615 -0.09 +0.02    +0.051    51.970
ATOM     25  N   UNL d   1      -7.355 -17.553  -3.379 -0.03 -0.31    -0.248    51.970
ATOM     26  N   UNL d   1      -8.246 -17.470  -0.745 -0.04 -0.17    -0.248    51.970
ATOM     27  N   UNL d   1      -9.010 -14.640  -1.121 -0.02 -0.07    -0.248    51.970
ATOM     28  N   UNL d   1      -7.982 -14.883  -3.861 -0.03 -0.16    -0.248    51.970
ATOM     29 FE   UNL d   1      -8.231 -16.008  -2.185 -0.02 +0.00    +0.000    51.970
ATOM     30  C   UNL d   1      -6.160 -19.106  -6.605 -0.07 +0.04    +0.052    51.970
ATOM     31  C   UNL d   1      -4.677 -18.797  -6.808 -0.13 +0.12    +0.115    51.970
ATOM     32  C   UNL d   1      -4.050 -18.151  -5.591 -0.17 +0.20    +0.139    51.970
ATOM     33  O   UNL d   1      -3.796 -16.956  -5.608 -0.46 -1.53    -0.650    51.970
ATOM     34  O   UNL d   1      -3.803 -18.847  -4.457 -0.17 -1.29    -0.776    51.970
ATOM     35  H   UNL d   1      -3.455 -19.750  -4.437 +0.02 +0.19    +0.167    51.970
ATOM     36  C   UNL d   1     -10.090 -16.678  -2.883 +0.01 +0.06    +0.190    51.970
ATOM     37  O   UNL d   1     -10.694 -17.446  -3.885 +0.01 -0.10    -0.399    51.970
ATOM     38  H   UNL d   1      -9.967 -17.625  -4.544 +0.01 +0.07    +0.209    51.970
ATOM     39  C   UNL d   1      -7.300 -13.862  -7.388 -0.12 +0.05    +0.052    51.970
ATOM     40  C   UNL d   1      -8.289 -14.653  -8.260 -0.14 +0.07    +0.115    51.970
ATOM     41  C   UNL d   1      -7.764 -15.987  -8.747 -0.17 +0.11    +0.139    51.970
ATOM     42  O   UNL d   1      -6.565 -16.220  -8.677 -0.57 -0.98    -0.650    51.970
ATOM     43  O   UNL d   1      -8.594 -16.964  -9.176 +0.02 -0.33    -0.776    51.970
ATOM     44  H   UNL d   1      -9.510 -16.792  -9.431 +0.02 +0.05    +0.167    51.970
ATOM     45  C   UNL d   1      -9.013 -18.181   2.835 -0.17 -0.00    +0.004    51.970
ATOM     46  C   UNL d   1     -10.209 -18.191   3.417 -0.13 -0.00    +0.012    51.970
ATOM     47  C   UNL d   1     -10.651 -11.400  -0.688 -0.11 -0.00    +0.004    51.970
ATOM     48  C   UNL d   1     -10.487 -10.419   0.203 -0.12 -0.00    +0.012    51.970
TER
ENDMDL
MODEL       16
USER    Run = 16
USER    Cluster Rank = 22
USER    Number of conformations in this cluster = 2
USER  
USER    RMSD from reference structure       = 31.737 A
USER  
USER    Estimated Free Energy of Binding    =   -4.33 kcal/mol  [=(1)+(2)+(3)-(4)]
USER    Estimated Inhibition Constant, Ki   =  664.44 uM (micromolar)  [Temperature = 298.15 K]
USER    
USER    (1) Final Intermolecular Energy     =   -7.91 kcal/mol
USER        vdW + Hbond + desolv Energy     =   -5.76 kcal/mol
USER        Electrostatic Energy            =   -2.16 kcal/mol
USER    (2) Final Total Internal Energy     =   -1.66 kcal/mol
USER    (3) Torsional Free Energy           =   +3.58 kcal/mol
USER    (4) Unbound System's Energy  [=(2)] =   -1.66 kcal/mol
USER    
USER    
USER  
USER    DPF = D:/Protein_go_brrr/autodock/final/mut_N102T/heme_Co/dock.dpf
USER    NEWDPF move	heme_Co_opt.pdbqt
USER    NEWDPF about	8.781000 34.984000 -0.736000
USER    NEWDPF tran0	13.697906 3.652181 15.777730
USER    NEWDPF axisangle0	0.747659 0.551867 -0.369390 -130.468317
USER    NEWDPF quaternion0	0.678895 0.501110 -0.335416 -0.418911
USER    NEWDPF dihe0	-91.88 105.29 -8.87 -76.91 118.48 137.59 -154.29 175.90 -112.27 163.03 -38.61 16.89 
USER  
USER                              x       y       z    vdW   Elec        q     RMS 
ATOM      1  C   UNL d   1      13.680   3.575  17.948 -0.07 +0.05    +0.064    31.737
ATOM      2  C   UNL d   1      11.333   1.089  14.643 -0.19 +0.02    +0.064    31.737
ATOM      3  C   UNL d   1      13.199   3.829  11.202 -0.27 +0.02    +0.064    31.737
ATOM      4  C   UNL d   1      15.904   6.134  14.523 -0.08 +0.02    +0.064    31.737
ATOM      5  C   UNL d   1      12.874   2.718  17.301 -0.13 +0.05    +0.066    31.737
ATOM      6  C   UNL d   1      12.187   1.687  17.971 -0.12 -0.01    -0.021    31.737
ATOM      7  C   UNL d   1      11.526   0.955  17.005 -0.13 -0.01    -0.025    31.737
ATOM      8  C   UNL d   1      11.824   1.579  15.789 -0.17 +0.03    +0.066    31.737
ATOM      9  C   UNL d   1      10.644  -0.288  17.203 -0.09 +0.02    +0.051    31.737
ATOM     10  C   UNL d   1      11.564   1.679  13.348 -0.19 +0.02    +0.066    31.737
ATOM     11  C   UNL d   1      10.966   1.296  12.128 -0.25 -0.01    -0.021    31.737
ATOM     12  C   UNL d   1      11.525   2.114  11.142 -0.37 +0.00    +0.000    31.737
ATOM     13  C   UNL d   1      12.410   2.941  11.833 -0.26 +0.02    +0.070    31.737
ATOM     14  C   UNL d   1       9.866   0.280  11.954 -0.27 +0.02    +0.052    31.737
ATOM     15  C   UNL d   1      14.202   4.720  11.751 -0.20 +0.02    +0.066    31.737
ATOM     16  C   UNL d   1      15.085   5.510  11.027 -0.20 -0.00    -0.021    31.737
ATOM     17  C   UNL d   1      15.869   6.175  11.981 -0.12 +0.00    +0.000    31.737
ATOM     18  C   UNL d   1      15.389   5.750  13.215 -0.12 +0.02    +0.070    31.737
ATOM     19  C   UNL d   1      15.149   5.597   9.519 -0.06 +0.01    +0.052    31.737
ATOM     20  C   UNL d   1      15.511   5.669  15.733 -0.06 +0.03    +0.066    31.737
ATOM     21  C   UNL d   1      16.108   6.088  16.921 -0.05 -0.01    -0.025    31.737
ATOM     22  C   UNL d   1      15.467   5.389  17.927 -0.05 -0.01    -0.021    31.737
ATOM     23  C   UNL d   1      14.512   4.562  17.298 -0.06 +0.05    +0.066    31.737
ATOM     24  C   UNL d   1      17.246   7.091  17.087 -0.01 +0.01    +0.051    31.737
ATOM     25  N   UNL d   1      12.652   2.678  15.943 -0.12 -0.18    -0.248    31.737
ATOM     26  N   UNL d   1      12.392   2.715  13.174 -0.14 -0.10    -0.248    31.737
ATOM     27  N   UNL d   1      14.417   4.862  13.039 -0.11 -0.10    -0.248    31.737
ATOM     28  N   UNL d   1      14.537   4.727  15.970 -0.01 -0.20    -0.248    31.737
ATOM     29 FE   UNL d   1      13.588   3.837  14.408 -0.04 +0.00    +0.000    31.737
ATOM     30  C   UNL d   1      12.239   1.381  19.464 -0.06 +0.02    +0.052    31.737
ATOM     31  C   UNL d   1      12.096   2.665  20.281 -0.07 +0.04    +0.115    31.737
ATOM     32  C   UNL d   1      10.733   3.304  20.119 -0.15 +0.07    +0.139    31.737
ATOM     33  O   UNL d   1       9.771   2.822  20.697 -0.02 -0.22    -0.650    31.737
ATOM     34  O   UNL d   1      10.551   4.429  19.389 +0.07 -0.75    -0.776    31.737
ATOM     35  H   UNL d   1      10.525   5.321  19.761 -0.11 +0.16    +0.167    31.737
ATOM     36  C   UNL d   1      15.059   2.344  14.335 -0.03 +0.05    +0.190    31.737
ATOM     37  O   UNL d   1      15.589   1.266  15.051 +0.00 -0.08    -0.399    31.737
ATOM     38  H   UNL d   1      15.140   1.304  15.941 +0.01 +0.05    +0.209    31.737
ATOM     39  C   UNL d   1      15.804   5.467  19.404 -0.02 +0.02    +0.052    31.737
ATOM     40  C   UNL d   1      14.604   5.995  20.207 -0.03 +0.05    +0.115    31.737
ATOM     41  C   UNL d   1      13.612   6.800  19.393 -0.03 +0.13    +0.139    31.737
ATOM     42  O   UNL d   1      14.025   7.658  18.626 -0.14 -0.50    -0.650    31.737
ATOM     43  O   UNL d   1      12.287   6.536  19.426 -0.20 -1.17    -0.776    31.737
ATOM     44  H   UNL d   1      11.915   5.807  19.938 +0.02 +0.19    +0.167    31.737
ATOM     45  C   UNL d   1      11.311   2.221   9.638 -0.50 +0.00    +0.004    31.737
ATOM     46  C   UNL d   1      11.862   1.544   8.635 -0.37 +0.00    +0.012    31.737
ATOM     47  C   UNL d   1      17.022   7.104  11.787 -0.08 +0.00    +0.004    31.737
ATOM     48  C   UNL d   1      16.907   8.434  11.801 -0.10 +0.00    +0.012    31.737
TER
ENDMDL
MODEL       18
USER    Run = 18
USER    Cluster Rank = 23
USER    Number of conformations in this cluster = 2
USER  
USER    RMSD from reference structure       = 33.429 A
USER  
USER    Estimated Free Energy of Binding    =   -4.32 kcal/mol  [=(1)+(2)+(3)-(4)]
USER    Estimated Inhibition Constant, Ki   =  682.43 uM (micromolar)  [Temperature = 298.15 K]
USER    
USER    (1) Final Intermolecular Energy     =   -7.90 kcal/mol
USER        vdW + Hbond + desolv Energy     =   -6.85 kcal/mol
USER        Electrostatic Energy            =   -1.05 kcal/mol
USER    (2) Final Total Internal Energy     =   -2.19 kcal/mol
USER    (3) Torsional Free Energy           =   +3.58 kcal/mol
USER    (4) Unbound System's Energy  [=(2)] =   -2.19 kcal/mol
USER    
USER    
USER  
USER    DPF = D:/Protein_go_brrr/autodock/final/mut_N102T/heme_Co/dock.dpf
USER    NEWDPF move	heme_Co_opt.pdbqt
USER    NEWDPF about	8.781000 34.984000 -0.736000
USER    NEWDPF tran0	-12.220417 6.167223 4.812384
USER    NEWDPF axisangle0	0.272333 -0.839788 0.469671 -80.085762
USER    NEWDPF quaternion0	0.175209 -0.540287 0.302168 -0.765563
USER    NEWDPF dihe0	2.29 124.19 114.87 17.11 140.87 93.44 44.01 -42.82 -107.87 -134.47 4.74 136.97 
USER  
USER                              x       y       z    vdW   Elec        q     RMS 
ATOM      1  C   UNL d   1     -12.385   6.521   2.676 -0.07 +0.01    +0.064    33.429
ATOM      2  C   UNL d   1     -13.051   2.633   5.331 -0.16 -0.00    +0.064    33.429
ATOM      3  C   UNL d   1     -11.574   4.988   9.217 -0.06 -0.00    +0.064    33.429
ATOM      4  C   UNL d   1     -11.254   9.077   6.602 -0.21 -0.01    +0.064    33.429
ATOM      5  C   UNL d   1     -12.640   5.276   3.109 -0.13 +0.01    +0.066    33.429
ATOM      6  C   UNL d   1     -13.173   4.284   2.262 -0.10 -0.00    -0.021    33.429
ATOM      7  C   UNL d   1     -13.385   3.165   3.043 -0.11 -0.00    -0.025    33.429
ATOM      8  C   UNL d   1     -12.959   3.516   4.328 -0.14 +0.00    +0.066    33.429
ATOM      9  C   UNL d   1     -13.968   1.811   2.610 -0.05 +0.01    +0.051    33.429
ATOM     10  C   UNL d   1     -12.613   2.895   6.679 -0.17 -0.01    +0.066    33.429
ATOM     11  C   UNL d   1     -12.552   1.967   7.742 -0.19 +0.00    -0.021    33.429
ATOM     12  C   UNL d   1     -12.114   2.679   8.862 -0.23 -0.00    +0.000    33.429
ATOM     13  C   UNL d   1     -11.929   3.982   8.398 -0.23 -0.00    +0.070    33.429
ATOM     14  C   UNL d   1     -12.807   0.484   7.647 -0.18 -0.01    +0.052    33.429
ATOM     15  C   UNL d   1     -11.390   6.394   8.920 -0.28 -0.00    +0.066    33.429
ATOM     16  C   UNL d   1     -11.164   7.408   9.841 -0.28 +0.00    -0.021    33.429
ATOM     17  C   UNL d   1     -11.073   8.589   9.092 -0.26 -0.00    +0.000    33.429
ATOM     18  C   UNL d   1     -11.235   8.200   7.766 -0.25 -0.01    +0.070    33.429
ATOM     19  C   UNL d   1     -11.049   7.223  11.338 -0.27 +0.00    +0.052    33.429
ATOM     20  C   UNL d   1     -11.495   8.732   5.314 -0.21 -0.01    +0.066    33.429
ATOM     21  C   UNL d   1     -11.522   9.672   4.286 -0.16 +0.00    -0.025    33.429
ATOM     22  C   UNL d   1     -11.817   8.960   3.138 -0.14 +0.00    -0.021    33.429
ATOM     23  C   UNL d   1     -11.968   7.612   3.528 -0.16 +0.00    +0.066    33.429
ATOM     24  C   UNL d   1     -11.298  11.178   4.394 -0.12 -0.00    +0.051    33.429
ATOM     25  N   UNL d   1     -12.487   4.815   4.397 -0.12 -0.02    -0.248    33.429
ATOM     26  N   UNL d   1     -12.177   4.098   7.067 -0.14 +0.00    -0.248    33.429
ATOM     27  N   UNL d   1     -11.451   6.891   7.704 -0.16 +0.02    -0.248    33.429
ATOM     28  N   UNL d   1     -11.776   7.471   4.845 -0.09 -0.00    -0.248    33.429
ATOM     29 FE   UNL d   1     -11.938   5.917   6.147 -0.05 +0.00    +0.000    33.429
ATOM     30  C   UNL d   1     -13.533   4.445   0.789 -0.04 +0.01    +0.052    33.429
ATOM     31  C   UNL d   1     -12.329   4.126  -0.097 -0.10 +0.03    +0.115    33.429
ATOM     32  C   UNL d   1     -11.984   2.652  -0.093 -0.08 +0.09    +0.139    33.429
ATOM     33  O   UNL d   1     -11.262   2.206   0.786 -0.32 -0.60    -0.650    33.429
ATOM     34  O   UNL d   1     -12.491   1.794  -1.009 -0.50 -0.63    -0.776    33.429
ATOM     35  H   UNL d   1     -13.116   2.046  -1.702 +0.02 +0.07    +0.167    33.429
ATOM     36  C   UNL d   1     -13.980   6.313   6.402 -0.04 -0.00    +0.190    33.429
ATOM     37  O   UNL d   1     -15.081   6.925   5.794 +0.00 +0.01    -0.399    33.429
ATOM     38  H   UNL d   1     -14.780   7.130   4.865 +0.01 -0.00    +0.209    33.429
ATOM     39  C   UNL d   1     -12.007   9.558   1.756 -0.07 -0.00    +0.052    33.429
ATOM     40  C   UNL d   1     -13.404   9.223   1.207 -0.01 +0.00    +0.115    33.429
ATOM     41  C   UNL d   1     -14.513   9.296   2.235 -0.01 -0.00    +0.139    33.429
ATOM     42  O   UNL d   1     -15.169  10.323   2.336 +0.00 +0.01    -0.650    33.429
ATOM     43  O   UNL d   1     -14.857   8.226   2.986 +0.02 +0.00    -0.776    33.429
ATOM     44  H   UNL d   1     -14.825   8.238   3.952 +0.01 -0.00    +0.167    33.429
ATOM     45  C   UNL d   1     -11.834   2.277  10.304 -0.25 -0.00    +0.004    33.429
ATOM     46  C   UNL d   1     -11.787   1.076  10.874 -0.27 -0.00    +0.012    33.429
ATOM     47  C   UNL d   1     -10.901  10.000   9.552 -0.23 -0.00    +0.004    33.429
ATOM     48  C   UNL d   1      -9.859  10.764   9.213 -0.26 -0.00    +0.012    33.429
TER
ENDMDL
MODEL      100
USER    Run = 100
USER    Cluster Rank = 24
USER    Number of conformations in this cluster = 2
USER  
USER    RMSD from reference structure       = 32.559 A
USER  
USER    Estimated Free Energy of Binding    =   -4.28 kcal/mol  [=(1)+(2)+(3)-(4)]
USER    Estimated Inhibition Constant, Ki   =  734.92 uM (micromolar)  [Temperature = 298.15 K]
USER    
USER    (1) Final Intermolecular Energy     =   -7.85 kcal/mol
USER        vdW + Hbond + desolv Energy     =   -5.21 kcal/mol
USER        Electrostatic Energy            =   -2.64 kcal/mol
USER    (2) Final Total Internal Energy     =   -1.72 kcal/mol
USER    (3) Torsional Free Energy           =   +3.58 kcal/mol
USER    (4) Unbound System's Energy  [=(2)] =   -1.72 kcal/mol
USER    
USER    
USER  
USER    DPF = D:/Protein_go_brrr/autodock/final/mut_N102T/heme_Co/dock.dpf
USER    NEWDPF move	heme_Co_opt.pdbqt
USER    NEWDPF about	8.781000 34.984000 -0.736000
USER    NEWDPF tran0	-1.428550 11.615925 -23.464049
USER    NEWDPF axisangle0	0.508501 -0.670324 -0.540456 -89.491725
USER    NEWDPF quaternion0	0.357966 -0.471883 -0.380461 -0.710236
USER    NEWDPF dihe0	-71.12 -107.62 75.30 -101.54 67.09 -106.38 13.25 70.37 -108.59 40.56 175.47 -176.56 
USER  
USER                              x       y       z    vdW   Elec        q     RMS 
ATOM      1  C   UNL d   1      -1.039  13.669 -24.055 -0.04 +0.01    +0.064    32.559
ATOM      2  C   UNL d   1      -4.765  10.797 -24.747 -0.01 +0.00    +0.064    32.559
ATOM      3  C   UNL d   1      -2.397   7.175 -22.722 -0.06 +0.00    +0.064    32.559
ATOM      4  C   UNL d   1       1.272  10.186 -21.657 -0.18 -0.00    +0.064    32.559
ATOM      5  C   UNL d   1      -2.217  13.141 -24.425 -0.02 +0.01    +0.066    32.559
ATOM      6  C   UNL d   1      -3.238  13.922 -25.003 -0.01 -0.00    -0.021    32.559
ATOM      7  C   UNL d   1      -4.325  13.088 -25.180 -0.01 -0.00    -0.025    32.559
ATOM      8  C   UNL d   1      -3.916  11.832 -24.720 -0.01 +0.01    +0.066    32.559
ATOM      9  C   UNL d   1      -5.702  13.446 -25.760 +0.00 +0.00    +0.051    32.559
ATOM     10  C   UNL d   1      -4.426   9.463 -24.319 -0.02 +0.00    +0.066    32.559
ATOM     11  C   UNL d   1      -5.223   8.305 -24.452 -0.03 -0.00    -0.021    32.559
ATOM     12  C   UNL d   1      -4.507   7.263 -23.857 -0.07 +0.00    +0.000    32.559
ATOM     13  C   UNL d   1      -3.324   7.857 -23.418 -0.07 +0.00    +0.070    32.559
ATOM     14  C   UNL d   1      -6.535   8.206 -25.188 -0.01 +0.00    +0.052    32.559
ATOM     15  C   UNL d   1      -1.149   7.640 -22.150 -0.06 +0.00    +0.066    32.559
ATOM     16  C   UNL d   1      -0.306   6.918 -21.317 -0.15 +0.00    -0.021    32.559
ATOM     17  C   UNL d   1       0.753   7.783 -21.005 -0.25 -0.00    +0.000    32.559
ATOM     18  C   UNL d   1       0.479   8.963 -21.688 -0.19 -0.00    +0.070    32.559
ATOM     19  C   UNL d   1      -0.529   5.492 -20.866 -0.27 -0.00    +0.052    32.559
ATOM     20  C   UNL d   1       0.981  11.372 -22.243 -0.12 +0.00    +0.066    32.559
ATOM     21  C   UNL d   1       1.805  12.488 -22.111 -0.11 -0.00    -0.025    32.559
ATOM     22  C   UNL d   1       1.179  13.499 -22.816 -0.07 -0.00    -0.021    32.559
ATOM     23  C   UNL d   1      -0.012  12.949 -23.337 -0.06 +0.01    +0.066    32.559
ATOM     24  C   UNL d   1       3.115  12.592 -21.335 -0.13 -0.00    +0.051    32.559
ATOM     25  N   UNL d   1      -2.613  11.834 -24.251 -0.01 -0.03    -0.248    32.559
ATOM     26  N   UNL d   1      -3.252   9.175 -23.747 -0.03 -0.01    -0.248    32.559
ATOM     27  N   UNL d   1      -0.677   8.852 -22.335 -0.08 +0.00    -0.248    32.559
ATOM     28  N   UNL d   1      -0.136  11.663 -22.990 -0.04 -0.02    -0.248    32.559
ATOM     29 FE   UNL d   1      -1.584  10.257 -23.236 -0.02 +0.00    +0.000    32.559
ATOM     30  C   UNL d   1      -3.186  15.419 -25.289 -0.01 +0.01    +0.052    32.559
ATOM     31  C   UNL d   1      -3.926  16.199 -24.203 -0.04 +0.05    +0.115    32.559
ATOM     32  C   UNL d   1      -3.201  16.168 -22.875 -0.05 +0.13    +0.139    32.559
ATOM     33  O   UNL d   1      -3.731  15.631 -21.913 -0.09 -0.56    -0.650    32.559
ATOM     34  O   UNL d   1      -1.956  16.676 -22.724 -0.53 -1.38    -0.776    32.559
ATOM     35  H   UNL d   1      -1.151  16.245 -23.042 +0.00 +0.18    +0.167    32.559
ATOM     36  C   UNL d   1      -2.545  10.907 -21.490 -0.16 +0.00    +0.190    32.559
ATOM     37  O   UNL d   1      -3.632  10.642 -20.651 -0.11 +0.00    -0.399    32.559
ATOM     38  H   UNL d   1      -3.278  10.761 -19.726 -0.44 -0.05    +0.209    32.559
ATOM     39  C   UNL d   1       1.670  14.931 -22.924 -0.06 +0.01    +0.052    32.559
ATOM     40  C   UNL d   1       1.407  15.695 -21.616 -0.11 +0.06    +0.115    32.559
ATOM     41  C   UNL d   1       1.056  17.156 -21.805 +0.04 +0.14    +0.139    32.559
ATOM     42  O   UNL d   1       1.333  17.957 -20.923 -0.58 -0.75    -0.650    32.559
ATOM     43  O   UNL d   1       0.523  17.614 -22.959 -0.06 -0.70    -0.776    32.559
ATOM     44  H   UNL d   1      -0.419  17.541 -23.161 +0.00 +0.20    +0.167    32.559
ATOM     45  C   UNL d   1      -4.794   5.779 -23.672 -0.11 +0.00    +0.004    32.559
ATOM     46  C   UNL d   1      -5.074   5.082 -22.573 -0.23 +0.00    +0.012    32.559
ATOM     47  C   UNL d   1       1.921   7.573 -20.100 -0.24 -0.00    +0.004    32.559
ATOM     48  C   UNL d   1       2.660   6.460 -20.095 -0.29 -0.00    +0.012    32.559
TER
ENDMDL
MODEL       39
USER    Run = 39
USER    Cluster Rank = 25
USER    Number of conformations in this cluster = 3
USER  
USER    RMSD from reference structure       = 33.089 A
USER  
USER    Estimated Free Energy of Binding    =   -4.13 kcal/mol  [=(1)+(2)+(3)-(4)]
USER    Estimated Inhibition Constant, Ki   =  937.13 uM (micromolar)  [Temperature = 298.15 K]
USER    
USER    (1) Final Intermolecular Energy     =   -7.71 kcal/mol
USER        vdW + Hbond + desolv Energy     =   -7.56 kcal/mol
USER        Electrostatic Energy            =   -0.15 kcal/mol
USER    (2) Final Total Internal Energy     =   -2.32 kcal/mol
USER    (3) Torsional Free Energy           =   +3.58 kcal/mol
USER    (4) Unbound System's Energy  [=(2)] =   -2.32 kcal/mol
USER    
USER    
USER  
USER    DPF = D:/Protein_go_brrr/autodock/final/mut_N102T/heme_Co/dock.dpf
USER    NEWDPF move	heme_Co_opt.pdbqt
USER    NEWDPF about	8.781000 34.984000 -0.736000
USER    NEWDPF tran0	-6.833201 6.657842 16.625381
USER    NEWDPF axisangle0	0.343058 0.214573 0.914478 -60.599248
USER    NEWDPF quaternion0	0.173080 0.108257 0.461374 -0.863399
USER    NEWDPF dihe0	-161.49 121.77 6.68 105.69 95.22 128.23 30.86 -35.81 -173.88 122.93 -174.23 5.98 
USER  
USER                              x       y       z    vdW   Elec        q     RMS 
ATOM      1  C   UNL d   1      -8.573   5.470  16.098 -0.11 +0.01    +0.064    33.089
ATOM      2  C   UNL d   1      -4.565   4.408  18.427 -0.18 -0.00    +0.064    33.089
ATOM      3  C   UNL d   1      -2.848   8.778  17.540 -0.14 -0.02    +0.064    33.089
ATOM      4  C   UNL d   1      -7.085  10.013  15.493 -0.03 -0.00    +0.064    33.089
ATOM      5  C   UNL d   1      -7.589   4.847  16.768 -0.21 +0.01    +0.066    33.089
ATOM      6  C   UNL d   1      -7.741   3.542  17.276 -0.24 -0.00    -0.021    33.089
ATOM      7  C   UNL d   1      -6.584   3.248  17.970 -0.23 -0.00    -0.025    33.089
ATOM      8  C   UNL d   1      -5.769   4.378  17.842 -0.24 +0.00    +0.066    33.089
ATOM      9  C   UNL d   1      -6.244   1.957  18.731 -0.13 +0.01    +0.051    33.089
ATOM     10  C   UNL d   1      -3.648   5.516  18.328 -0.23 -0.01    +0.066    33.089
ATOM     11  C   UNL d   1      -2.317   5.554  18.798 -0.27 +0.01    -0.021    33.089
ATOM     12  C   UNL d   1      -1.839   6.839  18.523 -0.24 -0.00    +0.000    33.089
ATOM     13  C   UNL d   1      -2.906   7.483  17.896 -0.20 -0.02    +0.070    33.089
ATOM     14  C   UNL d   1      -1.543   4.400  19.381 -0.24 -0.03    +0.052    33.089
ATOM     15  C   UNL d   1      -3.868   9.612  16.934 -0.16 -0.02    +0.066    33.089
ATOM     16  C   UNL d   1      -3.794  10.981  16.724 -0.21 +0.01    -0.021    33.089
ATOM     17  C   UNL d   1      -5.015  11.343  16.136 -0.18 -0.00    +0.000    33.089
ATOM     18  C   UNL d   1      -5.733  10.157  16.018 -0.16 -0.01    +0.070    33.089
ATOM     19  C   UNL d   1      -2.615  11.860  17.078 -0.26 -0.01    +0.052    33.089
ATOM     20  C   UNL d   1      -7.835   8.886  15.447 -0.16 +0.00    +0.066    33.089
ATOM     21  C   UNL d   1      -9.137   8.880  14.952 -0.18 -0.00    -0.025    33.089
ATOM     22  C   UNL d   1      -9.582   7.577  15.087 -0.20 -0.00    -0.021    33.089
ATOM     23  C   UNL d   1      -8.524   6.850  15.673 -0.22 +0.00    +0.066    33.089
ATOM     24  C   UNL d   1      -9.928  10.061  14.396 -0.13 -0.00    +0.051    33.089
ATOM     25  N   UNL d   1      -6.364   5.382  17.097 -0.18 -0.00    -0.248    33.089
ATOM     26  N   UNL d   1      -3.979   6.665  17.728 -0.15 +0.04    -0.248    33.089
ATOM     27  N   UNL d   1      -5.031   9.152  16.530 -0.16 +0.05    -0.248    33.089
ATOM     28  N   UNL d   1      -7.466   7.639  15.895 -0.18 +0.00    -0.248    33.089
ATOM     29 FE   UNL d   1      -5.661   7.380  16.795 -0.05 -0.00    +0.000    33.089
ATOM     30  C   UNL d   1      -8.980   2.660  17.163 -0.20 +0.02    +0.052    33.089
ATOM     31  C   UNL d   1      -9.913   2.889  18.352 -0.05 +0.01    +0.115    33.089
ATOM     32  C   UNL d   1      -9.422   3.990  19.267 -0.02 +0.01    +0.139    33.089
ATOM     33  O   UNL d   1      -8.814   3.698  20.286 +0.02 -0.01    -0.650    33.089
ATOM     34  O   UNL d   1      -9.592   5.299  18.970 +0.03 -0.00    -0.776    33.089
ATOM     35  H   UNL d   1      -9.129   6.022  19.415 +0.01 -0.00    +0.167    33.089
ATOM     36  C   UNL d   1      -6.500   7.837  18.661 -0.03 -0.02    +0.190    33.089
ATOM     37  O   UNL d   1      -7.504   7.453  19.556 +0.00 +0.02    -0.399    33.089
ATOM     38  H   UNL d   1      -7.869   6.603  19.182 +0.02 -0.01    +0.209    33.089
ATOM     39  C   UNL d   1     -10.970   7.080  14.730 -0.13 +0.00    +0.052    33.089
ATOM     40  C   UNL d   1     -10.928   6.224  13.454 -0.20 +0.01    +0.115    33.089
ATOM     41  C   UNL d   1     -10.471   6.968  12.217 -0.30 +0.01    +0.139    33.089
ATOM     42  O   UNL d   1      -9.327   6.811  11.813 -0.51 -0.17    -0.650    33.089
ATOM     43  O   UNL d   1     -11.318   7.735  11.496 +0.05 -0.00    -0.776    33.089
ATOM     44  H   UNL d   1     -12.189   7.996  11.823 +0.04 -0.00    +0.167    33.089
ATOM     45  C   UNL d   1      -0.499   7.521  18.762 -0.25 -0.00    +0.004    33.089
ATOM     46  C   UNL d   1       0.537   7.704  17.948 -0.43 -0.00    +0.012    33.089
ATOM     47  C   UNL d   1      -5.525  12.692  15.749 -0.16 -0.00    +0.004    33.089
ATOM     48  C   UNL d   1      -5.080  13.373  14.691 -0.23 -0.00    +0.012    33.089
TER
ENDMDL
MODEL       49
USER    Run = 49
USER    Cluster Rank = 26
USER    Number of conformations in this cluster = 1
USER  
USER    RMSD from reference structure       = 43.698 A
USER  
USER    Estimated Free Energy of Binding    =   -4.09 kcal/mol  [=(1)+(2)+(3)-(4)]
USER    Estimated Inhibition Constant, Ki   =    1.00 mM (millimolar)  [Temperature = 298.15 K]
USER    
USER    (1) Final Intermolecular Energy     =   -7.67 kcal/mol
USER        vdW + Hbond + desolv Energy     =   -6.33 kcal/mol
USER        Electrostatic Energy            =   -1.34 kcal/mol
USER    (2) Final Total Internal Energy     =   -2.22 kcal/mol
USER    (3) Torsional Free Energy           =   +3.58 kcal/mol
USER    (4) Unbound System's Energy  [=(2)] =   -2.22 kcal/mol
USER    
USER    
USER  
USER    DPF = D:/Protein_go_brrr/autodock/final/mut_N102T/heme_Co/dock.dpf
USER    NEWDPF move	heme_Co_opt.pdbqt
USER    NEWDPF about	8.781000 34.984000 -0.736000
USER    NEWDPF tran0	5.586421 -8.298482 18.093850
USER    NEWDPF axisangle0	0.211888 0.565830 0.796831 168.038037
USER    NEWDPF quaternion0	0.210735 0.562750 0.792494 0.104198
USER    NEWDPF dihe0	-177.18 108.32 103.69 63.13 137.69 133.06 35.45 139.37 170.73 61.33 -166.90 123.80 
USER  
USER                              x       y       z    vdW   Elec        q     RMS 
ATOM      1  C   UNL d   1       7.324  -9.405  17.408 -0.19 +0.02    +0.064    43.698
ATOM      2  C   UNL d   1       5.944  -4.902  16.758 -0.01 -0.00    +0.064    43.698
ATOM      3  C   UNL d   1       1.841  -5.791  19.040 -0.18 -0.02    +0.064    43.698
ATOM      4  C   UNL d   1       3.394 -10.288  20.053 -0.19 -0.01    +0.064    43.698
ATOM      5  C   UNL d   1       7.233  -8.119  17.031 -0.22 +0.01    +0.066    43.698
ATOM      6  C   UNL d   1       8.291  -7.453  16.383 -0.16 -0.00    -0.021    43.698
ATOM      7  C   UNL d   1       7.894  -6.141  16.217 -0.12 -0.00    -0.025    43.698
ATOM      8  C   UNL d   1       6.605  -6.066  16.756 -0.06 +0.00    +0.066    43.698
ATOM      9  C   UNL d   1       8.687  -4.990  15.580 -0.08 +0.01    +0.051    43.698
ATOM     10  C   UNL d   1       4.605  -4.735  17.265 -0.14 -0.01    +0.066    43.698
ATOM     11  C   UNL d   1       3.804  -3.576  17.169 -0.19 +0.00    -0.021    43.698
ATOM     12  C   UNL d   1       2.612  -3.864  17.839 -0.20 -0.00    +0.000    43.698
ATOM     13  C   UNL d   1       2.768  -5.178  18.282 -0.19 -0.02    +0.070    43.698
ATOM     14  C   UNL d   1       4.138  -2.322  16.402 -0.25 -0.01    +0.052    43.698
ATOM     15  C   UNL d   1       1.861  -7.117  19.624 -0.17 -0.02    +0.066    43.698
ATOM     16  C   UNL d   1       0.936  -7.637  20.517 -0.11 +0.00    -0.021    43.698
ATOM     17  C   UNL d   1       1.381  -8.933  20.814 -0.14 -0.00    +0.000    43.698
ATOM     18  C   UNL d   1       2.537  -9.108  20.062 -0.18 -0.01    +0.070    43.698
ATOM     19  C   UNL d   1      -0.286  -6.912  21.036 -0.09 -0.01    +0.052    43.698
ATOM     20  C   UNL d   1       4.568 -10.449  19.397 -0.20 -0.01    +0.066    43.698
ATOM     21  C   UNL d   1       5.320 -11.618  19.494 -0.17 -0.00    -0.025    43.698
ATOM     22  C   UNL d   1       6.445 -11.403  18.719 -0.18 -0.00    -0.021    43.698
ATOM     23  C   UNL d   1       6.328 -10.099  18.192 -0.16 +0.01    +0.066    43.698
ATOM     24  C   UNL d   1       4.993 -12.871  20.302 -0.09 -0.00    +0.051    43.698
ATOM     25  N   UNL d   1       6.167  -7.279  17.261 -0.17 +0.01    -0.248    43.698
ATOM     26  N   UNL d   1       3.949  -5.722  17.886 -0.16 +0.05    -0.248    43.698
ATOM     27  N   UNL d   1       2.810  -7.996  19.389 -0.12 +0.08    -0.248    43.698
ATOM     28  N   UNL d   1       5.195  -9.517  18.602 -0.11 +0.02    -0.248    43.698
ATOM     29 FE   UNL d   1       4.390  -7.662  18.388 -0.05 -0.00    +0.000    43.698
ATOM     30  C   UNL d   1       9.650  -8.043  16.020 -0.12 +0.01    +0.052    43.698
ATOM     31  C   UNL d   1      10.591  -8.005  17.224 -0.03 +0.02    +0.115    43.698
ATOM     32  C   UNL d   1      10.044  -7.166  18.358 -0.02 +0.02    +0.139    43.698
ATOM     33  O   UNL d   1      10.369  -5.992  18.448 +0.01 -0.06    -0.650    43.698
ATOM     34  O   UNL d   1       9.162  -7.662  19.257 +0.03 -0.07    -0.776    43.698
ATOM     35  H   UNL d   1       8.806  -7.161  20.004 +0.01 +0.01    +0.167    43.698
ATOM     36  C   UNL d   1       5.445  -6.985  20.069 -0.05 -0.02    +0.190    43.698
ATOM     37  O   UNL d   1       6.736  -6.790  20.570 -0.00 +0.01    -0.399    43.698
ATOM     38  H   UNL d   1       7.341  -7.166  19.872 +0.02 +0.00    +0.209    43.698
ATOM     39  C   UNL d   1       7.596 -12.377  18.550 -0.11 +0.02    +0.052    43.698
ATOM     40  C   UNL d   1       8.945 -11.651  18.678 -0.11 +0.05    +0.115    43.698
ATOM     41  C   UNL d   1       9.867 -11.831  17.491 +0.02 +0.15    +0.139    43.698
ATOM     42  O   UNL d   1      10.554 -12.839  17.414 -0.36 -0.78    -0.650    43.698
ATOM     43  O   UNL d   1       9.887 -10.948  16.467 -0.42 -0.93    -0.776    43.698
ATOM     44  H   UNL d   1      10.634 -10.357  16.306 +0.02 +0.13    +0.167    43.698
ATOM     45  C   UNL d   1       1.344  -3.060  18.095 -0.27 -0.00    +0.004    43.698
ATOM     46  C   UNL d   1       0.527  -2.439  17.248 -0.43 -0.00    +0.012    43.698
ATOM     47  C   UNL d   1       0.820  -9.940  21.764 -0.10 -0.00    +0.004    43.698
ATOM     48  C   UNL d   1       0.322 -11.118  21.381 -0.11 -0.00    +0.012    43.698
TER
ENDMDL
MODEL       69
USER    Run = 69
USER    Cluster Rank = 27
USER    Number of conformations in this cluster = 3
USER  
USER    RMSD from reference structure       = 26.726 A
USER  
USER    Estimated Free Energy of Binding    =   -4.08 kcal/mol  [=(1)+(2)+(3)-(4)]
USER    Estimated Inhibition Constant, Ki   =    1.03 mM (millimolar)  [Temperature = 298.15 K]
USER    
USER    (1) Final Intermolecular Energy     =   -7.66 kcal/mol
USER        vdW + Hbond + desolv Energy     =   -7.59 kcal/mol
USER        Electrostatic Energy            =   -0.06 kcal/mol
USER    (2) Final Total Internal Energy     =   -2.19 kcal/mol
USER    (3) Torsional Free Energy           =   +3.58 kcal/mol
USER    (4) Unbound System's Energy  [=(2)] =   -2.19 kcal/mol
USER    
USER    
USER  
USER    DPF = D:/Protein_go_brrr/autodock/final/mut_N102T/heme_Co/dock.dpf
USER    NEWDPF move	heme_Co_opt.pdbqt
USER    NEWDPF about	8.781000 34.984000 -0.736000
USER    NEWDPF tran0	-5.468946 12.025182 -11.788200
USER    NEWDPF axisangle0	0.457324 0.535854 -0.709729 57.202222
USER    NEWDPF quaternion0	0.218925 0.256518 -0.339754 0.877974
USER    NEWDPF dihe0	164.28 133.02 113.10 38.68 137.80 131.49 -131.03 122.02 -134.48 49.44 -177.21 0.83 
USER  
USER                              x       y       z    vdW   Elec        q     RMS 
ATOM      1  C   UNL d   1      -6.435  10.811 -13.307 -0.16 -0.01    +0.064    26.726
ATOM      2  C   UNL d   1      -6.582  10.697  -8.556 -0.17 -0.00    +0.064    26.726
ATOM      3  C   UNL d   1      -3.275  14.138  -8.334 -0.22 +0.00    +0.064    26.726
ATOM      4  C   UNL d   1      -3.388  14.542 -13.180 -0.14 +0.00    +0.064    26.726
ATOM      5  C   UNL d   1      -6.691  10.502 -12.026 -0.15 -0.01    +0.066    26.726
ATOM      6  C   UNL d   1      -7.680   9.565 -11.666 -0.17 +0.00    -0.021    26.726
ATOM      7  C   UNL d   1      -7.734   9.552 -10.286 -0.16 +0.00    -0.025    26.726
ATOM      8  C   UNL d   1      -6.766  10.470  -9.863 -0.13 -0.00    +0.066    26.726
ATOM      9  C   UNL d   1      -8.657   8.716  -9.387 -0.13 -0.00    +0.051    26.726
ATOM     10  C   UNL d   1      -5.593  11.602  -8.026 -0.18 -0.00    +0.066    26.726
ATOM     11  C   UNL d   1      -5.255  11.780  -6.667 -0.25 -0.00    -0.021    26.726
ATOM     12  C   UNL d   1      -4.285  12.787  -6.631 -0.29 +0.00    +0.000    26.726
ATOM     13  C   UNL d   1      -4.095  13.138  -7.968 -0.26 -0.00    +0.070    26.726
ATOM     14  C   UNL d   1      -5.766  10.966  -5.506 -0.09 +0.00    +0.052    26.726
ATOM     15  C   UNL d   1      -3.000  14.666  -9.656 -0.25 -0.00    +0.066    26.726
ATOM     16  C   UNL d   1      -2.253  15.797  -9.952 -0.23 +0.00    -0.021    26.726
ATOM     17  C   UNL d   1      -2.285  15.919 -11.348 -0.17 -0.00    +0.000    26.726
ATOM     18  C   UNL d   1      -3.038  14.839 -11.797 -0.17 -0.00    +0.070    26.726
ATOM     19  C   UNL d   1      -1.566  16.684  -8.938 -0.03 -0.00    +0.052    26.726
ATOM     20  C   UNL d   1      -4.190  13.549 -13.633 -0.17 -0.00    +0.066    26.726
ATOM     21  C   UNL d   1      -4.482  13.387 -14.985 -0.21 -0.00    -0.025    26.726
ATOM     22  C   UNL d   1      -5.335  12.301 -15.055 -0.22 +0.00    -0.021    26.726
ATOM     23  C   UNL d   1      -5.533  11.858 -13.730 -0.17 -0.01    +0.066    26.726
ATOM     24  C   UNL d   1      -3.989  14.237 -16.153 -0.20 +0.01    +0.051    26.726
ATOM     25  N   UNL d   1      -6.101  11.068 -10.919 -0.08 +0.02    -0.248    26.726
ATOM     26  N   UNL d   1      -4.845  12.382  -8.814 -0.15 +0.01    -0.248    26.726
ATOM     27  N   UNL d   1      -3.473  14.132 -10.760 -0.16 +0.02    -0.248    26.726
ATOM     28  N   UNL d   1      -4.843  12.612 -12.866 -0.12 +0.02    -0.248    26.726
ATOM     29 FE   UNL d   1      -4.709  12.691 -10.838 -0.04 -0.00    +0.000    26.726
ATOM     30  C   UNL d   1      -8.582   8.784 -12.617 -0.15 -0.01    +0.052    26.726
ATOM     31  C   UNL d   1      -9.901   9.524 -12.835 -0.08 -0.01    +0.115    26.726
ATOM     32  C   UNL d   1      -9.701  11.009 -13.049 -0.03 -0.00    +0.139    26.726
ATOM     33  O   UNL d   1      -9.712  11.460 -14.185 +0.02 +0.01    -0.650    26.726
ATOM     34  O   UNL d   1      -9.558  11.870 -12.014 +0.02 +0.02    -0.776    26.726
ATOM     35  H   UNL d   1      -9.164  12.750 -12.090 +0.01 -0.00    +0.167    26.726
ATOM     36  C   UNL d   1      -6.371  13.965 -10.754 -0.02 -0.00    +0.190    26.726
ATOM     37  O   UNL d   1      -7.730  14.046 -11.074 +0.00 +0.00    -0.399    26.726
ATOM     38  H   UNL d   1      -8.028  13.098 -11.171 +0.01 -0.00    +0.209    26.726
ATOM     39  C   UNL d   1      -5.974  11.764 -16.322 -0.22 -0.00    +0.052    26.726
ATOM     40  C   UNL d   1      -5.244  10.500 -16.805 -0.41 -0.01    +0.115    26.726
ATOM     41  C   UNL d   1      -4.985  10.459 -18.296 -0.35 +0.00    +0.139    26.726
ATOM     42  O   UNL d   1      -5.725   9.802 -19.014 -0.05 -0.09    -0.650    26.726
ATOM     43  O   UNL d   1      -4.009  11.198 -18.868 +0.01 +0.02    -0.776    26.726
ATOM     44  H   UNL d   1      -3.273  10.802 -19.353 -0.53 -0.05    +0.167    26.726
ATOM     45  C   UNL d   1      -3.508  13.440  -5.496 -0.29 +0.00    +0.004    26.726
ATOM     46  C   UNL d   1      -3.114  12.951  -4.323 -0.41 +0.00    +0.012    26.726
ATOM     47  C   UNL d   1      -1.709  16.981 -12.226 -0.11 +0.00    +0.004    26.726
ATOM     48  C   UNL d   1      -0.746  16.755 -13.123 -0.15 +0.00    +0.012    26.726
TER
ENDMDL
MODEL       60
USER    Run = 60
USER    Cluster Rank = 28
USER    Number of conformations in this cluster = 2
USER  
USER    RMSD from reference structure       = 35.461 A
USER  
USER    Estimated Free Energy of Binding    =   -4.07 kcal/mol  [=(1)+(2)+(3)-(4)]
USER    Estimated Inhibition Constant, Ki   =    1.03 mM (millimolar)  [Temperature = 298.15 K]
USER    
USER    (1) Final Intermolecular Energy     =   -7.65 kcal/mol
USER        vdW + Hbond + desolv Energy     =   -5.33 kcal/mol
USER        Electrostatic Energy            =   -2.33 kcal/mol
USER    (2) Final Total Internal Energy     =   -1.99 kcal/mol
USER    (3) Torsional Free Energy           =   +3.58 kcal/mol
USER    (4) Unbound System's Energy  [=(2)] =   -1.99 kcal/mol
USER    
USER    
USER  
USER    DPF = D:/Protein_go_brrr/autodock/final/mut_N102T/heme_Co/dock.dpf
USER    NEWDPF move	heme_Co_opt.pdbqt
USER    NEWDPF about	8.781000 34.984000 -0.736000
USER    NEWDPF tran0	14.706997 -2.080125 5.576756
USER    NEWDPF axisangle0	0.331902 0.855515 -0.397410 -108.498719
USER    NEWDPF quaternion0	0.269361 0.694308 -0.322525 -0.584259
USER    NEWDPF dihe0	18.63 111.46 135.78 106.09 72.28 89.72 41.88 -12.90 -177.03 -179.96 8.33 -179.78 
USER  
USER                              x       y       z    vdW   Elec        q     RMS 
ATOM      1  C   UNL d   1      14.873  -1.104   7.509 -0.12 +0.03    +0.064    35.461
ATOM      2  C   UNL d   1      15.040  -5.676   6.215 -0.07 +0.03    +0.064    35.461
ATOM      3  C   UNL d   1      13.996  -4.478   1.709 -0.11 -0.00    +0.064    35.461
ATOM      4  C   UNL d   1      14.201   0.227   2.927 -0.30 +0.01    +0.064    35.461
ATOM      5  C   UNL d   1      14.959  -2.444   7.494 -0.10 +0.04    +0.066    35.461
ATOM      6  C   UNL d   1      15.328  -3.182   8.636 -0.07 -0.01    -0.021    35.461
ATOM      7  C   UNL d   1      15.397  -4.506   8.249 -0.07 -0.01    -0.025    35.461
ATOM      8  C   UNL d   1      15.052  -4.521   6.893 -0.08 +0.04    +0.066    35.461
ATOM      9  C   UNL d   1      15.772  -5.721   9.110 -0.03 +0.02    +0.051    35.461
ATOM     10  C   UNL d   1      14.673  -5.793   4.826 -0.06 +0.02    +0.066    35.461
ATOM     11  C   UNL d   1      14.505  -6.989   4.095 -0.03 -0.00    -0.021    35.461
ATOM     12  C   UNL d   1      14.197  -6.611   2.786 -0.04 -0.00    +0.000    35.461
ATOM     13  C   UNL d   1      14.188  -5.216   2.817 -0.07 +0.00    +0.070    35.461
ATOM     14  C   UNL d   1      14.546  -8.389   4.654 -0.01 +0.01    +0.052    35.461
ATOM     15  C   UNL d   1      14.007  -3.037   1.551 -0.19 +0.00    +0.066    35.461
ATOM     16  C   UNL d   1      13.946  -2.340   0.352 -0.23 +0.00    -0.021    35.461
ATOM     17  C   UNL d   1      14.007  -0.983   0.698 -0.34 +0.00    +0.000    35.461
ATOM     18  C   UNL d   1      14.083  -0.958   2.087 -0.28 +0.01    +0.070    35.461
ATOM     19  C   UNL d   1      13.839  -2.965  -1.021 -0.18 -0.01    +0.052    35.461
ATOM     20  C   UNL d   1      14.363   0.272   4.271 -0.28 +0.01    +0.066    35.461
ATOM     21  C   UNL d   1      14.500   1.474   4.963 -0.34 -0.00    -0.025    35.461
ATOM     22  C   UNL d   1      14.666   1.122   6.290 -0.23 -0.00    -0.021    35.461
ATOM     23  C   UNL d   1      14.634  -0.288   6.341 -0.18 +0.02    +0.066    35.461
ATOM     24  C   UNL d   1      14.494   2.887   4.387 -0.07 +0.01    +0.051    35.461
ATOM     25  N   UNL d   1      14.771  -3.258   6.400 -0.09 -0.15    -0.248    35.461
ATOM     26  N   UNL d   1      14.420  -4.724   4.063 -0.07 -0.06    -0.248    35.461
ATOM     27  N   UNL d   1      14.111  -2.200   2.559 -0.15 -0.04    -0.248    35.461
ATOM     28  N   UNL d   1      14.453  -0.806   5.120 -0.14 -0.08    -0.248    35.461
ATOM     29 FE   UNL d   1      14.421  -2.694   4.367 -0.04 +0.00    +0.000    35.461
ATOM     30  C   UNL d   1      15.675  -2.619  10.010 -0.02 +0.02    +0.052    35.461
ATOM     31  C   UNL d   1      14.434  -2.574  10.901 -0.03 +0.06    +0.115    35.461
ATOM     32  C   UNL d   1      13.204  -3.117  10.206 +0.10 +0.18    +0.139    35.461
ATOM     33  O   UNL d   1      12.514  -2.366   9.532 -0.30 -1.12    -0.650    35.461
ATOM     34  O   UNL d   1      12.865  -4.425  10.266 +0.03 -1.33    -0.776    35.461
ATOM     35  H   UNL d   1      13.241  -5.056  10.895 +0.01 +0.15    +0.167    35.461
ATOM     36  C   UNL d   1      16.504  -2.662   4.135 -0.03 +0.03    +0.190    35.461
ATOM     37  O   UNL d   1      17.662  -2.000   4.557 +0.00 -0.05    -0.399    35.461
ATOM     38  H   UNL d   1      17.338  -1.284   5.171 +0.02 +0.03    +0.209    35.461
ATOM     39  C   UNL d   1      14.908   2.091   7.433 -0.16 +0.01    +0.052    35.461
ATOM     40  C   UNL d   1      16.374   2.554   7.450 -0.08 +0.02    +0.115    35.461
ATOM     41  C   UNL d   1      17.261   1.860   6.438 -0.04 +0.02    +0.139    35.461
ATOM     42  O   UNL d   1      17.904   2.534   5.644 +0.02 -0.12    -0.650    35.461
ATOM     43  O   UNL d   1      17.430   0.520   6.442 +0.04 -0.13    -0.776    35.461
ATOM     44  H   UNL d   1      17.498   0.002   5.629 +0.02 +0.03    +0.167    35.461
ATOM     45  C   UNL d   1      13.894  -7.402   1.520 -0.07 -0.00    +0.004    35.461
ATOM     46  C   UNL d   1      12.732  -7.733   0.964 -0.13 -0.01    +0.012    35.461
ATOM     47  C   UNL d   1      14.046   0.225  -0.180 -0.35 +0.00    +0.004    35.461
ATOM     48  C   UNL d   1      13.178   0.444  -1.170 -0.37 -0.00    +0.012    35.461
TER
ENDMDL
MODEL       50
USER    Run = 50
USER    Cluster Rank = 29
USER    Number of conformations in this cluster = 1
USER  
USER    RMSD from reference structure       = 26.184 A
USER  
USER    Estimated Free Energy of Binding    =   -4.07 kcal/mol  [=(1)+(2)+(3)-(4)]
USER    Estimated Inhibition Constant, Ki   =    1.04 mM (millimolar)  [Temperature = 298.15 K]
USER    
USER    (1) Final Intermolecular Energy     =   -7.65 kcal/mol
USER        vdW + Hbond + desolv Energy     =   -7.53 kcal/mol
USER        Electrostatic Energy            =   -0.12 kcal/mol
USER    (2) Final Total Internal Energy     =   -2.36 kcal/mol
USER    (3) Torsional Free Energy           =   +3.58 kcal/mol
USER    (4) Unbound System's Energy  [=(2)] =   -2.36 kcal/mol
USER    
USER    
USER  
USER    DPF = D:/Protein_go_brrr/autodock/final/mut_N102T/heme_Co/dock.dpf
USER    NEWDPF move	heme_Co_opt.pdbqt
USER    NEWDPF about	8.781000 34.984000 -0.736000
USER    NEWDPF tran0	-4.727377 12.880612 -11.151129
USER    NEWDPF axisangle0	-0.441557 -0.554100 0.705692 128.078152
USER    NEWDPF quaternion0	-0.397000 -0.498187 0.634482 0.437758
USER    NEWDPF dihe0	173.09 178.40 -17.16 -92.85 -3.85 -18.17 -103.16 154.73 112.01 169.85 7.21 8.39 
USER  
USER                              x       y       z    vdW   Elec        q     RMS 
ATOM      1  C   UNL d   1      -3.612  13.963  -9.634 -0.23 -0.00    +0.064    26.184
ATOM      2  C   UNL d   1      -6.774  10.422  -9.357 -0.16 -0.00    +0.064    26.184
ATOM      3  C   UNL d   1      -7.530  10.678 -14.068 -0.12 -0.01    +0.064    26.184
ATOM      4  C   UNL d   1      -4.024  14.031 -14.435 -0.19 +0.00    +0.064    26.184
ATOM      5  C   UNL d   1      -4.447  13.001  -9.207 -0.22 -0.00    +0.066    26.184
ATOM      6  C   UNL d   1      -4.471  12.574  -7.865 -0.28 +0.00    -0.021    26.184
ATOM      7  C   UNL d   1      -5.373  11.531  -7.795 -0.23 +0.00    -0.025    26.184
ATOM      8  C   UNL d   1      -5.873  11.378  -9.093 -0.12 -0.00    +0.066    26.184
ATOM      9  C   UNL d   1      -5.760  10.701  -6.562 -0.25 +0.00    +0.051    26.184
ATOM     10  C   UNL d   1      -7.364  10.206 -10.655 -0.13 -0.01    +0.066    26.184
ATOM     11  C   UNL d   1      -8.414   9.316 -10.966 -0.13 +0.00    -0.021    26.184
ATOM     12  C   UNL d   1      -8.617   9.413 -12.346 -0.14 -0.00    +0.000    26.184
ATOM     13  C   UNL d   1      -7.687  10.363 -12.770 -0.11 -0.01    +0.070    26.184
ATOM     14  C   UNL d   1      -9.220   8.507  -9.982 -0.07 -0.00    +0.052    26.184
ATOM     15  C   UNL d   1      -6.588  11.592 -14.685 -0.12 -0.00    +0.066    26.184
ATOM     16  C   UNL d   1      -6.380  11.763 -16.046 -0.16 +0.00    -0.021    26.184
ATOM     17  C   UNL d   1      -5.368  12.728 -16.157 -0.22 +0.00    +0.000    26.184
ATOM     18  C   UNL d   1      -5.050  13.082 -14.850 -0.18 -0.00    +0.070    26.184
ATOM     19  C   UNL d   1      -7.119  11.034 -17.146 -0.18 +0.00    +0.052    26.184
ATOM     20  C   UNL d   1      -3.638  14.327 -13.171 -0.13 +0.00    +0.066    26.184
ATOM     21  C   UNL d   1      -2.614  15.231 -12.899 -0.10 -0.00    -0.025    26.184
ATOM     22  C   UNL d   1      -2.492  15.254 -11.522 -0.21 +0.00    -0.021    26.184
ATOM     23  C   UNL d   1      -3.448  14.346 -11.018 -0.20 -0.01    +0.066    26.184
ATOM     24  C   UNL d   1      -1.777  16.020 -13.903 -0.18 +0.01    +0.051    26.184
ATOM     25  N   UNL d   1      -5.322  12.279  -9.987 -0.10 +0.01    -0.248    26.184
ATOM     26  N   UNL d   1      -6.969  10.882 -11.739 -0.05 +0.02    -0.248    26.184
ATOM     27  N   UNL d   1      -5.775  12.363 -14.000 -0.07 +0.02    -0.248    26.184
ATOM     28  N   UNL d   1      -4.142  13.781 -12.013 -0.11 +0.01    -0.248    26.184
ATOM     29 FE   UNL d   1      -5.559  12.327 -12.112 -0.03 -0.00    +0.000    26.184
ATOM     30  C   UNL d   1      -3.599  13.098  -6.728 -0.19 +0.00    +0.052    26.184
ATOM     31  C   UNL d   1      -4.296  14.250  -6.005 -0.16 +0.01    +0.115    26.184
ATOM     32  C   UNL d   1      -4.375  15.501  -6.853 -0.11 +0.01    +0.139    26.184
ATOM     33  O   UNL d   1      -5.455  16.047  -7.020 +0.03 -0.02    -0.650    26.184
ATOM     34  O   UNL d   1      -3.274  16.069  -7.399 -0.48 -0.12    -0.776    26.184
ATOM     35  H   UNL d   1      -3.297  16.770  -8.065 +0.02 +0.01    +0.167    26.184
ATOM     36  C   UNL d   1      -4.073  10.851 -12.199 -0.32 -0.04    +0.190    26.184
ATOM     37  O   UNL d   1      -3.271  10.127 -13.088 -0.22 +0.15    -0.399    26.184
ATOM     38  H   UNL d   1      -2.676  10.809 -13.509 -0.42 -0.15    +0.209    26.184
ATOM     39  C   UNL d   1      -1.467  16.056 -10.742 -0.24 -0.01    +0.052    26.184
ATOM     40  C   UNL d   1      -2.145  17.210  -9.984 -0.11 -0.00    +0.115    26.184
ATOM     41  C   UNL d   1      -3.549  17.527 -10.453 -0.03 -0.00    +0.139    26.184
ATOM     42  O   UNL d   1      -3.715  17.992 -11.572 +0.03 -0.01    -0.650    26.184
ATOM     43  O   UNL d   1      -4.633  17.230  -9.703 +0.04 -0.00    -0.776    26.184
ATOM     44  H   UNL d   1      -4.582  16.673  -8.915 +0.02 +0.00    +0.167    26.184
ATOM     45  C   UNL d   1      -9.589   8.737 -13.303 -0.18 -0.00    +0.004    26.184
ATOM     46  C   UNL d   1      -9.410   7.724 -14.147 -0.26 -0.00    +0.012    26.184
ATOM     47  C   UNL d   1      -4.690  13.263 -17.375 -0.26 +0.00    +0.004    26.184
ATOM     48  C   UNL d   1      -4.591  12.586 -18.522 -0.29 +0.00    +0.012    26.184
TER
ENDMDL
MODEL       33
USER    Run = 33
USER    Cluster Rank = 30
USER    Number of conformations in this cluster = 2
USER  
USER    RMSD from reference structure       = 51.729 A
USER  
USER    Estimated Free Energy of Binding    =   -4.02 kcal/mol  [=(1)+(2)+(3)-(4)]
USER    Estimated Inhibition Constant, Ki   =    1.12 mM (millimolar)  [Temperature = 298.15 K]
USER    
USER    (1) Final Intermolecular Energy     =   -7.60 kcal/mol
USER        vdW + Hbond + desolv Energy     =   -3.45 kcal/mol
USER        Electrostatic Energy            =   -4.15 kcal/mol
USER    (2) Final Total Internal Energy     =   -3.57 kcal/mol
USER    (3) Torsional Free Energy           =   +3.58 kcal/mol
USER    (4) Unbound System's Energy  [=(2)] =   -3.57 kcal/mol
USER    
USER    
USER  
USER    DPF = D:/Protein_go_brrr/autodock/final/mut_N102T/heme_Co/dock.dpf
USER    NEWDPF move	heme_Co_opt.pdbqt
USER    NEWDPF about	8.781000 34.984000 -0.736000
USER    NEWDPF tran0	-8.825987 -16.648305 -3.971970
USER    NEWDPF axisangle0	-0.672592 -0.566745 -0.475837 -146.314672
USER    NEWDPF quaternion0	-0.643740 -0.542434 -0.455425 -0.289745
USER    NEWDPF dihe0	-57.08 114.87 -64.02 -71.91 -31.33 104.99 54.53 -29.98 148.27 -152.77 -151.59 157.62 
USER  
USER                              x       y       z    vdW   Elec        q     RMS 
ATOM      1  C   UNL d   1      -8.571 -18.348  -5.300 +0.00 +0.03    +0.064    51.729
ATOM      2  C   UNL d   1     -10.118 -13.914  -6.046 -0.01 +0.02    +0.064    51.729
ATOM      3  C   UNL d   1      -9.861 -12.995  -1.364 -0.09 +0.01    +0.064    51.729
ATOM      4  C   UNL d   1      -7.913 -17.391  -0.623 -0.09 +0.05    +0.064    51.729
ATOM      5  C   UNL d   1      -9.047 -17.215  -5.843 +0.00 +0.03    +0.066    51.729
ATOM      6  C   UNL d   1      -9.200 -17.061  -7.235 -0.01 -0.01    -0.021    51.729
ATOM      7  C   UNL d   1      -9.627 -15.765  -7.447 -0.01 -0.01    -0.025    51.729
ATOM      8  C   UNL d   1      -9.733 -15.190  -6.177 +0.00 +0.02    +0.066    51.729
ATOM      9  C   UNL d   1      -9.928 -15.080  -8.789 -0.04 +0.01    +0.051    51.729
ATOM     10  C   UNL d   1     -10.281 -13.245  -4.779 -0.02 +0.02    +0.066    51.729
ATOM     11  C   UNL d   1     -10.816 -11.955  -4.569 -0.04 -0.00    -0.021    51.729
ATOM     12  C   UNL d   1     -10.732 -11.715  -3.194 -0.08 +0.00    +0.000    51.729
ATOM     13  C   UNL d   1     -10.166 -12.877  -2.669 -0.06 +0.01    +0.070    51.729
ATOM     14  C   UNL d   1     -11.446 -11.070  -5.612 -0.02 +0.01    +0.052    51.729
ATOM     15  C   UNL d   1      -9.229 -14.097  -0.664 -0.07 +0.01    +0.066    51.729
ATOM     16  C   UNL d   1      -8.808 -14.098   0.658 -0.15 -0.00    -0.021    51.729
ATOM     17  C   UNL d   1      -8.244 -15.363   0.876 -0.17 +0.00    +0.000    51.729
ATOM     18  C   UNL d   1      -8.380 -16.041  -0.330 -0.08 +0.03    +0.070    51.729
ATOM     19  C   UNL d   1      -8.952 -12.944   1.625 -0.22 -0.00    +0.052    51.729
ATOM     20  C   UNL d   1      -7.957 -18.039  -1.811 -0.05 +0.06    +0.066    51.729
ATOM     21  C   UNL d   1      -7.442 -19.323  -1.977 -0.02 -0.03    -0.025    51.729
ATOM     22  C   UNL d   1      -7.644 -19.636  -3.309 -0.04 -0.02    -0.021    51.729
ATOM     23  C   UNL d   1      -8.266 -18.514  -3.897 -0.02 +0.04    +0.066    51.729
ATOM     24  C   UNL d   1      -6.772 -20.201  -0.924 -0.10 +0.05    +0.051    51.729
ATOM     25  N   UNL d   1      -9.385 -16.067  -5.164 +0.01 -0.11    -0.248    51.729
ATOM     26  N   UNL d   1      -9.946 -13.822  -3.621 -0.01 -0.06    -0.248    51.729
ATOM     27  N   UNL d   1      -8.943 -15.246  -1.233 -0.01 -0.09    -0.248    51.729
ATOM     28  N   UNL d   1      -8.455 -17.544  -2.994 -0.02 -0.18    -0.248    51.729
ATOM     29 FE   UNL d   1      -9.150 -15.636  -3.081 -0.01 +0.00    +0.000    51.729
ATOM     30  C   UNL d   1      -8.867 -18.094  -8.307 -0.03 +0.02    +0.052    51.729
ATOM     31  C   UNL d   1      -7.359 -18.332  -8.373 -0.07 +0.06    +0.115    51.729
ATOM     32  C   UNL d   1      -6.563 -17.082  -8.067 -0.11 +0.18    +0.139    51.729
ATOM     33  O   UNL d   1      -6.485 -16.199  -8.908 -0.50 -0.93    -0.650    51.729
ATOM     34  O   UNL d   1      -5.968 -16.885  -6.868 +0.01 -1.58    -0.776    51.729
ATOM     35  H   UNL d   1      -6.444 -16.834  -6.027 +0.03 +0.25    +0.167    51.729
ATOM     36  C   UNL d   1      -7.233 -14.934  -3.558 -0.10 +0.16    +0.190    51.729
ATOM     37  O   UNL d   1      -6.061 -15.273  -4.242 -0.07 -0.56    -0.399    51.729
ATOM     38  H   UNL d   1      -6.250 -16.164  -4.648 +0.04 +0.31    +0.209    51.729
ATOM     39  C   UNL d   1      -7.201 -20.919  -3.988 -0.02 +0.03    +0.052    51.729
ATOM     40  C   UNL d   1      -5.911 -20.691  -4.792 -0.03 +0.08    +0.115    51.729
ATOM     41  C   UNL d   1      -5.103 -19.489  -4.349 +0.02 +0.20    +0.139    51.729
ATOM     42  O   UNL d   1      -4.048 -19.663  -3.755 -0.34 -1.25    -0.650    51.729
ATOM     43  O   UNL d   1      -5.472 -18.229  -4.668 +0.01 -1.25    -0.776    51.729
ATOM     44  H   UNL d   1      -5.589 -17.937  -5.582 +0.03 +0.23    +0.167    51.729
ATOM     45  C   UNL d   1     -11.137 -10.535  -2.320 -0.10 +0.00    +0.004    51.729
ATOM     46  C   UNL d   1     -10.520  -9.380  -2.085 -0.12 +0.00    +0.012    51.729
ATOM     47  C   UNL d   1      -7.572 -15.911   2.092 -0.30 +0.00    +0.004    51.729
ATOM     48  C   UNL d   1      -6.561 -15.300   2.715 -0.36 +0.00    +0.012    51.729
TER
ENDMDL
MODEL        6
USER    Run = 6
USER    Cluster Rank = 31
USER    Number of conformations in this cluster = 1
USER  
USER    RMSD from reference structure       = 36.440 A
USER  
USER    Estimated Free Energy of Binding    =   -3.99 kcal/mol  [=(1)+(2)+(3)-(4)]
USER    Estimated Inhibition Constant, Ki   =    1.19 mM (millimolar)  [Temperature = 298.15 K]
USER    
USER    (1) Final Intermolecular Energy     =   -7.57 kcal/mol
USER        vdW + Hbond + desolv Energy     =   -5.30 kcal/mol
USER        Electrostatic Energy            =   -2.27 kcal/mol
USER    (2) Final Total Internal Energy     =   -1.73 kcal/mol
USER    (3) Torsional Free Energy           =   +3.58 kcal/mol
USER    (4) Unbound System's Energy  [=(2)] =   -1.73 kcal/mol
USER    
USER    
USER  
USER    DPF = D:/Protein_go_brrr/autodock/final/mut_N102T/heme_Co/dock.dpf
USER    NEWDPF move	heme_Co_opt.pdbqt
USER    NEWDPF about	8.781000 34.984000 -0.736000
USER    NEWDPF tran0	15.515224 -3.306630 3.575826
USER    NEWDPF axisangle0	-0.708040 0.404862 0.578590 172.712499
USER    NEWDPF quaternion0	-0.706608 0.404044 0.577420 0.063553
USER    NEWDPF dihe0	72.04 57.03 -61.09 -6.43 -87.94 -110.02 -152.28 -28.83 -45.68 138.38 161.04 180.00 
USER  
USER                              x       y       z    vdW   Elec        q     RMS 
ATOM      1  C   UNL d   1      15.991  -2.712   5.609 -0.07 +0.02    +0.064    36.440
ATOM      2  C   UNL d   1      14.084  -0.346   1.952 -0.35 +0.01    +0.064    36.440
ATOM      3  C   UNL d   1      14.763  -4.123  -0.894 -0.09 -0.02    +0.064    36.440
ATOM      4  C   UNL d   1      16.359  -6.691   2.916 -0.00 -0.00    +0.064    36.440
ATOM      5  C   UNL d   1      15.453  -1.776   4.810 -0.11 +0.02    +0.066    36.440
ATOM      6  C   UNL d   1      15.038  -0.523   5.302 -0.18 -0.01    -0.021    36.440
ATOM      7  C   UNL d   1      14.464   0.151   4.242 -0.30 -0.01    -0.025    36.440
ATOM      8  C   UNL d   1      14.569  -0.712   3.145 -0.25 +0.01    +0.066    36.440
ATOM      9  C   UNL d   1      13.836   1.553   4.245 -0.37 +0.01    +0.051    36.440
ATOM     10  C   UNL d   1      14.170  -1.156   0.763 -0.27 +0.00    +0.066    36.440
ATOM     11  C   UNL d   1      13.807  -0.772  -0.547 -0.30 +0.00    -0.021    36.440
ATOM     12  C   UNL d   1      14.019  -1.891  -1.357 -0.15 -0.00    +0.000    36.440
ATOM     13  C   UNL d   1      14.506  -2.867  -0.487 -0.11 -0.01    +0.070    36.440
ATOM     14  C   UNL d   1      13.380   0.604  -0.987 -0.34 -0.00    +0.052    36.440
ATOM     15  C   UNL d   1      15.218  -5.264  -0.125 -0.04 -0.02    +0.066    36.440
ATOM     16  C   UNL d   1      15.326  -6.571  -0.577 -0.05 +0.01    -0.021    36.440
ATOM     17  C   UNL d   1      15.784  -7.317   0.519 -0.02 -0.00    +0.000    36.440
ATOM     18  C   UNL d   1      15.936  -6.398   1.553 -0.01 -0.01    +0.070    36.440
ATOM     19  C   UNL d   1      15.001  -7.045  -1.976 -0.09 -0.04    +0.052    36.440
ATOM     20  C   UNL d   1      16.432  -5.831   3.960 -0.01 +0.01    +0.066    36.440
ATOM     21  C   UNL d   1      16.819  -6.239   5.234 -0.01 -0.00    -0.025    36.440
ATOM     22  C   UNL d   1      16.751  -5.107   6.025 -0.02 -0.00    -0.021    36.440
ATOM     23  C   UNL d   1      16.310  -4.058   5.190 -0.03 +0.01    +0.066    36.440
ATOM     24  C   UNL d   1      17.216  -7.643   5.682 -0.00 +0.00    +0.051    36.440
ATOM     25  N   UNL d   1      15.183  -1.911   3.468 -0.08 -0.05    -0.248    36.440
ATOM     26  N   UNL d   1      14.650  -2.404   0.783 -0.07 +0.00    -0.248    36.440
ATOM     27  N   UNL d   1      15.561  -5.191   1.142 -0.01 +0.03    -0.248    36.440
ATOM     28  N   UNL d   1      16.113  -4.493   3.940 -0.01 -0.03    -0.248    36.440
ATOM     29 FE   UNL d   1      15.385  -3.650   2.239 -0.02 +0.00    +0.000    36.440
ATOM     30  C   UNL d   1      15.119  -0.040   6.746 -0.15 +0.01    +0.052    36.440
ATOM     31  C   UNL d   1      13.718   0.167   7.323 -0.25 +0.04    +0.115    36.440
ATOM     32  C   UNL d   1      13.558  -0.463   8.690 -0.15 +0.07    +0.139    36.440
ATOM     33  O   UNL d   1      14.016   0.104   9.671 +0.04 -0.23    -0.650    36.440
ATOM     34  O   UNL d   1      12.878  -1.619   8.872 -0.16 -0.87    -0.776    36.440
ATOM     35  H   UNL d   1      13.173  -2.481   8.547 +0.02 +0.30    +0.167    36.440
ATOM     36  C   UNL d   1      13.428  -4.140   2.806 -0.16 +0.02    +0.190    36.440
ATOM     37  O   UNL d   1      12.092  -4.033   2.405 -0.18 -0.00    -0.399    36.440
ATOM     38  H   UNL d   1      11.939  -3.055   2.280 -0.23 -0.00    +0.209    36.440
ATOM     39  C   UNL d   1      17.031  -5.056   7.516 -0.01 +0.01    +0.052    36.440
ATOM     40  C   UNL d   1      15.829  -5.589   8.313 -0.03 +0.05    +0.115    36.440
ATOM     41  C   UNL d   1      14.492  -5.027   7.877 -0.07 +0.13    +0.139    36.440
ATOM     42  O   UNL d   1      13.700  -5.753   7.293 +0.11 -0.79    -0.650    36.440
ATOM     43  O   UNL d   1      14.114  -3.769   8.194 -0.16 -1.16    -0.776    36.440
ATOM     44  H   UNL d   1      14.098  -3.445   9.104 +0.00 +0.22    +0.167    36.440
ATOM     45  C   UNL d   1      13.836  -2.143  -2.848 -0.22 -0.00    +0.004    36.440
ATOM     46  C   UNL d   1      13.176  -1.447  -3.769 -0.32 -0.00    +0.012    36.440
ATOM     47  C   UNL d   1      16.022  -8.786   0.641 -0.01 -0.00    +0.004    36.440
ATOM     48  C   UNL d   1      15.257  -9.598   1.374 -0.01 -0.00    +0.012    36.440
TER
ENDMDL
MODEL       32
USER    Run = 32
USER    Cluster Rank = 32
USER    Number of conformations in this cluster = 1
USER  
USER    RMSD from reference structure       = 32.398 A
USER  
USER    Estimated Free Energy of Binding    =   -3.98 kcal/mol  [=(1)+(2)+(3)-(4)]
USER    Estimated Inhibition Constant, Ki   =    1.20 mM (millimolar)  [Temperature = 298.15 K]
USER    
USER    (1) Final Intermolecular Energy     =   -7.56 kcal/mol
USER        vdW + Hbond + desolv Energy     =   -5.68 kcal/mol
USER        Electrostatic Energy            =   -1.88 kcal/mol
USER    (2) Final Total Internal Energy     =   -2.15 kcal/mol
USER    (3) Torsional Free Energy           =   +3.58 kcal/mol
USER    (4) Unbound System's Energy  [=(2)] =   -2.15 kcal/mol
USER    
USER    
USER  
USER    DPF = D:/Protein_go_brrr/autodock/final/mut_N102T/heme_Co/dock.dpf
USER    NEWDPF move	heme_Co_opt.pdbqt
USER    NEWDPF about	8.781000 34.984000 -0.736000
USER    NEWDPF tran0	12.767222 2.865455 14.184329
USER    NEWDPF axisangle0	-0.884237 -0.299791 -0.358120 166.616426
USER    NEWDPF quaternion0	-0.878213 -0.297748 -0.355680 0.116528
USER    NEWDPF dihe0	16.47 109.62 -173.85 116.54 137.44 99.02 163.98 -51.57 30.74 116.73 -150.58 167.98 
USER  
USER                              x       y       z    vdW   Elec        q     RMS 
ATOM      1  C   UNL d   1      11.294   1.290  13.929 -0.18 +0.02    +0.064    32.398
ATOM      2  C   UNL d   1      13.434   4.196  10.832 -0.32 +0.02    +0.064    32.398
ATOM      3  C   UNL d   1      15.568   6.514  14.424 -0.10 +0.02    +0.064    32.398
ATOM      4  C   UNL d   1      13.700   3.318  17.580 -0.09 +0.05    +0.064    32.398
ATOM      5  C   UNL d   1      11.694   1.937  12.822 -0.22 +0.02    +0.066    32.398
ATOM      6  C   UNL d   1      11.330   1.504  11.532 -0.28 -0.01    -0.021    32.398
ATOM      7  C   UNL d   1      11.972   2.337  10.636 -0.36 -0.01    -0.025    32.398
ATOM      8  C   UNL d   1      12.686   3.251  11.418 -0.28 +0.02    +0.066    32.398
ATOM      9  C   UNL d   1      11.925   2.285   9.101 -0.24 +0.01    +0.051    32.398
ATOM     10  C   UNL d   1      14.181   5.195  11.553 -0.23 +0.02    +0.066    32.398
ATOM     11  C   UNL d   1      14.871   6.296  10.999 -0.27 -0.00    -0.021    32.398
ATOM     12  C   UNL d   1      15.480   6.957  12.069 -0.19 +0.00    +0.000    32.398
ATOM     13  C   UNL d   1      15.109   6.221  13.194 -0.14 +0.02    +0.070    32.398
ATOM     14  C   UNL d   1      14.854   6.723   9.554 -0.22 +0.01    +0.052    32.398
ATOM     15  C   UNL d   1      15.330   5.832  15.681 -0.06 +0.04    +0.066    32.398
ATOM     16  C   UNL d   1      15.952   6.100  16.893 -0.05 -0.01    -0.021    32.398
ATOM     17  C   UNL d   1      15.418   5.179  17.805 -0.06 +0.00    +0.000    32.398
ATOM     18  C   UNL d   1      14.497   4.431  17.080 -0.06 +0.06    +0.070    32.398
ATOM     19  C   UNL d   1      16.988   7.176  17.128 -0.02 +0.01    +0.052    32.398
ATOM     20  C   UNL d   1      12.864   2.520  16.873 -0.13 +0.05    +0.066    32.398
ATOM     21  C   UNL d   1      12.179   1.457  17.458 -0.12 -0.01    -0.025    32.398
ATOM     22  C   UNL d   1      11.455   0.872  16.436 -0.14 -0.01    -0.021    32.398
ATOM     23  C   UNL d   1      11.745   1.605  15.266 -0.18 +0.03    +0.066    32.398
ATOM     24  C   UNL d   1      12.228   1.008  18.916 -0.06 +0.02    +0.051    32.398
ATOM     25  N   UNL d   1      12.527   3.031  12.775 -0.15 -0.10    -0.248    32.398
ATOM     26  N   UNL d   1      14.278   5.189  12.887 -0.07 -0.10    -0.248    32.398
ATOM     27  N   UNL d   1      14.494   4.827  15.812 +0.00 -0.20    -0.248    32.398
ATOM     28  N   UNL d   1      12.599   2.602  15.526 -0.12 -0.16    -0.248    32.398
ATOM     29 FE   UNL d   1      13.567   3.980  14.386 -0.05 +0.00    +0.000    32.398
ATOM     30  C   UNL d   1      10.470   0.292  11.188 -0.24 +0.02    +0.052    32.398
ATOM     31  C   UNL d   1      11.185  -1.002  11.576 -0.13 +0.06    +0.115    32.398
ATOM     32  C   UNL d   1      10.784  -2.168  10.698 -0.15 +0.14    +0.139    32.398
ATOM     33  O   UNL d   1      10.532  -1.974   9.518 -0.38 -0.97    -0.650    32.398
ATOM     34  O   UNL d   1      10.742  -3.437  11.166 -0.05 -0.83    -0.776    32.398
ATOM     35  H   UNL d   1      10.790  -3.673  12.103 +0.03 +0.10    +0.167    32.398
ATOM     36  C   UNL d   1      15.126   2.625  14.030 -0.04 +0.05    +0.190    32.398
ATOM     37  O   UNL d   1      15.416   1.260  13.937 +0.00 -0.08    -0.399    32.398
ATOM     38  H   UNL d   1      14.561   0.800  14.165 +0.02 +0.05    +0.209    32.398
ATOM     39  C   UNL d   1      10.585  -0.364  16.570 -0.10 +0.02    +0.052    32.398
ATOM     40  C   UNL d   1      11.400  -1.635  16.282 -0.02 +0.02    +0.115    32.398
ATOM     41  C   UNL d   1      11.826  -1.791  14.838 -0.01 +0.03    +0.139    32.398
ATOM     42  O   UNL d   1      12.865  -1.267  14.460 +0.02 -0.15    -0.650    32.398
ATOM     43  O   UNL d   1      11.135  -2.566  13.973 +0.04 -0.21    -0.776    32.398
ATOM     44  H   UNL d   1      11.484  -2.817  13.107 +0.02 +0.06    +0.167    32.398
ATOM     45  C   UNL d   1      16.351   8.204  12.159 -0.14 +0.00    +0.004    32.398
ATOM     46  C   UNL d   1      16.080   9.416  12.634 -0.14 +0.00    +0.012    32.398
ATOM     47  C   UNL d   1      15.758   4.954  19.242 -0.02 +0.00    +0.004    32.398
ATOM     48  C   UNL d   1      14.898   5.156  20.243 -0.02 +0.00    +0.012    32.398
TER
ENDMDL
MODEL       67
USER    Run = 67
USER    Cluster Rank = 33
USER    Number of conformations in this cluster = 2
USER  
USER    RMSD from reference structure       = 16.806 A
USER  
USER    Estimated Free Energy of Binding    =   -3.98 kcal/mol  [=(1)+(2)+(3)-(4)]
USER    Estimated Inhibition Constant, Ki   =    1.22 mM (millimolar)  [Temperature = 298.15 K]
USER    
USER    (1) Final Intermolecular Energy     =   -7.56 kcal/mol
USER        vdW + Hbond + desolv Energy     =   -4.81 kcal/mol
USER        Electrostatic Energy            =   -2.75 kcal/mol
USER    (2) Final Total Internal Energy     =   -2.29 kcal/mol
USER    (3) Torsional Free Energy           =   +3.58 kcal/mol
USER    (4) Unbound System's Energy  [=(2)] =   -2.29 kcal/mol
USER    
USER    
USER  
USER    DPF = D:/Protein_go_brrr/autodock/final/mut_N102T/heme_Co/dock.dpf
USER    NEWDPF move	heme_Co_opt.pdbqt
USER    NEWDPF about	8.781000 34.984000 -0.736000
USER    NEWDPF tran0	9.503073 16.811293 3.419283
USER    NEWDPF axisangle0	-0.135003 -0.987893 -0.076434 -159.817309
USER    NEWDPF quaternion0	-0.132914 -0.972610 -0.075252 -0.175218
USER    NEWDPF dihe0	159.37 116.10 -47.09 -35.79 -99.40 153.12 -149.54 161.88 123.99 178.47 4.98 0.50 
USER  
USER                              x       y       z    vdW   Elec        q     RMS 
ATOM      1  C   UNL d   1      11.666  16.674   3.559 -0.05 +0.05    +0.064    16.806
ATOM      2  C   UNL d   1       8.572  15.151   0.285 -0.09 -0.01    +0.064    16.806
ATOM      3  C   UNL d   1       4.921  16.576   3.017 -0.14 -0.00    +0.064    16.806
ATOM      4  C   UNL d   1       8.065  18.487   6.199 -0.12 +0.01    +0.064    16.806
ATOM      5  C   UNL d   1      11.088  16.120   2.480 -0.05 +0.05    +0.066    16.806
ATOM      6  C   UNL d   1      11.843  15.638   1.393 -0.05 -0.01    -0.021    16.806
ATOM      7  C   UNL d   1      10.940  15.218   0.436 -0.05 -0.00    -0.025    16.806
ATOM      8  C   UNL d   1       9.674  15.447   0.986 -0.06 +0.01    +0.066    16.806
ATOM      9  C   UNL d   1      11.241  14.624  -0.948 -0.11 -0.01    +0.051    16.806
ATOM     10  C   UNL d   1       7.229  15.326   0.778 -0.08 -0.01    +0.066    16.806
ATOM     11  C   UNL d   1       6.037  14.906   0.149 -0.16 +0.01    -0.021    16.806
ATOM     12  C   UNL d   1       4.988  15.331   0.969 -0.16 -0.00    +0.000    16.806
ATOM     13  C   UNL d   1       5.616  15.966   2.041 -0.12 -0.00    +0.070    16.806
ATOM     14  C   UNL d   1       5.935  14.072  -1.102 -0.29 -0.04    +0.052    16.806
ATOM     15  C   UNL d   1       5.404  17.320   4.164 -0.16 -0.00    +0.066    16.806
ATOM     16  C   UNL d   1       4.632  18.050   5.056 -0.23 +0.01    -0.021    16.806
ATOM     17  C   UNL d   1       5.535  18.605   5.974 -0.26 -0.00    +0.000    16.806
ATOM     18  C   UNL d   1       6.789  18.154   5.578 -0.17 -0.00    +0.070    16.806
ATOM     19  C   UNL d   1       3.127  18.188   5.004 -0.26 -0.03    +0.052    16.806
ATOM     20  C   UNL d   1       9.303  18.131   5.781 -0.10 +0.02    +0.066    16.806
ATOM     21  C   UNL d   1      10.458  18.543   6.442 -0.06 -0.01    -0.025    16.806
ATOM     22  C   UNL d   1      11.511  18.012   5.720 -0.06 -0.01    -0.021    16.806
ATOM     23  C   UNL d   1      10.942  17.306   4.639 -0.05 +0.05    +0.066    16.806
ATOM     24  C   UNL d   1      10.556  19.418   7.689 -0.03 +0.00    +0.051    16.806
ATOM     25  N   UNL d   1       9.736  15.999   2.254 -0.06 -0.13    -0.248    16.806
ATOM     26  N   UNL d   1       6.972  15.913   1.952 -0.05 -0.01    -0.248    16.806
ATOM     27  N   UNL d   1       6.676  17.416   4.479 -0.11 -0.02    -0.248    16.806
ATOM     28  N   UNL d   1       9.606  17.378   4.671 -0.08 -0.18    -0.248    16.806
ATOM     29 FE   UNL d   1       8.118  16.751   3.435 -0.02 +0.00    +0.000    16.806
ATOM     30  C   UNL d   1      13.362  15.662   1.258 -0.02 +0.01    +0.052    16.806
ATOM     31  C   UNL d   1      13.973  14.392   1.848 -0.03 +0.03    +0.115    16.806
ATOM     32  C   UNL d   1      13.610  14.199   3.305 -0.06 +0.10    +0.139    16.806
ATOM     33  O   UNL d   1      12.523  13.722   3.595 -0.36 -1.12    -0.650    16.806
ATOM     34  O   UNL d   1      14.473  14.494   4.305 +0.01 -0.38    -0.776    16.806
ATOM     35  H   UNL d   1      14.205  14.717   5.207 +0.02 +0.11    +0.167    16.806
ATOM     36  C   UNL d   1       8.270  18.517   2.317 -0.01 +0.01    +0.190    16.806
ATOM     37  O   UNL d   1       9.004  19.130   1.296 +0.01 +0.01    -0.399    16.806
ATOM     38  H   UNL d   1       9.657  18.437   0.998 +0.01 +0.00    +0.209    16.806
ATOM     39  C   UNL d   1      12.982  18.228   6.021 -0.02 +0.01    +0.052    16.806
ATOM     40  C   UNL d   1      13.579  16.999   6.725 -0.04 +0.04    +0.115    16.806
ATOM     41  C   UNL d   1      12.563  15.944   7.109 -0.12 +0.11    +0.139    16.806
ATOM     42  O   UNL d   1      11.655  16.239   7.873 -0.09 -0.37    -0.650    16.806
ATOM     43  O   UNL d   1      12.581  14.708   6.563 -0.07 -1.37    -0.776    16.806
ATOM     44  H   UNL d   1      12.760  14.557   5.626 +0.04 +0.35    +0.167    16.806
ATOM     45  C   UNL d   1       3.475  15.195   0.873 -0.18 -0.00    +0.004    16.806
ATOM     46  C   UNL d   1       2.654  15.364  -0.160 -0.29 -0.00    +0.012    16.806
ATOM     47  C   UNL d   1       5.283  19.533   7.117 -0.20 -0.00    +0.004    16.806
ATOM     48  C   UNL d   1       5.845  20.739   7.225 -0.15 -0.01    +0.012    16.806
TER
ENDMDL
MODEL       75
USER    Run = 75
USER    Cluster Rank = 34
USER    Number of conformations in this cluster = 1
USER  
USER    RMSD from reference structure       = 33.971 A
USER  
USER    Estimated Free Energy of Binding    =   -3.93 kcal/mol  [=(1)+(2)+(3)-(4)]
USER    Estimated Inhibition Constant, Ki   =    1.32 mM (millimolar)  [Temperature = 298.15 K]
USER    
USER    (1) Final Intermolecular Energy     =   -7.51 kcal/mol
USER        vdW + Hbond + desolv Energy     =   -5.60 kcal/mol
USER        Electrostatic Energy            =   -1.91 kcal/mol
USER    (2) Final Total Internal Energy     =   -2.49 kcal/mol
USER    (3) Torsional Free Energy           =   +3.58 kcal/mol
USER    (4) Unbound System's Energy  [=(2)] =   -2.49 kcal/mol
USER    
USER    
USER  
USER    DPF = D:/Protein_go_brrr/autodock/final/mut_N102T/heme_Co/dock.dpf
USER    NEWDPF move	heme_Co_opt.pdbqt
USER    NEWDPF about	8.781000 34.984000 -0.736000
USER    NEWDPF tran0	12.115830 1.438603 16.600823
USER    NEWDPF axisangle0	-0.622952 -0.561697 0.544451 136.232253
USER    NEWDPF quaternion0	-0.578063 -0.521222 0.505218 0.372727
USER    NEWDPF dihe0	176.57 105.70 0.04 76.73 127.20 159.72 -144.14 155.23 125.20 151.93 5.77 18.20 
USER  
USER                              x       y       z    vdW   Elec        q     RMS 
ATOM      1  C   UNL d   1      12.875   1.726  18.615 -0.05 +0.02    +0.064    33.971
ATOM      2  C   UNL d   1       9.472  -1.090  16.855 -0.08 +0.02    +0.064    33.971
ATOM      3  C   UNL d   1      10.015   0.888  12.539 -0.07 +0.02    +0.064    33.971
ATOM      4  C   UNL d   1      13.756   3.502  14.223 -0.13 +0.03    +0.064    33.971
ATOM      5  C   UNL d   1      11.880   0.837  18.459 -0.07 +0.02    +0.066    33.971
ATOM      6  C   UNL d   1      11.467  -0.013  19.504 -0.04 -0.00    -0.021    33.971
ATOM      7  C   UNL d   1      10.495  -0.843  18.982 -0.05 -0.00    -0.025    33.971
ATOM      8  C   UNL d   1      10.346  -0.455  17.646 -0.06 +0.02    +0.066    33.971
ATOM      9  C   UNL d   1       9.728  -1.965  19.699 -0.03 +0.00    +0.051    33.971
ATOM     10  C   UNL d   1       9.231  -0.744  15.476 +0.00 +0.02    +0.066    33.971
ATOM     11  C   UNL d   1       8.231  -1.278  14.634 -0.16 -0.00    -0.021    33.971
ATOM     12  C   UNL d   1       8.410  -0.681  13.383 -0.23 +0.00    +0.000    33.971
ATOM     13  C   UNL d   1       9.494   0.180  13.557 -0.14 +0.02    +0.070    33.971
ATOM     14  C   UNL d   1       7.130  -2.221  15.045 -0.16 +0.00    +0.052    33.971
ATOM     15  C   UNL d   1      11.158   1.779  12.529 -0.24 +0.02    +0.066    33.971
ATOM     16  C   UNL d   1      11.733   2.367  11.411 -0.34 -0.01    -0.021    33.971
ATOM     17  C   UNL d   1      12.814   3.120  11.891 -0.26 +0.00    +0.000    33.971
ATOM     18  C   UNL d   1      12.803   2.945  13.271 -0.18 +0.03    +0.070    33.971
ATOM     19  C   UNL d   1      11.254   2.197   9.987 -0.49 +0.01    +0.052    33.971
ATOM     20  C   UNL d   1      13.817   3.276  15.557 -0.10 +0.04    +0.066    33.971
ATOM     21  C   UNL d   1      14.803   3.840  16.362 -0.08 -0.01    -0.025    33.971
ATOM     22  C   UNL d   1      14.557   3.369  17.639 -0.07 -0.01    -0.021    33.971
ATOM     23  C   UNL d   1      13.431   2.524  17.546 -0.09 +0.04    +0.066    33.971
ATOM     24  C   UNL d   1      15.938   4.768  15.934 -0.06 +0.02    +0.051    33.971
ATOM     25  N   UNL d   1      11.187   0.588  17.297 -0.08 -0.09    -0.248    33.971
ATOM     26  N   UNL d   1       9.953   0.182  14.837 -0.11 -0.08    -0.248    33.971
ATOM     27  N   UNL d   1      11.822   2.116  13.612 -0.14 -0.10    -0.248    33.971
ATOM     28  N   UNL d   1      12.981   2.463  16.287 -0.09 -0.16    -0.248    33.971
ATOM     29 FE   UNL d   1      11.526   1.400  15.347 -0.03 +0.00    +0.000    33.971
ATOM     30  C   UNL d   1      12.046  -0.069  20.914 -0.01 +0.01    +0.052    33.971
ATOM     31  C   UNL d   1      11.303   0.895  21.839 -0.01 +0.01    +0.115    33.971
ATOM     32  C   UNL d   1      11.326   2.320  21.327 -0.04 +0.03    +0.139    33.971
ATOM     33  O   UNL d   1      10.473   2.687  20.532 -0.02 -0.23    -0.650    33.971
ATOM     34  O   UNL d   1      12.237   3.222  21.758 +0.03 -0.17    -0.776    33.971
ATOM     35  H   UNL d   1      12.349   4.105  21.380 +0.02 +0.05    +0.167    33.971
ATOM     36  C   UNL d   1      12.855  -0.191  15.038 -0.01 +0.05    +0.190    33.971
ATOM     37  O   UNL d   1      13.345  -1.363  15.623 +0.01 -0.07    -0.399    33.971
ATOM     38  H   UNL d   1      12.965  -1.368  16.546 +0.01 +0.04    +0.209    33.971
ATOM     39  C   UNL d   1      15.401   3.667  18.864 -0.02 +0.02    +0.052    33.971
ATOM     40  C   UNL d   1      14.565   4.382  19.939 -0.03 +0.05    +0.115    33.971
ATOM     41  C   UNL d   1      13.503   5.310  19.388 +0.03 +0.14    +0.139    33.971
ATOM     42  O   UNL d   1      13.843   6.317  18.784 -0.54 -0.78    -0.650    33.971
ATOM     43  O   UNL d   1      12.187   5.011  19.470 -0.10 -1.06    -0.776    33.971
ATOM     44  H   UNL d   1      11.858   4.245  19.958 +0.02 +0.13    +0.167    33.971
ATOM     45  C   UNL d   1       7.674  -0.809  12.057 -0.32 +0.00    +0.004    33.971
ATOM     46  C   UNL d   1       6.446  -0.433  11.708 -0.36 +0.00    +0.012    33.971
ATOM     47  C   UNL d   1      13.832   3.914  11.140 -0.27 +0.00    +0.004    33.971
ATOM     48  C   UNL d   1      13.838   5.248  11.091 -0.35 +0.00    +0.012    33.971
TER
ENDMDL
MODEL       12
USER    Run = 12
USER    Cluster Rank = 35
USER    Number of conformations in this cluster = 2
USER  
USER    RMSD from reference structure       = 26.690 A
USER  
USER    Estimated Free Energy of Binding    =   -3.89 kcal/mol  [=(1)+(2)+(3)-(4)]
USER    Estimated Inhibition Constant, Ki   =    1.40 mM (millimolar)  [Temperature = 298.15 K]
USER    
USER    (1) Final Intermolecular Energy     =   -7.47 kcal/mol
USER        vdW + Hbond + desolv Energy     =   -6.41 kcal/mol
USER        Electrostatic Energy            =   -1.06 kcal/mol
USER    (2) Final Total Internal Energy     =   -2.20 kcal/mol
USER    (3) Torsional Free Energy           =   +3.58 kcal/mol
USER    (4) Unbound System's Energy  [=(2)] =   -2.20 kcal/mol
USER    
USER    
USER  
USER    DPF = D:/Protein_go_brrr/autodock/final/mut_N102T/heme_Co/dock.dpf
USER    NEWDPF move	heme_Co_opt.pdbqt
USER    NEWDPF about	8.781000 34.984000 -0.736000
USER    NEWDPF tran0	-4.728353 14.104375 -15.008122
USER    NEWDPF axisangle0	-0.319393 0.934145 -0.159253 83.315646
USER    NEWDPF quaternion0	-0.212294 0.620908 -0.105853 0.747128
USER    NEWDPF dihe0	-169.80 116.08 32.96 -97.11 157.44 136.57 34.65 -180.00 180.00 23.82 -171.00 131.80 
USER  
USER                              x       y       z    vdW   Elec        q     RMS 
ATOM      1  C   UNL d   1      -4.588  15.133 -16.916 -0.13 +0.02    +0.064    26.690
ATOM      2  C   UNL d   1      -6.503  10.963 -15.667 -0.23 -0.00    +0.064    26.690
ATOM      3  C   UNL d   1      -4.840  11.489 -11.219 -0.13 -0.01    +0.064    26.690
ATOM      4  C   UNL d   1      -3.208  15.925 -12.367 -0.09 +0.00    +0.064    26.690
ATOM      5  C   UNL d   1      -5.202  13.938 -16.911 -0.16 +0.01    +0.066    26.690
ATOM      6  C   UNL d   1      -5.893  13.448 -18.036 -0.13 -0.00    -0.021    26.690
ATOM      7  C   UNL d   1      -6.466  12.249 -17.661 -0.12 -0.00    -0.025    26.690
ATOM      8  C   UNL d   1      -6.087  12.050 -16.329 -0.15 +0.00    +0.066    26.690
ATOM      9  C   UNL d   1      -7.339  11.314 -18.513 -0.13 +0.00    +0.051    26.690
ATOM     10  C   UNL d   1      -6.144  10.662 -14.304 -0.22 -0.01    +0.066    26.690
ATOM     11  C   UNL d   1      -6.431   9.473 -13.598 -0.31 +0.01    -0.021    26.690
ATOM     12  C   UNL d   1      -5.931   9.652 -12.306 -0.33 -0.00    +0.000    26.690
ATOM     13  C   UNL d   1      -5.367  10.927 -12.321 -0.24 -0.01    +0.070    26.690
ATOM     14  C   UNL d   1      -7.056   8.226 -14.169 -0.45 -0.01    +0.052    26.690
ATOM     15  C   UNL d   1      -4.265  12.808 -11.043 -0.21 -0.01    +0.066    26.690
ATOM     16  C   UNL d   1      -3.870  13.381  -9.843 -0.25 +0.00    -0.021    26.690
ATOM     17  C   UNL d   1      -3.401  14.662 -10.169 -0.23 -0.00    +0.000    26.690
ATOM     18  C   UNL d   1      -3.531  14.763 -11.550 -0.15 -0.00    +0.070    26.690
ATOM     19  C   UNL d   1      -3.952  12.718  -8.486 -0.31 -0.00    +0.052    26.690
ATOM     20  C   UNL d   1      -3.406  16.078 -13.698 -0.10 +0.01    +0.066    26.690
ATOM     21  C   UNL d   1      -3.087  17.258 -14.367 -0.08 -0.00    -0.025    26.690
ATOM     22  C   UNL d   1      -3.447  17.048 -15.686 -0.13 -0.01    -0.021    26.690
ATOM     23  C   UNL d   1      -3.984  15.745 -15.754 -0.16 +0.02    +0.066    26.690
ATOM     24  C   UNL d   1      -2.486  18.530 -13.776 -0.03 +0.01    +0.051    26.690
ATOM     25  N   UNL d   1      -5.299  13.079 -15.840 -0.11 -0.01    -0.248    26.690
ATOM     26  N   UNL d   1      -5.446  11.514 -13.545 -0.12 +0.03    -0.248    26.690
ATOM     27  N   UNL d   1      -4.077  13.652 -12.033 -0.13 +0.02    -0.248    26.690
ATOM     28  N   UNL d   1      -3.963  15.155 -14.553 -0.11 -0.03    -0.248    26.690
ATOM     29 FE   UNL d   1      -4.650  13.386 -13.825 -0.04 -0.00    +0.000    26.690
ATOM     30  C   UNL d   1      -6.055  14.150 -19.380 -0.10 +0.01    +0.052    26.690
ATOM     31  C   UNL d   1      -7.269  15.079 -19.358 -0.03 +0.02    +0.115    26.690
ATOM     32  C   UNL d   1      -8.011  15.027 -18.040 -0.02 +0.01    +0.139    26.690
ATOM     33  O   UNL d   1      -8.974  14.283 -17.922 +0.01 -0.04    -0.650    26.690
ATOM     34  O   UNL d   1      -7.615  15.745 -16.964 +0.02 -0.09    -0.776    26.690
ATOM     35  H   UNL d   1      -8.013  15.673 -16.085 +0.01 +0.01    +0.167    26.690
ATOM     36  C   UNL d   1      -6.532  14.237 -13.468 -0.02 +0.00    +0.190    26.690
ATOM     37  O   UNL d   1      -7.643  14.794 -14.109 +0.00 -0.01    -0.399    26.690
ATOM     38  H   UNL d   1      -7.445  14.711 -15.084 +0.02 +0.01    +0.209    26.690
ATOM     39  C   UNL d   1      -3.339  18.072 -16.800 +0.06 +0.03    +0.052    26.690
ATOM     40  C   UNL d   1      -4.688  18.233 -17.521 -0.06 +0.06    +0.115    26.690
ATOM     41  C   UNL d   1      -4.593  18.879 -18.887 +0.03 +0.12    +0.139    26.690
ATOM     42  O   UNL d   1      -3.851  19.838 -19.046 -0.24 -0.72    -0.650    26.690
ATOM     43  O   UNL d   1      -5.241  18.371 -19.959 -0.02 -0.57    -0.776    26.690
ATOM     44  H   UNL d   1      -6.134  18.007 -19.902 +0.01 +0.07    +0.167    26.690
ATOM     45  C   UNL d   1      -5.906   8.762 -11.070 -0.33 -0.00    +0.004    26.690
ATOM     46  C   UNL d   1      -6.619   8.817  -9.948 -0.32 -0.00    +0.012    26.690
ATOM     47  C   UNL d   1      -2.909  15.753  -9.276 -0.22 +0.00    +0.004    26.690
ATOM     48  C   UNL d   1      -1.818  16.479  -9.531 -0.22 -0.00    +0.012    26.690
TER
ENDMDL
MODEL       23
USER    Run = 23
USER    Cluster Rank = 36
USER    Number of conformations in this cluster = 1
USER  
USER    RMSD from reference structure       = 30.168 A
USER  
USER    Estimated Free Energy of Binding    =   -3.84 kcal/mol  [=(1)+(2)+(3)-(4)]
USER    Estimated Inhibition Constant, Ki   =    1.53 mM (millimolar)  [Temperature = 298.15 K]
USER    
USER    (1) Final Intermolecular Energy     =   -7.42 kcal/mol
USER        vdW + Hbond + desolv Energy     =   -5.33 kcal/mol
USER        Electrostatic Energy            =   -2.08 kcal/mol
USER    (2) Final Total Internal Energy     =   -1.95 kcal/mol
USER    (3) Torsional Free Energy           =   +3.58 kcal/mol
USER    (4) Unbound System's Energy  [=(2)] =   -1.95 kcal/mol
USER    
USER    
USER  
USER    DPF = D:/Protein_go_brrr/autodock/final/mut_N102T/heme_Co/dock.dpf
USER    NEWDPF move	heme_Co_opt.pdbqt
USER    NEWDPF about	8.781000 34.984000 -0.736000
USER    NEWDPF tran0	6.834484 9.331895 21.359689
USER    NEWDPF axisangle0	0.162189 -0.532142 -0.830975 -138.069145
USER    NEWDPF quaternion0	0.151452 -0.496912 -0.775962 -0.357805
USER    NEWDPF dihe0	5.98 118.26 -41.70 100.33 150.78 156.10 -156.70 172.69 -172.72 126.56 -5.71 28.34 
USER  
USER                              x       y       z    vdW   Elec        q     RMS 
ATOM      1  C   UNL d   1       8.889  10.009  21.174 -0.07 +0.01    +0.064    30.168
ATOM      2  C   UNL d   1       4.728  12.262  20.705 -0.21 -0.02    +0.064    30.168
ATOM      3  C   UNL d   1       2.387   8.136  21.281 -0.10 -0.02    +0.064    30.168
ATOM      4  C   UNL d   1       6.608   5.878  22.147 -0.15 -0.01    +0.064    30.168
ATOM      5  C   UNL d   1       7.925  10.922  20.968 -0.09 +0.00    +0.066    30.168
ATOM      6  C   UNL d   1       8.213  12.293  20.824 -0.12 +0.00    -0.021    30.168
ATOM      7  C   UNL d   1       7.000  12.945  20.711 -0.15 +0.00    -0.025    30.168
ATOM      8  C   UNL d   1       6.026  11.942  20.774 -0.15 -0.01    +0.066    30.168
ATOM      9  C   UNL d   1       6.752  14.452  20.550 -0.08 -0.02    +0.051    30.168
ATOM     10  C   UNL d   1       3.657  11.297  20.735 -0.20 -0.02    +0.066    30.168
ATOM     11  C   UNL d   1       2.284  11.554  20.527 -0.21 +0.01    -0.021    30.168
ATOM     12  C   UNL d   1       1.625  10.333  20.697 -0.13 -0.00    +0.000    30.168
ATOM     13  C   UNL d   1       2.643   9.422  20.983 -0.12 -0.02    +0.070    30.168
ATOM     14  C   UNL d   1       1.676  12.865  20.101 -0.27 -0.03    +0.052    30.168
ATOM     15  C   UNL d   1       3.307   7.077  21.650 -0.15 -0.02    +0.066    30.168
ATOM     16  C   UNL d   1       2.964   5.806  22.088 -0.18 +0.01    -0.021    30.168
ATOM     17  C   UNL d   1       4.178   5.152  22.342 -0.16 -0.00    +0.000    30.168
ATOM     18  C   UNL d   1       5.169   6.073  22.020 -0.12 -0.02    +0.070    30.168
ATOM     19  C   UNL d   1       1.554   5.282  22.245 -0.14 -0.03    +0.052    30.168
ATOM     20  C   UNL d   1       7.586   6.787  21.924 -0.14 +0.00    +0.066    30.168
ATOM     21  C   UNL d   1       8.934   6.492  22.115 -0.09 -0.00    -0.025    30.168
ATOM     22  C   UNL d   1       9.618   7.655  21.814 -0.07 -0.00    -0.021    30.168
ATOM     23  C   UNL d   1       8.645   8.615  21.463 -0.10 +0.01    +0.066    30.168
ATOM     24  C   UNL d   1       9.541   5.171  22.582 -0.06 +0.01    +0.051    30.168
ATOM     25  N   UNL d   1       6.571  10.679  20.927 -0.08 -0.00    -0.248    30.168
ATOM     26  N   UNL d   1       3.875   9.995  20.950 -0.12 +0.06    -0.248    30.168
ATOM     27  N   UNL d   1       4.613   7.219  21.641 -0.11 +0.06    -0.248    30.168
ATOM     28  N   UNL d   1       7.414   8.094  21.530 -0.10 -0.01    -0.248    30.168
ATOM     29 FE   UNL d   1       5.537   8.844  21.305 -0.04 -0.00    +0.000    30.168
ATOM     30  C   UNL d   1       9.591  12.944  20.877 -0.05 -0.00    +0.052    30.168
ATOM     31  C   UNL d   1      10.330  12.747  19.554 -0.05 +0.00    +0.115    30.168
ATOM     32  C   UNL d   1       9.466  12.083  18.504 -0.15 +0.02    +0.139    30.168
ATOM     33  O   UNL d   1       8.575  12.723  17.965 -0.57 -0.11    -0.650    30.168
ATOM     34  O   UNL d   1       9.677  10.808  18.103 -0.04 -0.21    -0.776    30.168
ATOM     35  H   UNL d   1      10.362  10.230  18.465 +0.05 +0.05    +0.167    30.168
ATOM     36  C   UNL d   1       5.498   9.414  23.323 -0.02 -0.02    +0.190    30.168
ATOM     37  O   UNL d   1       5.870  10.439  24.199 +0.00 +0.03    -0.399    30.168
ATOM     38  H   UNL d   1       6.229  11.160  23.611 +0.02 -0.02    +0.209    30.168
ATOM     39  C   UNL d   1      11.119   7.847  21.924 -0.03 +0.01    +0.052    30.168
ATOM     40  C   UNL d   1      11.686   8.446  20.626 -0.06 +0.04    +0.115    30.168
ATOM     41  C   UNL d   1      11.435   7.610  19.390 -0.06 +0.15    +0.139    30.168
ATOM     42  O   UNL d   1      11.696   6.415  19.412 +0.03 -1.06    -0.650    30.168
ATOM     43  O   UNL d   1      10.847   8.128  18.289 -0.09 -1.04    -0.776    30.168
ATOM     44  H   UNL d   1      10.150   8.795  18.337 +0.03 +0.12    +0.167    30.168
ATOM     45  C   UNL d   1       0.162   9.921  20.604 -0.09 -0.00    +0.004    30.168
ATOM     46  C   UNL d   1      -0.543   9.455  19.576 -0.14 -0.00    +0.012    30.168
ATOM     47  C   UNL d   1       4.429   3.786  22.892 -0.20 -0.00    +0.004    30.168
ATOM     48  C   UNL d   1       5.242   2.897  22.315 -0.22 -0.00    +0.012    30.168
TER
ENDMDL
MODEL       37
USER    Run = 37
USER    Cluster Rank = 37
USER    Number of conformations in this cluster = 1
USER  
USER    RMSD from reference structure       = 50.235 A
USER  
USER    Estimated Free Energy of Binding    =   -3.69 kcal/mol  [=(1)+(2)+(3)-(4)]
USER    Estimated Inhibition Constant, Ki   =    1.99 mM (millimolar)  [Temperature = 298.15 K]
USER    
USER    (1) Final Intermolecular Energy     =   -7.27 kcal/mol
USER        vdW + Hbond + desolv Energy     =   -4.35 kcal/mol
USER        Electrostatic Energy            =   -2.91 kcal/mol
USER    (2) Final Total Internal Energy     =   -1.82 kcal/mol
USER    (3) Torsional Free Energy           =   +3.58 kcal/mol
USER    (4) Unbound System's Energy  [=(2)] =   -1.82 kcal/mol
USER    
USER    
USER  
USER    DPF = D:/Protein_go_brrr/autodock/final/mut_N102T/heme_Co/dock.dpf
USER    NEWDPF move	heme_Co_opt.pdbqt
USER    NEWDPF about	8.781000 34.984000 -0.736000
USER    NEWDPF tran0	-9.887113 -12.396154 -9.743879
USER    NEWDPF axisangle0	-0.544006 -0.634992 0.548491 156.863904
USER    NEWDPF quaternion0	-0.532956 -0.622094 0.537349 0.200532
USER    NEWDPF dihe0	-20.55 81.87 31.24 -92.43 -56.54 155.75 -5.22 -47.39 -124.67 -51.64 156.67 49.28 
USER  
USER                              x       y       z    vdW   Elec        q     RMS 
ATOM      1  C   UNL d   1      -8.494 -12.585  -8.089 -0.10 +0.02    +0.064    50.235
ATOM      2  C   UNL d   1     -12.481 -14.930  -9.192 -0.00 +0.01    +0.064    50.235
ATOM      3  C   UNL d   1     -13.232 -11.991 -12.884 -0.00 +0.00    +0.064    50.235
ATOM      4  C   UNL d   1      -8.966  -9.823 -12.010 -0.18 +0.02    +0.064    50.235
ATOM      5  C   UNL d   1      -9.547 -13.419  -8.098 -0.03 +0.02    +0.066    50.235
ATOM      6  C   UNL d   1      -9.658 -14.492  -7.192 -0.02 -0.01    -0.021    50.235
ATOM      7  C   UNL d   1     -10.805 -15.182  -7.531 +0.00 -0.01    -0.025    50.235
ATOM      8  C   UNL d   1     -11.353 -14.492  -8.618 +0.00 +0.01    +0.066    50.235
ATOM      9  C   UNL d   1     -11.375 -16.445  -6.868 +0.01 +0.01    +0.051    50.235
ATOM     10  C   UNL d   1     -13.132 -14.271 -10.296 -0.00 +0.01    +0.066    50.235
ATOM     11  C   UNL d   1     -14.388 -14.598 -10.852 +0.00 -0.00    -0.021    50.235
ATOM     12  C   UNL d   1     -14.584 -13.723 -11.924 -0.00 +0.00    +0.000    50.235
ATOM     13  C   UNL d   1     -13.443 -12.921 -11.935 -0.00 +0.00    +0.070    50.235
ATOM     14  C   UNL d   1     -15.361 -15.618 -10.319 +0.00 +0.00    +0.052    50.235
ATOM     15  C   UNL d   1     -12.093 -11.115 -13.076 -0.01 +0.01    +0.066    50.235
ATOM     16  C   UNL d   1     -11.873 -10.278 -14.161 -0.02 -0.00    -0.021    50.235
ATOM     17  C   UNL d   1     -10.642  -9.652 -13.915 -0.07 +0.00    +0.000    50.235
ATOM     18  C   UNL d   1     -10.216 -10.147 -12.686 -0.07 +0.02    +0.070    50.235
ATOM     19  C   UNL d   1     -12.801 -10.112 -15.343 -0.00 +0.01    +0.052    50.235
ATOM     20  C   UNL d   1      -8.490 -10.355 -10.858 -0.19 +0.02    +0.066    50.235
ATOM     21  C   UNL d   1      -7.257  -9.990 -10.325 -0.37 -0.01    -0.025    50.235
ATOM     22  C   UNL d   1      -7.107 -10.749  -9.178 -0.29 -0.01    -0.021    50.235
ATOM     23  C   UNL d   1      -8.260 -11.555  -9.075 -0.15 +0.02    +0.066    50.235
ATOM     24  C   UNL d   1      -6.259  -8.981 -10.889 -0.52 +0.02    +0.051    50.235
ATOM     25  N   UNL d   1     -10.598 -13.392  -8.986 -0.00 -0.05    -0.248    50.235
ATOM     26  N   UNL d   1     -12.592 -13.216 -10.916 -0.00 -0.02    -0.248    50.235
ATOM     27  N   UNL d   1     -11.090 -11.038 -12.231 -0.01 -0.04    -0.248    50.235
ATOM     28  N   UNL d   1      -9.099 -11.321 -10.092 -0.05 -0.06    -0.248    50.235
ATOM     29 FE   UNL d   1     -10.855 -12.143 -10.704 -0.01 +0.00    +0.000    50.235
ATOM     30  C   UNL d   1      -8.656 -14.874  -6.107 -0.05 +0.03    +0.052    50.235
ATOM     31  C   UNL d   1      -8.116 -16.283  -6.347 -0.05 +0.09    +0.115    50.235
ATOM     32  C   UNL d   1      -7.551 -16.455  -7.741 -0.11 +0.14    +0.139    50.235
ATOM     33  O   UNL d   1      -7.834 -17.454  -8.385 +0.01 -0.39    -0.650    50.235
ATOM     34  O   UNL d   1      -6.775 -15.511  -8.322 -0.22 -1.40    -0.776    50.235
ATOM     35  H   UNL d   1      -6.795 -14.572  -8.090 -0.24 +0.27    +0.167    50.235
ATOM     36  C   UNL d   1      -9.819 -13.609 -11.786 -0.07 +0.03    +0.190    50.235
ATOM     37  O   UNL d   1      -9.201 -14.858 -11.661 -0.05 -0.07    -0.399    50.235
ATOM     38  H   UNL d   1      -8.848 -14.877 -10.728 +0.04 +0.06    +0.209    50.235
ATOM     39  C   UNL d   1      -5.890 -10.742  -8.272 -0.19 +0.02    +0.052    50.235
ATOM     40  C   UNL d   1      -6.289 -11.074  -6.825 -0.35 +0.06    +0.115    50.235
ATOM     41  C   UNL d   1      -5.573 -12.273  -6.239 -0.28 +0.16    +0.139    50.235
ATOM     42  O   UNL d   1      -4.523 -12.107  -5.635 -0.49 -0.78    -0.650    50.235
ATOM     43  O   UNL d   1      -6.108 -13.514  -6.288 +0.18 -1.40    -0.776    50.235
ATOM     44  H   UNL d   1      -6.604 -13.835  -7.052 -0.06 +0.27    +0.167    50.235
ATOM     45  C   UNL d   1     -15.720 -13.541 -12.922 +0.00 +0.00    +0.004    50.235
ATOM     46  C   UNL d   1     -15.838 -13.946 -14.184 +0.00 +0.00    +0.012    50.235
ATOM     47  C   UNL d   1      -9.870  -8.699 -14.766 -0.14 +0.00    +0.004    50.235
ATOM     48  C   UNL d   1      -9.135  -9.076 -15.815 -0.18 +0.01    +0.012    50.235
TER
ENDMDL
MODEL        1
USER    Run = 1
USER    Cluster Rank = 38
USER    Number of conformations in this cluster = 1
USER  
USER    RMSD from reference structure       = 31.401 A
USER  
USER    Estimated Free Energy of Binding    =   -3.63 kcal/mol  [=(1)+(2)+(3)-(4)]
USER    Estimated Inhibition Constant, Ki   =    2.19 mM (millimolar)  [Temperature = 298.15 K]
USER    
USER    (1) Final Intermolecular Energy     =   -7.21 kcal/mol
USER        vdW + Hbond + desolv Energy     =   -6.12 kcal/mol
USER        Electrostatic Energy            =   -1.09 kcal/mol
USER    (2) Final Total Internal Energy     =   -2.15 kcal/mol
USER    (3) Torsional Free Energy           =   +3.58 kcal/mol
USER    (4) Unbound System's Energy  [=(2)] =   -2.15 kcal/mol
USER    
USER    
USER  
USER    DPF = D:/Protein_go_brrr/autodock/final/mut_N102T/heme_Co/dock.dpf
USER    NEWDPF move	heme_Co_opt.pdbqt
USER    NEWDPF about	8.781000 34.984000 -0.736000
USER    NEWDPF tran0	15.483890 3.401958 -4.987120
USER    NEWDPF axisangle0	-0.502285 -0.783608 0.365608 137.767376
USER    NEWDPF quaternion0	-0.468557 -0.730989 0.341058 0.360262
USER    NEWDPF dihe0	22.26 106.29 120.14 -30.66 127.23 134.20 -121.53 147.10 -0.17 82.38 173.90 150.38 
USER  
USER                              x       y       z    vdW   Elec        q     RMS 
ATOM      1  C   UNL d   1      16.355   3.427  -2.998 -0.16 -0.01    +0.064    31.401
ATOM      2  C   UNL d   1      14.274  -0.017  -5.532 -0.14 -0.01    +0.064    31.401
ATOM      3  C   UNL d   1      13.208   3.113  -8.981 -0.19 -0.02    +0.064    31.401
ATOM      4  C   UNL d   1      15.665   6.564  -6.590 -0.15 -0.01    +0.064    31.401
ATOM      5  C   UNL d   1      15.833   2.263  -3.421 -0.18 -0.01    +0.066    31.401
ATOM      6  C   UNL d   1      16.001   1.064  -2.702 -0.14 -0.00    -0.021    31.401
ATOM      7  C   UNL d   1      15.415   0.064  -3.453 -0.10 +0.00    -0.025    31.401
ATOM      8  C   UNL d   1      14.900   0.698  -4.589 -0.11 -0.01    +0.066    31.401
ATOM      9  C   UNL d   1      15.335  -1.435  -3.127 -0.08 -0.00    +0.051    31.401
ATOM     10  C   UNL d   1      13.689   0.552  -6.721 -0.11 -0.01    +0.066    31.401
ATOM     11  C   UNL d   1      12.898  -0.122  -7.677 -0.21 +0.00    -0.021    31.401
ATOM     12  C   UNL d   1      12.598   0.816  -8.670 -0.28 -0.00    +0.000    31.401
ATOM     13  C   UNL d   1      13.215   1.991  -8.240 -0.21 -0.02    +0.070    31.401
ATOM     14  C   UNL d   1      12.395  -1.539  -7.580 -0.21 -0.00    +0.052    31.401
ATOM     15  C   UNL d   1      13.835   4.394  -8.717 -0.20 -0.02    +0.066    31.401
ATOM     16  C   UNL d   1      13.911   5.469  -9.591 -0.27 +0.01    -0.021    31.401
ATOM     17  C   UNL d   1      14.621   6.465  -8.907 -0.20 -0.00    +0.000    31.401
ATOM     18  C   UNL d   1      14.908   5.924  -7.658 -0.19 -0.01    +0.070    31.401
ATOM     19  C   UNL d   1      13.332   5.506 -10.988 -0.28 -0.02    +0.052    31.401
ATOM     20  C   UNL d   1      16.030   6.026  -5.402 -0.16 -0.02    +0.066    31.401
ATOM     21  C   UNL d   1      16.790   6.730  -4.469 -0.15 +0.01    -0.025    31.401
ATOM     22  C   UNL d   1      16.980   5.860  -3.411 -0.10 +0.01    -0.021    31.401
ATOM     23  C   UNL d   1      16.332   4.656  -3.758 -0.17 -0.03    +0.066    31.401
ATOM     24  C   UNL d   1      17.327   8.154  -4.589 -0.09 -0.01    +0.051    31.401
ATOM     25  N   UNL d   1      15.140   2.062  -4.592 -0.10 +0.03    -0.248    31.401
ATOM     26  N   UNL d   1      13.827   1.844  -7.035 -0.10 +0.03    -0.248    31.401
ATOM     27  N   UNL d   1      14.451   4.679  -7.591 -0.15 +0.05    -0.248    31.401
ATOM     28  N   UNL d   1      15.758   4.751  -4.963 -0.12 +0.07    -0.248    31.401
ATOM     29 FE   UNL d   1      14.776   3.450  -6.179 -0.04 -0.00    +0.000    31.401
ATOM     30  C   UNL d   1      16.765   0.887  -1.394 -0.06 +0.02    +0.052    31.401
ATOM     31  C   UNL d   1      18.140   0.273  -1.654 -0.04 +0.02    +0.115    31.401
ATOM     32  C   UNL d   1      18.955   0.124  -0.387 -0.03 +0.03    +0.139    31.401
ATOM     33  O   UNL d   1      19.153  -0.990   0.073 +0.01 -0.07    -0.650    31.401
ATOM     34  O   UNL d   1      19.517   1.188   0.234 +0.00 -0.25    -0.776    31.401
ATOM     35  H   UNL d   1      19.251   2.106   0.087 +0.01 +0.10    +0.167    31.401
ATOM     36  C   UNL d   1      16.595   2.812  -7.003 -0.01 -0.02    +0.190    31.401
ATOM     37  O   UNL d   1      17.803   2.182  -6.684 +0.01 +0.03    -0.399    31.401
ATOM     38  H   UNL d   1      17.787   2.084  -5.691 +0.02 -0.01    +0.209    31.401
ATOM     39  C   UNL d   1      17.797   6.154  -2.166 +0.03 -0.02    +0.052    31.401
ATOM     40  C   UNL d   1      19.109   5.352  -2.176 -0.08 +0.02    +0.115    31.401
ATOM     41  C   UNL d   1      19.109   4.145  -1.262 +0.10 +0.10    +0.139    31.401
ATOM     42  O   UNL d   1      19.208   4.308  -0.054 -0.10 -0.66    -0.650    31.401
ATOM     43  O   UNL d   1      18.915   2.894  -1.737 -0.34 -0.44    -0.776    31.401
ATOM     44  H   UNL d   1      19.529   2.170  -1.559 +0.01 +0.06    +0.167    31.401
ATOM     45  C   UNL d   1      11.788   0.742  -9.957 -0.41 -0.00    +0.004    31.401
ATOM     46  C   UNL d   1      11.694  -0.225 -10.866 -0.33 -0.00    +0.012    31.401
ATOM     47  C   UNL d   1      15.061   7.814  -9.374 -0.13 -0.00    +0.004    31.401
ATOM     48  C   UNL d   1      14.481   8.953  -8.987 -0.17 -0.00    +0.012    31.401
TER
ENDMDL
MODEL       53
USER    Run = 53
USER    Cluster Rank = 39
USER    Number of conformations in this cluster = 2
USER  
USER    RMSD from reference structure       = 34.811 A
USER  
USER    Estimated Free Energy of Binding    =   -3.61 kcal/mol  [=(1)+(2)+(3)-(4)]
USER    Estimated Inhibition Constant, Ki   =    2.25 mM (millimolar)  [Temperature = 298.15 K]
USER    
USER    (1) Final Intermolecular Energy     =   -7.19 kcal/mol
USER        vdW + Hbond + desolv Energy     =   -6.14 kcal/mol
USER        Electrostatic Energy            =   -1.05 kcal/mol
USER    (2) Final Total Internal Energy     =   -2.32 kcal/mol
USER    (3) Torsional Free Energy           =   +3.58 kcal/mol
USER    (4) Unbound System's Energy  [=(2)] =   -2.32 kcal/mol
USER    
USER    
USER  
USER    DPF = D:/Protein_go_brrr/autodock/final/mut_N102T/heme_Co/dock.dpf
USER    NEWDPF move	heme_Co_opt.pdbqt
USER    NEWDPF about	8.781000 34.984000 -0.736000
USER    NEWDPF tran0	-2.068788 8.283543 -22.314805
USER    NEWDPF axisangle0	-0.571959 0.612977 -0.545090 -135.176369
USER    NEWDPF quaternion0	-0.528757 0.566677 -0.503918 -0.381261
USER    NEWDPF dihe0	-21.71 127.13 -151.00 46.67 -88.93 92.35 41.25 126.12 13.53 75.15 -23.90 159.74 
USER  
USER                              x       y       z    vdW   Elec        q     RMS 
ATOM      1  C   UNL d   1      -2.706  10.296 -22.825 -0.09 +0.00    +0.064    34.811
ATOM      2  C   UNL d   1       1.281   8.609 -20.859 -0.26 -0.00    +0.064    34.811
ATOM      3  C   UNL d   1      -0.587   4.213 -20.750 -0.21 +0.00    +0.064    34.811
ATOM      4  C   UNL d   1      -4.518   5.840 -23.110 -0.13 +0.01    +0.064    34.811
ATOM      5  C   UNL d   1      -1.493  10.164 -22.262 -0.14 +0.00    +0.066    34.811
ATOM      6  C   UNL d   1      -0.590  11.242 -22.173 -0.17 -0.00    -0.021    34.811
ATOM      7  C   UNL d   1       0.574  10.741 -21.623 -0.21 +0.00    -0.025    34.811
ATOM      8  C   UNL d   1       0.325   9.385 -21.385 -0.22 -0.00    +0.066    34.811
ATOM      9  C   UNL d   1       1.878  11.498 -21.328 -0.21 -0.00    +0.051    34.811
ATOM     10  C   UNL d   1       1.109   7.210 -20.554 -0.23 -0.01    +0.066    34.811
ATOM     11  C   UNL d   1       2.023   6.376 -19.874 -0.26 +0.00    -0.021    34.811
ATOM     12  C   UNL d   1       1.451   5.101 -19.853 -0.26 -0.00    +0.000    34.811
ATOM     13  C   UNL d   1       0.229   5.254 -20.508 -0.23 -0.00    +0.070    34.811
ATOM     14  C   UNL d   1       3.306   6.810 -19.213 -0.23 -0.02    +0.052    34.811
ATOM     15  C   UNL d   1      -1.854   4.181 -21.455 -0.19 +0.01    +0.066    34.811
ATOM     16  C   UNL d   1      -2.578   3.048 -21.797 -0.23 -0.00    -0.021    34.811
ATOM     17  C   UNL d   1      -3.711   3.512 -22.480 -0.20 +0.00    +0.000    34.811
ATOM     18  C   UNL d   1      -3.597   4.898 -22.486 -0.17 +0.01    +0.070    34.811
ATOM     19  C   UNL d   1      -2.180   1.624 -21.477 -0.25 +0.00    +0.052    34.811
ATOM     20  C   UNL d   1      -4.384   7.184 -23.203 -0.09 +0.01    +0.066    34.811
ATOM     21  C   UNL d   1      -5.320   7.981 -23.860 -0.05 -0.00    -0.025    34.811
ATOM     22  C   UNL d   1      -4.838   9.274 -23.769 -0.04 -0.00    -0.021    34.811
ATOM     23  C   UNL d   1      -3.617   9.200 -23.066 -0.07 +0.00    +0.066    34.811
ATOM     24  C   UNL d   1      -6.600   7.530 -24.559 -0.03 +0.00    +0.051    34.811
ATOM     25  N   UNL d   1      -0.949   9.002 -21.766 -0.11 +0.01    -0.248    34.811
ATOM     26  N   UNL d   1      -0.001   6.541 -20.882 -0.16 +0.01    -0.248    34.811
ATOM     27  N   UNL d   1      -2.465   5.260 -21.893 -0.04 -0.05    -0.248    34.811
ATOM     28  N   UNL d   1      -3.338   7.937 -22.723 -0.05 -0.02    -0.248    34.811
ATOM     29 FE   UNL d   1      -1.755   7.021 -21.834 -0.04 +0.00    +0.000    34.811
ATOM     30  C   UNL d   1      -0.818  12.664 -22.675 -0.14 +0.01    +0.052    34.811
ATOM     31  C   UNL d   1      -2.021  13.294 -21.974 -0.14 +0.04    +0.115    34.811
ATOM     32  C   UNL d   1      -2.460  14.586 -22.629 -0.10 +0.08    +0.139    34.811
ATOM     33  O   UNL d   1      -1.955  15.641 -22.274 -0.12 -0.82    -0.650    34.811
ATOM     34  O   UNL d   1      -3.363  14.609 -23.636 +0.02 -0.27    -0.776    34.811
ATOM     35  H   UNL d   1      -3.523  13.871 -24.241 +0.01 +0.04    +0.167    34.811
ATOM     36  C   UNL d   1      -0.800   6.818 -23.690 -0.03 +0.00    +0.190    34.811
ATOM     37  O   UNL d   1      -0.767   7.337 -24.988 -0.00 -0.01    -0.399    34.811
ATOM     38  H   UNL d   1      -1.277   8.193 -24.936 +0.01 +0.00    +0.209    34.811
ATOM     39  C   UNL d   1      -5.488  10.500 -24.383 -0.01 +0.00    +0.052    34.811
ATOM     40  C   UNL d   1      -4.807  10.866 -25.713 -0.00 +0.01    +0.115    34.811
ATOM     41  C   UNL d   1      -4.000  12.146 -25.670 -0.00 +0.01    +0.139    34.811
ATOM     42  O   UNL d   1      -4.514  13.191 -26.044 +0.00 -0.06    -0.650    34.811
ATOM     43  O   UNL d   1      -2.754  12.183 -25.147 +0.02 -0.07    -0.776    34.811
ATOM     44  H   UNL d   1      -2.418  12.946 -24.659 +0.01 +0.02    +0.167    34.811
ATOM     45  C   UNL d   1       1.907   3.768 -19.276 -0.35 -0.00    +0.004    34.811
ATOM     46  C   UNL d   1       2.549   3.488 -18.145 -0.53 -0.00    +0.012    34.811
ATOM     47  C   UNL d   1      -4.811   2.743 -23.136 -0.12 +0.00    +0.004    34.811
ATOM     48  C   UNL d   1      -4.986   2.691 -24.459 -0.06 +0.00    +0.012    34.811
TER
ENDMDL
MODEL       87
USER    Run = 87
USER    Cluster Rank = 40
USER    Number of conformations in this cluster = 1
USER  
USER    RMSD from reference structure       = 55.090 A
USER  
USER    Estimated Free Energy of Binding    =   -3.61 kcal/mol  [=(1)+(2)+(3)-(4)]
USER    Estimated Inhibition Constant, Ki   =    2.26 mM (millimolar)  [Temperature = 298.15 K]
USER    
USER    (1) Final Intermolecular Energy     =   -7.19 kcal/mol
USER        vdW + Hbond + desolv Energy     =   -3.62 kcal/mol
USER        Electrostatic Energy            =   -3.57 kcal/mol
USER    (2) Final Total Internal Energy     =   -1.73 kcal/mol
USER    (3) Torsional Free Energy           =   +3.58 kcal/mol
USER    (4) Unbound System's Energy  [=(2)] =   -1.73 kcal/mol
USER    
USER    
USER  
USER    DPF = D:/Protein_go_brrr/autodock/final/mut_N102T/heme_Co/dock.dpf
USER    NEWDPF move	heme_Co_opt.pdbqt
USER    NEWDPF about	8.781000 34.984000 -0.736000
USER    NEWDPF tran0	-4.608682 -20.068161 -8.960960
USER    NEWDPF axisangle0	-0.960730 0.223317 0.164706 141.422417
USER    NEWDPF quaternion0	-0.906800 0.210781 0.155460 0.330330
USER    NEWDPF dihe0	84.39 101.25 -51.95 119.47 136.43 -180.00 -134.65 -113.56 125.96 114.46 17.84 44.60 
USER  
USER                              x       y       z    vdW   Elec        q     RMS 
ATOM      1  C   UNL d   1      -6.060 -19.022  -7.730 -0.08 +0.04    +0.064    55.090
ATOM      2  C   UNL d   1      -5.803 -19.782 -12.417 -0.13 +0.01    +0.064    55.090
ATOM      3  C   UNL d   1      -1.528 -21.850 -11.885 -0.04 +0.00    +0.064    55.090
ATOM      4  C   UNL d   1      -1.941 -21.432  -7.056 -0.04 +0.02    +0.064    55.090
ATOM      5  C   UNL d   1      -6.287 -19.045  -9.053 -0.10 +0.03    +0.066    55.090
ATOM      6  C   UNL d   1      -7.495 -18.585  -9.612 -0.09 -0.01    -0.021    55.090
ATOM      7  C   UNL d   1      -7.424 -18.828 -10.970 -0.11 -0.01    -0.025    55.090
ATOM      8  C   UNL d   1      -6.171 -19.412 -11.183 -0.13 +0.02    +0.066    55.090
ATOM      9  C   UNL d   1      -8.488 -18.530 -12.038 -0.10 +0.01    +0.051    55.090
ATOM     10  C   UNL d   1      -4.524 -20.365 -12.736 -0.10 +0.01    +0.066    55.090
ATOM     11  C   UNL d   1      -4.023 -20.646 -14.027 -0.08 -0.00    -0.021    55.090
ATOM     12  C   UNL d   1      -2.774 -21.245 -13.842 -0.06 +0.00    +0.000    55.090
ATOM     13  C   UNL d   1      -2.600 -21.273 -12.458 -0.03 +0.00    +0.070    55.090
ATOM     14  C   UNL d   1      -4.670 -20.271 -15.335 -0.05 +0.00    +0.052    55.090
ATOM     15  C   UNL d   1      -1.215 -22.015 -10.479 -0.03 +0.01    +0.066    55.090
ATOM     16  C   UNL d   1      -0.162 -22.749  -9.952 -0.04 -0.00    -0.021    55.090
ATOM     17  C   UNL d   1      -0.278 -22.633  -8.559 -0.03 +0.00    +0.000    55.090
ATOM     18  C   UNL d   1      -1.387 -21.821  -8.347 -0.05 +0.01    +0.070    55.090
ATOM     19  C   UNL d   1       0.872 -23.503 -10.757 -0.01 +0.00    +0.052    55.090
ATOM     20  C   UNL d   1      -3.067 -20.715  -6.825 -0.05 +0.03    +0.066    55.090
ATOM     21  C   UNL d   1      -3.518 -20.435  -5.537 -0.07 -0.02    -0.025    55.090
ATOM     22  C   UNL d   1      -4.689 -19.716  -5.700 -0.08 -0.02    -0.021    55.090
ATOM     23  C   UNL d   1      -4.901 -19.603  -7.090 -0.08 +0.04    +0.066    55.090
ATOM     24  C   UNL d   1      -2.877 -20.848  -4.215 -0.10 +0.03    +0.051    55.090
ATOM     25  N   UNL d   1      -5.443 -19.553 -10.014 -0.09 -0.09    -0.248    55.090
ATOM     26  N   UNL d   1      -3.633 -20.691 -11.794 -0.01 -0.03    -0.248    55.090
ATOM     27  N   UNL d   1      -1.938 -21.497  -9.512 -0.04 -0.04    -0.248    55.090
ATOM     28  N   UNL d   1      -3.923 -20.208  -7.775 -0.05 -0.12    -0.248    55.090
ATOM     29 FE   UNL d   1      -3.586 -20.582  -9.745 -0.02 +0.00    +0.000    55.090
ATOM     30  C   UNL d   1      -8.689 -18.014  -8.854 -0.04 +0.02    +0.052    55.090
ATOM     31  C   UNL d   1      -8.714 -16.489  -8.961 -0.09 +0.05    +0.115    55.090
ATOM     32  C   UNL d   1      -7.427 -15.855  -8.480 -0.15 +0.14    +0.139    55.090
ATOM     33  O   UNL d   1      -6.558 -15.569  -9.291 -0.48 -0.82    -0.650    55.090
ATOM     34  O   UNL d   1      -7.221 -15.548  -7.178 -0.41 -1.09    -0.776    55.090
ATOM     35  H   UNL d   1      -6.954 -16.187  -6.504 +0.03 +0.24    +0.167    55.090
ATOM     36  C   UNL d   1      -4.711 -22.347  -9.627 -0.02 +0.03    +0.190    55.090
ATOM     37  O   UNL d   1      -5.922 -22.924 -10.020 +0.00 -0.04    -0.399    55.090
ATOM     38  H   UNL d   1      -6.470 -22.163 -10.361 +0.01 +0.03    +0.209    55.090
ATOM     39  C   UNL d   1      -5.583 -19.225  -4.577 -0.03 +0.07    +0.052    55.090
ATOM     40  C   UNL d   1      -6.227 -17.879  -4.946 -0.10 +0.15    +0.115    55.090
ATOM     41  C   UNL d   1      -5.266 -16.709  -4.958 -0.10 +0.27    +0.139    55.090
ATOM     42  O   UNL d   1      -4.075 -16.915  -5.140 -0.35 -1.41    -0.650    55.090
ATOM     43  O   UNL d   1      -5.700 -15.432  -4.862 +0.07 -1.39    -0.776    55.090
ATOM     44  H   UNL d   1      -6.448 -15.098  -5.373 +0.04 +0.26    +0.167    55.090
ATOM     45  C   UNL d   1      -1.723 -21.772 -14.809 -0.03 +0.00    +0.004    55.090
ATOM     46  C   UNL d   1      -0.506 -21.318 -15.099 -0.03 -0.00    +0.012    55.090
ATOM     47  C   UNL d   1       0.537 -23.264  -7.478 -0.02 +0.00    +0.004    55.090
ATOM     48  C   UNL d   1       1.303 -22.570  -6.633 -0.03 +0.00    +0.012    55.090
TER
ENDMDL
MODEL       26
USER    Run = 26
USER    Cluster Rank = 41
USER    Number of conformations in this cluster = 1
USER  
USER    RMSD from reference structure       = 16.560 A
USER  
USER    Estimated Free Energy of Binding    =   -3.55 kcal/mol  [=(1)+(2)+(3)-(4)]
USER    Estimated Inhibition Constant, Ki   =    2.49 mM (millimolar)  [Temperature = 298.15 K]
USER    
USER    (1) Final Intermolecular Energy     =   -7.13 kcal/mol
USER        vdW + Hbond + desolv Energy     =   -5.73 kcal/mol
USER        Electrostatic Energy            =   -1.40 kcal/mol
USER    (2) Final Total Internal Energy     =   -2.27 kcal/mol
USER    (3) Torsional Free Energy           =   +3.58 kcal/mol
USER    (4) Unbound System's Energy  [=(2)] =   -2.27 kcal/mol
USER    
USER    
USER  
USER    DPF = D:/Protein_go_brrr/autodock/final/mut_N102T/heme_Co/dock.dpf
USER    NEWDPF move	heme_Co_opt.pdbqt
USER    NEWDPF about	8.781000 34.984000 -0.736000
USER    NEWDPF tran0	7.313889 19.498829 10.643504
USER    NEWDPF axisangle0	0.342563 0.423894 0.838429 88.796127
USER    NEWDPF quaternion0	0.239671 0.296573 0.586598 0.714496
USER    NEWDPF dihe0	-164.43 110.25 -107.08 62.86 98.95 137.99 33.76 -172.01 -177.64 104.15 -172.55 0.65 
USER  
USER                              x       y       z    vdW   Elec        q     RMS 
ATOM      1  C   UNL d   1       7.661  20.357   8.679 -0.08 -0.01    +0.064    16.560
ATOM      2  C   UNL d   1       4.692  21.536  12.201 -0.14 -0.03    +0.064    16.560
ATOM      3  C   UNL d   1       6.054  17.689  14.687 -0.03 -0.04    +0.064    16.560
ATOM      4  C   UNL d   1       9.372  16.676  11.277 -0.18 -0.00    +0.064    16.560
ATOM      5  C   UNL d   1       6.724  20.942   9.443 -0.11 -0.02    +0.066    16.560
ATOM      6  C   UNL d   1       6.120  22.163   9.082 -0.09 +0.01    -0.021    16.560
ATOM      7  C   UNL d   1       5.277  22.511  10.118 -0.09 +0.02    -0.025    16.560
ATOM      8  C   UNL d   1       5.388  21.481  11.059 -0.05 -0.03    +0.066    16.560
ATOM      9  C   UNL d   1       4.393  23.763  10.234 -0.05 -0.04    +0.051    16.560
ATOM     10  C   UNL d   1       4.723  20.511  13.215 -0.17 -0.02    +0.066    16.560
ATOM     11  C   UNL d   1       3.911  20.441  14.368 -0.16 +0.01    -0.021    16.560
ATOM     12  C   UNL d   1       4.327  19.307  15.073 -0.22 -0.00    +0.000    16.560
ATOM     13  C   UNL d   1       5.349  18.765  14.293 -0.20 -0.03    +0.070    16.560
ATOM     14  C   UNL d   1       2.759  21.351  14.705 -0.13 -0.01    +0.052    16.560
ATOM     15  C   UNL d   1       7.169  17.032  14.036 -0.15 -0.03    +0.066    16.560
ATOM     16  C   UNL d   1       7.947  16.012  14.566 -0.21 +0.01    -0.021    16.560
ATOM     17  C   UNL d   1       8.908  15.718  13.587 -0.22 -0.00    +0.000    16.560
ATOM     18  C   UNL d   1       8.627  16.573  12.526 -0.22 -0.01    +0.070    16.560
ATOM     19  C   UNL d   1       7.758  15.382  15.928 -0.14 -0.03    +0.052    16.560
ATOM     20  C   UNL d   1       9.172  17.558  10.268 -0.12 -0.00    +0.066    16.560
ATOM     21  C   UNL d   1       9.977  17.583   9.132 -0.08 -0.00    -0.025    16.560
ATOM     22  C   UNL d   1       9.489  18.615   8.351 -0.10 -0.00    -0.021    16.560
ATOM     23  C   UNL d   1       8.409  19.181   9.062 -0.11 -0.01    +0.066    16.560
ATOM     24  C   UNL d   1      11.165  16.680   8.813 -0.15 +0.01    +0.051    16.560
ATOM     25  N   UNL d   1       6.274  20.493  10.664 -0.10 +0.08    -0.248    16.560
ATOM     26  N   UNL d   1       5.549  19.462  13.143 -0.15 +0.08    -0.248    16.560
ATOM     27  N   UNL d   1       7.605  17.362  12.840 -0.14 +0.06    -0.248    16.560
ATOM     28  N   UNL d   1       8.215  18.546  10.224 -0.11 +0.03    -0.248    16.560
ATOM     29 FE   UNL d   1       6.981  18.833  11.814 -0.05 -0.00    +0.000    16.560
ATOM     30  C   UNL d   1       6.413  22.987   7.833 -0.05 -0.02    +0.052    16.560
ATOM     31  C   UNL d   1       7.564  23.960   8.089 -0.01 -0.02    +0.115    16.560
ATOM     32  C   UNL d   1       8.115  23.845   9.494 -0.00 -0.02    +0.139    16.560
ATOM     33  O   UNL d   1       7.715  24.608  10.360 +0.01 +0.11    -0.650    16.560
ATOM     34  O   UNL d   1       9.008  22.889   9.838 +0.02 +0.10    -0.776    16.560
ATOM     35  H   UNL d   1       9.262  22.684  10.749 +0.01 -0.02    +0.167    16.560
ATOM     36  C   UNL d   1       8.358  20.160  12.673 -0.02 -0.03    +0.190    16.560
ATOM     37  O   UNL d   1       8.954  21.414  12.500 +0.00 +0.05    -0.399    16.560
ATOM     38  H   UNL d   1       8.595  21.751  11.633 +0.02 -0.03    +0.209    16.560
ATOM     39  C   UNL d   1      10.074  19.069   7.027 -0.05 +0.01    +0.052    16.560
ATOM     40  C   UNL d   1       9.235  18.539   5.853 -0.08 +0.03    +0.115    16.560
ATOM     41  C   UNL d   1       9.539  17.108   5.464 +0.12 +0.13    +0.139    16.560
ATOM     42  O   UNL d   1      10.683  16.689   5.568 -0.06 -0.94    -0.650    16.560
ATOM     43  O   UNL d   1       8.563  16.252   5.087 -0.55 -0.88    -0.776    16.560
ATOM     44  H   UNL d   1       8.196  15.587   5.684 -0.19 +0.17    +0.167    16.560
ATOM     45  C   UNL d   1       3.866  18.668  16.375 -0.25 -0.00    +0.004    16.560
ATOM     46  C   UNL d   1       2.657  18.269  16.765 -0.28 -0.01    +0.012    16.560
ATOM     47  C   UNL d   1      10.047  14.753  13.627 -0.25 -0.00    +0.004    16.560
ATOM     48  C   UNL d   1       9.902  13.435  13.472 -0.37 +0.00    +0.012    16.560
TER
ENDMDL
MODEL       22
USER    Run = 22
USER    Cluster Rank = 42
USER    Number of conformations in this cluster = 2
USER  
USER    RMSD from reference structure       = 24.893 A
USER  
USER    Estimated Free Energy of Binding    =   -3.43 kcal/mol  [=(1)+(2)+(3)-(4)]
USER    Estimated Inhibition Constant, Ki   =    3.08 mM (millimolar)  [Temperature = 298.15 K]
USER    
USER    (1) Final Intermolecular Energy     =   -7.01 kcal/mol
USER        vdW + Hbond + desolv Energy     =   -5.13 kcal/mol
USER        Electrostatic Energy            =   -1.88 kcal/mol
USER    (2) Final Total Internal Energy     =   -2.02 kcal/mol
USER    (3) Torsional Free Energy           =   +3.58 kcal/mol
USER    (4) Unbound System's Energy  [=(2)] =   -2.02 kcal/mol
USER    
USER    
USER  
USER    DPF = D:/Protein_go_brrr/autodock/final/mut_N102T/heme_Co/dock.dpf
USER    NEWDPF move	heme_Co_opt.pdbqt
USER    NEWDPF about	8.781000 34.984000 -0.736000
USER    NEWDPF tran0	-4.478079 17.332785 -15.612638
USER    NEWDPF axisangle0	-0.634658 0.762407 0.126275 115.970091
USER    NEWDPF quaternion0	-0.538133 0.646452 0.107070 0.530141
USER    NEWDPF dihe0	-50.97 108.91 -50.36 -108.16 156.22 133.30 -161.57 -180.00 -128.10 131.09 -23.10 36.00 
USER  
USER                              x       y       z    vdW   Elec        q     RMS 
ATOM      1  C   UNL d   1      -4.361  19.465 -16.009 -0.03 +0.02    +0.064    24.893
ATOM      2  C   UNL d   1      -5.625  15.773 -18.727 -0.11 +0.02    +0.064    24.893
ATOM      3  C   UNL d   1      -4.447  12.743 -15.226 -0.15 -0.00    +0.064    24.893
ATOM      4  C   UNL d   1      -3.515  16.513 -12.296 -0.05 +0.00    +0.064    24.893
ATOM      5  C   UNL d   1      -4.759  18.677 -17.022 -0.06 +0.03    +0.066    24.893
ATOM      6  C   UNL d   1      -5.260  19.205 -18.228 -0.06 -0.01    -0.021    24.893
ATOM      7  C   UNL d   1      -5.646  18.130 -19.004 -0.07 -0.01    -0.025    24.893
ATOM      8  C   UNL d   1      -5.350  16.992 -18.246 -0.08 +0.03    +0.066    24.893
ATOM      9  C   UNL d   1      -6.273  18.157 -20.407 -0.05 +0.02    +0.051    24.893
ATOM     10  C   UNL d   1      -5.332  14.545 -18.032 -0.14 +0.02    +0.066    24.893
ATOM     11  C   UNL d   1      -5.467  13.235 -18.539 -0.16 -0.00    -0.021    24.893
ATOM     12  C   UNL d   1      -5.113  12.371 -17.499 -0.26 +0.00    +0.000    24.893
ATOM     13  C   UNL d   1      -4.777  13.216 -16.441 -0.22 +0.01    +0.070    24.893
ATOM     14  C   UNL d   1      -5.819  12.859 -19.956 -0.11 +0.01    +0.052    24.893
ATOM     15  C   UNL d   1      -4.125  13.469 -14.013 -0.16 -0.00    +0.066    24.893
ATOM     16  C   UNL d   1      -3.934  12.921 -12.752 -0.27 +0.00    -0.021    24.893
ATOM     17  C   UNL d   1      -3.668  14.005 -11.903 -0.22 -0.00    +0.000    24.893
ATOM     18  C   UNL d   1      -3.700  15.130 -12.719 -0.12 +0.00    +0.070    24.893
ATOM     19  C   UNL d   1      -4.011  11.449 -12.415 -0.41 -0.01    +0.052    24.893
ATOM     20  C   UNL d   1      -3.628  17.629 -13.054 -0.02 +0.00    +0.066    24.893
ATOM     21  C   UNL d   1      -3.463  18.907 -12.524 -0.01 -0.00    -0.025    24.893
ATOM     22  C   UNL d   1      -3.672  19.778 -13.578 -0.01 -0.00    -0.021    24.893
ATOM     23  C   UNL d   1      -3.969  18.982 -14.705 -0.02 +0.01    +0.066    24.893
ATOM     24  C   UNL d   1      -3.141  19.283 -11.080 -0.01 +0.00    +0.051    24.893
ATOM     25  N   UNL d   1      -4.794  17.301 -17.016 -0.07 -0.10    -0.248    24.893
ATOM     26  N   UNL d   1      -4.856  14.530 -16.782 -0.13 -0.05    -0.248    24.893
ATOM     27  N   UNL d   1      -4.005  14.777 -13.963 -0.11 -0.02    -0.248    24.893
ATOM     28  N   UNL d   1      -3.945  17.681 -14.391 -0.02 -0.04    -0.248    24.893
ATOM     29 FE   UNL d   1      -4.375  15.967 -15.397 -0.02 +0.00    +0.000    24.893
ATOM     30  C   UNL d   1      -5.430  20.681 -18.573 -0.03 +0.02    +0.052    24.893
ATOM     31  C   UNL d   1      -4.081  21.398 -18.548 -0.03 +0.05    +0.115    24.893
ATOM     32  C   UNL d   1      -3.026  20.671 -19.354 +0.10 +0.16    +0.139    24.893
ATOM     33  O   UNL d   1      -3.124  20.629 -20.572 -0.56 -0.86    -0.650    24.893
ATOM     34  O   UNL d   1      -1.944  20.102 -18.773 -0.06 -1.16    -0.776    24.893
ATOM     35  H   UNL d   1      -1.324  20.574 -18.200 +0.00 +0.14    +0.167    24.893
ATOM     36  C   UNL d   1      -6.398  16.141 -14.878 -0.02 +0.02    +0.190    24.893
ATOM     37  O   UNL d   1      -7.520  16.963 -15.027 +0.00 -0.03    -0.399    24.893
ATOM     38  H   UNL d   1      -7.188  17.763 -15.524 +0.01 +0.02    +0.209    24.893
ATOM     39  C   UNL d   1      -3.652  21.292 -13.486 -0.00 +0.00    +0.052    24.893
ATOM     40  C   UNL d   1      -2.901  21.899 -14.683 -0.00 +0.01    +0.115    24.893
ATOM     41  C   UNL d   1      -1.498  21.362 -14.878 -0.00 +0.02    +0.139    24.893
ATOM     42  O   UNL d   1      -0.781  21.192 -13.901 +0.01 -0.05    -0.650    24.893
ATOM     43  O   UNL d   1      -1.046  20.981 -16.093 +0.02 -0.20    -0.776    24.893
ATOM     44  H   UNL d   1      -1.577  20.453 -16.703 +0.01 +0.07    +0.167    24.893
ATOM     45  C   UNL d   1      -5.035  10.854 -17.389 -0.46 -0.00    +0.004    24.893
ATOM     46  C   UNL d   1      -5.716  10.006 -16.623 -0.36 -0.00    +0.012    24.893
ATOM     47  C   UNL d   1      -3.446  14.027 -10.426 -0.29 -0.00    +0.004    24.893
ATOM     48  C   UNL d   1      -2.465  14.716  -9.839 -0.31 -0.00    +0.012    24.893
TER
ENDMDL
MODEL       20
USER    Run = 20
USER    Cluster Rank = 43
USER    Number of conformations in this cluster = 1
USER  
USER    RMSD from reference structure       = 25.541 A
USER  
USER    Estimated Free Energy of Binding    =   -3.33 kcal/mol  [=(1)+(2)+(3)-(4)]
USER    Estimated Inhibition Constant, Ki   =    3.61 mM (millimolar)  [Temperature = 298.15 K]
USER    
USER    (1) Final Intermolecular Energy     =   -6.91 kcal/mol
USER        vdW + Hbond + desolv Energy     =   -6.03 kcal/mol
USER        Electrostatic Energy            =   -0.88 kcal/mol
USER    (2) Final Total Internal Energy     =   -1.96 kcal/mol
USER    (3) Torsional Free Energy           =   +3.58 kcal/mol
USER    (4) Unbound System's Energy  [=(2)] =   -1.96 kcal/mol
USER    
USER    
USER  
USER    DPF = D:/Protein_go_brrr/autodock/final/mut_N102T/heme_Co/dock.dpf
USER    NEWDPF move	heme_Co_opt.pdbqt
USER    NEWDPF about	8.781000 34.984000 -0.736000
USER    NEWDPF tran0	-7.604529 12.761941 3.089181
USER    NEWDPF axisangle0	0.075110 -0.997114 -0.011026 -111.214162
USER    NEWDPF quaternion0	0.061979 -0.822802 -0.009098 -0.564865
USER    NEWDPF dihe0	153.61 110.03 -15.44 122.13 135.88 156.95 -127.64 147.63 147.02 169.89 22.56 10.92 
USER  
USER                              x       y       z    vdW   Elec        q     RMS 
ATOM      1  C   UNL d   1      -6.174  13.521   1.643 -0.11 +0.01    +0.064    25.541
ATOM      2  C   UNL d   1      -9.852  10.535   1.234 -0.11 +0.00    +0.064    25.541
ATOM      3  C   UNL d   1     -10.529  10.663   5.962 -0.19 -0.01    +0.064    25.541
ATOM      4  C   UNL d   1      -7.023  14.012   6.361 -0.24 -0.01    +0.064    25.541
ATOM      5  C   UNL d   1      -7.106  12.667   1.188 -0.09 +0.01    +0.066    25.541
ATOM      6  C   UNL d   1      -7.280  12.413  -0.187 -0.08 -0.00    -0.021    25.541
ATOM      7  C   UNL d   1      -8.363  11.564  -0.301 -0.07 -0.00    -0.025    25.541
ATOM      8  C   UNL d   1      -8.793  11.323   1.009 -0.10 +0.00    +0.066    25.541
ATOM      9  C   UNL d   1      -8.982  10.993  -1.586 -0.05 +0.00    +0.051    25.541
ATOM     10  C   UNL d   1     -10.350  10.209   2.547 -0.06 -0.00    +0.066    25.541
ATOM     11  C   UNL d   1     -11.367   9.279   2.857 -0.15 +0.00    -0.021    25.541
ATOM     12  C   UNL d   1     -11.541   9.334   4.243 -0.18 -0.00    +0.000    25.541
ATOM     13  C   UNL d   1     -10.612  10.281   4.676 -0.14 -0.01    +0.070    25.541
ATOM     14  C   UNL d   1     -12.044   8.343   1.890 -0.11 +0.00    +0.052    25.541
ATOM     15  C   UNL d   1      -9.670  11.659   6.572 -0.18 -0.01    +0.066    25.541
ATOM     16  C   UNL d   1      -9.734  12.110   7.883 -0.22 +0.00    -0.021    25.541
ATOM     17  C   UNL d   1      -8.727  13.078   8.002 -0.23 -0.00    +0.000    25.541
ATOM     18  C   UNL d   1      -8.114  13.129   6.754 -0.26 -0.01    +0.070    25.541
ATOM     19  C   UNL d   1     -10.712  11.626   8.930 -0.15 -0.01    +0.052    25.541
ATOM     20  C   UNL d   1      -6.469  14.140   5.131 -0.21 -0.00    +0.066    25.541
ATOM     21  C   UNL d   1      -5.449  15.052   4.867 -0.15 -0.00    -0.025    25.541
ATOM     22  C   UNL d   1      -5.164  14.912   3.521 -0.14 -0.00    -0.021    25.541
ATOM     23  C   UNL d   1      -6.039  13.923   3.024 -0.08 +0.01    +0.066    25.541
ATOM     24  C   UNL d   1      -4.791  16.022   5.844 -0.11 -0.00    +0.051    25.541
ATOM     25  N   UNL d   1      -8.029  11.990   1.952 -0.07 -0.01    -0.248    25.541
ATOM     26  N   UNL d   1      -9.855  10.768   3.657 +0.04 +0.01    -0.248    25.541
ATOM     27  N   UNL d   1      -8.721  12.292   5.920 -0.19 +0.02    -0.248    25.541
ATOM     28  N   UNL d   1      -6.833  13.455   3.995 -0.09 -0.01    -0.248    25.541
ATOM     29 FE   UNL d   1      -8.392  12.152   4.054 -0.05 +0.00    +0.000    25.541
ATOM     30  C   UNL d   1      -6.486  13.030  -1.333 -0.08 +0.01    +0.052    25.541
ATOM     31  C   UNL d   1      -5.527  12.005  -1.935 -0.17 +0.03    +0.115    25.541
ATOM     32  C   UNL d   1      -4.964  11.060  -0.895 -0.25 +0.05    +0.139    25.541
ATOM     33  O   UNL d   1      -5.411   9.926  -0.809 +0.00 -0.13    -0.650    25.541
ATOM     34  O   UNL d   1      -3.943  11.414  -0.082 -0.34 -0.68    -0.776    25.541
ATOM     35  H   UNL d   1      -3.822  11.078   0.817 +0.08 +0.11    +0.167    25.541
ATOM     36  C   UNL d   1      -9.731  13.697   3.589 -0.05 -0.00    +0.190    25.541
ATOM     37  O   UNL d   1     -10.294  14.399   2.518 -0.00 +0.00    -0.399    25.541
ATOM     38  H   UNL d   1      -9.850  14.026   1.706 +0.01 +0.00    +0.209    25.541
ATOM     39  C   UNL d   1      -4.150  15.733   2.747 -0.11 +0.01    +0.052    25.541
ATOM     40  C   UNL d   1      -2.966  14.857   2.304 -0.20 +0.04    +0.115    25.541
ATOM     41  C   UNL d   1      -2.870  13.527   3.022 -0.35 +0.05    +0.139    25.541
ATOM     42  O   UNL d   1      -2.479  13.500   4.181 -0.05 -0.10    -0.650    25.541
ATOM     43  O   UNL d   1      -3.287  12.378   2.447 -0.07 -0.38    -0.776    25.541
ATOM     44  H   UNL d   1      -3.778  12.362   1.615 +0.06 +0.11    +0.167    25.541
ATOM     45  C   UNL d   1     -12.459   8.591   5.204 -0.15 -0.00    +0.004    25.541
ATOM     46  C   UNL d   1     -12.180   7.717   6.167 -0.20 -0.00    +0.012    25.541
ATOM     47  C   UNL d   1      -8.370  13.946   9.164 -0.18 -0.00    +0.004    25.541
ATOM     48  C   UNL d   1      -7.212  13.856   9.823 -0.24 -0.00    +0.012    25.541
TER
ENDMDL
MODEL       97
USER    Run = 97
USER    Cluster Rank = 44
USER    Number of conformations in this cluster = 1
USER  
USER    RMSD from reference structure       = 31.397 A
USER  
USER    Estimated Free Energy of Binding    =   -3.25 kcal/mol  [=(1)+(2)+(3)-(4)]
USER    Estimated Inhibition Constant, Ki   =    4.15 mM (millimolar)  [Temperature = 298.15 K]
USER    
USER    (1) Final Intermolecular Energy     =   -6.83 kcal/mol
USER        vdW + Hbond + desolv Energy     =   -4.86 kcal/mol
USER        Electrostatic Energy            =   -1.97 kcal/mol
USER    (2) Final Total Internal Energy     =   -2.72 kcal/mol
USER    (3) Torsional Free Energy           =   +3.58 kcal/mol
USER    (4) Unbound System's Energy  [=(2)] =   -2.72 kcal/mol
USER    
USER    
USER  
USER    DPF = D:/Protein_go_brrr/autodock/final/mut_N102T/heme_Co/dock.dpf
USER    NEWDPF move	heme_Co_opt.pdbqt
USER    NEWDPF about	8.781000 34.984000 -0.736000
USER    NEWDPF tran0	14.728417 3.669892 11.788191
USER    NEWDPF axisangle0	-0.920601 -0.269935 0.282185 111.701927
USER    NEWDPF quaternion0	-0.761871 -0.223393 0.233531 0.561347
USER    NEWDPF dihe0	-161.57 112.32 -101.73 54.64 -87.62 115.64 13.04 -173.16 -79.22 47.75 -175.97 177.99 
USER  
USER                              x       y       z    vdW   Elec        q     RMS 
ATOM      1  C   UNL d   1      13.588   4.200  13.558 +0.01 +0.03    +0.064    31.397
ATOM      2  C   UNL d   1      12.588   1.432   9.823 -0.28 +0.02    +0.064    31.397
ATOM      3  C   UNL d   1      16.710   2.676   7.751 -0.05 +0.01    +0.064    31.397
ATOM      4  C   UNL d   1      17.928   5.206  11.723 -0.02 +0.01    +0.064    31.397
ATOM      5  C   UNL d   1      12.995   3.380  12.674 -0.20 +0.03    +0.066    31.397
ATOM      6  C   UNL d   1      11.774   2.737  12.953 -0.30 -0.01    -0.021    31.397
ATOM      7  C   UNL d   1      11.500   1.918  11.875 -0.29 -0.01    -0.025    31.397
ATOM      8  C   UNL d   1      12.557   2.108  10.979 -0.21 +0.02    +0.066    31.397
ATOM      9  C   UNL d   1      10.294   0.985  11.683 -0.26 +0.02    +0.051    31.397
ATOM     10  C   UNL d   1      13.621   1.582   8.828 -0.20 +0.02    +0.066    31.397
ATOM     11  C   UNL d   1      13.639   1.008   7.538 -0.27 -0.01    -0.021    31.397
ATOM     12  C   UNL d   1      14.850   1.391   6.954 -0.20 +0.00    +0.000    31.397
ATOM     13  C   UNL d   1      15.473   2.177   7.923 -0.10 +0.01    +0.070    31.397
ATOM     14  C   UNL d   1      12.521   0.231   6.892 -0.07 +0.02    +0.052    31.397
ATOM     15  C   UNL d   1      17.520   3.460   8.662 -0.03 +0.01    +0.066    31.397
ATOM     16  C   UNL d   1      18.848   3.822   8.479 -0.01 -0.00    -0.021    31.397
ATOM     17  C   UNL d   1      19.204   4.550   9.624 -0.01 +0.00    +0.000    31.397
ATOM     18  C   UNL d   1      18.057   4.589  10.409 -0.02 +0.01    +0.070    31.397
ATOM     19  C   UNL d   1      19.693   3.475   7.274 -0.00 +0.00    +0.052    31.397
ATOM     20  C   UNL d   1      16.850   5.182  12.543 -0.04 +0.01    +0.066    31.397
ATOM     21  C   UNL d   1      16.859   5.782  13.800 -0.04 -0.01    -0.025    31.397
ATOM     22  C   UNL d   1      15.611   5.533  14.341 -0.10 -0.01    -0.021    31.397
ATOM     23  C   UNL d   1      14.901   4.777  13.384 -0.12 +0.02    +0.066    31.397
ATOM     24  C   UNL d   1      18.007   6.538  14.464 -0.02 +0.01    +0.051    31.397
ATOM     25  N   UNL d   1      13.495   3.014  11.445 -0.10 -0.07    -0.248    31.397
ATOM     26  N   UNL d   1      14.704   2.338   9.033 -0.06 -0.05    -0.248    31.397
ATOM     27  N   UNL d   1      17.083   3.904   9.819 -0.02 -0.03    -0.248    31.397
ATOM     28  N   UNL d   1      15.648   4.561  12.295 -0.04 -0.06    -0.248    31.397
ATOM     29 FE   UNL d   1      15.396   3.488  10.586 -0.02 +0.00    +0.000    31.397
ATOM     30  C   UNL d   1      10.958   2.851  14.236 -0.34 +0.03    +0.052    31.397
ATOM     31  C   UNL d   1      11.355   1.753  15.224 -0.24 +0.05    +0.115    31.397
ATOM     32  C   UNL d   1      12.323   2.246  16.277 -0.17 +0.09    +0.139    31.397
ATOM     33  O   UNL d   1      13.447   1.769  16.330 +0.02 -0.27    -0.650    31.397
ATOM     34  O   UNL d   1      12.002   3.239  17.138 -0.06 -1.09    -0.776    31.397
ATOM     35  H   UNL d   1      12.644   3.714  17.685 +0.02 +0.25    +0.167    31.397
ATOM     36  C   UNL d   1      16.127   1.766  11.533 -0.01 +0.03    +0.190    31.397
ATOM     37  O   UNL d   1      16.042   1.023  12.715 +0.00 -0.07    -0.399    31.397
ATOM     38  H   UNL d   1      15.404   1.530  13.291 +0.01 +0.04    +0.209    31.397
ATOM     39  C   UNL d   1      15.155   5.945  15.728 -0.07 +0.03    +0.052    31.397
ATOM     40  C   UNL d   1      15.677   4.958  16.786 -0.06 +0.05    +0.115    31.397
ATOM     41  C   UNL d   1      14.665   4.590  17.850 -0.07 +0.10    +0.139    31.397
ATOM     42  O   UNL d   1      13.866   5.433  18.233 -0.34 -0.94    -0.650    31.397
ATOM     43  O   UNL d   1      14.563   3.330  18.328 +0.02 -0.37    -0.776    31.397
ATOM     44  H   UNL d   1      13.925   2.693  17.980 +0.02 +0.08    +0.167    31.397
ATOM     45  C   UNL d   1      15.477   1.121   5.593 -0.21 +0.00    +0.004    31.397
ATOM     46  C   UNL d   1      14.957   1.189   4.371 -0.33 +0.00    +0.012    31.397
ATOM     47  C   UNL d   1      20.523   5.134  10.010 -0.00 +0.00    +0.004    31.397
ATOM     48  C   UNL d   1      21.282   4.653  10.998 +0.00 +0.00    +0.012    31.397
TER
ENDMDL
MODEL       90
USER    Run = 90
USER    Cluster Rank = 45
USER    Number of conformations in this cluster = 1
USER  
USER    RMSD from reference structure       = 27.868 A
USER  
USER    Estimated Free Energy of Binding    =   -3.14 kcal/mol  [=(1)+(2)+(3)-(4)]
USER    Estimated Inhibition Constant, Ki   =    5.01 mM (millimolar)  [Temperature = 298.15 K]
USER    
USER    (1) Final Intermolecular Energy     =   -6.72 kcal/mol
USER        vdW + Hbond + desolv Energy     =   -6.93 kcal/mol
USER        Electrostatic Energy            =   +0.21 kcal/mol
USER    (2) Final Total Internal Energy     =   -1.97 kcal/mol
USER    (3) Torsional Free Energy           =   +3.58 kcal/mol
USER    (4) Unbound System's Energy  [=(2)] =   -1.97 kcal/mol
USER    
USER    
USER  
USER    DPF = D:/Protein_go_brrr/autodock/final/mut_N102T/heme_Co/dock.dpf
USER    NEWDPF move	heme_Co_opt.pdbqt
USER    NEWDPF about	8.781000 34.984000 -0.736000
USER    NEWDPF tran0	-6.489058 11.827441 -13.087162
USER    NEWDPF axisangle0	-0.791973 -0.030893 -0.609773 -177.968835
USER    NEWDPF quaternion0	-0.791849 -0.030888 -0.609678 -0.017724
USER    NEWDPF dihe0	-171.50 70.04 -68.25 55.09 135.84 148.62 24.83 123.84 178.22 148.12 -167.71 -9.99 
USER  
USER                              x       y       z    vdW   Elec        q     RMS 
ATOM      1  C   UNL d   1      -7.766  11.221 -14.735 -0.09 -0.00    +0.064    27.868
ATOM      2  C   UNL d   1      -4.031  14.154 -14.500 -0.22 +0.00    +0.064    27.868
ATOM      3  C   UNL d   1      -3.863  13.619  -9.755 -0.22 -0.01    +0.064    27.868
ATOM      4  C   UNL d   1      -7.430  10.322 -10.013 -0.11 -0.00    +0.064    27.868
ATOM      5  C   UNL d   1      -6.781  12.090 -15.015 -0.08 -0.00    +0.066    27.868
ATOM      6  C   UNL d   1      -6.459  12.454 -16.337 -0.11 -0.00    -0.021    27.868
ATOM      7  C   UNL d   1      -5.360  13.287 -16.265 -0.18 -0.00    -0.025    27.868
ATOM      8  C   UNL d   1      -5.069  13.409 -14.902 -0.17 +0.00    +0.066    27.868
ATOM      9  C   UNL d   1      -4.602  13.950 -17.424 -0.18 +0.01    +0.051    27.868
ATOM     10  C   UNL d   1      -3.671  14.359 -13.119 -0.14 +0.00    +0.066    27.868
ATOM     11  C   UNL d   1      -2.683  15.239 -12.626 -0.13 -0.00    -0.021    27.868
ATOM     12  C   UNL d   1      -2.658  15.066 -11.240 -0.23 -0.00    +0.000    27.868
ATOM     13  C   UNL d   1      -3.638  14.105 -10.988 -0.20 -0.01    +0.070    27.868
ATOM     14  C   UNL d   1      -1.895  16.238 -13.434 -0.16 +0.01    +0.052    27.868
ATOM     15  C   UNL d   1      -4.793  12.594  -9.325 -0.19 -0.00    +0.066    27.868
ATOM     16  C   UNL d   1      -4.874  12.034  -8.058 -0.25 +0.00    -0.021    27.868
ATOM     17  C   UNL d   1      -5.900  11.081  -8.128 -0.20 -0.00    +0.000    27.868
ATOM     18  C   UNL d   1      -6.377  11.147  -9.433 -0.10 -0.00    +0.070    27.868
ATOM     19  C   UNL d   1      -4.008  12.410  -6.877 -0.36 -0.00    +0.052    27.868
ATOM     20  C   UNL d   1      -7.851  10.308 -11.300 -0.10 -0.01    +0.066    27.868
ATOM     21  C   UNL d   1      -8.848   9.443 -11.747 -0.12 +0.00    -0.025    27.868
ATOM     22  C   UNL d   1      -8.987   9.700 -13.098 -0.12 +0.00    -0.021    27.868
ATOM     23  C   UNL d   1      -8.052  10.708 -13.415 -0.08 -0.00    +0.066    27.868
ATOM     24  C   UNL d   1      -9.617   8.408 -10.930 -0.08 -0.00    +0.051    27.868
ATOM     25  N   UNL d   1      -5.937  12.683 -14.104 -0.05 +0.01    -0.248    27.868
ATOM     26  N   UNL d   1      -4.288  13.721 -12.119 -0.10 +0.01    -0.248    27.868
ATOM     27  N   UNL d   1      -5.675  12.037 -10.125 -0.08 +0.01    -0.248    27.868
ATOM     28  N   UNL d   1      -7.361  11.077 -12.329 -0.03 +0.02    -0.248    27.868
ATOM     29 FE   UNL d   1      -5.801  12.339 -11.997 -0.03 -0.00    +0.000    27.868
ATOM     30  C   UNL d   1      -7.134  11.951 -17.609 -0.11 +0.00    +0.052    27.868
ATOM     31  C   UNL d   1      -6.543  10.607 -18.035 -0.21 +0.01    +0.115    27.868
ATOM     32  C   UNL d   1      -5.396  10.173 -17.148 -0.37 -0.00    +0.139    27.868
ATOM     33  O   UNL d   1      -4.250  10.263 -17.560 -0.17 +0.07    -0.650    27.868
ATOM     34  O   UNL d   1      -5.594   9.731 -15.884 +0.15 +0.17    -0.776    27.868
ATOM     35  H   UNL d   1      -4.883   9.503 -15.270 -0.27 -0.11    +0.167    27.868
ATOM     36  C   UNL d   1      -4.439  10.811 -12.448 -0.33 -0.04    +0.190    27.868
ATOM     37  O   UNL d   1      -3.866  10.107 -13.513 -0.20 +0.18    -0.399    27.868
ATOM     38  H   UNL d   1      -4.624   9.917 -14.132 -0.23 -0.12    +0.209    27.868
ATOM     39  C   UNL d   1      -9.922   8.967 -14.042 -0.15 -0.00    +0.052    27.868
ATOM     40  C   UNL d   1     -11.282   9.681 -14.121 -0.05 -0.00    +0.115    27.868
ATOM     41  C   UNL d   1     -11.759  10.265 -12.808 -0.01 -0.00    +0.139    27.868
ATOM     42  O   UNL d   1     -12.562   9.637 -12.131 +0.01 +0.01    -0.650    27.868
ATOM     43  O   UNL d   1     -11.257  11.420 -12.320 +0.01 +0.01    -0.776    27.868
ATOM     44  H   UNL d   1     -10.324  11.525 -12.090 +0.01 -0.00    +0.167    27.868
ATOM     45  C   UNL d   1      -1.838  15.707 -10.128 -0.30 -0.00    +0.004    27.868
ATOM     46  C   UNL d   1      -1.551  16.984  -9.890 -0.19 -0.00    +0.012    27.868
ATOM     47  C   UNL d   1      -6.388  10.127  -7.088 -0.27 -0.00    +0.004    27.868
ATOM     48  C   UNL d   1      -7.608  10.186  -6.548 -0.14 -0.00    +0.012    27.868
TER
ENDMDL
MODEL       25
USER    Run = 25
USER    Cluster Rank = 46
USER    Number of conformations in this cluster = 1
USER  
USER    RMSD from reference structure       = 30.982 A
USER  
USER    Estimated Free Energy of Binding    =   -3.07 kcal/mol  [=(1)+(2)+(3)-(4)]
USER    Estimated Inhibition Constant, Ki   =    5.65 mM (millimolar)  [Temperature = 298.15 K]
USER    
USER    (1) Final Intermolecular Energy     =   -6.65 kcal/mol
USER        vdW + Hbond + desolv Energy     =   -6.81 kcal/mol
USER        Electrostatic Energy            =   +0.16 kcal/mol
USER    (2) Final Total Internal Energy     =   -2.24 kcal/mol
USER    (3) Torsional Free Energy           =   +3.58 kcal/mol
USER    (4) Unbound System's Energy  [=(2)] =   -2.24 kcal/mol
USER    
USER    
USER  
USER    DPF = D:/Protein_go_brrr/autodock/final/mut_N102T/heme_Co/dock.dpf
USER    NEWDPF move	heme_Co_opt.pdbqt
USER    NEWDPF about	8.781000 34.984000 -0.736000
USER    NEWDPF tran0	-7.213293 9.861244 15.311926
USER    NEWDPF axisangle0	0.530689 -0.650166 -0.543740 -69.727185
USER    NEWDPF quaternion0	0.303355 -0.371651 -0.310815 -0.820515
USER    NEWDPF dihe0	158.03 132.37 157.70 118.83 73.35 132.79 -130.62 132.34 -133.28 -124.56 -179.23 -23.97 
USER  
USER                              x       y       z    vdW   Elec        q     RMS 
ATOM      1  C   UNL d   1      -7.419  11.822  14.402 +0.00 -0.00    +0.064    30.982
ATOM      2  C   UNL d   1     -10.490   8.243  15.009 -0.11 +0.00    +0.064    30.982
ATOM      3  C   UNL d   1      -7.006   5.507  16.798 -0.23 +0.00    +0.064    30.982
ATOM      4  C   UNL d   1      -3.937   9.273  16.546 -0.14 -0.02    +0.064    30.982
ATOM      5  C   UNL d   1      -8.506  11.033  14.403 -0.05 -0.00    +0.066    30.982
ATOM      6  C   UNL d   1      -9.773  11.506  14.009 -0.09 +0.00    -0.021    30.982
ATOM      7  C   UNL d   1     -10.665  10.470  14.209 -0.08 +0.00    -0.025    30.982
ATOM      8  C   UNL d   1      -9.902   9.405  14.700 -0.12 +0.00    +0.066    30.982
ATOM      9  C   UNL d   1     -12.180  10.468  13.953 -0.03 -0.00    +0.051    30.982
ATOM     10  C   UNL d   1      -9.784   7.085  15.495 -0.15 +0.00    +0.066    30.982
ATOM     11  C   UNL d   1     -10.320   5.795  15.704 -0.13 -0.00    -0.021    30.982
ATOM     12  C   UNL d   1      -9.281   5.016  16.222 -0.13 +0.00    +0.000    30.982
ATOM     13  C   UNL d   1      -8.188   5.882  16.279 -0.13 +0.01    +0.070    30.982
ATOM     14  C   UNL d   1     -11.707   5.336  15.337 -0.09 +0.00    +0.052    30.982
ATOM     15  C   UNL d   1      -5.795   6.281  16.981 -0.27 -0.00    +0.066    30.982
ATOM     16  C   UNL d   1      -4.652   5.876  17.657 -0.28 +0.00    -0.021    30.982
ATOM     17  C   UNL d   1      -3.765   6.960  17.589 -0.28 -0.00    +0.000    30.982
ATOM     18  C   UNL d   1      -4.432   7.938  16.860 -0.26 -0.02    +0.070    30.982
ATOM     19  C   UNL d   1      -4.455   4.529  18.316 -0.18 -0.00    +0.052    30.982
ATOM     20  C   UNL d   1      -4.600  10.270  15.914 -0.24 -0.02    +0.066    30.982
ATOM     21  C   UNL d   1      -4.030  11.524  15.701 -0.29 +0.01    -0.025    30.982
ATOM     22  C   UNL d   1      -5.001  12.271  15.059 -0.23 +0.00    -0.021    30.982
ATOM     23  C   UNL d   1      -6.128  11.433  14.921 -0.08 -0.01    +0.066    30.982
ATOM     24  C   UNL d   1      -2.636  11.994  16.108 -0.25 -0.02    +0.051    30.982
ATOM     25  N   UNL d   1      -8.560   9.724  14.825 -0.11 -0.00    -0.248    30.982
ATOM     26  N   UNL d   1      -8.479   7.116  15.786 -0.16 -0.01    -0.248    30.982
ATOM     27  N   UNL d   1      -5.649   7.511  16.540 -0.18 +0.03    -0.248    30.982
ATOM     28  N   UNL d   1      -5.890  10.222  15.439 -0.09 +0.02    -0.248    30.982
ATOM     29 FE   UNL d   1      -7.016   8.555  15.733 -0.05 -0.00    +0.000    30.982
ATOM     30  C   UNL d   1     -10.112  12.918  13.542 -0.05 -0.00    +0.052    30.982
ATOM     31  C   UNL d   1     -10.625  13.761  14.709 -0.01 -0.01    +0.115    30.982
ATOM     32  C   UNL d   1      -9.785  13.591  15.956 -0.01 -0.01    +0.139    30.982
ATOM     33  O   UNL d   1      -8.946  14.435  16.235 +0.01 +0.05    -0.650    30.982
ATOM     34  O   UNL d   1      -9.965  12.554  16.807 +0.01 +0.04    -0.776    30.982
ATOM     35  H   UNL d   1      -9.275  12.196  17.382 +0.01 -0.01    +0.167    30.982
ATOM     36  C   UNL d   1      -7.687   9.303  17.572 -0.04 -0.01    +0.190    30.982
ATOM     37  O   UNL d   1      -8.397  10.358  18.154 +0.00 +0.02    -0.399    30.982
ATOM     38  H   UNL d   1      -8.923  10.756  17.406 +0.02 -0.01    +0.209    30.982
ATOM     39  C   UNL d   1      -4.869  13.729  14.662 -0.21 -0.01    +0.052    30.982
ATOM     40  C   UNL d   1      -4.011  13.870  13.393 -0.32 -0.03    +0.115    30.982
ATOM     41  C   UNL d   1      -4.424  12.961  12.255 -0.39 -0.02    +0.139    30.982
ATOM     42  O   UNL d   1      -3.933  11.844  12.173 -0.09 +0.10    -0.650    30.982
ATOM     43  O   UNL d   1      -5.386  13.317  11.376 +0.05 +0.13    -0.776    30.982
ATOM     44  H   UNL d   1      -5.508  12.867  10.529 -0.20 -0.05    +0.167    30.982
ATOM     45  C   UNL d   1      -9.191   3.558  16.650 -0.19 +0.00    +0.004    30.982
ATOM     46  C   UNL d   1      -8.546   2.532  16.100 -0.30 +0.01    +0.012    30.982
ATOM     47  C   UNL d   1      -2.409   7.121  18.193 -0.27 -0.00    +0.004    30.982
ATOM     48  C   UNL d   1      -1.425   6.232  18.044 -0.39 -0.00    +0.012    30.982
TER
ENDMDL
MODEL       14
USER    Run = 14
USER    Cluster Rank = 47
USER    Number of conformations in this cluster = 1
USER  
USER    RMSD from reference structure       = 27.797 A
USER  
USER    Estimated Free Energy of Binding    =   -3.06 kcal/mol  [=(1)+(2)+(3)-(4)]
USER    Estimated Inhibition Constant, Ki   =    5.71 mM (millimolar)  [Temperature = 298.15 K]
USER    
USER    (1) Final Intermolecular Energy     =   -6.64 kcal/mol
USER        vdW + Hbond + desolv Energy     =   -6.82 kcal/mol
USER        Electrostatic Energy            =   +0.18 kcal/mol
USER    (2) Final Total Internal Energy     =   -2.26 kcal/mol
USER    (3) Torsional Free Energy           =   +3.58 kcal/mol
USER    (4) Unbound System's Energy  [=(2)] =   -2.26 kcal/mol
USER    
USER    
USER  
USER    DPF = D:/Protein_go_brrr/autodock/final/mut_N102T/heme_Co/dock.dpf
USER    NEWDPF move	heme_Co_opt.pdbqt
USER    NEWDPF about	8.781000 34.984000 -0.736000
USER    NEWDPF tran0	11.715290 9.280194 -12.010300
USER    NEWDPF axisangle0	0.167242 0.984491 0.052989 -117.172917
USER    NEWDPF quaternion0	0.142729 0.840192 0.045223 -0.521211
USER    NEWDPF dihe0	157.93 135.40 71.21 116.82 137.82 128.21 -133.51 -64.52 -131.37 -170.16 -175.51 -16.25 
USER  
USER                              x       y       z    vdW   Elec        q     RMS 
ATOM      1  C   UNL d   1      11.861   9.263  -9.844 -0.17 -0.02    +0.064    27.797
ATOM      2  C   UNL d   1      14.144   6.812 -13.218 -0.18 -0.01    +0.064    27.797
ATOM      3  C   UNL d   1      11.372   8.780 -16.576 -0.12 +0.01    +0.064    27.797
ATOM      4  C   UNL d   1       9.285  11.582 -13.192 -0.13 -0.01    +0.064    27.797
ATOM      5  C   UNL d   1      12.664   8.422 -10.515 -0.18 -0.02    +0.066    27.797
ATOM      6  C   UNL d   1      13.687   7.695  -9.876 -0.25 +0.00    -0.021    27.797
ATOM      7  C   UNL d   1      14.361   7.003 -10.863 -0.16 +0.00    -0.025    27.797
ATOM      8  C   UNL d   1      13.711   7.324 -12.059 -0.19 -0.01    +0.066    27.797
ATOM      9  C   UNL d   1      15.573   6.073 -10.702 -0.08 -0.01    +0.051    27.797
ATOM     10  C   UNL d   1      13.523   7.064 -14.495 -0.17 -0.01    +0.066    27.797
ATOM     11  C   UNL d   1      13.842   6.448 -15.725 -0.13 +0.00    -0.021    27.797
ATOM     12  C   UNL d   1      13.016   7.038 -16.686 -0.13 +0.00    +0.000    27.797
ATOM     13  C   UNL d   1      12.248   7.958 -15.971 -0.11 +0.01    +0.070    27.797
ATOM     14  C   UNL d   1      14.806   5.308 -15.928 -0.08 -0.00    +0.052    27.797
ATOM     15  C   UNL d   1      10.540   9.819 -16.003 -0.14 +0.01    +0.066    27.797
ATOM     16  C   UNL d   1       9.764  10.732 -16.703 -0.15 +0.00    -0.021    27.797
ATOM     17  C   UNL d   1       9.162  11.544 -15.732 -0.14 -0.00    +0.000    27.797
ATOM     18  C   UNL d   1       9.606  11.050 -14.510 -0.14 -0.01    +0.070    27.797
ATOM     19  C   UNL d   1       9.631  10.797 -18.208 -0.13 +0.00    +0.052    27.797
ATOM     20  C   UNL d   1       9.772  11.173 -11.996 -0.15 -0.02    +0.066    27.797
ATOM     21  C   UNL d   1       9.416  11.788 -10.798 -0.15 +0.01    -0.025    27.797
ATOM     22  C   UNL d   1      10.121  11.122  -9.812 -0.21 +0.01    -0.021    27.797
ATOM     23  C   UNL d   1      10.888  10.133 -10.464 -0.20 -0.02    +0.066    27.797
ATOM     24  C   UNL d   1       8.465  12.966 -10.603 -0.16 -0.02    +0.051    27.797
ATOM     25  N   UNL d   1      12.652   8.196 -11.873 -0.14 +0.06    -0.248    27.797
ATOM     26  N   UNL d   1      12.516   7.932 -14.638 -0.15 +0.01    -0.248    27.797
ATOM     27  N   UNL d   1      10.449  10.042 -14.711 -0.13 +0.01    -0.248    27.797
ATOM     28  N   UNL d   1      10.682  10.163 -11.787 -0.13 +0.07    -0.248    27.797
ATOM     29 FE   UNL d   1      11.483   9.176 -13.373 -0.05 -0.00    +0.000    27.797
ATOM     30  C   UNL d   1      14.043   7.738  -8.393 -0.19 -0.01    +0.052    27.797
ATOM     31  C   UNL d   1      15.105   8.803  -8.126 -0.13 -0.02    +0.115    27.797
ATOM     32  C   UNL d   1      14.786  10.119  -8.802 -0.09 -0.02    +0.139    27.797
ATOM     33  O   UNL d   1      14.237  11.005  -8.163 -0.07 +0.11    -0.650    27.797
ATOM     34  O   UNL d   1      15.133  10.370 -10.086 +0.04 +0.10    -0.776    27.797
ATOM     35  H   UNL d   1      14.669  10.992 -10.663 +0.02 -0.02    +0.167    27.797
ATOM     36  C   UNL d   1      13.030  10.585 -13.499 -0.04 -0.02    +0.190    27.797
ATOM     37  O   UNL d   1      14.068  11.168 -12.765 +0.00 +0.04    -0.399    27.797
ATOM     38  H   UNL d   1      14.269  10.513 -12.040 +0.03 -0.03    +0.209    27.797
ATOM     39  C   UNL d   1      10.104  11.464  -8.334 -0.30 -0.04    +0.052    27.797
ATOM     40  C   UNL d   1       8.914  10.787  -7.634 -0.38 -0.08    +0.115    27.797
ATOM     41  C   UNL d   1       8.104   9.869  -8.525 -0.49 -0.04    +0.139    27.797
ATOM     42  O   UNL d   1       8.568   8.785  -8.847 -0.67 +0.01    -0.650    27.797
ATOM     43  O   UNL d   1       6.845  10.179  -8.906 +0.13 +0.17    -0.776    27.797
ATOM     44  H   UNL d   1       6.655  10.819  -9.604 +0.09 -0.04    +0.167    27.797
ATOM     45  C   UNL d   1      12.852   6.826 -18.185 -0.10 +0.00    +0.004    27.797
ATOM     46  C   UNL d   1      11.864   6.264 -18.877 -0.13 +0.00    +0.012    27.797
ATOM     47  C   UNL d   1       8.274  12.733 -15.899 -0.11 -0.00    +0.004    27.797
ATOM     48  C   UNL d   1       7.004  12.769 -15.487 -0.17 -0.01    +0.012    27.797
TER
ENDMDL
MODEL       73
USER    Run = 73
USER    Cluster Rank = 48
USER    Number of conformations in this cluster = 3
USER  
USER    RMSD from reference structure       = 34.427 A
USER  
USER    Estimated Free Energy of Binding    =   -2.87 kcal/mol  [=(1)+(2)+(3)-(4)]
USER    Estimated Inhibition Constant, Ki   =    7.81 mM (millimolar)  [Temperature = 298.15 K]
USER    
USER    (1) Final Intermolecular Energy     =   -6.45 kcal/mol
USER        vdW + Hbond + desolv Energy     =   -6.50 kcal/mol
USER        Electrostatic Energy            =   +0.05 kcal/mol
USER    (2) Final Total Internal Energy     =   -3.47 kcal/mol
USER    (3) Torsional Free Energy           =   +3.58 kcal/mol
USER    (4) Unbound System's Energy  [=(2)] =   -3.47 kcal/mol
USER    
USER    
USER  
USER    DPF = D:/Protein_go_brrr/autodock/final/mut_N102T/heme_Co/dock.dpf
USER    NEWDPF move	heme_Co_opt.pdbqt
USER    NEWDPF about	8.781000 34.984000 -0.736000
USER    NEWDPF tran0	-11.146775 6.143496 11.109171
USER    NEWDPF axisangle0	-0.557370 0.809473 0.184643 134.167206
USER    NEWDPF quaternion0	-0.513379 0.745584 0.170070 0.389388
USER    NEWDPF dihe0	28.85 87.22 138.36 126.90 134.03 123.68 44.71 -54.83 162.64 134.46 -159.87 -179.96 
USER  
USER                              x       y       z    vdW   Elec        q     RMS 
ATOM      1  C   UNL d   1     -10.492   8.212  11.193 -0.25 +0.00    +0.064    34.427
ATOM      2  C   UNL d   1     -11.843   5.432   7.579 -0.25 -0.00    +0.064    34.427
ATOM      3  C   UNL d   1     -12.179   1.692  10.534 -0.20 -0.01    +0.064    34.427
ATOM      4  C   UNL d   1     -11.177   4.597  14.305 -0.13 +0.01    +0.064    34.427
ATOM      5  C   UNL d   1     -10.802   7.719   9.982 -0.30 -0.00    +0.066    34.427
ATOM      6  C   UNL d   1     -10.885   8.539   8.840 -0.26 +0.00    -0.021    34.427
ATOM      7  C   UNL d   1     -11.300   7.731   7.799 -0.27 +0.00    -0.025    34.427
ATOM      8  C   UNL d   1     -11.435   6.451   8.346 -0.26 -0.00    +0.066    34.427
ATOM      9  C   UNL d   1     -11.563   8.135   6.340 -0.25 -0.01    +0.051    34.427
ATOM     10  C   UNL d   1     -11.986   4.076   8.048 -0.24 -0.00    +0.066    34.427
ATOM     11  C   UNL d   1     -12.274   2.938   7.263 -0.23 +0.00    -0.021    34.427
ATOM     12  C   UNL d   1     -12.362   1.861   8.149 -0.22 -0.00    +0.000    34.427
ATOM     13  C   UNL d   1     -12.110   2.417   9.404 -0.19 -0.01    +0.070    34.427
ATOM     14  C   UNL d   1     -12.358   2.890   5.759 -0.24 -0.00    +0.052    34.427
ATOM     15  C   UNL d   1     -12.001   2.113  11.910 -0.19 -0.00    +0.066    34.427
ATOM     16  C   UNL d   1     -12.229   1.344  13.042 -0.13 +0.00    -0.021    34.427
ATOM     17  C   UNL d   1     -11.943   2.179  14.132 -0.13 +0.00    +0.000    34.427
ATOM     18  C   UNL d   1     -11.546   3.390  13.576 -0.13 +0.00    +0.070    34.427
ATOM     19  C   UNL d   1     -12.692  -0.096  13.046 -0.07 -0.00    +0.052    34.427
ATOM     20  C   UNL d   1     -10.871   5.811  13.787 -0.11 +0.01    +0.066    34.427
ATOM     21  C   UNL d   1     -10.566   6.907  14.592 -0.17 -0.00    -0.025    34.427
ATOM     22  C   UNL d   1     -10.336   7.956  13.721 -0.22 -0.00    -0.021    34.427
ATOM     23  C   UNL d   1     -10.525   7.448  12.418 -0.28 +0.00    +0.066    34.427
ATOM     24  C   UNL d   1     -10.517   6.958  16.116 -0.09 +0.00    +0.051    34.427
ATOM     25  N   UNL d   1     -11.127   6.413   9.696 -0.20 +0.00    -0.248    34.427
ATOM     26  N   UNL d   1     -11.828   3.746   9.334 -0.15 +0.01    -0.248    34.427
ATOM     27  N   UNL d   1     -11.622   3.324  12.252 -0.05 -0.00    -0.248    34.427
ATOM     28  N   UNL d   1     -10.851   6.150  12.454 -0.14 -0.02    -0.248    34.427
ATOM     29 FE   UNL d   1     -11.388   4.779  11.052 -0.06 -0.00    +0.000    34.427
ATOM     30  C   UNL d   1     -10.655  10.046   8.783 -0.21 -0.01    +0.052    34.427
ATOM     31  C   UNL d   1     -11.852  10.795   9.367 -0.08 -0.01    +0.115    34.427
ATOM     32  C   UNL d   1     -13.101   9.941   9.413 -0.03 -0.01    +0.139    34.427
ATOM     33  O   UNL d   1     -13.812   9.864   8.423 +0.02 +0.03    -0.650    34.427
ATOM     34  O   UNL d   1     -13.435   9.216  10.506 +0.04 +0.03    -0.776    34.427
ATOM     35  H   UNL d   1     -13.147   9.424  11.405 +0.02 -0.01    +0.167    34.427
ATOM     36  C   UNL d   1     -13.392   5.373  11.206 -0.06 -0.01    +0.190    34.427
ATOM     37  O   UNL d   1     -14.229   6.493  11.159 +0.00 +0.01    -0.399    34.427
ATOM     38  H   UNL d   1     -13.648   7.259  11.424 +0.03 -0.01    +0.209    34.427
ATOM     39  C   UNL d   1     -10.018   9.383  14.128 -0.16 +0.00    +0.052    34.427
ATOM     40  C   UNL d   1     -11.295  10.123  14.557 -0.04 -0.00    +0.115    34.427
ATOM     41  C   UNL d   1     -12.433  10.034  13.563 -0.02 -0.00    +0.139    34.427
ATOM     42  O   UNL d   1     -13.160   9.051  13.572 +0.02 +0.02    -0.650    34.427
ATOM     43  O   UNL d   1     -12.723  11.051  12.721 +0.02 +0.03    -0.776    34.427
ATOM     44  H   UNL d   1     -13.040  10.906  11.821 +0.01 -0.01    +0.167    34.427
ATOM     45  C   UNL d   1     -12.635   0.376   7.954 -0.21 -0.00    +0.004    34.427
ATOM     46  C   UNL d   1     -11.880  -0.686   8.224 -0.22 -0.00    +0.012    34.427
ATOM     47  C   UNL d   1     -12.071   1.912  15.596 -0.08 +0.00    +0.004    34.427
ATOM     48  C   UNL d   1     -11.026   1.820  16.423 -0.11 +0.00    +0.012    34.427
TER
ENDMDL
MODEL       34
USER    Run = 34
USER    Cluster Rank = 49
USER    Number of conformations in this cluster = 1
USER  
USER    RMSD from reference structure       = 35.051 A
USER  
USER    Estimated Free Energy of Binding    =   -2.81 kcal/mol  [=(1)+(2)+(3)-(4)]
USER    Estimated Inhibition Constant, Ki   =    8.71 mM (millimolar)  [Temperature = 298.15 K]
USER    
USER    (1) Final Intermolecular Energy     =   -6.39 kcal/mol
USER        vdW + Hbond + desolv Energy     =   -6.48 kcal/mol
USER        Electrostatic Energy            =   +0.09 kcal/mol
USER    (2) Final Total Internal Energy     =   -3.99 kcal/mol
USER    (3) Torsional Free Energy           =   +3.58 kcal/mol
USER    (4) Unbound System's Energy  [=(2)] =   -3.99 kcal/mol
USER    
USER    
USER  
USER    DPF = D:/Protein_go_brrr/autodock/final/mut_N102T/heme_Co/dock.dpf
USER    NEWDPF move	heme_Co_opt.pdbqt
USER    NEWDPF about	8.781000 34.984000 -0.736000
USER    NEWDPF tran0	13.063703 -0.118335 -8.260393
USER    NEWDPF axisangle0	0.613656 -0.141473 0.776796 122.192545
USER    NEWDPF quaternion0	0.537215 -0.123850 0.680033 0.483339
USER    NEWDPF dihe0	140.25 107.97 -59.82 104.09 158.78 109.48 -125.70 -20.05 -126.97 -168.79 -174.07 171.35 
USER  
USER                              x       y       z    vdW   Elec        q     RMS 
ATOM      1  C   UNL d   1      12.517   0.862 -10.119 -0.28 -0.01    +0.064    35.051
ATOM      2  C   UNL d   1      14.354   2.513  -6.056 -0.17 -0.01    +0.064    35.051
ATOM      3  C   UNL d   1      13.945  -1.813  -4.069 -0.16 -0.01    +0.064    35.051
ATOM      4  C   UNL d   1      12.427  -3.610  -8.327 -0.17 -0.01    +0.064    35.051
ATOM      5  C   UNL d   1      13.015   1.639  -9.143 -0.24 -0.02    +0.066    35.051
ATOM      6  C   UNL d   1      13.349   2.990  -9.361 -0.27 +0.01    -0.021    35.051
ATOM      7  C   UNL d   1      13.903   3.458  -8.186 -0.23 +0.01    -0.025    35.051
ATOM      8  C   UNL d   1      13.868   2.379  -7.296 -0.18 -0.01    +0.066    35.051
ATOM      9  C   UNL d   1      14.450   4.864  -7.895 -0.25 -0.01    +0.051    35.051
ATOM     10  C   UNL d   1      14.337   1.467  -5.064 -0.10 -0.01    +0.066    35.051
ATOM     11  C   UNL d   1      14.701   1.586  -3.705 -0.21 +0.00    -0.021    35.051
ATOM     12  C   UNL d   1      14.569   0.311  -3.149 -0.19 -0.00    +0.000    35.051
ATOM     13  C   UNL d   1      14.122  -0.486  -4.203 -0.15 -0.01    +0.070    35.051
ATOM     14  C   UNL d   1      15.057   2.862  -2.986 -0.25 -0.02    +0.052    35.051
ATOM     15  C   UNL d   1      13.541  -2.791  -5.060 -0.16 -0.02    +0.066    35.051
ATOM     16  C   UNL d   1      13.517  -4.169  -4.894 -0.22 +0.01    -0.021    35.051
ATOM     17  C   UNL d   1      13.082  -4.692  -6.120 -0.21 -0.00    +0.000    35.051
ATOM     18  C   UNL d   1      12.858  -3.587  -6.935 +0.03 -0.01    +0.070    35.051
ATOM     19  C   UNL d   1      13.894  -4.906  -3.629 -0.17 -0.05    +0.052    35.051
ATOM     20  C   UNL d   1      12.286  -2.555  -9.164 -0.17 -0.01    +0.066    35.051
ATOM     21  C   UNL d   1      11.898  -2.707 -10.494 -0.16 +0.00    -0.025    35.051
ATOM     22  C   UNL d   1      11.888  -1.431 -11.028 -0.22 +0.00    -0.021    35.051
ATOM     23  C   UNL d   1      12.283  -0.558  -9.992 -0.22 -0.01    +0.066    35.051
ATOM     24  C   UNL d   1      11.574  -4.006 -11.226 -0.15 -0.00    +0.051    35.051
ATOM     25  N   UNL d   1      13.317   1.241  -7.861 -0.10 +0.04    -0.248    35.051
ATOM     26  N   UNL d   1      13.928   0.225  -5.345 -0.10 +0.02    -0.248    35.051
ATOM     27  N   UNL d   1      13.171  -2.474  -6.281 -0.09 +0.03    -0.248    35.051
ATOM     28  N   UNL d   1      12.528  -1.234  -8.863 -0.11 +0.03    -0.248    35.051
ATOM     29 FE   UNL d   1      13.238  -0.728  -7.027 -0.04 -0.00    +0.000    35.051
ATOM     30  C   UNL d   1      13.214   3.761 -10.670 +0.01 -0.02    +0.052    35.051
ATOM     31  C   UNL d   1      14.491   3.639 -11.500 -0.08 -0.04    +0.115    35.051
ATOM     32  C   UNL d   1      14.934   2.202 -11.671 -0.09 -0.03    +0.139    35.051
ATOM     33  O   UNL d   1      14.757   1.643 -12.743 -0.02 +0.11    -0.650    35.051
ATOM     34  O   UNL d   1      15.566   1.524 -10.686 +0.04 +0.10    -0.776    35.051
ATOM     35  H   UNL d   1      15.361   0.613 -10.434 +0.02 -0.02    +0.167    35.051
ATOM     36  C   UNL d   1      15.210  -0.969  -7.697 -0.02 -0.02    +0.190    35.051
ATOM     37  O   UNL d   1      16.045  -0.759  -8.799 +0.00 +0.04    -0.399    35.051
ATOM     38  H   UNL d   1      15.441  -0.428  -9.520 +0.02 -0.02    +0.209    35.051
ATOM     39  C   UNL d   1      11.577  -1.085 -12.472 -0.27 -0.00    +0.052    35.051
ATOM     40  C   UNL d   1      12.848  -1.158 -13.333 -0.12 -0.01    +0.115    35.051
ATOM     41  C   UNL d   1      14.068  -1.679 -12.603 -0.03 -0.01    +0.139    35.051
ATOM     42  O   UNL d   1      14.600  -2.711 -12.987 +0.02 +0.04    -0.650    35.051
ATOM     43  O   UNL d   1      14.640  -0.987 -11.592 +0.04 +0.07    -0.776    35.051
ATOM     44  H   UNL d   1      14.913  -0.065 -11.683 +0.02 -0.02    +0.167    35.051
ATOM     45  C   UNL d   1      14.793  -0.238  -1.747 -0.23 +0.00    +0.004    35.051
ATOM     46  C   UNL d   1      13.937  -0.439  -0.748 -0.37 +0.00    +0.012    35.051
ATOM     47  C   UNL d   1      12.926  -6.114  -6.549 -0.18 -0.00    +0.004    35.051
ATOM     48  C   UNL d   1      11.879  -6.563  -7.246 -0.30 -0.01    +0.012    35.051
TER
ENDMDL
MODEL       55
USER    Run = 55
USER    Cluster Rank = 50
USER    Number of conformations in this cluster = 1
USER  
USER    RMSD from reference structure       = 33.624 A
USER  
USER    Estimated Free Energy of Binding    =   -2.40 kcal/mol  [=(1)+(2)+(3)-(4)]
USER    Estimated Inhibition Constant, Ki   =   17.29 mM (millimolar)  [Temperature = 298.15 K]
USER    
USER    (1) Final Intermolecular Energy     =   -5.98 kcal/mol
USER        vdW + Hbond + desolv Energy     =   -6.04 kcal/mol
USER        Electrostatic Energy            =   +0.05 kcal/mol
USER    (2) Final Total Internal Energy     =   -3.87 kcal/mol
USER    (3) Torsional Free Energy           =   +3.58 kcal/mol
USER    (4) Unbound System's Energy  [=(2)] =   -3.87 kcal/mol
USER    
USER    
USER  
USER    DPF = D:/Protein_go_brrr/autodock/final/mut_N102T/heme_Co/dock.dpf
USER    NEWDPF move	heme_Co_opt.pdbqt
USER    NEWDPF about	8.781000 34.984000 -0.736000
USER    NEWDPF tran0	-11.728293 5.657156 6.659088
USER    NEWDPF axisangle0	-0.585183 0.442909 0.679259 -148.726102
USER    NEWDPF quaternion0	-0.563524 0.426516 0.654119 -0.269541
USER    NEWDPF dihe0	54.46 106.14 -132.72 116.67 74.54 109.92 43.45 114.36 157.00 137.27 -154.68 -179.90 
USER  
USER                              x       y       z    vdW   Elec        q     RMS 
ATOM      1  C   UNL d   1     -11.288   4.928   8.656 -0.15 +0.00    +0.064    33.624
ATOM      2  C   UNL d   1     -11.243   9.291   6.767 -0.23 -0.01    +0.064    33.624
ATOM      3  C   UNL d   1     -12.197   7.473   2.452 -0.13 +0.01    +0.064    33.624
ATOM      4  C   UNL d   1     -12.630   3.048   4.427 -0.18 +0.00    +0.064    33.624
ATOM      5  C   UNL d   1     -11.170   6.250   8.450 -0.28 -0.00    +0.066    33.624
ATOM      6  C   UNL d   1     -10.956   7.155   9.508 -0.34 +0.00    -0.021    33.624
ATOM      7  C   UNL d   1     -10.967   8.421   8.957 -0.27 +0.00    -0.025    33.624
ATOM      8  C   UNL d   1     -11.169   8.234   7.586 -0.25 -0.01    +0.066    33.624
ATOM      9  C   UNL d   1     -10.795   9.765   9.681 -0.23 -0.01    +0.051    33.624
ATOM     10  C   UNL d   1     -11.422   9.195   5.339 -0.20 -0.01    +0.066    33.624
ATOM     11  C   UNL d   1     -11.367  10.255   4.409 -0.14 +0.00    -0.021    33.624
ATOM     12  C   UNL d   1     -11.645   9.696   3.158 -0.12 -0.00    +0.000    33.624
ATOM     13  C   UNL d   1     -11.836   8.339   3.416 -0.16 +0.00    +0.070    33.624
ATOM     14  C   UNL d   1     -10.978  11.681   4.704 -0.12 -0.00    +0.052    33.624
ATOM     15  C   UNL d   1     -12.485   6.055   2.550 -0.11 +0.01    +0.066    33.624
ATOM     16  C   UNL d   1     -12.995   5.247   1.544 -0.08 -0.00    -0.021    33.624
ATOM     17  C   UNL d   1     -13.124   3.971   2.109 -0.11 +0.00    +0.000    33.624
ATOM     18  C   UNL d   1     -12.665   4.098   3.416 -0.15 +0.01    +0.070    33.624
ATOM     19  C   UNL d   1     -13.328   5.701   0.139 -0.03 +0.00    +0.052    33.624
ATOM     20  C   UNL d   1     -12.271   3.168   5.727 -0.20 -0.00    +0.066    33.624
ATOM     21  C   UNL d   1     -12.313   2.093   6.612 -0.23 +0.00    -0.025    33.624
ATOM     22  C   UNL d   1     -11.904   2.598   7.833 -0.28 +0.00    -0.021    33.624
ATOM     23  C   UNL d   1     -11.641   3.970   7.633 -0.24 +0.00    +0.066    33.624
ATOM     24  C   UNL d   1     -12.742   0.658   6.316 -0.21 -0.02    +0.051    33.624
ATOM     25  N   UNL d   1     -11.292   6.898   7.243 -0.08 +0.02    -0.248    33.624
ATOM     26  N   UNL d   1     -11.646   8.028   4.726 -0.13 +0.01    -0.248    33.624
ATOM     27  N   UNL d   1     -12.322   5.359   3.653 -0.07 -0.04    -0.248    33.624
ATOM     28  N   UNL d   1     -11.864   4.320   6.360 -0.13 -0.00    -0.248    33.624
ATOM     29 FE   UNL d   1     -11.837   6.080   5.343 -0.05 +0.00    +0.000    33.624
ATOM     30  C   UNL d   1     -10.832   6.810  10.989 -0.31 +0.00    +0.052    33.624
ATOM     31  C   UNL d   1     -12.182   6.367  11.552 -0.14 -0.00    +0.115    33.624
ATOM     32  C   UNL d   1     -13.348   6.925  10.765 -0.05 -0.00    +0.139    33.624
ATOM     33  O   UNL d   1     -13.782   8.034  11.039 +0.02 +0.02    -0.650    33.624
ATOM     34  O   UNL d   1     -13.900   6.254   9.727 +0.05 +0.03    -0.776    33.624
ATOM     35  H   UNL d   1     -14.181   5.329   9.766 +0.02 -0.01    +0.167    33.624
ATOM     36  C   UNL d   1     -13.830   6.448   5.882 -0.05 -0.00    +0.190    33.624
ATOM     37  O   UNL d   1     -14.739   6.326   6.937 -0.00 +0.01    -0.399    33.624
ATOM     38  H   UNL d   1     -14.253   5.806   7.636 +0.03 -0.01    +0.209    33.624
ATOM     39  C   UNL d   1     -11.834   1.815   9.131 -0.28 -0.01    +0.052    33.624
ATOM     40  C   UNL d   1     -13.233   1.665   9.750 -0.11 -0.01    +0.115    33.624
ATOM     41  C   UNL d   1     -14.025   2.953   9.825 -0.05 -0.01    +0.139    33.624
ATOM     42  O   UNL d   1     -14.194   3.489  10.911 +0.02 +0.03    -0.650    33.624
ATOM     43  O   UNL d   1     -14.476   3.575   8.713 +0.04 +0.05    -0.776    33.624
ATOM     44  H   UNL d   1     -14.289   4.504   8.525 +0.02 -0.01    +0.167    33.624
ATOM     45  C   UNL d   1     -11.733  10.282   1.756 -0.07 -0.00    +0.004    33.624
ATOM     46  C   UNL d   1     -10.916  10.158   0.713 -0.07 -0.00    +0.012    33.624
ATOM     47  C   UNL d   1     -13.678   2.717   1.517 -0.10 +0.00    +0.004    33.624
ATOM     48  C   UNL d   1     -13.268   2.207   0.353 -0.12 +0.01    +0.012    33.624
TER
ENDMDL
MODEL       65
USER    Run = 65
USER    Cluster Rank = 51
USER    Number of conformations in this cluster = 1
USER  
USER    RMSD from reference structure       = 50.191 A
USER  
USER    Estimated Free Energy of Binding    =   -2.35 kcal/mol  [=(1)+(2)+(3)-(4)]
USER    Estimated Inhibition Constant, Ki   =   19.10 mM (millimolar)  [Temperature = 298.15 K]
USER    
USER    (1) Final Intermolecular Energy     =   -5.92 kcal/mol
USER        vdW + Hbond + desolv Energy     =   -6.19 kcal/mol
USER        Electrostatic Energy            =   +0.26 kcal/mol
USER    (2) Final Total Internal Energy     =   -3.37 kcal/mol
USER    (3) Torsional Free Energy           =   +3.58 kcal/mol
USER    (4) Unbound System's Energy  [=(2)] =   -3.37 kcal/mol
USER    
USER    
USER  
USER    DPF = D:/Protein_go_brrr/autodock/final/mut_N102T/heme_Co/dock.dpf
USER    NEWDPF move	heme_Co_opt.pdbqt
USER    NEWDPF about	8.781000 34.984000 -0.736000
USER    NEWDPF tran0	-9.329557 -13.223437 11.311051
USER    NEWDPF axisangle0	0.898965 -0.315409 0.303940 -60.033332
USER    NEWDPF quaternion0	0.449709 -0.157784 0.152046 -0.865880
USER    NEWDPF dihe0	-103.98 119.56 -151.28 127.72 158.83 131.25 61.60 110.73 -121.67 112.59 167.50 -178.61 
USER  
USER                              x       y       z    vdW   Elec        q     RMS 
ATOM      1  C   UNL d   1     -11.165 -12.481  10.419 -0.11 -0.02    +0.064    50.191
ATOM      2  C   UNL d   1      -9.459 -16.878  11.029 -0.19 -0.04    +0.064    50.191
ATOM      3  C   UNL d   1      -5.378 -15.094  12.760 -0.23 -0.03    +0.064    50.191
ATOM      4  C   UNL d   1      -7.246 -10.610  12.506 -0.19 -0.01    +0.064    50.191
ATOM      5  C   UNL d   1     -10.984 -13.813  10.424 -0.14 -0.02    +0.066    50.191
ATOM      6  C   UNL d   1     -12.005 -14.707  10.047 -0.12 +0.01    -0.021    50.191
ATOM      7  C   UNL d   1     -11.513 -15.981  10.248 -0.14 +0.01    -0.025    50.191
ATOM      8  C   UNL d   1     -10.208 -15.811  10.723 -0.06 -0.03    +0.066    50.191
ATOM      9  C   UNL d   1     -12.231 -17.318  10.008 -0.08 -0.02    +0.051    50.191
ATOM     10  C   UNL d   1      -8.098 -16.801  11.499 -0.17 -0.04    +0.066    50.191
ATOM     11  C   UNL d   1      -7.214 -17.882  11.703 -0.18 +0.01    -0.021    50.191
ATOM     12  C   UNL d   1      -6.030 -17.333  12.204 -0.19 -0.00    +0.000    50.191
ATOM     13  C   UNL d   1      -6.274 -15.961  12.256 -0.22 -0.03    +0.070    50.191
ATOM     14  C   UNL d   1      -7.470 -19.324  11.346 -0.13 -0.04    +0.052    50.191
ATOM     15  C   UNL d   1      -5.485 -13.659  12.937 -0.26 -0.02    +0.066    50.191
ATOM     16  C   UNL d   1      -4.579 -12.842  13.598 -0.31 +0.01    -0.021    50.191
ATOM     17  C   UNL d   1      -5.115 -11.548  13.530 -0.33 -0.00    +0.000    50.191
ATOM     18  C   UNL d   1      -6.301 -11.676  12.815 -0.17 -0.02    +0.070    50.191
ATOM     19  C   UNL d   1      -3.292 -13.302  14.245 -0.29 -0.03    +0.052    50.191
ATOM     20  C   UNL d   1      -8.446 -10.725  11.889 -0.18 -0.02    +0.066    50.191
ATOM     21  C   UNL d   1      -9.283  -9.631  11.681 -0.15 +0.01    -0.025    50.191
ATOM     22  C   UNL d   1     -10.408 -10.135  11.055 -0.10 +0.01    -0.021    50.191
ATOM     23  C   UNL d   1     -10.205 -11.525  10.922 -0.12 -0.02    +0.066    50.191
ATOM     24  C   UNL d   1      -9.033  -8.178  12.077 -0.23 -0.02    +0.051    50.191
ATOM     25  N   UNL d   1      -9.852 -14.477  10.836 -0.05 +0.13    -0.248    50.191
ATOM     26  N   UNL d   1      -7.504 -15.635  11.777 -0.04 +0.14    -0.248    50.191
ATOM     27  N   UNL d   1      -6.505 -12.951  12.505 -0.18 +0.07    -0.248    50.191
ATOM     28  N   UNL d   1      -9.020 -11.887  11.428 -0.12 +0.07    -0.248    50.191
ATOM     29 FE   UNL d   1      -8.080 -13.666  11.719 -0.05 -0.00    +0.000    50.191
ATOM     30  C   UNL d   1     -13.415 -14.340   9.595 -0.06 -0.01    +0.052    50.191
ATOM     31  C   UNL d   1     -14.436 -14.698  10.674 -0.01 -0.02    +0.115    50.191
ATOM     32  C   UNL d   1     -14.127 -14.040  12.002 -0.00 -0.02    +0.139    50.191
ATOM     33  O   UNL d   1     -13.135 -14.385  12.627 +0.01 +0.10    -0.650    50.191
ATOM     34  O   UNL d   1     -14.890 -13.040  12.502 +0.00 +0.09    -0.776    50.191
ATOM     35  H   UNL d   1     -14.612 -12.115  12.549 +0.00 -0.02    +0.167    50.191
ATOM     36  C   UNL d   1      -9.035 -13.893  13.572 -0.04 -0.05    +0.190    50.191
ATOM     37  O   UNL d   1     -10.295 -13.993  14.171 +0.00 +0.07    -0.399    50.191
ATOM     38  H   UNL d   1     -10.938 -14.036  13.410 +0.02 -0.04    +0.209    50.191
ATOM     39  C   UNL d   1     -11.635  -9.331  10.668 -0.06 -0.01    +0.052    50.191
ATOM     40  C   UNL d   1     -12.510  -9.049  11.900 -0.01 -0.03    +0.115    50.191
ATOM     41  C   UNL d   1     -13.269 -10.254  12.415 +0.00 -0.02    +0.139    50.191
ATOM     42  O   UNL d   1     -14.486 -10.287  12.303 +0.00 +0.08    -0.650    50.191
ATOM     43  O   UNL d   1     -12.631 -11.334  12.918 +0.01 +0.12    -0.776    50.191
ATOM     44  H   UNL d   1     -12.959 -12.234  12.797 +0.00 -0.02    +0.167    50.191
ATOM     45  C   UNL d   1      -4.697 -17.942  12.619 -0.14 -0.00    +0.004    50.191
ATOM     46  C   UNL d   1      -3.469 -17.740  12.149 -0.22 -0.01    +0.012    50.191
ATOM     47  C   UNL d   1      -4.608 -10.273  14.121 -0.48 -0.00    +0.004    50.191
ATOM     48  C   UNL d   1      -4.598  -9.110  13.466 -0.51 -0.00    +0.012    50.191
TER
ENDMDL
MODEL       94
USER    Run = 94
USER    Cluster Rank = 52
USER    Number of conformations in this cluster = 1
USER  
USER    RMSD from reference structure       = 39.453 A
USER  
USER    Estimated Free Energy of Binding    =   -2.21 kcal/mol  [=(1)+(2)+(3)-(4)]
USER    Estimated Inhibition Constant, Ki   =   24.01 mM (millimolar)  [Temperature = 298.15 K]
USER    
USER    (1) Final Intermolecular Energy     =   -5.79 kcal/mol
USER        vdW + Hbond + desolv Energy     =   -5.68 kcal/mol
USER        Electrostatic Energy            =   -0.11 kcal/mol
USER    (2) Final Total Internal Energy     =   -3.48 kcal/mol
USER    (3) Torsional Free Energy           =   +3.58 kcal/mol
USER    (4) Unbound System's Energy  [=(2)] =   -3.48 kcal/mol
USER    
USER    
USER  
USER    DPF = D:/Protein_go_brrr/autodock/final/mut_N102T/heme_Co/dock.dpf
USER    NEWDPF move	heme_Co_opt.pdbqt
USER    NEWDPF about	8.781000 34.984000 -0.736000
USER    NEWDPF tran0	-10.363308 -0.766218 -10.015526
USER    NEWDPF axisangle0	-0.188176 0.761930 -0.619720 104.343853
USER    NEWDPF quaternion0	-0.148632 0.601814 -0.489489 0.613294
USER    NEWDPF dihe0	68.79 104.32 42.45 116.64 132.34 108.66 41.49 -41.64 151.72 -147.02 -149.95 156.82 
USER  
USER                              x       y       z    vdW   Elec        q     RMS 
ATOM      1  C   UNL d   1      -9.855  -0.688 -12.125 -0.14 +0.01    +0.064    39.453
ATOM      2  C   UNL d   1     -10.251  -4.307  -9.066 -0.21 +0.01    +0.064    39.453
ATOM      3  C   UNL d   1     -11.007  -1.241  -5.480 -0.09 +0.01    +0.064    39.453
ATOM      4  C   UNL d   1     -10.990   2.450  -8.649 -0.14 +0.00    +0.064    39.453
ATOM      5  C   UNL d   1      -9.871  -1.900 -11.546 -0.26 +0.01    +0.066    39.453
ATOM      6  C   UNL d   1      -9.754  -3.088 -12.295 -0.29 -0.00    -0.021    39.453
ATOM      7  C   UNL d   1      -9.892  -4.135 -11.405 -0.24 -0.00    -0.025    39.453
ATOM      8  C   UNL d   1     -10.072  -3.542 -10.151 -0.23 +0.01    +0.066    39.453
ATOM      9  C   UNL d   1      -9.860  -5.640 -11.710 -0.13 +0.02    +0.051    39.453
ATOM     10  C   UNL d   1     -10.418  -3.788  -7.731 -0.17 +0.01    +0.066    39.453
ATOM     11  C   UNL d   1     -10.470  -4.536  -6.535 -0.13 -0.00    -0.021    39.453
ATOM     12  C   UNL d   1     -10.687  -3.617  -5.505 -0.15 +0.00    +0.000    39.453
ATOM     13  C   UNL d   1     -10.738  -2.379  -6.145 -0.13 +0.01    +0.070    39.453
ATOM     14  C   UNL d   1     -10.229  -6.018  -6.399 -0.10 +0.01    +0.052    39.453
ATOM     15  C   UNL d   1     -11.150   0.109  -5.987 -0.12 +0.01    +0.066    39.453
ATOM     16  C   UNL d   1     -11.572   1.218  -5.268 -0.13 -0.00    -0.021    39.453
ATOM     17  C   UNL d   1     -11.571   2.285  -6.178 -0.09 +0.00    +0.000    39.453
ATOM     18  C   UNL d   1     -11.130   1.744  -7.381 -0.12 +0.00    +0.070    39.453
ATOM     19  C   UNL d   1     -11.947   1.223  -3.802 -0.14 +0.01    +0.052    39.453
ATOM     20  C   UNL d   1     -10.647   1.927  -9.850 -0.18 +0.00    +0.066    39.453
ATOM     21  C   UNL d   1     -10.581   2.701 -11.006 -0.20 -0.00    -0.025    39.453
ATOM     22  C   UNL d   1     -10.227   1.828 -12.020 -0.27 -0.00    -0.021    39.453
ATOM     23  C   UNL d   1     -10.106   0.553 -11.428 -0.25 +0.01    +0.066    39.453
ATOM     24  C   UNL d   1     -10.860   4.195 -11.144 -0.10 -0.00    +0.051    39.453
ATOM     25  N   UNL d   1     -10.058  -2.159 -10.208 -0.13 -0.04    -0.248    39.453
ATOM     26  N   UNL d   1     -10.520  -2.478  -7.483 -0.05 -0.05    -0.248    39.453
ATOM     27  N   UNL d   1     -10.918   0.440  -7.238 -0.03 -0.02    -0.248    39.453
ATOM     28  N   UNL d   1     -10.361   0.607 -10.116 -0.12 -0.02    -0.248    39.453
ATOM     29 FE   UNL d   1     -10.513  -0.780  -8.637 -0.05 +0.00    +0.000    39.453
ATOM     30  C   UNL d   1      -9.598  -3.197 -13.808 -0.22 +0.01    +0.052    39.453
ATOM     31  C   UNL d   1     -10.856  -2.693 -14.516 -0.11 +0.02    +0.115    39.453
ATOM     32  C   UNL d   1     -12.107  -2.909 -13.692 -0.04 +0.01    +0.139    39.453
ATOM     33  O   UNL d   1     -12.715  -3.964 -13.788 +0.02 -0.07    -0.650    39.453
ATOM     34  O   UNL d   1     -12.553  -1.984 -12.810 +0.04 -0.05    -0.776    39.453
ATOM     35  H   UNL d   1     -12.865  -1.103 -13.057 +0.02 +0.01    +0.167    39.453
ATOM     36  C   UNL d   1     -12.533  -1.090  -9.102 -0.04 +0.01    +0.190    39.453
ATOM     37  O   UNL d   1     -13.431  -1.168 -10.172 -0.00 -0.02    -0.399    39.453
ATOM     38  H   UNL d   1     -12.907  -0.873 -10.969 +0.02 +0.01    +0.209    39.453
ATOM     39  C   UNL d   1     -10.080   2.195 -13.484 -0.34 +0.00    +0.052    39.453
ATOM     40  C   UNL d   1     -11.316   1.748 -14.282 -0.15 +0.00    +0.115    39.453
ATOM     41  C   UNL d   1     -12.592   1.677 -13.470 -0.04 +0.00    +0.139    39.453
ATOM     42  O   UNL d   1     -13.366   2.624 -13.487 +0.02 -0.01    -0.650    39.453
ATOM     43  O   UNL d   1     -12.942   0.560 -12.794 +0.04 -0.03    -0.776    39.453
ATOM     44  H   UNL d   1     -12.329   0.091 -12.214 +0.03 +0.01    +0.167    39.453
ATOM     45  C   UNL d   1     -10.831  -3.764  -3.996 -0.16 +0.00    +0.004    39.453
ATOM     46  C   UNL d   1     -10.004  -3.427  -3.010 -0.27 +0.00    +0.012    39.453
ATOM     47  C   UNL d   1     -11.993   3.704  -5.985 -0.04 +0.00    +0.004    39.453
ATOM     48  C   UNL d   1     -11.141   4.732  -5.976 -0.06 +0.00    +0.012    39.453
TER
ENDMDL
MODEL       21
USER    Run = 21
USER    Cluster Rank = 53
USER    Number of conformations in this cluster = 1
USER  
USER    RMSD from reference structure       = 28.816 A
USER  
USER    Estimated Free Energy of Binding    =   -2.11 kcal/mol  [=(1)+(2)+(3)-(4)]
USER    Estimated Inhibition Constant, Ki   =   28.62 mM (millimolar)  [Temperature = 298.15 K]
USER    
USER    (1) Final Intermolecular Energy     =   -5.69 kcal/mol
USER        vdW + Hbond + desolv Energy     =   -5.64 kcal/mol
USER        Electrostatic Energy            =   -0.04 kcal/mol
USER    (2) Final Total Internal Energy     =   -2.88 kcal/mol
USER    (3) Torsional Free Energy           =   +3.58 kcal/mol
USER    (4) Unbound System's Energy  [=(2)] =   -2.88 kcal/mol
USER    
USER    
USER  
USER    DPF = D:/Protein_go_brrr/autodock/final/mut_N102T/heme_Co/dock.dpf
USER    NEWDPF move	heme_Co_opt.pdbqt
USER    NEWDPF about	8.781000 34.984000 -0.736000
USER    NEWDPF tran0	11.333617 9.089974 -15.449466
USER    NEWDPF axisangle0	-0.573471 -0.682270 -0.453474 -112.255430
USER    NEWDPF quaternion0	-0.476143 -0.566476 -0.376511 -0.557344
USER    NEWDPF dihe0	109.46 91.16 106.03 138.20 108.80 125.53 42.86 -48.62 153.15 177.63 -153.07 180.00 
USER  
USER                              x       y       z    vdW   Elec        q     RMS 
ATOM      1  C   UNL d   1      11.900   8.176 -17.336 -0.12 +0.01    +0.064    28.816
ATOM      2  C   UNL d   1       8.423  11.202 -16.168 -0.19 -0.03    +0.064    28.816
ATOM      3  C   UNL d   1       9.631  10.870 -11.558 -0.19 -0.02    +0.064    28.816
ATOM      4  C   UNL d   1      13.429   8.081 -12.767 -0.17 -0.01    +0.064    28.816
ATOM      5  C   UNL d   1      10.838   8.999 -17.352 -0.03 +0.02    +0.066    28.816
ATOM      6  C   UNL d   1      10.227   9.408 -18.553 -0.08 -0.01    -0.021    28.816
ATOM      7  C   UNL d   1       9.234  10.304 -18.210 -0.15 -0.01    -0.025    28.816
ATOM      8  C   UNL d   1       9.270  10.390 -16.814 -0.17 +0.00    +0.066    28.816
ATOM      9  C   UNL d   1       8.280  11.058 -19.148 -0.14 -0.01    +0.051    28.816
ATOM     10  C   UNL d   1       8.369  11.337 -14.734 -0.19 -0.02    +0.066    28.816
ATOM     11  C   UNL d   1       7.413  12.063 -13.990 -0.22 +0.01    -0.021    28.816
ATOM     12  C   UNL d   1       7.787  11.946 -12.649 -0.23 -0.00    +0.000    28.816
ATOM     13  C   UNL d   1       8.932  11.149 -12.672 -0.19 -0.02    +0.070    28.816
ATOM     14  C   UNL d   1       6.180  12.735 -14.537 -0.28 -0.03    +0.052    28.816
ATOM     15  C   UNL d   1      10.858  10.112 -11.407 -0.16 -0.02    +0.066    28.816
ATOM     16  C   UNL d   1      11.608   9.982 -10.247 -0.20 +0.01    -0.021    28.816
ATOM     17  C   UNL d   1      12.706   9.181 -10.591 -0.21 -0.00    +0.000    28.816
ATOM     18  C   UNL d   1      12.529   8.869 -11.935 -0.17 -0.02    +0.070    28.816
ATOM     19  C   UNL d   1      11.269  10.602  -8.909 -0.21 -0.02    +0.052    28.816
ATOM     20  C   UNL d   1      13.322   7.837 -14.095 -0.17 -0.01    +0.066    28.816
ATOM     21  C   UNL d   1      14.272   7.094 -14.793 -0.11 +0.00    -0.025    28.816
ATOM     22  C   UNL d   1      13.842   7.080 -16.108 -0.09 +0.00    -0.021    28.816
ATOM     23  C   UNL d   1      12.649   7.831 -16.149 -0.14 +0.00    +0.066    28.816
ATOM     24  C   UNL d   1      15.538   6.446 -14.240 -0.06 -0.01    +0.051    28.816
ATOM     25  N   UNL d   1      10.250   9.588 -16.255 -0.10 -0.04    -0.248    28.816
ATOM     26  N   UNL d   1       9.250  10.736 -13.928 -0.13 +0.05    -0.248    28.816
ATOM     27  N   UNL d   1      11.434   9.465 -12.395 -0.12 +0.07    -0.248    28.816
ATOM     28  N   UNL d   1      12.332   8.293 -14.933 -0.13 -0.00    -0.248    28.816
ATOM     29 FE   UNL d   1      10.880   9.520 -14.212 -0.04 -0.00    +0.000    28.816
ATOM     30  C   UNL d   1      10.643   9.012 -19.966 -0.08 +0.02    +0.052    28.816
ATOM     31  C   UNL d   1      11.991   9.639 -20.324 -0.02 +0.01    +0.115    28.816
ATOM     32  C   UNL d   1      12.232  10.945 -19.599 -0.00 +0.01    +0.139    28.816
ATOM     33  O   UNL d   1      11.815  11.987 -20.082 +0.02 -0.01    -0.650    28.816
ATOM     34  O   UNL d   1      12.856  10.995 -18.399 +0.02 -0.01    -0.776    28.816
ATOM     35  H   UNL d   1      13.766  11.298 -18.272 +0.01 -0.00    +0.167    28.816
ATOM     36  C   UNL d   1      12.057  11.202 -14.636 -0.04 -0.02    +0.190    28.816
ATOM     37  O   UNL d   1      12.758  11.841 -15.665 +0.00 +0.02    -0.399    28.816
ATOM     38  H   UNL d   1      12.943  11.123 -16.333 +0.02 -0.01    +0.209    28.816
ATOM     39  C   UNL d   1      14.578   6.434 -17.267 -0.04 -0.00    +0.052    28.816
ATOM     40  C   UNL d   1      15.737   7.326 -17.739 -0.01 -0.00    +0.115    28.816
ATOM     41  C   UNL d   1      15.772   8.697 -17.097 -0.01 -0.00    +0.139    28.816
ATOM     42  O   UNL d   1      16.392   8.854 -16.054 +0.01 +0.02    -0.650    28.816
ATOM     43  O   UNL d   1      15.210   9.774 -17.689 +0.01 +0.01    -0.776    28.816
ATOM     44  H   UNL d   1      14.432  10.218 -17.328 +0.01 -0.00    +0.167    28.816
ATOM     45  C   UNL d   1       7.187  12.476 -11.353 -0.28 -0.00    +0.004    28.816
ATOM     46  C   UNL d   1       6.888  11.850 -10.218 -0.36 -0.00    +0.012    28.816
ATOM     47  C   UNL d   1      13.877   8.761  -9.765 -0.20 -0.00    +0.004    28.816
ATOM     48  C   UNL d   1      13.880   7.676  -8.988 -0.28 -0.00    +0.012    28.816
TER
ENDMDL


AVSFLD: # AVS field file
AVSFLD: #
AVSFLD: # Created by AutoDock
AVSFLD: #
AVSFLD: ndim=2           # number of dimensions in the field
AVSFLD: nspace=1         # number of physical coordinates
AVSFLD: veclen=7         # vector size
AVSFLD: dim1=48          # atoms
AVSFLD: dim2=53          # conformations
AVSFLD: data=Real       # data type (byte,integer,Real,double)
AVSFLD: field=uniform    # field coordinate layout
AVSFLD: label= x y z vdW Elec q RMS
AVSFLD: variable 1 file = D:/Protein_go_brrr/autodock/final/mut_N102T/heme_Co/dock.dlg.pdb filetype = ascii offset = 5 stride = 12
AVSFLD: variable 2 file = D:/Protein_go_brrr/autodock/final/mut_N102T/heme_Co/dock.dlg.pdb filetype = ascii offset = 6 stride = 12
AVSFLD: variable 3 file = D:/Protein_go_brrr/autodock/final/mut_N102T/heme_Co/dock.dlg.pdb filetype = ascii offset = 7 stride = 12
AVSFLD: variable 4 file = D:/Protein_go_brrr/autodock/final/mut_N102T/heme_Co/dock.dlg.pdb filetype = ascii offset = 8 stride = 12
AVSFLD: variable 5 file = D:/Protein_go_brrr/autodock/final/mut_N102T/heme_Co/dock.dlg.pdb filetype = ascii offset = 9 stride = 12
AVSFLD: variable 6 file = D:/Protein_go_brrr/autodock/final/mut_N102T/heme_Co/dock.dlg.pdb filetype = ascii offset = 10 stride = 12
AVSFLD: variable 7 file = D:/Protein_go_brrr/autodock/final/mut_N102T/heme_Co/dock.dlg.pdb filetype = ascii offset = 11 stride = 12
AVSFLD: # end of file

>>> Closing the docking parameter file (DPF)...
This docking finished at:			9:21 15" a.m., 10/18/2025


________________________________________________________________________________

D:/autodockScripts/autodock4.exe: Successful Completion on "ACER"

Real= 7h 49m 57.15s,  CPU= 2m 06.09s,  System= 23.34s
________________________________________________________________________________

