          AutoDock 4.2 Release 4.2.6   
         (C) 1989-2012 The Scripps Research Institute
        AutoDock comes with ABSOLUTELY NO WARRANTY.
        AutoDock is free software, and you are welcome
        to redistribute it under certain conditions;
        for details type 'autodock4 -C'

                     main.cc  $Revision: 1.213 $

                   Compiled on Jul 18 2014 at 15:34:58


This file was created at:			12:04 59" p.m., 01/17/2026
                   on host:		"ACER"
Current Working Directory = "D:\Protein_go_brrr\autodock\final\2DN3\heme_Co"

      ________________________________________________________________

                   SETTING UP DEFAULT PARAMETER LIBRARY
      ________________________________________________________________


Random number generator was seeded with values 38176, 1768647899.
Docking parameter file (DPF) used for this docking:		D:/Protein_go_brrr/autodock/final/2DN3/heme_Co/dock.dpf
DPF> autodock_parameter_version 4.2       # used by autodock to validate parameter set

	Autodock parameter version 4.2.
DPF> outlev 1                             # diagnostic output level

Output Level = 1  ADT-COMPATIBLE OUTPUT DURING DOCKING.
DPF> intelec                              # calculate internal electrostatics

Electrostatic energies will be calculated for all non-bonds between moving atoms.
DPF> seed pid time                        # seeds for random generator

Random number generator was seeded with values 38176, 1768647899.
DPF> ligand_types A C OA N Fe HD          # atoms types in ligand

DPF> fld opt_2DN3.maps.fld                # grid_data_file

Opening Grid Map Dimensions file:		opt_2DN3.maps.fld
Grid Point Spacing =				0.558 Angstroms

Even Number of User-specified Grid Points =	126 x-points
						126 y-points
						126 z-points

Coordinates of Central Grid Point of Maps =	(23.741, 34.005, 11.372)
Macromolecule file used to create Grid Maps =	opt_2DN3.pdbqt
Grid Parameter file used to create Grid Maps =	D:/Protein_go_brrr/autodock/final/2DN3/heme_Co/grid.gpf
Minimum coordinates in grid = (-11.413, -1.149, -23.782)
Maximum coordinates in grid = (58.895, 69.159, 46.526)

DPF> map opt_2DN3.A.map                   # atom-specific affinity map

DPF> map opt_2DN3.C.map                   # atom-specific affinity map

DPF> map opt_2DN3.OA.map                  # atom-specific affinity map

DPF> map opt_2DN3.N.map                   # atom-specific affinity map

DPF> map opt_2DN3.Fe.map                  # atom-specific affinity map

DPF> map opt_2DN3.HD.map                  # atom-specific affinity map

DPF> elecmap opt_2DN3.e.map               # electrostatics map

DPF> desolvmap opt_2DN3.d.map             # desolvation map

DPF> move heme_Co_opt.pdbqt               # small molecule

1,4-interactions will be _ignored_ in the non-bonded internal energy calculation.

Ligand PDBQT file = "heme_Co_opt.pdbqt"

INPUT LIGAND PDBQT FILE:
________________________

INPUT-LIGAND-PDBQT: REMARK  12 active torsions:
INPUT-LIGAND-PDBQT: REMARK  status: ('A' for Active; 'I' for Inactive)
INPUT-LIGAND-PDBQT: REMARK    1  A    between atoms: C_6  and  C_10 
INPUT-LIGAND-PDBQT: REMARK    2  A    between atoms: C_10  and  C_11 
INPUT-LIGAND-PDBQT: REMARK    3  A    between atoms: C_11  and  C_12 
INPUT-LIGAND-PDBQT: REMARK    4  A    between atoms: C_12  and  O_14 
INPUT-LIGAND-PDBQT: REMARK    5  A    between atoms: C_17  and  C_20 
INPUT-LIGAND-PDBQT: REMARK    6  A    between atoms: C_24  and  C_27 
INPUT-LIGAND-PDBQT: REMARK    7  A    between atoms: C_31  and  C_34 
INPUT-LIGAND-PDBQT: REMARK    8  A    between atoms: C_34  and  C_35 
INPUT-LIGAND-PDBQT: REMARK    9  A    between atoms: C_35  and  C_36 
INPUT-LIGAND-PDBQT: REMARK   10  A    between atoms: C_36  and  O_38 
INPUT-LIGAND-PDBQT: REMARK   11  A    between atoms: FE_43  and  C_44 
INPUT-LIGAND-PDBQT: REMARK   12  A    between atoms: C_44  and  O_45 
INPUT-LIGAND-PDBQT: ROOT
INPUT-LIGAND-PDBQT: ATOM      1  C   UNL d   1       6.846  35.483  -1.586  0.00  0.00     0.064 A 
INPUT-LIGAND-PDBQT: ATOM      2  C   UNL d   1       8.105  32.823   2.149  0.00  0.00     0.064 C 
INPUT-LIGAND-PDBQT: ATOM      3  C   UNL d   1      12.720  33.414   1.062  0.00  0.00     0.064 A 
INPUT-LIGAND-PDBQT: ATOM      4  C   UNL d   1      11.472  36.449  -2.529  0.00  0.00     0.064 A 
INPUT-LIGAND-PDBQT: ATOM      5  C   UNL d   1       6.850  34.683  -0.507  0.00  0.00     0.066 A 
INPUT-LIGAND-PDBQT: ATOM      6  C   UNL d   1       5.664  34.330   0.166  0.00  0.00    -0.021 A 
INPUT-LIGAND-PDBQT: ATOM      7  C   UNL d   1       6.037  33.577   1.262  0.00  0.00    -0.025 A 
INPUT-LIGAND-PDBQT: ATOM      8  C   UNL d   1       7.432  33.489   1.202  0.00  0.00     0.066 A 
INPUT-LIGAND-PDBQT: ATOM      9  C   UNL d   1       5.127  32.958   2.334  0.00  0.00     0.051 C 
INPUT-LIGAND-PDBQT: ATOM     10  C   UNL d   1       9.537  32.657   2.156  0.00  0.00     0.066 A 
INPUT-LIGAND-PDBQT: ATOM     11  C   UNL d   1      10.289  31.854   3.041  0.00  0.00    -0.021 A 
INPUT-LIGAND-PDBQT: ATOM     12  C   UNL d   1      11.631  32.042   2.699  0.00  0.00     0.000 A 
INPUT-LIGAND-PDBQT: ATOM     13  C   UNL d   1      11.598  32.933   1.626  0.00  0.00     0.070 A 
INPUT-LIGAND-PDBQT: ATOM     14  C   UNL d   1       9.736  30.905   4.073  0.00  0.00     0.052 C 
INPUT-LIGAND-PDBQT: ATOM     15  C   UNL d   1      12.870  34.375  -0.013  0.00  0.00     0.066 A 
INPUT-LIGAND-PDBQT: ATOM     16  C   UNL d   1      14.059  34.940  -0.452  0.00  0.00    -0.021 A 
INPUT-LIGAND-PDBQT: ATOM     17  C   UNL d   1      13.704  35.818  -1.486  0.00  0.00     0.000 A 
INPUT-LIGAND-PDBQT: ATOM     18  C   UNL d   1      12.323  35.706  -1.608  0.00  0.00     0.070 A 
INPUT-LIGAND-PDBQT: ATOM     19  C   UNL d   1      15.432  34.638   0.106  0.00  0.00     0.052 C 
INPUT-LIGAND-PDBQT: ATOM     20  C   UNL d   1      10.120  36.421  -2.607  0.00  0.00     0.066 A 
INPUT-LIGAND-PDBQT: ATOM     21  C   UNL d   1       9.411  37.209  -3.511  0.00  0.00    -0.025 A 
INPUT-LIGAND-PDBQT: ATOM     22  C   UNL d   1       8.076  36.930  -3.282  0.00  0.00    -0.021 A 
INPUT-LIGAND-PDBQT: ATOM     23  C   UNL d   1       8.036  35.987  -2.233  0.00  0.00     0.066 A 
INPUT-LIGAND-PDBQT: ATOM     24  C   UNL d   1       9.976  38.195  -4.530  0.00  0.00     0.051 C 
INPUT-LIGAND-PDBQT: ATOM     25  N   UNL d   1       7.962  34.160   0.113  0.00  0.00    -0.248 N 
INPUT-LIGAND-PDBQT: ATOM     26  N   UNL d   1      10.329  33.260   1.263  0.00  0.00    -0.248 N 
INPUT-LIGAND-PDBQT: ATOM     27  N   UNL d   1      11.857  34.861  -0.695  0.00  0.00    -0.248 N 
INPUT-LIGAND-PDBQT: ATOM     28  N   UNL d   1       9.271  35.678  -1.820  0.00  0.00    -0.248 N 
INPUT-LIGAND-PDBQT: ATOM     29 FE   UNL d   1      10.024  34.533  -0.318  0.00  0.00     0.000 Fe
INPUT-LIGAND-PDBQT: ENDROOT
INPUT-LIGAND-PDBQT: BRANCH   6  30
INPUT-LIGAND-PDBQT: ATOM     30  C   UNL d   1       4.249  34.772  -0.192  0.00  0.00     0.052 C 
INPUT-LIGAND-PDBQT: BRANCH  30  31
INPUT-LIGAND-PDBQT: ATOM     31  C   UNL d   1       3.660  33.865  -1.272  0.00  0.00     0.115 C 
INPUT-LIGAND-PDBQT: BRANCH  31  32
INPUT-LIGAND-PDBQT: ATOM     32  C   UNL d   1       2.237  34.239  -1.627  0.00  0.00     0.139 C 
INPUT-LIGAND-PDBQT: ATOM     33  O   UNL d   1       1.374  33.374  -1.641  0.00  0.00    -0.650 OA
INPUT-LIGAND-PDBQT: BRANCH  32  34
INPUT-LIGAND-PDBQT: ATOM     34  O   UNL d   1       1.874  35.517  -1.885  0.00  0.00    -0.776 OA
INPUT-LIGAND-PDBQT: ATOM     35  H   UNL d   1       2.467  36.277  -1.807  0.00  0.00     0.167 HD
INPUT-LIGAND-PDBQT: ENDBRANCH  32  34
INPUT-LIGAND-PDBQT: ENDBRANCH  31  32
INPUT-LIGAND-PDBQT: ENDBRANCH  30  31
INPUT-LIGAND-PDBQT: ENDBRANCH   6  30
INPUT-LIGAND-PDBQT: BRANCH  29  36
INPUT-LIGAND-PDBQT: ATOM     36  C   UNL d   1       9.893  36.149   1.011  0.00  0.00     0.190 C 
INPUT-LIGAND-PDBQT: BRANCH  36  37
INPUT-LIGAND-PDBQT: ATOM     37  O   UNL d   1      10.463  37.389   1.317  0.00  0.00    -0.399 OA
INPUT-LIGAND-PDBQT: ATOM     38  H   UNL d   1      10.901  37.258   2.204  0.00  0.00     0.209 HD
INPUT-LIGAND-PDBQT: ENDBRANCH  36  37
INPUT-LIGAND-PDBQT: ENDBRANCH  29  36
INPUT-LIGAND-PDBQT: BRANCH  22  39
INPUT-LIGAND-PDBQT: ATOM     39  C   UNL d   1       6.906  37.586  -3.991  0.00  0.00     0.052 C 
INPUT-LIGAND-PDBQT: BRANCH  39  40
INPUT-LIGAND-PDBQT: ATOM     40  C   UNL d   1       6.343  36.659  -5.081  0.00  0.00     0.115 C 
INPUT-LIGAND-PDBQT: BRANCH  40  41
INPUT-LIGAND-PDBQT: ATOM     41  C   UNL d   1       5.088  37.175  -5.753  0.00  0.00     0.139 C 
INPUT-LIGAND-PDBQT: ATOM     42  O   UNL d   1       4.969  37.063  -6.965  0.00  0.00    -0.650 OA
INPUT-LIGAND-PDBQT: BRANCH  41  43
INPUT-LIGAND-PDBQT: ATOM     43  O   UNL d   1       4.056  37.678  -5.040  0.00  0.00    -0.776 OA
INPUT-LIGAND-PDBQT: ATOM     44  H   UNL d   1       4.103  37.816  -4.085  0.00  0.00     0.167 HD
INPUT-LIGAND-PDBQT: ENDBRANCH  41  43
INPUT-LIGAND-PDBQT: ENDBRANCH  40  41
INPUT-LIGAND-PDBQT: ENDBRANCH  39  40
INPUT-LIGAND-PDBQT: ENDBRANCH  22  39
INPUT-LIGAND-PDBQT: BRANCH  12  45
INPUT-LIGAND-PDBQT: ATOM     45  C   UNL d   1      12.932  31.471   3.247  0.00  0.00     0.004 C 
INPUT-LIGAND-PDBQT: ATOM     46  C   UNL d   1      13.165  30.727   4.325  0.00  0.00     0.012 C 
INPUT-LIGAND-PDBQT: ENDBRANCH  12  45
INPUT-LIGAND-PDBQT: BRANCH  17  47
INPUT-LIGAND-PDBQT: ATOM     47  C   UNL d   1      14.559  36.745  -2.286  0.00  0.00     0.004 C 
INPUT-LIGAND-PDBQT: ATOM     48  C   UNL d   1      15.750  37.188  -1.876  0.00  0.00     0.012 C 
INPUT-LIGAND-PDBQT: ENDBRANCH  17  47
INPUT-LIGAND-PDBQT: TORSDOF 12
________________________________________________________________________________

Total charge on ligand                               =	-2.002 e
REMARK  12 active torsions:
REMARK  status: ('A' for Active; 'I' for Inactive)
REMARK    1  A    between atoms: C_6  and  C_10 
REMARK    2  A    between atoms: C_10  and  C_11 
REMARK    3  A    between atoms: C_11  and  C_12 
REMARK    4  A    between atoms: C_12  and  O_14 
REMARK    5  A    between atoms: C_17  and  C_20 
REMARK    6  A    between atoms: C_24  and  C_27 
REMARK    7  A    between atoms: C_31  and  C_34 
REMARK    8  A    between atoms: C_34  and  C_35 
REMARK    9  A    between atoms: C_35  and  C_36 
REMARK   10  A    between atoms: C_36  and  O_38 
REMARK   11  A    between atoms: FE_43  and  C_44 
REMARK   12  A    between atoms: C_44  and  O_45 


Number of Rotatable Bonds in Small Molecule =	12 torsions
Number of atoms in ligand:  48

Number of non-hydrogen atoms in ligand:  45

Number of vibrational degrees of freedom of ligand:  138


Number of torsional degrees of freedom = 12
Estimated loss of torsional free energy upon binding = +3.5796 kcal/mol


DPF> about 8.781 34.984 -0.736            # small molecule center

Small molecule center of rotation =	(+8.781, +34.984, -0.736)

DPF> tran0 random                         # initial coordinates/A or random

Initial translation =			(-0.988, 22.659, 41.484) Angstroms
DPF> quaternion0 random                   # initial orientation

Each run will begin with a new, random initial orientation.
Initial quaternion,  (x,y,z,w) =	( -0.963, -0.115, 0.232, 0.075 ),
DPF> dihe0 random                         # initial dihedrals (relative) or random

DPF> torsdof 12                            # torsional degrees of freedom

Number of torsional degrees of freedom = 12
Free energy coefficient for torsional degrees of freedom = 0.2983, the factory default value.

Estimated loss of torsional free energy upon binding = +3.5796 kcal/mol

DPF> rmstol 2.0                           # cluster_tolerance/A

Maximum RMS tolerance for conformational cluster analysis = 2.00 Angstroms
DPF> extnrg 1000.0                        # external grid energy

External grid energy (beyond grid map walls) = 1000.00

DPF> e0max 0.0 10000                      # max initial energy; max number of retries

Using user-specified maximum number of retries for simanneal initialization, 10000 retries.
If the simanneal initial energy is greater than e0max, 0.000,
then a new, random initial state will be created.

DPF> ga_pop_size 150                      # number of individuals in population

A population of 150 individuals will be used
DPF> ga_num_evals 25000000                # maximum number of energy evaluations

There will be at most 25000000 function evaluations used.
DPF> ga_num_generations 27000             # maximum number of generations

The GA will run for at most 27000 generations.
DPF> ga_elitism 1                         # number of top individuals to survive to next generation

The 1 best will be preserved each GA generation.
DPF> ga_mutation_rate 0.02                # rate of gene mutation

The mutation rate is 0.020000.
DPF> ga_crossover_rate 0.8                # rate of crossover

The crossover rate is 0.800000.
DPF> ga_window_size 10                    # 

The GA's selection window is 10 generations.
DPF> ga_cauchy_alpha 0.0                  # Alpha parameter of Cauchy distribution

The alpha parameter (for the Cauchy distribution) is being set to 0.000000.
DPF> ga_cauchy_beta 1.0                   # Beta parameter Cauchy distribution

The beta parameter (for the Cauchy distribution) is being set to 1.000000.
DPF> set_ga                               # set the above parameters for GA or LGA

DPF> sw_max_its 300                       # iterations of Solis & Wets local search

Solis & Wets algorithms will perform at most 300 iterations.
DPF> sw_max_succ 4                        # consecutive successes before changing rho

Solis & Wets algorithms expand rho every 4 in a row successes.
DPF> sw_max_fail 4                        # consecutive failures before changing rho

Solis & Wets algorithms contract rho every 4 in a row failures.
DPF> sw_rho 1.0                           # size of local search space to sample

rho is set to 1.000000.
DPF> sw_lb_rho 0.01                       # lower bound on rho

rho will never get smaller than 0.010000.
DPF> ls_search_freq 0.06                  # probability of performing local search on individual

Local search will be performed with frequency 0.060000.
DPF> set_psw1                             # set the above pseudo-Solis & Wets parameters

Creating a new Local Search object using the pseudo-Solis-Wets algorithm (pSW1) with the current settings.

DPF> unbound_model bound                  # state of unbound ligand

DPF> ga_run 100                           # do this many hybrid GA-LS runs

centering ligand on specified point: 8.781 34.984 -0.736
Furthest true ligand atom from "about" center is 7.934 Angstroms (maxrad).
Number of requested GA dockings = 100 runs
Unbound model to be used is 'same as bound' [AutoDock 4.2 default].

	BEGINNING GENETIC ALGORITHM DOCKING 1 of 100
Run: 1 Seed: 304918660 72064219 [ Run 1 of 100 GA/GALS ]
Beginning LAMARCKIAN GENETIC ALGORITHM (LGA), with a maximum of 25000000 energy evaluations.

Final-Value: -18.842


	FINAL GENETIC ALGORITHM DOCKED STATE
	_______________________________________________


Detailed state:  trans 41.054 29.105 16.143 quatxyzw 0.321024 -0.425556 -0.845569 0.029317 center 8.781 34.984 -0.736 ntor 12 103.6290 123.8929 -46.5004 -56.8834 -53.2759 -1.7011 175.6697 180.0000 -29.5073 18.1322 -159.9827 -180.0000
State:	 41.054  29.105  16.143   0.321 -0.426 -0.846 176.640    103.63  123.89  -46.50  -56.88  -53.28   -1.70  175.67  180.00  -29.51   18.13 -159.98 -180.00

DOCKED: MODEL        1
DOCKED: USER    Run = 1
DOCKED: USER    DPF = D:/Protein_go_brrr/autodock/final/2DN3/heme_Co/dock.dpf
DOCKED: USER  
DOCKED: USER    Estimated Free Energy of Binding    =  -13.57 kcal/mol  [=(1)+(2)+(3)-(4)]
DOCKED: USER    Estimated Inhibition Constant, Ki   =  113.36 pM (picomolar)  [Temperature = 298.15 K]
DOCKED: USER    
DOCKED: USER    (1) Final Intermolecular Energy     =  -17.15 kcal/mol
DOCKED: USER        vdW + Hbond + desolv Energy     =  -14.78 kcal/mol
DOCKED: USER        Electrostatic Energy            =   -2.37 kcal/mol
DOCKED: USER    (2) Final Total Internal Energy     =   -1.69 kcal/mol
DOCKED: USER    (3) Torsional Free Energy           =   +3.58 kcal/mol
DOCKED: USER    (4) Unbound System's Energy  [=(2)] =   -1.69 kcal/mol
DOCKED: USER    
DOCKED: USER    
DOCKED: USER    NEWDPF move heme_Co_opt.pdbqt
DOCKED: USER    NEWDPF about 8.781000 34.984000 -0.736000
DOCKED: USER    NEWDPF tran0 41.054290 29.104928 16.142564
DOCKED: USER    NEWDPF quaternion0 0.321024 -0.425556 -0.845569 0.029317
DOCKED: USER    NEWDPF axisangle0 0.321162 -0.425739 -0.845932 176.640035
DOCKED: USER    NEWDPF quat0 0.321162 -0.425739 -0.845932 176.640035
DOCKED: USER    NEWDPF dihe0 103.63 123.89 -46.50 -56.88 -53.28 -1.70 175.67 180.00 -29.51 18.13 -159.98 -180.00 
DOCKED: USER  keepresnum = 1 
DOCKED: USER  
DOCKED: REMARK  12 active torsions:
DOCKED: REMARK  status: ('A' for Active; 'I' for Inactive)
DOCKED: REMARK    1  A    between atoms: C_6  and  C_10 
DOCKED: REMARK    2  A    between atoms: C_10  and  C_11 
DOCKED: REMARK    3  A    between atoms: C_11  and  C_12 
DOCKED: REMARK    4  A    between atoms: C_12  and  O_14 
DOCKED: REMARK    5  A    between atoms: C_17  and  C_20 
DOCKED: REMARK    6  A    between atoms: C_24  and  C_27 
DOCKED: REMARK    7  A    between atoms: C_31  and  C_34 
DOCKED: REMARK    8  A    between atoms: C_34  and  C_35 
DOCKED: REMARK    9  A    between atoms: C_35  and  C_36 
DOCKED: REMARK   10  A    between atoms: C_36  and  O_38 
DOCKED: REMARK   11  A    between atoms: FE_43  and  C_44 
DOCKED: REMARK   12  A    between atoms: C_44  and  O_45 
DOCKED: USER                              x       y       z     vdW  Elec       q    Type
DOCKED: USER                           _______ _______ _______ _____ _____    ______ ____
DOCKED: ROOT
DOCKED: ATOM      1  C   UNL d   1      42.866  28.593  17.224 -0.26 +0.02    +0.064 A 
DOCKED: ATOM      2  C   UNL d   1      40.793  32.761  16.257 -0.47 +0.01    +0.064 C 
DOCKED: ATOM      3  C   UNL d   1      37.509  30.550  13.582 -0.33 +0.01    +0.064 A 
DOCKED: ATOM      4  C   UNL d   1      39.378  26.247  14.867 -0.37 +0.01    +0.064 A 
DOCKED: ATOM      5  C   UNL d   1      42.563  29.897  17.127 -0.31 +0.02    +0.066 A 
DOCKED: ATOM      6  C   UNL d   1      43.267  30.884  17.844 -0.35 -0.01    -0.021 A 
DOCKED: ATOM      7  C   UNL d   1      42.647  32.089  17.577 -0.39 -0.01    -0.025 A 
DOCKED: ATOM      8  C   UNL d   1      41.602  31.789  16.697 -0.36 +0.01    +0.066 A 
DOCKED: ATOM      9  C   UNL d   1      43.013  33.478  18.123 -0.45 +0.01    +0.051 C 
DOCKED: ATOM     10  C   UNL d   1      39.709  32.552  15.331 -0.40 +0.01    +0.066 A 
DOCKED: ATOM     11  C   UNL d   1      38.914  33.548  14.723 -0.42 -0.00    -0.021 A 
DOCKED: ATOM     12  C   UNL d   1      37.967  32.876  13.945 -0.40 +0.00    +0.000 A 
DOCKED: ATOM     13  C   UNL d   1      38.261  31.524  14.125 -0.37 +0.01    +0.070 A 
DOCKED: ATOM     14  C   UNL d   1      39.124  35.037  14.818 -0.54 +0.01    +0.052 C 
DOCKED: ATOM     15  C   UNL d   1      37.637  29.112  13.706 -0.38 +0.01    +0.066 A 
DOCKED: ATOM     16  C   UNL d   1      36.740  28.162  13.237 -0.47 -0.00    -0.021 A 
DOCKED: ATOM     17  C   UNL d   1      37.274  26.920  13.608 -0.45 +0.00    +0.000 A 
DOCKED: ATOM     18  C   UNL d   1      38.467  27.210  14.261 -0.37 +0.01    +0.070 A 
DOCKED: ATOM     19  C   UNL d   1      35.461  28.459  12.487 -0.67 +0.01    +0.052 C 
DOCKED: ATOM     20  C   UNL d   1      40.499  26.510  15.582 -0.38 +0.02    +0.066 A 
DOCKED: ATOM     21  C   UNL d   1      41.274  25.499  16.146 -0.38 -0.01    -0.025 A 
DOCKED: ATOM     22  C   UNL d   1      42.303  26.145  16.808 -0.32 -0.01    -0.021 A 
DOCKED: ATOM     23  C   UNL d   1      42.096  27.528  16.622 -0.33 +0.02    +0.066 A 
DOCKED: ATOM     24  C   UNL d   1      41.036  23.993  16.077 -0.54 +0.01    +0.051 C 
DOCKED: ATOM     25  N   UNL d   1      41.529  30.439  16.397 -0.07 -0.08    -0.248 N 
DOCKED: ATOM     26  N   UNL d   1      39.349  31.332  14.918 -0.22 -0.05    -0.248 N 
DOCKED: ATOM     27  N   UNL d   1      38.636  28.526  14.327 -0.20 -0.06    -0.248 N 
DOCKED: ATOM     28  N   UNL d   1      41.004  27.753  15.883 -0.20 -0.09    -0.248 N 
DOCKED: ATOM     29 FE   UNL d   1      39.999  29.423  15.301 -0.05 +0.00    +0.000 Fe
DOCKED: ENDROOT
DOCKED: BRANCH   6  30
DOCKED: ATOM     30  C   UNL d   1      44.431  30.655  18.802 -0.31 +0.02    +0.052 C 
DOCKED: BRANCH  30  31
DOCKED: ATOM     31  C   UNL d   1      43.928  30.098  20.134 +0.29 +0.08    +0.115 C 
DOCKED: BRANCH  31  32
DOCKED: ATOM     32  C   UNL d   1      44.936  29.181  20.793 +0.25 +0.18    +0.139 C 
DOCKED: ATOM     33  O   UNL d   1      46.107  29.523  20.859 -0.37 -0.87    -0.650 OA
DOCKED: BRANCH  32  34
DOCKED: ATOM     34  O   UNL d   1      44.574  28.006  21.360 -0.07 -1.27    -0.776 OA
DOCKED: ATOM     35  H   UNL d   1      44.669  27.144  20.933 +0.05 +0.18    +0.167 HD
DOCKED: ENDBRANCH  32  34
DOCKED: ENDBRANCH  31  32
DOCKED: ENDBRANCH  30  31
DOCKED: ENDBRANCH   6  30
DOCKED: BRANCH  29  36
DOCKED: ATOM     36  C   UNL d   1      38.892  29.405  17.082 -0.29 +0.05    +0.190 C 
DOCKED: BRANCH  36  37
DOCKED: ATOM     37  O   UNL d   1      37.865  28.730  17.749 -0.23 -0.08    -0.399 OA
DOCKED: ATOM     38  H   UNL d   1      37.707  27.906  17.209 +0.13 +0.04    +0.209 HD
DOCKED: ENDBRANCH  36  37
DOCKED: ENDBRANCH  29  36
DOCKED: BRANCH  22  39
DOCKED: ATOM     39  C   UNL d   1      43.386  25.465  17.626 -0.34 +0.02    +0.052 C 
DOCKED: BRANCH  39  40
DOCKED: ATOM     40  C   UNL d   1      42.850  25.069  19.012 -0.38 +0.04    +0.115 C 
DOCKED: BRANCH  40  41
DOCKED: ATOM     41  C   UNL d   1      43.921  24.661  20.002 -0.24 +0.08    +0.139 C 
DOCKED: ATOM     42  O   UNL d   1      44.843  23.951  19.626 -0.35 -0.39    -0.650 OA
DOCKED: BRANCH  41  43
DOCKED: ATOM     43  O   UNL d   1      43.932  25.130  21.269 -0.11 -0.48    -0.776 OA
DOCKED: ATOM     44  H   UNL d   1      43.718  26.047  21.485 +0.06 +0.13    +0.167 HD
DOCKED: ENDBRANCH  41  43
DOCKED: ENDBRANCH  40  41
DOCKED: ENDBRANCH  39  40
DOCKED: ENDBRANCH  22  39
DOCKED: BRANCH  12  45
DOCKED: ATOM     45  C   UNL d   1      36.837  33.353  13.043 -0.53 +0.00    +0.004 C 
DOCKED: ATOM     46  C   UNL d   1      35.716  34.008  13.332 -0.59 +0.00    +0.012 C 
DOCKED: ENDBRANCH  12  45
DOCKED: BRANCH  17  47
DOCKED: ATOM     47  C   UNL d   1      36.711  25.548  13.427 -0.64 +0.00    +0.004 C 
DOCKED: ATOM     48  C   UNL d   1      35.708  25.060  14.160 -0.68 +0.00    +0.012 C 
DOCKED: ENDBRANCH  17  47
DOCKED: TORSDOF 12
DOCKED: TER
DOCKED: ENDMDL
________________________________________________________________________________


	BEGINNING GENETIC ALGORITHM DOCKING 2 of 100
Run: 2 Seed: 318419043 727195546 [ Run 2 of 100 GA/GALS ]
Beginning LAMARCKIAN GENETIC ALGORITHM (LGA), with a maximum of 25000000 energy evaluations.

Final-Value: -11.163


	FINAL GENETIC ALGORITHM DOCKED STATE
	_______________________________________________


Detailed state:  trans 44.375 20.589 0.601 quatxyzw -0.342250 -0.740243 -0.564870 0.125804 center 8.781 34.984 -0.736 ntor 12 -180.0000 152.1254 -75.2083 -101.1337 166.4790 171.8486 -139.3862 126.0765 -79.2481 39.6539 -174.8541 -160.6827
State:	 44.375  20.589   0.601  -0.345 -0.746 -0.569 165.546   -180.00  152.13  -75.21 -101.13  166.48  171.85 -139.39  126.08  -79.25   39.65 -174.85 -160.68

DOCKED: MODEL        2
DOCKED: USER    Run = 2
DOCKED: USER    DPF = D:/Protein_go_brrr/autodock/final/2DN3/heme_Co/dock.dpf
DOCKED: USER  
DOCKED: USER    Estimated Free Energy of Binding    =   -5.40 kcal/mol  [=(1)+(2)+(3)-(4)]
DOCKED: USER    Estimated Inhibition Constant, Ki   =  109.79 uM (micromolar)  [Temperature = 298.15 K]
DOCKED: USER    
DOCKED: USER    (1) Final Intermolecular Energy     =   -8.98 kcal/mol
DOCKED: USER        vdW + Hbond + desolv Energy     =   -7.09 kcal/mol
DOCKED: USER        Electrostatic Energy            =   -1.89 kcal/mol
DOCKED: USER    (2) Final Total Internal Energy     =   -2.18 kcal/mol
DOCKED: USER    (3) Torsional Free Energy           =   +3.58 kcal/mol
DOCKED: USER    (4) Unbound System's Energy  [=(2)] =   -2.18 kcal/mol
DOCKED: USER    
DOCKED: USER    
DOCKED: USER    NEWDPF move heme_Co_opt.pdbqt
DOCKED: USER    NEWDPF about 8.781000 34.984000 -0.736000
DOCKED: USER    NEWDPF tran0 44.374591 20.588858 0.600768
DOCKED: USER    NEWDPF quaternion0 -0.342250 -0.740243 -0.564870 0.125804
DOCKED: USER    NEWDPF axisangle0 -0.344991 -0.746172 -0.569394 165.545677
DOCKED: USER    NEWDPF quat0 -0.344991 -0.746172 -0.569394 165.545677
DOCKED: USER    NEWDPF dihe0 -180.00 152.13 -75.21 -101.13 166.48 171.85 -139.39 126.08 -79.25 39.65 -174.85 -160.68 
DOCKED: USER  keepresnum = 1 
DOCKED: USER  
DOCKED: REMARK  12 active torsions:
DOCKED: REMARK  status: ('A' for Active; 'I' for Inactive)
DOCKED: REMARK    1  A    between atoms: C_6  and  C_10 
DOCKED: REMARK    2  A    between atoms: C_10  and  C_11 
DOCKED: REMARK    3  A    between atoms: C_11  and  C_12 
DOCKED: REMARK    4  A    between atoms: C_12  and  O_14 
DOCKED: REMARK    5  A    between atoms: C_17  and  C_20 
DOCKED: REMARK    6  A    between atoms: C_24  and  C_27 
DOCKED: REMARK    7  A    between atoms: C_31  and  C_34 
DOCKED: REMARK    8  A    between atoms: C_34  and  C_35 
DOCKED: REMARK    9  A    between atoms: C_35  and  C_36 
DOCKED: REMARK   10  A    between atoms: C_36  and  O_38 
DOCKED: REMARK   11  A    between atoms: FE_43  and  C_44 
DOCKED: REMARK   12  A    between atoms: C_44  and  O_45 
DOCKED: USER                              x       y       z     vdW  Elec       q    Type
DOCKED: USER                           _______ _______ _______ _____ _____    ______ ____
DOCKED: ROOT
DOCKED: ATOM      1  C   UNL d   1      45.490  18.759   0.954 -0.06 +0.03    +0.064 A 
DOCKED: ATOM      2  C   UNL d   1      45.736  22.039  -2.481 -0.08 +0.01    +0.064 C 
DOCKED: ATOM      3  C   UNL d   1      41.941  24.293  -0.652 -0.16 +0.01    +0.064 A 
DOCKED: ATOM      4  C   UNL d   1      41.906  21.177   3.083 -0.18 +0.02    +0.064 A 
DOCKED: ATOM      5  C   UNL d   1      45.814  19.469  -0.139 -0.05 +0.03    +0.066 A 
DOCKED: ATOM      6  C   UNL d   1      46.941  19.160  -0.925 -0.03 -0.01    -0.021 A 
DOCKED: ATOM      7  C   UNL d   1      47.021  20.128  -1.907 -0.06 -0.01    -0.025 A 
DOCKED: ATOM      8  C   UNL d   1      45.930  20.977  -1.688 -0.09 +0.01    +0.066 A 
DOCKED: ATOM      9  C   UNL d   1      48.077  20.263  -3.014 -0.05 +0.01    +0.051 C 
DOCKED: ATOM     10  C   UNL d   1      44.628  22.952  -2.349 -0.07 +0.01    +0.066 A 
DOCKED: ATOM     11  C   UNL d   1      44.290  24.001  -3.231 -0.04 -0.00    -0.021 A 
DOCKED: ATOM     12  C   UNL d   1      43.178  24.640  -2.676 -0.14 +0.00    +0.000 A 
DOCKED: ATOM     13  C   UNL d   1      42.912  23.927  -1.506 -0.14 +0.01    +0.070 A 
DOCKED: ATOM     14  C   UNL d   1      44.942  24.296  -4.558 +0.02 +0.01    +0.052 C 
DOCKED: ATOM     15  C   UNL d   1      41.565  23.707   0.620 -0.19 +0.01    +0.066 A 
DOCKED: ATOM     16  C   UNL d   1      40.647  24.221   1.524 -0.29 -0.00    -0.021 A 
DOCKED: ATOM     17  C   UNL d   1      40.635  23.327   2.604 -0.35 +0.00    +0.000 A 
DOCKED: ATOM     18  C   UNL d   1      41.538  22.325   2.264 -0.18 +0.01    +0.070 A 
DOCKED: ATOM     19  C   UNL d   1      39.848  25.492   1.336 -0.19 +0.01    +0.052 C 
DOCKED: ATOM     20  C   UNL d   1      42.844  20.237   2.812 -0.15 +0.03    +0.066 A 
DOCKED: ATOM     21  C   UNL d   1      43.133  19.200   3.696 -0.16 -0.01    -0.025 A 
DOCKED: ATOM     22  C   UNL d   1      44.143  18.470   3.095 -0.13 -0.01    -0.021 A 
DOCKED: ATOM     23  C   UNL d   1      44.430  19.110   1.871 -0.09 +0.04    +0.066 A 
DOCKED: ATOM     24  C   UNL d   1      42.494  18.928   5.055 -0.16 +0.02    +0.051 C 
DOCKED: ATOM     25  N   UNL d   1      45.162  20.589  -0.604 -0.04 -0.08    -0.248 N 
DOCKED: ATOM     26  N   UNL d   1      43.755  22.873  -1.339 -0.08 -0.05    -0.248 N 
DOCKED: ATOM     27  N   UNL d   1      42.095  22.600   1.090 -0.08 -0.06    -0.248 N 
DOCKED: ATOM     28  N   UNL d   1      43.647  20.182   1.697 -0.07 -0.13    -0.248 N 
DOCKED: ATOM     29 FE   UNL d   1      43.537  21.651   0.296 -0.02 +0.00    +0.000 Fe
DOCKED: ENDROOT
DOCKED: BRANCH   6  30
DOCKED: ATOM     30  C   UNL d   1      47.936  18.029  -0.683 -0.01 +0.02    +0.052 C 
DOCKED: BRANCH  30  31
DOCKED: ATOM     31  C   UNL d   1      49.092  18.510   0.194 -0.02 +0.05    +0.115 C 
DOCKED: BRANCH  31  32
DOCKED: ATOM     32  C   UNL d   1      48.916  18.120   1.646 -0.05 +0.09    +0.139 C 
DOCKED: ATOM     33  O   UNL d   1      49.380  17.062   2.045 +0.01 -0.28    -0.650 OA
DOCKED: BRANCH  32  34
DOCKED: ATOM     34  O   UNL d   1      48.299  18.931   2.537 -0.45 -1.12    -0.776 OA
DOCKED: ATOM     35  H   UNL d   1      48.118  18.691   3.456 +0.01 +0.30    +0.167 HD
DOCKED: ENDBRANCH  32  34
DOCKED: ENDBRANCH  31  32
DOCKED: ENDBRANCH  30  31
DOCKED: ENDBRANCH   6  30
DOCKED: BRANCH  29  36
DOCKED: ATOM     36  C   UNL d   1      44.984  22.770   1.321 -0.24 +0.15    +0.190 C 
DOCKED: BRANCH  36  37
DOCKED: ATOM     37  O   UNL d   1      46.342  23.103   1.319 -0.84 -0.40    -0.399 OA
DOCKED: ATOM     38  H   UNL d   1      46.577  23.216   0.356 -0.50 +0.04    +0.209 HD
DOCKED: ENDBRANCH  36  37
DOCKED: ENDBRANCH  29  36
DOCKED: BRANCH  22  39
DOCKED: ATOM     39  C   UNL d   1      44.835  17.262   3.700 -0.10 +0.03    +0.052 C 
DOCKED: BRANCH  39  40
DOCKED: ATOM     40  C   UNL d   1      45.502  17.632   5.035 +0.03 +0.09    +0.115 C 
DOCKED: BRANCH  40  41
DOCKED: ATOM     41  C   UNL d   1      46.793  16.891   5.314 -0.00 +0.10    +0.139 C 
DOCKED: ATOM     42  O   UNL d   1      46.766  15.881   6.004 +0.01 -0.27    -0.650 OA
DOCKED: BRANCH  41  43
DOCKED: ATOM     43  O   UNL d   1      47.963  17.264   4.750 -0.39 -0.71    -0.776 OA
DOCKED: ATOM     44  H   UNL d   1      48.138  17.167   3.805 +0.01 +0.13    +0.167 HD
DOCKED: ENDBRANCH  41  43
DOCKED: ENDBRANCH  40  41
DOCKED: ENDBRANCH  39  40
DOCKED: ENDBRANCH  22  39
DOCKED: BRANCH  12  45
DOCKED: ATOM     45  C   UNL d   1      42.329  25.822  -3.123 -0.11 +0.00    +0.004 C 
DOCKED: ATOM     46  C   UNL d   1      42.228  27.052  -2.627 -0.17 +0.00    +0.012 C 
DOCKED: ENDBRANCH  12  45
DOCKED: BRANCH  17  47
DOCKED: ATOM     47  C   UNL d   1      39.887  23.400   3.895 -0.55 -0.00    +0.004 C 
DOCKED: ATOM     48  C   UNL d   1      39.400  22.329   4.526 -0.40 -0.00    +0.012 C 
DOCKED: ENDBRANCH  17  47
DOCKED: TORSDOF 12
DOCKED: TER
DOCKED: ENDMDL
________________________________________________________________________________


	BEGINNING GENETIC ALGORITHM DOCKING 3 of 100
Run: 3 Seed: 1993477061 1569816148 [ Run 3 of 100 GA/GALS ]
Beginning LAMARCKIAN GENETIC ALGORITHM (LGA), with a maximum of 25000000 energy evaluations.

Final-Value: -10.553


	FINAL GENETIC ALGORITHM DOCKED STATE
	_______________________________________________


Detailed state:  trans 42.013 43.811 2.231 quatxyzw -0.774478 0.547722 -0.124813 -0.290871 center 8.781 34.984 -0.736 ntor 12 -35.3929 111.7446 133.9031 112.9571 -47.8284 168.1737 16.7632 -142.1621 17.0161 -64.4207 24.2966 22.9389
State:	 42.013  43.811   2.231  -0.809  0.572 -0.130 -146.180    -35.39  111.74  133.90  112.96  -47.83  168.17   16.76 -142.16   17.02  -64.42   24.30   22.94

DOCKED: MODEL        3
DOCKED: USER    Run = 3
DOCKED: USER    DPF = D:/Protein_go_brrr/autodock/final/2DN3/heme_Co/dock.dpf
DOCKED: USER  
DOCKED: USER    Estimated Free Energy of Binding    =   -4.71 kcal/mol  [=(1)+(2)+(3)-(4)]
DOCKED: USER    Estimated Inhibition Constant, Ki   =  350.25 uM (micromolar)  [Temperature = 298.15 K]
DOCKED: USER    
DOCKED: USER    (1) Final Intermolecular Energy     =   -8.29 kcal/mol
DOCKED: USER        vdW + Hbond + desolv Energy     =   -6.88 kcal/mol
DOCKED: USER        Electrostatic Energy            =   -1.42 kcal/mol
DOCKED: USER    (2) Final Total Internal Energy     =   -2.26 kcal/mol
DOCKED: USER    (3) Torsional Free Energy           =   +3.58 kcal/mol
DOCKED: USER    (4) Unbound System's Energy  [=(2)] =   -2.26 kcal/mol
DOCKED: USER    
DOCKED: USER    
DOCKED: USER    NEWDPF move heme_Co_opt.pdbqt
DOCKED: USER    NEWDPF about 8.781000 34.984000 -0.736000
DOCKED: USER    NEWDPF tran0 42.012536 43.811055 2.231203
DOCKED: USER    NEWDPF quaternion0 -0.774478 0.547722 -0.124813 -0.290871
DOCKED: USER    NEWDPF axisangle0 -0.809478 0.572475 -0.130454 -146.179739
DOCKED: USER    NEWDPF quat0 -0.809478 0.572475 -0.130454 -146.179739
DOCKED: USER    NEWDPF dihe0 -35.39 111.74 133.90 112.96 -47.83 168.17 16.76 -142.16 17.02 -64.42 24.30 22.94 
DOCKED: USER  keepresnum = 1 
DOCKED: USER  
DOCKED: REMARK  12 active torsions:
DOCKED: REMARK  status: ('A' for Active; 'I' for Inactive)
DOCKED: REMARK    1  A    between atoms: C_6  and  C_10 
DOCKED: REMARK    2  A    between atoms: C_10  and  C_11 
DOCKED: REMARK    3  A    between atoms: C_11  and  C_12 
DOCKED: REMARK    4  A    between atoms: C_12  and  O_14 
DOCKED: REMARK    5  A    between atoms: C_17  and  C_20 
DOCKED: REMARK    6  A    between atoms: C_24  and  C_27 
DOCKED: REMARK    7  A    between atoms: C_31  and  C_34 
DOCKED: REMARK    8  A    between atoms: C_34  and  C_35 
DOCKED: REMARK    9  A    between atoms: C_35  and  C_36 
DOCKED: REMARK   10  A    between atoms: C_36  and  O_38 
DOCKED: REMARK   11  A    between atoms: FE_43  and  C_44 
DOCKED: REMARK   12  A    between atoms: C_44  and  O_45 
DOCKED: USER                              x       y       z     vdW  Elec       q    Type
DOCKED: USER                           _______ _______ _______ _____ _____    ______ ____
DOCKED: ROOT
DOCKED: ATOM      1  C   UNL d   1      40.477  45.211   2.860 -0.11 +0.02    +0.064 A 
DOCKED: ATOM      2  C   UNL d   1      44.917  45.838   1.278 -0.06 +0.00    +0.064 C 
DOCKED: ATOM      3  C   UNL d   1      45.604  41.110   1.222 -0.09 +0.01    +0.064 A 
DOCKED: ATOM      4  C   UNL d   1      40.951  40.432   2.467 -0.25 +0.02    +0.064 A 
DOCKED: ATOM      5  C   UNL d   1      41.651  45.731   2.467 -0.08 +0.01    +0.066 A 
DOCKED: ATOM      6  C   UNL d   1      41.832  47.116   2.285 -0.07 -0.00    -0.021 A 
DOCKED: ATOM      7  C   UNL d   1      43.115  47.290   1.804 -0.06 -0.00    -0.025 A 
DOCKED: ATOM      8  C   UNL d   1      43.667  46.007   1.729 -0.07 +0.00    +0.066 A 
DOCKED: ATOM      9  C   UNL d   1      43.808  48.607   1.424 -0.04 -0.00    +0.051 C 
DOCKED: ATOM     10  C   UNL d   1      45.577  44.559   1.191 -0.08 +0.00    +0.066 A 
DOCKED: ATOM     11  C   UNL d   1      46.931  44.330   0.860 -0.05 -0.00    -0.021 A 
DOCKED: ATOM     12  C   UNL d   1      47.105  42.943   0.855 -0.07 +0.00    +0.000 A 
DOCKED: ATOM     13  C   UNL d   1      45.852  42.431   1.194 -0.08 +0.01    +0.070 A 
DOCKED: ATOM     14  C   UNL d   1      47.991  45.382   0.662 -0.02 -0.00    +0.052 C 
DOCKED: ATOM     15  C   UNL d   1      44.363  40.413   1.498 -0.05 +0.01    +0.066 A 
DOCKED: ATOM     16  C   UNL d   1      44.139  39.049   1.369 -0.20 -0.01    -0.021 A 
DOCKED: ATOM     17  C   UNL d   1      42.797  38.849   1.724 -0.30 +0.00    +0.000 A 
DOCKED: ATOM     18  C   UNL d   1      42.312  40.109   2.061 -0.23 +0.02    +0.070 A 
DOCKED: ATOM     19  C   UNL d   1      45.165  38.030   0.928 -0.18 +0.01    +0.052 C 
DOCKED: ATOM     20  C   UNL d   1      40.434  41.659   2.716 -0.21 +0.02    +0.066 A 
DOCKED: ATOM     21  C   UNL d   1      39.098  41.846   3.065 -0.27 -0.01    -0.025 A 
DOCKED: ATOM     22  C   UNL d   1      38.939  43.212   3.213 -0.21 -0.01    -0.021 A 
DOCKED: ATOM     23  C   UNL d   1      40.193  43.796   2.933 -0.13 +0.02    +0.066 A 
DOCKED: ATOM     24  C   UNL d   1      38.020  40.779   3.230 -0.31 +0.02    +0.051 C 
DOCKED: ATOM     25  N   UNL d   1      42.784  45.022   2.139 -0.06 -0.03    -0.248 N 
DOCKED: ATOM     26  N   UNL d   1      44.944  43.411   1.451 -0.05 -0.03    -0.248 N 
DOCKED: ATOM     27  N   UNL d   1      43.264  41.019   1.885 -0.03 -0.06    -0.248 N 
DOCKED: ATOM     28  N   UNL d   1      41.100  42.859   2.629 -0.09 -0.06    -0.248 N 
DOCKED: ATOM     29 FE   UNL d   1      43.035  42.902   2.006 -0.04 +0.00    +0.000 Fe
DOCKED: ENDROOT
DOCKED: BRANCH   6  30
DOCKED: ATOM     30  C   UNL d   1      40.784  48.205   2.489 -0.10 +0.01    +0.052 C 
DOCKED: BRANCH  30  31
DOCKED: ATOM     31  C   UNL d   1      41.100  49.027   3.738 -0.21 +0.00    +0.115 C 
DOCKED: BRANCH  31  32
DOCKED: ATOM     32  C   UNL d   1      39.923  49.865   4.190 -0.22 +0.04    +0.139 C 
DOCKED: ATOM     33  O   UNL d   1      39.990  51.083   4.118 -0.54 -0.38    -0.650 OA
DOCKED: BRANCH  32  34
DOCKED: ATOM     34  O   UNL d   1      38.772  49.307   4.630 -0.11 -0.41    -0.776 OA
DOCKED: ATOM     35  H   UNL d   1      38.364  48.522   4.239 +0.07 +0.08    +0.167 HD
DOCKED: ENDBRANCH  32  34
DOCKED: ENDBRANCH  31  32
DOCKED: ENDBRANCH  30  31
DOCKED: ENDBRANCH   6  30
DOCKED: BRANCH  29  36
DOCKED: ATOM     36  C   UNL d   1      42.413  43.066   0.011 -0.04 +0.03    +0.190 C 
DOCKED: BRANCH  36  37
DOCKED: ATOM     37  O   UNL d   1      42.186  43.992  -1.013 -0.00 -0.06    -0.399 OA
DOCKED: ATOM     38  H   UNL d   1      42.387  44.880  -0.604 +0.01 +0.03    +0.209 HD
DOCKED: ENDBRANCH  36  37
DOCKED: ENDBRANCH  29  36
DOCKED: BRANCH  22  39
DOCKED: ATOM     39  C   UNL d   1      37.636  43.916   3.541 -0.31 +0.03    +0.052 C 
DOCKED: BRANCH  39  40
DOCKED: ATOM     40  C   UNL d   1      37.792  44.789   4.797 -0.36 +0.06    +0.115 C 
DOCKED: BRANCH  40  41
DOCKED: ATOM     41  C   UNL d   1      37.759  46.279   4.530 -0.33 +0.09    +0.139 C 
DOCKED: ATOM     42  O   UNL d   1      37.691  46.679   3.376 -0.56 -0.58    -0.650 OA
DOCKED: BRANCH  41  43
DOCKED: ATOM     43  O   UNL d   1      37.714  47.180   5.536 -0.14 -0.39    -0.776 OA
DOCKED: ATOM     44  H   UNL d   1      38.213  48.007   5.515 +0.09 +0.07    +0.167 HD
DOCKED: ENDBRANCH  41  43
DOCKED: ENDBRANCH  40  41
DOCKED: ENDBRANCH  39  40
DOCKED: ENDBRANCH  22  39
DOCKED: BRANCH  12  45
DOCKED: ATOM     45  C   UNL d   1      48.308  42.049   0.589 -0.05 +0.00    +0.004 C 
DOCKED: ATOM     46  C   UNL d   1      49.079  41.362   1.428 -0.06 +0.00    +0.012 C 
DOCKED: ENDBRANCH  12  45
DOCKED: BRANCH  17  47
DOCKED: ATOM     47  C   UNL d   1      41.984  37.597   1.712 -0.27 +0.00    +0.004 C 
DOCKED: ATOM     48  C   UNL d   1      41.605  36.974   0.594 -0.26 +0.00    +0.012 C 
DOCKED: ENDBRANCH  17  47
DOCKED: TORSDOF 12
DOCKED: TER
DOCKED: ENDMDL
________________________________________________________________________________


	BEGINNING GENETIC ALGORITHM DOCKING 4 of 100
Run: 4 Seed: 128102931 429736047 [ Run 4 of 100 GA/GALS ]
Beginning LAMARCKIAN GENETIC ALGORITHM (LGA), with a maximum of 25000000 energy evaluations.

Final-Value: -10.006


	FINAL GENETIC ALGORITHM DOCKED STATE
	_______________________________________________


Detailed state:  trans 5.382 21.589 22.084 quatxyzw -0.438431 0.024423 0.844192 -0.307444 center 8.781 34.984 -0.736 ntor 12 -119.8318 57.9822 -49.2895 143.0676 -89.4988 150.6922 42.1140 -81.3614 145.1822 -57.0691 -152.2760 -145.6467
State:	  5.382  21.589  22.084  -0.461  0.026  0.887 -144.189   -119.83   57.98  -49.29  143.07  -89.50  150.69   42.11  -81.36  145.18  -57.07 -152.28 -145.65

DOCKED: MODEL        4
DOCKED: USER    Run = 4
DOCKED: USER    DPF = D:/Protein_go_brrr/autodock/final/2DN3/heme_Co/dock.dpf
DOCKED: USER  
DOCKED: USER    Estimated Free Energy of Binding    =   -4.33 kcal/mol  [=(1)+(2)+(3)-(4)]
DOCKED: USER    Estimated Inhibition Constant, Ki   =  668.59 uM (micromolar)  [Temperature = 298.15 K]
DOCKED: USER    
DOCKED: USER    (1) Final Intermolecular Energy     =   -7.91 kcal/mol
DOCKED: USER        vdW + Hbond + desolv Energy     =   -6.35 kcal/mol
DOCKED: USER        Electrostatic Energy            =   -1.56 kcal/mol
DOCKED: USER    (2) Final Total Internal Energy     =   -2.09 kcal/mol
DOCKED: USER    (3) Torsional Free Energy           =   +3.58 kcal/mol
DOCKED: USER    (4) Unbound System's Energy  [=(2)] =   -2.09 kcal/mol
DOCKED: USER    
DOCKED: USER    
DOCKED: USER    NEWDPF move heme_Co_opt.pdbqt
DOCKED: USER    NEWDPF about 8.781000 34.984000 -0.736000
DOCKED: USER    NEWDPF tran0 5.382478 21.589202 22.083800
DOCKED: USER    NEWDPF quaternion0 -0.438431 0.024423 0.844192 -0.307444
DOCKED: USER    NEWDPF axisangle0 -0.460746 0.025667 0.887161 -144.189456
DOCKED: USER    NEWDPF quat0 -0.460746 0.025667 0.887161 -144.189456
DOCKED: USER    NEWDPF dihe0 -119.83 57.98 -49.29 143.07 -89.50 150.69 42.11 -81.36 145.18 -57.07 -152.28 -145.65 
DOCKED: USER  keepresnum = 1 
DOCKED: USER  
DOCKED: REMARK  12 active torsions:
DOCKED: REMARK  status: ('A' for Active; 'I' for Inactive)
DOCKED: REMARK    1  A    between atoms: C_6  and  C_10 
DOCKED: REMARK    2  A    between atoms: C_10  and  C_11 
DOCKED: REMARK    3  A    between atoms: C_11  and  C_12 
DOCKED: REMARK    4  A    between atoms: C_12  and  O_14 
DOCKED: REMARK    5  A    between atoms: C_17  and  C_20 
DOCKED: REMARK    6  A    between atoms: C_24  and  C_27 
DOCKED: REMARK    7  A    between atoms: C_31  and  C_34 
DOCKED: REMARK    8  A    between atoms: C_34  and  C_35 
DOCKED: REMARK    9  A    between atoms: C_35  and  C_36 
DOCKED: REMARK   10  A    between atoms: C_36  and  O_38 
DOCKED: REMARK   11  A    between atoms: FE_43  and  C_44 
DOCKED: REMARK   12  A    between atoms: C_44  and  O_45 
DOCKED: USER                              x       y       z     vdW  Elec       q    Type
DOCKED: USER                           _______ _______ _______ _____ _____    ______ ____
DOCKED: ROOT
DOCKED: ATOM      1  C   UNL d   1       6.555  19.958  22.909 -0.25 +0.00    +0.064 A 
DOCKED: ATOM      2  C   UNL d   1       4.747  23.899  24.860 -0.17 +0.00    +0.064 C 
DOCKED: ATOM      3  C   UNL d   1       3.247  25.380  20.572 -0.12 +0.00    +0.064 A 
DOCKED: ATOM      4  C   UNL d   1       4.743  21.185  18.615 -0.15 +0.00    +0.064 A 
DOCKED: ATOM      5  C   UNL d   1       6.203  20.943  23.752 -0.22 -0.00    +0.066 A 
DOCKED: ATOM      6  C   UNL d   1       6.411  20.848  25.141 -0.15 +0.00    -0.021 A 
DOCKED: ATOM      7  C   UNL d   1       5.864  21.984  25.705 -0.15 +0.00    -0.025 A 
DOCKED: ATOM      8  C   UNL d   1       5.360  22.731  24.635 -0.18 -0.00    +0.066 A 
DOCKED: ATOM      9  C   UNL d   1       5.810  22.366  27.192 -0.09 -0.00    +0.051 C 
DOCKED: ATOM     10  C   UNL d   1       4.220  24.749  23.821 -0.17 +0.00    +0.066 A 
DOCKED: ATOM     11  C   UNL d   1       3.692  26.048  23.980 -0.19 -0.00    -0.021 A 
DOCKED: ATOM     12  C   UNL d   1       3.266  26.458  22.713 -0.20 +0.00    +0.000 A 
DOCKED: ATOM     13  C   UNL d   1       3.577  25.386  21.876 -0.16 +0.00    +0.070 A 
DOCKED: ATOM     14  C   UNL d   1       3.692  26.862  25.248 -0.13 +0.00    +0.052 C 
DOCKED: ATOM     15  C   UNL d   1       3.443  24.342  19.579 -0.08 +0.00    +0.066 A 
DOCKED: ATOM     16  C   UNL d   1       2.949  24.340  18.282 -0.14 +0.00    -0.021 A 
DOCKED: ATOM     17  C   UNL d   1       3.376  23.131  17.714 -0.20 -0.00    +0.000 A 
DOCKED: ATOM     18  C   UNL d   1       4.114  22.496  18.708 -0.08 -0.00    +0.070 A 
DOCKED: ATOM     19  C   UNL d   1       2.122  25.441  17.657 -0.12 -0.00    +0.052 C 
DOCKED: ATOM     20  C   UNL d   1       5.392  20.510  19.595 -0.19 +0.00    +0.066 A 
DOCKED: ATOM     21  C   UNL d   1       5.924  19.238  19.395 -0.20 -0.01    -0.025 A 
DOCKED: ATOM     22  C   UNL d   1       6.478  18.871  20.608 -0.22 -0.00    -0.021 A 
DOCKED: ATOM     23  C   UNL d   1       6.244  19.941  21.498 -0.26 +0.00    +0.066 A 
DOCKED: ATOM     24  C   UNL d   1       5.889  18.405  18.117 -0.20 +0.02    +0.051 C 
DOCKED: ATOM     25  N   UNL d   1       5.561  22.113  23.412 -0.13 +0.03    -0.248 N 
DOCKED: ATOM     26  N   UNL d   1       4.204  24.377  22.536 -0.02 +0.00    -0.248 N 
DOCKED: ATOM     27  N   UNL d   1       4.107  23.232  19.814 +0.06 +0.01    -0.248 N 
DOCKED: ATOM     28  N   UNL d   1       5.585  20.934  20.889 -0.16 +0.01    -0.248 N 
DOCKED: ATOM     29 FE   UNL d   1       4.793  22.703  21.505 -0.06 -0.00    +0.000 Fe
DOCKED: ENDROOT
DOCKED: BRANCH   6  30
DOCKED: ATOM     30  C   UNL d   1       7.036  19.675  25.889 -0.11 +0.00    +0.052 C 
DOCKED: BRANCH  30  31
DOCKED: ATOM     31  C   UNL d   1       6.120  18.452  25.830 -0.06 +0.00    +0.115 C 
DOCKED: BRANCH  31  32
DOCKED: ATOM     32  C   UNL d   1       4.655  18.823  25.908 -0.01 +0.00    +0.139 C 
DOCKED: ATOM     33  O   UNL d   1       4.122  18.938  27.001 +0.01 -0.01    -0.650 OA
DOCKED: BRANCH  32  34
DOCKED: ATOM     34  O   UNL d   1       3.921  19.082  24.801 +0.03 -0.02    -0.776 OA
DOCKED: ATOM     35  H   UNL d   1       3.431  19.903  24.653 +0.01 +0.00    +0.167 HD
DOCKED: ENDBRANCH  32  34
DOCKED: ENDBRANCH  31  32
DOCKED: ENDBRANCH  30  31
DOCKED: ENDBRANCH   6  30
DOCKED: BRANCH  29  36
DOCKED: ATOM     36  C   UNL d   1       3.012  21.742  22.051 -0.05 -0.00    +0.190 C 
DOCKED: BRANCH  36  37
DOCKED: ATOM     37  O   UNL d   1       2.427  20.968  23.059 +0.00 +0.00    -0.399 OA
DOCKED: ATOM     38  H   UNL d   1       3.033  20.183  23.163 +0.02 +0.00    +0.209 HD
DOCKED: ENDBRANCH  36  37
DOCKED: ENDBRANCH  29  36
DOCKED: BRANCH  22  39
DOCKED: ATOM     39  C   UNL d   1       7.136  17.537  20.906 -0.27 +0.02    +0.052 C 
DOCKED: BRANCH  39  40
DOCKED: ATOM     40  C   UNL d   1       6.300  16.380  20.336 -0.16 +0.05    +0.115 C 
DOCKED: BRANCH  40  41
DOCKED: ATOM     41  C   UNL d   1       7.005  15.565  19.272 -0.02 +0.15    +0.139 C 
DOCKED: ATOM     42  O   UNL d   1       8.079  15.040  19.533 -0.07 -0.84    -0.650 OA
DOCKED: BRANCH  41  43
DOCKED: ATOM     43  O   UNL d   1       6.440  15.328  18.068 -0.51 -1.09    -0.776 OA
DOCKED: ATOM     44  H   UNL d   1       5.509  15.088  17.969 +0.02 +0.10    +0.167 HD
DOCKED: ENDBRANCH  41  43
DOCKED: ENDBRANCH  40  41
DOCKED: ENDBRANCH  39  40
DOCKED: ENDBRANCH  22  39
DOCKED: BRANCH  12  45
DOCKED: ATOM     45  C   UNL d   1       2.622  27.738  22.198 -0.19 -0.00    +0.004 C 
DOCKED: ATOM     46  C   UNL d   1       2.892  28.470  21.120 -0.22 -0.00    +0.012 C 
DOCKED: ENDBRANCH  12  45
DOCKED: BRANCH  17  47
DOCKED: ATOM     47  C   UNL d   1       3.090  22.557  16.366 -0.25 -0.00    +0.004 C 
DOCKED: ATOM     48  C   UNL d   1       2.327  21.479  16.169 -0.21 -0.00    +0.012 C 
DOCKED: ENDBRANCH  17  47
DOCKED: TORSDOF 12
DOCKED: TER
DOCKED: ENDMDL
________________________________________________________________________________


	BEGINNING GENETIC ALGORITHM DOCKING 5 of 100
Run: 5 Seed: 1020308794 618419595 [ Run 5 of 100 GA/GALS ]
Beginning LAMARCKIAN GENETIC ALGORITHM (LGA), with a maximum of 25000000 energy evaluations.

Final-Value: -11.645


	FINAL GENETIC ALGORITHM DOCKED STATE
	_______________________________________________


Detailed state:  trans 29.443 40.292 -1.448 quatxyzw 0.043594 0.684619 -0.628858 -0.365971 center 8.781 34.984 -0.736 ntor 12 -68.2103 105.9712 126.1576 123.6276 149.1848 142.8277 8.9146 -152.3322 56.6121 -57.8984 35.1822 15.6084
State:	 29.443  40.292  -1.448   0.047  0.736 -0.676 -137.065    -68.21  105.97  126.16  123.63  149.18  142.83    8.91 -152.33   56.61  -57.90   35.18   15.61

DOCKED: MODEL        5
DOCKED: USER    Run = 5
DOCKED: USER    DPF = D:/Protein_go_brrr/autodock/final/2DN3/heme_Co/dock.dpf
DOCKED: USER  
DOCKED: USER    Estimated Free Energy of Binding    =   -5.86 kcal/mol  [=(1)+(2)+(3)-(4)]
DOCKED: USER    Estimated Inhibition Constant, Ki   =   50.91 uM (micromolar)  [Temperature = 298.15 K]
DOCKED: USER    
DOCKED: USER    (1) Final Intermolecular Energy     =   -9.44 kcal/mol
DOCKED: USER        vdW + Hbond + desolv Energy     =   -6.62 kcal/mol
DOCKED: USER        Electrostatic Energy            =   -2.82 kcal/mol
DOCKED: USER    (2) Final Total Internal Energy     =   -2.21 kcal/mol
DOCKED: USER    (3) Torsional Free Energy           =   +3.58 kcal/mol
DOCKED: USER    (4) Unbound System's Energy  [=(2)] =   -2.21 kcal/mol
DOCKED: USER    
DOCKED: USER    
DOCKED: USER    NEWDPF move heme_Co_opt.pdbqt
DOCKED: USER    NEWDPF about 8.781000 34.984000 -0.736000
DOCKED: USER    NEWDPF tran0 29.443294 40.292250 -1.447676
DOCKED: USER    NEWDPF quaternion0 0.043594 0.684619 -0.628858 -0.365971
DOCKED: USER    NEWDPF axisangle0 0.046843 0.735654 -0.675736 -137.065273
DOCKED: USER    NEWDPF quat0 0.046843 0.735654 -0.675736 -137.065273
DOCKED: USER    NEWDPF dihe0 -68.21 105.97 126.16 123.63 149.18 142.83 8.91 -152.33 56.61 -57.90 35.18 15.61 
DOCKED: USER  keepresnum = 1 
DOCKED: USER  
DOCKED: REMARK  12 active torsions:
DOCKED: REMARK  status: ('A' for Active; 'I' for Inactive)
DOCKED: REMARK    1  A    between atoms: C_6  and  C_10 
DOCKED: REMARK    2  A    between atoms: C_10  and  C_11 
DOCKED: REMARK    3  A    between atoms: C_11  and  C_12 
DOCKED: REMARK    4  A    between atoms: C_12  and  O_14 
DOCKED: REMARK    5  A    between atoms: C_17  and  C_20 
DOCKED: REMARK    6  A    between atoms: C_24  and  C_27 
DOCKED: REMARK    7  A    between atoms: C_31  and  C_34 
DOCKED: REMARK    8  A    between atoms: C_34  and  C_35 
DOCKED: REMARK    9  A    between atoms: C_35  and  C_36 
DOCKED: REMARK   10  A    between atoms: C_36  and  O_38 
DOCKED: REMARK   11  A    between atoms: FE_43  and  C_44 
DOCKED: REMARK   12  A    between atoms: C_44  and  O_45 
DOCKED: USER                              x       y       z     vdW  Elec       q    Type
DOCKED: USER                           _______ _______ _______ _____ _____    ______ ____
DOCKED: ROOT
DOCKED: ATOM      1  C   UNL d   1      30.733  41.929  -0.836 -0.03 +0.02    +0.064 A 
DOCKED: ATOM      2  C   UNL d   1      30.099  37.543   0.890 -0.08 +0.01    +0.064 C 
DOCKED: ATOM      3  C   UNL d   1      26.560  36.786  -2.230 -0.16 +0.00    +0.064 A 
DOCKED: ATOM      4  C   UNL d   1      27.445  41.116  -4.264 -0.13 +0.01    +0.064 A 
DOCKED: ATOM      5  C   UNL d   1      30.795  40.800  -0.111 -0.03 +0.02    +0.066 A 
DOCKED: ATOM      6  C   UNL d   1      31.776  40.601   0.880 -0.06 -0.01    -0.021 A 
DOCKED: ATOM      7  C   UNL d   1      31.602  39.319   1.362 -0.08 -0.01    -0.025 A 
DOCKED: ATOM      8  C   UNL d   1      30.513  38.795   0.656 -0.05 +0.01    +0.066 A 
DOCKED: ATOM      9  C   UNL d   1      32.421  38.599   2.444 -0.12 +0.01    +0.051 C 
DOCKED: ATOM     10  C   UNL d   1      28.973  36.929   0.231 -0.10 +0.01    +0.066 A 
DOCKED: ATOM     11  C   UNL d   1      28.403  35.673   0.531 -0.14 -0.01    -0.021 A 
DOCKED: ATOM     12  C   UNL d   1      27.371  35.479  -0.391 -0.19 +0.00    +0.000 A 
DOCKED: ATOM     13  C   UNL d   1      27.379  36.634  -1.174 -0.10 +0.01    +0.070 A 
DOCKED: ATOM     14  C   UNL d   1      28.773  34.778   1.686 -0.16 +0.03    +0.052 C 
DOCKED: ATOM     15  C   UNL d   1      26.471  37.884  -3.173 -0.20 +0.01    +0.066 A 
DOCKED: ATOM     16  C   UNL d   1      25.703  37.915  -4.329 -0.25 -0.00    -0.021 A 
DOCKED: ATOM     17  C   UNL d   1      25.957  39.161  -4.920 -0.23 +0.00    +0.000 A 
DOCKED: ATOM     18  C   UNL d   1      26.850  39.800  -4.067 -0.17 +0.01    +0.070 A 
DOCKED: ATOM     19  C   UNL d   1      24.795  36.805  -4.809 -0.25 +0.00    +0.052 C 
DOCKED: ATOM     20  C   UNL d   1      28.380  41.722  -3.494 -0.08 +0.01    +0.066 A 
DOCKED: ATOM     21  C   UNL d   1      28.903  42.975  -3.806 -0.03 -0.00    -0.025 A 
DOCKED: ATOM     22  C   UNL d   1      29.832  43.248  -2.819 -0.02 -0.01    -0.021 A 
DOCKED: ATOM     23  C   UNL d   1      29.839  42.133  -1.953 -0.03 +0.02    +0.066 A 
DOCKED: ATOM     24  C   UNL d   1      28.549  43.861  -4.997 -0.02 +0.01    +0.051 C 
DOCKED: ATOM     25  N   UNL d   1      29.990  39.693  -0.259 -0.03 -0.05    -0.248 N 
DOCKED: ATOM     26  N   UNL d   1      28.311  37.533  -0.761 -0.10 -0.04    -0.248 N 
DOCKED: ATOM     27  N   UNL d   1      27.157  38.998  -3.053 -0.14 -0.03    -0.248 N 
DOCKED: ATOM     28  N   UNL d   1      28.964  41.206  -2.359 -0.05 -0.05    -0.248 N 
DOCKED: ATOM     29 FE   UNL d   1      28.490  39.328  -1.740 -0.03 +0.00    +0.000 Fe
DOCKED: ENDROOT
DOCKED: BRANCH   6  30
DOCKED: ATOM     30  C   UNL d   1      32.877  41.578   1.280 -0.14 +0.03    +0.052 C 
DOCKED: BRANCH  30  31
DOCKED: ATOM     31  C   UNL d   1      32.741  41.969   2.751 -0.30 +0.07    +0.115 C 
DOCKED: BRANCH  31  32
DOCKED: ATOM     32  C   UNL d   1      32.668  43.468   2.946 -0.25 +0.17    +0.139 C 
DOCKED: ATOM     33  O   UNL d   1      33.510  44.025   3.635 -0.62 -0.91    -0.650 OA
DOCKED: BRANCH  32  34
DOCKED: ATOM     34  O   UNL d   1      31.724  44.225   2.341 -0.07 -0.94    -0.776 OA
DOCKED: ATOM     35  H   UNL d   1      31.716  44.432   1.396 +0.04 +0.26    +0.167 HD
DOCKED: ENDBRANCH  32  34
DOCKED: ENDBRANCH  31  32
DOCKED: ENDBRANCH  30  31
DOCKED: ENDBRANCH   6  30
DOCKED: BRANCH  29  36
DOCKED: ATOM     36  C   UNL d   1      30.019  38.526  -2.929 -0.03 +0.03    +0.190 C 
DOCKED: BRANCH  36  37
DOCKED: ATOM     37  O   UNL d   1      31.409  38.416  -3.031 +0.00 -0.06    -0.399 OA
DOCKED: ATOM     38  H   UNL d   1      31.767  39.004  -2.309 +0.01 +0.04    +0.209 HD
DOCKED: ENDBRANCH  36  37
DOCKED: ENDBRANCH  29  36
DOCKED: BRANCH  22  39
DOCKED: ATOM     39  C   UNL d   1      30.709  44.484  -2.754 -0.02 +0.02    +0.052 C 
DOCKED: BRANCH  39  40
DOCKED: ATOM     40  C   UNL d   1      30.395  45.307  -1.494 -0.05 +0.05    +0.115 C 
DOCKED: BRANCH  40  41
DOCKED: ATOM     41  C   UNL d   1      31.545  45.417  -0.516 -0.12 +0.15    +0.139 C 
DOCKED: ATOM     42  O   UNL d   1      32.506  44.670  -0.636 -0.10 -1.07    -0.650 OA
DOCKED: BRANCH  41  43
DOCKED: ATOM     43  O   UNL d   1      31.580  46.377   0.434 -0.53 -0.89    -0.776 OA
DOCKED: ATOM     44  H   UNL d   1      31.790  46.186   1.358 -0.40 +0.24    +0.167 HD
DOCKED: ENDBRANCH  41  43
DOCKED: ENDBRANCH  40  41
DOCKED: ENDBRANCH  39  40
DOCKED: ENDBRANCH  22  39
DOCKED: BRANCH  12  45
DOCKED: ATOM     45  C   UNL d   1      26.371  34.352  -0.608 -0.28 +0.00    +0.004 C 
DOCKED: ATOM     46  C   UNL d   1      25.046  34.335  -0.491 -0.38 -0.00    +0.012 C 
DOCKED: ENDBRANCH  12  45
DOCKED: BRANCH  17  47
DOCKED: ATOM     47  C   UNL d   1      25.459  39.723  -6.211 -0.17 +0.00    +0.004 C 
DOCKED: ATOM     48  C   UNL d   1      24.865  40.915  -6.316 -0.15 +0.00    +0.012 C 
DOCKED: ENDBRANCH  17  47
DOCKED: TORSDOF 12
DOCKED: TER
DOCKED: ENDMDL
________________________________________________________________________________


	BEGINNING GENETIC ALGORITHM DOCKING 6 of 100
Run: 6 Seed: 1648994450 2009223674 [ Run 6 of 100 GA/GALS ]
Beginning LAMARCKIAN GENETIC ALGORITHM (LGA), with a maximum of 25000000 energy evaluations.

Final-Value: -13.284


	FINAL GENETIC ALGORITHM DOCKED STATE
	_______________________________________________


Detailed state:  trans 39.533 29.820 14.837 quatxyzw -0.342389 0.228387 -0.300634 0.860365 center 8.781 34.984 -0.736 ntor 12 116.6911 92.7337 -156.3683 121.3654 62.7337 -179.9748 -180.0000 -179.8935 -76.2786 -34.3865 84.6185 179.9456
State:	 39.533  29.820  14.837  -0.672  0.448 -0.590 61.285    116.69   92.73 -156.37  121.37   62.73 -179.97 -180.00 -179.89  -76.28  -34.39   84.62  179.95

DOCKED: MODEL        6
DOCKED: USER    Run = 6
DOCKED: USER    DPF = D:/Protein_go_brrr/autodock/final/2DN3/heme_Co/dock.dpf
DOCKED: USER  
DOCKED: USER    Estimated Free Energy of Binding    =   -9.50 kcal/mol  [=(1)+(2)+(3)-(4)]
DOCKED: USER    Estimated Inhibition Constant, Ki   =  109.02 nM (nanomolar)  [Temperature = 298.15 K]
DOCKED: USER    
DOCKED: USER    (1) Final Intermolecular Energy     =  -13.08 kcal/mol
DOCKED: USER        vdW + Hbond + desolv Energy     =  -12.90 kcal/mol
DOCKED: USER        Electrostatic Energy            =   -0.18 kcal/mol
DOCKED: USER    (2) Final Total Internal Energy     =   -0.21 kcal/mol
DOCKED: USER    (3) Torsional Free Energy           =   +3.58 kcal/mol
DOCKED: USER    (4) Unbound System's Energy  [=(2)] =   -0.21 kcal/mol
DOCKED: USER    
DOCKED: USER    
DOCKED: USER    NEWDPF move heme_Co_opt.pdbqt
DOCKED: USER    NEWDPF about 8.781000 34.984000 -0.736000
DOCKED: USER    NEWDPF tran0 39.532586 29.820363 14.837289
DOCKED: USER    NEWDPF quaternion0 -0.342389 0.228387 -0.300634 0.860365
DOCKED: USER    NEWDPF axisangle0 -0.671775 0.448101 -0.589851 61.284824
DOCKED: USER    NEWDPF quat0 -0.671775 0.448101 -0.589851 61.284824
DOCKED: USER    NEWDPF dihe0 116.69 92.73 -156.37 121.37 62.73 -179.97 -180.00 -179.89 -76.28 -34.39 84.62 179.95 
DOCKED: USER  keepresnum = 1 
DOCKED: USER  
DOCKED: REMARK  12 active torsions:
DOCKED: REMARK  status: ('A' for Active; 'I' for Inactive)
DOCKED: REMARK    1  A    between atoms: C_6  and  C_10 
DOCKED: REMARK    2  A    between atoms: C_10  and  C_11 
DOCKED: REMARK    3  A    between atoms: C_11  and  C_12 
DOCKED: REMARK    4  A    between atoms: C_12  and  O_14 
DOCKED: REMARK    5  A    between atoms: C_17  and  C_20 
DOCKED: REMARK    6  A    between atoms: C_24  and  C_27 
DOCKED: REMARK    7  A    between atoms: C_31  and  C_34 
DOCKED: REMARK    8  A    between atoms: C_34  and  C_35 
DOCKED: REMARK    9  A    between atoms: C_35  and  C_36 
DOCKED: REMARK   10  A    between atoms: C_36  and  O_38 
DOCKED: REMARK   11  A    between atoms: FE_43  and  C_44 
DOCKED: REMARK   12  A    between atoms: C_44  and  O_45 
DOCKED: USER                              x       y       z     vdW  Elec       q    Type
DOCKED: USER                           _______ _______ _______ _____ _____    ______ ____
DOCKED: ROOT
DOCKED: ATOM      1  C   UNL d   1      37.972  30.031  13.342 -0.35 +0.01    +0.064 A 
DOCKED: ATOM      2  C   UNL d   1      39.965  26.217  15.364 -0.39 +0.01    +0.064 C 
DOCKED: ATOM      3  C   UNL d   1      43.070  29.018  17.676 -0.08 +0.02    +0.064 A 
DOCKED: ATOM      4  C   UNL d   1      40.805  32.951  15.925 -0.38 +0.01    +0.064 A 
DOCKED: ATOM      5  C   UNL d   1      38.312  28.781  13.696 -0.31 +0.01    +0.066 A 
DOCKED: ATOM      6  C   UNL d   1      37.576  27.658  13.272 -0.44 -0.00    -0.021 A 
DOCKED: ATOM      7  C   UNL d   1      38.145  26.556  13.879 -0.44 -0.00    -0.025 A 
DOCKED: ATOM      8  C   UNL d   1      39.213  27.051  14.635 -0.37 +0.01    +0.066 A 
DOCKED: ATOM      9  C   UNL d   1      37.711  25.087  13.764 -0.57 +0.01    +0.051 C 
DOCKED: ATOM     10  C   UNL d   1      41.100  26.631  16.151 -0.38 +0.02    +0.066 A 
DOCKED: ATOM     11  C   UNL d   1      42.013  25.790  16.824 -0.36 -0.01    -0.021 A 
DOCKED: ATOM     12  C   UNL d   1      42.909  26.633  17.486 -0.33 +0.00    +0.000 A 
DOCKED: ATOM     13  C   UNL d   1      42.486  27.922  17.159 -0.15 +0.03    +0.070 A 
DOCKED: ATOM     14  C   UNL d   1      42.063  24.286  16.746 -0.46 +0.01    +0.052 C 
DOCKED: ATOM     15  C   UNL d   1      42.731  30.415  17.489 -0.34 +0.02    +0.066 A 
DOCKED: ATOM     16  C   UNL d   1      43.282  31.493  18.166 -0.37 -0.01    -0.021 A 
DOCKED: ATOM     17  C   UNL d   1      42.631  32.630  17.666 -0.42 +0.00    +0.000 A 
DOCKED: ATOM     18  C   UNL d   1      41.742  32.154  16.708 -0.36 +0.01    +0.070 A 
DOCKED: ATOM     19  C   UNL d   1      44.363  31.407  19.221 -0.32 +0.02    +0.052 C 
DOCKED: ATOM     20  C   UNL d   1      39.872  32.503  15.051 -0.40 +0.01    +0.066 A 
DOCKED: ATOM     21  C   UNL d   1      39.003  33.365  14.385 -0.38 -0.00    -0.025 A 
DOCKED: ATOM     22  C   UNL d   1      38.194  32.554  13.611 -0.38 -0.00    -0.021 A 
DOCKED: ATOM     23  C   UNL d   1      38.604  31.226  13.854 -0.37 +0.01    +0.066 A 
DOCKED: ATOM     24  C   UNL d   1      38.934  34.886  14.495 -0.50 +0.01    +0.051 C 
DOCKED: ATOM     25  N   UNL d   1      39.343  28.426  14.536 +0.22 -0.08    -0.248 N 
DOCKED: ATOM     26  N   UNL d   1      41.427  27.919  16.307 -0.23 -0.09    -0.248 N 
DOCKED: ATOM     27  N   UNL d   1      41.807  30.829  16.651 -0.16 -0.07    -0.248 N 
DOCKED: ATOM     28  N   UNL d   1      39.618  31.191  14.728 +0.08 -0.05    -0.248 N 
DOCKED: ATOM     29 FE   UNL d   1      40.647  29.702  15.654 +0.05 +0.00    +0.000 Fe
DOCKED: ENDROOT
DOCKED: BRANCH   6  30
DOCKED: ATOM     30  C   UNL d   1      36.334  27.666  12.387 -0.60 +0.01    +0.052 C 
DOCKED: BRANCH  30  31
DOCKED: ATOM     31  C   UNL d   1      35.990  26.248  11.931 -0.24 +0.03    +0.115 C 
DOCKED: BRANCH  31  32
DOCKED: ATOM     32  C   UNL d   1      34.846  25.648  12.720 -0.40 +0.03    +0.139 C 
DOCKED: ATOM     33  O   UNL d   1      33.811  26.284  12.854 +0.24 -0.10    -0.650 OA
DOCKED: BRANCH  32  34
DOCKED: ATOM     34  O   UNL d   1      34.912  24.403  13.245 +0.08 -0.19    -0.776 OA
DOCKED: ATOM     35  H   UNL d   1      34.939  24.213  14.193 +0.04 +0.03    +0.167 HD
DOCKED: ENDBRANCH  32  34
DOCKED: ENDBRANCH  31  32
DOCKED: ENDBRANCH  30  31
DOCKED: ENDBRANCH   6  30
DOCKED: BRANCH  29  36
DOCKED: ATOM     36  C   UNL d   1      39.216  29.634  17.185 -0.16 +0.06    +0.190 C 
DOCKED: BRANCH  36  37
DOCKED: ATOM     37  O   UNL d   1      38.180  28.853  17.708 -0.24 -0.09    -0.399 OA
DOCKED: ATOM     38  H   UNL d   1      37.908  28.253  16.959 +0.12 +0.04    +0.209 HD
DOCKED: ENDBRANCH  36  37
DOCKED: ENDBRANCH  29  36
DOCKED: BRANCH  22  39
DOCKED: ATOM     39  C   UNL d   1      37.048  33.030  12.738 -0.46 +0.00    +0.052 C 
DOCKED: BRANCH  39  40
DOCKED: ATOM     40  C   UNL d   1      35.802  33.323  13.590 -0.24 +0.01    +0.115 C 
DOCKED: BRANCH  40  41
DOCKED: ATOM     41  C   UNL d   1      35.034  34.559  13.170 -0.54 -0.01    +0.139 C 
DOCKED: ATOM     42  O   UNL d   1      35.650  35.569  12.860 -0.02 +0.01    -0.650 OA
DOCKED: BRANCH  41  43
DOCKED: ATOM     43  O   UNL d   1      33.689  34.550  13.043 +0.05 +0.12    -0.776 OA
DOCKED: ATOM     44  H   UNL d   1      33.223  35.116  12.414 -0.45 -0.07    +0.167 HD
DOCKED: ENDBRANCH  41  43
DOCKED: ENDBRANCH  40  41
DOCKED: ENDBRANCH  39  40
DOCKED: ENDBRANCH  22  39
DOCKED: BRANCH  12  45
DOCKED: ATOM     45  C   UNL d   1      44.122  26.371  18.369 -0.28 +0.00    +0.004 C 
DOCKED: ATOM     46  C   UNL d   1      45.413  26.614  18.162 -0.24 +0.01    +0.012 C 
DOCKED: ENDBRANCH  12  45
DOCKED: BRANCH  17  47
DOCKED: ATOM     47  C   UNL d   1      42.767  34.062  18.068 -0.29 +0.00    +0.004 C 
DOCKED: ATOM     48  C   UNL d   1      43.938  34.641  18.344 -0.37 +0.00    +0.012 C 
DOCKED: ENDBRANCH  17  47
DOCKED: TORSDOF 12
DOCKED: TER
DOCKED: ENDMDL
________________________________________________________________________________


	BEGINNING GENETIC ALGORITHM DOCKING 7 of 100
Run: 7 Seed: 149063744 119121624 [ Run 7 of 100 GA/GALS ]
Beginning LAMARCKIAN GENETIC ALGORITHM (LGA), with a maximum of 25000000 energy evaluations.

Final-Value: -12.939


	FINAL GENETIC ALGORITHM DOCKED STATE
	_______________________________________________


Detailed state:  trans 45.704 28.124 18.230 quatxyzw 0.432385 -0.390885 -0.601528 -0.546275 center 8.781 34.984 -0.736 ntor 12 -70.8065 146.2511 117.4472 134.0381 -38.7128 82.3969 31.0620 -24.3964 23.4806 -145.4675 -151.0217 146.1865
State:	 45.704  28.124  18.230   0.516 -0.467 -0.718 -113.776    -70.81  146.25  117.45  134.04  -38.71   82.40   31.06  -24.40   23.48 -145.47 -151.02  146.19

DOCKED: MODEL        7
DOCKED: USER    Run = 7
DOCKED: USER    DPF = D:/Protein_go_brrr/autodock/final/2DN3/heme_Co/dock.dpf
DOCKED: USER  
DOCKED: USER    Estimated Free Energy of Binding    =   -7.41 kcal/mol  [=(1)+(2)+(3)-(4)]
DOCKED: USER    Estimated Inhibition Constant, Ki   =    3.73 uM (micromolar)  [Temperature = 298.15 K]
DOCKED: USER    
DOCKED: USER    (1) Final Intermolecular Energy     =  -10.99 kcal/mol
DOCKED: USER        vdW + Hbond + desolv Energy     =   -9.16 kcal/mol
DOCKED: USER        Electrostatic Energy            =   -1.83 kcal/mol
DOCKED: USER    (2) Final Total Internal Energy     =   -1.95 kcal/mol
DOCKED: USER    (3) Torsional Free Energy           =   +3.58 kcal/mol
DOCKED: USER    (4) Unbound System's Energy  [=(2)] =   -1.95 kcal/mol
DOCKED: USER    
DOCKED: USER    
DOCKED: USER    NEWDPF move heme_Co_opt.pdbqt
DOCKED: USER    NEWDPF about 8.781000 34.984000 -0.736000
DOCKED: USER    NEWDPF tran0 45.704062 28.124458 18.230254
DOCKED: USER    NEWDPF quaternion0 0.432385 -0.390885 -0.601528 -0.546275
DOCKED: USER    NEWDPF axisangle0 0.516215 -0.466669 -0.718152 -113.776369
DOCKED: USER    NEWDPF quat0 0.516215 -0.466669 -0.718152 -113.776369
DOCKED: USER    NEWDPF dihe0 -70.81 146.25 117.45 134.04 -38.71 82.40 31.06 -24.40 23.48 -145.47 -151.02 146.19 
DOCKED: USER  keepresnum = 1 
DOCKED: USER  
DOCKED: REMARK  12 active torsions:
DOCKED: REMARK  status: ('A' for Active; 'I' for Inactive)
DOCKED: REMARK    1  A    between atoms: C_6  and  C_10 
DOCKED: REMARK    2  A    between atoms: C_10  and  C_11 
DOCKED: REMARK    3  A    between atoms: C_11  and  C_12 
DOCKED: REMARK    4  A    between atoms: C_12  and  O_14 
DOCKED: REMARK    5  A    between atoms: C_17  and  C_20 
DOCKED: REMARK    6  A    between atoms: C_24  and  C_27 
DOCKED: REMARK    7  A    between atoms: C_31  and  C_34 
DOCKED: REMARK    8  A    between atoms: C_34  and  C_35 
DOCKED: REMARK    9  A    between atoms: C_35  and  C_36 
DOCKED: REMARK   10  A    between atoms: C_36  and  O_38 
DOCKED: REMARK   11  A    between atoms: FE_43  and  C_44 
DOCKED: REMARK   12  A    between atoms: C_44  and  O_45 
DOCKED: USER                              x       y       z     vdW  Elec       q    Type
DOCKED: USER                           _______ _______ _______ _____ _____    ______ ____
DOCKED: ROOT
DOCKED: ATOM      1  C   UNL d   1      46.725  30.003  18.608 -0.13 +0.03    +0.064 A 
DOCKED: ATOM      2  C   UNL d   1      42.301  29.002  17.181 -0.14 +0.02    +0.064 C 
DOCKED: ATOM      3  C   UNL d   1      43.385  24.354  16.960 -0.26 +0.03    +0.064 A 
DOCKED: ATOM      4  C   UNL d   1      47.791  25.307  18.786 -0.10 +0.04    +0.064 A 
DOCKED: ATOM      5  C   UNL d   1      45.448  30.075  18.200 -0.18 +0.03    +0.066 A 
DOCKED: ATOM      6  C   UNL d   1      44.732  31.288  18.193 -0.25 -0.01    -0.021 A 
DOCKED: ATOM      7  C   UNL d   1      43.443  30.988  17.800 -0.33 -0.01    -0.025 A 
DOCKED: ATOM      8  C   UNL d   1      43.431  29.609  17.568 -0.30 +0.02    +0.066 A 
DOCKED: ATOM      9  C   UNL d   1      42.256  31.952  17.645 -0.48 +0.01    +0.051 C 
DOCKED: ATOM     10  C   UNL d   1      42.200  27.593  16.893 -0.32 +0.02    +0.066 A 
DOCKED: ATOM     11  C   UNL d   1      41.083  26.921  16.350 -0.41 -0.01    -0.021 A 
DOCKED: ATOM     12  C   UNL d   1      41.428  25.568  16.292 -0.39 +0.00    +0.000 A 
DOCKED: ATOM     13  C   UNL d   1      42.730  25.516  16.792 -0.19 +0.02    +0.070 A 
DOCKED: ATOM     14  C   UNL d   1      39.819  27.562  15.838 -0.41 +0.02    +0.052 C 
DOCKED: ATOM     15  C   UNL d   1      44.705  24.113  17.507 -0.23 +0.04    +0.066 A 
DOCKED: ATOM     16  C   UNL d   1      45.267  22.875  17.788 -0.25 -0.02    -0.021 A 
DOCKED: ATOM     17  C   UNL d   1      46.537  23.145  18.318 -0.19 +0.00    +0.000 A 
DOCKED: ATOM     18  C   UNL d   1      46.657  24.531  18.302 -0.16 +0.05    +0.070 A 
DOCKED: ATOM     19  C   UNL d   1      44.601  21.537  17.555 -0.26 +0.03    +0.052 C 
DOCKED: ATOM     20  C   UNL d   1      47.896  26.656  18.860 -0.09 +0.04    +0.066 A 
DOCKED: ATOM     21  C   UNL d   1      49.024  27.286  19.380 -0.05 -0.01    -0.025 A 
DOCKED: ATOM     22  C   UNL d   1      48.757  28.642  19.314 -0.07 -0.01    -0.021 A 
DOCKED: ATOM     23  C   UNL d   1      47.464  28.771  18.765 -0.10 +0.03    +0.066 A 
DOCKED: ATOM     24  C   UNL d   1      50.288  26.630  19.930 -0.02 +0.02    +0.051 C 
DOCKED: ATOM     25  N   UNL d   1      44.661  29.018  17.802 -0.13 -0.10    -0.248 N 
DOCKED: ATOM     26  N   UNL d   1      43.215  26.748  17.102 -0.20 -0.09    -0.248 N 
DOCKED: ATOM     27  N   UNL d   1      45.536  25.075  17.841 -0.12 -0.16    -0.248 N 
DOCKED: ATOM     28  N   UNL d   1      46.938  27.571  18.491 -0.07 -0.13    -0.248 N 
DOCKED: ATOM     29 FE   UNL d   1      45.128  26.931  17.823 -0.05 +0.00    +0.000 Fe
DOCKED: ENDROOT
DOCKED: BRANCH   6  30
DOCKED: ATOM     30  C   UNL d   1      45.254  32.654  18.627 -0.25 +0.01    +0.052 C 
DOCKED: BRANCH  30  31
DOCKED: ATOM     31  C   UNL d   1      45.532  32.671  20.130 -0.21 +0.05    +0.115 C 
DOCKED: BRANCH  31  32
DOCKED: ATOM     32  C   UNL d   1      45.541  34.073  20.700 -0.22 +0.03    +0.139 C 
DOCKED: ATOM     33  O   UNL d   1      46.607  34.642  20.877 +0.03 -0.10    -0.650 OA
DOCKED: BRANCH  32  34
DOCKED: ATOM     34  O   UNL d   1      44.398  34.741  20.978 +0.07 -0.06    -0.776 OA
DOCKED: ATOM     35  H   UNL d   1      43.824  35.139  20.308 -0.38 -0.02    +0.167 HD
DOCKED: ENDBRANCH  32  34
DOCKED: ENDBRANCH  31  32
DOCKED: ENDBRANCH  30  31
DOCKED: ENDBRANCH   6  30
DOCKED: BRANCH  29  36
DOCKED: ATOM     36  C   UNL d   1      44.389  26.900  19.785 -0.00 +0.12    +0.190 C 
DOCKED: BRANCH  36  37
DOCKED: ATOM     37  O   UNL d   1      44.681  27.302  21.092 -0.23 -0.48    -0.399 OA
DOCKED: ATOM     38  H   UNL d   1      45.183  28.159  20.991 +0.05 +0.31    +0.209 HD
DOCKED: ENDBRANCH  36  37
DOCKED: ENDBRANCH  29  36
DOCKED: BRANCH  22  39
DOCKED: ATOM     39  C   UNL d   1      49.673  29.744  19.814 -0.03 +0.02    +0.052 C 
DOCKED: BRANCH  39  40
DOCKED: ATOM     40  C   UNL d   1      49.053  30.454  21.030 -0.05 +0.06    +0.115 C 
DOCKED: BRANCH  40  41
DOCKED: ATOM     41  C   UNL d   1      48.141  29.581  21.865 -0.01 +0.16    +0.139 C 
DOCKED: ATOM     42  O   UNL d   1      48.470  29.293  23.008 -0.18 -0.81    -0.650 OA
DOCKED: BRANCH  41  43
DOCKED: ATOM     43  O   UNL d   1      46.931  29.181  21.414 -0.52 -1.33    -0.776 OA
DOCKED: ATOM     44  H   UNL d   1      46.679  28.250  21.360 +0.02 +0.28    +0.167 HD
DOCKED: ENDBRANCH  41  43
DOCKED: ENDBRANCH  40  41
DOCKED: ENDBRANCH  39  40
DOCKED: ENDBRANCH  22  39
DOCKED: BRANCH  12  45
DOCKED: ATOM     45  C   UNL d   1      40.688  24.328  15.809 -0.53 +0.00    +0.004 C 
DOCKED: ATOM     46  C   UNL d   1      41.040  23.402  14.920 -0.56 +0.00    +0.012 C 
DOCKED: ENDBRANCH  12  45
DOCKED: BRANCH  17  47
DOCKED: ATOM     47  C   UNL d   1      47.565  22.206  18.855 -0.15 +0.00    +0.004 C 
DOCKED: ATOM     48  C   UNL d   1      47.352  21.397  19.896 -0.14 +0.01    +0.012 C 
DOCKED: ENDBRANCH  17  47
DOCKED: TORSDOF 12
DOCKED: TER
DOCKED: ENDMDL
________________________________________________________________________________


	BEGINNING GENETIC ALGORITHM DOCKING 8 of 100
Run: 8 Seed: 147497820 1907117806 [ Run 8 of 100 GA/GALS ]
Beginning LAMARCKIAN GENETIC ALGORITHM (LGA), with a maximum of 25000000 energy evaluations.

Final-Value: -12.854


	FINAL GENETIC ALGORITHM DOCKED STATE
	_______________________________________________


Detailed state:  trans 46.103 26.247 18.401 quatxyzw 0.415797 -0.421616 -0.685591 -0.423460 center 8.781 34.984 -0.736 ntor 12 114.6812 -162.7849 -33.9161 36.4081 -69.0696 10.1279 -151.9253 -53.4203 -58.7976 -144.9454 178.8583 147.1859
State:	 46.103  26.247  18.401   0.459 -0.465 -0.757 -129.894    114.68 -162.78  -33.92   36.41  -69.07   10.13 -151.93  -53.42  -58.80 -144.95  178.86  147.19

DOCKED: MODEL        8
DOCKED: USER    Run = 8
DOCKED: USER    DPF = D:/Protein_go_brrr/autodock/final/2DN3/heme_Co/dock.dpf
DOCKED: USER  
DOCKED: USER    Estimated Free Energy of Binding    =   -7.28 kcal/mol  [=(1)+(2)+(3)-(4)]
DOCKED: USER    Estimated Inhibition Constant, Ki   =    4.58 uM (micromolar)  [Temperature = 298.15 K]
DOCKED: USER    
DOCKED: USER    (1) Final Intermolecular Energy     =  -10.86 kcal/mol
DOCKED: USER        vdW + Hbond + desolv Energy     =   -8.61 kcal/mol
DOCKED: USER        Electrostatic Energy            =   -2.25 kcal/mol
DOCKED: USER    (2) Final Total Internal Energy     =   -1.99 kcal/mol
DOCKED: USER    (3) Torsional Free Energy           =   +3.58 kcal/mol
DOCKED: USER    (4) Unbound System's Energy  [=(2)] =   -1.99 kcal/mol
DOCKED: USER    
DOCKED: USER    
DOCKED: USER    NEWDPF move heme_Co_opt.pdbqt
DOCKED: USER    NEWDPF about 8.781000 34.984000 -0.736000
DOCKED: USER    NEWDPF tran0 46.103099 26.247212 18.400544
DOCKED: USER    NEWDPF quaternion0 0.415797 -0.421616 -0.685591 -0.423460
DOCKED: USER    NEWDPF axisangle0 0.458980 -0.465404 -0.756794 -129.893561
DOCKED: USER    NEWDPF quat0 0.458980 -0.465404 -0.756794 -129.893561
DOCKED: USER    NEWDPF dihe0 114.68 -162.78 -33.92 36.41 -69.07 10.13 -151.93 -53.42 -58.80 -144.95 178.86 147.19 
DOCKED: USER  keepresnum = 1 
DOCKED: USER  
DOCKED: REMARK  12 active torsions:
DOCKED: REMARK  status: ('A' for Active; 'I' for Inactive)
DOCKED: REMARK    1  A    between atoms: C_6  and  C_10 
DOCKED: REMARK    2  A    between atoms: C_10  and  C_11 
DOCKED: REMARK    3  A    between atoms: C_11  and  C_12 
DOCKED: REMARK    4  A    between atoms: C_12  and  O_14 
DOCKED: REMARK    5  A    between atoms: C_17  and  C_20 
DOCKED: REMARK    6  A    between atoms: C_24  and  C_27 
DOCKED: REMARK    7  A    between atoms: C_31  and  C_34 
DOCKED: REMARK    8  A    between atoms: C_34  and  C_35 
DOCKED: REMARK    9  A    between atoms: C_35  and  C_36 
DOCKED: REMARK   10  A    between atoms: C_36  and  O_38 
DOCKED: REMARK   11  A    between atoms: FE_43  and  C_44 
DOCKED: REMARK   12  A    between atoms: C_44  and  O_45 
DOCKED: USER                              x       y       z     vdW  Elec       q    Type
DOCKED: USER                           _______ _______ _______ _____ _____    ______ ____
DOCKED: ROOT
DOCKED: ATOM      1  C   UNL d   1      47.578  27.714  19.023 -0.09 +0.03    +0.064 A 
DOCKED: ATOM      2  C   UNL d   1      43.131  28.146  17.396 -0.30 +0.02    +0.064 C 
DOCKED: ATOM      3  C   UNL d   1      42.911  23.434  16.638 -0.28 +0.02    +0.064 A 
DOCKED: ATOM      4  C   UNL d   1      47.307  22.917  18.654 -0.13 +0.06    +0.064 A 
DOCKED: ATOM      5  C   UNL d   1      46.392  28.183  18.600 -0.12 +0.03    +0.066 A 
DOCKED: ATOM      6  C   UNL d   1      46.038  29.541  18.726 -0.17 -0.01    -0.021 A 
DOCKED: ATOM      7  C   UNL d   1      44.738  29.656  18.273 -0.24 -0.01    -0.025 A 
DOCKED: ATOM      8  C   UNL d   1      44.361  28.369  17.876 -0.23 +0.03    +0.066 A 
DOCKED: ATOM      9  C   UNL d   1      43.871  30.923  18.211 -0.34 +0.02    +0.051 C 
DOCKED: ATOM     10  C   UNL d   1      42.663  26.862  16.939 -0.32 +0.02    +0.066 A 
DOCKED: ATOM     11  C   UNL d   1      41.435  26.591  16.296 -0.39 -0.01    -0.021 A 
DOCKED: ATOM     12  C   UNL d   1      41.399  25.210  16.083 -0.40 +0.00    +0.000 A 
DOCKED: ATOM     13  C   UNL d   1      42.609  24.744  16.598 -0.25 +0.02    +0.070 A 
DOCKED: ATOM     14  C   UNL d   1      40.424  27.610  15.839 -0.34 +0.02    +0.052 C 
DOCKED: ATOM     15  C   UNL d   1      44.084  22.777  17.179 -0.23 +0.04    +0.066 A 
DOCKED: ATOM     16  C   UNL d   1      44.270  21.409  17.320 -0.25 -0.01    -0.021 A 
DOCKED: ATOM     17  C   UNL d   1      45.535  21.255  17.903 -0.25 +0.00    +0.000 A 
DOCKED: ATOM     18  C   UNL d   1      46.031  22.545  18.057 -0.20 +0.07    +0.070 A 
DOCKED: ATOM     19  C   UNL d   1      43.277  20.343  16.913 -0.34 +0.01    +0.052 C 
DOCKED: ATOM     20  C   UNL d   1      47.773  24.167  18.893 -0.10 +0.05    +0.066 A 
DOCKED: ATOM     21  C   UNL d   1      49.002  24.397  19.507 -0.05 -0.01    -0.025 A 
DOCKED: ATOM     22  C   UNL d   1      49.120  25.772  19.601 -0.04 -0.01    -0.021 A 
DOCKED: ATOM     23  C   UNL d   1      47.942  26.316  19.045 -0.07 +0.04    +0.066 A 
DOCKED: ATOM     24  C   UNL d   1      50.006  23.359  20.000 -0.03 +0.02    +0.051 C 
DOCKED: ATOM     25  N   UNL d   1      45.368  27.437  18.062 -0.11 -0.12    -0.248 N 
DOCKED: ATOM     26  N   UNL d   1      43.395  25.750  17.064 -0.16 -0.10    -0.248 N 
DOCKED: ATOM     27  N   UNL d   1      45.128  23.427  17.643 -0.16 -0.20    -0.248 N 
DOCKED: ATOM     28  N   UNL d   1      47.123  25.348  18.618 -0.06 -0.16    -0.248 N 
DOCKED: ATOM     29 FE   UNL d   1      45.244  25.313  17.841 -0.05 +0.00    +0.000 Fe
DOCKED: ENDROOT
DOCKED: BRANCH   6  30
DOCKED: ATOM     30  C   UNL d   1      46.890  30.651  19.331 -0.15 +0.03    +0.052 C 
DOCKED: BRANCH  30  31
DOCKED: ATOM     31  C   UNL d   1      46.503  30.889  20.791 -0.08 +0.10    +0.115 C 
DOCKED: BRANCH  31  32
DOCKED: ATOM     32  C   UNL d   1      47.657  30.646  21.740 -0.08 +0.14    +0.139 C 
DOCKED: ATOM     33  O   UNL d   1      48.523  31.499  21.865 -0.01 -0.37    -0.650 OA
DOCKED: BRANCH  32  34
DOCKED: ATOM     34  O   UNL d   1      47.739  29.528  22.498 -0.32 -1.41    -0.776 OA
DOCKED: ATOM     35  H   UNL d   1      48.391  28.826  22.364 +0.01 +0.20    +0.167 HD
DOCKED: ENDBRANCH  32  34
DOCKED: ENDBRANCH  31  32
DOCKED: ENDBRANCH  30  31
DOCKED: ENDBRANCH   6  30
DOCKED: BRANCH  29  36
DOCKED: ATOM     36  C   UNL d   1      44.423  25.273  19.769 -0.20 +0.10    +0.190 C 
DOCKED: BRANCH  36  37
DOCKED: ATOM     37  O   UNL d   1      44.380  24.520  20.947 -0.72 -0.25    -0.399 OA
DOCKED: ATOM     38  H   UNL d   1      45.194  24.793  21.455 +0.07 +0.14    +0.209 HD
DOCKED: ENDBRANCH  36  37
DOCKED: ENDBRANCH  29  36
DOCKED: BRANCH  22  39
DOCKED: ATOM     39  C   UNL d   1      50.274  26.514  20.248 -0.01 +0.02    +0.052 C 
DOCKED: BRANCH  39  40
DOCKED: ATOM     40  C   UNL d   1      49.815  27.209  21.541 -0.01 +0.06    +0.115 C 
DOCKED: BRANCH  40  41
DOCKED: ATOM     41  C   UNL d   1      48.675  26.513  22.254 -0.03 +0.09    +0.139 C 
DOCKED: ATOM     42  O   UNL d   1      48.922  25.595  23.023 +0.02 -0.35    -0.650 OA
DOCKED: BRANCH  41  43
DOCKED: ATOM     43  O   UNL d   1      47.397  26.935  22.132 -0.02 -0.93    -0.776 OA
DOCKED: ATOM     44  H   UNL d   1      47.170  27.855  21.941 +0.01 +0.29    +0.167 HD
DOCKED: ENDBRANCH  41  43
DOCKED: ENDBRANCH  40  41
DOCKED: ENDBRANCH  39  40
DOCKED: ENDBRANCH  22  39
DOCKED: BRANCH  12  45
DOCKED: ATOM     45  C   UNL d   1      40.375  24.286  15.438 -0.49 +0.00    +0.004 C 
DOCKED: ATOM     46  C   UNL d   1      39.475  24.520  14.486 -0.47 +0.00    +0.012 C 
DOCKED: ENDBRANCH  12  45
DOCKED: BRANCH  17  47
DOCKED: ATOM     47  C   UNL d   1      46.237  20.013  18.345 -0.21 +0.00    +0.004 C 
DOCKED: ATOM     48  C   UNL d   1      46.138  19.508  19.577 -0.20 +0.00    +0.012 C 
DOCKED: ENDBRANCH  17  47
DOCKED: TORSDOF 12
DOCKED: TER
DOCKED: ENDMDL
________________________________________________________________________________


	BEGINNING GENETIC ALGORITHM DOCKING 9 of 100
Run: 9 Seed: 131546934 1652632833 [ Run 9 of 100 GA/GALS ]
Beginning LAMARCKIAN GENETIC ALGORITHM (LGA), with a maximum of 25000000 energy evaluations.

Final-Value: -17.892


	FINAL GENETIC ALGORITHM DOCKED STATE
	_______________________________________________


Detailed state:  trans 40.980 28.913 16.189 quatxyzw -0.338940 0.387537 0.855646 -0.052951 center 8.781 34.984 -0.736 ntor 12 118.6839 107.4816 167.5130 -59.3473 -52.1994 -3.5881 -60.6119 -1.6118 5.7355 36.2178 46.7822 -178.6655
State:	 40.980  28.913  16.189  -0.339  0.388  0.857 -173.929    118.68  107.48  167.51  -59.35  -52.20   -3.59  -60.61   -1.61    5.74   36.22   46.78 -178.67

DOCKED: MODEL        9
DOCKED: USER    Run = 9
DOCKED: USER    DPF = D:/Protein_go_brrr/autodock/final/2DN3/heme_Co/dock.dpf
DOCKED: USER  
DOCKED: USER    Estimated Free Energy of Binding    =  -13.78 kcal/mol  [=(1)+(2)+(3)-(4)]
DOCKED: USER    Estimated Inhibition Constant, Ki   =   78.95 pM (picomolar)  [Temperature = 298.15 K]
DOCKED: USER    
DOCKED: USER    (1) Final Intermolecular Energy     =  -17.36 kcal/mol
DOCKED: USER        vdW + Hbond + desolv Energy     =  -15.89 kcal/mol
DOCKED: USER        Electrostatic Energy            =   -1.47 kcal/mol
DOCKED: USER    (2) Final Total Internal Energy     =   -0.53 kcal/mol
DOCKED: USER    (3) Torsional Free Energy           =   +3.58 kcal/mol
DOCKED: USER    (4) Unbound System's Energy  [=(2)] =   -0.53 kcal/mol
DOCKED: USER    
DOCKED: USER    
DOCKED: USER    NEWDPF move heme_Co_opt.pdbqt
DOCKED: USER    NEWDPF about 8.781000 34.984000 -0.736000
DOCKED: USER    NEWDPF tran0 40.979763 28.913450 16.189091
DOCKED: USER    NEWDPF quaternion0 -0.338940 0.387537 0.855646 -0.052951
DOCKED: USER    NEWDPF axisangle0 -0.339416 0.388082 0.856848 -173.929378
DOCKED: USER    NEWDPF quat0 -0.339416 0.388082 0.856848 -173.929378
DOCKED: USER    NEWDPF dihe0 118.68 107.48 167.51 -59.35 -52.20 -3.59 -60.61 -1.61 5.74 36.22 46.78 -178.67 
DOCKED: USER  keepresnum = 1 
DOCKED: USER  
DOCKED: REMARK  12 active torsions:
DOCKED: REMARK  status: ('A' for Active; 'I' for Inactive)
DOCKED: REMARK    1  A    between atoms: C_6  and  C_10 
DOCKED: REMARK    2  A    between atoms: C_10  and  C_11 
DOCKED: REMARK    3  A    between atoms: C_11  and  C_12 
DOCKED: REMARK    4  A    between atoms: C_12  and  O_14 
DOCKED: REMARK    5  A    between atoms: C_17  and  C_20 
DOCKED: REMARK    6  A    between atoms: C_24  and  C_27 
DOCKED: REMARK    7  A    between atoms: C_31  and  C_34 
DOCKED: REMARK    8  A    between atoms: C_34  and  C_35 
DOCKED: REMARK    9  A    between atoms: C_35  and  C_36 
DOCKED: REMARK   10  A    between atoms: C_36  and  O_38 
DOCKED: REMARK   11  A    between atoms: FE_43  and  C_44 
DOCKED: REMARK   12  A    between atoms: C_44  and  O_45 
DOCKED: USER                              x       y       z     vdW  Elec       q    Type
DOCKED: USER                           _______ _______ _______ _____ _____    ______ ____
DOCKED: ROOT
DOCKED: ATOM      1  C   UNL d   1      42.741  28.306  17.304 -0.21 +0.02    +0.064 A 
DOCKED: ATOM      2  C   UNL d   1      40.705  32.546  16.609 -0.47 +0.01    +0.064 C 
DOCKED: ATOM      3  C   UNL d   1      37.553  30.582  13.603 -0.34 +0.01    +0.064 A 
DOCKED: ATOM      4  C   UNL d   1      39.371  26.180  14.594 -0.42 +0.01    +0.064 A 
DOCKED: ATOM      5  C   UNL d   1      42.439  29.615  17.307 -0.26 +0.02    +0.066 A 
DOCKED: ATOM      6  C   UNL d   1      43.108  30.534  18.139 -0.34 -0.01    -0.021 A 
DOCKED: ATOM      7  C   UNL d   1      42.498  31.759  17.949 -0.43 -0.01    -0.025 A 
DOCKED: ATOM      8  C   UNL d   1      41.495  31.538  17.000 -0.39 +0.01    +0.066 A 
DOCKED: ATOM      9  C   UNL d   1      42.835  33.095  18.630 -0.44 +0.01    +0.051 C 
DOCKED: ATOM     10  C   UNL d   1      39.665  32.420  15.619 -0.39 +0.01    +0.066 A 
DOCKED: ATOM     11  C   UNL d   1      38.897  33.467  15.064 -0.43 -0.00    -0.021 A 
DOCKED: ATOM     12  C   UNL d   1      37.989  32.866  14.188 -0.40 +0.00    +0.000 A 
DOCKED: ATOM     13  C   UNL d   1      38.277  31.503  14.263 -0.37 +0.01    +0.070 A 
DOCKED: ATOM     14  C   UNL d   1      39.099  34.942  15.297 -0.56 +0.01    +0.052 C 
DOCKED: ATOM     15  C   UNL d   1      37.679  29.138  13.607 -0.38 +0.01    +0.066 A 
DOCKED: ATOM     16  C   UNL d   1      36.807  28.234  13.017 -0.48 -0.00    -0.021 A 
DOCKED: ATOM     17  C   UNL d   1      37.325  26.963  13.302 -0.46 +0.00    +0.000 A 
DOCKED: ATOM     18  C   UNL d   1      38.486  27.193  14.032 -0.37 +0.01    +0.070 A 
DOCKED: ATOM     19  C   UNL d   1      35.563  28.598  12.237 -0.66 +0.01    +0.052 C 
DOCKED: ATOM     20  C   UNL d   1      40.457  26.378  15.380 -0.39 +0.02    +0.066 A 
DOCKED: ATOM     21  C   UNL d   1      41.208  25.321  15.890 -0.40 -0.01    -0.025 A 
DOCKED: ATOM     22  C   UNL d   1      42.204  25.904  16.651 -0.31 -0.01    -0.021 A 
DOCKED: ATOM     23  C   UNL d   1      42.002  27.299  16.578 -0.34 +0.02    +0.066 A 
DOCKED: ATOM     24  C   UNL d   1      40.976  23.827  15.678 -0.55 +0.01    +0.051 C 
DOCKED: ATOM     25  N   UNL d   1      41.440  30.220  16.580 -0.11 -0.08    -0.248 N 
DOCKED: ATOM     26  N   UNL d   1      39.328  31.241  15.085 -0.22 -0.05    -0.248 N 
DOCKED: ATOM     27  N   UNL d   1      38.649  28.498  14.221 -0.20 -0.06    -0.248 N 
DOCKED: ATOM     28  N   UNL d   1      40.944  27.590  15.811 -0.20 -0.08    -0.248 N 
DOCKED: ATOM     29 FE   UNL d   1      39.963  29.305  15.331 -0.07 +0.00    +0.000 Fe
DOCKED: ENDROOT
DOCKED: BRANCH   6  30
DOCKED: ATOM     30  C   UNL d   1      44.227  30.221  19.126 -0.29 +0.02    +0.052 C 
DOCKED: BRANCH  30  31
DOCKED: ATOM     31  C   UNL d   1      45.395  31.188  18.939 -0.22 +0.05    +0.115 C 
DOCKED: BRANCH  31  32
DOCKED: ATOM     32  C   UNL d   1      46.568  30.856  19.836 -0.15 +0.08    +0.139 C 
DOCKED: ATOM     33  O   UNL d   1      47.636  31.425  19.664 +0.02 -0.27    -0.650 OA
DOCKED: BRANCH  32  34
DOCKED: ATOM     34  O   UNL d   1      46.462  29.980  20.862 -0.25 -0.89    -0.776 OA
DOCKED: ATOM     35  H   UNL d   1      46.926  29.133  20.904 +0.02 +0.21    +0.167 HD
DOCKED: ENDBRANCH  32  34
DOCKED: ENDBRANCH  31  32
DOCKED: ENDBRANCH  30  31
DOCKED: ENDBRANCH   6  30
DOCKED: BRANCH  29  36
DOCKED: ATOM     36  C   UNL d   1      38.776  29.135  17.050 -0.33 +0.05    +0.190 C 
DOCKED: BRANCH  36  37
DOCKED: ATOM     37  O   UNL d   1      37.703  28.425  17.597 -0.25 -0.08    -0.399 OA
DOCKED: ATOM     38  H   UNL d   1      37.373  27.846  16.854 +0.13 +0.04    +0.209 HD
DOCKED: ENDBRANCH  36  37
DOCKED: ENDBRANCH  29  36
DOCKED: BRANCH  22  39
DOCKED: ATOM     39  C   UNL d   1      43.249  25.155  17.456 -0.34 +0.02    +0.052 C 
DOCKED: BRANCH  39  40
DOCKED: ATOM     40  C   UNL d   1      42.642  24.612  18.761 -0.39 +0.04    +0.115 C 
DOCKED: BRANCH  40  41
DOCKED: ATOM     41  C   UNL d   1      43.620  24.519  19.913 -0.26 +0.07    +0.139 C 
DOCKED: ATOM     42  O   UNL d   1      43.270  24.887  21.026 -0.26 -0.34    -0.650 OA
DOCKED: BRANCH  41  43
DOCKED: ATOM     43  O   UNL d   1      44.841  23.958  19.765 -0.35 -0.47    -0.776 OA
DOCKED: ATOM     44  H   UNL d   1      45.506  23.969  20.466 +0.05 +0.10    +0.167 HD
DOCKED: ENDBRANCH  41  43
DOCKED: ENDBRANCH  40  41
DOCKED: ENDBRANCH  39  40
DOCKED: ENDBRANCH  22  39
DOCKED: BRANCH  12  45
DOCKED: ATOM     45  C   UNL d   1      36.900  33.422  13.279 -0.51 +0.00    +0.004 C 
DOCKED: ATOM     46  C   UNL d   1      35.745  34.013  13.573 -0.57 +0.00    +0.012 C 
DOCKED: ENDBRANCH  12  45
DOCKED: BRANCH  17  47
DOCKED: ATOM     47  C   UNL d   1      36.775  25.613  12.977 -0.64 +0.00    +0.004 C 
DOCKED: ATOM     48  C   UNL d   1      35.727  25.074  13.604 -0.71 +0.00    +0.012 C 
DOCKED: ENDBRANCH  17  47
DOCKED: TORSDOF 12
DOCKED: TER
DOCKED: ENDMDL
________________________________________________________________________________


	BEGINNING GENETIC ALGORITHM DOCKING 10 of 100
Run: 10 Seed: 1575431265 232854441 [ Run 10 of 100 GA/GALS ]
Beginning LAMARCKIAN GENETIC ALGORITHM (LGA), with a maximum of 25000000 energy evaluations.

Final-Value: -12.611


	FINAL GENETIC ALGORITHM DOCKED STATE
	_______________________________________________


Detailed state:  trans 45.355 25.958 19.195 quatxyzw -0.519429 -0.833746 0.176367 0.062889 center 8.781 34.984 -0.736 ntor 12 61.6789 74.2112 69.0246 -5.6931 59.2014 142.0131 -172.0929 177.7817 77.2208 111.4429 -161.5782 8.3365
State:	 45.355  25.958  19.195  -0.520 -0.835  0.177 172.789     61.68   74.21   69.02   -5.69   59.20  142.01 -172.09  177.78   77.22  111.44 -161.58    8.34

DOCKED: MODEL       10
DOCKED: USER    Run = 10
DOCKED: USER    DPF = D:/Protein_go_brrr/autodock/final/2DN3/heme_Co/dock.dpf
DOCKED: USER  
DOCKED: USER    Estimated Free Energy of Binding    =   -8.15 kcal/mol  [=(1)+(2)+(3)-(4)]
DOCKED: USER    Estimated Inhibition Constant, Ki   =    1.06 uM (micromolar)  [Temperature = 298.15 K]
DOCKED: USER    
DOCKED: USER    (1) Final Intermolecular Energy     =  -11.73 kcal/mol
DOCKED: USER        vdW + Hbond + desolv Energy     =   -8.68 kcal/mol
DOCKED: USER        Electrostatic Energy            =   -3.05 kcal/mol
DOCKED: USER    (2) Final Total Internal Energy     =   -0.88 kcal/mol
DOCKED: USER    (3) Torsional Free Energy           =   +3.58 kcal/mol
DOCKED: USER    (4) Unbound System's Energy  [=(2)] =   -0.88 kcal/mol
DOCKED: USER    
DOCKED: USER    
DOCKED: USER    NEWDPF move heme_Co_opt.pdbqt
DOCKED: USER    NEWDPF about 8.781000 34.984000 -0.736000
DOCKED: USER    NEWDPF tran0 45.355125 25.958382 19.195294
DOCKED: USER    NEWDPF quaternion0 -0.519429 -0.833746 0.176367 0.062889
DOCKED: USER    NEWDPF axisangle0 -0.520460 -0.835400 0.176717 172.788698
DOCKED: USER    NEWDPF quat0 -0.520460 -0.835400 0.176717 172.788698
DOCKED: USER    NEWDPF dihe0 61.68 74.21 69.02 -5.69 59.20 142.01 -172.09 177.78 77.22 111.44 -161.58 8.34 
DOCKED: USER  keepresnum = 1 
DOCKED: USER  
DOCKED: REMARK  12 active torsions:
DOCKED: REMARK  status: ('A' for Active; 'I' for Inactive)
DOCKED: REMARK    1  A    between atoms: C_6  and  C_10 
DOCKED: REMARK    2  A    between atoms: C_10  and  C_11 
DOCKED: REMARK    3  A    between atoms: C_11  and  C_12 
DOCKED: REMARK    4  A    between atoms: C_12  and  O_14 
DOCKED: REMARK    5  A    between atoms: C_17  and  C_20 
DOCKED: REMARK    6  A    between atoms: C_24  and  C_27 
DOCKED: REMARK    7  A    between atoms: C_31  and  C_34 
DOCKED: REMARK    8  A    between atoms: C_34  and  C_35 
DOCKED: REMARK    9  A    between atoms: C_35  and  C_36 
DOCKED: REMARK   10  A    between atoms: C_36  and  O_38 
DOCKED: REMARK   11  A    between atoms: FE_43  and  C_44 
DOCKED: REMARK   12  A    between atoms: C_44  and  O_45 
DOCKED: USER                              x       y       z     vdW  Elec       q    Type
DOCKED: USER                           _______ _______ _______ _____ _____    ______ ____
DOCKED: ROOT
DOCKED: ATOM      1  C   UNL d   1      46.741  24.830  20.429 -0.06 +0.04    +0.064 A 
DOCKED: ATOM      2  C   UNL d   1      43.515  23.490  17.202 -0.33 +0.03    +0.064 C 
DOCKED: ATOM      3  C   UNL d   1      42.037  28.011  16.748 -0.26 +0.02    +0.064 A 
DOCKED: ATOM      4  C   UNL d   1      45.579  29.457  19.752 -0.20 +0.05    +0.064 A 
DOCKED: ATOM      5  C   UNL d   1      45.944  24.127  19.608 -0.13 +0.04    +0.066 A 
DOCKED: ATOM      6  C   UNL d   1      46.114  22.743  19.404 -0.16 -0.01    -0.021 A 
DOCKED: ATOM      7  C   UNL d   1      45.190  22.364  18.450 -0.17 -0.02    -0.025 A 
DOCKED: ATOM      8  C   UNL d   1      44.486  23.528  18.124 -0.24 +0.04    +0.066 A 
DOCKED: ATOM      9  C   UNL d   1      44.968  20.964  17.857 -0.23 +0.03    +0.051 C 
DOCKED: ATOM     10  C   UNL d   1      42.719  24.630  16.821 -0.30 +0.02    +0.066 A 
DOCKED: ATOM     11  C   UNL d   1      41.596  24.627  15.965 -0.43 -0.01    -0.021 A 
DOCKED: ATOM     12  C   UNL d   1      41.183  25.958  15.853 -0.41 +0.00    +0.000 A 
DOCKED: ATOM     13  C   UNL d   1      42.073  26.670  16.657 -0.33 +0.02    +0.070 A 
DOCKED: ATOM     14  C   UNL d   1      40.923  23.412  15.381 -0.45 +0.01    +0.052 C 
DOCKED: ATOM     15  C   UNL d   1      42.907  28.907  17.484 -0.23 +0.02    +0.066 A 
DOCKED: ATOM     16  C   UNL d   1      42.906  30.293  17.421 -0.35 -0.01    -0.021 A 
DOCKED: ATOM     17  C   UNL d   1      43.927  30.715  18.284 -0.32 +0.00    +0.000 A 
DOCKED: ATOM     18  C   UNL d   1      44.462  29.549  18.821 -0.22 +0.03    +0.070 A 
DOCKED: ATOM     19  C   UNL d   1      41.972  31.131  16.575 -0.15 +0.01    +0.052 C 
DOCKED: ATOM     20  C   UNL d   1      46.172  28.333  20.221 -0.15 +0.06    +0.066 A 
DOCKED: ATOM     21  C   UNL d   1      47.264  28.373  21.085 -0.01 -0.03    -0.025 A 
DOCKED: ATOM     22  C   UNL d   1      47.602  27.053  21.321 -0.07 -0.02    -0.021 A 
DOCKED: ATOM     23  C   UNL d   1      46.701  26.267  20.573 -0.07 +0.05    +0.066 A 
DOCKED: ATOM     24  C   UNL d   1      47.964  29.609  21.644 -0.02 +0.06    +0.051 C 
DOCKED: ATOM     25  N   UNL d   1      44.927  24.634  18.830 -0.11 -0.14    -0.248 N 
DOCKED: ATOM     26  N   UNL d   1      42.967  25.860  17.285 -0.19 -0.09    -0.248 N 
DOCKED: ATOM     27  N   UNL d   1      43.851  28.491  18.299 -0.06 -0.11    -0.248 N 
DOCKED: ATOM     28  N   UNL d   1      45.835  27.038  19.903 -0.08 -0.18    -0.248 N 
DOCKED: ATOM     29 FE   UNL d   1      44.359  26.678  18.552 -0.05 +0.00    +0.000 Fe
DOCKED: ENDROOT
DOCKED: BRANCH   6  30
DOCKED: ATOM     30  C   UNL d   1      47.175  21.854  20.044 -0.13 +0.03    +0.052 C 
DOCKED: BRANCH  30  31
DOCKED: ATOM     31  C   UNL d   1      48.527  22.053  19.359 -0.08 +0.08    +0.115 C 
DOCKED: BRANCH  31  32
DOCKED: ATOM     32  C   UNL d   1      48.884  20.903  18.442 -0.05 +0.14    +0.139 C 
DOCKED: ATOM     33  O   UNL d   1      48.135  20.615  17.520 -0.40 -1.22    -0.650 OA
DOCKED: BRANCH  32  34
DOCKED: ATOM     34  O   UNL d   1      50.038  20.209  18.578 +0.00 -0.49    -0.776 OA
DOCKED: ATOM     35  H   UNL d   1      50.302  19.746  19.385 +0.01 +0.07    +0.167 HD
DOCKED: ENDBRANCH  32  34
DOCKED: ENDBRANCH  31  32
DOCKED: ENDBRANCH  30  31
DOCKED: ENDBRANCH   6  30
DOCKED: BRANCH  29  36
DOCKED: ATOM     36  C   UNL d   1      45.750  26.733  16.984 +0.04 +0.09    +0.190 C 
DOCKED: BRANCH  36  37
DOCKED: ATOM     37  O   UNL d   1      46.812  26.025  16.411 -0.16 -0.28    -0.399 OA
DOCKED: ATOM     38  H   UNL d   1      47.325  25.661  17.186 +0.06 +0.15    +0.209 HD
DOCKED: ENDBRANCH  36  37
DOCKED: ENDBRANCH  29  36
DOCKED: BRANCH  22  39
DOCKED: ATOM     39  C   UNL d   1      48.770  26.582  22.167 -0.03 +0.03    +0.052 C 
DOCKED: BRANCH  39  40
DOCKED: ATOM     40  C   UNL d   1      48.270  25.938  23.471 -0.03 +0.08    +0.115 C 
DOCKED: BRANCH  40  41
DOCKED: ATOM     41  C   UNL d   1      47.754  26.925  24.497 +0.02 +0.17    +0.139 C 
DOCKED: ATOM     42  O   UNL d   1      48.386  27.950  24.713 -0.14 -0.76    -0.650 OA
DOCKED: BRANCH  41  43
DOCKED: ATOM     43  O   UNL d   1      46.567  26.748  25.118 -0.22 -1.25    -0.776 OA
DOCKED: ATOM     44  H   UNL d   1      46.442  26.100  25.824 +0.03 +0.15    +0.167 HD
DOCKED: ENDBRANCH  41  43
DOCKED: ENDBRANCH  40  41
DOCKED: ENDBRANCH  39  40
DOCKED: ENDBRANCH  22  39
DOCKED: BRANCH  12  45
DOCKED: ATOM     45  C   UNL d   1      40.044  26.631  15.099 -0.48 +0.00    +0.004 C 
DOCKED: ATOM     46  C   UNL d   1      39.258  26.173  14.129 -0.54 +0.00    +0.012 C 
DOCKED: ENDBRANCH  12  45
DOCKED: BRANCH  17  47
DOCKED: ATOM     47  C   UNL d   1      44.427  32.093  18.569 -0.33 +0.00    +0.004 C 
DOCKED: ATOM     48  C   UNL d   1      43.632  33.163  18.653 -0.44 +0.00    +0.012 C 
DOCKED: ENDBRANCH  17  47
DOCKED: TORSDOF 12
DOCKED: TER
DOCKED: ENDMDL
________________________________________________________________________________


	BEGINNING GENETIC ALGORITHM DOCKING 11 of 100
Run: 11 Seed: 38779924 502418950 [ Run 11 of 100 GA/GALS ]
Beginning LAMARCKIAN GENETIC ALGORITHM (LGA), with a maximum of 25000000 energy evaluations.

Final-Value: -18.236


	FINAL GENETIC ALGORITHM DOCKED STATE
	_______________________________________________


Detailed state:  trans 41.021 28.812 16.219 quatxyzw -0.334829 0.392277 0.853474 -0.074768 center 8.781 34.984 -0.736 ntor 12 82.5925 105.7427 36.5094 -69.7139 -70.4108 -2.4796 -1.9119 -158.6266 -26.0713 44.2701 45.9002 27.0858
State:	 41.021  28.812  16.219  -0.336  0.393  0.856 -171.424     82.59  105.74   36.51  -69.71  -70.41   -2.48   -1.91 -158.63  -26.07   44.27   45.90   27.09

DOCKED: MODEL       11
DOCKED: USER    Run = 11
DOCKED: USER    DPF = D:/Protein_go_brrr/autodock/final/2DN3/heme_Co/dock.dpf
DOCKED: USER  
DOCKED: USER    Estimated Free Energy of Binding    =  -13.99 kcal/mol  [=(1)+(2)+(3)-(4)]
DOCKED: USER    Estimated Inhibition Constant, Ki   =   55.30 pM (picomolar)  [Temperature = 298.15 K]
DOCKED: USER    
DOCKED: USER    (1) Final Intermolecular Energy     =  -17.57 kcal/mol
DOCKED: USER        vdW + Hbond + desolv Energy     =  -15.18 kcal/mol
DOCKED: USER        Electrostatic Energy            =   -2.40 kcal/mol
DOCKED: USER    (2) Final Total Internal Energy     =   -0.66 kcal/mol
DOCKED: USER    (3) Torsional Free Energy           =   +3.58 kcal/mol
DOCKED: USER    (4) Unbound System's Energy  [=(2)] =   -0.66 kcal/mol
DOCKED: USER    
DOCKED: USER    
DOCKED: USER    NEWDPF move heme_Co_opt.pdbqt
DOCKED: USER    NEWDPF about 8.781000 34.984000 -0.736000
DOCKED: USER    NEWDPF tran0 41.021089 28.812472 16.218944
DOCKED: USER    NEWDPF quaternion0 -0.334829 0.392277 0.853474 -0.074768
DOCKED: USER    NEWDPF axisangle0 -0.335768 0.393378 0.855870 -171.424173
DOCKED: USER    NEWDPF quat0 -0.335768 0.393378 0.855870 -171.424173
DOCKED: USER    NEWDPF dihe0 82.59 105.74 36.51 -69.71 -70.41 -2.48 -1.91 -158.63 -26.07 44.27 45.90 27.09 
DOCKED: USER  keepresnum = 1 
DOCKED: USER  
DOCKED: REMARK  12 active torsions:
DOCKED: REMARK  status: ('A' for Active; 'I' for Inactive)
DOCKED: REMARK    1  A    between atoms: C_6  and  C_10 
DOCKED: REMARK    2  A    between atoms: C_10  and  C_11 
DOCKED: REMARK    3  A    between atoms: C_11  and  C_12 
DOCKED: REMARK    4  A    between atoms: C_12  and  O_14 
DOCKED: REMARK    5  A    between atoms: C_17  and  C_20 
DOCKED: REMARK    6  A    between atoms: C_24  and  C_27 
DOCKED: REMARK    7  A    between atoms: C_31  and  C_34 
DOCKED: REMARK    8  A    between atoms: C_34  and  C_35 
DOCKED: REMARK    9  A    between atoms: C_35  and  C_36 
DOCKED: REMARK   10  A    between atoms: C_36  and  O_38 
DOCKED: REMARK   11  A    between atoms: FE_43  and  C_44 
DOCKED: REMARK   12  A    between atoms: C_44  and  O_45 
DOCKED: USER                              x       y       z     vdW  Elec       q    Type
DOCKED: USER                           _______ _______ _______ _____ _____    ______ ____
DOCKED: ROOT
DOCKED: ATOM      1  C   UNL d   1      42.742  28.122  17.350 -0.20 +0.02    +0.064 A 
DOCKED: ATOM      2  C   UNL d   1      40.902  32.452  16.656 -0.48 +0.01    +0.064 C 
DOCKED: ATOM      3  C   UNL d   1      37.700  30.644  13.605 -0.38 +0.01    +0.064 A 
DOCKED: ATOM      4  C   UNL d   1      39.311  26.161  14.592 -0.42 +0.01    +0.064 A 
DOCKED: ATOM      5  C   UNL d   1      42.498  29.443  17.357 -0.22 +0.02    +0.066 A 
DOCKED: ATOM      6  C   UNL d   1      43.197  30.328  18.200 -0.30 -0.01    -0.021 A 
DOCKED: ATOM      7  C   UNL d   1      42.644  31.579  18.012 -0.42 -0.01    -0.025 A 
DOCKED: ATOM      8  C   UNL d   1      41.642  31.408  17.050 -0.39 +0.02    +0.066 A 
DOCKED: ATOM      9  C   UNL d   1      43.031  32.895  18.703 -0.43 +0.01    +0.051 C 
DOCKED: ATOM     10  C   UNL d   1      39.868  32.376  15.654 -0.39 +0.01    +0.066 A 
DOCKED: ATOM     11  C   UNL d   1      39.153  33.459  15.097 -0.44 -0.00    -0.021 A 
DOCKED: ATOM     12  C   UNL d   1      38.229  32.903  14.208 -0.41 +0.00    +0.000 A 
DOCKED: ATOM     13  C   UNL d   1      38.456  31.529  14.278 -0.37 +0.01    +0.070 A 
DOCKED: ATOM     14  C   UNL d   1      39.417  34.922  15.341 -0.55 +0.01    +0.052 C 
DOCKED: ATOM     15  C   UNL d   1      37.762  29.195  13.603 -0.38 +0.01    +0.066 A 
DOCKED: ATOM     16  C   UNL d   1      36.857  28.334  12.998 -0.49 -0.00    -0.021 A 
DOCKED: ATOM     17  C   UNL d   1      37.316  27.040  13.282 -0.46 +0.00    +0.000 A 
DOCKED: ATOM     18  C   UNL d   1      38.478  27.215  14.026 -0.37 +0.01    +0.070 A 
DOCKED: ATOM     19  C   UNL d   1      35.639  28.756  12.207 -0.66 +0.01    +0.052 C 
DOCKED: ATOM     20  C   UNL d   1      40.396  26.306  15.390 -0.38 +0.02    +0.066 A 
DOCKED: ATOM     21  C   UNL d   1      41.094  25.215  15.902 -0.42 -0.01    -0.025 A 
DOCKED: ATOM     22  C   UNL d   1      42.106  25.750  16.677 -0.34 -0.01    -0.021 A 
DOCKED: ATOM     23  C   UNL d   1      41.967  27.153  16.609 -0.34 +0.02    +0.066 A 
DOCKED: ATOM     24  C   UNL d   1      40.800  23.734  15.680 -0.49 +0.01    +0.051 C 
DOCKED: ATOM     25  N   UNL d   1      41.533  30.095  16.622 -0.11 -0.08    -0.248 N 
DOCKED: ATOM     26  N   UNL d   1      39.485  31.216  15.111 -0.17 -0.05    -0.248 N 
DOCKED: ATOM     27  N   UNL d   1      38.696  28.510  14.223 -0.19 -0.06    -0.248 N 
DOCKED: ATOM     28  N   UNL d   1      40.932  27.494  15.833 -0.24 -0.08    -0.248 N 
DOCKED: ATOM     29 FE   UNL d   1      40.032  29.253  15.352 -0.05 +0.00    +0.000 Fe
DOCKED: ENDROOT
DOCKED: BRANCH   6  30
DOCKED: ATOM     30  C   UNL d   1      44.290  29.960  19.198 -0.25 +0.03    +0.052 C 
DOCKED: BRANCH  30  31
DOCKED: ATOM     31  C   UNL d   1      45.510  30.862  19.015 -0.21 +0.05    +0.115 C 
DOCKED: BRANCH  31  32
DOCKED: ATOM     32  C   UNL d   1      46.297  31.037  20.296 -0.16 +0.09    +0.139 C 
DOCKED: ATOM     33  O   UNL d   1      46.624  32.160  20.651 -0.01 -0.33    -0.650 OA
DOCKED: BRANCH  32  34
DOCKED: ATOM     34  O   UNL d   1      46.612  29.990  21.093 -0.32 -1.02    -0.776 OA
DOCKED: ATOM     35  H   UNL d   1      47.332  29.369  20.917 +0.02 +0.18    +0.167 HD
DOCKED: ENDBRANCH  32  34
DOCKED: ENDBRANCH  31  32
DOCKED: ENDBRANCH  30  31
DOCKED: ENDBRANCH   6  30
DOCKED: BRANCH  29  36
DOCKED: ATOM     36  C   UNL d   1      38.820  29.126  17.058 -0.32 +0.05    +0.190 C 
DOCKED: BRANCH  36  37
DOCKED: ATOM     37  O   UNL d   1      37.721  28.450  17.595 -0.25 -0.08    -0.399 OA
DOCKED: ATOM     38  H   UNL d   1      37.366  27.898  16.843 +0.13 +0.04    +0.209 HD
DOCKED: ENDBRANCH  36  37
DOCKED: ENDBRANCH  29  36
DOCKED: BRANCH  22  39
DOCKED: ATOM     39  C   UNL d   1      43.109  24.951  17.489 -0.36 +0.02    +0.052 C 
DOCKED: BRANCH  39  40
DOCKED: ATOM     40  C   UNL d   1      44.545  25.400  17.172 -0.21 +0.06    +0.115 C 
DOCKED: BRANCH  40  41
DOCKED: ATOM     41  C   UNL d   1      45.553  24.272  17.112 -0.10 +0.12    +0.139 C 
DOCKED: ATOM     42  O   UNL d   1      45.296  23.210  17.662 -0.05 -0.56    -0.650 OA
DOCKED: BRANCH  41  43
DOCKED: ATOM     43  O   UNL d   1      46.693  24.375  16.394 -0.28 -1.13    -0.776 OA
DOCKED: ATOM     44  H   UNL d   1      47.235  25.175  16.392 +0.03 +0.17    +0.167 HD
DOCKED: ENDBRANCH  41  43
DOCKED: ENDBRANCH  40  41
DOCKED: ENDBRANCH  39  40
DOCKED: ENDBRANCH  22  39
DOCKED: BRANCH  12  45
DOCKED: ATOM     45  C   UNL d   1      37.176  33.511  13.291 -0.50 +0.00    +0.004 C 
DOCKED: ATOM     46  C   UNL d   1      35.964  33.988  13.561 -0.55 +0.00    +0.012 C 
DOCKED: ENDBRANCH  12  45
DOCKED: BRANCH  17  47
DOCKED: ATOM     47  C   UNL d   1      36.711  25.717  12.943 -0.63 +0.00    +0.004 C 
DOCKED: ATOM     48  C   UNL d   1      35.877  25.059  13.752 -0.70 +0.00    +0.012 C 
DOCKED: ENDBRANCH  17  47
DOCKED: TORSDOF 12
DOCKED: TER
DOCKED: ENDMDL
________________________________________________________________________________


	BEGINNING GENETIC ALGORITHM DOCKING 12 of 100
Run: 12 Seed: 58407077 811655002 [ Run 12 of 100 GA/GALS ]
Beginning LAMARCKIAN GENETIC ALGORITHM (LGA), with a maximum of 25000000 energy evaluations.

Final-Value: -11.336


	FINAL GENETIC ALGORITHM DOCKED STATE
	_______________________________________________


Detailed state:  trans 25.414 46.061 -1.586 quatxyzw 0.398924 0.914170 -0.007076 0.071430 center 8.781 34.984 -0.736 ntor 12 -124.3067 107.1083 -104.5111 6.3999 89.5688 121.6865 44.9802 -158.5256 -96.0877 44.4466 -176.8125 -179.9435
State:	 25.414  46.061  -1.586   0.400  0.917 -0.007 171.808   -124.31  107.11 -104.51    6.40   89.57  121.69   44.98 -158.53  -96.09   44.45 -176.81 -179.94

DOCKED: MODEL       12
DOCKED: USER    Run = 12
DOCKED: USER    DPF = D:/Protein_go_brrr/autodock/final/2DN3/heme_Co/dock.dpf
DOCKED: USER  
DOCKED: USER    Estimated Free Energy of Binding    =   -5.35 kcal/mol  [=(1)+(2)+(3)-(4)]
DOCKED: USER    Estimated Inhibition Constant, Ki   =  119.11 uM (micromolar)  [Temperature = 298.15 K]
DOCKED: USER    
DOCKED: USER    (1) Final Intermolecular Energy     =   -8.93 kcal/mol
DOCKED: USER        vdW + Hbond + desolv Energy     =   -7.11 kcal/mol
DOCKED: USER        Electrostatic Energy            =   -1.83 kcal/mol
DOCKED: USER    (2) Final Total Internal Energy     =   -2.40 kcal/mol
DOCKED: USER    (3) Torsional Free Energy           =   +3.58 kcal/mol
DOCKED: USER    (4) Unbound System's Energy  [=(2)] =   -2.40 kcal/mol
DOCKED: USER    
DOCKED: USER    
DOCKED: USER    NEWDPF move heme_Co_opt.pdbqt
DOCKED: USER    NEWDPF about 8.781000 34.984000 -0.736000
DOCKED: USER    NEWDPF tran0 25.414319 46.061246 -1.585539
DOCKED: USER    NEWDPF quaternion0 0.398924 0.914170 -0.007076 0.071430
DOCKED: USER    NEWDPF axisangle0 0.399945 0.916511 -0.007094 171.807730
DOCKED: USER    NEWDPF quat0 0.399945 0.916511 -0.007094 171.807730
DOCKED: USER    NEWDPF dihe0 -124.31 107.11 -104.51 6.40 89.57 121.69 44.98 -158.53 -96.09 44.45 -176.81 -179.94 
DOCKED: USER  keepresnum = 1 
DOCKED: USER  
DOCKED: REMARK  12 active torsions:
DOCKED: REMARK  status: ('A' for Active; 'I' for Inactive)
DOCKED: REMARK    1  A    between atoms: C_6  and  C_10 
DOCKED: REMARK    2  A    between atoms: C_10  and  C_11 
DOCKED: REMARK    3  A    between atoms: C_11  and  C_12 
DOCKED: REMARK    4  A    between atoms: C_12  and  O_14 
DOCKED: REMARK    5  A    between atoms: C_17  and  C_20 
DOCKED: REMARK    6  A    between atoms: C_24  and  C_27 
DOCKED: REMARK    7  A    between atoms: C_31  and  C_34 
DOCKED: REMARK    8  A    between atoms: C_34  and  C_35 
DOCKED: REMARK    9  A    between atoms: C_35  and  C_36 
DOCKED: REMARK   10  A    between atoms: C_36  and  O_38 
DOCKED: REMARK   11  A    between atoms: FE_43  and  C_44 
DOCKED: REMARK   12  A    between atoms: C_44  and  O_45 
DOCKED: USER                              x       y       z     vdW  Elec       q    Type
DOCKED: USER                           _______ _______ _______ _____ _____    ______ ____
DOCKED: ROOT
DOCKED: ATOM      1  C   UNL d   1      27.193  44.951  -1.021 -0.14 +0.02    +0.064 A 
DOCKED: ATOM      2  C   UNL d   1      23.901  44.222  -4.374 -0.28 +0.01    +0.064 C 
DOCKED: ATOM      3  C   UNL d   1      21.381  47.947  -2.763 -0.24 -0.01    +0.064 A 
DOCKED: ATOM      4  C   UNL d   1      24.919  48.946   0.423 -0.08 +0.01    +0.064 A 
DOCKED: ATOM      5  C   UNL d   1      26.461  44.456  -2.032 -0.19 +0.02    +0.066 A 
DOCKED: ATOM      6  C   UNL d   1      26.908  43.379  -2.822 -0.18 -0.00    -0.021 A 
DOCKED: ATOM      7  C   UNL d   1      25.960  43.186  -3.807 -0.23 -0.00    -0.025 A 
DOCKED: ATOM      8  C   UNL d   1      24.967  44.142  -3.568 -0.28 +0.01    +0.066 A 
DOCKED: ATOM      9  C   UNL d   1      25.974  42.147  -4.939 -0.20 +0.01    +0.051 C 
DOCKED: ATOM     10  C   UNL d   1      22.818  45.155  -4.191 -0.25 +0.00    +0.066 A 
DOCKED: ATOM     11  C   UNL d   1      21.607  45.196  -4.916 -0.32 +0.00    -0.021 A 
DOCKED: ATOM     12  C   UNL d   1      20.890  46.289  -4.423 -0.33 -0.00    +0.000 A 
DOCKED: ATOM     13  C   UNL d   1      21.707  46.825  -3.428 -0.27 -0.00    +0.070 A 
DOCKED: ATOM     14  C   UNL d   1      21.147  44.190  -5.940 -0.38 +0.00    +0.052 C 
DOCKED: ATOM     15  C   UNL d   1      22.126  48.665  -1.748 -0.18 +0.00    +0.066 A 
DOCKED: ATOM     16  C   UNL d   1      21.799  49.899  -1.204 -0.15 +0.00    -0.021 A 
DOCKED: ATOM     17  C   UNL d   1      22.818  50.192  -0.286 -0.10 +0.00    +0.000 A 
DOCKED: ATOM     18  C   UNL d   1      23.680  49.102  -0.330 -0.09 +0.01    +0.070 A 
DOCKED: ATOM     19  C   UNL d   1      20.581  50.720  -1.564 -0.24 -0.01    +0.052 C 
DOCKED: ATOM     20  C   UNL d   1      25.817  47.936   0.333 -0.10 +0.02    +0.066 A 
DOCKED: ATOM     21  C   UNL d   1      26.990  47.916   1.084 -0.11 -0.01    -0.025 A 
DOCKED: ATOM     22  C   UNL d   1      27.652  46.761   0.710 -0.12 -0.01    -0.021 A 
DOCKED: ATOM     23  C   UNL d   1      26.849  46.135  -0.267 -0.11 +0.03    +0.066 A 
DOCKED: ATOM     24  C   UNL d   1      27.468  48.956   2.094 -0.12 +0.01    +0.051 C 
DOCKED: ATOM     25  N   UNL d   1      25.248  44.939  -2.471 -0.16 -0.06    -0.248 N 
DOCKED: ATOM     26  N   UNL d   1      22.847  46.105  -3.250 -0.16 -0.02    -0.248 N 
DOCKED: ATOM     27  N   UNL d   1      23.254  48.226  -1.233 -0.07 -0.03    -0.248 N 
DOCKED: ATOM     28  N   UNL d   1      25.738  46.844  -0.500 +0.02 -0.08    -0.248 N 
DOCKED: ATOM     29 FE   UNL d   1      24.194  46.680  -1.812 -0.05 +0.00    +0.000 Fe
DOCKED: ENDROOT
DOCKED: BRANCH   6  30
DOCKED: ATOM     30  C   UNL d   1      28.229  42.631  -2.675 -0.11 +0.01    +0.052 C 
DOCKED: BRANCH  30  31
DOCKED: ATOM     31  C   UNL d   1      29.300  43.250  -3.573 -0.02 +0.02    +0.115 C 
DOCKED: BRANCH  31  32
DOCKED: ATOM     32  C   UNL d   1      29.944  44.468  -2.947 -0.01 +0.04    +0.139 C 
DOCKED: ATOM     33  O   UNL d   1      29.408  45.560  -3.066 +0.02 -0.16    -0.650 OA
DOCKED: BRANCH  32  34
DOCKED: ATOM     34  O   UNL d   1      31.078  44.382  -2.213 +0.04 -0.35    -0.776 OA
DOCKED: ATOM     35  H   UNL d   1      31.182  44.754  -1.327 +0.03 +0.11    +0.167 HD
DOCKED: ENDBRANCH  32  34
DOCKED: ENDBRANCH  31  32
DOCKED: ENDBRANCH  30  31
DOCKED: ENDBRANCH   6  30
DOCKED: BRANCH  29  36
DOCKED: ATOM     36  C   UNL d   1      25.278  47.744  -3.257 -0.05 +0.02    +0.190 C 
DOCKED: BRANCH  36  37
DOCKED: ATOM     37  O   UNL d   1      26.516  47.797  -3.907 -0.00 -0.05    -0.399 OA
DOCKED: ATOM     38  H   UNL d   1      27.076  47.111  -3.447 +0.02 +0.03    +0.209 HD
DOCKED: ENDBRANCH  36  37
DOCKED: ENDBRANCH  29  36
DOCKED: BRANCH  22  39
DOCKED: ATOM     39  C   UNL d   1      29.012  46.322   1.220 +0.13 +0.03    +0.052 C 
DOCKED: BRANCH  39  40
DOCKED: ATOM     40  C   UNL d   1      30.134  47.100   0.512 -0.16 +0.05    +0.115 C 
DOCKED: BRANCH  40  41
DOCKED: ATOM     41  C   UNL d   1      31.357  46.271   0.182 -0.12 +0.14    +0.139 C 
DOCKED: ATOM     42  O   UNL d   1      31.554  45.227   0.788 -0.50 -0.97    -0.650 OA
DOCKED: BRANCH  41  43
DOCKED: ATOM     43  O   UNL d   1      32.193  46.609  -0.825 -0.28 -0.82    -0.776 OA
DOCKED: ATOM     44  H   UNL d   1      32.141  46.204  -1.701 +0.02 +0.13    +0.167 HD
DOCKED: ENDBRANCH  41  43
DOCKED: ENDBRANCH  40  41
DOCKED: ENDBRANCH  39  40
DOCKED: ENDBRANCH  22  39
DOCKED: BRANCH  12  45
DOCKED: ATOM     45  C   UNL d   1      19.525  46.874  -4.763 -0.32 -0.00    +0.004 C 
DOCKED: ATOM     46  C   UNL d   1      18.631  46.511  -5.679 -0.34 -0.00    +0.012 C 
DOCKED: ENDBRANCH  12  45
DOCKED: BRANCH  17  47
DOCKED: ATOM     47  C   UNL d   1      23.028  51.413   0.547 -0.10 -0.00    +0.004 C 
DOCKED: ATOM     48  C   UNL d   1      22.227  51.764   1.557 -0.20 -0.00    +0.012 C 
DOCKED: ENDBRANCH  17  47
DOCKED: TORSDOF 12
DOCKED: TER
DOCKED: ENDMDL
________________________________________________________________________________


	BEGINNING GENETIC ALGORITHM DOCKING 13 of 100
Run: 13 Seed: 629585328 227904129 [ Run 13 of 100 GA/GALS ]
Beginning LAMARCKIAN GENETIC ALGORITHM (LGA), with a maximum of 25000000 energy evaluations.

Final-Value: -11.125


	FINAL GENETIC ALGORITHM DOCKED STATE
	_______________________________________________


Detailed state:  trans 28.168 38.128 -0.920 quatxyzw -0.487963 -0.678953 0.449872 0.313895 center 8.781 34.984 -0.736 ntor 12 -161.2547 107.5902 161.0573 74.5159 136.2665 131.4071 28.2364 -13.6552 -179.1644 3.9476 180.0000 -47.4079
State:	 28.168  38.128  -0.920  -0.514 -0.715  0.474 143.412   -161.25  107.59  161.06   74.52  136.27  131.41   28.24  -13.66 -179.16    3.95  180.00  -47.41

DOCKED: MODEL       13
DOCKED: USER    Run = 13
DOCKED: USER    DPF = D:/Protein_go_brrr/autodock/final/2DN3/heme_Co/dock.dpf
DOCKED: USER  
DOCKED: USER    Estimated Free Energy of Binding    =   -5.51 kcal/mol  [=(1)+(2)+(3)-(4)]
DOCKED: USER    Estimated Inhibition Constant, Ki   =   90.89 uM (micromolar)  [Temperature = 298.15 K]
DOCKED: USER    
DOCKED: USER    (1) Final Intermolecular Energy     =   -9.09 kcal/mol
DOCKED: USER        vdW + Hbond + desolv Energy     =   -7.06 kcal/mol
DOCKED: USER        Electrostatic Energy            =   -2.04 kcal/mol
DOCKED: USER    (2) Final Total Internal Energy     =   -2.03 kcal/mol
DOCKED: USER    (3) Torsional Free Energy           =   +3.58 kcal/mol
DOCKED: USER    (4) Unbound System's Energy  [=(2)] =   -2.03 kcal/mol
DOCKED: USER    
DOCKED: USER    
DOCKED: USER    NEWDPF move heme_Co_opt.pdbqt
DOCKED: USER    NEWDPF about 8.781000 34.984000 -0.736000
DOCKED: USER    NEWDPF tran0 28.167900 38.128286 -0.919997
DOCKED: USER    NEWDPF quaternion0 -0.487963 -0.678953 0.449872 0.313895
DOCKED: USER    NEWDPF axisangle0 -0.513939 -0.715095 0.473820 143.411782
DOCKED: USER    NEWDPF quat0 -0.513939 -0.715095 0.473820 143.411782
DOCKED: USER    NEWDPF dihe0 -161.25 107.59 161.06 74.52 136.27 131.41 28.24 -13.66 -179.16 3.95 180.00 -47.41 
DOCKED: USER  keepresnum = 1 
DOCKED: USER  
DOCKED: REMARK  12 active torsions:
DOCKED: REMARK  status: ('A' for Active; 'I' for Inactive)
DOCKED: REMARK    1  A    between atoms: C_6  and  C_10 
DOCKED: REMARK    2  A    between atoms: C_10  and  C_11 
DOCKED: REMARK    3  A    between atoms: C_11  and  C_12 
DOCKED: REMARK    4  A    between atoms: C_12  and  O_14 
DOCKED: REMARK    5  A    between atoms: C_17  and  C_20 
DOCKED: REMARK    6  A    between atoms: C_24  and  C_27 
DOCKED: REMARK    7  A    between atoms: C_31  and  C_34 
DOCKED: REMARK    8  A    between atoms: C_34  and  C_35 
DOCKED: REMARK    9  A    between atoms: C_35  and  C_36 
DOCKED: REMARK   10  A    between atoms: C_36  and  O_38 
DOCKED: REMARK   11  A    between atoms: FE_43  and  C_44 
DOCKED: REMARK   12  A    between atoms: C_44  and  O_45 
DOCKED: USER                              x       y       z     vdW  Elec       q    Type
DOCKED: USER                           _______ _______ _______ _____ _____    ______ ____
DOCKED: ROOT
DOCKED: ATOM      1  C   UNL d   1      29.283  38.232   0.941 -0.11 +0.01    +0.064 A 
DOCKED: ATOM      2  C   UNL d   1      26.310  34.968  -0.826 -0.25 +0.01    +0.064 C 
DOCKED: ATOM      3  C   UNL d   1      25.374  37.790  -4.566 -0.22 +0.00    +0.064 A 
DOCKED: ATOM      4  C   UNL d   1      28.696  40.970  -2.981 -0.09 +0.01    +0.064 A 
DOCKED: ATOM      5  C   UNL d   1      28.511  37.148   0.751 -0.13 +0.01    +0.066 A 
DOCKED: ATOM      6  C   UNL d   1      28.557  36.038   1.617 -0.15 -0.01    -0.021 A 
DOCKED: ATOM      7  C   UNL d   1      27.709  35.085   1.087 -0.20 -0.01    -0.025 A 
DOCKED: ATOM      8  C   UNL d   1      27.171  35.660  -0.069 -0.18 +0.01    +0.066 A 
DOCKED: ATOM      9  C   UNL d   1      27.408  33.682   1.636 -0.25 +0.04    +0.051 C 
DOCKED: ATOM     10  C   UNL d   1      25.685  35.486  -2.017 -0.18 +0.00    +0.066 A 
DOCKED: ATOM     11  C   UNL d   1      24.669  34.865  -2.775 -0.31 +0.00    -0.021 A 
DOCKED: ATOM     12  C   UNL d   1      24.412  35.711  -3.858 -0.28 -0.00    +0.000 A 
DOCKED: ATOM     13  C   UNL d   1      25.279  36.789  -3.673 -0.22 -0.00    +0.070 A 
DOCKED: ATOM     14  C   UNL d   1      23.940  33.595  -2.419 -0.42 -0.01    +0.052 C 
DOCKED: ATOM     15  C   UNL d   1      26.247  38.947  -4.561 -0.21 +0.01    +0.066 A 
DOCKED: ATOM     16  C   UNL d   1      26.398  39.869  -5.587 -0.15 -0.00    -0.021 A 
DOCKED: ATOM     17  C   UNL d   1      27.357  40.787  -5.135 -0.11 +0.00    +0.000 A 
DOCKED: ATOM     18  C   UNL d   1      27.704  40.361  -3.858 -0.13 +0.01    +0.070 A 
DOCKED: ATOM     19  C   UNL d   1      25.657  39.843  -6.905 -0.10 +0.01    +0.052 C 
DOCKED: ATOM     20  C   UNL d   1      29.112  40.524  -1.771 -0.09 +0.01    +0.066 A 
DOCKED: ATOM     21  C   UNL d   1      30.100  41.178  -1.038 -0.05 -0.01    -0.025 A 
DOCKED: ATOM     22  C   UNL d   1      30.270  40.427   0.111 -0.06 -0.00    -0.021 A 
DOCKED: ATOM     23  C   UNL d   1      29.378  39.338   0.015 -0.10 +0.01    +0.066 A 
DOCKED: ATOM     24  C   UNL d   1      30.861  42.445  -1.421 -0.03 +0.02    +0.051 C 
DOCKED: ATOM     25  N   UNL d   1      27.646  36.940  -0.298 -0.09 -0.04    -0.248 N 
DOCKED: ATOM     26  N   UNL d   1      26.007  36.678  -2.530 -0.17 -0.01    -0.248 N 
DOCKED: ATOM     27  N   UNL d   1      27.046  39.245  -3.560 -0.15 -0.03    -0.248 N 
DOCKED: ATOM     28  N   UNL d   1      28.678  39.391  -1.124 -0.09 -0.04    -0.248 N 
DOCKED: ATOM     29 FE   UNL d   1      27.330  38.164  -2.025 -0.05 +0.00    +0.000 Fe
DOCKED: ENDROOT
DOCKED: BRANCH   6  30
DOCKED: ATOM     30  C   UNL d   1      29.441  35.881   2.849 -0.16 +0.01    +0.052 C 
DOCKED: BRANCH  30  31
DOCKED: ATOM     31  C   UNL d   1      30.715  35.112   2.502 -0.10 +0.06    +0.115 C 
DOCKED: BRANCH  31  32
DOCKED: ATOM     32  C   UNL d   1      30.756  34.689   1.049 -0.07 +0.09    +0.139 C 
DOCKED: ATOM     33  O   UNL d   1      30.485  33.535   0.752 -0.08 -1.00    -0.650 OA
DOCKED: BRANCH  32  34
DOCKED: ATOM     34  O   UNL d   1      31.037  35.562   0.055 +0.03 -0.28    -0.776 OA
DOCKED: ATOM     35  H   UNL d   1      30.878  35.388  -0.883 +0.01 +0.05    +0.167 HD
DOCKED: ENDBRANCH  32  34
DOCKED: ENDBRANCH  31  32
DOCKED: ENDBRANCH  30  31
DOCKED: ENDBRANCH   6  30
DOCKED: BRANCH  29  36
DOCKED: ATOM     36  C   UNL d   1      28.883  37.087  -2.933 -0.05 +0.02    +0.190 C 
DOCKED: BRANCH  36  37
DOCKED: ATOM     37  O   UNL d   1      30.015  36.314  -2.653 +0.00 -0.06    -0.399 OA
DOCKED: ATOM     38  H   UNL d   1      30.123  36.366  -1.663 +0.02 +0.04    +0.209 HD
DOCKED: ENDBRANCH  36  37
DOCKED: ENDBRANCH  29  36
DOCKED: BRANCH  22  39
DOCKED: ATOM     39  C   UNL d   1      31.281  40.711   1.206 -0.09 +0.02    +0.052 C 
DOCKED: BRANCH  39  40
DOCKED: ATOM     40  C   UNL d   1      31.132  42.151   1.722 -0.15 +0.06    +0.115 C 
DOCKED: BRANCH  40  41
DOCKED: ATOM     41  C   UNL d   1      32.079  42.513   2.848 -0.30 +0.09    +0.139 C 
DOCKED: ATOM     42  O   UNL d   1      32.813  43.483   2.725 -0.41 -0.95    -0.650 OA
DOCKED: BRANCH  41  43
DOCKED: ATOM     43  O   UNL d   1      32.073  41.844   4.022 +0.02 -0.19    -0.776 OA
DOCKED: ATOM     44  H   UNL d   1      32.777  41.939   4.678 -0.43 -0.00    +0.167 HD
DOCKED: ENDBRANCH  41  43
DOCKED: ENDBRANCH  40  41
DOCKED: ENDBRANCH  39  40
DOCKED: ENDBRANCH  22  39
DOCKED: BRANCH  12  45
DOCKED: ATOM     45  C   UNL d   1      23.441  35.635  -5.028 -0.29 -0.00    +0.004 C 
DOCKED: ATOM     46  C   UNL d   1      22.111  35.678  -5.054 -0.36 +0.00    +0.012 C 
DOCKED: ENDBRANCH  12  45
DOCKED: BRANCH  17  47
DOCKED: ATOM     47  C   UNL d   1      27.964  41.956  -5.839 -0.05 +0.00    +0.004 C 
DOCKED: ATOM     48  C   UNL d   1      27.786  43.222  -5.454 -0.04 +0.00    +0.012 C 
DOCKED: ENDBRANCH  17  47
DOCKED: TORSDOF 12
DOCKED: TER
DOCKED: ENDMDL
________________________________________________________________________________


	BEGINNING GENETIC ALGORITHM DOCKING 14 of 100
Run: 14 Seed: 1427661410 381846900 [ Run 14 of 100 GA/GALS ]
Beginning LAMARCKIAN GENETIC ALGORITHM (LGA), with a maximum of 25000000 energy evaluations.

Final-Value: -10.284


	FINAL GENETIC ALGORITHM DOCKED STATE
	_______________________________________________


Detailed state:  trans 29.363 40.477 -1.079 quatxyzw 0.135861 0.746517 -0.531215 -0.376916 center 8.781 34.984 -0.736 ntor 12 6.3726 132.0327 134.5803 109.9891 126.0677 91.3050 -127.4174 -43.1343 48.2743 -146.4665 -20.2316 146.6301
State:	 29.363  40.477  -1.079   0.147  0.806 -0.574 -135.714      6.37  132.03  134.58  109.99  126.07   91.31 -127.42  -43.13   48.27 -146.47  -20.23  146.63

DOCKED: MODEL       14
DOCKED: USER    Run = 14
DOCKED: USER    DPF = D:/Protein_go_brrr/autodock/final/2DN3/heme_Co/dock.dpf
DOCKED: USER  
DOCKED: USER    Estimated Free Energy of Binding    =   -4.47 kcal/mol  [=(1)+(2)+(3)-(4)]
DOCKED: USER    Estimated Inhibition Constant, Ki   =  525.56 uM (micromolar)  [Temperature = 298.15 K]
DOCKED: USER    
DOCKED: USER    (1) Final Intermolecular Energy     =   -8.05 kcal/mol
DOCKED: USER        vdW + Hbond + desolv Energy     =   -6.13 kcal/mol
DOCKED: USER        Electrostatic Energy            =   -1.92 kcal/mol
DOCKED: USER    (2) Final Total Internal Energy     =   -2.23 kcal/mol
DOCKED: USER    (3) Torsional Free Energy           =   +3.58 kcal/mol
DOCKED: USER    (4) Unbound System's Energy  [=(2)] =   -2.23 kcal/mol
DOCKED: USER    
DOCKED: USER    
DOCKED: USER    NEWDPF move heme_Co_opt.pdbqt
DOCKED: USER    NEWDPF about 8.781000 34.984000 -0.736000
DOCKED: USER    NEWDPF tran0 29.363068 40.477415 -1.079310
DOCKED: USER    NEWDPF quaternion0 0.135861 0.746517 -0.531215 -0.376916
DOCKED: USER    NEWDPF axisangle0 0.146679 0.805958 -0.573513 -135.714413
DOCKED: USER    NEWDPF quat0 0.146679 0.805958 -0.573513 -135.714413
DOCKED: USER    NEWDPF dihe0 6.37 132.03 134.58 109.99 126.07 91.31 -127.42 -43.13 48.27 -146.47 -20.23 146.63 
DOCKED: USER  keepresnum = 1 
DOCKED: USER  
DOCKED: REMARK  12 active torsions:
DOCKED: REMARK  status: ('A' for Active; 'I' for Inactive)
DOCKED: REMARK    1  A    between atoms: C_6  and  C_10 
DOCKED: REMARK    2  A    between atoms: C_10  and  C_11 
DOCKED: REMARK    3  A    between atoms: C_11  and  C_12 
DOCKED: REMARK    4  A    between atoms: C_12  and  O_14 
DOCKED: REMARK    5  A    between atoms: C_17  and  C_20 
DOCKED: REMARK    6  A    between atoms: C_24  and  C_27 
DOCKED: REMARK    7  A    between atoms: C_31  and  C_34 
DOCKED: REMARK    8  A    between atoms: C_34  and  C_35 
DOCKED: REMARK    9  A    between atoms: C_35  and  C_36 
DOCKED: REMARK   10  A    between atoms: C_36  and  O_38 
DOCKED: REMARK   11  A    between atoms: FE_43  and  C_44 
DOCKED: REMARK   12  A    between atoms: C_44  and  O_45 
DOCKED: USER                              x       y       z     vdW  Elec       q    Type
DOCKED: USER                           _______ _______ _______ _____ _____    ______ ____
DOCKED: ROOT
DOCKED: ATOM      1  C   UNL d   1      30.622  41.820   0.073 -0.04 +0.02    +0.064 A 
DOCKED: ATOM      2  C   UNL d   1      29.725  37.166   0.454 -0.08 +0.01    +0.064 C 
DOCKED: ATOM      3  C   UNL d   1      26.494  37.463  -3.053 -0.21 +0.00    +0.064 A 
DOCKED: ATOM      4  C   UNL d   1      27.670  42.135  -3.722 -0.11 +0.01    +0.064 A 
DOCKED: ATOM      5  C   UNL d   1      30.588  40.534   0.459 -0.04 +0.02    +0.066 A 
DOCKED: ATOM      6  C   UNL d   1      31.462  40.025   1.440 -0.08 -0.00    -0.021 A 
DOCKED: ATOM      7  C   UNL d   1      31.213  38.669   1.530 -0.08 -0.00    -0.025 A 
DOCKED: ATOM      8  C   UNL d   1      30.188  38.412   0.614 -0.06 +0.01    +0.066 A 
DOCKED: ATOM      9  C   UNL d   1      31.906  37.642   2.439 -0.12 +0.01    +0.051 C 
DOCKED: ATOM     10  C   UNL d   1      28.656  36.810  -0.445 -0.11 +0.01    +0.066 A 
DOCKED: ATOM     11  C   UNL d   1      28.031  35.549  -0.556 -0.13 -0.00    -0.021 A 
DOCKED: ATOM     12  C   UNL d   1      27.090  35.665  -1.583 -0.18 +0.00    +0.000 A 
DOCKED: ATOM     13  C   UNL d   1      27.201  36.988  -2.012 -0.17 +0.01    +0.070 A 
DOCKED: ATOM     14  C   UNL d   1      28.266  34.356   0.334 -0.16 +0.03    +0.052 C 
DOCKED: ATOM     15  C   UNL d   1      26.522  38.779  -3.659 -0.18 +0.01    +0.066 A 
DOCKED: ATOM     16  C   UNL d   1      25.872  39.163  -4.824 -0.23 -0.00    -0.021 A 
DOCKED: ATOM     17  C   UNL d   1      26.210  40.509  -5.023 -0.20 +0.00    +0.000 A 
DOCKED: ATOM     18  C   UNL d   1      27.029  40.846  -3.950 -0.17 +0.01    +0.070 A 
DOCKED: ATOM     19  C   UNL d   1      24.991  38.271  -5.671 -0.21 +0.01    +0.052 C 
DOCKED: ATOM     20  C   UNL d   1      28.538  42.461  -2.735 -0.07 +0.01    +0.066 A 
DOCKED: ATOM     21  C   UNL d   1      29.117  43.725  -2.641 -0.03 -0.01    -0.025 A 
DOCKED: ATOM     22  C   UNL d   1      29.950  43.673  -1.539 -0.04 -0.01    -0.021 A 
DOCKED: ATOM     23  C   UNL d   1      29.848  42.365  -1.019 -0.04 +0.02    +0.066 A 
DOCKED: ATOM     24  C   UNL d   1      28.901  44.919  -3.567 -0.02 +0.01    +0.051 C 
DOCKED: ATOM     25  N   UNL d   1      29.777  39.550  -0.060 -0.04 -0.04    -0.248 N 
DOCKED: ATOM     26  N   UNL d   1      28.108  37.694  -1.286 -0.11 -0.03    -0.248 N 
DOCKED: ATOM     27  N   UNL d   1      27.218  39.784  -3.176 -0.13 -0.04    -0.248 N 
DOCKED: ATOM     28  N   UNL d   1      28.996  41.628  -1.741 -0.05 -0.06    -0.248 N 
DOCKED: ATOM     29 FE   UNL d   1      28.422  39.678  -1.710 -0.03 +0.00    +0.000 Fe
DOCKED: ENDROOT
DOCKED: BRANCH   6  30
DOCKED: ATOM     30  C   UNL d   1      32.540  40.801   2.189 -0.19 +0.02    +0.052 C 
DOCKED: BRANCH  30  31
DOCKED: ATOM     31  C   UNL d   1      31.911  41.892   3.056 -0.30 +0.05    +0.115 C 
DOCKED: BRANCH  31  32
DOCKED: ATOM     32  C   UNL d   1      32.619  43.223   2.912 -0.28 +0.15    +0.139 C 
DOCKED: ATOM     33  O   UNL d   1      32.112  44.102   2.232 -0.17 -0.98    -0.650 OA
DOCKED: BRANCH  32  34
DOCKED: ATOM     34  O   UNL d   1      33.779  43.492   3.555 -0.62 -0.91    -0.776 OA
DOCKED: ATOM     35  H   UNL d   1      34.249  42.859   4.115 -0.31 +0.04    +0.167 HD
DOCKED: ENDBRANCH  32  34
DOCKED: ENDBRANCH  31  32
DOCKED: ENDBRANCH  30  31
DOCKED: ENDBRANCH   6  30
DOCKED: BRANCH  29  36
DOCKED: ATOM     36  C   UNL d   1      30.042  39.158  -2.935 -0.03 +0.03    +0.190 C 
DOCKED: BRANCH  36  37
DOCKED: ATOM     37  O   UNL d   1      31.298  39.596  -3.367 +0.00 -0.07    -0.399 OA
DOCKED: ATOM     38  H   UNL d   1      31.576  40.280  -2.695 +0.01 +0.04    +0.209 HD
DOCKED: ENDBRANCH  36  37
DOCKED: ENDBRANCH  29  36
DOCKED: BRANCH  22  39
DOCKED: ATOM     39  C   UNL d   1      30.844  44.800  -1.058 -0.09 +0.03    +0.052 C 
DOCKED: BRANCH  39  40
DOCKED: ATOM     40  C   UNL d   1      32.326  44.441  -1.255 -0.09 +0.12    +0.115 C 
DOCKED: BRANCH  40  41
DOCKED: ATOM     41  C   UNL d   1      32.589  43.483  -2.398 -0.04 +0.08    +0.139 C 
DOCKED: ATOM     42  O   UNL d   1      32.895  43.930  -3.495 +0.01 -0.25    -0.650 OA
DOCKED: BRANCH  41  43
DOCKED: ATOM     43  O   UNL d   1      32.581  42.143  -2.218 +0.02 -0.32    -0.776 OA
DOCKED: ATOM     44  H   UNL d   1      32.208  41.535  -2.869 +0.01 +0.05    +0.167 HD
DOCKED: ENDBRANCH  41  43
DOCKED: ENDBRANCH  40  41
DOCKED: ENDBRANCH  39  40
DOCKED: ENDBRANCH  22  39
DOCKED: BRANCH  12  45
DOCKED: ATOM     45  C   UNL d   1      26.092  34.690  -2.191 -0.23 +0.00    +0.004 C 
DOCKED: ATOM     46  C   UNL d   1      24.780  34.565  -2.007 -0.39 -0.00    +0.012 C 
DOCKED: ENDBRANCH  12  45
DOCKED: BRANCH  17  47
DOCKED: ATOM     47  C   UNL d   1      25.854  41.426  -6.146 -0.15 +0.00    +0.004 C 
DOCKED: ATOM     48  C   UNL d   1      24.933  42.388  -6.049 -0.18 +0.00    +0.012 C 
DOCKED: ENDBRANCH  17  47
DOCKED: TORSDOF 12
DOCKED: TER
DOCKED: ENDMDL
________________________________________________________________________________


	BEGINNING GENETIC ALGORITHM DOCKING 15 of 100
Run: 15 Seed: 1404161537 1076070693 [ Run 15 of 100 GA/GALS ]
Beginning LAMARCKIAN GENETIC ALGORITHM (LGA), with a maximum of 25000000 energy evaluations.

Final-Value: -10.855


	FINAL GENETIC ALGORITHM DOCKED STATE
	_______________________________________________


Detailed state:  trans 11.828 39.720 24.840 quatxyzw -0.063834 0.240611 0.421020 -0.872223 center 8.781 34.984 -0.736 ntor 12 16.4476 83.5930 -110.1197 62.3906 82.4934 157.8059 39.2056 -165.8551 -145.9523 76.6930 -178.7096 -176.9258
State:	 11.828  39.720  24.840  -0.131  0.492  0.861 -58.564     16.45   83.59 -110.12   62.39   82.49  157.81   39.21 -165.86 -145.95   76.69 -178.71 -176.93

DOCKED: MODEL       15
DOCKED: USER    Run = 15
DOCKED: USER    DPF = D:/Protein_go_brrr/autodock/final/2DN3/heme_Co/dock.dpf
DOCKED: USER  
DOCKED: USER    Estimated Free Energy of Binding    =   -4.48 kcal/mol  [=(1)+(2)+(3)-(4)]
DOCKED: USER    Estimated Inhibition Constant, Ki   =  520.18 uM (micromolar)  [Temperature = 298.15 K]
DOCKED: USER    
DOCKED: USER    (1) Final Intermolecular Energy     =   -8.06 kcal/mol
DOCKED: USER        vdW + Hbond + desolv Energy     =   -8.35 kcal/mol
DOCKED: USER        Electrostatic Energy            =   +0.29 kcal/mol
DOCKED: USER    (2) Final Total Internal Energy     =   -2.80 kcal/mol
DOCKED: USER    (3) Torsional Free Energy           =   +3.58 kcal/mol
DOCKED: USER    (4) Unbound System's Energy  [=(2)] =   -2.80 kcal/mol
DOCKED: USER    
DOCKED: USER    
DOCKED: USER    NEWDPF move heme_Co_opt.pdbqt
DOCKED: USER    NEWDPF about 8.781000 34.984000 -0.736000
DOCKED: USER    NEWDPF tran0 11.828224 39.720073 24.840242
DOCKED: USER    NEWDPF quaternion0 -0.063834 0.240611 0.421020 -0.872223
DOCKED: USER    NEWDPF axisangle0 -0.130512 0.491939 0.860792 -58.563925
DOCKED: USER    NEWDPF quat0 -0.130512 0.491939 0.860792 -58.563925
DOCKED: USER    NEWDPF dihe0 16.45 83.59 -110.12 62.39 82.49 157.81 39.21 -165.86 -145.95 76.69 -178.71 -176.93 
DOCKED: USER  keepresnum = 1 
DOCKED: USER  
DOCKED: REMARK  12 active torsions:
DOCKED: REMARK  status: ('A' for Active; 'I' for Inactive)
DOCKED: REMARK    1  A    between atoms: C_6  and  C_10 
DOCKED: REMARK    2  A    between atoms: C_10  and  C_11 
DOCKED: REMARK    3  A    between atoms: C_11  and  C_12 
DOCKED: REMARK    4  A    between atoms: C_12  and  O_14 
DOCKED: REMARK    5  A    between atoms: C_17  and  C_20 
DOCKED: REMARK    6  A    between atoms: C_24  and  C_27 
DOCKED: REMARK    7  A    between atoms: C_31  and  C_34 
DOCKED: REMARK    8  A    between atoms: C_34  and  C_35 
DOCKED: REMARK    9  A    between atoms: C_35  and  C_36 
DOCKED: REMARK   10  A    between atoms: C_36  and  O_38 
DOCKED: REMARK   11  A    between atoms: FE_43  and  C_44 
DOCKED: REMARK   12  A    between atoms: C_44  and  O_45 
DOCKED: USER                              x       y       z     vdW  Elec       q    Type
DOCKED: USER                           _______ _______ _______ _____ _____    ______ ____
DOCKED: ROOT
DOCKED: ATOM      1  C   UNL d   1      10.110  38.410  25.057 -0.24 -0.02    +0.064 A 
DOCKED: ATOM      2  C   UNL d   1      14.180  38.773  27.491 -0.26 -0.02    +0.064 C 
DOCKED: ATOM      3  C   UNL d   1      15.774  42.056  24.407 -0.28 -0.02    +0.064 A 
DOCKED: ATOM      4  C   UNL d   1      11.476  41.985  22.129 -0.23 -0.02    +0.064 A 
DOCKED: ATOM      5  C   UNL d   1      11.120  38.241  25.928 -0.27 -0.03    +0.066 A 
DOCKED: ATOM      6  C   UNL d   1      11.008  37.393  27.047 -0.22 +0.01    -0.021 A 
DOCKED: ATOM      7  C   UNL d   1      12.183  37.520  27.761 -0.15 +0.02    -0.025 A 
DOCKED: ATOM      8  C   UNL d   1      12.967  38.426  27.040 -0.27 -0.03    +0.066 A 
DOCKED: ATOM      9  C   UNL d   1      12.567  36.821  29.075 -0.10 -0.03    +0.051 C 
DOCKED: ATOM     10  C   UNL d   1      15.068  39.677  26.804 -0.25 -0.02    +0.066 A 
DOCKED: ATOM     11  C   UNL d   1      16.404  39.972  27.150 -0.26 +0.00    -0.021 A 
DOCKED: ATOM     12  C   UNL d   1      16.846  40.929  26.232 -0.30 -0.00    +0.000 A 
DOCKED: ATOM     13  C   UNL d   1      15.754  41.137  25.389 -0.30 -0.02    +0.070 A 
DOCKED: ATOM     14  C   UNL d   1      17.215  39.302  28.229 -0.27 +0.00    +0.052 C 
DOCKED: ATOM     15  C   UNL d   1      14.725  42.436  23.482 -0.29 -0.02    +0.066 A 
DOCKED: ATOM     16  C   UNL d   1      14.762  43.495  22.586 -0.35 +0.01    -0.021 A 
DOCKED: ATOM     17  C   UNL d   1      13.523  43.481  21.928 -0.31 -0.00    +0.000 A 
DOCKED: ATOM     18  C   UNL d   1      12.833  42.399  22.465 -0.25 -0.02    +0.070 A 
DOCKED: ATOM     19  C   UNL d   1      15.924  44.444  22.397 -0.32 -0.01    +0.052 C 
DOCKED: ATOM     20  C   UNL d   1      10.753  40.991  22.698 -0.22 -0.02    +0.066 A 
DOCKED: ATOM     21  C   UNL d   1       9.444  40.710  22.314 -0.21 +0.01    -0.025 A 
DOCKED: ATOM     22  C   UNL d   1       9.034  39.665  23.121 -0.25 +0.00    -0.021 A 
DOCKED: ATOM     23  C   UNL d   1      10.118  39.365  23.973 -0.26 -0.02    +0.066 A 
DOCKED: ATOM     24  C   UNL d   1       8.616  41.416  21.244 -0.23 -0.02    +0.051 C 
DOCKED: ATOM     25  N   UNL d   1      12.336  38.885  25.897 -0.20 +0.12    -0.248 N 
DOCKED: ATOM     26  N   UNL d   1      14.699  40.338  25.701 -0.13 +0.10    -0.248 N 
DOCKED: ATOM     27  N   UNL d   1      13.567  41.819  23.408 -0.01 +0.10    -0.248 N 
DOCKED: ATOM     28  N   UNL d   1      11.160  40.167  23.722 -0.01 +0.10    -0.248 N 
DOCKED: ATOM     29 FE   UNL d   1      12.985  40.439  24.577 +0.00 -0.00    +0.000 Fe
DOCKED: ENDROOT
DOCKED: BRANCH   6  30
DOCKED: ATOM     30  C   UNL d   1       9.789  36.566  27.443 -0.27 -0.02    +0.052 C 
DOCKED: BRANCH  30  31
DOCKED: ATOM     31  C   UNL d   1       8.927  37.329  28.449 -0.10 -0.01    +0.115 C 
DOCKED: BRANCH  31  32
DOCKED: ATOM     32  C   UNL d   1       8.975  38.826  28.232 -0.03 -0.02    +0.139 C 
DOCKED: ATOM     33  O   UNL d   1       9.821  39.491  28.811 +0.03 +0.08    -0.650 OA
DOCKED: BRANCH  32  34
DOCKED: ATOM     34  O   UNL d   1       8.137  39.454  27.374 +0.04 +0.08    -0.776 OA
DOCKED: ATOM     35  H   UNL d   1       7.356  39.043  26.978 +0.03 -0.01    +0.167 HD
DOCKED: ENDBRANCH  32  34
DOCKED: ENDBRANCH  31  32
DOCKED: ENDBRANCH  30  31
DOCKED: ENDBRANCH   6  30
DOCKED: BRANCH  29  36
DOCKED: ATOM     36  C   UNL d   1      12.165  41.794  25.951 -0.07 -0.04    +0.190 C 
DOCKED: BRANCH  36  37
DOCKED: ATOM     37  O   UNL d   1      11.530  41.873  27.194 -0.00 +0.06    -0.399 OA
DOCKED: ATOM     38  H   UNL d   1      11.030  41.013  27.282 +0.03 -0.03    +0.209 HD
DOCKED: ENDBRANCH  36  37
DOCKED: ENDBRANCH  29  36
DOCKED: BRANCH  22  39
DOCKED: ATOM     39  C   UNL d   1       7.653  39.037  23.114 -0.20 -0.02    +0.052 C 
DOCKED: BRANCH  39  40
DOCKED: ATOM     40  C   UNL d   1       6.636  39.953  23.815 -0.12 -0.02    +0.115 C 
DOCKED: BRANCH  40  41
DOCKED: ATOM     41  C   UNL d   1       6.160  39.444  25.159 -0.08 -0.02    +0.139 C 
DOCKED: ATOM     42  O   UNL d   1       6.150  38.240  25.374 -0.02 +0.07    -0.650 OA
DOCKED: BRANCH  41  43
DOCKED: ATOM     43  O   UNL d   1       5.826  40.288  26.161 +0.03 +0.07    -0.776 OA
DOCKED: ATOM     44  H   UNL d   1       6.403  40.447  26.919 +0.01 -0.01    +0.167 HD
DOCKED: ENDBRANCH  41  43
DOCKED: ENDBRANCH  40  41
DOCKED: ENDBRANCH  39  40
DOCKED: ENDBRANCH  22  39
DOCKED: BRANCH  12  45
DOCKED: ATOM     45  C   UNL d   1      18.173  41.653  26.044 -0.29 -0.00    +0.004 C 
DOCKED: ATOM     46  C   UNL d   1      19.407  41.176  25.905 -0.41 -0.00    +0.012 C 
DOCKED: ENDBRANCH  12  45
DOCKED: BRANCH  17  47
DOCKED: ATOM     47  C   UNL d   1      12.974  44.422  20.907 -0.24 -0.00    +0.004 C 
DOCKED: ATOM     48  C   UNL d   1      13.540  44.630  19.716 -0.24 -0.00    +0.012 C 
DOCKED: ENDBRANCH  17  47
DOCKED: TORSDOF 12
DOCKED: TER
DOCKED: ENDMDL
________________________________________________________________________________


	BEGINNING GENETIC ALGORITHM DOCKING 16 of 100
Run: 16 Seed: 1789614507 67027594 [ Run 16 of 100 GA/GALS ]
Beginning LAMARCKIAN GENETIC ALGORITHM (LGA), with a maximum of 25000000 energy evaluations.

Final-Value: -11.174


	FINAL GENETIC ALGORITHM DOCKED STATE
	_______________________________________________


Detailed state:  trans 33.488 35.632 1.794 quatxyzw 0.395894 0.424416 -0.789319 0.200288 center 8.781 34.984 -0.736 ntor 12 -13.8413 126.0769 -145.8607 162.4476 128.5330 104.1943 35.9428 120.0538 172.2024 143.8633 -170.7783 166.9968
State:	 33.488  35.632   1.794   0.404  0.433 -0.806 156.892    -13.84  126.08 -145.86  162.45  128.53  104.19   35.94  120.05  172.20  143.86 -170.78  167.00

DOCKED: MODEL       16
DOCKED: USER    Run = 16
DOCKED: USER    DPF = D:/Protein_go_brrr/autodock/final/2DN3/heme_Co/dock.dpf
DOCKED: USER  
DOCKED: USER    Estimated Free Energy of Binding    =   -3.75 kcal/mol  [=(1)+(2)+(3)-(4)]
DOCKED: USER    Estimated Inhibition Constant, Ki   =    1.77 mM (millimolar)  [Temperature = 298.15 K]
DOCKED: USER    
DOCKED: USER    (1) Final Intermolecular Energy     =   -7.33 kcal/mol
DOCKED: USER        vdW + Hbond + desolv Energy     =   -6.39 kcal/mol
DOCKED: USER        Electrostatic Energy            =   -0.94 kcal/mol
DOCKED: USER    (2) Final Total Internal Energy     =   -3.84 kcal/mol
DOCKED: USER    (3) Torsional Free Energy           =   +3.58 kcal/mol
DOCKED: USER    (4) Unbound System's Energy  [=(2)] =   -3.84 kcal/mol
DOCKED: USER    
DOCKED: USER    
DOCKED: USER    NEWDPF move heme_Co_opt.pdbqt
DOCKED: USER    NEWDPF about 8.781000 34.984000 -0.736000
DOCKED: USER    NEWDPF tran0 33.487543 35.631899 1.794347
DOCKED: USER    NEWDPF quaternion0 0.395894 0.424416 -0.789319 0.200288
DOCKED: USER    NEWDPF axisangle0 0.404081 0.433194 -0.805643 156.892437
DOCKED: USER    NEWDPF quat0 0.404081 0.433194 -0.805643 156.892437
DOCKED: USER    NEWDPF dihe0 -13.84 126.08 -145.86 162.45 128.53 104.19 35.94 120.05 172.20 143.86 -170.78 167.00 
DOCKED: USER  keepresnum = 1 
DOCKED: USER  
DOCKED: REMARK  12 active torsions:
DOCKED: REMARK  status: ('A' for Active; 'I' for Inactive)
DOCKED: REMARK    1  A    between atoms: C_6  and  C_10 
DOCKED: REMARK    2  A    between atoms: C_10  and  C_11 
DOCKED: REMARK    3  A    between atoms: C_11  and  C_12 
DOCKED: REMARK    4  A    between atoms: C_12  and  O_14 
DOCKED: REMARK    5  A    between atoms: C_17  and  C_20 
DOCKED: REMARK    6  A    between atoms: C_24  and  C_27 
DOCKED: REMARK    7  A    between atoms: C_31  and  C_34 
DOCKED: REMARK    8  A    between atoms: C_34  and  C_35 
DOCKED: REMARK    9  A    between atoms: C_35  and  C_36 
DOCKED: REMARK   10  A    between atoms: C_36  and  O_38 
DOCKED: REMARK   11  A    between atoms: FE_43  and  C_44 
DOCKED: REMARK   12  A    between atoms: C_44  and  O_45 
DOCKED: USER                              x       y       z     vdW  Elec       q    Type
DOCKED: USER                           _______ _______ _______ _____ _____    ______ ____
DOCKED: ROOT
DOCKED: ATOM      1  C   UNL d   1      35.346  34.525   1.984 -0.22 +0.00    +0.064 A 
DOCKED: ATOM      2  C   UNL d   1      31.561  34.925   4.834 -0.29 +0.02    +0.064 C 
DOCKED: ATOM      3  C   UNL d   1      29.639  38.160   1.890 -0.11 +0.00    +0.064 A 
DOCKED: ATOM      4  C   UNL d   1      33.310  37.484  -1.229 -0.01 +0.01    +0.064 A 
DOCKED: ATOM      5  C   UNL d   1      34.470  34.424   2.997 -0.28 +0.01    +0.066 A 
DOCKED: ATOM      6  C   UNL d   1      34.647  33.504   4.049 -0.41 -0.00    -0.021 A 
DOCKED: ATOM      7  C   UNL d   1      33.535  33.608   4.860 -0.36 -0.01    -0.025 A 
DOCKED: ATOM      8  C   UNL d   1      32.735  34.597   4.279 -0.29 +0.02    +0.066 A 
DOCKED: ATOM      9  C   UNL d   1      33.222  32.812   6.137 -0.31 +0.02    +0.051 C 
DOCKED: ATOM     10  C   UNL d   1      30.684  35.948   4.322 -0.12 +0.01    +0.066 A 
DOCKED: ATOM     11  C   UNL d   1      29.508  36.435   4.934 -0.22 +0.00    -0.021 A 
DOCKED: ATOM     12  C   UNL d   1      28.970  37.380   4.056 -0.25 -0.00    +0.000 A 
DOCKED: ATOM     13  C   UNL d   1      29.861  37.409   2.983 -0.12 +0.00    +0.070 A 
DOCKED: ATOM     14  C   UNL d   1      29.004  36.078   6.309 -0.36 -0.02    +0.052 C 
DOCKED: ATOM     15  C   UNL d   1      30.421  38.270   0.675 -0.05 +0.01    +0.066 A 
DOCKED: ATOM     16  C   UNL d   1      30.061  38.954  -0.478 -0.06 -0.00    -0.021 A 
DOCKED: ATOM     17  C   UNL d   1      31.116  38.760  -1.381 -0.02 +0.00    +0.000 A 
DOCKED: ATOM     18  C   UNL d   1      32.048  37.984  -0.700 -0.01 +0.01    +0.070 A 
DOCKED: ATOM     19  C   UNL d   1      28.779  39.733  -0.670 -0.15 +0.01    +0.052 C 
DOCKED: ATOM     20  C   UNL d   1      34.192  36.658  -0.616 -0.05 +0.01    +0.066 A 
DOCKED: ATOM     21  C   UNL d   1      35.356  36.217  -1.241 -0.05 -0.00    -0.025 A 
DOCKED: ATOM     22  C   UNL d   1      35.978  35.385  -0.328 -0.11 -0.00    -0.021 A 
DOCKED: ATOM     23  C   UNL d   1      35.149  35.350   0.814 -0.11 +0.00    +0.066 A 
DOCKED: ATOM     24  C   UNL d   1      35.843  36.555  -2.648 -0.02 +0.01    +0.051 C 
DOCKED: ATOM     25  N   UNL d   1      33.293  35.125   3.127 -0.15 -0.05    -0.248 N 
DOCKED: ATOM     26  N   UNL d   1      30.926  36.584   3.171 -0.06 -0.05    -0.248 N 
DOCKED: ATOM     27  N   UNL d   1      31.588  37.686   0.510 -0.01 -0.05    -0.248 N 
DOCKED: ATOM     28  N   UNL d   1      34.066  36.118   0.643 -0.06 -0.04    -0.248 N 
DOCKED: ATOM     29 FE   UNL d   1      32.393  36.481   1.739 -0.03 +0.00    +0.000 Fe
DOCKED: ENDROOT
DOCKED: BRANCH   6  30
DOCKED: ATOM     30  C   UNL d   1      35.799  32.516   4.209 -0.51 +0.00    +0.052 C 
DOCKED: BRANCH  30  31
DOCKED: ATOM     31  C   UNL d   1      35.503  31.219   3.457 -0.39 +0.01    +0.115 C 
DOCKED: BRANCH  31  32
DOCKED: ATOM     32  C   UNL d   1      34.076  31.155   2.956 -0.32 +0.05    +0.139 C 
DOCKED: ATOM     33  O   UNL d   1      33.223  30.610   3.640 -0.08 -0.31    -0.650 OA
DOCKED: BRANCH  32  34
DOCKED: ATOM     34  O   UNL d   1      33.699  31.727   1.789 +0.09 -0.39    -0.776 OA
DOCKED: ATOM     35  H   UNL d   1      34.210  32.406   1.326 +0.06 +0.06    +0.167 HD
DOCKED: ENDBRANCH  32  34
DOCKED: ENDBRANCH  31  32
DOCKED: ENDBRANCH  30  31
DOCKED: ENDBRANCH   6  30
DOCKED: BRANCH  29  36
DOCKED: ATOM     36  C   UNL d   1      31.448  34.812   0.893 -0.06 +0.10    +0.190 C 
DOCKED: BRANCH  36  37
DOCKED: ATOM     37  O   UNL d   1      31.690  33.526   0.398 -0.21 -0.35    -0.399 OA
DOCKED: ATOM     38  H   UNL d   1      32.618  33.309   0.692 +0.04 +0.14    +0.209 HD
DOCKED: ENDBRANCH  36  37
DOCKED: ENDBRANCH  29  36
DOCKED: BRANCH  22  39
DOCKED: ATOM     39  C   UNL d   1      37.264  34.618  -0.571 -0.12 +0.01    +0.052 C 
DOCKED: BRANCH  39  40
DOCKED: ATOM     40  C   UNL d   1      36.962  33.215  -1.123 -0.05 +0.01    +0.115 C 
DOCKED: BRANCH  40  41
DOCKED: ATOM     41  C   UNL d   1      35.796  32.517  -0.455 -0.04 +0.02    +0.139 C 
DOCKED: ATOM     42  O   UNL d   1      36.016  31.652   0.382 +0.05 -0.10    -0.650 OA
DOCKED: BRANCH  41  43
DOCKED: ATOM     43  O   UNL d   1      34.518  32.885  -0.693 +0.05 -0.18    -0.776 OA
DOCKED: ATOM     44  H   UNL d   1      33.852  32.932   0.006 +0.03 +0.06    +0.167 HD
DOCKED: ENDBRANCH  41  43
DOCKED: ENDBRANCH  40  41
DOCKED: ENDBRANCH  39  40
DOCKED: ENDBRANCH  22  39
DOCKED: BRANCH  12  45
DOCKED: ATOM     45  C   UNL d   1      27.735  38.268   4.116 -0.27 -0.00    +0.004 C 
DOCKED: ATOM     46  C   UNL d   1      27.479  39.437   3.535 -0.39 -0.01    +0.012 C 
DOCKED: ENDBRANCH  12  45
DOCKED: BRANCH  17  47
DOCKED: ATOM     47  C   UNL d   1      31.252  39.208  -2.799 -0.01 +0.00    +0.004 C 
DOCKED: ATOM     48  C   UNL d   1      32.063  40.195  -3.186 +0.00 +0.00    +0.012 C 
DOCKED: ENDBRANCH  17  47
DOCKED: TORSDOF 12
DOCKED: TER
DOCKED: ENDMDL
________________________________________________________________________________


	BEGINNING GENETIC ALGORITHM DOCKING 17 of 100
Run: 17 Seed: 1062476082 534132294 [ Run 17 of 100 GA/GALS ]
Beginning LAMARCKIAN GENETIC ALGORITHM (LGA), with a maximum of 25000000 energy evaluations.

Final-Value: -18.115


	FINAL GENETIC ALGORITHM DOCKED STATE
	_______________________________________________


Detailed state:  trans 8.890 35.280 -0.918 quatxyzw -0.023280 -0.061200 -0.020389 -0.997646 center 8.781 34.984 -0.736 ntor 12 58.4036 122.5181 -153.3258 53.1111 -54.3262 -10.1582 -154.4160 -149.4575 -14.6444 65.2334 177.5229 170.1693
State:	  8.890  35.280  -0.918  -0.339 -0.892 -0.297 -7.865     58.40  122.52 -153.33   53.11  -54.33  -10.16 -154.42 -149.46  -14.64   65.23  177.52  170.17

DOCKED: MODEL       17
DOCKED: USER    Run = 17
DOCKED: USER    DPF = D:/Protein_go_brrr/autodock/final/2DN3/heme_Co/dock.dpf
DOCKED: USER  
DOCKED: USER    Estimated Free Energy of Binding    =  -12.31 kcal/mol  [=(1)+(2)+(3)-(4)]
DOCKED: USER    Estimated Inhibition Constant, Ki   =  939.74 pM (picomolar)  [Temperature = 298.15 K]
DOCKED: USER    
DOCKED: USER    (1) Final Intermolecular Energy     =  -15.89 kcal/mol
DOCKED: USER        vdW + Hbond + desolv Energy     =  -13.95 kcal/mol
DOCKED: USER        Electrostatic Energy            =   -1.95 kcal/mol
DOCKED: USER    (2) Final Total Internal Energy     =   -2.22 kcal/mol
DOCKED: USER    (3) Torsional Free Energy           =   +3.58 kcal/mol
DOCKED: USER    (4) Unbound System's Energy  [=(2)] =   -2.22 kcal/mol
DOCKED: USER    
DOCKED: USER    
DOCKED: USER    NEWDPF move heme_Co_opt.pdbqt
DOCKED: USER    NEWDPF about 8.781000 34.984000 -0.736000
DOCKED: USER    NEWDPF tran0 8.889596 35.279928 -0.917700
DOCKED: USER    NEWDPF quaternion0 -0.023280 -0.061200 -0.020389 -0.997646
DOCKED: USER    NEWDPF axisangle0 -0.339459 -0.892399 -0.297307 -7.864758
DOCKED: USER    NEWDPF quat0 -0.339459 -0.892399 -0.297307 -7.864758
DOCKED: USER    NEWDPF dihe0 58.40 122.52 -153.33 53.11 -54.33 -10.16 -154.42 -149.46 -14.64 65.23 177.52 170.17 
DOCKED: USER  keepresnum = 1 
DOCKED: USER  
DOCKED: REMARK  12 active torsions:
DOCKED: REMARK  status: ('A' for Active; 'I' for Inactive)
DOCKED: REMARK    1  A    between atoms: C_6  and  C_10 
DOCKED: REMARK    2  A    between atoms: C_10  and  C_11 
DOCKED: REMARK    3  A    between atoms: C_11  and  C_12 
DOCKED: REMARK    4  A    between atoms: C_12  and  O_14 
DOCKED: REMARK    5  A    between atoms: C_17  and  C_20 
DOCKED: REMARK    6  A    between atoms: C_24  and  C_27 
DOCKED: REMARK    7  A    between atoms: C_31  and  C_34 
DOCKED: REMARK    8  A    between atoms: C_34  and  C_35 
DOCKED: REMARK    9  A    between atoms: C_35  and  C_36 
DOCKED: REMARK   10  A    between atoms: C_36  and  O_38 
DOCKED: REMARK   11  A    between atoms: FE_43  and  C_44 
DOCKED: REMARK   12  A    between atoms: C_44  and  O_45 
DOCKED: USER                              x       y       z     vdW  Elec       q    Type
DOCKED: USER                           _______ _______ _______ _____ _____    ______ ____
DOCKED: ROOT
DOCKED: ATOM      1  C   UNL d   1       7.095  35.810  -2.020 -0.24 +0.01    +0.064 A 
DOCKED: ATOM      2  C   UNL d   1       7.776  33.290   1.954 -0.45 +0.01    +0.064 C 
DOCKED: ATOM      3  C   UNL d   1      12.510  33.652   1.419 -0.34 +0.00    +0.064 A 
DOCKED: ATOM      4  C   UNL d   1      11.839  36.553  -2.429 -0.40 +0.00    +0.064 A 
DOCKED: ATOM      5  C   UNL d   1       6.934  35.064  -0.915 -0.30 +0.01    +0.066 A 
DOCKED: ATOM      6  C   UNL d   1       5.661  34.789  -0.378 -0.30 -0.00    -0.021 A 
DOCKED: ATOM      7  C   UNL d   1       5.865  34.077   0.787 -0.35 -0.00    -0.025 A 
DOCKED: ATOM      8  C   UNL d   1       7.252  33.934   0.903 -0.35 +0.01    +0.066 A 
DOCKED: ATOM      9  C   UNL d   1       4.806  33.546   1.765 -0.39 +0.01    +0.051 C 
DOCKED: ATOM     10  C   UNL d   1       9.188  33.070   2.145 -0.36 +0.01    +0.066 A 
DOCKED: ATOM     11  C   UNL d   1       9.791  32.284   3.150 -0.45 -0.00    -0.021 A 
DOCKED: ATOM     12  C   UNL d   1      11.172  32.404   2.968 -0.43 +0.00    +0.000 A 
DOCKED: ATOM     13  C   UNL d   1      11.308  33.242   1.861 -0.36 +0.00    +0.070 A 
DOCKED: ATOM     14  C   UNL d   1       9.076  31.408   4.147 -0.59 +0.00    +0.052 C 
DOCKED: ATOM     15  C   UNL d   1      12.830  34.553   0.329 -0.35 +0.01    +0.066 A 
DOCKED: ATOM     16  C   UNL d   1      14.087  35.050   0.015 -0.42 -0.00    -0.021 A 
DOCKED: ATOM     17  C   UNL d   1      13.899  35.889  -1.092 -0.43 +0.00    +0.000 A 
DOCKED: ATOM     18  C   UNL d   1      12.539  35.824  -1.378 -0.37 +0.01    +0.070 A 
DOCKED: ATOM     19  C   UNL d   1      15.368  34.724   0.751 -0.59 +0.00    +0.052 C 
DOCKED: ATOM     20  C   UNL d   1      10.507  36.572  -2.671 -0.39 +0.00    +0.066 A 
DOCKED: ATOM     21  C   UNL d   1       9.947  37.341  -3.689 -0.40 -0.00    -0.025 A 
DOCKED: ATOM     22  C   UNL d   1       8.584  37.124  -3.614 -0.33 -0.00    -0.021 A 
DOCKED: ATOM     23  C   UNL d   1       8.376  36.236  -2.538 -0.33 +0.01    +0.066 A 
DOCKED: ATOM     24  C   UNL d   1      10.674  38.254  -4.673 -0.44 -0.01    +0.051 C 
DOCKED: ATOM     25  N   UNL d   1       7.939  34.530  -0.141 -0.11 -0.05    -0.248 N 
DOCKED: ATOM     26  N   UNL d   1      10.107  33.599   1.330 -0.19 -0.03    -0.248 N 
DOCKED: ATOM     27  N   UNL d   1      11.930  35.043  -0.493 -0.16 -0.03    -0.248 N 
DOCKED: ATOM     28  N   UNL d   1       9.537  35.901  -1.963 -0.24 -0.04    -0.248 N 
DOCKED: ATOM     29 FE   UNL d   1      10.052  34.803  -0.330 -0.07 +0.00    +0.000 Fe
DOCKED: ENDROOT
DOCKED: BRANCH   6  30
DOCKED: ATOM     30  C   UNL d   1       4.320  35.266  -0.927 -0.24 +0.02    +0.052 C 
DOCKED: BRANCH  30  31
DOCKED: ATOM     31  C   UNL d   1       3.839  36.503  -0.168 +0.20 +0.07    +0.115 C 
DOCKED: BRANCH  31  32
DOCKED: ATOM     32  C   UNL d   1       2.746  37.245  -0.908 +0.01 +0.17    +0.139 C 
DOCKED: ATOM     33  O   UNL d   1       1.610  36.794  -0.911 -0.34 -0.94    -0.650 OA
DOCKED: BRANCH  32  34
DOCKED: ATOM     34  O   UNL d   1       2.974  38.424  -1.531 -0.19 -1.04    -0.776 OA
DOCKED: ATOM     35  H   UNL d   1       3.666  38.566  -2.191 +0.03 +0.12    +0.167 HD
DOCKED: ENDBRANCH  32  34
DOCKED: ENDBRANCH  31  32
DOCKED: ENDBRANCH  30  31
DOCKED: ENDBRANCH   6  30
DOCKED: BRANCH  29  36
DOCKED: ATOM     36  C   UNL d   1       9.831  36.486   0.900 -0.24 +0.04    +0.190 C 
DOCKED: BRANCH  36  37
DOCKED: ATOM     37  O   UNL d   1      10.485  37.646   1.329 -0.25 -0.05    -0.399 OA
DOCKED: ATOM     38  H   UNL d   1      11.294  37.713   0.750 +0.13 +0.02    +0.209 HD
DOCKED: ENDBRANCH  36  37
DOCKED: ENDBRANCH  29  36
DOCKED: BRANCH  22  39
DOCKED: ATOM     39  C   UNL d   1       7.538  37.789  -4.490 -0.27 +0.00    +0.052 C 
DOCKED: BRANCH  39  40
DOCKED: ATOM     40  C   UNL d   1       7.078  39.119  -3.871 -0.25 +0.01    +0.115 C 
DOCKED: BRANCH  40  41
DOCKED: ATOM     41  C   UNL d   1       5.597  39.186  -3.564 -0.12 +0.03    +0.139 C 
DOCKED: ATOM     42  O   UNL d   1       4.855  38.316  -4.000 +0.03 -0.16    -0.650 OA
DOCKED: BRANCH  41  43
DOCKED: ATOM     43  O   UNL d   1       5.083  40.132  -2.748 +0.06 -0.26    -0.776 OA
DOCKED: ATOM     44  H   UNL d   1       4.321  39.968  -2.176 +0.05 +0.10    +0.167 HD
DOCKED: ENDBRANCH  41  43
DOCKED: ENDBRANCH  40  41
DOCKED: ENDBRANCH  39  40
DOCKED: ENDBRANCH  22  39
DOCKED: BRANCH  12  45
DOCKED: ATOM     45  C   UNL d   1      12.371  31.812   3.696 -0.54 +0.00    +0.004 C 
DOCKED: ATOM     46  C   UNL d   1      12.600  30.572   4.122 -0.64 +0.00    +0.012 C 
DOCKED: ENDBRANCH  12  45
DOCKED: BRANCH  17  47
DOCKED: ATOM     47  C   UNL d   1      14.884  36.743  -1.821 -0.60 +0.00    +0.004 C 
DOCKED: ATOM     48  C   UNL d   1      15.345  37.904  -1.349 -0.64 +0.00    +0.012 C 
DOCKED: ENDBRANCH  17  47
DOCKED: TORSDOF 12
DOCKED: TER
DOCKED: ENDMDL
________________________________________________________________________________


	BEGINNING GENETIC ALGORITHM DOCKING 18 of 100
Run: 18 Seed: 2045459020 1324249994 [ Run 18 of 100 GA/GALS ]
Beginning LAMARCKIAN GENETIC ALGORITHM (LGA), with a maximum of 25000000 energy evaluations.

Final-Value: -10.584


	FINAL GENETIC ALGORITHM DOCKED STATE
	_______________________________________________


Detailed state:  trans 42.222 43.980 2.905 quatxyzw 0.725340 -0.592392 0.045920 0.347628 center 8.781 34.984 -0.736 ntor 12 -155.3222 112.3525 135.1436 115.8569 -23.3958 85.5956 173.6345 22.2083 0.9787 155.7149 -137.6057 -165.0127
State:	 42.222  43.980   2.905   0.774 -0.632  0.049 139.315   -155.32  112.35  135.14  115.86  -23.40   85.60  173.63   22.21    0.98  155.71 -137.61 -165.01

DOCKED: MODEL       18
DOCKED: USER    Run = 18
DOCKED: USER    DPF = D:/Protein_go_brrr/autodock/final/2DN3/heme_Co/dock.dpf
DOCKED: USER  
DOCKED: USER    Estimated Free Energy of Binding    =   -5.76 kcal/mol  [=(1)+(2)+(3)-(4)]
DOCKED: USER    Estimated Inhibition Constant, Ki   =   59.70 uM (micromolar)  [Temperature = 298.15 K]
DOCKED: USER    
DOCKED: USER    (1) Final Intermolecular Energy     =   -9.34 kcal/mol
DOCKED: USER        vdW + Hbond + desolv Energy     =   -7.35 kcal/mol
DOCKED: USER        Electrostatic Energy            =   -1.99 kcal/mol
DOCKED: USER    (2) Final Total Internal Energy     =   -1.24 kcal/mol
DOCKED: USER    (3) Torsional Free Energy           =   +3.58 kcal/mol
DOCKED: USER    (4) Unbound System's Energy  [=(2)] =   -1.24 kcal/mol
DOCKED: USER    
DOCKED: USER    
DOCKED: USER    NEWDPF move heme_Co_opt.pdbqt
DOCKED: USER    NEWDPF about 8.781000 34.984000 -0.736000
DOCKED: USER    NEWDPF tran0 42.221738 43.979599 2.905351
DOCKED: USER    NEWDPF quaternion0 0.725340 -0.592392 0.045920 0.347628
DOCKED: USER    NEWDPF axisangle0 0.773587 -0.631795 0.048974 139.315355
DOCKED: USER    NEWDPF quat0 0.773587 -0.631795 0.048974 139.315355
DOCKED: USER    NEWDPF dihe0 -155.32 112.35 135.14 115.86 -23.40 85.60 173.63 22.21 0.98 155.71 -137.61 -165.01 
DOCKED: USER  keepresnum = 1 
DOCKED: USER  
DOCKED: REMARK  12 active torsions:
DOCKED: REMARK  status: ('A' for Active; 'I' for Inactive)
DOCKED: REMARK    1  A    between atoms: C_6  and  C_10 
DOCKED: REMARK    2  A    between atoms: C_10  and  C_11 
DOCKED: REMARK    3  A    between atoms: C_11  and  C_12 
DOCKED: REMARK    4  A    between atoms: C_12  and  O_14 
DOCKED: REMARK    5  A    between atoms: C_17  and  C_20 
DOCKED: REMARK    6  A    between atoms: C_24  and  C_27 
DOCKED: REMARK    7  A    between atoms: C_31  and  C_34 
DOCKED: REMARK    8  A    between atoms: C_34  and  C_35 
DOCKED: REMARK    9  A    between atoms: C_35  and  C_36 
DOCKED: REMARK   10  A    between atoms: C_36  and  O_38 
DOCKED: REMARK   11  A    between atoms: FE_43  and  C_44 
DOCKED: REMARK   12  A    between atoms: C_44  and  O_45 
DOCKED: USER                              x       y       z     vdW  Elec       q    Type
DOCKED: USER                           _______ _______ _______ _____ _____    ______ ____
DOCKED: ROOT
DOCKED: ATOM      1  C   UNL d   1      40.833  45.294   3.936 -0.20 +0.01    +0.064 A 
DOCKED: ATOM      2  C   UNL d   1      45.192  46.002   2.171 -0.12 -0.00    +0.064 C 
DOCKED: ATOM      3  C   UNL d   1      45.539  41.366   1.067 -0.08 +0.01    +0.064 A 
DOCKED: ATOM      4  C   UNL d   1      40.943  40.692   2.510 -0.24 +0.02    +0.064 A 
DOCKED: ATOM      5  C   UNL d   1      42.013  45.821   3.568 -0.19 +0.01    +0.066 A 
DOCKED: ATOM      6  C   UNL d   1      42.278  47.200   3.667 -0.19 +0.00    -0.021 A 
DOCKED: ATOM      7  C   UNL d   1      43.535  47.404   3.132 -0.13 +0.00    -0.025 A 
DOCKED: ATOM      8  C   UNL d   1      43.990  46.138   2.745 -0.14 -0.00    +0.066 A 
DOCKED: ATOM      9  C   UNL d   1      44.293  48.732   2.984 -0.11 -0.01    +0.051 C 
DOCKED: ATOM     10  C   UNL d   1      45.753  44.738   1.764 -0.10 +0.00    +0.066 A 
DOCKED: ATOM     11  C   UNL d   1      47.062  44.511   1.285 -0.07 -0.00    -0.021 A 
DOCKED: ATOM     12  C   UNL d   1      47.137  43.151   0.975 -0.08 +0.00    +0.000 A 
DOCKED: ATOM     13  C   UNL d   1      45.877  42.647   1.298 -0.09 +0.01    +0.070 A 
DOCKED: ATOM     14  C   UNL d   1      48.179  45.522   1.228 -0.03 -0.00    +0.052 C 
DOCKED: ATOM     15  C   UNL d   1      44.273  40.695   1.289 -0.11 +0.01    +0.066 A 
DOCKED: ATOM     16  C   UNL d   1      43.945  39.406   0.894 -0.15 -0.00    -0.021 A 
DOCKED: ATOM     17  C   UNL d   1      42.620  39.207   1.305 -0.22 +0.00    +0.000 A 
DOCKED: ATOM     18  C   UNL d   1      42.248  40.390   1.937 -0.20 +0.02    +0.070 A 
DOCKED: ATOM     19  C   UNL d   1      44.866  38.450   0.167 -0.12 +0.01    +0.052 C 
DOCKED: ATOM     20  C   UNL d   1      40.531  41.863   3.051 -0.23 +0.02    +0.066 A 
DOCKED: ATOM     21  C   UNL d   1      39.238  42.044   3.537 -0.30 -0.01    -0.025 A 
DOCKED: ATOM     22  C   UNL d   1      39.186  43.353   3.981 -0.26 -0.01    -0.021 A 
DOCKED: ATOM     23  C   UNL d   1      40.457  43.914   3.731 -0.19 +0.02    +0.066 A 
DOCKED: ATOM     24  C   UNL d   1      38.101  41.026   3.560 -0.33 +0.02    +0.051 C 
DOCKED: ATOM     25  N   UNL d   1      43.069  45.138   3.008 -0.10 -0.02    -0.248 N 
DOCKED: ATOM     26  N   UNL d   1      45.060  43.597   1.827 -0.04 -0.03    -0.248 N 
DOCKED: ATOM     27  N   UNL d   1      43.247  41.263   1.881 +0.00 -0.06    -0.248 N 
DOCKED: ATOM     28  N   UNL d   1      41.273  43.016   3.166 -0.11 -0.06    -0.248 N 
DOCKED: ATOM     29 FE   UNL d   1      43.160  43.085   2.413 -0.05 +0.00    +0.000 Fe
DOCKED: ENDROOT
DOCKED: BRANCH   6  30
DOCKED: ATOM     30  C   UNL d   1      41.325  48.276   4.178 -0.27 -0.00    +0.052 C 
DOCKED: BRANCH  30  31
DOCKED: ATOM     31  C   UNL d   1      39.993  48.211   3.432 -0.18 +0.03    +0.115 C 
DOCKED: BRANCH  31  32
DOCKED: ATOM     32  C   UNL d   1      39.006  49.248   3.923 -0.30 +0.06    +0.139 C 
DOCKED: ATOM     33  O   UNL d   1      39.386  50.392   4.124 -0.54 -0.44    -0.650 OA
DOCKED: BRANCH  32  34
DOCKED: ATOM     34  O   UNL d   1      37.695  48.963   4.104 -0.25 -0.45    -0.776 OA
DOCKED: ATOM     35  H   UNL d   1      36.993  49.628   4.135 -0.51 +0.05    +0.167 HD
DOCKED: ENDBRANCH  32  34
DOCKED: ENDBRANCH  31  32
DOCKED: ENDBRANCH  30  31
DOCKED: ENDBRANCH   6  30
DOCKED: BRANCH  29  36
DOCKED: ATOM     36  C   UNL d   1      42.421  43.709   0.553 -0.05 +0.03    +0.190 C 
DOCKED: BRANCH  36  37
DOCKED: ATOM     37  O   UNL d   1      41.281  44.216  -0.079 -0.00 -0.08    -0.399 OA
DOCKED: ATOM     38  H   UNL d   1      40.595  44.283   0.642 +0.03 +0.05    +0.209 HD
DOCKED: ENDBRANCH  36  37
DOCKED: ENDBRANCH  29  36
DOCKED: BRANCH  22  39
DOCKED: ATOM     39  C   UNL d   1      37.960  44.039   4.554 -0.25 +0.02    +0.052 C 
DOCKED: BRANCH  39  40
DOCKED: ATOM     40  C   UNL d   1      36.847  44.133   3.496 -0.24 +0.10    +0.115 C 
DOCKED: BRANCH  40  41
DOCKED: ATOM     41  C   UNL d   1      37.347  44.227   2.070 -0.13 +0.14    +0.139 C 
DOCKED: ATOM     42  O   UNL d   1      36.591  43.945   1.151 -0.02 -1.05    -0.650 OA
DOCKED: BRANCH  41  43
DOCKED: ATOM     43  O   UNL d   1      38.579  44.699   1.779 +0.04 -0.46    -0.776 OA
DOCKED: ATOM     44  H   UNL d   1      39.129  44.320   1.080 +0.03 +0.08    +0.167 HD
DOCKED: ENDBRANCH  41  43
DOCKED: ENDBRANCH  40  41
DOCKED: ENDBRANCH  39  40
DOCKED: ENDBRANCH  22  39
DOCKED: BRANCH  12  45
DOCKED: ATOM     45  C   UNL d   1      48.254  42.270   0.431 -0.05 +0.00    +0.004 C 
DOCKED: ATOM     46  C   UNL d   1      48.995  41.342   1.031 -0.05 +0.00    +0.012 C 
DOCKED: ENDBRANCH  12  45
DOCKED: BRANCH  17  47
DOCKED: ATOM     47  C   UNL d   1      41.721  38.033   1.095 -0.23 +0.00    +0.004 C 
DOCKED: ATOM     48  C   UNL d   1      41.598  37.399  -0.073 -0.19 +0.00    +0.012 C 
DOCKED: ENDBRANCH  17  47
DOCKED: TORSDOF 12
DOCKED: TER
DOCKED: ENDMDL
________________________________________________________________________________


	BEGINNING GENETIC ALGORITHM DOCKING 19 of 100
Run: 19 Seed: 1174194141 1810966064 [ Run 19 of 100 GA/GALS ]
Beginning LAMARCKIAN GENETIC ALGORITHM (LGA), with a maximum of 25000000 energy evaluations.

Final-Value: -19.344


	FINAL GENETIC ALGORITHM DOCKED STATE
	_______________________________________________


Detailed state:  trans 40.959 29.074 16.188 quatxyzw 0.354858 -0.405375 -0.841742 0.034895 center 8.781 34.984 -0.736 ntor 12 90.7092 104.3645 -91.3039 -49.1424 -30.8032 4.8252 -33.3441 130.0517 25.7438 34.3756 -40.0632 166.3780
State:	 40.959  29.074  16.188   0.355 -0.406 -0.842 176.001     90.71  104.36  -91.30  -49.14  -30.80    4.83  -33.34  130.05   25.74   34.38  -40.06  166.38

DOCKED: MODEL       19
DOCKED: USER    Run = 19
DOCKED: USER    DPF = D:/Protein_go_brrr/autodock/final/2DN3/heme_Co/dock.dpf
DOCKED: USER  
DOCKED: USER    Estimated Free Energy of Binding    =  -14.11 kcal/mol  [=(1)+(2)+(3)-(4)]
DOCKED: USER    Estimated Inhibition Constant, Ki   =   45.34 pM (picomolar)  [Temperature = 298.15 K]
DOCKED: USER    
DOCKED: USER    (1) Final Intermolecular Energy     =  -17.69 kcal/mol
DOCKED: USER        vdW + Hbond + desolv Energy     =  -15.72 kcal/mol
DOCKED: USER        Electrostatic Energy            =   -1.97 kcal/mol
DOCKED: USER    (2) Final Total Internal Energy     =   -1.65 kcal/mol
DOCKED: USER    (3) Torsional Free Energy           =   +3.58 kcal/mol
DOCKED: USER    (4) Unbound System's Energy  [=(2)] =   -1.65 kcal/mol
DOCKED: USER    
DOCKED: USER    
DOCKED: USER    NEWDPF move heme_Co_opt.pdbqt
DOCKED: USER    NEWDPF about 8.781000 34.984000 -0.736000
DOCKED: USER    NEWDPF tran0 40.958728 29.073505 16.188275
DOCKED: USER    NEWDPF quaternion0 0.354858 -0.405375 -0.841742 0.034895
DOCKED: USER    NEWDPF axisangle0 0.355074 -0.405622 -0.842255 176.000501
DOCKED: USER    NEWDPF quat0 0.355074 -0.405622 -0.842255 176.000501
DOCKED: USER    NEWDPF dihe0 90.71 104.36 -91.30 -49.14 -30.80 4.83 -33.34 130.05 25.74 34.38 -40.06 166.38 
DOCKED: USER  keepresnum = 1 
DOCKED: USER  
DOCKED: REMARK  12 active torsions:
DOCKED: REMARK  status: ('A' for Active; 'I' for Inactive)
DOCKED: REMARK    1  A    between atoms: C_6  and  C_10 
DOCKED: REMARK    2  A    between atoms: C_10  and  C_11 
DOCKED: REMARK    3  A    between atoms: C_11  and  C_12 
DOCKED: REMARK    4  A    between atoms: C_12  and  O_14 
DOCKED: REMARK    5  A    between atoms: C_17  and  C_20 
DOCKED: REMARK    6  A    between atoms: C_24  and  C_27 
DOCKED: REMARK    7  A    between atoms: C_31  and  C_34 
DOCKED: REMARK    8  A    between atoms: C_34  and  C_35 
DOCKED: REMARK    9  A    between atoms: C_35  and  C_36 
DOCKED: REMARK   10  A    between atoms: C_36  and  O_38 
DOCKED: REMARK   11  A    between atoms: FE_43  and  C_44 
DOCKED: REMARK   12  A    between atoms: C_44  and  O_45 
DOCKED: USER                              x       y       z     vdW  Elec       q    Type
DOCKED: USER                           _______ _______ _______ _____ _____    ______ ____
DOCKED: ROOT
DOCKED: ATOM      1  C   UNL d   1      42.713  28.582  17.371 -0.19 +0.02    +0.064 A 
DOCKED: ATOM      2  C   UNL d   1      40.570  32.714  16.400 -0.48 +0.01    +0.064 C 
DOCKED: ATOM      3  C   UNL d   1      37.542  30.493  13.445 -0.34 +0.01    +0.064 A 
DOCKED: ATOM      4  C   UNL d   1      39.465  26.209  14.716 -0.41 +0.01    +0.064 A 
DOCKED: ATOM      5  C   UNL d   1      42.373  29.879  17.295 -0.29 +0.02    +0.066 A 
DOCKED: ATOM      6  C   UNL d   1      42.996  30.863  18.087 -0.37 -0.01    -0.021 A 
DOCKED: ATOM      7  C   UNL d   1      42.355  32.056  17.818 -0.44 -0.01    -0.025 A 
DOCKED: ATOM      8  C   UNL d   1      41.380  31.753  16.862 -0.39 +0.01    +0.066 A 
DOCKED: ATOM      9  C   UNL d   1      42.638  33.436  18.430 -0.40 +0.01    +0.051 C 
DOCKED: ATOM     10  C   UNL d   1      39.555  32.502  15.398 -0.39 +0.01    +0.066 A 
DOCKED: ATOM     11  C   UNL d   1      38.769  33.493  14.771 -0.42 -0.00    -0.021 A 
DOCKED: ATOM     12  C   UNL d   1      37.898  32.818  13.911 -0.40 +0.00    +0.000 A 
DOCKED: ATOM     13  C   UNL d   1      38.224  31.471  14.068 -0.37 +0.01    +0.070 A 
DOCKED: ATOM     14  C   UNL d   1      38.923  34.984  14.925 -0.54 +0.01    +0.052 C 
DOCKED: ATOM     15  C   UNL d   1      37.709  29.056  13.533 -0.39 +0.01    +0.066 A 
DOCKED: ATOM     16  C   UNL d   1      36.876  28.095  12.976 -0.48 -0.00    -0.021 A 
DOCKED: ATOM     17  C   UNL d   1      37.425  26.858  13.342 -0.46 +0.00    +0.000 A 
DOCKED: ATOM     18  C   UNL d   1      38.564  27.163  14.081 -0.37 +0.01    +0.070 A 
DOCKED: ATOM     19  C   UNL d   1      35.640  28.378  12.152 -0.65 +0.01    +0.052 C 
DOCKED: ATOM     20  C   UNL d   1      40.527  26.483  15.511 -0.38 +0.02    +0.066 A 
DOCKED: ATOM     21  C   UNL d   1      41.297  25.478  16.093 -0.38 -0.01    -0.025 A 
DOCKED: ATOM     22  C   UNL d   1      42.259  26.133  16.841 -0.33 -0.01    -0.021 A 
DOCKED: ATOM     23  C   UNL d   1      42.019  27.514  16.686 -0.32 +0.02    +0.066 A 
DOCKED: ATOM     24  C   UNL d   1      41.114  23.969  15.961 -0.55 +0.01    +0.051 C 
DOCKED: ATOM     25  N   UNL d   1      41.372  30.413  16.515 -0.12 -0.08    -0.248 N 
DOCKED: ATOM     26  N   UNL d   1      39.264  31.286  14.924 -0.22 -0.05    -0.248 N 
DOCKED: ATOM     27  N   UNL d   1      38.684  28.481  14.200 -0.20 -0.06    -0.248 N 
DOCKED: ATOM     28  N   UNL d   1      40.970  27.730  15.883 -0.20 -0.09    -0.248 N 
DOCKED: ATOM     29 FE   UNL d   1      39.950  29.386  15.289 -0.07 +0.00    +0.000 Fe
DOCKED: ENDROOT
DOCKED: BRANCH   6  30
DOCKED: ATOM     30  C   UNL d   1      44.102  30.638  19.113 -0.33 +0.02    +0.052 C 
DOCKED: BRANCH  30  31
DOCKED: ATOM     31  C   UNL d   1      45.166  29.692  18.557 -0.22 +0.05    +0.115 C 
DOCKED: BRANCH  31  32
DOCKED: ATOM     32  C   UNL d   1      45.941  28.988  19.650 -0.17 +0.10    +0.139 C 
DOCKED: ATOM     33  O   UNL d   1      47.008  28.456  19.383 +0.02 -0.40    -0.650 OA
DOCKED: BRANCH  32  34
DOCKED: ATOM     34  O   UNL d   1      45.513  28.968  20.934 -0.11 -1.19    -0.776 OA
DOCKED: ATOM     35  H   UNL d   1      44.897  28.314  21.292 +0.03 +0.30    +0.167 HD
DOCKED: ENDBRANCH  32  34
DOCKED: ENDBRANCH  31  32
DOCKED: ENDBRANCH  30  31
DOCKED: ENDBRANCH   6  30
DOCKED: BRANCH  29  36
DOCKED: ATOM     36  C   UNL d   1      38.732  29.275  16.992 -0.34 +0.05    +0.190 C 
DOCKED: BRANCH  36  37
DOCKED: ATOM     37  O   UNL d   1      37.752  28.492  17.612 -0.25 -0.08    -0.399 OA
DOCKED: ATOM     38  H   UNL d   1      37.504  27.806  16.931 +0.13 +0.04    +0.209 HD
DOCKED: ENDBRANCH  36  37
DOCKED: ENDBRANCH  29  36
DOCKED: BRANCH  22  39
DOCKED: ATOM     39  C   UNL d   1      43.308  25.460  17.707 -0.34 +0.02    +0.052 C 
DOCKED: BRANCH  39  40
DOCKED: ATOM     40  C   UNL d   1      42.802  25.307  19.151 -0.33 +0.04    +0.115 C 
DOCKED: BRANCH  40  41
DOCKED: ATOM     41  C   UNL d   1      43.895  25.311  20.200 -0.28 +0.08    +0.139 C 
DOCKED: ATOM     42  O   UNL d   1      44.387  24.250  20.555 -0.56 -0.44    -0.650 OA
DOCKED: BRANCH  41  43
DOCKED: ATOM     43  O   UNL d   1      44.402  26.463  20.691 +0.04 -0.61    -0.776 OA
DOCKED: ATOM     44  H   UNL d   1      45.115  26.946  20.252 +0.06 +0.13    +0.167 HD
DOCKED: ENDBRANCH  41  43
DOCKED: ENDBRANCH  40  41
DOCKED: ENDBRANCH  39  40
DOCKED: ENDBRANCH  22  39
DOCKED: BRANCH  12  45
DOCKED: ATOM     45  C   UNL d   1      36.814  33.290  12.951 -0.53 +0.00    +0.004 C 
DOCKED: ATOM     46  C   UNL d   1      35.722  34.018  13.169 -0.60 +0.00    +0.012 C 
DOCKED: ENDBRANCH  12  45
DOCKED: BRANCH  17  47
DOCKED: ATOM     47  C   UNL d   1      36.922  25.476  13.081 -0.64 +0.00    +0.004 C 
DOCKED: ATOM     48  C   UNL d   1      35.683  25.075  13.377 -0.72 +0.00    +0.012 C 
DOCKED: ENDBRANCH  17  47
DOCKED: TORSDOF 12
DOCKED: TER
DOCKED: ENDMDL
________________________________________________________________________________


	BEGINNING GENETIC ALGORITHM DOCKING 20 of 100
Run: 20 Seed: 783874130 83621405 [ Run 20 of 100 GA/GALS ]
Beginning LAMARCKIAN GENETIC ALGORITHM (LGA), with a maximum of 25000000 energy evaluations.

Final-Value: -16.532


	FINAL GENETIC ALGORITHM DOCKED STATE
	_______________________________________________


Detailed state:  trans 9.106 35.074 -0.480 quatxyzw -0.021261 -0.029030 -0.038484 -0.998611 center 8.781 34.984 -0.736 ntor 12 -73.5192 130.0446 -138.0511 63.6769 -71.6777 40.2974 166.5440 16.5489 -26.0454 -56.6498 60.9044 175.3854
State:	  9.106  35.074  -0.480  -0.404 -0.551 -0.730 -6.040    -73.52  130.04 -138.05   63.68  -71.68   40.30  166.54   16.55  -26.05  -56.65   60.90  175.39

DOCKED: MODEL       20
DOCKED: USER    Run = 20
DOCKED: USER    DPF = D:/Protein_go_brrr/autodock/final/2DN3/heme_Co/dock.dpf
DOCKED: USER  
DOCKED: USER    Estimated Free Energy of Binding    =  -12.32 kcal/mol  [=(1)+(2)+(3)-(4)]
DOCKED: USER    Estimated Inhibition Constant, Ki   =  933.55 pM (picomolar)  [Temperature = 298.15 K]
DOCKED: USER    
DOCKED: USER    (1) Final Intermolecular Energy     =  -15.90 kcal/mol
DOCKED: USER        vdW + Hbond + desolv Energy     =  -15.18 kcal/mol
DOCKED: USER        Electrostatic Energy            =   -0.72 kcal/mol
DOCKED: USER    (2) Final Total Internal Energy     =   -0.63 kcal/mol
DOCKED: USER    (3) Torsional Free Energy           =   +3.58 kcal/mol
DOCKED: USER    (4) Unbound System's Energy  [=(2)] =   -0.63 kcal/mol
DOCKED: USER    
DOCKED: USER    
DOCKED: USER    NEWDPF move heme_Co_opt.pdbqt
DOCKED: USER    NEWDPF about 8.781000 34.984000 -0.736000
DOCKED: USER    NEWDPF tran0 9.105926 35.073650 -0.479988
DOCKED: USER    NEWDPF quaternion0 -0.021261 -0.029030 -0.038484 -0.998611
DOCKED: USER    NEWDPF axisangle0 -0.403540 -0.551007 -0.730443 -6.040135
DOCKED: USER    NEWDPF quat0 -0.403540 -0.551007 -0.730443 -6.040135
DOCKED: USER    NEWDPF dihe0 -73.52 130.04 -138.05 63.68 -71.68 40.30 166.54 16.55 -26.05 -56.65 60.90 175.39 
DOCKED: USER  keepresnum = 1 
DOCKED: USER  
DOCKED: REMARK  12 active torsions:
DOCKED: REMARK  status: ('A' for Active; 'I' for Inactive)
DOCKED: REMARK    1  A    between atoms: C_6  and  C_10 
DOCKED: REMARK    2  A    between atoms: C_10  and  C_11 
DOCKED: REMARK    3  A    between atoms: C_11  and  C_12 
DOCKED: REMARK    4  A    between atoms: C_12  and  O_14 
DOCKED: REMARK    5  A    between atoms: C_17  and  C_20 
DOCKED: REMARK    6  A    between atoms: C_24  and  C_27 
DOCKED: REMARK    7  A    between atoms: C_31  and  C_34 
DOCKED: REMARK    8  A    between atoms: C_34  and  C_35 
DOCKED: REMARK    9  A    between atoms: C_35  and  C_36 
DOCKED: REMARK   10  A    between atoms: C_36  and  O_38 
DOCKED: REMARK   11  A    between atoms: FE_43  and  C_44 
DOCKED: REMARK   12  A    between atoms: C_44  and  O_45 
DOCKED: USER                              x       y       z     vdW  Elec       q    Type
DOCKED: USER                           _______ _______ _______ _____ _____    ______ ____
DOCKED: ROOT
DOCKED: ATOM      1  C   UNL d   1       7.267  35.679  -1.463 -0.19 +0.02    +0.064 A 
DOCKED: ATOM      2  C   UNL d   1       8.102  33.101   2.444 -0.45 +0.01    +0.064 C 
DOCKED: ATOM      3  C   UNL d   1      12.803  33.292   1.611 -0.35 +0.00    +0.064 A 
DOCKED: ATOM      4  C   UNL d   1      12.000  36.249  -2.167 -0.41 +0.00    +0.064 A 
DOCKED: ATOM      5  C   UNL d   1       7.147  34.930  -0.355 -0.29 +0.01    +0.066 A 
DOCKED: ATOM      6  C   UNL d   1       5.902  34.698   0.260 -0.34 -0.00    -0.021 A 
DOCKED: ATOM      7  C   UNL d   1       6.152  33.969   1.406 -0.40 -0.00    -0.025 A 
DOCKED: ATOM      8  C   UNL d   1       7.537  33.773   1.433 -0.37 +0.01    +0.066 A 
DOCKED: ATOM      9  C   UNL d   1       5.138  33.469   2.446 -0.46 +0.00    +0.051 C 
DOCKED: ATOM     10  C   UNL d   1       9.514  32.828   2.543 -0.38 +0.00    +0.066 A 
DOCKED: ATOM     11  C   UNL d   1      10.150  32.011   3.503 -0.46 -0.00    -0.021 A 
DOCKED: ATOM     12  C   UNL d   1      11.519  32.081   3.234 -0.44 +0.00    +0.000 A 
DOCKED: ATOM     13  C   UNL d   1      11.617  32.923   2.126 -0.36 +0.00    +0.070 A 
DOCKED: ATOM     14  C   UNL d   1       9.467  31.153   4.538 -0.64 +0.00    +0.052 C 
DOCKED: ATOM     15  C   UNL d   1      13.088  34.190   0.509 -0.37 +0.01    +0.066 A 
DOCKED: ATOM     16  C   UNL d   1      14.340  34.643   0.120 -0.46 -0.00    -0.021 A 
DOCKED: ATOM     17  C   UNL d   1      14.113  35.499  -0.968 -0.44 +0.00    +0.000 A 
DOCKED: ATOM     18  C   UNL d   1      12.737  35.486  -1.168 -0.36 +0.01    +0.070 A 
DOCKED: ATOM     19  C   UNL d   1      15.652  34.264   0.770 -0.51 +0.00    +0.052 C 
DOCKED: ATOM     20  C   UNL d   1      10.656  36.320  -2.324 -0.38 +0.01    +0.066 A 
DOCKED: ATOM     21  C   UNL d   1      10.063  37.118  -3.300 -0.39 -0.00    -0.025 A 
DOCKED: ATOM     22  C   UNL d   1       8.700  36.952  -3.140 -0.36 -0.00    -0.021 A 
DOCKED: ATOM     23  C   UNL d   1       8.527  36.062  -2.058 -0.30 +0.01    +0.066 A 
DOCKED: ATOM     24  C   UNL d   1      10.760  38.012  -4.322 -0.51 -0.00    +0.051 C 
DOCKED: ATOM     25  N   UNL d   1       8.179  34.353   0.351 -0.09 -0.05    -0.248 N 
DOCKED: ATOM     26  N   UNL d   1      10.399  33.329   1.675 -0.23 -0.02    -0.248 N 
DOCKED: ATOM     27  N   UNL d   1      12.156  34.720  -0.251 -0.18 -0.03    -0.248 N 
DOCKED: ATOM     28  N   UNL d   1       9.709  35.679  -1.560 -0.18 -0.05    -0.248 N 
DOCKED: ATOM     29 FE   UNL d   1      10.284  34.549   0.029 -0.06 +0.00    +0.000 Fe
DOCKED: ENDROOT
DOCKED: BRANCH   6  30
DOCKED: ATOM     30  C   UNL d   1       4.548  35.230  -0.199 -0.29 +0.02    +0.052 C 
DOCKED: BRANCH  30  31
DOCKED: ATOM     31  C   UNL d   1       3.447  34.207   0.080 -0.20 +0.03    +0.115 C 
DOCKED: BRANCH  31  32
DOCKED: ATOM     32  C   UNL d   1       2.097  34.856   0.295 -0.13 +0.07    +0.139 C 
DOCKED: ATOM     33  O   UNL d   1       1.790  35.838  -0.366 -0.07 -0.55    -0.650 OA
DOCKED: BRANCH  32  34
DOCKED: ATOM     34  O   UNL d   1       1.190  34.355   1.165 +0.02 -0.30    -0.776 OA
DOCKED: ATOM     35  H   UNL d   1       0.630  33.587   0.986 +0.03 +0.04    +0.167 HD
DOCKED: ENDBRANCH  32  34
DOCKED: ENDBRANCH  31  32
DOCKED: ENDBRANCH  30  31
DOCKED: ENDBRANCH   6  30
DOCKED: BRANCH  29  36
DOCKED: ATOM     36  C   UNL d   1      10.205  36.228   1.282 -0.25 +0.03    +0.190 C 
DOCKED: BRANCH  36  37
DOCKED: ATOM     37  O   UNL d   1      10.373  37.617   1.296 -0.25 -0.05    -0.399 OA
DOCKED: ATOM     38  H   UNL d   1      10.336  37.889   0.337 +0.12 +0.03    +0.209 HD
DOCKED: ENDBRANCH  36  37
DOCKED: ENDBRANCH  29  36
DOCKED: BRANCH  22  39
DOCKED: ATOM     39  C   UNL d   1       7.626  37.662  -3.943 -0.30 +0.00    +0.052 C 
DOCKED: BRANCH  39  40
DOCKED: ATOM     40  C   UNL d   1       7.349  39.058  -3.362 -0.26 +0.01    +0.115 C 
DOCKED: BRANCH  40  41
DOCKED: ATOM     41  C   UNL d   1       7.652  40.200  -4.310 -0.30 -0.00    +0.139 C 
DOCKED: ATOM     42  O   UNL d   1       7.066  41.265  -4.170 -0.02 -0.03    -0.650 OA
DOCKED: BRANCH  41  43
DOCKED: ATOM     43  O   UNL d   1       8.616  40.105  -5.252 +0.08 +0.17    -0.776 OA
DOCKED: ATOM     44  H   UNL d   1       9.283  40.791  -5.384 -0.47 -0.09    +0.167 HD
DOCKED: ENDBRANCH  41  43
DOCKED: ENDBRANCH  40  41
DOCKED: ENDBRANCH  39  40
DOCKED: ENDBRANCH  22  39
DOCKED: BRANCH  12  45
DOCKED: ATOM     45  C   UNL d   1      12.739  31.438   3.881 -0.60 +0.00    +0.004 C 
DOCKED: ATOM     46  C   UNL d   1      13.022  30.160   4.115 -0.70 +0.00    +0.012 C 
DOCKED: ENDBRANCH  12  45
DOCKED: BRANCH  17  47
DOCKED: ATOM     47  C   UNL d   1      15.082  36.322  -1.752 -0.58 +0.00    +0.004 C 
DOCKED: ATOM     48  C   UNL d   1      15.360  37.597  -1.474 -0.65 +0.00    +0.012 C 
DOCKED: ENDBRANCH  17  47
DOCKED: TORSDOF 12
DOCKED: TER
DOCKED: ENDMDL
________________________________________________________________________________


	BEGINNING GENETIC ALGORITHM DOCKING 21 of 100
Run: 21 Seed: 1493188019 259707444 [ Run 21 of 100 GA/GALS ]
Beginning LAMARCKIAN GENETIC ALGORITHM (LGA), with a maximum of 25000000 energy evaluations.

Final-Value: -19.266


	FINAL GENETIC ALGORITHM DOCKED STATE
	_______________________________________________


Detailed state:  trans 41.002 29.031 16.285 quatxyzw 0.361793 -0.405172 -0.838046 0.051189 center 8.781 34.984 -0.736 ntor 12 92.0614 103.4050 -28.7198 -90.4050 -42.8356 2.6963 60.7113 39.9536 35.3086 -27.1608 -52.3919 -42.2249
State:	 41.002  29.031  16.285   0.362 -0.406 -0.839 174.132     92.06  103.41  -28.72  -90.40  -42.84    2.70   60.71   39.95   35.31  -27.16  -52.39  -42.22

DOCKED: MODEL       21
DOCKED: USER    Run = 21
DOCKED: USER    DPF = D:/Protein_go_brrr/autodock/final/2DN3/heme_Co/dock.dpf
DOCKED: USER  
DOCKED: USER    Estimated Free Energy of Binding    =  -14.38 kcal/mol  [=(1)+(2)+(3)-(4)]
DOCKED: USER    Estimated Inhibition Constant, Ki   =   29.03 pM (picomolar)  [Temperature = 298.15 K]
DOCKED: USER    
DOCKED: USER    (1) Final Intermolecular Energy     =  -17.95 kcal/mol
DOCKED: USER        vdW + Hbond + desolv Energy     =  -15.39 kcal/mol
DOCKED: USER        Electrostatic Energy            =   -2.56 kcal/mol
DOCKED: USER    (2) Final Total Internal Energy     =   -1.31 kcal/mol
DOCKED: USER    (3) Torsional Free Energy           =   +3.58 kcal/mol
DOCKED: USER    (4) Unbound System's Energy  [=(2)] =   -1.31 kcal/mol
DOCKED: USER    
DOCKED: USER    
DOCKED: USER    NEWDPF move heme_Co_opt.pdbqt
DOCKED: USER    NEWDPF about 8.781000 34.984000 -0.736000
DOCKED: USER    NEWDPF tran0 41.001788 29.031302 16.285091
DOCKED: USER    NEWDPF quaternion0 0.361793 -0.405172 -0.838046 0.051189
DOCKED: USER    NEWDPF axisangle0 0.362268 -0.405704 -0.839146 174.131633
DOCKED: USER    NEWDPF quat0 0.362268 -0.405704 -0.839146 174.131633
DOCKED: USER    NEWDPF dihe0 92.06 103.41 -28.72 -90.40 -42.84 2.70 60.71 39.95 35.31 -27.16 -52.39 -42.22 
DOCKED: USER  keepresnum = 1 
DOCKED: USER  
DOCKED: REMARK  12 active torsions:
DOCKED: REMARK  status: ('A' for Active; 'I' for Inactive)
DOCKED: REMARK    1  A    between atoms: C_6  and  C_10 
DOCKED: REMARK    2  A    between atoms: C_10  and  C_11 
DOCKED: REMARK    3  A    between atoms: C_11  and  C_12 
DOCKED: REMARK    4  A    between atoms: C_12  and  O_14 
DOCKED: REMARK    5  A    between atoms: C_17  and  C_20 
DOCKED: REMARK    6  A    between atoms: C_24  and  C_27 
DOCKED: REMARK    7  A    between atoms: C_31  and  C_34 
DOCKED: REMARK    8  A    between atoms: C_34  and  C_35 
DOCKED: REMARK    9  A    between atoms: C_35  and  C_36 
DOCKED: REMARK   10  A    between atoms: C_36  and  O_38 
DOCKED: REMARK   11  A    between atoms: FE_43  and  C_44 
DOCKED: REMARK   12  A    between atoms: C_44  and  O_45 
DOCKED: USER                              x       y       z     vdW  Elec       q    Type
DOCKED: USER                           _______ _______ _______ _____ _____    ______ ____
DOCKED: ROOT
DOCKED: ATOM      1  C   UNL d   1      42.711  28.491  17.511 -0.13 +0.02    +0.064 A 
DOCKED: ATOM      2  C   UNL d   1      40.686  32.678  16.518 -0.48 +0.01    +0.064 C 
DOCKED: ATOM      3  C   UNL d   1      37.694  30.548  13.462 -0.36 +0.01    +0.064 A 
DOCKED: ATOM      4  C   UNL d   1      39.487  26.213  14.747 -0.41 +0.01    +0.064 A 
DOCKED: ATOM      5  C   UNL d   1      42.402  29.796  17.437 -0.26 +0.02    +0.066 A 
DOCKED: ATOM      6  C   UNL d   1      43.025  30.760  18.254 -0.36 -0.01    -0.021 A 
DOCKED: ATOM      7  C   UNL d   1      42.418  31.969  17.978 -0.45 -0.01    -0.025 A 
DOCKED: ATOM      8  C   UNL d   1      41.462  31.695  16.994 -0.40 +0.01    +0.066 A 
DOCKED: ATOM      9  C   UNL d   1      42.714  33.338  18.610 -0.41 +0.01    +0.051 C 
DOCKED: ATOM     10  C   UNL d   1      39.696  32.496  15.487 -0.39 +0.01    +0.066 A 
DOCKED: ATOM     11  C   UNL d   1      38.949  33.509  14.847 -0.43 -0.00    -0.021 A 
DOCKED: ATOM     12  C   UNL d   1      38.087  32.861  13.958 -0.40 +0.00    +0.000 A 
DOCKED: ATOM     13  C   UNL d   1      38.380  31.505  14.111 -0.37 +0.01    +0.070 A 
DOCKED: ATOM     14  C   UNL d   1      39.131  34.996  15.019 -0.55 +0.01    +0.052 C 
DOCKED: ATOM     15  C   UNL d   1      37.827  29.107  13.541 -0.38 +0.01    +0.066 A 
DOCKED: ATOM     16  C   UNL d   1      36.989  28.169  12.954 -0.48 -0.00    -0.021 A 
DOCKED: ATOM     17  C   UNL d   1      37.501  26.917  13.324 -0.46 +0.00    +0.000 A 
DOCKED: ATOM     18  C   UNL d   1      38.625  27.191  14.096 -0.37 +0.01    +0.070 A 
DOCKED: ATOM     19  C   UNL d   1      35.782  28.486  12.099 -0.66 +0.01    +0.052 C 
DOCKED: ATOM     20  C   UNL d   1      40.533  26.456  15.573 -0.38 +0.02    +0.066 A 
DOCKED: ATOM     21  C   UNL d   1      41.264  25.431  16.168 -0.38 -0.01    -0.025 A 
DOCKED: ATOM     22  C   UNL d   1      42.219  26.057  16.948 -0.36 -0.01    -0.021 A 
DOCKED: ATOM     23  C   UNL d   1      42.013  27.445  16.798 -0.31 +0.02    +0.066 A 
DOCKED: ATOM     24  C   UNL d   1      41.052  23.927  16.017 -0.54 +0.01    +0.051 C 
DOCKED: ATOM     25  N   UNL d   1      41.435  30.358  16.635 -0.15 -0.08    -0.248 N 
DOCKED: ATOM     26  N   UNL d   1      39.391  31.291  14.995 -0.21 -0.05    -0.248 N 
DOCKED: ATOM     27  N   UNL d   1      38.771  28.505  14.230 -0.19 -0.06    -0.248 N 
DOCKED: ATOM     28  N   UNL d   1      40.992  27.691  15.969 -0.22 -0.09    -0.248 N 
DOCKED: ATOM     29 FE   UNL d   1      40.025  29.373  15.362 -0.04 +0.00    +0.000 Fe
DOCKED: ENDROOT
DOCKED: BRANCH   6  30
DOCKED: ATOM     30  C   UNL d   1      44.097  30.502  19.308 -0.30 +0.02    +0.052 C 
DOCKED: BRANCH  30  31
DOCKED: ATOM     31  C   UNL d   1      44.978  29.321  18.901 -0.23 +0.06    +0.115 C 
DOCKED: BRANCH  31  32
DOCKED: ATOM     32  C   UNL d   1      45.458  28.521  20.093 -0.19 +0.13    +0.139 C 
DOCKED: ATOM     33  O   UNL d   1      46.264  29.019  20.865 -0.41 -0.90    -0.650 OA
DOCKED: BRANCH  32  34
DOCKED: ATOM     34  O   UNL d   1      44.986  27.282  20.362 +0.04 -0.68    -0.776 OA
DOCKED: ATOM     35  H   UNL d   1      45.360  26.467  19.999 +0.06 +0.12    +0.167 HD
DOCKED: ENDBRANCH  32  34
DOCKED: ENDBRANCH  31  32
DOCKED: ENDBRANCH  30  31
DOCKED: ENDBRANCH   6  30
DOCKED: BRANCH  29  36
DOCKED: ATOM     36  C   UNL d   1      38.758  29.275  17.029 -0.33 +0.05    +0.190 C 
DOCKED: BRANCH  36  37
DOCKED: ATOM     37  O   UNL d   1      37.724  28.527  17.600 -0.24 -0.08    -0.399 OA
DOCKED: ATOM     38  H   UNL d   1      37.448  27.885  16.887 +0.13 +0.04    +0.209 HD
DOCKED: ENDBRANCH  36  37
DOCKED: ENDBRANCH  29  36
DOCKED: BRANCH  22  39
DOCKED: ATOM     39  C   UNL d   1      43.229  25.355  17.836 -0.35 +0.02    +0.052 C 
DOCKED: BRANCH  39  40
DOCKED: ATOM     40  C   UNL d   1      44.115  24.410  17.009 -0.16 +0.06    +0.115 C 
DOCKED: BRANCH  40  41
DOCKED: ATOM     41  C   UNL d   1      45.534  24.276  17.521 -0.23 +0.11    +0.139 C 
DOCKED: ATOM     42  O   UNL d   1      46.307  23.519  16.951 -0.37 -1.02    -0.650 OA
DOCKED: BRANCH  41  43
DOCKED: ATOM     43  O   UNL d   1      45.997  25.035  18.538 +0.09 -0.49    -0.776 OA
DOCKED: ATOM     44  H   UNL d   1      45.597  25.882  18.778 +0.06 +0.09    +0.167 HD
DOCKED: ENDBRANCH  41  43
DOCKED: ENDBRANCH  40  41
DOCKED: ENDBRANCH  39  40
DOCKED: ENDBRANCH  22  39
DOCKED: BRANCH  12  45
DOCKED: ATOM     45  C   UNL d   1      37.040  33.364  12.973 -0.52 +0.00    +0.004 C 
DOCKED: ATOM     46  C   UNL d   1      35.718  33.450  13.084 -0.58 +0.00    +0.012 C 
DOCKED: ENDBRANCH  12  45
DOCKED: BRANCH  17  47
DOCKED: ATOM     47  C   UNL d   1      36.975  25.549  13.037 -0.64 +0.00    +0.004 C 
DOCKED: ATOM     48  C   UNL d   1      35.806  25.097  13.498 -0.71 +0.00    +0.012 C 
DOCKED: ENDBRANCH  17  47
DOCKED: TORSDOF 12
DOCKED: TER
DOCKED: ENDMDL
________________________________________________________________________________


	BEGINNING GENETIC ALGORITHM DOCKING 22 of 100
Run: 22 Seed: 1775832499 2118212284 [ Run 22 of 100 GA/GALS ]
Beginning LAMARCKIAN GENETIC ALGORITHM (LGA), with a maximum of 25000000 energy evaluations.

Final-Value: -11.581


	FINAL GENETIC ALGORITHM DOCKED STATE
	_______________________________________________


Detailed state:  trans 25.072 45.758 -2.094 quatxyzw 0.408123 0.908450 0.007262 0.090012 center 8.781 34.984 -0.736 ntor 12 -162.9124 122.0584 55.9179 13.3095 89.5638 131.3072 26.9408 -102.3930 -172.4520 8.8652 -176.5803 177.3233
State:	 25.072  45.758  -2.094   0.410  0.912  0.007 169.671   -162.91  122.06   55.92   13.31   89.56  131.31   26.94 -102.39 -172.45    8.87 -176.58  177.32

DOCKED: MODEL       22
DOCKED: USER    Run = 22
DOCKED: USER    DPF = D:/Protein_go_brrr/autodock/final/2DN3/heme_Co/dock.dpf
DOCKED: USER  
DOCKED: USER    Estimated Free Energy of Binding    =   -5.95 kcal/mol  [=(1)+(2)+(3)-(4)]
DOCKED: USER    Estimated Inhibition Constant, Ki   =   43.34 uM (micromolar)  [Temperature = 298.15 K]
DOCKED: USER    
DOCKED: USER    (1) Final Intermolecular Energy     =   -9.53 kcal/mol
DOCKED: USER        vdW + Hbond + desolv Energy     =   -7.76 kcal/mol
DOCKED: USER        Electrostatic Energy            =   -1.78 kcal/mol
DOCKED: USER    (2) Final Total Internal Energy     =   -2.05 kcal/mol
DOCKED: USER    (3) Torsional Free Energy           =   +3.58 kcal/mol
DOCKED: USER    (4) Unbound System's Energy  [=(2)] =   -2.05 kcal/mol
DOCKED: USER    
DOCKED: USER    
DOCKED: USER    NEWDPF move heme_Co_opt.pdbqt
DOCKED: USER    NEWDPF about 8.781000 34.984000 -0.736000
DOCKED: USER    NEWDPF tran0 25.071840 45.758331 -2.093954
DOCKED: USER    NEWDPF quaternion0 0.408123 0.908450 0.007262 0.090012
DOCKED: USER    NEWDPF axisangle0 0.409786 0.912152 0.007292 169.671364
DOCKED: USER    NEWDPF quat0 0.409786 0.912152 0.007292 169.671364
DOCKED: USER    NEWDPF dihe0 -162.91 122.06 55.92 13.31 89.56 131.31 26.94 -102.39 -172.45 8.87 -176.58 177.32 
DOCKED: USER  keepresnum = 1 
DOCKED: USER  
DOCKED: REMARK  12 active torsions:
DOCKED: REMARK  status: ('A' for Active; 'I' for Inactive)
DOCKED: REMARK    1  A    between atoms: C_6  and  C_10 
DOCKED: REMARK    2  A    between atoms: C_10  and  C_11 
DOCKED: REMARK    3  A    between atoms: C_11  and  C_12 
DOCKED: REMARK    4  A    between atoms: C_12  and  O_14 
DOCKED: REMARK    5  A    between atoms: C_17  and  C_20 
DOCKED: REMARK    6  A    between atoms: C_24  and  C_27 
DOCKED: REMARK    7  A    between atoms: C_31  and  C_34 
DOCKED: REMARK    8  A    between atoms: C_34  and  C_35 
DOCKED: REMARK    9  A    between atoms: C_35  and  C_36 
DOCKED: REMARK   10  A    between atoms: C_36  and  O_38 
DOCKED: REMARK   11  A    between atoms: FE_43  and  C_44 
DOCKED: REMARK   12  A    between atoms: C_44  and  O_45 
DOCKED: USER                              x       y       z     vdW  Elec       q    Type
DOCKED: USER                           _______ _______ _______ _____ _____    ______ ____
DOCKED: ROOT
DOCKED: ATOM      1  C   UNL d   1      26.836  44.585  -1.616 -0.16 +0.02    +0.064 A 
DOCKED: ATOM      2  C   UNL d   1      23.452  44.067  -4.916 -0.21 +0.01    +0.064 C 
DOCKED: ATOM      3  C   UNL d   1      21.059  47.783  -3.100 -0.25 -0.01    +0.064 A 
DOCKED: ATOM      4  C   UNL d   1      24.692  48.572   0.038 -0.09 +0.01    +0.064 A 
DOCKED: ATOM      5  C   UNL d   1      26.069  44.148  -2.628 -0.23 +0.01    +0.066 A 
DOCKED: ATOM      6  C   UNL d   1      26.472  43.093  -3.470 -0.21 -0.00    -0.021 A 
DOCKED: ATOM      7  C   UNL d   1      25.497  42.962  -4.440 -0.23 -0.00    -0.025 A 
DOCKED: ATOM      8  C   UNL d   1      24.534  43.931  -4.139 -0.26 +0.01    +0.066 A 
DOCKED: ATOM      9  C   UNL d   1      25.461  41.969  -5.611 -0.18 +0.01    +0.051 C 
DOCKED: ATOM     10  C   UNL d   1      22.396  45.017  -4.670 -0.22 +0.00    +0.066 A 
DOCKED: ATOM     11  C   UNL d   1      21.170  45.115  -5.365 -0.34 -0.00    -0.021 A 
DOCKED: ATOM     12  C   UNL d   1      20.491  46.204  -4.813 -0.34 -0.00    +0.000 A 
DOCKED: ATOM     13  C   UNL d   1      21.343  46.681  -3.816 -0.27 -0.01    +0.070 A 
DOCKED: ATOM     14  C   UNL d   1      20.662  44.162  -6.417 -0.39 +0.01    +0.052 C 
DOCKED: ATOM     15  C   UNL d   1      21.845  48.442  -2.075 -0.20 -0.00    +0.066 A 
DOCKED: ATOM     16  C   UNL d   1      21.560  49.660  -1.476 -0.17 +0.00    -0.021 A 
DOCKED: ATOM     17  C   UNL d   1      22.606  49.893  -0.572 -0.12 +0.00    +0.000 A 
DOCKED: ATOM     18  C   UNL d   1      23.441  48.786  -0.679 -0.11 +0.01    +0.070 A 
DOCKED: ATOM     19  C   UNL d   1      20.355  50.524  -1.774 -0.24 -0.01    +0.052 C 
DOCKED: ATOM     20  C   UNL d   1      25.563  47.545  -0.113 -0.05 +0.02    +0.066 A 
DOCKED: ATOM     21  C   UNL d   1      26.752  47.468   0.608 -0.13 -0.01    -0.025 A 
DOCKED: ATOM     22  C   UNL d   1      27.377  46.313   0.174 -0.14 -0.01    -0.021 A 
DOCKED: ATOM     23  C   UNL d   1      26.538  45.746  -0.808 -0.10 +0.02    +0.066 A 
DOCKED: ATOM     24  C   UNL d   1      27.277  48.455   1.647 -0.12 +0.02    +0.051 C 
DOCKED: ATOM     25  N   UNL d   1      24.859  44.676  -3.018 -0.22 -0.05    -0.248 N 
DOCKED: ATOM     26  N   UNL d   1      22.469  45.928  -3.694 -0.20 -0.00    -0.248 N 
DOCKED: ATOM     27  N   UNL d   1      22.973  47.957  -1.606 -0.09 -0.02    -0.248 N 
DOCKED: ATOM     28  N   UNL d   1      25.439  46.490  -0.986 +0.20 -0.07    -0.248 N 
DOCKED: ATOM     29 FE   UNL d   1      23.862  46.414  -2.267 -0.06 +0.00    +0.000 Fe
DOCKED: ENDROOT
DOCKED: BRANCH   6  30
DOCKED: ATOM     30  C   UNL d   1      27.777  42.309  -3.384 -0.13 +0.01    +0.052 C 
DOCKED: BRANCH  30  31
DOCKED: ATOM     31  C   UNL d   1      28.844  42.943  -4.278 -0.03 +0.02    +0.115 C 
DOCKED: BRANCH  31  32
DOCKED: ATOM     32  C   UNL d   1      28.379  44.242  -4.899 -0.02 +0.02    +0.139 C 
DOCKED: ATOM     33  O   UNL d   1      28.027  44.256  -6.069 +0.01 -0.08    -0.650 OA
DOCKED: BRANCH  32  34
DOCKED: ATOM     34  O   UNL d   1      28.293  45.389  -4.186 +0.03 -0.13    -0.776 OA
DOCKED: ATOM     35  H   UNL d   1      27.838  46.186  -4.490 +0.01 +0.02    +0.167 HD
DOCKED: ENDBRANCH  32  34
DOCKED: ENDBRANCH  31  32
DOCKED: ENDBRANCH  30  31
DOCKED: ENDBRANCH   6  30
DOCKED: BRANCH  29  36
DOCKED: ATOM     36  C   UNL d   1      24.938  47.510  -3.694 -0.05 +0.02    +0.190 C 
DOCKED: BRANCH  36  37
DOCKED: ATOM     37  O   UNL d   1      26.099  47.486  -4.474 -0.00 -0.04    -0.399 OA
DOCKED: ATOM     38  H   UNL d   1      26.470  46.567  -4.353 +0.02 +0.03    +0.209 HD
DOCKED: ENDBRANCH  36  37
DOCKED: ENDBRANCH  29  36
DOCKED: BRANCH  22  39
DOCKED: ATOM     39  C   UNL d   1      28.738  45.823   0.633 -0.11 +0.03    +0.052 C 
DOCKED: BRANCH  39  40
DOCKED: ATOM     40  C   UNL d   1      29.861  46.556  -0.119 -0.11 +0.05    +0.115 C 
DOCKED: BRANCH  40  41
DOCKED: ATOM     41  C   UNL d   1      31.256  46.075   0.219 -0.11 +0.14    +0.139 C 
DOCKED: ATOM     42  O   UNL d   1      31.441  44.887   0.447 -0.39 -0.84    -0.650 OA
DOCKED: BRANCH  41  43
DOCKED: ATOM     43  O   UNL d   1      32.321  46.907   0.191 -0.24 -1.11    -0.776 OA
DOCKED: ATOM     44  H   UNL d   1      32.393  47.677   0.770 -0.50 +0.13    +0.167 HD
DOCKED: ENDBRANCH  41  43
DOCKED: ENDBRANCH  40  41
DOCKED: ENDBRANCH  39  40
DOCKED: ENDBRANCH  22  39
DOCKED: BRANCH  12  45
DOCKED: ATOM     45  C   UNL d   1      19.134  46.834  -5.097 -0.32 -0.00    +0.004 C 
DOCKED: ATOM     46  C   UNL d   1      18.159  46.457  -5.921 -0.37 -0.00    +0.012 C 
DOCKED: ENDBRANCH  12  45
DOCKED: BRANCH  17  47
DOCKED: ATOM     47  C   UNL d   1      22.865  51.075   0.304 -0.11 -0.00    +0.004 C 
DOCKED: ATOM     48  C   UNL d   1      22.096  51.403   1.345 -0.21 -0.00    +0.012 C 
DOCKED: ENDBRANCH  17  47
DOCKED: TORSDOF 12
DOCKED: TER
DOCKED: ENDMDL
________________________________________________________________________________


	BEGINNING GENETIC ALGORITHM DOCKING 23 of 100
Run: 23 Seed: 545699892 1495423458 [ Run 23 of 100 GA/GALS ]
Beginning LAMARCKIAN GENETIC ALGORITHM (LGA), with a maximum of 25000000 energy evaluations.

Final-Value: -14.618


	FINAL GENETIC ALGORITHM DOCKED STATE
	_______________________________________________


Detailed state:  trans 46.251 28.370 18.353 quatxyzw 0.231399 -0.359551 -0.901994 -0.059864 center 8.781 34.984 -0.736 ntor 12 39.8237 120.3276 -132.6554 38.8541 70.5551 101.6857 36.4305 116.9650 172.4892 136.7632 -167.8939 174.6437
State:	 46.251  28.370  18.353   0.232 -0.360 -0.904 -173.136     39.82  120.33 -132.66   38.85   70.56  101.69   36.43  116.96  172.49  136.76 -167.89  174.64

DOCKED: MODEL       23
DOCKED: USER    Run = 23
DOCKED: USER    DPF = D:/Protein_go_brrr/autodock/final/2DN3/heme_Co/dock.dpf
DOCKED: USER  
DOCKED: USER    Estimated Free Energy of Binding    =   -7.15 kcal/mol  [=(1)+(2)+(3)-(4)]
DOCKED: USER    Estimated Inhibition Constant, Ki   =    5.72 uM (micromolar)  [Temperature = 298.15 K]
DOCKED: USER    
DOCKED: USER    (1) Final Intermolecular Energy     =  -10.73 kcal/mol
DOCKED: USER        vdW + Hbond + desolv Energy     =   -8.43 kcal/mol
DOCKED: USER        Electrostatic Energy            =   -2.30 kcal/mol
DOCKED: USER    (2) Final Total Internal Energy     =   -3.89 kcal/mol
DOCKED: USER    (3) Torsional Free Energy           =   +3.58 kcal/mol
DOCKED: USER    (4) Unbound System's Energy  [=(2)] =   -3.89 kcal/mol
DOCKED: USER    
DOCKED: USER    
DOCKED: USER    NEWDPF move heme_Co_opt.pdbqt
DOCKED: USER    NEWDPF about 8.781000 34.984000 -0.736000
DOCKED: USER    NEWDPF tran0 46.251267 28.369880 18.352856
DOCKED: USER    NEWDPF quaternion0 0.231399 -0.359551 -0.901994 -0.059864
DOCKED: USER    NEWDPF axisangle0 0.231815 -0.360197 -0.903615 -173.135930
DOCKED: USER    NEWDPF quat0 0.231815 -0.360197 -0.903615 -173.135930
DOCKED: USER    NEWDPF dihe0 39.82 120.33 -132.66 38.85 70.56 101.69 36.43 116.96 172.49 136.76 -167.89 174.64 
DOCKED: USER  keepresnum = 1 
DOCKED: USER  
DOCKED: REMARK  12 active torsions:
DOCKED: REMARK  status: ('A' for Active; 'I' for Inactive)
DOCKED: REMARK    1  A    between atoms: C_6  and  C_10 
DOCKED: REMARK    2  A    between atoms: C_10  and  C_11 
DOCKED: REMARK    3  A    between atoms: C_11  and  C_12 
DOCKED: REMARK    4  A    between atoms: C_12  and  O_14 
DOCKED: REMARK    5  A    between atoms: C_17  and  C_20 
DOCKED: REMARK    6  A    between atoms: C_24  and  C_27 
DOCKED: REMARK    7  A    between atoms: C_31  and  C_34 
DOCKED: REMARK    8  A    between atoms: C_34  and  C_35 
DOCKED: REMARK    9  A    between atoms: C_35  and  C_36 
DOCKED: REMARK   10  A    between atoms: C_36  and  O_38 
DOCKED: REMARK   11  A    between atoms: FE_43  and  C_44 
DOCKED: REMARK   12  A    between atoms: C_44  and  O_45 
DOCKED: USER                              x       y       z     vdW  Elec       q    Type
DOCKED: USER                           _______ _______ _______ _____ _____    ______ ____
DOCKED: ROOT
DOCKED: ATOM      1  C   UNL d   1      48.327  28.007  18.876 -0.09 +0.03    +0.064 A 
DOCKED: ATOM      2  C   UNL d   1      45.648  31.934  18.975 -0.22 +0.02    +0.064 C 
DOCKED: ATOM      3  C   UNL d   1      42.026  29.558  16.957 -0.30 +0.02    +0.064 A 
DOCKED: ATOM      4  C   UNL d   1      44.608  25.442  17.199 -0.20 +0.03    +0.064 A 
DOCKED: ATOM      5  C   UNL d   1      47.874  29.263  19.018 -0.09 +0.03    +0.066 A 
DOCKED: ATOM      6  C   UNL d   1      48.635  30.265  19.650 -0.06 -0.01    -0.021 A 
DOCKED: ATOM      7  C   UNL d   1      47.844  31.397  19.696 -0.08 -0.01    -0.025 A 
DOCKED: ATOM      8  C   UNL d   1      46.641  31.041  19.076 -0.13 +0.03    +0.066 A 
DOCKED: ATOM      9  C   UNL d   1      48.192  32.766  20.298 -0.06 +0.02    +0.051 C 
DOCKED: ATOM     10  C   UNL d   1      44.386  31.667  18.331 -0.24 +0.02    +0.066 A 
DOCKED: ATOM     11  C   UNL d   1      43.359  32.600  18.067 -0.36 -0.00    -0.021 A 
DOCKED: ATOM     12  C   UNL d   1      42.317  31.881  17.475 -0.43 +0.00    +0.000 A 
DOCKED: ATOM     13  C   UNL d   1      42.788  30.570  17.409 -0.33 +0.02    +0.070 A 
DOCKED: ATOM     14  C   UNL d   1      43.429  34.089  18.287 -0.37 +0.01    +0.052 C 
DOCKED: ATOM     15  C   UNL d   1      42.332  28.144  16.869 -0.30 +0.02    +0.066 A 
DOCKED: ATOM     16  C   UNL d   1      41.448  27.130  16.527 -0.38 -0.01    -0.021 A 
DOCKED: ATOM     17  C   UNL d   1      42.187  25.941  16.598 -0.32 +0.00    +0.000 A 
DOCKED: ATOM     18  C   UNL d   1      43.473  26.326  16.962 -0.23 +0.03    +0.070 A 
DOCKED: ATOM     19  C   UNL d   1      39.993  27.322  16.163 -0.40 +0.02    +0.052 C 
DOCKED: ATOM     20  C   UNL d   1      45.843  25.786  17.637 -0.22 +0.04    +0.066 A 
DOCKED: ATOM     21  C   UNL d   1      46.841  24.840  17.861 -0.21 -0.02    -0.025 A 
DOCKED: ATOM     22  C   UNL d   1      47.934  25.554  18.318 -0.14 -0.01    -0.021 A 
DOCKED: ATOM     23  C   UNL d   1      47.542  26.908  18.361 -0.12 +0.03    +0.066 A 
DOCKED: ATOM     24  C   UNL d   1      46.752  23.328  17.670 -0.10 +0.07    +0.051 C 
DOCKED: ATOM     25  N   UNL d   1      46.634  29.727  18.641 -0.08 -0.11    -0.248 N 
DOCKED: ATOM     26  N   UNL d   1      44.060  30.452  17.875 -0.18 -0.08    -0.248 N 
DOCKED: ATOM     27  N   UNL d   1      43.515  27.642  17.144 -0.21 -0.09    -0.248 N 
DOCKED: ATOM     28  N   UNL d   1      46.276  27.053  17.951 -0.09 -0.13    -0.248 N 
DOCKED: ATOM     29 FE   UNL d   1      44.984  28.620  17.848 -0.06 +0.00    +0.000 Fe
DOCKED: ENDROOT
DOCKED: BRANCH   6  30
DOCKED: ATOM     30  C   UNL d   1      50.027  30.107  20.251 -0.02 +0.02    +0.052 C 
DOCKED: BRANCH  30  31
DOCKED: ATOM     31  C   UNL d   1      49.939  29.548  21.671 -0.02 +0.05    +0.115 C 
DOCKED: BRANCH  31  32
DOCKED: ATOM     32  C   UNL d   1      48.517  29.513  22.190 -0.06 +0.14    +0.139 C 
DOCKED: ATOM     33  O   UNL d   1      48.091  30.456  22.840 -0.13 -0.75    -0.650 OA
DOCKED: BRANCH  32  34
DOCKED: ATOM     34  O   UNL d   1      47.679  28.486  21.917 -0.42 -1.21    -0.776 OA
DOCKED: ATOM     35  H   UNL d   1      47.955  27.562  21.846 +0.01 +0.18    +0.167 HD
DOCKED: ENDBRANCH  32  34
DOCKED: ENDBRANCH  31  32
DOCKED: ENDBRANCH  30  31
DOCKED: ENDBRANCH   6  30
DOCKED: BRANCH  29  36
DOCKED: ATOM     36  C   UNL d   1      44.394  28.294  19.833 +0.55 +0.14    +0.190 C 
DOCKED: BRANCH  36  37
DOCKED: ATOM     37  O   UNL d   1      44.851  27.824  21.068 -0.20 -0.56    -0.399 OA
DOCKED: ATOM     38  H   UNL d   1      45.828  27.669  20.938 +0.05 +0.27    +0.209 HD
DOCKED: ENDBRANCH  36  37
DOCKED: ENDBRANCH  29  36
DOCKED: BRANCH  22  39
DOCKED: ATOM     39  C   UNL d   1      49.259  24.953  18.750 -0.09 +0.03    +0.052 C 
DOCKED: BRANCH  39  40
DOCKED: ATOM     40  C   UNL d   1      49.191  24.484  20.213 -0.02 +0.06    +0.115 C 
DOCKED: BRANCH  40  41
DOCKED: ATOM     41  C   UNL d   1      48.623  25.510  21.171 -0.01 +0.07    +0.139 C 
DOCKED: ATOM     42  O   UNL d   1      49.379  26.111  21.921 +0.02 -0.32    -0.650 OA
DOCKED: BRANCH  41  43
DOCKED: ATOM     43  O   UNL d   1      47.313  25.843  21.161 +0.07 -0.54    -0.776 OA
DOCKED: ATOM     44  H   UNL d   1      47.010  26.756  21.083 +0.03 +0.15    +0.167 HD
DOCKED: ENDBRANCH  41  43
DOCKED: ENDBRANCH  40  41
DOCKED: ENDBRANCH  39  40
DOCKED: ENDBRANCH  22  39
DOCKED: BRANCH  12  45
DOCKED: ATOM     45  C   UNL d   1      40.946  32.284  16.949 -0.52 +0.00    +0.004 C 
DOCKED: ATOM     46  C   UNL d   1      40.524  33.427  16.415 -0.54 +0.00    +0.012 C 
DOCKED: ENDBRANCH  12  45
DOCKED: BRANCH  17  47
DOCKED: ATOM     47  C   UNL d   1      41.744  24.529  16.397 -0.51 +0.00    +0.004 C 
DOCKED: ATOM     48  C   UNL d   1      41.024  24.124  15.348 -0.60 +0.00    +0.012 C 
DOCKED: ENDBRANCH  17  47
DOCKED: TORSDOF 12
DOCKED: TER
DOCKED: ENDMDL
________________________________________________________________________________


	BEGINNING GENETIC ALGORITHM DOCKING 24 of 100
Run: 24 Seed: 2142512817 1926931709 [ Run 24 of 100 GA/GALS ]
Beginning LAMARCKIAN GENETIC ALGORITHM (LGA), with a maximum of 25000000 energy evaluations.

Final-Value: -13.941


	FINAL GENETIC ALGORITHM DOCKED STATE
	_______________________________________________


Detailed state:  trans 46.281 28.650 18.395 quatxyzw 0.221896 -0.351490 -0.908445 -0.044102 center 8.781 34.984 -0.736 ntor 12 -1.9635 129.9426 153.6767 118.4172 78.5107 103.0313 25.7348 -21.2153 179.5508 179.7919 -177.2756 168.8840
State:	 46.281  28.650  18.395   0.222 -0.352 -0.909 -174.945     -1.96  129.94  153.68  118.42   78.51  103.03   25.73  -21.22  179.55  179.79 -177.28  168.88

DOCKED: MODEL       24
DOCKED: USER    Run = 24
DOCKED: USER    DPF = D:/Protein_go_brrr/autodock/final/2DN3/heme_Co/dock.dpf
DOCKED: USER  
DOCKED: USER    Estimated Free Energy of Binding    =   -7.13 kcal/mol  [=(1)+(2)+(3)-(4)]
DOCKED: USER    Estimated Inhibition Constant, Ki   =    5.99 uM (micromolar)  [Temperature = 298.15 K]
DOCKED: USER    
DOCKED: USER    (1) Final Intermolecular Energy     =  -10.70 kcal/mol
DOCKED: USER        vdW + Hbond + desolv Energy     =   -8.45 kcal/mol
DOCKED: USER        Electrostatic Energy            =   -2.26 kcal/mol
DOCKED: USER    (2) Final Total Internal Energy     =   -3.24 kcal/mol
DOCKED: USER    (3) Torsional Free Energy           =   +3.58 kcal/mol
DOCKED: USER    (4) Unbound System's Energy  [=(2)] =   -3.24 kcal/mol
DOCKED: USER    
DOCKED: USER    
DOCKED: USER    NEWDPF move heme_Co_opt.pdbqt
DOCKED: USER    NEWDPF about 8.781000 34.984000 -0.736000
DOCKED: USER    NEWDPF tran0 46.280600 28.650156 18.394967
DOCKED: USER    NEWDPF quaternion0 0.221896 -0.351490 -0.908445 -0.044102
DOCKED: USER    NEWDPF axisangle0 0.222112 -0.351832 -0.909330 -174.944624
DOCKED: USER    NEWDPF quat0 0.222112 -0.351832 -0.909330 -174.944624
DOCKED: USER    NEWDPF dihe0 -1.96 129.94 153.68 118.42 78.51 103.03 25.73 -21.22 179.55 179.79 -177.28 168.88 
DOCKED: USER  keepresnum = 1 
DOCKED: USER  
DOCKED: REMARK  12 active torsions:
DOCKED: REMARK  status: ('A' for Active; 'I' for Inactive)
DOCKED: REMARK    1  A    between atoms: C_6  and  C_10 
DOCKED: REMARK    2  A    between atoms: C_10  and  C_11 
DOCKED: REMARK    3  A    between atoms: C_11  and  C_12 
DOCKED: REMARK    4  A    between atoms: C_12  and  O_14 
DOCKED: REMARK    5  A    between atoms: C_17  and  C_20 
DOCKED: REMARK    6  A    between atoms: C_24  and  C_27 
DOCKED: REMARK    7  A    between atoms: C_31  and  C_34 
DOCKED: REMARK    8  A    between atoms: C_34  and  C_35 
DOCKED: REMARK    9  A    between atoms: C_35  and  C_36 
DOCKED: REMARK   10  A    between atoms: C_36  and  O_38 
DOCKED: REMARK   11  A    between atoms: FE_43  and  C_44 
DOCKED: REMARK   12  A    between atoms: C_44  and  O_45 
DOCKED: USER                              x       y       z     vdW  Elec       q    Type
DOCKED: USER                           _______ _______ _______ _____ _____    ______ ____
DOCKED: ROOT
DOCKED: ATOM      1  C   UNL d   1      48.349  28.207  18.887 -0.08 +0.03    +0.064 A 
DOCKED: ATOM      2  C   UNL d   1      45.799  32.214  19.112 -0.21 +0.02    +0.064 C 
DOCKED: ATOM      3  C   UNL d   1      42.083  30.009  17.072 -0.30 +0.02    +0.064 A 
DOCKED: ATOM      4  C   UNL d   1      44.532  25.808  17.184 -0.21 +0.03    +0.064 A 
DOCKED: ATOM      5  C   UNL d   1      47.937  29.473  19.065 -0.09 +0.03    +0.066 A 
DOCKED: ATOM      6  C   UNL d   1      48.737  30.434  19.715 -0.05 -0.01    -0.021 A 
DOCKED: ATOM      7  C   UNL d   1      47.983  31.589  19.798 -0.08 -0.01    -0.025 A 
DOCKED: ATOM      8  C   UNL d   1      46.764  31.288  19.181 -0.13 +0.03    +0.066 A 
DOCKED: ATOM      9  C   UNL d   1      48.381  32.931  20.430 -0.05 +0.01    +0.051 C 
DOCKED: ATOM     10  C   UNL d   1      44.523  32.005  18.475 -0.24 +0.02    +0.066 A 
DOCKED: ATOM     11  C   UNL d   1      43.525  32.977  18.245 -0.36 -0.00    -0.021 A 
DOCKED: ATOM     12  C   UNL d   1      42.454  32.307  17.646 -0.44 +0.00    +0.000 A 
DOCKED: ATOM     13  C   UNL d   1      42.882  30.983  17.542 -0.34 +0.02    +0.070 A 
DOCKED: ATOM     14  C   UNL d   1      43.645  34.457  18.502 -0.32 +0.00    +0.052 C 
DOCKED: ATOM     15  C   UNL d   1      42.342  28.588  16.946 -0.29 +0.02    +0.066 A 
DOCKED: ATOM     16  C   UNL d   1      41.423  27.613  16.588 -0.28 -0.01    -0.021 A 
DOCKED: ATOM     17  C   UNL d   1      42.124  26.399  16.621 -0.35 +0.00    +0.000 A 
DOCKED: ATOM     18  C   UNL d   1      43.425  26.733  16.981 -0.26 +0.03    +0.070 A 
DOCKED: ATOM     19  C   UNL d   1      39.971  27.860  16.243 -0.41 +0.02    +0.052 C 
DOCKED: ATOM     20  C   UNL d   1      45.782  26.099  17.618 -0.21 +0.04    +0.066 A 
DOCKED: ATOM     21  C   UNL d   1      46.751  25.117  17.809 -0.22 -0.02    -0.025 A 
DOCKED: ATOM     22  C   UNL d   1      47.871  25.783  18.272 -0.15 -0.01    -0.021 A 
DOCKED: ATOM     23  C   UNL d   1      47.523  27.148  18.353 -0.12 +0.03    +0.066 A 
DOCKED: ATOM     24  C   UNL d   1      46.612  23.614  17.581 -0.19 +0.06    +0.051 C 
DOCKED: ATOM     25  N   UNL d   1      46.710  29.986  18.713 -0.08 -0.11    -0.248 N 
DOCKED: ATOM     26  N   UNL d   1      44.154  30.813  17.992 -0.17 -0.08    -0.248 N 
DOCKED: ATOM     27  N   UNL d   1      43.511  28.041  17.196 -0.21 -0.09    -0.248 N 
DOCKED: ATOM     28  N   UNL d   1      46.259  27.344  17.960 -0.07 -0.12    -0.248 N 
DOCKED: ATOM     29 FE   UNL d   1      45.018  28.953  17.909 -0.06 +0.00    +0.000 Fe
DOCKED: ENDROOT
DOCKED: BRANCH   6  30
DOCKED: ATOM     30  C   UNL d   1      50.129  30.216  20.298 -0.02 +0.02    +0.052 C 
DOCKED: BRANCH  30  31
DOCKED: ATOM     31  C   UNL d   1      50.039  29.846  21.778 -0.02 +0.05    +0.115 C 
DOCKED: BRANCH  31  32
DOCKED: ATOM     32  C   UNL d   1      48.614  29.848  22.289 -0.07 +0.13    +0.139 C 
DOCKED: ATOM     33  O   UNL d   1      48.224  30.779  22.977 -0.08 -0.63    -0.650 OA
DOCKED: BRANCH  32  34
DOCKED: ATOM     34  O   UNL d   1      47.735  28.871  21.967 -0.50 -1.22    -0.776 OA
DOCKED: ATOM     35  H   UNL d   1      47.917  28.162  21.334 +0.02 +0.17    +0.167 HD
DOCKED: ENDBRANCH  32  34
DOCKED: ENDBRANCH  31  32
DOCKED: ENDBRANCH  30  31
DOCKED: ENDBRANCH   6  30
DOCKED: BRANCH  29  36
DOCKED: ATOM     36  C   UNL d   1      44.436  28.596  19.891 +0.45 +0.14    +0.190 C 
DOCKED: BRANCH  36  37
DOCKED: ATOM     37  O   UNL d   1      44.895  28.098  21.115 -0.18 -0.61    -0.399 OA
DOCKED: ATOM     38  H   UNL d   1      45.889  28.088  21.031 +0.04 +0.32    +0.209 HD
DOCKED: ENDBRANCH  36  37
DOCKED: ENDBRANCH  29  36
DOCKED: BRANCH  22  39
DOCKED: ATOM     39  C   UNL d   1      49.179  25.129  18.675 -0.10 +0.03    +0.052 C 
DOCKED: BRANCH  39  40
DOCKED: ATOM     40  C   UNL d   1      49.162  24.755  20.167 -0.02 +0.06    +0.115 C 
DOCKED: BRANCH  40  41
DOCKED: ATOM     41  C   UNL d   1      47.937  25.234  20.917 -0.02 +0.08    +0.139 C 
DOCKED: ATOM     42  O   UNL d   1      47.178  24.412  21.409 +0.04 -0.35    -0.650 OA
DOCKED: BRANCH  41  43
DOCKED: ATOM     43  O   UNL d   1      47.705  26.548  21.132 +0.05 -0.58    -0.776 OA
DOCKED: ATOM     44  H   UNL d   1      46.828  26.892  21.347 +0.03 +0.18    +0.167 HD
DOCKED: ENDBRANCH  41  43
DOCKED: ENDBRANCH  40  41
DOCKED: ENDBRANCH  39  40
DOCKED: ENDBRANCH  22  39
DOCKED: BRANCH  12  45
DOCKED: ATOM     45  C   UNL d   1      41.092  32.767  17.145 -0.54 +0.00    +0.004 C 
DOCKED: ATOM     46  C   UNL d   1      40.617  32.878  15.907 -0.50 +0.00    +0.012 C 
DOCKED: ENDBRANCH  12  45
DOCKED: BRANCH  17  47
DOCKED: ATOM     47  C   UNL d   1      41.633  25.007  16.389 -0.49 +0.00    +0.004 C 
DOCKED: ATOM     48  C   UNL d   1      41.023  24.618  15.267 -0.57 +0.00    +0.012 C 
DOCKED: ENDBRANCH  17  47
DOCKED: TORSDOF 12
DOCKED: TER
DOCKED: ENDMDL
________________________________________________________________________________


	BEGINNING GENETIC ALGORITHM DOCKING 25 of 100
Run: 25 Seed: 360792409 447765735 [ Run 25 of 100 GA/GALS ]
Beginning LAMARCKIAN GENETIC ALGORITHM (LGA), with a maximum of 25000000 energy evaluations.

Final-Value: -11.025


	FINAL GENETIC ALGORITHM DOCKED STATE
	_______________________________________________


Detailed state:  trans 42.335 44.661 3.012 quatxyzw 0.756160 -0.568885 -0.051889 0.319218 center 8.781 34.984 -0.736 ntor 12 -73.0486 132.1417 -60.7497 116.2588 135.2886 64.8921 174.4516 139.8808 30.2394 -118.3312 -155.8094 148.8678
State:	 42.335  44.661   3.012   0.798 -0.600 -0.055 142.769    -73.05  132.14  -60.75  116.26  135.29   64.89  174.45  139.88   30.24 -118.33 -155.81  148.87

DOCKED: MODEL       25
DOCKED: USER    Run = 25
DOCKED: USER    DPF = D:/Protein_go_brrr/autodock/final/2DN3/heme_Co/dock.dpf
DOCKED: USER  
DOCKED: USER    Estimated Free Energy of Binding    =   -6.30 kcal/mol  [=(1)+(2)+(3)-(4)]
DOCKED: USER    Estimated Inhibition Constant, Ki   =   24.22 uM (micromolar)  [Temperature = 298.15 K]
DOCKED: USER    
DOCKED: USER    (1) Final Intermolecular Energy     =   -9.88 kcal/mol
DOCKED: USER        vdW + Hbond + desolv Energy     =   -7.59 kcal/mol
DOCKED: USER        Electrostatic Energy            =   -2.29 kcal/mol
DOCKED: USER    (2) Final Total Internal Energy     =   -1.15 kcal/mol
DOCKED: USER    (3) Torsional Free Energy           =   +3.58 kcal/mol
DOCKED: USER    (4) Unbound System's Energy  [=(2)] =   -1.15 kcal/mol
DOCKED: USER    
DOCKED: USER    
DOCKED: USER    NEWDPF move heme_Co_opt.pdbqt
DOCKED: USER    NEWDPF about 8.781000 34.984000 -0.736000
DOCKED: USER    NEWDPF tran0 42.334716 44.661176 3.011880
DOCKED: USER    NEWDPF quaternion0 0.756160 -0.568885 -0.051889 0.319218
DOCKED: USER    NEWDPF axisangle0 0.797905 -0.600292 -0.054754 142.768772
DOCKED: USER    NEWDPF quat0 0.797905 -0.600292 -0.054754 142.768772
DOCKED: USER    NEWDPF dihe0 -73.05 132.14 -60.75 116.26 135.29 64.89 174.45 139.88 30.24 -118.33 -155.81 148.87 
DOCKED: USER  keepresnum = 1 
DOCKED: USER  
DOCKED: REMARK  12 active torsions:
DOCKED: REMARK  status: ('A' for Active; 'I' for Inactive)
DOCKED: REMARK    1  A    between atoms: C_6  and  C_10 
DOCKED: REMARK    2  A    between atoms: C_10  and  C_11 
DOCKED: REMARK    3  A    between atoms: C_11  and  C_12 
DOCKED: REMARK    4  A    between atoms: C_12  and  O_14 
DOCKED: REMARK    5  A    between atoms: C_17  and  C_20 
DOCKED: REMARK    6  A    between atoms: C_24  and  C_27 
DOCKED: REMARK    7  A    between atoms: C_31  and  C_34 
DOCKED: REMARK    8  A    between atoms: C_34  and  C_35 
DOCKED: REMARK    9  A    between atoms: C_35  and  C_36 
DOCKED: REMARK   10  A    between atoms: C_36  and  O_38 
DOCKED: REMARK   11  A    between atoms: FE_43  and  C_44 
DOCKED: REMARK   12  A    between atoms: C_44  and  O_45 
DOCKED: USER                              x       y       z     vdW  Elec       q    Type
DOCKED: USER                           _______ _______ _______ _____ _____    ______ ____
DOCKED: ROOT
DOCKED: ATOM      1  C   UNL d   1      40.975  45.727   4.327 -0.25 +0.01    +0.064 A 
DOCKED: ATOM      2  C   UNL d   1      44.852  47.105   1.945 -0.07 -0.00    +0.064 C 
DOCKED: ATOM      3  C   UNL d   1      45.618  42.611   0.515 -0.07 +0.01    +0.064 A 
DOCKED: ATOM      4  C   UNL d   1      41.450  41.246   2.621 -0.22 +0.01    +0.064 A 
DOCKED: ATOM      5  C   UNL d   1      41.998  46.427   3.811 -0.21 +0.00    +0.066 A 
DOCKED: ATOM      6  C   UNL d   1      42.093  47.826   3.952 -0.20 +0.00    -0.021 A 
DOCKED: ATOM      7  C   UNL d   1      43.208  48.223   3.240 -0.10 +0.00    -0.025 A 
DOCKED: ATOM      8  C   UNL d   1      43.754  47.050   2.709 -0.11 -0.00    +0.066 A 
DOCKED: ATOM      9  C   UNL d   1      43.750  49.649   3.056 -0.11 -0.01    +0.051 C 
DOCKED: ATOM     10  C   UNL d   1      45.500  45.949   1.377 -0.05 -0.00    +0.066 A 
DOCKED: ATOM     11  C   UNL d   1      46.730  45.926   0.685 -0.02 +0.00    -0.021 A 
DOCKED: ATOM     12  C   UNL d   1      46.931  44.603   0.283 -0.03 +0.00    +0.000 A 
DOCKED: ATOM     13  C   UNL d   1      45.818  43.916   0.769 -0.07 +0.00    +0.070 A 
DOCKED: ATOM     14  C   UNL d   1      47.680  47.084   0.515 -0.01 -0.00    +0.052 C 
DOCKED: ATOM     15  C   UNL d   1      44.505  41.761   0.892 -0.07 +0.01    +0.066 A 
DOCKED: ATOM     16  C   UNL d   1      44.288  40.456   0.475 -0.10 -0.00    -0.021 A 
DOCKED: ATOM     17  C   UNL d   1      43.086  40.058   1.077 -0.16 +0.00    +0.000 A 
DOCKED: ATOM     18  C   UNL d   1      42.672  41.151   1.831 -0.11 +0.02    +0.070 A 
DOCKED: ATOM     19  C   UNL d   1      45.194  39.667  -0.445 -0.06 +0.01    +0.052 C 
DOCKED: ATOM     20  C   UNL d   1      40.983  42.326   3.291 -0.22 +0.02    +0.066 A 
DOCKED: ATOM     21  C   UNL d   1      39.775  42.305   3.985 -0.33 -0.01    -0.025 A 
DOCKED: ATOM     22  C   UNL d   1      39.626  43.575   4.512 -0.31 -0.01    -0.021 A 
DOCKED: ATOM     23  C   UNL d   1      40.754  44.317   4.100 -0.22 +0.01    +0.066 A 
DOCKED: ATOM     24  C   UNL d   1      38.801  41.139   4.124 -0.38 +0.01    +0.051 C 
DOCKED: ATOM     25  N   UNL d   1      43.028  45.921   3.051 -0.10 -0.01    -0.248 N 
DOCKED: ATOM     26  N   UNL d   1      44.982  44.720   1.478 -0.06 -0.01    -0.248 N 
DOCKED: ATOM     27  N   UNL d   1      43.525  42.157   1.673 +0.12 -0.05    -0.248 N 
DOCKED: ATOM     28  N   UNL d   1      41.576  43.565   3.359 -0.11 -0.05    -0.248 N 
DOCKED: ATOM     29 FE   UNL d   1      43.288  43.927   2.323 -0.04 +0.00    +0.000 Fe
DOCKED: ENDROOT
DOCKED: BRANCH   6  30
DOCKED: ATOM     30  C   UNL d   1      41.105  48.736   4.673 -0.31 -0.01    +0.052 C 
DOCKED: BRANCH  30  31
DOCKED: ATOM     31  C   UNL d   1      39.808  48.860   3.875 -0.25 +0.03    +0.115 C 
DOCKED: BRANCH  31  32
DOCKED: ATOM     32  C   UNL d   1      39.106  50.180   4.114 -0.18 +0.09    +0.139 C 
DOCKED: ATOM     33  O   UNL d   1      39.756  51.215   4.113 -0.55 -0.52    -0.650 OA
DOCKED: BRANCH  32  34
DOCKED: ATOM     34  O   UNL d   1      37.766  50.260   4.282 -0.03 -0.60    -0.776 OA
DOCKED: ATOM     35  H   UNL d   1      37.123  50.207   3.561 -0.49 +0.05    +0.167 HD
DOCKED: ENDBRANCH  32  34
DOCKED: ENDBRANCH  31  32
DOCKED: ENDBRANCH  30  31
DOCKED: ENDBRANCH   6  30
DOCKED: BRANCH  29  36
DOCKED: ATOM     36  C   UNL d   1      42.177  44.514   0.646 -0.04 +0.03    +0.190 C 
DOCKED: BRANCH  36  37
DOCKED: ATOM     37  O   UNL d   1      40.874  44.593   0.144 -0.01 -0.09    -0.399 OA
DOCKED: ATOM     38  H   UNL d   1      40.286  44.540   0.948 +0.04 +0.06    +0.209 HD
DOCKED: ENDBRANCH  36  37
DOCKED: ENDBRANCH  29  36
DOCKED: BRANCH  22  39
DOCKED: ATOM     39  C   UNL d   1      38.432  44.061   5.312 -0.36 +0.02    +0.052 C 
DOCKED: BRANCH  39  40
DOCKED: ATOM     40  C   UNL d   1      37.608  45.072   4.497 -0.38 +0.07    +0.115 C 
DOCKED: BRANCH  40  41
DOCKED: ATOM     41  C   UNL d   1      37.134  44.555   3.155 -0.27 +0.13    +0.139 C 
DOCKED: ATOM     42  O   UNL d   1      37.899  44.578   2.201 -0.03 -0.52    -0.650 OA
DOCKED: BRANCH  41  43
DOCKED: ATOM     43  O   UNL d   1      35.918  43.987   3.002 +0.01 -1.12    -0.776 OA
DOCKED: ATOM     44  H   UNL d   1      35.621  43.243   3.542 -0.38 +0.12    +0.167 HD
DOCKED: ENDBRANCH  41  43
DOCKED: ENDBRANCH  40  41
DOCKED: ENDBRANCH  39  40
DOCKED: ENDBRANCH  22  39
DOCKED: BRANCH  12  45
DOCKED: ATOM     45  C   UNL d   1      48.049  43.909  -0.483 -0.02 +0.00    +0.004 C 
DOCKED: ATOM     46  C   UNL d   1      48.989  43.064  -0.067 -0.02 +0.00    +0.012 C 
DOCKED: ENDBRANCH  12  45
DOCKED: BRANCH  17  47
DOCKED: ATOM     47  C   UNL d   1      42.327  38.780   0.940 -0.23 +0.00    +0.004 C 
DOCKED: ATOM     48  C   UNL d   1      42.162  37.909   1.938 -0.42 +0.00    +0.012 C 
DOCKED: ENDBRANCH  17  47
DOCKED: TORSDOF 12
DOCKED: TER
DOCKED: ENDMDL
________________________________________________________________________________


	BEGINNING GENETIC ALGORITHM DOCKING 26 of 100
Run: 26 Seed: 1812694665 1095438109 [ Run 26 of 100 GA/GALS ]
Beginning LAMARCKIAN GENETIC ALGORITHM (LGA), with a maximum of 25000000 energy evaluations.

Final-Value: -10.608


	FINAL GENETIC ALGORITHM DOCKED STATE
	_______________________________________________


Detailed state:  trans 18.814 37.038 31.759 quatxyzw 0.145648 -0.513530 -0.522413 0.664949 center 8.781 34.984 -0.736 ntor 12 2.5951 108.0863 -2.5055 6.0532 53.6316 163.1468 -146.9551 150.3693 -177.2082 137.3769 9.7901 34.5141
State:	 18.814  37.038  31.759   0.195 -0.688 -0.699 96.643      2.60  108.09   -2.51    6.05   53.63  163.15 -146.96  150.37 -177.21  137.38    9.79   34.51

DOCKED: MODEL       26
DOCKED: USER    Run = 26
DOCKED: USER    DPF = D:/Protein_go_brrr/autodock/final/2DN3/heme_Co/dock.dpf
DOCKED: USER  
DOCKED: USER    Estimated Free Energy of Binding    =   -5.19 kcal/mol  [=(1)+(2)+(3)-(4)]
DOCKED: USER    Estimated Inhibition Constant, Ki   =  155.61 uM (micromolar)  [Temperature = 298.15 K]
DOCKED: USER    
DOCKED: USER    (1) Final Intermolecular Energy     =   -8.77 kcal/mol
DOCKED: USER        vdW + Hbond + desolv Energy     =   -6.64 kcal/mol
DOCKED: USER        Electrostatic Energy            =   -2.14 kcal/mol
DOCKED: USER    (2) Final Total Internal Energy     =   -1.83 kcal/mol
DOCKED: USER    (3) Torsional Free Energy           =   +3.58 kcal/mol
DOCKED: USER    (4) Unbound System's Energy  [=(2)] =   -1.83 kcal/mol
DOCKED: USER    
DOCKED: USER    
DOCKED: USER    NEWDPF move heme_Co_opt.pdbqt
DOCKED: USER    NEWDPF about 8.781000 34.984000 -0.736000
DOCKED: USER    NEWDPF tran0 18.814348 37.037774 31.759238
DOCKED: USER    NEWDPF quaternion0 0.145648 -0.513530 -0.522413 0.664949
DOCKED: USER    NEWDPF axisangle0 0.195006 -0.687560 -0.699453 96.643125
DOCKED: USER    NEWDPF quat0 0.195006 -0.687560 -0.699453 96.643125
DOCKED: USER    NEWDPF dihe0 2.60 108.09 -2.51 6.05 53.63 163.15 -146.96 150.37 -177.21 137.38 9.79 34.51 
DOCKED: USER  keepresnum = 1 
DOCKED: USER  
DOCKED: REMARK  12 active torsions:
DOCKED: REMARK  status: ('A' for Active; 'I' for Inactive)
DOCKED: REMARK    1  A    between atoms: C_6  and  C_10 
DOCKED: REMARK    2  A    between atoms: C_10  and  C_11 
DOCKED: REMARK    3  A    between atoms: C_11  and  C_12 
DOCKED: REMARK    4  A    between atoms: C_12  and  O_14 
DOCKED: REMARK    5  A    between atoms: C_17  and  C_20 
DOCKED: REMARK    6  A    between atoms: C_24  and  C_27 
DOCKED: REMARK    7  A    between atoms: C_31  and  C_34 
DOCKED: REMARK    8  A    between atoms: C_34  and  C_35 
DOCKED: REMARK    9  A    between atoms: C_35  and  C_36 
DOCKED: REMARK   10  A    between atoms: C_36  and  O_38 
DOCKED: REMARK   11  A    between atoms: FE_43  and  C_44 
DOCKED: REMARK   12  A    between atoms: C_44  and  O_45 
DOCKED: USER                              x       y       z     vdW  Elec       q    Type
DOCKED: USER                           _______ _______ _______ _____ _____    ______ ____
DOCKED: ROOT
DOCKED: ATOM      1  C   UNL d   1      18.084  35.568  33.181 -0.10 +0.01    +0.064 A 
DOCKED: ATOM      2  C   UNL d   1      22.220  37.886  32.824 -0.09 +0.01    +0.064 C 
DOCKED: ATOM      3  C   UNL d   1      20.806  39.852  28.705 -0.24 -0.01    +0.064 A 
DOCKED: ATOM      4  C   UNL d   1      16.429  37.799  29.243 -0.28 -0.00    +0.064 A 
DOCKED: ATOM      5  C   UNL d   1      19.332  36.028  33.367 -0.08 +0.02    +0.066 A 
DOCKED: ATOM      6  C   UNL d   1      20.074  35.728  34.526 -0.08 -0.01    -0.021 A 
DOCKED: ATOM      7  C   UNL d   1      21.264  36.422  34.428 -0.08 -0.01    -0.025 A 
DOCKED: ATOM      8  C   UNL d   1      21.204  37.102  33.207 -0.04 +0.02    +0.066 A 
DOCKED: ATOM      9  C   UNL d   1      22.422  36.453  35.437 -0.04 +0.01    +0.051 C 
DOCKED: ATOM     10  C   UNL d   1      22.259  38.604  31.574 -0.10 +0.00    +0.066 A 
DOCKED: ATOM     11  C   UNL d   1      23.351  39.329  31.051 -0.11 +0.00    -0.021 A 
DOCKED: ATOM     12  C   UNL d   1      22.913  39.889  29.848 -0.20 -0.00    +0.000 A 
DOCKED: ATOM     13  C   UNL d   1      21.593  39.454  29.720 -0.17 -0.00    +0.070 A 
DOCKED: ATOM     14  C   UNL d   1      24.741  39.391  31.632 -0.13 -0.01    +0.052 C 
DOCKED: ATOM     15  C   UNL d   1      19.413  39.544  28.447 -0.23 +0.00    +0.066 A 
DOCKED: ATOM     16  C   UNL d   1      18.616  40.104  27.459 -0.27 +0.00    -0.021 A 
DOCKED: ATOM     17  C   UNL d   1      17.351  39.517  27.611 -0.26 -0.00    +0.000 A 
DOCKED: ATOM     18  C   UNL d   1      17.482  38.629  28.674 -0.19 +0.01    +0.070 A 
DOCKED: ATOM     19  C   UNL d   1      19.066  41.136  26.448 -0.37 -0.01    +0.052 C 
DOCKED: ATOM     20  C   UNL d   1      16.510  36.993  30.329 -0.23 +0.00    +0.066 A 
DOCKED: ATOM     21  C   UNL d   1      15.417  36.271  30.802 -0.18 +0.00    -0.025 A 
DOCKED: ATOM     22  C   UNL d   1      15.872  35.595  31.920 -0.12 -0.00    -0.021 A 
DOCKED: ATOM     23  C   UNL d   1      17.227  35.951  32.081 -0.13 +0.01    +0.066 A 
DOCKED: ATOM     24  C   UNL d   1      14.002  36.241  30.230 -0.18 -0.01    +0.051 C 
DOCKED: ATOM     25  N   UNL d   1      20.021  36.872  32.526 -0.01 -0.07    -0.248 N 
DOCKED: ATOM     26  N   UNL d   1      21.218  38.632  30.735 -0.10 -0.02    -0.248 N 
DOCKED: ATOM     27  N   UNL d   1      18.715  38.694  29.166 -0.12 -0.04    -0.248 N 
DOCKED: ATOM     28  N   UNL d   1      17.617  36.799  31.122 -0.12 -0.04    -0.248 N 
DOCKED: ATOM     29 FE   UNL d   1      19.326  37.835  30.746 -0.05 +0.00    +0.000 Fe
DOCKED: ENDROOT
DOCKED: BRANCH   6  30
DOCKED: ATOM     30  C   UNL d   1      19.614  34.877  35.705 -0.04 +0.01    +0.052 C 
DOCKED: BRANCH  30  31
DOCKED: ATOM     31  C   UNL d   1      20.066  33.428  35.530 -0.05 +0.04    +0.115 C 
DOCKED: BRANCH  31  32
DOCKED: ATOM     32  C   UNL d   1      20.861  33.220  34.259 -0.05 +0.14    +0.139 C 
DOCKED: ATOM     33  O   UNL d   1      22.057  33.470  34.251 -0.44 -0.73    -0.650 OA
DOCKED: BRANCH  32  34
DOCKED: ATOM     34  O   UNL d   1      20.299  32.718  33.135 -0.14 -1.41    -0.776 OA
DOCKED: ATOM     35  H   UNL d   1      19.375  32.440  33.067 +0.01 +0.17    +0.167 HD
DOCKED: ENDBRANCH  32  34
DOCKED: ENDBRANCH  31  32
DOCKED: ENDBRANCH  30  31
DOCKED: ENDBRANCH   6  30
DOCKED: BRANCH  29  36
DOCKED: ATOM     36  C   UNL d   1      18.676  39.399  31.981 -0.04 +0.01    +0.190 C 
DOCKED: BRANCH  36  37
DOCKED: ATOM     37  O   UNL d   1      18.726  39.876  33.295 -0.00 -0.01    -0.399 OA
DOCKED: ATOM     38  H   UNL d   1      19.202  39.164  33.808 +0.01 +0.01    +0.209 HD
DOCKED: ENDBRANCH  36  37
DOCKED: ENDBRANCH  29  36
DOCKED: BRANCH  22  39
DOCKED: ATOM     39  C   UNL d   1      15.027  34.710  32.817 -0.06 +0.00    +0.052 C 
DOCKED: BRANCH  39  40
DOCKED: ATOM     40  C   UNL d   1      15.778  33.413  33.162 -0.05 +0.01    +0.115 C 
DOCKED: BRANCH  40  41
DOCKED: ATOM     41  C   UNL d   1      16.395  32.713  31.970 -0.13 +0.02    +0.139 C 
DOCKED: ATOM     42  O   UNL d   1      15.668  32.150  31.164 -0.00 -0.05    -0.650 OA
DOCKED: BRANCH  41  43
DOCKED: ATOM     43  O   UNL d   1      17.723  32.766  31.724 +0.00 -0.31    -0.776 OA
DOCKED: ATOM     44  H   UNL d   1      18.345  33.203  32.320 +0.03 +0.09    +0.167 HD
DOCKED: ENDBRANCH  41  43
DOCKED: ENDBRANCH  40  41
DOCKED: ENDBRANCH  39  40
DOCKED: ENDBRANCH  22  39
DOCKED: BRANCH  12  45
DOCKED: ATOM     45  C   UNL d   1      23.590  40.763  28.801 -0.32 -0.00    +0.004 C 
DOCKED: ATOM     46  C   UNL d   1      24.814  41.284  28.769 -0.38 -0.00    +0.012 C 
DOCKED: ENDBRANCH  12  45
DOCKED: BRANCH  17  47
DOCKED: ATOM     47  C   UNL d   1      16.081  39.781  26.871 -0.32 -0.00    +0.004 C 
DOCKED: ATOM     48  C   UNL d   1      16.039  40.146  25.587 -0.40 -0.00    +0.012 C 
DOCKED: ENDBRANCH  17  47
DOCKED: TORSDOF 12
DOCKED: TER
DOCKED: ENDMDL
________________________________________________________________________________


	BEGINNING GENETIC ALGORITHM DOCKING 27 of 100
Run: 27 Seed: 1424976358 226037133 [ Run 27 of 100 GA/GALS ]
Beginning LAMARCKIAN GENETIC ALGORITHM (LGA), with a maximum of 25000000 energy evaluations.

Final-Value: -10.652


	FINAL GENETIC ALGORITHM DOCKED STATE
	_______________________________________________


Detailed state:  trans 13.063 40.568 25.244 quatxyzw 0.253592 -0.652198 -0.637712 0.321950 center 8.781 34.984 -0.736 ntor 12 -77.7699 103.7782 -144.5990 -107.6294 -24.4599 138.0991 -14.4295 -169.7667 62.7918 70.4298 34.6381 124.6732
State:	 13.063  40.568  25.244   0.268 -0.689 -0.674 142.438    -77.77  103.78 -144.60 -107.63  -24.46  138.10  -14.43 -169.77   62.79   70.43   34.64  124.67

DOCKED: MODEL       27
DOCKED: USER    Run = 27
DOCKED: USER    DPF = D:/Protein_go_brrr/autodock/final/2DN3/heme_Co/dock.dpf
DOCKED: USER  
DOCKED: USER    Estimated Free Energy of Binding    =   -4.84 kcal/mol  [=(1)+(2)+(3)-(4)]
DOCKED: USER    Estimated Inhibition Constant, Ki   =  282.15 uM (micromolar)  [Temperature = 298.15 K]
DOCKED: USER    
DOCKED: USER    (1) Final Intermolecular Energy     =   -8.42 kcal/mol
DOCKED: USER        vdW + Hbond + desolv Energy     =   -8.47 kcal/mol
DOCKED: USER        Electrostatic Energy            =   +0.05 kcal/mol
DOCKED: USER    (2) Final Total Internal Energy     =   -2.23 kcal/mol
DOCKED: USER    (3) Torsional Free Energy           =   +3.58 kcal/mol
DOCKED: USER    (4) Unbound System's Energy  [=(2)] =   -2.23 kcal/mol
DOCKED: USER    
DOCKED: USER    
DOCKED: USER    NEWDPF move heme_Co_opt.pdbqt
DOCKED: USER    NEWDPF about 8.781000 34.984000 -0.736000
DOCKED: USER    NEWDPF tran0 13.063291 40.567990 25.244140
DOCKED: USER    NEWDPF quaternion0 0.253592 -0.652198 -0.637712 0.321950
DOCKED: USER    NEWDPF axisangle0 0.267853 -0.688876 -0.673576 142.438162
DOCKED: USER    NEWDPF quat0 0.267853 -0.688876 -0.673576 142.438162
DOCKED: USER    NEWDPF dihe0 -77.77 103.78 -144.60 -107.63 -24.46 138.10 -14.43 -169.77 62.79 70.43 34.64 124.67 
DOCKED: USER  keepresnum = 1 
DOCKED: USER  
DOCKED: REMARK  12 active torsions:
DOCKED: REMARK  status: ('A' for Active; 'I' for Inactive)
DOCKED: REMARK    1  A    between atoms: C_6  and  C_10 
DOCKED: REMARK    2  A    between atoms: C_10  and  C_11 
DOCKED: REMARK    3  A    between atoms: C_11  and  C_12 
DOCKED: REMARK    4  A    between atoms: C_12  and  O_14 
DOCKED: REMARK    5  A    between atoms: C_17  and  C_20 
DOCKED: REMARK    6  A    between atoms: C_24  and  C_27 
DOCKED: REMARK    7  A    between atoms: C_31  and  C_34 
DOCKED: REMARK    8  A    between atoms: C_34  and  C_35 
DOCKED: REMARK    9  A    between atoms: C_35  and  C_36 
DOCKED: REMARK   10  A    between atoms: C_36  and  O_38 
DOCKED: REMARK   11  A    between atoms: FE_43  and  C_44 
DOCKED: REMARK   12  A    between atoms: C_44  and  O_45 
DOCKED: USER                              x       y       z     vdW  Elec       q    Type
DOCKED: USER                           _______ _______ _______ _____ _____    ______ ____
DOCKED: ROOT
DOCKED: ATOM      1  C   UNL d   1      13.896  39.597  26.999 -0.20 -0.02    +0.064 A 
DOCKED: ATOM      2  C   UNL d   1      15.393  43.260  24.362 -0.25 -0.01    +0.064 C 
DOCKED: ATOM      3  C   UNL d   1      11.785  42.581  21.303 -0.15 -0.02    +0.064 A 
DOCKED: ATOM      4  C   UNL d   1      10.017  39.084  24.186 -0.27 -0.02    +0.064 A 
DOCKED: ATOM      5  C   UNL d   1      14.591  40.624  26.483 -0.19 -0.02    +0.066 A 
DOCKED: ATOM      6  C   UNL d   1      15.705  41.179  27.143 -0.13 +0.00    -0.021 A 
DOCKED: ATOM      7  C   UNL d   1      16.122  42.256  26.385 -0.15 +0.00    -0.025 A 
DOCKED: ATOM      8  C   UNL d   1      15.255  42.302  25.288 -0.20 -0.02    +0.066 A 
DOCKED: ATOM      9  C   UNL d   1      17.288  43.214  26.669 -0.09 -0.00    +0.051 C 
DOCKED: ATOM     10  C   UNL d   1      14.566  43.371  23.186 -0.27 -0.02    +0.066 A 
DOCKED: ATOM     11  C   UNL d   1      14.747  44.265  22.109 -0.30 +0.00    -0.021 A 
DOCKED: ATOM     12  C   UNL d   1      13.683  44.043  21.230 -0.29 -0.00    +0.000 A 
DOCKED: ATOM     13  C   UNL d   1      12.941  43.024  21.828 -0.25 -0.02    +0.070 A 
DOCKED: ATOM     14  C   UNL d   1      15.917  45.193  21.907 -0.26 -0.01    +0.052 C 
DOCKED: ATOM     15  C   UNL d   1      10.869  41.579  21.812 -0.23 -0.02    +0.066 A 
DOCKED: ATOM     16  C   UNL d   1       9.618  41.269  21.297 -0.25 +0.01    -0.021 A 
DOCKED: ATOM     17  C   UNL d   1       9.103  40.263  22.127 -0.26 -0.00    +0.000 A 
DOCKED: ATOM     18  C   UNL d   1      10.092  40.025  23.076 -0.25 -0.02    +0.070 A 
DOCKED: ATOM     19  C   UNL d   1       8.984  41.917  20.086 -0.31 -0.03    +0.052 C 
DOCKED: ATOM     20  C   UNL d   1      10.928  38.896  25.171 -0.25 -0.02    +0.066 A 
DOCKED: ATOM     21  C   UNL d   1      10.727  37.986  26.206 -0.26 +0.01    -0.025 A 
DOCKED: ATOM     22  C   UNL d   1      11.843  38.091  27.017 -0.25 +0.01    -0.021 A 
DOCKED: ATOM     23  C   UNL d   1      12.670  39.077  26.438 -0.24 -0.03    +0.066 A 
DOCKED: ATOM     24  C   UNL d   1       9.523  37.074  26.424 -0.31 -0.01    +0.051 C 
DOCKED: ATOM     25  N   UNL d   1      14.300  41.300  25.320 -0.13 +0.09    -0.248 N 
DOCKED: ATOM     26  N   UNL d   1      13.506  42.581  22.982 -0.20 +0.07    -0.248 N 
DOCKED: ATOM     27  N   UNL d   1      11.116  40.847  22.876 -0.15 +0.07    -0.248 N 
DOCKED: ATOM     28  N   UNL d   1      12.119  39.569  25.321 -0.01 +0.12    -0.248 N 
DOCKED: ATOM     29 FE   UNL d   1      12.613  41.057  24.027 -0.06 -0.00    +0.000 Fe
DOCKED: ENDROOT
DOCKED: BRANCH   6  30
DOCKED: ATOM     30  C   UNL d   1      16.283  40.735  28.483 -0.10 -0.00    +0.052 C 
DOCKED: BRANCH  30  31
DOCKED: ATOM     31  C   UNL d   1      17.726  40.261  28.315 -0.17 -0.00    +0.115 C 
DOCKED: BRANCH  31  32
DOCKED: ATOM     32  C   UNL d   1      17.908  38.813  28.713 -0.10 +0.02    +0.139 C 
DOCKED: ATOM     33  O   UNL d   1      18.943  38.465  29.262 -0.45 -0.13    -0.650 OA
DOCKED: BRANCH  32  34
DOCKED: ATOM     34  O   UNL d   1      16.937  37.889  28.524 -0.29 -0.04    -0.776 OA
DOCKED: ATOM     35  H   UNL d   1      16.188  37.757  29.121 +0.05 -0.01    +0.167 HD
DOCKED: ENDBRANCH  32  34
DOCKED: ENDBRANCH  31  32
DOCKED: ENDBRANCH  30  31
DOCKED: ENDBRANCH   6  30
DOCKED: BRANCH  29  36
DOCKED: ATOM     36  C   UNL d   1      11.630  42.463  25.232 -0.05 -0.04    +0.190 C 
DOCKED: BRANCH  36  37
DOCKED: ATOM     37  O   UNL d   1      11.685  43.094  26.479 -0.00 +0.05    -0.399 OA
DOCKED: ATOM     38  H   UNL d   1      12.394  42.605  26.983 +0.02 -0.03    +0.209 HD
DOCKED: ENDBRANCH  36  37
DOCKED: ENDBRANCH  29  36
DOCKED: BRANCH  22  39
DOCKED: ATOM     39  C   UNL d   1      12.065  37.330  28.310 -0.12 -0.04    +0.052 C 
DOCKED: BRANCH  39  40
DOCKED: ATOM     40  C   UNL d   1      12.568  38.274  29.415 -0.07 -0.03    +0.115 C 
DOCKED: BRANCH  40  41
DOCKED: ATOM     41  C   UNL d   1      13.971  37.975  29.901 -0.09 -0.03    +0.139 C 
DOCKED: ATOM     42  O   UNL d   1      14.372  36.820  29.897 -0.00 +0.15    -0.650 OA
DOCKED: BRANCH  41  43
DOCKED: ATOM     43  O   UNL d   1      14.824  38.961  30.257 +0.07 +0.07    -0.776 OA
DOCKED: ATOM     44  H   UNL d   1      15.759  38.952  30.013 +0.04 -0.01    +0.167 HD
DOCKED: ENDBRANCH  41  43
DOCKED: ENDBRANCH  40  41
DOCKED: ENDBRANCH  39  40
DOCKED: ENDBRANCH  22  39
DOCKED: BRANCH  12  45
DOCKED: ATOM     45  C   UNL d   1      13.296  44.659  19.892 -0.25 -0.00    +0.004 C 
DOCKED: ATOM     46  C   UNL d   1      12.229  45.375  19.545 -0.16 -0.00    +0.012 C 
DOCKED: ENDBRANCH  12  45
DOCKED: BRANCH  17  47
DOCKED: ATOM     47  C   UNL d   1       7.771  39.589  22.094 -0.34 -0.00    +0.004 C 
DOCKED: ATOM     48  C   UNL d   1       6.616  40.245  21.961 -0.28 -0.00    +0.012 C 
DOCKED: ENDBRANCH  17  47
DOCKED: TORSDOF 12
DOCKED: TER
DOCKED: ENDMDL
________________________________________________________________________________


	BEGINNING GENETIC ALGORITHM DOCKING 28 of 100
Run: 28 Seed: 1218079789 1746770506 [ Run 28 of 100 GA/GALS ]
Beginning LAMARCKIAN GENETIC ALGORITHM (LGA), with a maximum of 25000000 energy evaluations.

Final-Value: -11.142


	FINAL GENETIC ALGORITHM DOCKED STATE
	_______________________________________________


Detailed state:  trans 28.225 41.995 -0.925 quatxyzw 0.146372 0.801205 -0.362253 -0.453232 center 8.781 34.984 -0.736 ntor 12 -134.1769 112.7747 -67.5074 117.8309 127.9916 98.4082 -24.9192 5.3873 36.6681 98.8925 -159.7674 -176.7289
State:	 28.225  41.995  -0.925   0.164  0.899 -0.406 -126.098   -134.18  112.77  -67.51  117.83  127.99   98.41  -24.92    5.39   36.67   98.89 -159.77 -176.73

DOCKED: MODEL       28
DOCKED: USER    Run = 28
DOCKED: USER    DPF = D:/Protein_go_brrr/autodock/final/2DN3/heme_Co/dock.dpf
DOCKED: USER  
DOCKED: USER    Estimated Free Energy of Binding    =   -6.85 kcal/mol  [=(1)+(2)+(3)-(4)]
DOCKED: USER    Estimated Inhibition Constant, Ki   =    9.57 uM (micromolar)  [Temperature = 298.15 K]
DOCKED: USER    
DOCKED: USER    (1) Final Intermolecular Energy     =  -10.43 kcal/mol
DOCKED: USER        vdW + Hbond + desolv Energy     =   -7.77 kcal/mol
DOCKED: USER        Electrostatic Energy            =   -2.65 kcal/mol
DOCKED: USER    (2) Final Total Internal Energy     =   -0.72 kcal/mol
DOCKED: USER    (3) Torsional Free Energy           =   +3.58 kcal/mol
DOCKED: USER    (4) Unbound System's Energy  [=(2)] =   -0.72 kcal/mol
DOCKED: USER    
DOCKED: USER    
DOCKED: USER    NEWDPF move heme_Co_opt.pdbqt
DOCKED: USER    NEWDPF about 8.781000 34.984000 -0.736000
DOCKED: USER    NEWDPF tran0 28.225282 41.994550 -0.925246
DOCKED: USER    NEWDPF quaternion0 0.146372 0.801205 -0.362253 -0.453232
DOCKED: USER    NEWDPF axisangle0 0.164206 0.898823 -0.406390 -126.097567
DOCKED: USER    NEWDPF quat0 0.164206 0.898823 -0.406390 -126.097567
DOCKED: USER    NEWDPF dihe0 -134.18 112.77 -67.51 117.83 127.99 98.41 -24.92 5.39 36.67 98.89 -159.77 -176.73 
DOCKED: USER  keepresnum = 1 
DOCKED: USER  
DOCKED: REMARK  12 active torsions:
DOCKED: REMARK  status: ('A' for Active; 'I' for Inactive)
DOCKED: REMARK    1  A    between atoms: C_6  and  C_10 
DOCKED: REMARK    2  A    between atoms: C_10  and  C_11 
DOCKED: REMARK    3  A    between atoms: C_11  and  C_12 
DOCKED: REMARK    4  A    between atoms: C_12  and  O_14 
DOCKED: REMARK    5  A    between atoms: C_17  and  C_20 
DOCKED: REMARK    6  A    between atoms: C_24  and  C_27 
DOCKED: REMARK    7  A    between atoms: C_31  and  C_34 
DOCKED: REMARK    8  A    between atoms: C_34  and  C_35 
DOCKED: REMARK    9  A    between atoms: C_35  and  C_36 
DOCKED: REMARK   10  A    between atoms: C_36  and  O_38 
DOCKED: REMARK   11  A    between atoms: FE_43  and  C_44 
DOCKED: REMARK   12  A    between atoms: C_44  and  O_45 
DOCKED: USER                              x       y       z     vdW  Elec       q    Type
DOCKED: USER                           _______ _______ _______ _____ _____    ______ ____
DOCKED: ROOT
DOCKED: ATOM      1  C   UNL d   1      29.036  43.129   0.740 -0.13 +0.03    +0.064 A 
DOCKED: ATOM      2  C   UNL d   1      29.167  38.499  -0.337 -0.12 +0.01    +0.064 C 
DOCKED: ATOM      3  C   UNL d   1      26.305  39.252  -4.088 -0.13 +0.01    +0.064 A 
DOCKED: ATOM      4  C   UNL d   1      26.468  44.039  -3.235 -0.16 +0.01    +0.064 A 
DOCKED: ATOM      5  C   UNL d   1      29.253  41.803   0.742 -0.11 +0.02    +0.066 A 
DOCKED: ATOM      6  C   UNL d   1      30.119  41.189   1.667 -0.12 -0.01    -0.021 A 
DOCKED: ATOM      7  C   UNL d   1      30.172  39.850   1.336 -0.09 -0.00    -0.025 A 
DOCKED: ATOM      8  C   UNL d   1      29.323  39.700   0.234 -0.10 +0.01    +0.066 A 
DOCKED: ATOM      9  C   UNL d   1      30.985  38.741   2.020 -0.11 +0.01    +0.051 C 
DOCKED: ATOM     10  C   UNL d   1      28.296  38.245  -1.457 -0.14 +0.01    +0.066 A 
DOCKED: ATOM     11  C   UNL d   1      27.982  36.985  -2.013 -0.15 -0.00    -0.021 A 
DOCKED: ATOM     12  C   UNL d   1      27.143  37.234  -3.102 -0.20 +0.00    +0.000 A 
DOCKED: ATOM     13  C   UNL d   1      26.997  38.621  -3.123 -0.15 +0.01    +0.070 A 
DOCKED: ATOM     14  C   UNL d   1      28.390  35.642  -1.465 -0.10 +0.01    +0.052 C 
DOCKED: ATOM     15  C   UNL d   1      26.097  40.672  -4.292 -0.17 +0.01    +0.066 A 
DOCKED: ATOM     16  C   UNL d   1      25.493  41.266  -5.391 -0.17 -0.00    -0.021 A 
DOCKED: ATOM     17  C   UNL d   1      25.540  42.647  -5.151 -0.19 +0.00    +0.000 A 
DOCKED: ATOM     18  C   UNL d   1      26.156  42.786  -3.912 -0.21 +0.01    +0.070 A 
DOCKED: ATOM     19  C   UNL d   1      24.919  40.530  -6.581 -0.15 +0.01    +0.052 C 
DOCKED: ATOM     20  C   UNL d   1      27.142  44.202  -2.072 -0.14 +0.02    +0.066 A 
DOCKED: ATOM     21  C   UNL d   1      27.412  45.460  -1.539 -0.10 -0.01    -0.025 A 
DOCKED: ATOM     22  C   UNL d   1      28.127  45.228  -0.378 -0.12 -0.01    -0.021 A 
DOCKED: ATOM     23  C   UNL d   1      28.268  43.829  -0.265 -0.13 +0.03    +0.066 A 
DOCKED: ATOM     24  C   UNL d   1      27.027  46.819  -2.118 -0.07 +0.01    +0.051 C 
DOCKED: ATOM     25  N   UNL d   1      28.735  40.893  -0.152 -0.08 -0.05    -0.248 N 
DOCKED: ATOM     26  N   UNL d   1      27.649  39.226  -2.095 -0.07 -0.04    -0.248 N 
DOCKED: ATOM     27  N   UNL d   1      26.501  41.591  -3.444 -0.11 -0.05    -0.248 N 
DOCKED: ATOM     28  N   UNL d   1      27.676  43.204  -1.290 -0.10 -0.07    -0.248 N 
DOCKED: ATOM     29 FE   UNL d   1      27.552  41.267  -1.894 -0.05 +0.00    +0.000 Fe
DOCKED: ENDROOT
DOCKED: BRANCH   6  30
DOCKED: ATOM     30  C   UNL d   1      30.919  41.885   2.764 -0.27 +0.02    +0.052 C 
DOCKED: BRANCH  30  31
DOCKED: ATOM     31  C   UNL d   1      32.123  42.616   2.170 -0.23 +0.09    +0.115 C 
DOCKED: BRANCH  31  32
DOCKED: ATOM     32  C   UNL d   1      33.326  42.589   3.088 -0.33 +0.11    +0.139 C 
DOCKED: ATOM     33  O   UNL d   1      34.166  43.472   3.004 -0.47 -1.19    -0.650 OA
DOCKED: BRANCH  32  34
DOCKED: ATOM     34  O   UNL d   1      33.481  41.639   4.039 +0.03 -0.09    -0.776 OA
DOCKED: ATOM     35  H   UNL d   1      33.801  41.814   4.935 -0.49 -0.08    +0.167 HD
DOCKED: ENDBRANCH  32  34
DOCKED: ENDBRANCH  31  32
DOCKED: ENDBRANCH  30  31
DOCKED: ENDBRANCH   6  30
DOCKED: BRANCH  29  36
DOCKED: ATOM     36  C   UNL d   1      29.357  41.454  -2.943 -0.04 +0.04    +0.190 C 
DOCKED: BRANCH  36  37
DOCKED: ATOM     37  O   UNL d   1      30.565  42.159  -2.965 +0.00 -0.10    -0.399 OA
DOCKED: ATOM     38  H   UNL d   1      30.507  42.791  -2.196 +0.02 +0.07    +0.209 HD
DOCKED: ENDBRANCH  36  37
DOCKED: ENDBRANCH  29  36
DOCKED: BRANCH  22  39
DOCKED: ATOM     39  C   UNL d   1      28.696  46.299   0.534 -0.12 +0.03    +0.052 C 
DOCKED: BRANCH  39  40
DOCKED: ATOM     40  C   UNL d   1      29.947  46.936  -0.092 -0.12 +0.05    +0.115 C 
DOCKED: BRANCH  40  41
DOCKED: ATOM     41  C   UNL d   1      31.238  46.203   0.207 -0.14 +0.14    +0.139 C 
DOCKED: ATOM     42  O   UNL d   1      32.103  46.137  -0.655 -0.46 -0.82    -0.650 OA
DOCKED: BRANCH  41  43
DOCKED: ATOM     43  O   UNL d   1      31.497  45.693   1.432 -0.33 -1.01    -0.776 OA
DOCKED: ATOM     44  H   UNL d   1      31.554  46.244   2.223 -0.41 +0.11    +0.167 HD
DOCKED: ENDBRANCH  41  43
DOCKED: ENDBRANCH  40  41
DOCKED: ENDBRANCH  39  40
DOCKED: ENDBRANCH  22  39
DOCKED: BRANCH  12  45
DOCKED: ATOM     45  C   UNL d   1      26.450  36.324  -4.108 -0.17 +0.00    +0.004 C 
DOCKED: ATOM     46  C   UNL d   1      25.164  36.019  -4.258 -0.25 -0.00    +0.012 C 
DOCKED: ENDBRANCH  12  45
DOCKED: BRANCH  17  47
DOCKED: ATOM     47  C   UNL d   1      25.099  43.781  -6.017 -0.13 +0.00    +0.004 C 
DOCKED: ATOM     48  C   UNL d   1      24.001  44.504  -5.781 -0.18 +0.00    +0.012 C 
DOCKED: ENDBRANCH  17  47
DOCKED: TORSDOF 12
DOCKED: TER
DOCKED: ENDMDL
________________________________________________________________________________


	BEGINNING GENETIC ALGORITHM DOCKING 29 of 100
Run: 29 Seed: 1430141194 1306801690 [ Run 29 of 100 GA/GALS ]
Beginning LAMARCKIAN GENETIC ALGORITHM (LGA), with a maximum of 25000000 energy evaluations.

Final-Value: -11.642


	FINAL GENETIC ALGORITHM DOCKED STATE
	_______________________________________________


Detailed state:  trans 25.282 46.066 -1.806 quatxyzw 0.392948 0.915275 -0.007448 0.088359 center 8.781 34.984 -0.736 ntor 12 -167.9917 111.3224 45.7419 -1.9434 87.1606 129.8489 44.8130 -87.4597 156.0114 16.9595 -153.8271 165.7835
State:	 25.282  46.066  -1.806   0.394  0.919 -0.007 169.862   -167.99  111.32   45.74   -1.94   87.16  129.85   44.81  -87.46  156.01   16.96 -153.83  165.78

DOCKED: MODEL       29
DOCKED: USER    Run = 29
DOCKED: USER    DPF = D:/Protein_go_brrr/autodock/final/2DN3/heme_Co/dock.dpf
DOCKED: USER  
DOCKED: USER    Estimated Free Energy of Binding    =   -5.89 kcal/mol  [=(1)+(2)+(3)-(4)]
DOCKED: USER    Estimated Inhibition Constant, Ki   =   47.78 uM (micromolar)  [Temperature = 298.15 K]
DOCKED: USER    
DOCKED: USER    (1) Final Intermolecular Energy     =   -9.47 kcal/mol
DOCKED: USER        vdW + Hbond + desolv Energy     =   -7.60 kcal/mol
DOCKED: USER        Electrostatic Energy            =   -1.87 kcal/mol
DOCKED: USER    (2) Final Total Internal Energy     =   -2.17 kcal/mol
DOCKED: USER    (3) Torsional Free Energy           =   +3.58 kcal/mol
DOCKED: USER    (4) Unbound System's Energy  [=(2)] =   -2.17 kcal/mol
DOCKED: USER    
DOCKED: USER    
DOCKED: USER    NEWDPF move heme_Co_opt.pdbqt
DOCKED: USER    NEWDPF about 8.781000 34.984000 -0.736000
DOCKED: USER    NEWDPF tran0 25.281862 46.065779 -1.805972
DOCKED: USER    NEWDPF quaternion0 0.392948 0.915275 -0.007448 0.088359
DOCKED: USER    NEWDPF axisangle0 0.394491 0.918869 -0.007477 169.861551
DOCKED: USER    NEWDPF quat0 0.394491 0.918869 -0.007477 169.861551
DOCKED: USER    NEWDPF dihe0 -167.99 111.32 45.74 -1.94 87.16 129.85 44.81 -87.46 156.01 16.96 -153.83 165.78 
DOCKED: USER  keepresnum = 1 
DOCKED: USER  
DOCKED: REMARK  12 active torsions:
DOCKED: REMARK  status: ('A' for Active; 'I' for Inactive)
DOCKED: REMARK    1  A    between atoms: C_6  and  C_10 
DOCKED: REMARK    2  A    between atoms: C_10  and  C_11 
DOCKED: REMARK    3  A    between atoms: C_11  and  C_12 
DOCKED: REMARK    4  A    between atoms: C_12  and  O_14 
DOCKED: REMARK    5  A    between atoms: C_17  and  C_20 
DOCKED: REMARK    6  A    between atoms: C_24  and  C_27 
DOCKED: REMARK    7  A    between atoms: C_31  and  C_34 
DOCKED: REMARK    8  A    between atoms: C_34  and  C_35 
DOCKED: REMARK    9  A    between atoms: C_35  and  C_36 
DOCKED: REMARK   10  A    between atoms: C_36  and  O_38 
DOCKED: REMARK   11  A    between atoms: FE_43  and  C_44 
DOCKED: REMARK   12  A    between atoms: C_44  and  O_45 
DOCKED: USER                              x       y       z     vdW  Elec       q    Type
DOCKED: USER                           _______ _______ _______ _____ _____    ______ ____
DOCKED: ROOT
DOCKED: ATOM      1  C   UNL d   1      27.090  44.969  -1.312 -0.14 +0.02    +0.064 A 
DOCKED: ATOM      2  C   UNL d   1      23.703  44.246  -4.571 -0.26 +0.01    +0.064 C 
DOCKED: ATOM      3  C   UNL d   1      21.192  47.920  -2.831 -0.24 -0.01    +0.064 A 
DOCKED: ATOM      4  C   UNL d   1      24.816  48.917   0.257 -0.08 +0.01    +0.064 A 
DOCKED: ATOM      5  C   UNL d   1      26.332  44.479  -2.307 -0.19 +0.02    +0.066 A 
DOCKED: ATOM      6  C   UNL d   1      26.767  43.418  -3.125 -0.18 -0.00    -0.021 A 
DOCKED: ATOM      7  C   UNL d   1      25.791  43.228  -4.083 -0.22 -0.00    -0.025 A 
DOCKED: ATOM      8  C   UNL d   1      24.795  44.169  -3.800 -0.27 +0.01    +0.066 A 
DOCKED: ATOM      9  C   UNL d   1      25.781  42.204  -5.229 -0.19 +0.01    +0.051 C 
DOCKED: ATOM     10  C   UNL d   1      22.616  45.164  -4.341 -0.27 +0.00    +0.066 A 
DOCKED: ATOM     11  C   UNL d   1      21.383  45.200  -5.028 -0.32 +0.00    -0.021 A 
DOCKED: ATOM     12  C   UNL d   1      20.668  46.278  -4.498 -0.34 -0.00    +0.000 A 
DOCKED: ATOM     13  C   UNL d   1      21.510  46.810  -3.521 -0.28 -0.00    +0.070 A 
DOCKED: ATOM     14  C   UNL d   1      20.902  44.203  -6.052 -0.40 +0.00    +0.052 C 
DOCKED: ATOM     15  C   UNL d   1      21.961  48.632  -1.830 -0.19 -0.00    +0.066 A 
DOCKED: ATOM     16  C   UNL d   1      21.637  49.855  -1.259 -0.17 +0.00    -0.021 A 
DOCKED: ATOM     17  C   UNL d   1      22.681  50.148  -0.370 -0.11 +0.00    +0.000 A 
DOCKED: ATOM     18  C   UNL d   1      23.554  49.069  -0.455 -0.10 +0.01    +0.070 A 
DOCKED: ATOM     19  C   UNL d   1      20.399  50.667  -1.569 -0.26 -0.01    +0.052 C 
DOCKED: ATOM     20  C   UNL d   1      25.723  47.919   0.125 -0.10 +0.02    +0.066 A 
DOCKED: ATOM     21  C   UNL d   1      26.919  47.903   0.839 -0.11 -0.01    -0.025 A 
DOCKED: ATOM     22  C   UNL d   1      27.582  46.760   0.428 -0.12 -0.01    -0.021 A 
DOCKED: ATOM     23  C   UNL d   1      26.756  46.139  -0.532 -0.11 +0.02    +0.066 A 
DOCKED: ATOM     24  C   UNL d   1      27.416  48.934   1.848 -0.11 +0.01    +0.051 C 
DOCKED: ATOM     25  N   UNL d   1      25.101  44.954  -2.701 -0.18 -0.05    -0.248 N 
DOCKED: ATOM     26  N   UNL d   1      22.663  46.101  -3.389 -0.17 -0.01    -0.248 N 
DOCKED: ATOM     27  N   UNL d   1      23.109  48.200  -1.357 -0.08 -0.02    -0.248 N 
DOCKED: ATOM     28  N   UNL d   1      25.631  46.838  -0.720 +0.01 -0.07    -0.248 N 
DOCKED: ATOM     29 FE   UNL d   1      24.048  46.673  -1.986 -0.05 +0.00    +0.000 Fe
DOCKED: ENDROOT
DOCKED: BRANCH   6  30
DOCKED: ATOM     30  C   UNL d   1      28.100  42.684  -3.030 -0.11 +0.01    +0.052 C 
DOCKED: BRANCH  30  31
DOCKED: ATOM     31  C   UNL d   1      29.248  43.596  -3.462 -0.02 +0.02    +0.115 C 
DOCKED: BRANCH  31  32
DOCKED: ATOM     32  C   UNL d   1      28.796  44.679  -4.419 -0.01 +0.02    +0.139 C 
DOCKED: ATOM     33  O   UNL d   1      28.727  44.434  -5.614 +0.01 -0.09    -0.650 OA
DOCKED: BRANCH  32  34
DOCKED: ATOM     34  O   UNL d   1      28.417  45.904  -3.988 +0.02 -0.13    -0.776 OA
DOCKED: ATOM     35  H   UNL d   1      28.022  46.581  -4.554 +0.01 +0.02    +0.167 HD
DOCKED: ENDBRANCH  32  34
DOCKED: ENDBRANCH  31  32
DOCKED: ENDBRANCH  30  31
DOCKED: ENDBRANCH   6  30
DOCKED: BRANCH  29  36
DOCKED: ATOM     36  C   UNL d   1      25.074  47.770  -3.449 -0.05 +0.02    +0.190 C 
DOCKED: BRANCH  36  37
DOCKED: ATOM     37  O   UNL d   1      26.240  47.778  -4.222 -0.00 -0.04    -0.399 OA
DOCKED: ATOM     38  H   UNL d   1      26.747  46.969  -3.931 +0.02 +0.03    +0.209 HD
DOCKED: ENDBRANCH  36  37
DOCKED: ENDBRANCH  29  36
DOCKED: BRANCH  22  39
DOCKED: ATOM     39  C   UNL d   1      28.962  46.331   0.889 -0.06 +0.03    +0.052 C 
DOCKED: BRANCH  39  40
DOCKED: ATOM     40  C   UNL d   1      30.043  46.857  -0.070 -0.12 +0.05    +0.115 C 
DOCKED: BRANCH  40  41
DOCKED: ATOM     41  C   UNL d   1      31.417  46.260   0.149 -0.11 +0.15    +0.139 C 
DOCKED: ATOM     42  O   UNL d   1      31.539  45.045   0.212 -0.49 -0.86    -0.650 OA
DOCKED: BRANCH  41  43
DOCKED: ATOM     43  O   UNL d   1      32.527  47.030   0.191 -0.04 -1.16    -0.776 OA
DOCKED: ATOM     44  H   UNL d   1      32.603  47.801   0.767 -0.47 +0.13    +0.167 HD
DOCKED: ENDBRANCH  41  43
DOCKED: ENDBRANCH  40  41
DOCKED: ENDBRANCH  39  40
DOCKED: ENDBRANCH  22  39
DOCKED: BRANCH  12  45
DOCKED: ATOM     45  C   UNL d   1      19.288  46.852  -4.787 -0.33 -0.00    +0.004 C 
DOCKED: ATOM     46  C   UNL d   1      18.430  46.590  -5.770 -0.34 -0.00    +0.012 C 
DOCKED: ENDBRANCH  12  45
DOCKED: BRANCH  17  47
DOCKED: ATOM     47  C   UNL d   1      22.903  51.360   0.474 -0.11 -0.00    +0.004 C 
DOCKED: ATOM     48  C   UNL d   1      22.103  51.712   1.484 -0.21 -0.00    +0.012 C 
DOCKED: ENDBRANCH  17  47
DOCKED: TORSDOF 12
DOCKED: TER
DOCKED: ENDMDL
________________________________________________________________________________


	BEGINNING GENETIC ALGORITHM DOCKING 30 of 100
Run: 30 Seed: 1178607297 1914358066 [ Run 30 of 100 GA/GALS ]
Beginning LAMARCKIAN GENETIC ALGORITHM (LGA), with a maximum of 25000000 energy evaluations.

Final-Value: -11.438


	FINAL GENETIC ALGORITHM DOCKED STATE
	_______________________________________________


Detailed state:  trans 28.268 41.008 -1.214 quatxyzw 0.134449 0.755978 -0.450168 -0.455818 center 8.781 34.984 -0.736 ntor 12 -12.3373 112.4246 -171.7388 109.0281 132.1289 136.2503 -138.4507 49.3654 4.9817 57.2951 -147.6355 -179.7988
State:	 28.268  41.008  -1.214   0.151  0.849 -0.506 -125.765    -12.34  112.42 -171.74  109.03  132.13  136.25 -138.45   49.37    4.98   57.30 -147.64 -179.80

DOCKED: MODEL       30
DOCKED: USER    Run = 30
DOCKED: USER    DPF = D:/Protein_go_brrr/autodock/final/2DN3/heme_Co/dock.dpf
DOCKED: USER  
DOCKED: USER    Estimated Free Energy of Binding    =   -6.18 kcal/mol  [=(1)+(2)+(3)-(4)]
DOCKED: USER    Estimated Inhibition Constant, Ki   =   29.32 uM (micromolar)  [Temperature = 298.15 K]
DOCKED: USER    
DOCKED: USER    (1) Final Intermolecular Energy     =   -9.76 kcal/mol
DOCKED: USER        vdW + Hbond + desolv Energy     =   -7.03 kcal/mol
DOCKED: USER        Electrostatic Energy            =   -2.74 kcal/mol
DOCKED: USER    (2) Final Total Internal Energy     =   -1.67 kcal/mol
DOCKED: USER    (3) Torsional Free Energy           =   +3.58 kcal/mol
DOCKED: USER    (4) Unbound System's Energy  [=(2)] =   -1.67 kcal/mol
DOCKED: USER    
DOCKED: USER    
DOCKED: USER    NEWDPF move heme_Co_opt.pdbqt
DOCKED: USER    NEWDPF about 8.781000 34.984000 -0.736000
DOCKED: USER    NEWDPF tran0 28.268345 41.007805 -1.213839
DOCKED: USER    NEWDPF quaternion0 0.134449 0.755978 -0.450168 -0.455818
DOCKED: USER    NEWDPF axisangle0 0.151054 0.849344 -0.505765 -125.764906
DOCKED: USER    NEWDPF quat0 0.151054 0.849344 -0.505765 -125.764906
DOCKED: USER    NEWDPF dihe0 -12.34 112.42 -171.74 109.03 132.13 136.25 -138.45 49.37 4.98 57.30 -147.64 -179.80 
DOCKED: USER  keepresnum = 1 
DOCKED: USER  
DOCKED: REMARK  12 active torsions:
DOCKED: REMARK  status: ('A' for Active; 'I' for Inactive)
DOCKED: REMARK    1  A    between atoms: C_6  and  C_10 
DOCKED: REMARK    2  A    between atoms: C_10  and  C_11 
DOCKED: REMARK    3  A    between atoms: C_11  and  C_12 
DOCKED: REMARK    4  A    between atoms: C_12  and  O_14 
DOCKED: REMARK    5  A    between atoms: C_17  and  C_20 
DOCKED: REMARK    6  A    between atoms: C_24  and  C_27 
DOCKED: REMARK    7  A    between atoms: C_31  and  C_34 
DOCKED: REMARK    8  A    between atoms: C_34  and  C_35 
DOCKED: REMARK    9  A    between atoms: C_35  and  C_36 
DOCKED: REMARK   10  A    between atoms: C_36  and  O_38 
DOCKED: REMARK   11  A    between atoms: FE_43  and  C_44 
DOCKED: REMARK   12  A    between atoms: C_44  and  O_45 
DOCKED: USER                              x       y       z     vdW  Elec       q    Type
DOCKED: USER                           _______ _______ _______ _____ _____    ______ ____
DOCKED: ROOT
DOCKED: ATOM      1  C   UNL d   1      29.153  42.370   0.228 -0.10 +0.02    +0.064 A 
DOCKED: ATOM      2  C   UNL d   1      28.952  37.624   0.023 -0.13 +0.01    +0.064 C 
DOCKED: ATOM      3  C   UNL d   1      26.167  37.871  -3.851 -0.23 +0.01    +0.064 A 
DOCKED: ATOM      4  C   UNL d   1      26.673  42.709  -3.890 -0.16 +0.01    +0.064 A 
DOCKED: ATOM      5  C   UNL d   1      29.273  41.056   0.478 -0.10 +0.02    +0.066 A 
DOCKED: ATOM      6  C   UNL d   1      30.089  40.564   1.515 -0.11 -0.00    -0.021 A 
DOCKED: ATOM      7  C   UNL d   1      30.045  39.185   1.437 -0.10 -0.00    -0.025 A 
DOCKED: ATOM      8  C   UNL d   1      29.192  38.896   0.366 -0.11 +0.01    +0.066 A 
DOCKED: ATOM      9  C   UNL d   1      30.773  38.167   2.327 -0.11 +0.01    +0.051 C 
DOCKED: ATOM     10  C   UNL d   1      28.069  37.229  -1.046 -0.13 +0.01    +0.066 A 
DOCKED: ATOM     11  C   UNL d   1      27.667  35.914  -1.366 -0.15 -0.00    -0.021 A 
DOCKED: ATOM     12  C   UNL d   1      26.852  36.015  -2.497 -0.19 +0.00    +0.000 A 
DOCKED: ATOM     13  C   UNL d   1      26.807  37.382  -2.775 -0.20 +0.01    +0.070 A 
DOCKED: ATOM     14  C   UNL d   1      27.974  34.669  -0.573 -0.14 +0.02    +0.052 C 
DOCKED: ATOM     15  C   UNL d   1      26.063  39.240  -4.317 -0.20 +0.01    +0.066 A 
DOCKED: ATOM     16  C   UNL d   1      25.509  39.662  -5.517 -0.19 -0.00    -0.021 A 
DOCKED: ATOM     17  C   UNL d   1      25.655  41.056  -5.534 -0.17 +0.00    +0.000 A 
DOCKED: ATOM     18  C   UNL d   1      26.274  41.378  -4.330 -0.20 +0.01    +0.070 A 
DOCKED: ATOM     19  C   UNL d   1      24.888  38.761  -6.560 -0.16 +0.01    +0.052 C 
DOCKED: ATOM     20  C   UNL d   1      27.353  43.036  -2.765 -0.14 +0.01    +0.066 A 
DOCKED: ATOM     21  C   UNL d   1      27.712  44.349  -2.469 -0.09 -0.01    -0.025 A 
DOCKED: ATOM     22  C   UNL d   1      28.403  44.286  -1.272 -0.09 -0.01    -0.021 A 
DOCKED: ATOM     23  C   UNL d   1      28.442  42.925  -0.902 -0.11 +0.02    +0.066 A 
DOCKED: ATOM     24  C   UNL d   1      27.428  45.601  -3.294 -0.05 +0.01    +0.051 C 
DOCKED: ATOM     25  N   UNL d   1      28.694  40.035  -0.243 -0.08 -0.04    -0.248 N 
DOCKED: ATOM     26  N   UNL d   1      27.497  38.119  -1.864 -0.05 -0.03    -0.248 N 
DOCKED: ATOM     27  N   UNL d   1      26.530  40.269  -3.645 -0.09 -0.04    -0.248 N 
DOCKED: ATOM     28  N   UNL d   1      27.810  42.165  -1.804 -0.10 -0.06    -0.248 N 
DOCKED: ATOM     29 FE   UNL d   1      27.548  40.163  -2.044 -0.05 +0.00    +0.000 Fe
DOCKED: ENDROOT
DOCKED: BRANCH   6  30
DOCKED: ATOM     30  C   UNL d   1      30.932  41.391   2.479 -0.22 +0.02    +0.052 C 
DOCKED: BRANCH  30  31
DOCKED: ATOM     31  C   UNL d   1      32.018  42.156   1.722 -0.16 +0.08    +0.115 C 
DOCKED: BRANCH  31  32
DOCKED: ATOM     32  C   UNL d   1      32.928  42.934   2.648 -0.22 +0.16    +0.139 C 
DOCKED: ATOM     33  O   UNL d   1      33.953  42.413   3.060 -0.21 -0.49    -0.650 OA
DOCKED: BRANCH  32  34
DOCKED: ATOM     34  O   UNL d   1      32.668  44.215   3.000 -0.30 -1.24    -0.776 OA
DOCKED: ATOM     35  H   UNL d   1      32.047  44.791   2.535 +0.00 +0.25    +0.167 HD
DOCKED: ENDBRANCH  32  34
DOCKED: ENDBRANCH  31  32
DOCKED: ENDBRANCH  30  31
DOCKED: ENDBRANCH   6  30
DOCKED: BRANCH  29  36
DOCKED: ATOM     36  C   UNL d   1      29.366  40.025  -3.078 -0.05 +0.03    +0.190 C 
DOCKED: BRANCH  36  37
DOCKED: ATOM     37  O   UNL d   1      30.748  40.174  -2.926 +0.00 -0.07    -0.399 OA
DOCKED: ATOM     38  H   UNL d   1      30.873  40.455  -1.976 +0.01 +0.05    +0.209 HD
DOCKED: ENDBRANCH  36  37
DOCKED: ENDBRANCH  29  36
DOCKED: BRANCH  22  39
DOCKED: ATOM     39  C   UNL d   1      29.044  45.464  -0.564 -0.09 +0.02    +0.052 C 
DOCKED: BRANCH  39  40
DOCKED: ATOM     40  C   UNL d   1      30.380  45.836  -1.228 -0.07 +0.06    +0.115 C 
DOCKED: BRANCH  40  41
DOCKED: ATOM     41  C   UNL d   1      31.548  45.937  -0.270 -0.12 +0.15    +0.139 C 
DOCKED: ATOM     42  O   UNL d   1      32.620  46.360  -0.677 -0.32 -1.00    -0.650 OA
DOCKED: BRANCH  41  43
DOCKED: ATOM     43  O   UNL d   1      31.414  45.655   1.045 -0.41 -1.01    -0.776 OA
DOCKED: ATOM     44  H   UNL d   1      32.078  45.907   1.700 -0.39 +0.29    +0.167 HD
DOCKED: ENDBRANCH  41  43
DOCKED: ENDBRANCH  40  41
DOCKED: ENDBRANCH  39  40
DOCKED: ENDBRANCH  22  39
DOCKED: BRANCH  12  45
DOCKED: ATOM     45  C   UNL d   1      26.099  34.987  -3.330 -0.17 -0.00    +0.004 C 
DOCKED: ATOM     46  C   UNL d   1      24.813  34.646  -3.331 -0.29 -0.00    +0.012 C 
DOCKED: ENDBRANCH  12  45
DOCKED: BRANCH  17  47
DOCKED: ATOM     47  C   UNL d   1      25.300  42.040  -6.600 -0.13 +0.00    +0.004 C 
DOCKED: ATOM     48  C   UNL d   1      24.306  42.923  -6.488 -0.17 +0.00    +0.012 C 
DOCKED: ENDBRANCH  17  47
DOCKED: TORSDOF 12
DOCKED: TER
DOCKED: ENDMDL
________________________________________________________________________________


	BEGINNING GENETIC ALGORITHM DOCKING 31 of 100
Run: 31 Seed: 789315143 1136282567 [ Run 31 of 100 GA/GALS ]
Beginning LAMARCKIAN GENETIC ALGORITHM (LGA), with a maximum of 25000000 energy evaluations.

Final-Value: -11.389


	FINAL GENETIC ALGORITHM DOCKED STATE
	_______________________________________________


Detailed state:  trans 28.766 40.259 -1.627 quatxyzw -0.114829 -0.689545 0.592483 0.400381 center 8.781 34.984 -0.736 ntor 12 -175.3170 104.6819 42.5188 116.2518 121.7709 144.0137 75.5390 82.5863 33.0950 24.6362 -16.1855 135.5720
State:	 28.766  40.259  -1.627  -0.125 -0.752  0.647 132.796   -175.32  104.68   42.52  116.25  121.77  144.01   75.54   82.59   33.10   24.64  -16.19  135.57

DOCKED: MODEL       31
DOCKED: USER    Run = 31
DOCKED: USER    DPF = D:/Protein_go_brrr/autodock/final/2DN3/heme_Co/dock.dpf
DOCKED: USER  
DOCKED: USER    Estimated Free Energy of Binding    =   -6.24 kcal/mol  [=(1)+(2)+(3)-(4)]
DOCKED: USER    Estimated Inhibition Constant, Ki   =   26.67 uM (micromolar)  [Temperature = 298.15 K]
DOCKED: USER    
DOCKED: USER    (1) Final Intermolecular Energy     =   -9.82 kcal/mol
DOCKED: USER        vdW + Hbond + desolv Energy     =   -6.69 kcal/mol
DOCKED: USER        Electrostatic Energy            =   -3.13 kcal/mol
DOCKED: USER    (2) Final Total Internal Energy     =   -1.57 kcal/mol
DOCKED: USER    (3) Torsional Free Energy           =   +3.58 kcal/mol
DOCKED: USER    (4) Unbound System's Energy  [=(2)] =   -1.57 kcal/mol
DOCKED: USER    
DOCKED: USER    
DOCKED: USER    NEWDPF move heme_Co_opt.pdbqt
DOCKED: USER    NEWDPF about 8.781000 34.984000 -0.736000
DOCKED: USER    NEWDPF tran0 28.766144 40.258962 -1.627481
DOCKED: USER    NEWDPF quaternion0 -0.114829 -0.689545 0.592483 0.400381
DOCKED: USER    NEWDPF axisangle0 -0.125312 -0.752492 0.646570 132.795949
DOCKED: USER    NEWDPF quat0 -0.125312 -0.752492 0.646570 132.795949
DOCKED: USER    NEWDPF dihe0 -175.32 104.68 42.52 116.25 121.77 144.01 75.54 82.59 33.10 24.64 -16.19 135.57 
DOCKED: USER  keepresnum = 1 
DOCKED: USER  
DOCKED: REMARK  12 active torsions:
DOCKED: REMARK  status: ('A' for Active; 'I' for Inactive)
DOCKED: REMARK    1  A    between atoms: C_6  and  C_10 
DOCKED: REMARK    2  A    between atoms: C_10  and  C_11 
DOCKED: REMARK    3  A    between atoms: C_11  and  C_12 
DOCKED: REMARK    4  A    between atoms: C_12  and  O_14 
DOCKED: REMARK    5  A    between atoms: C_17  and  C_20 
DOCKED: REMARK    6  A    between atoms: C_24  and  C_27 
DOCKED: REMARK    7  A    between atoms: C_31  and  C_34 
DOCKED: REMARK    8  A    between atoms: C_34  and  C_35 
DOCKED: REMARK    9  A    between atoms: C_35  and  C_36 
DOCKED: REMARK   10  A    between atoms: C_36  and  O_38 
DOCKED: REMARK   11  A    between atoms: FE_43  and  C_44 
DOCKED: REMARK   12  A    between atoms: C_44  and  O_45 
DOCKED: USER                              x       y       z     vdW  Elec       q    Type
DOCKED: USER                           _______ _______ _______ _____ _____    ______ ____
DOCKED: ROOT
DOCKED: ATOM      1  C   UNL d   1      29.992  41.779  -0.677 -0.05 +0.02    +0.064 A 
DOCKED: ATOM      2  C   UNL d   1      29.041  37.263   0.470 -0.12 +0.01    +0.064 C 
DOCKED: ATOM      3  C   UNL d   1      25.949  36.953  -3.159 -0.23 +0.00    +0.064 A 
DOCKED: ATOM      4  C   UNL d   1      27.190  41.436  -4.583 -0.13 +0.01    +0.064 A 
DOCKED: ATOM      5  C   UNL d   1      29.932  40.579  -0.075 -0.06 +0.02    +0.066 A 
DOCKED: ATOM      6  C   UNL d   1      30.763  40.247   1.012 -0.07 -0.00    -0.021 A 
DOCKED: ATOM      7  C   UNL d   1      30.499  38.928   1.327 -0.08 -0.00    -0.025 A 
DOCKED: ATOM      8  C   UNL d   1      29.507  38.518   0.429 -0.09 +0.01    +0.066 A 
DOCKED: ATOM      9  C   UNL d   1      31.148  38.073   2.426 -0.11 +0.01    +0.051 C 
DOCKED: ATOM     10  C   UNL d   1      28.003  36.759  -0.395 -0.13 +0.01    +0.066 A 
DOCKED: ATOM     11  C   UNL d   1      27.372  35.499  -0.310 -0.18 -0.00    -0.021 A 
DOCKED: ATOM     12  C   UNL d   1      26.473  35.437  -1.378 -0.21 +0.00    +0.000 A 
DOCKED: ATOM     13  C   UNL d   1      26.612  36.664  -2.025 -0.14 +0.01    +0.070 A 
DOCKED: ATOM     14  C   UNL d   1      27.562  34.478   0.782 -0.23 +0.02    +0.052 C 
DOCKED: ATOM     15  C   UNL d   1      26.011  38.144  -3.984 -0.21 +0.01    +0.066 A 
DOCKED: ATOM     16  C   UNL d   1      25.410  38.321  -5.222 -0.22 -0.00    -0.021 A 
DOCKED: ATOM     17  C   UNL d   1      25.767  39.611  -5.637 -0.18 +0.00    +0.000 A 
DOCKED: ATOM     18  C   UNL d   1      26.547  40.128  -4.609 -0.19 +0.01    +0.070 A 
DOCKED: ATOM     19  C   UNL d   1      24.554  37.297  -5.935 -0.18 +0.00    +0.052 C 
DOCKED: ATOM     20  C   UNL d   1      28.023  41.927  -3.633 -0.09 +0.01    +0.066 A 
DOCKED: ATOM     21  C   UNL d   1      28.608  43.187  -3.737 -0.04 -0.00    -0.025 A 
DOCKED: ATOM     22  C   UNL d   1      29.399  43.325  -2.611 -0.03 -0.01    -0.021 A 
DOCKED: ATOM     23  C   UNL d   1      29.264  42.128  -1.876 -0.06 +0.02    +0.066 A 
DOCKED: ATOM     24  C   UNL d   1      28.439  44.202  -4.864 -0.02 +0.01    +0.051 C 
DOCKED: ATOM     25  N   UNL d   1      29.133  39.522  -0.447 -0.07 -0.04    -0.248 N 
DOCKED: ATOM     26  N   UNL d   1      27.496  37.484  -1.397 -0.07 -0.03    -0.248 N 
DOCKED: ATOM     27  N   UNL d   1      26.697  39.216  -3.654 -0.16 -0.03    -0.248 N 
DOCKED: ATOM     28  N   UNL d   1      28.434  41.278  -2.493 -0.07 -0.05    -0.248 N 
DOCKED: ATOM     29 FE   UNL d   1      27.843  39.364  -2.146 -0.04 +0.00    +0.000 Fe
DOCKED: ENDROOT
DOCKED: BRANCH   6  30
DOCKED: ATOM     30  C   UNL d   1      31.818  41.139   1.658 -0.13 +0.02    +0.052 C 
DOCKED: BRANCH  30  31
DOCKED: ATOM     31  C   UNL d   1      31.158  42.312   2.382 -0.22 +0.06    +0.115 C 
DOCKED: BRANCH  31  32
DOCKED: ATOM     32  C   UNL d   1      32.024  43.554   2.377 -0.25 +0.16    +0.139 C 
DOCKED: ATOM     33  O   UNL d   1      33.171  43.489   2.792 -0.44 -1.10    -0.650 OA
DOCKED: BRANCH  32  34
DOCKED: ATOM     34  O   UNL d   1      31.584  44.734   1.880 -0.13 -1.04    -0.776 OA
DOCKED: ATOM     35  H   UNL d   1      32.111  45.544   1.854 -0.29 +0.32    +0.167 HD
DOCKED: ENDBRANCH  32  34
DOCKED: ENDBRANCH  31  32
DOCKED: ENDBRANCH  30  31
DOCKED: ENDBRANCH   6  30
DOCKED: BRANCH  29  36
DOCKED: ATOM     36  C   UNL d   1      29.504  38.636  -3.198 -0.04 +0.03    +0.190 C 
DOCKED: BRANCH  36  37
DOCKED: ATOM     37  O   UNL d   1      30.891  38.473  -3.116 -0.00 -0.06    -0.399 OA
DOCKED: ATOM     38  H   UNL d   1      31.160  38.974  -2.296 +0.01 +0.04    +0.209 HD
DOCKED: ENDBRANCH  36  37
DOCKED: ENDBRANCH  29  36
DOCKED: BRANCH  22  39
DOCKED: ATOM     39  C   UNL d   1      30.283  44.517  -2.298 -0.03 +0.02    +0.052 C 
DOCKED: BRANCH  39  40
DOCKED: ATOM     40  C   UNL d   1      31.742  44.074  -2.100 -0.05 +0.06    +0.115 C 
DOCKED: BRANCH  40  41
DOCKED: ATOM     41  C   UNL d   1      32.603  45.072  -1.356 -0.05 +0.16    +0.139 C 
DOCKED: ATOM     42  O   UNL d   1      33.750  45.270  -1.731 -0.07 -0.81    -0.650 OA
DOCKED: BRANCH  41  43
DOCKED: ATOM     43  O   UNL d   1      32.111  45.816  -0.340 -0.50 -1.23    -0.776 OA
DOCKED: ATOM     44  H   UNL d   1      31.606  45.432   0.388 +0.01 +0.25    +0.167 HD
DOCKED: ENDBRANCH  41  43
DOCKED: ENDBRANCH  40  41
DOCKED: ENDBRANCH  39  40
DOCKED: ENDBRANCH  22  39
DOCKED: BRANCH  12  45
DOCKED: ATOM     45  C   UNL d   1      25.490  34.372  -1.847 -0.30 -0.00    +0.004 C 
DOCKED: ATOM     46  C   UNL d   1      24.161  34.336  -1.792 -0.47 -0.00    +0.012 C 
DOCKED: ENDBRANCH  12  45
DOCKED: BRANCH  17  47
DOCKED: ATOM     47  C   UNL d   1      25.462  40.320  -6.916 -0.12 +0.00    +0.004 C 
DOCKED: ATOM     48  C   UNL d   1      24.491  41.227  -7.043 -0.15 +0.00    +0.012 C 
DOCKED: ENDBRANCH  17  47
DOCKED: TORSDOF 12
DOCKED: TER
DOCKED: ENDMDL
________________________________________________________________________________


	BEGINNING GENETIC ALGORITHM DOCKING 32 of 100
Run: 32 Seed: 2063630633 468163365 [ Run 32 of 100 GA/GALS ]
Beginning LAMARCKIAN GENETIC ALGORITHM (LGA), with a maximum of 25000000 energy evaluations.

Final-Value: -12.568


	FINAL GENETIC ALGORITHM DOCKED STATE
	_______________________________________________


Detailed state:  trans 28.128 41.696 -0.767 quatxyzw -0.153309 -0.782782 0.360826 0.483274 center 8.781 34.984 -0.736 ntor 12 92.6696 108.9042 171.4724 115.6444 125.7088 120.0615 -117.4900 -4.7606 -78.8897 101.3379 161.2644 180.0000
State:	 28.128  41.696  -0.767  -0.175 -0.894  0.412 122.201     92.67  108.90  171.47  115.64  125.71  120.06 -117.49   -4.76  -78.89  101.34  161.26  180.00

DOCKED: MODEL       32
DOCKED: USER    Run = 32
DOCKED: USER    DPF = D:/Protein_go_brrr/autodock/final/2DN3/heme_Co/dock.dpf
DOCKED: USER  
DOCKED: USER    Estimated Free Energy of Binding    =   -6.34 kcal/mol  [=(1)+(2)+(3)-(4)]
DOCKED: USER    Estimated Inhibition Constant, Ki   =   22.42 uM (micromolar)  [Temperature = 298.15 K]
DOCKED: USER    
DOCKED: USER    (1) Final Intermolecular Energy     =   -9.92 kcal/mol
DOCKED: USER        vdW + Hbond + desolv Energy     =   -6.93 kcal/mol
DOCKED: USER        Electrostatic Energy            =   -2.99 kcal/mol
DOCKED: USER    (2) Final Total Internal Energy     =   -2.65 kcal/mol
DOCKED: USER    (3) Torsional Free Energy           =   +3.58 kcal/mol
DOCKED: USER    (4) Unbound System's Energy  [=(2)] =   -2.65 kcal/mol
DOCKED: USER    
DOCKED: USER    
DOCKED: USER    NEWDPF move heme_Co_opt.pdbqt
DOCKED: USER    NEWDPF about 8.781000 34.984000 -0.736000
DOCKED: USER    NEWDPF tran0 28.128141 41.696261 -0.766938
DOCKED: USER    NEWDPF quaternion0 -0.153309 -0.782782 0.360826 0.483274
DOCKED: USER    NEWDPF axisangle0 -0.175117 -0.894128 0.412151 122.201086
DOCKED: USER    NEWDPF quat0 -0.175117 -0.894128 0.412151 122.201086
DOCKED: USER    NEWDPF dihe0 92.67 108.90 171.47 115.64 125.71 120.06 -117.49 -4.76 -78.89 101.34 161.26 180.00 
DOCKED: USER  keepresnum = 1 
DOCKED: USER  
DOCKED: REMARK  12 active torsions:
DOCKED: REMARK  status: ('A' for Active; 'I' for Inactive)
DOCKED: REMARK    1  A    between atoms: C_6  and  C_10 
DOCKED: REMARK    2  A    between atoms: C_10  and  C_11 
DOCKED: REMARK    3  A    between atoms: C_11  and  C_12 
DOCKED: REMARK    4  A    between atoms: C_12  and  O_14 
DOCKED: REMARK    5  A    between atoms: C_17  and  C_20 
DOCKED: REMARK    6  A    between atoms: C_24  and  C_27 
DOCKED: REMARK    7  A    between atoms: C_31  and  C_34 
DOCKED: REMARK    8  A    between atoms: C_34  and  C_35 
DOCKED: REMARK    9  A    between atoms: C_35  and  C_36 
DOCKED: REMARK   10  A    between atoms: C_36  and  O_38 
DOCKED: REMARK   11  A    between atoms: FE_43  and  C_44 
DOCKED: REMARK   12  A    between atoms: C_44  and  O_45 
DOCKED: USER                              x       y       z     vdW  Elec       q    Type
DOCKED: USER                           _______ _______ _______ _____ _____    ______ ____
DOCKED: ROOT
DOCKED: ATOM      1  C   UNL d   1      28.813  42.858   0.935 -0.16 +0.03    +0.064 A 
DOCKED: ATOM      2  C   UNL d   1      29.048  38.216  -0.066 -0.13 +0.01    +0.064 C 
DOCKED: ATOM      3  C   UNL d   1      26.451  38.898  -4.019 -0.19 +0.01    +0.064 A 
DOCKED: ATOM      4  C   UNL d   1      26.525  43.697  -3.223 -0.17 +0.01    +0.064 A 
DOCKED: ATOM      5  C   UNL d   1      29.037  41.534   0.971 -0.13 +0.02    +0.066 A 
DOCKED: ATOM      6  C   UNL d   1      29.840  40.939   1.963 -0.15 -0.00    -0.021 A 
DOCKED: ATOM      7  C   UNL d   1      29.924  39.595   1.655 -0.11 -0.00    -0.025 A 
DOCKED: ATOM      8  C   UNL d   1      29.155  39.426   0.498 -0.11 +0.01    +0.066 A 
DOCKED: ATOM      9  C   UNL d   1      30.694  38.501   2.410 -0.12 +0.00    +0.051 C 
DOCKED: ATOM     10  C   UNL d   1      28.259  37.940  -1.241 -0.14 +0.01    +0.066 A 
DOCKED: ATOM     11  C   UNL d   1      27.992  36.671  -1.800 -0.14 -0.00    -0.021 A 
DOCKED: ATOM     12  C   UNL d   1      27.230  36.899  -2.949 -0.19 +0.00    +0.000 A 
DOCKED: ATOM     13  C   UNL d   1      27.078  38.285  -2.999 -0.17 +0.01    +0.070 A 
DOCKED: ATOM     14  C   UNL d   1      28.369  35.338  -1.206 -0.10 +0.01    +0.052 C 
DOCKED: ATOM     15  C   UNL d   1      26.250  40.314  -4.256 -0.18 +0.01    +0.066 A 
DOCKED: ATOM     16  C   UNL d   1      25.721  40.889  -5.403 -0.17 -0.00    -0.021 A 
DOCKED: ATOM     17  C   UNL d   1      25.743  42.273  -5.179 -0.18 +0.00    +0.000 A 
DOCKED: ATOM     18  C   UNL d   1      26.269  42.433  -3.902 -0.21 +0.01    +0.070 A 
DOCKED: ATOM     19  C   UNL d   1      25.237  40.133  -6.620 -0.14 +0.01    +0.052 C 
DOCKED: ATOM     20  C   UNL d   1      27.115  43.880  -2.017 -0.16 +0.02    +0.066 A 
DOCKED: ATOM     21  C   UNL d   1      27.340  45.148  -1.484 -0.12 -0.01    -0.025 A 
DOCKED: ATOM     22  C   UNL d   1      27.972  44.936  -0.273 -0.14 -0.01    -0.021 A 
DOCKED: ATOM     23  C   UNL d   1      28.114  43.539  -0.131 -0.15 +0.02    +0.066 A 
DOCKED: ATOM     24  C   UNL d   1      26.987  46.496  -2.107 -0.08 +0.01    +0.051 C 
DOCKED: ATOM     25  N   UNL d   1      28.589  40.609   0.055 -0.08 -0.05    -0.248 N 
DOCKED: ATOM     26  N   UNL d   1      27.652  38.908  -1.936 -0.06 -0.03    -0.248 N 
DOCKED: ATOM     27  N   UNL d   1      26.588  41.247  -3.394 -0.08 -0.05    -0.248 N 
DOCKED: ATOM     28  N   UNL d   1      27.598  42.897  -1.186 -0.11 -0.07    -0.248 N 
DOCKED: ATOM     29 FE   UNL d   1      27.529  40.951  -1.771 -0.05 +0.00    +0.000 Fe
DOCKED: ENDROOT
DOCKED: BRANCH   6  30
DOCKED: ATOM     30  C   UNL d   1      30.557  41.654   3.103 -0.30 +0.01    +0.052 C 
DOCKED: BRANCH  30  31
DOCKED: ATOM     31  C   UNL d   1      32.072  41.544   2.939 -0.28 +0.04    +0.115 C 
DOCKED: BRANCH  31  32
DOCKED: ATOM     32  C   UNL d   1      32.679  42.789   2.329 -0.23 +0.15    +0.139 C 
DOCKED: ATOM     33  O   UNL d   1      33.420  43.489   3.003 -0.57 -1.06    -0.650 OA
DOCKED: BRANCH  32  34
DOCKED: ATOM     34  O   UNL d   1      32.465  43.133   1.037 +0.07 -1.04    -0.776 OA
DOCKED: ATOM     35  H   UNL d   1      31.723  43.675   0.735 +0.04 +0.19    +0.167 HD
DOCKED: ENDBRANCH  32  34
DOCKED: ENDBRANCH  31  32
DOCKED: ENDBRANCH  30  31
DOCKED: ENDBRANCH   6  30
DOCKED: BRANCH  29  36
DOCKED: ATOM     36  C   UNL d   1      29.402  41.136  -2.693 -0.05 +0.04    +0.190 C 
DOCKED: BRANCH  36  37
DOCKED: ATOM     37  O   UNL d   1      30.707  41.594  -2.482 +0.00 -0.10    -0.399 OA
DOCKED: ATOM     38  H   UNL d   1      30.688  42.016  -1.579 +0.02 +0.07    +0.209 HD
DOCKED: ENDBRANCH  36  37
DOCKED: ENDBRANCH  29  36
DOCKED: BRANCH  22  39
DOCKED: ATOM     39  C   UNL d   1      28.469  46.023   0.662 -0.11 +0.03    +0.052 C 
DOCKED: BRANCH  39  40
DOCKED: ATOM     40  C   UNL d   1      29.800  46.605   0.159 -0.13 +0.06    +0.115 C 
DOCKED: BRANCH  40  41
DOCKED: ATOM     41  C   UNL d   1      31.024  45.815   0.575 -0.18 +0.13    +0.139 C 
DOCKED: ATOM     42  O   UNL d   1      31.878  45.552  -0.259 -0.47 -0.96    -0.650 OA
DOCKED: BRANCH  41  43
DOCKED: ATOM     43  O   UNL d   1      31.240  45.467   1.863 -0.14 -0.82    -0.776 OA
DOCKED: ATOM     44  H   UNL d   1      32.000  44.938   2.137 -0.03 +0.28    +0.167 HD
DOCKED: ENDBRANCH  41  43
DOCKED: ENDBRANCH  40  41
DOCKED: ENDBRANCH  39  40
DOCKED: ENDBRANCH  22  39
DOCKED: BRANCH  12  45
DOCKED: ATOM     45  C   UNL d   1      26.616  35.972  -3.988 -0.15 +0.00    +0.004 C 
DOCKED: ATOM     46  C   UNL d   1      25.349  35.626  -4.199 -0.21 -0.00    +0.012 C 
DOCKED: ENDBRANCH  12  45
DOCKED: BRANCH  17  47
DOCKED: ATOM     47  C   UNL d   1      25.356  43.393  -6.089 -0.12 +0.00    +0.004 C 
DOCKED: ATOM     48  C   UNL d   1      24.219  44.082  -5.968 -0.17 +0.00    +0.012 C 
DOCKED: ENDBRANCH  17  47
DOCKED: TORSDOF 12
DOCKED: TER
DOCKED: ENDMDL
________________________________________________________________________________


	BEGINNING GENETIC ALGORITHM DOCKING 33 of 100
Run: 33 Seed: 1771451084 1294764602 [ Run 33 of 100 GA/GALS ]
Beginning LAMARCKIAN GENETIC ALGORITHM (LGA), with a maximum of 25000000 energy evaluations.

Final-Value: -18.296


	FINAL GENETIC ALGORITHM DOCKED STATE
	_______________________________________________


Detailed state:  trans 41.011 29.013 16.272 quatxyzw 0.362672 -0.405373 -0.837398 0.053913 center 8.781 34.984 -0.736 ntor 12 91.2632 107.6874 103.0219 -92.9316 -46.6058 0.2643 137.1401 -88.4854 10.8546 -12.5540 -19.6306 -55.4624
State:	 41.011  29.013  16.272   0.363 -0.406 -0.839 173.819     91.26  107.69  103.02  -92.93  -46.61    0.26  137.14  -88.49   10.85  -12.55  -19.63  -55.46

DOCKED: MODEL       33
DOCKED: USER    Run = 33
DOCKED: USER    DPF = D:/Protein_go_brrr/autodock/final/2DN3/heme_Co/dock.dpf
DOCKED: USER  
DOCKED: USER    Estimated Free Energy of Binding    =  -14.28 kcal/mol  [=(1)+(2)+(3)-(4)]
DOCKED: USER    Estimated Inhibition Constant, Ki   =   33.89 pM (picomolar)  [Temperature = 298.15 K]
DOCKED: USER    
DOCKED: USER    (1) Final Intermolecular Energy     =  -17.86 kcal/mol
DOCKED: USER        vdW + Hbond + desolv Energy     =  -15.51 kcal/mol
DOCKED: USER        Electrostatic Energy            =   -2.36 kcal/mol
DOCKED: USER    (2) Final Total Internal Energy     =   -0.43 kcal/mol
DOCKED: USER    (3) Torsional Free Energy           =   +3.58 kcal/mol
DOCKED: USER    (4) Unbound System's Energy  [=(2)] =   -0.43 kcal/mol
DOCKED: USER    
DOCKED: USER    
DOCKED: USER    NEWDPF move heme_Co_opt.pdbqt
DOCKED: USER    NEWDPF about 8.781000 34.984000 -0.736000
DOCKED: USER    NEWDPF tran0 41.011402 29.013445 16.272158
DOCKED: USER    NEWDPF quaternion0 0.362672 -0.405373 -0.837398 0.053913
DOCKED: USER    NEWDPF axisangle0 0.363200 -0.405964 -0.838617 173.818973
DOCKED: USER    NEWDPF quat0 0.363200 -0.405964 -0.838617 173.818973
DOCKED: USER    NEWDPF dihe0 91.26 107.69 103.02 -92.93 -46.61 0.26 137.14 -88.49 10.85 -12.55 -19.63 -55.46 
DOCKED: USER  keepresnum = 1 
DOCKED: USER  
DOCKED: REMARK  12 active torsions:
DOCKED: REMARK  status: ('A' for Active; 'I' for Inactive)
DOCKED: REMARK    1  A    between atoms: C_6  and  C_10 
DOCKED: REMARK    2  A    between atoms: C_10  and  C_11 
DOCKED: REMARK    3  A    between atoms: C_11  and  C_12 
DOCKED: REMARK    4  A    between atoms: C_12  and  O_14 
DOCKED: REMARK    5  A    between atoms: C_17  and  C_20 
DOCKED: REMARK    6  A    between atoms: C_24  and  C_27 
DOCKED: REMARK    7  A    between atoms: C_31  and  C_34 
DOCKED: REMARK    8  A    between atoms: C_34  and  C_35 
DOCKED: REMARK    9  A    between atoms: C_35  and  C_36 
DOCKED: REMARK   10  A    between atoms: C_36  and  O_38 
DOCKED: REMARK   11  A    between atoms: FE_43  and  C_44 
DOCKED: REMARK   12  A    between atoms: C_44  and  O_45 
DOCKED: USER                              x       y       z     vdW  Elec       q    Type
DOCKED: USER                           _______ _______ _______ _____ _____    ______ ____
DOCKED: ROOT
DOCKED: ATOM      1  C   UNL d   1      42.713  28.465  17.504 -0.14 +0.02    +0.064 A 
DOCKED: ATOM      2  C   UNL d   1      40.710  32.661  16.508 -0.48 +0.01    +0.064 C 
DOCKED: ATOM      3  C   UNL d   1      37.721  30.547  13.437 -0.36 +0.01    +0.064 A 
DOCKED: ATOM      4  C   UNL d   1      39.492  26.203  14.725 -0.41 +0.01    +0.064 A 
DOCKED: ATOM      5  C   UNL d   1      42.410  29.772  17.430 -0.26 +0.02    +0.066 A 
DOCKED: ATOM      6  C   UNL d   1      43.033  30.731  18.252 -0.36 -0.01    -0.021 A 
DOCKED: ATOM      7  C   UNL d   1      42.432  31.944  17.974 -0.44 -0.01    -0.025 A 
DOCKED: ATOM      8  C   UNL d   1      41.480  31.675  16.985 -0.40 +0.01    +0.066 A 
DOCKED: ATOM      9  C   UNL d   1      42.731  33.311  18.608 -0.41 +0.01    +0.051 C 
DOCKED: ATOM     10  C   UNL d   1      39.723  32.485  15.472 -0.39 +0.01    +0.066 A 
DOCKED: ATOM     11  C   UNL d   1      38.983  33.501  14.830 -0.43 -0.00    -0.021 A 
DOCKED: ATOM     12  C   UNL d   1      38.122  32.857  13.937 -0.40 +0.00    +0.000 A 
DOCKED: ATOM     13  C   UNL d   1      38.409  31.500  14.090 -0.37 +0.01    +0.070 A 
DOCKED: ATOM     14  C   UNL d   1      39.170  34.987  15.004 -0.55 +0.01    +0.052 C 
DOCKED: ATOM     15  C   UNL d   1      37.848  29.105  13.515 -0.38 +0.01    +0.066 A 
DOCKED: ATOM     16  C   UNL d   1      37.009  28.171  12.923 -0.48 -0.00    -0.021 A 
DOCKED: ATOM     17  C   UNL d   1      37.514  26.917  13.294 -0.46 +0.00    +0.000 A 
DOCKED: ATOM     18  C   UNL d   1      38.636  27.185  14.072 -0.37 +0.01    +0.070 A 
DOCKED: ATOM     19  C   UNL d   1      35.807  28.493  12.064 -0.66 +0.01    +0.052 C 
DOCKED: ATOM     20  C   UNL d   1      40.535  26.441  15.556 -0.38 +0.02    +0.066 A 
DOCKED: ATOM     21  C   UNL d   1      41.260  25.412  16.153 -0.38 -0.01    -0.025 A 
DOCKED: ATOM     22  C   UNL d   1      42.214  26.034  16.937 -0.36 -0.01    -0.021 A 
DOCKED: ATOM     23  C   UNL d   1      42.014  27.423  16.788 -0.32 +0.02    +0.066 A 
DOCKED: ATOM     24  C   UNL d   1      41.042  23.909  15.999 -0.55 +0.01    +0.051 C 
DOCKED: ATOM     25  N   UNL d   1      41.448  30.338  16.625 -0.14 -0.08    -0.248 N 
DOCKED: ATOM     26  N   UNL d   1      39.415  31.281  14.977 -0.19 -0.05    -0.248 N 
DOCKED: ATOM     27  N   UNL d   1      38.787  28.498  14.207 -0.19 -0.06    -0.248 N 
DOCKED: ATOM     28  N   UNL d   1      40.997  27.673  15.955 -0.22 -0.09    -0.248 N 
DOCKED: ATOM     29 FE   UNL d   1      40.040  29.360  15.345 -0.04 +0.00    +0.000 Fe
DOCKED: ENDROOT
DOCKED: BRANCH   6  30
DOCKED: ATOM     30  C   UNL d   1      44.100  30.468  19.309 -0.29 +0.02    +0.052 C 
DOCKED: BRANCH  30  31
DOCKED: ATOM     31  C   UNL d   1      45.380  29.941  18.662 -0.21 +0.05    +0.115 C 
DOCKED: BRANCH  31  32
DOCKED: ATOM     32  C   UNL d   1      46.388  29.462  19.684 -0.15 +0.10    +0.139 C 
DOCKED: ATOM     33  O   UNL d   1      46.067  29.399  20.862 -0.36 -0.89    -0.650 OA
DOCKED: BRANCH  32  34
DOCKED: ATOM     34  O   UNL d   1      47.629  29.051  19.331 +0.04 -0.42    -0.776 OA
DOCKED: ATOM     35  H   UNL d   1      48.389  29.641  19.233 +0.03 +0.07    +0.167 HD
DOCKED: ENDBRANCH  32  34
DOCKED: ENDBRANCH  31  32
DOCKED: ENDBRANCH  30  31
DOCKED: ENDBRANCH   6  30
DOCKED: BRANCH  29  36
DOCKED: ATOM     36  C   UNL d   1      38.766  29.266  17.007 -0.34 +0.05    +0.190 C 
DOCKED: BRANCH  36  37
DOCKED: ATOM     37  O   UNL d   1      37.703  28.542  17.556 -0.25 -0.08    -0.399 OA
DOCKED: ATOM     38  H   UNL d   1      37.451  27.882  16.851 +0.13 +0.04    +0.209 HD
DOCKED: ENDBRANCH  36  37
DOCKED: ENDBRANCH  29  36
DOCKED: BRANCH  22  39
DOCKED: ATOM     39  C   UNL d   1      43.217  25.327  17.829 -0.35 +0.02    +0.052 C 
DOCKED: BRANCH  39  40
DOCKED: ATOM     40  C   UNL d   1      43.874  24.153  17.083 -0.21 +0.06    +0.115 C 
DOCKED: BRANCH  40  41
DOCKED: ATOM     41  C   UNL d   1      45.165  23.663  17.703 -0.23 +0.11    +0.139 C 
DOCKED: ATOM     42  O   UNL d   1      45.199  23.422  18.902 -0.07 -0.41    -0.650 OA
DOCKED: BRANCH  41  43
DOCKED: ATOM     43  O   UNL d   1      46.258  23.400  16.954 -0.33 -1.25    -0.776 OA
DOCKED: ATOM     44  H   UNL d   1      47.049  23.956  16.976 +0.03 +0.26    +0.167 HD
DOCKED: ENDBRANCH  41  43
DOCKED: ENDBRANCH  40  41
DOCKED: ENDBRANCH  39  40
DOCKED: ENDBRANCH  22  39
DOCKED: BRANCH  12  45
DOCKED: ATOM     45  C   UNL d   1      37.081  33.366  12.948 -0.51 +0.00    +0.004 C 
DOCKED: ATOM     46  C   UNL d   1      35.755  33.416  13.036 -0.59 +0.00    +0.012 C 
DOCKED: ENDBRANCH  12  45
DOCKED: BRANCH  17  47
DOCKED: ATOM     47  C   UNL d   1      36.984  25.551  13.004 -0.63 +0.00    +0.004 C 
DOCKED: ATOM     48  C   UNL d   1      35.847  25.077  13.519 -0.71 +0.00    +0.012 C 
DOCKED: ENDBRANCH  17  47
DOCKED: TORSDOF 12
DOCKED: TER
DOCKED: ENDMDL
________________________________________________________________________________


	BEGINNING GENETIC ALGORITHM DOCKING 34 of 100
Run: 34 Seed: 890460809 1822080203 [ Run 34 of 100 GA/GALS ]
Beginning LAMARCKIAN GENETIC ALGORITHM (LGA), with a maximum of 25000000 energy evaluations.

Final-Value: -11.162


	FINAL GENETIC ALGORITHM DOCKED STATE
	_______________________________________________


Detailed state:  trans 42.251 44.520 3.079 quatxyzw 0.742554 -0.585682 -0.022110 0.324195 center 8.781 34.984 -0.736 ntor 12 16.4819 134.5765 -46.3769 116.8017 105.6113 76.7747 -134.0879 -28.3924 -46.2323 -176.4666 -171.4997 168.9556
State:	 42.251  44.520   3.079   0.785 -0.619 -0.023 142.166     16.48  134.58  -46.38  116.80  105.61   76.77 -134.09  -28.39  -46.23 -176.47 -171.50  168.96

DOCKED: MODEL       34
DOCKED: USER    Run = 34
DOCKED: USER    DPF = D:/Protein_go_brrr/autodock/final/2DN3/heme_Co/dock.dpf
DOCKED: USER  
DOCKED: USER    Estimated Free Energy of Binding    =   -4.90 kcal/mol  [=(1)+(2)+(3)-(4)]
DOCKED: USER    Estimated Inhibition Constant, Ki   =  255.70 uM (micromolar)  [Temperature = 298.15 K]
DOCKED: USER    
DOCKED: USER    (1) Final Intermolecular Energy     =   -8.48 kcal/mol
DOCKED: USER        vdW + Hbond + desolv Energy     =   -6.58 kcal/mol
DOCKED: USER        Electrostatic Energy            =   -1.90 kcal/mol
DOCKED: USER    (2) Final Total Internal Energy     =   -2.68 kcal/mol
DOCKED: USER    (3) Torsional Free Energy           =   +3.58 kcal/mol
DOCKED: USER    (4) Unbound System's Energy  [=(2)] =   -2.68 kcal/mol
DOCKED: USER    
DOCKED: USER    
DOCKED: USER    NEWDPF move heme_Co_opt.pdbqt
DOCKED: USER    NEWDPF about 8.781000 34.984000 -0.736000
DOCKED: USER    NEWDPF tran0 42.250940 44.519549 3.078700
DOCKED: USER    NEWDPF quaternion0 0.742554 -0.585682 -0.022110 0.324195
DOCKED: USER    NEWDPF axisangle0 0.784948 -0.619120 -0.023373 142.166394
DOCKED: USER    NEWDPF quat0 0.784948 -0.619120 -0.023373 142.166394
DOCKED: USER    NEWDPF dihe0 16.48 134.58 -46.38 116.80 105.61 76.77 -134.09 -28.39 -46.23 -176.47 -171.50 168.96 
DOCKED: USER  keepresnum = 1 
DOCKED: USER  
DOCKED: REMARK  12 active torsions:
DOCKED: REMARK  status: ('A' for Active; 'I' for Inactive)
DOCKED: REMARK    1  A    between atoms: C_6  and  C_10 
DOCKED: REMARK    2  A    between atoms: C_10  and  C_11 
DOCKED: REMARK    3  A    between atoms: C_11  and  C_12 
DOCKED: REMARK    4  A    between atoms: C_12  and  O_14 
DOCKED: REMARK    5  A    between atoms: C_17  and  C_20 
DOCKED: REMARK    6  A    between atoms: C_24  and  C_27 
DOCKED: REMARK    7  A    between atoms: C_31  and  C_34 
DOCKED: REMARK    8  A    between atoms: C_34  and  C_35 
DOCKED: REMARK    9  A    between atoms: C_35  and  C_36 
DOCKED: REMARK   10  A    between atoms: C_36  and  O_38 
DOCKED: REMARK   11  A    between atoms: FE_43  and  C_44 
DOCKED: REMARK   12  A    between atoms: C_44  and  O_45 
DOCKED: USER                              x       y       z     vdW  Elec       q    Type
DOCKED: USER                           _______ _______ _______ _____ _____    ______ ____
DOCKED: ROOT
DOCKED: ATOM      1  C   UNL d   1      40.909  45.692   4.320 -0.24 +0.01    +0.064 A 
DOCKED: ATOM      2  C   UNL d   1      44.951  46.786   2.066 -0.09 -0.00    +0.064 C 
DOCKED: ATOM      3  C   UNL d   1      45.496  42.225   0.750 -0.08 +0.01    +0.064 A 
DOCKED: ATOM      4  C   UNL d   1      41.176  41.156   2.715 -0.23 +0.01    +0.064 A 
DOCKED: ATOM      5  C   UNL d   1      41.992  46.319   3.832 -0.22 +0.00    +0.066 A 
DOCKED: ATOM      6  C   UNL d   1      42.167  47.712   3.951 -0.20 +0.00    -0.021 A 
DOCKED: ATOM      7  C   UNL d   1      43.329  48.027   3.276 -0.09 +0.00    -0.025 A 
DOCKED: ATOM      8  C   UNL d   1      43.823  46.812   2.788 -0.12 -0.00    +0.066 A 
DOCKED: ATOM      9  C   UNL d   1      43.964  49.413   3.088 -0.10 -0.01    +0.051 C 
DOCKED: ATOM     10  C   UNL d   1      45.548  45.582   1.546 -0.07 -0.00    +0.066 A 
DOCKED: ATOM     11  C   UNL d   1      46.801  45.471   0.903 -0.04 +0.00    -0.021 A 
DOCKED: ATOM     12  C   UNL d   1      46.936  44.130   0.534 -0.05 +0.00    +0.000 A 
DOCKED: ATOM     13  C   UNL d   1      45.765  43.521   0.988 -0.08 +0.01    +0.070 A 
DOCKED: ATOM     14  C   UNL d   1      47.825  46.566   0.750 -0.02 -0.00    +0.052 C 
DOCKED: ATOM     15  C   UNL d   1      44.320  41.452   1.099 -0.06 +0.01    +0.066 A 
DOCKED: ATOM     16  C   UNL d   1      44.040  40.153   0.697 -0.12 -0.00    -0.021 A 
DOCKED: ATOM     17  C   UNL d   1      42.794  39.841   1.259 -0.18 +0.00    +0.000 A 
DOCKED: ATOM     18  C   UNL d   1      42.419  40.972   1.976 -0.12 +0.02    +0.070 A 
DOCKED: ATOM     19  C   UNL d   1      44.931  39.293  -0.172 -0.08 +0.01    +0.052 C 
DOCKED: ATOM     20  C   UNL d   1      40.750  42.276   3.347 -0.23 +0.02    +0.066 A 
DOCKED: ATOM     21  C   UNL d   1      39.518  42.342   3.994 -0.33 -0.01    -0.025 A 
DOCKED: ATOM     22  C   UNL d   1      39.427  43.629   4.491 -0.31 -0.01    -0.021 A 
DOCKED: ATOM     23  C   UNL d   1      40.612  44.293   4.110 -0.22 +0.01    +0.066 A 
DOCKED: ATOM     24  C   UNL d   1      38.470  41.239   4.116 -0.20 +0.01    +0.051 C 
DOCKED: ATOM     25  N   UNL d   1      43.018  45.736   3.122 -0.11 -0.01    -0.248 N 
DOCKED: ATOM     26  N   UNL d   1      44.953  44.388   1.649 -0.07 -0.02    -0.248 N 
DOCKED: ATOM     27  N   UNL d   1      43.337  41.922   1.833 +0.12 -0.05    -0.248 N 
DOCKED: ATOM     28  N   UNL d   1      41.415  43.478   3.415 -0.12 -0.06    -0.248 N 
DOCKED: ATOM     29 FE   UNL d   1      43.184  43.715   2.442 -0.04 +0.00    +0.000 Fe
DOCKED: ENDROOT
DOCKED: BRANCH   6  30
DOCKED: ATOM     30  C   UNL d   1      41.209  48.695   4.616 -0.30 -0.01    +0.052 C 
DOCKED: BRANCH  30  31
DOCKED: ATOM     31  C   UNL d   1      40.157  49.178   3.618 -0.21 +0.02    +0.115 C 
DOCKED: BRANCH  31  32
DOCKED: ATOM     32  C   UNL d   1      38.753  49.103   4.177 -0.35 +0.06    +0.139 C 
DOCKED: ATOM     33  O   UNL d   1      38.249  50.099   4.674 -0.19 -0.66    -0.650 OA
DOCKED: BRANCH  32  34
DOCKED: ATOM     34  O   UNL d   1      38.010  47.973   4.104 -0.45 -0.50    -0.776 OA
DOCKED: ATOM     35  H   UNL d   1      38.362  47.107   3.857 +0.07 +0.09    +0.167 HD
DOCKED: ENDBRANCH  32  34
DOCKED: ENDBRANCH  31  32
DOCKED: ENDBRANCH  30  31
DOCKED: ENDBRANCH   6  30
DOCKED: BRANCH  29  36
DOCKED: ATOM     36  C   UNL d   1      42.175  44.334   0.711 -0.04 +0.03    +0.190 C 
DOCKED: BRANCH  36  37
DOCKED: ATOM     37  O   UNL d   1      40.906  44.646   0.213 -0.01 -0.09    -0.399 OA
DOCKED: ATOM     38  H   UNL d   1      40.361  44.866   1.019 +0.04 +0.06    +0.209 HD
DOCKED: ENDBRANCH  36  37
DOCKED: ENDBRANCH  29  36
DOCKED: BRANCH  22  39
DOCKED: ATOM     39  C   UNL d   1      38.234  44.202   5.235 -0.35 +0.02    +0.052 C 
DOCKED: BRANCH  39  40
DOCKED: ATOM     40  C   UNL d   1      37.236  44.837   4.252 -0.35 +0.08    +0.115 C 
DOCKED: BRANCH  40  41
DOCKED: ATOM     41  C   UNL d   1      37.674  44.796   2.803 -0.24 +0.11    +0.139 C 
DOCKED: ATOM     42  O   UNL d   1      37.089  44.059   2.022 -0.03 -0.72    -0.650 OA
DOCKED: BRANCH  41  43
DOCKED: ATOM     43  O   UNL d   1      38.638  45.617   2.329 +0.03 -0.46    -0.776 OA
DOCKED: ATOM     44  H   UNL d   1      38.708  46.543   2.594 +0.05 +0.09    +0.167 HD
DOCKED: ENDBRANCH  41  43
DOCKED: ENDBRANCH  40  41
DOCKED: ENDBRANCH  39  40
DOCKED: ENDBRANCH  22  39
DOCKED: BRANCH  12  45
DOCKED: ATOM     45  C   UNL d   1      48.038  43.354  -0.175 -0.02 +0.00    +0.004 C 
DOCKED: ATOM     46  C   UNL d   1      48.902  42.456   0.290 -0.03 +0.00    +0.012 C 
DOCKED: ENDBRANCH  12  45
DOCKED: BRANCH  17  47
DOCKED: ATOM     47  C   UNL d   1      41.965  38.608   1.115 -0.25 +0.00    +0.004 C 
DOCKED: ATOM     48  C   UNL d   1      42.141  37.510   1.855 -0.27 +0.00    +0.012 C 
DOCKED: ENDBRANCH  17  47
DOCKED: TORSDOF 12
DOCKED: TER
DOCKED: ENDMDL
________________________________________________________________________________


	BEGINNING GENETIC ALGORITHM DOCKING 35 of 100
Run: 35 Seed: 233181278 2332544 [ Run 35 of 100 GA/GALS ]
Beginning LAMARCKIAN GENETIC ALGORITHM (LGA), with a maximum of 25000000 energy evaluations.

Final-Value: -12.271


	FINAL GENETIC ALGORITHM DOCKED STATE
	_______________________________________________


Detailed state:  trans 28.110 41.446 -1.110 quatxyzw -0.118923 -0.775680 0.392089 0.480047 center 8.781 34.984 -0.736 ntor 12 -10.6123 118.4077 80.3963 116.0899 134.9386 96.9840 -126.7407 -79.8776 -26.8882 103.2715 -174.4969 -178.1751
State:	 28.110  41.446  -1.110  -0.136 -0.884  0.447 122.623    -10.61  118.41   80.40  116.09  134.94   96.98 -126.74  -79.88  -26.89  103.27 -174.50 -178.18

DOCKED: MODEL       35
DOCKED: USER    Run = 35
DOCKED: USER    DPF = D:/Protein_go_brrr/autodock/final/2DN3/heme_Co/dock.dpf
DOCKED: USER  
DOCKED: USER    Estimated Free Energy of Binding    =   -6.34 kcal/mol  [=(1)+(2)+(3)-(4)]
DOCKED: USER    Estimated Inhibition Constant, Ki   =   22.35 uM (micromolar)  [Temperature = 298.15 K]
DOCKED: USER    
DOCKED: USER    (1) Final Intermolecular Energy     =   -9.92 kcal/mol
DOCKED: USER        vdW + Hbond + desolv Energy     =   -7.20 kcal/mol
DOCKED: USER        Electrostatic Energy            =   -2.73 kcal/mol
DOCKED: USER    (2) Final Total Internal Energy     =   -2.35 kcal/mol
DOCKED: USER    (3) Torsional Free Energy           =   +3.58 kcal/mol
DOCKED: USER    (4) Unbound System's Energy  [=(2)] =   -2.35 kcal/mol
DOCKED: USER    
DOCKED: USER    
DOCKED: USER    NEWDPF move heme_Co_opt.pdbqt
DOCKED: USER    NEWDPF about 8.781000 34.984000 -0.736000
DOCKED: USER    NEWDPF tran0 28.110307 41.446314 -1.109844
DOCKED: USER    NEWDPF quaternion0 -0.118923 -0.775680 0.392089 0.480047
DOCKED: USER    NEWDPF axisangle0 -0.135564 -0.884225 0.446956 122.623083
DOCKED: USER    NEWDPF quat0 -0.135564 -0.884225 0.446956 122.623083
DOCKED: USER    NEWDPF dihe0 -10.61 118.41 80.40 116.09 134.94 96.98 -126.74 -79.88 -26.89 103.27 -174.50 -178.18 
DOCKED: USER  keepresnum = 1 
DOCKED: USER  
DOCKED: REMARK  12 active torsions:
DOCKED: REMARK  status: ('A' for Active; 'I' for Inactive)
DOCKED: REMARK    1  A    between atoms: C_6  and  C_10 
DOCKED: REMARK    2  A    between atoms: C_10  and  C_11 
DOCKED: REMARK    3  A    between atoms: C_11  and  C_12 
DOCKED: REMARK    4  A    between atoms: C_12  and  O_14 
DOCKED: REMARK    5  A    between atoms: C_17  and  C_20 
DOCKED: REMARK    6  A    between atoms: C_24  and  C_27 
DOCKED: REMARK    7  A    between atoms: C_31  and  C_34 
DOCKED: REMARK    8  A    between atoms: C_34  and  C_35 
DOCKED: REMARK    9  A    between atoms: C_35  and  C_36 
DOCKED: REMARK   10  A    between atoms: C_36  and  O_38 
DOCKED: REMARK   11  A    between atoms: FE_43  and  C_44 
DOCKED: REMARK   12  A    between atoms: C_44  and  O_45 
DOCKED: USER                              x       y       z     vdW  Elec       q    Type
DOCKED: USER                           _______ _______ _______ _____ _____    ______ ____
DOCKED: ROOT
DOCKED: ATOM      1  C   UNL d   1      28.825  42.763   0.462 -0.13 +0.02    +0.064 A 
DOCKED: ATOM      2  C   UNL d   1      29.123  38.056  -0.144 -0.12 +0.01    +0.064 C 
DOCKED: ATOM      3  C   UNL d   1      26.389  38.348  -4.051 -0.21 +0.01    +0.064 A 
DOCKED: ATOM      4  C   UNL d   1      26.389  43.198  -3.673 -0.18 +0.01    +0.064 A 
DOCKED: ATOM      5  C   UNL d   1      29.077  41.452   0.604 -0.12 +0.02    +0.066 A 
DOCKED: ATOM      6  C   UNL d   1      29.923  40.959   1.616 -0.12 -0.00    -0.021 A 
DOCKED: ATOM      7  C   UNL d   1      30.024  39.595   1.422 -0.10 -0.00    -0.025 A 
DOCKED: ATOM      8  C   UNL d   1      29.223  39.312   0.310 -0.11 +0.01    +0.066 A 
DOCKED: ATOM      9  C   UNL d   1      30.840  38.584   2.242 -0.11 +0.01    +0.051 C 
DOCKED: ATOM     10  C   UNL d   1      28.303  37.666  -1.264 -0.14 +0.01    +0.066 A 
DOCKED: ATOM     11  C   UNL d   1      28.045  36.349  -1.702 -0.13 -0.00    -0.021 A 
DOCKED: ATOM     12  C   UNL d   1      27.242  36.463  -2.840 -0.17 +0.00    +0.000 A 
DOCKED: ATOM     13  C   UNL d   1      27.060  37.837  -3.004 -0.20 +0.01    +0.070 A 
DOCKED: ATOM     14  C   UNL d   1      28.467  35.079  -1.009 -0.10 +0.01    +0.052 C 
DOCKED: ATOM     15  C   UNL d   1      26.151  39.735  -4.403 -0.19 +0.01    +0.066 A 
DOCKED: ATOM     16  C   UNL d   1      25.575  40.199  -5.577 -0.18 -0.00    -0.021 A 
DOCKED: ATOM     17  C   UNL d   1      25.575  41.597  -5.474 -0.18 +0.00    +0.000 A 
DOCKED: ATOM     18  C   UNL d   1      26.138  41.876  -4.233 -0.21 +0.01    +0.070 A 
DOCKED: ATOM     19  C   UNL d   1      25.067  39.332  -6.707 -0.14 +0.01    +0.052 C 
DOCKED: ATOM     20  C   UNL d   1      27.013  43.496  -2.509 -0.17 +0.01    +0.066 A 
DOCKED: ATOM     21  C   UNL d   1      27.229  44.808  -2.094 -0.12 -0.01    -0.025 A 
DOCKED: ATOM     22  C   UNL d   1      27.903  44.714  -0.891 -0.12 -0.01    -0.021 A 
DOCKED: ATOM     23  C   UNL d   1      28.078  43.337  -0.634 -0.14 +0.02    +0.066 A 
DOCKED: ATOM     24  C   UNL d   1      26.829  46.091  -2.819 -0.08 +0.01    +0.051 C 
DOCKED: ATOM     25  N   UNL d   1      28.620  40.443  -0.213 -0.08 -0.04    -0.248 N 
DOCKED: ATOM     26  N   UNL d   1      27.655  38.560  -2.018 -0.12 -0.03    -0.248 N 
DOCKED: ATOM     27  N   UNL d   1      26.497  40.745  -3.636 -0.07 -0.04    -0.248 N 
DOCKED: ATOM     28  N   UNL d   1      27.543  42.596  -1.612 -0.11 -0.06    -0.248 N 
DOCKED: ATOM     29 FE   UNL d   1      27.495  40.606  -2.025 -0.05 +0.00    +0.000 Fe
DOCKED: ENDROOT
DOCKED: BRANCH   6  30
DOCKED: ATOM     30  C   UNL d   1      30.661  41.782   2.667 -0.25 +0.02    +0.052 C 
DOCKED: BRANCH  30  31
DOCKED: ATOM     31  C   UNL d   1      32.044  42.187   2.158 -0.21 +0.07    +0.115 C 
DOCKED: BRANCH  31  32
DOCKED: ATOM     32  C   UNL d   1      32.523  43.490   2.761 -0.17 +0.18    +0.139 C 
DOCKED: ATOM     33  O   UNL d   1      33.365  43.469   3.646 -0.61 -0.65    -0.650 OA
DOCKED: BRANCH  32  34
DOCKED: ATOM     34  O   UNL d   1      32.082  44.691   2.319 -0.02 -1.27    -0.776 OA
DOCKED: ATOM     35  H   UNL d   1      31.612  44.823   1.484 +0.02 +0.25    +0.167 HD
DOCKED: ENDBRANCH  32  34
DOCKED: ENDBRANCH  31  32
DOCKED: ENDBRANCH  30  31
DOCKED: ENDBRANCH   6  30
DOCKED: BRANCH  29  36
DOCKED: ATOM     36  C   UNL d   1      29.334  40.745  -3.022 -0.05 +0.03    +0.190 C 
DOCKED: BRANCH  36  37
DOCKED: ATOM     37  O   UNL d   1      30.513  41.493  -3.085 +0.00 -0.09    -0.399 OA
DOCKED: ATOM     38  H   UNL d   1      30.440  42.151  -2.338 +0.02 +0.06    +0.209 HD
DOCKED: ENDBRANCH  36  37
DOCKED: ENDBRANCH  29  36
DOCKED: BRANCH  22  39
DOCKED: ATOM     39  C   UNL d   1      28.407  45.886  -0.070 -0.12 +0.02    +0.052 C 
DOCKED: BRANCH  39  40
DOCKED: ATOM     40  C   UNL d   1      29.685  46.474  -0.691 -0.07 +0.05    +0.115 C 
DOCKED: BRANCH  40  41
DOCKED: ATOM     41  C   UNL d   1      30.955  45.734  -0.325 -0.14 +0.11    +0.139 C 
DOCKED: ATOM     42  O   UNL d   1      31.053  44.545  -0.593 -0.03 -0.50    -0.650 OA
DOCKED: BRANCH  41  43
DOCKED: ATOM     43  O   UNL d   1      32.019  46.372   0.212 -0.52 -1.23    -0.776 OA
DOCKED: ATOM     44  H   UNL d   1      32.110  46.520   1.162 -0.50 +0.25    +0.167 HD
DOCKED: ENDBRANCH  41  43
DOCKED: ENDBRANCH  40  41
DOCKED: ENDBRANCH  39  40
DOCKED: ENDBRANCH  22  39
DOCKED: BRANCH  12  45
DOCKED: ATOM     45  C   UNL d   1      26.614  35.439  -3.775 -0.13 +0.00    +0.004 C 
DOCKED: ATOM     46  C   UNL d   1      25.347  35.059  -3.918 -0.20 -0.00    +0.012 C 
DOCKED: ENDBRANCH  12  45
DOCKED: BRANCH  17  47
DOCKED: ATOM     47  C   UNL d   1      25.137  42.627  -6.463 -0.14 +0.00    +0.004 C 
DOCKED: ATOM     48  C   UNL d   1      24.085  43.428  -6.276 -0.18 +0.00    +0.012 C 
DOCKED: ENDBRANCH  17  47
DOCKED: TORSDOF 12
DOCKED: TER
DOCKED: ENDMDL
________________________________________________________________________________


	BEGINNING GENETIC ALGORITHM DOCKING 36 of 100
Run: 36 Seed: 895502369 440651760 [ Run 36 of 100 GA/GALS ]
Beginning LAMARCKIAN GENETIC ALGORITHM (LGA), with a maximum of 25000000 energy evaluations.

Final-Value: -12.295


	FINAL GENETIC ALGORITHM DOCKED STATE
	_______________________________________________


Detailed state:  trans 1.748 35.439 -0.331 quatxyzw -0.702540 0.454810 -0.547170 0.013780 center 8.781 34.984 -0.736 ntor 12 89.1981 92.4082 27.8549 -33.0712 134.2559 158.8006 -135.8827 -164.3005 134.2762 119.1532 18.0886 34.0537
State:	  1.748  35.439  -0.331  -0.703  0.455 -0.547 178.421     89.20   92.41   27.85  -33.07  134.26  158.80 -135.88 -164.30  134.28  119.15   18.09   34.05

DOCKED: MODEL       36
DOCKED: USER    Run = 36
DOCKED: USER    DPF = D:/Protein_go_brrr/autodock/final/2DN3/heme_Co/dock.dpf
DOCKED: USER  
DOCKED: USER    Estimated Free Energy of Binding    =   -6.83 kcal/mol  [=(1)+(2)+(3)-(4)]
DOCKED: USER    Estimated Inhibition Constant, Ki   =    9.85 uM (micromolar)  [Temperature = 298.15 K]
DOCKED: USER    
DOCKED: USER    (1) Final Intermolecular Energy     =  -10.41 kcal/mol
DOCKED: USER        vdW + Hbond + desolv Energy     =   -7.17 kcal/mol
DOCKED: USER        Electrostatic Energy            =   -3.24 kcal/mol
DOCKED: USER    (2) Final Total Internal Energy     =   -1.89 kcal/mol
DOCKED: USER    (3) Torsional Free Energy           =   +3.58 kcal/mol
DOCKED: USER    (4) Unbound System's Energy  [=(2)] =   -1.89 kcal/mol
DOCKED: USER    
DOCKED: USER    
DOCKED: USER    NEWDPF move heme_Co_opt.pdbqt
DOCKED: USER    NEWDPF about 8.781000 34.984000 -0.736000
DOCKED: USER    NEWDPF tran0 1.747528 35.439381 -0.331407
DOCKED: USER    NEWDPF quaternion0 -0.702540 0.454810 -0.547170 0.013780
DOCKED: USER    NEWDPF axisangle0 -0.702607 0.454853 -0.547222 178.420839
DOCKED: USER    NEWDPF quat0 -0.702607 0.454853 -0.547222 178.420839
DOCKED: USER    NEWDPF dihe0 89.20 92.41 27.85 -33.07 134.26 158.80 -135.88 -164.30 134.28 119.15 18.09 34.05 
DOCKED: USER  keepresnum = 1 
DOCKED: USER  
DOCKED: REMARK  12 active torsions:
DOCKED: REMARK  status: ('A' for Active; 'I' for Inactive)
DOCKED: REMARK    1  A    between atoms: C_6  and  C_10 
DOCKED: REMARK    2  A    between atoms: C_10  and  C_11 
DOCKED: REMARK    3  A    between atoms: C_11  and  C_12 
DOCKED: REMARK    4  A    between atoms: C_12  and  O_14 
DOCKED: REMARK    5  A    between atoms: C_17  and  C_20 
DOCKED: REMARK    6  A    between atoms: C_24  and  C_27 
DOCKED: REMARK    7  A    between atoms: C_31  and  C_34 
DOCKED: REMARK    8  A    between atoms: C_34  and  C_35 
DOCKED: REMARK    9  A    between atoms: C_35  and  C_36 
DOCKED: REMARK   10  A    between atoms: C_36  and  O_38 
DOCKED: REMARK   11  A    between atoms: FE_43  and  C_44 
DOCKED: REMARK   12  A    between atoms: C_44  and  O_45 
DOCKED: USER                              x       y       z     vdW  Elec       q    Type
DOCKED: USER                           _______ _______ _______ _____ _____    ______ ____
DOCKED: ROOT
DOCKED: ATOM      1  C   UNL d   1       0.802  36.794  -1.741 -0.02 +0.07    +0.064 A 
DOCKED: ATOM      2  C   UNL d   1       5.351  35.636  -0.982 -0.18 +0.02    +0.064 C 
DOCKED: ATOM      3  C   UNL d   1       4.085  32.972   2.777 -0.32 +0.00    +0.064 A 
DOCKED: ATOM      4  C   UNL d   1      -0.600  33.829   1.789 -0.06 +0.02    +0.064 A 
DOCKED: ATOM      5  C   UNL d   1       2.142  36.702  -1.788 -0.13 +0.06    +0.066 A 
DOCKED: ATOM      6  C   UNL d   1       2.896  37.301  -2.816 -0.12 -0.01    -0.021 A 
DOCKED: ATOM      7  C   UNL d   1       4.213  36.943  -2.603 -0.14 -0.01    -0.025 A 
DOCKED: ATOM      8  C   UNL d   1       4.208  36.155  -1.447 -0.15 +0.03    +0.066 A 
DOCKED: ATOM      9  C   UNL d   1       5.440  37.319  -3.448 -0.16 +0.01    +0.051 C 
DOCKED: ATOM     10  C   UNL d   1       5.447  34.836   0.213 -0.30 +0.01    +0.066 A 
DOCKED: ATOM     11  C   UNL d   1       6.633  34.379   0.830 -0.39 -0.00    -0.021 A 
DOCKED: ATOM     12  C   UNL d   1       6.234  33.609   1.926 -0.45 +0.00    +0.000 A 
DOCKED: ATOM     13  C   UNL d   1       4.840  33.662   1.904 -0.35 +0.01    +0.070 A 
DOCKED: ATOM     14  C   UNL d   1       8.041  34.747   0.438 -0.34 +0.01    +0.052 C 
DOCKED: ATOM     15  C   UNL d   1       2.642  32.871   2.865 -0.26 +0.00    +0.066 A 
DOCKED: ATOM     16  C   UNL d   1       1.925  32.025   3.700 -0.24 +0.00    -0.021 A 
DOCKED: ATOM     17  C   UNL d   1       0.573  32.267   3.417 -0.11 +0.00    +0.000 A 
DOCKED: ATOM     18  C   UNL d   1       0.572  33.257   2.440 -0.11 +0.01    +0.070 A 
DOCKED: ATOM     19  C   UNL d   1       2.528  31.057   4.693 -0.32 -0.01    +0.052 C 
DOCKED: ATOM     20  C   UNL d   1      -0.624  34.729   0.777 -0.08 +0.03    +0.066 A 
DOCKED: ATOM     21  C   UNL d   1      -1.814  35.178   0.209 -0.05 -0.01    -0.025 A 
DOCKED: ATOM     22  C   UNL d   1      -1.442  36.056  -0.793 -0.07 -0.01    -0.021 A 
DOCKED: ATOM     23  C   UNL d   1      -0.031  36.091  -0.793 -0.08 +0.06    +0.066 A 
DOCKED: ATOM     24  C   UNL d   1      -3.237  34.774   0.587 -0.01 +0.01    +0.051 C 
DOCKED: ATOM     25  N   UNL d   1       2.939  35.994  -0.917 -0.13 -0.16    -0.248 N 
DOCKED: ATOM     26  N   UNL d   1       4.368  34.450   0.902 -0.18 -0.06    -0.248 N 
DOCKED: ATOM     27  N   UNL d   1       1.821  33.571   2.114 -0.12 -0.05    -0.248 N 
DOCKED: ATOM     28  N   UNL d   1       0.468  35.288   0.154 -0.09 -0.17    -0.248 N 
DOCKED: ATOM     29 FE   UNL d   1       2.343  34.712   0.688 -0.04 +0.00    +0.000 Fe
DOCKED: ENDROOT
DOCKED: BRANCH   6  30
DOCKED: ATOM     30  C   UNL d   1       2.354  38.110  -3.989 -0.05 +0.02    +0.052 C 
DOCKED: BRANCH  30  31
DOCKED: ATOM     31  C   UNL d   1       2.555  39.606  -3.748 -0.05 +0.06    +0.115 C 
DOCKED: BRANCH  31  32
DOCKED: ATOM     32  C   UNL d   1       2.111  40.033  -2.366 -0.03 +0.17    +0.139 C 
DOCKED: ATOM     33  O   UNL d   1       2.932  40.091  -1.463 -0.66 -0.99    -0.650 OA
DOCKED: BRANCH  32  34
DOCKED: ATOM     34  O   UNL d   1       0.836  40.401  -2.103 +0.07 -1.16    -0.776 OA
DOCKED: ATOM     35  H   UNL d   1       0.124  39.782  -1.888 +0.01 +0.31    +0.167 HD
DOCKED: ENDBRANCH  32  34
DOCKED: ENDBRANCH  31  32
DOCKED: ENDBRANCH  30  31
DOCKED: ENDBRANCH   6  30
DOCKED: BRANCH  29  36
DOCKED: ATOM     36  C   UNL d   1       2.293  33.160  -0.720 -0.10 +0.04    +0.190 C 
DOCKED: BRANCH  36  37
DOCKED: ATOM     37  O   UNL d   1       2.559  32.862  -2.060 -0.05 -0.06    -0.399 OA
DOCKED: ATOM     38  H   UNL d   1       2.549  33.745  -2.526 +0.05 +0.04    +0.209 HD
DOCKED: ENDBRANCH  36  37
DOCKED: ENDBRANCH  29  36
DOCKED: BRANCH  22  39
DOCKED: ATOM     39  C   UNL d   1      -2.393  36.768  -1.736 -0.03 +0.02    +0.052 C 
DOCKED: BRANCH  39  40
DOCKED: ATOM     40  C   UNL d   1      -2.002  38.248  -1.886 -0.05 +0.09    +0.115 C 
DOCKED: BRANCH  40  41
DOCKED: ATOM     41  C   UNL d   1      -2.169  39.068  -0.624 +0.00 +0.16    +0.139 C 
DOCKED: ATOM     42  O   UNL d   1      -2.990  38.720   0.212 -0.02 -0.46    -0.650 OA
DOCKED: BRANCH  41  43
DOCKED: ATOM     43  O   UNL d   1      -1.373  40.127  -0.355 -0.09 -1.62    -0.776 OA
DOCKED: ATOM     44  H   UNL d   1      -1.029  40.707  -1.046 +0.00 +0.28    +0.167 HD
DOCKED: ENDBRANCH  41  43
DOCKED: ENDBRANCH  40  41
DOCKED: ENDBRANCH  39  40
DOCKED: ENDBRANCH  22  39
DOCKED: BRANCH  12  45
DOCKED: ATOM     45  C   UNL d   1       7.006  32.848   2.996 -0.53 +0.00    +0.004 C 
DOCKED: ATOM     46  C   UNL d   1       8.092  32.086   2.903 -0.55 +0.00    +0.012 C 
DOCKED: ENDBRANCH  12  45
DOCKED: BRANCH  17  47
DOCKED: ATOM     47  C   UNL d   1      -0.649  31.604   3.962 -0.06 -0.00    +0.004 C 
DOCKED: ATOM     48  C   UNL d   1      -1.535  32.222   4.746 -0.04 +0.00    +0.012 C 
DOCKED: ENDBRANCH  17  47
DOCKED: TORSDOF 12
DOCKED: TER
DOCKED: ENDMDL
________________________________________________________________________________


	BEGINNING GENETIC ALGORITHM DOCKING 37 of 100
Run: 37 Seed: 1923561529 572955882 [ Run 37 of 100 GA/GALS ]
Beginning LAMARCKIAN GENETIC ALGORITHM (LGA), with a maximum of 25000000 energy evaluations.

Final-Value: -11.267


	FINAL GENETIC ALGORITHM DOCKED STATE
	_______________________________________________


Detailed state:  trans 31.420 38.909 2.032 quatxyzw -0.522498 0.719844 -0.436968 0.133714 center 8.781 34.984 -0.736 ntor 12 -141.0001 91.2864 10.4310 47.1147 32.3016 176.4684 104.6653 -164.4670 -80.4289 -61.1641 -12.0817 15.1668
State:	 31.420  38.909   2.032  -0.527  0.726 -0.441 164.631   -141.00   91.29   10.43   47.11   32.30  176.47  104.67 -164.47  -80.43  -61.16  -12.08   15.17

DOCKED: MODEL       37
DOCKED: USER    Run = 37
DOCKED: USER    DPF = D:/Protein_go_brrr/autodock/final/2DN3/heme_Co/dock.dpf
DOCKED: USER  
DOCKED: USER    Estimated Free Energy of Binding    =   -6.94 kcal/mol  [=(1)+(2)+(3)-(4)]
DOCKED: USER    Estimated Inhibition Constant, Ki   =    8.12 uM (micromolar)  [Temperature = 298.15 K]
DOCKED: USER    
DOCKED: USER    (1) Final Intermolecular Energy     =  -10.52 kcal/mol
DOCKED: USER        vdW + Hbond + desolv Energy     =   -7.94 kcal/mol
DOCKED: USER        Electrostatic Energy            =   -2.59 kcal/mol
DOCKED: USER    (2) Final Total Internal Energy     =   -0.74 kcal/mol
DOCKED: USER    (3) Torsional Free Energy           =   +3.58 kcal/mol
DOCKED: USER    (4) Unbound System's Energy  [=(2)] =   -0.74 kcal/mol
DOCKED: USER    
DOCKED: USER    
DOCKED: USER    NEWDPF move heme_Co_opt.pdbqt
DOCKED: USER    NEWDPF about 8.781000 34.984000 -0.736000
DOCKED: USER    NEWDPF tran0 31.420026 38.908758 2.031529
DOCKED: USER    NEWDPF quaternion0 -0.522498 0.719844 -0.436968 0.133714
DOCKED: USER    NEWDPF axisangle0 -0.527233 0.726367 -0.440927 164.631489
DOCKED: USER    NEWDPF quat0 -0.527233 0.726367 -0.440927 164.631489
DOCKED: USER    NEWDPF dihe0 -141.00 91.29 10.43 47.11 32.30 176.47 104.67 -164.47 -80.43 -61.16 -12.08 15.17 
DOCKED: USER  keepresnum = 1 
DOCKED: USER  
DOCKED: REMARK  12 active torsions:
DOCKED: REMARK  status: ('A' for Active; 'I' for Inactive)
DOCKED: REMARK    1  A    between atoms: C_6  and  C_10 
DOCKED: REMARK    2  A    between atoms: C_10  and  C_11 
DOCKED: REMARK    3  A    between atoms: C_11  and  C_12 
DOCKED: REMARK    4  A    between atoms: C_12  and  O_14 
DOCKED: REMARK    5  A    between atoms: C_17  and  C_20 
DOCKED: REMARK    6  A    between atoms: C_24  and  C_27 
DOCKED: REMARK    7  A    between atoms: C_31  and  C_34 
DOCKED: REMARK    8  A    between atoms: C_34  and  C_35 
DOCKED: REMARK    9  A    between atoms: C_35  and  C_36 
DOCKED: REMARK   10  A    between atoms: C_36  and  O_38 
DOCKED: REMARK   11  A    between atoms: FE_43  and  C_44 
DOCKED: REMARK   12  A    between atoms: C_44  and  O_45 
DOCKED: USER                              x       y       z     vdW  Elec       q    Type
DOCKED: USER                           _______ _______ _______ _____ _____    ______ ____
DOCKED: ROOT
DOCKED: ATOM      1  C   UNL d   1      31.571  40.828   1.026 -0.06 +0.02    +0.064 A 
DOCKED: ATOM      2  C   UNL d   1      34.343  36.964   0.970 -0.08 +0.01    +0.064 C 
DOCKED: ATOM      3  C   UNL d   1      31.612  34.910   4.310 -0.21 +0.03    +0.064 A 
DOCKED: ATOM      4  C   UNL d   1      28.548  38.683   4.106 -0.23 -0.04    +0.064 A 
DOCKED: ATOM      5  C   UNL d   1      32.550  39.938   0.792 -0.05 +0.02    +0.066 A 
DOCKED: ATOM      6  C   UNL d   1      33.530  40.149  -0.197 -0.03 -0.01    -0.021 A 
DOCKED: ATOM      7  C   UNL d   1      34.318  39.015  -0.225 -0.06 -0.01    -0.025 A 
DOCKED: ATOM      8  C   UNL d   1      33.795  38.168   0.759 -0.10 +0.01    +0.066 A 
DOCKED: ATOM      9  C   UNL d   1      35.520  38.724  -1.137 -0.06 +0.01    +0.051 C 
DOCKED: ATOM     10  C   UNL d   1      33.890  36.037   1.977 -0.13 +0.00    +0.066 A 
DOCKED: ATOM     11  C   UNL d   1      34.507  34.821   2.343 -0.22 -0.00    -0.021 A 
DOCKED: ATOM     12  C   UNL d   1      33.692  34.245   3.321 -0.29 +0.00    +0.000 A 
DOCKED: ATOM     13  C   UNL d   1      32.648  35.155   3.488 -0.22 +0.02    +0.070 A 
DOCKED: ATOM     14  C   UNL d   1      35.836  34.311   1.847 -0.28 +0.00    +0.052 C 
DOCKED: ATOM     15  C   UNL d   1      30.430  35.711   4.563 -0.19 +0.01    +0.066 A 
DOCKED: ATOM     16  C   UNL d   1      29.326  35.334   5.314 -0.25 -0.00    -0.021 A 
DOCKED: ATOM     17  C   UNL d   1      28.438  36.418   5.256 -0.30 -0.00    +0.000 A 
DOCKED: ATOM     18  C   UNL d   1      29.081  37.381   4.485 -0.21 -0.03    +0.070 A 
DOCKED: ATOM     19  C   UNL d   1      29.161  34.011   6.028 +0.17 +0.02    +0.052 C 
DOCKED: ATOM     20  C   UNL d   1      29.117  39.600   3.287 -0.24 -0.02    +0.066 A 
DOCKED: ATOM     21  C   UNL d   1      28.490  40.802   2.968 -0.32 +0.00    -0.025 A 
DOCKED: ATOM     22  C   UNL d   1      29.351  41.454   2.104 -0.19 -0.00    -0.021 A 
DOCKED: ATOM     23  C   UNL d   1      30.465  40.605   1.929 -0.10 +0.01    +0.066 A 
DOCKED: ATOM     24  C   UNL d   1      27.128  41.298   3.445 -0.54 -0.01    +0.051 C 
DOCKED: ATOM     25  N   UNL d   1      32.703  38.717   1.409 -0.06 -0.05    -0.248 N 
DOCKED: ATOM     26  N   UNL d   1      32.799  36.264   2.716 -0.12 -0.04    -0.248 N 
DOCKED: ATOM     27  N   UNL d   1      30.251  36.914   4.065 +0.04 -0.00    -0.248 N 
DOCKED: ATOM     28  N   UNL d   1      30.326  39.481   2.641 -0.07 -0.01    -0.248 N 
DOCKED: ATOM     29 FE   UNL d   1      31.403  37.765   2.816 -0.04 +0.00    +0.000 Fe
DOCKED: ENDROOT
DOCKED: BRANCH   6  30
DOCKED: ATOM     30  C   UNL d   1      33.643  41.355  -1.123 -0.03 +0.03    +0.052 C 
DOCKED: BRANCH  30  31
DOCKED: ATOM     31  C   UNL d   1      34.118  42.584  -0.349 -0.04 +0.13    +0.115 C 
DOCKED: BRANCH  31  32
DOCKED: ATOM     32  C   UNL d   1      35.607  42.815  -0.489 -0.05 +0.15    +0.139 C 
DOCKED: ATOM     33  O   UNL d   1      36.340  41.872  -0.749 +0.02 -0.36    -0.650 OA
DOCKED: BRANCH  32  34
DOCKED: ATOM     34  O   UNL d   1      36.155  44.048  -0.382 -0.42 -1.39    -0.776 OA
DOCKED: ATOM     35  H   UNL d   1      36.919  44.349  -0.893 +0.01 +0.17    +0.167 HD
DOCKED: ENDBRANCH  32  34
DOCKED: ENDBRANCH  31  32
DOCKED: ENDBRANCH  30  31
DOCKED: ENDBRANCH   6  30
DOCKED: BRANCH  29  36
DOCKED: ATOM     36  C   UNL d   1      30.404  36.943   1.166 -0.05 +0.04    +0.190 C 
DOCKED: BRANCH  36  37
DOCKED: ATOM     37  O   UNL d   1      30.562  36.625  -0.187 -0.00 -0.09    -0.399 OA
DOCKED: ATOM     38  H   UNL d   1      31.309  37.206  -0.501 +0.02 +0.04    +0.209 HD
DOCKED: ENDBRANCH  36  37
DOCKED: ENDBRANCH  29  36
DOCKED: BRANCH  22  39
DOCKED: ATOM     39  C   UNL d   1      29.083  42.790   1.437 -0.20 +0.02    +0.052 C 
DOCKED: BRANCH  39  40
DOCKED: ATOM     40  C   UNL d   1      30.103  43.843   1.900 -0.16 +0.08    +0.115 C 
DOCKED: BRANCH  40  41
DOCKED: ATOM     41  C   UNL d   1      31.046  44.319   0.816 -0.17 +0.13    +0.139 C 
DOCKED: ATOM     42  O   UNL d   1      31.297  43.581  -0.126 +0.01 -0.51    -0.650 OA
DOCKED: BRANCH  41  43
DOCKED: ATOM     43  O   UNL d   1      31.552  45.573   0.814 -0.51 -1.12    -0.776 OA
DOCKED: ATOM     44  H   UNL d   1      31.540  46.139   1.597 -0.35 +0.17    +0.167 HD
DOCKED: ENDBRANCH  41  43
DOCKED: ENDBRANCH  40  41
DOCKED: ENDBRANCH  39  40
DOCKED: ENDBRANCH  22  39
DOCKED: BRANCH  12  45
DOCKED: ATOM     45  C   UNL d   1      33.789  32.956   4.126 -0.43 +0.00    +0.004 C 
DOCKED: ATOM     46  C   UNL d   1      34.843  32.348   4.665 -0.62 +0.00    +0.012 C 
DOCKED: ENDBRANCH  12  45
DOCKED: BRANCH  17  47
DOCKED: ATOM     47  C   UNL d   1      27.064  36.556   5.823 -0.19 -0.00    +0.004 C 
DOCKED: ATOM     48  C   UNL d   1      26.531  35.687   6.685 -0.31 -0.01    +0.012 C 
DOCKED: ENDBRANCH  17  47
DOCKED: TORSDOF 12
DOCKED: TER
DOCKED: ENDMDL
________________________________________________________________________________


	BEGINNING GENETIC ALGORITHM DOCKING 38 of 100
Run: 38 Seed: 1771666517 1373940235 [ Run 38 of 100 GA/GALS ]
Beginning LAMARCKIAN GENETIC ALGORITHM (LGA), with a maximum of 25000000 energy evaluations.

Final-Value: -13.277


	FINAL GENETIC ALGORITHM DOCKED STATE
	_______________________________________________


Detailed state:  trans 46.303 28.262 18.441 quatxyzw 0.226407 -0.344674 -0.910364 -0.034294 center 8.781 34.984 -0.736 ntor 12 -28.3797 78.9038 -83.0402 126.7059 54.1268 140.0099 28.0050 -3.9116 -178.8614 164.7990 -179.7192 -179.4868
State:	 46.303  28.262  18.441   0.227 -0.345 -0.911 -176.069    -28.38   78.90  -83.04  126.71   54.13  140.01   28.00   -3.91 -178.86  164.80 -179.72 -179.49

DOCKED: MODEL       38
DOCKED: USER    Run = 38
DOCKED: USER    DPF = D:/Protein_go_brrr/autodock/final/2DN3/heme_Co/dock.dpf
DOCKED: USER  
DOCKED: USER    Estimated Free Energy of Binding    =   -7.05 kcal/mol  [=(1)+(2)+(3)-(4)]
DOCKED: USER    Estimated Inhibition Constant, Ki   =    6.84 uM (micromolar)  [Temperature = 298.15 K]
DOCKED: USER    
DOCKED: USER    (1) Final Intermolecular Energy     =  -10.63 kcal/mol
DOCKED: USER        vdW + Hbond + desolv Energy     =   -8.25 kcal/mol
DOCKED: USER        Electrostatic Energy            =   -2.38 kcal/mol
DOCKED: USER    (2) Final Total Internal Energy     =   -2.65 kcal/mol
DOCKED: USER    (3) Torsional Free Energy           =   +3.58 kcal/mol
DOCKED: USER    (4) Unbound System's Energy  [=(2)] =   -2.65 kcal/mol
DOCKED: USER    
DOCKED: USER    
DOCKED: USER    NEWDPF move heme_Co_opt.pdbqt
DOCKED: USER    NEWDPF about 8.781000 34.984000 -0.736000
DOCKED: USER    NEWDPF tran0 46.302834 28.262033 18.441039
DOCKED: USER    NEWDPF quaternion0 0.226407 -0.344674 -0.910364 -0.034294
DOCKED: USER    NEWDPF axisangle0 0.226541 -0.344877 -0.910900 -176.069409
DOCKED: USER    NEWDPF quat0 0.226541 -0.344877 -0.910900 -176.069409
DOCKED: USER    NEWDPF dihe0 -28.38 78.90 -83.04 126.71 54.13 140.01 28.00 -3.91 -178.86 164.80 -179.72 -179.49 
DOCKED: USER  keepresnum = 1 
DOCKED: USER  
DOCKED: REMARK  12 active torsions:
DOCKED: REMARK  status: ('A' for Active; 'I' for Inactive)
DOCKED: REMARK    1  A    between atoms: C_6  and  C_10 
DOCKED: REMARK    2  A    between atoms: C_10  and  C_11 
DOCKED: REMARK    3  A    between atoms: C_11  and  C_12 
DOCKED: REMARK    4  A    between atoms: C_12  and  O_14 
DOCKED: REMARK    5  A    between atoms: C_17  and  C_20 
DOCKED: REMARK    6  A    between atoms: C_24  and  C_27 
DOCKED: REMARK    7  A    between atoms: C_31  and  C_34 
DOCKED: REMARK    8  A    between atoms: C_34  and  C_35 
DOCKED: REMARK    9  A    between atoms: C_35  and  C_36 
DOCKED: REMARK   10  A    between atoms: C_36  and  O_38 
DOCKED: REMARK   11  A    between atoms: FE_43  and  C_44 
DOCKED: REMARK   12  A    between atoms: C_44  and  O_45 
DOCKED: USER                              x       y       z     vdW  Elec       q    Type
DOCKED: USER                           _______ _______ _______ _____ _____    ______ ____
DOCKED: ROOT
DOCKED: ATOM      1  C   UNL d   1      48.359  27.785  18.953 -0.08 +0.03    +0.064 A 
DOCKED: ATOM      2  C   UNL d   1      45.853  31.818  19.218 -0.21 +0.02    +0.064 C 
DOCKED: ATOM      3  C   UNL d   1      42.140  29.695  17.087 -0.27 +0.02    +0.064 A 
DOCKED: ATOM      4  C   UNL d   1      44.538  25.463  17.154 -0.20 +0.03    +0.064 A 
DOCKED: ATOM      5  C   UNL d   1      47.960  29.053  19.149 -0.08 +0.03    +0.066 A 
DOCKED: ATOM      6  C   UNL d   1      48.761  29.992  19.827 -0.05 -0.01    -0.021 A 
DOCKED: ATOM      7  C   UNL d   1      48.020  31.154  19.921 -0.08 -0.01    -0.025 A 
DOCKED: ATOM      8  C   UNL d   1      46.806  30.879  19.283 -0.13 +0.03    +0.066 A 
DOCKED: ATOM      9  C   UNL d   1      48.425  32.479  20.584 -0.06 +0.02    +0.051 C 
DOCKED: ATOM     10  C   UNL d   1      44.583  31.635  18.559 -0.25 +0.02    +0.066 A 
DOCKED: ATOM     11  C   UNL d   1      43.600  32.623  18.335 -0.35 -0.00    -0.021 A 
DOCKED: ATOM     12  C   UNL d   1      42.530  31.978  17.708 -0.43 +0.00    +0.000 A 
DOCKED: ATOM     13  C   UNL d   1      42.944  30.651  17.586 -0.33 +0.02    +0.070 A 
DOCKED: ATOM     14  C   UNL d   1      43.734  34.097  18.620 -0.41 +0.01    +0.052 C 
DOCKED: ATOM     15  C   UNL d   1      42.385  28.274  16.938 -0.30 +0.02    +0.066 A 
DOCKED: ATOM     16  C   UNL d   1      41.459  27.316  16.549 -0.37 -0.01    -0.021 A 
DOCKED: ATOM     17  C   UNL d   1      42.145  26.093  16.569 -0.33 +0.00    +0.000 A 
DOCKED: ATOM     18  C   UNL d   1      43.445  26.406  16.954 -0.23 +0.03    +0.070 A 
DOCKED: ATOM     19  C   UNL d   1      40.015  27.587  16.190 -0.40 +0.02    +0.052 C 
DOCKED: ATOM     20  C   UNL d   1      45.785  25.732  17.610 -0.22 +0.04    +0.066 A 
DOCKED: ATOM     21  C   UNL d   1      46.740  24.735  17.796 -0.22 -0.02    -0.025 A 
DOCKED: ATOM     22  C   UNL d   1      47.861  25.379  18.286 -0.15 -0.01    -0.021 A 
DOCKED: ATOM     23  C   UNL d   1      47.528  26.746  18.388 -0.12 +0.04    +0.066 A 
DOCKED: ATOM     24  C   UNL d   1      46.586  23.238  17.538 -0.10 +0.07    +0.051 C 
DOCKED: ATOM     25  N   UNL d   1      46.743  29.587  18.790 -0.08 -0.12    -0.248 N 
DOCKED: ATOM     26  N   UNL d   1      44.207  30.458  18.050 -0.17 -0.08    -0.248 N 
DOCKED: ATOM     27  N   UNL d   1      43.543  27.708  17.194 -0.20 -0.09    -0.248 N 
DOCKED: ATOM     28  N   UNL d   1      46.272  26.964  17.982 -0.10 -0.13    -0.248 N 
DOCKED: ATOM     29 FE   UNL d   1      45.050  28.589  17.944 -0.05 +0.00    +0.000 Fe
DOCKED: ENDROOT
DOCKED: BRANCH   6  30
DOCKED: ATOM     30  C   UNL d   1      50.142  29.746  20.425 -0.02 +0.02    +0.052 C 
DOCKED: BRANCH  30  31
DOCKED: ATOM     31  C   UNL d   1      50.032  29.409  21.911 -0.02 +0.06    +0.115 C 
DOCKED: BRANCH  31  32
DOCKED: ATOM     32  C   UNL d   1      48.600  29.425  22.402 -0.05 +0.14    +0.139 C 
DOCKED: ATOM     33  O   UNL d   1      48.190  30.390  23.029 -0.11 -0.74    -0.650 OA
DOCKED: BRANCH  32  34
DOCKED: ATOM     34  O   UNL d   1      47.737  28.420  22.128 -0.38 -1.25    -0.776 OA
DOCKED: ATOM     35  H   UNL d   1      47.752  27.897  21.314 +0.02 +0.17    +0.167 HD
DOCKED: ENDBRANCH  32  34
DOCKED: ENDBRANCH  31  32
DOCKED: ENDBRANCH  30  31
DOCKED: ENDBRANCH   6  30
DOCKED: BRANCH  29  36
DOCKED: ATOM     36  C   UNL d   1      44.437  28.203  19.911 +0.53 +0.14    +0.190 C 
DOCKED: BRANCH  36  37
DOCKED: ATOM     37  O   UNL d   1      44.882  28.202  21.237 -0.16 -0.67    -0.399 OA
DOCKED: ATOM     38  H   UNL d   1      45.839  27.927  21.186 +0.04 +0.34    +0.209 HD
DOCKED: ENDBRANCH  36  37
DOCKED: ENDBRANCH  29  36
DOCKED: BRANCH  22  39
DOCKED: ATOM     39  C   UNL d   1      49.156  24.702  18.695 -0.10 +0.03    +0.052 C 
DOCKED: BRANCH  39  40
DOCKED: ATOM     40  C   UNL d   1      49.013  24.046  20.078 -0.03 +0.06    +0.115 C 
DOCKED: BRANCH  40  41
DOCKED: ATOM     41  C   UNL d   1      47.883  24.602  20.919 -0.02 +0.07    +0.139 C 
DOCKED: ATOM     42  O   UNL d   1      47.136  23.830  21.503 +0.03 -0.32    -0.650 OA
DOCKED: BRANCH  41  43
DOCKED: ATOM     43  O   UNL d   1      47.729  25.931  21.113 +0.06 -0.51    -0.776 OA
DOCKED: ATOM     44  H   UNL d   1      48.281  26.433  21.726 +0.02 +0.12    +0.167 HD
DOCKED: ENDBRANCH  41  43
DOCKED: ENDBRANCH  40  41
DOCKED: ENDBRANCH  39  40
DOCKED: ENDBRANCH  22  39
DOCKED: BRANCH  12  45
DOCKED: ATOM     45  C   UNL d   1      41.180  32.463  17.197 -0.53 +0.00    +0.004 C 
DOCKED: ATOM     46  C   UNL d   1      40.670  32.467  15.969 -0.49 +0.00    +0.012 C 
DOCKED: ENDBRANCH  12  45
DOCKED: BRANCH  17  47
DOCKED: ATOM     47  C   UNL d   1      41.641  24.712  16.305 -0.50 +0.00    +0.004 C 
DOCKED: ATOM     48  C   UNL d   1      40.666  24.437  15.436 -0.56 +0.00    +0.012 C 
DOCKED: ENDBRANCH  17  47
DOCKED: TORSDOF 12
DOCKED: TER
DOCKED: ENDMDL
________________________________________________________________________________


	BEGINNING GENETIC ALGORITHM DOCKING 39 of 100
Run: 39 Seed: 1886425923 1357933316 [ Run 39 of 100 GA/GALS ]
Beginning LAMARCKIAN GENETIC ALGORITHM (LGA), with a maximum of 25000000 energy evaluations.

Final-Value: -10.499


	FINAL GENETIC ALGORITHM DOCKED STATE
	_______________________________________________


Detailed state:  trans 39.780 30.132 -0.466 quatxyzw -0.853833 0.089297 0.158202 -0.487819 center 8.781 34.984 -0.736 ntor 12 20.7354 153.7084 138.9742 45.7300 43.1438 71.8832 129.1351 -28.8767 14.6319 -160.4830 147.9958 164.4917
State:	 39.780  30.132  -0.466  -0.978  0.102  0.181 -121.605     20.74  153.71  138.97   45.73   43.14   71.88  129.14  -28.88   14.63 -160.48  148.00  164.49

DOCKED: MODEL       39
DOCKED: USER    Run = 39
DOCKED: USER    DPF = D:/Protein_go_brrr/autodock/final/2DN3/heme_Co/dock.dpf
DOCKED: USER  
DOCKED: USER    Estimated Free Energy of Binding    =   -5.00 kcal/mol  [=(1)+(2)+(3)-(4)]
DOCKED: USER    Estimated Inhibition Constant, Ki   =  216.56 uM (micromolar)  [Temperature = 298.15 K]
DOCKED: USER    
DOCKED: USER    (1) Final Intermolecular Energy     =   -8.58 kcal/mol
DOCKED: USER        vdW + Hbond + desolv Energy     =   -7.33 kcal/mol
DOCKED: USER        Electrostatic Energy            =   -1.25 kcal/mol
DOCKED: USER    (2) Final Total Internal Energy     =   -1.92 kcal/mol
DOCKED: USER    (3) Torsional Free Energy           =   +3.58 kcal/mol
DOCKED: USER    (4) Unbound System's Energy  [=(2)] =   -1.92 kcal/mol
DOCKED: USER    
DOCKED: USER    
DOCKED: USER    NEWDPF move heme_Co_opt.pdbqt
DOCKED: USER    NEWDPF about 8.781000 34.984000 -0.736000
DOCKED: USER    NEWDPF tran0 39.779696 30.132480 -0.465821
DOCKED: USER    NEWDPF quaternion0 -0.853833 0.089297 0.158202 -0.487819
DOCKED: USER    NEWDPF axisangle0 -0.978106 0.102294 0.181228 -121.605340
DOCKED: USER    NEWDPF quat0 -0.978106 0.102294 0.181228 -121.605340
DOCKED: USER    NEWDPF dihe0 20.74 153.71 138.97 45.73 43.14 71.88 129.14 -28.88 14.63 -160.48 148.00 164.49 
DOCKED: USER  keepresnum = 1 
DOCKED: USER  
DOCKED: REMARK  12 active torsions:
DOCKED: REMARK  status: ('A' for Active; 'I' for Inactive)
DOCKED: REMARK    1  A    between atoms: C_6  and  C_10 
DOCKED: REMARK    2  A    between atoms: C_10  and  C_11 
DOCKED: REMARK    3  A    between atoms: C_11  and  C_12 
DOCKED: REMARK    4  A    between atoms: C_12  and  O_14 
DOCKED: REMARK    5  A    between atoms: C_17  and  C_20 
DOCKED: REMARK    6  A    between atoms: C_24  and  C_27 
DOCKED: REMARK    7  A    between atoms: C_31  and  C_34 
DOCKED: REMARK    8  A    between atoms: C_34  and  C_35 
DOCKED: REMARK    9  A    between atoms: C_35  and  C_36 
DOCKED: REMARK   10  A    between atoms: C_36  and  O_38 
DOCKED: REMARK   11  A    between atoms: FE_43  and  C_44 
DOCKED: REMARK   12  A    between atoms: C_44  and  O_45 
DOCKED: USER                              x       y       z     vdW  Elec       q    Type
DOCKED: USER                           _______ _______ _______ _____ _____    ______ ____
DOCKED: ROOT
DOCKED: ATOM      1  C   UNL d   1      37.975  29.143   0.227 -0.20 +0.01    +0.064 A 
DOCKED: ATOM      2  C   UNL d   1      39.283  33.714   0.147 -0.30 +0.01    +0.064 C 
DOCKED: ATOM      3  C   UNL d   1      43.611  32.486  -1.462 -0.17 -0.00    +0.064 A 
DOCKED: ATOM      4  C   UNL d   1      42.172  27.849  -1.756 -0.19 +0.01    +0.064 A 
DOCKED: ATOM      5  C   UNL d   1      38.027  30.479   0.358 -0.25 +0.01    +0.066 A 
DOCKED: ATOM      6  C   UNL d   1      36.904  31.236   0.747 -0.21 -0.00    -0.021 A 
DOCKED: ATOM      7  C   UNL d   1      37.283  32.563   0.700 -0.20 -0.00    -0.025 A 
DOCKED: ATOM      8  C   UNL d   1      38.624  32.559   0.301 -0.22 +0.01    +0.066 A 
DOCKED: ATOM      9  C   UNL d   1      36.427  33.799   1.015 -0.24 +0.00    +0.051 C 
DOCKED: ATOM     10  C   UNL d   1      40.670  33.807  -0.234 -0.25 +0.01    +0.066 A 
DOCKED: ATOM     11  C   UNL d   1      41.457  34.979  -0.276 -0.23 -0.00    -0.021 A 
DOCKED: ATOM     12  C   UNL d   1      42.716  34.591  -0.745 -0.12 +0.00    +0.000 A 
DOCKED: ATOM     13  C   UNL d   1      42.608  33.214  -0.941 -0.19 +0.00    +0.070 A 
DOCKED: ATOM     14  C   UNL d   1      41.043  36.349   0.196 -0.22 +0.01    +0.052 C 
DOCKED: ATOM     15  C   UNL d   1      43.653  31.072  -1.779 -0.25 +0.00    +0.066 A 
DOCKED: ATOM     16  C   UNL d   1      44.671  30.409  -2.451 -0.21 +0.00    -0.021 A 
DOCKED: ATOM     17  C   UNL d   1      44.259  29.072  -2.540 -0.23 +0.00    +0.000 A 
DOCKED: ATOM     18  C   UNL d   1      43.026  29.021  -1.899 -0.24 +0.01    +0.070 A 
DOCKED: ATOM     19  C   UNL d   1      45.944  31.046  -2.963 -0.16 -0.00    +0.052 C 
DOCKED: ATOM     20  C   UNL d   1      40.932  27.793  -1.214 -0.16 +0.01    +0.066 A 
DOCKED: ATOM     21  C   UNL d   1      40.193  26.613  -1.166 -0.18 -0.00    -0.025 A 
DOCKED: ATOM     22  C   UNL d   1      38.990  26.950  -0.573 -0.21 -0.00    -0.021 A 
DOCKED: ATOM     23  C   UNL d   1      39.050  28.332  -0.297 -0.22 +0.01    +0.066 A 
DOCKED: ATOM     24  C   UNL d   1      40.605  25.235  -1.679 -0.12 +0.01    +0.051 C 
DOCKED: ATOM     25  N   UNL d   1      39.112  31.281   0.087 -0.18 -0.01    -0.248 N 
DOCKED: ATOM     26  N   UNL d   1      41.389  32.733  -0.579 -0.17 -0.01    -0.248 N 
DOCKED: ATOM     27  N   UNL d   1      42.683  30.236  -1.485 -0.18 -0.01    -0.248 N 
DOCKED: ATOM     28  N   UNL d   1      40.223  28.847  -0.686 -0.14 -0.02    -0.248 N 
DOCKED: ATOM     29 FE   UNL d   1      41.003  30.724  -0.745 -0.05 +0.00    +0.000 Fe
DOCKED: ENDROOT
DOCKED: BRANCH   6  30
DOCKED: ATOM     30  C   UNL d   1      35.512  30.700   1.066 -0.21 +0.01    +0.052 C 
DOCKED: BRANCH  30  31
DOCKED: ATOM     31  C   UNL d   1      34.451  31.445   0.256 -0.08 +0.03    +0.115 C 
DOCKED: BRANCH  31  32
DOCKED: ATOM     32  C   UNL d   1      33.048  31.172   0.754 -0.11 +0.10    +0.139 C 
DOCKED: ATOM     33  O   UNL d   1      32.883  30.417   1.701 -0.00 -0.50    -0.650 OA
DOCKED: BRANCH  32  34
DOCKED: ATOM     34  O   UNL d   1      31.965  31.776   0.214 -0.22 -0.97    -0.776 OA
DOCKED: ATOM     35  H   UNL d   1      31.963  32.226  -0.643 +0.01 +0.13    +0.167 HD
DOCKED: ENDBRANCH  32  34
DOCKED: ENDBRANCH  31  32
DOCKED: ENDBRANCH  30  31
DOCKED: ENDBRANCH   6  30
DOCKED: BRANCH  29  36
DOCKED: ATOM     36  C   UNL d   1      40.141  31.047  -2.629 -0.03 +0.01    +0.190 C 
DOCKED: BRANCH  36  37
DOCKED: ATOM     37  O   UNL d   1      39.346  30.444  -3.609 +0.00 -0.03    -0.399 OA
DOCKED: ATOM     38  H   UNL d   1      38.636  29.961  -3.101 +0.02 +0.02    +0.209 HD
DOCKED: ENDBRANCH  36  37
DOCKED: ENDBRANCH  29  36
DOCKED: BRANCH  22  39
DOCKED: ATOM     39  C   UNL d   1      37.826  26.003  -0.347 -0.13 +0.00    +0.052 C 
DOCKED: BRANCH  39  40
DOCKED: ATOM     40  C   UNL d   1      36.823  26.089  -1.510 -0.08 +0.00    +0.115 C 
DOCKED: BRANCH  40  41
DOCKED: ATOM     41  C   UNL d   1      37.349  26.804  -2.737 -0.03 +0.01    +0.139 C 
DOCKED: ATOM     42  O   UNL d   1      37.594  26.159  -3.746 +0.01 -0.04    -0.650 OA
DOCKED: BRANCH  41  43
DOCKED: ATOM     43  O   UNL d   1      37.472  28.149  -2.776 +0.03 -0.06    -0.776 OA
DOCKED: ATOM     44  H   UNL d   1      38.186  28.591  -3.253 +0.01 +0.01    +0.167 HD
DOCKED: ENDBRANCH  41  43
DOCKED: ENDBRANCH  40  41
DOCKED: ENDBRANCH  39  40
DOCKED: ENDBRANCH  22  39
DOCKED: BRANCH  12  45
DOCKED: ATOM     45  C   UNL d   1      44.006  35.356  -1.010 -0.17 +0.00    +0.004 C 
DOCKED: ATOM     46  C   UNL d   1      44.565  36.366  -0.349 -0.17 +0.00    +0.012 C 
DOCKED: ENDBRANCH  12  45
DOCKED: BRANCH  17  47
DOCKED: ATOM     47  C   UNL d   1      44.920  27.913  -3.213 -0.26 +0.00    +0.004 C 
DOCKED: ATOM     48  C   UNL d   1      46.224  27.872  -3.497 -0.23 +0.00    +0.012 C 
DOCKED: ENDBRANCH  17  47
DOCKED: TORSDOF 12
DOCKED: TER
DOCKED: ENDMDL
________________________________________________________________________________


	BEGINNING GENETIC ALGORITHM DOCKING 40 of 100
Run: 40 Seed: 112890339 201061646 [ Run 40 of 100 GA/GALS ]
Beginning LAMARCKIAN GENETIC ALGORITHM (LGA), with a maximum of 25000000 energy evaluations.

Final-Value: -18.801


	FINAL GENETIC ALGORITHM DOCKED STATE
	_______________________________________________


Detailed state:  trans 41.309 29.176 16.403 quatxyzw -0.298756 0.415396 0.858559 -0.032684 center 8.781 34.984 -0.736 ntor 12 114.1502 117.6368 24.2524 -40.0056 70.9002 -17.9580 -139.5244 -25.4604 -37.9281 10.1361 -152.3763 12.1257
State:	 41.309  29.176  16.403  -0.299  0.416  0.859 -176.254    114.15  117.64   24.25  -40.01   70.90  -17.96 -139.52  -25.46  -37.93   10.14 -152.38   12.13

DOCKED: MODEL       40
DOCKED: USER    Run = 40
DOCKED: USER    DPF = D:/Protein_go_brrr/autodock/final/2DN3/heme_Co/dock.dpf
DOCKED: USER  
DOCKED: USER    Estimated Free Energy of Binding    =  -13.46 kcal/mol  [=(1)+(2)+(3)-(4)]
DOCKED: USER    Estimated Inhibition Constant, Ki   =  135.88 pM (picomolar)  [Temperature = 298.15 K]
DOCKED: USER    
DOCKED: USER    (1) Final Intermolecular Energy     =  -17.04 kcal/mol
DOCKED: USER        vdW + Hbond + desolv Energy     =  -14.19 kcal/mol
DOCKED: USER        Electrostatic Energy            =   -2.85 kcal/mol
DOCKED: USER    (2) Final Total Internal Energy     =   -1.76 kcal/mol
DOCKED: USER    (3) Torsional Free Energy           =   +3.58 kcal/mol
DOCKED: USER    (4) Unbound System's Energy  [=(2)] =   -1.76 kcal/mol
DOCKED: USER    
DOCKED: USER    
DOCKED: USER    NEWDPF move heme_Co_opt.pdbqt
DOCKED: USER    NEWDPF about 8.781000 34.984000 -0.736000
DOCKED: USER    NEWDPF tran0 41.309365 29.175683 16.403492
DOCKED: USER    NEWDPF quaternion0 -0.298756 0.415396 0.858559 -0.032684
DOCKED: USER    NEWDPF axisangle0 -0.298916 0.415618 0.859018 -176.253967
DOCKED: USER    NEWDPF quat0 -0.298916 0.415618 0.859018 -176.253967
DOCKED: USER    NEWDPF dihe0 114.15 117.64 24.25 -40.01 70.90 -17.96 -139.52 -25.46 -37.93 10.14 -152.38 12.13 
DOCKED: USER  keepresnum = 1 
DOCKED: USER  
DOCKED: REMARK  12 active torsions:
DOCKED: REMARK  status: ('A' for Active; 'I' for Inactive)
DOCKED: REMARK    1  A    between atoms: C_6  and  C_10 
DOCKED: REMARK    2  A    between atoms: C_10  and  C_11 
DOCKED: REMARK    3  A    between atoms: C_11  and  C_12 
DOCKED: REMARK    4  A    between atoms: C_12  and  O_14 
DOCKED: REMARK    5  A    between atoms: C_17  and  C_20 
DOCKED: REMARK    6  A    between atoms: C_24  and  C_27 
DOCKED: REMARK    7  A    between atoms: C_31  and  C_34 
DOCKED: REMARK    8  A    between atoms: C_34  and  C_35 
DOCKED: REMARK    9  A    between atoms: C_35  and  C_36 
DOCKED: REMARK   10  A    between atoms: C_36  and  O_38 
DOCKED: REMARK   11  A    between atoms: FE_43  and  C_44 
DOCKED: REMARK   12  A    between atoms: C_44  and  O_45 
DOCKED: USER                              x       y       z     vdW  Elec       q    Type
DOCKED: USER                           _______ _______ _______ _____ _____    ______ ____
DOCKED: ROOT
DOCKED: ATOM      1  C   UNL d   1      43.156  28.599  17.390 -0.27 +0.02    +0.064 A 
DOCKED: ATOM      2  C   UNL d   1      41.119  32.830  16.644 -0.48 +0.01    +0.064 C 
DOCKED: ATOM      3  C   UNL d   1      37.686  30.762  14.043 -0.31 +0.01    +0.064 A 
DOCKED: ATOM      4  C   UNL d   1      39.530  26.389  15.112 -0.34 +0.01    +0.064 A 
DOCKED: ATOM      5  C   UNL d   1      42.872  29.911  17.347 -0.32 +0.02    +0.066 A 
DOCKED: ATOM      6  C   UNL d   1      43.624  30.862  18.063 -0.33 -0.01    -0.021 A 
DOCKED: ATOM      7  C   UNL d   1      43.015  32.085  17.861 -0.35 -0.01    -0.025 A 
DOCKED: ATOM      8  C   UNL d   1      41.928  31.831  17.018 -0.38 +0.01    +0.066 A 
DOCKED: ATOM      9  C   UNL d   1      43.428  33.450  18.434 -0.43 +0.01    +0.051 C 
DOCKED: ATOM     10  C   UNL d   1      39.993  32.669  15.758 -0.41 +0.01    +0.066 A 
DOCKED: ATOM     11  C   UNL d   1      39.191  33.697  15.217 -0.45 -0.00    -0.021 A 
DOCKED: ATOM     12  C   UNL d   1      38.201  33.066  14.459 -0.41 +0.00    +0.000 A 
DOCKED: ATOM     13  C   UNL d   1      38.478  31.704  14.584 -0.36 +0.01    +0.070 A 
DOCKED: ATOM     14  C   UNL d   1      39.432  35.179  15.349 -0.54 +0.01    +0.052 C 
DOCKED: ATOM     15  C   UNL d   1      37.793  29.318  14.117 -0.35 +0.01    +0.066 A 
DOCKED: ATOM     16  C   UNL d   1      36.860  28.399  13.657 -0.43 -0.00    -0.021 A 
DOCKED: ATOM     17  C   UNL d   1      37.386  27.136  13.966 -0.43 +0.00    +0.000 A 
DOCKED: ATOM     18  C   UNL d   1      38.611  27.385  14.576 -0.36 +0.01    +0.070 A 
DOCKED: ATOM     19  C   UNL d   1      35.556  28.741  12.972 -0.58 +0.01    +0.052 C 
DOCKED: ATOM     20  C   UNL d   1      40.684  26.609  15.786 -0.38 +0.02    +0.066 A 
DOCKED: ATOM     21  C   UNL d   1      41.464  25.569  16.285 -0.38 -0.01    -0.025 A 
DOCKED: ATOM     22  C   UNL d   1      42.532  26.175  16.921 -0.33 -0.01    -0.021 A 
DOCKED: ATOM     23  C   UNL d   1      42.342  27.567  16.789 -0.32 +0.02    +0.066 A 
DOCKED: ATOM     24  C   UNL d   1      41.196  24.070  16.178 -0.52 +0.01    +0.051 C 
DOCKED: ATOM     25  N   UNL d   1      41.819  30.493  16.679 -0.14 -0.07    -0.248 N 
DOCKED: ATOM     26  N   UNL d   1      39.594  31.469  15.324 -0.21 -0.05    -0.248 N 
DOCKED: ATOM     27  N   UNL d   1      38.807  28.695  14.676 -0.19 -0.07    -0.248 N 
DOCKED: ATOM     28  N   UNL d   1      41.223  27.834  16.104 -0.22 -0.09    -0.248 N 
DOCKED: ATOM     29 FE   UNL d   1      40.225  29.538  15.618 -0.01 +0.00    +0.000 Fe
DOCKED: ENDROOT
DOCKED: BRANCH   6  30
DOCKED: ATOM     30  C   UNL d   1      44.823  30.583  18.964 -0.28 +0.02    +0.052 C 
DOCKED: BRANCH  30  31
DOCKED: ATOM     31  C   UNL d   1      44.389  29.822  20.216 +0.06 +0.09    +0.115 C 
DOCKED: BRANCH  31  32
DOCKED: ATOM     32  C   UNL d   1      45.379  28.749  20.611 -0.12 +0.17    +0.139 C 
DOCKED: ATOM     33  O   UNL d   1      46.282  29.021  21.389 -0.26 -1.35    -0.650 OA
DOCKED: BRANCH  32  34
DOCKED: ATOM     34  O   UNL d   1      45.272  27.474  20.168 +0.05 -0.66    -0.776 OA
DOCKED: ATOM     35  H   UNL d   1      45.878  27.066  19.534 +0.05 +0.11    +0.167 HD
DOCKED: ENDBRANCH  32  34
DOCKED: ENDBRANCH  31  32
DOCKED: ENDBRANCH  30  31
DOCKED: ENDBRANCH   6  30
DOCKED: BRANCH  29  36
DOCKED: ATOM     36  C   UNL d   1      39.195  29.482  17.443 -0.03 +0.06    +0.190 C 
DOCKED: BRANCH  36  37
DOCKED: ATOM     37  O   UNL d   1      38.043  28.980  18.058 -0.21 -0.08    -0.399 OA
DOCKED: ATOM     38  H   UNL d   1      37.606  28.415  17.361 +0.12 +0.04    +0.209 HD
DOCKED: ENDBRANCH  36  37
DOCKED: ENDBRANCH  29  36
DOCKED: BRANCH  22  39
DOCKED: ATOM     39  C   UNL d   1      43.635  25.452  17.671 -0.32 +0.02    +0.052 C 
DOCKED: BRANCH  39  40
DOCKED: ATOM     40  C   UNL d   1      44.983  25.626  16.952 -0.23 +0.06    +0.115 C 
DOCKED: BRANCH  40  41
DOCKED: ATOM     41  C   UNL d   1      46.126  24.847  17.570 -0.23 +0.11    +0.139 C 
DOCKED: ATOM     42  O   UNL d   1      46.622  23.919  16.948 -0.37 -0.95    -0.650 OA
DOCKED: BRANCH  41  43
DOCKED: ATOM     43  O   UNL d   1      46.671  25.205  18.754 +0.08 -0.49    -0.776 OA
DOCKED: ATOM     44  H   UNL d   1      46.161  25.638  19.450 +0.05 +0.10    +0.167 HD
DOCKED: ENDBRANCH  41  43
DOCKED: ENDBRANCH  40  41
DOCKED: ENDBRANCH  39  40
DOCKED: ENDBRANCH  22  39
DOCKED: BRANCH  12  45
DOCKED: ATOM     45  C   UNL d   1      37.042  33.590  13.622 -0.50 +0.00    +0.004 C 
DOCKED: ATOM     46  C   UNL d   1      36.107  34.493  13.906 -0.55 +0.00    +0.012 C 
DOCKED: ENDBRANCH  12  45
DOCKED: BRANCH  17  47
DOCKED: ATOM     47  C   UNL d   1      36.792  25.780  13.766 -0.60 +0.00    +0.004 C 
DOCKED: ATOM     48  C   UNL d   1      36.260  25.372  12.612 -0.67 +0.00    +0.012 C 
DOCKED: ENDBRANCH  17  47
DOCKED: TORSDOF 12
DOCKED: TER
DOCKED: ENDMDL
________________________________________________________________________________


	BEGINNING GENETIC ALGORITHM DOCKING 41 of 100
Run: 41 Seed: 7576652 1095175700 [ Run 41 of 100 GA/GALS ]
Beginning LAMARCKIAN GENETIC ALGORITHM (LGA), with a maximum of 25000000 energy evaluations.

Final-Value: -17.951


	FINAL GENETIC ALGORITHM DOCKED STATE
	_______________________________________________


Detailed state:  trans 40.975 29.028 16.201 quatxyzw 0.337640 -0.394954 -0.851959 0.064632 center 8.781 34.984 -0.736 ntor 12 -90.8549 169.2314 162.2920 -74.2886 -78.3463 25.2894 161.2570 13.6171 -16.5659 26.5620 51.0926 175.4246
State:	 40.975  29.028  16.201   0.338 -0.396 -0.854 172.589    -90.85  169.23  162.29  -74.29  -78.35   25.29  161.26   13.62  -16.57   26.56   51.09  175.42

DOCKED: MODEL       41
DOCKED: USER    Run = 41
DOCKED: USER    DPF = D:/Protein_go_brrr/autodock/final/2DN3/heme_Co/dock.dpf
DOCKED: USER  
DOCKED: USER    Estimated Free Energy of Binding    =  -13.80 kcal/mol  [=(1)+(2)+(3)-(4)]
DOCKED: USER    Estimated Inhibition Constant, Ki   =   76.91 pM (picomolar)  [Temperature = 298.15 K]
DOCKED: USER    
DOCKED: USER    (1) Final Intermolecular Energy     =  -17.38 kcal/mol
DOCKED: USER        vdW + Hbond + desolv Energy     =  -15.86 kcal/mol
DOCKED: USER        Electrostatic Energy            =   -1.52 kcal/mol
DOCKED: USER    (2) Final Total Internal Energy     =   -0.57 kcal/mol
DOCKED: USER    (3) Torsional Free Energy           =   +3.58 kcal/mol
DOCKED: USER    (4) Unbound System's Energy  [=(2)] =   -0.57 kcal/mol
DOCKED: USER    
DOCKED: USER    
DOCKED: USER    NEWDPF move heme_Co_opt.pdbqt
DOCKED: USER    NEWDPF about 8.781000 34.984000 -0.736000
DOCKED: USER    NEWDPF tran0 40.974592 29.028458 16.201181
DOCKED: USER    NEWDPF quaternion0 0.337640 -0.394954 -0.851959 0.064632
DOCKED: USER    NEWDPF axisangle0 0.338347 -0.395782 -0.853744 172.588587
DOCKED: USER    NEWDPF quat0 0.338347 -0.395782 -0.853744 172.588587
DOCKED: USER    NEWDPF dihe0 -90.85 169.23 162.29 -74.29 -78.35 25.29 161.26 13.62 -16.57 26.56 51.09 175.42 
DOCKED: USER  keepresnum = 1 
DOCKED: USER  
DOCKED: REMARK  12 active torsions:
DOCKED: REMARK  status: ('A' for Active; 'I' for Inactive)
DOCKED: REMARK    1  A    between atoms: C_6  and  C_10 
DOCKED: REMARK    2  A    between atoms: C_10  and  C_11 
DOCKED: REMARK    3  A    between atoms: C_11  and  C_12 
DOCKED: REMARK    4  A    between atoms: C_12  and  O_14 
DOCKED: REMARK    5  A    between atoms: C_17  and  C_20 
DOCKED: REMARK    6  A    between atoms: C_24  and  C_27 
DOCKED: REMARK    7  A    between atoms: C_31  and  C_34 
DOCKED: REMARK    8  A    between atoms: C_34  and  C_35 
DOCKED: REMARK    9  A    between atoms: C_35  and  C_36 
DOCKED: REMARK   10  A    between atoms: C_36  and  O_38 
DOCKED: REMARK   11  A    between atoms: FE_43  and  C_44 
DOCKED: REMARK   12  A    between atoms: C_44  and  O_45 
DOCKED: USER                              x       y       z     vdW  Elec       q    Type
DOCKED: USER                           _______ _______ _______ _____ _____    ______ ____
DOCKED: ROOT
DOCKED: ATOM      1  C   UNL d   1      42.710  28.383  17.336 -0.19 +0.02    +0.064 A 
DOCKED: ATOM      2  C   UNL d   1      40.793  32.670  16.592 -0.48 +0.01    +0.064 C 
DOCKED: ATOM      3  C   UNL d   1      37.616  30.767  13.573 -0.35 +0.01    +0.064 A 
DOCKED: ATOM      4  C   UNL d   1      39.308  26.327  14.613 -0.41 +0.01    +0.064 A 
DOCKED: ATOM      5  C   UNL d   1      42.443  29.699  17.327 -0.26 +0.02    +0.066 A 
DOCKED: ATOM      6  C   UNL d   1      43.128  30.607  18.157 -0.34 -0.01    -0.021 A 
DOCKED: ATOM      7  C   UNL d   1      42.553  31.846  17.954 -0.43 -0.01    -0.025 A 
DOCKED: ATOM      8  C   UNL d   1      41.552  31.645  16.997 -0.40 +0.01    +0.066 A 
DOCKED: ATOM      9  C   UNL d   1      42.919  33.178  18.627 -0.44 +0.01    +0.051 C 
DOCKED: ATOM     10  C   UNL d   1      39.758  32.564  15.594 -0.40 +0.01    +0.066 A 
DOCKED: ATOM     11  C   UNL d   1      39.022  33.626  15.024 -0.44 -0.00    -0.021 A 
DOCKED: ATOM     12  C   UNL d   1      38.106  33.043  14.145 -0.41 +0.00    +0.000 A 
DOCKED: ATOM     13  C   UNL d   1      38.358  31.674  14.233 -0.37 +0.01    +0.070 A 
DOCKED: ATOM     14  C   UNL d   1      39.261  35.097  15.248 -0.57 +0.01    +0.052 C 
DOCKED: ATOM     15  C   UNL d   1      37.703  29.320  13.589 -0.38 +0.01    +0.066 A 
DOCKED: ATOM     16  C   UNL d   1      36.812  28.435  12.998 -0.49 -0.00    -0.021 A 
DOCKED: ATOM     17  C   UNL d   1      37.294  27.153  13.297 -0.46 +0.00    +0.000 A 
DOCKED: ATOM     18  C   UNL d   1      38.455  27.358  14.036 -0.37 +0.01    +0.070 A 
DOCKED: ATOM     19  C   UNL d   1      35.585  28.826  12.205 -0.66 +0.01    +0.052 C 
DOCKED: ATOM     20  C   UNL d   1      40.391  26.501  15.406 -0.38 +0.02    +0.066 A 
DOCKED: ATOM     21  C   UNL d   1      41.110  25.429  15.930 -0.41 -0.01    -0.025 A 
DOCKED: ATOM     22  C   UNL d   1      42.114  25.992  16.696 -0.34 -0.01    -0.021 A 
DOCKED: ATOM     23  C   UNL d   1      41.950  27.391  16.610 -0.33 +0.02    +0.066 A 
DOCKED: ATOM     24  C   UNL d   1      40.841  23.940  15.728 -0.54 +0.01    +0.051 C 
DOCKED: ATOM     25  N   UNL d   1      41.465  30.325  16.586 -0.13 -0.08    -0.248 N 
DOCKED: ATOM     26  N   UNL d   1      39.394  31.390  15.066 -0.22 -0.05    -0.248 N 
DOCKED: ATOM     27  N   UNL d   1      38.650  28.660  14.216 -0.19 -0.06    -0.248 N 
DOCKED: ATOM     28  N   UNL d   1      40.907  27.703  15.832 -0.20 -0.08    -0.248 N 
DOCKED: ATOM     29 FE   UNL d   1      39.976  29.440  15.331 -0.06 +0.00    +0.000 Fe
DOCKED: ENDROOT
DOCKED: BRANCH   6  30
DOCKED: ATOM     30  C   UNL d   1      44.230  30.272  19.157 -0.29 +0.02    +0.052 C 
DOCKED: BRANCH  30  31
DOCKED: ATOM     31  C   UNL d   1      45.380  31.272  19.045 -0.22 +0.05    +0.115 C 
DOCKED: BRANCH  31  32
DOCKED: ATOM     32  C   UNL d   1      46.268  31.271  20.270 -0.16 +0.09    +0.139 C 
DOCKED: ATOM     33  O   UNL d   1      46.424  30.234  20.898 -0.20 -0.72    -0.650 OA
DOCKED: BRANCH  32  34
DOCKED: ATOM     34  O   UNL d   1      46.940  32.375  20.671 +0.03 -0.35    -0.776 OA
DOCKED: ATOM     35  H   UNL d   1      47.858  32.568  20.435 +0.03 +0.06    +0.167 HD
DOCKED: ENDBRANCH  32  34
DOCKED: ENDBRANCH  31  32
DOCKED: ENDBRANCH  30  31
DOCKED: ENDBRANCH   6  30
DOCKED: BRANCH  29  36
DOCKED: ATOM     36  C   UNL d   1      38.771  29.314  17.041 -0.32 +0.05    +0.190 C 
DOCKED: BRANCH  36  37
DOCKED: ATOM     37  O   UNL d   1      37.982  28.432  17.787 -0.24 -0.08    -0.399 OA
DOCKED: ATOM     38  H   UNL d   1      38.589  27.672  18.010 +0.12 +0.05    +0.209 HD
DOCKED: ENDBRANCH  36  37
DOCKED: ENDBRANCH  29  36
DOCKED: BRANCH  22  39
DOCKED: ATOM     39  C   UNL d   1      43.132  25.221  17.516 -0.36 +0.02    +0.052 C 
DOCKED: BRANCH  39  40
DOCKED: ATOM     40  C   UNL d   1      42.545  24.831  18.882 -0.39 +0.04    +0.115 C 
DOCKED: BRANCH  40  41
DOCKED: ATOM     41  C   UNL d   1      43.582  24.519  19.942 -0.26 +0.07    +0.139 C 
DOCKED: ATOM     42  O   UNL d   1      43.309  24.707  21.119 -0.32 -0.35    -0.650 OA
DOCKED: BRANCH  41  43
DOCKED: ATOM     43  O   UNL d   1      44.770  23.957  19.629 -0.30 -0.47    -0.776 OA
DOCKED: ATOM     44  H   UNL d   1      45.499  23.899  20.260 +0.05 +0.10    +0.167 HD
DOCKED: ENDBRANCH  41  43
DOCKED: ENDBRANCH  40  41
DOCKED: ENDBRANCH  39  40
DOCKED: ENDBRANCH  22  39
DOCKED: BRANCH  12  45
DOCKED: ATOM     45  C   UNL d   1      37.040  33.620  13.223 -0.52 +0.00    +0.004 C 
DOCKED: ATOM     46  C   UNL d   1      35.793  34.006  13.476 -0.57 +0.00    +0.012 C 
DOCKED: ENDBRANCH  12  45
DOCKED: BRANCH  17  47
DOCKED: ATOM     47  C   UNL d   1      36.711  25.816  12.977 -0.62 +0.00    +0.004 C 
DOCKED: ATOM     48  C   UNL d   1      36.017  25.086  13.853 -0.69 +0.00    +0.012 C 
DOCKED: ENDBRANCH  17  47
DOCKED: TORSDOF 12
DOCKED: TER
DOCKED: ENDMDL
________________________________________________________________________________


	BEGINNING GENETIC ALGORITHM DOCKING 42 of 100
Run: 42 Seed: 28159020 1033444549 [ Run 42 of 100 GA/GALS ]
Beginning LAMARCKIAN GENETIC ALGORITHM (LGA), with a maximum of 25000000 energy evaluations.

Final-Value: -19.051


	FINAL GENETIC ALGORITHM DOCKED STATE
	_______________________________________________


Detailed state:  trans 41.049 28.866 16.297 quatxyzw -0.361183 0.398580 0.842096 -0.039448 center 8.781 34.984 -0.736 ntor 12 90.5018 110.6188 169.1070 -36.2643 -44.3490 -9.6113 -47.2327 53.4070 24.9251 67.6884 -7.6330 139.4662
State:	 41.049  28.866  16.297  -0.361  0.399  0.843 -175.478     90.50  110.62  169.11  -36.26  -44.35   -9.61  -47.23   53.41   24.93   67.69   -7.63  139.47

DOCKED: MODEL       42
DOCKED: USER    Run = 42
DOCKED: USER    DPF = D:/Protein_go_brrr/autodock/final/2DN3/heme_Co/dock.dpf
DOCKED: USER  
DOCKED: USER    Estimated Free Energy of Binding    =  -13.13 kcal/mol  [=(1)+(2)+(3)-(4)]
DOCKED: USER    Estimated Inhibition Constant, Ki   =  235.82 pM (picomolar)  [Temperature = 298.15 K]
DOCKED: USER    
DOCKED: USER    (1) Final Intermolecular Energy     =  -16.71 kcal/mol
DOCKED: USER        vdW + Hbond + desolv Energy     =  -14.91 kcal/mol
DOCKED: USER        Electrostatic Energy            =   -1.80 kcal/mol
DOCKED: USER    (2) Final Total Internal Energy     =   -2.34 kcal/mol
DOCKED: USER    (3) Torsional Free Energy           =   +3.58 kcal/mol
DOCKED: USER    (4) Unbound System's Energy  [=(2)] =   -2.34 kcal/mol
DOCKED: USER    
DOCKED: USER    
DOCKED: USER    NEWDPF move heme_Co_opt.pdbqt
DOCKED: USER    NEWDPF about 8.781000 34.984000 -0.736000
DOCKED: USER    NEWDPF tran0 41.049246 28.865821 16.296940
DOCKED: USER    NEWDPF quaternion0 -0.361183 0.398580 0.842096 -0.039448
DOCKED: USER    NEWDPF axisangle0 -0.361464 0.398890 0.842752 -175.478466
DOCKED: USER    NEWDPF quat0 -0.361464 0.398890 0.842752 -175.478466
DOCKED: USER    NEWDPF dihe0 90.50 110.62 169.11 -36.26 -44.35 -9.61 -47.23 53.41 24.93 67.69 -7.63 139.47 
DOCKED: USER  keepresnum = 1 
DOCKED: USER  
DOCKED: REMARK  12 active torsions:
DOCKED: REMARK  status: ('A' for Active; 'I' for Inactive)
DOCKED: REMARK    1  A    between atoms: C_6  and  C_10 
DOCKED: REMARK    2  A    between atoms: C_10  and  C_11 
DOCKED: REMARK    3  A    between atoms: C_11  and  C_12 
DOCKED: REMARK    4  A    between atoms: C_12  and  O_14 
DOCKED: REMARK    5  A    between atoms: C_17  and  C_20 
DOCKED: REMARK    6  A    between atoms: C_24  and  C_27 
DOCKED: REMARK    7  A    between atoms: C_31  and  C_34 
DOCKED: REMARK    8  A    between atoms: C_34  and  C_35 
DOCKED: REMARK    9  A    between atoms: C_35  and  C_36 
DOCKED: REMARK   10  A    between atoms: C_36  and  O_38 
DOCKED: REMARK   11  A    between atoms: FE_43  and  C_44 
DOCKED: REMARK   12  A    between atoms: C_44  and  O_45 
DOCKED: USER                              x       y       z     vdW  Elec       q    Type
DOCKED: USER                           _______ _______ _______ _____ _____    ______ ____
DOCKED: ROOT
DOCKED: ATOM      1  C   UNL d   1      42.787  28.361  17.497 -0.15 +0.02    +0.064 A 
DOCKED: ATOM      2  C   UNL d   1      40.648  32.502  16.556 -0.47 +0.01    +0.064 C 
DOCKED: ATOM      3  C   UNL d   1      37.669  30.318  13.525 -0.37 +0.01    +0.064 A 
DOCKED: ATOM      4  C   UNL d   1      39.584  26.020  14.762 -0.41 +0.01    +0.064 A 
DOCKED: ATOM      5  C   UNL d   1      42.445  29.658  17.435 -0.24 +0.02    +0.066 A 
DOCKED: ATOM      6  C   UNL d   1      43.055  30.632  18.251 -0.34 -0.01    -0.021 A 
DOCKED: ATOM      7  C   UNL d   1      42.415  31.827  17.990 -0.44 -0.01    -0.025 A 
DOCKED: ATOM      8  C   UNL d   1      41.454  31.536  17.016 -0.39 +0.01    +0.066 A 
DOCKED: ATOM      9  C   UNL d   1      42.686  33.199  18.626 -0.42 +0.01    +0.051 C 
DOCKED: ATOM     10  C   UNL d   1      39.649  32.303  15.536 -0.38 +0.01    +0.066 A 
DOCKED: ATOM     11  C   UNL d   1      38.870  33.301  14.912 -0.42 -0.00    -0.021 A 
DOCKED: ATOM     12  C   UNL d   1      38.013  32.636  14.030 -0.40 +0.00    +0.000 A 
DOCKED: ATOM     13  C   UNL d   1      38.340  31.288  14.172 -0.37 +0.01    +0.070 A 
DOCKED: ATOM     14  C   UNL d   1      39.018  34.790  15.090 -0.54 +0.01    +0.052 C 
DOCKED: ATOM     15  C   UNL d   1      37.839  28.880  13.594 -0.38 +0.01    +0.066 A 
DOCKED: ATOM     16  C   UNL d   1      37.016  27.925  13.012 -0.47 -0.00    -0.021 A 
DOCKED: ATOM     17  C   UNL d   1      37.563  26.684  13.368 -0.46 +0.00    +0.000 A 
DOCKED: ATOM     18  C   UNL d   1      38.690  26.981  14.128 -0.38 +0.01    +0.070 A 
DOCKED: ATOM     19  C   UNL d   1      35.791  28.217  12.174 -0.65 +0.01    +0.052 C 
DOCKED: ATOM     20  C   UNL d   1      40.634  26.284  15.576 -0.38 +0.02    +0.066 A 
DOCKED: ATOM     21  C   UNL d   1      41.398  25.273  16.155 -0.38 -0.01    -0.025 A 
DOCKED: ATOM     22  C   UNL d   1      42.347  25.919  16.926 -0.35 -0.01    -0.021 A 
DOCKED: ATOM     23  C   UNL d   1      42.106  27.302  16.787 -0.34 +0.02    +0.066 A 
DOCKED: ATOM     24  C   UNL d   1      41.220  23.765  15.998 -0.54 +0.01    +0.051 C 
DOCKED: ATOM     25  N   UNL d   1      41.454  30.201  16.649 -0.13 -0.08    -0.248 N 
DOCKED: ATOM     26  N   UNL d   1      39.368  31.093  15.041 -0.18 -0.05    -0.248 N 
DOCKED: ATOM     27  N   UNL d   1      38.805  28.297  14.267 -0.20 -0.06    -0.248 N 
DOCKED: ATOM     28  N   UNL d   1      41.068  27.527  15.973 -0.24 -0.08    -0.248 N 
DOCKED: ATOM     29 FE   UNL d   1      40.053  29.189  15.388 -0.05 +0.00    +0.000 Fe
DOCKED: ENDROOT
DOCKED: BRANCH   6  30
DOCKED: ATOM     30  C   UNL d   1      44.146  30.394  19.289 -0.29 +0.03    +0.052 C 
DOCKED: BRANCH  30  31
DOCKED: ATOM     31  C   UNL d   1      45.501  30.197  18.609 -0.21 +0.05    +0.115 C 
DOCKED: BRANCH  31  32
DOCKED: ATOM     32  C   UNL d   1      46.476  29.432  19.478 -0.15 +0.09    +0.139 C 
DOCKED: ATOM     33  O   UNL d   1      47.619  29.252  19.083 +0.02 -0.32    -0.650 OA
DOCKED: BRANCH  32  34
DOCKED: ATOM     34  O   UNL d   1      46.139  28.977  20.707 -0.27 -1.00    -0.776 OA
DOCKED: ATOM     35  H   UNL d   1      45.706  28.128  20.873 +0.03 +0.23    +0.167 HD
DOCKED: ENDBRANCH  32  34
DOCKED: ENDBRANCH  31  32
DOCKED: ENDBRANCH  30  31
DOCKED: ENDBRANCH   6  30
DOCKED: BRANCH  29  36
DOCKED: ATOM     36  C   UNL d   1      38.810  29.051  17.071 -0.33 +0.05    +0.190 C 
DOCKED: BRANCH  36  37
DOCKED: ATOM     37  O   UNL d   1      37.685  28.389  17.573 -0.24 -0.08    -0.399 OA
DOCKED: ATOM     38  H   UNL d   1      37.377  27.804  16.826 +0.14 +0.04    +0.209 HD
DOCKED: ENDBRANCH  36  37
DOCKED: ENDBRANCH  29  36
DOCKED: BRANCH  22  39
DOCKED: ATOM     39  C   UNL d   1      43.385  25.236  17.797 -0.34 +0.02    +0.052 C 
DOCKED: BRANCH  39  40
DOCKED: ATOM     40  C   UNL d   1      43.202  25.634  19.272 -0.27 +0.05    +0.115 C 
DOCKED: BRANCH  40  41
DOCKED: ATOM     41  C   UNL d   1      44.384  26.365  19.873 -0.16 +0.08    +0.139 C 
DOCKED: ATOM     42  O   UNL d   1      44.429  26.536  21.083 -0.07 -0.60    -0.650 OA
DOCKED: BRANCH  41  43
DOCKED: ATOM     43  O   UNL d   1      45.434  26.759  19.118 +0.09 -0.45    -0.776 OA
DOCKED: ATOM     44  H   UNL d   1      46.164  27.281  19.476 +0.05 +0.11    +0.167 HD
DOCKED: ENDBRANCH  41  43
DOCKED: ENDBRANCH  40  41
DOCKED: ENDBRANCH  39  40
DOCKED: ENDBRANCH  22  39
DOCKED: BRANCH  12  45
DOCKED: ATOM     45  C   UNL d   1      36.941  33.120  13.062 -0.52 +0.00    +0.004 C 
DOCKED: ATOM     46  C   UNL d   1      35.974  34.020  13.219 -0.58 +0.00    +0.012 C 
DOCKED: ENDBRANCH  12  45
DOCKED: BRANCH  17  47
DOCKED: ATOM     47  C   UNL d   1      37.067  25.305  13.079 -0.64 +0.00    +0.004 C 
DOCKED: ATOM     48  C   UNL d   1      35.930  24.812  13.576 -0.68 +0.00    +0.012 C 
DOCKED: ENDBRANCH  17  47
DOCKED: TORSDOF 12
DOCKED: TER
DOCKED: ENDMDL
________________________________________________________________________________


	BEGINNING GENETIC ALGORITHM DOCKING 43 of 100
Run: 43 Seed: 1865459686 1713019316 [ Run 43 of 100 GA/GALS ]
Beginning LAMARCKIAN GENETIC ALGORITHM (LGA), with a maximum of 25000000 energy evaluations.

Final-Value: -17.197


	FINAL GENETIC ALGORITHM DOCKED STATE
	_______________________________________________


Detailed state:  trans 8.947 35.298 -0.960 quatxyzw 0.024378 0.081296 0.021988 0.996149 center 8.781 34.984 -0.736 ntor 12 -55.4877 119.3734 149.9689 139.6095 -57.6606 -10.7069 37.8989 -10.8908 -21.8340 -75.5538 160.1971 164.1563
State:	  8.947  35.298  -0.960   0.278  0.927  0.251 10.060    -55.49  119.37  149.97  139.61  -57.66  -10.71   37.90  -10.89  -21.83  -75.55  160.20  164.16

DOCKED: MODEL       43
DOCKED: USER    Run = 43
DOCKED: USER    DPF = D:/Protein_go_brrr/autodock/final/2DN3/heme_Co/dock.dpf
DOCKED: USER  
DOCKED: USER    Estimated Free Energy of Binding    =  -12.95 kcal/mol  [=(1)+(2)+(3)-(4)]
DOCKED: USER    Estimated Inhibition Constant, Ki   =  322.66 pM (picomolar)  [Temperature = 298.15 K]
DOCKED: USER    
DOCKED: USER    (1) Final Intermolecular Energy     =  -16.53 kcal/mol
DOCKED: USER        vdW + Hbond + desolv Energy     =  -14.97 kcal/mol
DOCKED: USER        Electrostatic Energy            =   -1.56 kcal/mol
DOCKED: USER    (2) Final Total Internal Energy     =   -0.67 kcal/mol
DOCKED: USER    (3) Torsional Free Energy           =   +3.58 kcal/mol
DOCKED: USER    (4) Unbound System's Energy  [=(2)] =   -0.67 kcal/mol
DOCKED: USER    
DOCKED: USER    
DOCKED: USER    NEWDPF move heme_Co_opt.pdbqt
DOCKED: USER    NEWDPF about 8.781000 34.984000 -0.736000
DOCKED: USER    NEWDPF tran0 8.946953 35.298395 -0.960108
DOCKED: USER    NEWDPF quaternion0 0.024378 0.081296 0.021988 0.996149
DOCKED: USER    NEWDPF axisangle0 0.278056 0.927249 0.250787 10.059675
DOCKED: USER    NEWDPF quat0 0.278056 0.927249 0.250787 10.059675
DOCKED: USER    NEWDPF dihe0 -55.49 119.37 149.97 139.61 -57.66 -10.71 37.90 -10.89 -21.83 -75.55 160.20 164.16 
DOCKED: USER  keepresnum = 1 
DOCKED: USER  
DOCKED: REMARK  12 active torsions:
DOCKED: REMARK  status: ('A' for Active; 'I' for Inactive)
DOCKED: REMARK    1  A    between atoms: C_6  and  C_10 
DOCKED: REMARK    2  A    between atoms: C_10  and  C_11 
DOCKED: REMARK    3  A    between atoms: C_11  and  C_12 
DOCKED: REMARK    4  A    between atoms: C_12  and  O_14 
DOCKED: REMARK    5  A    between atoms: C_17  and  C_20 
DOCKED: REMARK    6  A    between atoms: C_24  and  C_27 
DOCKED: REMARK    7  A    between atoms: C_31  and  C_34 
DOCKED: REMARK    8  A    between atoms: C_34  and  C_35 
DOCKED: REMARK    9  A    between atoms: C_35  and  C_36 
DOCKED: REMARK   10  A    between atoms: C_36  and  O_38 
DOCKED: REMARK   11  A    between atoms: FE_43  and  C_44 
DOCKED: REMARK   12  A    between atoms: C_44  and  O_45 
DOCKED: USER                              x       y       z     vdW  Elec       q    Type
DOCKED: USER                           _______ _______ _______ _____ _____    ______ ____
DOCKED: ROOT
DOCKED: ATOM      1  C   UNL d   1       7.200  35.829  -2.136 -0.25 +0.01    +0.064 A 
DOCKED: ATOM      2  C   UNL d   1       7.713  33.319   1.870 -0.45 +0.01    +0.064 C 
DOCKED: ATOM      3  C   UNL d   1      12.466  33.669   1.525 -0.31 +0.00    +0.064 A 
DOCKED: ATOM      4  C   UNL d   1      11.958  36.560  -2.354 -0.40 +0.00    +0.064 A 
DOCKED: ATOM      5  C   UNL d   1       6.992  35.087  -1.036 -0.30 +0.01    +0.066 A 
DOCKED: ATOM      6  C   UNL d   1       5.698  34.817  -0.550 -0.29 -0.00    -0.021 A 
DOCKED: ATOM      7  C   UNL d   1       5.853  34.108   0.625 -0.34 -0.00    -0.025 A 
DOCKED: ATOM      8  C   UNL d   1       7.234  33.961   0.797 -0.34 +0.01    +0.066 A 
DOCKED: ATOM      9  C   UNL d   1       4.754  33.582   1.561 -0.37 +0.01    +0.051 C 
DOCKED: ATOM     10  C   UNL d   1       9.116  33.097   2.118 -0.36 +0.01    +0.066 A 
DOCKED: ATOM     11  C   UNL d   1       9.676  32.312   3.149 -0.45 -0.00    -0.021 A 
DOCKED: ATOM     12  C   UNL d   1      11.063  32.428   3.022 -0.43 +0.00    +0.000 A 
DOCKED: ATOM     13  C   UNL d   1      11.246  33.263   1.919 -0.36 +0.00    +0.070 A 
DOCKED: ATOM     14  C   UNL d   1       8.920  31.441   4.119 -0.57 +0.00    +0.052 C 
DOCKED: ATOM     15  C   UNL d   1      12.833  34.565   0.447 -0.35 +0.01    +0.066 A 
DOCKED: ATOM     16  C   UNL d   1      14.102  35.059   0.182 -0.42 -0.00    -0.021 A 
DOCKED: ATOM     17  C   UNL d   1      13.961  35.895  -0.934 -0.43 +0.00    +0.000 A 
DOCKED: ATOM     18  C   UNL d   1      12.613  35.832  -1.275 -0.37 +0.01    +0.070 A 
DOCKED: ATOM     19  C   UNL d   1      15.352  34.732   0.970 -0.59 +0.00    +0.052 C 
DOCKED: ATOM     20  C   UNL d   1      10.637  36.581  -2.651 -0.39 +0.00    +0.066 A 
DOCKED: ATOM     21  C   UNL d   1      10.121  37.349  -3.693 -0.42 -0.00    -0.025 A 
DOCKED: ATOM     22  C   UNL d   1       8.755  37.136  -3.672 -0.33 -0.00    -0.021 A 
DOCKED: ATOM     23  C   UNL d   1       8.501  36.251  -2.602 -0.35 +0.01    +0.066 A 
DOCKED: ATOM     24  C   UNL d   1      10.889  38.257  -4.649 -0.42 -0.01    +0.051 C 
DOCKED: ATOM     25  N   UNL d   1       7.964  34.553  -0.220 -0.11 -0.06    -0.248 N 
DOCKED: ATOM     26  N   UNL d   1      10.069  33.621   1.340 -0.19 -0.03    -0.248 N 
DOCKED: ATOM     27  N   UNL d   1      11.967  35.055  -0.413 -0.18 -0.03    -0.248 N 
DOCKED: ATOM     28  N   UNL d   1       9.638  35.915  -1.980 -0.24 -0.04    -0.248 N 
DOCKED: ATOM     29 FE   UNL d   1      10.084  34.821  -0.325 -0.07 +0.00    +0.000 Fe
DOCKED: ENDROOT
DOCKED: BRANCH   6  30
DOCKED: ATOM     30  C   UNL d   1       4.382  35.296  -1.153 -0.24 +0.02    +0.052 C 
DOCKED: BRANCH  30  31
DOCKED: ATOM     31  C   UNL d   1       3.661  36.238  -0.190 -0.13 +0.07    +0.115 C 
DOCKED: BRANCH  31  32
DOCKED: ATOM     32  C   UNL d   1       2.700  37.167  -0.902 +0.01 +0.17    +0.139 C 
DOCKED: ATOM     33  O   UNL d   1       3.089  38.263  -1.275 -0.22 -0.87    -0.650 OA
DOCKED: BRANCH  32  34
DOCKED: ATOM     34  O   UNL d   1       1.427  36.803  -1.185 -0.37 -1.07    -0.776 OA
DOCKED: ATOM     35  H   UNL d   1       1.188  36.045  -1.735 +0.02 +0.12    +0.167 HD
DOCKED: ENDBRANCH  32  34
DOCKED: ENDBRANCH  31  32
DOCKED: ENDBRANCH  30  31
DOCKED: ENDBRANCH   6  30
DOCKED: BRANCH  29  36
DOCKED: ATOM     36  C   UNL d   1       9.818  36.508   0.891 -0.23 +0.04    +0.190 C 
DOCKED: BRANCH  36  37
DOCKED: ATOM     37  O   UNL d   1      10.459  37.663   1.349 -0.25 -0.05    -0.399 OA
DOCKED: ATOM     38  H   UNL d   1      11.321  37.695   0.846 +0.13 +0.02    +0.209 HD
DOCKED: ENDBRANCH  36  37
DOCKED: ENDBRANCH  29  36
DOCKED: BRANCH  22  39
DOCKED: ATOM     39  C   UNL d   1       7.747  37.800  -4.591 -0.27 +0.00    +0.052 C 
DOCKED: BRANCH  39  40
DOCKED: ATOM     40  C   UNL d   1       7.154  39.055  -3.930 -0.25 +0.01    +0.115 C 
DOCKED: BRANCH  40  41
DOCKED: ATOM     41  C   UNL d   1       7.788  40.355  -4.377 -0.32 -0.00    +0.139 C 
DOCKED: ATOM     42  O   UNL d   1       7.073  41.258  -4.790 +0.01 -0.02    -0.650 OA
DOCKED: BRANCH  41  43
DOCKED: ATOM     43  O   UNL d   1       9.115  40.579  -4.251 +0.09 +0.20    -0.776 OA
DOCKED: ATOM     44  H   UNL d   1       9.588  41.216  -4.802 -0.48 -0.11    +0.167 HD
DOCKED: ENDBRANCH  41  43
DOCKED: ENDBRANCH  40  41
DOCKED: ENDBRANCH  39  40
DOCKED: ENDBRANCH  22  39
DOCKED: BRANCH  12  45
DOCKED: ATOM     45  C   UNL d   1      12.230  31.835   3.800 -0.53 +0.00    +0.004 C 
DOCKED: ATOM     46  C   UNL d   1      13.328  31.215   3.376 -0.64 +0.00    +0.012 C 
DOCKED: ENDBRANCH  12  45
DOCKED: BRANCH  17  47
DOCKED: ATOM     47  C   UNL d   1      14.977  36.745  -1.625 -0.60 +0.00    +0.004 C 
DOCKED: ATOM     48  C   UNL d   1      15.373  37.936  -1.171 -0.63 +0.00    +0.012 C 
DOCKED: ENDBRANCH  17  47
DOCKED: TORSDOF 12
DOCKED: TER
DOCKED: ENDMDL
________________________________________________________________________________


	BEGINNING GENETIC ALGORITHM DOCKING 44 of 100
Run: 44 Seed: 1965586555 684157163 [ Run 44 of 100 GA/GALS ]
Beginning LAMARCKIAN GENETIC ALGORITHM (LGA), with a maximum of 25000000 energy evaluations.

Final-Value: -18.394


	FINAL GENETIC ALGORITHM DOCKED STATE
	_______________________________________________


Detailed state:  trans 8.940 35.308 -0.967 quatxyzw -0.023203 -0.082025 -0.025125 -0.996043 center 8.781 34.984 -0.736 ntor 12 41.1556 121.7584 156.8818 103.5103 -58.7933 -8.7053 -134.9506 55.7472 -16.7301 78.9196 161.3899 162.0099
State:	  8.940  35.308  -0.967  -0.261 -0.923 -0.283 -10.197     41.16  121.76  156.88  103.51  -58.79   -8.71 -134.95   55.75  -16.73   78.92  161.39  162.01

DOCKED: MODEL       44
DOCKED: USER    Run = 44
DOCKED: USER    DPF = D:/Protein_go_brrr/autodock/final/2DN3/heme_Co/dock.dpf
DOCKED: USER  
DOCKED: USER    Estimated Free Energy of Binding    =  -12.52 kcal/mol  [=(1)+(2)+(3)-(4)]
DOCKED: USER    Estimated Inhibition Constant, Ki   =  664.14 pM (picomolar)  [Temperature = 298.15 K]
DOCKED: USER    
DOCKED: USER    (1) Final Intermolecular Energy     =  -16.10 kcal/mol
DOCKED: USER        vdW + Hbond + desolv Energy     =  -14.11 kcal/mol
DOCKED: USER        Electrostatic Energy            =   -1.99 kcal/mol
DOCKED: USER    (2) Final Total Internal Energy     =   -2.29 kcal/mol
DOCKED: USER    (3) Torsional Free Energy           =   +3.58 kcal/mol
DOCKED: USER    (4) Unbound System's Energy  [=(2)] =   -2.29 kcal/mol
DOCKED: USER    
DOCKED: USER    
DOCKED: USER    NEWDPF move heme_Co_opt.pdbqt
DOCKED: USER    NEWDPF about 8.781000 34.984000 -0.736000
DOCKED: USER    NEWDPF tran0 8.940253 35.308237 -0.966621
DOCKED: USER    NEWDPF quaternion0 -0.023203 -0.082025 -0.025125 -0.996043
DOCKED: USER    NEWDPF axisangle0 -0.261090 -0.922985 -0.282721 -10.197102
DOCKED: USER    NEWDPF quat0 -0.261090 -0.922985 -0.282721 -10.197102
DOCKED: USER    NEWDPF dihe0 41.16 121.76 156.88 103.51 -58.79 -8.71 -134.95 55.75 -16.73 78.92 161.39 162.01 
DOCKED: USER  keepresnum = 1 
DOCKED: USER  
DOCKED: REMARK  12 active torsions:
DOCKED: REMARK  status: ('A' for Active; 'I' for Inactive)
DOCKED: REMARK    1  A    between atoms: C_6  and  C_10 
DOCKED: REMARK    2  A    between atoms: C_10  and  C_11 
DOCKED: REMARK    3  A    between atoms: C_11  and  C_12 
DOCKED: REMARK    4  A    between atoms: C_12  and  O_14 
DOCKED: REMARK    5  A    between atoms: C_17  and  C_20 
DOCKED: REMARK    6  A    between atoms: C_24  and  C_27 
DOCKED: REMARK    7  A    between atoms: C_31  and  C_34 
DOCKED: REMARK    8  A    between atoms: C_34  and  C_35 
DOCKED: REMARK    9  A    between atoms: C_35  and  C_36 
DOCKED: REMARK   10  A    between atoms: C_36  and  O_38 
DOCKED: REMARK   11  A    between atoms: FE_43  and  C_44 
DOCKED: REMARK   12  A    between atoms: C_44  and  O_45 
DOCKED: USER                              x       y       z     vdW  Elec       q    Type
DOCKED: USER                           _______ _______ _______ _____ _____    ______ ____
DOCKED: ROOT
DOCKED: ATOM      1  C   UNL d   1       7.199  35.853  -2.144 -0.24 +0.01    +0.064 A 
DOCKED: ATOM      2  C   UNL d   1       7.690  33.329   1.856 -0.45 +0.01    +0.064 C 
DOCKED: ATOM      3  C   UNL d   1      12.445  33.650   1.520 -0.31 +0.00    +0.064 A 
DOCKED: ATOM      4  C   UNL d   1      11.961  36.555  -2.352 -0.40 +0.00    +0.064 A 
DOCKED: ATOM      5  C   UNL d   1       6.984  35.109  -1.046 -0.30 +0.01    +0.066 A 
DOCKED: ATOM      6  C   UNL d   1       5.688  34.845  -0.563 -0.29 -0.00    -0.021 A 
DOCKED: ATOM      7  C   UNL d   1       5.837  34.132   0.610 -0.34 -0.00    -0.025 A 
DOCKED: ATOM      8  C   UNL d   1       7.216  33.977   0.784 -0.34 +0.01    +0.066 A 
DOCKED: ATOM      9  C   UNL d   1       4.733  33.611   1.543 -0.37 +0.01    +0.051 C 
DOCKED: ATOM     10  C   UNL d   1       9.091  33.097   2.106 -0.36 +0.01    +0.066 A 
DOCKED: ATOM     11  C   UNL d   1       9.645  32.306   3.135 -0.45 -0.00    -0.021 A 
DOCKED: ATOM     12  C   UNL d   1      11.033  32.414   3.011 -0.43 +0.00    +0.000 A 
DOCKED: ATOM     13  C   UNL d   1      11.222  33.251   1.911 -0.36 +0.00    +0.070 A 
DOCKED: ATOM     14  C   UNL d   1       8.881  31.437   4.101 -0.56 +0.00    +0.052 C 
DOCKED: ATOM     15  C   UNL d   1      12.819  34.548   0.444 -0.35 +0.01    +0.066 A 
DOCKED: ATOM     16  C   UNL d   1      14.092  35.035   0.184 -0.42 -0.00    -0.021 A 
DOCKED: ATOM     17  C   UNL d   1      13.957  35.875  -0.931 -0.43 +0.00    +0.000 A 
DOCKED: ATOM     18  C   UNL d   1      12.610  35.821  -1.273 -0.37 +0.01    +0.070 A 
DOCKED: ATOM     19  C   UNL d   1      15.338  34.698   0.972 -0.59 +0.00    +0.052 C 
DOCKED: ATOM     20  C   UNL d   1      10.640  36.586  -2.651 -0.39 +0.00    +0.066 A 
DOCKED: ATOM     21  C   UNL d   1      10.131  37.359  -3.691 -0.42 -0.00    -0.025 A 
DOCKED: ATOM     22  C   UNL d   1       8.763  37.154  -3.674 -0.34 -0.00    -0.021 A 
DOCKED: ATOM     23  C   UNL d   1       8.503  36.268  -2.607 -0.34 +0.01    +0.066 A 
DOCKED: ATOM     24  C   UNL d   1      10.906  38.265  -4.644 -0.41 -0.01    +0.051 C 
DOCKED: ATOM     25  N   UNL d   1       7.951  34.567  -0.230 -0.13 -0.06    -0.248 N 
DOCKED: ATOM     26  N   UNL d   1      10.048  33.617   1.331 -0.19 -0.03    -0.248 N 
DOCKED: ATOM     27  N   UNL d   1      11.958  35.045  -0.415 -0.17 -0.03    -0.248 N 
DOCKED: ATOM     28  N   UNL d   1       9.636  35.923  -1.983 -0.24 -0.04    -0.248 N 
DOCKED: ATOM     29 FE   UNL d   1      10.073  34.822  -0.331 -0.07 +0.00    +0.000 Fe
DOCKED: ENDROOT
DOCKED: BRANCH   6  30
DOCKED: ATOM     30  C   UNL d   1       4.375  35.334  -1.167 -0.23 +0.02    +0.052 C 
DOCKED: BRANCH  30  31
DOCKED: ATOM     31  C   UNL d   1       3.673  36.301  -0.215 -0.09 +0.07    +0.115 C 
DOCKED: BRANCH  31  32
DOCKED: ATOM     32  C   UNL d   1       2.632  37.148  -0.917 +0.01 +0.17    +0.139 C 
DOCKED: ATOM     33  O   UNL d   1       1.462  36.795  -0.903 -0.38 -0.98    -0.650 OA
DOCKED: BRANCH  32  34
DOCKED: ATOM     34  O   UNL d   1       2.947  38.316  -1.522 -0.16 -1.02    -0.776 OA
DOCKED: ATOM     35  H   UNL d   1       3.770  38.473  -2.006 +0.04 +0.13    +0.167 HD
DOCKED: ENDBRANCH  32  34
DOCKED: ENDBRANCH  31  32
DOCKED: ENDBRANCH  30  31
DOCKED: ENDBRANCH   6  30
DOCKED: BRANCH  29  36
DOCKED: ATOM     36  C   UNL d   1       9.815  36.507   0.889 -0.23 +0.04    +0.190 C 
DOCKED: BRANCH  36  37
DOCKED: ATOM     37  O   UNL d   1      10.452  37.672   1.329 -0.25 -0.05    -0.399 OA
DOCKED: ATOM     38  H   UNL d   1      11.280  37.736   0.775 +0.13 +0.02    +0.209 HD
DOCKED: ENDBRANCH  36  37
DOCKED: ENDBRANCH  29  36
DOCKED: BRANCH  22  39
DOCKED: ATOM     39  C   UNL d   1       7.761  37.827  -4.592 -0.27 +0.00    +0.052 C 
DOCKED: BRANCH  39  40
DOCKED: ATOM     40  C   UNL d   1       7.135  39.054  -3.908 -0.25 +0.01    +0.115 C 
DOCKED: BRANCH  40  41
DOCKED: ATOM     41  C   UNL d   1       5.702  38.857  -3.463 -0.06 +0.03    +0.139 C 
DOCKED: ATOM     42  O   UNL d   1       5.035  39.832  -3.145 -0.00 -0.20    -0.650 OA
DOCKED: BRANCH  41  43
DOCKED: ATOM     43  O   UNL d   1       5.110  37.642  -3.489 +0.06 -0.19    -0.776 OA
DOCKED: ATOM     44  H   UNL d   1       4.298  37.449  -3.002 +0.04 +0.06    +0.167 HD
DOCKED: ENDBRANCH  41  43
DOCKED: ENDBRANCH  40  41
DOCKED: ENDBRANCH  39  40
DOCKED: ENDBRANCH  22  39
DOCKED: BRANCH  12  45
DOCKED: ATOM     45  C   UNL d   1      12.195  31.812   3.790 -0.54 +0.00    +0.004 C 
DOCKED: ATOM     46  C   UNL d   1      12.919  30.720   3.558 -0.61 +0.00    +0.012 C 
DOCKED: ENDBRANCH  12  45
DOCKED: BRANCH  17  47
DOCKED: ATOM     47  C   UNL d   1      14.980  36.720  -1.617 -0.60 +0.00    +0.004 C 
DOCKED: ATOM     48  C   UNL d   1      15.367  37.917  -1.171 -0.63 +0.00    +0.012 C 
DOCKED: ENDBRANCH  17  47
DOCKED: TORSDOF 12
DOCKED: TER
DOCKED: ENDMDL
________________________________________________________________________________


	BEGINNING GENETIC ALGORITHM DOCKING 45 of 100
Run: 45 Seed: 2039059976 1961926181 [ Run 45 of 100 GA/GALS ]
Beginning LAMARCKIAN GENETIC ALGORITHM (LGA), with a maximum of 25000000 energy evaluations.

Final-Value: -16.540


	FINAL GENETIC ALGORITHM DOCKED STATE
	_______________________________________________


Detailed state:  trans 9.066 35.106 -0.570 quatxyzw -0.031760 -0.034361 -0.046568 -0.997819 center 8.781 34.984 -0.736 ntor 12 -73.0477 95.1080 -152.3023 67.2696 -79.8370 13.4505 172.7093 38.6490 -34.7993 -65.2404 51.8841 165.8904
State:	  9.066  35.106  -0.570  -0.481 -0.521 -0.705 -7.570    -73.05   95.11 -152.30   67.27  -79.84   13.45  172.71   38.65  -34.80  -65.24   51.88  165.89

DOCKED: MODEL       45
DOCKED: USER    Run = 45
DOCKED: USER    DPF = D:/Protein_go_brrr/autodock/final/2DN3/heme_Co/dock.dpf
DOCKED: USER  
DOCKED: USER    Estimated Free Energy of Binding    =  -12.22 kcal/mol  [=(1)+(2)+(3)-(4)]
DOCKED: USER    Estimated Inhibition Constant, Ki   =    1.09 nM (nanomolar)  [Temperature = 298.15 K]
DOCKED: USER    
DOCKED: USER    (1) Final Intermolecular Energy     =  -15.80 kcal/mol
DOCKED: USER        vdW + Hbond + desolv Energy     =  -15.09 kcal/mol
DOCKED: USER        Electrostatic Energy            =   -0.71 kcal/mol
DOCKED: USER    (2) Final Total Internal Energy     =   -0.74 kcal/mol
DOCKED: USER    (3) Torsional Free Energy           =   +3.58 kcal/mol
DOCKED: USER    (4) Unbound System's Energy  [=(2)] =   -0.74 kcal/mol
DOCKED: USER    
DOCKED: USER    
DOCKED: USER    NEWDPF move heme_Co_opt.pdbqt
DOCKED: USER    NEWDPF about 8.781000 34.984000 -0.736000
DOCKED: USER    NEWDPF tran0 9.065728 35.106466 -0.569562
DOCKED: USER    NEWDPF quaternion0 -0.031760 -0.034361 -0.046568 -0.997819
DOCKED: USER    NEWDPF axisangle0 -0.481106 -0.520507 -0.705415 -7.570200
DOCKED: USER    NEWDPF quat0 -0.481106 -0.520507 -0.705415 -7.570200
DOCKED: USER    NEWDPF dihe0 -73.05 95.11 -152.30 67.27 -79.84 13.45 172.71 38.65 -34.80 -65.24 51.88 165.89 
DOCKED: USER  keepresnum = 1 
DOCKED: USER  
DOCKED: REMARK  12 active torsions:
DOCKED: REMARK  status: ('A' for Active; 'I' for Inactive)
DOCKED: REMARK    1  A    between atoms: C_6  and  C_10 
DOCKED: REMARK    2  A    between atoms: C_10  and  C_11 
DOCKED: REMARK    3  A    between atoms: C_11  and  C_12 
DOCKED: REMARK    4  A    between atoms: C_12  and  O_14 
DOCKED: REMARK    5  A    between atoms: C_17  and  C_20 
DOCKED: REMARK    6  A    between atoms: C_24  and  C_27 
DOCKED: REMARK    7  A    between atoms: C_31  and  C_34 
DOCKED: REMARK    8  A    between atoms: C_34  and  C_35 
DOCKED: REMARK    9  A    between atoms: C_35  and  C_36 
DOCKED: REMARK   10  A    between atoms: C_36  and  O_38 
DOCKED: REMARK   11  A    between atoms: FE_43  and  C_44 
DOCKED: REMARK   12  A    between atoms: C_44  and  O_45 
DOCKED: USER                              x       y       z     vdW  Elec       q    Type
DOCKED: USER                           _______ _______ _______ _____ _____    ______ ____
DOCKED: ROOT
DOCKED: ATOM      1  C   UNL d   1       7.247  35.721  -1.584 -0.11 +0.01    +0.064 A 
DOCKED: ATOM      2  C   UNL d   1       7.999  33.213   2.385 -0.44 +0.01    +0.064 C 
DOCKED: ATOM      3  C   UNL d   1      12.711  33.309   1.597 -0.35 +0.00    +0.064 A 
DOCKED: ATOM      4  C   UNL d   1      11.996  36.199  -2.250 -0.41 +0.00    +0.064 A 
DOCKED: ATOM      5  C   UNL d   1       7.104  34.998  -0.462 -0.29 +0.01    +0.066 A 
DOCKED: ATOM      6  C   UNL d   1       5.848  34.800   0.145 -0.33 -0.00    -0.021 A 
DOCKED: ATOM      7  C   UNL d   1       6.075  34.090   1.308 -0.40 -0.00    -0.025 A 
DOCKED: ATOM      8  C   UNL d   1       7.456  33.872   1.353 -0.37 +0.01    +0.066 A 
DOCKED: ATOM      9  C   UNL d   1       5.042  33.629   2.348 -0.44 +0.00    +0.051 C 
DOCKED: ATOM     10  C   UNL d   1       9.406  32.918   2.504 -0.38 +0.01    +0.066 A 
DOCKED: ATOM     11  C   UNL d   1      10.018  32.111   3.487 -0.46 -0.00    -0.021 A 
DOCKED: ATOM     12  C   UNL d   1      11.391  32.153   3.231 -0.44 +0.00    +0.000 A 
DOCKED: ATOM     13  C   UNL d   1      11.514  32.970   2.107 -0.36 +0.00    +0.070 A 
DOCKED: ATOM     14  C   UNL d   1       9.311  31.287   4.532 -0.64 +0.00    +0.052 C 
DOCKED: ATOM     15  C   UNL d   1      13.022  34.178   0.479 -0.37 +0.01    +0.066 A 
DOCKED: ATOM     16  C   UNL d   1      14.286  34.603   0.093 -0.46 -0.00    -0.021 A 
DOCKED: ATOM     17  C   UNL d   1      14.084  35.438  -1.014 -0.44 +0.00    +0.000 A 
DOCKED: ATOM     18  C   UNL d   1      12.710  35.444  -1.228 -0.36 +0.01    +0.070 A 
DOCKED: ATOM     19  C   UNL d   1      15.584  34.215   0.765 -0.53 +0.00    +0.052 C 
DOCKED: ATOM     20  C   UNL d   1      10.655  36.288  -2.423 -0.39 +0.01    +0.066 A 
DOCKED: ATOM     21  C   UNL d   1      10.085  37.075  -3.421 -0.37 -0.00    -0.025 A 
DOCKED: ATOM     22  C   UNL d   1       8.718  36.935  -3.272 -0.35 -0.00    -0.021 A 
DOCKED: ATOM     23  C   UNL d   1       8.519  36.071  -2.174 -0.31 +0.01    +0.066 A 
DOCKED: ATOM     24  C   UNL d   1      10.807  37.936  -4.455 -0.51 -0.00    +0.051 C 
DOCKED: ATOM     25  N   UNL d   1       8.118  34.419   0.267 -0.16 -0.05    -0.248 N 
DOCKED: ATOM     26  N   UNL d   1      10.308  33.386   1.635 -0.22 -0.03    -0.248 N 
DOCKED: ATOM     27  N   UNL d   1      12.107  34.708  -0.301 -0.17 -0.03    -0.248 N 
DOCKED: ATOM     28  N   UNL d   1       9.690  35.679  -1.656 -0.19 -0.05    -0.248 N 
DOCKED: ATOM     29 FE   UNL d   1      10.230  34.573  -0.037 -0.07 +0.00    +0.000 Fe
DOCKED: ENDROOT
DOCKED: BRANCH   6  30
DOCKED: ATOM     30  C   UNL d   1       4.508  35.343  -0.339 -0.28 +0.02    +0.052 C 
DOCKED: BRANCH  30  31
DOCKED: ATOM     31  C   UNL d   1       3.429  34.264  -0.256 -0.19 +0.03    +0.115 C 
DOCKED: BRANCH  31  32
DOCKED: ATOM     32  C   UNL d   1       2.083  34.824   0.150 -0.14 +0.07    +0.139 C 
DOCKED: ATOM     33  O   UNL d   1       1.692  35.869  -0.348 -0.09 -0.57    -0.650 OA
DOCKED: BRANCH  32  34
DOCKED: ATOM     34  O   UNL d   1       1.269  34.178   1.017 +0.03 -0.27    -0.776 OA
DOCKED: ATOM     35  H   UNL d   1       0.726  33.412   0.785 +0.03 +0.04    +0.167 HD
DOCKED: ENDBRANCH  32  34
DOCKED: ENDBRANCH  31  32
DOCKED: ENDBRANCH  30  31
DOCKED: ENDBRANCH   6  30
DOCKED: BRANCH  29  36
DOCKED: ATOM     36  C   UNL d   1      10.166  36.279   1.179 -0.26 +0.03    +0.190 C 
DOCKED: BRANCH  36  37
DOCKED: ATOM     37  O   UNL d   1      10.701  37.564   1.326 -0.24 -0.05    -0.399 OA
DOCKED: ATOM     38  H   UNL d   1      11.528  37.563   0.768 +0.13 +0.02    +0.209 HD
DOCKED: ENDBRANCH  36  37
DOCKED: ENDBRANCH  29  36
DOCKED: BRANCH  22  39
DOCKED: ATOM     39  C   UNL d   1       7.664  37.645  -4.101 -0.29 +0.00    +0.052 C 
DOCKED: BRANCH  39  40
DOCKED: ATOM     40  C   UNL d   1       7.233  38.956  -3.422 -0.24 +0.01    +0.115 C 
DOCKED: BRANCH  40  41
DOCKED: ATOM     41  C   UNL d   1       7.706  40.210  -4.128 -0.32 -0.00    +0.139 C 
DOCKED: ATOM     42  O   UNL d   1       7.364  41.303  -3.699 -0.04 -0.03    -0.650 OA
DOCKED: BRANCH  41  43
DOCKED: ATOM     43  O   UNL d   1       8.568  40.158  -5.167 +0.07 +0.16    -0.776 OA
DOCKED: ATOM     44  H   UNL d   1       9.232  40.841  -5.326 -0.47 -0.09    +0.167 HD
DOCKED: ENDBRANCH  41  43
DOCKED: ENDBRANCH  40  41
DOCKED: ENDBRANCH  39  40
DOCKED: ENDBRANCH  22  39
DOCKED: BRANCH  12  45
DOCKED: ATOM     45  C   UNL d   1      12.593  31.504   3.904 -0.59 +0.00    +0.004 C 
DOCKED: ATOM     46  C   UNL d   1      12.882  30.222   4.112 -0.68 +0.00    +0.012 C 
DOCKED: ENDBRANCH  12  45
DOCKED: BRANCH  17  47
DOCKED: ATOM     47  C   UNL d   1      15.074  36.229  -1.805 -0.57 +0.00    +0.004 C 
DOCKED: ATOM     48  C   UNL d   1      15.258  37.543  -1.655 -0.64 +0.00    +0.012 C 
DOCKED: ENDBRANCH  17  47
DOCKED: TORSDOF 12
DOCKED: TER
DOCKED: ENDMDL
________________________________________________________________________________


	BEGINNING GENETIC ALGORITHM DOCKING 46 of 100
Run: 46 Seed: 1662179324 1271988283 [ Run 46 of 100 GA/GALS ]
Beginning LAMARCKIAN GENETIC ALGORITHM (LGA), with a maximum of 25000000 energy evaluations.

Final-Value: -11.145


	FINAL GENETIC ALGORITHM DOCKED STATE
	_______________________________________________


Detailed state:  trans 42.090 44.257 2.998 quatxyzw 0.733299 -0.576027 0.025044 0.360330 center 8.781 34.984 -0.736 ntor 12 32.0957 110.4809 -53.9911 115.6956 119.1673 89.6317 -150.9171 -10.8153 -50.6023 173.3350 -158.9144 177.8173
State:	 42.090  44.257   2.998   0.786 -0.618  0.027 137.759     32.10  110.48  -53.99  115.70  119.17   89.63 -150.92  -10.82  -50.60  173.34 -158.91  177.82

DOCKED: MODEL       46
DOCKED: USER    Run = 46
DOCKED: USER    DPF = D:/Protein_go_brrr/autodock/final/2DN3/heme_Co/dock.dpf
DOCKED: USER  
DOCKED: USER    Estimated Free Energy of Binding    =   -4.91 kcal/mol  [=(1)+(2)+(3)-(4)]
DOCKED: USER    Estimated Inhibition Constant, Ki   =  250.23 uM (micromolar)  [Temperature = 298.15 K]
DOCKED: USER    
DOCKED: USER    (1) Final Intermolecular Energy     =   -8.49 kcal/mol
DOCKED: USER        vdW + Hbond + desolv Energy     =   -6.59 kcal/mol
DOCKED: USER        Electrostatic Energy            =   -1.90 kcal/mol
DOCKED: USER    (2) Final Total Internal Energy     =   -2.65 kcal/mol
DOCKED: USER    (3) Torsional Free Energy           =   +3.58 kcal/mol
DOCKED: USER    (4) Unbound System's Energy  [=(2)] =   -2.65 kcal/mol
DOCKED: USER    
DOCKED: USER    
DOCKED: USER    NEWDPF move heme_Co_opt.pdbqt
DOCKED: USER    NEWDPF about 8.781000 34.984000 -0.736000
DOCKED: USER    NEWDPF tran0 42.089910 44.256819 2.997902
DOCKED: USER    NEWDPF quaternion0 0.733299 -0.576027 0.025044 0.360330
DOCKED: USER    NEWDPF axisangle0 0.786106 -0.617508 0.026847 137.759090
DOCKED: USER    NEWDPF quat0 0.786106 -0.617508 0.026847 137.759090
DOCKED: USER    NEWDPF dihe0 32.10 110.48 -53.99 115.70 119.17 89.63 -150.92 -10.82 -50.60 173.34 -158.91 177.82 
DOCKED: USER  keepresnum = 1 
DOCKED: USER  
DOCKED: REMARK  12 active torsions:
DOCKED: REMARK  status: ('A' for Active; 'I' for Inactive)
DOCKED: REMARK    1  A    between atoms: C_6  and  C_10 
DOCKED: REMARK    2  A    between atoms: C_10  and  C_11 
DOCKED: REMARK    3  A    between atoms: C_11  and  C_12 
DOCKED: REMARK    4  A    between atoms: C_12  and  O_14 
DOCKED: REMARK    5  A    between atoms: C_17  and  C_20 
DOCKED: REMARK    6  A    between atoms: C_24  and  C_27 
DOCKED: REMARK    7  A    between atoms: C_31  and  C_34 
DOCKED: REMARK    8  A    between atoms: C_34  and  C_35 
DOCKED: REMARK    9  A    between atoms: C_35  and  C_36 
DOCKED: REMARK   10  A    between atoms: C_36  and  O_38 
DOCKED: REMARK   11  A    between atoms: FE_43  and  C_44 
DOCKED: REMARK   12  A    between atoms: C_44  and  O_45 
DOCKED: USER                              x       y       z     vdW  Elec       q    Type
DOCKED: USER                           _______ _______ _______ _____ _____    ______ ____
DOCKED: ROOT
DOCKED: ATOM      1  C   UNL d   1      40.645  45.463   4.080 -0.20 +0.01    +0.064 A 
DOCKED: ATOM      2  C   UNL d   1      44.954  46.447   2.326 -0.12 -0.00    +0.064 C 
DOCKED: ATOM      3  C   UNL d   1      45.520  41.877   1.054 -0.07 +0.01    +0.064 A 
DOCKED: ATOM      4  C   UNL d   1      40.970  40.927   2.488 -0.23 +0.02    +0.064 A 
DOCKED: ATOM      5  C   UNL d   1      41.795  46.060   3.727 -0.20 +0.01    +0.066 A 
DOCKED: ATOM      6  C   UNL d   1      41.994  47.447   3.875 -0.21 +0.00    -0.021 A 
DOCKED: ATOM      7  C   UNL d   1      43.236  47.731   3.344 -0.11 +0.00    -0.025 A 
DOCKED: ATOM      8  C   UNL d   1      43.749  46.504   2.909 -0.14 -0.00    +0.066 A 
DOCKED: ATOM      9  C   UNL d   1      43.928  49.099   3.241 -0.07 -0.01    +0.051 C 
DOCKED: ATOM     10  C   UNL d   1      45.574  45.228   1.871 -0.10 -0.00    +0.066 A 
DOCKED: ATOM     11  C   UNL d   1      46.890  45.083   1.380 -0.06 +0.00    -0.021 A 
DOCKED: ATOM     12  C   UNL d   1      47.029  43.740   1.020 -0.07 +0.00    +0.000 A 
DOCKED: ATOM     13  C   UNL d   1      45.797  43.164   1.329 -0.09 +0.01    +0.070 A 
DOCKED: ATOM     14  C   UNL d   1      47.955  46.148   1.356 -0.03 -0.00    +0.052 C 
DOCKED: ATOM     15  C   UNL d   1      44.290  41.137   1.256 -0.07 +0.01    +0.066 A 
DOCKED: ATOM     16  C   UNL d   1      44.023  39.848   0.815 -0.13 -0.00    -0.021 A 
DOCKED: ATOM     17  C   UNL d   1      42.711  39.570   1.225 -0.19 +0.00    +0.000 A 
DOCKED: ATOM     18  C   UNL d   1      42.286  40.710   1.900 -0.18 +0.02    +0.070 A 
DOCKED: ATOM     19  C   UNL d   1      44.985  38.965   0.052 -0.09 +0.01    +0.052 C 
DOCKED: ATOM     20  C   UNL d   1      40.505  42.056   3.073 -0.22 +0.02    +0.066 A 
DOCKED: ATOM     21  C   UNL d   1      39.208  42.156   3.570 -0.29 -0.01    -0.025 A 
DOCKED: ATOM     22  C   UNL d   1      39.094  43.444   4.062 -0.27 -0.01    -0.021 A 
DOCKED: ATOM     23  C   UNL d   1      40.335  44.075   3.827 -0.19 +0.02    +0.066 A 
DOCKED: ATOM     24  C   UNL d   1      38.121  41.084   3.560 -0.33 +0.02    +0.051 C 
DOCKED: ATOM     25  N   UNL d   1      42.880  45.451   3.140 -0.11 -0.02    -0.248 N 
DOCKED: ATOM     26  N   UNL d   1      44.937  44.052   1.896 -0.08 -0.02    -0.248 N 
DOCKED: ATOM     27  N   UNL d   1      43.241  41.633   1.872 +0.06 -0.05    -0.248 N 
DOCKED: ATOM     28  N   UNL d   1      41.191  43.239   3.227 -0.11 -0.06    -0.248 N 
DOCKED: ATOM     29 FE   UNL d   1      43.068  43.428   2.470 -0.05 +0.00    +0.000 Fe
DOCKED: ENDROOT
DOCKED: BRANCH   6  30
DOCKED: ATOM     30  C   UNL d   1      40.992  48.455   4.429 -0.31 -0.00    +0.052 C 
DOCKED: BRANCH  30  31
DOCKED: ATOM     31  C   UNL d   1      39.892  48.737   3.406 -0.19 +0.03    +0.115 C 
DOCKED: BRANCH  31  32
DOCKED: ATOM     32  C   UNL d   1      38.505  48.555   3.984 -0.35 +0.07    +0.139 C 
DOCKED: ATOM     33  O   UNL d   1      38.021  49.440   4.674 -0.18 -0.43    -0.650 OA
DOCKED: BRANCH  32  34
DOCKED: ATOM     34  O   UNL d   1      37.757  47.458   3.723 -0.57 -0.65    -0.776 OA
DOCKED: ATOM     35  H   UNL d   1      38.123  46.588   3.514 +0.06 +0.12    +0.167 HD
DOCKED: ENDBRANCH  32  34
DOCKED: ENDBRANCH  31  32
DOCKED: ENDBRANCH  30  31
DOCKED: ENDBRANCH   6  30
DOCKED: BRANCH  29  36
DOCKED: ATOM     36  C   UNL d   1      42.289  44.081   0.637 -0.04 +0.03    +0.190 C 
DOCKED: BRANCH  36  37
DOCKED: ATOM     37  O   UNL d   1      41.140  44.610   0.039 -0.00 -0.08    -0.399 OA
DOCKED: ATOM     38  H   UNL d   1      40.465  44.649   0.773 +0.03 +0.06    +0.209 HD
DOCKED: ENDBRANCH  36  37
DOCKED: ENDBRANCH  29  36
DOCKED: BRANCH  22  39
DOCKED: ATOM     39  C   UNL d   1      37.840  44.049   4.663 -0.20 +0.02    +0.052 C 
DOCKED: BRANCH  39  40
DOCKED: ATOM     40  C   UNL d   1      36.880  44.519   3.557 -0.30 +0.11    +0.115 C 
DOCKED: BRANCH  40  41
DOCKED: ATOM     41  C   UNL d   1      37.492  44.554   2.172 -0.11 +0.14    +0.139 C 
DOCKED: ATOM     42  O   UNL d   1      36.928  43.976   1.254 -0.04 -0.87    -0.650 OA
DOCKED: BRANCH  41  43
DOCKED: ATOM     43  O   UNL d   1      38.600  45.280   1.904 +0.03 -0.48    -0.776 OA
DOCKED: ATOM     44  H   UNL d   1      38.699  46.200   2.184 +0.04 +0.10    +0.167 HD
DOCKED: ENDBRANCH  41  43
DOCKED: ENDBRANCH  40  41
DOCKED: ENDBRANCH  39  40
DOCKED: ENDBRANCH  22  39
DOCKED: BRANCH  12  45
DOCKED: ATOM     45  C   UNL d   1      48.185  42.935   0.441 -0.04 +0.00    +0.004 C 
DOCKED: ATOM     46  C   UNL d   1      48.975  42.024   1.005 -0.05 +0.00    +0.012 C 
DOCKED: ENDBRANCH  12  45
DOCKED: BRANCH  17  47
DOCKED: ATOM     47  C   UNL d   1      41.870  38.362   0.976 -0.24 +0.00    +0.004 C 
DOCKED: ATOM     48  C   UNL d   1      41.728  37.368   1.856 -0.17 +0.00    +0.012 C 
DOCKED: ENDBRANCH  17  47
DOCKED: TORSDOF 12
DOCKED: TER
DOCKED: ENDMDL
________________________________________________________________________________


	BEGINNING GENETIC ALGORITHM DOCKING 47 of 100
Run: 47 Seed: 2005530982 1273526509 [ Run 47 of 100 GA/GALS ]
Beginning LAMARCKIAN GENETIC ALGORITHM (LGA), with a maximum of 25000000 energy evaluations.

Final-Value: -10.057


	FINAL GENETIC ALGORITHM DOCKED STATE
	_______________________________________________


Detailed state:  trans 23.691 46.178 -2.818 quatxyzw -0.649056 -0.401872 -0.203193 -0.613137 center 8.781 34.984 -0.736 ntor 12 7.7391 127.1229 134.4326 61.1677 -25.7525 95.1537 122.0435 -40.4275 53.5412 -151.4651 -17.4729 153.0010
State:	 23.691  46.178  -2.818  -0.822 -0.509 -0.257 -104.367      7.74  127.12  134.43   61.17  -25.75   95.15  122.04  -40.43   53.54 -151.47  -17.47  153.00

DOCKED: MODEL       47
DOCKED: USER    Run = 47
DOCKED: USER    DPF = D:/Protein_go_brrr/autodock/final/2DN3/heme_Co/dock.dpf
DOCKED: USER  
DOCKED: USER    Estimated Free Energy of Binding    =   -4.33 kcal/mol  [=(1)+(2)+(3)-(4)]
DOCKED: USER    Estimated Inhibition Constant, Ki   =  673.67 uM (micromolar)  [Temperature = 298.15 K]
DOCKED: USER    
DOCKED: USER    (1) Final Intermolecular Energy     =   -7.91 kcal/mol
DOCKED: USER        vdW + Hbond + desolv Energy     =   -7.49 kcal/mol
DOCKED: USER        Electrostatic Energy            =   -0.42 kcal/mol
DOCKED: USER    (2) Final Total Internal Energy     =   -2.15 kcal/mol
DOCKED: USER    (3) Torsional Free Energy           =   +3.58 kcal/mol
DOCKED: USER    (4) Unbound System's Energy  [=(2)] =   -2.15 kcal/mol
DOCKED: USER    
DOCKED: USER    
DOCKED: USER    NEWDPF move heme_Co_opt.pdbqt
DOCKED: USER    NEWDPF about 8.781000 34.984000 -0.736000
DOCKED: USER    NEWDPF tran0 23.691366 46.178063 -2.817963
DOCKED: USER    NEWDPF quaternion0 -0.649056 -0.401872 -0.203193 -0.613137
DOCKED: USER    NEWDPF axisangle0 -0.821615 -0.508714 -0.257214 -104.366599
DOCKED: USER    NEWDPF quat0 -0.821615 -0.508714 -0.257214 -104.366599
DOCKED: USER    NEWDPF dihe0 7.74 127.12 134.43 61.17 -25.75 95.15 122.04 -40.43 53.54 -151.47 -17.47 153.00 
DOCKED: USER  keepresnum = 1 
DOCKED: USER  
DOCKED: REMARK  12 active torsions:
DOCKED: REMARK  status: ('A' for Active; 'I' for Inactive)
DOCKED: REMARK    1  A    between atoms: C_6  and  C_10 
DOCKED: REMARK    2  A    between atoms: C_10  and  C_11 
DOCKED: REMARK    3  A    between atoms: C_11  and  C_12 
DOCKED: REMARK    4  A    between atoms: C_12  and  O_14 
DOCKED: REMARK    5  A    between atoms: C_17  and  C_20 
DOCKED: REMARK    6  A    between atoms: C_24  and  C_27 
DOCKED: REMARK    7  A    between atoms: C_31  and  C_34 
DOCKED: REMARK    8  A    between atoms: C_34  and  C_35 
DOCKED: REMARK    9  A    between atoms: C_35  and  C_36 
DOCKED: REMARK   10  A    between atoms: C_36  and  O_38 
DOCKED: REMARK   11  A    between atoms: FE_43  and  C_44 
DOCKED: REMARK   12  A    between atoms: C_44  and  O_45 
DOCKED: USER                              x       y       z     vdW  Elec       q    Type
DOCKED: USER                           _______ _______ _______ _____ _____    ______ ____
DOCKED: ROOT
DOCKED: ATOM      1  C   UNL d   1      23.120  44.873  -4.457 -0.24 +0.01    +0.064 A 
DOCKED: ATOM      2  C   UNL d   1      20.963  48.599  -2.440 -0.23 -0.01    +0.064 C 
DOCKED: ATOM      3  C   UNL d   1      24.411  48.859   0.858 -0.10 +0.01    +0.064 A 
DOCKED: ATOM      4  C   UNL d   1      26.831  45.301  -1.412 -0.13 +0.02    +0.064 A 
DOCKED: ATOM      5  C   UNL d   1      22.259  45.849  -4.126 -0.24 +0.00    +0.066 A 
DOCKED: ATOM      6  C   UNL d   1      21.128  46.145  -4.912 -0.28 +0.00    -0.021 A 
DOCKED: ATOM      7  C   UNL d   1      20.518  47.242  -4.335 -0.26 +0.00    -0.025 A 
DOCKED: ATOM      8  C   UNL d   1      21.293  47.558  -3.214 -0.25 -0.01    +0.066 A 
DOCKED: ATOM      9  C   UNL d   1      19.254  47.975  -4.809 -0.22 -0.01    +0.051 C 
DOCKED: ATOM     10  C   UNL d   1      21.685  48.984  -1.253 -0.19 -0.00    +0.066 A 
DOCKED: ATOM     11  C   UNL d   1      21.310  49.978  -0.322 -0.23 +0.00    -0.021 A 
DOCKED: ATOM     12  C   UNL d   1      22.331  50.029   0.631 -0.17 +0.00    +0.000 A 
DOCKED: ATOM     13  C   UNL d   1      23.244  49.058   0.220 -0.12 +0.01    +0.070 A 
DOCKED: ATOM     14  C   UNL d   1      20.013  50.746  -0.311 -0.34 -0.01    +0.052 C 
DOCKED: ATOM     15  C   UNL d   1      25.487  47.940   0.541 -0.11 +0.02    +0.066 A 
DOCKED: ATOM     16  C   UNL d   1      26.730  47.885   1.156 -0.12 -0.01    -0.021 A 
DOCKED: ATOM     17  C   UNL d   1      27.432  46.863   0.503 -0.13 +0.00    +0.000 A 
DOCKED: ATOM     18  C   UNL d   1      26.553  46.361  -0.451 -0.11 +0.02    +0.070 A 
DOCKED: ATOM     19  C   UNL d   1      27.185  48.772   2.293 -0.13 +0.02    +0.052 C 
DOCKED: ATOM     20  C   UNL d   1      26.024  44.856  -2.404 -0.19 +0.02    +0.066 A 
DOCKED: ATOM     21  C   UNL d   1      26.417  43.854  -3.289 -0.18 -0.00    -0.025 A 
DOCKED: ATOM     22  C   UNL d   1      25.355  43.689  -4.161 -0.24 -0.00    -0.021 A 
DOCKED: ATOM     23  C   UNL d   1      24.365  44.614  -3.768 -0.28 +0.01    +0.066 A 
DOCKED: ATOM     24  C   UNL d   1      27.746  43.105  -3.317 -0.11 +0.01    +0.051 C 
DOCKED: ATOM     25  N   UNL d   1      22.375  46.708  -3.057 -0.15 -0.01    -0.248 N 
DOCKED: ATOM     26  N   UNL d   1      22.825  48.388  -0.887 -0.09 -0.02    -0.248 N 
DOCKED: ATOM     27  N   UNL d   1      25.416  47.046  -0.420 +0.08 -0.07    -0.248 N 
DOCKED: ATOM     28  N   UNL d   1      24.766  45.324  -2.707 -0.17 -0.05    -0.248 N 
DOCKED: ATOM     29 FE   UNL d   1      23.987  46.884  -1.661 -0.05 +0.00    +0.000 Fe
DOCKED: ENDROOT
DOCKED: BRANCH   6  30
DOCKED: ATOM     30  C   UNL d   1      20.709  45.449  -6.203 -0.28 +0.00    +0.052 C 
DOCKED: BRANCH  30  31
DOCKED: ATOM     31  C   UNL d   1      20.301  44.003  -5.925 -0.41 +0.01    +0.115 C 
DOCKED: BRANCH  31  32
DOCKED: ATOM     32  C   UNL d   1      21.016  43.018  -6.826 -0.30 +0.03    +0.139 C 
DOCKED: ATOM     33  O   UNL d   1      21.707  43.435  -7.743 -0.00 -0.12    -0.650 OA
DOCKED: BRANCH  32  34
DOCKED: ATOM     34  O   UNL d   1      20.954  41.682  -6.620 +0.05 -0.18    -0.776 OA
DOCKED: ATOM     35  H   UNL d   1      20.422  41.262  -5.930 -0.47 -0.02    +0.167 HD
DOCKED: ENDBRANCH  32  34
DOCKED: ENDBRANCH  31  32
DOCKED: ENDBRANCH  30  31
DOCKED: ENDBRANCH   6  30
DOCKED: BRANCH  29  36
DOCKED: ATOM     36  C   UNL d   1      24.850  48.244  -3.003 -0.05 +0.02    +0.190 C 
DOCKED: BRANCH  36  37
DOCKED: ATOM     37  O   UNL d   1      25.325  48.369  -4.313 -0.00 -0.03    -0.399 OA
DOCKED: ATOM     38  H   UNL d   1      24.981  47.561  -4.788 +0.02 +0.02    +0.209 HD
DOCKED: ENDBRANCH  36  37
DOCKED: ENDBRANCH  29  36
DOCKED: BRANCH  22  39
DOCKED: ATOM     39  C   UNL d   1      25.328  42.740  -5.344 -0.19 +0.01    +0.052 C 
DOCKED: BRANCH  39  40
DOCKED: ATOM     40  C   UNL d   1      25.476  43.513  -6.664 -0.07 +0.01    +0.115 C 
DOCKED: BRANCH  40  41
DOCKED: ATOM     41  C   UNL d   1      26.141  44.866  -6.525 -0.02 +0.01    +0.139 C 
DOCKED: ATOM     42  O   UNL d   1      27.335  44.974  -6.767 +0.01 -0.07    -0.650 OA
DOCKED: BRANCH  41  43
DOCKED: ATOM     43  O   UNL d   1      25.434  45.978  -6.224 +0.03 -0.07    -0.776 OA
DOCKED: ATOM     44  H   UNL d   1      25.767  46.659  -5.626 +0.01 +0.02    +0.167 HD
DOCKED: ENDBRANCH  41  43
DOCKED: ENDBRANCH  40  41
DOCKED: ENDBRANCH  39  40
DOCKED: ENDBRANCH  22  39
DOCKED: BRANCH  12  45
DOCKED: ATOM     45  C   UNL d   1      22.539  50.867   1.886 -0.19 -0.00    +0.004 C 
DOCKED: ATOM     46  C   UNL d   1      21.745  51.068   2.934 -0.34 -0.00    +0.012 C 
DOCKED: ENDBRANCH  12  45
DOCKED: BRANCH  17  47
DOCKED: ATOM     47  C   UNL d   1      28.838  46.398   0.696 -0.14 +0.00    +0.004 C 
DOCKED: ATOM     48  C   UNL d   1      29.885  47.224   0.767 -0.19 +0.01    +0.012 C 
DOCKED: ENDBRANCH  17  47
DOCKED: TORSDOF 12
DOCKED: TER
DOCKED: ENDMDL
________________________________________________________________________________


	BEGINNING GENETIC ALGORITHM DOCKING 48 of 100
Run: 48 Seed: 187205406 1982509856 [ Run 48 of 100 GA/GALS ]
Beginning LAMARCKIAN GENETIC ALGORITHM (LGA), with a maximum of 25000000 energy evaluations.

Final-Value: -10.264


	FINAL GENETIC ALGORITHM DOCKED STATE
	_______________________________________________


Detailed state:  trans 43.050 16.552 16.673 quatxyzw 0.130814 -0.611055 0.668343 0.403506 center 8.781 34.984 -0.736 ntor 12 167.8745 100.6798 -84.9198 119.3398 133.1594 143.8060 -161.4396 -85.0888 77.9072 85.3233 -144.7849 180.0000
State:	 43.050  16.552  16.673   0.143 -0.668  0.730 132.405    167.87  100.68  -84.92  119.34  133.16  143.81 -161.44  -85.09   77.91   85.32 -144.78  180.00

DOCKED: MODEL       48
DOCKED: USER    Run = 48
DOCKED: USER    DPF = D:/Protein_go_brrr/autodock/final/2DN3/heme_Co/dock.dpf
DOCKED: USER  
DOCKED: USER    Estimated Free Energy of Binding    =   -6.04 kcal/mol  [=(1)+(2)+(3)-(4)]
DOCKED: USER    Estimated Inhibition Constant, Ki   =   37.43 uM (micromolar)  [Temperature = 298.15 K]
DOCKED: USER    
DOCKED: USER    (1) Final Intermolecular Energy     =   -9.62 kcal/mol
DOCKED: USER        vdW + Hbond + desolv Energy     =   -6.88 kcal/mol
DOCKED: USER        Electrostatic Energy            =   -2.74 kcal/mol
DOCKED: USER    (2) Final Total Internal Energy     =   -0.64 kcal/mol
DOCKED: USER    (3) Torsional Free Energy           =   +3.58 kcal/mol
DOCKED: USER    (4) Unbound System's Energy  [=(2)] =   -0.64 kcal/mol
DOCKED: USER    
DOCKED: USER    
DOCKED: USER    NEWDPF move heme_Co_opt.pdbqt
DOCKED: USER    NEWDPF about 8.781000 34.984000 -0.736000
DOCKED: USER    NEWDPF tran0 43.049791 16.552268 16.673423
DOCKED: USER    NEWDPF quaternion0 0.130814 -0.611055 0.668343 0.403506
DOCKED: USER    NEWDPF axisangle0 0.142970 -0.667837 0.730448 132.404958
DOCKED: USER    NEWDPF quat0 0.142970 -0.667837 0.730448 132.404958
DOCKED: USER    NEWDPF dihe0 167.87 100.68 -84.92 119.34 133.16 143.81 -161.44 -85.09 77.91 85.32 -144.78 180.00 
DOCKED: USER  keepresnum = 1 
DOCKED: USER  
DOCKED: REMARK  12 active torsions:
DOCKED: REMARK  status: ('A' for Active; 'I' for Inactive)
DOCKED: REMARK    1  A    between atoms: C_6  and  C_10 
DOCKED: REMARK    2  A    between atoms: C_10  and  C_11 
DOCKED: REMARK    3  A    between atoms: C_11  and  C_12 
DOCKED: REMARK    4  A    between atoms: C_12  and  O_14 
DOCKED: REMARK    5  A    between atoms: C_17  and  C_20 
DOCKED: REMARK    6  A    between atoms: C_24  and  C_27 
DOCKED: REMARK    7  A    between atoms: C_31  and  C_34 
DOCKED: REMARK    8  A    between atoms: C_34  and  C_35 
DOCKED: REMARK    9  A    between atoms: C_35  and  C_36 
DOCKED: REMARK   10  A    between atoms: C_36  and  O_38 
DOCKED: REMARK   11  A    between atoms: FE_43  and  C_44 
DOCKED: REMARK   12  A    between atoms: C_44  and  O_45 
DOCKED: USER                              x       y       z     vdW  Elec       q    Type
DOCKED: USER                           _______ _______ _______ _____ _____    ______ ____
DOCKED: ROOT
DOCKED: ATOM      1  C   UNL d   1      43.910  18.546  16.643 -0.22 +0.02    +0.064 A 
DOCKED: ATOM      2  C   UNL d   1      44.590  14.817  19.514 -0.16 +0.01    +0.064 C 
DOCKED: ATOM      3  C   UNL d   1      41.134  12.406  17.262 -0.08 +0.01    +0.064 A 
DOCKED: ATOM      4  C   UNL d   1      40.685  16.052  14.073 -0.16 +0.00    +0.064 A 
DOCKED: ATOM      5  C   UNL d   1      44.325  17.718  17.616 -0.20 +0.02    +0.066 A 
DOCKED: ATOM      6  C   UNL d   1      45.399  18.043  18.466 -0.19 -0.01    -0.021 A 
DOCKED: ATOM      7  C   UNL d   1      45.607  16.948  19.282 -0.17 -0.01    -0.025 A 
DOCKED: ATOM      8  C   UNL d   1      44.641  16.009  18.906 -0.17 +0.02    +0.066 A 
DOCKED: ATOM      9  C   UNL d   1      46.671  16.777  20.377 -0.10 +0.01    +0.051 C 
DOCKED: ATOM     10  C   UNL d   1      43.615  13.798  19.212 -0.12 +0.01    +0.066 A 
DOCKED: ATOM     11  C   UNL d   1      43.420  12.585  19.908 -0.09 -0.00    -0.021 A 
DOCKED: ATOM     12  C   UNL d   1      42.403  11.903  19.232 -0.08 +0.00    +0.000 A 
DOCKED: ATOM     13  C   UNL d   1      42.046  12.754  18.186 -0.09 +0.01    +0.070 A 
DOCKED: ATOM     14  C   UNL d   1      44.103  12.169  21.185 -0.05 +0.01    +0.052 C 
DOCKED: ATOM     15  C   UNL d   1      40.684  13.135  16.092 -0.10 +0.01    +0.066 A 
DOCKED: ATOM     16  C   UNL d   1      39.844  12.657  15.096 -0.07 -0.00    -0.021 A 
DOCKED: ATOM     17  C   UNL d   1      39.714  13.704  14.173 -0.11 +0.00    +0.000 A 
DOCKED: ATOM     18  C   UNL d   1      40.474  14.748  14.689 -0.17 +0.01    +0.070 A 
DOCKED: ATOM     19  C   UNL d   1      39.223  11.278  15.060 -0.03 +0.01    +0.052 C 
DOCKED: ATOM     20  C   UNL d   1      41.488  17.051  14.512 -0.24 +0.01    +0.066 A 
DOCKED: ATOM     21  C   UNL d   1      41.637  18.247  13.813 -0.32 -0.00    -0.025 A 
DOCKED: ATOM     22  C   UNL d   1      42.539  18.997  14.545 -0.30 -0.00    -0.021 A 
DOCKED: ATOM     23  C   UNL d   1      42.907  18.211  15.658 -0.23 +0.02    +0.066 A 
DOCKED: ATOM     24  C   UNL d   1      40.969  18.648  12.501 -0.37 +0.01    +0.051 C 
DOCKED: ATOM     25  N   UNL d   1      43.828  16.461  17.880 +0.06 -0.07    -0.248 N 
DOCKED: ATOM     26  N   UNL d   1      42.740  13.923  18.209 -0.00 -0.05    -0.248 N 
DOCKED: ATOM     27  N   UNL d   1      41.061  14.363  15.817 -0.10 -0.04    -0.248 N 
DOCKED: ATOM     28  N   UNL d   1      42.275  17.031  15.640 -0.06 -0.05    -0.248 N 
DOCKED: ATOM     29 FE   UNL d   1      42.362  15.353  16.785 -0.04 +0.00    +0.000 Fe
DOCKED: ENDROOT
DOCKED: BRANCH   6  30
DOCKED: ATOM     30  C   UNL d   1      46.234  19.319  18.431 -0.18 +0.03    +0.052 C 
DOCKED: BRANCH  30  31
DOCKED: ATOM     31  C   UNL d   1      46.935  19.464  17.080 -0.08 +0.13    +0.115 C 
DOCKED: BRANCH  31  32
DOCKED: ATOM     32  C   UNL d   1      48.408  19.124  17.156 -0.02 +0.14    +0.139 C 
DOCKED: ATOM     33  O   UNL d   1      48.748  17.966  17.347 +0.01 -0.36    -0.650 OA
DOCKED: BRANCH  32  34
DOCKED: ATOM     34  O   UNL d   1      49.371  20.057  16.968 -0.45 -1.15    -0.776 OA
DOCKED: ATOM     35  H   UNL d   1      50.296  19.942  17.224 +0.01 +0.15    +0.167 HD
DOCKED: ENDBRANCH  32  34
DOCKED: ENDBRANCH  31  32
DOCKED: ENDBRANCH  30  31
DOCKED: ENDBRANCH   6  30
DOCKED: BRANCH  29  36
DOCKED: ATOM     36  C   UNL d   1      43.947  14.617  15.628 -0.05 +0.04    +0.190 C 
DOCKED: BRANCH  36  37
DOCKED: ATOM     37  O   UNL d   1      45.308  14.794  15.360 -0.00 -0.08    -0.399 OA
DOCKED: ATOM     38  H   UNL d   1      45.541  15.668  15.783 +0.02 +0.05    +0.209 HD
DOCKED: ENDBRANCH  36  37
DOCKED: ENDBRANCH  29  36
DOCKED: BRANCH  22  39
DOCKED: ATOM     39  C   UNL d   1      43.063  20.367  14.157 -0.40 +0.02    +0.052 C 
DOCKED: BRANCH  39  40
DOCKED: ATOM     40  C   UNL d   1      44.158  20.245  13.084 -0.32 +0.05    +0.115 C 
DOCKED: BRANCH  40  41
DOCKED: ATOM     41  C   UNL d   1      45.571  20.354  13.618 -0.26 +0.14    +0.139 C 
DOCKED: ATOM     42  O   UNL d   1      45.920  19.630  14.540 -0.06 -0.73    -0.650 OA
DOCKED: BRANCH  41  43
DOCKED: ATOM     43  O   UNL d   1      46.485  21.169  13.046 -0.53 -1.22    -0.776 OA
DOCKED: ATOM     44  H   UNL d   1      46.954  20.935  12.235 -0.20 +0.11    +0.167 HD
DOCKED: ENDBRANCH  41  43
DOCKED: ENDBRANCH  40  41
DOCKED: ENDBRANCH  39  40
DOCKED: ENDBRANCH  22  39
DOCKED: BRANCH  12  45
DOCKED: ATOM     45  C   UNL d   1      41.720  10.563  19.465 -0.04 +0.00    +0.004 C 
DOCKED: ATOM     46  C   UNL d   1      40.479  10.279  19.853 -0.04 +0.00    +0.012 C 
DOCKED: ENDBRANCH  12  45
DOCKED: BRANCH  17  47
DOCKED: ATOM     47  C   UNL d   1      38.984  13.742  12.871 -0.11 +0.00    +0.004 C 
DOCKED: ATOM     48  C   UNL d   1      37.888  14.476  12.661 -0.19 +0.00    +0.012 C 
DOCKED: ENDBRANCH  17  47
DOCKED: TORSDOF 12
DOCKED: TER
DOCKED: ENDMDL
________________________________________________________________________________


	BEGINNING GENETIC ALGORITHM DOCKING 49 of 100
Run: 49 Seed: 1106440906 71314221 [ Run 49 of 100 GA/GALS ]
Beginning LAMARCKIAN GENETIC ALGORITHM (LGA), with a maximum of 25000000 energy evaluations.

Final-Value: -11.390


	FINAL GENETIC ALGORITHM DOCKED STATE
	_______________________________________________


Detailed state:  trans 28.455 38.483 0.580 quatxyzw -0.489892 -0.662115 0.391944 0.409866 center 8.781 34.984 -0.736 ntor 12 161.1403 126.0972 -63.3536 93.4348 132.9887 136.8556 -122.1877 -141.6693 -143.0308 -63.9686 176.5443 -166.6805
State:	 28.455  38.483   0.580  -0.537 -0.726  0.430 131.607    161.14  126.10  -63.35   93.43  132.99  136.86 -122.19 -141.67 -143.03  -63.97  176.54 -166.68

DOCKED: MODEL       49
DOCKED: USER    Run = 49
DOCKED: USER    DPF = D:/Protein_go_brrr/autodock/final/2DN3/heme_Co/dock.dpf
DOCKED: USER  
DOCKED: USER    Estimated Free Energy of Binding    =   -5.71 kcal/mol  [=(1)+(2)+(3)-(4)]
DOCKED: USER    Estimated Inhibition Constant, Ki   =   65.10 uM (micromolar)  [Temperature = 298.15 K]
DOCKED: USER    
DOCKED: USER    (1) Final Intermolecular Energy     =   -9.29 kcal/mol
DOCKED: USER        vdW + Hbond + desolv Energy     =   -7.51 kcal/mol
DOCKED: USER        Electrostatic Energy            =   -1.78 kcal/mol
DOCKED: USER    (2) Final Total Internal Energy     =   -2.10 kcal/mol
DOCKED: USER    (3) Torsional Free Energy           =   +3.58 kcal/mol
DOCKED: USER    (4) Unbound System's Energy  [=(2)] =   -2.10 kcal/mol
DOCKED: USER    
DOCKED: USER    
DOCKED: USER    NEWDPF move heme_Co_opt.pdbqt
DOCKED: USER    NEWDPF about 8.781000 34.984000 -0.736000
DOCKED: USER    NEWDPF tran0 28.455262 38.483270 0.579864
DOCKED: USER    NEWDPF quaternion0 -0.489892 -0.662115 0.391944 0.409866
DOCKED: USER    NEWDPF axisangle0 -0.537076 -0.725887 0.429694 131.607183
DOCKED: USER    NEWDPF quat0 -0.537076 -0.725887 0.429694 131.607183
DOCKED: USER    NEWDPF dihe0 161.14 126.10 -63.35 93.43 132.99 136.86 -122.19 -141.67 -143.03 -63.97 176.54 -166.68 
DOCKED: USER  keepresnum = 1 
DOCKED: USER  
DOCKED: REMARK  12 active torsions:
DOCKED: REMARK  status: ('A' for Active; 'I' for Inactive)
DOCKED: REMARK    1  A    between atoms: C_6  and  C_10 
DOCKED: REMARK    2  A    between atoms: C_10  and  C_11 
DOCKED: REMARK    3  A    between atoms: C_11  and  C_12 
DOCKED: REMARK    4  A    between atoms: C_12  and  O_14 
DOCKED: REMARK    5  A    between atoms: C_17  and  C_20 
DOCKED: REMARK    6  A    between atoms: C_24  and  C_27 
DOCKED: REMARK    7  A    between atoms: C_31  and  C_34 
DOCKED: REMARK    8  A    between atoms: C_34  and  C_35 
DOCKED: REMARK    9  A    between atoms: C_35  and  C_36 
DOCKED: REMARK   10  A    between atoms: C_36  and  O_38 
DOCKED: REMARK   11  A    between atoms: FE_43  and  C_44 
DOCKED: REMARK   12  A    between atoms: C_44  and  O_45 
DOCKED: USER                              x       y       z     vdW  Elec       q    Type
DOCKED: USER                           _______ _______ _______ _____ _____    ______ ____
DOCKED: ROOT
DOCKED: ATOM      1  C   UNL d   1      29.160  38.738   2.618 -0.17 -0.00    +0.064 A 
DOCKED: ATOM      2  C   UNL d   1      26.941  35.146   0.431 -0.25 +0.01    +0.064 C 
DOCKED: ATOM      3  C   UNL d   1      26.493  37.784  -3.528 -0.22 +0.01    +0.064 A 
DOCKED: ATOM      4  C   UNL d   1      29.096  41.327  -1.446 -0.09 +0.01    +0.064 A 
DOCKED: ATOM      5  C   UNL d   1      28.555  37.576   2.323 -0.18 +0.00    +0.066 A 
DOCKED: ATOM      6  C   UNL d   1      28.538  36.493   3.224 -0.20 -0.00    -0.021 A 
DOCKED: ATOM      7  C   UNL d   1      27.913  35.446   2.575 -0.22 -0.01    -0.025 A 
DOCKED: ATOM      8  C   UNL d   1      27.561  35.939   1.314 -0.20 +0.01    +0.066 A 
DOCKED: ATOM      9  C   UNL d   1      27.650  34.029   3.109 -0.29 +0.03    +0.051 C 
DOCKED: ATOM     10  C   UNL d   1      26.518  35.573  -0.879 -0.17 +0.01    +0.066 A 
DOCKED: ATOM     11  C   UNL d   1      25.741  34.834  -1.798 -0.24 -0.00    -0.021 A 
DOCKED: ATOM     12  C   UNL d   1      25.622  35.628  -2.941 -0.25 -0.00    +0.000 A 
DOCKED: ATOM     13  C   UNL d   1      26.322  36.795  -2.633 -0.19 +0.00    +0.070 A 
DOCKED: ATOM     14  C   UNL d   1      25.086  33.501  -1.542 -0.24 -0.00    +0.052 C 
DOCKED: ATOM     15  C   UNL d   1      27.227  39.027  -3.396 -0.17 +0.01    +0.066 A 
DOCKED: ATOM     16  C   UNL d   1      27.486  39.941  -4.408 -0.14 -0.00    -0.021 A 
DOCKED: ATOM     17  C   UNL d   1      28.239  40.963  -3.813 -0.10 +0.00    +0.000 A 
DOCKED: ATOM     18  C   UNL d   1      28.365  40.599  -2.476 -0.12 +0.01    +0.070 A 
DOCKED: ATOM     19  C   UNL d   1      27.029  39.812  -5.844 -0.10 +0.01    +0.052 C 
DOCKED: ATOM     20  C   UNL d   1      29.306  40.950  -0.162 -0.09 +0.01    +0.066 A 
DOCKED: ATOM     21  C   UNL d   1      30.057  41.718   0.725 -0.08 -0.01    -0.025 A 
DOCKED: ATOM     22  C   UNL d   1      30.069  41.010   1.913 -0.14 -0.00    -0.021 A 
DOCKED: ATOM     23  C   UNL d   1      29.328  39.831   1.687 -0.13 +0.01    +0.066 A 
DOCKED: ATOM     24  C   UNL d   1      30.748  43.051   0.449 -0.11 +0.03    +0.051 C 
DOCKED: ATOM     25  N   UNL d   1      27.941  37.258   1.133 -0.10 -0.03    -0.248 N 
DOCKED: ATOM     26  N   UNL d   1      26.815  36.783  -1.366 +0.01 -0.03    -0.248 N 
DOCKED: ATOM     27  N   UNL d   1      27.776  39.427  -2.271 -0.09 -0.04    -0.248 N 
DOCKED: ATOM     28  N   UNL d   1      28.866  39.789   0.431 -0.08 -0.04    -0.248 N 
DOCKED: ATOM     29 FE   UNL d   1      27.855  38.410  -0.668 -0.05 +0.00    +0.000 Fe
DOCKED: ENDROOT
DOCKED: BRANCH   6  30
DOCKED: ATOM     30  C   UNL d   1      29.170  36.453   4.611 -0.26 -0.01    +0.052 C 
DOCKED: BRANCH  30  31
DOCKED: ATOM     31  C   UNL d   1      30.521  35.741   4.565 -0.19 +0.02    +0.115 C 
DOCKED: BRANCH  31  32
DOCKED: ATOM     32  C   UNL d   1      31.270  36.004   3.276 -0.14 +0.04    +0.139 C 
DOCKED: ATOM     33  O   UNL d   1      32.257  36.723   3.291 +0.08 -0.11    -0.650 OA
DOCKED: BRANCH  32  34
DOCKED: ATOM     34  O   UNL d   1      30.909  35.427   2.106 +0.06 -0.35    -0.776 OA
DOCKED: ATOM     35  H   UNL d   1      31.126  35.784   1.234 +0.03 +0.06    +0.167 HD
DOCKED: ENDBRANCH  32  34
DOCKED: ENDBRANCH  31  32
DOCKED: ENDBRANCH  30  31
DOCKED: ENDBRANCH   6  30
DOCKED: BRANCH  29  36
DOCKED: ATOM     36  C   UNL d   1      29.658  37.487  -1.211 -0.05 +0.03    +0.190 C 
DOCKED: BRANCH  36  37
DOCKED: ATOM     37  O   UNL d   1      30.744  36.773  -0.694 +0.00 -0.09    -0.399 OA
DOCKED: ATOM     38  H   UNL d   1      30.463  36.510   0.227 +0.03 +0.05    +0.209 HD
DOCKED: ENDBRANCH  36  37
DOCKED: ENDBRANCH  29  36
DOCKED: BRANCH  22  39
DOCKED: ATOM     39  C   UNL d   1      30.808  41.420   3.173 -0.30 +0.01    +0.052 C 
DOCKED: BRANCH  39  40
DOCKED: ATOM     40  C   UNL d   1      32.327  41.403   2.941 -0.28 +0.04    +0.115 C 
DOCKED: BRANCH  40  41
DOCKED: ATOM     41  C   UNL d   1      32.972  42.773   2.926 -0.31 +0.13    +0.139 C 
DOCKED: ATOM     42  O   UNL d   1      32.267  43.767   3.027 -0.30 -0.73    -0.650 OA
DOCKED: BRANCH  41  43
DOCKED: ATOM     43  O   UNL d   1      34.315  42.926   2.892 -0.40 -0.98    -0.776 OA
DOCKED: ATOM     44  H   UNL d   1      34.898  42.542   3.559 -0.43 +0.07    +0.167 HD
DOCKED: ENDBRANCH  41  43
DOCKED: ENDBRANCH  40  41
DOCKED: ENDBRANCH  39  40
DOCKED: ENDBRANCH  22  39
DOCKED: BRANCH  12  45
DOCKED: ATOM     45  C   UNL d   1      24.916  35.428  -4.276 -0.24 -0.00    +0.004 C 
DOCKED: ATOM     46  C   UNL d   1      23.653  35.653  -4.629 -0.31 -0.00    +0.012 C 
DOCKED: ENDBRANCH  12  45
DOCKED: BRANCH  17  47
DOCKED: ATOM     47  C   UNL d   1      28.854  42.177  -4.429 -0.05 +0.00    +0.004 C 
DOCKED: ATOM     48  C   UNL d   1      28.435  43.421  -4.184 -0.05 +0.00    +0.012 C 
DOCKED: ENDBRANCH  17  47
DOCKED: TORSDOF 12
DOCKED: TER
DOCKED: ENDMDL
________________________________________________________________________________


	BEGINNING GENETIC ALGORITHM DOCKING 50 of 100
Run: 50 Seed: 230558337 273190939 [ Run 50 of 100 GA/GALS ]
Beginning LAMARCKIAN GENETIC ALGORITHM (LGA), with a maximum of 25000000 energy evaluations.

Final-Value: -19.083


	FINAL GENETIC ALGORITHM DOCKED STATE
	_______________________________________________


Detailed state:  trans 40.998 29.054 16.265 quatxyzw 0.355833 -0.397427 -0.844588 0.045894 center 8.781 34.984 -0.736 ntor 12 -119.2034 103.1189 69.0724 -58.7998 -49.3052 0.4072 83.0110 24.8488 44.6386 24.9276 -40.0509 -180.0000
State:	 40.998  29.054  16.265   0.356 -0.398 -0.845 174.739   -119.20  103.12   69.07  -58.80  -49.31    0.41   83.01   24.85   44.64   24.93  -40.05 -180.00

DOCKED: MODEL       50
DOCKED: USER    Run = 50
DOCKED: USER    DPF = D:/Protein_go_brrr/autodock/final/2DN3/heme_Co/dock.dpf
DOCKED: USER  
DOCKED: USER    Estimated Free Energy of Binding    =  -13.90 kcal/mol  [=(1)+(2)+(3)-(4)]
DOCKED: USER    Estimated Inhibition Constant, Ki   =   64.28 pM (picomolar)  [Temperature = 298.15 K]
DOCKED: USER    
DOCKED: USER    (1) Final Intermolecular Energy     =  -17.48 kcal/mol
DOCKED: USER        vdW + Hbond + desolv Energy     =  -15.72 kcal/mol
DOCKED: USER        Electrostatic Energy            =   -1.76 kcal/mol
DOCKED: USER    (2) Final Total Internal Energy     =   -1.60 kcal/mol
DOCKED: USER    (3) Torsional Free Energy           =   +3.58 kcal/mol
DOCKED: USER    (4) Unbound System's Energy  [=(2)] =   -1.60 kcal/mol
DOCKED: USER    
DOCKED: USER    
DOCKED: USER    NEWDPF move heme_Co_opt.pdbqt
DOCKED: USER    NEWDPF about 8.781000 34.984000 -0.736000
DOCKED: USER    NEWDPF tran0 40.997599 29.054122 16.265240
DOCKED: USER    NEWDPF quaternion0 0.355833 -0.397427 -0.844588 0.045894
DOCKED: USER    NEWDPF axisangle0 0.356209 -0.397846 -0.845478 174.739087
DOCKED: USER    NEWDPF quat0 0.356209 -0.397846 -0.845478 174.739087
DOCKED: USER    NEWDPF dihe0 -119.20 103.12 69.07 -58.80 -49.31 0.41 83.01 24.85 44.64 24.93 -40.05 -180.00 
DOCKED: USER  keepresnum = 1 
DOCKED: USER  
DOCKED: REMARK  12 active torsions:
DOCKED: REMARK  status: ('A' for Active; 'I' for Inactive)
DOCKED: REMARK    1  A    between atoms: C_6  and  C_10 
DOCKED: REMARK    2  A    between atoms: C_10  and  C_11 
DOCKED: REMARK    3  A    between atoms: C_11  and  C_12 
DOCKED: REMARK    4  A    between atoms: C_12  and  O_14 
DOCKED: REMARK    5  A    between atoms: C_17  and  C_20 
DOCKED: REMARK    6  A    between atoms: C_24  and  C_27 
DOCKED: REMARK    7  A    between atoms: C_31  and  C_34 
DOCKED: REMARK    8  A    between atoms: C_34  and  C_35 
DOCKED: REMARK    9  A    between atoms: C_35  and  C_36 
DOCKED: REMARK   10  A    between atoms: C_36  and  O_38 
DOCKED: REMARK   11  A    between atoms: FE_43  and  C_44 
DOCKED: REMARK   12  A    between atoms: C_44  and  O_45 
DOCKED: USER                              x       y       z     vdW  Elec       q    Type
DOCKED: USER                           _______ _______ _______ _____ _____    ______ ____
DOCKED: ROOT
DOCKED: ATOM      1  C   UNL d   1      42.735  28.514  17.451 -0.17 +0.02    +0.064 A 
DOCKED: ATOM      2  C   UNL d   1      40.649  32.693  16.559 -0.48 +0.01    +0.064 C 
DOCKED: ATOM      3  C   UNL d   1      37.623  30.579  13.526 -0.35 +0.01    +0.064 A 
DOCKED: ATOM      4  C   UNL d   1      39.484  26.243  14.713 -0.41 +0.01    +0.064 A 
DOCKED: ATOM      5  C   UNL d   1      42.411  29.816  17.403 -0.27 +0.02    +0.066 A 
DOCKED: ATOM      6  C   UNL d   1      43.039  30.774  18.223 -0.36 -0.01    -0.021 A 
DOCKED: ATOM      7  C   UNL d   1      42.414  31.981  17.977 -0.45 -0.01    -0.025 A 
DOCKED: ATOM      8  C   UNL d   1      41.444  31.712  17.006 -0.40 +0.01    +0.066 A 
DOCKED: ATOM      9  C   UNL d   1      42.708  33.343  18.624 -0.40 +0.01    +0.051 C 
DOCKED: ATOM     10  C   UNL d   1      39.642  32.517  15.543 -0.39 +0.01    +0.066 A 
DOCKED: ATOM     11  C   UNL d   1      38.873  33.532  14.932 -0.43 -0.00    -0.021 A 
DOCKED: ATOM     12  C   UNL d   1      38.002  32.887  14.049 -0.40 +0.00    +0.000 A 
DOCKED: ATOM     13  C   UNL d   1      38.311  31.533  14.177 -0.37 +0.01    +0.070 A 
DOCKED: ATOM     14  C   UNL d   1      39.043  35.017  15.123 -0.56 +0.01    +0.052 C 
DOCKED: ATOM     15  C   UNL d   1      37.773  29.138  13.581 -0.38 +0.01    +0.066 A 
DOCKED: ATOM     16  C   UNL d   1      36.934  28.200  12.995 -0.48 -0.00    -0.021 A 
DOCKED: ATOM     17  C   UNL d   1      37.465  26.948  13.336 -0.46 +0.00    +0.000 A 
DOCKED: ATOM     18  C   UNL d   1      38.600  27.222  14.092 -0.37 +0.01    +0.070 A 
DOCKED: ATOM     19  C   UNL d   1      35.708  28.517  12.167 -0.66 +0.01    +0.052 C 
DOCKED: ATOM     20  C   UNL d   1      40.542  26.485  15.523 -0.38 +0.02    +0.066 A 
DOCKED: ATOM     21  C   UNL d   1      41.295  25.458  16.089 -0.38 -0.01    -0.025 A 
DOCKED: ATOM     22  C   UNL d   1      42.257  26.083  16.861 -0.34 -0.01    -0.021 A 
DOCKED: ATOM     23  C   UNL d   1      42.035  27.471  16.736 -0.32 +0.02    +0.066 A 
DOCKED: ATOM     24  C   UNL d   1      41.095  23.955  15.919 -0.55 +0.01    +0.051 C 
DOCKED: ATOM     25  N   UNL d   1      41.423  30.380  16.627 -0.15 -0.08    -0.248 N 
DOCKED: ATOM     26  N   UNL d   1      39.341  31.316  15.039 -0.22 -0.05    -0.248 N 
DOCKED: ATOM     27  N   UNL d   1      38.735  28.535  14.243 -0.19 -0.06    -0.248 N 
DOCKED: ATOM     28  N   UNL d   1      40.996  27.719  15.929 -0.21 -0.09    -0.248 N 
DOCKED: ATOM     29 FE   UNL d   1      40.001  29.400  15.365 -0.05 +0.00    +0.000 Fe
DOCKED: ENDROOT
DOCKED: BRANCH   6  30
DOCKED: ATOM     30  C   UNL d   1      44.132  30.512  19.254 -0.31 +0.02    +0.052 C 
DOCKED: BRANCH  30  31
DOCKED: ATOM     31  C   UNL d   1      45.190  29.567  18.685 -0.22 +0.06    +0.115 C 
DOCKED: BRANCH  31  32
DOCKED: ATOM     32  C   UNL d   1      45.621  28.515  19.684 -0.18 +0.10    +0.139 C 
DOCKED: ATOM     33  O   UNL d   1      45.888  28.847  20.830 -0.29 -0.91    -0.650 OA
DOCKED: BRANCH  32  34
DOCKED: ATOM     34  O   UNL d   1      45.677  27.201  19.364 +0.08 -0.49    -0.776 OA
DOCKED: ATOM     35  H   UNL d   1      45.201  26.505  19.838 +0.06 +0.11    +0.167 HD
DOCKED: ENDBRANCH  32  34
DOCKED: ENDBRANCH  31  32
DOCKED: ENDBRANCH  30  31
DOCKED: ENDBRANCH   6  30
DOCKED: BRANCH  29  36
DOCKED: ATOM     36  C   UNL d   1      38.766  29.264  17.053 -0.32 +0.05    +0.190 C 
DOCKED: BRANCH  36  37
DOCKED: ATOM     37  O   UNL d   1      37.727  28.515  17.616 -0.24 -0.08    -0.399 OA
DOCKED: ATOM     38  H   UNL d   1      37.420  27.912  16.883 +0.13 +0.04    +0.209 HD
DOCKED: ENDBRANCH  36  37
DOCKED: ENDBRANCH  29  36
DOCKED: BRANCH  22  39
DOCKED: ATOM     39  C   UNL d   1      43.290  25.379  17.720 -0.34 +0.02    +0.052 C 
DOCKED: BRANCH  39  40
DOCKED: ATOM     40  C   UNL d   1      42.661  24.896  19.038 -0.39 +0.04    +0.115 C 
DOCKED: BRANCH  40  41
DOCKED: ATOM     41  C   UNL d   1      43.661  24.605  20.137 -0.23 +0.08    +0.139 C 
DOCKED: ATOM     42  O   UNL d   1      43.271  24.523  21.294 -0.30 -0.35    -0.650 OA
DOCKED: BRANCH  41  43
DOCKED: ATOM     43  O   UNL d   1      44.960  24.347  19.867 -0.19 -0.46    -0.776 OA
DOCKED: ATOM     44  H   UNL d   1      45.585  25.039  19.617 +0.06 +0.10    +0.167 HD
DOCKED: ENDBRANCH  41  43
DOCKED: ENDBRANCH  40  41
DOCKED: ENDBRANCH  39  40
DOCKED: ENDBRANCH  22  39
DOCKED: BRANCH  12  45
DOCKED: ATOM     45  C   UNL d   1      36.932  33.394  13.091 -0.52 +0.00    +0.004 C 
DOCKED: ATOM     46  C   UNL d   1      35.764  33.983  13.331 -0.58 +0.00    +0.012 C 
DOCKED: ENDBRANCH  12  45
DOCKED: BRANCH  17  47
DOCKED: ATOM     47  C   UNL d   1      36.948  25.579  13.038 -0.64 +0.00    +0.004 C 
DOCKED: ATOM     48  C   UNL d   1      35.858  25.062  13.611 -0.70 +0.00    +0.012 C 
DOCKED: ENDBRANCH  17  47
DOCKED: TORSDOF 12
DOCKED: TER
DOCKED: ENDMDL
________________________________________________________________________________


	BEGINNING GENETIC ALGORITHM DOCKING 51 of 100
Run: 51 Seed: 1811817288 2054007272 [ Run 51 of 100 GA/GALS ]
Beginning LAMARCKIAN GENETIC ALGORITHM (LGA), with a maximum of 25000000 energy evaluations.

Final-Value: -12.671


	FINAL GENETIC ALGORITHM DOCKED STATE
	_______________________________________________


Detailed state:  trans 46.298 28.405 18.509 quatxyzw 0.253705 -0.359756 -0.895085 -0.070936 center 8.781 34.984 -0.736 ntor 12 12.6643 136.7283 66.8686 35.0630 65.3539 108.0071 -151.6893 167.3356 -180.0000 100.7038 -172.9265 19.8492
State:	 46.298  28.405  18.509   0.254 -0.361 -0.897 -171.865     12.66  136.73   66.87   35.06   65.35  108.01 -151.69  167.34 -180.00  100.70 -172.93   19.85

DOCKED: MODEL       51
DOCKED: USER    Run = 51
DOCKED: USER    DPF = D:/Protein_go_brrr/autodock/final/2DN3/heme_Co/dock.dpf
DOCKED: USER  
DOCKED: USER    Estimated Free Energy of Binding    =   -7.49 kcal/mol  [=(1)+(2)+(3)-(4)]
DOCKED: USER    Estimated Inhibition Constant, Ki   =    3.25 uM (micromolar)  [Temperature = 298.15 K]
DOCKED: USER    
DOCKED: USER    (1) Final Intermolecular Energy     =  -11.07 kcal/mol
DOCKED: USER        vdW + Hbond + desolv Energy     =   -8.43 kcal/mol
DOCKED: USER        Electrostatic Energy            =   -2.64 kcal/mol
DOCKED: USER    (2) Final Total Internal Energy     =   -1.60 kcal/mol
DOCKED: USER    (3) Torsional Free Energy           =   +3.58 kcal/mol
DOCKED: USER    (4) Unbound System's Energy  [=(2)] =   -1.60 kcal/mol
DOCKED: USER    
DOCKED: USER    
DOCKED: USER    NEWDPF move heme_Co_opt.pdbqt
DOCKED: USER    NEWDPF about 8.781000 34.984000 -0.736000
DOCKED: USER    NEWDPF tran0 46.298066 28.405241 18.509277
DOCKED: USER    NEWDPF quaternion0 0.253705 -0.359756 -0.895085 -0.070936
DOCKED: USER    NEWDPF axisangle0 0.254346 -0.360664 -0.897346 -171.864555
DOCKED: USER    NEWDPF quat0 0.254346 -0.360664 -0.897346 -171.864555
DOCKED: USER    NEWDPF dihe0 12.66 136.73 66.87 35.06 65.35 108.01 -151.69 167.34 -180.00 100.70 -172.93 19.85 
DOCKED: USER  keepresnum = 1 
DOCKED: USER  
DOCKED: REMARK  12 active torsions:
DOCKED: REMARK  status: ('A' for Active; 'I' for Inactive)
DOCKED: REMARK    1  A    between atoms: C_6  and  C_10 
DOCKED: REMARK    2  A    between atoms: C_10  and  C_11 
DOCKED: REMARK    3  A    between atoms: C_11  and  C_12 
DOCKED: REMARK    4  A    between atoms: C_12  and  O_14 
DOCKED: REMARK    5  A    between atoms: C_17  and  C_20 
DOCKED: REMARK    6  A    between atoms: C_24  and  C_27 
DOCKED: REMARK    7  A    between atoms: C_31  and  C_34 
DOCKED: REMARK    8  A    between atoms: C_34  and  C_35 
DOCKED: REMARK    9  A    between atoms: C_35  and  C_36 
DOCKED: REMARK   10  A    between atoms: C_36  and  O_38 
DOCKED: REMARK   11  A    between atoms: FE_43  and  C_44 
DOCKED: REMARK   12  A    between atoms: C_44  and  O_45 
DOCKED: USER                              x       y       z     vdW  Elec       q    Type
DOCKED: USER                           _______ _______ _______ _____ _____    ______ ____
DOCKED: ROOT
DOCKED: ATOM      1  C   UNL d   1      48.366  28.123  19.108 -0.07 +0.03    +0.064 A 
DOCKED: ATOM      2  C   UNL d   1      45.543  31.949  19.079 -0.23 +0.02    +0.064 C 
DOCKED: ATOM      3  C   UNL d   1      42.085  29.427  16.955 -0.29 +0.02    +0.064 A 
DOCKED: ATOM      4  C   UNL d   1      44.805  25.411  17.323 -0.21 +0.03    +0.064 A 
DOCKED: ATOM      5  C   UNL d   1      47.862  29.362  19.223 -0.08 +0.03    +0.066 A 
DOCKED: ATOM      6  C   UNL d   1      48.563  30.397  19.874 -0.06 -0.01    -0.021 A 
DOCKED: ATOM      7  C   UNL d   1      47.730  31.498  19.882 -0.09 -0.01    -0.025 A 
DOCKED: ATOM      8  C   UNL d   1      46.564  31.094  19.223 -0.14 +0.03    +0.066 A 
DOCKED: ATOM      9  C   UNL d   1      48.006  32.884  20.485 -0.07 +0.02    +0.051 C 
DOCKED: ATOM     10  C   UNL d   1      44.315  31.631  18.393 -0.25 +0.02    +0.066 A 
DOCKED: ATOM     11  C   UNL d   1      43.265  32.523  18.086 -0.38 -0.00    -0.021 A 
DOCKED: ATOM     12  C   UNL d   1      42.272  31.763  17.463 -0.44 +0.00    +0.000 A 
DOCKED: ATOM     13  C   UNL d   1      42.793  30.469  17.425 -0.33 +0.02    +0.070 A 
DOCKED: ATOM     14  C   UNL d   1      43.273  34.016  18.296 -0.40 +0.01    +0.052 C 
DOCKED: ATOM     15  C   UNL d   1      42.445  28.024  16.890 -0.31 +0.02    +0.066 A 
DOCKED: ATOM     16  C   UNL d   1      41.612  26.976  16.526 -0.39 -0.01    -0.021 A 
DOCKED: ATOM     17  C   UNL d   1      42.391  25.816  16.632 -0.25 +0.00    +0.000 A 
DOCKED: ATOM     18  C   UNL d   1      43.648  26.251  17.038 -0.21 +0.03    +0.070 A 
DOCKED: ATOM     19  C   UNL d   1      40.164  27.111  16.108 -0.37 +0.02    +0.052 C 
DOCKED: ATOM     20  C   UNL d   1      46.010  25.803  17.801 -0.20 +0.04    +0.066 A 
DOCKED: ATOM     21  C   UNL d   1      47.034  24.896  18.069 -0.19 -0.02    -0.025 A 
DOCKED: ATOM     22  C   UNL d   1      48.083  25.653  18.558 -0.12 -0.01    -0.021 A 
DOCKED: ATOM     23  C   UNL d   1      47.640  26.992  18.575 -0.11 +0.03    +0.066 A 
DOCKED: ATOM     24  C   UNL d   1      47.007  23.381  17.888 -0.13 +0.06    +0.051 C 
DOCKED: ATOM     25  N   UNL d   1      46.620  29.777  18.799 -0.08 -0.12    -0.248 N 
DOCKED: ATOM     26  N   UNL d   1      44.051  30.402  17.937 -0.18 -0.08    -0.248 N 
DOCKED: ATOM     27  N   UNL d   1      43.635  27.568  17.211 -0.20 -0.09    -0.248 N 
DOCKED: ATOM     28  N   UNL d   1      46.385  27.087  18.120 -0.10 -0.13    -0.248 N 
DOCKED: ATOM     29 FE   UNL d   1      45.041  28.604  17.957 -0.05 +0.00    +0.000 Fe
DOCKED: ENDROOT
DOCKED: BRANCH   6  30
DOCKED: ATOM     30  C   UNL d   1      49.938  30.294  20.525 -0.02 +0.02    +0.052 C 
DOCKED: BRANCH  30  31
DOCKED: ATOM     31  C   UNL d   1      49.809  29.861  21.985 -0.03 +0.06    +0.115 C 
DOCKED: BRANCH  31  32
DOCKED: ATOM     32  C   UNL d   1      48.367  29.693  22.413 -0.05 +0.16    +0.139 C 
DOCKED: ATOM     33  O   UNL d   1      47.761  28.680  22.098 -0.44 -1.05    -0.650 OA
DOCKED: BRANCH  32  34
DOCKED: ATOM     34  O   UNL d   1      47.734  30.612  23.179 -0.07 -1.05    -0.776 OA
DOCKED: ATOM     35  H   UNL d   1      48.102  31.477  23.406 +0.01 +0.13    +0.167 HD
DOCKED: ENDBRANCH  32  34
DOCKED: ENDBRANCH  31  32
DOCKED: ENDBRANCH  30  31
DOCKED: ENDBRANCH   6  30
DOCKED: BRANCH  29  36
DOCKED: ATOM     36  C   UNL d   1      44.393  28.272  19.923 +0.61 +0.15    +0.190 C 
DOCKED: BRANCH  36  37
DOCKED: ATOM     37  O   UNL d   1      44.842  27.916  21.199 -0.21 -0.62    -0.399 OA
DOCKED: ATOM     38  H   UNL d   1      45.810  28.158  21.207 +0.04 +0.36    +0.209 HD
DOCKED: ENDBRANCH  36  37
DOCKED: ENDBRANCH  29  36
DOCKED: BRANCH  22  39
DOCKED: ATOM     39  C   UNL d   1      49.413  25.104  19.041 -0.07 +0.03    +0.052 C 
DOCKED: BRANCH  39  40
DOCKED: ATOM     40  C   UNL d   1      50.574  25.707  18.234 -0.08 +0.05    +0.115 C 
DOCKED: BRANCH  40  41
DOCKED: ATOM     41  C   UNL d   1      50.871  24.988  16.934 -0.10 +0.09    +0.139 C 
DOCKED: ATOM     42  O   UNL d   1      51.088  23.785  16.952 +0.02 -0.51    -0.650 OA
DOCKED: BRANCH  41  43
DOCKED: ATOM     43  O   UNL d   1      50.817  25.624  15.743 +0.01 -0.49    -0.776 OA
DOCKED: ATOM     44  H   UNL d   1      51.489  26.257  15.461 +0.03 +0.08    +0.167 HD
DOCKED: ENDBRANCH  41  43
DOCKED: ENDBRANCH  40  41
DOCKED: ENDBRANCH  39  40
DOCKED: ENDBRANCH  22  39
DOCKED: BRANCH  12  45
DOCKED: ATOM     45  C   UNL d   1      40.906  32.110  16.886 -0.51 +0.00    +0.004 C 
DOCKED: ATOM     46  C   UNL d   1      40.442  33.253  16.388 -0.54 +0.00    +0.012 C 
DOCKED: ENDBRANCH  12  45
DOCKED: BRANCH  17  47
DOCKED: ATOM     47  C   UNL d   1      42.007  24.387  16.428 -0.49 +0.00    +0.004 C 
DOCKED: ATOM     48  C   UNL d   1      41.255  23.964  15.410 -0.59 +0.00    +0.012 C 
DOCKED: ENDBRANCH  17  47
DOCKED: TORSDOF 12
DOCKED: TER
DOCKED: ENDMDL
________________________________________________________________________________


	BEGINNING GENETIC ALGORITHM DOCKING 52 of 100
Run: 52 Seed: 1095642572 563439320 [ Run 52 of 100 GA/GALS ]
Beginning LAMARCKIAN GENETIC ALGORITHM (LGA), with a maximum of 25000000 energy evaluations.

Final-Value: -11.020


	FINAL GENETIC ALGORITHM DOCKED STATE
	_______________________________________________


Detailed state:  trans 24.701 47.371 -1.102 quatxyzw -0.135950 -0.962901 0.063795 0.224209 center 8.781 34.984 -0.736 ntor 12 40.8949 108.5723 -145.3441 137.0728 60.6640 150.2304 173.6388 122.0479 47.5105 108.2274 172.6805 53.8619
State:	 24.701  47.371  -1.102  -0.140 -0.988  0.065 154.087     40.89  108.57 -145.34  137.07   60.66  150.23  173.64  122.05   47.51  108.23  172.68   53.86

DOCKED: MODEL       52
DOCKED: USER    Run = 52
DOCKED: USER    DPF = D:/Protein_go_brrr/autodock/final/2DN3/heme_Co/dock.dpf
DOCKED: USER  
DOCKED: USER    Estimated Free Energy of Binding    =   -6.81 kcal/mol  [=(1)+(2)+(3)-(4)]
DOCKED: USER    Estimated Inhibition Constant, Ki   =   10.12 uM (micromolar)  [Temperature = 298.15 K]
DOCKED: USER    
DOCKED: USER    (1) Final Intermolecular Energy     =  -10.39 kcal/mol
DOCKED: USER        vdW + Hbond + desolv Energy     =   -7.59 kcal/mol
DOCKED: USER        Electrostatic Energy            =   -2.80 kcal/mol
DOCKED: USER    (2) Final Total Internal Energy     =   -0.63 kcal/mol
DOCKED: USER    (3) Torsional Free Energy           =   +3.58 kcal/mol
DOCKED: USER    (4) Unbound System's Energy  [=(2)] =   -0.63 kcal/mol
DOCKED: USER    
DOCKED: USER    
DOCKED: USER    NEWDPF move heme_Co_opt.pdbqt
DOCKED: USER    NEWDPF about 8.781000 34.984000 -0.736000
DOCKED: USER    NEWDPF tran0 24.701094 47.371384 -1.101810
DOCKED: USER    NEWDPF quaternion0 -0.135950 -0.962901 0.063795 0.224209
DOCKED: USER    NEWDPF axisangle0 -0.139502 -0.988056 0.065461 154.087253
DOCKED: USER    NEWDPF quat0 -0.139502 -0.988056 0.065461 154.087253
DOCKED: USER    NEWDPF dihe0 40.89 108.57 -145.34 137.07 60.66 150.23 173.64 122.05 47.51 108.23 172.68 53.86 
DOCKED: USER  keepresnum = 1 
DOCKED: USER  
DOCKED: REMARK  12 active torsions:
DOCKED: REMARK  status: ('A' for Active; 'I' for Inactive)
DOCKED: REMARK    1  A    between atoms: C_6  and  C_10 
DOCKED: REMARK    2  A    between atoms: C_10  and  C_11 
DOCKED: REMARK    3  A    between atoms: C_11  and  C_12 
DOCKED: REMARK    4  A    between atoms: C_12  and  O_14 
DOCKED: REMARK    5  A    between atoms: C_17  and  C_20 
DOCKED: REMARK    6  A    between atoms: C_24  and  C_27 
DOCKED: REMARK    7  A    between atoms: C_31  and  C_34 
DOCKED: REMARK    8  A    between atoms: C_34  and  C_35 
DOCKED: REMARK    9  A    between atoms: C_35  and  C_36 
DOCKED: REMARK   10  A    between atoms: C_36  and  O_38 
DOCKED: REMARK   11  A    between atoms: FE_43  and  C_44 
DOCKED: REMARK   12  A    between atoms: C_44  and  O_45 
DOCKED: USER                              x       y       z     vdW  Elec       q    Type
DOCKED: USER                           _______ _______ _______ _____ _____    ______ ____
DOCKED: ROOT
DOCKED: ATOM      1  C   UNL d   1      26.163  47.553   0.494 -0.12 +0.02    +0.064 A 
DOCKED: ATOM      2  C   UNL d   1      25.852  44.620  -3.236 -0.21 +0.01    +0.064 C 
DOCKED: ATOM      3  C   UNL d   1      21.593  46.460  -4.376 -0.25 -0.00    +0.064 A 
DOCKED: ATOM      4  C   UNL d   1      22.062  49.727  -0.803 -0.14 -0.00    +0.064 A 
DOCKED: ATOM      5  C   UNL d   1      26.374  46.592  -0.420 -0.05 +0.02    +0.066 A 
DOCKED: ATOM      6  C   UNL d   1      27.573  45.854  -0.465 -0.12 -0.01    -0.021 A 
DOCKED: ATOM      7  C   UNL d   1      27.487  45.021  -1.563 -0.11 -0.01    -0.025 A 
DOCKED: ATOM      8  C   UNL d   1      26.234  45.273  -2.131 -0.15 +0.02    +0.066 A 
DOCKED: ATOM      9  C   UNL d   1      28.537  44.020  -2.072 -0.07 +0.01    +0.051 C 
DOCKED: ATOM     10  C   UNL d   1      24.572  44.794  -3.875 -0.24 +0.01    +0.066 A 
DOCKED: ATOM     11  C   UNL d   1      24.057  44.040  -4.952 -0.23 -0.00    -0.021 A 
DOCKED: ATOM     12  C   UNL d   1      22.812  44.595  -5.261 -0.26 +0.00    +0.000 A 
DOCKED: ATOM     13  C   UNL d   1      22.655  45.636  -4.345 -0.25 +0.00    +0.070 A 
DOCKED: ATOM     14  C   UNL d   1      24.686  42.815  -5.565 -0.16 +0.01    +0.052 C 
DOCKED: ATOM     15  C   UNL d   1      21.297  47.611  -3.545 -0.23 -0.01    +0.066 A 
DOCKED: ATOM     16  C   UNL d   1      20.254  48.508  -3.723 -0.14 +0.00    -0.021 A 
DOCKED: ATOM     17  C   UNL d   1      20.386  49.454  -2.696 -0.16 -0.00    +0.000 A 
DOCKED: ATOM     18  C   UNL d   1      21.494  49.047  -1.960 -0.18 -0.00    +0.070 A 
DOCKED: ATOM     19  C   UNL d   1      19.213  48.437  -4.818 -0.18 -0.01    +0.052 C 
DOCKED: ATOM     20  C   UNL d   1      23.188  49.400  -0.124 -0.10 +0.00    +0.066 A 
DOCKED: ATOM     21  C   UNL d   1      23.654  50.153   0.951 -0.07 -0.00    -0.025 A 
DOCKED: ATOM     22  C   UNL d   1      24.819  49.533   1.364 -0.07 -0.00    -0.021 A 
DOCKED: ATOM     23  C   UNL d   1      25.015  48.431   0.505 -0.10 +0.02    +0.066 A 
DOCKED: ATOM     24  C   UNL d   1      23.031  51.414   1.544 -0.12 -0.00    +0.051 C 
DOCKED: ATOM     25  N   UNL d   1      25.520  46.237  -1.440 -0.01 -0.07    -0.248 N 
DOCKED: ATOM     26  N   UNL d   1      23.694  45.719  -3.472 -0.18 -0.03    -0.248 N 
DOCKED: ATOM     27  N   UNL d   1      22.029  47.964  -2.512 -0.15 +0.00    -0.248 N 
DOCKED: ATOM     28  N   UNL d   1      24.031  48.348  -0.399 -0.07 -0.04    -0.248 N 
DOCKED: ATOM     29 FE   UNL d   1      23.671  47.154  -2.005 -0.05 +0.00    +0.000 Fe
DOCKED: ENDROOT
DOCKED: BRANCH   6  30
DOCKED: ATOM     30  C   UNL d   1      28.774  46.012   0.462 -0.12 +0.03    +0.052 C 
DOCKED: BRANCH  30  31
DOCKED: ATOM     31  C   UNL d   1      29.897  46.777  -0.238 -0.10 +0.05    +0.115 C 
DOCKED: BRANCH  31  32
DOCKED: ATOM     32  C   UNL d   1      31.249  46.128  -0.039 -0.14 +0.13    +0.139 C 
DOCKED: ATOM     33  O   UNL d   1      31.356  44.915  -0.149 -0.28 -0.69    -0.650 OA
DOCKED: BRANCH  32  34
DOCKED: ATOM     34  O   UNL d   1      32.363  46.854   0.213 -0.20 -1.19    -0.776 OA
DOCKED: ATOM     35  H   UNL d   1      32.381  47.652   0.758 -0.49 +0.13    +0.167 HD
DOCKED: ENDBRANCH  32  34
DOCKED: ENDBRANCH  31  32
DOCKED: ENDBRANCH  30  31
DOCKED: ENDBRANCH   6  30
DOCKED: BRANCH  29  36
DOCKED: ATOM     36  C   UNL d   1      24.804  48.422  -3.230 -0.04 +0.02    +0.190 C 
DOCKED: BRANCH  36  37
DOCKED: ATOM     37  O   UNL d   1      26.118  48.751  -3.582 -0.00 -0.04    -0.399 OA
DOCKED: ATOM     38  H   UNL d   1      26.690  48.200  -2.978 +0.02 +0.03    +0.209 HD
DOCKED: ENDBRANCH  36  37
DOCKED: ENDBRANCH  29  36
DOCKED: BRANCH  22  39
DOCKED: ATOM     39  C   UNL d   1      25.725  50.017   2.481 -0.06 +0.01    +0.052 C 
DOCKED: BRANCH  39  40
DOCKED: ATOM     40  C   UNL d   1      26.534  48.849   3.067 -0.14 +0.05    +0.115 C 
DOCKED: BRANCH  40  41
DOCKED: ATOM     41  C   UNL d   1      25.751  47.955   4.006 +0.07 +0.14    +0.139 C 
DOCKED: ATOM     42  O   UNL d   1      25.873  48.103   5.214 -0.22 -0.59    -0.650 OA
DOCKED: BRANCH  41  43
DOCKED: ATOM     43  O   UNL d   1      24.854  47.055   3.546 -0.04 -0.92    -0.776 OA
DOCKED: ATOM     44  H   UNL d   1      24.002  46.906   3.976 -0.28 +0.09    +0.167 HD
DOCKED: ENDBRANCH  41  43
DOCKED: ENDBRANCH  40  41
DOCKED: ENDBRANCH  39  40
DOCKED: ENDBRANCH  22  39
DOCKED: BRANCH  12  45
DOCKED: ATOM     45  C   UNL d   1      21.751  44.253  -6.299 -0.31 +0.00    +0.004 C 
DOCKED: ATOM     46  C   UNL d   1      20.444  44.043  -6.164 -0.47 +0.00    +0.012 C 
DOCKED: ENDBRANCH  12  45
DOCKED: BRANCH  17  47
DOCKED: ATOM     47  C   UNL d   1      19.587  50.685  -2.424 -0.26 -0.00    +0.004 C 
DOCKED: ATOM     48  C   UNL d   1      18.262  50.753  -2.579 -0.34 -0.00    +0.012 C 
DOCKED: ENDBRANCH  17  47
DOCKED: TORSDOF 12
DOCKED: TER
DOCKED: ENDMDL
________________________________________________________________________________


	BEGINNING GENETIC ALGORITHM DOCKING 53 of 100
Run: 53 Seed: 1893144021 2018642763 [ Run 53 of 100 GA/GALS ]
Beginning LAMARCKIAN GENETIC ALGORITHM (LGA), with a maximum of 25000000 energy evaluations.

Final-Value: -9.823


	FINAL GENETIC ALGORITHM DOCKED STATE
	_______________________________________________


Detailed state:  trans 41.514 44.452 23.315 quatxyzw -0.185173 -0.611952 -0.631923 0.438064 center 8.781 34.984 -0.736 ntor 12 83.9315 88.8092 91.7394 20.9000 -105.6000 135.2595 -134.0918 -76.7489 -124.6059 -40.6573 -172.9754 180.0000
State:	 41.514  44.452  23.315  -0.206 -0.681 -0.703 128.039     83.93   88.81   91.74   20.90 -105.60  135.26 -134.09  -76.75 -124.61  -40.66 -172.98  180.00

DOCKED: MODEL       53
DOCKED: USER    Run = 53
DOCKED: USER    DPF = D:/Protein_go_brrr/autodock/final/2DN3/heme_Co/dock.dpf
DOCKED: USER  
DOCKED: USER    Estimated Free Energy of Binding    =   -4.27 kcal/mol  [=(1)+(2)+(3)-(4)]
DOCKED: USER    Estimated Inhibition Constant, Ki   =  744.76 uM (micromolar)  [Temperature = 298.15 K]
DOCKED: USER    
DOCKED: USER    (1) Final Intermolecular Energy     =   -7.85 kcal/mol
DOCKED: USER        vdW + Hbond + desolv Energy     =   -6.71 kcal/mol
DOCKED: USER        Electrostatic Energy            =   -1.14 kcal/mol
DOCKED: USER    (2) Final Total Internal Energy     =   -1.98 kcal/mol
DOCKED: USER    (3) Torsional Free Energy           =   +3.58 kcal/mol
DOCKED: USER    (4) Unbound System's Energy  [=(2)] =   -1.98 kcal/mol
DOCKED: USER    
DOCKED: USER    
DOCKED: USER    NEWDPF move heme_Co_opt.pdbqt
DOCKED: USER    NEWDPF about 8.781000 34.984000 -0.736000
DOCKED: USER    NEWDPF tran0 41.513725 44.452075 23.315197
DOCKED: USER    NEWDPF quaternion0 -0.185173 -0.611952 -0.631923 0.438064
DOCKED: USER    NEWDPF axisangle0 -0.205990 -0.680745 -0.702961 128.039215
DOCKED: USER    NEWDPF quat0 -0.205990 -0.680745 -0.702961 128.039215
DOCKED: USER    NEWDPF dihe0 83.93 88.81 91.74 20.90 -105.60 135.26 -134.09 -76.75 -124.61 -40.66 -172.98 180.00 
DOCKED: USER  keepresnum = 1 
DOCKED: USER  
DOCKED: REMARK  12 active torsions:
DOCKED: REMARK  status: ('A' for Active; 'I' for Inactive)
DOCKED: REMARK    1  A    between atoms: C_6  and  C_10 
DOCKED: REMARK    2  A    between atoms: C_10  and  C_11 
DOCKED: REMARK    3  A    between atoms: C_11  and  C_12 
DOCKED: REMARK    4  A    between atoms: C_12  and  O_14 
DOCKED: REMARK    5  A    between atoms: C_17  and  C_20 
DOCKED: REMARK    6  A    between atoms: C_24  and  C_27 
DOCKED: REMARK    7  A    between atoms: C_31  and  C_34 
DOCKED: REMARK    8  A    between atoms: C_34  and  C_35 
DOCKED: REMARK    9  A    between atoms: C_35  and  C_36 
DOCKED: REMARK   10  A    between atoms: C_36  and  O_38 
DOCKED: REMARK   11  A    between atoms: FE_43  and  C_44 
DOCKED: REMARK   12  A    between atoms: C_44  and  O_45 
DOCKED: USER                              x       y       z     vdW  Elec       q    Type
DOCKED: USER                           _______ _______ _______ _____ _____    ______ ____
DOCKED: ROOT
DOCKED: ATOM      1  C   UNL d   1      41.756  42.489  24.212 -0.22 -0.01    +0.064 A 
DOCKED: ATOM      2  C   UNL d   1      44.813  45.401  22.024 -0.08 +0.00    +0.064 C 
DOCKED: ATOM      3  C   UNL d   1      41.255  48.416  20.984 -0.11 +0.01    +0.064 A 
DOCKED: ATOM      4  C   UNL d   1      38.180  45.650  23.546 -0.22 +0.01    +0.064 A 
DOCKED: ATOM      5  C   UNL d   1      42.846  43.045  23.659 -0.17 -0.01    +0.066 A 
DOCKED: ATOM      6  C   UNL d   1      44.129  42.484  23.810 -0.15 +0.00    -0.021 A 
DOCKED: ATOM      7  C   UNL d   1      45.015  43.345  23.192 -0.07 +0.00    -0.025 A 
DOCKED: ATOM      8  C   UNL d   1      44.234  44.385  22.678 -0.08 -0.00    +0.066 A 
DOCKED: ATOM      9  C   UNL d   1      46.542  43.208  23.084 -0.03 -0.00    +0.051 C 
DOCKED: ATOM     10  C   UNL d   1      44.088  46.501  21.437 -0.09 +0.00    +0.066 A 
DOCKED: ATOM     11  C   UNL d   1      44.620  47.522  20.620 -0.09 -0.00    -0.021 A 
DOCKED: ATOM     12  C   UNL d   1      43.561  48.385  20.328 -0.07 +0.00    +0.000 A 
DOCKED: ATOM     13  C   UNL d   1      42.461  47.821  20.976 -0.10 +0.01    +0.070 A 
DOCKED: ATOM     14  C   UNL d   1      46.028  47.595  20.088 -0.11 +0.00    +0.052 C 
DOCKED: ATOM     15  C   UNL d   1      40.030  48.004  21.642 -0.11 +0.01    +0.066 A 
DOCKED: ATOM     16  C   UNL d   1      38.856  48.738  21.731 -0.12 -0.00    -0.021 A 
DOCKED: ATOM     17  C   UNL d   1      37.967  47.946  22.471 -0.19 +0.00    +0.000 A 
DOCKED: ATOM     18  C   UNL d   1      38.666  46.779  22.762 -0.18 +0.01    +0.070 A 
DOCKED: ATOM     19  C   UNL d   1      38.633  50.110  21.136 -0.12 +0.01    +0.052 C 
DOCKED: ATOM     20  C   UNL d   1      38.870  44.544  23.914 -0.18 +0.01    +0.066 A 
DOCKED: ATOM     21  C   UNL d   1      38.304  43.543  24.700 -0.29 -0.00    -0.025 A 
DOCKED: ATOM     22  C   UNL d   1      39.303  42.604  24.884 -0.26 -0.00    -0.021 A 
DOCKED: ATOM     23  C   UNL d   1      40.441  43.089  24.206 -0.16 +0.00    +0.066 A 
DOCKED: ATOM     24  C   UNL d   1      36.887  43.492  25.266 -0.35 +0.00    +0.051 C 
DOCKED: ATOM     25  N   UNL d   1      42.886  44.223  22.947 -0.08 +0.02    -0.248 N 
DOCKED: ATOM     26  N   UNL d   1      42.769  46.653  21.599 -0.08 -0.02    -0.248 N 
DOCKED: ATOM     27  N   UNL d   1      39.901  46.861  22.278 -0.09 -0.03    -0.248 N 
DOCKED: ATOM     28  N   UNL d   1      40.184  44.264  23.619 -0.07 -0.02    -0.248 N 
DOCKED: ATOM     29 FE   UNL d   1      41.302  45.618  22.594 -0.04 +0.00    +0.000 Fe
DOCKED: ENDROOT
DOCKED: BRANCH   6  30
DOCKED: ATOM     30  C   UNL d   1      44.484  41.220  24.585 -0.13 -0.02    +0.052 C 
DOCKED: BRANCH  30  31
DOCKED: ATOM     31  C   UNL d   1      44.779  41.552  26.048 -0.10 +0.01    +0.115 C 
DOCKED: BRANCH  31  32
DOCKED: ATOM     32  C   UNL d   1      43.658  42.333  26.700 -0.07 +0.04    +0.139 C 
DOCKED: ATOM     33  O   UNL d   1      42.816  41.740  27.357 -0.32 -0.62    -0.650 OA
DOCKED: BRANCH  32  34
DOCKED: ATOM     34  O   UNL d   1      43.582  43.682  26.619 +0.04 -0.12    -0.776 OA
DOCKED: ATOM     35  H   UNL d   1      43.243  44.163  25.852 +0.02 +0.02    +0.167 HD
DOCKED: ENDBRANCH  32  34
DOCKED: ENDBRANCH  31  32
DOCKED: ENDBRANCH  30  31
DOCKED: ENDBRANCH   6  30
DOCKED: BRANCH  29  36
DOCKED: ATOM     36  C   UNL d   1      41.869  46.542  24.388 -0.01 +0.01    +0.190 C 
DOCKED: BRANCH  36  37
DOCKED: ATOM     37  O   UNL d   1      42.571  46.328  25.579 +0.01 -0.03    -0.399 OA
DOCKED: ATOM     38  H   UNL d   1      42.554  45.339  25.712 +0.02 +0.02    +0.209 HD
DOCKED: ENDBRANCH  36  37
DOCKED: ENDBRANCH  29  36
DOCKED: BRANCH  22  39
DOCKED: ATOM     39  C   UNL d   1      39.183  41.345  25.722 -0.05 +0.03    +0.052 C 
DOCKED: BRANCH  39  40
DOCKED: ATOM     40  C   UNL d   1      39.325  41.673  27.218 -0.22 +0.07    +0.115 C 
DOCKED: BRANCH  40  41
DOCKED: ATOM     41  C   UNL d   1      38.284  41.019  28.103 -0.35 +0.07    +0.139 C 
DOCKED: ATOM     42  O   UNL d   1      38.221  39.799  28.151 -0.35 -0.46    -0.650 OA
DOCKED: BRANCH  41  43
DOCKED: ATOM     43  O   UNL d   1      37.479  41.747  28.908 +0.02 -0.14    -0.776 OA
DOCKED: ATOM     44  H   UNL d   1      36.577  41.988  28.660 -0.50 -0.00    +0.167 HD
DOCKED: ENDBRANCH  41  43
DOCKED: ENDBRANCH  40  41
DOCKED: ENDBRANCH  39  40
DOCKED: ENDBRANCH  22  39
DOCKED: BRANCH  12  45
DOCKED: ATOM     45  C   UNL d   1      43.457  49.659  19.501 -0.07 +0.00    +0.004 C 
DOCKED: ATOM     46  C   UNL d   1      44.310  50.202  18.637 -0.16 +0.00    +0.012 C 
DOCKED: ENDBRANCH  12  45
DOCKED: BRANCH  17  47
DOCKED: ATOM     47  C   UNL d   1      36.580  48.247  22.934 -0.32 +0.00    +0.004 C 
DOCKED: ATOM     48  C   UNL d   1      36.185  48.130  24.205 -0.26 +0.00    +0.012 C 
DOCKED: ENDBRANCH  17  47
DOCKED: TORSDOF 12
DOCKED: TER
DOCKED: ENDMDL
________________________________________________________________________________


	BEGINNING GENETIC ALGORITHM DOCKING 54 of 100
Run: 54 Seed: 371877588 434614811 [ Run 54 of 100 GA/GALS ]
Beginning LAMARCKIAN GENETIC ALGORITHM (LGA), with a maximum of 25000000 energy evaluations.

Final-Value: -11.224


	FINAL GENETIC ALGORITHM DOCKED STATE
	_______________________________________________


Detailed state:  trans 19.248 44.832 -8.712 quatxyzw 0.559888 0.514669 0.243785 0.601839 center 8.781 34.984 -0.736 ntor 12 -2.4956 139.0270 21.5096 5.1172 157.9962 73.2434 -21.1078 -49.9234 61.1470 144.9480 1.6282 159.2502
State:	 19.248  44.832  -8.712   0.701  0.644  0.305 105.997     -2.50  139.03   21.51    5.12  158.00   73.24  -21.11  -49.92   61.15  144.95    1.63  159.25

DOCKED: MODEL       54
DOCKED: USER    Run = 54
DOCKED: USER    DPF = D:/Protein_go_brrr/autodock/final/2DN3/heme_Co/dock.dpf
DOCKED: USER  
DOCKED: USER    Estimated Free Energy of Binding    =   -5.20 kcal/mol  [=(1)+(2)+(3)-(4)]
DOCKED: USER    Estimated Inhibition Constant, Ki   =  153.59 uM (micromolar)  [Temperature = 298.15 K]
DOCKED: USER    
DOCKED: USER    (1) Final Intermolecular Energy     =   -8.78 kcal/mol
DOCKED: USER        vdW + Hbond + desolv Energy     =   -7.71 kcal/mol
DOCKED: USER        Electrostatic Energy            =   -1.07 kcal/mol
DOCKED: USER    (2) Final Total Internal Energy     =   -2.44 kcal/mol
DOCKED: USER    (3) Torsional Free Energy           =   +3.58 kcal/mol
DOCKED: USER    (4) Unbound System's Energy  [=(2)] =   -2.44 kcal/mol
DOCKED: USER    
DOCKED: USER    
DOCKED: USER    NEWDPF move heme_Co_opt.pdbqt
DOCKED: USER    NEWDPF about 8.781000 34.984000 -0.736000
DOCKED: USER    NEWDPF tran0 19.247925 44.832225 -8.712428
DOCKED: USER    NEWDPF quaternion0 0.559888 0.514669 0.243785 0.601839
DOCKED: USER    NEWDPF axisangle0 0.701072 0.644450 0.305259 105.996519
DOCKED: USER    NEWDPF quat0 0.701072 0.644450 0.305259 105.996519
DOCKED: USER    NEWDPF dihe0 -2.50 139.03 21.51 5.12 158.00 73.24 -21.11 -49.92 61.15 144.95 1.63 159.25 
DOCKED: USER  keepresnum = 1 
DOCKED: USER  
DOCKED: REMARK  12 active torsions:
DOCKED: REMARK  status: ('A' for Active; 'I' for Inactive)
DOCKED: REMARK    1  A    between atoms: C_6  and  C_10 
DOCKED: REMARK    2  A    between atoms: C_10  and  C_11 
DOCKED: REMARK    3  A    between atoms: C_11  and  C_12 
DOCKED: REMARK    4  A    between atoms: C_12  and  O_14 
DOCKED: REMARK    5  A    between atoms: C_17  and  C_20 
DOCKED: REMARK    6  A    between atoms: C_24  and  C_27 
DOCKED: REMARK    7  A    between atoms: C_31  and  C_34 
DOCKED: REMARK    8  A    between atoms: C_34  and  C_35 
DOCKED: REMARK    9  A    between atoms: C_35  and  C_36 
DOCKED: REMARK   10  A    between atoms: C_36  and  O_38 
DOCKED: REMARK   11  A    between atoms: FE_43  and  C_44 
DOCKED: REMARK   12  A    between atoms: C_44  and  O_45 
DOCKED: USER                              x       y       z     vdW  Elec       q    Type
DOCKED: USER                           _______ _______ _______ _____ _____    ______ ____
DOCKED: ROOT
DOCKED: ATOM      1  C   UNL d   1      19.297  43.626 -10.517 +0.07 +0.02    +0.064 A 
DOCKED: ATOM      2  C   UNL d   1      16.131  46.760  -8.854 -0.17 -0.01    +0.064 C 
DOCKED: ATOM      3  C   UNL d   1      18.643  47.210  -4.815 -0.17 -0.01    +0.064 A 
DOCKED: ATOM      4  C   UNL d   1      22.089  44.308  -6.649 -0.19 +0.01    +0.064 A 
DOCKED: ATOM      5  C   UNL d   1      18.228  44.421 -10.344 -0.05 +0.01    +0.066 A 
DOCKED: ATOM      6  C   UNL d   1      17.271  44.618 -11.359 -0.14 +0.00    -0.021 A 
DOCKED: ATOM      7  C   UNL d   1      16.368  45.546 -10.879 -0.16 +0.01    -0.025 A 
DOCKED: ATOM      8  C   UNL d   1      16.802  45.863  -9.588 -0.20 -0.01    +0.066 A 
DOCKED: ATOM      9  C   UNL d   1      15.138  46.123 -11.598 -0.13 -0.02    +0.051 C 
DOCKED: ATOM     10  C   UNL d   1      16.488  47.129  -7.507 -0.24 -0.01    +0.066 A 
DOCKED: ATOM     11  C   UNL d   1      15.747  47.956  -6.635 -0.26 +0.00    -0.021 A 
DOCKED: ATOM     12  C   UNL d   1      16.500  48.067  -5.463 -0.29 -0.00    +0.000 A 
DOCKED: ATOM     13  C   UNL d   1      17.635  47.292  -5.701 -0.26 -0.01    +0.070 A 
DOCKED: ATOM     14  C   UNL d   1      14.369  48.513  -6.888 -0.23 -0.01    +0.052 C 
DOCKED: ATOM     15  C   UNL d   1      19.904  46.503  -4.919 -0.30 -0.01    +0.066 A 
DOCKED: ATOM     16  C   UNL d   1      20.966  46.577  -4.028 -0.30 +0.00    -0.021 A 
DOCKED: ATOM     17  C   UNL d   1      21.963  45.743  -4.554 -0.29 -0.00    +0.000 A 
DOCKED: ATOM     18  C   UNL d   1      21.423  45.211  -5.720 -0.25 +0.00    +0.070 A 
DOCKED: ATOM     19  C   UNL d   1      20.992  47.404  -2.762 -0.30 -0.01    +0.052 C 
DOCKED: ATOM     20  C   UNL d   1      21.617  43.846  -7.832 -0.17 +0.01    +0.066 A 
DOCKED: ATOM     21  C   UNL d   1      22.366  43.010  -8.656 -0.11 -0.01    -0.025 A 
DOCKED: ATOM     22  C   UNL d   1      21.575  42.773  -9.766 -0.12 -0.01    -0.021 A 
DOCKED: ATOM     23  C   UNL d   1      20.377  43.492  -9.567 -0.09 +0.02    +0.066 A 
DOCKED: ATOM     24  C   UNL d   1      23.775  42.478  -8.410 -0.08 +0.01    +0.051 C 
DOCKED: ATOM     25  N   UNL d   1      17.949  45.176  -9.228 -0.14 -0.00    -0.248 N 
DOCKED: ATOM     26  N   UNL d   1      17.600  46.681  -6.915 -0.17 +0.02    -0.248 N 
DOCKED: ATOM     27  N   UNL d   1      20.208  45.709  -5.922 -0.18 +0.00    -0.248 N 
DOCKED: ATOM     28  N   UNL d   1      20.399  44.145  -8.399 -0.12 -0.05    -0.248 N 
DOCKED: ATOM     29 FE   UNL d   1      19.148  45.456  -7.478 -0.05 +0.00    +0.000 Fe
DOCKED: ENDROOT
DOCKED: BRANCH   6  30
DOCKED: ATOM     30  C   UNL d   1      17.283  43.999 -12.753 -0.09 +0.00    +0.052 C 
DOCKED: BRANCH  30  31
DOCKED: ATOM     31  C   UNL d   1      16.625  42.620 -12.733 -0.14 +0.02    +0.115 C 
DOCKED: BRANCH  31  32
DOCKED: ATOM     32  C   UNL d   1      17.564  41.526 -13.194 -0.07 +0.10    +0.139 C 
DOCKED: ATOM     33  O   UNL d   1      17.107  40.532 -13.739 -0.41 -0.53    -0.650 OA
DOCKED: BRANCH  32  34
DOCKED: ATOM     34  O   UNL d   1      18.907  41.632 -13.067 -0.47 -0.62    -0.776 OA
DOCKED: ATOM     35  H   UNL d   1      19.363  42.431 -12.767 +0.01 +0.08    +0.167 HD
DOCKED: ENDBRANCH  32  34
DOCKED: ENDBRANCH  31  32
DOCKED: ENDBRANCH  30  31
DOCKED: ENDBRANCH   6  30
DOCKED: BRANCH  29  36
DOCKED: ATOM     36  C   UNL d   1      20.047  47.059  -8.487 -0.04 +0.00    +0.190 C 
DOCKED: BRANCH  36  37
DOCKED: ATOM     37  O   UNL d   1      21.028  47.370  -9.433 +0.00 -0.01    -0.399 OA
DOCKED: ATOM     38  H   UNL d   1      21.110  46.550  -9.997 +0.02 +0.01    +0.209 HD
DOCKED: ENDBRANCH  36  37
DOCKED: ENDBRANCH  29  36
DOCKED: BRANCH  22  39
DOCKED: ATOM     39  C   UNL d   1      21.980  41.953 -10.976 -0.10 +0.02    +0.052 C 
DOCKED: BRANCH  39  40
DOCKED: ATOM     40  C   UNL d   1      22.438  42.869 -12.124 -0.03 +0.02    +0.115 C 
DOCKED: BRANCH  40  41
DOCKED: ATOM     41  C   UNL d   1      21.600  44.117 -12.299 -0.02 +0.02    +0.139 C 
DOCKED: ATOM     42  O   UNL d   1      21.888  45.125 -11.669 +0.01 -0.07    -0.650 OA
DOCKED: BRANCH  41  43
DOCKED: ATOM     43  O   UNL d   1      20.593  44.176 -13.198 +0.03 -0.12    -0.776 OA
DOCKED: ATOM     44  H   UNL d   1      20.099  43.394 -13.477 +0.02 +0.04    +0.167 HD
DOCKED: ENDBRANCH  41  43
DOCKED: ENDBRANCH  40  41
DOCKED: ENDBRANCH  39  40
DOCKED: ENDBRANCH  22  39
DOCKED: BRANCH  12  45
DOCKED: ATOM     45  C   UNL d   1      16.271  48.797  -4.146 -0.35 -0.00    +0.004 C 
DOCKED: ATOM     46  C   UNL d   1      15.283  49.602  -3.762 -0.42 -0.00    +0.012 C 
DOCKED: ENDBRANCH  12  45
DOCKED: BRANCH  17  47
DOCKED: ATOM     47  C   UNL d   1      23.347  45.481  -4.058 -0.30 +0.00    +0.004 C 
DOCKED: ATOM     48  C   UNL d   1      23.893  44.264  -4.006 -0.28 +0.00    +0.012 C 
DOCKED: ENDBRANCH  17  47
DOCKED: TORSDOF 12
DOCKED: TER
DOCKED: ENDMDL
________________________________________________________________________________


	BEGINNING GENETIC ALGORITHM DOCKING 55 of 100
Run: 55 Seed: 713081989 2136053277 [ Run 55 of 100 GA/GALS ]
Beginning LAMARCKIAN GENETIC ALGORITHM (LGA), with a maximum of 25000000 energy evaluations.

Final-Value: -13.483


	FINAL GENETIC ALGORITHM DOCKED STATE
	_______________________________________________


Detailed state:  trans 45.957 25.861 19.736 quatxyzw -0.527223 -0.826599 0.182709 0.073398 center 8.781 34.984 -0.736 ntor 12 -112.3860 83.2509 -37.5221 -15.4367 68.8159 144.8527 30.5461 -30.1723 164.5002 150.9788 -175.5615 -5.9130
State:	 45.957  25.861  19.736  -0.529 -0.829  0.183 171.582   -112.39   83.25  -37.52  -15.44   68.82  144.85   30.55  -30.17  164.50  150.98 -175.56   -5.91

DOCKED: MODEL       55
DOCKED: USER    Run = 55
DOCKED: USER    DPF = D:/Protein_go_brrr/autodock/final/2DN3/heme_Co/dock.dpf
DOCKED: USER  
DOCKED: USER    Estimated Free Energy of Binding    =   -7.77 kcal/mol  [=(1)+(2)+(3)-(4)]
DOCKED: USER    Estimated Inhibition Constant, Ki   =    2.01 uM (micromolar)  [Temperature = 298.15 K]
DOCKED: USER    
DOCKED: USER    (1) Final Intermolecular Energy     =  -11.35 kcal/mol
DOCKED: USER        vdW + Hbond + desolv Energy     =   -7.61 kcal/mol
DOCKED: USER        Electrostatic Energy            =   -3.74 kcal/mol
DOCKED: USER    (2) Final Total Internal Energy     =   -2.13 kcal/mol
DOCKED: USER    (3) Torsional Free Energy           =   +3.58 kcal/mol
DOCKED: USER    (4) Unbound System's Energy  [=(2)] =   -2.13 kcal/mol
DOCKED: USER    
DOCKED: USER    
DOCKED: USER    NEWDPF move heme_Co_opt.pdbqt
DOCKED: USER    NEWDPF about 8.781000 34.984000 -0.736000
DOCKED: USER    NEWDPF tran0 45.956939 25.861276 19.735821
DOCKED: USER    NEWDPF quaternion0 -0.527223 -0.826599 0.182709 0.073398
DOCKED: USER    NEWDPF axisangle0 -0.528649 -0.828835 0.183203 171.581606
DOCKED: USER    NEWDPF quat0 -0.528649 -0.828835 0.183203 171.581606
DOCKED: USER    NEWDPF dihe0 -112.39 83.25 -37.52 -15.44 68.82 144.85 30.55 -30.17 164.50 150.98 -175.56 -5.91 
DOCKED: USER  keepresnum = 1 
DOCKED: USER  
DOCKED: REMARK  12 active torsions:
DOCKED: REMARK  status: ('A' for Active; 'I' for Inactive)
DOCKED: REMARK    1  A    between atoms: C_6  and  C_10 
DOCKED: REMARK    2  A    between atoms: C_10  and  C_11 
DOCKED: REMARK    3  A    between atoms: C_11  and  C_12 
DOCKED: REMARK    4  A    between atoms: C_12  and  O_14 
DOCKED: REMARK    5  A    between atoms: C_17  and  C_20 
DOCKED: REMARK    6  A    between atoms: C_24  and  C_27 
DOCKED: REMARK    7  A    between atoms: C_31  and  C_34 
DOCKED: REMARK    8  A    between atoms: C_34  and  C_35 
DOCKED: REMARK    9  A    between atoms: C_35  and  C_36 
DOCKED: REMARK   10  A    between atoms: C_36  and  O_38 
DOCKED: REMARK   11  A    between atoms: FE_43  and  C_44 
DOCKED: REMARK   12  A    between atoms: C_44  and  O_45 
DOCKED: USER                              x       y       z     vdW  Elec       q    Type
DOCKED: USER                           _______ _______ _______ _____ _____    ______ ____
DOCKED: ROOT
DOCKED: ATOM      1  C   UNL d   1      47.304  24.737  21.015 -0.04 +0.04    +0.064 A 
DOCKED: ATOM      2  C   UNL d   1      44.103  23.380  17.772 -0.31 +0.03    +0.064 C 
DOCKED: ATOM      3  C   UNL d   1      42.711  27.914  17.193 -0.25 +0.02    +0.064 A 
DOCKED: ATOM      4  C   UNL d   1      46.235  29.368  20.216 -0.16 +0.06    +0.064 A 
DOCKED: ATOM      5  C   UNL d   1      46.507  24.030  20.199 -0.10 +0.04    +0.066 A 
DOCKED: ATOM      6  C   UNL d   1      46.656  22.639  20.029 -0.13 -0.01    -0.021 A 
DOCKED: ATOM      7  C   UNL d   1      45.739  22.254  19.070 -0.12 -0.02    -0.025 A 
DOCKED: ATOM      8  C   UNL d   1      45.060  23.422  18.708 -0.19 +0.04    +0.066 A 
DOCKED: ATOM      9  C   UNL d   1      45.501  20.845  18.506 -0.21 +0.03    +0.051 C 
DOCKED: ATOM     10  C   UNL d   1      43.332  24.525  17.353 -0.29 +0.03    +0.066 A 
DOCKED: ATOM     11  C   UNL d   1      42.222  24.521  16.481 -0.38 -0.01    -0.021 A 
DOCKED: ATOM     12  C   UNL d   1      41.834  25.855  16.333 -0.33 +0.00    +0.000 A 
DOCKED: ATOM     13  C   UNL d   1      42.725  26.571  17.133 -0.30 +0.02    +0.070 A 
DOCKED: ATOM     14  C   UNL d   1      41.536  23.304  15.916 -0.48 +0.01    +0.052 C 
DOCKED: ATOM     15  C   UNL d   1      43.586  28.811  17.922 -0.14 +0.03    +0.066 A 
DOCKED: ATOM     16  C   UNL d   1      43.610  30.196  17.826 -0.32 -0.01    -0.021 A 
DOCKED: ATOM     17  C   UNL d   1      44.627  30.619  18.694 -0.28 +0.00    +0.000 A 
DOCKED: ATOM     18  C   UNL d   1      45.133  29.457  19.266 -0.21 +0.04    +0.070 A 
DOCKED: ATOM     19  C   UNL d   1      42.704  31.030  16.948 -0.36 +0.01    +0.052 C 
DOCKED: ATOM     20  C   UNL d   1      46.801  28.245  20.718 -0.10 +0.07    +0.066 A 
DOCKED: ATOM     21  C   UNL d   1      47.881  28.286  21.598 -0.01 -0.03    -0.025 A 
DOCKED: ATOM     22  C   UNL d   1      48.192  26.966  21.869 -0.05 -0.02    -0.021 A 
DOCKED: ATOM     23  C   UNL d   1      47.288  26.178  21.125 -0.05 +0.05    +0.066 A 
DOCKED: ATOM     24  C   UNL d   1      48.595  29.522  22.139 -0.07 +0.05    +0.051 C 
DOCKED: ATOM     25  N   UNL d   1      45.511  24.536  19.395 -0.08 -0.15    -0.248 N 
DOCKED: ATOM     26  N   UNL d   1      43.595  25.760  17.793 -0.16 -0.10    -0.248 N 
DOCKED: ATOM     27  N   UNL d   1      44.511  28.398  18.760 -0.11 -0.13    -0.248 N 
DOCKED: ATOM     28  N   UNL d   1      46.445  26.948  20.426 -0.06 -0.20    -0.248 N 
DOCKED: ATOM     29 FE   UNL d   1      44.983  26.583  19.061 -0.04 +0.00    +0.000 Fe
DOCKED: ENDROOT
DOCKED: BRANCH   6  30
DOCKED: ATOM     30  C   UNL d   1      47.691  21.746  20.705 -0.09 +0.02    +0.052 C 
DOCKED: BRANCH  30  31
DOCKED: ATOM     31  C   UNL d   1      48.949  21.636  19.843 -0.04 +0.06    +0.115 C 
DOCKED: BRANCH  31  32
DOCKED: ATOM     32  C   UNL d   1      48.706  22.060  18.411 -0.03 +0.15    +0.139 C 
DOCKED: ATOM     33  O   UNL d   1      48.513  21.208  17.557 +0.00 -1.33    -0.650 OA
DOCKED: BRANCH  32  34
DOCKED: ATOM     34  O   UNL d   1      48.648  23.362  18.048 +0.03 -0.86    -0.776 OA
DOCKED: ATOM     35  H   UNL d   1      47.861  23.790  17.683 +0.03 +0.21    +0.167 HD
DOCKED: ENDBRANCH  32  34
DOCKED: ENDBRANCH  31  32
DOCKED: ENDBRANCH  30  31
DOCKED: ENDBRANCH   6  30
DOCKED: BRANCH  29  36
DOCKED: ATOM     36  C   UNL d   1      46.397  26.577  17.513 -0.14 +0.10    +0.190 C 
DOCKED: BRANCH  36  37
DOCKED: ATOM     37  O   UNL d   1      47.427  25.819  16.948 -0.17 -0.29    -0.399 OA
DOCKED: ATOM     38  H   UNL d   1      47.813  25.302  17.709 +0.05 +0.16    +0.209 HD
DOCKED: ENDBRANCH  36  37
DOCKED: ENDBRANCH  29  36
DOCKED: BRANCH  22  39
DOCKED: ATOM     39  C   UNL d   1      49.339  26.494  22.743 -0.01 +0.03    +0.052 C 
DOCKED: BRANCH  39  40
DOCKED: ATOM     40  C   UNL d   1      48.853  26.222  24.176 -0.02 +0.07    +0.115 C 
DOCKED: BRANCH  40  41
DOCKED: ATOM     41  C   UNL d   1      47.760  27.156  24.653 +0.09 +0.19    +0.139 C 
DOCKED: ATOM     42  O   UNL d   1      46.620  26.731  24.771 -0.13 -1.13    -0.650 OA
DOCKED: BRANCH  41  43
DOCKED: ATOM     43  O   UNL d   1      48.027  28.425  25.035 -0.15 -1.17    -0.776 OA
DOCKED: ATOM     44  H   UNL d   1      48.865  28.679  25.441 +0.01 +0.13    +0.167 HD
DOCKED: ENDBRANCH  41  43
DOCKED: ENDBRANCH  40  41
DOCKED: ENDBRANCH  39  40
DOCKED: ENDBRANCH  22  39
DOCKED: BRANCH  12  45
DOCKED: ATOM     45  C   UNL d   1      40.718  26.531  15.547 -0.48 +0.00    +0.004 C 
DOCKED: ATOM     46  C   UNL d   1      40.054  26.129  14.467 -0.53 +0.00    +0.012 C 
DOCKED: ENDBRANCH  12  45
DOCKED: BRANCH  17  47
DOCKED: ATOM     47  C   UNL d   1      45.146  31.995  18.956 -0.29 +0.00    +0.004 C 
DOCKED: ATOM     48  C   UNL d   1      44.359  33.049  19.187 -0.37 +0.00    +0.012 C 
DOCKED: ENDBRANCH  17  47
DOCKED: TORSDOF 12
DOCKED: TER
DOCKED: ENDMDL
________________________________________________________________________________


	BEGINNING GENETIC ALGORITHM DOCKING 56 of 100
Run: 56 Seed: 596656120 814416074 [ Run 56 of 100 GA/GALS ]
Beginning LAMARCKIAN GENETIC ALGORITHM (LGA), with a maximum of 25000000 energy evaluations.

Final-Value: -19.277


	FINAL GENETIC ALGORITHM DOCKED STATE
	_______________________________________________


Detailed state:  trans 40.992 29.033 16.267 quatxyzw 0.357020 -0.400533 -0.842358 0.050418 center 8.781 34.984 -0.736 ntor 12 71.9821 110.9959 -13.6000 -58.3009 -51.5263 5.3585 79.1445 5.5655 31.9531 10.2566 -48.6685 -12.2316
State:	 40.992  29.033  16.267   0.357 -0.401 -0.843 174.220     71.98  111.00  -13.60  -58.30  -51.53    5.36   79.14    5.57   31.95   10.26  -48.67  -12.23

DOCKED: MODEL       56
DOCKED: USER    Run = 56
DOCKED: USER    DPF = D:/Protein_go_brrr/autodock/final/2DN3/heme_Co/dock.dpf
DOCKED: USER  
DOCKED: USER    Estimated Free Energy of Binding    =  -14.23 kcal/mol  [=(1)+(2)+(3)-(4)]
DOCKED: USER    Estimated Inhibition Constant, Ki   =   36.87 pM (picomolar)  [Temperature = 298.15 K]
DOCKED: USER    
DOCKED: USER    (1) Final Intermolecular Energy     =  -17.81 kcal/mol
DOCKED: USER        vdW + Hbond + desolv Energy     =  -15.36 kcal/mol
DOCKED: USER        Electrostatic Energy            =   -2.45 kcal/mol
DOCKED: USER    (2) Final Total Internal Energy     =   -1.46 kcal/mol
DOCKED: USER    (3) Torsional Free Energy           =   +3.58 kcal/mol
DOCKED: USER    (4) Unbound System's Energy  [=(2)] =   -1.46 kcal/mol
DOCKED: USER    
DOCKED: USER    
DOCKED: USER    NEWDPF move heme_Co_opt.pdbqt
DOCKED: USER    NEWDPF about 8.781000 34.984000 -0.736000
DOCKED: USER    NEWDPF tran0 40.992142 29.033011 16.266984
DOCKED: USER    NEWDPF quaternion0 0.357020 -0.400533 -0.842358 0.050418
DOCKED: USER    NEWDPF axisangle0 0.357475 -0.401043 -0.843431 174.220095
DOCKED: USER    NEWDPF quat0 0.357475 -0.401043 -0.843431 174.220095
DOCKED: USER    NEWDPF dihe0 71.98 111.00 -13.60 -58.30 -51.53 5.36 79.14 5.57 31.95 10.26 -48.67 -12.23 
DOCKED: USER  keepresnum = 1 
DOCKED: USER  
DOCKED: REMARK  12 active torsions:
DOCKED: REMARK  status: ('A' for Active; 'I' for Inactive)
DOCKED: REMARK    1  A    between atoms: C_6  and  C_10 
DOCKED: REMARK    2  A    between atoms: C_10  and  C_11 
DOCKED: REMARK    3  A    between atoms: C_11  and  C_12 
DOCKED: REMARK    4  A    between atoms: C_12  and  O_14 
DOCKED: REMARK    5  A    between atoms: C_17  and  C_20 
DOCKED: REMARK    6  A    between atoms: C_24  and  C_27 
DOCKED: REMARK    7  A    between atoms: C_31  and  C_34 
DOCKED: REMARK    8  A    between atoms: C_34  and  C_35 
DOCKED: REMARK    9  A    between atoms: C_35  and  C_36 
DOCKED: REMARK   10  A    between atoms: C_36  and  O_38 
DOCKED: REMARK   11  A    between atoms: FE_43  and  C_44 
DOCKED: REMARK   12  A    between atoms: C_44  and  O_45 
DOCKED: USER                              x       y       z     vdW  Elec       q    Type
DOCKED: USER                           _______ _______ _______ _____ _____    ______ ____
DOCKED: ROOT
DOCKED: ATOM      1  C   UNL d   1      42.716  28.482  17.467 -0.15 +0.02    +0.064 A 
DOCKED: ATOM      2  C   UNL d   1      40.675  32.676  16.544 -0.48 +0.01    +0.064 C 
DOCKED: ATOM      3  C   UNL d   1      37.651  30.577  13.499 -0.36 +0.01    +0.064 A 
DOCKED: ATOM      4  C   UNL d   1      39.463  26.230  14.715 -0.41 +0.01    +0.064 A 
DOCKED: ATOM      5  C   UNL d   1      42.404  29.787  17.411 -0.26 +0.02    +0.066 A 
DOCKED: ATOM      6  C   UNL d   1      43.035  30.742  18.233 -0.36 -0.01    -0.021 A 
DOCKED: ATOM      7  C   UNL d   1      42.424  31.953  17.977 -0.44 -0.01    -0.025 A 
DOCKED: ATOM      8  C   UNL d   1      41.458  31.689  17.000 -0.40 +0.01    +0.066 A 
DOCKED: ATOM      9  C   UNL d   1      42.725  33.315  18.621 -0.41 +0.01    +0.051 C 
DOCKED: ATOM     10  C   UNL d   1      39.673  32.505  15.522 -0.39 +0.01    +0.066 A 
DOCKED: ATOM     11  C   UNL d   1      38.918  33.524  14.902 -0.43 -0.00    -0.021 A 
DOCKED: ATOM     12  C   UNL d   1      38.047  32.885  14.016 -0.40 +0.00    +0.000 A 
DOCKED: ATOM     13  C   UNL d   1      38.343  31.528  14.151 -0.37 +0.01    +0.070 A 
DOCKED: ATOM     14  C   UNL d   1      39.100  35.009  15.088 -0.55 +0.01    +0.052 C 
DOCKED: ATOM     15  C   UNL d   1      37.787  29.135  13.560 -0.38 +0.01    +0.066 A 
DOCKED: ATOM     16  C   UNL d   1      36.943  28.203  12.972 -0.48 -0.00    -0.021 A 
DOCKED: ATOM     17  C   UNL d   1      37.461  26.948  13.322 -0.46 +0.00    +0.000 A 
DOCKED: ATOM     18  C   UNL d   1      38.593  27.214  14.085 -0.37 +0.01    +0.070 A 
DOCKED: ATOM     19  C   UNL d   1      35.726  28.527  12.134 -0.66 +0.01    +0.052 C 
DOCKED: ATOM     20  C   UNL d   1      40.518  26.465  15.532 -0.38 +0.02    +0.066 A 
DOCKED: ATOM     21  C   UNL d   1      41.258  25.434  16.107 -0.38 -0.01    -0.025 A 
DOCKED: ATOM     22  C   UNL d   1      42.221  26.053  16.883 -0.35 -0.01    -0.021 A 
DOCKED: ATOM     23  C   UNL d   1      42.011  27.443  16.751 -0.32 +0.02    +0.066 A 
DOCKED: ATOM     24  C   UNL d   1      41.046  23.932  15.942 -0.55 +0.01    +0.051 C 
DOCKED: ATOM     25  N   UNL d   1      41.427  30.357  16.626 -0.15 -0.08    -0.248 N 
DOCKED: ATOM     26  N   UNL d   1      39.365  31.305  15.020 -0.22 -0.05    -0.248 N 
DOCKED: ATOM     27  N   UNL d   1      38.739  28.527  14.231 -0.19 -0.06    -0.248 N 
DOCKED: ATOM     28  N   UNL d   1      40.980  27.696  15.936 -0.21 -0.09    -0.248 N 
DOCKED: ATOM     29 FE   UNL d   1      40.005  29.384  15.358 -0.05 +0.00    +0.000 Fe
DOCKED: ENDROOT
DOCKED: BRANCH   6  30
DOCKED: ATOM     30  C   UNL d   1      44.119  30.474  19.271 -0.30 +0.02    +0.052 C 
DOCKED: BRANCH  30  31
DOCKED: ATOM     31  C   UNL d   1      45.053  29.360  18.798 -0.22 +0.06    +0.115 C 
DOCKED: BRANCH  31  32
DOCKED: ATOM     32  C   UNL d   1      45.635  28.567  19.949 -0.19 +0.12    +0.139 C 
DOCKED: ATOM     33  O   UNL d   1      46.161  29.158  20.880 -0.38 -0.91    -0.650 OA
DOCKED: BRANCH  32  34
DOCKED: ATOM     34  O   UNL d   1      45.550  27.218  20.006 +0.06 -0.60    -0.776 OA
DOCKED: ATOM     35  H   UNL d   1      46.010  26.618  19.403 +0.05 +0.10    +0.167 HD
DOCKED: ENDBRANCH  32  34
DOCKED: ENDBRANCH  31  32
DOCKED: ENDBRANCH  30  31
DOCKED: ENDBRANCH   6  30
DOCKED: BRANCH  29  36
DOCKED: ATOM     36  C   UNL d   1      38.757  29.266  17.039 -0.33 +0.05    +0.190 C 
DOCKED: BRANCH  36  37
DOCKED: ATOM     37  O   UNL d   1      37.757  28.488  17.631 -0.24 -0.08    -0.399 OA
DOCKED: ATOM     38  H   UNL d   1      37.589  27.749  16.983 +0.13 +0.04    +0.209 HD
DOCKED: ENDBRANCH  36  37
DOCKED: ENDBRANCH  29  36
DOCKED: BRANCH  22  39
DOCKED: ATOM     39  C   UNL d   1      43.241  25.342  17.752 -0.35 +0.02    +0.052 C 
DOCKED: BRANCH  39  40
DOCKED: ATOM     40  C   UNL d   1      44.517  25.036  16.950 -0.17 +0.06    +0.115 C 
DOCKED: BRANCH  40  41
DOCKED: ATOM     41  C   UNL d   1      45.550  24.227  17.706 -0.22 +0.11    +0.139 C 
DOCKED: ATOM     42  O   UNL d   1      46.213  23.393  17.106 -0.34 -0.96    -0.650 OA
DOCKED: BRANCH  41  43
DOCKED: ATOM     43  O   UNL d   1      45.821  24.461  19.009 +0.08 -0.48    -0.776 OA
DOCKED: ATOM     44  H   UNL d   1      45.450  25.212  19.490 +0.06 +0.10    +0.167 HD
DOCKED: ENDBRANCH  41  43
DOCKED: ENDBRANCH  40  41
DOCKED: ENDBRANCH  39  40
DOCKED: ENDBRANCH  22  39
DOCKED: BRANCH  12  45
DOCKED: ATOM     45  C   UNL d   1      36.989  33.397  13.048 -0.52 +0.00    +0.004 C 
DOCKED: ATOM     46  C   UNL d   1      35.828  34.005  13.277 -0.59 +0.00    +0.012 C 
DOCKED: ENDBRANCH  12  45
DOCKED: BRANCH  17  47
DOCKED: ATOM     47  C   UNL d   1      36.933  25.583  13.026 -0.64 +0.00    +0.004 C 
DOCKED: ATOM     48  C   UNL d   1      35.859  25.062  13.624 -0.70 +0.00    +0.012 C 
DOCKED: ENDBRANCH  17  47
DOCKED: TORSDOF 12
DOCKED: TER
DOCKED: ENDMDL
________________________________________________________________________________


	BEGINNING GENETIC ALGORITHM DOCKING 57 of 100
Run: 57 Seed: 1694020537 1193301220 [ Run 57 of 100 GA/GALS ]
Beginning LAMARCKIAN GENETIC ALGORITHM (LGA), with a maximum of 25000000 energy evaluations.

Final-Value: -11.946


	FINAL GENETIC ALGORITHM DOCKED STATE
	_______________________________________________


Detailed state:  trans 23.794 17.224 15.776 quatxyzw 0.669559 -0.178389 -0.711454 0.117055 center 8.781 34.984 -0.736 ntor 12 60.6337 73.8044 -28.2403 57.5598 -85.2000 120.1672 -147.3586 -5.4617 112.8408 -36.3485 19.1047 -18.7704
State:	 23.794  17.224  15.776   0.674 -0.180 -0.716 166.556     60.63   73.80  -28.24   57.56  -85.20  120.17 -147.36   -5.46  112.84  -36.35   19.10  -18.77

DOCKED: MODEL       57
DOCKED: USER    Run = 57
DOCKED: USER    DPF = D:/Protein_go_brrr/autodock/final/2DN3/heme_Co/dock.dpf
DOCKED: USER  
DOCKED: USER    Estimated Free Energy of Binding    =   -6.63 kcal/mol  [=(1)+(2)+(3)-(4)]
DOCKED: USER    Estimated Inhibition Constant, Ki   =   13.86 uM (micromolar)  [Temperature = 298.15 K]
DOCKED: USER    
DOCKED: USER    (1) Final Intermolecular Energy     =  -10.21 kcal/mol
DOCKED: USER        vdW + Hbond + desolv Energy     =   -7.25 kcal/mol
DOCKED: USER        Electrostatic Energy            =   -2.96 kcal/mol
DOCKED: USER    (2) Final Total Internal Energy     =   -1.74 kcal/mol
DOCKED: USER    (3) Torsional Free Energy           =   +3.58 kcal/mol
DOCKED: USER    (4) Unbound System's Energy  [=(2)] =   -1.74 kcal/mol
DOCKED: USER    
DOCKED: USER    
DOCKED: USER    NEWDPF move heme_Co_opt.pdbqt
DOCKED: USER    NEWDPF about 8.781000 34.984000 -0.736000
DOCKED: USER    NEWDPF tran0 23.794261 17.224333 15.775577
DOCKED: USER    NEWDPF quaternion0 0.669559 -0.178389 -0.711454 0.117055
DOCKED: USER    NEWDPF axisangle0 0.674194 -0.179623 -0.716379 166.555682
DOCKED: USER    NEWDPF quat0 0.674194 -0.179623 -0.716379 166.555682
DOCKED: USER    NEWDPF dihe0 60.63 73.80 -28.24 57.56 -85.20 120.17 -147.36 -5.46 112.84 -36.35 19.10 -18.77 
DOCKED: USER  keepresnum = 1 
DOCKED: USER  
DOCKED: REMARK  12 active torsions:
DOCKED: REMARK  status: ('A' for Active; 'I' for Inactive)
DOCKED: REMARK    1  A    between atoms: C_6  and  C_10 
DOCKED: REMARK    2  A    between atoms: C_10  and  C_11 
DOCKED: REMARK    3  A    between atoms: C_11  and  C_12 
DOCKED: REMARK    4  A    between atoms: C_12  and  O_14 
DOCKED: REMARK    5  A    between atoms: C_17  and  C_20 
DOCKED: REMARK    6  A    between atoms: C_24  and  C_27 
DOCKED: REMARK    7  A    between atoms: C_31  and  C_34 
DOCKED: REMARK    8  A    between atoms: C_34  and  C_35 
DOCKED: REMARK    9  A    between atoms: C_35  and  C_36 
DOCKED: REMARK   10  A    between atoms: C_36  and  O_38 
DOCKED: REMARK   11  A    between atoms: FE_43  and  C_44 
DOCKED: REMARK   12  A    between atoms: C_44  and  O_45 
DOCKED: USER                              x       y       z     vdW  Elec       q    Type
DOCKED: USER                           _______ _______ _______ _____ _____    ______ ____
DOCKED: ROOT
DOCKED: ATOM      1  C   UNL d   1      24.513  16.562  17.715 -0.11 +0.03    +0.064 A 
DOCKED: ATOM      2  C   UNL d   1      22.094  20.422  16.353 -0.46 +0.01    +0.064 C 
DOCKED: ATOM      3  C   UNL d   1      22.494  19.105  11.777 -0.18 +0.02    +0.064 A 
DOCKED: ATOM      4  C   UNL d   1      24.629  14.962  13.170 -0.06 +0.02    +0.064 A 
DOCKED: ATOM      5  C   UNL d   1      23.854  17.732  17.676 -0.16 +0.02    +0.066 A 
DOCKED: ATOM      6  C   UNL d   1      23.475  18.415  18.848 -0.20 -0.00    -0.021 A 
DOCKED: ATOM      7  C   UNL d   1      22.753  19.522  18.447 -0.24 +0.00    -0.025 A 
DOCKED: ATOM      8  C   UNL d   1      22.737  19.476  17.049 -0.30 +0.01    +0.066 A 
DOCKED: ATOM      9  C   UNL d   1      22.097  20.591  19.335 -0.33 -0.02    +0.051 C 
DOCKED: ATOM     10  C   UNL d   1      22.046  20.472  14.913 -0.37 +0.01    +0.066 A 
DOCKED: ATOM     11  C   UNL d   1      21.508  21.511  14.122 -0.42 -0.00    -0.021 A 
DOCKED: ATOM     12  C   UNL d   1      21.641  21.103  12.792 -0.39 +0.00    +0.000 A 
DOCKED: ATOM     13  C   UNL d   1      22.260  19.855  12.869 -0.26 +0.02    +0.070 A 
DOCKED: ATOM     14  C   UNL d   1      20.995  22.837  14.621 -0.20 -0.00    +0.052 C 
DOCKED: ATOM     15  C   UNL d   1      23.072  17.779  11.679 -0.14 +0.02    +0.066 A 
DOCKED: ATOM     16  C   UNL d   1      23.152  16.999  10.534 -0.11 -0.01    -0.021 A 
DOCKED: ATOM     17  C   UNL d   1      23.765  15.802  10.931 -0.08 +0.00    +0.000 A 
DOCKED: ATOM     18  C   UNL d   1      24.027  15.954  12.289 -0.09 +0.02    +0.070 A 
DOCKED: ATOM     19  C   UNL d   1      22.662  17.404   9.161 -0.09 +0.01    +0.052 C 
DOCKED: ATOM     20  C   UNL d   1      24.814  15.053  14.509 -0.07 +0.02    +0.066 A 
DOCKED: ATOM     21  C   UNL d   1      25.372  14.017  15.255 -0.05 -0.01    -0.025 A 
DOCKED: ATOM     22  C   UNL d   1      25.378  14.461  16.564 -0.06 -0.01    -0.021 A 
DOCKED: ATOM     23  C   UNL d   1      24.808  15.752  16.554 -0.08 +0.03    +0.066 A 
DOCKED: ATOM     24  C   UNL d   1      25.858  12.662  14.748 -0.01 +0.01    +0.051 C 
DOCKED: ATOM     25  N   UNL d   1      23.417  18.381  16.544 -0.08 -0.08    -0.248 N 
DOCKED: ATOM     26  N   UNL d   1      22.555  19.500  14.148 -0.19 -0.07    -0.248 N 
DOCKED: ATOM     27  N   UNL d   1      23.573  17.130  12.706 -0.08 -0.07    -0.248 N 
DOCKED: ATOM     28  N   UNL d   1      24.463  16.113  15.313 -0.03 -0.10    -0.248 N 
DOCKED: ATOM     29 FE   UNL d   1      23.502  17.716  14.512 -0.05 +0.00    +0.000 Fe
DOCKED: ENDROOT
DOCKED: BRANCH   6  30
DOCKED: ATOM     30  C   UNL d   1      23.729  17.968  20.284 -0.13 +0.01    +0.052 C 
DOCKED: BRANCH  30  31
DOCKED: ATOM     31  C   UNL d   1      24.879  18.765  20.898 -0.19 +0.03    +0.115 C 
DOCKED: BRANCH  31  32
DOCKED: ATOM     32  C   UNL d   1      26.215  18.425  20.274 -0.24 +0.13    +0.139 C 
DOCKED: ATOM     33  O   UNL d   1      26.545  18.966  19.229 -0.21 -0.53    -0.650 OA
DOCKED: BRANCH  32  34
DOCKED: ATOM     34  O   UNL d   1      27.086  17.572  20.862 -0.21 -1.49    -0.776 OA
DOCKED: ATOM     35  H   UNL d   1      26.872  16.662  21.108 +0.03 +0.25    +0.167 HD
DOCKED: ENDBRANCH  32  34
DOCKED: ENDBRANCH  31  32
DOCKED: ENDBRANCH  30  31
DOCKED: ENDBRANCH   6  30
DOCKED: BRANCH  29  36
DOCKED: ATOM     36  C   UNL d   1      21.646  16.802  14.852 -0.16 +0.12    +0.190 C 
DOCKED: BRANCH  36  37
DOCKED: ATOM     37  O   UNL d   1      20.888  16.148  15.829 -0.18 -0.42    -0.399 OA
DOCKED: ATOM     38  H   UNL d   1      21.540  15.570  16.315 +0.06 +0.14    +0.209 HD
DOCKED: ENDBRANCH  36  37
DOCKED: ENDBRANCH  29  36
DOCKED: BRANCH  22  39
DOCKED: ATOM     39  C   UNL d   1      25.847  13.658  17.763 -0.04 +0.02    +0.052 C 
DOCKED: BRANCH  39  40
DOCKED: ATOM     40  C   UNL d   1      27.376  13.739  17.907 -0.07 +0.08    +0.115 C 
DOCKED: BRANCH  40  41
DOCKED: ATOM     41  C   UNL d   1      27.862  13.917  19.330 -0.05 +0.14    +0.139 C 
DOCKED: ATOM     42  O   UNL d   1      28.771  13.212  19.744 -0.01 -0.48    -0.650 OA
DOCKED: BRANCH  41  43
DOCKED: ATOM     43  O   UNL d   1      27.378  14.894  20.128 +0.05 -1.16    -0.776 OA
DOCKED: ATOM     44  H   UNL d   1      26.957  15.690  19.779 +0.02 +0.31    +0.167 HD
DOCKED: ENDBRANCH  41  43
DOCKED: ENDBRANCH  40  41
DOCKED: ENDBRANCH  39  40
DOCKED: ENDBRANCH  22  39
DOCKED: BRANCH  12  45
DOCKED: ATOM     45  C   UNL d   1      21.275  21.753  11.465 -0.44 +0.00    +0.004 C 
DOCKED: ATOM     46  C   UNL d   1      21.520  22.976  11.002 -0.47 +0.00    +0.012 C 
DOCKED: ENDBRANCH  12  45
DOCKED: BRANCH  17  47
DOCKED: ATOM     47  C   UNL d   1      24.053  14.569  10.139 -0.05 +0.00    +0.004 C 
DOCKED: ATOM     48  C   UNL d   1      23.373  13.429  10.277 -0.05 +0.00    +0.012 C 
DOCKED: ENDBRANCH  17  47
DOCKED: TORSDOF 12
DOCKED: TER
DOCKED: ENDMDL
________________________________________________________________________________


	BEGINNING GENETIC ALGORITHM DOCKING 58 of 100
Run: 58 Seed: 46881491 804429165 [ Run 58 of 100 GA/GALS ]
Beginning LAMARCKIAN GENETIC ALGORITHM (LGA), with a maximum of 25000000 energy evaluations.

Final-Value: -11.706


	FINAL GENETIC ALGORITHM DOCKED STATE
	_______________________________________________


Detailed state:  trans 28.801 40.384 -1.741 quatxyzw 0.091902 0.703308 -0.589088 -0.387153 center 8.781 34.984 -0.736 ntor 12 -144.8545 101.2203 78.5015 116.6855 96.9982 152.2238 65.1705 -178.9053 30.4429 -29.0652 4.0067 40.2685
State:	 28.801  40.384  -1.741   0.100  0.763 -0.639 -134.445   -144.85  101.22   78.50  116.69   97.00  152.22   65.17 -178.91   30.44  -29.07    4.01   40.27

DOCKED: MODEL       58
DOCKED: USER    Run = 58
DOCKED: USER    DPF = D:/Protein_go_brrr/autodock/final/2DN3/heme_Co/dock.dpf
DOCKED: USER  
DOCKED: USER    Estimated Free Energy of Binding    =   -6.55 kcal/mol  [=(1)+(2)+(3)-(4)]
DOCKED: USER    Estimated Inhibition Constant, Ki   =   15.81 uM (micromolar)  [Temperature = 298.15 K]
DOCKED: USER    
DOCKED: USER    (1) Final Intermolecular Energy     =  -10.13 kcal/mol
DOCKED: USER        vdW + Hbond + desolv Energy     =   -7.29 kcal/mol
DOCKED: USER        Electrostatic Energy            =   -2.84 kcal/mol
DOCKED: USER    (2) Final Total Internal Energy     =   -1.58 kcal/mol
DOCKED: USER    (3) Torsional Free Energy           =   +3.58 kcal/mol
DOCKED: USER    (4) Unbound System's Energy  [=(2)] =   -1.58 kcal/mol
DOCKED: USER    
DOCKED: USER    
DOCKED: USER    NEWDPF move heme_Co_opt.pdbqt
DOCKED: USER    NEWDPF about 8.781000 34.984000 -0.736000
DOCKED: USER    NEWDPF tran0 28.801453 40.384076 -1.740959
DOCKED: USER    NEWDPF quaternion0 0.091902 0.703308 -0.589088 -0.387153
DOCKED: USER    NEWDPF axisangle0 0.099675 0.762794 -0.638913 -134.445112
DOCKED: USER    NEWDPF quat0 0.099675 0.762794 -0.638913 -134.445112
DOCKED: USER    NEWDPF dihe0 -144.85 101.22 78.50 116.69 97.00 152.22 65.17 -178.91 30.44 -29.07 4.01 40.27 
DOCKED: USER  keepresnum = 1 
DOCKED: USER  
DOCKED: REMARK  12 active torsions:
DOCKED: REMARK  status: ('A' for Active; 'I' for Inactive)
DOCKED: REMARK    1  A    between atoms: C_6  and  C_10 
DOCKED: REMARK    2  A    between atoms: C_10  and  C_11 
DOCKED: REMARK    3  A    between atoms: C_11  and  C_12 
DOCKED: REMARK    4  A    between atoms: C_12  and  O_14 
DOCKED: REMARK    5  A    between atoms: C_17  and  C_20 
DOCKED: REMARK    6  A    between atoms: C_24  and  C_27 
DOCKED: REMARK    7  A    between atoms: C_31  and  C_34 
DOCKED: REMARK    8  A    between atoms: C_34  and  C_35 
DOCKED: REMARK    9  A    between atoms: C_35  and  C_36 
DOCKED: REMARK   10  A    between atoms: C_36  and  O_38 
DOCKED: REMARK   11  A    between atoms: FE_43  and  C_44 
DOCKED: REMARK   12  A    between atoms: C_44  and  O_45 
DOCKED: USER                              x       y       z     vdW  Elec       q    Type
DOCKED: USER                           _______ _______ _______ _____ _____    ______ ____
DOCKED: ROOT
DOCKED: ATOM      1  C   UNL d   1      30.045  41.926  -0.850 -0.04 +0.02    +0.064 A 
DOCKED: ATOM      2  C   UNL d   1      29.257  37.385   0.319 -0.11 +0.01    +0.064 C 
DOCKED: ATOM      3  C   UNL d   1      25.975  37.025  -3.134 -0.23 +0.00    +0.064 A 
DOCKED: ATOM      4  C   UNL d   1      27.038  41.541  -4.596 -0.13 +0.01    +0.064 A 
DOCKED: ATOM      5  C   UNL d   1      30.045  40.722  -0.254 -0.05 +0.02    +0.066 A 
DOCKED: ATOM      6  C   UNL d   1      30.942  40.402   0.784 -0.05 -0.01    -0.021 A 
DOCKED: ATOM      7  C   UNL d   1      30.725  39.077   1.104 -0.07 -0.00    -0.025 A 
DOCKED: ATOM      8  C   UNL d   1      29.694  38.649   0.260 -0.08 +0.01    +0.066 A 
DOCKED: ATOM      9  C   UNL d   1      31.452  38.230   2.160 -0.10 +0.01    +0.051 C 
DOCKED: ATOM     10  C   UNL d   1      28.184  36.862  -0.490 -0.14 +0.01    +0.066 A 
DOCKED: ATOM     11  C   UNL d   1      27.587  35.588  -0.378 -0.17 -0.00    -0.021 A 
DOCKED: ATOM     12  C   UNL d   1      26.630  35.511  -1.394 -0.21 +0.00    +0.000 A 
DOCKED: ATOM     13  C   UNL d   1      26.706  36.745  -2.041 -0.14 +0.01    +0.070 A 
DOCKED: ATOM     14  C   UNL d   1      27.859  34.566   0.696 -0.20 +0.02    +0.052 C 
DOCKED: ATOM     15  C   UNL d   1      25.966  38.221  -3.954 -0.20 +0.01    +0.066 A 
DOCKED: ATOM     16  C   UNL d   1      25.293  38.391  -5.155 -0.22 -0.00    -0.021 A 
DOCKED: ATOM     17  C   UNL d   1      25.598  39.691  -5.582 -0.19 +0.00    +0.000 A 
DOCKED: ATOM     18  C   UNL d   1      26.423  40.220  -4.595 -0.19 +0.01    +0.070 A 
DOCKED: ATOM     19  C   UNL d   1      24.421  37.352  -5.826 -0.20 +0.00    +0.052 C 
DOCKED: ATOM     20  C   UNL d   1      27.911  42.045  -3.692 -0.10 +0.01    +0.066 A 
DOCKED: ATOM     21  C   UNL d   1      28.463  43.318  -3.820 -0.04 -0.00    -0.025 A 
DOCKED: ATOM     22  C   UNL d   1      29.312  43.468  -2.739 -0.03 -0.01    -0.021 A 
DOCKED: ATOM     23  C   UNL d   1      29.245  42.264  -2.005 -0.05 +0.02    +0.066 A 
DOCKED: ATOM     24  C   UNL d   1      28.209  44.335  -4.930 -0.02 +0.01    +0.051 C 
DOCKED: ATOM     25  N   UNL d   1      29.249  39.650  -0.587 -0.06 -0.04    -0.248 N 
DOCKED: ATOM     26  N   UNL d   1      27.607  37.581  -1.458 -0.11 -0.03    -0.248 N 
DOCKED: ATOM     27  N   UNL d   1      26.645  39.306  -3.656 -0.15 -0.03    -0.248 N 
DOCKED: ATOM     28  N   UNL d   1      28.400  41.400  -2.580 -0.07 -0.05    -0.248 N 
DOCKED: ATOM     29 FE   UNL d   1      27.870  39.471  -2.213 -0.04 +0.00    +0.000 Fe
DOCKED: ENDROOT
DOCKED: BRANCH   6  30
DOCKED: ATOM     30  C   UNL d   1      32.012  41.315   1.375 -0.11 +0.02    +0.052 C 
DOCKED: BRANCH  30  31
DOCKED: ATOM     31  C   UNL d   1      31.435  42.146   2.520 -0.23 +0.06    +0.115 C 
DOCKED: BRANCH  31  32
DOCKED: ATOM     32  C   UNL d   1      32.142  43.475   2.682 -0.30 +0.15    +0.139 C 
DOCKED: ATOM     33  O   UNL d   1      33.321  43.492   3.002 -0.57 -1.03    -0.650 OA
DOCKED: BRANCH  32  34
DOCKED: ATOM     34  O   UNL d   1      31.522  44.652   2.437 -0.06 -0.86    -0.776 OA
DOCKED: ATOM     35  H   UNL d   1      31.970  45.445   2.110 -0.20 +0.26    +0.167 HD
DOCKED: ENDBRANCH  32  34
DOCKED: ENDBRANCH  31  32
DOCKED: ENDBRANCH  30  31
DOCKED: ENDBRANCH   6  30
DOCKED: BRANCH  29  36
DOCKED: ATOM     36  C   UNL d   1      29.486  38.785  -3.360 -0.04 +0.03    +0.190 C 
DOCKED: BRANCH  36  37
DOCKED: ATOM     37  O   UNL d   1      30.862  38.541  -3.312 -0.00 -0.06    -0.399 OA
DOCKED: ATOM     38  H   UNL d   1      31.171  38.978  -2.470 +0.01 +0.04    +0.209 HD
DOCKED: ENDBRANCH  36  37
DOCKED: ENDBRANCH  29  36
DOCKED: BRANCH  22  39
DOCKED: ATOM     39  C   UNL d   1      30.186  44.678  -2.468 -0.03 +0.02    +0.052 C 
DOCKED: BRANCH  39  40
DOCKED: ATOM     40  C   UNL d   1      30.228  44.991  -0.963 -0.07 +0.06    +0.115 C 
DOCKED: BRANCH  40  41
DOCKED: ATOM     41  C   UNL d   1      31.556  45.529  -0.473 -0.12 +0.15    +0.139 C 
DOCKED: ATOM     42  O   UNL d   1      32.593  45.042  -0.900 -0.23 -0.99    -0.650 OA
DOCKED: BRANCH  41  43
DOCKED: ATOM     43  O   UNL d   1      31.628  46.593   0.357 -0.44 -0.84    -0.776 OA
DOCKED: ATOM     44  H   UNL d   1      31.550  46.509   1.317 -0.44 +0.16    +0.167 HD
DOCKED: ENDBRANCH  41  43
DOCKED: ENDBRANCH  40  41
DOCKED: ENDBRANCH  39  40
DOCKED: ENDBRANCH  22  39
DOCKED: BRANCH  12  45
DOCKED: ATOM     45  C   UNL d   1      25.646  34.428  -1.815 -0.29 -0.00    +0.004 C 
DOCKED: ATOM     46  C   UNL d   1      24.323  34.366  -1.693 -0.45 -0.00    +0.012 C 
DOCKED: ENDBRANCH  12  45
DOCKED: BRANCH  17  47
DOCKED: ATOM     47  C   UNL d   1      25.208  40.399  -6.837 -0.14 +0.00    +0.004 C 
DOCKED: ATOM     48  C   UNL d   1      23.986  40.892  -7.056 -0.17 +0.00    +0.012 C 
DOCKED: ENDBRANCH  17  47
DOCKED: TORSDOF 12
DOCKED: TER
DOCKED: ENDMDL
________________________________________________________________________________


	BEGINNING GENETIC ALGORITHM DOCKING 59 of 100
Run: 59 Seed: 653534989 582710916 [ Run 59 of 100 GA/GALS ]
Beginning LAMARCKIAN GENETIC ALGORITHM (LGA), with a maximum of 25000000 energy evaluations.

Final-Value: -11.015


	FINAL GENETIC ALGORITHM DOCKED STATE
	_______________________________________________


Detailed state:  trans 43.132 16.630 16.877 quatxyzw -0.096939 0.619434 -0.655664 -0.420723 center 8.781 34.984 -0.736 ntor 12 64.3849 91.6938 144.2392 112.8372 144.4179 98.4418 -175.1717 -64.2959 -45.7751 150.1670 160.3519 163.9749
State:	 43.132  16.630  16.877  -0.107  0.683 -0.723 -130.239     64.38   91.69  144.24  112.84  144.42   98.44 -175.17  -64.30  -45.78  150.17  160.35  163.97

DOCKED: MODEL       59
DOCKED: USER    Run = 59
DOCKED: USER    DPF = D:/Protein_go_brrr/autodock/final/2DN3/heme_Co/dock.dpf
DOCKED: USER  
DOCKED: USER    Estimated Free Energy of Binding    =   -5.23 kcal/mol  [=(1)+(2)+(3)-(4)]
DOCKED: USER    Estimated Inhibition Constant, Ki   =  147.32 uM (micromolar)  [Temperature = 298.15 K]
DOCKED: USER    
DOCKED: USER    (1) Final Intermolecular Energy     =   -8.81 kcal/mol
DOCKED: USER        vdW + Hbond + desolv Energy     =   -6.00 kcal/mol
DOCKED: USER        Electrostatic Energy            =   -2.81 kcal/mol
DOCKED: USER    (2) Final Total Internal Energy     =   -2.21 kcal/mol
DOCKED: USER    (3) Torsional Free Energy           =   +3.58 kcal/mol
DOCKED: USER    (4) Unbound System's Energy  [=(2)] =   -2.21 kcal/mol
DOCKED: USER    
DOCKED: USER    
DOCKED: USER    NEWDPF move heme_Co_opt.pdbqt
DOCKED: USER    NEWDPF about 8.781000 34.984000 -0.736000
DOCKED: USER    NEWDPF tran0 43.131748 16.630151 16.877445
DOCKED: USER    NEWDPF quaternion0 -0.096939 0.619434 -0.655664 -0.420723
DOCKED: USER    NEWDPF axisangle0 -0.106857 0.682806 -0.722743 -130.239460
DOCKED: USER    NEWDPF quat0 -0.106857 0.682806 -0.722743 -130.239460
DOCKED: USER    NEWDPF dihe0 64.38 91.69 144.24 112.84 144.42 98.44 -175.17 -64.30 -45.78 150.17 160.35 163.97 
DOCKED: USER  keepresnum = 1 
DOCKED: USER  
DOCKED: REMARK  12 active torsions:
DOCKED: REMARK  status: ('A' for Active; 'I' for Inactive)
DOCKED: REMARK    1  A    between atoms: C_6  and  C_10 
DOCKED: REMARK    2  A    between atoms: C_10  and  C_11 
DOCKED: REMARK    3  A    between atoms: C_11  and  C_12 
DOCKED: REMARK    4  A    between atoms: C_12  and  O_14 
DOCKED: REMARK    5  A    between atoms: C_17  and  C_20 
DOCKED: REMARK    6  A    between atoms: C_24  and  C_27 
DOCKED: REMARK    7  A    between atoms: C_31  and  C_34 
DOCKED: REMARK    8  A    between atoms: C_34  and  C_35 
DOCKED: REMARK    9  A    between atoms: C_35  and  C_36 
DOCKED: REMARK   10  A    between atoms: C_36  and  O_38 
DOCKED: REMARK   11  A    between atoms: FE_43  and  C_44 
DOCKED: REMARK   12  A    between atoms: C_44  and  O_45 
DOCKED: USER                              x       y       z     vdW  Elec       q    Type
DOCKED: USER                           _______ _______ _______ _____ _____    ______ ____
DOCKED: ROOT
DOCKED: ATOM      1  C   UNL d   1      44.010  18.612  17.012 -0.24 +0.02    +0.064 A 
DOCKED: ATOM      2  C   UNL d   1      44.493  14.714  19.692 -0.17 +0.01    +0.064 C 
DOCKED: ATOM      3  C   UNL d   1      41.149  12.479  17.113 -0.08 +0.01    +0.064 A 
DOCKED: ATOM      4  C   UNL d   1      40.914  16.310  14.124 -0.17 +0.00    +0.064 A 
DOCKED: ATOM      5  C   UNL d   1      44.361  17.724  17.956 -0.23 +0.02    +0.066 A 
DOCKED: ATOM      6  C   UNL d   1      45.389  17.986  18.883 -0.21 -0.01    -0.021 A 
DOCKED: ATOM      7  C   UNL d   1      45.541  16.843  19.644 -0.18 -0.01    -0.025 A 
DOCKED: ATOM      8  C   UNL d   1      44.589  15.939  19.160 -0.19 +0.02    +0.066 A 
DOCKED: ATOM      9  C   UNL d   1      46.539  16.596  20.785 -0.11 +0.01    +0.051 C 
DOCKED: ATOM     10  C   UNL d   1      43.528  13.727  19.278 -0.12 +0.01    +0.066 A 
DOCKED: ATOM     11  C   UNL d   1      43.284  12.477  19.888 -0.09 -0.00    -0.021 A 
DOCKED: ATOM     12  C   UNL d   1      42.302  11.848  19.118 -0.08 +0.00    +0.000 A 
DOCKED: ATOM     13  C   UNL d   1      42.011  12.763  18.106 -0.09 +0.01    +0.070 A 
DOCKED: ATOM     14  C   UNL d   1      43.890  11.979  21.175 -0.05 +0.00    +0.052 C 
DOCKED: ATOM     15  C   UNL d   1      40.773  13.281  15.965 -0.11 +0.01    +0.066 A 
DOCKED: ATOM     16  C   UNL d   1      39.987  12.872  14.897 -0.08 -0.00    -0.021 A 
DOCKED: ATOM     17  C   UNL d   1      39.918  13.972  14.031 -0.12 +0.00    +0.000 A 
DOCKED: ATOM     18  C   UNL d   1      40.657  14.975  14.650 -0.17 +0.01    +0.070 A 
DOCKED: ATOM     19  C   UNL d   1      39.357  11.505  14.746 -0.03 +0.01    +0.052 C 
DOCKED: ATOM     20  C   UNL d   1      41.699  17.272  14.665 -0.26 +0.01    +0.066 A 
DOCKED: ATOM     21  C   UNL d   1      41.898  18.505  14.047 -0.32 -0.00    -0.025 A 
DOCKED: ATOM     22  C   UNL d   1      42.763  19.200  14.871 -0.30 -0.00    -0.021 A 
DOCKED: ATOM     23  C   UNL d   1      43.061  18.346  15.954 -0.23 +0.02    +0.066 A 
DOCKED: ATOM     24  C   UNL d   1      41.308  18.990  12.725 -0.37 +0.01    +0.051 C 
DOCKED: ATOM     25  N   UNL d   1      43.840  16.460  18.118 +0.07 -0.07    -0.248 N 
DOCKED: ATOM     26  N   UNL d   1      42.713  13.920  18.236 -0.00 -0.05    -0.248 N 
DOCKED: ATOM     27  N   UNL d   1      41.176  14.519  15.784 -0.10 -0.04    -0.248 N 
DOCKED: ATOM     28  N   UNL d   1      42.421  17.177  15.832 -0.06 -0.06    -0.248 N 
DOCKED: ATOM     29 FE   UNL d   1      42.429  15.435  16.880 -0.04 +0.00    +0.000 Fe
DOCKED: ENDROOT
DOCKED: BRANCH   6  30
DOCKED: ATOM     30  C   UNL d   1      46.235  19.252  18.969 -0.18 +0.02    +0.052 C 
DOCKED: BRANCH  30  31
DOCKED: ATOM     31  C   UNL d   1      47.701  18.940  18.666 -0.06 +0.06    +0.115 C 
DOCKED: BRANCH  31  32
DOCKED: ATOM     32  C   UNL d   1      48.304  19.911  17.674 +0.12 +0.18    +0.139 C 
DOCKED: ATOM     33  O   UNL d   1      48.261  21.110  17.905 -0.22 -1.05    -0.650 OA
DOCKED: BRANCH  32  34
DOCKED: ATOM     34  O   UNL d   1      48.937  19.493  16.553 -0.43 -1.11    -0.776 OA
DOCKED: ATOM     35  H   UNL d   1      48.519  18.966  15.858 +0.01 +0.20    +0.167 HD
DOCKED: ENDBRANCH  32  34
DOCKED: ENDBRANCH  31  32
DOCKED: ENDBRANCH  30  31
DOCKED: ENDBRANCH   6  30
DOCKED: BRANCH  29  36
DOCKED: ATOM     36  C   UNL d   1      44.070  14.748  15.771 -0.05 +0.04    +0.190 C 
DOCKED: BRANCH  36  37
DOCKED: ATOM     37  O   UNL d   1      45.187  15.181  15.050 -0.00 -0.09    -0.399 OA
DOCKED: ATOM     38  H   UNL d   1      44.980  16.124  14.799 +0.03 +0.05    +0.209 HD
DOCKED: ENDBRANCH  36  37
DOCKED: ENDBRANCH  29  36
DOCKED: BRANCH  22  39
DOCKED: ATOM     39  C   UNL d   1      43.320  20.584  14.595 -0.38 +0.02    +0.052 C 
DOCKED: BRANCH  39  40
DOCKED: ATOM     40  C   UNL d   1      44.695  20.489  13.912 -0.25 +0.08    +0.115 C 
DOCKED: BRANCH  40  41
DOCKED: ATOM     41  C   UNL d   1      45.547  19.329  14.382 -0.17 +0.11    +0.139 C 
DOCKED: ATOM     42  O   UNL d   1      45.264  18.194  14.023 +0.05 -0.30    -0.650 OA
DOCKED: BRANCH  41  43
DOCKED: ATOM     43  O   UNL d   1      46.665  19.520  15.117 +0.04 -1.14    -0.776 OA
DOCKED: ATOM     44  H   UNL d   1      46.984  18.869  15.755 +0.03 +0.18    +0.167 HD
DOCKED: ENDBRANCH  41  43
DOCKED: ENDBRANCH  40  41
DOCKED: ENDBRANCH  39  40
DOCKED: ENDBRANCH  22  39
DOCKED: BRANCH  12  45
DOCKED: ATOM     45  C   UNL d   1      41.594  10.505  19.233 -0.04 +0.00    +0.004 C 
DOCKED: ATOM     46  C   UNL d   1      40.365  10.205  19.643 -0.04 +0.00    +0.012 C 
DOCKED: ENDBRANCH  12  45
DOCKED: BRANCH  17  47
DOCKED: ATOM     47  C   UNL d   1      39.263  14.095  12.695 -0.12 +0.00    +0.004 C 
DOCKED: ATOM     48  C   UNL d   1      38.331  15.008  12.412 -0.21 +0.00    +0.012 C 
DOCKED: ENDBRANCH  17  47
DOCKED: TORSDOF 12
DOCKED: TER
DOCKED: ENDMDL
________________________________________________________________________________


	BEGINNING GENETIC ALGORITHM DOCKING 60 of 100
Run: 60 Seed: 1652389766 1487270081 [ Run 60 of 100 GA/GALS ]
Beginning LAMARCKIAN GENETIC ALGORITHM (LGA), with a maximum of 25000000 energy evaluations.

Final-Value: -17.863


	FINAL GENETIC ALGORITHM DOCKED STATE
	_______________________________________________


Detailed state:  trans 8.897 35.203 -0.929 quatxyzw -0.020998 -0.067039 -0.010557 -0.997474 center 8.781 34.984 -0.736 ntor 12 73.9716 124.1607 161.8491 92.3027 -50.1363 -10.6580 -141.6767 -82.1188 -16.6965 -58.2920 179.2378 41.2452
State:	  8.897  35.203  -0.929  -0.296 -0.944 -0.149 -8.147     73.97  124.16  161.85   92.30  -50.14  -10.66 -141.68  -82.12  -16.70  -58.29  179.24   41.25

DOCKED: MODEL       60
DOCKED: USER    Run = 60
DOCKED: USER    DPF = D:/Protein_go_brrr/autodock/final/2DN3/heme_Co/dock.dpf
DOCKED: USER  
DOCKED: USER    Estimated Free Energy of Binding    =  -12.09 kcal/mol  [=(1)+(2)+(3)-(4)]
DOCKED: USER    Estimated Inhibition Constant, Ki   =    1.39 nM (nanomolar)  [Temperature = 298.15 K]
DOCKED: USER    
DOCKED: USER    (1) Final Intermolecular Energy     =  -15.66 kcal/mol
DOCKED: USER        vdW + Hbond + desolv Energy     =  -13.97 kcal/mol
DOCKED: USER        Electrostatic Energy            =   -1.69 kcal/mol
DOCKED: USER    (2) Final Total Internal Energy     =   -2.20 kcal/mol
DOCKED: USER    (3) Torsional Free Energy           =   +3.58 kcal/mol
DOCKED: USER    (4) Unbound System's Energy  [=(2)] =   -2.20 kcal/mol
DOCKED: USER    
DOCKED: USER    
DOCKED: USER    NEWDPF move heme_Co_opt.pdbqt
DOCKED: USER    NEWDPF about 8.781000 34.984000 -0.736000
DOCKED: USER    NEWDPF tran0 8.896572 35.203320 -0.928941
DOCKED: USER    NEWDPF quaternion0 -0.020998 -0.067039 -0.010557 -0.997474
DOCKED: USER    NEWDPF axisangle0 -0.295577 -0.943690 -0.148604 -8.147391
DOCKED: USER    NEWDPF quat0 -0.295577 -0.943690 -0.148604 -8.147391
DOCKED: USER    NEWDPF dihe0 73.97 124.16 161.85 92.30 -50.14 -10.66 -141.68 -82.12 -16.70 -58.29 179.24 41.25 
DOCKED: USER  keepresnum = 1 
DOCKED: USER  
DOCKED: REMARK  12 active torsions:
DOCKED: REMARK  status: ('A' for Active; 'I' for Inactive)
DOCKED: REMARK    1  A    between atoms: C_6  and  C_10 
DOCKED: REMARK    2  A    between atoms: C_10  and  C_11 
DOCKED: REMARK    3  A    between atoms: C_11  and  C_12 
DOCKED: REMARK    4  A    between atoms: C_12  and  O_14 
DOCKED: REMARK    5  A    between atoms: C_17  and  C_20 
DOCKED: REMARK    6  A    between atoms: C_24  and  C_27 
DOCKED: REMARK    7  A    between atoms: C_31  and  C_34 
DOCKED: REMARK    8  A    between atoms: C_34  and  C_35 
DOCKED: REMARK    9  A    between atoms: C_35  and  C_36 
DOCKED: REMARK   10  A    between atoms: C_36  and  O_38 
DOCKED: REMARK   11  A    between atoms: FE_43  and  C_44 
DOCKED: REMARK   12  A    between atoms: C_44  and  O_45 
DOCKED: USER                              x       y       z     vdW  Elec       q    Type
DOCKED: USER                           _______ _______ _______ _____ _____    ______ ____
DOCKED: ROOT
DOCKED: ATOM      1  C   UNL d   1       7.105  35.700  -2.050 -0.28 +0.01    +0.064 A 
DOCKED: ATOM      2  C   UNL d   1       7.791  33.182   1.924 -0.45 +0.01    +0.064 C 
DOCKED: ATOM      3  C   UNL d   1      12.522  33.641   1.443 -0.33 +0.00    +0.064 A 
DOCKED: ATOM      4  C   UNL d   1      11.837  36.540  -2.402 -0.40 +0.00    +0.064 A 
DOCKED: ATOM      5  C   UNL d   1       6.946  34.948  -0.949 -0.30 +0.01    +0.066 A 
DOCKED: ATOM      6  C   UNL d   1       5.672  34.646  -0.428 -0.30 -0.00    -0.021 A 
DOCKED: ATOM      7  C   UNL d   1       5.878  33.934   0.738 -0.34 -0.00    -0.025 A 
DOCKED: ATOM      8  C   UNL d   1       7.266  33.819   0.869 -0.33 +0.01    +0.066 A 
DOCKED: ATOM      9  C   UNL d   1       4.819  33.379   1.702 -0.38 +0.01    +0.051 C 
DOCKED: ATOM     10  C   UNL d   1       9.205  32.990   2.130 -0.37 +0.01    +0.066 A 
DOCKED: ATOM     11  C   UNL d   1       9.812  32.213   3.140 -0.45 -0.00    -0.021 A 
DOCKED: ATOM     12  C   UNL d   1      11.192  32.361   2.974 -0.43 +0.00    +0.000 A 
DOCKED: ATOM     13  C   UNL d   1      11.324  33.205   1.871 -0.36 +0.00    +0.070 A 
DOCKED: ATOM     14  C   UNL d   1       9.104  31.320   4.126 -0.59 +0.00    +0.052 C 
DOCKED: ATOM     15  C   UNL d   1      12.837  34.552   0.360 -0.35 +0.01    +0.066 A 
DOCKED: ATOM     16  C   UNL d   1      14.087  35.075   0.062 -0.42 -0.00    -0.021 A 
DOCKED: ATOM     17  C   UNL d   1      13.894  35.914  -1.045 -0.43 +0.00    +0.000 A 
DOCKED: ATOM     18  C   UNL d   1      12.539  35.822  -1.346 -0.37 +0.01    +0.070 A 
DOCKED: ATOM     19  C   UNL d   1      15.366  34.773   0.811 -0.59 +0.00    +0.052 C 
DOCKED: ATOM     20  C   UNL d   1      10.507  36.533  -2.660 -0.38 +0.00    +0.066 A 
DOCKED: ATOM     21  C   UNL d   1       9.944  37.294  -3.682 -0.39 -0.00    -0.025 A 
DOCKED: ATOM     22  C   UNL d   1       8.584  37.050  -3.623 -0.33 -0.00    -0.021 A 
DOCKED: ATOM     23  C   UNL d   1       8.382  36.154  -2.552 -0.34 +0.01    +0.066 A 
DOCKED: ATOM     24  C   UNL d   1      10.663  38.225  -4.655 -0.45 -0.01    +0.051 C 
DOCKED: ATOM     25  N   UNL d   1       7.952  34.432  -0.165 +0.03 -0.05    -0.248 N 
DOCKED: ATOM     26  N   UNL d   1      10.123  33.540   1.328 -0.19 -0.03    -0.248 N 
DOCKED: ATOM     27  N   UNL d   1      11.936  35.026  -0.471 -0.16 -0.03    -0.248 N 
DOCKED: ATOM     28  N   UNL d   1       9.543  35.841  -1.965 -0.23 -0.04    -0.248 N 
DOCKED: ATOM     29 FE   UNL d   1      10.062  34.748  -0.330 -0.06 +0.00    +0.000 Fe
DOCKED: ENDROOT
DOCKED: BRANCH   6  30
DOCKED: ATOM     30  C   UNL d   1       4.329  35.098  -0.990 -0.24 +0.01    +0.052 C 
DOCKED: BRANCH  30  31
DOCKED: ATOM     31  C   UNL d   1       3.834  36.347  -0.261 -0.03 +0.07    +0.115 C 
DOCKED: BRANCH  31  32
DOCKED: ATOM     32  C   UNL d   1       2.771  37.089  -1.043 -0.08 +0.15    +0.139 C 
DOCKED: ATOM     33  O   UNL d   1       1.596  36.790  -0.892 -0.33 -0.95    -0.650 OA
DOCKED: BRANCH  32  34
DOCKED: ATOM     34  O   UNL d   1       3.075  38.112  -1.875 -0.06 -0.77    -0.776 OA
DOCKED: ATOM     35  H   UNL d   1       3.544  38.009  -2.715 +0.03 +0.10    +0.167 HD
DOCKED: ENDBRANCH  32  34
DOCKED: ENDBRANCH  31  32
DOCKED: ENDBRANCH  30  31
DOCKED: ENDBRANCH   6  30
DOCKED: BRANCH  29  36
DOCKED: ATOM     36  C   UNL d   1       9.793  36.422   0.903 -0.24 +0.04    +0.190 C 
DOCKED: BRANCH  36  37
DOCKED: ATOM     37  O   UNL d   1      10.421  37.590   1.349 -0.25 -0.05    -0.399 OA
DOCKED: ATOM     38  H   UNL d   1      11.226  37.687   0.766 +0.13 +0.02    +0.209 HD
DOCKED: ENDBRANCH  36  37
DOCKED: ENDBRANCH  29  36
DOCKED: BRANCH  22  39
DOCKED: ATOM     39  C   UNL d   1       7.535  37.696  -4.509 -0.27 +0.00    +0.052 C 
DOCKED: BRANCH  39  40
DOCKED: ATOM     40  C   UNL d   1       6.431  36.687  -4.866 -0.21 +0.01    +0.115 C 
DOCKED: BRANCH  40  41
DOCKED: ATOM     41  C   UNL d   1       5.060  37.045  -4.332 -0.12 +0.03    +0.139 C 
DOCKED: ATOM     42  O   UNL d   1       4.573  38.131  -4.615 +0.03 -0.14    -0.650 OA
DOCKED: BRANCH  41  43
DOCKED: ATOM     43  O   UNL d   1       4.321  36.164  -3.623 +0.04 -0.19    -0.776 OA
DOCKED: ATOM     44  H   UNL d   1       3.527  36.424  -3.138 +0.04 +0.06    +0.167 HD
DOCKED: ENDBRANCH  41  43
DOCKED: ENDBRANCH  40  41
DOCKED: ENDBRANCH  39  40
DOCKED: ENDBRANCH  22  39
DOCKED: BRANCH  12  45
DOCKED: ATOM     45  C   UNL d   1      12.395  31.791   3.714 -0.55 +0.00    +0.004 C 
DOCKED: ATOM     46  C   UNL d   1      13.021  30.625   3.580 -0.62 +0.00    +0.012 C 
DOCKED: ENDBRANCH  12  45
DOCKED: BRANCH  17  47
DOCKED: ATOM     47  C   UNL d   1      14.870  36.790  -1.760 -0.60 +0.00    +0.004 C 
DOCKED: ATOM     48  C   UNL d   1      15.363  37.918  -1.244 -0.64 +0.00    +0.012 C 
DOCKED: ENDBRANCH  17  47
DOCKED: TORSDOF 12
DOCKED: TER
DOCKED: ENDMDL
________________________________________________________________________________


	BEGINNING GENETIC ALGORITHM DOCKING 61 of 100
Run: 61 Seed: 529090657 72621912 [ Run 61 of 100 GA/GALS ]
Beginning LAMARCKIAN GENETIC ALGORITHM (LGA), with a maximum of 25000000 energy evaluations.

Final-Value: -10.836


	FINAL GENETIC ALGORITHM DOCKED STATE
	_______________________________________________


Detailed state:  trans 12.256 40.049 25.310 quatxyzw 0.261231 -0.619678 -0.621684 0.401579 center 8.781 34.984 -0.736 ntor 12 70.4146 95.6631 -71.5111 -106.3316 -72.5006 161.9577 -20.2725 72.7438 -76.1331 -41.9824 6.2911 -134.5190
State:	 12.256  40.049  25.310   0.285 -0.677 -0.679 132.646     70.41   95.66  -71.51 -106.33  -72.50  161.96  -20.27   72.74  -76.13  -41.98    6.29 -134.52

DOCKED: MODEL       61
DOCKED: USER    Run = 61
DOCKED: USER    DPF = D:/Protein_go_brrr/autodock/final/2DN3/heme_Co/dock.dpf
DOCKED: USER  
DOCKED: USER    Estimated Free Energy of Binding    =   -6.66 kcal/mol  [=(1)+(2)+(3)-(4)]
DOCKED: USER    Estimated Inhibition Constant, Ki   =   13.11 uM (micromolar)  [Temperature = 298.15 K]
DOCKED: USER    
DOCKED: USER    (1) Final Intermolecular Energy     =  -10.24 kcal/mol
DOCKED: USER        vdW + Hbond + desolv Energy     =   -9.28 kcal/mol
DOCKED: USER        Electrostatic Energy            =   -0.96 kcal/mol
DOCKED: USER    (2) Final Total Internal Energy     =   -0.60 kcal/mol
DOCKED: USER    (3) Torsional Free Energy           =   +3.58 kcal/mol
DOCKED: USER    (4) Unbound System's Energy  [=(2)] =   -0.60 kcal/mol
DOCKED: USER    
DOCKED: USER    
DOCKED: USER    NEWDPF move heme_Co_opt.pdbqt
DOCKED: USER    NEWDPF about 8.781000 34.984000 -0.736000
DOCKED: USER    NEWDPF tran0 12.256026 40.048987 25.309790
DOCKED: USER    NEWDPF quaternion0 0.261231 -0.619678 -0.621684 0.401579
DOCKED: USER    NEWDPF axisangle0 0.285242 -0.676634 -0.678825 132.646112
DOCKED: USER    NEWDPF quat0 0.285242 -0.676634 -0.678825 132.646112
DOCKED: USER    NEWDPF dihe0 70.41 95.66 -71.51 -106.33 -72.50 161.96 -20.27 72.74 -76.13 -41.98 6.29 -134.52 
DOCKED: USER  keepresnum = 1 
DOCKED: USER  
DOCKED: REMARK  12 active torsions:
DOCKED: REMARK  status: ('A' for Active; 'I' for Inactive)
DOCKED: REMARK    1  A    between atoms: C_6  and  C_10 
DOCKED: REMARK    2  A    between atoms: C_10  and  C_11 
DOCKED: REMARK    3  A    between atoms: C_11  and  C_12 
DOCKED: REMARK    4  A    between atoms: C_12  and  O_14 
DOCKED: REMARK    5  A    between atoms: C_17  and  C_20 
DOCKED: REMARK    6  A    between atoms: C_24  and  C_27 
DOCKED: REMARK    7  A    between atoms: C_31  and  C_34 
DOCKED: REMARK    8  A    between atoms: C_34  and  C_35 
DOCKED: REMARK    9  A    between atoms: C_35  and  C_36 
DOCKED: REMARK   10  A    between atoms: C_36  and  O_38 
DOCKED: REMARK   11  A    between atoms: FE_43  and  C_44 
DOCKED: REMARK   12  A    between atoms: C_44  and  O_45 
DOCKED: USER                              x       y       z     vdW  Elec       q    Type
DOCKED: USER                           _______ _______ _______ _____ _____    ______ ____
DOCKED: ROOT
DOCKED: ATOM      1  C   UNL d   1      12.745  38.921  27.100 -0.20 -0.02    +0.064 A 
DOCKED: ATOM      2  C   UNL d   1      14.899  42.563  24.930 -0.22 -0.02    +0.064 C 
DOCKED: ATOM      3  C   UNL d   1      11.728  42.361  21.361 -0.16 -0.02    +0.064 A 
DOCKED: ATOM      4  C   UNL d   1       9.284  38.896  23.747 -0.28 -0.02    +0.064 A 
DOCKED: ATOM      5  C   UNL d   1      13.588  39.907  26.751 -0.18 -0.02    +0.066 A 
DOCKED: ATOM      6  C   UNL d   1      14.637  40.327  27.593 -0.13 +0.00    -0.021 A 
DOCKED: ATOM      7  C   UNL d   1      15.244  41.399  26.969 -0.12 +0.00    -0.025 A 
DOCKED: ATOM      8  C   UNL d   1      14.551  41.577  25.766 -0.17 -0.02    +0.066 A 
DOCKED: ATOM      9  C   UNL d   1      16.431  42.234  27.473 -0.10 -0.01    +0.051 C 
DOCKED: ATOM     10  C   UNL d   1      14.262  42.806  23.660 -0.24 -0.02    +0.066 A 
DOCKED: ATOM     11  C   UNL d   1      14.669  43.733  22.675 -0.31 +0.00    -0.021 A 
DOCKED: ATOM     12  C   UNL d   1      13.730  43.650  21.644 -0.31 -0.00    +0.000 A 
DOCKED: ATOM     13  C   UNL d   1      12.829  42.673  22.068 -0.25 -0.02    +0.070 A 
DOCKED: ATOM     14  C   UNL d   1      15.928  44.562  22.697 -0.30 -0.01    +0.052 C 
DOCKED: ATOM     15  C   UNL d   1      10.670  41.420  21.674 -0.23 -0.02    +0.066 A 
DOCKED: ATOM     16  C   UNL d   1       9.486  41.250  20.971 -0.27 +0.01    -0.021 A 
DOCKED: ATOM     17  C   UNL d   1       8.777  40.254  21.657 -0.30 -0.00    +0.000 A 
DOCKED: ATOM     18  C   UNL d   1       9.595  39.881  22.718 -0.26 -0.02    +0.070 A 
DOCKED: ATOM     19  C   UNL d   1       9.088  42.011  19.726 -0.33 -0.03    +0.052 C 
DOCKED: ATOM     20  C   UNL d   1      10.025  38.580  24.835 -0.25 -0.02    +0.066 A 
DOCKED: ATOM     21  C   UNL d   1       9.604  37.641  25.774 -0.25 +0.01    -0.025 A 
DOCKED: ATOM     22  C   UNL d   1      10.596  37.606  26.738 -0.24 +0.01    -0.021 A 
DOCKED: ATOM     23  C   UNL d   1      11.575  38.541  26.342 -0.25 -0.03    +0.066 A 
DOCKED: ATOM     24  C   UNL d   1       8.311  36.830  25.765 -0.18 -0.00    +0.051 C 
DOCKED: ATOM     25  N   UNL d   1      13.524  40.663  25.603 +0.01 +0.11    -0.248 N 
DOCKED: ATOM     26  N   UNL d   1      13.183  42.124  23.261 -0.12 +0.08    -0.248 N 
DOCKED: ATOM     27  N   UNL d   1      10.700  40.618  22.715 -0.18 +0.07    -0.248 N 
DOCKED: ATOM     28  N   UNL d   1      11.232  39.135  25.192 -0.17 +0.10    -0.248 N 
DOCKED: ATOM     29 FE   UNL d   1      12.027  40.636  24.074 -0.06 -0.00    +0.000 Fe
DOCKED: ENDROOT
DOCKED: BRANCH   6  30
DOCKED: ATOM     30  C   UNL d   1      14.976  39.767  28.970 -0.09 -0.01    +0.052 C 
DOCKED: BRANCH  30  31
DOCKED: ATOM     31  C   UNL d   1      15.978  38.620  28.852 -0.22 -0.01    +0.115 C 
DOCKED: BRANCH  31  32
DOCKED: ATOM     32  C   UNL d   1      17.388  39.045  29.203 -0.19 +0.00    +0.139 C 
DOCKED: ATOM     33  O   UNL d   1      18.335  38.490  28.666 -0.60 -0.18    -0.650 OA
DOCKED: BRANCH  32  34
DOCKED: ATOM     34  O   UNL d   1      17.638  40.061  30.062 +0.06 +0.01    -0.776 OA
DOCKED: ATOM     35  H   UNL d   1      17.426  40.040  31.005 +0.02 -0.00    +0.167 HD
DOCKED: ENDBRANCH  32  34
DOCKED: ENDBRANCH  31  32
DOCKED: ENDBRANCH  30  31
DOCKED: ENDBRANCH   6  30
DOCKED: BRANCH  29  36
DOCKED: ATOM     36  C   UNL d   1      10.998  42.062  25.215 -0.05 -0.04    +0.190 C 
DOCKED: BRANCH  36  37
DOCKED: ATOM     37  O   UNL d   1      11.111  42.878  26.346 -0.00 +0.05    -0.399 OA
DOCKED: ATOM     38  H   UNL d   1      11.865  42.487  26.869 +0.02 -0.03    +0.209 HD
DOCKED: ENDBRANCH  36  37
DOCKED: ENDBRANCH  29  36
DOCKED: BRANCH  22  39
DOCKED: ATOM     39  C   UNL d   1      10.566  36.765  28.000 -0.09 -0.03    +0.052 C 
DOCKED: BRANCH  39  40
DOCKED: ATOM     40  C   UNL d   1       9.126  36.611  28.516 -0.16 -0.01    +0.115 C 
DOCKED: BRANCH  40  41
DOCKED: ATOM     41  C   UNL d   1       8.738  35.191  28.873 -0.16 +0.05    +0.139 C 
DOCKED: ATOM     42  O   UNL d   1       7.575  34.838  28.741 -0.30 -0.39    -0.650 OA
DOCKED: BRANCH  41  43
DOCKED: ATOM     43  O   UNL d   1       9.659  34.277  29.250 -0.19 -0.51    -0.776 OA
DOCKED: ATOM     44  H   UNL d   1      10.349  33.959  28.654 -0.20 +0.03    +0.167 HD
DOCKED: ENDBRANCH  41  43
DOCKED: ENDBRANCH  40  41
DOCKED: ENDBRANCH  39  40
DOCKED: ENDBRANCH  22  39
DOCKED: BRANCH  12  45
DOCKED: ATOM     45  C   UNL d   1      13.590  44.364  20.306 -0.25 -0.00    +0.004 C 
DOCKED: ATOM     46  C   UNL d   1      12.659  45.206  19.867 -0.19 -0.00    +0.012 C 
DOCKED: ENDBRANCH  12  45
DOCKED: BRANCH  17  47
DOCKED: ATOM     47  C   UNL d   1       7.413  39.703  21.397 -0.37 -0.00    +0.004 C 
DOCKED: ATOM     48  C   UNL d   1       6.309  40.156  21.996 -0.29 -0.00    +0.012 C 
DOCKED: ENDBRANCH  17  47
DOCKED: TORSDOF 12
DOCKED: TER
DOCKED: ENDMDL
________________________________________________________________________________


	BEGINNING GENETIC ALGORITHM DOCKING 62 of 100
Run: 62 Seed: 1997377364 246440238 [ Run 62 of 100 GA/GALS ]
Beginning LAMARCKIAN GENETIC ALGORITHM (LGA), with a maximum of 25000000 energy evaluations.

Final-Value: -18.563


	FINAL GENETIC ALGORITHM DOCKED STATE
	_______________________________________________


Detailed state:  trans 41.001 29.066 16.273 quatxyzw 0.364501 -0.405739 -0.836857 0.046750 center 8.781 34.984 -0.736 ntor 12 -64.2377 107.0922 71.2450 -89.1530 -42.6017 3.0742 -99.4675 -131.2595 32.5374 38.6377 -35.7194 -7.3992
State:	 41.001  29.066  16.273   0.365 -0.406 -0.838 174.641    -64.24  107.09   71.24  -89.15  -42.60    3.07  -99.47 -131.26   32.54   38.64  -35.72   -7.40

DOCKED: MODEL       62
DOCKED: USER    Run = 62
DOCKED: USER    DPF = D:/Protein_go_brrr/autodock/final/2DN3/heme_Co/dock.dpf
DOCKED: USER  
DOCKED: USER    Estimated Free Energy of Binding    =  -14.39 kcal/mol  [=(1)+(2)+(3)-(4)]
DOCKED: USER    Estimated Inhibition Constant, Ki   =   28.15 pM (picomolar)  [Temperature = 298.15 K]
DOCKED: USER    
DOCKED: USER    (1) Final Intermolecular Energy     =  -17.97 kcal/mol
DOCKED: USER        vdW + Hbond + desolv Energy     =  -15.46 kcal/mol
DOCKED: USER        Electrostatic Energy            =   -2.51 kcal/mol
DOCKED: USER    (2) Final Total Internal Energy     =   -0.59 kcal/mol
DOCKED: USER    (3) Torsional Free Energy           =   +3.58 kcal/mol
DOCKED: USER    (4) Unbound System's Energy  [=(2)] =   -0.59 kcal/mol
DOCKED: USER    
DOCKED: USER    
DOCKED: USER    NEWDPF move heme_Co_opt.pdbqt
DOCKED: USER    NEWDPF about 8.781000 34.984000 -0.736000
DOCKED: USER    NEWDPF tran0 41.000704 29.066109 16.273358
DOCKED: USER    NEWDPF quaternion0 0.364501 -0.405739 -0.836857 0.046750
DOCKED: USER    NEWDPF axisangle0 0.364900 -0.406183 -0.837773 174.640929
DOCKED: USER    NEWDPF quat0 0.364900 -0.406183 -0.837773 174.640929
DOCKED: USER    NEWDPF dihe0 -64.24 107.09 71.24 -89.15 -42.60 3.07 -99.47 -131.26 32.54 38.64 -35.72 -7.40 
DOCKED: USER  keepresnum = 1 
DOCKED: USER  
DOCKED: REMARK  12 active torsions:
DOCKED: REMARK  status: ('A' for Active; 'I' for Inactive)
DOCKED: REMARK    1  A    between atoms: C_6  and  C_10 
DOCKED: REMARK    2  A    between atoms: C_10  and  C_11 
DOCKED: REMARK    3  A    between atoms: C_11  and  C_12 
DOCKED: REMARK    4  A    between atoms: C_12  and  O_14 
DOCKED: REMARK    5  A    between atoms: C_17  and  C_20 
DOCKED: REMARK    6  A    between atoms: C_24  and  C_27 
DOCKED: REMARK    7  A    between atoms: C_31  and  C_34 
DOCKED: REMARK    8  A    between atoms: C_34  and  C_35 
DOCKED: REMARK    9  A    between atoms: C_35  and  C_36 
DOCKED: REMARK   10  A    between atoms: C_36  and  O_38 
DOCKED: REMARK   11  A    between atoms: FE_43  and  C_44 
DOCKED: REMARK   12  A    between atoms: C_44  and  O_45 
DOCKED: USER                              x       y       z     vdW  Elec       q    Type
DOCKED: USER                           _______ _______ _______ _____ _____    ______ ____
DOCKED: ROOT
DOCKED: ATOM      1  C   UNL d   1      42.713  28.548  17.505 -0.15 +0.02    +0.064 A 
DOCKED: ATOM      2  C   UNL d   1      40.652  32.711  16.486 -0.48 +0.01    +0.064 C 
DOCKED: ATOM      3  C   UNL d   1      37.684  30.538  13.436 -0.36 +0.01    +0.064 A 
DOCKED: ATOM      4  C   UNL d   1      39.514  26.226  14.748 -0.41 +0.01    +0.064 A 
DOCKED: ATOM      5  C   UNL d   1      42.392  29.850  17.423 -0.27 +0.02    +0.066 A 
DOCKED: ATOM      6  C   UNL d   1      43.004  30.823  18.237 -0.36 -0.01    -0.021 A 
DOCKED: ATOM      7  C   UNL d   1      42.387  32.026  17.953 -0.45 -0.01    -0.025 A 
DOCKED: ATOM      8  C   UNL d   1      41.436  31.738  16.968 -0.40 +0.01    +0.066 A 
DOCKED: ATOM      9  C   UNL d   1      42.669  33.401  18.578 -0.39 +0.01    +0.051 C 
DOCKED: ATOM     10  C   UNL d   1      39.665  32.515  15.454 -0.39 +0.01    +0.066 A 
DOCKED: ATOM     11  C   UNL d   1      38.910  33.517  14.807 -0.42 -0.00    -0.021 A 
DOCKED: ATOM     12  C   UNL d   1      38.056  32.856  13.920 -0.40 +0.00    +0.000 A 
DOCKED: ATOM     13  C   UNL d   1      38.360  31.505  14.082 -0.37 +0.01    +0.070 A 
DOCKED: ATOM     14  C   UNL d   1      39.078  35.006  14.971 -0.55 +0.01    +0.052 C 
DOCKED: ATOM     15  C   UNL d   1      37.830  29.098  13.524 -0.38 +0.01    +0.066 A 
DOCKED: ATOM     16  C   UNL d   1      37.002  28.150  12.940 -0.48 -0.00    -0.021 A 
DOCKED: ATOM     17  C   UNL d   1      37.525  26.905  13.317 -0.46 +0.00    +0.000 A 
DOCKED: ATOM     18  C   UNL d   1      38.644  27.193  14.091 -0.37 +0.01    +0.070 A 
DOCKED: ATOM     19  C   UNL d   1      35.794  28.450  12.081 -0.66 +0.01    +0.052 C 
DOCKED: ATOM     20  C   UNL d   1      40.556  26.483  15.575 -0.38 +0.02    +0.066 A 
DOCKED: ATOM     21  C   UNL d   1      41.296  25.467  16.176 -0.38 -0.01    -0.025 A 
DOCKED: ATOM     22  C   UNL d   1      42.244  26.107  16.954 -0.36 -0.01    -0.021 A 
DOCKED: ATOM     23  C   UNL d   1      42.026  27.492  16.797 -0.31 +0.02    +0.066 A 
DOCKED: ATOM     24  C   UNL d   1      41.098  23.961  16.033 -0.54 +0.01    +0.051 C 
DOCKED: ATOM     25  N   UNL d   1      41.421  30.399  16.616 -0.15 -0.08    -0.248 N 
DOCKED: ATOM     26  N   UNL d   1      39.372  31.304  14.968 -0.22 -0.05    -0.248 N 
DOCKED: ATOM     27  N   UNL d   1      38.778  28.508  14.217 -0.19 -0.06    -0.248 N 
DOCKED: ATOM     28  N   UNL d   1      41.004  27.724  15.964 -0.21 -0.09    -0.248 N 
DOCKED: ATOM     29 FE   UNL d   1      40.023  29.394  15.346 -0.04 +0.00    +0.000 Fe
DOCKED: ENDROOT
DOCKED: BRANCH   6  30
DOCKED: ATOM     30  C   UNL d   1      44.077  30.581  19.294 -0.31 +0.02    +0.052 C 
DOCKED: BRANCH  30  31
DOCKED: ATOM     31  C   UNL d   1      45.199  29.710  18.730 -0.22 +0.06    +0.115 C 
DOCKED: BRANCH  31  32
DOCKED: ATOM     32  C   UNL d   1      45.850  28.850  19.792 -0.18 +0.11    +0.139 C 
DOCKED: ATOM     33  O   UNL d   1      46.009  27.656  19.583 +0.03 -0.45    -0.650 OA
DOCKED: BRANCH  32  34
DOCKED: ATOM     34  O   UNL d   1      46.309  29.368  20.954 -0.35 -1.11    -0.776 OA
DOCKED: ATOM     35  H   UNL d   1      47.071  29.960  21.022 +0.02 +0.19    +0.167 HD
DOCKED: ENDBRANCH  32  34
DOCKED: ENDBRANCH  31  32
DOCKED: ENDBRANCH  30  31
DOCKED: ENDBRANCH   6  30
DOCKED: BRANCH  29  36
DOCKED: ATOM     36  C   UNL d   1      38.754  29.294  17.012 -0.33 +0.05    +0.190 C 
DOCKED: BRANCH  36  37
DOCKED: ATOM     37  O   UNL d   1      37.729  28.536  17.588 -0.25 -0.08    -0.399 OA
DOCKED: ATOM     38  H   UNL d   1      37.506  27.844  16.904 +0.13 +0.04    +0.209 HD
DOCKED: ENDBRANCH  36  37
DOCKED: ENDBRANCH  29  36
DOCKED: BRANCH  22  39
DOCKED: ATOM     39  C   UNL d   1      43.258  25.419  17.848 -0.35 +0.02    +0.052 C 
DOCKED: BRANCH  39  40
DOCKED: ATOM     40  C   UNL d   1      44.589  25.217  17.105 -0.20 +0.06    +0.115 C 
DOCKED: BRANCH  40  41
DOCKED: ATOM     41  C   UNL d   1      45.340  23.962  17.496 -0.22 +0.11    +0.139 C 
DOCKED: ATOM     42  O   UNL d   1      44.807  23.156  18.246 -0.01 -0.41    -0.650 OA
DOCKED: BRANCH  41  43
DOCKED: ATOM     43  O   UNL d   1      46.549  23.664  16.971 -0.28 -1.24    -0.776 OA
DOCKED: ATOM     44  H   UNL d   1      47.363  24.092  17.266 +0.03 +0.22    +0.167 HD
DOCKED: ENDBRANCH  41  43
DOCKED: ENDBRANCH  40  41
DOCKED: ENDBRANCH  39  40
DOCKED: ENDBRANCH  22  39
DOCKED: BRANCH  12  45
DOCKED: ATOM     45  C   UNL d   1      37.006  33.345  12.931 -0.52 +0.00    +0.004 C 
DOCKED: ATOM     46  C   UNL d   1      35.684  33.440  13.047 -0.59 +0.00    +0.012 C 
DOCKED: ENDBRANCH  12  45
DOCKED: BRANCH  17  47
DOCKED: ATOM     47  C   UNL d   1      37.011  25.530  13.037 -0.64 +0.00    +0.004 C 
DOCKED: ATOM     48  C   UNL d   1      35.844  25.072  13.495 -0.71 +0.00    +0.012 C 
DOCKED: ENDBRANCH  17  47
DOCKED: TORSDOF 12
DOCKED: TER
DOCKED: ENDMDL
________________________________________________________________________________


	BEGINNING GENETIC ALGORITHM DOCKING 63 of 100
Run: 63 Seed: 627806160 815714140 [ Run 63 of 100 GA/GALS ]
Beginning LAMARCKIAN GENETIC ALGORITHM (LGA), with a maximum of 25000000 energy evaluations.

Final-Value: -17.784


	FINAL GENETIC ALGORITHM DOCKED STATE
	_______________________________________________


Detailed state:  trans 40.995 28.684 16.115 quatxyzw -0.318220 0.373078 0.868209 -0.075905 center 8.781 34.984 -0.736 ntor 12 -71.2461 109.3704 133.9615 -43.0248 -65.4758 -4.0951 138.6562 -108.2991 -13.7466 74.8565 60.0946 171.3661
State:	 40.995  28.684  16.115  -0.319  0.374  0.871 -171.294    -71.25  109.37  133.96  -43.02  -65.48   -4.10  138.66 -108.30  -13.75   74.86   60.09  171.37

DOCKED: MODEL       63
DOCKED: USER    Run = 63
DOCKED: USER    DPF = D:/Protein_go_brrr/autodock/final/2DN3/heme_Co/dock.dpf
DOCKED: USER  
DOCKED: USER    Estimated Free Energy of Binding    =  -13.70 kcal/mol  [=(1)+(2)+(3)-(4)]
DOCKED: USER    Estimated Inhibition Constant, Ki   =   91.06 pM (picomolar)  [Temperature = 298.15 K]
DOCKED: USER    
DOCKED: USER    (1) Final Intermolecular Energy     =  -17.28 kcal/mol
DOCKED: USER        vdW + Hbond + desolv Energy     =  -15.57 kcal/mol
DOCKED: USER        Electrostatic Energy            =   -1.70 kcal/mol
DOCKED: USER    (2) Final Total Internal Energy     =   -0.51 kcal/mol
DOCKED: USER    (3) Torsional Free Energy           =   +3.58 kcal/mol
DOCKED: USER    (4) Unbound System's Energy  [=(2)] =   -0.51 kcal/mol
DOCKED: USER    
DOCKED: USER    
DOCKED: USER    NEWDPF move heme_Co_opt.pdbqt
DOCKED: USER    NEWDPF about 8.781000 34.984000 -0.736000
DOCKED: USER    NEWDPF tran0 40.994588 28.683837 16.114922
DOCKED: USER    NEWDPF quaternion0 -0.318220 0.373078 0.868209 -0.075905
DOCKED: USER    NEWDPF axisangle0 -0.319141 0.374158 0.870721 -171.293587
DOCKED: USER    NEWDPF quat0 -0.319141 0.374158 0.870721 -171.293587
DOCKED: USER    NEWDPF dihe0 -71.25 109.37 133.96 -43.02 -65.48 -4.10 138.66 -108.30 -13.75 74.86 60.09 171.37 
DOCKED: USER  keepresnum = 1 
DOCKED: USER  
DOCKED: REMARK  12 active torsions:
DOCKED: REMARK  status: ('A' for Active; 'I' for Inactive)
DOCKED: REMARK    1  A    between atoms: C_6  and  C_10 
DOCKED: REMARK    2  A    between atoms: C_10  and  C_11 
DOCKED: REMARK    3  A    between atoms: C_11  and  C_12 
DOCKED: REMARK    4  A    between atoms: C_12  and  O_14 
DOCKED: REMARK    5  A    between atoms: C_17  and  C_20 
DOCKED: REMARK    6  A    between atoms: C_24  and  C_27 
DOCKED: REMARK    7  A    between atoms: C_31  and  C_34 
DOCKED: REMARK    8  A    between atoms: C_34  and  C_35 
DOCKED: REMARK    9  A    between atoms: C_35  and  C_36 
DOCKED: REMARK   10  A    between atoms: C_36  and  O_38 
DOCKED: REMARK   11  A    between atoms: FE_43  and  C_44 
DOCKED: REMARK   12  A    between atoms: C_44  and  O_45 
DOCKED: USER                              x       y       z     vdW  Elec       q    Type
DOCKED: USER                           _______ _______ _______ _____ _____    ______ ____
DOCKED: ROOT
DOCKED: ATOM      1  C   UNL d   1      42.753  27.942  17.152 -0.27 +0.02    +0.064 A 
DOCKED: ATOM      2  C   UNL d   1      40.893  32.298  16.729 -0.47 +0.01    +0.064 C 
DOCKED: ATOM      3  C   UNL d   1      37.587  30.634  13.707 -0.32 +0.01    +0.064 A 
DOCKED: ATOM      4  C   UNL d   1      39.228  26.111  14.423 -0.42 +0.01    +0.064 A 
DOCKED: ATOM      5  C   UNL d   1      42.510  29.261  17.230 -0.21 +0.02    +0.066 A 
DOCKED: ATOM      6  C   UNL d   1      43.239  30.105  18.090 -0.31 -0.01    -0.021 A 
DOCKED: ATOM      7  C   UNL d   1      42.680  31.364  17.980 -0.40 -0.01    -0.025 A 
DOCKED: ATOM      8  C   UNL d   1      41.646  31.237  17.046 -0.38 +0.02    +0.066 A 
DOCKED: ATOM      9  C   UNL d   1      43.092  32.646  18.720 -0.43 +0.01    +0.051 C 
DOCKED: ATOM     10  C   UNL d   1      39.825  32.270  15.761 -0.39 +0.01    +0.066 A 
DOCKED: ATOM     11  C   UNL d   1      39.092  33.376  15.280 -0.44 -0.00    -0.021 A 
DOCKED: ATOM     12  C   UNL d   1      38.137  32.863  14.398 -0.40 +0.00    +0.000 A 
DOCKED: ATOM     13  C   UNL d   1      38.367  31.487  14.395 -0.36 +0.01    +0.070 A 
DOCKED: ATOM     14  C   UNL d   1      39.365  34.827  15.584 -0.55 +0.01    +0.052 C 
DOCKED: ATOM     15  C   UNL d   1      37.647  29.188  13.634 -0.38 +0.01    +0.066 A 
DOCKED: ATOM     16  C   UNL d   1      36.722  28.355  13.021 -0.49 -0.00    -0.021 A 
DOCKED: ATOM     17  C   UNL d   1      37.189  27.049  13.227 -0.47 +0.00    +0.000 A 
DOCKED: ATOM     18  C   UNL d   1      38.377  27.190  13.937 -0.38 +0.01    +0.070 A 
DOCKED: ATOM     19  C   UNL d   1      35.477  28.813  12.293 -0.66 +0.01    +0.052 C 
DOCKED: ATOM     20  C   UNL d   1      40.339  26.220  15.189 -0.40 +0.02    +0.066 A 
DOCKED: ATOM     21  C   UNL d   1      41.054  25.106  15.625 -0.44 -0.01    -0.025 A 
DOCKED: ATOM     22  C   UNL d   1      42.093  25.604  16.389 -0.30 -0.01    -0.021 A 
DOCKED: ATOM     23  C   UNL d   1      41.952  27.008  16.393 -0.34 +0.02    +0.066 A 
DOCKED: ATOM     24  C   UNL d   1      40.751  23.636  15.343 -0.42 +0.01    +0.051 C 
DOCKED: ATOM     25  N   UNL d   1      41.521  29.946  16.561 -0.08 -0.09    -0.248 N 
DOCKED: ATOM     26  N   UNL d   1      39.423  31.136  15.176 -0.17 -0.05    -0.248 N 
DOCKED: ATOM     27  N   UNL d   1      38.602  28.475  14.189 -0.20 -0.05    -0.248 N 
DOCKED: ATOM     28  N   UNL d   1      40.891  27.385  15.670 -0.21 -0.07    -0.248 N 
DOCKED: ATOM     29 FE   UNL d   1      39.977  29.164  15.304 -0.07 +0.00    +0.000 Fe
DOCKED: ENDROOT
DOCKED: BRANCH   6  30
DOCKED: ATOM     30  C   UNL d   1      44.365  29.692  19.031 -0.25 +0.03    +0.052 C 
DOCKED: BRANCH  30  31
DOCKED: ATOM     31  C   UNL d   1      45.428  30.787  19.110 -0.22 +0.05    +0.115 C 
DOCKED: BRANCH  31  32
DOCKED: ATOM     32  C   UNL d   1      46.357  30.605  20.291 -0.16 +0.10    +0.139 C 
DOCKED: ATOM     33  O   UNL d   1      46.304  29.574  20.944 -0.37 -0.90    -0.650 OA
DOCKED: BRANCH  32  34
DOCKED: ATOM     34  O   UNL d   1      47.286  31.532  20.623 +0.01 -0.44    -0.776 OA
DOCKED: ATOM     35  H   UNL d   1      48.114  31.668  20.142 +0.03 +0.07    +0.167 HD
DOCKED: ENDBRANCH  32  34
DOCKED: ENDBRANCH  31  32
DOCKED: ENDBRANCH  30  31
DOCKED: ENDBRANCH   6  30
DOCKED: BRANCH  29  36
DOCKED: ATOM     36  C   UNL d   1      38.824  28.955  17.043 -0.33 +0.05    +0.190 C 
DOCKED: BRANCH  36  37
DOCKED: ATOM     37  O   UNL d   1      37.728  28.270  17.578 -0.23 -0.08    -0.399 OA
DOCKED: ATOM     38  H   UNL d   1      37.370  27.728  16.820 +0.14 +0.04    +0.209 HD
DOCKED: ENDBRANCH  36  37
DOCKED: ENDBRANCH  29  36
DOCKED: BRANCH  22  39
DOCKED: ATOM     39  C   UNL d   1      43.122  24.768  17.127 -0.34 +0.02    +0.052 C 
DOCKED: BRANCH  39  40
DOCKED: ATOM     40  C   UNL d   1      42.611  24.390  18.528 -0.39 +0.04    +0.115 C 
DOCKED: BRANCH  40  41
DOCKED: ATOM     41  C   UNL d   1      43.345  25.069  19.665 -0.34 +0.06    +0.139 C 
DOCKED: ATOM     42  O   UNL d   1      43.831  26.177  19.487 +0.03 -0.33    -0.650 OA
DOCKED: BRANCH  41  43
DOCKED: ATOM     43  O   UNL d   1      43.404  24.522  20.899 -0.44 -0.43    -0.776 OA
DOCKED: ATOM     44  H   UNL d   1      44.203  24.548  21.442 +0.06 +0.10    +0.167 HD
DOCKED: ENDBRANCH  41  43
DOCKED: ENDBRANCH  40  41
DOCKED: ENDBRANCH  39  40
DOCKED: ENDBRANCH  22  39
DOCKED: BRANCH  12  45
DOCKED: ATOM     45  C   UNL d   1      37.054  33.513  13.548 -0.50 +0.00    +0.004 C 
DOCKED: ATOM     46  C   UNL d   1      36.095  34.374  13.877 -0.55 +0.00    +0.012 C 
DOCKED: ENDBRANCH  12  45
DOCKED: BRANCH  17  47
DOCKED: ATOM     47  C   UNL d   1      36.572  25.744  12.846 -0.64 +0.00    +0.004 C 
DOCKED: ATOM     48  C   UNL d   1      35.692  25.094  13.612 -0.71 +0.00    +0.012 C 
DOCKED: ENDBRANCH  17  47
DOCKED: TORSDOF 12
DOCKED: TER
DOCKED: ENDMDL
________________________________________________________________________________


	BEGINNING GENETIC ALGORITHM DOCKING 64 of 100
Run: 64 Seed: 1033332351 1034795135 [ Run 64 of 100 GA/GALS ]
Beginning LAMARCKIAN GENETIC ALGORITHM (LGA), with a maximum of 25000000 energy evaluations.

Final-Value: -9.935


	FINAL GENETIC ALGORITHM DOCKED STATE
	_______________________________________________


Detailed state:  trans 38.317 28.115 -0.717 quatxyzw -0.536845 -0.599710 0.301119 -0.511344 center 8.781 34.984 -0.736 ntor 12 159.3793 114.5488 -29.1264 109.4725 33.0969 143.4506 -130.0331 -157.7999 -136.0637 -74.5578 -179.9315 -47.1178
State:	 38.317  28.115  -0.717  -0.625 -0.698  0.350 -118.493    159.38  114.55  -29.13  109.47   33.10  143.45 -130.03 -157.80 -136.06  -74.56 -179.93  -47.12

DOCKED: MODEL       64
DOCKED: USER    Run = 64
DOCKED: USER    DPF = D:/Protein_go_brrr/autodock/final/2DN3/heme_Co/dock.dpf
DOCKED: USER  
DOCKED: USER    Estimated Free Energy of Binding    =   -4.28 kcal/mol  [=(1)+(2)+(3)-(4)]
DOCKED: USER    Estimated Inhibition Constant, Ki   =  723.89 uM (micromolar)  [Temperature = 298.15 K]
DOCKED: USER    
DOCKED: USER    (1) Final Intermolecular Energy     =   -7.86 kcal/mol
DOCKED: USER        vdW + Hbond + desolv Energy     =   -7.54 kcal/mol
DOCKED: USER        Electrostatic Energy            =   -0.32 kcal/mol
DOCKED: USER    (2) Final Total Internal Energy     =   -2.07 kcal/mol
DOCKED: USER    (3) Torsional Free Energy           =   +3.58 kcal/mol
DOCKED: USER    (4) Unbound System's Energy  [=(2)] =   -2.07 kcal/mol
DOCKED: USER    
DOCKED: USER    
DOCKED: USER    NEWDPF move heme_Co_opt.pdbqt
DOCKED: USER    NEWDPF about 8.781000 34.984000 -0.736000
DOCKED: USER    NEWDPF tran0 38.316502 28.114949 -0.717202
DOCKED: USER    NEWDPF quaternion0 -0.536845 -0.599710 0.301119 -0.511344
DOCKED: USER    NEWDPF axisangle0 -0.624691 -0.697844 0.350392 -118.493173
DOCKED: USER    NEWDPF quat0 -0.624691 -0.697844 0.350392 -118.493173
DOCKED: USER    NEWDPF dihe0 159.38 114.55 -29.13 109.47 33.10 143.45 -130.03 -157.80 -136.06 -74.56 -179.93 -47.12 
DOCKED: USER  keepresnum = 1 
DOCKED: USER  
DOCKED: REMARK  12 active torsions:
DOCKED: REMARK  status: ('A' for Active; 'I' for Inactive)
DOCKED: REMARK    1  A    between atoms: C_6  and  C_10 
DOCKED: REMARK    2  A    between atoms: C_10  and  C_11 
DOCKED: REMARK    3  A    between atoms: C_11  and  C_12 
DOCKED: REMARK    4  A    between atoms: C_12  and  O_14 
DOCKED: REMARK    5  A    between atoms: C_17  and  C_20 
DOCKED: REMARK    6  A    between atoms: C_24  and  C_27 
DOCKED: REMARK    7  A    between atoms: C_31  and  C_34 
DOCKED: REMARK    8  A    between atoms: C_34  and  C_35 
DOCKED: REMARK    9  A    between atoms: C_35  and  C_36 
DOCKED: REMARK   10  A    between atoms: C_36  and  O_38 
DOCKED: REMARK   11  A    between atoms: FE_43  and  C_44 
DOCKED: REMARK   12  A    between atoms: C_44  and  O_45 
DOCKED: USER                              x       y       z     vdW  Elec       q    Type
DOCKED: USER                           _______ _______ _______ _____ _____    ______ ____
DOCKED: ROOT
DOCKED: ATOM      1  C   UNL d   1      39.088  26.234  -1.481 -0.11 +0.00    +0.064 A 
DOCKED: ATOM      2  C   UNL d   1      34.821  27.490   0.201 -0.18 +0.01    +0.064 C 
DOCKED: ATOM      3  C   UNL d   1      36.496  31.822   1.322 -0.21 +0.01    +0.064 A 
DOCKED: ATOM      4  C   UNL d   1      40.755  30.694  -0.740 -0.22 +0.00    +0.064 A 
DOCKED: ATOM      5  C   UNL d   1      37.809  26.247  -1.071 -0.11 +0.00    +0.066 A 
DOCKED: ATOM      6  C   UNL d   1      36.942  25.159  -1.293 -0.08 +0.00    -0.021 A 
DOCKED: ATOM      7  C   UNL d   1      35.700  25.538  -0.823 -0.10 +0.00    -0.025 A 
DOCKED: ATOM      8  C   UNL d   1      35.865  26.833  -0.321 -0.08 +0.00    +0.066 A 
DOCKED: ATOM      9  C   UNL d   1      34.397  24.723  -0.841 -0.08 -0.01    +0.051 C 
DOCKED: ATOM     10  C   UNL d   1      34.901  28.814   0.765 -0.12 +0.01    +0.066 A 
DOCKED: ATOM     11  C   UNL d   1      33.877  29.502   1.452 -0.26 -0.01    -0.021 A 
DOCKED: ATOM     12  C   UNL d   1      34.394  30.760   1.771 -0.25 +0.00    +0.000 A 
DOCKED: ATOM     13  C   UNL d   1      35.695  30.743   1.268 -0.19 +0.01    +0.070 A 
DOCKED: ATOM     14  C   UNL d   1      32.537  28.939   1.850 -0.35 +0.03    +0.052 C 
DOCKED: ATOM     15  C   UNL d   1      37.841  31.995   0.809 -0.20 +0.01    +0.066 A 
DOCKED: ATOM     16  C   UNL d   1      38.560  33.182   0.770 -0.25 -0.00    -0.021 A 
DOCKED: ATOM     17  C   UNL d   1      39.788  32.862   0.173 -0.30 +0.00    +0.000 A 
DOCKED: ATOM     18  C   UNL d   1      39.728  31.498  -0.089 -0.21 +0.00    +0.070 A 
DOCKED: ATOM     19  C   UNL d   1      38.072  34.520   1.278 -0.28 +0.01    +0.052 C 
DOCKED: ATOM     20  C   UNL d   1      40.685  29.386  -1.084 -0.20 +0.01    +0.066 A 
DOCKED: ATOM     21  C   UNL d   1      41.726  28.732  -1.739 -0.20 -0.00    -0.025 A 
DOCKED: ATOM     22  C   UNL d   1      41.285  27.437  -1.940 -0.16 -0.00    -0.021 A 
DOCKED: ATOM     23  C   UNL d   1      39.982  27.368  -1.404 -0.15 +0.01    +0.066 A 
DOCKED: ATOM     24  C   UNL d   1      43.068  29.318  -2.171 -0.25 +0.00    +0.051 C 
DOCKED: ATOM     25  N   UNL d   1      37.163  27.295  -0.456 -0.07 -0.02    -0.248 N 
DOCKED: ATOM     26  N   UNL d   1      36.019  29.546   0.710 -0.08 -0.04    -0.248 N 
DOCKED: ATOM     27  N   UNL d   1      38.542  31.021   0.275 -0.18 -0.02    -0.248 N 
DOCKED: ATOM     28  N   UNL d   1      39.614  28.546  -0.886 -0.12 -0.02    -0.248 N 
DOCKED: ATOM     29 FE   UNL d   1      37.897  29.267  -0.070 -0.04 +0.00    +0.000 Fe
DOCKED: ENDROOT
DOCKED: BRANCH   6  30
DOCKED: ATOM     30  C   UNL d   1      37.285  23.852  -1.999 -0.03 -0.00    +0.052 C 
DOCKED: BRANCH  30  31
DOCKED: ATOM     31  C   UNL d   1      36.880  23.915  -3.472 -0.01 +0.00    +0.115 C 
DOCKED: BRANCH  31  32
DOCKED: ATOM     32  C   UNL d   1      37.220  25.246  -4.107 -0.00 +0.01    +0.139 C 
DOCKED: ATOM     33  O   UNL d   1      38.221  25.343  -4.801 +0.00 -0.04    -0.650 OA
DOCKED: BRANCH  32  34
DOCKED: ATOM     34  O   UNL d   1      36.421  26.330  -3.973 +0.01 -0.04    -0.776 OA
DOCKED: ATOM     35  H   UNL d   1      36.728  27.244  -4.047 +0.00 +0.01    +0.167 HD
DOCKED: ENDBRANCH  32  34
DOCKED: ENDBRANCH  31  32
DOCKED: ENDBRANCH  30  31
DOCKED: ENDBRANCH   6  30
DOCKED: BRANCH  29  36
DOCKED: ATOM     36  C   UNL d   1      37.182  29.784  -1.972 -0.03 +0.02    +0.190 C 
DOCKED: BRANCH  36  37
DOCKED: ATOM     37  O   UNL d   1      36.679  29.241  -3.158 -0.00 -0.04    -0.399 OA
DOCKED: ATOM     38  H   UNL d   1      36.652  28.256  -2.998 +0.01 +0.02    +0.209 HD
DOCKED: ENDBRANCH  36  37
DOCKED: ENDBRANCH  29  36
DOCKED: BRANCH  22  39
DOCKED: ATOM     39  C   UNL d   1      42.053  26.349  -2.667 -0.14 +0.01    +0.052 C 
DOCKED: BRANCH  39  40
DOCKED: ATOM     40  C   UNL d   1      43.451  26.169  -2.053 -0.24 +0.02    +0.115 C 
DOCKED: BRANCH  40  41
DOCKED: ATOM     41  C   UNL d   1      43.569  25.000  -1.099 -0.13 +0.03    +0.139 C 
DOCKED: ATOM     42  O   UNL d   1      42.556  24.528  -0.602 -0.03 -0.14    -0.650 OA
DOCKED: BRANCH  41  43
DOCKED: ATOM     43  O   UNL d   1      44.756  24.404  -0.847 -0.06 -0.19    -0.776 OA
DOCKED: ATOM     44  H   UNL d   1      45.502  24.454  -1.460 -0.51 +0.02    +0.167 HD
DOCKED: ENDBRANCH  41  43
DOCKED: ENDBRANCH  40  41
DOCKED: ENDBRANCH  39  40
DOCKED: ENDBRANCH  22  39
DOCKED: BRANCH  12  45
DOCKED: ATOM     45  C   UNL d   1      33.818  31.963   2.506 -0.29 +0.00    +0.004 C 
DOCKED: ATOM     46  C   UNL d   1      34.000  32.383   3.756 -0.42 +0.00    +0.012 C 
DOCKED: ENDBRANCH  12  45
DOCKED: BRANCH  17  47
DOCKED: ATOM     47  C   UNL d   1      40.934  33.750  -0.186 -0.31 +0.00    +0.004 C 
DOCKED: ATOM     48  C   UNL d   1      41.043  35.016   0.225 -0.34 +0.00    +0.012 C 
DOCKED: ENDBRANCH  17  47
DOCKED: TORSDOF 12
DOCKED: TER
DOCKED: ENDMDL
________________________________________________________________________________


	BEGINNING GENETIC ALGORITHM DOCKING 65 of 100
Run: 65 Seed: 2002437061 767215227 [ Run 65 of 100 GA/GALS ]
Beginning LAMARCKIAN GENETIC ALGORITHM (LGA), with a maximum of 25000000 energy evaluations.

Final-Value: -11.820


	FINAL GENETIC ALGORITHM DOCKED STATE
	_______________________________________________


Detailed state:  trans 28.093 39.632 -0.611 quatxyzw -0.166308 -0.662336 0.530901 0.501794 center 8.781 34.984 -0.736 ntor 12 115.4304 102.9121 30.9696 125.1899 133.3233 133.7303 137.5902 126.3991 -44.9550 4.9498 -153.5687 149.8973
State:	 28.093  39.632  -0.611  -0.192 -0.766  0.614 119.763    115.43  102.91   30.97  125.19  133.32  133.73  137.59  126.40  -44.95    4.95 -153.57  149.90

DOCKED: MODEL       65
DOCKED: USER    Run = 65
DOCKED: USER    DPF = D:/Protein_go_brrr/autodock/final/2DN3/heme_Co/dock.dpf
DOCKED: USER  
DOCKED: USER    Estimated Free Energy of Binding    =   -5.89 kcal/mol  [=(1)+(2)+(3)-(4)]
DOCKED: USER    Estimated Inhibition Constant, Ki   =   47.84 uM (micromolar)  [Temperature = 298.15 K]
DOCKED: USER    
DOCKED: USER    (1) Final Intermolecular Energy     =   -9.47 kcal/mol
DOCKED: USER        vdW + Hbond + desolv Energy     =   -7.07 kcal/mol
DOCKED: USER        Electrostatic Energy            =   -2.40 kcal/mol
DOCKED: USER    (2) Final Total Internal Energy     =   -2.35 kcal/mol
DOCKED: USER    (3) Torsional Free Energy           =   +3.58 kcal/mol
DOCKED: USER    (4) Unbound System's Energy  [=(2)] =   -2.35 kcal/mol
DOCKED: USER    
DOCKED: USER    
DOCKED: USER    NEWDPF move heme_Co_opt.pdbqt
DOCKED: USER    NEWDPF about 8.781000 34.984000 -0.736000
DOCKED: USER    NEWDPF tran0 28.093393 39.632304 -0.611302
DOCKED: USER    NEWDPF quaternion0 -0.166308 -0.662336 0.530901 0.501794
DOCKED: USER    NEWDPF axisangle0 -0.192266 -0.765717 0.613768 119.762533
DOCKED: USER    NEWDPF quat0 -0.192266 -0.765717 0.613768 119.762533
DOCKED: USER    NEWDPF dihe0 115.43 102.91 30.97 125.19 133.32 133.73 137.59 126.40 -44.95 4.95 -153.57 149.90 
DOCKED: USER  keepresnum = 1 
DOCKED: USER  
DOCKED: REMARK  12 active torsions:
DOCKED: REMARK  status: ('A' for Active; 'I' for Inactive)
DOCKED: REMARK    1  A    between atoms: C_6  and  C_10 
DOCKED: REMARK    2  A    between atoms: C_10  and  C_11 
DOCKED: REMARK    3  A    between atoms: C_11  and  C_12 
DOCKED: REMARK    4  A    between atoms: C_12  and  O_14 
DOCKED: REMARK    5  A    between atoms: C_17  and  C_20 
DOCKED: REMARK    6  A    between atoms: C_24  and  C_27 
DOCKED: REMARK    7  A    between atoms: C_31  and  C_34 
DOCKED: REMARK    8  A    between atoms: C_34  and  C_35 
DOCKED: REMARK    9  A    between atoms: C_35  and  C_36 
DOCKED: REMARK   10  A    between atoms: C_36  and  O_38 
DOCKED: REMARK   11  A    between atoms: FE_43  and  C_44 
DOCKED: REMARK   12  A    between atoms: C_44  and  O_45 
DOCKED: USER                              x       y       z     vdW  Elec       q    Type
DOCKED: USER                           _______ _______ _______ _____ _____    ______ ____
DOCKED: ROOT
DOCKED: ATOM      1  C   UNL d   1      28.908  41.167   0.692 -0.13 +0.01    +0.064 A 
DOCKED: ATOM      2  C   UNL d   1      28.172  36.510   1.311 -0.19 +0.01    +0.064 C 
DOCKED: ATOM      3  C   UNL d   1      26.051  36.239  -2.962 -0.22 +0.00    +0.064 A 
DOCKED: ATOM      4  C   UNL d   1      27.135  40.910  -3.782 -0.17 +0.01    +0.064 A 
DOCKED: ATOM      5  C   UNL d   1      28.830  39.922   1.190 -0.15 +0.01    +0.066 A 
DOCKED: ATOM      6  C   UNL d   1      29.416  39.572   2.423 -0.18 +0.00    -0.021 A 
DOCKED: ATOM      7  C   UNL d   1      29.219  38.215   2.586 -0.17 +0.00    -0.025 A 
DOCKED: ATOM      8  C   UNL d   1      28.509  37.798   1.456 -0.16 +0.00    +0.066 A 
DOCKED: ATOM      9  C   UNL d   1      29.678  37.331   3.756 -0.15 -0.00    +0.051 C 
DOCKED: ATOM     10  C   UNL d   1      27.419  35.993   0.195 -0.15 +0.01    +0.066 A 
DOCKED: ATOM     11  C   UNL d   1      26.915  34.682   0.053 -0.22 -0.00    -0.021 A 
DOCKED: ATOM     12  C   UNL d   1      26.297  34.632  -1.200 -0.22 +0.00    +0.000 A 
DOCKED: ATOM     13  C   UNL d   1      26.459  35.915  -1.722 -0.14 +0.01    +0.070 A 
DOCKED: ATOM     14  C   UNL d   1      26.948  33.595   1.097 -0.31 +0.03    +0.052 C 
DOCKED: ATOM     15  C   UNL d   1      26.184  37.493  -3.676 -0.23 +0.00    +0.066 A 
DOCKED: ATOM     16  C   UNL d   1      25.871  37.719  -5.009 -0.20 -0.00    -0.021 A 
DOCKED: ATOM     17  C   UNL d   1      26.184  39.064  -5.251 -0.19 +0.00    +0.000 A 
DOCKED: ATOM     18  C   UNL d   1      26.649  39.559  -4.037 -0.17 +0.01    +0.070 A 
DOCKED: ATOM     19  C   UNL d   1      25.310  36.689  -5.965 -0.11 +0.00    +0.052 C 
DOCKED: ATOM     20  C   UNL d   1      27.672  41.389  -2.634 -0.15 +0.01    +0.066 A 
DOCKED: ATOM     21  C   UNL d   1      28.137  42.698  -2.522 -0.11 -0.01    -0.025 A 
DOCKED: ATOM     22  C   UNL d   1      28.627  42.809  -1.233 -0.10 -0.01    -0.021 A 
DOCKED: ATOM     23  C   UNL d   1      28.447  41.550  -0.623 -0.13 +0.02    +0.066 A 
DOCKED: ATOM     24  C   UNL d   1      28.133  43.784  -3.594 -0.06 +0.01    +0.051 C 
DOCKED: ATOM     25  N   UNL d   1      28.249  38.836   0.577 -0.10 -0.02    -0.248 N 
DOCKED: ATOM     26  N   UNL d   1      27.088  36.752  -0.854 -0.05 -0.03    -0.248 N 
DOCKED: ATOM     27  N   UNL d   1      26.664  38.589  -3.130 -0.15 -0.03    -0.248 N 
DOCKED: ATOM     28  N   UNL d   1      27.871  40.687  -1.469 +0.01 -0.05    -0.248 N 
DOCKED: ATOM     29 FE   UNL d   1      27.410  38.708  -1.387 -0.06 +0.00    +0.000 Fe
DOCKED: ENDROOT
DOCKED: BRANCH   6  30
DOCKED: ATOM     30  C   UNL d   1      30.198  40.494   3.352 -0.27 +0.00    +0.052 C 
DOCKED: BRANCH  30  31
DOCKED: ATOM     31  C   UNL d   1      31.538  40.879   2.724 -0.20 +0.03    +0.115 C 
DOCKED: BRANCH  31  32
DOCKED: ATOM     32  C   UNL d   1      31.816  42.363   2.820 -0.28 +0.08    +0.139 C 
DOCKED: ATOM     33  O   UNL d   1      31.074  43.072   3.485 +0.04 -0.36    -0.650 OA
DOCKED: BRANCH  32  34
DOCKED: ATOM     34  O   UNL d   1      32.894  42.931   2.231 -0.18 -0.98    -0.776 OA
DOCKED: ATOM     35  H   UNL d   1      32.846  43.534   1.476 +0.06 +0.35    +0.167 HD
DOCKED: ENDBRANCH  32  34
DOCKED: ENDBRANCH  31  32
DOCKED: ENDBRANCH  30  31
DOCKED: ENDBRANCH   6  30
DOCKED: BRANCH  29  36
DOCKED: ATOM     36  C   UNL d   1      29.333  38.208  -2.054 -0.07 +0.03    +0.190 C 
DOCKED: BRANCH  36  37
DOCKED: ATOM     37  O   UNL d   1      30.687  38.294  -1.715 -0.00 -0.07    -0.399 OA
DOCKED: ATOM     38  H   UNL d   1      30.717  38.911  -0.932 +0.02 +0.04    +0.209 HD
DOCKED: ENDBRANCH  36  37
DOCKED: ENDBRANCH  29  36
DOCKED: BRANCH  22  39
DOCKED: ATOM     39  C   UNL d   1      29.291  44.042  -0.649 -0.08 +0.02    +0.052 C 
DOCKED: BRANCH  39  40
DOCKED: ATOM     40  C   UNL d   1      30.800  43.810  -0.466 -0.08 +0.07    +0.115 C 
DOCKED: BRANCH  40  41
DOCKED: ATOM     41  C   UNL d   1      31.550  44.997   0.101 -0.03 +0.18    +0.139 C 
DOCKED: ATOM     42  O   UNL d   1      32.108  45.772  -0.663 -0.47 -0.88    -0.650 OA
DOCKED: BRANCH  41  43
DOCKED: ATOM     43  O   UNL d   1      31.548  45.274   1.424 -0.32 -1.10    -0.776 OA
DOCKED: ATOM     44  H   UNL d   1      31.571  44.583   2.099 +0.04 +0.21    +0.167 HD
DOCKED: ENDBRANCH  41  43
DOCKED: ENDBRANCH  40  41
DOCKED: ENDBRANCH  39  40
DOCKED: ENDBRANCH  22  39
DOCKED: BRANCH  12  45
DOCKED: ATOM     45  C   UNL d   1      25.561  33.531  -1.951 -0.25 -0.00    +0.004 C 
DOCKED: ATOM     46  C   UNL d   1      24.295  33.454  -2.353 -0.38 -0.00    +0.012 C 
DOCKED: ENDBRANCH  12  45
DOCKED: BRANCH  17  47
DOCKED: ATOM     47  C   UNL d   1      26.114  39.846  -6.521 -0.11 +0.00    +0.004 C 
DOCKED: ATOM     48  C   UNL d   1      25.242  40.835  -6.731 -0.14 +0.00    +0.012 C 
DOCKED: ENDBRANCH  17  47
DOCKED: TORSDOF 12
DOCKED: TER
DOCKED: ENDMDL
________________________________________________________________________________


	BEGINNING GENETIC ALGORITHM DOCKING 66 of 100
Run: 66 Seed: 7258752 363102323 [ Run 66 of 100 GA/GALS ]
Beginning LAMARCKIAN GENETIC ALGORITHM (LGA), with a maximum of 25000000 energy evaluations.

Final-Value: -11.047


	FINAL GENETIC ALGORITHM DOCKED STATE
	_______________________________________________


Detailed state:  trans 46.870 25.245 19.426 quatxyzw 0.362058 0.888884 -0.263118 -0.097819 center 8.781 34.984 -0.736 ntor 12 90.0631 69.8763 -59.7632 -64.5205 87.0912 143.6881 18.6998 -22.0409 179.6212 -173.5602 -178.9970 163.9423
State:	 46.870  25.245  19.426   0.364  0.893 -0.264 -168.773     90.06   69.88  -59.76  -64.52   87.09  143.69   18.70  -22.04  179.62 -173.56 -179.00  163.94

DOCKED: MODEL       66
DOCKED: USER    Run = 66
DOCKED: USER    DPF = D:/Protein_go_brrr/autodock/final/2DN3/heme_Co/dock.dpf
DOCKED: USER  
DOCKED: USER    Estimated Free Energy of Binding    =   -4.85 kcal/mol  [=(1)+(2)+(3)-(4)]
DOCKED: USER    Estimated Inhibition Constant, Ki   =  277.76 uM (micromolar)  [Temperature = 298.15 K]
DOCKED: USER    
DOCKED: USER    (1) Final Intermolecular Energy     =   -8.43 kcal/mol
DOCKED: USER        vdW + Hbond + desolv Energy     =   -6.94 kcal/mol
DOCKED: USER        Electrostatic Energy            =   -1.49 kcal/mol
DOCKED: USER    (2) Final Total Internal Energy     =   -2.62 kcal/mol
DOCKED: USER    (3) Torsional Free Energy           =   +3.58 kcal/mol
DOCKED: USER    (4) Unbound System's Energy  [=(2)] =   -2.62 kcal/mol
DOCKED: USER    
DOCKED: USER    
DOCKED: USER    NEWDPF move heme_Co_opt.pdbqt
DOCKED: USER    NEWDPF about 8.781000 34.984000 -0.736000
DOCKED: USER    NEWDPF tran0 46.869849 25.244718 19.426041
DOCKED: USER    NEWDPF quaternion0 0.362058 0.888884 -0.263118 -0.097819
DOCKED: USER    NEWDPF axisangle0 0.363803 0.893167 -0.264386 -168.772778
DOCKED: USER    NEWDPF quat0 0.363803 0.893167 -0.264386 -168.772778
DOCKED: USER    NEWDPF dihe0 90.06 69.88 -59.76 -64.52 87.09 143.69 18.70 -22.04 179.62 -173.56 -179.00 163.94 
DOCKED: USER  keepresnum = 1 
DOCKED: USER  
DOCKED: REMARK  12 active torsions:
DOCKED: REMARK  status: ('A' for Active; 'I' for Inactive)
DOCKED: REMARK    1  A    between atoms: C_6  and  C_10 
DOCKED: REMARK    2  A    between atoms: C_10  and  C_11 
DOCKED: REMARK    3  A    between atoms: C_11  and  C_12 
DOCKED: REMARK    4  A    between atoms: C_12  and  O_14 
DOCKED: REMARK    5  A    between atoms: C_17  and  C_20 
DOCKED: REMARK    6  A    between atoms: C_24  and  C_27 
DOCKED: REMARK    7  A    between atoms: C_31  and  C_34 
DOCKED: REMARK    8  A    between atoms: C_34  and  C_35 
DOCKED: REMARK    9  A    between atoms: C_35  and  C_36 
DOCKED: REMARK   10  A    between atoms: C_36  and  O_38 
DOCKED: REMARK   11  A    between atoms: FE_43  and  C_44 
DOCKED: REMARK   12  A    between atoms: C_44  and  O_45 
DOCKED: USER                              x       y       z     vdW  Elec       q    Type
DOCKED: USER                           _______ _______ _______ _____ _____    ______ ____
DOCKED: ROOT
DOCKED: ATOM      1  C   UNL d   1      48.622  24.856  20.649 -0.01 +0.03    +0.064 A 
DOCKED: ATOM      2  C   UNL d   1      45.806  21.995  18.100 -0.25 +0.06    +0.064 C 
DOCKED: ATOM      3  C   UNL d   1      42.918  25.668  17.099 -0.28 +0.02    +0.064 A 
DOCKED: ATOM      4  C   UNL d   1      45.984  28.682  19.374 -0.16 +0.04    +0.064 A 
DOCKED: ATOM      5  C   UNL d   1      48.045  23.797  20.056 -0.04 +0.04    +0.066 A 
DOCKED: ATOM      6  C   UNL d   1      48.640  22.521  20.062 -0.04 -0.01    -0.021 A 
DOCKED: ATOM      7  C   UNL d   1      47.831  21.700  19.301 -0.10 -0.02    -0.025 A 
DOCKED: ATOM      8  C   UNL d   1      46.768  22.506  18.878 -0.16 +0.05    +0.066 A 
DOCKED: ATOM      9  C   UNL d   1      48.037  20.213  18.976 -0.09 +0.04    +0.051 C 
DOCKED: ATOM     10  C   UNL d   1      44.661  22.740  17.638 -0.25 +0.05    +0.066 A 
DOCKED: ATOM     11  C   UNL d   1      43.547  22.227  16.937 -0.34 -0.01    -0.021 A 
DOCKED: ATOM     12  C   UNL d   1      42.719  23.319  16.662 -0.40 +0.00    +0.000 A 
DOCKED: ATOM     13  C   UNL d   1      43.380  24.411  17.224 -0.27 +0.03    +0.070 A 
DOCKED: ATOM     14  C   UNL d   1      43.268  20.775  16.646 -0.33 +0.01    +0.052 C 
DOCKED: ATOM     15  C   UNL d   1      43.496  26.912  17.569 -0.26 +0.03    +0.066 A 
DOCKED: ATOM     16  C   UNL d   1      43.041  28.191  17.281 -0.28 -0.01    -0.021 A 
DOCKED: ATOM     17  C   UNL d   1      43.924  29.064  17.933 -0.27 +0.00    +0.000 A 
DOCKED: ATOM     18  C   UNL d   1      44.841  28.245  18.583 -0.19 +0.03    +0.070 A 
DOCKED: ATOM     19  C   UNL d   1      41.835  28.522  16.430 -0.23 +0.02    +0.052 C 
DOCKED: ATOM     20  C   UNL d   1      46.938  27.907  19.944 -0.10 +0.05    +0.066 A 
DOCKED: ATOM     21  C   UNL d   1      48.010  28.446  20.651 -0.07 -0.02    -0.025 A 
DOCKED: ATOM     22  C   UNL d   1      48.772  27.365  21.055 -0.03 -0.01    -0.021 A 
DOCKED: ATOM     23  C   UNL d   1      48.127  26.211  20.560 -0.03 +0.04    +0.066 A 
DOCKED: ATOM     24  C   UNL d   1      48.306  29.920  20.912 -0.09 +0.04    +0.051 C 
DOCKED: ATOM     25  N   UNL d   1      46.872  23.809  19.336 -0.06 -0.16    -0.248 N 
DOCKED: ATOM     26  N   UNL d   1      44.526  24.051  17.862 -0.15 -0.14    -0.248 N 
DOCKED: ATOM     27  N   UNL d   1      44.573  26.970  18.319 -0.13 -0.12    -0.248 N 
DOCKED: ATOM     28  N   UNL d   1      47.018  26.535  19.885 -0.03 -0.16    -0.248 N 
DOCKED: ATOM     29 FE   UNL d   1      45.656  25.485  18.800 -0.04 +0.00    +0.000 Fe
DOCKED: ENDROOT
DOCKED: BRANCH   6  30
DOCKED: ATOM     30  C   UNL d   1      49.971  22.141  20.704 -0.01 +0.02    +0.052 C 
DOCKED: BRANCH  30  31
DOCKED: ATOM     31  C   UNL d   1      51.101  22.208  19.677 -0.02 +0.05    +0.115 C 
DOCKED: BRANCH  31  32
DOCKED: ATOM     32  C   UNL d   1      50.605  22.575  18.295 -0.06 +0.10    +0.139 C 
DOCKED: ATOM     33  O   UNL d   1      50.630  21.738  17.405 +0.03 -0.64    -0.650 OA
DOCKED: BRANCH  32  34
DOCKED: ATOM     34  O   UNL d   1      50.085  23.794  18.020 +0.00 -0.60    -0.776 OA
DOCKED: ATOM     35  H   UNL d   1      50.612  24.567  17.773 +0.02 +0.10    +0.167 HD
DOCKED: ENDBRANCH  32  34
DOCKED: ENDBRANCH  31  32
DOCKED: ENDBRANCH  30  31
DOCKED: ENDBRANCH   6  30
DOCKED: BRANCH  29  36
DOCKED: ATOM     36  C   UNL d   1      46.851  25.661  17.087 -0.24 +0.14    +0.190 C 
DOCKED: BRANCH  36  37
DOCKED: ATOM     37  O   UNL d   1      48.034  25.198  16.501 -0.13 -0.41    -0.399 OA
DOCKED: ATOM     38  H   UNL d   1      48.706  25.205  17.239 +0.04 +0.17    +0.209 HD
DOCKED: ENDBRANCH  36  37
DOCKED: ENDBRANCH  29  36
DOCKED: BRANCH  22  39
DOCKED: ATOM     39  C   UNL d   1      50.080  27.447  21.819 -0.01 +0.02    +0.052 C 
DOCKED: BRANCH  39  40
DOCKED: ATOM     40  C   UNL d   1      51.276  27.408  20.852 -0.00 +0.04    +0.115 C 
DOCKED: BRANCH  40  41
DOCKED: ATOM     41  C   UNL d   1      50.894  27.320  19.389 -0.02 +0.05    +0.139 C 
DOCKED: ATOM     42  O   UNL d   1      51.184  28.241  18.639 +0.01 -0.19    -0.650 OA
DOCKED: BRANCH  41  43
DOCKED: ATOM     43  O   UNL d   1      50.318  26.213  18.871 +0.03 -0.33    -0.776 OA
DOCKED: ATOM     44  H   UNL d   1      50.704  25.332  18.969 +0.02 +0.07    +0.167 HD
DOCKED: ENDBRANCH  41  43
DOCKED: ENDBRANCH  40  41
DOCKED: ENDBRANCH  39  40
DOCKED: ENDBRANCH  22  39
DOCKED: BRANCH  12  45
DOCKED: ATOM     45  C   UNL d   1      41.378  23.452  15.952 -0.58 +0.00    +0.004 C 
DOCKED: ATOM     46  C   UNL d   1      41.070  23.372  14.661 -0.53 +0.00    +0.012 C 
DOCKED: ENDBRANCH  12  45
DOCKED: BRANCH  17  47
DOCKED: ATOM     47  C   UNL d   1      43.967  30.557  17.927 -0.36 +0.00    +0.004 C 
DOCKED: ATOM     48  C   UNL d   1      43.008  31.324  18.452 -0.45 +0.00    +0.012 C 
DOCKED: ENDBRANCH  17  47
DOCKED: TORSDOF 12
DOCKED: TER
DOCKED: ENDMDL
________________________________________________________________________________


	BEGINNING GENETIC ALGORITHM DOCKING 67 of 100
Run: 67 Seed: 147982049 2090658899 [ Run 67 of 100 GA/GALS ]
Beginning LAMARCKIAN GENETIC ALGORITHM (LGA), with a maximum of 25000000 energy evaluations.

Final-Value: -10.807


	FINAL GENETIC ALGORITHM DOCKED STATE
	_______________________________________________


Detailed state:  trans 28.527 39.838 -0.164 quatxyzw 0.475065 0.775784 -0.237013 -0.341024 center 8.781 34.984 -0.736 ntor 12 -172.1437 120.2449 28.6681 99.8280 133.4623 127.6288 35.1345 156.6261 174.1474 -88.3166 -169.9652 163.2030
State:	 28.527  39.838  -0.164   0.505  0.825 -0.252 -140.121   -172.14  120.24   28.67   99.83  133.46  127.63   35.13  156.63  174.15  -88.32 -169.97  163.20

DOCKED: MODEL       67
DOCKED: USER    Run = 67
DOCKED: USER    DPF = D:/Protein_go_brrr/autodock/final/2DN3/heme_Co/dock.dpf
DOCKED: USER  
DOCKED: USER    Estimated Free Energy of Binding    =   -4.99 kcal/mol  [=(1)+(2)+(3)-(4)]
DOCKED: USER    Estimated Inhibition Constant, Ki   =  221.53 uM (micromolar)  [Temperature = 298.15 K]
DOCKED: USER    
DOCKED: USER    (1) Final Intermolecular Energy     =   -8.57 kcal/mol
DOCKED: USER        vdW + Hbond + desolv Energy     =   -6.50 kcal/mol
DOCKED: USER        Electrostatic Energy            =   -2.07 kcal/mol
DOCKED: USER    (2) Final Total Internal Energy     =   -2.24 kcal/mol
DOCKED: USER    (3) Torsional Free Energy           =   +3.58 kcal/mol
DOCKED: USER    (4) Unbound System's Energy  [=(2)] =   -2.24 kcal/mol
DOCKED: USER    
DOCKED: USER    
DOCKED: USER    NEWDPF move heme_Co_opt.pdbqt
DOCKED: USER    NEWDPF about 8.781000 34.984000 -0.736000
DOCKED: USER    NEWDPF tran0 28.527302 39.838192 -0.163875
DOCKED: USER    NEWDPF quaternion0 0.475065 0.775784 -0.237013 -0.341024
DOCKED: USER    NEWDPF axisangle0 0.505358 0.825254 -0.252127 -140.121481
DOCKED: USER    NEWDPF quat0 0.505358 0.825254 -0.252127 -140.121481
DOCKED: USER    NEWDPF dihe0 -172.14 120.24 28.67 99.83 133.46 127.63 35.13 156.63 174.15 -88.32 -169.97 163.20 
DOCKED: USER  keepresnum = 1 
DOCKED: USER  
DOCKED: REMARK  12 active torsions:
DOCKED: REMARK  status: ('A' for Active; 'I' for Inactive)
DOCKED: REMARK    1  A    between atoms: C_6  and  C_10 
DOCKED: REMARK    2  A    between atoms: C_10  and  C_11 
DOCKED: REMARK    3  A    between atoms: C_11  and  C_12 
DOCKED: REMARK    4  A    between atoms: C_12  and  O_14 
DOCKED: REMARK    5  A    between atoms: C_17  and  C_20 
DOCKED: REMARK    6  A    between atoms: C_24  and  C_27 
DOCKED: REMARK    7  A    between atoms: C_31  and  C_34 
DOCKED: REMARK    8  A    between atoms: C_34  and  C_35 
DOCKED: REMARK    9  A    between atoms: C_35  and  C_36 
DOCKED: REMARK   10  A    between atoms: C_36  and  O_38 
DOCKED: REMARK   11  A    between atoms: FE_43  and  C_44 
DOCKED: REMARK   12  A    between atoms: C_44  and  O_45 
DOCKED: USER                              x       y       z     vdW  Elec       q    Type
DOCKED: USER                           _______ _______ _______ _____ _____    ______ ____
DOCKED: ROOT
DOCKED: ATOM      1  C   UNL d   1      29.329  39.530   1.831 -0.13 +0.00    +0.064 A 
DOCKED: ATOM      2  C   UNL d   1      27.676  36.511  -1.449 -0.18 +0.01    +0.064 C 
DOCKED: ATOM      3  C   UNL d   1      26.418  40.176  -4.244 -0.19 +0.01    +0.064 A 
DOCKED: ATOM      4  C   UNL d   1      28.449  43.266  -1.083 -0.10 +0.02    +0.064 A 
DOCKED: ATOM      5  C   UNL d   1      28.937  38.437   1.156 -0.13 +0.01    +0.066 A 
DOCKED: ATOM      6  C   UNL d   1      29.199  37.135   1.625 -0.12 -0.00    -0.021 A 
DOCKED: ATOM      7  C   UNL d   1      28.737  36.263   0.659 -0.12 -0.01    -0.025 A 
DOCKED: ATOM      8  C   UNL d   1      28.199  37.069  -0.350 -0.14 +0.01    +0.066 A 
DOCKED: ATOM      9  C   UNL d   1      28.794  34.728   0.670 -0.14 +0.03    +0.051 C 
DOCKED: ATOM     10  C   UNL d   1      27.076  37.257  -2.527 -0.19 +0.01    +0.066 A 
DOCKED: ATOM     11  C   UNL d   1      26.386  36.728  -3.639 -0.22 -0.00    -0.021 A 
DOCKED: ATOM     12  C   UNL d   1      26.026  37.818  -4.435 -0.24 +0.00    +0.000 A 
DOCKED: ATOM     13  C   UNL d   1      26.512  38.930  -3.746 -0.18 +0.01    +0.070 A 
DOCKED: ATOM     14  C   UNL d   1      26.021  35.281  -3.856 -0.15 -0.00    +0.052 C 
DOCKED: ATOM     15  C   UNL d   1      26.907  41.425  -3.695 -0.17 +0.01    +0.066 A 
DOCKED: ATOM     16  C   UNL d   1      26.906  42.660  -4.329 -0.13 -0.00    -0.021 A 
DOCKED: ATOM     17  C   UNL d   1      27.493  43.554  -3.423 -0.10 +0.00    +0.000 A 
DOCKED: ATOM     18  C   UNL d   1      27.792  42.795  -2.296 -0.13 +0.02    +0.070 A 
DOCKED: ATOM     19  C   UNL d   1      26.370  42.932  -5.717 -0.10 +0.01    +0.052 C 
DOCKED: ATOM     20  C   UNL d   1      28.827  42.530  -0.011 -0.12 +0.02    +0.066 A 
DOCKED: ATOM     21  C   UNL d   1      29.485  43.091   1.081 -0.15 -0.01    -0.025 A 
DOCKED: ATOM     22  C   UNL d   1      29.725  42.043   1.951 -0.18 -0.01    -0.021 A 
DOCKED: ATOM     23  C   UNL d   1      29.209  40.883   1.335 -0.13 +0.01    +0.066 A 
DOCKED: ATOM     24  C   UNL d   1      29.882  44.551   1.280 -0.18 +0.04    +0.051 C 
DOCKED: ATOM     25  N   UNL d   1      28.304  38.420  -0.066 -0.10 -0.03    -0.248 N 
DOCKED: ATOM     26  N   UNL d   1      27.096  38.594  -2.566 -0.11 -0.03    -0.248 N 
DOCKED: ATOM     27  N   UNL d   1      27.457  41.526  -2.506 -0.10 -0.05    -0.248 N 
DOCKED: ATOM     28  N   UNL d   1      28.667  41.173   0.146 -0.08 -0.05    -0.248 N 
DOCKED: ATOM     29 FE   UNL d   1      27.856  40.068  -1.356 -0.05 +0.00    +0.000 Fe
DOCKED: ENDROOT
DOCKED: BRANCH   6  30
DOCKED: ATOM     30  C   UNL d   1      29.934  36.761   2.908 -0.15 +0.01    +0.052 C 
DOCKED: BRANCH  30  31
DOCKED: ATOM     31  C   UNL d   1      31.444  36.728   2.671 -0.11 +0.02    +0.115 C 
DOCKED: BRANCH  31  32
DOCKED: ATOM     32  C   UNL d   1      31.803  36.885   1.209 -0.06 +0.03    +0.139 C 
DOCKED: ATOM     33  O   UNL d   1      31.982  35.889   0.524 +0.03 -0.19    -0.650 OA
DOCKED: BRANCH  32  34
DOCKED: ATOM     34  O   UNL d   1      31.885  38.099   0.616 +0.06 -0.15    -0.776 OA
DOCKED: ATOM     35  H   UNL d   1      32.060  38.234  -0.325 +0.02 +0.03    +0.167 HD
DOCKED: ENDBRANCH  32  34
DOCKED: ENDBRANCH  31  32
DOCKED: ENDBRANCH  30  31
DOCKED: ENDBRANCH   6  30
DOCKED: BRANCH  29  36
DOCKED: ATOM     36  C   UNL d   1      29.754  39.778  -2.198 -0.05 +0.03    +0.190 C 
DOCKED: BRANCH  36  37
DOCKED: ATOM     37  O   UNL d   1      31.035  39.292  -1.917 +0.00 -0.08    -0.399 OA
DOCKED: ATOM     38  H   UNL d   1      30.960  38.877  -1.013 +0.02 +0.04    +0.209 HD
DOCKED: ENDBRANCH  36  37
DOCKED: ENDBRANCH  29  36
DOCKED: BRANCH  22  39
DOCKED: ATOM     39  C   UNL d   1      30.469  42.146   3.269 -0.26 +0.02    +0.052 C 
DOCKED: BRANCH  39  40
DOCKED: ATOM     40  C   UNL d   1      31.951  41.779   3.086 -0.30 +0.05    +0.115 C 
DOCKED: BRANCH  40  41
DOCKED: ATOM     41  C   UNL d   1      32.831  42.932   2.652 -0.25 +0.15    +0.139 C 
DOCKED: ATOM     42  O   UNL d   1      32.655  43.438   1.552 +0.02 -1.13    -0.650 OA
DOCKED: BRANCH  41  43
DOCKED: ATOM     43  O   UNL d   1      33.750  43.476   3.480 -0.59 -0.96    -0.776 OA
DOCKED: ATOM     44  H   UNL d   1      34.248  42.950   4.120 -0.29 +0.05    +0.167 HD
DOCKED: ENDBRANCH  41  43
DOCKED: ENDBRANCH  40  41
DOCKED: ENDBRANCH  39  40
DOCKED: ENDBRANCH  22  39
DOCKED: BRANCH  12  45
DOCKED: ATOM     45  C   UNL d   1      25.269  37.939  -5.751 -0.20 +0.00    +0.004 C 
DOCKED: ATOM     46  C   UNL d   1      23.972  38.115  -5.990 -0.23 +0.00    +0.012 C 
DOCKED: ENDBRANCH  12  45
DOCKED: BRANCH  17  47
DOCKED: ATOM     47  C   UNL d   1      27.813  45.004  -3.584 -0.05 +0.00    +0.004 C 
DOCKED: ATOM     48  C   UNL d   1      27.189  45.975  -2.913 -0.07 +0.00    +0.012 C 
DOCKED: ENDBRANCH  17  47
DOCKED: TORSDOF 12
DOCKED: TER
DOCKED: ENDMDL
________________________________________________________________________________


	BEGINNING GENETIC ALGORITHM DOCKING 68 of 100
Run: 68 Seed: 764994770 24724808 [ Run 68 of 100 GA/GALS ]
Beginning LAMARCKIAN GENETIC ALGORITHM (LGA), with a maximum of 25000000 energy evaluations.

Final-Value: -18.399


	FINAL GENETIC ALGORITHM DOCKED STATE
	_______________________________________________


Detailed state:  trans 41.004 29.131 16.284 quatxyzw -0.361540 0.405712 0.837889 -0.051264 center 8.781 34.984 -0.736 ntor 12 125.7172 109.0553 57.4895 -101.7008 -60.9523 17.7692 -43.3238 -134.2694 35.9967 -10.8159 -3.4481 40.3585
State:	 41.004  29.131  16.284  -0.362  0.406  0.839 -174.123    125.72  109.06   57.49 -101.70  -60.95   17.77  -43.32 -134.27   36.00  -10.82   -3.45   40.36

DOCKED: MODEL       68
DOCKED: USER    Run = 68
DOCKED: USER    DPF = D:/Protein_go_brrr/autodock/final/2DN3/heme_Co/dock.dpf
DOCKED: USER  
DOCKED: USER    Estimated Free Energy of Binding    =  -12.61 kcal/mol  [=(1)+(2)+(3)-(4)]
DOCKED: USER    Estimated Inhibition Constant, Ki   =  572.61 pM (picomolar)  [Temperature = 298.15 K]
DOCKED: USER    
DOCKED: USER    (1) Final Intermolecular Energy     =  -16.19 kcal/mol
DOCKED: USER        vdW + Hbond + desolv Energy     =  -14.70 kcal/mol
DOCKED: USER        Electrostatic Energy            =   -1.49 kcal/mol
DOCKED: USER    (2) Final Total Internal Energy     =   -2.21 kcal/mol
DOCKED: USER    (3) Torsional Free Energy           =   +3.58 kcal/mol
DOCKED: USER    (4) Unbound System's Energy  [=(2)] =   -2.21 kcal/mol
DOCKED: USER    
DOCKED: USER    
DOCKED: USER    NEWDPF move heme_Co_opt.pdbqt
DOCKED: USER    NEWDPF about 8.781000 34.984000 -0.736000
DOCKED: USER    NEWDPF tran0 41.004061 29.131106 16.283840
DOCKED: USER    NEWDPF quaternion0 -0.361540 0.405712 0.837889 -0.051264
DOCKED: USER    NEWDPF axisangle0 -0.362016 0.406247 0.838992 -174.122969
DOCKED: USER    NEWDPF quat0 -0.362016 0.406247 0.838992 -174.122969
DOCKED: USER    NEWDPF dihe0 125.72 109.06 57.49 -101.70 -60.95 17.77 -43.32 -134.27 36.00 -10.82 -3.45 40.36 
DOCKED: USER  keepresnum = 1 
DOCKED: USER  
DOCKED: REMARK  12 active torsions:
DOCKED: REMARK  status: ('A' for Active; 'I' for Inactive)
DOCKED: REMARK    1  A    between atoms: C_6  and  C_10 
DOCKED: REMARK    2  A    between atoms: C_10  and  C_11 
DOCKED: REMARK    3  A    between atoms: C_11  and  C_12 
DOCKED: REMARK    4  A    between atoms: C_12  and  O_14 
DOCKED: REMARK    5  A    between atoms: C_17  and  C_20 
DOCKED: REMARK    6  A    between atoms: C_24  and  C_27 
DOCKED: REMARK    7  A    between atoms: C_31  and  C_34 
DOCKED: REMARK    8  A    between atoms: C_34  and  C_35 
DOCKED: REMARK    9  A    between atoms: C_35  and  C_36 
DOCKED: REMARK   10  A    between atoms: C_36  and  O_38 
DOCKED: REMARK   11  A    between atoms: FE_43  and  C_44 
DOCKED: REMARK   12  A    between atoms: C_44  and  O_45 
DOCKED: USER                              x       y       z     vdW  Elec       q    Type
DOCKED: USER                           _______ _______ _______ _____ _____    ______ ____
DOCKED: ROOT
DOCKED: ATOM      1  C   UNL d   1      42.713  28.591  17.509 -0.15 +0.02    +0.064 A 
DOCKED: ATOM      2  C   UNL d   1      40.691  32.778  16.513 -0.48 +0.01    +0.064 C 
DOCKED: ATOM      3  C   UNL d   1      37.696  30.648  13.460 -0.36 +0.01    +0.064 A 
DOCKED: ATOM      4  C   UNL d   1      39.487  26.312  14.749 -0.40 +0.01    +0.064 A 
DOCKED: ATOM      5  C   UNL d   1      42.405  29.896  17.434 -0.28 +0.02    +0.066 A 
DOCKED: ATOM      6  C   UNL d   1      43.029  30.860  18.251 -0.36 -0.01    -0.021 A 
DOCKED: ATOM      7  C   UNL d   1      42.423  32.069  17.974 -0.45 -0.01    -0.025 A 
DOCKED: ATOM      8  C   UNL d   1      41.467  31.795  16.990 -0.41 +0.01    +0.066 A 
DOCKED: ATOM      9  C   UNL d   1      42.720  33.439  18.604 -0.39 +0.01    +0.051 C 
DOCKED: ATOM     10  C   UNL d   1      39.700  32.596  15.482 -0.40 +0.01    +0.066 A 
DOCKED: ATOM     11  C   UNL d   1      38.954  33.609  14.842 -0.43 -0.00    -0.021 A 
DOCKED: ATOM     12  C   UNL d   1      38.092  32.961  13.954 -0.39 +0.00    +0.000 A 
DOCKED: ATOM     13  C   UNL d   1      38.383  31.605  14.108 -0.37 +0.01    +0.070 A 
DOCKED: ATOM     14  C   UNL d   1      39.137  35.096  15.012 -0.56 +0.01    +0.052 C 
DOCKED: ATOM     15  C   UNL d   1      37.829  29.206  13.541 -0.38 +0.01    +0.066 A 
DOCKED: ATOM     16  C   UNL d   1      36.990  28.269  12.955 -0.48 -0.00    -0.021 A 
DOCKED: ATOM     17  C   UNL d   1      37.501  27.017  13.325 -0.46 +0.00    +0.000 A 
DOCKED: ATOM     18  C   UNL d   1      38.625  27.291  14.098 -0.37 +0.01    +0.070 A 
DOCKED: ATOM     19  C   UNL d   1      35.783  28.585  12.100 -0.66 +0.01    +0.052 C 
DOCKED: ATOM     20  C   UNL d   1      40.533  26.556  15.575 -0.38 +0.02    +0.066 A 
DOCKED: ATOM     21  C   UNL d   1      41.264  25.530  16.170 -0.38 -0.01    -0.025 A 
DOCKED: ATOM     22  C   UNL d   1      42.220  26.157  16.949 -0.36 -0.01    -0.021 A 
DOCKED: ATOM     23  C   UNL d   1      42.015  27.545  16.798 -0.30 +0.02    +0.066 A 
DOCKED: ATOM     24  C   UNL d   1      41.051  24.026  16.021 -0.54 +0.01    +0.051 C 
DOCKED: ATOM     25  N   UNL d   1      41.438  30.458  16.632 -0.16 -0.08    -0.248 N 
DOCKED: ATOM     26  N   UNL d   1      39.395  31.391  14.992 -0.21 -0.05    -0.248 N 
DOCKED: ATOM     27  N   UNL d   1      38.772  28.604  14.230 -0.18 -0.06    -0.248 N 
DOCKED: ATOM     28  N   UNL d   1      40.993  27.790  15.969 -0.20 -0.09    -0.248 N 
DOCKED: ATOM     29 FE   UNL d   1      40.028  29.473  15.360 -0.03 +0.00    +0.000 Fe
DOCKED: ENDROOT
DOCKED: BRANCH   6  30
DOCKED: ATOM     30  C   UNL d   1      44.101  30.602  19.305 -0.32 +0.02    +0.052 C 
DOCKED: BRANCH  30  31
DOCKED: ATOM     31  C   UNL d   1      45.476  30.469  18.651 -0.21 +0.05    +0.115 C 
DOCKED: BRANCH  31  32
DOCKED: ATOM     32  C   UNL d   1      46.363  29.475  19.369 -0.15 +0.09    +0.139 C 
DOCKED: ATOM     33  O   UNL d   1      47.533  29.363  19.035 +0.02 -0.32    -0.650 OA
DOCKED: BRANCH  32  34
DOCKED: ATOM     34  O   UNL d   1      45.914  28.733  20.408 -0.08 -0.84    -0.776 OA
DOCKED: ATOM     35  H   UNL d   1      45.914  27.766  20.426 +0.04 +0.17    +0.167 HD
DOCKED: ENDBRANCH  32  34
DOCKED: ENDBRANCH  31  32
DOCKED: ENDBRANCH  30  31
DOCKED: ENDBRANCH   6  30
DOCKED: BRANCH  29  36
DOCKED: ATOM     36  C   UNL d   1      38.761  29.378  17.028 -0.33 +0.05    +0.190 C 
DOCKED: BRANCH  36  37
DOCKED: ATOM     37  O   UNL d   1      37.887  28.530  17.716 -0.24 -0.08    -0.399 OA
DOCKED: ATOM     38  H   UNL d   1      37.842  27.702  17.161 +0.13 +0.04    +0.209 HD
DOCKED: ENDBRANCH  36  37
DOCKED: ENDBRANCH  29  36
DOCKED: BRANCH  22  39
DOCKED: ATOM     39  C   UNL d   1      43.229  25.455  17.838 -0.35 +0.02    +0.052 C 
DOCKED: BRANCH  39  40
DOCKED: ATOM     40  C   UNL d   1      44.587  26.174  17.790 -0.24 +0.05    +0.115 C 
DOCKED: BRANCH  40  41
DOCKED: ATOM     41  C   UNL d   1      45.531  25.802  18.915 -0.14 +0.08    +0.139 C 
DOCKED: ATOM     42  O   UNL d   1      45.199  24.937  19.713 -0.00 -0.38    -0.650 OA
DOCKED: BRANCH  41  43
DOCKED: ATOM     43  O   UNL d   1      46.768  26.338  19.010 +0.08 -0.45    -0.776 OA
DOCKED: ATOM     44  H   UNL d   1      46.915  27.281  19.155 +0.04 +0.10    +0.167 HD
DOCKED: ENDBRANCH  41  43
DOCKED: ENDBRANCH  40  41
DOCKED: ENDBRANCH  39  40
DOCKED: ENDBRANCH  22  39
DOCKED: BRANCH  12  45
DOCKED: ATOM     45  C   UNL d   1      37.045  33.464  12.969 -0.52 +0.00    +0.004 C 
DOCKED: ATOM     46  C   UNL d   1      35.718  33.372  12.993 -0.59 +0.00    +0.012 C 
DOCKED: ENDBRANCH  12  45
DOCKED: BRANCH  17  47
DOCKED: ATOM     47  C   UNL d   1      36.974  25.649  13.040 -0.63 +0.00    +0.004 C 
DOCKED: ATOM     48  C   UNL d   1      36.008  25.067  13.756 -0.70 +0.00    +0.012 C 
DOCKED: ENDBRANCH  17  47
DOCKED: TORSDOF 12
DOCKED: TER
DOCKED: ENDMDL
________________________________________________________________________________


	BEGINNING GENETIC ALGORITHM DOCKING 69 of 100
Run: 69 Seed: 27127282 860673073 [ Run 69 of 100 GA/GALS ]
Beginning LAMARCKIAN GENETIC ALGORITHM (LGA), with a maximum of 25000000 energy evaluations.

Final-Value: -17.294


	FINAL GENETIC ALGORITHM DOCKED STATE
	_______________________________________________


Detailed state:  trans 9.032 35.082 -0.515 quatxyzw 0.013981 -0.001169 0.031686 0.999399 center 8.781 34.984 -0.736 ntor 12 -109.4186 133.3600 -66.8305 41.0215 -62.1523 40.8581 107.9276 -24.7254 35.5850 -10.6874 -10.1539 21.4484
State:	  9.032  35.082  -0.515   0.403 -0.034  0.914  3.972   -109.42  133.36  -66.83   41.02  -62.15   40.86  107.93  -24.73   35.58  -10.69  -10.15   21.45

DOCKED: MODEL       69
DOCKED: USER    Run = 69
DOCKED: USER    DPF = D:/Protein_go_brrr/autodock/final/2DN3/heme_Co/dock.dpf
DOCKED: USER  
DOCKED: USER    Estimated Free Energy of Binding    =  -11.51 kcal/mol  [=(1)+(2)+(3)-(4)]
DOCKED: USER    Estimated Inhibition Constant, Ki   =    3.63 nM (nanomolar)  [Temperature = 298.15 K]
DOCKED: USER    
DOCKED: USER    (1) Final Intermolecular Energy     =  -15.09 kcal/mol
DOCKED: USER        vdW + Hbond + desolv Energy     =  -14.30 kcal/mol
DOCKED: USER        Electrostatic Energy            =   -0.80 kcal/mol
DOCKED: USER    (2) Final Total Internal Energy     =   -2.20 kcal/mol
DOCKED: USER    (3) Torsional Free Energy           =   +3.58 kcal/mol
DOCKED: USER    (4) Unbound System's Energy  [=(2)] =   -2.20 kcal/mol
DOCKED: USER    
DOCKED: USER    
DOCKED: USER    NEWDPF move heme_Co_opt.pdbqt
DOCKED: USER    NEWDPF about 8.781000 34.984000 -0.736000
DOCKED: USER    NEWDPF tran0 9.031715 35.081923 -0.514872
DOCKED: USER    NEWDPF quaternion0 0.013981 -0.001169 0.031686 0.999399
DOCKED: USER    NEWDPF axisangle0 0.403454 -0.033741 0.914378 3.971691
DOCKED: USER    NEWDPF quat0 0.403454 -0.033741 0.914378 3.971691
DOCKED: USER    NEWDPF dihe0 -109.42 133.36 -66.83 41.02 -62.15 40.86 107.93 -24.73 35.58 -10.69 -10.15 21.45 
DOCKED: USER  keepresnum = 1 
DOCKED: USER  
DOCKED: REMARK  12 active torsions:
DOCKED: REMARK  status: ('A' for Active; 'I' for Inactive)
DOCKED: REMARK    1  A    between atoms: C_6  and  C_10 
DOCKED: REMARK    2  A    between atoms: C_10  and  C_11 
DOCKED: REMARK    3  A    between atoms: C_11  and  C_12 
DOCKED: REMARK    4  A    between atoms: C_12  and  O_14 
DOCKED: REMARK    5  A    between atoms: C_17  and  C_20 
DOCKED: REMARK    6  A    between atoms: C_24  and  C_27 
DOCKED: REMARK    7  A    between atoms: C_31  and  C_34 
DOCKED: REMARK    8  A    between atoms: C_34  and  C_35 
DOCKED: REMARK    9  A    between atoms: C_35  and  C_36 
DOCKED: REMARK   10  A    between atoms: C_36  and  O_38 
DOCKED: REMARK   11  A    between atoms: FE_43  and  C_44 
DOCKED: REMARK   12  A    between atoms: C_44  and  O_45 
DOCKED: USER                              x       y       z     vdW  Elec       q    Type
DOCKED: USER                           _______ _______ _______ _____ _____    ______ ____
DOCKED: ROOT
DOCKED: ATOM      1  C   UNL d   1       7.129  35.679  -1.376 -0.14 +0.02    +0.064 A 
DOCKED: ATOM      2  C   UNL d   1       8.230  33.049   2.431 -0.45 +0.01    +0.064 C 
DOCKED: ATOM      3  C   UNL d   1      12.869  33.316   1.321 -0.40 +0.00    +0.064 A 
DOCKED: ATOM      4  C   UNL d   1      11.804  36.323  -2.352 -0.41 +0.00    +0.064 A 
DOCKED: ATOM      5  C   UNL d   1       7.086  34.910  -0.275 -0.30 +0.01    +0.066 A 
DOCKED: ATOM      6  C   UNL d   1       5.882  34.652   0.410 -0.35 -0.00    -0.021 A 
DOCKED: ATOM      7  C   UNL d   1       6.211  33.908   1.526 -0.41 -0.00    -0.025 A 
DOCKED: ATOM      8  C   UNL d   1       7.597  33.730   1.466 -0.36 +0.01    +0.066 A 
DOCKED: ATOM      9  C   UNL d   1       5.267  33.378   2.616 -0.43 +0.00    +0.051 C 
DOCKED: ATOM     10  C   UNL d   1       9.648  32.793   2.440 -0.39 +0.00    +0.066 A 
DOCKED: ATOM     11  C   UNL d   1      10.351  31.969   3.346 -0.45 -0.00    -0.021 A 
DOCKED: ATOM     12  C   UNL d   1      11.701  32.062   2.997 -0.43 +0.00    +0.000 A 
DOCKED: ATOM     13  C   UNL d   1      11.721  32.923   1.900 -0.38 +0.00    +0.070 A 
DOCKED: ATOM     14  C   UNL d   1       9.742  31.086   4.405 -0.62 +0.00    +0.052 C 
DOCKED: ATOM     15  C   UNL d   1      13.076  34.235   0.219 -0.37 +0.01    +0.066 A 
DOCKED: ATOM     16  C   UNL d   1      14.297  34.711  -0.237 -0.45 -0.00    -0.021 A 
DOCKED: ATOM     17  C   UNL d   1      13.995  35.581  -1.295 -0.44 +0.00    +0.000 A 
DOCKED: ATOM     18  C   UNL d   1      12.609  35.553  -1.412 -0.36 +0.01    +0.070 A 
DOCKED: ATOM     19  C   UNL d   1      15.650  34.339   0.327 -0.53 +0.01    +0.052 C 
DOCKED: ATOM     20  C   UNL d   1      10.453  36.378  -2.427 -0.38 +0.01    +0.066 A 
DOCKED: ATOM     21  C   UNL d   1       9.792  37.184  -3.352 -0.38 -0.00    -0.025 A 
DOCKED: ATOM     22  C   UNL d   1       8.443  36.997  -3.113 -0.35 -0.00    -0.021 A 
DOCKED: ATOM     23  C   UNL d   1       8.347  36.088  -2.038 -0.27 +0.01    +0.066 A 
DOCKED: ATOM     24  C   UNL d   1      10.415  38.104  -4.399 -0.50 -0.00    +0.051 C 
DOCKED: ATOM     25  N   UNL d   1       8.165  34.335   0.358 -0.10 -0.05    -0.248 N 
DOCKED: ATOM     26  N   UNL d   1      10.474  33.320   1.529 -0.22 -0.02    -0.248 N 
DOCKED: ATOM     27  N   UNL d   1      12.094  34.765  -0.475 -0.14 -0.03    -0.248 N 
DOCKED: ATOM     28  N   UNL d   1       9.561  35.713  -1.619 -0.20 -0.05    -0.248 N 
DOCKED: ATOM     29 FE   UNL d   1      10.245  34.565  -0.086 -0.07 +0.00    +0.000 Fe
DOCKED: ENDROOT
DOCKED: BRANCH   6  30
DOCKED: ATOM     30  C   UNL d   1       4.497  35.173   0.041 -0.30 +0.02    +0.052 C 
DOCKED: BRANCH  30  31
DOCKED: ATOM     31  C   UNL d   1       3.953  34.433  -1.180 -0.18 +0.03    +0.115 C 
DOCKED: BRANCH  31  32
DOCKED: ATOM     32  C   UNL d   1       3.096  35.320  -2.058 -0.12 +0.05    +0.139 C 
DOCKED: ATOM     33  O   UNL d   1       2.588  36.325  -1.583 -0.02 -0.45    -0.650 OA
DOCKED: BRANCH  32  34
DOCKED: ATOM     34  O   UNL d   1       2.910  35.064  -3.374 +0.04 -0.20    -0.776 OA
DOCKED: ATOM     35  H   UNL d   1       3.238  35.626  -4.089 +0.03 +0.04    +0.167 HD
DOCKED: ENDBRANCH  32  34
DOCKED: ENDBRANCH  31  32
DOCKED: ENDBRANCH  30  31
DOCKED: ENDBRANCH   6  30
DOCKED: BRANCH  29  36
DOCKED: ATOM     36  C   UNL d   1      10.221  36.222   1.197 -0.27 +0.03    +0.190 C 
DOCKED: BRANCH  36  37
DOCKED: ATOM     37  O   UNL d   1      10.364  37.613   1.223 -0.25 -0.05    -0.399 OA
DOCKED: ATOM     38  H   UNL d   1      10.202  37.906   0.283 +0.12 +0.03    +0.209 HD
DOCKED: ENDBRANCH  36  37
DOCKED: ENDBRANCH  29  36
DOCKED: BRANCH  22  39
DOCKED: ATOM     39  C   UNL d   1       7.315  37.706  -3.839 -0.28 +0.00    +0.052 C 
DOCKED: BRANCH  39  40
DOCKED: ATOM     40  C   UNL d   1       6.364  36.688  -4.489 -0.21 +0.01    +0.115 C 
DOCKED: BRANCH  40  41
DOCKED: ATOM     41  C   UNL d   1       5.021  37.258  -4.896 -0.10 +0.02    +0.139 C 
DOCKED: ATOM     42  O   UNL d   1       4.736  37.328  -6.083 +0.02 -0.09    -0.650 OA
DOCKED: BRANCH  41  43
DOCKED: ATOM     43  O   UNL d   1       4.093  37.612  -3.980 +0.05 -0.23    -0.776 OA
DOCKED: ATOM     44  H   UNL d   1       3.713  36.981  -3.355 +0.04 +0.06    +0.167 HD
DOCKED: ENDBRANCH  41  43
DOCKED: ENDBRANCH  40  41
DOCKED: ENDBRANCH  39  40
DOCKED: ENDBRANCH  22  39
DOCKED: BRANCH  12  45
DOCKED: ATOM     45  C   UNL d   1      12.965  31.425   3.559 -0.62 +0.00    +0.004 C 
DOCKED: ATOM     46  C   UNL d   1      13.159  30.235   4.122 -0.71 +0.00    +0.012 C 
DOCKED: ENDBRANCH  12  45
DOCKED: BRANCH  17  47
DOCKED: ATOM     47  C   UNL d   1      14.905  36.429  -2.122 -0.59 +0.00    +0.004 C 
DOCKED: ATOM     48  C   UNL d   1      15.329  37.638  -1.746 -0.65 +0.00    +0.012 C 
DOCKED: ENDBRANCH  17  47
DOCKED: TORSDOF 12
DOCKED: TER
DOCKED: ENDMDL
________________________________________________________________________________


	BEGINNING GENETIC ALGORITHM DOCKING 70 of 100
Run: 70 Seed: 1492045656 936903324 [ Run 70 of 100 GA/GALS ]
Beginning LAMARCKIAN GENETIC ALGORITHM (LGA), with a maximum of 25000000 energy evaluations.

Final-Value: -11.484


	FINAL GENETIC ALGORITHM DOCKED STATE
	_______________________________________________


Detailed state:  trans 25.295 45.144 -2.641 quatxyzw 0.432794 0.893382 0.009591 0.120272 center 8.781 34.984 -0.736 ntor 12 158.3242 119.3599 -115.8263 19.3322 88.9240 143.8095 -129.5189 33.2764 -134.8878 -33.2226 -177.9997 180.0000
State:	 25.295  45.144  -2.641   0.436  0.900  0.010 166.184    158.32  119.36 -115.83   19.33   88.92  143.81 -129.52   33.28 -134.89  -33.22 -178.00  180.00

DOCKED: MODEL       70
DOCKED: USER    Run = 70
DOCKED: USER    DPF = D:/Protein_go_brrr/autodock/final/2DN3/heme_Co/dock.dpf
DOCKED: USER  
DOCKED: USER    Estimated Free Energy of Binding    =   -5.79 kcal/mol  [=(1)+(2)+(3)-(4)]
DOCKED: USER    Estimated Inhibition Constant, Ki   =   57.20 uM (micromolar)  [Temperature = 298.15 K]
DOCKED: USER    
DOCKED: USER    (1) Final Intermolecular Energy     =   -9.37 kcal/mol
DOCKED: USER        vdW + Hbond + desolv Energy     =   -7.50 kcal/mol
DOCKED: USER        Electrostatic Energy            =   -1.86 kcal/mol
DOCKED: USER    (2) Final Total Internal Energy     =   -2.12 kcal/mol
DOCKED: USER    (3) Torsional Free Energy           =   +3.58 kcal/mol
DOCKED: USER    (4) Unbound System's Energy  [=(2)] =   -2.12 kcal/mol
DOCKED: USER    
DOCKED: USER    
DOCKED: USER    NEWDPF move heme_Co_opt.pdbqt
DOCKED: USER    NEWDPF about 8.781000 34.984000 -0.736000
DOCKED: USER    NEWDPF tran0 25.294543 45.143943 -2.640532
DOCKED: USER    NEWDPF quaternion0 0.432794 0.893382 0.009591 0.120272
DOCKED: USER    NEWDPF axisangle0 0.435958 0.899915 0.009661 166.184357
DOCKED: USER    NEWDPF quat0 0.435958 0.899915 0.009661 166.184357
DOCKED: USER    NEWDPF dihe0 158.32 119.36 -115.83 19.33 88.92 143.81 -129.52 33.28 -134.89 -33.22 -178.00 180.00 
DOCKED: USER  keepresnum = 1 
DOCKED: USER  
DOCKED: REMARK  12 active torsions:
DOCKED: REMARK  status: ('A' for Active; 'I' for Inactive)
DOCKED: REMARK    1  A    between atoms: C_6  and  C_10 
DOCKED: REMARK    2  A    between atoms: C_10  and  C_11 
DOCKED: REMARK    3  A    between atoms: C_11  and  C_12 
DOCKED: REMARK    4  A    between atoms: C_12  and  O_14 
DOCKED: REMARK    5  A    between atoms: C_17  and  C_20 
DOCKED: REMARK    6  A    between atoms: C_24  and  C_27 
DOCKED: REMARK    7  A    between atoms: C_31  and  C_34 
DOCKED: REMARK    8  A    between atoms: C_34  and  C_35 
DOCKED: REMARK    9  A    between atoms: C_35  and  C_36 
DOCKED: REMARK   10  A    between atoms: C_36  and  O_38 
DOCKED: REMARK   11  A    between atoms: FE_43  and  C_44 
DOCKED: REMARK   12  A    between atoms: C_44  and  O_45 
DOCKED: USER                              x       y       z     vdW  Elec       q    Type
DOCKED: USER                           _______ _______ _______ _____ _____    ______ ____
DOCKED: ROOT
DOCKED: ATOM      1  C   UNL d   1      27.011  43.861  -2.291 -0.16 +0.02    +0.064 A 
DOCKED: ATOM      2  C   UNL d   1      23.426  43.621  -5.404 -0.12 +0.01    +0.064 C 
DOCKED: ATOM      3  C   UNL d   1      21.356  47.417  -3.370 -0.26 -0.01    +0.064 A 
DOCKED: ATOM      4  C   UNL d   1      25.196  47.917  -0.427 -0.08 +0.01    +0.064 A 
DOCKED: ATOM      5  C   UNL d   1      26.166  43.495  -3.268 -0.22 +0.01    +0.066 A 
DOCKED: ATOM      6  C   UNL d   1      26.460  42.441  -4.155 -0.19 -0.00    -0.021 A 
DOCKED: ATOM      7  C   UNL d   1      25.427  42.391  -5.070 -0.20 -0.00    -0.025 A 
DOCKED: ATOM      8  C   UNL d   1      24.539  43.404  -4.693 -0.18 +0.01    +0.066 A 
DOCKED: ATOM      9  C   UNL d   1      25.268  41.432  -6.261 -0.15 +0.01    +0.051 C 
DOCKED: ATOM     10  C   UNL d   1      22.441  44.623  -5.077 -0.23 +0.01    +0.066 A 
DOCKED: ATOM     11  C   UNL d   1      21.187  44.808  -5.699 -0.33 -0.00    -0.021 A 
DOCKED: ATOM     12  C   UNL d   1      20.603  45.918  -5.084 -0.34 -0.00    +0.000 A 
DOCKED: ATOM     13  C   UNL d   1      21.536  46.320  -4.127 -0.27 -0.00    +0.070 A 
DOCKED: ATOM     14  C   UNL d   1      20.568  43.913  -6.742 -0.36 +0.01    +0.052 C 
DOCKED: ATOM     15  C   UNL d   1      22.234  48.003  -2.377 -0.19 +0.00    +0.066 A 
DOCKED: ATOM     16  C   UNL d   1      22.054  49.220  -1.734 -0.16 +0.00    -0.021 A 
DOCKED: ATOM     17  C   UNL d   1      23.160  49.370  -0.886 -0.11 +0.00    +0.000 A 
DOCKED: ATOM     18  C   UNL d   1      23.922  48.220  -1.066 -0.08 +0.01    +0.070 A 
DOCKED: ATOM     19  C   UNL d   1      20.885  50.158  -1.943 -0.19 -0.01    +0.052 C 
DOCKED: ATOM     20  C   UNL d   1      25.997  46.848  -0.650 -0.07 +0.02    +0.066 A 
DOCKED: ATOM     21  C   UNL d   1      27.218  46.684   0.001 -0.12 -0.01    -0.025 A 
DOCKED: ATOM     22  C   UNL d   1      27.750  45.508  -0.495 -0.13 -0.01    -0.021 A 
DOCKED: ATOM     23  C   UNL d   1      26.826  45.015  -1.441 -0.14 +0.02    +0.066 A 
DOCKED: ATOM     24  C   UNL d   1      27.856  47.613   1.030 -0.11 +0.02    +0.051 C 
DOCKED: ATOM     25  N   UNL d   1      24.969  44.100  -3.576 -0.21 -0.05    -0.248 N 
DOCKED: ATOM     26  N   UNL d   1      22.621  45.502  -4.086 -0.20 -0.01    -0.248 N 
DOCKED: ATOM     27  N   UNL d   1      23.356  47.444  -1.983 -0.04 -0.03    -0.248 N 
DOCKED: ATOM     28  N   UNL d   1      25.765  45.824  -1.539 -0.02 -0.07    -0.248 N 
DOCKED: ATOM     29 FE   UNL d   1      24.117  45.871  -2.730 -0.06 +0.00    +0.000 Fe
DOCKED: ENDROOT
DOCKED: BRANCH   6  30
DOCKED: ATOM     30  C   UNL d   1      27.721  41.583  -4.162 -0.12 +0.01    +0.052 C 
DOCKED: BRANCH  30  31
DOCKED: ATOM     31  C   UNL d   1      28.757  42.159  -5.126 -0.03 +0.02    +0.115 C 
DOCKED: BRANCH  31  32
DOCKED: ATOM     32  C   UNL d   1      28.873  43.664  -5.018 -0.01 +0.02    +0.139 C 
DOCKED: ATOM     33  O   UNL d   1      29.800  44.152  -4.388 +0.01 -0.13    -0.650 OA
DOCKED: BRANCH  32  34
DOCKED: ATOM     34  O   UNL d   1      28.006  44.497  -5.639 +0.02 -0.10    -0.776 OA
DOCKED: ATOM     35  H   UNL d   1      27.805  45.395  -5.339 +0.01 +0.02    +0.167 HD
DOCKED: ENDBRANCH  32  34
DOCKED: ENDBRANCH  31  32
DOCKED: ENDBRANCH  30  31
DOCKED: ENDBRANCH   6  30
DOCKED: BRANCH  29  36
DOCKED: ATOM     36  C   UNL d   1      25.174  46.941  -4.190 -0.05 +0.02    +0.190 C 
DOCKED: BRANCH  36  37
DOCKED: ATOM     37  O   UNL d   1      26.169  46.812  -5.164 -0.00 -0.04    -0.399 OA
DOCKED: ATOM     38  H   UNL d   1      26.380  45.837  -5.188 +0.02 +0.02    +0.209 HD
DOCKED: ENDBRANCH  36  37
DOCKED: ENDBRANCH  29  36
DOCKED: BRANCH  22  39
DOCKED: ATOM     39  C   UNL d   1      29.103  44.930  -0.125 -0.12 +0.02    +0.052 C 
DOCKED: BRANCH  39  40
DOCKED: ATOM     40  C   UNL d   1      30.230  45.663  -0.874 -0.08 +0.06    +0.115 C 
DOCKED: BRANCH  40  41
DOCKED: ATOM     41  C   UNL d   1      31.479  45.896  -0.050 -0.08 +0.16    +0.139 C 
DOCKED: ATOM     42  O   UNL d   1      32.484  46.326  -0.597 -0.36 -0.99    -0.650 OA
DOCKED: BRANCH  41  43
DOCKED: ATOM     43  O   UNL d   1      31.488  45.725   1.291 -0.38 -1.03    -0.776 OA
DOCKED: ATOM     44  H   UNL d   1      31.553  46.465   1.908 -0.49 +0.11    +0.167 HD
DOCKED: ENDBRANCH  41  43
DOCKED: ENDBRANCH  40  41
DOCKED: ENDBRANCH  39  40
DOCKED: ENDBRANCH  22  39
DOCKED: BRANCH  12  45
DOCKED: ATOM     45  C   UNL d   1      19.271  46.631  -5.276 -0.35 -0.00    +0.004 C 
DOCKED: ATOM     46  C   UNL d   1      18.192  46.278  -5.969 -0.38 -0.00    +0.012 C 
DOCKED: ENDBRANCH  12  45
DOCKED: BRANCH  17  47
DOCKED: ATOM     47  C   UNL d   1      23.534  50.512   0.001 -0.08 +0.00    +0.004 C 
DOCKED: ATOM     48  C   UNL d   1      22.837  50.863   1.084 -0.13 -0.00    +0.012 C 
DOCKED: ENDBRANCH  17  47
DOCKED: TORSDOF 12
DOCKED: TER
DOCKED: ENDMDL
________________________________________________________________________________


	BEGINNING GENETIC ALGORITHM DOCKING 71 of 100
Run: 71 Seed: 1772767839 192837332 [ Run 71 of 100 GA/GALS ]
Beginning LAMARCKIAN GENETIC ALGORITHM (LGA), with a maximum of 25000000 energy evaluations.

Final-Value: -16.173


	FINAL GENETIC ALGORITHM DOCKED STATE
	_______________________________________________


Detailed state:  trans 9.041 35.084 -0.514 quatxyzw -0.026438 -0.028561 -0.038102 -0.998516 center 8.781 34.984 -0.736 ntor 12 41.2476 132.8533 -77.2556 63.8683 -66.6290 37.3397 -23.9740 -170.5384 -23.7846 -55.1895 58.5617 20.1977
State:	  9.041  35.084  -0.514  -0.485 -0.524 -0.700 -6.244     41.25  132.85  -77.26   63.87  -66.63   37.34  -23.97 -170.54  -23.78  -55.19   58.56   20.20

DOCKED: MODEL       71
DOCKED: USER    Run = 71
DOCKED: USER    DPF = D:/Protein_go_brrr/autodock/final/2DN3/heme_Co/dock.dpf
DOCKED: USER  
DOCKED: USER    Estimated Free Energy of Binding    =  -12.02 kcal/mol  [=(1)+(2)+(3)-(4)]
DOCKED: USER    Estimated Inhibition Constant, Ki   =    1.54 nM (nanomolar)  [Temperature = 298.15 K]
DOCKED: USER    
DOCKED: USER    (1) Final Intermolecular Energy     =  -15.60 kcal/mol
DOCKED: USER        vdW + Hbond + desolv Energy     =  -14.56 kcal/mol
DOCKED: USER        Electrostatic Energy            =   -1.04 kcal/mol
DOCKED: USER    (2) Final Total Internal Energy     =   -0.57 kcal/mol
DOCKED: USER    (3) Torsional Free Energy           =   +3.58 kcal/mol
DOCKED: USER    (4) Unbound System's Energy  [=(2)] =   -0.57 kcal/mol
DOCKED: USER    
DOCKED: USER    
DOCKED: USER    NEWDPF move heme_Co_opt.pdbqt
DOCKED: USER    NEWDPF about 8.781000 34.984000 -0.736000
DOCKED: USER    NEWDPF tran0 9.041271 35.084355 -0.514499
DOCKED: USER    NEWDPF quaternion0 -0.026438 -0.028561 -0.038102 -0.998516
DOCKED: USER    NEWDPF axisangle0 -0.485406 -0.524395 -0.699565 -6.244348
DOCKED: USER    NEWDPF quat0 -0.485406 -0.524395 -0.699565 -6.244348
DOCKED: USER    NEWDPF dihe0 41.25 132.85 -77.26 63.87 -66.63 37.34 -23.97 -170.54 -23.78 -55.19 58.56 20.20 
DOCKED: USER  keepresnum = 1 
DOCKED: USER  
DOCKED: REMARK  12 active torsions:
DOCKED: REMARK  status: ('A' for Active; 'I' for Inactive)
DOCKED: REMARK    1  A    between atoms: C_6  and  C_10 
DOCKED: REMARK    2  A    between atoms: C_10  and  C_11 
DOCKED: REMARK    3  A    between atoms: C_11  and  C_12 
DOCKED: REMARK    4  A    between atoms: C_12  and  O_14 
DOCKED: REMARK    5  A    between atoms: C_17  and  C_20 
DOCKED: REMARK    6  A    between atoms: C_24  and  C_27 
DOCKED: REMARK    7  A    between atoms: C_31  and  C_34 
DOCKED: REMARK    8  A    between atoms: C_34  and  C_35 
DOCKED: REMARK    9  A    between atoms: C_35  and  C_36 
DOCKED: REMARK   10  A    between atoms: C_36  and  O_38 
DOCKED: REMARK   11  A    between atoms: FE_43  and  C_44 
DOCKED: REMARK   12  A    between atoms: C_44  and  O_45 
DOCKED: USER                              x       y       z     vdW  Elec       q    Type
DOCKED: USER                           _______ _______ _______ _____ _____    ______ ____
DOCKED: ROOT
DOCKED: ATOM      1  C   UNL d   1       7.201  35.679  -1.501 -0.20 +0.01    +0.064 A 
DOCKED: ATOM      2  C   UNL d   1       8.042  33.142   2.431 -0.44 +0.01    +0.064 C 
DOCKED: ATOM      3  C   UNL d   1      12.742  33.326   1.590 -0.35 +0.00    +0.064 A 
DOCKED: ATOM      4  C   UNL d   1      11.932  36.244  -2.217 -0.41 +0.00    +0.064 A 
DOCKED: ATOM      5  C   UNL d   1       7.083  34.941  -0.385 -0.30 +0.01    +0.066 A 
DOCKED: ATOM      6  C   UNL d   1       5.838  34.715   0.234 -0.33 -0.00    -0.021 A 
DOCKED: ATOM      7  C   UNL d   1       6.091  33.998   1.387 -0.40 -0.00    -0.025 A 
DOCKED: ATOM      8  C   UNL d   1       7.476  33.803   1.414 -0.37 +0.01    +0.066 A 
DOCKED: ATOM      9  C   UNL d   1       5.078  33.508   2.433 -0.45 +0.00    +0.051 C 
DOCKED: ATOM     10  C   UNL d   1       9.454  32.870   2.531 -0.38 +0.01    +0.066 A 
DOCKED: ATOM     11  C   UNL d   1      10.092  32.063   3.499 -0.46 -0.00    -0.021 A 
DOCKED: ATOM     12  C   UNL d   1      11.461  32.131   3.227 -0.44 +0.00    +0.000 A 
DOCKED: ATOM     13  C   UNL d   1      11.556  32.962   2.111 -0.36 +0.00    +0.070 A 
DOCKED: ATOM     14  C   UNL d   1       9.411  31.216   4.543 -0.64 +0.00    +0.052 C 
DOCKED: ATOM     15  C   UNL d   1      13.025  34.213   0.479 -0.37 +0.01    +0.066 A 
DOCKED: ATOM     16  C   UNL d   1      14.276  34.663   0.083 -0.45 -0.00    -0.021 A 
DOCKED: ATOM     17  C   UNL d   1      14.048  35.506  -1.014 -0.43 +0.00    +0.000 A 
DOCKED: ATOM     18  C   UNL d   1      12.671  35.491  -1.211 -0.36 +0.01    +0.070 A 
DOCKED: ATOM     19  C   UNL d   1      15.589  34.290   0.735 -0.54 +0.00    +0.052 C 
DOCKED: ATOM     20  C   UNL d   1      10.589  36.312  -2.374 -0.38 +0.01    +0.066 A 
DOCKED: ATOM     21  C   UNL d   1       9.994  37.100  -3.357 -0.38 -0.00    -0.025 A 
DOCKED: ATOM     22  C   UNL d   1       8.631  36.935  -3.193 -0.36 -0.00    -0.021 A 
DOCKED: ATOM     23  C   UNL d   1       8.460  36.056  -2.102 -0.30 +0.01    +0.066 A 
DOCKED: ATOM     24  C   UNL d   1      10.689  37.984  -4.389 -0.51 -0.00    +0.051 C 
DOCKED: ATOM     25  N   UNL d   1       8.115  34.372   0.325 -0.15 -0.05    -0.248 N 
DOCKED: ATOM     26  N   UNL d   1      10.338  33.362   1.657 -0.23 -0.02    -0.248 N 
DOCKED: ATOM     27  N   UNL d   1      12.092  34.735  -0.286 -0.17 -0.03    -0.248 N 
DOCKED: ATOM     28  N   UNL d   1       9.643  35.679  -1.601 -0.19 -0.05    -0.248 N 
DOCKED: ATOM     29 FE   UNL d   1      10.221  34.566  -0.002 -0.08 +0.00    +0.000 Fe
DOCKED: ENDROOT
DOCKED: BRANCH   6  30
DOCKED: ATOM     30  C   UNL d   1       4.483  35.241  -0.229 -0.29 +0.02    +0.052 C 
DOCKED: BRANCH  30  31
DOCKED: ATOM     31  C   UNL d   1       3.392  34.198   0.009 -0.20 +0.03    +0.115 C 
DOCKED: BRANCH  31  32
DOCKED: ATOM     32  C   UNL d   1       2.022  34.821   0.168 -0.14 +0.07    +0.139 C 
DOCKED: ATOM     33  O   UNL d   1       1.168  34.237   0.818 -0.01 -0.24    -0.650 OA
DOCKED: BRANCH  32  34
DOCKED: ATOM     34  O   UNL d   1       1.722  36.036  -0.348 -0.07 -0.75    -0.776 OA
DOCKED: ATOM     35  H   UNL d   1       2.051  36.362  -1.197 +0.03 +0.15    +0.167 HD
DOCKED: ENDBRANCH  32  34
DOCKED: ENDBRANCH  31  32
DOCKED: ENDBRANCH  30  31
DOCKED: ENDBRANCH   6  30
DOCKED: BRANCH  29  36
DOCKED: ATOM     36  C   UNL d   1      10.143  36.257   1.234 -0.23 +0.03    +0.190 C 
DOCKED: BRANCH  36  37
DOCKED: ATOM     37  O   UNL d   1      10.351  37.640   1.244 -0.25 -0.05    -0.399 OA
DOCKED: ATOM     38  H   UNL d   1      10.315  37.912   0.284 +0.12 +0.03    +0.209 HD
DOCKED: ENDBRANCH  36  37
DOCKED: ENDBRANCH  29  36
DOCKED: BRANCH  22  39
DOCKED: ATOM     39  C   UNL d   1       7.556  37.636  -4.002 -0.29 +0.00    +0.052 C 
DOCKED: BRANCH  39  40
DOCKED: ATOM     40  C   UNL d   1       6.650  36.611  -4.705 -0.23 +0.01    +0.115 C 
DOCKED: BRANCH  40  41
DOCKED: ATOM     41  C   UNL d   1       5.193  36.684  -4.301 -0.14 +0.02    +0.139 C 
DOCKED: ATOM     42  O   UNL d   1       4.904  37.016  -3.160 +0.01 -0.17    -0.650 OA
DOCKED: BRANCH  41  43
DOCKED: ATOM     43  O   UNL d   1       4.198  36.477  -5.192 +0.03 -0.14    -0.776 OA
DOCKED: ATOM     44  H   UNL d   1       3.988  37.108  -5.892 +0.02 +0.03    +0.167 HD
DOCKED: ENDBRANCH  41  43
DOCKED: ENDBRANCH  40  41
DOCKED: ENDBRANCH  39  40
DOCKED: ENDBRANCH  22  39
DOCKED: BRANCH  12  45
DOCKED: ATOM     45  C   UNL d   1      12.682  31.496   3.879 -0.59 +0.00    +0.004 C 
DOCKED: ATOM     46  C   UNL d   1      12.967  30.220   4.123 -0.69 +0.00    +0.012 C 
DOCKED: ENDBRANCH  12  45
DOCKED: BRANCH  17  47
DOCKED: ATOM     47  C   UNL d   1      15.015  36.322  -1.808 -0.58 +0.00    +0.004 C 
DOCKED: ATOM     48  C   UNL d   1      15.366  37.569  -1.486 -0.65 +0.00    +0.012 C 
DOCKED: ENDBRANCH  17  47
DOCKED: TORSDOF 12
DOCKED: TER
DOCKED: ENDMDL
________________________________________________________________________________


	BEGINNING GENETIC ALGORITHM DOCKING 72 of 100
Run: 72 Seed: 54456235 924141568 [ Run 72 of 100 GA/GALS ]
Beginning LAMARCKIAN GENETIC ALGORITHM (LGA), with a maximum of 25000000 energy evaluations.

Final-Value: -13.198


	FINAL GENETIC ALGORITHM DOCKED STATE
	_______________________________________________


Detailed state:  trans 45.566 26.008 19.343 quatxyzw 0.526325 0.824724 -0.195894 -0.066615 center 8.781 34.984 -0.736 ntor 12 -52.3379 101.1010 64.6908 -14.8875 72.8746 146.7938 37.2478 61.2790 139.0916 -117.4753 -158.0490 -37.4506
State:	 45.566  26.008  19.343   0.527  0.827 -0.196 -172.361    -52.34  101.10   64.69  -14.89   72.87  146.79   37.25   61.28  139.09 -117.48 -158.05  -37.45

DOCKED: MODEL       72
DOCKED: USER    Run = 72
DOCKED: USER    DPF = D:/Protein_go_brrr/autodock/final/2DN3/heme_Co/dock.dpf
DOCKED: USER  
DOCKED: USER    Estimated Free Energy of Binding    =   -7.73 kcal/mol  [=(1)+(2)+(3)-(4)]
DOCKED: USER    Estimated Inhibition Constant, Ki   =    2.17 uM (micromolar)  [Temperature = 298.15 K]
DOCKED: USER    
DOCKED: USER    (1) Final Intermolecular Energy     =  -11.31 kcal/mol
DOCKED: USER        vdW + Hbond + desolv Energy     =   -7.78 kcal/mol
DOCKED: USER        Electrostatic Energy            =   -3.52 kcal/mol
DOCKED: USER    (2) Final Total Internal Energy     =   -1.89 kcal/mol
DOCKED: USER    (3) Torsional Free Energy           =   +3.58 kcal/mol
DOCKED: USER    (4) Unbound System's Energy  [=(2)] =   -1.89 kcal/mol
DOCKED: USER    
DOCKED: USER    
DOCKED: USER    NEWDPF move heme_Co_opt.pdbqt
DOCKED: USER    NEWDPF about 8.781000 34.984000 -0.736000
DOCKED: USER    NEWDPF tran0 45.566083 26.008357 19.343430
DOCKED: USER    NEWDPF quaternion0 0.526325 0.824724 -0.195894 -0.066615
DOCKED: USER    NEWDPF axisangle0 0.527496 0.826560 -0.196330 -172.360861
DOCKED: USER    NEWDPF quat0 0.527496 0.826560 -0.196330 -172.360861
DOCKED: USER    NEWDPF dihe0 -52.34 101.10 64.69 -14.89 72.87 146.79 37.25 61.28 139.09 -117.48 -158.05 -37.45 
DOCKED: USER  keepresnum = 1 
DOCKED: USER  
DOCKED: REMARK  12 active torsions:
DOCKED: REMARK  status: ('A' for Active; 'I' for Inactive)
DOCKED: REMARK    1  A    between atoms: C_6  and  C_10 
DOCKED: REMARK    2  A    between atoms: C_10  and  C_11 
DOCKED: REMARK    3  A    between atoms: C_11  and  C_12 
DOCKED: REMARK    4  A    between atoms: C_12  and  O_14 
DOCKED: REMARK    5  A    between atoms: C_17  and  C_20 
DOCKED: REMARK    6  A    between atoms: C_24  and  C_27 
DOCKED: REMARK    7  A    between atoms: C_31  and  C_34 
DOCKED: REMARK    8  A    between atoms: C_34  and  C_35 
DOCKED: REMARK    9  A    between atoms: C_35  and  C_36 
DOCKED: REMARK   10  A    between atoms: C_36  and  O_38 
DOCKED: REMARK   11  A    between atoms: FE_43  and  C_44 
DOCKED: REMARK   12  A    between atoms: C_44  and  O_45 
DOCKED: USER                              x       y       z     vdW  Elec       q    Type
DOCKED: USER                           _______ _______ _______ _____ _____    ______ ____
DOCKED: ROOT
DOCKED: ATOM      1  C   UNL d   1      46.940  24.897  20.606 -0.05 +0.04    +0.064 A 
DOCKED: ATOM      2  C   UNL d   1      43.651  23.507  17.466 -0.34 +0.03    +0.064 C 
DOCKED: ATOM      3  C   UNL d   1      42.267  28.038  16.852 -0.30 +0.02    +0.064 A 
DOCKED: ATOM      4  C   UNL d   1      45.873  29.520  19.762 -0.18 +0.05    +0.064 A 
DOCKED: ATOM      5  C   UNL d   1      46.119  24.181  19.821 -0.12 +0.04    +0.066 A 
DOCKED: ATOM      6  C   UNL d   1      46.257  22.788  19.669 -0.15 -0.01    -0.021 A 
DOCKED: ATOM      7  C   UNL d   1      45.315  22.393  18.740 -0.07 -0.02    -0.025 A 
DOCKED: ATOM      8  C   UNL d   1      44.632  23.558  18.376 -0.22 +0.04    +0.066 A 
DOCKED: ATOM      9  C   UNL d   1      45.056  20.976  18.204 -0.10 +0.03    +0.051 C 
DOCKED: ATOM     10  C   UNL d   1      42.876  24.649  17.049 -0.31 +0.02    +0.066 A 
DOCKED: ATOM     11  C   UNL d   1      41.744  24.637  16.205 -0.40 -0.01    -0.021 A 
DOCKED: ATOM     12  C   UNL d   1      41.359  25.971  16.046 -0.38 +0.00    +0.000 A 
DOCKED: ATOM     13  C   UNL d   1      42.273  26.694  16.812 -0.32 +0.02    +0.070 A 
DOCKED: ATOM     14  C   UNL d   1      41.038  23.415  15.676 -0.54 +0.01    +0.052 C 
DOCKED: ATOM     15  C   UNL d   1      43.165  28.942  17.544 -0.24 +0.02    +0.066 A 
DOCKED: ATOM     16  C   UNL d   1      43.192  30.325  17.427 -0.35 -0.01    -0.021 A 
DOCKED: ATOM     17  C   UNL d   1      44.232  30.757  18.262 -0.30 +0.00    +0.000 A 
DOCKED: ATOM     18  C   UNL d   1      44.748  29.600  18.839 -0.22 +0.03    +0.070 A 
DOCKED: ATOM     19  C   UNL d   1      42.268  31.150  16.559 -0.07 +0.01    +0.052 C 
DOCKED: ATOM     20  C   UNL d   1      46.446  28.402  20.267 -0.14 +0.06    +0.066 A 
DOCKED: ATOM     21  C   UNL d   1      47.548  28.452  21.119 -0.04 -0.03    -0.025 A 
DOCKED: ATOM     22  C   UNL d   1      47.860  27.134  21.402 -0.06 -0.02    -0.021 A 
DOCKED: ATOM     23  C   UNL d   1      46.933  26.340  20.694 -0.07 +0.05    +0.066 A 
DOCKED: ATOM     24  C   UNL d   1      48.281  29.692  21.622 -0.09 +0.05    +0.051 C 
DOCKED: ATOM     25  N   UNL d   1      45.105  24.681  19.034 -0.10 -0.14    -0.248 N 
DOCKED: ATOM     26  N   UNL d   1      43.155  25.889  17.462 -0.19 -0.09    -0.248 N 
DOCKED: ATOM     27  N   UNL d   1      44.108  28.537  18.365 -0.09 -0.11    -0.248 N 
DOCKED: ATOM     28  N   UNL d   1      46.077  27.103  20.004 -0.07 -0.19    -0.248 N 
DOCKED: ATOM     29 FE   UNL d   1      44.579  26.724  18.682 -0.05 +0.00    +0.000 Fe
DOCKED: ENDROOT
DOCKED: BRANCH   6  30
DOCKED: ATOM     30  C   UNL d   1      47.305  21.900  20.332 -0.11 +0.03    +0.052 C 
DOCKED: BRANCH  30  31
DOCKED: ATOM     31  C   UNL d   1      48.673  22.108  19.683 -0.06 +0.07    +0.115 C 
DOCKED: BRANCH  31  32
DOCKED: ATOM     32  C   UNL d   1      48.590  22.185  18.174 +0.03 +0.18    +0.139 C 
DOCKED: ATOM     33  O   UNL d   1      48.730  21.168  17.511 -0.11 -1.30    -0.650 OA
DOCKED: BRANCH  32  34
DOCKED: ATOM     34  O   UNL d   1      48.315  23.343  17.529 +0.21 -1.17    -0.776 OA
DOCKED: ATOM     35  H   UNL d   1      47.526  23.879  17.686 +0.03 +0.20    +0.167 HD
DOCKED: ENDBRANCH  32  34
DOCKED: ENDBRANCH  31  32
DOCKED: ENDBRANCH  30  31
DOCKED: ENDBRANCH   6  30
DOCKED: BRANCH  29  36
DOCKED: ATOM     36  C   UNL d   1      45.954  26.688  17.100 +0.03 +0.10    +0.190 C 
DOCKED: BRANCH  36  37
DOCKED: ATOM     37  O   UNL d   1      46.946  25.903  16.504 -0.17 -0.29    -0.399 OA
DOCKED: ATOM     38  H   UNL d   1      47.126  25.174  17.161 +0.06 +0.18    +0.209 HD
DOCKED: ENDBRANCH  36  37
DOCKED: ENDBRANCH  29  36
DOCKED: BRANCH  22  39
DOCKED: ATOM     39  C   UNL d   1      49.026  26.670  22.254 -0.02 +0.03    +0.052 C 
DOCKED: BRANCH  39  40
DOCKED: ATOM     40  C   UNL d   1      48.862  27.150  23.706 -0.04 +0.09    +0.115 C 
DOCKED: BRANCH  40  41
DOCKED: ATOM     41  C   UNL d   1      47.574  26.709  24.368 +0.02 +0.17    +0.139 C 
DOCKED: ATOM     42  O   UNL d   1      47.175  27.307  25.358 -0.44 -1.07    -0.650 OA
DOCKED: BRANCH  41  43
DOCKED: ATOM     43  O   UNL d   1      46.806  25.728  23.845 +0.04 -0.76    -0.776 OA
DOCKED: ATOM     44  H   UNL d   1      47.072  24.800  23.854 +0.03 +0.10    +0.167 HD
DOCKED: ENDBRANCH  41  43
DOCKED: ENDBRANCH  40  41
DOCKED: ENDBRANCH  39  40
DOCKED: ENDBRANCH  22  39
DOCKED: BRANCH  12  45
DOCKED: ATOM     45  C   UNL d   1      40.227  26.640  15.278 -0.48 +0.00    +0.004 C 
DOCKED: ATOM     46  C   UNL d   1      39.527  26.221  14.227 -0.54 +0.00    +0.012 C 
DOCKED: ENDBRANCH  12  45
DOCKED: BRANCH  17  47
DOCKED: ATOM     47  C   UNL d   1      44.765  32.133  18.489 -0.29 +0.00    +0.004 C 
DOCKED: ATOM     48  C   UNL d   1      43.995  33.179  18.800 -0.41 +0.00    +0.012 C 
DOCKED: ENDBRANCH  17  47
DOCKED: TORSDOF 12
DOCKED: TER
DOCKED: ENDMDL
________________________________________________________________________________


	BEGINNING GENETIC ALGORITHM DOCKING 73 of 100
Run: 73 Seed: 1852376964 615632349 [ Run 73 of 100 GA/GALS ]
Beginning LAMARCKIAN GENETIC ALGORITHM (LGA), with a maximum of 25000000 energy evaluations.

Final-Value: -13.553


	FINAL GENETIC ALGORITHM DOCKED STATE
	_______________________________________________


Detailed state:  trans 3.372 35.015 -2.690 quatxyzw -0.132817 -0.000552 0.100166 -0.986066 center 8.781 34.984 -0.736 ntor 12 33.9288 106.5895 -138.6648 63.8543 -21.7506 113.6816 30.6124 115.2045 175.2207 140.7421 -172.4000 171.3377
State:	  3.372  35.015  -2.690  -0.798 -0.003  0.602 -19.152     33.93  106.59 -138.66   63.85  -21.75  113.68   30.61  115.20  175.22  140.74 -172.40  171.34

DOCKED: MODEL       73
DOCKED: USER    Run = 73
DOCKED: USER    DPF = D:/Protein_go_brrr/autodock/final/2DN3/heme_Co/dock.dpf
DOCKED: USER  
DOCKED: USER    Estimated Free Energy of Binding    =   -6.07 kcal/mol  [=(1)+(2)+(3)-(4)]
DOCKED: USER    Estimated Inhibition Constant, Ki   =   35.69 uM (micromolar)  [Temperature = 298.15 K]
DOCKED: USER    
DOCKED: USER    (1) Final Intermolecular Energy     =   -9.65 kcal/mol
DOCKED: USER        vdW + Hbond + desolv Energy     =   -7.56 kcal/mol
DOCKED: USER        Electrostatic Energy            =   -2.08 kcal/mol
DOCKED: USER    (2) Final Total Internal Energy     =   -3.91 kcal/mol
DOCKED: USER    (3) Torsional Free Energy           =   +3.58 kcal/mol
DOCKED: USER    (4) Unbound System's Energy  [=(2)] =   -3.91 kcal/mol
DOCKED: USER    
DOCKED: USER    
DOCKED: USER    NEWDPF move heme_Co_opt.pdbqt
DOCKED: USER    NEWDPF about 8.781000 34.984000 -0.736000
DOCKED: USER    NEWDPF tran0 3.371544 35.014826 -2.689860
DOCKED: USER    NEWDPF quaternion0 -0.132817 -0.000552 0.100166 -0.986066
DOCKED: USER    NEWDPF axisangle0 -0.798395 -0.003317 0.602125 -19.151866
DOCKED: USER    NEWDPF quat0 -0.798395 -0.003317 0.602125 -19.151866
DOCKED: USER    NEWDPF dihe0 33.93 106.59 -138.66 63.85 -21.75 113.68 30.61 115.20 175.22 140.74 -172.40 171.34 
DOCKED: USER  keepresnum = 1 
DOCKED: USER  
DOCKED: REMARK  12 active torsions:
DOCKED: REMARK  status: ('A' for Active; 'I' for Inactive)
DOCKED: REMARK    1  A    between atoms: C_6  and  C_10 
DOCKED: REMARK    2  A    between atoms: C_10  and  C_11 
DOCKED: REMARK    3  A    between atoms: C_11  and  C_12 
DOCKED: REMARK    4  A    between atoms: C_12  and  O_14 
DOCKED: REMARK    5  A    between atoms: C_17  and  C_20 
DOCKED: REMARK    6  A    between atoms: C_24  and  C_27 
DOCKED: REMARK    7  A    between atoms: C_31  and  C_34 
DOCKED: REMARK    8  A    between atoms: C_34  and  C_35 
DOCKED: REMARK    9  A    between atoms: C_35  and  C_36 
DOCKED: REMARK   10  A    between atoms: C_36  and  O_38 
DOCKED: REMARK   11  A    between atoms: FE_43  and  C_44 
DOCKED: REMARK   12  A    between atoms: C_44  and  O_45 
DOCKED: USER                              x       y       z     vdW  Elec       q    Type
DOCKED: USER                           _______ _______ _______ _____ _____    ______ ____
DOCKED: ROOT
DOCKED: ATOM      1  C   UNL d   1       1.400  34.881  -3.591 -0.04 +0.02    +0.064 A 
DOCKED: ATOM      2  C   UNL d   1       3.056  33.595   0.677 -0.21 +0.01    +0.064 C 
DOCKED: ATOM      3  C   UNL d   1       7.492  34.781  -0.644 -0.23 +0.01    +0.064 A 
DOCKED: ATOM      4  C   UNL d   1       5.769  36.461  -4.872 -0.17 +0.01    +0.064 A 
DOCKED: ATOM      5  C   UNL d   1       1.532  34.409  -2.341 -0.05 +0.02    +0.066 A 
DOCKED: ATOM      6  C   UNL d   1       0.421  34.017  -1.569 -0.04 -0.01    -0.021 A 
DOCKED: ATOM      7  C   UNL d   1       0.905  33.666  -0.324 -0.07 -0.01    -0.025 A 
DOCKED: ATOM      8  C   UNL d   1       2.291  33.843  -0.394 -0.12 +0.02    +0.066 A 
DOCKED: ATOM      9  C   UNL d   1       0.106  33.182   0.896 -0.07 +0.01    +0.051 C 
DOCKED: ATOM     10  C   UNL d   1       4.492  33.723   0.691 -0.24 +0.01    +0.066 A 
DOCKED: ATOM     11  C   UNL d   1       5.363  33.345   1.736 -0.37 -0.00    -0.021 A 
DOCKED: ATOM     12  C   UNL d   1       6.650  33.698   1.322 -0.41 +0.00    +0.000 A 
DOCKED: ATOM     13  C   UNL d   1       6.471  34.253   0.054 -0.31 +0.01    +0.070 A 
DOCKED: ATOM     14  C   UNL d   1       4.979  32.609   2.994 -0.41 -0.00    +0.052 C 
DOCKED: ATOM     15  C   UNL d   1       7.479  35.437  -1.937 -0.30 +0.01    +0.066 A 
DOCKED: ATOM     16  C   UNL d   1       8.544  36.091  -2.539 -0.37 -0.00    -0.021 A 
DOCKED: ATOM     17  C   UNL d   1       8.052  36.580  -3.758 -0.31 +0.00    +0.000 A 
DOCKED: ATOM     18  C   UNL d   1       6.724  36.169  -3.811 -0.24 +0.01    +0.070 A 
DOCKED: ATOM     19  C   UNL d   1       9.934  36.223  -1.957 -0.43 +0.01    +0.052 C 
DOCKED: ATOM     20  C   UNL d   1       4.452  36.147  -4.906 -0.12 +0.01    +0.066 A 
DOCKED: ATOM     21  C   UNL d   1       3.627  36.515  -5.966 -0.07 -0.00    -0.025 A 
DOCKED: ATOM     22  C   UNL d   1       2.367  36.047  -5.638 -0.04 -0.00    -0.021 A 
DOCKED: ATOM     23  C   UNL d   1       2.485  35.423  -4.378 -0.06 +0.02    +0.066 A 
DOCKED: ATOM     24  C   UNL d   1       4.014  37.291  -7.222 -0.06 +0.01    +0.051 C 
DOCKED: ATOM     25  N   UNL d   1       2.708  34.297  -1.634 -0.06 -0.07    -0.248 N 
DOCKED: ATOM     26  N   UNL d   1       5.173  34.216  -0.349 -0.16 -0.04    -0.248 N 
DOCKED: ATOM     27  N   UNL d   1       6.409  35.517  -2.697 -0.16 -0.04    -0.248 N 
DOCKED: ATOM     28  N   UNL d   1       3.745  35.483  -3.930 -0.07 -0.05    -0.248 N 
DOCKED: ATOM     29 FE   UNL d   1       4.667  34.944  -2.200 -0.05 +0.00    +0.000 Fe
DOCKED: ENDROOT
DOCKED: BRANCH   6  30
DOCKED: ATOM     30  C   UNL d   1      -1.043  34.061  -1.994 -0.01 +0.01    +0.052 C 
DOCKED: BRANCH  30  31
DOCKED: ATOM     31  C   UNL d   1      -1.655  35.424  -1.671 -0.02 +0.04    +0.115 C 
DOCKED: BRANCH  31  32
DOCKED: ATOM     32  C   UNL d   1      -0.715  36.306  -0.878 -0.07 +0.12    +0.139 C 
DOCKED: ATOM     33  O   UNL d   1      -0.846  36.388   0.334 -0.14 -0.66    -0.650 OA
DOCKED: BRANCH  32  34
DOCKED: ATOM     34  O   UNL d   1       0.306  36.975  -1.463 -0.58 -1.12    -0.776 OA
DOCKED: ATOM     35  H   UNL d   1       0.295  37.292  -2.377 +0.01 +0.17    +0.167 HD
DOCKED: ENDBRANCH  32  34
DOCKED: ENDBRANCH  31  32
DOCKED: ENDBRANCH  30  31
DOCKED: ENDBRANCH   6  30
DOCKED: BRANCH  29  36
DOCKED: ATOM     36  C   UNL d   1       4.183  36.793  -1.338 +0.27 +0.10    +0.190 C 
DOCKED: BRANCH  36  37
DOCKED: ATOM     37  O   UNL d   1       3.150  37.727  -1.213 -0.17 -0.44    -0.399 OA
DOCKED: ATOM     38  H   UNL d   1       2.431  37.397  -1.821 +0.04 +0.22    +0.209 HD
DOCKED: ENDBRANCH  36  37
DOCKED: ENDBRANCH  29  36
DOCKED: BRANCH  22  39
DOCKED: ATOM     39  C   UNL d   1       1.111  36.250  -6.464 -0.01 +0.01    +0.052 C 
DOCKED: BRANCH  39  40
DOCKED: ATOM     40  C   UNL d   1       0.431  37.581  -6.101 +0.00 +0.02    +0.115 C 
DOCKED: BRANCH  40  41
DOCKED: ATOM     41  C   UNL d   1       0.335  37.848  -4.613 -0.00 +0.05    +0.139 C 
DOCKED: ATOM     42  O   UNL d   1      -0.749  37.750  -4.057 +0.01 -0.27    -0.650 OA
DOCKED: BRANCH  41  43
DOCKED: ATOM     43  O   UNL d   1       1.431  38.107  -3.866 +0.03 -0.42    -0.776 OA
DOCKED: ATOM     44  H   UNL d   1       1.601  37.666  -3.023 +0.02 +0.12    +0.167 HD
DOCKED: ENDBRANCH  41  43
DOCKED: ENDBRANCH  40  41
DOCKED: ENDBRANCH  39  40
DOCKED: ENDBRANCH  22  39
DOCKED: BRANCH  12  45
DOCKED: ATOM     45  C   UNL d   1       8.022  33.560   1.967 -0.44 +0.00    +0.004 C 
DOCKED: ATOM     46  C   UNL d   1       8.653  32.488   2.439 -0.51 +0.00    +0.012 C 
DOCKED: ENDBRANCH  12  45
DOCKED: BRANCH  17  47
DOCKED: ATOM     47  C   UNL d   1       8.729  37.415  -4.794 -0.28 +0.00    +0.004 C 
DOCKED: ATOM     48  C   UNL d   1       9.498  38.468  -4.506 -0.46 -0.00    +0.012 C 
DOCKED: ENDBRANCH  17  47
DOCKED: TORSDOF 12
DOCKED: TER
DOCKED: ENDMDL
________________________________________________________________________________


	BEGINNING GENETIC ALGORITHM DOCKING 74 of 100
Run: 74 Seed: 694012524 594189606 [ Run 74 of 100 GA/GALS ]
Beginning LAMARCKIAN GENETIC ALGORITHM (LGA), with a maximum of 25000000 energy evaluations.

Final-Value: -16.486


	FINAL GENETIC ALGORITHM DOCKED STATE
	_______________________________________________


Detailed state:  trans 9.215 35.062 -0.470 quatxyzw 0.015442 0.027326 0.038877 0.998751 center 8.781 34.984 -0.736 ntor 12 -81.0298 124.8845 -148.7750 59.7344 -79.6011 50.0548 145.9675 19.6944 -19.5977 -55.3484 46.5169 -179.9867
State:	  9.215  35.062  -0.470   0.309  0.547  0.778  5.728    -81.03  124.88 -148.77   59.73  -79.60   50.05  145.97   19.69  -19.60  -55.35   46.52 -179.99

DOCKED: MODEL       74
DOCKED: USER    Run = 74
DOCKED: USER    DPF = D:/Protein_go_brrr/autodock/final/2DN3/heme_Co/dock.dpf
DOCKED: USER  
DOCKED: USER    Estimated Free Energy of Binding    =  -12.16 kcal/mol  [=(1)+(2)+(3)-(4)]
DOCKED: USER    Estimated Inhibition Constant, Ki   =    1.21 nM (nanomolar)  [Temperature = 298.15 K]
DOCKED: USER    
DOCKED: USER    (1) Final Intermolecular Energy     =  -15.74 kcal/mol
DOCKED: USER        vdW + Hbond + desolv Energy     =  -15.14 kcal/mol
DOCKED: USER        Electrostatic Energy            =   -0.60 kcal/mol
DOCKED: USER    (2) Final Total Internal Energy     =   -0.74 kcal/mol
DOCKED: USER    (3) Torsional Free Energy           =   +3.58 kcal/mol
DOCKED: USER    (4) Unbound System's Energy  [=(2)] =   -0.74 kcal/mol
DOCKED: USER    
DOCKED: USER    
DOCKED: USER    NEWDPF move heme_Co_opt.pdbqt
DOCKED: USER    NEWDPF about 8.781000 34.984000 -0.736000
DOCKED: USER    NEWDPF tran0 9.215210 35.061620 -0.470091
DOCKED: USER    NEWDPF quaternion0 0.015442 0.027326 0.038877 0.998751
DOCKED: USER    NEWDPF axisangle0 0.309053 0.546894 0.778070 5.728016
DOCKED: USER    NEWDPF quat0 0.309053 0.546894 0.778070 5.728016
DOCKED: USER    NEWDPF dihe0 -81.03 124.88 -148.77 59.73 -79.60 50.05 145.97 19.69 -19.60 -55.35 46.52 -179.99 
DOCKED: USER  keepresnum = 1 
DOCKED: USER  
DOCKED: REMARK  12 active torsions:
DOCKED: REMARK  status: ('A' for Active; 'I' for Inactive)
DOCKED: REMARK    1  A    between atoms: C_6  and  C_10 
DOCKED: REMARK    2  A    between atoms: C_10  and  C_11 
DOCKED: REMARK    3  A    between atoms: C_11  and  C_12 
DOCKED: REMARK    4  A    between atoms: C_12  and  O_14 
DOCKED: REMARK    5  A    between atoms: C_17  and  C_20 
DOCKED: REMARK    6  A    between atoms: C_24  and  C_27 
DOCKED: REMARK    7  A    between atoms: C_31  and  C_34 
DOCKED: REMARK    8  A    between atoms: C_34  and  C_35 
DOCKED: REMARK    9  A    between atoms: C_35  and  C_36 
DOCKED: REMARK   10  A    between atoms: C_36  and  O_38 
DOCKED: REMARK   11  A    between atoms: FE_43  and  C_44 
DOCKED: REMARK   12  A    between atoms: C_44  and  O_45 
DOCKED: USER                              x       y       z     vdW  Elec       q    Type
DOCKED: USER                           _______ _______ _______ _____ _____    ______ ____
DOCKED: ROOT
DOCKED: ATOM      1  C   UNL d   1       7.373  35.679  -1.441 -0.17 +0.02    +0.064 A 
DOCKED: ATOM      2  C   UNL d   1       8.219  33.055   2.434 -0.45 +0.01    +0.064 C 
DOCKED: ATOM      3  C   UNL d   1      12.917  33.254   1.589 -0.36 +0.00    +0.064 A 
DOCKED: ATOM      4  C   UNL d   1      12.105  36.256  -2.152 -0.41 +0.00    +0.064 A 
DOCKED: ATOM      5  C   UNL d   1       7.257  34.918  -0.341 -0.29 +0.01    +0.066 A 
DOCKED: ATOM      6  C   UNL d   1       6.013  34.679   0.275 -0.34 -0.00    -0.021 A 
DOCKED: ATOM      7  C   UNL d   1       6.266  33.936   1.411 -0.40 -0.00    -0.025 A 
DOCKED: ATOM      8  C   UNL d   1       7.651  33.739   1.432 -0.36 +0.01    +0.066 A 
DOCKED: ATOM      9  C   UNL d   1       5.255  33.425   2.448 -0.47 +0.00    +0.051 C 
DOCKED: ATOM     10  C   UNL d   1       9.631  32.780   2.525 -0.39 +0.00    +0.066 A 
DOCKED: ATOM     11  C   UNL d   1      10.269  31.951   3.473 -0.46 -0.00    -0.021 A 
DOCKED: ATOM     12  C   UNL d   1      11.638  32.024   3.202 -0.44 +0.00    +0.000 A 
DOCKED: ATOM     13  C   UNL d   1      11.732  32.879   2.103 -0.37 +0.00    +0.070 A 
DOCKED: ATOM     14  C   UNL d   1       9.589  31.082   4.500 -0.63 +0.00    +0.052 C 
DOCKED: ATOM     15  C   UNL d   1      13.199  34.165   0.497 -0.38 +0.01    +0.066 A 
DOCKED: ATOM     16  C   UNL d   1      14.451  34.622   0.109 -0.47 -0.00    -0.021 A 
DOCKED: ATOM     17  C   UNL d   1      14.221  35.490  -0.968 -0.44 +0.00    +0.000 A 
DOCKED: ATOM     18  C   UNL d   1      12.844  35.480  -1.164 -0.36 +0.01    +0.070 A 
DOCKED: ATOM     19  C   UNL d   1      15.764  34.234   0.751 -0.47 +0.00    +0.052 C 
DOCKED: ATOM     20  C   UNL d   1      10.761  36.329  -2.304 -0.38 +0.01    +0.066 A 
DOCKED: ATOM     21  C   UNL d   1      10.165  37.139  -3.268 -0.40 -0.00    -0.025 A 
DOCKED: ATOM     22  C   UNL d   1       8.802  36.971  -3.106 -0.37 -0.00    -0.021 A 
DOCKED: ATOM     23  C   UNL d   1       8.632  36.069  -2.035 -0.31 +0.01    +0.066 A 
DOCKED: ATOM     24  C   UNL d   1      10.859  38.045  -4.282 -0.51 -0.00    +0.051 C 
DOCKED: ATOM     25  N   UNL d   1       8.290  34.331   0.355 +0.03 -0.06    -0.248 N 
DOCKED: ATOM     26  N   UNL d   1      10.514  33.291   1.661 -0.23 -0.02    -0.248 N 
DOCKED: ATOM     27  N   UNL d   1      12.265  34.704  -0.254 -0.19 -0.03    -0.248 N 
DOCKED: ATOM     28  N   UNL d   1       9.815  35.680  -1.545 -0.17 -0.05    -0.248 N 
DOCKED: ATOM     29 FE   UNL d   1      10.395  34.531   0.029 -0.06 +0.00    +0.000 Fe
DOCKED: ENDROOT
DOCKED: BRANCH   6  30
DOCKED: ATOM     30  C   UNL d   1       4.658  35.216  -0.174 -0.30 +0.01    +0.052 C 
DOCKED: BRANCH  30  31
DOCKED: ATOM     31  C   UNL d   1       3.628  34.089  -0.240 -0.19 +0.03    +0.115 C 
DOCKED: BRANCH  31  32
DOCKED: ATOM     32  C   UNL d   1       2.206  34.601  -0.164 -0.14 +0.06    +0.139 C 
DOCKED: ATOM     33  O   UNL d   1       1.982  35.786  -0.365 -0.04 -0.51    -0.650 OA
DOCKED: BRANCH  32  34
DOCKED: ATOM     34  O   UNL d   1       1.158  33.778   0.072 +0.04 -0.22    -0.776 OA
DOCKED: ATOM     35  H   UNL d   1       0.695  33.277  -0.613 +0.03 +0.04    +0.167 HD
DOCKED: ENDBRANCH  32  34
DOCKED: ENDBRANCH  31  32
DOCKED: ENDBRANCH  30  31
DOCKED: ENDBRANCH   6  30
DOCKED: BRANCH  29  36
DOCKED: ATOM     36  C   UNL d   1      10.320  36.195   1.302 -0.29 +0.03    +0.190 C 
DOCKED: BRANCH  36  37
DOCKED: ATOM     37  O   UNL d   1      10.347  37.593   1.310 -0.25 -0.05    -0.399 OA
DOCKED: ATOM     38  H   UNL d   1      10.236  37.857   0.355 +0.12 +0.03    +0.209 HD
DOCKED: ENDBRANCH  36  37
DOCKED: ENDBRANCH  29  36
DOCKED: BRANCH  22  39
DOCKED: ATOM     39  C   UNL d   1       7.727  37.691  -3.898 -0.30 +0.00    +0.052 C 
DOCKED: BRANCH  39  40
DOCKED: ATOM     40  C   UNL d   1       7.533  39.123  -3.372 -0.30 +0.01    +0.115 C 
DOCKED: BRANCH  40  41
DOCKED: ATOM     41  C   UNL d   1       7.813  40.207  -4.392 -0.31 -0.01    +0.139 C 
DOCKED: ATOM     42  O   UNL d   1       7.319  41.315  -4.239 -0.03 -0.01    -0.650 OA
DOCKED: BRANCH  41  43
DOCKED: ATOM     43  O   UNL d   1       8.666  40.009  -5.421 +0.08 +0.17    -0.776 OA
DOCKED: ATOM     44  H   UNL d   1       9.259  40.700  -5.744 -0.45 -0.09    +0.167 HD
DOCKED: ENDBRANCH  41  43
DOCKED: ENDBRANCH  40  41
DOCKED: ENDBRANCH  39  40
DOCKED: ENDBRANCH  22  39
DOCKED: BRANCH  12  45
DOCKED: ATOM     45  C   UNL d   1      12.859  31.373   3.838 -0.62 +0.00    +0.004 C 
DOCKED: ATOM     46  C   UNL d   1      13.113  30.098   4.118 -0.72 +0.00    +0.012 C 
DOCKED: ENDBRANCH  12  45
DOCKED: BRANCH  17  47
DOCKED: ATOM     47  C   UNL d   1      15.188  36.322  -1.745 -0.58 +0.00    +0.004 C 
DOCKED: ATOM     48  C   UNL d   1      15.356  37.632  -1.551 -0.65 +0.00    +0.012 C 
DOCKED: ENDBRANCH  17  47
DOCKED: TORSDOF 12
DOCKED: TER
DOCKED: ENDMDL
________________________________________________________________________________


	BEGINNING GENETIC ALGORITHM DOCKING 75 of 100
Run: 75 Seed: 285082419 1725476879 [ Run 75 of 100 GA/GALS ]
Beginning LAMARCKIAN GENETIC ALGORITHM (LGA), with a maximum of 25000000 energy evaluations.

Final-Value: -19.050


	FINAL GENETIC ALGORITHM DOCKED STATE
	_______________________________________________


Detailed state:  trans 41.216 29.208 16.243 quatxyzw 0.321372 -0.431350 -0.842996 -0.003871 center 8.781 34.984 -0.736 ntor 12 -108.3806 122.3692 -113.1116 57.8874 -26.5201 -18.3589 -123.9668 175.0022 -33.3375 35.9799 -137.1254 168.5650
State:	 41.216  29.208  16.243   0.321 -0.431 -0.843 -179.556   -108.38  122.37 -113.11   57.89  -26.52  -18.36 -123.97  175.00  -33.34   35.98 -137.13  168.56

DOCKED: MODEL       75
DOCKED: USER    Run = 75
DOCKED: USER    DPF = D:/Protein_go_brrr/autodock/final/2DN3/heme_Co/dock.dpf
DOCKED: USER  
DOCKED: USER    Estimated Free Energy of Binding    =  -13.09 kcal/mol  [=(1)+(2)+(3)-(4)]
DOCKED: USER    Estimated Inhibition Constant, Ki   =  252.62 pM (picomolar)  [Temperature = 298.15 K]
DOCKED: USER    
DOCKED: USER    (1) Final Intermolecular Energy     =  -16.67 kcal/mol
DOCKED: USER        vdW + Hbond + desolv Energy     =  -14.37 kcal/mol
DOCKED: USER        Electrostatic Energy            =   -2.31 kcal/mol
DOCKED: USER    (2) Final Total Internal Energy     =   -2.38 kcal/mol
DOCKED: USER    (3) Torsional Free Energy           =   +3.58 kcal/mol
DOCKED: USER    (4) Unbound System's Energy  [=(2)] =   -2.38 kcal/mol
DOCKED: USER    
DOCKED: USER    
DOCKED: USER    NEWDPF move heme_Co_opt.pdbqt
DOCKED: USER    NEWDPF about 8.781000 34.984000 -0.736000
DOCKED: USER    NEWDPF tran0 41.215564 29.207566 16.242778
DOCKED: USER    NEWDPF quaternion0 0.321372 -0.431350 -0.842996 -0.003871
DOCKED: USER    NEWDPF axisangle0 0.321374 -0.431353 -0.843003 -179.556443
DOCKED: USER    NEWDPF quat0 0.321374 -0.431353 -0.843003 -179.556443
DOCKED: USER    NEWDPF dihe0 -108.38 122.37 -113.11 57.89 -26.52 -18.36 -123.97 175.00 -33.34 35.98 -137.13 168.56 
DOCKED: USER  keepresnum = 1 
DOCKED: USER  
DOCKED: REMARK  12 active torsions:
DOCKED: REMARK  status: ('A' for Active; 'I' for Inactive)
DOCKED: REMARK    1  A    between atoms: C_6  and  C_10 
DOCKED: REMARK    2  A    between atoms: C_10  and  C_11 
DOCKED: REMARK    3  A    between atoms: C_11  and  C_12 
DOCKED: REMARK    4  A    between atoms: C_12  and  O_14 
DOCKED: REMARK    5  A    between atoms: C_17  and  C_20 
DOCKED: REMARK    6  A    between atoms: C_24  and  C_27 
DOCKED: REMARK    7  A    between atoms: C_31  and  C_34 
DOCKED: REMARK    8  A    between atoms: C_34  and  C_35 
DOCKED: REMARK    9  A    between atoms: C_35  and  C_36 
DOCKED: REMARK   10  A    between atoms: C_36  and  O_38 
DOCKED: REMARK   11  A    between atoms: FE_43  and  C_44 
DOCKED: REMARK   12  A    between atoms: C_44  and  O_45 
DOCKED: USER                              x       y       z     vdW  Elec       q    Type
DOCKED: USER                           _______ _______ _______ _____ _____    ______ ____
DOCKED: ROOT
DOCKED: ATOM      1  C   UNL d   1      43.079  28.827  17.291 -0.28 +0.02    +0.064 A 
DOCKED: ATOM      2  C   UNL d   1      40.764  32.847  16.245 -0.47 +0.01    +0.064 C 
DOCKED: ATOM      3  C   UNL d   1      37.535  30.379  13.733 -0.31 +0.01    +0.064 A 
DOCKED: ATOM      4  C   UNL d   1      39.661  26.225  15.107 -0.35 +0.01    +0.064 A 
DOCKED: ATOM      5  C   UNL d   1      42.704  30.110  17.159 -0.32 +0.02    +0.066 A 
DOCKED: ATOM      6  C   UNL d   1      43.374  31.156  17.824 -0.34 -0.01    -0.021 A 
DOCKED: ATOM      7  C   UNL d   1      42.684  32.318  17.535 -0.38 -0.01    -0.025 A 
DOCKED: ATOM      8  C   UNL d   1      41.634  31.934  16.695 -0.36 +0.01    +0.066 A 
DOCKED: ATOM      9  C   UNL d   1      42.989  33.742  18.025 -0.42 +0.01    +0.051 C 
DOCKED: ATOM     10  C   UNL d   1      39.669  32.550  15.356 -0.40 +0.01    +0.066 A 
DOCKED: ATOM     11  C   UNL d   1      38.807  33.482  14.738 -0.42 -0.00    -0.021 A 
DOCKED: ATOM     12  C   UNL d   1      37.878  32.735  14.008 -0.40 +0.00    +0.000 A 
DOCKED: ATOM     13  C   UNL d   1      38.248  31.408  14.224 -0.37 +0.01    +0.070 A 
DOCKED: ATOM     14  C   UNL d   1      38.940  34.983  14.778 -0.53 +0.01    +0.052 C 
DOCKED: ATOM     15  C   UNL d   1      37.742  28.954  13.901 -0.37 +0.01    +0.066 A 
DOCKED: ATOM     16  C   UNL d   1      36.885  27.943  13.488 -0.44 -0.00    -0.021 A 
DOCKED: ATOM     17  C   UNL d   1      37.493  26.743  13.884 -0.45 +0.00    +0.000 A 
DOCKED: ATOM     18  C   UNL d   1      38.685  27.117  14.495 -0.37 +0.01    +0.070 A 
DOCKED: ATOM     19  C   UNL d   1      35.573  28.148  12.764 -0.62 +0.01    +0.052 C 
DOCKED: ATOM     20  C   UNL d   1      40.784  26.569  15.782 -0.38 +0.02    +0.066 A 
DOCKED: ATOM     21  C   UNL d   1      41.626  25.621  16.358 -0.38 -0.01    -0.025 A 
DOCKED: ATOM     22  C   UNL d   1      42.636  26.341  16.970 -0.34 -0.01    -0.021 A 
DOCKED: ATOM     23  C   UNL d   1      42.351  27.704  16.745 -0.32 +0.02    +0.066 A 
DOCKED: ATOM     24  C   UNL d   1      41.467  24.103  16.344 -0.51 +0.01    +0.051 C 
DOCKED: ATOM     25  N   UNL d   1      41.626  30.573  16.440 -0.09 -0.07    -0.248 N 
DOCKED: ATOM     26  N   UNL d   1      39.364  31.299  14.993 -0.22 -0.05    -0.248 N 
DOCKED: ATOM     27  N   UNL d   1      38.786  28.442  14.514 -0.20 -0.06    -0.248 N 
DOCKED: ATOM     28  N   UNL d   1      41.230  27.847  16.029 -0.20 -0.09    -0.248 N 
DOCKED: ATOM     29 FE   UNL d   1      40.124  29.441  15.420 -0.00 +0.00    +0.000 Fe
DOCKED: ENDROOT
DOCKED: BRANCH   6  30
DOCKED: ATOM     30  C   UNL d   1      44.572  31.021  18.758 -0.30 +0.02    +0.052 C 
DOCKED: BRANCH  30  31
DOCKED: ATOM     31  C   UNL d   1      44.282  30.002  19.860 -0.06 +0.07    +0.115 C 
DOCKED: BRANCH  31  32
DOCKED: ATOM     32  C   UNL d   1      45.510  29.207  20.248 -0.19 +0.13    +0.139 C 
DOCKED: ATOM     33  O   UNL d   1      46.064  29.438  21.312 -0.17 -1.26    -0.650 OA
DOCKED: BRANCH  32  34
DOCKED: ATOM     34  O   UNL d   1      45.991  28.207  19.474 +0.05 -0.53    -0.776 OA
DOCKED: ATOM     35  H   UNL d   1      45.982  27.273  19.724 +0.05 +0.12    +0.167 HD
DOCKED: ENDBRANCH  32  34
DOCKED: ENDBRANCH  31  32
DOCKED: ENDBRANCH  30  31
DOCKED: ENDBRANCH   6  30
DOCKED: BRANCH  29  36
DOCKED: ATOM     36  C   UNL d   1      39.065  29.427  17.230 -0.18 +0.06    +0.190 C 
DOCKED: BRANCH  36  37
DOCKED: ATOM     37  O   UNL d   1      37.937  28.888  17.857 -0.22 -0.08    -0.399 OA
DOCKED: ATOM     38  H   UNL d   1      37.596  28.198  17.222 +0.13 +0.04    +0.209 HD
DOCKED: ENDBRANCH  36  37
DOCKED: ENDBRANCH  29  36
DOCKED: BRANCH  22  39
DOCKED: ATOM     39  C   UNL d   1      43.773  25.747  17.780 -0.31 +0.02    +0.052 C 
DOCKED: BRANCH  39  40
DOCKED: ATOM     40  C   UNL d   1      43.382  25.634  19.263 -0.28 +0.05    +0.115 C 
DOCKED: BRANCH  40  41
DOCKED: ATOM     41  C   UNL d   1      44.543  25.764  20.227 -0.22 +0.09    +0.139 C 
DOCKED: ATOM     42  O   UNL d   1      45.569  25.132  20.016 +0.04 -0.39    -0.650 OA
DOCKED: BRANCH  41  43
DOCKED: ATOM     43  O   UNL d   1      44.509  26.626  21.267 -0.06 -0.79    -0.776 OA
DOCKED: ATOM     44  H   UNL d   1      45.023  27.444  21.280 +0.04 +0.24    +0.167 HD
DOCKED: ENDBRANCH  41  43
DOCKED: ENDBRANCH  40  41
DOCKED: ENDBRANCH  39  40
DOCKED: ENDBRANCH  22  39
DOCKED: BRANCH  12  45
DOCKED: ATOM     45  C   UNL d   1      36.702  33.122  13.122 -0.52 +0.00    +0.004 C 
DOCKED: ATOM     46  C   UNL d   1      36.622  33.995  12.121 -0.61 -0.00    +0.012 C 
DOCKED: ENDBRANCH  12  45
DOCKED: BRANCH  17  47
DOCKED: ATOM     47  C   UNL d   1      37.000  25.339  13.763 -0.63 +0.00    +0.004 C 
DOCKED: ATOM     48  C   UNL d   1      35.772  24.955  14.121 -0.69 +0.00    +0.012 C 
DOCKED: ENDBRANCH  17  47
DOCKED: TORSDOF 12
DOCKED: TER
DOCKED: ENDMDL
________________________________________________________________________________


	BEGINNING GENETIC ALGORITHM DOCKING 76 of 100
Run: 76 Seed: 37286375 1471858139 [ Run 76 of 100 GA/GALS ]
Beginning LAMARCKIAN GENETIC ALGORITHM (LGA), with a maximum of 25000000 energy evaluations.

Final-Value: -10.651


	FINAL GENETIC ALGORITHM DOCKED STATE
	_______________________________________________


Detailed state:  trans 22.769 16.869 13.452 quatxyzw 0.425756 0.809015 0.009552 -0.405135 center 8.781 34.984 -0.736 ntor 12 -85.9456 113.9185 -113.0386 118.6861 -94.1888 132.4059 58.8675 -165.7512 -118.2526 65.5743 176.2450 -173.8631
State:	 22.769  16.869  13.452   0.466  0.885  0.010 -132.201    -85.95  113.92 -113.04  118.69  -94.19  132.41   58.87 -165.75 -118.25   65.57  176.25 -173.86

DOCKED: MODEL       76
DOCKED: USER    Run = 76
DOCKED: USER    DPF = D:/Protein_go_brrr/autodock/final/2DN3/heme_Co/dock.dpf
DOCKED: USER  
DOCKED: USER    Estimated Free Energy of Binding    =   -4.13 kcal/mol  [=(1)+(2)+(3)-(4)]
DOCKED: USER    Estimated Inhibition Constant, Ki   =  945.90 uM (micromolar)  [Temperature = 298.15 K]
DOCKED: USER    
DOCKED: USER    (1) Final Intermolecular Energy     =   -7.71 kcal/mol
DOCKED: USER        vdW + Hbond + desolv Energy     =   -5.96 kcal/mol
DOCKED: USER        Electrostatic Energy            =   -1.75 kcal/mol
DOCKED: USER    (2) Final Total Internal Energy     =   -2.95 kcal/mol
DOCKED: USER    (3) Torsional Free Energy           =   +3.58 kcal/mol
DOCKED: USER    (4) Unbound System's Energy  [=(2)] =   -2.95 kcal/mol
DOCKED: USER    
DOCKED: USER    
DOCKED: USER    NEWDPF move heme_Co_opt.pdbqt
DOCKED: USER    NEWDPF about 8.781000 34.984000 -0.736000
DOCKED: USER    NEWDPF tran0 22.768594 16.869430 13.452436
DOCKED: USER    NEWDPF quaternion0 0.425756 0.809015 0.009552 -0.405135
DOCKED: USER    NEWDPF axisangle0 0.465685 0.884889 0.010448 -132.200766
DOCKED: USER    NEWDPF quat0 0.465685 0.884889 0.010448 -132.200766
DOCKED: USER    NEWDPF dihe0 -85.95 113.92 -113.04 118.69 -94.19 132.41 58.87 -165.75 -118.25 65.57 176.25 -173.86 
DOCKED: USER  keepresnum = 1 
DOCKED: USER  
DOCKED: REMARK  12 active torsions:
DOCKED: REMARK  status: ('A' for Active; 'I' for Inactive)
DOCKED: REMARK    1  A    between atoms: C_6  and  C_10 
DOCKED: REMARK    2  A    between atoms: C_10  and  C_11 
DOCKED: REMARK    3  A    between atoms: C_11  and  C_12 
DOCKED: REMARK    4  A    between atoms: C_12  and  O_14 
DOCKED: REMARK    5  A    between atoms: C_17  and  C_20 
DOCKED: REMARK    6  A    between atoms: C_24  and  C_27 
DOCKED: REMARK    7  A    between atoms: C_31  and  C_34 
DOCKED: REMARK    8  A    between atoms: C_34  and  C_35 
DOCKED: REMARK    9  A    between atoms: C_35  and  C_36 
DOCKED: REMARK   10  A    between atoms: C_36  and  O_38 
DOCKED: REMARK   11  A    between atoms: FE_43  and  C_44 
DOCKED: REMARK   12  A    between atoms: C_44  and  O_45 
DOCKED: USER                              x       y       z     vdW  Elec       q    Type
DOCKED: USER                           _______ _______ _______ _____ _____    ______ ____
DOCKED: ROOT
DOCKED: ATOM      1  C   UNL d   1      23.143  16.120  15.456 -0.10 +0.03    +0.064 A 
DOCKED: ATOM      2  C   UNL d   1      23.420  14.071  11.174 -0.06 +0.01    +0.064 C 
DOCKED: ATOM      3  C   UNL d   1      21.675  18.020   9.129 -0.08 +0.02    +0.064 A 
DOCKED: ATOM      4  C   UNL d   1      21.744  20.269  13.442 -0.30 +0.02    +0.064 A 
DOCKED: ATOM      5  C   UNL d   1      23.313  15.257  14.440 -0.07 +0.02    +0.066 A 
DOCKED: ATOM      6  C   UNL d   1      23.885  13.984  14.629 -0.03 -0.01    -0.021 A 
DOCKED: ATOM      7  C   UNL d   1      23.985  13.403  13.380 -0.02 -0.01    -0.025 A 
DOCKED: ATOM      8  C   UNL d   1      23.454  14.338  12.485 -0.05 +0.01    +0.066 A 
DOCKED: ATOM      9  C   UNL d   1      24.556  12.021  13.026 -0.01 +0.01    +0.051 C 
DOCKED: ATOM     10  C   UNL d   1      22.869  14.960  10.182 -0.08 +0.01    +0.066 A 
DOCKED: ATOM     11  C   UNL d   1      22.677  14.681   8.812 -0.06 -0.00    -0.021 A 
DOCKED: ATOM     12  C   UNL d   1      22.163  15.848   8.240 -0.07 +0.00    +0.000 A 
DOCKED: ATOM     13  C   UNL d   1      22.068  16.746   9.303 -0.08 +0.02    +0.070 A 
DOCKED: ATOM     14  C   UNL d   1      22.886  13.351   8.135 -0.03 +0.01    +0.052 C 
DOCKED: ATOM     15  C   UNL d   1      21.569  19.092  10.100 -0.14 +0.02    +0.066 A 
DOCKED: ATOM     16  C   UNL d   1      21.295  20.425   9.829 -0.18 -0.01    -0.021 A 
DOCKED: ATOM     17  C   UNL d   1      21.317  21.078  11.070 -0.30 +0.00    +0.000 A 
DOCKED: ATOM     18  C   UNL d   1      21.587  20.084  12.005 -0.25 +0.02    +0.070 A 
DOCKED: ATOM     19  C   UNL d   1      21.035  21.005   8.457 -0.10 +0.01    +0.052 C 
DOCKED: ATOM     20  C   UNL d   1      22.092  19.335  14.360 -0.26 +0.03    +0.066 A 
DOCKED: ATOM     21  C   UNL d   1      22.248  19.641  15.710 -0.27 -0.01    -0.025 A 
DOCKED: ATOM     22  C   UNL d   1      22.622  18.457  16.320 -0.25 -0.01    -0.021 A 
DOCKED: ATOM     23  C   UNL d   1      22.689  17.483  15.302 -0.16 +0.03    +0.066 A 
DOCKED: ATOM     24  C   UNL d   1      22.068  20.998  16.384 -0.52 -0.00    +0.051 C 
DOCKED: ATOM     25  N   UNL d   1      23.024  15.494  13.116 -0.06 -0.07    -0.248 N 
DOCKED: ATOM     26  N   UNL d   1      22.442  16.190  10.486 -0.07 -0.06    -0.248 N 
DOCKED: ATOM     27  N   UNL d   1      21.761  18.920  11.389 -0.11 -0.08    -0.248 N 
DOCKED: ATOM     28  N   UNL d   1      22.370  18.010  14.113 -0.14 -0.11    -0.248 N 
DOCKED: ATOM     29 FE   UNL d   1      22.354  17.310  12.204 -0.04 +0.00    +0.000 Fe
DOCKED: ENDROOT
DOCKED: BRANCH   6  30
DOCKED: ATOM     30  C   UNL d   1      24.386  13.398  15.945 -0.02 +0.01    +0.052 C 
DOCKED: BRANCH  30  31
DOCKED: ATOM     31  C   UNL d   1      25.905  13.535  16.050 -0.03 +0.04    +0.115 C 
DOCKED: BRANCH  31  32
DOCKED: ATOM     32  C   UNL d   1      26.360  14.977  15.992 -0.11 +0.07    +0.139 C 
DOCKED: ATOM     33  O   UNL d   1      26.282  15.590  14.938 +0.01 -0.28    -0.650 OA
DOCKED: BRANCH  32  34
DOCKED: ATOM     34  O   UNL d   1      26.810  15.632  17.087 -0.17 -0.75    -0.776 OA
DOCKED: ATOM     35  H   UNL d   1      26.246  16.138  17.688 +0.03 +0.17    +0.167 HD
DOCKED: ENDBRANCH  32  34
DOCKED: ENDBRANCH  31  32
DOCKED: ENDBRANCH  30  31
DOCKED: ENDBRANCH   6  30
DOCKED: BRANCH  29  36
DOCKED: ATOM     36  C   UNL d   1      24.378  17.811  11.979 -0.12 +0.05    +0.190 C 
DOCKED: BRANCH  36  37
DOCKED: ATOM     37  O   UNL d   1      25.654  17.545  12.485 -0.04 -0.13    -0.399 OA
DOCKED: ATOM     38  H   UNL d   1      25.510  16.866  13.202 +0.07 +0.07    +0.209 HD
DOCKED: ENDBRANCH  36  37
DOCKED: ENDBRANCH  29  36
DOCKED: BRANCH  22  39
DOCKED: ATOM     39  C   UNL d   1      22.960  18.294  17.790 -0.24 +0.01    +0.052 C 
DOCKED: BRANCH  39  40
DOCKED: ATOM     40  C   UNL d   1      24.320  18.938  18.109 -0.29 +0.02    +0.115 C 
DOCKED: BRANCH  40  41
DOCKED: ATOM     41  C   UNL d   1      25.353  17.977  18.659 -0.27 +0.08    +0.139 C 
DOCKED: ATOM     42  O   UNL d   1      24.982  16.989  19.276 +0.03 -0.38    -0.650 OA
DOCKED: BRANCH  41  43
DOCKED: ATOM     43  O   UNL d   1      26.672  18.135  18.411 +0.15 -0.92    -0.776 OA
DOCKED: ATOM     44  H   UNL d   1      27.158  17.565  17.801 +0.09 +0.26    +0.167 HD
DOCKED: ENDBRANCH  41  43
DOCKED: ENDBRANCH  40  41
DOCKED: ENDBRANCH  39  40
DOCKED: ENDBRANCH  22  39
DOCKED: BRANCH  12  45
DOCKED: ATOM     45  C   UNL d   1      21.736  16.210   6.824 -0.05 +0.00    +0.004 C 
DOCKED: ATOM     46  C   UNL d   1      20.528  16.442   6.317 -0.06 +0.00    +0.012 C 
DOCKED: ENDBRANCH  12  45
DOCKED: BRANCH  17  47
DOCKED: ATOM     47  C   UNL d   1      21.153  22.528  11.387 -0.49 +0.00    +0.004 C 
DOCKED: ATOM     48  C   UNL d   1      22.117  23.278  11.927 -0.56 +0.00    +0.012 C 
DOCKED: ENDBRANCH  17  47
DOCKED: TORSDOF 12
DOCKED: TER
DOCKED: ENDMDL
________________________________________________________________________________


	BEGINNING GENETIC ALGORITHM DOCKING 77 of 100
Run: 77 Seed: 1120586335 1001507479 [ Run 77 of 100 GA/GALS ]
Beginning LAMARCKIAN GENETIC ALGORITHM (LGA), with a maximum of 25000000 energy evaluations.

Final-Value: -11.663


	FINAL GENETIC ALGORITHM DOCKED STATE
	_______________________________________________


Detailed state:  trans 28.357 40.486 -1.390 quatxyzw 0.132344 0.724759 -0.513330 -0.440117 center 8.781 34.984 -0.736 ntor 12 88.9162 96.8814 136.0508 104.4315 132.1437 133.1936 180.0000 48.3184 -38.0131 68.9337 -179.8350 174.7050
State:	 28.357  40.486  -1.390   0.147  0.807 -0.572 -127.777     88.92   96.88  136.05  104.43  132.14  133.19  180.00   48.32  -38.01   68.93 -179.83  174.71

DOCKED: MODEL       77
DOCKED: USER    Run = 77
DOCKED: USER    DPF = D:/Protein_go_brrr/autodock/final/2DN3/heme_Co/dock.dpf
DOCKED: USER  
DOCKED: USER    Estimated Free Energy of Binding    =   -5.59 kcal/mol  [=(1)+(2)+(3)-(4)]
DOCKED: USER    Estimated Inhibition Constant, Ki   =   79.30 uM (micromolar)  [Temperature = 298.15 K]
DOCKED: USER    
DOCKED: USER    (1) Final Intermolecular Energy     =   -9.17 kcal/mol
DOCKED: USER        vdW + Hbond + desolv Energy     =   -5.91 kcal/mol
DOCKED: USER        Electrostatic Energy            =   -3.27 kcal/mol
DOCKED: USER    (2) Final Total Internal Energy     =   -2.49 kcal/mol
DOCKED: USER    (3) Torsional Free Energy           =   +3.58 kcal/mol
DOCKED: USER    (4) Unbound System's Energy  [=(2)] =   -2.49 kcal/mol
DOCKED: USER    
DOCKED: USER    
DOCKED: USER    NEWDPF move heme_Co_opt.pdbqt
DOCKED: USER    NEWDPF about 8.781000 34.984000 -0.736000
DOCKED: USER    NEWDPF tran0 28.357480 40.485765 -1.389748
DOCKED: USER    NEWDPF quaternion0 0.132344 0.724759 -0.513330 -0.440117
DOCKED: USER    NEWDPF axisangle0 0.147386 0.807134 -0.571674 -127.777352
DOCKED: USER    NEWDPF quat0 0.147386 0.807134 -0.571674 -127.777352
DOCKED: USER    NEWDPF dihe0 88.92 96.88 136.05 104.43 132.14 133.19 180.00 48.32 -38.01 68.93 -179.83 174.71 
DOCKED: USER  keepresnum = 1 
DOCKED: USER  
DOCKED: REMARK  12 active torsions:
DOCKED: REMARK  status: ('A' for Active; 'I' for Inactive)
DOCKED: REMARK    1  A    between atoms: C_6  and  C_10 
DOCKED: REMARK    2  A    between atoms: C_10  and  C_11 
DOCKED: REMARK    3  A    between atoms: C_11  and  C_12 
DOCKED: REMARK    4  A    between atoms: C_12  and  O_14 
DOCKED: REMARK    5  A    between atoms: C_17  and  C_20 
DOCKED: REMARK    6  A    between atoms: C_24  and  C_27 
DOCKED: REMARK    7  A    between atoms: C_31  and  C_34 
DOCKED: REMARK    8  A    between atoms: C_34  and  C_35 
DOCKED: REMARK    9  A    between atoms: C_35  and  C_36 
DOCKED: REMARK   10  A    between atoms: C_36  and  O_38 
DOCKED: REMARK   11  A    between atoms: FE_43  and  C_44 
DOCKED: REMARK   12  A    between atoms: C_44  and  O_45 
DOCKED: USER                              x       y       z     vdW  Elec       q    Type
DOCKED: USER                           _______ _______ _______ _____ _____    ______ ____
DOCKED: ROOT
DOCKED: ATOM      1  C   UNL d   1      29.369  41.939  -0.133 -0.08 +0.02    +0.064 A 
DOCKED: ATOM      2  C   UNL d   1      28.805  37.232   0.243 -0.14 +0.01    +0.064 C 
DOCKED: ATOM      3  C   UNL d   1      25.975  37.227  -3.606 -0.24 +0.00    +0.064 A 
DOCKED: ATOM      4  C   UNL d   1      26.846  41.971  -4.238 -0.16 +0.01    +0.064 A 
DOCKED: ATOM      5  C   UNL d   1      29.394  40.659   0.274 -0.10 +0.01    +0.066 A 
DOCKED: ATOM      6  C   UNL d   1      30.190  40.234   1.356 -0.09 -0.00    -0.021 A 
DOCKED: ATOM      7  C   UNL d   1      30.040  38.864   1.446 -0.09 -0.00    -0.025 A 
DOCKED: ATOM      8  C   UNL d   1      29.147  38.514   0.427 -0.11 +0.01    +0.066 A 
DOCKED: ATOM      9  C   UNL d   1      30.705  37.907   2.447 -0.12 +0.01    +0.051 C 
DOCKED: ATOM     10  C   UNL d   1      27.875  36.781  -0.762 -0.14 +0.01    +0.066 A 
DOCKED: ATOM     11  C   UNL d   1      27.368  35.472  -0.916 -0.16 -0.00    -0.021 A 
DOCKED: ATOM     12  C   UNL d   1      26.542  35.500  -2.043 -0.20 +0.00    +0.000 A 
DOCKED: ATOM     13  C   UNL d   1      26.596  36.822  -2.485 -0.19 +0.01    +0.070 A 
DOCKED: ATOM     14  C   UNL d   1      27.595  34.313   0.020 -0.19 +0.02    +0.052 C 
DOCKED: ATOM     15  C   UNL d   1      25.967  38.534  -4.234 -0.23 +0.01    +0.066 A 
DOCKED: ATOM     16  C   UNL d   1      25.423  38.850  -5.471 -0.21 -0.00    -0.021 A 
DOCKED: ATOM     17  C   UNL d   1      25.674  40.216  -5.659 -0.18 +0.00    +0.000 A 
DOCKED: ATOM     18  C   UNL d   1      26.339  40.631  -4.509 -0.18 +0.01    +0.070 A 
DOCKED: ATOM     19  C   UNL d   1      24.716  37.880  -6.391 -0.16 +0.01    +0.052 C 
DOCKED: ATOM     20  C   UNL d   1      27.570  42.377  -3.168 -0.13 +0.01    +0.066 A 
DOCKED: ATOM     21  C   UNL d   1      28.033  43.684  -3.036 -0.07 -0.01    -0.025 A 
DOCKED: ATOM     22  C   UNL d   1      28.739  43.712  -1.848 -0.06 -0.01    -0.021 A 
DOCKED: ATOM     23  C   UNL d   1      28.682  42.407  -1.315 -0.10 +0.02    +0.066 A 
DOCKED: ATOM     24  C   UNL d   1      27.829  44.846  -4.005 -0.04 +0.01    +0.051 C 
DOCKED: ATOM     25  N   UNL d   1      28.726  39.607  -0.312 -0.09 -0.04    -0.248 N 
DOCKED: ATOM     26  N   UNL d   1      27.357  37.608  -1.677 -0.06 -0.03    -0.248 N 
DOCKED: ATOM     27  N   UNL d   1      26.522  39.597  -3.696 -0.15 -0.04    -0.248 N 
DOCKED: ATOM     28  N   UNL d   1      27.977  41.595  -2.112 -0.09 -0.05    -0.248 N 
DOCKED: ATOM     29 FE   UNL d   1      27.559  39.605  -2.104 -0.05 +0.00    +0.000 Fe
DOCKED: ENDROOT
DOCKED: BRANCH   6  30
DOCKED: ATOM     30  C   UNL d   1      31.112  41.103   2.204 -0.17 +0.02    +0.052 C 
DOCKED: BRANCH  30  31
DOCKED: ATOM     31  C   UNL d   1      32.546  41.034   1.681 -0.13 +0.05    +0.115 C 
DOCKED: BRANCH  31  32
DOCKED: ATOM     32  C   UNL d   1      33.241  42.378   1.720 -0.17 +0.15    +0.139 C 
DOCKED: ATOM     33  O   UNL d   1      33.225  43.033   2.751 -0.45 -0.84    -0.650 OA
DOCKED: BRANCH  32  34
DOCKED: ATOM     34  O   UNL d   1      33.925  42.863   0.658 +0.16 -1.32    -0.776 OA
DOCKED: ATOM     35  H   UNL d   1      33.521  43.348  -0.075 +0.03 +0.30    +0.167 HD
DOCKED: ENDBRANCH  32  34
DOCKED: ENDBRANCH  31  32
DOCKED: ENDBRANCH  30  31
DOCKED: ENDBRANCH   6  30
DOCKED: BRANCH  29  36
DOCKED: ATOM     36  C   UNL d   1      29.342  39.203  -3.131 -0.05 +0.03    +0.190 C 
DOCKED: BRANCH  36  37
DOCKED: ATOM     37  O   UNL d   1      30.734  39.304  -3.029 -0.00 -0.07    -0.399 OA
DOCKED: ATOM     38  H   UNL d   1      30.890  39.949  -2.284 +0.01 +0.04    +0.209 HD
DOCKED: ENDBRANCH  36  37
DOCKED: ENDBRANCH  29  36
DOCKED: BRANCH  22  39
DOCKED: ATOM     39  C   UNL d   1      29.481  44.914  -1.293 -0.06 +0.02    +0.052 C 
DOCKED: BRANCH  39  40
DOCKED: ATOM     40  C   UNL d   1      30.884  45.019  -1.913 -0.05 +0.06    +0.115 C 
DOCKED: BRANCH  40  41
DOCKED: ATOM     41  C   UNL d   1      32.018  44.870  -0.921 -0.10 +0.16    +0.139 C 
DOCKED: ATOM     42  O   UNL d   1      33.168  45.056  -1.294 -0.05 -0.96    -0.650 OA
DOCKED: BRANCH  41  43
DOCKED: ATOM     43  O   UNL d   1      31.789  44.623   0.388 -0.24 -1.23    -0.776 OA
DOCKED: ATOM     44  H   UNL d   1      32.352  44.038   0.913 +0.04 +0.34    +0.167 HD
DOCKED: ENDBRANCH  41  43
DOCKED: ENDBRANCH  40  41
DOCKED: ENDBRANCH  39  40
DOCKED: ENDBRANCH  22  39
DOCKED: BRANCH  12  45
DOCKED: ATOM     45  C   UNL d   1      25.699  34.440  -2.738 -0.22 -0.00    +0.004 C 
DOCKED: ATOM     46  C   UNL d   1      24.405  34.151  -2.624 -0.39 -0.00    +0.012 C 
DOCKED: ENDBRANCH  12  45
DOCKED: BRANCH  17  47
DOCKED: ATOM     47  C   UNL d   1      25.376  41.089  -6.833 -0.13 +0.00    +0.004 C 
DOCKED: ATOM     48  C   UNL d   1      24.453  42.054  -6.819 -0.15 +0.00    +0.012 C 
DOCKED: ENDBRANCH  17  47
DOCKED: TORSDOF 12
DOCKED: TER
DOCKED: ENDMDL
________________________________________________________________________________


	BEGINNING GENETIC ALGORITHM DOCKING 78 of 100
Run: 78 Seed: 2008281727 1476880544 [ Run 78 of 100 GA/GALS ]
Beginning LAMARCKIAN GENETIC ALGORITHM (LGA), with a maximum of 25000000 energy evaluations.

Final-Value: -10.839


	FINAL GENETIC ALGORITHM DOCKED STATE
	_______________________________________________


Detailed state:  trans 26.554 37.209 -2.976 quatxyzw 0.728849 0.586529 -0.328234 -0.130480 center 8.781 34.984 -0.736 ntor 12 -50.6276 119.4655 92.1058 133.9413 -88.4160 95.9422 -104.5110 -45.6515 40.3334 109.3848 -26.2660 166.1678
State:	 26.554  37.209  -2.976   0.735  0.592 -0.331 -165.005    -50.63  119.47   92.11  133.94  -88.42   95.94 -104.51  -45.65   40.33  109.38  -26.27  166.17

DOCKED: MODEL       78
DOCKED: USER    Run = 78
DOCKED: USER    DPF = D:/Protein_go_brrr/autodock/final/2DN3/heme_Co/dock.dpf
DOCKED: USER  
DOCKED: USER    Estimated Free Energy of Binding    =   -5.66 kcal/mol  [=(1)+(2)+(3)-(4)]
DOCKED: USER    Estimated Inhibition Constant, Ki   =   70.65 uM (micromolar)  [Temperature = 298.15 K]
DOCKED: USER    
DOCKED: USER    (1) Final Intermolecular Energy     =   -9.24 kcal/mol
DOCKED: USER        vdW + Hbond + desolv Energy     =   -7.21 kcal/mol
DOCKED: USER        Electrostatic Energy            =   -2.03 kcal/mol
DOCKED: USER    (2) Final Total Internal Energy     =   -1.60 kcal/mol
DOCKED: USER    (3) Torsional Free Energy           =   +3.58 kcal/mol
DOCKED: USER    (4) Unbound System's Energy  [=(2)] =   -1.60 kcal/mol
DOCKED: USER    
DOCKED: USER    
DOCKED: USER    NEWDPF move heme_Co_opt.pdbqt
DOCKED: USER    NEWDPF about 8.781000 34.984000 -0.736000
DOCKED: USER    NEWDPF tran0 26.553757 37.209380 -2.975593
DOCKED: USER    NEWDPF quaternion0 0.728849 0.586529 -0.328234 -0.130480
DOCKED: USER    NEWDPF axisangle0 0.735134 0.591586 -0.331064 -165.005297
DOCKED: USER    NEWDPF quat0 0.735134 0.591586 -0.331064 -165.005297
DOCKED: USER    NEWDPF dihe0 -50.63 119.47 92.11 133.94 -88.42 95.94 -104.51 -45.65 40.33 109.38 -26.27 166.17 
DOCKED: USER  keepresnum = 1 
DOCKED: USER  
DOCKED: REMARK  12 active torsions:
DOCKED: REMARK  status: ('A' for Active; 'I' for Inactive)
DOCKED: REMARK    1  A    between atoms: C_6  and  C_10 
DOCKED: REMARK    2  A    between atoms: C_10  and  C_11 
DOCKED: REMARK    3  A    between atoms: C_11  and  C_12 
DOCKED: REMARK    4  A    between atoms: C_12  and  O_14 
DOCKED: REMARK    5  A    between atoms: C_17  and  C_20 
DOCKED: REMARK    6  A    between atoms: C_24  and  C_27 
DOCKED: REMARK    7  A    between atoms: C_31  and  C_34 
DOCKED: REMARK    8  A    between atoms: C_34  and  C_35 
DOCKED: REMARK    9  A    between atoms: C_35  and  C_36 
DOCKED: REMARK   10  A    between atoms: C_36  and  O_38 
DOCKED: REMARK   11  A    between atoms: FE_43  and  C_44 
DOCKED: REMARK   12  A    between atoms: C_44  and  O_45 
DOCKED: USER                              x       y       z     vdW  Elec       q    Type
DOCKED: USER                           _______ _______ _______ _____ _____    ______ ____
DOCKED: ROOT
DOCKED: ATOM      1  C   UNL d   1      27.113  36.071  -1.213 -0.16 +0.01    +0.064 A 
DOCKED: ATOM      2  C   UNL d   1      23.517  35.630  -4.293 -0.32 -0.00    +0.064 C 
DOCKED: ATOM      3  C   UNL d   1      24.872  39.642  -6.507 -0.14 +0.01    +0.064 A 
DOCKED: ATOM      4  C   UNL d   1      28.775  39.904  -3.615 -0.08 +0.01    +0.064 A 
DOCKED: ATOM      5  C   UNL d   1      26.010  35.676  -1.869 -0.19 +0.00    +0.066 A 
DOCKED: ATOM      6  C   UNL d   1      25.344  34.474  -1.557 -0.29 +0.00    -0.021 A 
DOCKED: ATOM      7  C   UNL d   1      24.315  34.340  -2.468 -0.36 +0.00    -0.025 A 
DOCKED: ATOM      8  C   UNL d   1      24.387  35.472  -3.287 -0.26 -0.01    +0.066 A 
DOCKED: ATOM      9  C   UNL d   1      23.296  33.195  -2.577 -0.37 -0.02    +0.051 C 
DOCKED: ATOM     10  C   UNL d   1      23.497  36.774  -5.170 -0.12 +0.00    +0.066 A 
DOCKED: ATOM     11  C   UNL d   1      22.526  37.067  -6.153 -0.20 -0.00    -0.021 A 
DOCKED: ATOM     12  C   UNL d   1      22.944  38.244  -6.780 -0.20 +0.00    +0.000 A 
DOCKED: ATOM     13  C   UNL d   1      24.128  38.588  -6.128 -0.15 +0.01    +0.070 A 
DOCKED: ATOM     14  C   UNL d   1      21.244  36.311  -6.393 -0.31 +0.01    +0.052 C 
DOCKED: ATOM     15  C   UNL d   1      26.140  40.109  -5.982 -0.12 +0.01    +0.066 A 
DOCKED: ATOM     16  C   UNL d   1      26.929  41.119  -6.513 -0.06 -0.00    -0.021 A 
DOCKED: ATOM     17  C   UNL d   1      28.057  41.196  -5.684 -0.05 +0.00    +0.000 A 
DOCKED: ATOM     18  C   UNL d   1      27.858  40.235  -4.699 -0.09 +0.01    +0.070 A 
DOCKED: ATOM     19  C   UNL d   1      26.596  41.938  -7.740 -0.03 +0.01    +0.052 C 
DOCKED: ATOM     20  C   UNL d   1      28.643  38.916  -2.697 -0.11 +0.01    +0.066 A 
DOCKED: ATOM     21  C   UNL d   1      29.610  38.672  -1.724 -0.07 -0.00    -0.025 A 
DOCKED: ATOM     22  C   UNL d   1      29.145  37.591  -0.999 -0.10 -0.00    -0.021 A 
DOCKED: ATOM     23  C   UNL d   1      27.912  37.219  -1.577 -0.15 +0.01    +0.066 A 
DOCKED: ATOM     24  C   UNL d   1      30.924  39.419  -1.509 -0.02 +0.01    +0.051 C 
DOCKED: ATOM     25  N   UNL d   1      25.423  36.320  -2.935 -0.18 +0.00    -0.248 N 
DOCKED: ATOM     26  N   UNL d   1      24.431  37.730  -5.117 -0.16 -0.02    -0.248 N 
DOCKED: ATOM     27  N   UNL d   1      26.722  39.586  -4.925 -0.11 -0.03    -0.248 N 
DOCKED: ATOM     28  N   UNL d   1      27.607  38.017  -2.607 -0.14 -0.03    -0.248 N 
DOCKED: ATOM     29 FE   UNL d   1      26.113  38.051  -3.986 -0.05 +0.00    +0.000 Fe
DOCKED: ENDROOT
DOCKED: BRANCH   6  30
DOCKED: ATOM     30  C   UNL d   1      25.740  33.469  -0.480 -0.16 +0.00    +0.052 C 
DOCKED: BRANCH  30  31
DOCKED: ATOM     31  C   UNL d   1      25.781  34.140   0.892 -0.31 +0.01    +0.115 C 
DOCKED: BRANCH  31  32
DOCKED: ATOM     32  C   UNL d   1      26.928  33.639   1.745 -0.30 +0.07    +0.139 C 
DOCKED: ATOM     33  O   UNL d   1      27.713  34.442   2.227 +0.00 -0.37    -0.650 OA
DOCKED: BRANCH  32  34
DOCKED: ATOM     34  O   UNL d   1      27.087  32.327   2.035 -0.57 -0.84    -0.776 OA
DOCKED: ATOM     35  H   UNL d   1      26.407  31.774   2.442 -0.45 -0.03    +0.167 HD
DOCKED: ENDBRANCH  32  34
DOCKED: ENDBRANCH  31  32
DOCKED: ENDBRANCH  30  31
DOCKED: ENDBRANCH   6  30
DOCKED: BRANCH  29  36
DOCKED: ATOM     36  C   UNL d   1      27.188  36.736  -5.216 -0.05 +0.01    +0.190 C 
DOCKED: BRANCH  36  37
DOCKED: ATOM     37  O   UNL d   1      28.173  35.743  -5.193 +0.00 -0.02    -0.399 OA
DOCKED: ATOM     38  H   UNL d   1      28.356  35.585  -4.225 +0.02 +0.02    +0.209 HD
DOCKED: ENDBRANCH  36  37
DOCKED: ENDBRANCH  29  36
DOCKED: BRANCH  22  39
DOCKED: ATOM     39  C   UNL d   1      29.880  36.916   0.144 -0.07 +0.01    +0.052 C 
DOCKED: BRANCH  39  40
DOCKED: ATOM     40  C   UNL d   1      30.727  35.742  -0.373 -0.03 +0.04    +0.115 C 
DOCKED: BRANCH  40  41
DOCKED: ATOM     41  C   UNL d   1      29.932  34.499  -0.712 -0.06 +0.07    +0.139 C 
DOCKED: ATOM     42  O   UNL d   1      29.533  34.337  -1.856 +0.02 -0.21    -0.650 OA
DOCKED: BRANCH  41  43
DOCKED: ATOM     43  O   UNL d   1      29.725  33.519   0.196 -0.20 -1.04    -0.776 OA
DOCKED: ATOM     44  H   UNL d   1      28.907  33.447   0.704 +0.02 +0.24    +0.167 HD
DOCKED: ENDBRANCH  41  43
DOCKED: ENDBRANCH  40  41
DOCKED: ENDBRANCH  39  40
DOCKED: ENDBRANCH  22  39
DOCKED: BRANCH  12  45
DOCKED: ATOM     45  C   UNL d   1      22.354  39.088  -7.902 -0.22 +0.00    +0.004 C 
DOCKED: ATOM     46  C   UNL d   1      22.051  40.383  -7.943 -0.26 +0.00    +0.012 C 
DOCKED: ENDBRANCH  12  45
DOCKED: BRANCH  17  47
DOCKED: ATOM     47  C   UNL d   1      29.272  42.057  -5.804 -0.02 +0.00    +0.004 C 
DOCKED: ATOM     48  C   UNL d   1      30.481  41.585  -6.118 -0.00 +0.00    +0.012 C 
DOCKED: ENDBRANCH  17  47
DOCKED: TORSDOF 12
DOCKED: TER
DOCKED: ENDMDL
________________________________________________________________________________


	BEGINNING GENETIC ALGORITHM DOCKING 79 of 100
Run: 79 Seed: 631863398 351934697 [ Run 79 of 100 GA/GALS ]
Beginning LAMARCKIAN GENETIC ALGORITHM (LGA), with a maximum of 25000000 energy evaluations.

Final-Value: -16.519


	FINAL GENETIC ALGORITHM DOCKED STATE
	_______________________________________________


Detailed state:  trans 9.051 35.075 -0.491 quatxyzw 0.021632 0.029987 0.038858 0.998560 center 8.781 34.984 -0.736 ntor 12 98.7151 146.7706 123.9359 62.7693 -67.6805 -10.6561 1.2575 -63.5250 -36.4325 -53.2363 47.9037 178.6347
State:	  9.051  35.075  -0.491   0.403  0.559  0.724  6.149     98.72  146.77  123.94   62.77  -67.68  -10.66    1.26  -63.53  -36.43  -53.24   47.90  178.63

DOCKED: MODEL       79
DOCKED: USER    Run = 79
DOCKED: USER    DPF = D:/Protein_go_brrr/autodock/final/2DN3/heme_Co/dock.dpf
DOCKED: USER  
DOCKED: USER    Estimated Free Energy of Binding    =  -12.21 kcal/mol  [=(1)+(2)+(3)-(4)]
DOCKED: USER    Estimated Inhibition Constant, Ki   =    1.13 nM (nanomolar)  [Temperature = 298.15 K]
DOCKED: USER    
DOCKED: USER    (1) Final Intermolecular Energy     =  -15.79 kcal/mol
DOCKED: USER        vdW + Hbond + desolv Energy     =  -15.16 kcal/mol
DOCKED: USER        Electrostatic Energy            =   -0.63 kcal/mol
DOCKED: USER    (2) Final Total Internal Energy     =   -0.73 kcal/mol
DOCKED: USER    (3) Torsional Free Energy           =   +3.58 kcal/mol
DOCKED: USER    (4) Unbound System's Energy  [=(2)] =   -0.73 kcal/mol
DOCKED: USER    
DOCKED: USER    
DOCKED: USER    NEWDPF move heme_Co_opt.pdbqt
DOCKED: USER    NEWDPF about 8.781000 34.984000 -0.736000
DOCKED: USER    NEWDPF tran0 9.050943 35.074752 -0.491048
DOCKED: USER    NEWDPF quaternion0 0.021632 0.029987 0.038858 0.998560
DOCKED: USER    NEWDPF axisangle0 0.403297 0.559055 0.724437 6.149449
DOCKED: USER    NEWDPF quat0 0.403297 0.559055 0.724437 6.149449
DOCKED: USER    NEWDPF dihe0 98.72 146.77 123.94 62.77 -67.68 -10.66 1.26 -63.53 -36.43 -53.24 47.90 178.63 
DOCKED: USER  keepresnum = 1 
DOCKED: USER  
DOCKED: REMARK  12 active torsions:
DOCKED: REMARK  status: ('A' for Active; 'I' for Inactive)
DOCKED: REMARK    1  A    between atoms: C_6  and  C_10 
DOCKED: REMARK    2  A    between atoms: C_10  and  C_11 
DOCKED: REMARK    3  A    between atoms: C_11  and  C_12 
DOCKED: REMARK    4  A    between atoms: C_12  and  O_14 
DOCKED: REMARK    5  A    between atoms: C_17  and  C_20 
DOCKED: REMARK    6  A    between atoms: C_24  and  C_27 
DOCKED: REMARK    7  A    between atoms: C_31  and  C_34 
DOCKED: REMARK    8  A    between atoms: C_34  and  C_35 
DOCKED: REMARK    9  A    between atoms: C_35  and  C_36 
DOCKED: REMARK   10  A    between atoms: C_36  and  O_38 
DOCKED: REMARK   11  A    between atoms: FE_43  and  C_44 
DOCKED: REMARK   12  A    between atoms: C_44  and  O_45 
DOCKED: USER                              x       y       z     vdW  Elec       q    Type
DOCKED: USER                           _______ _______ _______ _____ _____    ______ ____
DOCKED: ROOT
DOCKED: ATOM      1  C   UNL d   1       7.214  35.681  -1.478 -0.19 +0.02    +0.064 A 
DOCKED: ATOM      2  C   UNL d   1       8.040  33.105   2.433 -0.45 +0.01    +0.064 C 
DOCKED: ATOM      3  C   UNL d   1      12.742  33.292   1.609 -0.35 +0.00    +0.064 A 
DOCKED: ATOM      4  C   UNL d   1      11.949  36.247  -2.173 -0.40 +0.00    +0.064 A 
DOCKED: ATOM      5  C   UNL d   1       7.092  34.933  -0.369 -0.30 +0.01    +0.066 A 
DOCKED: ATOM      6  C   UNL d   1       5.845  34.702   0.243 -0.33 -0.00    -0.021 A 
DOCKED: ATOM      7  C   UNL d   1       6.093  33.974   1.390 -0.40 -0.00    -0.025 A 
DOCKED: ATOM      8  C   UNL d   1       7.478  33.777   1.420 -0.37 +0.01    +0.066 A 
DOCKED: ATOM      9  C   UNL d   1       5.076  33.475   2.428 -0.45 +0.00    +0.051 C 
DOCKED: ATOM     10  C   UNL d   1       9.451  32.831   2.535 -0.38 +0.00    +0.066 A 
DOCKED: ATOM     11  C   UNL d   1      10.085  32.014   3.496 -0.46 -0.00    -0.021 A 
DOCKED: ATOM     12  C   UNL d   1      11.455  32.083   3.230 -0.44 +0.00    +0.000 A 
DOCKED: ATOM     13  C   UNL d   1      11.555  32.924   2.122 -0.36 +0.00    +0.070 A 
DOCKED: ATOM     14  C   UNL d   1       9.400  31.158   4.530 -0.64 +0.00    +0.052 C 
DOCKED: ATOM     15  C   UNL d   1      13.030  34.189   0.507 -0.37 +0.01    +0.066 A 
DOCKED: ATOM     16  C   UNL d   1      14.284  34.641   0.119 -0.46 -0.00    -0.021 A 
DOCKED: ATOM     17  C   UNL d   1      14.060  35.496  -0.970 -0.43 +0.00    +0.000 A 
DOCKED: ATOM     18  C   UNL d   1      12.684  35.484  -1.172 -0.36 +0.01    +0.070 A 
DOCKED: ATOM     19  C   UNL d   1      15.594  34.261   0.772 -0.53 +0.00    +0.052 C 
DOCKED: ATOM     20  C   UNL d   1      10.606  36.319  -2.333 -0.38 +0.01    +0.066 A 
DOCKED: ATOM     21  C   UNL d   1      10.015  37.117  -3.311 -0.39 -0.00    -0.025 A 
DOCKED: ATOM     22  C   UNL d   1       8.651  36.951  -3.153 -0.36 -0.00    -0.021 A 
DOCKED: ATOM     23  C   UNL d   1       8.476  36.062  -2.071 -0.30 +0.01    +0.066 A 
DOCKED: ATOM     24  C   UNL d   1      10.714  38.009  -4.332 -0.51 -0.00    +0.051 C 
DOCKED: ATOM     25  N   UNL d   1       8.121  34.355   0.339 -0.14 -0.05    -0.248 N 
DOCKED: ATOM     26  N   UNL d   1      10.339  33.330   1.668 -0.23 -0.02    -0.248 N 
DOCKED: ATOM     27  N   UNL d   1      12.100  34.719  -0.256 -0.17 -0.03    -0.248 N 
DOCKED: ATOM     28  N   UNL d   1       9.656  35.679  -1.570 -0.18 -0.05    -0.248 N 
DOCKED: ATOM     29 FE   UNL d   1      10.228  34.550   0.021 -0.06 +0.00    +0.000 Fe
DOCKED: ENDROOT
DOCKED: BRANCH   6  30
DOCKED: ATOM     30  C   UNL d   1       4.492  35.234  -0.219 -0.29 +0.02    +0.052 C 
DOCKED: BRANCH  30  31
DOCKED: ATOM     31  C   UNL d   1       3.454  34.113  -0.243 -0.19 +0.03    +0.115 C 
DOCKED: BRANCH  31  32
DOCKED: ATOM     32  C   UNL d   1       2.091  34.579   0.222 -0.15 +0.06    +0.139 C 
DOCKED: ATOM     33  O   UNL d   1       1.509  33.955   1.097 -0.00 -0.20    -0.650 OA
DOCKED: BRANCH  32  34
DOCKED: ATOM     34  O   UNL d   1       1.510  35.698  -0.268 -0.03 -0.63    -0.776 OA
DOCKED: ATOM     35  H   UNL d   1       0.882  35.708  -1.004 +0.02 +0.13    +0.167 HD
DOCKED: ENDBRANCH  32  34
DOCKED: ENDBRANCH  31  32
DOCKED: ENDBRANCH  30  31
DOCKED: ENDBRANCH   6  30
DOCKED: BRANCH  29  36
DOCKED: ATOM     36  C   UNL d   1      10.148  36.230   1.272 -0.23 +0.03    +0.190 C 
DOCKED: BRANCH  36  37
DOCKED: ATOM     37  O   UNL d   1      10.873  37.356   1.673 -0.24 -0.05    -0.399 OA
DOCKED: ATOM     38  H   UNL d   1      11.385  37.634   0.862 +0.13 +0.02    +0.209 HD
DOCKED: ENDBRANCH  36  37
DOCKED: ENDBRANCH  29  36
DOCKED: BRANCH  22  39
DOCKED: ATOM     39  C   UNL d   1       7.580  37.661  -3.959 -0.29 +0.00    +0.052 C 
DOCKED: BRANCH  39  40
DOCKED: ATOM     40  C   UNL d   1       7.359  39.088  -3.430 -0.27 +0.01    +0.115 C 
DOCKED: BRANCH  40  41
DOCKED: ATOM     41  C   UNL d   1       7.594  40.178  -4.455 -0.29 -0.00    +0.139 C 
DOCKED: ATOM     42  O   UNL d   1       6.763  40.363  -5.333 +0.06 -0.03    -0.650 OA
DOCKED: BRANCH  41  43
DOCKED: ATOM     43  O   UNL d   1       8.656  41.010  -4.376 +0.00 +0.14    -0.776 OA
DOCKED: ATOM     44  H   UNL d   1       9.239  41.181  -5.126 -0.48 -0.08    +0.167 HD
DOCKED: ENDBRANCH  41  43
DOCKED: ENDBRANCH  40  41
DOCKED: ENDBRANCH  39  40
DOCKED: ENDBRANCH  22  39
DOCKED: BRANCH  12  45
DOCKED: ATOM     45  C   UNL d   1      12.673  31.440   3.880 -0.60 +0.00    +0.004 C 
DOCKED: ATOM     46  C   UNL d   1      12.948  30.163   4.130 -0.69 +0.00    +0.012 C 
DOCKED: ENDBRANCH  12  45
DOCKED: BRANCH  17  47
DOCKED: ATOM     47  C   UNL d   1      15.030  36.317  -1.753 -0.57 +0.00    +0.004 C 
DOCKED: ATOM     48  C   UNL d   1      15.367  37.568  -1.430 -0.64 +0.00    +0.012 C 
DOCKED: ENDBRANCH  17  47
DOCKED: TORSDOF 12
DOCKED: TER
DOCKED: ENDMDL
________________________________________________________________________________


	BEGINNING GENETIC ALGORITHM DOCKING 80 of 100
Run: 80 Seed: 889726094 2071847447 [ Run 80 of 100 GA/GALS ]
Beginning LAMARCKIAN GENETIC ALGORITHM (LGA), with a maximum of 25000000 energy evaluations.

Final-Value: -14.122


	FINAL GENETIC ALGORITHM DOCKED STATE
	_______________________________________________


Detailed state:  trans 46.681 27.458 18.396 quatxyzw -0.297629 0.394642 0.829023 0.261525 center 8.781 34.984 -0.736 ntor 12 34.3208 109.8493 -150.1890 -39.0882 77.7166 112.0947 26.8497 116.2077 -177.2471 143.2624 -178.2957 167.4652
State:	 46.681  27.458  18.396  -0.308  0.409  0.859 149.679     34.32  109.85 -150.19  -39.09   77.72  112.09   26.85  116.21 -177.25  143.26 -178.30  167.47

DOCKED: MODEL       80
DOCKED: USER    Run = 80
DOCKED: USER    DPF = D:/Protein_go_brrr/autodock/final/2DN3/heme_Co/dock.dpf
DOCKED: USER  
DOCKED: USER    Estimated Free Energy of Binding    =   -6.68 kcal/mol  [=(1)+(2)+(3)-(4)]
DOCKED: USER    Estimated Inhibition Constant, Ki   =   12.69 uM (micromolar)  [Temperature = 298.15 K]
DOCKED: USER    
DOCKED: USER    (1) Final Intermolecular Energy     =  -10.26 kcal/mol
DOCKED: USER        vdW + Hbond + desolv Energy     =   -8.00 kcal/mol
DOCKED: USER        Electrostatic Energy            =   -2.26 kcal/mol
DOCKED: USER    (2) Final Total Internal Energy     =   -3.86 kcal/mol
DOCKED: USER    (3) Torsional Free Energy           =   +3.58 kcal/mol
DOCKED: USER    (4) Unbound System's Energy  [=(2)] =   -3.86 kcal/mol
DOCKED: USER    
DOCKED: USER    
DOCKED: USER    NEWDPF move heme_Co_opt.pdbqt
DOCKED: USER    NEWDPF about 8.781000 34.984000 -0.736000
DOCKED: USER    NEWDPF tran0 46.681205 27.458247 18.396477
DOCKED: USER    NEWDPF quaternion0 -0.297629 0.394642 0.829023 0.261525
DOCKED: USER    NEWDPF axisangle0 -0.308361 0.408872 0.858917 149.678856
DOCKED: USER    NEWDPF quat0 -0.308361 0.408872 0.858917 149.678856
DOCKED: USER    NEWDPF dihe0 34.32 109.85 -150.19 -39.09 77.72 112.09 26.85 116.21 -177.25 143.26 -178.30 167.47 
DOCKED: USER  keepresnum = 1 
DOCKED: USER  
DOCKED: REMARK  12 active torsions:
DOCKED: REMARK  status: ('A' for Active; 'I' for Inactive)
DOCKED: REMARK    1  A    between atoms: C_6  and  C_10 
DOCKED: REMARK    2  A    between atoms: C_10  and  C_11 
DOCKED: REMARK    3  A    between atoms: C_11  and  C_12 
DOCKED: REMARK    4  A    between atoms: C_12  and  O_14 
DOCKED: REMARK    5  A    between atoms: C_17  and  C_20 
DOCKED: REMARK    6  A    between atoms: C_24  and  C_27 
DOCKED: REMARK    7  A    between atoms: C_31  and  C_34 
DOCKED: REMARK    8  A    between atoms: C_34  and  C_35 
DOCKED: REMARK    9  A    between atoms: C_35  and  C_36 
DOCKED: REMARK   10  A    between atoms: C_36  and  O_38 
DOCKED: REMARK   11  A    between atoms: FE_43  and  C_44 
DOCKED: REMARK   12  A    between atoms: C_44  and  O_45 
DOCKED: USER                              x       y       z     vdW  Elec       q    Type
DOCKED: USER                           _______ _______ _______ _____ _____    ______ ____
DOCKED: ROOT
DOCKED: ATOM      1  C   UNL d   1      48.703  28.053  18.921 -0.08 +0.03    +0.064 A 
DOCKED: ATOM      2  C   UNL d   1      44.696  30.541  18.315 -0.28 +0.02    +0.064 C 
DOCKED: ATOM      3  C   UNL d   1      42.408  26.588  16.913 -0.32 +0.02    +0.064 A 
DOCKED: ATOM      4  C   UNL d   1      46.381  23.957  17.894 -0.19 +0.06    +0.064 A 
DOCKED: ATOM      5  C   UNL d   1      47.786  29.029  18.824 -0.10 +0.03    +0.066 A 
DOCKED: ATOM      6  C   UNL d   1      48.058  30.353  19.223 -0.09 -0.01    -0.021 A 
DOCKED: ATOM      7  C   UNL d   1      46.886  31.065  19.066 -0.14 -0.01    -0.025 A 
DOCKED: ATOM      8  C   UNL d   1      45.953  30.151  18.564 -0.17 +0.03    +0.066 A 
DOCKED: ATOM      9  C   UNL d   1      46.637  32.550  19.374 -0.15 +0.02    +0.051 C 
DOCKED: ATOM     10  C   UNL d   1      43.676  29.679  17.773 -0.28 +0.02    +0.066 A 
DOCKED: ATOM     11  C   UNL d   1      42.381  30.060  17.360 -0.34 -0.01    -0.021 A 
DOCKED: ATOM     12  C   UNL d   1      41.737  28.889  16.952 -0.15 +0.00    +0.000 A 
DOCKED: ATOM     13  C   UNL d   1      42.688  27.884  17.134 -0.26 +0.02    +0.070 A 
DOCKED: ATOM     14  C   UNL d   1      41.850  31.468  17.277 -0.46 +0.01    +0.052 C 
DOCKED: ATOM     15  C   UNL d   1      43.249  25.421  17.099 -0.25 +0.03    +0.066 A 
DOCKED: ATOM     16  C   UNL d   1      42.853  24.096  16.991 -0.37 -0.01    -0.021 A 
DOCKED: ATOM     17  C   UNL d   1      43.994  23.333  17.275 -0.26 +0.00    +0.000 A 
DOCKED: ATOM     18  C   UNL d   1      45.005  24.257  17.519 -0.22 +0.05    +0.070 A 
DOCKED: ATOM     19  C   UNL d   1      41.460  23.623  16.638 -0.49 +0.01    +0.052 C 
DOCKED: ATOM     20  C   UNL d   1      47.358  24.837  18.219 -0.16 +0.05    +0.066 A 
DOCKED: ATOM     21  C   UNL d   1      48.633  24.426  18.599 -0.11 -0.02    -0.025 A 
DOCKED: ATOM     22  C   UNL d   1      49.333  25.586  18.873 -0.07 -0.01    -0.021 A 
DOCKED: ATOM     23  C   UNL d   1      48.439  26.656  18.657 -0.09 +0.03    +0.066 A 
DOCKED: ATOM     24  C   UNL d   1      49.155  22.996  18.714 -0.10 +0.04    +0.051 C 
DOCKED: ATOM     25  N   UNL d   1      46.485  28.884  18.398 -0.06 -0.12    -0.248 N 
DOCKED: ATOM     26  N   UNL d   1      43.878  28.371  17.578 -0.18 -0.09    -0.248 N 
DOCKED: ATOM     27  N   UNL d   1      44.518  25.490  17.435 -0.14 -0.12    -0.248 N 
DOCKED: ATOM     28  N   UNL d   1      47.242  26.207  18.264 -0.09 -0.14    -0.248 N 
DOCKED: ATOM     29 FE   UNL d   1      45.446  27.085  17.888 -0.05 +0.00    +0.000 Fe
DOCKED: ENDROOT
DOCKED: BRANCH   6  30
DOCKED: ATOM     30  C   UNL d   1      49.367  30.876  19.804 -0.04 +0.02    +0.052 C 
DOCKED: BRANCH  30  31
DOCKED: ATOM     31  C   UNL d   1      49.326  30.850  21.331 -0.04 +0.05    +0.115 C 
DOCKED: BRANCH  31  32
DOCKED: ATOM     32  C   UNL d   1      48.021  30.298  21.864 -0.07 +0.14    +0.139 C 
DOCKED: ATOM     33  O   UNL d   1      47.177  31.067  22.300 -0.11 -0.78    -0.650 OA
DOCKED: BRANCH  32  34
DOCKED: ATOM     34  O   UNL d   1      47.733  28.976  21.829 -0.52 -1.16    -0.776 OA
DOCKED: ATOM     35  H   UNL d   1      48.396  28.274  21.880 +0.01 +0.17    +0.167 HD
DOCKED: ENDBRANCH  32  34
DOCKED: ENDBRANCH  31  32
DOCKED: ENDBRANCH  30  31
DOCKED: ENDBRANCH   6  30
DOCKED: BRANCH  29  36
DOCKED: ATOM     36  C   UNL d   1      44.927  26.943  19.914 -0.15 +0.13    +0.190 C 
DOCKED: BRANCH  36  37
DOCKED: ATOM     37  O   UNL d   1      45.437  27.091  21.208 -0.16 -0.51    -0.399 OA
DOCKED: ATOM     38  H   UNL d   1      46.404  27.304  21.080 +0.04 +0.25    +0.209 HD
DOCKED: ENDBRANCH  36  37
DOCKED: ENDBRANCH  29  36
DOCKED: BRANCH  22  39
DOCKED: ATOM     39  C   UNL d   1      50.763  25.653  19.378 -0.03 +0.02    +0.052 C 
DOCKED: BRANCH  39  40
DOCKED: ATOM     40  C   UNL d   1      50.795  25.668  20.915 +0.00 +0.04    +0.115 C 
DOCKED: BRANCH  40  41
DOCKED: ATOM     41  C   UNL d   1      49.750  26.558  21.554 -0.00 +0.07    +0.139 C 
DOCKED: ATOM     42  O   UNL d   1      50.091  27.624  22.045 +0.01 -0.31    -0.650 OA
DOCKED: BRANCH  41  43
DOCKED: ATOM     43  O   UNL d   1      48.435  26.247  21.518 +0.04 -0.49    -0.776 OA
DOCKED: ATOM     44  H   UNL d   1      47.745  26.917  21.428 +0.02 +0.14    +0.167 HD
DOCKED: ENDBRANCH  41  43
DOCKED: ENDBRANCH  40  41
DOCKED: ENDBRANCH  39  40
DOCKED: ENDBRANCH  22  39
DOCKED: BRANCH  12  45
DOCKED: ATOM     45  C   UNL d   1      40.348  28.608  16.396 -0.26 +0.00    +0.004 C 
DOCKED: ATOM     46  C   UNL d   1      39.150  29.010  16.813 -0.44 +0.00    +0.012 C 
DOCKED: ENDBRANCH  12  45
DOCKED: BRANCH  17  47
DOCKED: ATOM     47  C   UNL d   1      44.152  21.851  17.372 -0.31 +0.00    +0.004 C 
DOCKED: ATOM     48  C   UNL d   1      43.830  21.010  16.386 -0.37 +0.01    +0.012 C 
DOCKED: ENDBRANCH  17  47
DOCKED: TORSDOF 12
DOCKED: TER
DOCKED: ENDMDL
________________________________________________________________________________


	BEGINNING GENETIC ALGORITHM DOCKING 81 of 100
Run: 81 Seed: 1811489385 1970473882 [ Run 81 of 100 GA/GALS ]
Beginning LAMARCKIAN GENETIC ALGORITHM (LGA), with a maximum of 25000000 energy evaluations.

Final-Value: -10.637


	FINAL GENETIC ALGORITHM DOCKED STATE
	_______________________________________________


Detailed state:  trans 25.360 37.261 -3.965 quatxyzw -0.807306 0.061074 -0.543110 -0.222619 center 8.781 34.984 -0.736 ntor 12 -172.9182 110.5391 153.6374 116.6349 64.6151 133.2410 39.4795 -27.4913 166.5810 37.3142 -164.1117 22.4166
State:	 25.360  37.261  -3.965  -0.828  0.063 -0.557 -154.274   -172.92  110.54  153.64  116.63   64.62  133.24   39.48  -27.49  166.58   37.31 -164.11   22.42

DOCKED: MODEL       81
DOCKED: USER    Run = 81
DOCKED: USER    DPF = D:/Protein_go_brrr/autodock/final/2DN3/heme_Co/dock.dpf
DOCKED: USER  
DOCKED: USER    Estimated Free Energy of Binding    =   -4.86 kcal/mol  [=(1)+(2)+(3)-(4)]
DOCKED: USER    Estimated Inhibition Constant, Ki   =  275.90 uM (micromolar)  [Temperature = 298.15 K]
DOCKED: USER    
DOCKED: USER    (1) Final Intermolecular Energy     =   -8.44 kcal/mol
DOCKED: USER        vdW + Hbond + desolv Energy     =   -8.03 kcal/mol
DOCKED: USER        Electrostatic Energy            =   -0.40 kcal/mol
DOCKED: USER    (2) Final Total Internal Energy     =   -2.20 kcal/mol
DOCKED: USER    (3) Torsional Free Energy           =   +3.58 kcal/mol
DOCKED: USER    (4) Unbound System's Energy  [=(2)] =   -2.20 kcal/mol
DOCKED: USER    
DOCKED: USER    
DOCKED: USER    NEWDPF move heme_Co_opt.pdbqt
DOCKED: USER    NEWDPF about 8.781000 34.984000 -0.736000
DOCKED: USER    NEWDPF tran0 25.360379 37.261119 -3.964595
DOCKED: USER    NEWDPF quaternion0 -0.807306 0.061074 -0.543110 -0.222619
DOCKED: USER    NEWDPF axisangle0 -0.828086 0.062646 -0.557090 -154.274224
DOCKED: USER    NEWDPF quat0 -0.828086 0.062646 -0.557090 -154.274224
DOCKED: USER    NEWDPF dihe0 -172.92 110.54 153.64 116.63 64.62 133.24 39.48 -27.49 166.58 37.31 -164.11 22.42 
DOCKED: USER  keepresnum = 1 
DOCKED: USER  
DOCKED: REMARK  12 active torsions:
DOCKED: REMARK  status: ('A' for Active; 'I' for Inactive)
DOCKED: REMARK    1  A    between atoms: C_6  and  C_10 
DOCKED: REMARK    2  A    between atoms: C_10  and  C_11 
DOCKED: REMARK    3  A    between atoms: C_11  and  C_12 
DOCKED: REMARK    4  A    between atoms: C_12  and  O_14 
DOCKED: REMARK    5  A    between atoms: C_17  and  C_20 
DOCKED: REMARK    6  A    between atoms: C_24  and  C_27 
DOCKED: REMARK    7  A    between atoms: C_31  and  C_34 
DOCKED: REMARK    8  A    between atoms: C_34  and  C_35 
DOCKED: REMARK    9  A    between atoms: C_35  and  C_36 
DOCKED: REMARK   10  A    between atoms: C_36  and  O_38 
DOCKED: REMARK   11  A    between atoms: FE_43  and  C_44 
DOCKED: REMARK   12  A    between atoms: C_44  and  O_45 
DOCKED: USER                              x       y       z     vdW  Elec       q    Type
DOCKED: USER                           _______ _______ _______ _____ _____    ______ ____
DOCKED: ROOT
DOCKED: ATOM      1  C   UNL d   1      23.884  37.225  -5.557 -0.18 +0.00    +0.064 A 
DOCKED: ATOM      2  C   UNL d   1      27.387  40.268  -4.516 -0.15 +0.01    +0.064 C 
DOCKED: ATOM      3  C   UNL d   1      28.347  37.850  -0.508 -0.13 +0.01    +0.064 A 
DOCKED: ATOM      4  C   UNL d   1      25.033  34.511  -1.744 -0.29 -0.00    +0.064 A 
DOCKED: ATOM      5  C   UNL d   1      24.747  38.255  -5.548 -0.19 +0.01    +0.066 A 
DOCKED: ATOM      6  C   UNL d   1      24.827  39.171  -6.615 -0.15 -0.00    -0.021 A 
DOCKED: ATOM      7  C   UNL d   1      25.861  40.038  -6.318 -0.12 -0.00    -0.025 A 
DOCKED: ATOM      8  C   UNL d   1      26.355  39.624  -5.077 -0.17 +0.01    +0.066 A 
DOCKED: ATOM      9  C   UNL d   1      26.375  41.215  -7.161 -0.06 +0.01    +0.051 C 
DOCKED: ATOM     10  C   UNL d   1      27.946  39.930  -3.231 -0.14 +0.01    +0.066 A 
DOCKED: ATOM     11  C   UNL d   1      28.934  40.651  -2.525 -0.10 -0.00    -0.021 A 
DOCKED: ATOM     12  C   UNL d   1      29.192  39.926  -1.358 -0.11 +0.00    +0.000 A 
DOCKED: ATOM     13  C   UNL d   1      28.336  38.827  -1.432 -0.11 +0.01    +0.070 A 
DOCKED: ATOM     14  C   UNL d   1      29.509  41.990  -2.912 -0.04 +0.01    +0.052 C 
DOCKED: ATOM     15  C   UNL d   1      27.573  36.625  -0.456 -0.09 +0.01    +0.066 A 
DOCKED: ATOM     16  C   UNL d   1      27.736  35.587   0.451 -0.18 -0.01    -0.021 A 
DOCKED: ATOM     17  C   UNL d   1      26.784  34.620   0.097 -0.25 +0.00    +0.000 A 
DOCKED: ATOM     18  C   UNL d   1      26.101  35.155  -0.991 -0.20 +0.01    +0.070 A 
DOCKED: ATOM     19  C   UNL d   1      28.750  35.553   1.572 -0.16 +0.02    +0.052 C 
DOCKED: ATOM     20  C   UNL d   1      24.414  34.973  -2.857 -0.30 -0.01    +0.066 A 
DOCKED: ATOM     21  C   UNL d   1      23.424  34.245  -3.514 -0.38 +0.00    -0.025 A 
DOCKED: ATOM     22  C   UNL d   1      23.053  35.016  -4.601 -0.31 +0.00    -0.021 A 
DOCKED: ATOM     23  C   UNL d   1      23.851  36.180  -4.559 -0.21 -0.00    +0.066 A 
DOCKED: ATOM     24  C   UNL d   1      22.871  32.874  -3.137 -0.40 -0.03    +0.051 C 
DOCKED: ATOM     25  N   UNL d   1      25.680  38.525  -4.574 -0.19 -0.03    -0.248 N 
DOCKED: ATOM     26  N   UNL d   1      27.544  38.860  -2.537 -0.12 -0.03    -0.248 N 
DOCKED: ATOM     27  N   UNL d   1      26.618  36.336  -1.311 -0.06 -0.02    -0.248 N 
DOCKED: ATOM     28  N   UNL d   1      24.677  36.157  -3.507 -0.18 +0.02    -0.248 N 
DOCKED: ATOM     29 FE   UNL d   1      26.174  37.363  -2.846 -0.06 +0.00    +0.000 Fe
DOCKED: ENDROOT
DOCKED: BRANCH   6  30
DOCKED: ATOM     30  C   UNL d   1      23.997  39.153  -7.894 -0.10 +0.01    +0.052 C 
DOCKED: BRANCH  30  31
DOCKED: ATOM     31  C   UNL d   1      24.557  38.131  -8.884 -0.02 +0.02    +0.115 C 
DOCKED: BRANCH  31  32
DOCKED: ATOM     32  C   UNL d   1      25.957  37.684  -8.521 -0.01 +0.01    +0.139 C 
DOCKED: ATOM     33  O   UNL d   1      26.917  38.295  -8.966 +0.01 -0.05    -0.650 OA
DOCKED: BRANCH  32  34
DOCKED: ATOM     34  O   UNL d   1      26.184  36.651  -7.676 +0.03 -0.04    -0.776 OA
DOCKED: ATOM     35  H   UNL d   1      27.063  36.365  -7.392 +0.01 +0.01    +0.167 HD
DOCKED: ENDBRANCH  32  34
DOCKED: ENDBRANCH  31  32
DOCKED: ENDBRANCH  30  31
DOCKED: ENDBRANCH   6  30
DOCKED: BRANCH  29  36
DOCKED: ATOM     36  C   UNL d   1      27.554  36.354  -4.059 -0.06 +0.01    +0.190 C 
DOCKED: BRANCH  36  37
DOCKED: ATOM     37  O   UNL d   1      27.860  36.058  -5.391 -0.00 -0.02    -0.399 OA
DOCKED: ATOM     38  H   UNL d   1      27.119  36.467  -5.921 +0.02 +0.01    +0.209 HD
DOCKED: ENDBRANCH  36  37
DOCKED: ENDBRANCH  29  36
DOCKED: BRANCH  22  39
DOCKED: ATOM     39  C   UNL d   1      22.035  34.621  -5.654 -0.27 +0.00    +0.052 C 
DOCKED: BRANCH  39  40
DOCKED: ATOM     40  C   UNL d   1      20.924  35.679  -5.759 -0.34 +0.02    +0.115 C 
DOCKED: BRANCH  40  41
DOCKED: ATOM     41  C   UNL d   1      19.567  35.124  -6.138 -0.34 +0.04    +0.139 C 
DOCKED: ATOM     42  O   UNL d   1      18.669  35.121  -5.307 -0.50 -0.24    -0.650 OA
DOCKED: BRANCH  41  43
DOCKED: ATOM     43  O   UNL d   1      19.294  34.712  -7.396 -0.28 -0.19    -0.776 OA
DOCKED: ATOM     44  H   UNL d   1      18.565  34.112  -7.599 -0.29 +0.00    +0.167 HD
DOCKED: ENDBRANCH  41  43
DOCKED: ENDBRANCH  40  41
DOCKED: ENDBRANCH  39  40
DOCKED: ENDBRANCH  22  39
DOCKED: BRANCH  12  45
DOCKED: ATOM     45  C   UNL d   1      30.130  40.154  -0.180 -0.08 +0.00    +0.004 C 
DOCKED: ATOM     46  C   UNL d   1      29.871  40.504   1.077 -0.12 +0.00    +0.012 C 
DOCKED: ENDBRANCH  12  45
DOCKED: BRANCH  17  47
DOCKED: ATOM     47  C   UNL d   1      26.537  33.267   0.677 -0.33 +0.00    +0.004 C 
DOCKED: ATOM     48  C   UNL d   1      26.529  33.017   1.989 -0.31 +0.00    +0.012 C 
DOCKED: ENDBRANCH  17  47
DOCKED: TORSDOF 12
DOCKED: TER
DOCKED: ENDMDL
________________________________________________________________________________


	BEGINNING GENETIC ALGORITHM DOCKING 82 of 100
Run: 82 Seed: 1612977788 1377793825 [ Run 82 of 100 GA/GALS ]
Beginning LAMARCKIAN GENETIC ALGORITHM (LGA), with a maximum of 25000000 energy evaluations.

Final-Value: -13.194


	FINAL GENETIC ALGORITHM DOCKED STATE
	_______________________________________________


Detailed state:  trans 45.359 26.014 19.202 quatxyzw -0.516509 -0.833011 0.189888 0.057047 center 8.781 34.984 -0.736 ntor 12 159.8237 119.8465 68.3007 -15.9328 61.6064 139.7642 -117.9230 -164.3149 -132.0654 111.3029 177.9230 2.5791
State:	 45.359  26.014  19.202  -0.517 -0.834  0.190 173.459    159.82  119.85   68.30  -15.93   61.61  139.76 -117.92 -164.31 -132.07  111.30  177.92    2.58

DOCKED: MODEL       82
DOCKED: USER    Run = 82
DOCKED: USER    DPF = D:/Protein_go_brrr/autodock/final/2DN3/heme_Co/dock.dpf
DOCKED: USER  
DOCKED: USER    Estimated Free Energy of Binding    =   -7.45 kcal/mol  [=(1)+(2)+(3)-(4)]
DOCKED: USER    Estimated Inhibition Constant, Ki   =    3.48 uM (micromolar)  [Temperature = 298.15 K]
DOCKED: USER    
DOCKED: USER    (1) Final Intermolecular Energy     =  -11.03 kcal/mol
DOCKED: USER        vdW + Hbond + desolv Energy     =   -8.25 kcal/mol
DOCKED: USER        Electrostatic Energy            =   -2.77 kcal/mol
DOCKED: USER    (2) Final Total Internal Energy     =   -2.17 kcal/mol
DOCKED: USER    (3) Torsional Free Energy           =   +3.58 kcal/mol
DOCKED: USER    (4) Unbound System's Energy  [=(2)] =   -2.17 kcal/mol
DOCKED: USER    
DOCKED: USER    
DOCKED: USER    NEWDPF move heme_Co_opt.pdbqt
DOCKED: USER    NEWDPF about 8.781000 34.984000 -0.736000
DOCKED: USER    NEWDPF tran0 45.358978 26.014495 19.202395
DOCKED: USER    NEWDPF quaternion0 -0.516509 -0.833011 0.189888 0.057047
DOCKED: USER    NEWDPF axisangle0 -0.517352 -0.834369 0.190197 173.459324
DOCKED: USER    NEWDPF quat0 -0.517352 -0.834369 0.190197 173.459324
DOCKED: USER    NEWDPF dihe0 159.82 119.85 68.30 -15.93 61.61 139.76 -117.92 -164.31 -132.07 111.30 177.92 2.58 
DOCKED: USER  keepresnum = 1 
DOCKED: USER  
DOCKED: REMARK  12 active torsions:
DOCKED: REMARK  status: ('A' for Active; 'I' for Inactive)
DOCKED: REMARK    1  A    between atoms: C_6  and  C_10 
DOCKED: REMARK    2  A    between atoms: C_10  and  C_11 
DOCKED: REMARK    3  A    between atoms: C_11  and  C_12 
DOCKED: REMARK    4  A    between atoms: C_12  and  O_14 
DOCKED: REMARK    5  A    between atoms: C_17  and  C_20 
DOCKED: REMARK    6  A    between atoms: C_24  and  C_27 
DOCKED: REMARK    7  A    between atoms: C_31  and  C_34 
DOCKED: REMARK    8  A    between atoms: C_34  and  C_35 
DOCKED: REMARK    9  A    between atoms: C_35  and  C_36 
DOCKED: REMARK   10  A    between atoms: C_36  and  O_38 
DOCKED: REMARK   11  A    between atoms: FE_43  and  C_44 
DOCKED: REMARK   12  A    between atoms: C_44  and  O_45 
DOCKED: USER                              x       y       z     vdW  Elec       q    Type
DOCKED: USER                           _______ _______ _______ _____ _____    ______ ____
DOCKED: ROOT
DOCKED: ATOM      1  C   UNL d   1      46.775  24.907  20.421 -0.06 +0.04    +0.064 A 
DOCKED: ATOM      2  C   UNL d   1      43.472  23.513  17.297 -0.35 +0.03    +0.064 C 
DOCKED: ATOM      3  C   UNL d   1      41.980  28.025  16.803 -0.24 +0.02    +0.064 A 
DOCKED: ATOM      4  C   UNL d   1      45.595  29.522  19.694 -0.20 +0.05    +0.064 A 
DOCKED: ATOM      5  C   UNL d   1      45.958  24.190  19.631 -0.13 +0.04    +0.066 A 
DOCKED: ATOM      6  C   UNL d   1      46.124  22.803  19.447 -0.16 -0.01    -0.021 A 
DOCKED: ATOM      7  C   UNL d   1      45.178  22.408  18.523 -0.15 -0.02    -0.025 A 
DOCKED: ATOM      8  C   UNL d   1      44.465  23.566  18.194 -0.23 +0.04    +0.066 A 
DOCKED: ATOM      9  C   UNL d   1      44.942  20.998  17.959 -0.21 +0.03    +0.051 C 
DOCKED: ATOM     10  C   UNL d   1      42.666  24.646  16.917 -0.32 +0.02    +0.066 A 
DOCKED: ATOM     11  C   UNL d   1      41.522  24.628  16.089 -0.43 -0.01    -0.021 A 
DOCKED: ATOM     12  C   UNL d   1      41.105  25.956  15.965 -0.42 +0.00    +0.000 A 
DOCKED: ATOM     13  C   UNL d   1      42.015  26.682  16.734 -0.33 +0.02    +0.070 A 
DOCKED: ATOM     14  C   UNL d   1      40.835  23.402  15.543 -0.41 +0.01    +0.052 C 
DOCKED: ATOM     15  C   UNL d   1      42.868  28.933  17.502 -0.22 +0.02    +0.066 A 
DOCKED: ATOM     16  C   UNL d   1      42.864  30.318  17.415 -0.35 -0.01    -0.021 A 
DOCKED: ATOM     17  C   UNL d   1      43.906  30.754  18.245 -0.32 +0.00    +0.000 A 
DOCKED: ATOM     18  C   UNL d   1      44.455  29.598  18.789 -0.22 +0.03    +0.070 A 
DOCKED: ATOM     19  C   UNL d   1      41.910  31.141  16.579 -0.18 +0.01    +0.052 C 
DOCKED: ATOM     20  C   UNL d   1      46.200  28.407  20.166 -0.15 +0.06    +0.066 A 
DOCKED: ATOM     21  C   UNL d   1      47.313  28.462  21.003 -0.04 -0.03    -0.025 A 
DOCKED: ATOM     22  C   UNL d   1      47.657  27.146  21.253 -0.07 -0.02    -0.021 A 
DOCKED: ATOM     23  C   UNL d   1      46.738  26.347  20.540 -0.07 +0.05    +0.066 A 
DOCKED: ATOM     24  C   UNL d   1      48.026  29.707  21.524 -0.07 +0.05    +0.051 C 
DOCKED: ATOM     25  N   UNL d   1      44.923  24.684  18.871 -0.11 -0.14    -0.248 N 
DOCKED: ATOM     26  N   UNL d   1      42.924  25.883  17.354 -0.20 -0.09    -0.248 N 
DOCKED: ATOM     27  N   UNL d   1      43.832  28.531  18.301 -0.07 -0.11    -0.248 N 
DOCKED: ATOM     28  N   UNL d   1      45.855  27.106  19.880 -0.08 -0.18    -0.248 N 
DOCKED: ATOM     29 FE   UNL d   1      44.347  26.722  18.571 -0.05 +0.00    +0.000 Fe
DOCKED: ENDROOT
DOCKED: BRANCH   6  30
DOCKED: ATOM     30  C   UNL d   1      47.201  21.925  20.075 -0.13 +0.03    +0.052 C 
DOCKED: BRANCH  30  31
DOCKED: ATOM     31  C   UNL d   1      48.357  21.711  19.098 -0.09 +0.09    +0.115 C 
DOCKED: BRANCH  31  32
DOCKED: ATOM     32  C   UNL d   1      48.795  22.996  18.431 -0.06 +0.14    +0.139 C 
DOCKED: ATOM     33  O   UNL d   1      49.897  23.460  18.685 -0.01 -0.44    -0.650 OA
DOCKED: BRANCH  32  34
DOCKED: ATOM     34  O   UNL d   1      48.022  23.631  17.519 +0.08 -1.09    -0.776 OA
DOCKED: ATOM     35  H   UNL d   1      48.078  24.576  17.322 +0.03 +0.18    +0.167 HD
DOCKED: ENDBRANCH  32  34
DOCKED: ENDBRANCH  31  32
DOCKED: ENDBRANCH  30  31
DOCKED: ENDBRANCH   6  30
DOCKED: BRANCH  29  36
DOCKED: ATOM     36  C   UNL d   1      45.699  26.751  16.969 +0.03 +0.09    +0.190 C 
DOCKED: BRANCH  36  37
DOCKED: ATOM     37  O   UNL d   1      46.768  26.051  16.401 -0.16 -0.27    -0.399 OA
DOCKED: ATOM     38  H   UNL d   1      46.836  25.210  16.933 +0.06 +0.18    +0.209 HD
DOCKED: ENDBRANCH  36  37
DOCKED: ENDBRANCH  29  36
DOCKED: BRANCH  22  39
DOCKED: ATOM     39  C   UNL d   1      48.846  26.689  22.078 -0.03 +0.03    +0.052 C 
DOCKED: BRANCH  39  40
DOCKED: ATOM     40  C   UNL d   1      48.390  26.200  23.462 -0.04 +0.09    +0.115 C 
DOCKED: BRANCH  40  41
DOCKED: ATOM     41  C   UNL d   1      47.989  27.307  24.415 +0.08 +0.18    +0.139 C 
DOCKED: ATOM     42  O   UNL d   1      48.471  28.422  24.274 -0.06 -0.82    -0.650 OA
DOCKED: BRANCH  41  43
DOCKED: ATOM     43  O   UNL d   1      47.046  27.120  25.365 -0.34 -1.24    -0.776 OA
DOCKED: ATOM     44  H   UNL d   1      47.213  26.611  26.169 +0.01 +0.14    +0.167 HD
DOCKED: ENDBRANCH  41  43
DOCKED: ENDBRANCH  40  41
DOCKED: ENDBRANCH  39  40
DOCKED: ENDBRANCH  22  39
DOCKED: BRANCH  12  45
DOCKED: ATOM     45  C   UNL d   1      39.948  26.617  15.228 -0.48 +0.00    +0.004 C 
DOCKED: ATOM     46  C   UNL d   1      39.254  26.213  14.167 -0.54 +0.00    +0.012 C 
DOCKED: ENDBRANCH  12  45
DOCKED: BRANCH  17  47
DOCKED: ATOM     47  C   UNL d   1      44.412  32.137  18.495 -0.32 +0.00    +0.004 C 
DOCKED: ATOM     48  C   UNL d   1      43.615  33.201  18.626 -0.45 +0.00    +0.012 C 
DOCKED: ENDBRANCH  17  47
DOCKED: TORSDOF 12
DOCKED: TER
DOCKED: ENDMDL
________________________________________________________________________________


	BEGINNING GENETIC ALGORITHM DOCKING 83 of 100
Run: 83 Seed: 545067999 466626721 [ Run 83 of 100 GA/GALS ]
Beginning LAMARCKIAN GENETIC ALGORITHM (LGA), with a maximum of 25000000 energy evaluations.

Final-Value: -18.283


	FINAL GENETIC ALGORITHM DOCKED STATE
	_______________________________________________


Detailed state:  trans 40.991 29.068 16.241 quatxyzw 0.359837 -0.405342 -0.838882 0.049914 center 8.781 34.984 -0.736 ntor 12 101.9540 110.8606 98.5939 -92.2646 -50.0526 4.8853 149.3935 -86.6928 3.4239 -9.9333 -32.5789 -57.0586
State:	 40.991  29.068  16.241   0.360 -0.406 -0.840 174.278    101.95  110.86   98.59  -92.26  -50.05    4.89  149.39  -86.69    3.42   -9.93  -32.58  -57.06

DOCKED: MODEL       83
DOCKED: USER    Run = 83
DOCKED: USER    DPF = D:/Protein_go_brrr/autodock/final/2DN3/heme_Co/dock.dpf
DOCKED: USER  
DOCKED: USER    Estimated Free Energy of Binding    =  -14.35 kcal/mol  [=(1)+(2)+(3)-(4)]
DOCKED: USER    Estimated Inhibition Constant, Ki   =   30.48 pM (picomolar)  [Temperature = 298.15 K]
DOCKED: USER    
DOCKED: USER    (1) Final Intermolecular Energy     =  -17.93 kcal/mol
DOCKED: USER        vdW + Hbond + desolv Energy     =  -15.59 kcal/mol
DOCKED: USER        Electrostatic Energy            =   -2.33 kcal/mol
DOCKED: USER    (2) Final Total Internal Energy     =   -0.36 kcal/mol
DOCKED: USER    (3) Torsional Free Energy           =   +3.58 kcal/mol
DOCKED: USER    (4) Unbound System's Energy  [=(2)] =   -0.36 kcal/mol
DOCKED: USER    
DOCKED: USER    
DOCKED: USER    NEWDPF move heme_Co_opt.pdbqt
DOCKED: USER    NEWDPF about 8.781000 34.984000 -0.736000
DOCKED: USER    NEWDPF tran0 40.990698 29.068091 16.240917
DOCKED: USER    NEWDPF quaternion0 0.359837 -0.405342 -0.838882 0.049914
DOCKED: USER    NEWDPF axisangle0 0.360286 -0.405848 -0.839929 174.277869
DOCKED: USER    NEWDPF quat0 0.360286 -0.405848 -0.839929 174.277869
DOCKED: USER    NEWDPF dihe0 101.95 110.86 98.59 -92.26 -50.05 4.89 149.39 -86.69 3.42 -9.93 -32.58 -57.06 
DOCKED: USER  keepresnum = 1 
DOCKED: USER  
DOCKED: REMARK  12 active torsions:
DOCKED: REMARK  status: ('A' for Active; 'I' for Inactive)
DOCKED: REMARK    1  A    between atoms: C_6  and  C_10 
DOCKED: REMARK    2  A    between atoms: C_10  and  C_11 
DOCKED: REMARK    3  A    between atoms: C_11  and  C_12 
DOCKED: REMARK    4  A    between atoms: C_12  and  O_14 
DOCKED: REMARK    5  A    between atoms: C_17  and  C_20 
DOCKED: REMARK    6  A    between atoms: C_24  and  C_27 
DOCKED: REMARK    7  A    between atoms: C_31  and  C_34 
DOCKED: REMARK    8  A    between atoms: C_34  and  C_35 
DOCKED: REMARK    9  A    between atoms: C_35  and  C_36 
DOCKED: REMARK   10  A    between atoms: C_36  and  O_38 
DOCKED: REMARK   11  A    between atoms: FE_43  and  C_44 
DOCKED: REMARK   12  A    between atoms: C_44  and  O_45 
DOCKED: USER                              x       y       z     vdW  Elec       q    Type
DOCKED: USER                           _______ _______ _______ _____ _____    ______ ____
DOCKED: ROOT
DOCKED: ATOM      1  C   UNL d   1      42.706  28.529  17.458 -0.15 +0.02    +0.064 A 
DOCKED: ATOM      2  C   UNL d   1      40.675  32.714  16.474 -0.48 +0.01    +0.064 C 
DOCKED: ATOM      3  C   UNL d   1      37.668  30.583  13.434 -0.35 +0.01    +0.064 A 
DOCKED: ATOM      4  C   UNL d   1      39.470  26.248  14.712 -0.41 +0.01    +0.064 A 
DOCKED: ATOM      5  C   UNL d   1      42.396  29.834  17.385 -0.27 +0.02    +0.066 A 
DOCKED: ATOM      6  C   UNL d   1      43.022  30.798  18.200 -0.36 -0.01    -0.021 A 
DOCKED: ATOM      7  C   UNL d   1      42.413  32.007  17.926 -0.44 -0.01    -0.025 A 
DOCKED: ATOM      8  C   UNL d   1      41.453  31.733  16.946 -0.40 +0.01    +0.066 A 
DOCKED: ATOM      9  C   UNL d   1      42.712  33.376  18.556 -0.41 +0.01    +0.051 C 
DOCKED: ATOM     10  C   UNL d   1      39.679  32.532  15.448 -0.39 +0.01    +0.066 A 
DOCKED: ATOM     11  C   UNL d   1      38.928  33.545  14.811 -0.43 -0.00    -0.021 A 
DOCKED: ATOM     12  C   UNL d   1      38.063  32.895  13.927 -0.40 +0.00    +0.000 A 
DOCKED: ATOM     13  C   UNL d   1      38.357  31.540  14.079 -0.37 +0.01    +0.070 A 
DOCKED: ATOM     14  C   UNL d   1      39.111  35.031  14.982 -0.55 +0.01    +0.052 C 
DOCKED: ATOM     15  C   UNL d   1      37.802  29.141  13.513 -0.38 +0.01    +0.066 A 
DOCKED: ATOM     16  C   UNL d   1      36.962  28.203  12.930 -0.48 -0.00    -0.021 A 
DOCKED: ATOM     17  C   UNL d   1      37.476  26.951  13.297 -0.46 +0.00    +0.000 A 
DOCKED: ATOM     18  C   UNL d   1      38.604  27.226  14.065 -0.37 +0.01    +0.070 A 
DOCKED: ATOM     19  C   UNL d   1      35.751  28.518  12.081 -0.66 +0.01    +0.052 C 
DOCKED: ATOM     20  C   UNL d   1      40.519  26.492  15.532 -0.38 +0.02    +0.066 A 
DOCKED: ATOM     21  C   UNL d   1      41.255  25.467  16.124 -0.38 -0.01    -0.025 A 
DOCKED: ATOM     22  C   UNL d   1      42.213  26.095  16.899 -0.35 -0.01    -0.021 A 
DOCKED: ATOM     23  C   UNL d   1      42.006  27.483  16.750 -0.31 +0.02    +0.066 A 
DOCKED: ATOM     24  C   UNL d   1      41.043  23.963  15.975 -0.55 +0.01    +0.051 C 
DOCKED: ATOM     25  N   UNL d   1      41.425  30.395  16.588 -0.14 -0.08    -0.248 N 
DOCKED: ATOM     26  N   UNL d   1      39.373  31.326  14.958 -0.22 -0.05    -0.248 N 
DOCKED: ATOM     27  N   UNL d   1      38.750  28.540  14.197 -0.19 -0.06    -0.248 N 
DOCKED: ATOM     28  N   UNL d   1      40.980  27.728  15.925 -0.21 -0.09    -0.248 N 
DOCKED: ATOM     29 FE   UNL d   1      40.010  29.409  15.322 -0.04 +0.00    +0.000 Fe
DOCKED: ENDROOT
DOCKED: BRANCH   6  30
DOCKED: ATOM     30  C   UNL d   1      44.100  30.541  19.248 -0.31 +0.02    +0.052 C 
DOCKED: BRANCH  30  31
DOCKED: ATOM     31  C   UNL d   1      45.248  29.729  18.651 -0.21 +0.05    +0.115 C 
DOCKED: BRANCH  31  32
DOCKED: ATOM     32  C   UNL d   1      46.325  29.418  19.667 -0.16 +0.10    +0.139 C 
DOCKED: ATOM     33  O   UNL d   1      46.063  29.480  20.859 -0.36 -0.88    -0.650 OA
DOCKED: BRANCH  32  34
DOCKED: ATOM     34  O   UNL d   1      47.567  29.024  19.300 +0.04 -0.42    -0.776 OA
DOCKED: ATOM     35  H   UNL d   1      48.329  29.616  19.239 +0.03 +0.07    +0.167 HD
DOCKED: ENDBRANCH  32  34
DOCKED: ENDBRANCH  31  32
DOCKED: ENDBRANCH  30  31
DOCKED: ENDBRANCH   6  30
DOCKED: BRANCH  29  36
DOCKED: ATOM     36  C   UNL d   1      38.751  29.311  16.996 -0.34 +0.05    +0.190 C 
DOCKED: BRANCH  36  37
DOCKED: ATOM     37  O   UNL d   1      37.742  28.545  17.587 -0.25 -0.08    -0.399 OA
DOCKED: ATOM     38  H   UNL d   1      37.571  27.803  16.942 +0.13 +0.04    +0.209 HD
DOCKED: ENDBRANCH  36  37
DOCKED: ENDBRANCH  29  36
DOCKED: BRANCH  22  39
DOCKED: ATOM     39  C   UNL d   1      43.227  25.393  17.782 -0.35 +0.02    +0.052 C 
DOCKED: BRANCH  39  40
DOCKED: ATOM     40  C   UNL d   1      43.854  24.198  17.046 -0.21 +0.06    +0.115 C 
DOCKED: BRANCH  40  41
DOCKED: ATOM     41  C   UNL d   1      45.119  23.665  17.684 -0.23 +0.10    +0.139 C 
DOCKED: ATOM     42  O   UNL d   1      45.120  23.393  18.876 -0.08 -0.40    -0.650 OA
DOCKED: BRANCH  41  43
DOCKED: ATOM     43  O   UNL d   1      46.225  23.399  16.953 -0.34 -1.24    -0.776 OA
DOCKED: ATOM     44  H   UNL d   1      47.003  23.971  16.961 +0.03 +0.26    +0.167 HD
DOCKED: ENDBRANCH  41  43
DOCKED: ENDBRANCH  40  41
DOCKED: ENDBRANCH  39  40
DOCKED: ENDBRANCH  22  39
DOCKED: BRANCH  12  45
DOCKED: ATOM     45  C   UNL d   1      37.011  33.398  12.947 -0.52 +0.00    +0.004 C 
DOCKED: ATOM     46  C   UNL d   1      35.686  33.453  13.052 -0.59 +0.00    +0.012 C 
DOCKED: ENDBRANCH  12  45
DOCKED: BRANCH  17  47
DOCKED: ATOM     47  C   UNL d   1      36.950  25.583  13.014 -0.63 +0.00    +0.004 C 
DOCKED: ATOM     48  C   UNL d   1      35.855  25.080  13.590 -0.71 +0.00    +0.012 C 
DOCKED: ENDBRANCH  17  47
DOCKED: TORSDOF 12
DOCKED: TER
DOCKED: ENDMDL
________________________________________________________________________________


	BEGINNING GENETIC ALGORITHM DOCKING 84 of 100
Run: 84 Seed: 903040985 259473066 [ Run 84 of 100 GA/GALS ]
Beginning LAMARCKIAN GENETIC ALGORITHM (LGA), with a maximum of 25000000 energy evaluations.

Final-Value: -11.033


	FINAL GENETIC ALGORITHM DOCKED STATE
	_______________________________________________


Detailed state:  trans 40.067 30.278 -0.454 quatxyzw -0.852845 0.073488 0.172710 -0.487263 center 8.781 34.984 -0.736 ntor 12 34.3123 111.3722 -161.3505 116.0619 -99.4847 113.2331 24.6798 119.3777 179.5992 144.6230 179.9724 163.9166
State:	 40.067  30.278  -0.454  -0.977  0.084  0.198 -121.678     34.31  111.37 -161.35  116.06  -99.48  113.23   24.68  119.38  179.60  144.62  179.97  163.92

DOCKED: MODEL       84
DOCKED: USER    Run = 84
DOCKED: USER    DPF = D:/Protein_go_brrr/autodock/final/2DN3/heme_Co/dock.dpf
DOCKED: USER  
DOCKED: USER    Estimated Free Energy of Binding    =   -3.54 kcal/mol  [=(1)+(2)+(3)-(4)]
DOCKED: USER    Estimated Inhibition Constant, Ki   =    2.54 mM (millimolar)  [Temperature = 298.15 K]
DOCKED: USER    
DOCKED: USER    (1) Final Intermolecular Energy     =   -7.12 kcal/mol
DOCKED: USER        vdW + Hbond + desolv Energy     =   -6.92 kcal/mol
DOCKED: USER        Electrostatic Energy            =   -0.20 kcal/mol
DOCKED: USER    (2) Final Total Internal Energy     =   -3.91 kcal/mol
DOCKED: USER    (3) Torsional Free Energy           =   +3.58 kcal/mol
DOCKED: USER    (4) Unbound System's Energy  [=(2)] =   -3.91 kcal/mol
DOCKED: USER    
DOCKED: USER    
DOCKED: USER    NEWDPF move heme_Co_opt.pdbqt
DOCKED: USER    NEWDPF about 8.781000 34.984000 -0.736000
DOCKED: USER    NEWDPF tran0 40.067234 30.277508 -0.454082
DOCKED: USER    NEWDPF quaternion0 -0.852845 0.073488 0.172710 -0.487263
DOCKED: USER    NEWDPF axisangle0 -0.976628 0.084154 0.197777 -121.678264
DOCKED: USER    NEWDPF quat0 -0.976628 0.084154 0.197777 -121.678264
DOCKED: USER    NEWDPF dihe0 34.31 111.37 -161.35 116.06 -99.48 113.23 24.68 119.38 179.60 144.62 179.97 163.92 
DOCKED: USER  keepresnum = 1 
DOCKED: USER  
DOCKED: REMARK  12 active torsions:
DOCKED: REMARK  status: ('A' for Active; 'I' for Inactive)
DOCKED: REMARK    1  A    between atoms: C_6  and  C_10 
DOCKED: REMARK    2  A    between atoms: C_10  and  C_11 
DOCKED: REMARK    3  A    between atoms: C_11  and  C_12 
DOCKED: REMARK    4  A    between atoms: C_12  and  O_14 
DOCKED: REMARK    5  A    between atoms: C_17  and  C_20 
DOCKED: REMARK    6  A    between atoms: C_24  and  C_27 
DOCKED: REMARK    7  A    between atoms: C_31  and  C_34 
DOCKED: REMARK    8  A    between atoms: C_34  and  C_35 
DOCKED: REMARK    9  A    between atoms: C_35  and  C_36 
DOCKED: REMARK   10  A    between atoms: C_36  and  O_38 
DOCKED: REMARK   11  A    between atoms: FE_43  and  C_44 
DOCKED: REMARK   12  A    between atoms: C_44  and  O_45 
DOCKED: USER                              x       y       z     vdW  Elec       q    Type
DOCKED: USER                           _______ _______ _______ _____ _____    ______ ____
DOCKED: ROOT
DOCKED: ATOM      1  C   UNL d   1      38.312  29.210   0.248 -0.24 +0.01    +0.064 A 
DOCKED: ATOM      2  C   UNL d   1      39.430  33.831   0.192 -0.32 +0.01    +0.064 C 
DOCKED: ATOM      3  C   UNL d   1      43.789  32.794  -1.469 -0.12 -0.00    +0.064 A 
DOCKED: ATOM      4  C   UNL d   1      42.538  28.104  -1.785 -0.20 +0.01    +0.064 A 
DOCKED: ATOM      5  C   UNL d   1      38.310  30.546   0.389 -0.27 +0.01    +0.066 A 
DOCKED: ATOM      6  C   UNL d   1      37.161  31.253   0.794 -0.23 -0.00    -0.021 A 
DOCKED: ATOM      7  C   UNL d   1      37.484  32.595   0.754 -0.22 -0.00    -0.025 A 
DOCKED: ATOM      8  C   UNL d   1      38.820  32.648   0.342 -0.22 +0.01    +0.066 A 
DOCKED: ATOM      9  C   UNL d   1      36.581  33.792   1.087 -0.25 +0.00    +0.051 C 
DOCKED: ATOM     10  C   UNL d   1      40.808  33.984  -0.202 -0.25 +0.01    +0.066 A 
DOCKED: ATOM     11  C   UNL d   1      41.546  35.187  -0.243 -0.22 -0.00    -0.021 A 
DOCKED: ATOM     12  C   UNL d   1      42.814  34.855  -0.726 -0.11 +0.00    +0.000 A 
DOCKED: ATOM     13  C   UNL d   1      42.761  33.477  -0.933 -0.17 +0.01    +0.070 A 
DOCKED: ATOM     14  C   UNL d   1      41.080  36.535   0.244 -0.19 +0.01    +0.052 C 
DOCKED: ATOM     15  C   UNL d   1      43.886  31.386  -1.797 -0.23 -0.00    +0.066 A 
DOCKED: ATOM     16  C   UNL d   1      44.923  30.770  -2.484 -0.20 +0.00    -0.021 A 
DOCKED: ATOM     17  C   UNL d   1      44.566  29.418  -2.580 -0.22 -0.00    +0.000 A 
DOCKED: ATOM     18  C   UNL d   1      43.342  29.311  -1.927 -0.25 +0.00    +0.070 A 
DOCKED: ATOM     19  C   UNL d   1      46.163  31.462  -3.003 -0.14 +0.00    +0.052 C 
DOCKED: ATOM     20  C   UNL d   1      41.307  27.993  -1.231 -0.15 +0.01    +0.066 A 
DOCKED: ATOM     21  C   UNL d   1      40.618  26.783  -1.186 -0.19 -0.00    -0.025 A 
DOCKED: ATOM     22  C   UNL d   1      39.408  27.066  -0.579 -0.22 -0.00    -0.021 A 
DOCKED: ATOM     23  C   UNL d   1      39.414  28.447  -0.293 -0.22 +0.01    +0.066 A 
DOCKED: ATOM     24  C   UNL d   1      41.081  25.428  -1.713 -0.14 +0.01    +0.051 C 
DOCKED: ATOM     25  N   UNL d   1      39.359  31.393   0.115 -0.19 -0.01    -0.248 N 
DOCKED: ATOM     26  N   UNL d   1      41.567  32.943  -0.562 -0.18 -0.02    -0.248 N 
DOCKED: ATOM     27  N   UNL d   1      42.953  30.508  -1.501 -0.19 -0.01    -0.248 N 
DOCKED: ATOM     28  N   UNL d   1      40.561  29.013  -0.688 -0.13 -0.02    -0.248 N 
DOCKED: ATOM     29 FE   UNL d   1      41.262  30.921  -0.740 -0.05 +0.00    +0.000 Fe
DOCKED: ENDROOT
DOCKED: BRANCH   6  30
DOCKED: ATOM     30  C   UNL d   1      35.796  30.658   1.123 -0.22 +0.01    +0.052 C 
DOCKED: BRANCH  30  31
DOCKED: ATOM     31  C   UNL d   1      34.874  30.723  -0.094 -0.08 +0.03    +0.115 C 
DOCKED: BRANCH  31  32
DOCKED: ATOM     32  C   UNL d   1      35.528  31.403  -1.278 -0.02 +0.02    +0.139 C 
DOCKED: ATOM     33  O   UNL d   1      35.200  32.543  -1.573 +0.03 -0.11    -0.650 OA
DOCKED: BRANCH  32  34
DOCKED: ATOM     34  O   UNL d   1      36.507  30.806  -1.997 +0.04 -0.09    -0.776 OA
DOCKED: ATOM     35  H   UNL d   1      36.583  29.850  -2.123 +0.02 +0.02    +0.167 HD
DOCKED: ENDBRANCH  32  34
DOCKED: ENDBRANCH  31  32
DOCKED: ENDBRANCH  30  31
DOCKED: ENDBRANCH   6  30
DOCKED: BRANCH  29  36
DOCKED: ATOM     36  C   UNL d   1      40.369  31.222  -2.613 -0.04 +0.01    +0.190 C 
DOCKED: BRANCH  36  37
DOCKED: ATOM     37  O   UNL d   1      39.202  30.976  -3.344 +0.00 -0.03    -0.399 OA
DOCKED: ATOM     38  H   UNL d   1      38.620  30.451  -2.727 +0.02 +0.02    +0.209 HD
DOCKED: ENDBRANCH  36  37
DOCKED: ENDBRANCH  29  36
DOCKED: BRANCH  22  39
DOCKED: ATOM     39  C   UNL d   1      38.286  26.071  -0.349 -0.17 +0.00    +0.052 C 
DOCKED: BRANCH  39  40
DOCKED: ATOM     40  C   UNL d   1      37.262  26.134  -1.494 -0.08 +0.00    +0.115 C 
DOCKED: BRANCH  40  41
DOCKED: ATOM     41  C   UNL d   1      36.941  27.536  -1.969 -0.05 +0.01    +0.139 C 
DOCKED: ATOM     42  O   UNL d   1      35.894  28.062  -1.617 +0.02 -0.06    -0.650 OA
DOCKED: BRANCH  41  43
DOCKED: ATOM     43  O   UNL d   1      37.820  28.256  -2.700 +0.03 -0.06    -0.776 OA
DOCKED: ATOM     44  H   UNL d   1      37.813  29.222  -2.717 +0.02 +0.01    +0.167 HD
DOCKED: ENDBRANCH  41  43
DOCKED: ENDBRANCH  40  41
DOCKED: ENDBRANCH  39  40
DOCKED: ENDBRANCH  22  39
DOCKED: BRANCH  12  45
DOCKED: ATOM     45  C   UNL d   1      44.069  35.674  -0.998 -0.17 +0.00    +0.004 C 
DOCKED: ATOM     46  C   UNL d   1      45.228  35.726  -0.345 -0.16 +0.00    +0.012 C 
DOCKED: ENDBRANCH  12  45
DOCKED: BRANCH  17  47
DOCKED: ATOM     47  C   UNL d   1      45.267  28.292  -3.267 -0.24 +0.00    +0.004 C 
DOCKED: ATOM     48  C   UNL d   1      44.713  27.563  -4.240 -0.15 +0.00    +0.012 C 
DOCKED: ENDBRANCH  17  47
DOCKED: TORSDOF 12
DOCKED: TER
DOCKED: ENDMDL
________________________________________________________________________________


	BEGINNING GENETIC ALGORITHM DOCKING 85 of 100
Run: 85 Seed: 1898212585 765944865 [ Run 85 of 100 GA/GALS ]
Beginning LAMARCKIAN GENETIC ALGORITHM (LGA), with a maximum of 25000000 energy evaluations.

Final-Value: -11.630


	FINAL GENETIC ALGORITHM DOCKED STATE
	_______________________________________________


Detailed state:  trans 28.398 42.041 -0.823 quatxyzw -0.169077 -0.801704 0.357133 0.448486 center 8.781 34.984 -0.736 ntor 12 -49.6784 113.0503 -80.5171 116.6984 127.4899 100.7459 117.3635 28.4784 -40.5005 114.2313 165.0755 -174.3621
State:	 28.398  42.041  -0.823  -0.189 -0.897  0.400 126.707    -49.68  113.05  -80.52  116.70  127.49  100.75  117.36   28.48  -40.50  114.23  165.08 -174.36

DOCKED: MODEL       85
DOCKED: USER    Run = 85
DOCKED: USER    DPF = D:/Protein_go_brrr/autodock/final/2DN3/heme_Co/dock.dpf
DOCKED: USER  
DOCKED: USER    Estimated Free Energy of Binding    =   -6.93 kcal/mol  [=(1)+(2)+(3)-(4)]
DOCKED: USER    Estimated Inhibition Constant, Ki   =    8.27 uM (micromolar)  [Temperature = 298.15 K]
DOCKED: USER    
DOCKED: USER    (1) Final Intermolecular Energy     =  -10.51 kcal/mol
DOCKED: USER        vdW + Hbond + desolv Energy     =   -7.44 kcal/mol
DOCKED: USER        Electrostatic Energy            =   -3.07 kcal/mol
DOCKED: USER    (2) Final Total Internal Energy     =   -1.12 kcal/mol
DOCKED: USER    (3) Torsional Free Energy           =   +3.58 kcal/mol
DOCKED: USER    (4) Unbound System's Energy  [=(2)] =   -1.12 kcal/mol
DOCKED: USER    
DOCKED: USER    
DOCKED: USER    NEWDPF move heme_Co_opt.pdbqt
DOCKED: USER    NEWDPF about 8.781000 34.984000 -0.736000
DOCKED: USER    NEWDPF tran0 28.398498 42.041022 -0.823418
DOCKED: USER    NEWDPF quaternion0 -0.169077 -0.801704 0.357133 0.448486
DOCKED: USER    NEWDPF axisangle0 -0.189168 -0.896972 0.399571 126.706873
DOCKED: USER    NEWDPF quat0 -0.189168 -0.896972 0.399571 126.706873
DOCKED: USER    NEWDPF dihe0 -49.68 113.05 -80.52 116.70 127.49 100.75 117.36 28.48 -40.50 114.23 165.08 -174.36 
DOCKED: USER  keepresnum = 1 
DOCKED: USER  
DOCKED: REMARK  12 active torsions:
DOCKED: REMARK  status: ('A' for Active; 'I' for Inactive)
DOCKED: REMARK    1  A    between atoms: C_6  and  C_10 
DOCKED: REMARK    2  A    between atoms: C_10  and  C_11 
DOCKED: REMARK    3  A    between atoms: C_11  and  C_12 
DOCKED: REMARK    4  A    between atoms: C_12  and  O_14 
DOCKED: REMARK    5  A    between atoms: C_17  and  C_20 
DOCKED: REMARK    6  A    between atoms: C_24  and  C_27 
DOCKED: REMARK    7  A    between atoms: C_31  and  C_34 
DOCKED: REMARK    8  A    between atoms: C_34  and  C_35 
DOCKED: REMARK    9  A    between atoms: C_35  and  C_36 
DOCKED: REMARK   10  A    between atoms: C_36  and  O_38 
DOCKED: REMARK   11  A    between atoms: FE_43  and  C_44 
DOCKED: REMARK   12  A    between atoms: C_44  and  O_45 
DOCKED: USER                              x       y       z     vdW  Elec       q    Type
DOCKED: USER                           _______ _______ _______ _____ _____    ______ ____
DOCKED: ROOT
DOCKED: ATOM      1  C   UNL d   1      29.231  43.095   0.883 -0.13 +0.03    +0.064 A 
DOCKED: ATOM      2  C   UNL d   1      29.212  38.499  -0.334 -0.12 +0.01    +0.064 C 
DOCKED: ATOM      3  C   UNL d   1      26.417  39.465  -4.087 -0.14 +0.01    +0.064 A 
DOCKED: ATOM      4  C   UNL d   1      26.738  44.215  -3.086 -0.13 +0.01    +0.064 A 
DOCKED: ATOM      5  C   UNL d   1      29.401  41.763   0.847 -0.11 +0.02    +0.066 A 
DOCKED: ATOM      6  C   UNL d   1      30.236  41.091   1.761 -0.13 -0.01    -0.021 A 
DOCKED: ATOM      7  C   UNL d   1      30.245  39.761   1.389 -0.09 -0.00    -0.025 A 
DOCKED: ATOM      8  C   UNL d   1      29.403  39.676   0.275 -0.10 +0.01    +0.066 A 
DOCKED: ATOM      9  C   UNL d   1      31.012  38.604   2.046 -0.11 +0.01    +0.051 C 
DOCKED: ATOM     10  C   UNL d   1      28.344  38.309  -1.470 -0.13 +0.01    +0.066 A 
DOCKED: ATOM     11  C   UNL d   1      27.992  37.079  -2.066 -0.15 -0.00    -0.021 A 
DOCKED: ATOM     12  C   UNL d   1      27.173  37.389  -3.155 -0.20 +0.00    +0.000 A 
DOCKED: ATOM     13  C   UNL d   1      27.076  38.781  -3.135 -0.17 +0.01    +0.070 A 
DOCKED: ATOM     14  C   UNL d   1      28.347  35.706  -1.556 -0.10 +0.01    +0.052 C 
DOCKED: ATOM     15  C   UNL d   1      26.261  40.897  -4.249 -0.19 +0.01    +0.066 A 
DOCKED: ATOM     16  C   UNL d   1      25.689  41.545  -5.335 -0.17 -0.00    -0.021 A 
DOCKED: ATOM     17  C   UNL d   1      25.782  42.915  -5.052 -0.17 +0.00    +0.000 A 
DOCKED: ATOM     18  C   UNL d   1      26.389  42.995  -3.803 -0.18 +0.01    +0.070 A 
DOCKED: ATOM     19  C   UNL d   1      25.102  40.866  -6.552 -0.15 +0.01    +0.052 C 
DOCKED: ATOM     20  C   UNL d   1      27.405  44.319  -1.912 -0.12 +0.02    +0.066 A 
DOCKED: ATOM     21  C   UNL d   1      27.714  45.550  -1.338 -0.09 -0.01    -0.025 A 
DOCKED: ATOM     22  C   UNL d   1      28.407  45.258  -0.178 -0.11 -0.01    -0.021 A 
DOCKED: ATOM     23  C   UNL d   1      28.499  43.852  -0.107 -0.12 +0.03    +0.066 A 
DOCKED: ATOM     24  C   UNL d   1      27.382  46.938  -1.879 -0.06 +0.01    +0.051 C 
DOCKED: ATOM     25  N   UNL d   1      28.862  40.900  -0.080 -0.08 -0.05    -0.248 N 
DOCKED: ATOM     26  N   UNL d   1      27.738  39.331  -2.083 -0.07 -0.04    -0.248 N 
DOCKED: ATOM     27  N   UNL d   1      26.688  41.775  -3.369 -0.13 -0.05    -0.248 N 
DOCKED: ATOM     28  N   UNL d   1      27.895  43.279  -1.156 -0.08 -0.07    -0.248 N 
DOCKED: ATOM     29 FE   UNL d   1      27.710  41.367  -1.821 -0.05 +0.00    +0.000 Fe
DOCKED: ENDROOT
DOCKED: BRANCH   6  30
DOCKED: ATOM     30  C   UNL d   1      31.048  41.724   2.886 -0.28 +0.02    +0.052 C 
DOCKED: BRANCH  30  31
DOCKED: ATOM     31  C   UNL d   1      32.544  41.646   2.578 -0.25 +0.06    +0.115 C 
DOCKED: BRANCH  31  32
DOCKED: ATOM     32  C   UNL d   1      33.270  42.930   2.918 -0.26 +0.15    +0.139 C 
DOCKED: ATOM     33  O   UNL d   1      32.626  43.938   3.168 -0.44 -0.86    -0.650 OA
DOCKED: BRANCH  32  34
DOCKED: ATOM     34  O   UNL d   1      34.620  42.989   3.003 -0.36 -0.93    -0.776 OA
DOCKED: ATOM     35  H   UNL d   1      35.156  42.407   3.558 -0.46 +0.05    +0.167 HD
DOCKED: ENDBRANCH  32  34
DOCKED: ENDBRANCH  31  32
DOCKED: ENDBRANCH  30  31
DOCKED: ENDBRANCH   6  30
DOCKED: BRANCH  29  36
DOCKED: ATOM     36  C   UNL d   1      29.532  41.522  -2.846 -0.03 +0.04    +0.190 C 
DOCKED: BRANCH  36  37
DOCKED: ATOM     37  O   UNL d   1      30.777  42.159  -2.816 +0.00 -0.11    -0.399 OA
DOCKED: ATOM     38  H   UNL d   1      30.749  42.739  -2.004 +0.02 +0.07    +0.209 HD
DOCKED: ENDBRANCH  36  37
DOCKED: ENDBRANCH  29  36
DOCKED: BRANCH  22  39
DOCKED: ATOM     39  C   UNL d   1      29.003  46.280   0.771 -0.13 +0.03    +0.052 C 
DOCKED: BRANCH  39  40
DOCKED: ATOM     40  C   UNL d   1      30.250  46.934   0.152 -0.15 +0.06    +0.115 C 
DOCKED: BRANCH  40  41
DOCKED: ATOM     41  C   UNL d   1      31.457  46.023   0.068 -0.08 +0.16    +0.139 C 
DOCKED: ATOM     42  O   UNL d   1      32.410  46.355  -0.622 -0.37 -0.93    -0.650 OA
DOCKED: BRANCH  41  43
DOCKED: ATOM     43  O   UNL d   1      31.546  44.893   0.804 -0.38 -1.12    -0.776 OA
DOCKED: ATOM     44  H   UNL d   1      31.725  44.905   1.753 +0.00 +0.26    +0.167 HD
DOCKED: ENDBRANCH  41  43
DOCKED: ENDBRANCH  40  41
DOCKED: ENDBRANCH  39  40
DOCKED: ENDBRANCH  22  39
DOCKED: BRANCH  12  45
DOCKED: ATOM     45  C   UNL d   1      26.460  36.536  -4.196 -0.18 +0.00    +0.004 C 
DOCKED: ATOM     46  C   UNL d   1      25.167  36.264  -4.355 -0.25 -0.00    +0.012 C 
DOCKED: ENDBRANCH  12  45
DOCKED: BRANCH  17  47
DOCKED: ATOM     47  C   UNL d   1      25.389  44.090  -5.886 -0.10 +0.00    +0.004 C 
DOCKED: ATOM     48  C   UNL d   1      24.310  44.838  -5.645 -0.15 +0.00    +0.012 C 
DOCKED: ENDBRANCH  17  47
DOCKED: TORSDOF 12
DOCKED: TER
DOCKED: ENDMDL
________________________________________________________________________________


	BEGINNING GENETIC ALGORITHM DOCKING 86 of 100
Run: 86 Seed: 461830747 1080284757 [ Run 86 of 100 GA/GALS ]
Beginning LAMARCKIAN GENETIC ALGORITHM (LGA), with a maximum of 25000000 energy evaluations.

Final-Value: -12.190


	FINAL GENETIC ALGORITHM DOCKED STATE
	_______________________________________________


Detailed state:  trans 28.300 41.245 -0.391 quatxyzw 0.212957 0.713071 -0.407956 -0.528915 center 8.781 34.984 -0.736 ntor 12 123.2040 105.4632 -74.1636 111.6635 132.4450 117.3429 -117.2042 -41.2703 -123.6548 -128.1972 177.2436 138.0668
State:	 28.300  41.245  -0.391   0.251  0.840 -0.481 -116.136    123.20  105.46  -74.16  111.66  132.44  117.34 -117.20  -41.27 -123.65 -128.20  177.24  138.07

DOCKED: MODEL       86
DOCKED: USER    Run = 86
DOCKED: USER    DPF = D:/Protein_go_brrr/autodock/final/2DN3/heme_Co/dock.dpf
DOCKED: USER  
DOCKED: USER    Estimated Free Energy of Binding    =   -4.75 kcal/mol  [=(1)+(2)+(3)-(4)]
DOCKED: USER    Estimated Inhibition Constant, Ki   =  332.47 uM (micromolar)  [Temperature = 298.15 K]
DOCKED: USER    
DOCKED: USER    (1) Final Intermolecular Energy     =   -8.32 kcal/mol
DOCKED: USER        vdW + Hbond + desolv Energy     =   -6.16 kcal/mol
DOCKED: USER        Electrostatic Energy            =   -2.17 kcal/mol
DOCKED: USER    (2) Final Total Internal Energy     =   -3.86 kcal/mol
DOCKED: USER    (3) Torsional Free Energy           =   +3.58 kcal/mol
DOCKED: USER    (4) Unbound System's Energy  [=(2)] =   -3.86 kcal/mol
DOCKED: USER    
DOCKED: USER    
DOCKED: USER    NEWDPF move heme_Co_opt.pdbqt
DOCKED: USER    NEWDPF about 8.781000 34.984000 -0.736000
DOCKED: USER    NEWDPF tran0 28.300184 41.245282 -0.390868
DOCKED: USER    NEWDPF quaternion0 0.212957 0.713071 -0.407956 -0.528915
DOCKED: USER    NEWDPF axisangle0 0.250929 0.840217 -0.480698 -116.135673
DOCKED: USER    NEWDPF quat0 0.250929 0.840217 -0.480698 -116.135673
DOCKED: USER    NEWDPF dihe0 123.20 105.46 -74.16 111.66 132.44 117.34 -117.20 -41.27 -123.65 -128.20 177.24 138.07 
DOCKED: USER  keepresnum = 1 
DOCKED: USER  
DOCKED: REMARK  12 active torsions:
DOCKED: REMARK  status: ('A' for Active; 'I' for Inactive)
DOCKED: REMARK    1  A    between atoms: C_6  and  C_10 
DOCKED: REMARK    2  A    between atoms: C_10  and  C_11 
DOCKED: REMARK    3  A    between atoms: C_11  and  C_12 
DOCKED: REMARK    4  A    between atoms: C_12  and  O_14 
DOCKED: REMARK    5  A    between atoms: C_17  and  C_20 
DOCKED: REMARK    6  A    between atoms: C_24  and  C_27 
DOCKED: REMARK    7  A    between atoms: C_31  and  C_34 
DOCKED: REMARK    8  A    between atoms: C_34  and  C_35 
DOCKED: REMARK    9  A    between atoms: C_35  and  C_36 
DOCKED: REMARK   10  A    between atoms: C_36  and  O_38 
DOCKED: REMARK   11  A    between atoms: FE_43  and  C_44 
DOCKED: REMARK   12  A    between atoms: C_44  and  O_45 
DOCKED: USER                              x       y       z     vdW  Elec       q    Type
DOCKED: USER                           _______ _______ _______ _____ _____    ______ ____
DOCKED: ROOT
DOCKED: ATOM      1  C   UNL d   1      28.850  42.466   1.319 -0.17 +0.02    +0.064 A 
DOCKED: ATOM      2  C   UNL d   1      28.623  37.758   0.696 -0.16 +0.01    +0.064 C 
DOCKED: ATOM      3  C   UNL d   1      26.812  38.386  -3.680 -0.21 +0.01    +0.064 A 
DOCKED: ATOM      4  C   UNL d   1      27.395  43.193  -3.218 -0.11 +0.01    +0.064 A 
DOCKED: ATOM      5  C   UNL d   1      28.887  41.134   1.484 -0.16 +0.01    +0.066 A 
DOCKED: ATOM      6  C   UNL d   1      29.433  40.539   2.638 -0.22 -0.00    -0.021 A 
DOCKED: ATOM      7  C   UNL d   1      29.385  39.172   2.442 -0.17 +0.00    -0.025 A 
DOCKED: ATOM      8  C   UNL d   1      28.798  38.992   1.185 -0.15 +0.01    +0.066 A 
DOCKED: ATOM      9  C   UNL d   1      29.871  38.067   3.392 -0.12 -0.00    +0.051 C 
DOCKED: ATOM     10  C   UNL d   1      28.004  37.473  -0.574 -0.06 +0.01    +0.066 A 
DOCKED: ATOM     11  C   UNL d   1      27.664  36.200  -1.081 -0.16 -0.00    -0.021 A 
DOCKED: ATOM     12  C   UNL d   1      27.134  36.413  -2.357 -0.19 +0.00    +0.000 A 
DOCKED: ATOM     13  C   UNL d   1      27.178  37.797  -2.528 -0.17 +0.01    +0.070 A 
DOCKED: ATOM     14  C   UNL d   1      27.759  34.891  -0.341 -0.16 +0.02    +0.052 C 
DOCKED: ATOM     15  C   UNL d   1      26.842  39.788  -4.046 -0.17 +0.01    +0.066 A 
DOCKED: ATOM     16  C   UNL d   1      26.586  40.316  -5.304 -0.15 -0.00    -0.021 A 
DOCKED: ATOM     17  C   UNL d   1      26.756  41.702  -5.176 -0.13 +0.00    +0.000 A 
DOCKED: ATOM     18  C   UNL d   1      27.086  41.912  -3.842 -0.15 +0.01    +0.070 A 
DOCKED: ATOM     19  C   UNL d   1      26.208  39.516  -6.531 -0.10 +0.01    +0.052 C 
DOCKED: ATOM     20  C   UNL d   1      27.802  43.412  -1.944 -0.12 +0.02    +0.066 A 
DOCKED: ATOM     21  C   UNL d   1      28.105  44.687  -1.470 -0.09 -0.01    -0.025 A 
DOCKED: ATOM     22  C   UNL d   1      28.500  44.512  -0.156 -0.12 -0.01    -0.021 A 
DOCKED: ATOM     23  C   UNL d   1      28.429  43.127   0.104 -0.15 +0.02    +0.066 A 
DOCKED: ATOM     24  C   UNL d   1      28.040  46.006  -2.236 -0.05 +0.01    +0.051 C 
DOCKED: ATOM     25  N   UNL d   1      28.474  40.190   0.572 -0.09 -0.04    -0.248 N 
DOCKED: ATOM     26  N   UNL d   1      27.652  38.440  -1.428 -0.02 -0.03    -0.248 N 
DOCKED: ATOM     27  N   UNL d   1      27.158  40.748  -3.206 -0.12 -0.04    -0.248 N 
DOCKED: ATOM     28  N   UNL d   1      28.010  42.458  -0.976 -0.09 -0.07    -0.248 N 
DOCKED: ATOM     29 FE   UNL d   1      27.776  40.489  -1.429 -0.05 +0.00    +0.000 Fe
DOCKED: ENDROOT
DOCKED: BRANCH   6  30
DOCKED: ATOM     30  C   UNL d   1      30.045  41.263   3.832 -0.35 +0.00    +0.052 C 
DOCKED: BRANCH  30  31
DOCKED: ATOM     31  C   UNL d   1      31.570  41.290   3.721 -0.27 +0.02    +0.115 C 
DOCKED: BRANCH  31  32
DOCKED: ATOM     32  C   UNL d   1      32.042  41.878   2.409 -0.21 +0.07    +0.139 C 
DOCKED: ATOM     33  O   UNL d   1      32.643  42.942   2.408 -0.22 -0.72    -0.650 OA
DOCKED: BRANCH  32  34
DOCKED: ATOM     34  O   UNL d   1      31.864  41.237   1.230 +0.10 -0.33    -0.776 OA
DOCKED: ATOM     35  H   UNL d   1      31.351  41.591   0.491 +0.04 +0.07    +0.167 HD
DOCKED: ENDBRANCH  32  34
DOCKED: ENDBRANCH  31  32
DOCKED: ENDBRANCH  30  31
DOCKED: ENDBRANCH   6  30
DOCKED: BRANCH  29  36
DOCKED: ATOM     36  C   UNL d   1      29.782  40.365  -2.026 -0.04 +0.04    +0.190 C 
DOCKED: BRANCH  36  37
DOCKED: ATOM     37  O   UNL d   1      31.082  40.715  -1.646 +0.00 -0.10    -0.399 OA
DOCKED: ATOM     38  H   UNL d   1      30.966  41.301  -0.847 +0.03 +0.07    +0.209 HD
DOCKED: ENDBRANCH  36  37
DOCKED: ENDBRANCH  29  36
DOCKED: BRANCH  22  39
DOCKED: ATOM     39  C   UNL d   1      28.979  45.612   0.772 -0.12 +0.03    +0.052 C 
DOCKED: BRANCH  39  40
DOCKED: ATOM     40  C   UNL d   1      30.410  45.326   1.259 -0.22 +0.09    +0.115 C 
DOCKED: BRANCH  40  41
DOCKED: ATOM     41  C   UNL d   1      31.368  44.902   0.166 -0.07 +0.16    +0.139 C 
DOCKED: ATOM     42  O   UNL d   1      32.100  45.738  -0.346 -0.54 -1.04    -0.650 OA
DOCKED: BRANCH  41  43
DOCKED: ATOM     43  O   UNL d   1      31.501  43.608  -0.200 +0.02 -0.66    -0.776 OA
DOCKED: ATOM     44  H   UNL d   1      31.886  42.940   0.382 +0.04 +0.15    +0.167 HD
DOCKED: ENDBRANCH  41  43
DOCKED: ENDBRANCH  40  41
DOCKED: ENDBRANCH  39  40
DOCKED: ENDBRANCH  22  39
DOCKED: BRANCH  12  45
DOCKED: ATOM     45  C   UNL d   1      26.578  35.475  -3.419 -0.15 +0.00    +0.004 C 
DOCKED: ATOM     46  C   UNL d   1      25.322  35.214  -3.772 -0.22 -0.00    +0.012 C 
DOCKED: ENDBRANCH  12  45
DOCKED: BRANCH  17  47
DOCKED: ATOM     47  C   UNL d   1      26.674  42.773  -6.214 -0.07 +0.00    +0.004 C 
DOCKED: ATOM     48  C   UNL d   1      25.698  43.683  -6.259 -0.09 +0.00    +0.012 C 
DOCKED: ENDBRANCH  17  47
DOCKED: TORSDOF 12
DOCKED: TER
DOCKED: ENDMDL
________________________________________________________________________________


	BEGINNING GENETIC ALGORITHM DOCKING 87 of 100
Run: 87 Seed: 245603209 1638422510 [ Run 87 of 100 GA/GALS ]
Beginning LAMARCKIAN GENETIC ALGORITHM (LGA), with a maximum of 25000000 energy evaluations.

Final-Value: -18.005


	FINAL GENETIC ALGORITHM DOCKED STATE
	_______________________________________________


Detailed state:  trans 40.942 29.222 16.165 quatxyzw 0.369675 -0.422999 -0.827264 -0.006788 center 8.781 34.984 -0.736 ntor 12 -45.6183 161.8413 -136.2481 -42.9307 -36.7823 26.4253 -112.4196 -164.0029 52.0536 -16.1991 -42.0368 179.0194
State:	 40.942  29.222  16.165   0.370 -0.423 -0.827 -179.222    -45.62  161.84 -136.25  -42.93  -36.78   26.43 -112.42 -164.00   52.05  -16.20  -42.04  179.02

DOCKED: MODEL       87
DOCKED: USER    Run = 87
DOCKED: USER    DPF = D:/Protein_go_brrr/autodock/final/2DN3/heme_Co/dock.dpf
DOCKED: USER  
DOCKED: USER    Estimated Free Energy of Binding    =  -13.99 kcal/mol  [=(1)+(2)+(3)-(4)]
DOCKED: USER    Estimated Inhibition Constant, Ki   =   55.67 pM (picomolar)  [Temperature = 298.15 K]
DOCKED: USER    
DOCKED: USER    (1) Final Intermolecular Energy     =  -17.57 kcal/mol
DOCKED: USER        vdW + Hbond + desolv Energy     =  -15.83 kcal/mol
DOCKED: USER        Electrostatic Energy            =   -1.74 kcal/mol
DOCKED: USER    (2) Final Total Internal Energy     =   -0.44 kcal/mol
DOCKED: USER    (3) Torsional Free Energy           =   +3.58 kcal/mol
DOCKED: USER    (4) Unbound System's Energy  [=(2)] =   -0.44 kcal/mol
DOCKED: USER    
DOCKED: USER    
DOCKED: USER    NEWDPF move heme_Co_opt.pdbqt
DOCKED: USER    NEWDPF about 8.781000 34.984000 -0.736000
DOCKED: USER    NEWDPF tran0 40.941967 29.222105 16.164974
DOCKED: USER    NEWDPF quaternion0 0.369675 -0.422999 -0.827264 -0.006788
DOCKED: USER    NEWDPF axisangle0 0.369683 -0.423009 -0.827283 -179.222107
DOCKED: USER    NEWDPF quat0 0.369683 -0.423009 -0.827283 -179.222107
DOCKED: USER    NEWDPF dihe0 -45.62 161.84 -136.25 -42.93 -36.78 26.43 -112.42 -164.00 52.05 -16.20 -42.04 179.02 
DOCKED: USER  keepresnum = 1 
DOCKED: USER  
DOCKED: REMARK  12 active torsions:
DOCKED: REMARK  status: ('A' for Active; 'I' for Inactive)
DOCKED: REMARK    1  A    between atoms: C_6  and  C_10 
DOCKED: REMARK    2  A    between atoms: C_10  and  C_11 
DOCKED: REMARK    3  A    between atoms: C_11  and  C_12 
DOCKED: REMARK    4  A    between atoms: C_12  and  O_14 
DOCKED: REMARK    5  A    between atoms: C_17  and  C_20 
DOCKED: REMARK    6  A    between atoms: C_24  and  C_27 
DOCKED: REMARK    7  A    between atoms: C_31  and  C_34 
DOCKED: REMARK    8  A    between atoms: C_34  and  C_35 
DOCKED: REMARK    9  A    between atoms: C_35  and  C_36 
DOCKED: REMARK   10  A    between atoms: C_36  and  O_38 
DOCKED: REMARK   11  A    between atoms: FE_43  and  C_44 
DOCKED: REMARK   12  A    between atoms: C_44  and  O_45 
DOCKED: USER                              x       y       z     vdW  Elec       q    Type
DOCKED: USER                           _______ _______ _______ _____ _____    ______ ____
DOCKED: ROOT
DOCKED: ATOM      1  C   UNL d   1      42.722  28.938  17.376 -0.23 +0.02    +0.064 A 
DOCKED: ATOM      2  C   UNL d   1      40.304  32.833  16.115 -0.48 +0.01    +0.064 C 
DOCKED: ATOM      3  C   UNL d   1      37.443  30.203  13.335 -0.35 +0.01    +0.064 A 
DOCKED: ATOM      4  C   UNL d   1      39.652  26.164  14.906 -0.38 +0.01    +0.064 A 
DOCKED: ATOM      5  C   UNL d   1      42.294  30.200  17.207 -0.32 +0.02    +0.066 A 
DOCKED: ATOM      6  C   UNL d   1      42.847  31.279  17.925 -0.39 -0.01    -0.021 A 
DOCKED: ATOM      7  C   UNL d   1      42.126  32.403  17.573 -0.46 -0.00    -0.025 A 
DOCKED: ATOM      8  C   UNL d   1      41.176  31.966  16.643 -0.39 +0.01    +0.066 A 
DOCKED: ATOM      9  C   UNL d   1      42.312  33.840  18.083 -0.32 +0.00    +0.051 C 
DOCKED: ATOM     10  C   UNL d   1      39.309  32.481  15.133 -0.39 +0.01    +0.066 A 
DOCKED: ATOM     11  C   UNL d   1      38.458  33.368  14.438 -0.40 -0.00    -0.021 A 
DOCKED: ATOM     12  C   UNL d   1      37.638  32.574  13.631 -0.41 +0.00    +0.000 A 
DOCKED: ATOM     13  C   UNL d   1      38.055  31.268  13.884 -0.36 +0.01    +0.070 A 
DOCKED: ATOM     14  C   UNL d   1      38.509  34.873  14.485 -0.50 +0.00    +0.052 C 
DOCKED: ATOM     15  C   UNL d   1      37.708  28.791  13.525 -0.39 +0.01    +0.066 A 
DOCKED: ATOM     16  C   UNL d   1      36.945  27.738  13.041 -0.47 -0.00    -0.021 A 
DOCKED: ATOM     17  C   UNL d   1      37.577  26.571  13.493 -0.47 +0.00    +0.000 A 
DOCKED: ATOM     18  C   UNL d   1      38.689  27.005  14.206 -0.38 +0.01    +0.070 A 
DOCKED: ATOM     19  C   UNL d   1      35.694  27.875  12.202 -0.63 +0.01    +0.052 C 
DOCKED: ATOM     20  C   UNL d   1      40.691  26.566  15.677 -0.38 +0.02    +0.066 A 
DOCKED: ATOM     21  C   UNL d   1      41.527  25.661  16.328 -0.38 -0.01    -0.025 A 
DOCKED: ATOM     22  C   UNL d   1      42.439  26.432  17.025 -0.35 -0.01    -0.021 A 
DOCKED: ATOM     23  C   UNL d   1      42.105  27.779  16.771 -0.30 +0.02    +0.066 A 
DOCKED: ATOM     24  C   UNL d   1      41.448  24.137  16.305 -0.51 +0.01    +0.051 C 
DOCKED: ATOM     25  N   UNL d   1      41.261  30.606  16.394 -0.14 -0.08    -0.248 N 
DOCKED: ATOM     26  N   UNL d   1      39.103  31.216  14.749 -0.22 -0.04    -0.248 N 
DOCKED: ATOM     27  N   UNL d   1      38.719  28.333  14.230 -0.20 -0.06    -0.248 N 
DOCKED: ATOM     28  N   UNL d   1      41.046  27.865  15.957 -0.19 -0.09    -0.248 N 
DOCKED: ATOM     29 FE   UNL d   1      39.917  29.399  15.248 -0.08 +0.00    +0.000 Fe
DOCKED: ENDROOT
DOCKED: BRANCH   6  30
DOCKED: ATOM     30  C   UNL d   1      43.963  31.204  18.962 -0.35 +0.02    +0.052 C 
DOCKED: BRANCH  30  31
DOCKED: ATOM     31  C   UNL d   1      45.068  30.258  18.495 -0.23 +0.05    +0.115 C 
DOCKED: BRANCH  31  32
DOCKED: ATOM     32  C   UNL d   1      45.443  29.241  19.552 -0.20 +0.10    +0.139 C 
DOCKED: ATOM     33  O   UNL d   1      45.284  28.052  19.324 +0.02 -0.42    -0.650 OA
DOCKED: BRANCH  32  34
DOCKED: ATOM     34  O   UNL d   1      45.998  29.604  20.732 -0.23 -0.96    -0.776 OA
DOCKED: ATOM     35  H   UNL d   1      46.759  30.195  20.816 +0.02 +0.17    +0.167 HD
DOCKED: ENDBRANCH  32  34
DOCKED: ENDBRANCH  31  32
DOCKED: ENDBRANCH  30  31
DOCKED: ENDBRANCH   6  30
DOCKED: BRANCH  29  36
DOCKED: ATOM     36  C   UNL d   1      38.704  29.328  16.957 -0.35 +0.05    +0.190 C 
DOCKED: BRANCH  36  37
DOCKED: ATOM     37  O   UNL d   1      38.031  28.447  17.809 -0.23 -0.08    -0.399 OA
DOCKED: ATOM     38  H   UNL d   1      38.703  27.744  18.034 +0.12 +0.05    +0.209 HD
DOCKED: ENDBRANCH  36  37
DOCKED: ENDBRANCH  29  36
DOCKED: BRANCH  22  39
DOCKED: ATOM     39  C   UNL d   1      43.529  25.897  17.935 -0.32 +0.02    +0.052 C 
DOCKED: BRANCH  39  40
DOCKED: ATOM     40  C   UNL d   1      42.952  25.517  19.308 -0.26 +0.04    +0.115 C 
DOCKED: BRANCH  40  41
DOCKED: ATOM     41  C   UNL d   1      43.791  24.525  20.086 -0.21 +0.08    +0.139 C 
DOCKED: ATOM     42  O   UNL d   1      44.525  23.757  19.480 -0.26 -0.40    -0.650 OA
DOCKED: BRANCH  41  43
DOCKED: ATOM     43  O   UNL d   1      43.818  24.523  21.437 -0.43 -0.47    -0.776 OA
DOCKED: ATOM     44  H   UNL d   1      44.642  24.521  21.940 +0.06 +0.10    +0.167 HD
DOCKED: ENDBRANCH  41  43
DOCKED: ENDBRANCH  40  41
DOCKED: ENDBRANCH  39  40
DOCKED: ENDBRANCH  22  39
DOCKED: BRANCH  12  45
DOCKED: ATOM     45  C   UNL d   1      36.526  32.900  12.643 -0.54 +0.00    +0.004 C 
DOCKED: ATOM     46  C   UNL d   1      35.440  33.656  12.779 -0.65 -0.00    +0.012 C 
DOCKED: ENDBRANCH  12  45
DOCKED: BRANCH  17  47
DOCKED: ATOM     47  C   UNL d   1      37.170  25.143  13.334 -0.64 +0.00    +0.004 C 
DOCKED: ATOM     48  C   UNL d   1      36.004  24.655  13.765 -0.67 +0.00    +0.012 C 
DOCKED: ENDBRANCH  17  47
DOCKED: TORSDOF 12
DOCKED: TER
DOCKED: ENDMDL
________________________________________________________________________________


	BEGINNING GENETIC ALGORITHM DOCKING 88 of 100
Run: 88 Seed: 1239959932 1445740212 [ Run 88 of 100 GA/GALS ]
Beginning LAMARCKIAN GENETIC ALGORITHM (LGA), with a maximum of 25000000 energy evaluations.

Final-Value: -17.971


	FINAL GENETIC ALGORITHM DOCKED STATE
	_______________________________________________


Detailed state:  trans 40.938 29.231 16.182 quatxyzw 0.374474 -0.425250 -0.823889 -0.011806 center 8.781 34.984 -0.736 ntor 12 -43.7850 111.0524 -165.5569 -42.1462 -41.2085 5.3926 -103.0982 -168.9445 47.2972 -6.2574 -38.9611 -169.0063
State:	 40.938  29.231  16.182   0.374 -0.425 -0.824 -178.647    -43.78  111.05 -165.56  -42.15  -41.21    5.39 -103.10 -168.94   47.30   -6.26  -38.96 -169.01

DOCKED: MODEL       88
DOCKED: USER    Run = 88
DOCKED: USER    DPF = D:/Protein_go_brrr/autodock/final/2DN3/heme_Co/dock.dpf
DOCKED: USER  
DOCKED: USER    Estimated Free Energy of Binding    =  -13.97 kcal/mol  [=(1)+(2)+(3)-(4)]
DOCKED: USER    Estimated Inhibition Constant, Ki   =   57.77 pM (picomolar)  [Temperature = 298.15 K]
DOCKED: USER    
DOCKED: USER    (1) Final Intermolecular Energy     =  -17.55 kcal/mol
DOCKED: USER        vdW + Hbond + desolv Energy     =  -15.82 kcal/mol
DOCKED: USER        Electrostatic Energy            =   -1.72 kcal/mol
DOCKED: USER    (2) Final Total Internal Energy     =   -0.42 kcal/mol
DOCKED: USER    (3) Torsional Free Energy           =   +3.58 kcal/mol
DOCKED: USER    (4) Unbound System's Energy  [=(2)] =   -0.42 kcal/mol
DOCKED: USER    
DOCKED: USER    
DOCKED: USER    NEWDPF move heme_Co_opt.pdbqt
DOCKED: USER    NEWDPF about 8.781000 34.984000 -0.736000
DOCKED: USER    NEWDPF tran0 40.937689 29.231253 16.181832
DOCKED: USER    NEWDPF quaternion0 0.374474 -0.425250 -0.823889 -0.011806
DOCKED: USER    NEWDPF axisangle0 0.374500 -0.425279 -0.823946 -178.647050
DOCKED: USER    NEWDPF quat0 0.374500 -0.425279 -0.823946 -178.647050
DOCKED: USER    NEWDPF dihe0 -43.78 111.05 -165.56 -42.15 -41.21 5.39 -103.10 -168.94 47.30 -6.26 -38.96 -169.01 
DOCKED: USER  keepresnum = 1 
DOCKED: USER  
DOCKED: REMARK  12 active torsions:
DOCKED: REMARK  status: ('A' for Active; 'I' for Inactive)
DOCKED: REMARK    1  A    between atoms: C_6  and  C_10 
DOCKED: REMARK    2  A    between atoms: C_10  and  C_11 
DOCKED: REMARK    3  A    between atoms: C_11  and  C_12 
DOCKED: REMARK    4  A    between atoms: C_12  and  O_14 
DOCKED: REMARK    5  A    between atoms: C_17  and  C_20 
DOCKED: REMARK    6  A    between atoms: C_24  and  C_27 
DOCKED: REMARK    7  A    between atoms: C_31  and  C_34 
DOCKED: REMARK    8  A    between atoms: C_34  and  C_35 
DOCKED: REMARK    9  A    between atoms: C_35  and  C_36 
DOCKED: REMARK   10  A    between atoms: C_36  and  O_38 
DOCKED: REMARK   11  A    between atoms: FE_43  and  C_44 
DOCKED: REMARK   12  A    between atoms: C_44  and  O_45 
DOCKED: USER                              x       y       z     vdW  Elec       q    Type
DOCKED: USER                           _______ _______ _______ _____ _____    ______ ____
DOCKED: ROOT
DOCKED: ATOM      1  C   UNL d   1      42.713  28.979  17.406 -0.23 +0.02    +0.064 A 
DOCKED: ATOM      2  C   UNL d   1      40.261  32.835  16.091 -0.47 +0.01    +0.064 C 
DOCKED: ATOM      3  C   UNL d   1      37.447  30.146  13.320 -0.35 +0.01    +0.064 A 
DOCKED: ATOM      4  C   UNL d   1      39.688  26.147  14.946 -0.38 +0.01    +0.064 A 
DOCKED: ATOM      5  C   UNL d   1      42.273  30.234  17.222 -0.32 +0.02    +0.066 A 
DOCKED: ATOM      6  C   UNL d   1      42.810  31.326  17.933 -0.39 -0.01    -0.021 A 
DOCKED: ATOM      7  C   UNL d   1      42.079  32.439  17.564 -0.46 -0.00    -0.025 A 
DOCKED: ATOM      8  C   UNL d   1      41.140  31.982  16.633 -0.39 +0.01    +0.066 A 
DOCKED: ATOM      9  C   UNL d   1      42.247  33.883  18.061 -0.31 +0.00    +0.051 C 
DOCKED: ATOM     10  C   UNL d   1      39.276  32.461  15.107 -0.38 +0.01    +0.066 A 
DOCKED: ATOM     11  C   UNL d   1      38.421  33.332  14.397 -0.39 -0.00    -0.021 A 
DOCKED: ATOM     12  C   UNL d   1      37.614  32.522  13.594 -0.41 +0.00    +0.000 A 
DOCKED: ATOM     13  C   UNL d   1      38.044  31.222  13.862 -0.36 +0.01    +0.070 A 
DOCKED: ATOM     14  C   UNL d   1      38.455  34.838  14.429 -0.49 +0.00    +0.052 C 
DOCKED: ATOM     15  C   UNL d   1      37.725  28.738  13.526 -0.39 +0.01    +0.066 A 
DOCKED: ATOM     16  C   UNL d   1      36.976  27.672  13.048 -0.47 -0.00    -0.021 A 
DOCKED: ATOM     17  C   UNL d   1      37.618  26.517  13.517 -0.47 +0.00    +0.000 A 
DOCKED: ATOM     18  C   UNL d   1      38.721  26.970  14.232 -0.38 +0.01    +0.070 A 
DOCKED: ATOM     19  C   UNL d   1      35.729  27.787  12.200 -0.62 +0.01    +0.052 C 
DOCKED: ATOM     20  C   UNL d   1      40.718  26.567  15.719 -0.38 +0.02    +0.066 A 
DOCKED: ATOM     21  C   UNL d   1      41.559  25.679  16.385 -0.39 -0.01    -0.025 A 
DOCKED: ATOM     22  C   UNL d   1      42.459  26.466  17.079 -0.34 -0.01    -0.021 A 
DOCKED: ATOM     23  C   UNL d   1      42.112  27.807  16.810 -0.30 +0.02    +0.066 A 
DOCKED: ATOM     24  C   UNL d   1      41.497  24.154  16.377 -0.51 +0.01    +0.051 C 
DOCKED: ATOM     25  N   UNL d   1      41.241  30.621  16.398 -0.15 -0.08    -0.248 N 
DOCKED: ATOM     26  N   UNL d   1      39.086  31.191  14.734 -0.22 -0.04    -0.248 N 
DOCKED: ATOM     27  N   UNL d   1      38.736  28.299  14.242 -0.20 -0.06    -0.248 N 
DOCKED: ATOM     28  N   UNL d   1      41.057  27.873  15.989 -0.19 -0.09    -0.248 N 
DOCKED: ATOM     29 FE   UNL d   1      39.916  29.388  15.257 -0.08 +0.00    +0.000 Fe
DOCKED: ENDROOT
DOCKED: BRANCH   6  30
DOCKED: ATOM     30  C   UNL d   1      43.920  31.274  18.977 -0.36 +0.02    +0.052 C 
DOCKED: BRANCH  30  31
DOCKED: ATOM     31  C   UNL d   1      45.072  30.395  18.493 -0.23 +0.05    +0.115 C 
DOCKED: BRANCH  31  32
DOCKED: ATOM     32  C   UNL d   1      45.563  29.445  19.564 -0.20 +0.09    +0.139 C 
DOCKED: ATOM     33  O   UNL d   1      45.643  28.251  19.316 +0.01 -0.42    -0.650 OA
DOCKED: BRANCH  32  34
DOCKED: ATOM     34  O   UNL d   1      45.964  29.880  20.780 -0.15 -0.93    -0.776 OA
DOCKED: ATOM     35  H   UNL d   1      46.575  30.617  20.920 +0.03 +0.16    +0.167 HD
DOCKED: ENDBRANCH  32  34
DOCKED: ENDBRANCH  31  32
DOCKED: ENDBRANCH  30  31
DOCKED: ENDBRANCH   6  30
DOCKED: BRANCH  29  36
DOCKED: ATOM     36  C   UNL d   1      38.694  29.321  16.959 -0.35 +0.05    +0.190 C 
DOCKED: BRANCH  36  37
DOCKED: ATOM     37  O   UNL d   1      37.780  28.513  17.643 -0.24 -0.08    -0.399 OA
DOCKED: ATOM     38  H   UNL d   1      37.684  27.697  17.076 +0.13 +0.04    +0.209 HD
DOCKED: ENDBRANCH  36  37
DOCKED: ENDBRANCH  29  36
DOCKED: BRANCH  22  39
DOCKED: ATOM     39  C   UNL d   1      43.549  25.953  18.001 -0.31 +0.02    +0.052 C 
DOCKED: BRANCH  39  40
DOCKED: ATOM     40  C   UNL d   1      42.939  25.306  19.256 -0.32 +0.04    +0.115 C 
DOCKED: BRANCH  40  41
DOCKED: ATOM     41  C   UNL d   1      43.923  24.519  20.095 -0.20 +0.08    +0.139 C 
DOCKED: ATOM     42  O   UNL d   1      44.866  23.964  19.548 -0.31 -0.39    -0.650 OA
DOCKED: BRANCH  41  43
DOCKED: ATOM     43  O   UNL d   1      43.839  24.484  21.443 -0.42 -0.47    -0.776 OA
DOCKED: ATOM     44  H   UNL d   1      44.589  24.250  22.005 +0.05 +0.10    +0.167 HD
DOCKED: ENDBRANCH  41  43
DOCKED: ENDBRANCH  40  41
DOCKED: ENDBRANCH  39  40
DOCKED: ENDBRANCH  22  39
DOCKED: BRANCH  12  45
DOCKED: ATOM     45  C   UNL d   1      36.505  32.826  12.595 -0.54 +0.00    +0.004 C 
DOCKED: ATOM     46  C   UNL d   1      35.417  33.582  12.712 -0.66 -0.00    +0.012 C 
DOCKED: ENDBRANCH  12  45
DOCKED: BRANCH  17  47
DOCKED: ATOM     47  C   UNL d   1      37.227  25.083  13.369 -0.64 +0.00    +0.004 C 
DOCKED: ATOM     48  C   UNL d   1      36.102  24.569  13.873 -0.66 +0.00    +0.012 C 
DOCKED: ENDBRANCH  17  47
DOCKED: TORSDOF 12
DOCKED: TER
DOCKED: ENDMDL
________________________________________________________________________________


	BEGINNING GENETIC ALGORITHM DOCKING 89 of 100
Run: 89 Seed: 1100489349 642802092 [ Run 89 of 100 GA/GALS ]
Beginning LAMARCKIAN GENETIC ALGORITHM (LGA), with a maximum of 25000000 energy evaluations.

Final-Value: -11.768


	FINAL GENETIC ALGORITHM DOCKED STATE
	_______________________________________________


Detailed state:  trans 32.111 39.450 0.009 quatxyzw 0.101572 0.357590 0.571170 0.731832 center 8.781 34.984 -0.736 ntor 12 12.9715 124.2076 -167.8985 118.4177 32.6085 98.3213 45.2436 109.9844 147.1965 146.5671 -149.2154 170.7366
State:	 32.111  39.450   0.009   0.149  0.525  0.838 85.920     12.97  124.21 -167.90  118.42   32.61   98.32   45.24  109.98  147.20  146.57 -149.22  170.74

DOCKED: MODEL       89
DOCKED: USER    Run = 89
DOCKED: USER    DPF = D:/Protein_go_brrr/autodock/final/2DN3/heme_Co/dock.dpf
DOCKED: USER  
DOCKED: USER    Estimated Free Energy of Binding    =   -4.26 kcal/mol  [=(1)+(2)+(3)-(4)]
DOCKED: USER    Estimated Inhibition Constant, Ki   =  759.40 uM (micromolar)  [Temperature = 298.15 K]
DOCKED: USER    
DOCKED: USER    (1) Final Intermolecular Energy     =   -7.84 kcal/mol
DOCKED: USER        vdW + Hbond + desolv Energy     =   -5.08 kcal/mol
DOCKED: USER        Electrostatic Energy            =   -2.76 kcal/mol
DOCKED: USER    (2) Final Total Internal Energy     =   -3.93 kcal/mol
DOCKED: USER    (3) Torsional Free Energy           =   +3.58 kcal/mol
DOCKED: USER    (4) Unbound System's Energy  [=(2)] =   -3.93 kcal/mol
DOCKED: USER    
DOCKED: USER    
DOCKED: USER    NEWDPF move heme_Co_opt.pdbqt
DOCKED: USER    NEWDPF about 8.781000 34.984000 -0.736000
DOCKED: USER    NEWDPF tran0 32.110629 39.449512 0.009476
DOCKED: USER    NEWDPF quaternion0 0.101572 0.357590 0.571170 0.731832
DOCKED: USER    NEWDPF axisangle0 0.149045 0.524721 0.838125 85.919623
DOCKED: USER    NEWDPF quat0 0.149045 0.524721 0.838125 85.919623
DOCKED: USER    NEWDPF dihe0 12.97 124.21 -167.90 118.42 32.61 98.32 45.24 109.98 147.20 146.57 -149.22 170.74 
DOCKED: USER  keepresnum = 1 
DOCKED: USER  
DOCKED: REMARK  12 active torsions:
DOCKED: REMARK  status: ('A' for Active; 'I' for Inactive)
DOCKED: REMARK    1  A    between atoms: C_6  and  C_10 
DOCKED: REMARK    2  A    between atoms: C_10  and  C_11 
DOCKED: REMARK    3  A    between atoms: C_11  and  C_12 
DOCKED: REMARK    4  A    between atoms: C_12  and  O_14 
DOCKED: REMARK    5  A    between atoms: C_17  and  C_20 
DOCKED: REMARK    6  A    between atoms: C_24  and  C_27 
DOCKED: REMARK    7  A    between atoms: C_31  and  C_34 
DOCKED: REMARK    8  A    between atoms: C_34  and  C_35 
DOCKED: REMARK    9  A    between atoms: C_35  and  C_36 
DOCKED: REMARK   10  A    between atoms: C_36  and  O_38 
DOCKED: REMARK   11  A    between atoms: FE_43  and  C_44 
DOCKED: REMARK   12  A    between atoms: C_44  and  O_45 
DOCKED: USER                              x       y       z     vdW  Elec       q    Type
DOCKED: USER                           _______ _______ _______ _____ _____    ______ ____
DOCKED: ROOT
DOCKED: ATOM      1  C   UNL d   1      32.733  40.616  -1.713 -0.00 +0.02    +0.064 A 
DOCKED: ATOM      2  C   UNL d   1      28.910  40.867   1.103 -0.17 +0.01    +0.064 C 
DOCKED: ATOM      3  C   UNL d   1      30.313  36.931   3.421 -0.07 +0.01    +0.064 A 
DOCKED: ATOM      4  C   UNL d   1      34.419  36.875   0.813 -0.06 +0.01    +0.064 A 
DOCKED: ATOM      5  C   UNL d   1      31.567  40.953  -1.138 -0.01 +0.02    +0.066 A 
DOCKED: ATOM      6  C   UNL d   1      30.863  42.118  -1.501 -0.02 -0.01    -0.021 A 
DOCKED: ATOM      7  C   UNL d   1      29.766  42.197  -0.665 -0.06 -0.01    -0.025 A 
DOCKED: ATOM      8  C   UNL d   1      29.839  41.070   0.161 -0.07 +0.02    +0.066 A 
DOCKED: ATOM      9  C   UNL d   1      28.684  43.287  -0.632 -0.12 +0.02    +0.051 C 
DOCKED: ATOM     10  C   UNL d   1      28.888  39.723   1.981 -0.17 +0.00    +0.066 A 
DOCKED: ATOM     11  C   UNL d   1      27.866  39.380   2.894 -0.33 +0.01    -0.021 A 
DOCKED: ATOM     12  C   UNL d   1      28.300  38.226   3.553 -0.30 -0.00    +0.000 A 
DOCKED: ATOM     13  C   UNL d   1      29.543  37.945   2.987 -0.14 -0.00    +0.070 A 
DOCKED: ATOM     14  C   UNL d   1      26.533  40.066   3.040 -0.24 -0.02    +0.052 C 
DOCKED: ATOM     15  C   UNL d   1      31.638  36.532   2.989 -0.11 +0.01    +0.066 A 
DOCKED: ATOM     16  C   UNL d   1      32.439  35.564   3.578 -0.24 -0.01    -0.021 A 
DOCKED: ATOM     17  C   UNL d   1      33.626  35.546   2.831 -0.26 +0.00    +0.000 A 
DOCKED: ATOM     18  C   UNL d   1      33.447  36.496   1.831 -0.14 +0.01    +0.070 A 
DOCKED: ATOM     19  C   UNL d   1      32.064  34.728   4.782 -0.34 +0.02    +0.052 C 
DOCKED: ATOM     20  C   UNL d   1      34.301  37.855  -0.115 -0.07 +0.01    +0.066 A 
DOCKED: ATOM     21  C   UNL d   1      35.321  38.150  -1.018 -0.07 -0.01    -0.025 A 
DOCKED: ATOM     22  C   UNL d   1      34.851  39.205  -1.778 -0.02 -0.00    -0.021 A 
DOCKED: ATOM     23  C   UNL d   1      33.563  39.512  -1.290 -0.01 +0.02    +0.066 A 
DOCKED: ATOM     24  C   UNL d   1      36.683  37.473  -1.138 -0.09 +0.01    +0.051 C 
DOCKED: ATOM     25  N   UNL d   1      30.941  40.278  -0.114 -0.01 -0.06    -0.248 N 
DOCKED: ATOM     26  N   UNL d   1      29.872  38.818   1.998 -0.05 -0.02    -0.248 N 
DOCKED: ATOM     27  N   UNL d   1      32.265  37.084   1.974 -0.07 -0.04    -0.248 N 
DOCKED: ATOM     28  N   UNL d   1      33.228  38.698  -0.281 -0.01 -0.06    -0.248 N 
DOCKED: ATOM     29 FE   UNL d   1      31.645  38.586   0.990 -0.02 +0.00    +0.000 Fe
DOCKED: ENDROOT
DOCKED: BRANCH   6  30
DOCKED: ATOM     30  C   UNL d   1      31.280  43.143  -2.550 -0.02 +0.02    +0.052 C 
DOCKED: BRANCH  30  31
DOCKED: ATOM     31  C   UNL d   1      32.568  43.850  -2.127 -0.06 +0.07    +0.115 C 
DOCKED: BRANCH  31  32
DOCKED: ATOM     32  C   UNL d   1      32.653  44.048  -0.629 +0.14 +0.20    +0.139 C 
DOCKED: ATOM     33  O   UNL d   1      32.110  45.017  -0.119 -0.30 -1.16    -0.650 OA
DOCKED: BRANCH  32  34
DOCKED: ATOM     34  O   UNL d   1      33.273  43.157   0.179 +0.19 -1.25    -0.776 OA
DOCKED: ATOM     35  H   UNL d   1      33.802  42.412  -0.139 +0.03 +0.17    +0.167 HD
DOCKED: ENDBRANCH  32  34
DOCKED: ENDBRANCH  31  32
DOCKED: ENDBRANCH  30  31
DOCKED: ENDBRANCH   6  30
DOCKED: BRANCH  29  36
DOCKED: ATOM     36  C   UNL d   1      32.560  39.955   2.287 -0.13 +0.05    +0.190 C 
DOCKED: BRANCH  36  37
DOCKED: ATOM     37  O   UNL d   1      33.464  41.021   2.325 -0.09 -0.17    -0.399 OA
DOCKED: ATOM     38  H   UNL d   1      33.615  41.263   1.369 +0.07 +0.12    +0.209 HD
DOCKED: ENDBRANCH  36  37
DOCKED: ENDBRANCH  29  36
DOCKED: BRANCH  22  39
DOCKED: ATOM     39  C   UNL d   1      35.629  39.918  -2.869 -0.01 +0.01    +0.052 C 
DOCKED: BRANCH  39  40
DOCKED: ATOM     40  C   UNL d   1      36.465  41.065  -2.278 -0.01 +0.04    +0.115 C 
DOCKED: BRANCH  40  41
DOCKED: ATOM     41  C   UNL d   1      35.772  41.841  -1.177 -0.05 +0.08    +0.139 C 
DOCKED: ATOM     42  O   UNL d   1      35.443  43.001  -1.379 -0.17 -0.57    -0.650 OA
DOCKED: BRANCH  41  43
DOCKED: ATOM     43  O   UNL d   1      35.429  41.259  -0.007 +0.06 -0.44    -0.776 OA
DOCKED: ATOM     44  H   UNL d   1      34.773  41.642   0.590 +0.04 +0.13    +0.167 HD
DOCKED: ENDBRANCH  41  43
DOCKED: ENDBRANCH  40  41
DOCKED: ENDBRANCH  39  40
DOCKED: ENDBRANCH  22  39
DOCKED: BRANCH  12  45
DOCKED: ATOM     45  C   UNL d   1      27.677  37.352   4.633 -0.33 -0.00    +0.004 C 
DOCKED: ATOM     46  C   UNL d   1      27.191  36.114   4.573 -0.35 -0.00    +0.012 C 
DOCKED: ENDBRANCH  12  45
DOCKED: BRANCH  17  47
DOCKED: ATOM     47  C   UNL d   1      34.873  34.751   3.040 -0.35 -0.00    +0.004 C 
DOCKED: ATOM     48  C   UNL d   1      34.964  33.736   3.902 -0.48 +0.00    +0.012 C 
DOCKED: ENDBRANCH  17  47
DOCKED: TORSDOF 12
DOCKED: TER
DOCKED: ENDMDL
________________________________________________________________________________


	BEGINNING GENETIC ALGORITHM DOCKING 90 of 100
Run: 90 Seed: 985045623 1310480498 [ Run 90 of 100 GA/GALS ]
Beginning LAMARCKIAN GENETIC ALGORITHM (LGA), with a maximum of 25000000 energy evaluations.

Final-Value: -10.777


	FINAL GENETIC ALGORITHM DOCKED STATE
	_______________________________________________


Detailed state:  trans 12.440 40.284 25.067 quatxyzw -0.260822 0.621247 0.630446 -0.385437 center 8.781 34.984 -0.736 ntor 12 74.3835 109.9540 40.5350 -108.9754 -79.1663 144.2427 -90.3500 1.4959 -70.0679 -27.5368 -26.8153 -148.3634
State:	 12.440  40.284  25.067  -0.283  0.673  0.683 -134.658     74.38  109.95   40.53 -108.98  -79.17  144.24  -90.35    1.50  -70.07  -27.54  -26.82 -148.36

DOCKED: MODEL       90
DOCKED: USER    Run = 90
DOCKED: USER    DPF = D:/Protein_go_brrr/autodock/final/2DN3/heme_Co/dock.dpf
DOCKED: USER  
DOCKED: USER    Estimated Free Energy of Binding    =   -6.51 kcal/mol  [=(1)+(2)+(3)-(4)]
DOCKED: USER    Estimated Inhibition Constant, Ki   =   16.97 uM (micromolar)  [Temperature = 298.15 K]
DOCKED: USER    
DOCKED: USER    (1) Final Intermolecular Energy     =  -10.09 kcal/mol
DOCKED: USER        vdW + Hbond + desolv Energy     =   -9.26 kcal/mol
DOCKED: USER        Electrostatic Energy            =   -0.83 kcal/mol
DOCKED: USER    (2) Final Total Internal Energy     =   -0.69 kcal/mol
DOCKED: USER    (3) Torsional Free Energy           =   +3.58 kcal/mol
DOCKED: USER    (4) Unbound System's Energy  [=(2)] =   -0.69 kcal/mol
DOCKED: USER    
DOCKED: USER    
DOCKED: USER    NEWDPF move heme_Co_opt.pdbqt
DOCKED: USER    NEWDPF about 8.781000 34.984000 -0.736000
DOCKED: USER    NEWDPF tran0 12.439855 40.284042 25.067448
DOCKED: USER    NEWDPF quaternion0 -0.260822 0.621247 0.630446 -0.385437
DOCKED: USER    NEWDPF axisangle0 -0.282662 0.673268 0.683237 -134.658235
DOCKED: USER    NEWDPF quat0 -0.282662 0.673268 0.683237 -134.658235
DOCKED: USER    NEWDPF dihe0 74.38 109.95 40.53 -108.98 -79.17 144.24 -90.35 1.50 -70.07 -27.54 -26.82 -148.36 
DOCKED: USER  keepresnum = 1 
DOCKED: USER  
DOCKED: REMARK  12 active torsions:
DOCKED: REMARK  status: ('A' for Active; 'I' for Inactive)
DOCKED: REMARK    1  A    between atoms: C_6  and  C_10 
DOCKED: REMARK    2  A    between atoms: C_10  and  C_11 
DOCKED: REMARK    3  A    between atoms: C_11  and  C_12 
DOCKED: REMARK    4  A    between atoms: C_12  and  O_14 
DOCKED: REMARK    5  A    between atoms: C_17  and  C_20 
DOCKED: REMARK    6  A    between atoms: C_24  and  C_27 
DOCKED: REMARK    7  A    between atoms: C_31  and  C_34 
DOCKED: REMARK    8  A    between atoms: C_34  and  C_35 
DOCKED: REMARK    9  A    between atoms: C_35  and  C_36 
DOCKED: REMARK   10  A    between atoms: C_36  and  O_38 
DOCKED: REMARK   11  A    between atoms: FE_43  and  C_44 
DOCKED: REMARK   12  A    between atoms: C_44  and  O_45 
DOCKED: USER                              x       y       z     vdW  Elec       q    Type
DOCKED: USER                           _______ _______ _______ _____ _____    ______ ____
DOCKED: ROOT
DOCKED: ATOM      1  C   UNL d   1      13.005  39.168  26.843 -0.22 -0.02    +0.064 A 
DOCKED: ATOM      2  C   UNL d   1      15.006  42.865  24.621 -0.24 -0.01    +0.064 C 
DOCKED: ATOM      3  C   UNL d   1      11.749  42.583  21.137 -0.08 -0.02    +0.064 A 
DOCKED: ATOM      4  C   UNL d   1       9.459  39.056  23.582 -0.29 -0.02    +0.064 A 
DOCKED: ATOM      5  C   UNL d   1      13.813  40.176  26.473 -0.20 -0.02    +0.066 A 
DOCKED: ATOM      6  C   UNL d   1      14.872  40.622  27.287 -0.14 +0.00    -0.021 A 
DOCKED: ATOM      7  C   UNL d   1      15.435  41.709  26.649 -0.13 +0.00    -0.025 A 
DOCKED: ATOM      8  C   UNL d   1      14.706  41.870  25.465 -0.18 -0.02    +0.066 A 
DOCKED: ATOM      9  C   UNL d   1      16.613  42.575  27.122 -0.11 -0.01    +0.051 C 
DOCKED: ATOM     10  C   UNL d   1      14.330  43.093  23.368 -0.25 -0.02    +0.066 A 
DOCKED: ATOM     11  C   UNL d   1      14.687  44.030  22.375 -0.30 +0.00    -0.021 A 
DOCKED: ATOM     12  C   UNL d   1      13.723  43.924  21.368 -0.29 -0.00    +0.000 A 
DOCKED: ATOM     13  C   UNL d   1      12.859  42.924  21.815 -0.25 -0.02    +0.070 A 
DOCKED: ATOM     14  C   UNL d   1      15.924  44.891  22.364 -0.31 -0.01    +0.052 C 
DOCKED: ATOM     15  C   UNL d   1      10.724  41.616  21.476 -0.22 -0.02    +0.066 A 
DOCKED: ATOM     16  C   UNL d   1       9.526  41.415  20.805 -0.27 +0.01    -0.021 A 
DOCKED: ATOM     17  C   UNL d   1       8.861  40.400  21.507 -0.29 -0.00    +0.000 A 
DOCKED: ATOM     18  C   UNL d   1       9.716  40.049  22.546 -0.26 -0.02    +0.070 A 
DOCKED: ATOM     19  C   UNL d   1       9.077  42.166  19.571 -0.33 -0.03    +0.052 C 
DOCKED: ATOM     20  C   UNL d   1      10.236  38.758  24.650 -0.26 -0.02    +0.066 A 
DOCKED: ATOM     21  C   UNL d   1       9.864  37.808  25.599 -0.24 +0.01    -0.025 A 
DOCKED: ATOM     22  C   UNL d   1      10.881  37.798  26.536 -0.26 +0.01    -0.021 A 
DOCKED: ATOM     23  C   UNL d   1      11.825  38.759  26.115 -0.25 -0.03    +0.066 A 
DOCKED: ATOM     24  C   UNL d   1       8.592  36.964  25.623 -0.23 -0.01    +0.051 C 
DOCKED: ATOM     25  N   UNL d   1      13.699  40.930  25.327 +0.02 +0.11    -0.248 N 
DOCKED: ATOM     26  N   UNL d   1      13.259  42.383  22.997 -0.20 +0.07    -0.248 N 
DOCKED: ATOM     27  N   UNL d   1      10.802  40.814  22.515 -0.18 +0.06    -0.248 N 
DOCKED: ATOM     28  N   UNL d   1      11.437  39.344  24.976 -0.15 +0.10    -0.248 N 
DOCKED: ATOM     29 FE   UNL d   1      12.163  40.866  23.839 -0.06 -0.00    +0.000 Fe
DOCKED: ENDROOT
DOCKED: BRANCH   6  30
DOCKED: ATOM     30  C   UNL d   1      15.262  40.071  28.655 -0.10 -0.01    +0.052 C 
DOCKED: BRANCH  30  31
DOCKED: ATOM     31  C   UNL d   1      15.567  38.576  28.564 -0.22 -0.02    +0.115 C 
DOCKED: BRANCH  31  32
DOCKED: ATOM     32  C   UNL d   1      17.045  38.279  28.702 -0.26 +0.01    +0.139 C 
DOCKED: ATOM     33  O   UNL d   1      17.405  37.308  29.350 -0.20 -0.11    -0.650 OA
DOCKED: BRANCH  32  34
DOCKED: ATOM     34  O   UNL d   1      17.988  39.031  28.087 -0.50 -0.11    -0.776 OA
DOCKED: ATOM     35  H   UNL d   1      18.208  39.939  28.337 +0.06 +0.00    +0.167 HD
DOCKED: ENDBRANCH  32  34
DOCKED: ENDBRANCH  31  32
DOCKED: ENDBRANCH  30  31
DOCKED: ENDBRANCH   6  30
DOCKED: BRANCH  29  36
DOCKED: ATOM     36  C   UNL d   1      11.128  42.264  25.008 -0.06 -0.04    +0.190 C 
DOCKED: BRANCH  36  37
DOCKED: ATOM     37  O   UNL d   1      11.128  42.888  26.260 -0.00 +0.05    -0.399 OA
DOCKED: ATOM     38  H   UNL d   1      11.883  42.466  26.757 +0.02 -0.03    +0.209 HD
DOCKED: ENDBRANCH  36  37
DOCKED: ENDBRANCH  29  36
DOCKED: BRANCH  22  39
DOCKED: ATOM     39  C   UNL d   1      10.906  36.956  27.797 -0.04 -0.04    +0.052 C 
DOCKED: BRANCH  39  40
DOCKED: ATOM     40  C   UNL d   1       9.562  37.047  28.538 -0.13 -0.02    +0.115 C 
DOCKED: BRANCH  40  41
DOCKED: ATOM     41  C   UNL d   1       9.162  35.780  29.265 -0.16 +0.01    +0.139 C 
DOCKED: ATOM     42  O   UNL d   1       8.649  35.863  30.372 +0.01 -0.06    -0.650 OA
DOCKED: BRANCH  41  43
DOCKED: ATOM     43  O   UNL d   1       9.278  34.563  28.689 -0.23 -0.61    -0.776 OA
DOCKED: ATOM     44  H   UNL d   1      10.076  34.283  28.223 -0.18 +0.04    +0.167 HD
DOCKED: ENDBRANCH  41  43
DOCKED: ENDBRANCH  40  41
DOCKED: ENDBRANCH  39  40
DOCKED: ENDBRANCH  22  39
DOCKED: BRANCH  12  45
DOCKED: ATOM     45  C   UNL d   1      13.530  44.635  20.036 -0.26 -0.00    +0.004 C 
DOCKED: ATOM     46  C   UNL d   1      12.543  45.415  19.605 -0.17 -0.00    +0.012 C 
DOCKED: ENDBRANCH  12  45
DOCKED: BRANCH  17  47
DOCKED: ATOM     47  C   UNL d   1       7.506  39.815  21.283 -0.37 -0.00    +0.004 C 
DOCKED: ATOM     48  C   UNL d   1       6.431  40.149  22.001 -0.29 -0.00    +0.012 C 
DOCKED: ENDBRANCH  17  47
DOCKED: TORSDOF 12
DOCKED: TER
DOCKED: ENDMDL
________________________________________________________________________________


	BEGINNING GENETIC ALGORITHM DOCKING 91 of 100
Run: 91 Seed: 2082686714 541357713 [ Run 91 of 100 GA/GALS ]
Beginning LAMARCKIAN GENETIC ALGORITHM (LGA), with a maximum of 25000000 energy evaluations.

Final-Value: -13.596


	FINAL GENETIC ALGORITHM DOCKED STATE
	_______________________________________________


Detailed state:  trans 46.336 27.076 18.714 quatxyzw -0.233566 0.381772 0.893731 -0.030683 center 8.781 34.984 -0.736 ntor 12 -97.8031 91.9232 73.3779 -24.0460 112.1310 131.8123 29.8558 -60.1433 -179.9003 65.0828 -179.9543 -19.3752
State:	 46.336  27.076  18.714  -0.234  0.382  0.894 -176.483    -97.80   91.92   73.38  -24.05  112.13  131.81   29.86  -60.14 -179.90   65.08 -179.95  -19.38

DOCKED: MODEL       91
DOCKED: USER    Run = 91
DOCKED: USER    DPF = D:/Protein_go_brrr/autodock/final/2DN3/heme_Co/dock.dpf
DOCKED: USER  
DOCKED: USER    Estimated Free Energy of Binding    =   -7.95 kcal/mol  [=(1)+(2)+(3)-(4)]
DOCKED: USER    Estimated Inhibition Constant, Ki   =    1.49 uM (micromolar)  [Temperature = 298.15 K]
DOCKED: USER    
DOCKED: USER    (1) Final Intermolecular Energy     =  -11.53 kcal/mol
DOCKED: USER        vdW + Hbond + desolv Energy     =   -8.51 kcal/mol
DOCKED: USER        Electrostatic Energy            =   -3.01 kcal/mol
DOCKED: USER    (2) Final Total Internal Energy     =   -2.07 kcal/mol
DOCKED: USER    (3) Torsional Free Energy           =   +3.58 kcal/mol
DOCKED: USER    (4) Unbound System's Energy  [=(2)] =   -2.07 kcal/mol
DOCKED: USER    
DOCKED: USER    
DOCKED: USER    NEWDPF move heme_Co_opt.pdbqt
DOCKED: USER    NEWDPF about 8.781000 34.984000 -0.736000
DOCKED: USER    NEWDPF tran0 46.335610 27.076142 18.713882
DOCKED: USER    NEWDPF quaternion0 -0.233566 0.381772 0.893731 -0.030683
DOCKED: USER    NEWDPF axisangle0 -0.233676 0.381952 0.894152 -176.483420
DOCKED: USER    NEWDPF quat0 -0.233676 0.381952 0.894152 -176.483420
DOCKED: USER    NEWDPF dihe0 -97.80 91.92 73.38 -24.05 112.13 131.81 29.86 -60.14 -179.90 65.08 -179.95 -19.38 
DOCKED: USER  keepresnum = 1 
DOCKED: USER  
DOCKED: REMARK  12 active torsions:
DOCKED: REMARK  status: ('A' for Active; 'I' for Inactive)
DOCKED: REMARK    1  A    between atoms: C_6  and  C_10 
DOCKED: REMARK    2  A    between atoms: C_10  and  C_11 
DOCKED: REMARK    3  A    between atoms: C_11  and  C_12 
DOCKED: REMARK    4  A    between atoms: C_12  and  O_14 
DOCKED: REMARK    5  A    between atoms: C_17  and  C_20 
DOCKED: REMARK    6  A    between atoms: C_24  and  C_27 
DOCKED: REMARK    7  A    between atoms: C_31  and  C_34 
DOCKED: REMARK    8  A    between atoms: C_34  and  C_35 
DOCKED: REMARK    9  A    between atoms: C_35  and  C_36 
DOCKED: REMARK   10  A    between atoms: C_36  and  O_38 
DOCKED: REMARK   11  A    between atoms: FE_43  and  C_44 
DOCKED: REMARK   12  A    between atoms: C_44  and  O_45 
DOCKED: USER                              x       y       z     vdW  Elec       q    Type
DOCKED: USER                           _______ _______ _______ _____ _____    ______ ____
DOCKED: ROOT
DOCKED: ATOM      1  C   UNL d   1      48.274  26.370  19.391 -0.05 +0.03    +0.064 A 
DOCKED: ATOM      2  C   UNL d   1      46.304  30.697  19.297 -0.18 +0.03    +0.064 C 
DOCKED: ATOM      3  C   UNL d   1      42.491  28.952  17.006 -0.28 +0.02    +0.064 A 
DOCKED: ATOM      4  C   UNL d   1      44.308  24.459  17.431 -0.22 +0.03    +0.064 A 
DOCKED: ATOM      5  C   UNL d   1      48.032  27.687  19.501 -0.07 +0.04    +0.066 A 
DOCKED: ATOM      6  C   UNL d   1      48.904  28.552  20.192 -0.04 -0.01    -0.021 A 
DOCKED: ATOM      7  C   UNL d   1      48.316  29.801  20.181 -0.07 -0.01    -0.025 A 
DOCKED: ATOM      8  C   UNL d   1      47.120  29.649  19.472 -0.11 +0.04    +0.066 A 
DOCKED: ATOM      9  C   UNL d   1      48.847  31.098  20.812 -0.06 +0.02    +0.051 C 
DOCKED: ATOM     10  C   UNL d   1      45.067  30.642  18.559 -0.22 +0.03    +0.066 A 
DOCKED: ATOM     11  C   UNL d   1      44.236  31.733  18.222 -0.27 -0.01    -0.021 A 
DOCKED: ATOM     12  C   UNL d   1      43.134  31.196  17.551 -0.36 +0.00    +0.000 A 
DOCKED: ATOM     13  C   UNL d   1      43.379  29.823  17.517 -0.30 +0.02    +0.070 A 
DOCKED: ATOM     14  C   UNL d   1      44.543  33.191  18.450 -0.28 +0.01    +0.052 C 
DOCKED: ATOM     15  C   UNL d   1      42.558  27.505  16.937 -0.32 +0.02    +0.066 A 
DOCKED: ATOM     16  C   UNL d   1      41.542  26.653  16.528 -0.39 -0.01    -0.021 A 
DOCKED: ATOM     17  C   UNL d   1      42.060  25.356  16.651 -0.36 +0.00    +0.000 A 
DOCKED: ATOM     18  C   UNL d   1      43.362  25.521  17.112 -0.23 +0.03    +0.070 A 
DOCKED: ATOM     19  C   UNL d   1      40.172  27.086  16.055 -0.38 +0.01    +0.052 C 
DOCKED: ATOM     20  C   UNL d   1      45.547  24.592  17.962 -0.20 +0.04    +0.066 A 
DOCKED: ATOM     21  C   UNL d   1      46.350  23.493  18.259 -0.19 -0.02    -0.025 A 
DOCKED: ATOM     22  C   UNL d   1      47.512  24.014  18.799 -0.12 -0.02    -0.021 A 
DOCKED: ATOM     23  C   UNL d   1      47.354  25.416  18.815 -0.10 +0.04    +0.066 A 
DOCKED: ATOM     24  C   UNL d   1      46.020  22.016  18.058 -0.24 +0.05    +0.051 C 
DOCKED: ATOM     25  N   UNL d   1      46.921  28.351  19.033 -0.07 -0.14    -0.248 N 
DOCKED: ATOM     26  N   UNL d   1      44.574  29.496  18.078 -0.15 -0.10    -0.248 N 
DOCKED: ATOM     27  N   UNL d   1      43.614  26.812  17.300 -0.18 -0.09    -0.248 N 
DOCKED: ATOM     28  N   UNL d   1      46.165  25.770  18.312 -0.09 -0.15    -0.248 N 
DOCKED: ATOM     29 FE   UNL d   1      45.171  27.533  18.115 -0.05 +0.00    +0.000 Fe
DOCKED: ENDROOT
DOCKED: BRANCH   6  30
DOCKED: ATOM     30  C   UNL d   1      50.200  28.165  20.897 -0.01 +0.02    +0.052 C 
DOCKED: BRANCH  30  31
DOCKED: ATOM     31  C   UNL d   1      49.952  27.930  22.386 -0.01 +0.06    +0.115 C 
DOCKED: BRANCH  31  32
DOCKED: ATOM     32  C   UNL d   1      48.512  28.182  22.779 -0.02 +0.16    +0.139 C 
DOCKED: ATOM     33  O   UNL d   1      48.208  29.244  23.301 -0.07 -0.99    -0.650 OA
DOCKED: BRANCH  32  34
DOCKED: ATOM     34  O   UNL d   1      47.531  27.283  22.525 -0.05 -1.12    -0.776 OA
DOCKED: ATOM     35  H   UNL d   1      46.897  27.361  21.800 +0.02 +0.25    +0.167 HD
DOCKED: ENDBRANCH  32  34
DOCKED: ENDBRANCH  31  32
DOCKED: ENDBRANCH  30  31
DOCKED: ENDBRANCH   6  30
DOCKED: BRANCH  29  36
DOCKED: ATOM     36  C   UNL d   1      44.387  27.333  20.049 +0.28 +0.14    +0.190 C 
DOCKED: BRANCH  36  37
DOCKED: ATOM     37  O   UNL d   1      44.754  27.227  21.395 -0.34 -0.55    -0.399 OA
DOCKED: ATOM     38  H   UNL d   1      45.700  26.911  21.378 +0.05 +0.26    +0.209 HD
DOCKED: ENDBRANCH  36  37
DOCKED: ENDBRANCH  29  36
DOCKED: BRANCH  22  39
DOCKED: ATOM     39  C   UNL d   1      48.678  23.201  19.328 -0.08 +0.03    +0.052 C 
DOCKED: BRANCH  39  40
DOCKED: ATOM     40  C   UNL d   1      49.597  22.758  18.177 -0.02 +0.11    +0.115 C 
DOCKED: BRANCH  40  41
DOCKED: ATOM     41  C   UNL d   1      49.751  21.257  18.043 -0.04 +0.14    +0.139 C 
DOCKED: ATOM     42  O   UNL d   1      48.856  20.609  17.519 -0.48 -1.09    -0.650 OA
DOCKED: BRANCH  41  43
DOCKED: ATOM     43  O   UNL d   1      50.888  20.625  18.408 +0.00 -0.45    -0.776 OA
DOCKED: ATOM     44  H   UNL d   1      51.092  20.412  19.328 +0.01 +0.07    +0.167 HD
DOCKED: ENDBRANCH  41  43
DOCKED: ENDBRANCH  40  41
DOCKED: ENDBRANCH  39  40
DOCKED: ENDBRANCH  22  39
DOCKED: BRANCH  12  45
DOCKED: ATOM     45  C   UNL d   1      41.895  31.821  16.924 -0.47 +0.00    +0.004 C 
DOCKED: ATOM     46  C   UNL d   1      41.198  32.899  17.273 -0.53 +0.00    +0.012 C 
DOCKED: ENDBRANCH  12  45
DOCKED: BRANCH  17  47
DOCKED: ATOM     47  C   UNL d   1      41.399  24.038  16.414 -0.55 +0.00    +0.004 C 
DOCKED: ATOM     48  C   UNL d   1      41.409  23.410  15.236 -0.58 +0.00    +0.012 C 
DOCKED: ENDBRANCH  17  47
DOCKED: TORSDOF 12
DOCKED: TER
DOCKED: ENDMDL
________________________________________________________________________________


	BEGINNING GENETIC ALGORITHM DOCKING 92 of 100
Run: 92 Seed: 1480563459 613516899 [ Run 92 of 100 GA/GALS ]
Beginning LAMARCKIAN GENETIC ALGORITHM (LGA), with a maximum of 25000000 energy evaluations.

Final-Value: -19.254


	FINAL GENETIC ALGORITHM DOCKED STATE
	_______________________________________________


Detailed state:  trans 41.021 28.874 16.250 quatxyzw 0.349867 -0.396598 -0.847274 0.049296 center 8.781 34.984 -0.736 ntor 12 -16.9229 107.3924 23.5428 -49.2800 -31.4200 -5.6825 121.4582 -89.0152 20.7051 37.6059 -39.1331 29.6029
State:	 41.021  28.874  16.250   0.350 -0.397 -0.848 174.349    -16.92  107.39   23.54  -49.28  -31.42   -5.68  121.46  -89.02   20.71   37.61  -39.13   29.60

DOCKED: MODEL       92
DOCKED: USER    Run = 92
DOCKED: USER    DPF = D:/Protein_go_brrr/autodock/final/2DN3/heme_Co/dock.dpf
DOCKED: USER  
DOCKED: USER    Estimated Free Energy of Binding    =  -14.03 kcal/mol  [=(1)+(2)+(3)-(4)]
DOCKED: USER    Estimated Inhibition Constant, Ki   =   51.89 pM (picomolar)  [Temperature = 298.15 K]
DOCKED: USER    
DOCKED: USER    (1) Final Intermolecular Energy     =  -17.61 kcal/mol
DOCKED: USER        vdW + Hbond + desolv Energy     =  -15.36 kcal/mol
DOCKED: USER        Electrostatic Energy            =   -2.25 kcal/mol
DOCKED: USER    (2) Final Total Internal Energy     =   -1.64 kcal/mol
DOCKED: USER    (3) Torsional Free Energy           =   +3.58 kcal/mol
DOCKED: USER    (4) Unbound System's Energy  [=(2)] =   -1.64 kcal/mol
DOCKED: USER    
DOCKED: USER    
DOCKED: USER    NEWDPF move heme_Co_opt.pdbqt
DOCKED: USER    NEWDPF about 8.781000 34.984000 -0.736000
DOCKED: USER    NEWDPF tran0 41.021392 28.873566 16.249703
DOCKED: USER    NEWDPF quaternion0 0.349867 -0.396598 -0.847274 0.049296
DOCKED: USER    NEWDPF axisangle0 0.350292 -0.397081 -0.848305 174.348832
DOCKED: USER    NEWDPF quat0 0.350292 -0.397081 -0.848305 174.348832
DOCKED: USER    NEWDPF dihe0 -16.92 107.39 23.54 -49.28 -31.42 -5.68 121.46 -89.02 20.71 37.61 -39.13 29.60 
DOCKED: USER  keepresnum = 1 
DOCKED: USER  
DOCKED: REMARK  12 active torsions:
DOCKED: REMARK  status: ('A' for Active; 'I' for Inactive)
DOCKED: REMARK    1  A    between atoms: C_6  and  C_10 
DOCKED: REMARK    2  A    between atoms: C_10  and  C_11 
DOCKED: REMARK    3  A    between atoms: C_11  and  C_12 
DOCKED: REMARK    4  A    between atoms: C_12  and  O_14 
DOCKED: REMARK    5  A    between atoms: C_17  and  C_20 
DOCKED: REMARK    6  A    between atoms: C_24  and  C_27 
DOCKED: REMARK    7  A    between atoms: C_31  and  C_34 
DOCKED: REMARK    8  A    between atoms: C_34  and  C_35 
DOCKED: REMARK    9  A    between atoms: C_35  and  C_36 
DOCKED: REMARK   10  A    between atoms: C_36  and  O_38 
DOCKED: REMARK   11  A    between atoms: FE_43  and  C_44 
DOCKED: REMARK   12  A    between atoms: C_44  and  O_45 
DOCKED: USER                              x       y       z     vdW  Elec       q    Type
DOCKED: USER                           _______ _______ _______ _____ _____    ______ ____
DOCKED: ROOT
DOCKED: ATOM      1  C   UNL d   1      42.764  28.309  17.416 -0.18 +0.02    +0.064 A 
DOCKED: ATOM      2  C   UNL d   1      40.711  32.514  16.570 -0.47 +0.01    +0.064 C 
DOCKED: ATOM      3  C   UNL d   1      37.637  30.448  13.552 -0.36 +0.01    +0.064 A 
DOCKED: ATOM      4  C   UNL d   1      39.466  26.088  14.693 -0.42 +0.01    +0.064 A 
DOCKED: ATOM      5  C   UNL d   1      42.452  29.615  17.379 -0.25 +0.02    +0.066 A 
DOCKED: ATOM      6  C   UNL d   1      43.097  30.561  18.200 -0.33 -0.01    -0.021 A 
DOCKED: ATOM      7  C   UNL d   1      42.482  31.775  17.967 -0.43 -0.01    -0.025 A 
DOCKED: ATOM      8  C   UNL d   1      41.500  31.522  17.003 -0.39 +0.01    +0.066 A 
DOCKED: ATOM      9  C   UNL d   1      42.795  33.130  18.620 -0.44 +0.01    +0.051 C 
DOCKED: ATOM     10  C   UNL d   1      39.693  32.354  15.563 -0.39 +0.01    +0.066 A 
DOCKED: ATOM     11  C   UNL d   1      38.928  33.380  14.965 -0.42 -0.00    -0.021 A 
DOCKED: ATOM     12  C   UNL d   1      38.043  32.750  14.086 -0.40 +0.00    +0.000 A 
DOCKED: ATOM     13  C   UNL d   1      38.340  31.392  14.203 -0.37 +0.01    +0.070 A 
DOCKED: ATOM     14  C   UNL d   1      39.114  34.862  15.164 -0.55 +0.01    +0.052 C 
DOCKED: ATOM     15  C   UNL d   1      37.773  29.006  13.596 -0.38 +0.01    +0.066 A 
DOCKED: ATOM     16  C   UNL d   1      36.920  28.080  13.011 -0.48 -0.00    -0.021 A 
DOCKED: ATOM     17  C   UNL d   1      37.442  26.821  13.340 -0.46 +0.00    +0.000 A 
DOCKED: ATOM     18  C   UNL d   1      38.586  27.079  14.087 -0.38 +0.01    +0.070 A 
DOCKED: ATOM     19  C   UNL d   1      35.690  28.414  12.197 -0.66 +0.01    +0.052 C 
DOCKED: ATOM     20  C   UNL d   1      40.534  26.314  15.495 -0.38 +0.02    +0.066 A 
DOCKED: ATOM     21  C   UNL d   1      41.282  25.276  16.047 -0.39 -0.01    -0.025 A 
DOCKED: ATOM     22  C   UNL d   1      42.258  25.887  16.814 -0.33 -0.01    -0.021 A 
DOCKED: ATOM     23  C   UNL d   1      42.047  27.278  16.700 -0.34 +0.02    +0.066 A 
DOCKED: ATOM     24  C   UNL d   1      41.066  23.776  15.870 -0.55 +0.01    +0.051 C 
DOCKED: ATOM     25  N   UNL d   1      41.463  30.193  16.616 -0.12 -0.08    -0.248 N 
DOCKED: ATOM     26  N   UNL d   1      39.375  31.159  15.053 -0.19 -0.05    -0.248 N 
DOCKED: ATOM     27  N   UNL d   1      38.735  28.390  14.245 -0.20 -0.06    -0.248 N 
DOCKED: ATOM     28  N   UNL d   1      41.003  27.540  15.905 -0.23 -0.08    -0.248 N 
DOCKED: ATOM     29 FE   UNL d   1      40.020  29.235  15.361 -0.06 +0.00    +0.000 Fe
DOCKED: ENDROOT
DOCKED: BRANCH   6  30
DOCKED: ATOM     30  C   UNL d   1      44.197  30.281  19.218 -0.29 +0.03    +0.052 C 
DOCKED: BRANCH  30  31
DOCKED: ATOM     31  C   UNL d   1      45.253  29.348  18.626 -0.21 +0.06    +0.115 C 
DOCKED: BRANCH  31  32
DOCKED: ATOM     32  C   UNL d   1      46.098  28.683  19.691 -0.16 +0.10    +0.139 C 
DOCKED: ATOM     33  O   UNL d   1      45.987  29.038  20.855 -0.34 -0.92    -0.650 OA
DOCKED: BRANCH  32  34
DOCKED: ATOM     34  O   UNL d   1      46.945  27.667  19.404 +0.06 -0.48    -0.776 OA
DOCKED: ATOM     35  H   UNL d   1      46.876  27.106  18.620 +0.05 +0.09    +0.167 HD
DOCKED: ENDBRANCH  32  34
DOCKED: ENDBRANCH  31  32
DOCKED: ENDBRANCH  30  31
DOCKED: ENDBRANCH   6  30
DOCKED: BRANCH  29  36
DOCKED: ATOM     36  C   UNL d   1      38.799  29.099  17.059 -0.33 +0.05    +0.190 C 
DOCKED: BRANCH  36  37
DOCKED: ATOM     37  O   UNL d   1      37.700  28.416  17.590 -0.25 -0.08    -0.399 OA
DOCKED: ATOM     38  H   UNL d   1      37.370  27.842  16.844 +0.13 +0.04    +0.209 HD
DOCKED: ENDBRANCH  36  37
DOCKED: ENDBRANCH  29  36
DOCKED: BRANCH  22  39
DOCKED: ATOM     39  C   UNL d   1      43.291  25.167  17.659 -0.35 +0.02    +0.052 C 
DOCKED: BRANCH  39  40
DOCKED: ATOM     40  C   UNL d   1      44.699  25.722  17.386 -0.24 +0.06    +0.115 C 
DOCKED: BRANCH  40  41
DOCKED: ATOM     41  C   UNL d   1      45.810  24.702  17.517 -0.23 +0.11    +0.139 C 
DOCKED: ATOM     42  O   UNL d   1      45.701  23.622  16.953 -0.30 -0.77    -0.650 OA
DOCKED: BRANCH  41  43
DOCKED: ATOM     43  O   UNL d   1      46.959  24.983  18.171 +0.05 -0.56    -0.776 OA
DOCKED: ATOM     44  H   UNL d   1      46.998  25.607  18.907 +0.05 +0.10    +0.167 HD
DOCKED: ENDBRANCH  41  43
DOCKED: ENDBRANCH  40  41
DOCKED: ENDBRANCH  39  40
DOCKED: ENDBRANCH  22  39
DOCKED: BRANCH  12  45
DOCKED: ATOM     45  C   UNL d   1      36.970  33.273  13.142 -0.51 +0.00    +0.004 C 
DOCKED: ATOM     46  C   UNL d   1      35.892  34.016  13.381 -0.57 +0.00    +0.012 C 
DOCKED: ENDBRANCH  12  45
DOCKED: BRANCH  17  47
DOCKED: ATOM     47  C   UNL d   1      36.909  25.459  13.038 -0.65 +0.00    +0.004 C 
DOCKED: ATOM     48  C   UNL d   1      35.665  25.072  13.333 -0.72 +0.00    +0.012 C 
DOCKED: ENDBRANCH  17  47
DOCKED: TORSDOF 12
DOCKED: TER
DOCKED: ENDMDL
________________________________________________________________________________


	BEGINNING GENETIC ALGORITHM DOCKING 93 of 100
Run: 93 Seed: 2057237669 2007872486 [ Run 93 of 100 GA/GALS ]
Beginning LAMARCKIAN GENETIC ALGORITHM (LGA), with a maximum of 25000000 energy evaluations.

Final-Value: -10.918


	FINAL GENETIC ALGORITHM DOCKED STATE
	_______________________________________________


Detailed state:  trans 1.838 35.214 -0.117 quatxyzw 0.698378 -0.475238 0.535178 -0.001245 center 8.781 34.984 -0.736 ntor 12 77.5689 84.0111 -144.0203 -20.9244 133.3182 93.6172 -132.4574 121.8817 -117.3119 147.8434 -19.7844 168.7986
State:	  1.838  35.214  -0.117   0.698 -0.475  0.535 -179.857     77.57   84.01 -144.02  -20.92  133.32   93.62 -132.46  121.88 -117.31  147.84  -19.78  168.80

DOCKED: MODEL       93
DOCKED: USER    Run = 93
DOCKED: USER    DPF = D:/Protein_go_brrr/autodock/final/2DN3/heme_Co/dock.dpf
DOCKED: USER  
DOCKED: USER    Estimated Free Energy of Binding    =   -5.15 kcal/mol  [=(1)+(2)+(3)-(4)]
DOCKED: USER    Estimated Inhibition Constant, Ki   =  167.81 uM (micromolar)  [Temperature = 298.15 K]
DOCKED: USER    
DOCKED: USER    (1) Final Intermolecular Energy     =   -8.73 kcal/mol
DOCKED: USER        vdW + Hbond + desolv Energy     =   -7.16 kcal/mol
DOCKED: USER        Electrostatic Energy            =   -1.57 kcal/mol
DOCKED: USER    (2) Final Total Internal Energy     =   -2.19 kcal/mol
DOCKED: USER    (3) Torsional Free Energy           =   +3.58 kcal/mol
DOCKED: USER    (4) Unbound System's Energy  [=(2)] =   -2.19 kcal/mol
DOCKED: USER    
DOCKED: USER    
DOCKED: USER    NEWDPF move heme_Co_opt.pdbqt
DOCKED: USER    NEWDPF about 8.781000 34.984000 -0.736000
DOCKED: USER    NEWDPF tran0 1.838296 35.213546 -0.117263
DOCKED: USER    NEWDPF quaternion0 0.698378 -0.475238 0.535178 -0.001245
DOCKED: USER    NEWDPF axisangle0 0.698378 -0.475239 0.535179 -179.857312
DOCKED: USER    NEWDPF quat0 0.698378 -0.475239 0.535179 -179.857312
DOCKED: USER    NEWDPF dihe0 77.57 84.01 -144.02 -20.92 133.32 93.62 -132.46 121.88 -117.31 147.84 -19.78 168.80 
DOCKED: USER  keepresnum = 1 
DOCKED: USER  
DOCKED: REMARK  12 active torsions:
DOCKED: REMARK  status: ('A' for Active; 'I' for Inactive)
DOCKED: REMARK    1  A    between atoms: C_6  and  C_10 
DOCKED: REMARK    2  A    between atoms: C_10  and  C_11 
DOCKED: REMARK    3  A    between atoms: C_11  and  C_12 
DOCKED: REMARK    4  A    between atoms: C_12  and  O_14 
DOCKED: REMARK    5  A    between atoms: C_17  and  C_20 
DOCKED: REMARK    6  A    between atoms: C_24  and  C_27 
DOCKED: REMARK    7  A    between atoms: C_31  and  C_34 
DOCKED: REMARK    8  A    between atoms: C_34  and  C_35 
DOCKED: REMARK    9  A    between atoms: C_35  and  C_36 
DOCKED: REMARK   10  A    between atoms: C_36  and  O_38 
DOCKED: REMARK   11  A    between atoms: FE_43  and  C_44 
DOCKED: REMARK   12  A    between atoms: C_44  and  O_45 
DOCKED: USER                              x       y       z     vdW  Elec       q    Type
DOCKED: USER                           _______ _______ _______ _____ _____    ______ ____
DOCKED: ROOT
DOCKED: ATOM      1  C   UNL d   1       0.919  36.656  -1.456 +0.01 +0.08    +0.064 A 
DOCKED: ATOM      2  C   UNL d   1       5.445  35.374  -0.760 -0.23 +0.01    +0.064 C 
DOCKED: ATOM      3  C   UNL d   1       4.128  32.547   2.860 -0.34 +0.00    +0.064 A 
DOCKED: ATOM      4  C   UNL d   1      -0.540  33.543   1.921 -0.06 +0.01    +0.064 A 
DOCKED: ATOM      5  C   UNL d   1       2.257  36.541  -1.508 -0.14 +0.06    +0.066 A 
DOCKED: ATOM      6  C   UNL d   1       3.023  37.177  -2.505 -0.14 -0.01    -0.021 A 
DOCKED: ATOM      7  C   UNL d   1       4.333  36.783  -2.312 -0.09 -0.01    -0.025 A 
DOCKED: ATOM      8  C   UNL d   1       4.312  35.938  -1.197 -0.14 +0.02    +0.066 A 
DOCKED: ATOM      9  C   UNL d   1       5.567  37.178  -3.137 -0.15 +0.01    +0.051 C 
DOCKED: ATOM     10  C   UNL d   1       5.526  34.512   0.393 -0.30 +0.01    +0.066 A 
DOCKED: ATOM     11  C   UNL d   1       6.702  34.003   0.985 -0.39 -0.00    -0.021 A 
DOCKED: ATOM     12  C   UNL d   1       6.289  33.185   2.041 -0.44 +0.00    +0.000 A 
DOCKED: ATOM     13  C   UNL d   1       4.896  33.266   2.023 -0.35 +0.01    +0.070 A 
DOCKED: ATOM     14  C   UNL d   1       8.117  34.363   0.611 -0.27 +0.01    +0.052 C 
DOCKED: ATOM     15  C   UNL d   1       2.683  32.470   2.944 -0.26 +0.00    +0.066 A 
DOCKED: ATOM     16  C   UNL d   1       1.950  31.596   3.735 -0.23 +0.00    -0.021 A 
DOCKED: ATOM     17  C   UNL d   1       0.603  31.878   3.466 -0.10 -0.00    +0.000 A 
DOCKED: ATOM     18  C   UNL d   1       0.620  32.916   2.541 -0.09 +0.01    +0.070 A 
DOCKED: ATOM     19  C   UNL d   1       2.534  30.567   4.678 -0.31 -0.01    +0.052 C 
DOCKED: ATOM     20  C   UNL d   1      -0.547  34.494   0.956 -0.08 +0.02    +0.066 A 
DOCKED: ATOM     21  C   UNL d   1      -1.728  34.993   0.412 -0.05 -0.01    -0.025 A 
DOCKED: ATOM     22  C   UNL d   1      -1.339  35.913  -0.544 -0.07 -0.01    -0.021 A 
DOCKED: ATOM     23  C   UNL d   1       0.072  35.921  -0.544 -0.08 +0.06    +0.066 A 
DOCKED: ATOM     24  C   UNL d   1      -3.158  34.598   0.770 -0.01 +0.01    +0.051 C 
DOCKED: ATOM     25  N   UNL d   1       3.040  35.775  -0.675 -0.13 -0.14    -0.248 N 
DOCKED: ATOM     26  N   UNL d   1       4.439  34.113   1.062 -0.18 -0.05    -0.248 N 
DOCKED: ATOM     27  N   UNL d   1       1.875  33.222   2.231 -0.12 -0.04    -0.248 N 
DOCKED: ATOM     28  N   UNL d   1       0.556  35.062   0.361 -0.09 -0.15    -0.248 N 
DOCKED: ATOM     29 FE   UNL d   1       2.420  34.424   0.863 -0.04 +0.00    +0.000 Fe
DOCKED: ENDROOT
DOCKED: BRANCH   6  30
DOCKED: ATOM     30  C   UNL d   1       2.496  38.054  -3.635 -0.07 +0.03    +0.052 C 
DOCKED: BRANCH  30  31
DOCKED: ATOM     31  C   UNL d   1       1.854  39.323  -3.076 -0.08 +0.10    +0.115 C 
DOCKED: BRANCH  31  32
DOCKED: ATOM     32  C   UNL d   1       2.833  40.167  -2.288 -0.15 +0.14    +0.139 C 
DOCKED: ATOM     33  O   UNL d   1       3.375  41.120  -2.828 +0.02 -0.37    -0.650 OA
DOCKED: BRANCH  32  34
DOCKED: ATOM     34  O   UNL d   1       3.095  39.930  -0.981 -0.83 -1.42    -0.776 OA
DOCKED: ATOM     35  H   UNL d   1       3.623  39.187  -0.659 +0.04 +0.25    +0.167 HD
DOCKED: ENDBRANCH  32  34
DOCKED: ENDBRANCH  31  32
DOCKED: ENDBRANCH  30  31
DOCKED: ENDBRANCH   6  30
DOCKED: BRANCH  29  36
DOCKED: ATOM     36  C   UNL d   1       2.340  32.946  -0.622 -0.10 +0.03    +0.190 C 
DOCKED: BRANCH  36  37
DOCKED: ATOM     37  O   UNL d   1       1.709  32.607  -1.823 -0.03 -0.06    -0.399 OA
DOCKED: ATOM     38  H   UNL d   1       0.809  33.034  -1.769 +0.03 +0.04    +0.209 HD
DOCKED: ENDBRANCH  36  37
DOCKED: ENDBRANCH  29  36
DOCKED: BRANCH  22  39
DOCKED: ATOM     39  C   UNL d   1      -2.276  36.690  -1.450 -0.04 +0.03    +0.052 C 
DOCKED: BRANCH  39  40
DOCKED: ATOM     40  C   UNL d   1      -2.542  35.914  -2.750 -0.00 +0.03    +0.115 C 
DOCKED: BRANCH  40  41
DOCKED: ATOM     41  C   UNL d   1      -1.339  35.171  -3.292 -0.00 +0.04    +0.139 C 
DOCKED: ATOM     42  O   UNL d   1      -0.695  35.662  -4.208 +0.01 -0.17    -0.650 OA
DOCKED: BRANCH  41  43
DOCKED: ATOM     43  O   UNL d   1      -0.903  34.021  -2.732 +0.02 -0.17    -0.776 OA
DOCKED: ATOM     44  H   UNL d   1       0.034  33.835  -2.590 +0.02 +0.04    +0.167 HD
DOCKED: ENDBRANCH  41  43
DOCKED: ENDBRANCH  40  41
DOCKED: ENDBRANCH  39  40
DOCKED: ENDBRANCH  22  39
DOCKED: BRANCH  12  45
DOCKED: ATOM     45  C   UNL d   1       7.046  32.357   3.070 -0.47 +0.00    +0.004 C 
DOCKED: ATOM     46  C   UNL d   1       8.228  31.753   2.995 -0.56 +0.00    +0.012 C 
DOCKED: ENDBRANCH  12  45
DOCKED: BRANCH  17  47
DOCKED: ATOM     47  C   UNL d   1      -0.632  31.211   3.978 -0.05 -0.00    +0.004 C 
DOCKED: ATOM     48  C   UNL d   1      -1.497  31.800   4.807 -0.03 -0.00    +0.012 C 
DOCKED: ENDBRANCH  17  47
DOCKED: TORSDOF 12
DOCKED: TER
DOCKED: ENDMDL
________________________________________________________________________________


	BEGINNING GENETIC ALGORITHM DOCKING 94 of 100
Run: 94 Seed: 348240319 2005910956 [ Run 94 of 100 GA/GALS ]
Beginning LAMARCKIAN GENETIC ALGORITHM (LGA), with a maximum of 25000000 energy evaluations.

Final-Value: -19.951


	FINAL GENETIC ALGORITHM DOCKED STATE
	_______________________________________________


Detailed state:  trans 40.995 28.934 16.255 quatxyzw 0.353495 -0.401061 -0.843614 0.050074 center 8.781 34.984 -0.736 ntor 12 -105.9517 117.0181 -104.8461 -52.8413 -39.2338 -0.6938 107.4055 156.6168 37.6400 40.5613 -46.0676 167.6209
State:	 40.995  28.934  16.255   0.354 -0.402 -0.845 174.260   -105.95  117.02 -104.85  -52.84  -39.23   -0.69  107.41  156.62   37.64   40.56  -46.07  167.62

DOCKED: MODEL       94
DOCKED: USER    Run = 94
DOCKED: USER    DPF = D:/Protein_go_brrr/autodock/final/2DN3/heme_Co/dock.dpf
DOCKED: USER  
DOCKED: USER    Estimated Free Energy of Binding    =  -14.00 kcal/mol  [=(1)+(2)+(3)-(4)]
DOCKED: USER    Estimated Inhibition Constant, Ki   =   54.41 pM (picomolar)  [Temperature = 298.15 K]
DOCKED: USER    
DOCKED: USER    (1) Final Intermolecular Energy     =  -17.58 kcal/mol
DOCKED: USER        vdW + Hbond + desolv Energy     =  -15.57 kcal/mol
DOCKED: USER        Electrostatic Energy            =   -2.01 kcal/mol
DOCKED: USER    (2) Final Total Internal Energy     =   -2.37 kcal/mol
DOCKED: USER    (3) Torsional Free Energy           =   +3.58 kcal/mol
DOCKED: USER    (4) Unbound System's Energy  [=(2)] =   -2.37 kcal/mol
DOCKED: USER    
DOCKED: USER    
DOCKED: USER    NEWDPF move heme_Co_opt.pdbqt
DOCKED: USER    NEWDPF about 8.781000 34.984000 -0.736000
DOCKED: USER    NEWDPF tran0 40.994968 28.934365 16.255363
DOCKED: USER    NEWDPF quaternion0 0.353495 -0.401061 -0.843614 0.050074
DOCKED: USER    NEWDPF axisangle0 0.353939 -0.401564 -0.844674 174.259511
DOCKED: USER    NEWDPF quat0 0.353939 -0.401564 -0.844674 174.259511
DOCKED: USER    NEWDPF dihe0 -105.95 117.02 -104.85 -52.84 -39.23 -0.69 107.41 156.62 37.64 40.56 -46.07 167.62 
DOCKED: USER  keepresnum = 1 
DOCKED: USER  
DOCKED: REMARK  12 active torsions:
DOCKED: REMARK  status: ('A' for Active; 'I' for Inactive)
DOCKED: REMARK    1  A    between atoms: C_6  and  C_10 
DOCKED: REMARK    2  A    between atoms: C_10  and  C_11 
DOCKED: REMARK    3  A    between atoms: C_11  and  C_12 
DOCKED: REMARK    4  A    between atoms: C_12  and  O_14 
DOCKED: REMARK    5  A    between atoms: C_17  and  C_20 
DOCKED: REMARK    6  A    between atoms: C_24  and  C_27 
DOCKED: REMARK    7  A    between atoms: C_31  and  C_34 
DOCKED: REMARK    8  A    between atoms: C_34  and  C_35 
DOCKED: REMARK    9  A    between atoms: C_35  and  C_36 
DOCKED: REMARK   10  A    between atoms: C_36  and  O_38 
DOCKED: REMARK   11  A    between atoms: FE_43  and  C_44 
DOCKED: REMARK   12  A    between atoms: C_44  and  O_45 
DOCKED: USER                              x       y       z     vdW  Elec       q    Type
DOCKED: USER                           _______ _______ _______ _____ _____    ______ ____
DOCKED: ROOT
DOCKED: ATOM      1  C   UNL d   1      42.726  28.378  17.443 -0.16 +0.02    +0.064 A 
DOCKED: ATOM      2  C   UNL d   1      40.689  32.578  16.536 -0.47 +0.01    +0.064 C 
DOCKED: ATOM      3  C   UNL d   1      37.638  30.488  13.511 -0.36 +0.01    +0.064 A 
DOCKED: ATOM      4  C   UNL d   1      39.448  26.136  14.714 -0.41 +0.01    +0.064 A 
DOCKED: ATOM      5  C   UNL d   1      42.417  29.684  17.390 -0.25 +0.02    +0.066 A 
DOCKED: ATOM      6  C   UNL d   1      43.056  30.637  18.207 -0.35 -0.01    -0.021 A 
DOCKED: ATOM      7  C   UNL d   1      42.446  31.851  17.956 -0.44 -0.01    -0.025 A 
DOCKED: ATOM      8  C   UNL d   1      41.472  31.589  16.986 -0.40 +0.01    +0.066 A 
DOCKED: ATOM      9  C   UNL d   1      42.755  33.212  18.597 -0.43 +0.01    +0.051 C 
DOCKED: ATOM     10  C   UNL d   1      39.679  32.410  15.521 -0.39 +0.01    +0.066 A 
DOCKED: ATOM     11  C   UNL d   1      38.922  33.431  14.906 -0.42 -0.00    -0.021 A 
DOCKED: ATOM     12  C   UNL d   1      38.044  32.794  14.026 -0.40 +0.00    +0.000 A 
DOCKED: ATOM     13  C   UNL d   1      38.337  31.436  14.159 -0.37 +0.01    +0.070 A 
DOCKED: ATOM     14  C   UNL d   1      39.110  34.915  15.092 -0.55 +0.01    +0.052 C 
DOCKED: ATOM     15  C   UNL d   1      37.770  29.045  13.572 -0.38 +0.01    +0.066 A 
DOCKED: ATOM     16  C   UNL d   1      36.921  28.116  12.989 -0.48 -0.00    -0.021 A 
DOCKED: ATOM     17  C   UNL d   1      37.437  26.859  13.335 -0.46 +0.00    +0.000 A 
DOCKED: ATOM     18  C   UNL d   1      38.575  27.122  14.090 -0.38 +0.01    +0.070 A 
DOCKED: ATOM     19  C   UNL d   1      35.698  28.443  12.160 -0.66 +0.01    +0.052 C 
DOCKED: ATOM     20  C   UNL d   1      40.509  26.368  15.523 -0.38 +0.02    +0.066 A 
DOCKED: ATOM     21  C   UNL d   1      41.250  25.335  16.092 -0.39 -0.01    -0.025 A 
DOCKED: ATOM     22  C   UNL d   1      42.220  25.952  16.861 -0.35 -0.01    -0.021 A 
DOCKED: ATOM     23  C   UNL d   1      42.014  27.341  16.732 -0.33 +0.02    +0.066 A 
DOCKED: ATOM     24  C   UNL d   1      41.033  23.833  15.928 -0.55 +0.01    +0.051 C 
DOCKED: ATOM     25  N   UNL d   1      41.436  30.257  16.612 -0.13 -0.08    -0.248 N 
DOCKED: ATOM     26  N   UNL d   1      39.364  31.210  15.021 -0.22 -0.05    -0.248 N 
DOCKED: ATOM     27  N   UNL d   1      38.726  28.434  14.236 -0.20 -0.06    -0.248 N 
DOCKED: ATOM     28  N   UNL d   1      40.977  27.598  15.924 -0.23 -0.08    -0.248 N 
DOCKED: ATOM     29 FE   UNL d   1      40.002  29.288  15.354 -0.06 +0.00    +0.000 Fe
DOCKED: ENDROOT
DOCKED: BRANCH   6  30
DOCKED: ATOM     30  C   UNL d   1      44.147  30.367  19.237 -0.29 +0.02    +0.052 C 
DOCKED: BRANCH  30  31
DOCKED: ATOM     31  C   UNL d   1      45.112  29.296  18.730 -0.22 +0.06    +0.115 C 
DOCKED: BRANCH  31  32
DOCKED: ATOM     32  C   UNL d   1      45.610  28.394  19.839 -0.18 +0.11    +0.139 C 
DOCKED: ATOM     33  O   UNL d   1      45.577  28.790  20.995 -0.13 -1.04    -0.650 OA
DOCKED: BRANCH  32  34
DOCKED: ATOM     34  O   UNL d   1      46.049  27.137  19.600 +0.08 -0.52    -0.776 OA
DOCKED: ATOM     35  H   UNL d   1      45.579  26.336  19.871 +0.06 +0.11    +0.167 HD
DOCKED: ENDBRANCH  32  34
DOCKED: ENDBRANCH  31  32
DOCKED: ENDBRANCH  30  31
DOCKED: ENDBRANCH   6  30
DOCKED: BRANCH  29  36
DOCKED: ATOM     36  C   UNL d   1      38.766  29.173  17.043 -0.33 +0.05    +0.190 C 
DOCKED: BRANCH  36  37
DOCKED: ATOM     37  O   UNL d   1      37.708  28.448  17.602 -0.25 -0.08    -0.399 OA
DOCKED: ATOM     38  H   UNL d   1      37.535  27.707  16.957 +0.14 +0.04    +0.209 HD
DOCKED: ENDBRANCH  36  37
DOCKED: ENDBRANCH  29  36
DOCKED: BRANCH  22  39
DOCKED: ATOM     39  C   UNL d   1      43.245  25.238  17.723 -0.35 +0.02    +0.052 C 
DOCKED: BRANCH  39  40
DOCKED: ATOM     40  C   UNL d   1      42.710  25.041  19.151 -0.40 +0.04    +0.115 C 
DOCKED: BRANCH  40  41
DOCKED: ATOM     41  C   UNL d   1      43.764  25.144  20.233 -0.30 +0.07    +0.139 C 
DOCKED: ATOM     42  O   UNL d   1      44.657  24.309  20.280 -0.46 -0.41    -0.650 OA
DOCKED: BRANCH  41  43
DOCKED: ATOM     43  O   UNL d   1      43.797  26.183  21.096 +0.05 -0.57    -0.776 OA
DOCKED: ATOM     44  H   UNL d   1      44.385  26.940  20.976 +0.05 +0.16    +0.167 HD
DOCKED: ENDBRANCH  41  43
DOCKED: ENDBRANCH  40  41
DOCKED: ENDBRANCH  39  40
DOCKED: ENDBRANCH  22  39
DOCKED: BRANCH  12  45
DOCKED: ATOM     45  C   UNL d   1      36.980  33.310  13.066 -0.52 +0.00    +0.004 C 
DOCKED: ATOM     46  C   UNL d   1      35.869  34.004  13.297 -0.58 +0.00    +0.012 C 
DOCKED: ENDBRANCH  12  45
DOCKED: BRANCH  17  47
DOCKED: ATOM     47  C   UNL d   1      36.904  25.495  13.042 -0.64 +0.00    +0.004 C 
DOCKED: ATOM     48  C   UNL d   1      35.712  25.064  13.462 -0.71 +0.00    +0.012 C 
DOCKED: ENDBRANCH  17  47
DOCKED: TORSDOF 12
DOCKED: TER
DOCKED: ENDMDL
________________________________________________________________________________


	BEGINNING GENETIC ALGORITHM DOCKING 95 of 100
Run: 95 Seed: 370931630 132769595 [ Run 95 of 100 GA/GALS ]
Beginning LAMARCKIAN GENETIC ALGORITHM (LGA), with a maximum of 25000000 energy evaluations.

Final-Value: -13.246


	FINAL GENETIC ALGORITHM DOCKED STATE
	_______________________________________________


Detailed state:  trans 45.722 26.007 19.590 quatxyzw 0.527865 0.824037 -0.188971 -0.081313 center 8.781 34.984 -0.736 ntor 12 -114.3946 83.7090 -50.3708 -16.6641 80.0277 145.6426 34.0354 -49.3167 166.9417 149.8004 -177.0593 17.2902
State:	 45.722  26.007  19.590   0.530  0.827 -0.190 -170.672   -114.39   83.71  -50.37  -16.66   80.03  145.64   34.04  -49.32  166.94  149.80 -177.06   17.29

DOCKED: MODEL       95
DOCKED: USER    Run = 95
DOCKED: USER    DPF = D:/Protein_go_brrr/autodock/final/2DN3/heme_Co/dock.dpf
DOCKED: USER  
DOCKED: USER    Estimated Free Energy of Binding    =   -7.54 kcal/mol  [=(1)+(2)+(3)-(4)]
DOCKED: USER    Estimated Inhibition Constant, Ki   =    2.99 uM (micromolar)  [Temperature = 298.15 K]
DOCKED: USER    
DOCKED: USER    (1) Final Intermolecular Energy     =  -11.12 kcal/mol
DOCKED: USER        vdW + Hbond + desolv Energy     =   -7.48 kcal/mol
DOCKED: USER        Electrostatic Energy            =   -3.64 kcal/mol
DOCKED: USER    (2) Final Total Internal Energy     =   -2.13 kcal/mol
DOCKED: USER    (3) Torsional Free Energy           =   +3.58 kcal/mol
DOCKED: USER    (4) Unbound System's Energy  [=(2)] =   -2.13 kcal/mol
DOCKED: USER    
DOCKED: USER    
DOCKED: USER    NEWDPF move heme_Co_opt.pdbqt
DOCKED: USER    NEWDPF about 8.781000 34.984000 -0.736000
DOCKED: USER    NEWDPF tran0 45.722486 26.007466 19.589741
DOCKED: USER    NEWDPF quaternion0 0.527865 0.824037 -0.188971 -0.081313
DOCKED: USER    NEWDPF axisangle0 0.529618 0.826775 -0.189599 -170.671904
DOCKED: USER    NEWDPF quat0 0.529618 0.826775 -0.189599 -170.671904
DOCKED: USER    NEWDPF dihe0 -114.39 83.71 -50.37 -16.66 80.03 145.64 34.04 -49.32 166.94 149.80 -177.06 17.29 
DOCKED: USER  keepresnum = 1 
DOCKED: USER  
DOCKED: REMARK  12 active torsions:
DOCKED: REMARK  status: ('A' for Active; 'I' for Inactive)
DOCKED: REMARK    1  A    between atoms: C_6  and  C_10 
DOCKED: REMARK    2  A    between atoms: C_10  and  C_11 
DOCKED: REMARK    3  A    between atoms: C_11  and  C_12 
DOCKED: REMARK    4  A    between atoms: C_12  and  O_14 
DOCKED: REMARK    5  A    between atoms: C_17  and  C_20 
DOCKED: REMARK    6  A    between atoms: C_24  and  C_27 
DOCKED: REMARK    7  A    between atoms: C_31  and  C_34 
DOCKED: REMARK    8  A    between atoms: C_34  and  C_35 
DOCKED: REMARK    9  A    between atoms: C_35  and  C_36 
DOCKED: REMARK   10  A    between atoms: C_36  and  O_38 
DOCKED: REMARK   11  A    between atoms: FE_43  and  C_44 
DOCKED: REMARK   12  A    between atoms: C_44  and  O_45 
DOCKED: USER                              x       y       z     vdW  Elec       q    Type
DOCKED: USER                           _______ _______ _______ _____ _____    ______ ____
DOCKED: ROOT
DOCKED: ATOM      1  C   UNL d   1      47.059  24.907  20.901 -0.05 +0.04    +0.064 A 
DOCKED: ATOM      2  C   UNL d   1      43.877  23.492  17.662 -0.33 +0.03    +0.064 C 
DOCKED: ATOM      3  C   UNL d   1      42.499  28.016  16.984 -0.29 +0.02    +0.064 A 
DOCKED: ATOM      4  C   UNL d   1      46.004  29.522  20.003 -0.17 +0.05    +0.064 A 
DOCKED: ATOM      5  C   UNL d   1      46.266  24.184  20.092 -0.11 +0.04    +0.066 A 
DOCKED: ATOM      6  C   UNL d   1      46.413  22.790  19.951 -0.13 -0.01    -0.021 A 
DOCKED: ATOM      7  C   UNL d   1      45.503  22.388  18.993 -0.12 -0.02    -0.025 A 
DOCKED: ATOM      8  C   UNL d   1      44.828  23.550  18.603 -0.21 +0.04    +0.066 A 
DOCKED: ATOM      9  C   UNL d   1      45.266  20.969  18.455 -0.05 +0.03    +0.051 C 
DOCKED: ATOM     10  C   UNL d   1      43.112  24.629  17.215 -0.30 +0.03    +0.066 A 
DOCKED: ATOM     11  C   UNL d   1      42.008  24.610  16.336 -0.38 -0.01    -0.021 A 
DOCKED: ATOM     12  C   UNL d   1      41.624  25.942  16.159 -0.35 +0.00    +0.000 A 
DOCKED: ATOM     13  C   UNL d   1      42.511  26.672  16.951 -0.32 +0.02    +0.070 A 
DOCKED: ATOM     14  C   UNL d   1      41.323  23.384  15.789 -0.53 +0.01    +0.052 C 
DOCKED: ATOM     15  C   UNL d   1      43.370  28.926  17.702 -0.19 +0.02    +0.066 A 
DOCKED: ATOM     16  C   UNL d   1      43.397  30.308  17.579 -0.34 -0.01    -0.021 A 
DOCKED: ATOM     17  C   UNL d   1      44.408  30.747  18.446 -0.29 +0.00    +0.000 A 
DOCKED: ATOM     18  C   UNL d   1      44.909  29.595  19.044 -0.22 +0.04    +0.070 A 
DOCKED: ATOM     19  C   UNL d   1      42.499  31.126  16.679 -0.12 +0.01    +0.052 C 
DOCKED: ATOM     20  C   UNL d   1      46.564  28.408  20.532 -0.11 +0.07    +0.066 A 
DOCKED: ATOM     21  C   UNL d   1      47.638  28.465  21.418 -0.02 -0.03    -0.025 A 
DOCKED: ATOM     22  C   UNL d   1      47.945  27.150  21.716 -0.06 -0.02    -0.021 A 
DOCKED: ATOM     23  C   UNL d   1      47.044  26.349  20.982 -0.07 +0.05    +0.066 A 
DOCKED: ATOM     24  C   UNL d   1      48.350  29.710  21.940 -0.09 +0.05    +0.051 C 
DOCKED: ATOM     25  N   UNL d   1      45.276  24.677  19.272 -0.09 -0.14    -0.248 N 
DOCKED: ATOM     26  N   UNL d   1      43.374  25.872  17.633 -0.18 -0.10    -0.248 N 
DOCKED: ATOM     27  N   UNL d   1      44.288  28.527  18.554 -0.11 -0.12    -0.248 N 
DOCKED: ATOM     28  N   UNL d   1      46.208  27.107  20.262 -0.07 -0.20    -0.248 N 
DOCKED: ATOM     29 FE   UNL d   1      44.755  26.717  18.894 -0.05 +0.00    +0.000 Fe
DOCKED: ENDROOT
DOCKED: BRANCH   6  30
DOCKED: ATOM     30  C   UNL d   1      47.442  21.909  20.651 -0.10 +0.02    +0.052 C 
DOCKED: BRANCH  30  31
DOCKED: ATOM     31  C   UNL d   1      48.691  21.750  19.785 -0.05 +0.07    +0.115 C 
DOCKED: BRANCH  31  32
DOCKED: ATOM     32  C   UNL d   1      48.458  22.179  18.352 -0.01 +0.16    +0.139 C 
DOCKED: ATOM     33  O   UNL d   1      48.166  21.340  17.513 +0.24 -1.44    -0.650 OA
DOCKED: BRANCH  32  34
DOCKED: ATOM     34  O   UNL d   1      48.516  23.478  17.973 +0.05 -0.88    -0.776 OA
DOCKED: ATOM     35  H   UNL d   1      47.773  23.967  17.594 +0.03 +0.20    +0.167 HD
DOCKED: ENDBRANCH  32  34
DOCKED: ENDBRANCH  31  32
DOCKED: ENDBRANCH  30  31
DOCKED: ENDBRANCH   6  30
DOCKED: BRANCH  29  36
DOCKED: ATOM     36  C   UNL d   1      46.180  26.679  17.357 -0.06 +0.10    +0.190 C 
DOCKED: BRANCH  36  37
DOCKED: ATOM     37  O   UNL d   1      47.205  25.903  16.806 -0.16 -0.29    -0.399 OA
DOCKED: ATOM     38  H   UNL d   1      47.574  25.383  17.575 +0.06 +0.16    +0.209 HD
DOCKED: ENDBRANCH  36  37
DOCKED: ENDBRANCH  29  36
DOCKED: BRANCH  22  39
DOCKED: ATOM     39  C   UNL d   1      49.085  26.693  22.608 -0.02 +0.03    +0.052 C 
DOCKED: BRANCH  39  40
DOCKED: ATOM     40  C   UNL d   1      48.547  25.917  23.821 -0.03 +0.07    +0.115 C 
DOCKED: BRANCH  40  41
DOCKED: ATOM     41  C   UNL d   1      47.232  26.437  24.363 +0.04 +0.17    +0.139 C 
DOCKED: ATOM     42  O   UNL d   1      46.184  26.002  23.907 +0.02 -0.84    -0.650 OA
DOCKED: BRANCH  41  43
DOCKED: ATOM     43  O   UNL d   1      47.183  27.305  25.397 -0.44 -1.25    -0.776 OA
DOCKED: ATOM     44  H   UNL d   1      47.728  27.202  26.188 +0.01 +0.15    +0.167 HD
DOCKED: ENDBRANCH  41  43
DOCKED: ENDBRANCH  40  41
DOCKED: ENDBRANCH  39  40
DOCKED: ENDBRANCH  22  39
DOCKED: BRANCH  12  45
DOCKED: ATOM     45  C   UNL d   1      40.515  26.604  15.352 -0.49 +0.00    +0.004 C 
DOCKED: ATOM     46  C   UNL d   1      39.872  26.192  14.263 -0.54 +0.00    +0.012 C 
DOCKED: ENDBRANCH  12  45
DOCKED: BRANCH  17  47
DOCKED: ATOM     47  C   UNL d   1      44.928  32.126  18.684 -0.30 +0.00    +0.004 C 
DOCKED: ATOM     48  C   UNL d   1      44.166  33.140  19.100 -0.39 +0.00    +0.012 C 
DOCKED: ENDBRANCH  17  47
DOCKED: TORSDOF 12
DOCKED: TER
DOCKED: ENDMDL
________________________________________________________________________________


	BEGINNING GENETIC ALGORITHM DOCKING 96 of 100
Run: 96 Seed: 952402448 1245702123 [ Run 96 of 100 GA/GALS ]
Beginning LAMARCKIAN GENETIC ALGORITHM (LGA), with a maximum of 25000000 energy evaluations.

Final-Value: -11.551


	FINAL GENETIC ALGORITHM DOCKED STATE
	_______________________________________________


Detailed state:  trans 24.949 45.666 -2.432 quatxyzw -0.433766 -0.889637 -0.021623 -0.141157 center 8.781 34.984 -0.736 ntor 12 -164.0429 115.0318 -77.9431 17.7600 85.3032 134.3932 30.4200 -2.3139 -173.8373 -13.2114 -174.2293 -177.2764
State:	 24.949  45.666  -2.432  -0.438 -0.899 -0.022 -163.770   -164.04  115.03  -77.94   17.76   85.30  134.39   30.42   -2.31 -173.84  -13.21 -174.23 -177.28

DOCKED: MODEL       96
DOCKED: USER    Run = 96
DOCKED: USER    DPF = D:/Protein_go_brrr/autodock/final/2DN3/heme_Co/dock.dpf
DOCKED: USER  
DOCKED: USER    Estimated Free Energy of Binding    =   -5.88 kcal/mol  [=(1)+(2)+(3)-(4)]
DOCKED: USER    Estimated Inhibition Constant, Ki   =   48.91 uM (micromolar)  [Temperature = 298.15 K]
DOCKED: USER    
DOCKED: USER    (1) Final Intermolecular Energy     =   -9.46 kcal/mol
DOCKED: USER        vdW + Hbond + desolv Energy     =   -7.78 kcal/mol
DOCKED: USER        Electrostatic Energy            =   -1.68 kcal/mol
DOCKED: USER    (2) Final Total Internal Energy     =   -2.09 kcal/mol
DOCKED: USER    (3) Torsional Free Energy           =   +3.58 kcal/mol
DOCKED: USER    (4) Unbound System's Energy  [=(2)] =   -2.09 kcal/mol
DOCKED: USER    
DOCKED: USER    
DOCKED: USER    NEWDPF move heme_Co_opt.pdbqt
DOCKED: USER    NEWDPF about 8.781000 34.984000 -0.736000
DOCKED: USER    NEWDPF tran0 24.949156 45.666331 -2.431894
DOCKED: USER    NEWDPF quaternion0 -0.433766 -0.889637 -0.021623 -0.141157
DOCKED: USER    NEWDPF axisangle0 -0.438153 -0.898635 -0.021841 -163.770444
DOCKED: USER    NEWDPF quat0 -0.438153 -0.898635 -0.021841 -163.770444
DOCKED: USER    NEWDPF dihe0 -164.04 115.03 -77.94 17.76 85.30 134.39 30.42 -2.31 -173.84 -13.21 -174.23 -177.28 
DOCKED: USER  keepresnum = 1 
DOCKED: USER  
DOCKED: REMARK  12 active torsions:
DOCKED: REMARK  status: ('A' for Active; 'I' for Inactive)
DOCKED: REMARK    1  A    between atoms: C_6  and  C_10 
DOCKED: REMARK    2  A    between atoms: C_10  and  C_11 
DOCKED: REMARK    3  A    between atoms: C_11  and  C_12 
DOCKED: REMARK    4  A    between atoms: C_12  and  O_14 
DOCKED: REMARK    5  A    between atoms: C_17  and  C_20 
DOCKED: REMARK    6  A    between atoms: C_24  and  C_27 
DOCKED: REMARK    7  A    between atoms: C_31  and  C_34 
DOCKED: REMARK    8  A    between atoms: C_34  and  C_35 
DOCKED: REMARK    9  A    between atoms: C_35  and  C_36 
DOCKED: REMARK   10  A    between atoms: C_36  and  O_38 
DOCKED: REMARK   11  A    between atoms: FE_43  and  C_44 
DOCKED: REMARK   12  A    between atoms: C_44  and  O_45 
DOCKED: USER                              x       y       z     vdW  Elec       q    Type
DOCKED: USER                           _______ _______ _______ _____ _____    ______ ____
DOCKED: ROOT
DOCKED: ATOM      1  C   UNL d   1      26.665  44.359  -2.181 -0.17 +0.02    +0.064 A 
DOCKED: ATOM      2  C   UNL d   1      22.992  44.267  -5.200 -0.19 +0.01    +0.064 C 
DOCKED: ATOM      3  C   UNL d   1      21.010  47.994  -2.962 -0.23 -0.01    +0.064 A 
DOCKED: ATOM      4  C   UNL d   1      24.934  48.351  -0.109 -0.09 +0.01    +0.064 A 
DOCKED: ATOM      5  C   UNL d   1      25.789  44.037  -3.147 -0.25 +0.01    +0.066 A 
DOCKED: ATOM      6  C   UNL d   1      26.051  43.018  -4.084 -0.21 -0.00    -0.021 A 
DOCKED: ATOM      7  C   UNL d   1      24.992  43.011  -4.971 -0.20 -0.00    -0.025 A 
DOCKED: ATOM      8  C   UNL d   1      24.123  44.014  -4.529 -0.23 +0.01    +0.066 A 
DOCKED: ATOM      9  C   UNL d   1      24.793  42.101  -6.193 -0.15 +0.01    +0.051 C 
DOCKED: ATOM     10  C   UNL d   1      22.026  45.261  -4.806 -0.28 +0.00    +0.066 A 
DOCKED: ATOM     11  C   UNL d   1      20.756  45.480  -5.385 -0.34 +0.00    -0.021 A 
DOCKED: ATOM     12  C   UNL d   1      20.198  46.569  -4.710 -0.32 -0.00    +0.000 A 
DOCKED: ATOM     13  C   UNL d   1      21.160  46.926  -3.765 -0.28 -0.01    +0.070 A 
DOCKED: ATOM     14  C   UNL d   1      20.101  44.631  -6.444 -0.39 +0.00    +0.052 C 
DOCKED: ATOM     15  C   UNL d   1      21.920  48.534  -1.971 -0.20 -0.00    +0.066 A 
DOCKED: ATOM     16  C   UNL d   1      21.767  49.726  -1.276 -0.16 +0.00    -0.021 A 
DOCKED: ATOM     17  C   UNL d   1      22.898  49.834  -0.454 -0.11 +0.00    +0.000 A 
DOCKED: ATOM     18  C   UNL d   1      23.645  48.688  -0.700 -0.11 +0.01    +0.070 A 
DOCKED: ATOM     19  C   UNL d   1      20.601  50.679  -1.415 -0.25 -0.01    +0.052 C 
DOCKED: ATOM     20  C   UNL d   1      25.720  47.285  -0.396 -0.01 +0.02    +0.066 A 
DOCKED: ATOM     21  C   UNL d   1      26.957  47.088   0.213 -0.12 -0.01    -0.025 A 
DOCKED: ATOM     22  C   UNL d   1      27.466  45.929  -0.343 -0.13 -0.01    -0.021 A 
DOCKED: ATOM     23  C   UNL d   1      26.512  45.480  -1.281 -0.12 +0.02    +0.066 A 
DOCKED: ATOM     24  C   UNL d   1      27.631  47.970   1.260 -0.12 +0.02    +0.051 C 
DOCKED: ATOM     25  N   UNL d   1      24.589  44.663  -3.398 -0.21 -0.04    -0.248 N 
DOCKED: ATOM     26  N   UNL d   1      22.240  46.100  -3.787 -0.20 +0.00    -0.248 N 
DOCKED: ATOM     27  N   UNL d   1      23.048  47.952  -1.631 -0.09 -0.02    -0.248 N 
DOCKED: ATOM     28  N   UNL d   1      25.455  46.299  -1.318 +0.07 -0.07    -0.248 N 
DOCKED: ATOM     29 FE   UNL d   1      23.775  46.404  -2.459 -0.06 +0.00    +0.000 Fe
DOCKED: ENDROOT
DOCKED: BRANCH   6  30
DOCKED: ATOM     30  C   UNL d   1      27.304  42.152  -4.159 -0.14 +0.01    +0.052 C 
DOCKED: BRANCH  30  31
DOCKED: ATOM     31  C   UNL d   1      28.355  42.805  -5.056 -0.03 +0.02    +0.115 C 
DOCKED: BRANCH  31  32
DOCKED: ATOM     32  C   UNL d   1      27.927  44.172  -5.546 -0.02 +0.02    +0.139 C 
DOCKED: ATOM     33  O   UNL d   1      27.458  44.288  -6.668 +0.01 -0.07    -0.650 OA
DOCKED: BRANCH  32  34
DOCKED: ATOM     34  O   UNL d   1      28.002  45.271  -4.760 +0.03 -0.12    -0.776 OA
DOCKED: ATOM     35  H   UNL d   1      27.592  46.121  -4.973 +0.01 +0.02    +0.167 HD
DOCKED: ENDBRANCH  32  34
DOCKED: ENDBRANCH  31  32
DOCKED: ENDBRANCH  30  31
DOCKED: ENDBRANCH   6  30
DOCKED: BRANCH  29  36
DOCKED: ATOM     36  C   UNL d   1      24.800  47.524  -3.905 -0.05 +0.02    +0.190 C 
DOCKED: BRANCH  36  37
DOCKED: ATOM     37  O   UNL d   1      25.860  47.465  -4.816 -0.00 -0.04    -0.399 OA
DOCKED: ATOM     38  H   UNL d   1      26.219  46.538  -4.731 +0.02 +0.02    +0.209 HD
DOCKED: ENDBRANCH  36  37
DOCKED: ENDBRANCH  29  36
DOCKED: BRANCH  22  39
DOCKED: ATOM     39  C   UNL d   1      28.824  45.327  -0.034 -0.12 +0.02    +0.052 C 
DOCKED: BRANCH  39  40
DOCKED: ATOM     40  C   UNL d   1      29.941  46.122  -0.731 -0.08 +0.05    +0.115 C 
DOCKED: BRANCH  40  41
DOCKED: ATOM     41  C   UNL d   1      31.322  45.900  -0.149 -0.12 +0.14    +0.139 C 
DOCKED: ATOM     42  O   UNL d   1      32.269  45.733  -0.905 -0.40 -0.84    -0.650 OA
DOCKED: BRANCH  41  43
DOCKED: ATOM     43  O   UNL d   1      31.552  45.969   1.181 -0.37 -0.98    -0.776 OA
DOCKED: ATOM     44  H   UNL d   1      31.540  46.803   1.667 -0.52 +0.09    +0.167 HD
DOCKED: ENDBRANCH  41  43
DOCKED: ENDBRANCH  40  41
DOCKED: ENDBRANCH  39  40
DOCKED: ENDBRANCH  22  39
DOCKED: BRANCH  12  45
DOCKED: ATOM     45  C   UNL d   1      18.867  47.298  -4.837 -0.28 -0.00    +0.004 C 
DOCKED: ATOM     46  C   UNL d   1      17.776  46.994  -5.535 -0.33 -0.00    +0.012 C 
DOCKED: ENDBRANCH  12  45
DOCKED: BRANCH  17  47
DOCKED: ATOM     47  C   UNL d   1      23.306  50.938   0.467 -0.09 +0.00    +0.004 C 
DOCKED: ATOM     48  C   UNL d   1      22.604  51.296   1.544 -0.17 -0.00    +0.012 C 
DOCKED: ENDBRANCH  17  47
DOCKED: TORSDOF 12
DOCKED: TER
DOCKED: ENDMDL
________________________________________________________________________________


	BEGINNING GENETIC ALGORITHM DOCKING 97 of 100
Run: 97 Seed: 1941760955 1998181356 [ Run 97 of 100 GA/GALS ]
Beginning LAMARCKIAN GENETIC ALGORITHM (LGA), with a maximum of 25000000 energy evaluations.

Final-Value: -9.759


	FINAL GENETIC ALGORITHM DOCKED STATE
	_______________________________________________


Detailed state:  trans 40.446 29.088 -1.058 quatxyzw -0.584205 -0.534533 0.333948 -0.511329 center 8.781 34.984 -0.736 ntor 12 -11.2857 117.3086 129.5515 55.7204 54.7887 134.4838 -156.7223 -81.5787 -150.2335 -74.6814 -11.3665 4.6217
State:	 40.446  29.088  -1.058  -0.680 -0.622  0.389 -118.495    -11.29  117.31  129.55   55.72   54.79  134.48 -156.72  -81.58 -150.23  -74.68  -11.37    4.62

DOCKED: MODEL       97
DOCKED: USER    Run = 97
DOCKED: USER    DPF = D:/Protein_go_brrr/autodock/final/2DN3/heme_Co/dock.dpf
DOCKED: USER  
DOCKED: USER    Estimated Free Energy of Binding    =   -4.16 kcal/mol  [=(1)+(2)+(3)-(4)]
DOCKED: USER    Estimated Inhibition Constant, Ki   =  895.62 uM (micromolar)  [Temperature = 298.15 K]
DOCKED: USER    
DOCKED: USER    (1) Final Intermolecular Energy     =   -7.74 kcal/mol
DOCKED: USER        vdW + Hbond + desolv Energy     =   -7.52 kcal/mol
DOCKED: USER        Electrostatic Energy            =   -0.22 kcal/mol
DOCKED: USER    (2) Final Total Internal Energy     =   -2.02 kcal/mol
DOCKED: USER    (3) Torsional Free Energy           =   +3.58 kcal/mol
DOCKED: USER    (4) Unbound System's Energy  [=(2)] =   -2.02 kcal/mol
DOCKED: USER    
DOCKED: USER    
DOCKED: USER    NEWDPF move heme_Co_opt.pdbqt
DOCKED: USER    NEWDPF about 8.781000 34.984000 -0.736000
DOCKED: USER    NEWDPF tran0 40.445798 29.087559 -1.058239
DOCKED: USER    NEWDPF quaternion0 -0.584205 -0.534533 0.333948 -0.511329
DOCKED: USER    NEWDPF axisangle0 -0.679794 -0.621995 0.388589 -118.495181
DOCKED: USER    NEWDPF quat0 -0.679794 -0.621995 0.388589 -118.495181
DOCKED: USER    NEWDPF dihe0 -11.29 117.31 129.55 55.72 54.79 134.48 -156.72 -81.58 -150.23 -74.68 -11.37 4.62 
DOCKED: USER  keepresnum = 1 
DOCKED: USER  
DOCKED: REMARK  12 active torsions:
DOCKED: REMARK  status: ('A' for Active; 'I' for Inactive)
DOCKED: REMARK    1  A    between atoms: C_6  and  C_10 
DOCKED: REMARK    2  A    between atoms: C_10  and  C_11 
DOCKED: REMARK    3  A    between atoms: C_11  and  C_12 
DOCKED: REMARK    4  A    between atoms: C_12  and  O_14 
DOCKED: REMARK    5  A    between atoms: C_17  and  C_20 
DOCKED: REMARK    6  A    between atoms: C_24  and  C_27 
DOCKED: REMARK    7  A    between atoms: C_31  and  C_34 
DOCKED: REMARK    8  A    between atoms: C_34  and  C_35 
DOCKED: REMARK    9  A    between atoms: C_35  and  C_36 
DOCKED: REMARK   10  A    between atoms: C_36  and  O_38 
DOCKED: REMARK   11  A    between atoms: FE_43  and  C_44 
DOCKED: REMARK   12  A    between atoms: C_44  and  O_45 
DOCKED: USER                              x       y       z     vdW  Elec       q    Type
DOCKED: USER                           _______ _______ _______ _____ _____    ______ ____
DOCKED: ROOT
DOCKED: ATOM      1  C   UNL d   1      40.986  27.061  -1.621 -0.16 +0.01    +0.064 A 
DOCKED: ATOM      2  C   UNL d   1      36.992  28.924   0.166 -0.12 +0.01    +0.064 C 
DOCKED: ATOM      3  C   UNL d   1      39.126  33.177   0.600 -0.24 +0.01    +0.064 A 
DOCKED: ATOM      4  C   UNL d   1      43.093  31.394  -1.580 -0.24 +0.00    +0.064 A 
DOCKED: ATOM      5  C   UNL d   1      39.749  27.249  -1.131 -0.17 +0.01    +0.066 A 
DOCKED: ATOM      6  C   UNL d   1      38.775  26.231  -1.151 -0.14 -0.00    -0.021 A 
DOCKED: ATOM      7  C   UNL d   1      37.612  26.784  -0.652 -0.09 -0.00    -0.025 A 
DOCKED: ATOM      8  C   UNL d   1      37.930  28.109  -0.335 -0.15 +0.01    +0.066 A 
DOCKED: ATOM      9  C   UNL d   1      36.245  26.104  -0.476 -0.12 -0.00    +0.051 C 
DOCKED: ATOM     10  C   UNL d   1      37.233  30.294   0.546 -0.21 +0.01    +0.066 A 
DOCKED: ATOM     11  C   UNL d   1      36.331  31.157   1.206 -0.23 -0.00    -0.021 A 
DOCKED: ATOM     12  C   UNL d   1      36.981  32.389   1.323 -0.22 +0.00    +0.000 A 
DOCKED: ATOM     13  C   UNL d   1      38.231  32.183   0.740 -0.22 +0.01    +0.070 A 
DOCKED: ATOM     14  C   UNL d   1      34.982  30.781   1.763 -0.26 +0.01    +0.052 C 
DOCKED: ATOM     15  C   UNL d   1      40.436  33.154  -0.021 -0.26 +0.01    +0.066 A 
DOCKED: ATOM     16  C   UNL d   1      41.252  34.251  -0.263 -0.24 -0.00    -0.021 A 
DOCKED: ATOM     17  C   UNL d   1      42.396  33.742  -0.893 -0.21 +0.00    +0.000 A 
DOCKED: ATOM     18  C   UNL d   1      42.195  32.368  -0.972 -0.23 +0.00    +0.070 A 
DOCKED: ATOM     19  C   UNL d   1      40.926  35.683   0.099 -0.27 +0.01    +0.052 C 
DOCKED: ATOM     20  C   UNL d   1      42.881  30.067  -1.745 -0.25 +0.00    +0.066 A 
DOCKED: ATOM     21  C   UNL d   1      43.805  29.239  -2.378 -0.23 -0.00    -0.025 A 
DOCKED: ATOM     22  C   UNL d   1      43.237  27.978  -2.379 -0.22 -0.00    -0.021 A 
DOCKED: ATOM     23  C   UNL d   1      41.979  28.103  -1.752 -0.19 +0.01    +0.066 A 
DOCKED: ATOM     24  C   UNL d   1      45.155  29.633  -2.972 -0.18 -0.00    +0.051 C 
DOCKED: ATOM     25  N   UNL d   1      39.249  28.423  -0.616 -0.14 -0.03    -0.248 N 
DOCKED: ATOM     26  N   UNL d   1      38.403  30.901   0.322 -0.18 -0.02    -0.248 N 
DOCKED: ATOM     27  N   UNL d   1      41.005  32.057  -0.470 -0.17 -0.00    -0.248 N 
DOCKED: ATOM     28  N   UNL d   1      41.758  29.366  -1.369 -0.15 -0.02    -0.248 N 
DOCKED: ATOM     29 FE   UNL d   1      40.182  30.346  -0.539 -0.05 +0.00    +0.000 Fe
DOCKED: ENDROOT
DOCKED: BRANCH   6  30
DOCKED: ATOM     30  C   UNL d   1      38.945  24.820  -1.703 -0.07 +0.00    +0.052 C 
DOCKED: BRANCH  30  31
DOCKED: ATOM     31  C   UNL d   1      39.824  23.982  -0.775 -0.09 +0.01    +0.115 C 
DOCKED: BRANCH  31  32
DOCKED: ATOM     32  C   UNL d   1      39.745  24.441   0.665 -0.24 +0.01    +0.139 C 
DOCKED: ATOM     33  O   UNL d   1      38.741  24.198   1.319 +0.01 +0.04    -0.650 OA
DOCKED: BRANCH  32  34
DOCKED: ATOM     34  O   UNL d   1      40.774  25.075   1.274 +0.02 -0.11    -0.776 OA
DOCKED: ATOM     35  H   UNL d   1      41.679  25.092   0.934 +0.06 +0.04    +0.167 HD
DOCKED: ENDBRANCH  32  34
DOCKED: ENDBRANCH  31  32
DOCKED: ENDBRANCH  30  31
DOCKED: ENDBRANCH   6  30
DOCKED: BRANCH  29  36
DOCKED: ATOM     36  C   UNL d   1      39.367  30.692  -2.440 -0.03 +0.02    +0.190 C 
DOCKED: BRANCH  36  37
DOCKED: ATOM     37  O   UNL d   1      38.846  30.042  -3.563 +0.00 -0.03    -0.399 OA
DOCKED: ATOM     38  H   UNL d   1      38.832  29.075  -3.317 +0.02 +0.02    +0.209 HD
DOCKED: ENDBRANCH  36  37
DOCKED: ENDBRANCH  29  36
DOCKED: BRANCH  22  39
DOCKED: ATOM     39  C   UNL d   1      43.846  26.739  -3.008 -0.22 +0.01    +0.052 C 
DOCKED: BRANCH  39  40
DOCKED: ATOM     40  C   UNL d   1      44.388  25.791  -1.925 -0.13 +0.02    +0.115 C 
DOCKED: BRANCH  40  41
DOCKED: ATOM     41  C   UNL d   1      43.470  24.633  -1.593 -0.22 +0.03    +0.139 C 
DOCKED: ATOM     42  O   UNL d   1      43.112  23.878  -2.486 +0.00 -0.09    -0.650 OA
DOCKED: BRANCH  41  43
DOCKED: ATOM     43  O   UNL d   1      43.104  24.359  -0.321 +0.01 -0.21    -0.776 OA
DOCKED: ATOM     44  H   UNL d   1      42.195  24.142  -0.078 +0.05 +0.04    +0.167 HD
DOCKED: ENDBRANCH  41  43
DOCKED: ENDBRANCH  40  41
DOCKED: ENDBRANCH  39  40
DOCKED: ENDBRANCH  22  39
DOCKED: BRANCH  12  45
DOCKED: ATOM     45  C   UNL d   1      36.573  33.724   1.932 -0.36 -0.00    +0.004 C 
DOCKED: ATOM     46  C   UNL d   1      36.017  34.005   3.108 -0.45 -0.00    +0.012 C 
DOCKED: ENDBRANCH  12  45
DOCKED: BRANCH  17  47
DOCKED: ATOM     47  C   UNL d   1      43.584  34.463  -1.441 -0.18 +0.00    +0.004 C 
DOCKED: ATOM     48  C   UNL d   1      44.076  35.584  -0.908 -0.17 +0.00    +0.012 C 
DOCKED: ENDBRANCH  17  47
DOCKED: TORSDOF 12
DOCKED: TER
DOCKED: ENDMDL
________________________________________________________________________________


	BEGINNING GENETIC ALGORITHM DOCKING 98 of 100
Run: 98 Seed: 2063884264 1554800201 [ Run 98 of 100 GA/GALS ]
Beginning LAMARCKIAN GENETIC ALGORITHM (LGA), with a maximum of 25000000 energy evaluations.

Final-Value: -12.165


	FINAL GENETIC ALGORITHM DOCKED STATE
	_______________________________________________


Detailed state:  trans 28.174 40.761 -1.098 quatxyzw 0.146732 0.736912 -0.463018 -0.470154 center 8.781 34.984 -0.736 ntor 12 138.5099 105.0507 100.7442 106.2778 133.5292 128.3167 -161.8913 30.7854 -60.6628 64.3254 -179.4334 -173.0732
State:	 28.174  40.761  -1.098   0.166  0.835 -0.525 -123.911    138.51  105.05  100.74  106.28  133.53  128.32 -161.89   30.79  -60.66   64.33 -179.43 -173.07

DOCKED: MODEL       98
DOCKED: USER    Run = 98
DOCKED: USER    DPF = D:/Protein_go_brrr/autodock/final/2DN3/heme_Co/dock.dpf
DOCKED: USER  
DOCKED: USER    Estimated Free Energy of Binding    =   -5.97 kcal/mol  [=(1)+(2)+(3)-(4)]
DOCKED: USER    Estimated Inhibition Constant, Ki   =   41.78 uM (micromolar)  [Temperature = 298.15 K]
DOCKED: USER    
DOCKED: USER    (1) Final Intermolecular Energy     =   -9.55 kcal/mol
DOCKED: USER        vdW + Hbond + desolv Energy     =   -6.49 kcal/mol
DOCKED: USER        Electrostatic Energy            =   -3.06 kcal/mol
DOCKED: USER    (2) Final Total Internal Energy     =   -2.61 kcal/mol
DOCKED: USER    (3) Torsional Free Energy           =   +3.58 kcal/mol
DOCKED: USER    (4) Unbound System's Energy  [=(2)] =   -2.61 kcal/mol
DOCKED: USER    
DOCKED: USER    
DOCKED: USER    NEWDPF move heme_Co_opt.pdbqt
DOCKED: USER    NEWDPF about 8.781000 34.984000 -0.736000
DOCKED: USER    NEWDPF tran0 28.173565 40.761306 -1.098081
DOCKED: USER    NEWDPF quaternion0 0.146732 0.736912 -0.463018 -0.470154
DOCKED: USER    NEWDPF axisangle0 0.166253 0.834948 -0.524616 -123.911394
DOCKED: USER    NEWDPF quat0 0.166253 0.834948 -0.524616 -123.911394
DOCKED: USER    NEWDPF dihe0 138.51 105.05 100.74 106.28 133.53 128.32 -161.89 30.79 -60.66 64.33 -179.43 -173.07 
DOCKED: USER  keepresnum = 1 
DOCKED: USER  
DOCKED: REMARK  12 active torsions:
DOCKED: REMARK  status: ('A' for Active; 'I' for Inactive)
DOCKED: REMARK    1  A    between atoms: C_6  and  C_10 
DOCKED: REMARK    2  A    between atoms: C_10  and  C_11 
DOCKED: REMARK    3  A    between atoms: C_11  and  C_12 
DOCKED: REMARK    4  A    between atoms: C_12  and  O_14 
DOCKED: REMARK    5  A    between atoms: C_17  and  C_20 
DOCKED: REMARK    6  A    between atoms: C_24  and  C_27 
DOCKED: REMARK    7  A    between atoms: C_31  and  C_34 
DOCKED: REMARK    8  A    between atoms: C_34  and  C_35 
DOCKED: REMARK    9  A    between atoms: C_35  and  C_36 
DOCKED: REMARK   10  A    between atoms: C_36  and  O_38 
DOCKED: REMARK   11  A    between atoms: FE_43  and  C_44 
DOCKED: REMARK   12  A    between atoms: C_44  and  O_45 
DOCKED: USER                              x       y       z     vdW  Elec       q    Type
DOCKED: USER                           _______ _______ _______ _____ _____    ______ ____
DOCKED: ROOT
DOCKED: ATOM      1  C   UNL d   1      29.021  42.146   0.344 -0.12 +0.02    +0.064 A 
DOCKED: ATOM      2  C   UNL d   1      28.720  37.401   0.266 -0.14 +0.01    +0.064 C 
DOCKED: ATOM      3  C   UNL d   1      26.124  37.594  -3.740 -0.24 +0.00    +0.064 A 
DOCKED: ATOM      4  C   UNL d   1      26.744  42.416  -3.894 -0.17 +0.01    +0.064 A 
DOCKED: ATOM      5  C   UNL d   1      29.099  40.838   0.637 -0.12 +0.01    +0.066 A 
DOCKED: ATOM      6  C   UNL d   1      29.855  40.359   1.725 -0.12 -0.00    -0.021 A 
DOCKED: ATOM      7  C   UNL d   1      29.782  38.980   1.684 -0.11 -0.00    -0.025 A 
DOCKED: ATOM      8  C   UNL d   1      28.973  38.677   0.584 -0.12 +0.01    +0.066 A 
DOCKED: ATOM      9  C   UNL d   1      30.445  37.973   2.637 -0.10 +0.00    +0.051 C 
DOCKED: ATOM     10  C   UNL d   1      27.879  36.994  -0.831 -0.12 +0.01    +0.066 A 
DOCKED: ATOM     11  C   UNL d   1      27.462  35.679  -1.132 -0.16 -0.00    -0.021 A 
DOCKED: ATOM     12  C   UNL d   1      26.703  35.765  -2.302 -0.19 +0.00    +0.000 A 
DOCKED: ATOM     13  C   UNL d   1      26.702  37.123  -2.621 -0.20 +0.01    +0.070 A 
DOCKED: ATOM     14  C   UNL d   1      27.703  34.452  -0.290 -0.17 +0.02    +0.052 C 
DOCKED: ATOM     15  C   UNL d   1      26.074  38.951  -4.249 -0.21 +0.01    +0.066 A 
DOCKED: ATOM     16  C   UNL d   1      25.586  39.349  -5.485 -0.20 -0.00    -0.021 A 
DOCKED: ATOM     17  C   UNL d   1      25.765  40.738  -5.535 -0.18 +0.00    +0.000 A 
DOCKED: ATOM     18  C   UNL d   1      26.335  41.082  -4.314 -0.19 +0.01    +0.070 A 
DOCKED: ATOM     19  C   UNL d   1      24.993  38.430  -6.531 -0.15 +0.01    +0.052 C 
DOCKED: ATOM     20  C   UNL d   1      27.378  42.762  -2.749 -0.15 +0.01    +0.066 A 
DOCKED: ATOM     21  C   UNL d   1      27.753  44.075  -2.473 -0.09 -0.01    -0.025 A 
DOCKED: ATOM     22  C   UNL d   1      28.386  44.032  -1.244 -0.09 -0.01    -0.021 A 
DOCKED: ATOM     23  C   UNL d   1      28.377  42.682  -0.833 -0.12 +0.02    +0.066 A 
DOCKED: ATOM     24  C   UNL d   1      27.537  45.308  -3.347 -0.06 +0.01    +0.051 C 
DOCKED: ATOM     25  N   UNL d   1      28.531  39.809  -0.080 -0.07 -0.04    -0.248 N 
DOCKED: ATOM     26  N   UNL d   1      27.367  37.872  -1.701 -0.02 -0.03    -0.248 N 
DOCKED: ATOM     27  N   UNL d   1      26.533  39.989  -3.586 -0.05 -0.04    -0.248 N 
DOCKED: ATOM     28  N   UNL d   1      27.770  41.910  -1.742 -0.10 -0.05    -0.248 N 
DOCKED: ATOM     29 FE   UNL d   1      27.473  39.908  -1.937 -0.06 +0.00    +0.000 Fe
DOCKED: ENDROOT
DOCKED: BRANCH   6  30
DOCKED: ATOM     30  C   UNL d   1      30.672  41.196   2.703 -0.24 +0.01    +0.052 C 
DOCKED: BRANCH  30  31
DOCKED: ATOM     31  C   UNL d   1      32.134  41.261   2.263 -0.18 +0.05    +0.115 C 
DOCKED: BRANCH  31  32
DOCKED: ATOM     32  C   UNL d   1      32.578  42.672   1.943 -0.17 +0.14    +0.139 C 
DOCKED: ATOM     33  O   UNL d   1      32.676  43.491   2.844 -0.45 -0.84    -0.650 OA
DOCKED: BRANCH  32  34
DOCKED: ATOM     34  O   UNL d   1      32.919  43.050   0.689 +0.16 -1.15    -0.776 OA
DOCKED: ATOM     35  H   UNL d   1      32.619  43.866   0.266 +0.03 +0.32    +0.167 HD
DOCKED: ENDBRANCH  32  34
DOCKED: ENDBRANCH  31  32
DOCKED: ENDBRANCH  30  31
DOCKED: ENDBRANCH   6  30
DOCKED: BRANCH  29  36
DOCKED: ATOM     36  C   UNL d   1      29.333  39.700  -2.880 -0.06 +0.03    +0.190 C 
DOCKED: BRANCH  36  37
DOCKED: ATOM     37  O   UNL d   1      30.702  39.933  -2.708 -0.00 -0.07    -0.399 OA
DOCKED: ATOM     38  H   UNL d   1      30.768  40.466  -1.867 +0.01 +0.05    +0.209 HD
DOCKED: ENDBRANCH  36  37
DOCKED: ENDBRANCH  29  36
DOCKED: BRANCH  22  39
DOCKED: ATOM     39  C   UNL d   1      29.021  45.217  -0.540 -0.09 +0.02    +0.052 C 
DOCKED: BRANCH  39  40
DOCKED: ATOM     40  C   UNL d   1      30.313  45.645  -1.256 -0.06 +0.06    +0.115 C 
DOCKED: BRANCH  40  41
DOCKED: ATOM     41  C   UNL d   1      31.552  45.604  -0.386 -0.13 +0.15    +0.139 C 
DOCKED: ATOM     42  O   UNL d   1      32.652  45.726  -0.906 -0.31 -1.01    -0.650 OA
DOCKED: BRANCH  41  43
DOCKED: ATOM     43  O   UNL d   1      31.472  45.524   0.961 -0.43 -1.07    -0.776 OA
DOCKED: ATOM     44  H   UNL d   1      31.688  44.717   1.447 +0.03 +0.26    +0.167 HD
DOCKED: ENDBRANCH  41  43
DOCKED: ENDBRANCH  40  41
DOCKED: ENDBRANCH  39  40
DOCKED: ENDBRANCH  22  39
DOCKED: BRANCH  12  45
DOCKED: ATOM     45  C   UNL d   1      25.966  34.729  -3.140 -0.18 -0.00    +0.004 C 
DOCKED: ATOM     46  C   UNL d   1      24.681  34.383  -3.157 -0.31 -0.00    +0.012 C 
DOCKED: ENDBRANCH  12  45
DOCKED: BRANCH  17  47
DOCKED: ATOM     47  C   UNL d   1      25.483  41.697  -6.645 -0.13 +0.00    +0.004 C 
DOCKED: ATOM     48  C   UNL d   1      24.522  42.623  -6.594 -0.16 +0.00    +0.012 C 
DOCKED: ENDBRANCH  17  47
DOCKED: TORSDOF 12
DOCKED: TER
DOCKED: ENDMDL
________________________________________________________________________________


	BEGINNING GENETIC ALGORITHM DOCKING 99 of 100
Run: 99 Seed: 1201772438 640908701 [ Run 99 of 100 GA/GALS ]
Beginning LAMARCKIAN GENETIC ALGORITHM (LGA), with a maximum of 25000000 energy evaluations.

Final-Value: -18.854


	FINAL GENETIC ALGORITHM DOCKED STATE
	_______________________________________________


Detailed state:  trans 41.122 29.219 16.207 quatxyzw 0.332358 -0.430480 -0.839180 -0.001267 center 8.781 34.984 -0.736 ntor 12 145.3635 115.9007 -20.6241 58.4597 -36.7049 -2.3194 -142.0275 35.8695 -43.8886 -46.9761 -140.9211 -40.0491
State:	 41.122  29.219  16.207   0.332 -0.430 -0.839 -179.855    145.36  115.90  -20.62   58.46  -36.70   -2.32 -142.03   35.87  -43.89  -46.98 -140.92  -40.05

DOCKED: MODEL       99
DOCKED: USER    Run = 99
DOCKED: USER    DPF = D:/Protein_go_brrr/autodock/final/2DN3/heme_Co/dock.dpf
DOCKED: USER  
DOCKED: USER    Estimated Free Energy of Binding    =  -13.58 kcal/mol  [=(1)+(2)+(3)-(4)]
DOCKED: USER    Estimated Inhibition Constant, Ki   =  111.81 pM (picomolar)  [Temperature = 298.15 K]
DOCKED: USER    
DOCKED: USER    (1) Final Intermolecular Energy     =  -17.16 kcal/mol
DOCKED: USER        vdW + Hbond + desolv Energy     =  -14.74 kcal/mol
DOCKED: USER        Electrostatic Energy            =   -2.41 kcal/mol
DOCKED: USER    (2) Final Total Internal Energy     =   -1.70 kcal/mol
DOCKED: USER    (3) Torsional Free Energy           =   +3.58 kcal/mol
DOCKED: USER    (4) Unbound System's Energy  [=(2)] =   -1.70 kcal/mol
DOCKED: USER    
DOCKED: USER    
DOCKED: USER    NEWDPF move heme_Co_opt.pdbqt
DOCKED: USER    NEWDPF about 8.781000 34.984000 -0.736000
DOCKED: USER    NEWDPF tran0 41.121852 29.218851 16.206877
DOCKED: USER    NEWDPF quaternion0 0.332358 -0.430480 -0.839180 -0.001267
DOCKED: USER    NEWDPF axisangle0 0.332358 -0.430480 -0.839181 -179.854781
DOCKED: USER    NEWDPF quat0 0.332358 -0.430480 -0.839181 -179.854781
DOCKED: USER    NEWDPF dihe0 145.36 115.90 -20.62 58.46 -36.70 -2.32 -142.03 35.87 -43.89 -46.98 -140.92 -40.05 
DOCKED: USER  keepresnum = 1 
DOCKED: USER  
DOCKED: REMARK  12 active torsions:
DOCKED: REMARK  status: ('A' for Active; 'I' for Inactive)
DOCKED: REMARK    1  A    between atoms: C_6  and  C_10 
DOCKED: REMARK    2  A    between atoms: C_10  and  C_11 
DOCKED: REMARK    3  A    between atoms: C_11  and  C_12 
DOCKED: REMARK    4  A    between atoms: C_12  and  O_14 
DOCKED: REMARK    5  A    between atoms: C_17  and  C_20 
DOCKED: REMARK    6  A    between atoms: C_24  and  C_27 
DOCKED: REMARK    7  A    between atoms: C_31  and  C_34 
DOCKED: REMARK    8  A    between atoms: C_34  and  C_35 
DOCKED: REMARK    9  A    between atoms: C_35  and  C_36 
DOCKED: REMARK   10  A    between atoms: C_36  and  O_38 
DOCKED: REMARK   11  A    between atoms: FE_43  and  C_44 
DOCKED: REMARK   12  A    between atoms: C_44  and  O_45 
DOCKED: USER                              x       y       z     vdW  Elec       q    Type
DOCKED: USER                           _______ _______ _______ _____ _____    ______ ____
DOCKED: ROOT
DOCKED: ATOM      1  C   UNL d   1      42.963  28.849  17.298 -0.27 +0.02    +0.064 A 
DOCKED: ATOM      2  C   UNL d   1      40.650  32.856  16.198 -0.48 +0.01    +0.064 C 
DOCKED: ATOM      3  C   UNL d   1      37.494  30.369  13.613 -0.34 +0.01    +0.064 A 
DOCKED: ATOM      4  C   UNL d   1      39.611  26.227  15.036 -0.36 +0.01    +0.064 A 
DOCKED: ATOM      5  C   UNL d   1      42.584  30.130  17.158 -0.32 +0.02    +0.066 A 
DOCKED: ATOM      6  C   UNL d   1      43.232  31.180  17.838 -0.35 -0.01    -0.021 A 
DOCKED: ATOM      7  C   UNL d   1      42.543  32.337  17.533 -0.40 -0.01    -0.025 A 
DOCKED: ATOM      8  C   UNL d   1      41.514  31.947  16.668 -0.37 +0.01    +0.066 A 
DOCKED: ATOM      9  C   UNL d   1      42.828  33.763  18.030 -0.41 +0.01    +0.051 C 
DOCKED: ATOM     10  C   UNL d   1      39.577  32.552  15.284 -0.39 +0.01    +0.066 A 
DOCKED: ATOM     11  C   UNL d   1      38.725  33.480  14.646 -0.41 -0.00    -0.021 A 
DOCKED: ATOM     12  C   UNL d   1      37.817  32.728  13.895 -0.40 +0.00    +0.000 A 
DOCKED: ATOM     13  C   UNL d   1      38.190  31.402  14.120 -0.36 +0.01    +0.070 A 
DOCKED: ATOM     14  C   UNL d   1      38.849  34.981  14.689 -0.53 +0.01    +0.052 C 
DOCKED: ATOM     15  C   UNL d   1      37.705  28.945  13.785 -0.37 +0.01    +0.066 A 
DOCKED: ATOM     16  C   UNL d   1      36.864  27.930  13.353 -0.45 -0.00    -0.021 A 
DOCKED: ATOM     17  C   UNL d   1      37.469  26.734  13.763 -0.45 +0.00    +0.000 A 
DOCKED: ATOM     18  C   UNL d   1      38.645  27.114  14.401 -0.37 +0.01    +0.070 A 
DOCKED: ATOM     19  C   UNL d   1      35.568  28.127  12.598 -0.64 +0.01    +0.052 C 
DOCKED: ATOM     20  C   UNL d   1      40.716  26.578  15.737 -0.38 +0.02    +0.066 A 
DOCKED: ATOM     21  C   UNL d   1      41.550  25.634  16.332 -0.38 -0.01    -0.025 A 
DOCKED: ATOM     22  C   UNL d   1      42.541  26.360  16.967 -0.34 -0.01    -0.021 A 
DOCKED: ATOM     23  C   UNL d   1      42.254  27.722  16.736 -0.32 +0.02    +0.066 A 
DOCKED: ATOM     24  C   UNL d   1      41.399  24.115  16.315 -0.51 +0.01    +0.051 C 
DOCKED: ATOM     25  N   UNL d   1      41.519  30.586  16.414 -0.11 -0.07    -0.248 N 
DOCKED: ATOM     26  N   UNL d   1      39.288  31.300  14.915 -0.22 -0.05    -0.248 N 
DOCKED: ATOM     27  N   UNL d   1      38.737  28.439  14.422 -0.20 -0.06    -0.248 N 
DOCKED: ATOM     28  N   UNL d   1      41.149  27.859  15.993 -0.20 -0.09    -0.248 N 
DOCKED: ATOM     29 FE   UNL d   1      40.048  29.446  15.359 -0.02 +0.00    +0.000 Fe
DOCKED: ENDROOT
DOCKED: BRANCH   6  30
DOCKED: ATOM     30  C   UNL d   1      44.409  31.051  18.799 -0.31 +0.02    +0.052 C 
DOCKED: BRANCH  30  31
DOCKED: ATOM     31  C   UNL d   1      44.064  30.102  19.946 +0.06 +0.07    +0.115 C 
DOCKED: BRANCH  31  32
DOCKED: ATOM     32  C   UNL d   1      45.172  29.111  20.228 -0.19 +0.13    +0.139 C 
DOCKED: ATOM     33  O   UNL d   1      46.061  29.409  21.011 -0.30 -1.01    -0.650 OA
DOCKED: BRANCH  32  34
DOCKED: ATOM     34  O   UNL d   1      45.188  27.875  19.675 +0.06 -0.56    -0.776 OA
DOCKED: ATOM     35  H   UNL d   1      45.987  27.431  19.358 +0.05 +0.11    +0.167 HD
DOCKED: ENDBRANCH  32  34
DOCKED: ENDBRANCH  31  32
DOCKED: ENDBRANCH  30  31
DOCKED: ENDBRANCH   6  30
DOCKED: BRANCH  29  36
DOCKED: ATOM     36  C   UNL d   1      38.948  29.426  17.144 -0.25 +0.05    +0.190 C 
DOCKED: BRANCH  36  37
DOCKED: ATOM     37  O   UNL d   1      37.957  28.721  17.834 -0.23 -0.08    -0.399 OA
DOCKED: ATOM     38  H   UNL d   1      37.742  27.941  17.249 +0.13 +0.04    +0.209 HD
DOCKED: ENDBRANCH  36  37
DOCKED: ENDBRANCH  29  36
DOCKED: BRANCH  22  39
DOCKED: ATOM     39  C   UNL d   1      43.663  25.773  17.803 -0.31 +0.02    +0.052 C 
DOCKED: BRANCH  39  40
DOCKED: ATOM     40  C   UNL d   1      44.546  24.846  16.952 -0.14 +0.07    +0.115 C 
DOCKED: BRANCH  40  41
DOCKED: ATOM     41  C   UNL d   1      46.026  25.162  17.014 -0.26 +0.11    +0.139 C 
DOCKED: ATOM     42  O   UNL d   1      46.821  24.416  16.461 -0.30 -0.93    -0.650 OA
DOCKED: BRANCH  41  43
DOCKED: ATOM     43  O   UNL d   1      46.486  26.295  17.589 +0.04 -0.44    -0.776 OA
DOCKED: ATOM     44  H   UNL d   1      45.910  27.040  17.804 +0.06 +0.08    +0.167 HD
DOCKED: ENDBRANCH  41  43
DOCKED: ENDBRANCH  40  41
DOCKED: ENDBRANCH  39  40
DOCKED: ENDBRANCH  22  39
DOCKED: BRANCH  12  45
DOCKED: ATOM     45  C   UNL d   1      36.660  33.108  12.982 -0.53 +0.00    +0.004 C 
DOCKED: ATOM     46  C   UNL d   1      36.600  33.973  11.973 -0.63 -0.00    +0.012 C 
DOCKED: ENDBRANCH  12  45
DOCKED: BRANCH  17  47
DOCKED: ATOM     47  C   UNL d   1      36.987  25.326  13.631 -0.64 +0.00    +0.004 C 
DOCKED: ATOM     48  C   UNL d   1      35.829  24.893  14.137 -0.69 +0.00    +0.012 C 
DOCKED: ENDBRANCH  17  47
DOCKED: TORSDOF 12
DOCKED: TER
DOCKED: ENDMDL
________________________________________________________________________________


	BEGINNING GENETIC ALGORITHM DOCKING 100 of 100
Run: 100 Seed: 1596084519 990115685 [ Run 100 of 100 GA/GALS ]
Beginning LAMARCKIAN GENETIC ALGORITHM (LGA), with a maximum of 25000000 energy evaluations.

Final-Value: -12.099


	FINAL GENETIC ALGORITHM DOCKED STATE
	_______________________________________________


Detailed state:  trans 28.117 40.305 -0.753 quatxyzw 0.145291 0.673963 -0.500167 -0.523925 center 8.781 34.984 -0.736 ntor 12 -163.5238 98.0862 -115.0790 113.1752 134.4868 128.3868 -59.4068 145.7191 -63.3448 65.1529 -176.6159 -168.0715
State:	 28.117  40.305  -0.753   0.171  0.791 -0.587 -116.808   -163.52   98.09 -115.08  113.18  134.49  128.39  -59.41  145.72  -63.34   65.15 -176.62 -168.07

DOCKED: MODEL      100
DOCKED: USER    Run = 100
DOCKED: USER    DPF = D:/Protein_go_brrr/autodock/final/2DN3/heme_Co/dock.dpf
DOCKED: USER  
DOCKED: USER    Estimated Free Energy of Binding    =   -5.90 kcal/mol  [=(1)+(2)+(3)-(4)]
DOCKED: USER    Estimated Inhibition Constant, Ki   =   47.43 uM (micromolar)  [Temperature = 298.15 K]
DOCKED: USER    
DOCKED: USER    (1) Final Intermolecular Energy     =   -9.48 kcal/mol
DOCKED: USER        vdW + Hbond + desolv Energy     =   -6.80 kcal/mol
DOCKED: USER        Electrostatic Energy            =   -2.68 kcal/mol
DOCKED: USER    (2) Final Total Internal Energy     =   -2.62 kcal/mol
DOCKED: USER    (3) Torsional Free Energy           =   +3.58 kcal/mol
DOCKED: USER    (4) Unbound System's Energy  [=(2)] =   -2.62 kcal/mol
DOCKED: USER    
DOCKED: USER    
DOCKED: USER    NEWDPF move heme_Co_opt.pdbqt
DOCKED: USER    NEWDPF about 8.781000 34.984000 -0.736000
DOCKED: USER    NEWDPF tran0 28.117241 40.304532 -0.753046
DOCKED: USER    NEWDPF quaternion0 0.145291 0.673963 -0.500167 -0.523925
DOCKED: USER    NEWDPF axisangle0 0.170577 0.791255 -0.587213 -116.808130
DOCKED: USER    NEWDPF quat0 0.170577 0.791255 -0.587213 -116.808130
DOCKED: USER    NEWDPF dihe0 -163.52 98.09 -115.08 113.18 134.49 128.39 -59.41 145.72 -63.34 65.15 -176.62 -168.07 
DOCKED: USER  keepresnum = 1 
DOCKED: USER  
DOCKED: REMARK  12 active torsions:
DOCKED: REMARK  status: ('A' for Active; 'I' for Inactive)
DOCKED: REMARK    1  A    between atoms: C_6  and  C_10 
DOCKED: REMARK    2  A    between atoms: C_10  and  C_11 
DOCKED: REMARK    3  A    between atoms: C_11  and  C_12 
DOCKED: REMARK    4  A    between atoms: C_12  and  O_14 
DOCKED: REMARK    5  A    between atoms: C_17  and  C_20 
DOCKED: REMARK    6  A    between atoms: C_24  and  C_27 
DOCKED: REMARK    7  A    between atoms: C_31  and  C_34 
DOCKED: REMARK    8  A    between atoms: C_34  and  C_35 
DOCKED: REMARK    9  A    between atoms: C_35  and  C_36 
DOCKED: REMARK   10  A    between atoms: C_36  and  O_38 
DOCKED: REMARK   11  A    between atoms: FE_43  and  C_44 
DOCKED: REMARK   12  A    between atoms: C_44  and  O_45 
DOCKED: USER                              x       y       z     vdW  Elec       q    Type
DOCKED: USER                           _______ _______ _______ _____ _____    ______ ____
DOCKED: ROOT
DOCKED: ATOM      1  C   UNL d   1      28.791  41.870   0.592 -0.14 +0.02    +0.064 A 
DOCKED: ATOM      2  C   UNL d   1      28.456  37.154   1.093 -0.17 +0.01    +0.064 C 
DOCKED: ATOM      3  C   UNL d   1      26.385  36.807  -3.199 -0.22 +0.00    +0.064 A 
DOCKED: ATOM      4  C   UNL d   1      27.066  41.573  -3.898 -0.16 +0.01    +0.064 A 
DOCKED: ATOM      5  C   UNL d   1      28.818  40.611   1.060 -0.15 +0.01    +0.066 A 
DOCKED: ATOM      6  C   UNL d   1      29.426  40.283   2.287 -0.18 -0.00    -0.021 A 
DOCKED: ATOM      7  C   UNL d   1      29.347  38.910   2.417 -0.17 +0.00    -0.025 A 
DOCKED: ATOM      8  C   UNL d   1      28.679  38.462   1.272 -0.15 +0.00    +0.066 A 
DOCKED: ATOM      9  C   UNL d   1      29.874  38.040   3.567 -0.09 -0.01    +0.051 C 
DOCKED: ATOM     10  C   UNL d   1      27.755  36.602  -0.040 -0.13 +0.01    +0.066 A 
DOCKED: ATOM     11  C   UNL d   1      27.366  35.256  -0.217 -0.18 -0.00    -0.021 A 
DOCKED: ATOM     12  C   UNL d   1      26.761  35.184  -1.475 -0.19 +0.00    +0.000 A 
DOCKED: ATOM     13  C   UNL d   1      26.814  36.490  -1.965 -0.15 +0.01    +0.070 A 
DOCKED: ATOM     14  C   UNL d   1      27.487  34.151   0.800 -0.24 +0.03    +0.052 C 
DOCKED: ATOM     15  C   UNL d   1      26.413  38.086  -3.882 -0.22 +0.01    +0.066 A 
DOCKED: ATOM     16  C   UNL d   1      26.087  38.317  -5.211 -0.18 -0.00    -0.021 A 
DOCKED: ATOM     17  C   UNL d   1      26.285  39.690  -5.418 -0.17 +0.00    +0.000 A 
DOCKED: ATOM     18  C   UNL d   1      26.700  40.193  -4.189 -0.18 +0.01    +0.070 A 
DOCKED: ATOM     19  C   UNL d   1      25.622  37.267  -6.195 -0.11 +0.00    +0.052 C 
DOCKED: ATOM     20  C   UNL d   1      27.555  42.069  -2.736 -0.15 +0.01    +0.066 A 
DOCKED: ATOM     21  C   UNL d   1      27.905  43.409  -2.588 -0.10 -0.01    -0.025 A 
DOCKED: ATOM     22  C   UNL d   1      28.378  43.530  -1.294 -0.10 -0.01    -0.021 A 
DOCKED: ATOM     23  C   UNL d   1      28.304  42.245  -0.716 -0.14 +0.02    +0.066 A 
DOCKED: ATOM     24  C   UNL d   1      27.813  44.517  -3.634 -0.05 +0.01    +0.051 C 
DOCKED: ATOM     25  N   UNL d   1      28.335  39.495   0.416 -0.08 -0.03    -0.248 N 
DOCKED: ATOM     26  N   UNL d   1      27.364  37.356  -1.073 +0.05 -0.03    -0.248 N 
DOCKED: ATOM     27  N   UNL d   1      26.794  39.205  -3.306 -0.09 -0.03    -0.248 N 
DOCKED: ATOM     28  N   UNL d   1      27.809  41.357  -1.586 -0.09 -0.05    -0.248 N 
DOCKED: ATOM     29 FE   UNL d   1      27.519  39.345  -1.556 -0.06 +0.00    +0.000 Fe
DOCKED: ENDROOT
DOCKED: BRANCH   6  30
DOCKED: ATOM     30  C   UNL d   1      30.122  41.246   3.244 -0.31 +0.01    +0.052 C 
DOCKED: BRANCH  30  31
DOCKED: ATOM     31  C   UNL d   1      31.619  41.316   2.941 -0.25 +0.03    +0.115 C 
DOCKED: BRANCH  31  32
DOCKED: ATOM     32  C   UNL d   1      32.045  42.683   2.453 -0.26 +0.11    +0.139 C 
DOCKED: ATOM     33  O   UNL d   1      33.235  42.933   2.330 -0.34 -0.90    -0.650 OA
DOCKED: BRANCH  32  34
DOCKED: ATOM     34  O   UNL d   1      31.147  43.631   2.098 +0.03 -0.65    -0.776 OA
DOCKED: ATOM     35  H   UNL d   1      31.372  44.445   1.626 +0.05 +0.20    +0.167 HD
DOCKED: ENDBRANCH  32  34
DOCKED: ENDBRANCH  31  32
DOCKED: ENDBRANCH  30  31
DOCKED: ENDBRANCH   6  30
DOCKED: BRANCH  29  36
DOCKED: ATOM     36  C   UNL d   1      29.481  39.029  -2.222 -0.06 +0.03    +0.190 C 
DOCKED: BRANCH  36  37
DOCKED: ATOM     37  O   UNL d   1      30.819  39.290  -1.910 -0.00 -0.07    -0.399 OA
DOCKED: ATOM     38  H   UNL d   1      30.786  40.013  -1.223 +0.02 +0.05    +0.209 HD
DOCKED: ENDBRANCH  36  37
DOCKED: ENDBRANCH  29  36
DOCKED: BRANCH  22  39
DOCKED: ATOM     39  C   UNL d   1      28.931  44.800  -0.675 -0.09 +0.02    +0.052 C 
DOCKED: BRANCH  39  40
DOCKED: ATOM     40  C   UNL d   1      30.247  45.209  -1.358 -0.05 +0.05    +0.115 C 
DOCKED: BRANCH  40  41
DOCKED: ATOM     41  C   UNL d   1      31.439  45.280  -0.427 -0.12 +0.14    +0.139 C 
DOCKED: ATOM     42  O   UNL d   1      31.551  46.236   0.329 -0.63 -0.76    -0.650 OA
DOCKED: BRANCH  41  43
DOCKED: ATOM     43  O   UNL d   1      32.337  44.274  -0.344 -0.09 -1.19    -0.776 OA
DOCKED: ATOM     44  H   UNL d   1      32.399  43.695   0.426 +0.03 +0.27    +0.167 HD
DOCKED: ENDBRANCH  41  43
DOCKED: ENDBRANCH  40  41
DOCKED: ENDBRANCH  39  40
DOCKED: ENDBRANCH  22  39
DOCKED: BRANCH  12  45
DOCKED: ATOM     45  C   UNL d   1      26.125  34.043  -2.258 -0.19 +0.00    +0.004 C 
DOCKED: ATOM     46  C   UNL d   1      24.846  33.759  -2.490 -0.31 -0.00    +0.012 C 
DOCKED: ENDBRANCH  12  45
DOCKED: BRANCH  17  47
DOCKED: ATOM     47  C   UNL d   1      26.154  40.494  -6.669 -0.10 +0.00    +0.004 C 
DOCKED: ATOM     48  C   UNL d   1      25.214  41.426  -6.852 -0.13 +0.00    +0.012 C 
DOCKED: ENDBRANCH  17  47
DOCKED: TORSDOF 12
DOCKED: TER
DOCKED: ENDMDL
________________________________________________________________________________

DPF> analysis                             # perform a ranked cluster analysis


		CLUSTER ANALYSIS OF CONFORMATIONS
		_________________________________

Number of conformations = 100

RMSD cluster analysis will be performed using the ligand atoms only (48 / 48 total atoms).

Outputting structurally similar clusters, ranked in order of increasing energy.


________________________________________________________________________________

Number of distinct conformational clusters found = 34,  out of 100 runs,
Using an rmsd-tolerance of 2.0 A


	CLUSTERING HISTOGRAM
	____________________

________________________________________________________________________________
     |           |     |           |     |                                    
Clus | Lowest    | Run | Mean      | Num | Histogram                          
-ter | Binding   |     | Binding   | in  |                                    
Rank | Energy    |     | Energy    | Clus|    5    10   15   20   25   30   35
_____|___________|_____|___________|_____|____:____|____:____|____:____|____:___
   1 |    -14.39 |  62 |    -13.83 |  21 |#####################
   2 |    -12.95 |  43 |    -12.23 |  10 |##########
   3 |     -9.50 |   6 |     -9.50 |   1 |#
   4 |     -8.15 |  10 |     -7.76 |   6 |######
   5 |     -7.49 |  51 |     -7.15 |   6 |######
   6 |     -7.28 |   8 |     -7.28 |   1 |#
   7 |     -6.94 |  37 |     -6.94 |   1 |#
   8 |     -6.93 |  85 |     -5.99 |  11 |###########
   9 |     -6.83 |  36 |     -5.99 |   2 |##
  10 |     -6.81 |  52 |     -5.98 |   5 |#####
  11 |     -6.66 |  61 |     -6.00 |   3 |###
  12 |     -6.63 |  57 |     -6.63 |   1 |#
  13 |     -6.30 |  25 |     -5.32 |   5 |#####
  14 |     -6.24 |  31 |     -5.74 |   4 |####
  15 |     -6.07 |  73 |     -6.07 |   1 |#
  16 |     -6.04 |  48 |     -5.63 |   2 |##
  17 |     -5.79 |  70 |     -5.79 |   1 |#
  18 |     -5.71 |  49 |     -5.61 |   2 |##
  19 |     -5.66 |  78 |     -5.66 |   1 |#
  20 |     -5.40 |   2 |     -5.40 |   1 |#
  21 |     -5.20 |  54 |     -5.20 |   1 |#
  22 |     -5.19 |  26 |     -5.19 |   1 |#
  23 |     -5.00 |  39 |     -4.27 |   2 |##
  24 |     -4.86 |  81 |     -4.86 |   1 |#
  25 |     -4.85 |  66 |     -4.85 |   1 |#
  26 |     -4.48 |  15 |     -4.48 |   1 |#
  27 |     -4.33 |   4 |     -4.33 |   1 |#
  28 |     -4.33 |  47 |     -4.33 |   1 |#
  29 |     -4.28 |  64 |     -4.28 |   1 |#
  30 |     -4.27 |  53 |     -4.27 |   1 |#
  31 |     -4.26 |  89 |     -4.26 |   1 |#
  32 |     -4.16 |  97 |     -4.16 |   1 |#
  33 |     -4.13 |  76 |     -4.13 |   1 |#
  34 |     -3.75 |  16 |     -3.75 |   1 |#
_____|___________|_____|___________|_____|______________________________________


Number of multi-member conformational clusters found = 13, out of 100 runs.

	RMSD TABLE
	__________

_____________________________________________________________________
     |      |      |           |         |                 |
Rank | Sub- | Run  | Binding   | Cluster | Reference       | Grep
     | Rank |      | Energy    | RMSD    | RMSD            | Pattern
_____|______|______|___________|_________|_________________|___________
   1      1     62      -14.39      0.00     32.71           RANKING
   1      2     21      -14.38      0.83     32.63           RANKING
   1      3     83      -14.35      0.52     32.72           RANKING
   1      4     33      -14.28      0.53     32.75           RANKING
   1      5     56      -14.23      0.76     32.67           RANKING
   1      6     19      -14.11      0.96     32.53           RANKING
   1      7     92      -14.03      0.72     32.75           RANKING
   1      8     94      -14.00      1.09     32.58           RANKING
   1      9     11      -13.99      0.72     32.76           RANKING
   1     10     87      -13.99      1.17     32.54           RANKING
   1     11     88      -13.97      1.18     32.53           RANKING
   1     12     50      -13.90      1.06     32.58           RANKING
   1     13     41      -13.80      1.18     32.69           RANKING
   1     14      9      -13.78      1.07     32.66           RANKING
   1     15     63      -13.70      1.29     32.63           RANKING
   1     16     99      -13.58      0.92     32.63           RANKING
   1     17      1      -13.57      1.26     32.54           RANKING
   1     18     40      -13.46      0.98     32.94           RANKING
   1     19     42      -13.13      0.92     32.70           RANKING
   1     20     75      -13.09      1.06     32.73           RANKING
   1     21     68      -12.61      0.91     32.74           RANKING
   2      1     43      -12.95      0.00      1.80           RANKING
   2      2     44      -12.52      0.99      1.21           RANKING
   2      3     20      -12.32      1.06      1.75           RANKING
   2      4     17      -12.31      1.15      1.24           RANKING
   2      5     45      -12.22      1.02      1.75           RANKING
   2      6     79      -12.21      0.92      1.64           RANKING
   2      7     74      -12.16      1.05      1.70           RANKING
   2      8     60      -12.09      1.08      1.01           RANKING
   2      9     71      -12.02      1.45      0.94           RANKING
   2     10     69      -11.51      1.42      0.76           RANKING
   3      1      6       -9.50      0.00     30.64           RANKING
   4      1     10       -8.15      0.00     38.12           RANKING
   4      2     91       -7.95      1.86     38.38           RANKING
   4      3     55       -7.77      1.05     38.61           RANKING
   4      4     72       -7.73      0.76     38.10           RANKING
   4      5     95       -7.54      0.82     38.31           RANKING
   4      6     82       -7.45      0.73     37.95           RANKING
   5      1     51       -7.49      0.00     37.99           RANKING
   5      2      7       -7.41      2.00     37.57           RANKING
   5      3     23       -7.15      0.88     37.82           RANKING
   5      4     24       -7.13      0.99     37.77           RANKING
   5      5     38       -7.05      1.12     37.88           RANKING
   5      6     80       -6.68      1.64     38.36           RANKING
   6      1      8       -7.28      0.00     38.34           RANKING
   7      1     37       -6.94      0.00     19.18           RANKING
   8      1     85       -6.93      0.00     17.04           RANKING
   8      2     28       -6.85      0.59     16.87           RANKING
   8      3     58       -6.55      1.92     16.57           RANKING
   8      4     35       -6.34      0.95     16.56           RANKING
   8      5     32       -6.34      0.71     16.63           RANKING
   8      6     30       -6.18      1.23     16.58           RANKING
   8      7     98       -5.97      1.45     16.40           RANKING
   8      8    100       -5.90      1.83     16.23           RANKING
   8      9     77       -5.59      1.78     16.51           RANKING
   8     10     86       -4.75      1.40     16.55           RANKING
   8     11     14       -4.47      1.86     17.08           RANKING
   9      1     36       -6.83      0.00      4.87           RANKING
   9      2     93       -5.15      1.29      4.59           RANKING
  10      1     52       -6.81      0.00     16.43           RANKING
  10      2     22       -5.95      1.67     16.27           RANKING
  10      3     29       -5.89      1.54     16.56           RANKING
  10      4     96       -5.88      1.79     16.17           RANKING
  10      5     12       -5.35      1.47     16.70           RANKING
  11      1     61       -6.66      0.00     24.26           RANKING
  11      2     90       -6.51      0.71     24.08           RANKING
  11      3     27       -4.84      1.39     24.44           RANKING
  12      1     57       -6.63      0.00     24.06           RANKING
  13      1     25       -6.30      0.00     30.08           RANKING
  13      2     18       -5.76      1.05     29.88           RANKING
  13      3     46       -4.91      1.10     29.84           RANKING
  13      4     34       -4.90      0.87     30.03           RANKING
  13      5      3       -4.71      1.56     29.99           RANKING
  14      1     31       -6.24      0.00     16.60           RANKING
  14      2     65       -5.89      1.32     16.03           RANKING
  14      3      5       -5.86      0.97     16.98           RANKING
  14      4     67       -4.99      1.84     16.57           RANKING
  15      1     73       -6.07      0.00      3.43           RANKING
  16      1     48       -6.04      0.00     38.54           RANKING
  16      2     59       -5.23      0.89     38.59           RANKING
  17      1     70       -5.79      0.00     16.14           RANKING
  18      1     49       -5.71      0.00     16.23           RANKING
  18      2     13       -5.51      1.55     15.64           RANKING
  19      1     78       -5.66      0.00     14.18           RANKING
  20      1      2       -5.40      0.00     34.50           RANKING
  21      1     54       -5.20      0.00     13.83           RANKING
  22      1     26       -5.19      0.00     30.28           RANKING
  23      1     39       -5.00      0.00     26.95           RANKING
  23      2     84       -3.54      0.98     27.28           RANKING
  24      1     81       -4.86      0.00     13.44           RANKING
  25      1     66       -4.85      0.00     39.33           RANKING
  26      1     15       -4.48      0.00     24.09           RANKING
  27      1      4       -4.33      0.00     23.23           RANKING
  28      1     47       -4.33      0.00     15.53           RANKING
  29      1     64       -4.28      0.00     26.13           RANKING
  30      1     53       -4.27      0.00     38.00           RANKING
  31      1     89       -4.26      0.00     19.45           RANKING
  32      1     97       -4.16      0.00     27.85           RANKING
  33      1     76       -4.13      0.00     22.57           RANKING
  34      1     16       -3.75      0.00     19.76           RANKING
_______________________________________________________________________



	INFORMATION ENTROPY ANALYSIS FOR THIS CLUSTERING
	________________________________________________


Information entropy for this clustering = 0.64  (rmstol = 2.00 Angstrom)

_______________________________________________________________________


	STATISTICAL MECHANICAL ANALYSIS
	_______________________________


Partition function, Q =   101.40            at Temperature, T = 298.15 K
Free energy,        A ~ -2736.69 kcal/mol   at Temperature, T = 298.15 K
Internal energy,    U =    -8.22 kcal/mol   at Temperature, T = 298.15 K
Entropy,            S =     9.15 kcal/mol/K at Temperature, T = 298.15 K

_______________________________________________________________________


	LOWEST ENERGY DOCKED CONFORMATION from EACH CLUSTER
	___________________________________________________



Keeping original residue number (specified in the input PDBQ file) for outputting.

MODEL       62
USER    Run = 62
USER    Cluster Rank = 1
USER    Number of conformations in this cluster = 21
USER  
USER    RMSD from reference structure       = 32.709 A
USER  
USER    Estimated Free Energy of Binding    =  -14.39 kcal/mol  [=(1)+(2)+(3)-(4)]
USER    Estimated Inhibition Constant, Ki   =   28.15 pM (picomolar)  [Temperature = 298.15 K]
USER    
USER    (1) Final Intermolecular Energy     =  -17.97 kcal/mol
USER        vdW + Hbond + desolv Energy     =  -15.46 kcal/mol
USER        Electrostatic Energy            =   -2.51 kcal/mol
USER    (2) Final Total Internal Energy     =   -0.59 kcal/mol
USER    (3) Torsional Free Energy           =   +3.58 kcal/mol
USER    (4) Unbound System's Energy  [=(2)] =   -0.59 kcal/mol
USER    
USER    
USER  
USER    DPF = D:/Protein_go_brrr/autodock/final/2DN3/heme_Co/dock.dpf
USER    NEWDPF move	heme_Co_opt.pdbqt
USER    NEWDPF about	8.781000 34.984000 -0.736000
USER    NEWDPF tran0	41.000704 29.066109 16.273358
USER    NEWDPF axisangle0	0.364900 -0.406183 -0.837773 174.640929
USER    NEWDPF quaternion0	0.364501 -0.405739 -0.836857 0.046750
USER    NEWDPF dihe0	-64.24 107.09 71.24 -89.15 -42.60 3.07 -99.47 -131.26 32.54 38.64 -35.72 -7.40 
USER  
USER                              x       y       z    vdW   Elec        q     RMS 
ATOM      1  C   UNL d   1      42.713  28.548  17.505 -0.15 +0.02    +0.064    32.709
ATOM      2  C   UNL d   1      40.652  32.711  16.486 -0.48 +0.01    +0.064    32.709
ATOM      3  C   UNL d   1      37.684  30.538  13.436 -0.36 +0.01    +0.064    32.709
ATOM      4  C   UNL d   1      39.514  26.226  14.748 -0.41 +0.01    +0.064    32.709
ATOM      5  C   UNL d   1      42.392  29.850  17.423 -0.27 +0.02    +0.066    32.709
ATOM      6  C   UNL d   1      43.004  30.823  18.237 -0.36 -0.01    -0.021    32.709
ATOM      7  C   UNL d   1      42.387  32.026  17.953 -0.45 -0.01    -0.025    32.709
ATOM      8  C   UNL d   1      41.436  31.738  16.968 -0.40 +0.01    +0.066    32.709
ATOM      9  C   UNL d   1      42.669  33.401  18.578 -0.39 +0.01    +0.051    32.709
ATOM     10  C   UNL d   1      39.665  32.515  15.454 -0.39 +0.01    +0.066    32.709
ATOM     11  C   UNL d   1      38.910  33.517  14.807 -0.42 -0.00    -0.021    32.709
ATOM     12  C   UNL d   1      38.056  32.856  13.920 -0.40 +0.00    +0.000    32.709
ATOM     13  C   UNL d   1      38.360  31.505  14.082 -0.37 +0.01    +0.070    32.709
ATOM     14  C   UNL d   1      39.078  35.006  14.971 -0.55 +0.01    +0.052    32.709
ATOM     15  C   UNL d   1      37.830  29.098  13.524 -0.38 +0.01    +0.066    32.709
ATOM     16  C   UNL d   1      37.002  28.150  12.940 -0.48 -0.00    -0.021    32.709
ATOM     17  C   UNL d   1      37.525  26.905  13.317 -0.46 +0.00    +0.000    32.709
ATOM     18  C   UNL d   1      38.644  27.193  14.091 -0.37 +0.01    +0.070    32.709
ATOM     19  C   UNL d   1      35.794  28.450  12.081 -0.66 +0.01    +0.052    32.709
ATOM     20  C   UNL d   1      40.556  26.483  15.575 -0.38 +0.02    +0.066    32.709
ATOM     21  C   UNL d   1      41.296  25.467  16.176 -0.38 -0.01    -0.025    32.709
ATOM     22  C   UNL d   1      42.244  26.107  16.954 -0.36 -0.01    -0.021    32.709
ATOM     23  C   UNL d   1      42.026  27.492  16.797 -0.31 +0.02    +0.066    32.709
ATOM     24  C   UNL d   1      41.098  23.961  16.033 -0.54 +0.01    +0.051    32.709
ATOM     25  N   UNL d   1      41.421  30.399  16.616 -0.15 -0.08    -0.248    32.709
ATOM     26  N   UNL d   1      39.372  31.304  14.968 -0.22 -0.05    -0.248    32.709
ATOM     27  N   UNL d   1      38.778  28.508  14.217 -0.19 -0.06    -0.248    32.709
ATOM     28  N   UNL d   1      41.004  27.724  15.964 -0.21 -0.09    -0.248    32.709
ATOM     29 FE   UNL d   1      40.023  29.394  15.346 -0.04 +0.00    +0.000    32.709
ATOM     30  C   UNL d   1      44.077  30.581  19.294 -0.31 +0.02    +0.052    32.709
ATOM     31  C   UNL d   1      45.199  29.710  18.730 -0.22 +0.06    +0.115    32.709
ATOM     32  C   UNL d   1      45.850  28.850  19.792 -0.18 +0.11    +0.139    32.709
ATOM     33  O   UNL d   1      46.009  27.656  19.583 +0.03 -0.45    -0.650    32.709
ATOM     34  O   UNL d   1      46.309  29.368  20.954 -0.35 -1.11    -0.776    32.709
ATOM     35  H   UNL d   1      47.071  29.960  21.022 +0.02 +0.19    +0.167    32.709
ATOM     36  C   UNL d   1      38.754  29.294  17.012 -0.33 +0.05    +0.190    32.709
ATOM     37  O   UNL d   1      37.729  28.536  17.588 -0.25 -0.08    -0.399    32.709
ATOM     38  H   UNL d   1      37.506  27.844  16.904 +0.13 +0.04    +0.209    32.709
ATOM     39  C   UNL d   1      43.258  25.419  17.848 -0.35 +0.02    +0.052    32.709
ATOM     40  C   UNL d   1      44.589  25.217  17.105 -0.20 +0.06    +0.115    32.709
ATOM     41  C   UNL d   1      45.340  23.962  17.496 -0.22 +0.11    +0.139    32.709
ATOM     42  O   UNL d   1      44.807  23.156  18.246 -0.01 -0.41    -0.650    32.709
ATOM     43  O   UNL d   1      46.549  23.664  16.971 -0.28 -1.24    -0.776    32.709
ATOM     44  H   UNL d   1      47.363  24.092  17.266 +0.03 +0.22    +0.167    32.709
ATOM     45  C   UNL d   1      37.006  33.345  12.931 -0.52 +0.00    +0.004    32.709
ATOM     46  C   UNL d   1      35.684  33.440  13.047 -0.59 +0.00    +0.012    32.709
ATOM     47  C   UNL d   1      37.011  25.530  13.037 -0.64 +0.00    +0.004    32.709
ATOM     48  C   UNL d   1      35.844  25.072  13.495 -0.71 +0.00    +0.012    32.709
TER
ENDMDL
MODEL       43
USER    Run = 43
USER    Cluster Rank = 2
USER    Number of conformations in this cluster = 10
USER  
USER    RMSD from reference structure       = 1.797 A
USER  
USER    Estimated Free Energy of Binding    =  -12.95 kcal/mol  [=(1)+(2)+(3)-(4)]
USER    Estimated Inhibition Constant, Ki   =  322.66 pM (picomolar)  [Temperature = 298.15 K]
USER    
USER    (1) Final Intermolecular Energy     =  -16.53 kcal/mol
USER        vdW + Hbond + desolv Energy     =  -14.97 kcal/mol
USER        Electrostatic Energy            =   -1.56 kcal/mol
USER    (2) Final Total Internal Energy     =   -0.67 kcal/mol
USER    (3) Torsional Free Energy           =   +3.58 kcal/mol
USER    (4) Unbound System's Energy  [=(2)] =   -0.67 kcal/mol
USER    
USER    
USER  
USER    DPF = D:/Protein_go_brrr/autodock/final/2DN3/heme_Co/dock.dpf
USER    NEWDPF move	heme_Co_opt.pdbqt
USER    NEWDPF about	8.781000 34.984000 -0.736000
USER    NEWDPF tran0	8.946953 35.298395 -0.960108
USER    NEWDPF axisangle0	0.278056 0.927249 0.250787 10.059675
USER    NEWDPF quaternion0	0.024378 0.081296 0.021988 0.996149
USER    NEWDPF dihe0	-55.49 119.37 149.97 139.61 -57.66 -10.71 37.90 -10.89 -21.83 -75.55 160.20 164.16 
USER  
USER                              x       y       z    vdW   Elec        q     RMS 
ATOM      1  C   UNL d   1       7.200  35.829  -2.136 -0.25 +0.01    +0.064     1.797
ATOM      2  C   UNL d   1       7.713  33.319   1.870 -0.45 +0.01    +0.064     1.797
ATOM      3  C   UNL d   1      12.466  33.669   1.525 -0.31 +0.00    +0.064     1.797
ATOM      4  C   UNL d   1      11.958  36.560  -2.354 -0.40 +0.00    +0.064     1.797
ATOM      5  C   UNL d   1       6.992  35.087  -1.036 -0.30 +0.01    +0.066     1.797
ATOM      6  C   UNL d   1       5.698  34.817  -0.550 -0.29 -0.00    -0.021     1.797
ATOM      7  C   UNL d   1       5.853  34.108   0.625 -0.34 -0.00    -0.025     1.797
ATOM      8  C   UNL d   1       7.234  33.961   0.797 -0.34 +0.01    +0.066     1.797
ATOM      9  C   UNL d   1       4.754  33.582   1.561 -0.37 +0.01    +0.051     1.797
ATOM     10  C   UNL d   1       9.116  33.097   2.118 -0.36 +0.01    +0.066     1.797
ATOM     11  C   UNL d   1       9.676  32.312   3.149 -0.45 -0.00    -0.021     1.797
ATOM     12  C   UNL d   1      11.063  32.428   3.022 -0.43 +0.00    +0.000     1.797
ATOM     13  C   UNL d   1      11.246  33.263   1.919 -0.36 +0.00    +0.070     1.797
ATOM     14  C   UNL d   1       8.920  31.441   4.119 -0.57 +0.00    +0.052     1.797
ATOM     15  C   UNL d   1      12.833  34.565   0.447 -0.35 +0.01    +0.066     1.797
ATOM     16  C   UNL d   1      14.102  35.059   0.182 -0.42 -0.00    -0.021     1.797
ATOM     17  C   UNL d   1      13.961  35.895  -0.934 -0.43 +0.00    +0.000     1.797
ATOM     18  C   UNL d   1      12.613  35.832  -1.275 -0.37 +0.01    +0.070     1.797
ATOM     19  C   UNL d   1      15.352  34.732   0.970 -0.59 +0.00    +0.052     1.797
ATOM     20  C   UNL d   1      10.637  36.581  -2.651 -0.39 +0.00    +0.066     1.797
ATOM     21  C   UNL d   1      10.121  37.349  -3.693 -0.42 -0.00    -0.025     1.797
ATOM     22  C   UNL d   1       8.755  37.136  -3.672 -0.33 -0.00    -0.021     1.797
ATOM     23  C   UNL d   1       8.501  36.251  -2.602 -0.35 +0.01    +0.066     1.797
ATOM     24  C   UNL d   1      10.889  38.257  -4.649 -0.42 -0.01    +0.051     1.797
ATOM     25  N   UNL d   1       7.964  34.553  -0.220 -0.11 -0.06    -0.248     1.797
ATOM     26  N   UNL d   1      10.069  33.621   1.340 -0.19 -0.03    -0.248     1.797
ATOM     27  N   UNL d   1      11.967  35.055  -0.413 -0.18 -0.03    -0.248     1.797
ATOM     28  N   UNL d   1       9.638  35.915  -1.980 -0.24 -0.04    -0.248     1.797
ATOM     29 FE   UNL d   1      10.084  34.821  -0.325 -0.07 +0.00    +0.000     1.797
ATOM     30  C   UNL d   1       4.382  35.296  -1.153 -0.24 +0.02    +0.052     1.797
ATOM     31  C   UNL d   1       3.661  36.238  -0.190 -0.13 +0.07    +0.115     1.797
ATOM     32  C   UNL d   1       2.700  37.167  -0.902 +0.01 +0.17    +0.139     1.797
ATOM     33  O   UNL d   1       3.089  38.263  -1.275 -0.22 -0.87    -0.650     1.797
ATOM     34  O   UNL d   1       1.427  36.803  -1.185 -0.37 -1.07    -0.776     1.797
ATOM     35  H   UNL d   1       1.188  36.045  -1.735 +0.02 +0.12    +0.167     1.797
ATOM     36  C   UNL d   1       9.818  36.508   0.891 -0.23 +0.04    +0.190     1.797
ATOM     37  O   UNL d   1      10.459  37.663   1.349 -0.25 -0.05    -0.399     1.797
ATOM     38  H   UNL d   1      11.321  37.695   0.846 +0.13 +0.02    +0.209     1.797
ATOM     39  C   UNL d   1       7.747  37.800  -4.591 -0.27 +0.00    +0.052     1.797
ATOM     40  C   UNL d   1       7.154  39.055  -3.930 -0.25 +0.01    +0.115     1.797
ATOM     41  C   UNL d   1       7.788  40.355  -4.377 -0.32 -0.00    +0.139     1.797
ATOM     42  O   UNL d   1       7.073  41.258  -4.790 +0.01 -0.02    -0.650     1.797
ATOM     43  O   UNL d   1       9.115  40.579  -4.251 +0.09 +0.20    -0.776     1.797
ATOM     44  H   UNL d   1       9.588  41.216  -4.802 -0.48 -0.11    +0.167     1.797
ATOM     45  C   UNL d   1      12.230  31.835   3.800 -0.53 +0.00    +0.004     1.797
ATOM     46  C   UNL d   1      13.328  31.215   3.376 -0.64 +0.00    +0.012     1.797
ATOM     47  C   UNL d   1      14.977  36.745  -1.625 -0.60 +0.00    +0.004     1.797
ATOM     48  C   UNL d   1      15.373  37.936  -1.171 -0.63 +0.00    +0.012     1.797
TER
ENDMDL
MODEL        6
USER    Run = 6
USER    Cluster Rank = 3
USER    Number of conformations in this cluster = 1
USER  
USER    RMSD from reference structure       = 30.644 A
USER  
USER    Estimated Free Energy of Binding    =   -9.50 kcal/mol  [=(1)+(2)+(3)-(4)]
USER    Estimated Inhibition Constant, Ki   =  109.02 nM (nanomolar)  [Temperature = 298.15 K]
USER    
USER    (1) Final Intermolecular Energy     =  -13.08 kcal/mol
USER        vdW + Hbond + desolv Energy     =  -12.90 kcal/mol
USER        Electrostatic Energy            =   -0.18 kcal/mol
USER    (2) Final Total Internal Energy     =   -0.21 kcal/mol
USER    (3) Torsional Free Energy           =   +3.58 kcal/mol
USER    (4) Unbound System's Energy  [=(2)] =   -0.21 kcal/mol
USER    
USER    
USER  
USER    DPF = D:/Protein_go_brrr/autodock/final/2DN3/heme_Co/dock.dpf
USER    NEWDPF move	heme_Co_opt.pdbqt
USER    NEWDPF about	8.781000 34.984000 -0.736000
USER    NEWDPF tran0	39.532586 29.820363 14.837289
USER    NEWDPF axisangle0	-0.671775 0.448101 -0.589851 61.284824
USER    NEWDPF quaternion0	-0.342389 0.228387 -0.300634 0.860365
USER    NEWDPF dihe0	116.69 92.73 -156.37 121.37 62.73 -179.97 -180.00 -179.89 -76.28 -34.39 84.62 179.95 
USER  
USER                              x       y       z    vdW   Elec        q     RMS 
ATOM      1  C   UNL d   1      37.972  30.031  13.342 -0.35 +0.01    +0.064    30.644
ATOM      2  C   UNL d   1      39.965  26.217  15.364 -0.39 +0.01    +0.064    30.644
ATOM      3  C   UNL d   1      43.070  29.018  17.676 -0.08 +0.02    +0.064    30.644
ATOM      4  C   UNL d   1      40.805  32.951  15.925 -0.38 +0.01    +0.064    30.644
ATOM      5  C   UNL d   1      38.312  28.781  13.696 -0.31 +0.01    +0.066    30.644
ATOM      6  C   UNL d   1      37.576  27.658  13.272 -0.44 -0.00    -0.021    30.644
ATOM      7  C   UNL d   1      38.145  26.556  13.879 -0.44 -0.00    -0.025    30.644
ATOM      8  C   UNL d   1      39.213  27.051  14.635 -0.37 +0.01    +0.066    30.644
ATOM      9  C   UNL d   1      37.711  25.087  13.764 -0.57 +0.01    +0.051    30.644
ATOM     10  C   UNL d   1      41.100  26.631  16.151 -0.38 +0.02    +0.066    30.644
ATOM     11  C   UNL d   1      42.013  25.790  16.824 -0.36 -0.01    -0.021    30.644
ATOM     12  C   UNL d   1      42.909  26.633  17.486 -0.33 +0.00    +0.000    30.644
ATOM     13  C   UNL d   1      42.486  27.922  17.159 -0.15 +0.03    +0.070    30.644
ATOM     14  C   UNL d   1      42.063  24.286  16.746 -0.46 +0.01    +0.052    30.644
ATOM     15  C   UNL d   1      42.731  30.415  17.489 -0.34 +0.02    +0.066    30.644
ATOM     16  C   UNL d   1      43.282  31.493  18.166 -0.37 -0.01    -0.021    30.644
ATOM     17  C   UNL d   1      42.631  32.630  17.666 -0.42 +0.00    +0.000    30.644
ATOM     18  C   UNL d   1      41.742  32.154  16.708 -0.36 +0.01    +0.070    30.644
ATOM     19  C   UNL d   1      44.363  31.407  19.221 -0.32 +0.02    +0.052    30.644
ATOM     20  C   UNL d   1      39.872  32.503  15.051 -0.40 +0.01    +0.066    30.644
ATOM     21  C   UNL d   1      39.003  33.365  14.385 -0.38 -0.00    -0.025    30.644
ATOM     22  C   UNL d   1      38.194  32.554  13.611 -0.38 -0.00    -0.021    30.644
ATOM     23  C   UNL d   1      38.604  31.226  13.854 -0.37 +0.01    +0.066    30.644
ATOM     24  C   UNL d   1      38.934  34.886  14.495 -0.50 +0.01    +0.051    30.644
ATOM     25  N   UNL d   1      39.343  28.426  14.536 +0.22 -0.08    -0.248    30.644
ATOM     26  N   UNL d   1      41.427  27.919  16.307 -0.23 -0.09    -0.248    30.644
ATOM     27  N   UNL d   1      41.807  30.829  16.651 -0.16 -0.07    -0.248    30.644
ATOM     28  N   UNL d   1      39.618  31.191  14.728 +0.08 -0.05    -0.248    30.644
ATOM     29 FE   UNL d   1      40.647  29.702  15.654 +0.05 +0.00    +0.000    30.644
ATOM     30  C   UNL d   1      36.334  27.666  12.387 -0.60 +0.01    +0.052    30.644
ATOM     31  C   UNL d   1      35.990  26.248  11.931 -0.24 +0.03    +0.115    30.644
ATOM     32  C   UNL d   1      34.846  25.648  12.720 -0.40 +0.03    +0.139    30.644
ATOM     33  O   UNL d   1      33.811  26.284  12.854 +0.24 -0.10    -0.650    30.644
ATOM     34  O   UNL d   1      34.912  24.403  13.245 +0.08 -0.19    -0.776    30.644
ATOM     35  H   UNL d   1      34.939  24.213  14.193 +0.04 +0.03    +0.167    30.644
ATOM     36  C   UNL d   1      39.216  29.634  17.185 -0.16 +0.06    +0.190    30.644
ATOM     37  O   UNL d   1      38.180  28.853  17.708 -0.24 -0.09    -0.399    30.644
ATOM     38  H   UNL d   1      37.908  28.253  16.959 +0.12 +0.04    +0.209    30.644
ATOM     39  C   UNL d   1      37.048  33.030  12.738 -0.46 +0.00    +0.052    30.644
ATOM     40  C   UNL d   1      35.802  33.323  13.590 -0.24 +0.01    +0.115    30.644
ATOM     41  C   UNL d   1      35.034  34.559  13.170 -0.54 -0.01    +0.139    30.644
ATOM     42  O   UNL d   1      35.650  35.569  12.860 -0.02 +0.01    -0.650    30.644
ATOM     43  O   UNL d   1      33.689  34.550  13.043 +0.05 +0.12    -0.776    30.644
ATOM     44  H   UNL d   1      33.223  35.116  12.414 -0.45 -0.07    +0.167    30.644
ATOM     45  C   UNL d   1      44.122  26.371  18.369 -0.28 +0.00    +0.004    30.644
ATOM     46  C   UNL d   1      45.413  26.614  18.162 -0.24 +0.01    +0.012    30.644
ATOM     47  C   UNL d   1      42.767  34.062  18.068 -0.29 +0.00    +0.004    30.644
ATOM     48  C   UNL d   1      43.938  34.641  18.344 -0.37 +0.00    +0.012    30.644
TER
ENDMDL
MODEL       10
USER    Run = 10
USER    Cluster Rank = 4
USER    Number of conformations in this cluster = 6
USER  
USER    RMSD from reference structure       = 38.124 A
USER  
USER    Estimated Free Energy of Binding    =   -8.15 kcal/mol  [=(1)+(2)+(3)-(4)]
USER    Estimated Inhibition Constant, Ki   =    1.06 uM (micromolar)  [Temperature = 298.15 K]
USER    
USER    (1) Final Intermolecular Energy     =  -11.73 kcal/mol
USER        vdW + Hbond + desolv Energy     =   -8.68 kcal/mol
USER        Electrostatic Energy            =   -3.05 kcal/mol
USER    (2) Final Total Internal Energy     =   -0.88 kcal/mol
USER    (3) Torsional Free Energy           =   +3.58 kcal/mol
USER    (4) Unbound System's Energy  [=(2)] =   -0.88 kcal/mol
USER    
USER    
USER  
USER    DPF = D:/Protein_go_brrr/autodock/final/2DN3/heme_Co/dock.dpf
USER    NEWDPF move	heme_Co_opt.pdbqt
USER    NEWDPF about	8.781000 34.984000 -0.736000
USER    NEWDPF tran0	45.355125 25.958382 19.195294
USER    NEWDPF axisangle0	-0.520460 -0.835400 0.176717 172.788698
USER    NEWDPF quaternion0	-0.519429 -0.833746 0.176367 0.062889
USER    NEWDPF dihe0	61.68 74.21 69.02 -5.69 59.20 142.01 -172.09 177.78 77.22 111.44 -161.58 8.34 
USER  
USER                              x       y       z    vdW   Elec        q     RMS 
ATOM      1  C   UNL d   1      46.741  24.830  20.429 -0.06 +0.04    +0.064    38.124
ATOM      2  C   UNL d   1      43.515  23.490  17.202 -0.33 +0.03    +0.064    38.124
ATOM      3  C   UNL d   1      42.037  28.011  16.748 -0.26 +0.02    +0.064    38.124
ATOM      4  C   UNL d   1      45.579  29.457  19.752 -0.20 +0.05    +0.064    38.124
ATOM      5  C   UNL d   1      45.944  24.127  19.608 -0.13 +0.04    +0.066    38.124
ATOM      6  C   UNL d   1      46.114  22.743  19.404 -0.16 -0.01    -0.021    38.124
ATOM      7  C   UNL d   1      45.190  22.364  18.450 -0.17 -0.02    -0.025    38.124
ATOM      8  C   UNL d   1      44.486  23.528  18.124 -0.24 +0.04    +0.066    38.124
ATOM      9  C   UNL d   1      44.968  20.964  17.857 -0.23 +0.03    +0.051    38.124
ATOM     10  C   UNL d   1      42.719  24.630  16.821 -0.30 +0.02    +0.066    38.124
ATOM     11  C   UNL d   1      41.596  24.627  15.965 -0.43 -0.01    -0.021    38.124
ATOM     12  C   UNL d   1      41.183  25.958  15.853 -0.41 +0.00    +0.000    38.124
ATOM     13  C   UNL d   1      42.073  26.670  16.657 -0.33 +0.02    +0.070    38.124
ATOM     14  C   UNL d   1      40.923  23.412  15.381 -0.45 +0.01    +0.052    38.124
ATOM     15  C   UNL d   1      42.907  28.907  17.484 -0.23 +0.02    +0.066    38.124
ATOM     16  C   UNL d   1      42.906  30.293  17.421 -0.35 -0.01    -0.021    38.124
ATOM     17  C   UNL d   1      43.927  30.715  18.284 -0.32 +0.00    +0.000    38.124
ATOM     18  C   UNL d   1      44.462  29.549  18.821 -0.22 +0.03    +0.070    38.124
ATOM     19  C   UNL d   1      41.972  31.131  16.575 -0.15 +0.01    +0.052    38.124
ATOM     20  C   UNL d   1      46.172  28.333  20.221 -0.15 +0.06    +0.066    38.124
ATOM     21  C   UNL d   1      47.264  28.373  21.085 -0.01 -0.03    -0.025    38.124
ATOM     22  C   UNL d   1      47.602  27.053  21.321 -0.07 -0.02    -0.021    38.124
ATOM     23  C   UNL d   1      46.701  26.267  20.573 -0.07 +0.05    +0.066    38.124
ATOM     24  C   UNL d   1      47.964  29.609  21.644 -0.02 +0.06    +0.051    38.124
ATOM     25  N   UNL d   1      44.927  24.634  18.830 -0.11 -0.14    -0.248    38.124
ATOM     26  N   UNL d   1      42.967  25.860  17.285 -0.19 -0.09    -0.248    38.124
ATOM     27  N   UNL d   1      43.851  28.491  18.299 -0.06 -0.11    -0.248    38.124
ATOM     28  N   UNL d   1      45.835  27.038  19.903 -0.08 -0.18    -0.248    38.124
ATOM     29 FE   UNL d   1      44.359  26.678  18.552 -0.05 +0.00    +0.000    38.124
ATOM     30  C   UNL d   1      47.175  21.854  20.044 -0.13 +0.03    +0.052    38.124
ATOM     31  C   UNL d   1      48.527  22.053  19.359 -0.08 +0.08    +0.115    38.124
ATOM     32  C   UNL d   1      48.884  20.903  18.442 -0.05 +0.14    +0.139    38.124
ATOM     33  O   UNL d   1      48.135  20.615  17.520 -0.40 -1.22    -0.650    38.124
ATOM     34  O   UNL d   1      50.038  20.209  18.578 +0.00 -0.49    -0.776    38.124
ATOM     35  H   UNL d   1      50.302  19.746  19.385 +0.01 +0.07    +0.167    38.124
ATOM     36  C   UNL d   1      45.750  26.733  16.984 +0.04 +0.09    +0.190    38.124
ATOM     37  O   UNL d   1      46.812  26.025  16.411 -0.16 -0.28    -0.399    38.124
ATOM     38  H   UNL d   1      47.325  25.661  17.186 +0.06 +0.15    +0.209    38.124
ATOM     39  C   UNL d   1      48.770  26.582  22.167 -0.03 +0.03    +0.052    38.124
ATOM     40  C   UNL d   1      48.270  25.938  23.471 -0.03 +0.08    +0.115    38.124
ATOM     41  C   UNL d   1      47.754  26.925  24.497 +0.02 +0.17    +0.139    38.124
ATOM     42  O   UNL d   1      48.386  27.950  24.713 -0.14 -0.76    -0.650    38.124
ATOM     43  O   UNL d   1      46.567  26.748  25.118 -0.22 -1.25    -0.776    38.124
ATOM     44  H   UNL d   1      46.442  26.100  25.824 +0.03 +0.15    +0.167    38.124
ATOM     45  C   UNL d   1      40.044  26.631  15.099 -0.48 +0.00    +0.004    38.124
ATOM     46  C   UNL d   1      39.258  26.173  14.129 -0.54 +0.00    +0.012    38.124
ATOM     47  C   UNL d   1      44.427  32.093  18.569 -0.33 +0.00    +0.004    38.124
ATOM     48  C   UNL d   1      43.632  33.163  18.653 -0.44 +0.00    +0.012    38.124
TER
ENDMDL
MODEL       51
USER    Run = 51
USER    Cluster Rank = 5
USER    Number of conformations in this cluster = 6
USER  
USER    RMSD from reference structure       = 37.987 A
USER  
USER    Estimated Free Energy of Binding    =   -7.49 kcal/mol  [=(1)+(2)+(3)-(4)]
USER    Estimated Inhibition Constant, Ki   =    3.25 uM (micromolar)  [Temperature = 298.15 K]
USER    
USER    (1) Final Intermolecular Energy     =  -11.07 kcal/mol
USER        vdW + Hbond + desolv Energy     =   -8.43 kcal/mol
USER        Electrostatic Energy            =   -2.64 kcal/mol
USER    (2) Final Total Internal Energy     =   -1.60 kcal/mol
USER    (3) Torsional Free Energy           =   +3.58 kcal/mol
USER    (4) Unbound System's Energy  [=(2)] =   -1.60 kcal/mol
USER    
USER    
USER  
USER    DPF = D:/Protein_go_brrr/autodock/final/2DN3/heme_Co/dock.dpf
USER    NEWDPF move	heme_Co_opt.pdbqt
USER    NEWDPF about	8.781000 34.984000 -0.736000
USER    NEWDPF tran0	46.298066 28.405241 18.509277
USER    NEWDPF axisangle0	0.254346 -0.360664 -0.897346 -171.864555
USER    NEWDPF quaternion0	0.253705 -0.359756 -0.895085 -0.070936
USER    NEWDPF dihe0	12.66 136.73 66.87 35.06 65.35 108.01 -151.69 167.34 -180.00 100.70 -172.93 19.85 
USER  
USER                              x       y       z    vdW   Elec        q     RMS 
ATOM      1  C   UNL d   1      48.366  28.123  19.108 -0.07 +0.03    +0.064    37.987
ATOM      2  C   UNL d   1      45.543  31.949  19.079 -0.23 +0.02    +0.064    37.987
ATOM      3  C   UNL d   1      42.085  29.427  16.955 -0.29 +0.02    +0.064    37.987
ATOM      4  C   UNL d   1      44.805  25.411  17.323 -0.21 +0.03    +0.064    37.987
ATOM      5  C   UNL d   1      47.862  29.362  19.223 -0.08 +0.03    +0.066    37.987
ATOM      6  C   UNL d   1      48.563  30.397  19.874 -0.06 -0.01    -0.021    37.987
ATOM      7  C   UNL d   1      47.730  31.498  19.882 -0.09 -0.01    -0.025    37.987
ATOM      8  C   UNL d   1      46.564  31.094  19.223 -0.14 +0.03    +0.066    37.987
ATOM      9  C   UNL d   1      48.006  32.884  20.485 -0.07 +0.02    +0.051    37.987
ATOM     10  C   UNL d   1      44.315  31.631  18.393 -0.25 +0.02    +0.066    37.987
ATOM     11  C   UNL d   1      43.265  32.523  18.086 -0.38 -0.00    -0.021    37.987
ATOM     12  C   UNL d   1      42.272  31.763  17.463 -0.44 +0.00    +0.000    37.987
ATOM     13  C   UNL d   1      42.793  30.469  17.425 -0.33 +0.02    +0.070    37.987
ATOM     14  C   UNL d   1      43.273  34.016  18.296 -0.40 +0.01    +0.052    37.987
ATOM     15  C   UNL d   1      42.445  28.024  16.890 -0.31 +0.02    +0.066    37.987
ATOM     16  C   UNL d   1      41.612  26.976  16.526 -0.39 -0.01    -0.021    37.987
ATOM     17  C   UNL d   1      42.391  25.816  16.632 -0.25 +0.00    +0.000    37.987
ATOM     18  C   UNL d   1      43.648  26.251  17.038 -0.21 +0.03    +0.070    37.987
ATOM     19  C   UNL d   1      40.164  27.111  16.108 -0.37 +0.02    +0.052    37.987
ATOM     20  C   UNL d   1      46.010  25.803  17.801 -0.20 +0.04    +0.066    37.987
ATOM     21  C   UNL d   1      47.034  24.896  18.069 -0.19 -0.02    -0.025    37.987
ATOM     22  C   UNL d   1      48.083  25.653  18.558 -0.12 -0.01    -0.021    37.987
ATOM     23  C   UNL d   1      47.640  26.992  18.575 -0.11 +0.03    +0.066    37.987
ATOM     24  C   UNL d   1      47.007  23.381  17.888 -0.13 +0.06    +0.051    37.987
ATOM     25  N   UNL d   1      46.620  29.777  18.799 -0.08 -0.12    -0.248    37.987
ATOM     26  N   UNL d   1      44.051  30.402  17.937 -0.18 -0.08    -0.248    37.987
ATOM     27  N   UNL d   1      43.635  27.568  17.211 -0.20 -0.09    -0.248    37.987
ATOM     28  N   UNL d   1      46.385  27.087  18.120 -0.10 -0.13    -0.248    37.987
ATOM     29 FE   UNL d   1      45.041  28.604  17.957 -0.05 +0.00    +0.000    37.987
ATOM     30  C   UNL d   1      49.938  30.294  20.525 -0.02 +0.02    +0.052    37.987
ATOM     31  C   UNL d   1      49.809  29.861  21.985 -0.03 +0.06    +0.115    37.987
ATOM     32  C   UNL d   1      48.367  29.693  22.413 -0.05 +0.16    +0.139    37.987
ATOM     33  O   UNL d   1      47.761  28.680  22.098 -0.44 -1.05    -0.650    37.987
ATOM     34  O   UNL d   1      47.734  30.612  23.179 -0.07 -1.05    -0.776    37.987
ATOM     35  H   UNL d   1      48.102  31.477  23.406 +0.01 +0.13    +0.167    37.987
ATOM     36  C   UNL d   1      44.393  28.272  19.923 +0.61 +0.15    +0.190    37.987
ATOM     37  O   UNL d   1      44.842  27.916  21.199 -0.21 -0.62    -0.399    37.987
ATOM     38  H   UNL d   1      45.810  28.158  21.207 +0.04 +0.36    +0.209    37.987
ATOM     39  C   UNL d   1      49.413  25.104  19.041 -0.07 +0.03    +0.052    37.987
ATOM     40  C   UNL d   1      50.574  25.707  18.234 -0.08 +0.05    +0.115    37.987
ATOM     41  C   UNL d   1      50.871  24.988  16.934 -0.10 +0.09    +0.139    37.987
ATOM     42  O   UNL d   1      51.088  23.785  16.952 +0.02 -0.51    -0.650    37.987
ATOM     43  O   UNL d   1      50.817  25.624  15.743 +0.01 -0.49    -0.776    37.987
ATOM     44  H   UNL d   1      51.489  26.257  15.461 +0.03 +0.08    +0.167    37.987
ATOM     45  C   UNL d   1      40.906  32.110  16.886 -0.51 +0.00    +0.004    37.987
ATOM     46  C   UNL d   1      40.442  33.253  16.388 -0.54 +0.00    +0.012    37.987
ATOM     47  C   UNL d   1      42.007  24.387  16.428 -0.49 +0.00    +0.004    37.987
ATOM     48  C   UNL d   1      41.255  23.964  15.410 -0.59 +0.00    +0.012    37.987
TER
ENDMDL
MODEL        8
USER    Run = 8
USER    Cluster Rank = 6
USER    Number of conformations in this cluster = 1
USER  
USER    RMSD from reference structure       = 38.343 A
USER  
USER    Estimated Free Energy of Binding    =   -7.28 kcal/mol  [=(1)+(2)+(3)-(4)]
USER    Estimated Inhibition Constant, Ki   =    4.58 uM (micromolar)  [Temperature = 298.15 K]
USER    
USER    (1) Final Intermolecular Energy     =  -10.86 kcal/mol
USER        vdW + Hbond + desolv Energy     =   -8.61 kcal/mol
USER        Electrostatic Energy            =   -2.25 kcal/mol
USER    (2) Final Total Internal Energy     =   -1.99 kcal/mol
USER    (3) Torsional Free Energy           =   +3.58 kcal/mol
USER    (4) Unbound System's Energy  [=(2)] =   -1.99 kcal/mol
USER    
USER    
USER  
USER    DPF = D:/Protein_go_brrr/autodock/final/2DN3/heme_Co/dock.dpf
USER    NEWDPF move	heme_Co_opt.pdbqt
USER    NEWDPF about	8.781000 34.984000 -0.736000
USER    NEWDPF tran0	46.103099 26.247212 18.400544
USER    NEWDPF axisangle0	0.458980 -0.465404 -0.756794 -129.893561
USER    NEWDPF quaternion0	0.415797 -0.421616 -0.685591 -0.423460
USER    NEWDPF dihe0	114.68 -162.78 -33.92 36.41 -69.07 10.13 -151.93 -53.42 -58.80 -144.95 178.86 147.19 
USER  
USER                              x       y       z    vdW   Elec        q     RMS 
ATOM      1  C   UNL d   1      47.578  27.714  19.023 -0.09 +0.03    +0.064    38.343
ATOM      2  C   UNL d   1      43.131  28.146  17.396 -0.30 +0.02    +0.064    38.343
ATOM      3  C   UNL d   1      42.911  23.434  16.638 -0.28 +0.02    +0.064    38.343
ATOM      4  C   UNL d   1      47.307  22.917  18.654 -0.13 +0.06    +0.064    38.343
ATOM      5  C   UNL d   1      46.392  28.183  18.600 -0.12 +0.03    +0.066    38.343
ATOM      6  C   UNL d   1      46.038  29.541  18.726 -0.17 -0.01    -0.021    38.343
ATOM      7  C   UNL d   1      44.738  29.656  18.273 -0.24 -0.01    -0.025    38.343
ATOM      8  C   UNL d   1      44.361  28.369  17.876 -0.23 +0.03    +0.066    38.343
ATOM      9  C   UNL d   1      43.871  30.923  18.211 -0.34 +0.02    +0.051    38.343
ATOM     10  C   UNL d   1      42.663  26.862  16.939 -0.32 +0.02    +0.066    38.343
ATOM     11  C   UNL d   1      41.435  26.591  16.296 -0.39 -0.01    -0.021    38.343
ATOM     12  C   UNL d   1      41.399  25.210  16.083 -0.40 +0.00    +0.000    38.343
ATOM     13  C   UNL d   1      42.609  24.744  16.598 -0.25 +0.02    +0.070    38.343
ATOM     14  C   UNL d   1      40.424  27.610  15.839 -0.34 +0.02    +0.052    38.343
ATOM     15  C   UNL d   1      44.084  22.777  17.179 -0.23 +0.04    +0.066    38.343
ATOM     16  C   UNL d   1      44.270  21.409  17.320 -0.25 -0.01    -0.021    38.343
ATOM     17  C   UNL d   1      45.535  21.255  17.903 -0.25 +0.00    +0.000    38.343
ATOM     18  C   UNL d   1      46.031  22.545  18.057 -0.20 +0.07    +0.070    38.343
ATOM     19  C   UNL d   1      43.277  20.343  16.913 -0.34 +0.01    +0.052    38.343
ATOM     20  C   UNL d   1      47.773  24.167  18.893 -0.10 +0.05    +0.066    38.343
ATOM     21  C   UNL d   1      49.002  24.397  19.507 -0.05 -0.01    -0.025    38.343
ATOM     22  C   UNL d   1      49.120  25.772  19.601 -0.04 -0.01    -0.021    38.343
ATOM     23  C   UNL d   1      47.942  26.316  19.045 -0.07 +0.04    +0.066    38.343
ATOM     24  C   UNL d   1      50.006  23.359  20.000 -0.03 +0.02    +0.051    38.343
ATOM     25  N   UNL d   1      45.368  27.437  18.062 -0.11 -0.12    -0.248    38.343
ATOM     26  N   UNL d   1      43.395  25.750  17.064 -0.16 -0.10    -0.248    38.343
ATOM     27  N   UNL d   1      45.128  23.427  17.643 -0.16 -0.20    -0.248    38.343
ATOM     28  N   UNL d   1      47.123  25.348  18.618 -0.06 -0.16    -0.248    38.343
ATOM     29 FE   UNL d   1      45.244  25.313  17.841 -0.05 +0.00    +0.000    38.343
ATOM     30  C   UNL d   1      46.890  30.651  19.331 -0.15 +0.03    +0.052    38.343
ATOM     31  C   UNL d   1      46.503  30.889  20.791 -0.08 +0.10    +0.115    38.343
ATOM     32  C   UNL d   1      47.657  30.646  21.740 -0.08 +0.14    +0.139    38.343
ATOM     33  O   UNL d   1      48.523  31.499  21.865 -0.01 -0.37    -0.650    38.343
ATOM     34  O   UNL d   1      47.739  29.528  22.498 -0.32 -1.41    -0.776    38.343
ATOM     35  H   UNL d   1      48.391  28.826  22.364 +0.01 +0.20    +0.167    38.343
ATOM     36  C   UNL d   1      44.423  25.273  19.769 -0.20 +0.10    +0.190    38.343
ATOM     37  O   UNL d   1      44.380  24.520  20.947 -0.72 -0.25    -0.399    38.343
ATOM     38  H   UNL d   1      45.194  24.793  21.455 +0.07 +0.14    +0.209    38.343
ATOM     39  C   UNL d   1      50.274  26.514  20.248 -0.01 +0.02    +0.052    38.343
ATOM     40  C   UNL d   1      49.815  27.209  21.541 -0.01 +0.06    +0.115    38.343
ATOM     41  C   UNL d   1      48.675  26.513  22.254 -0.03 +0.09    +0.139    38.343
ATOM     42  O   UNL d   1      48.922  25.595  23.023 +0.02 -0.35    -0.650    38.343
ATOM     43  O   UNL d   1      47.397  26.935  22.132 -0.02 -0.93    -0.776    38.343
ATOM     44  H   UNL d   1      47.170  27.855  21.941 +0.01 +0.29    +0.167    38.343
ATOM     45  C   UNL d   1      40.375  24.286  15.438 -0.49 +0.00    +0.004    38.343
ATOM     46  C   UNL d   1      39.475  24.520  14.486 -0.47 +0.00    +0.012    38.343
ATOM     47  C   UNL d   1      46.237  20.013  18.345 -0.21 +0.00    +0.004    38.343
ATOM     48  C   UNL d   1      46.138  19.508  19.577 -0.20 +0.00    +0.012    38.343
TER
ENDMDL
MODEL       37
USER    Run = 37
USER    Cluster Rank = 7
USER    Number of conformations in this cluster = 1
USER  
USER    RMSD from reference structure       = 19.179 A
USER  
USER    Estimated Free Energy of Binding    =   -6.94 kcal/mol  [=(1)+(2)+(3)-(4)]
USER    Estimated Inhibition Constant, Ki   =    8.12 uM (micromolar)  [Temperature = 298.15 K]
USER    
USER    (1) Final Intermolecular Energy     =  -10.52 kcal/mol
USER        vdW + Hbond + desolv Energy     =   -7.94 kcal/mol
USER        Electrostatic Energy            =   -2.59 kcal/mol
USER    (2) Final Total Internal Energy     =   -0.74 kcal/mol
USER    (3) Torsional Free Energy           =   +3.58 kcal/mol
USER    (4) Unbound System's Energy  [=(2)] =   -0.74 kcal/mol
USER    
USER    
USER  
USER    DPF = D:/Protein_go_brrr/autodock/final/2DN3/heme_Co/dock.dpf
USER    NEWDPF move	heme_Co_opt.pdbqt
USER    NEWDPF about	8.781000 34.984000 -0.736000
USER    NEWDPF tran0	31.420026 38.908758 2.031529
USER    NEWDPF axisangle0	-0.527233 0.726367 -0.440927 164.631489
USER    NEWDPF quaternion0	-0.522498 0.719844 -0.436968 0.133714
USER    NEWDPF dihe0	-141.00 91.29 10.43 47.11 32.30 176.47 104.67 -164.47 -80.43 -61.16 -12.08 15.17 
USER  
USER                              x       y       z    vdW   Elec        q     RMS 
ATOM      1  C   UNL d   1      31.571  40.828   1.026 -0.06 +0.02    +0.064    19.179
ATOM      2  C   UNL d   1      34.343  36.964   0.970 -0.08 +0.01    +0.064    19.179
ATOM      3  C   UNL d   1      31.612  34.910   4.310 -0.21 +0.03    +0.064    19.179
ATOM      4  C   UNL d   1      28.548  38.683   4.106 -0.23 -0.04    +0.064    19.179
ATOM      5  C   UNL d   1      32.550  39.938   0.792 -0.05 +0.02    +0.066    19.179
ATOM      6  C   UNL d   1      33.530  40.149  -0.197 -0.03 -0.01    -0.021    19.179
ATOM      7  C   UNL d   1      34.318  39.015  -0.225 -0.06 -0.01    -0.025    19.179
ATOM      8  C   UNL d   1      33.795  38.168   0.759 -0.10 +0.01    +0.066    19.179
ATOM      9  C   UNL d   1      35.520  38.724  -1.137 -0.06 +0.01    +0.051    19.179
ATOM     10  C   UNL d   1      33.890  36.037   1.977 -0.13 +0.00    +0.066    19.179
ATOM     11  C   UNL d   1      34.507  34.821   2.343 -0.22 -0.00    -0.021    19.179
ATOM     12  C   UNL d   1      33.692  34.245   3.321 -0.29 +0.00    +0.000    19.179
ATOM     13  C   UNL d   1      32.648  35.155   3.488 -0.22 +0.02    +0.070    19.179
ATOM     14  C   UNL d   1      35.836  34.311   1.847 -0.28 +0.00    +0.052    19.179
ATOM     15  C   UNL d   1      30.430  35.711   4.563 -0.19 +0.01    +0.066    19.179
ATOM     16  C   UNL d   1      29.326  35.334   5.314 -0.25 -0.00    -0.021    19.179
ATOM     17  C   UNL d   1      28.438  36.418   5.256 -0.30 -0.00    +0.000    19.179
ATOM     18  C   UNL d   1      29.081  37.381   4.485 -0.21 -0.03    +0.070    19.179
ATOM     19  C   UNL d   1      29.161  34.011   6.028 +0.17 +0.02    +0.052    19.179
ATOM     20  C   UNL d   1      29.117  39.600   3.287 -0.24 -0.02    +0.066    19.179
ATOM     21  C   UNL d   1      28.490  40.802   2.968 -0.32 +0.00    -0.025    19.179
ATOM     22  C   UNL d   1      29.351  41.454   2.104 -0.19 -0.00    -0.021    19.179
ATOM     23  C   UNL d   1      30.465  40.605   1.929 -0.10 +0.01    +0.066    19.179
ATOM     24  C   UNL d   1      27.128  41.298   3.445 -0.54 -0.01    +0.051    19.179
ATOM     25  N   UNL d   1      32.703  38.717   1.409 -0.06 -0.05    -0.248    19.179
ATOM     26  N   UNL d   1      32.799  36.264   2.716 -0.12 -0.04    -0.248    19.179
ATOM     27  N   UNL d   1      30.251  36.914   4.065 +0.04 -0.00    -0.248    19.179
ATOM     28  N   UNL d   1      30.326  39.481   2.641 -0.07 -0.01    -0.248    19.179
ATOM     29 FE   UNL d   1      31.403  37.765   2.816 -0.04 +0.00    +0.000    19.179
ATOM     30  C   UNL d   1      33.643  41.355  -1.123 -0.03 +0.03    +0.052    19.179
ATOM     31  C   UNL d   1      34.118  42.584  -0.349 -0.04 +0.13    +0.115    19.179
ATOM     32  C   UNL d   1      35.607  42.815  -0.489 -0.05 +0.15    +0.139    19.179
ATOM     33  O   UNL d   1      36.340  41.872  -0.749 +0.02 -0.36    -0.650    19.179
ATOM     34  O   UNL d   1      36.155  44.048  -0.382 -0.42 -1.39    -0.776    19.179
ATOM     35  H   UNL d   1      36.919  44.349  -0.893 +0.01 +0.17    +0.167    19.179
ATOM     36  C   UNL d   1      30.404  36.943   1.166 -0.05 +0.04    +0.190    19.179
ATOM     37  O   UNL d   1      30.562  36.625  -0.187 -0.00 -0.09    -0.399    19.179
ATOM     38  H   UNL d   1      31.309  37.206  -0.501 +0.02 +0.04    +0.209    19.179
ATOM     39  C   UNL d   1      29.083  42.790   1.437 -0.20 +0.02    +0.052    19.179
ATOM     40  C   UNL d   1      30.103  43.843   1.900 -0.16 +0.08    +0.115    19.179
ATOM     41  C   UNL d   1      31.046  44.319   0.816 -0.17 +0.13    +0.139    19.179
ATOM     42  O   UNL d   1      31.297  43.581  -0.126 +0.01 -0.51    -0.650    19.179
ATOM     43  O   UNL d   1      31.552  45.573   0.814 -0.51 -1.12    -0.776    19.179
ATOM     44  H   UNL d   1      31.540  46.139   1.597 -0.35 +0.17    +0.167    19.179
ATOM     45  C   UNL d   1      33.789  32.956   4.126 -0.43 +0.00    +0.004    19.179
ATOM     46  C   UNL d   1      34.843  32.348   4.665 -0.62 +0.00    +0.012    19.179
ATOM     47  C   UNL d   1      27.064  36.556   5.823 -0.19 -0.00    +0.004    19.179
ATOM     48  C   UNL d   1      26.531  35.687   6.685 -0.31 -0.01    +0.012    19.179
TER
ENDMDL
MODEL       85
USER    Run = 85
USER    Cluster Rank = 8
USER    Number of conformations in this cluster = 11
USER  
USER    RMSD from reference structure       = 17.040 A
USER  
USER    Estimated Free Energy of Binding    =   -6.93 kcal/mol  [=(1)+(2)+(3)-(4)]
USER    Estimated Inhibition Constant, Ki   =    8.27 uM (micromolar)  [Temperature = 298.15 K]
USER    
USER    (1) Final Intermolecular Energy     =  -10.51 kcal/mol
USER        vdW + Hbond + desolv Energy     =   -7.44 kcal/mol
USER        Electrostatic Energy            =   -3.07 kcal/mol
USER    (2) Final Total Internal Energy     =   -1.12 kcal/mol
USER    (3) Torsional Free Energy           =   +3.58 kcal/mol
USER    (4) Unbound System's Energy  [=(2)] =   -1.12 kcal/mol
USER    
USER    
USER  
USER    DPF = D:/Protein_go_brrr/autodock/final/2DN3/heme_Co/dock.dpf
USER    NEWDPF move	heme_Co_opt.pdbqt
USER    NEWDPF about	8.781000 34.984000 -0.736000
USER    NEWDPF tran0	28.398498 42.041022 -0.823418
USER    NEWDPF axisangle0	-0.189168 -0.896972 0.399571 126.706873
USER    NEWDPF quaternion0	-0.169077 -0.801704 0.357133 0.448486
USER    NEWDPF dihe0	-49.68 113.05 -80.52 116.70 127.49 100.75 117.36 28.48 -40.50 114.23 165.08 -174.36 
USER  
USER                              x       y       z    vdW   Elec        q     RMS 
ATOM      1  C   UNL d   1      29.231  43.095   0.883 -0.13 +0.03    +0.064    17.040
ATOM      2  C   UNL d   1      29.212  38.499  -0.334 -0.12 +0.01    +0.064    17.040
ATOM      3  C   UNL d   1      26.417  39.465  -4.087 -0.14 +0.01    +0.064    17.040
ATOM      4  C   UNL d   1      26.738  44.215  -3.086 -0.13 +0.01    +0.064    17.040
ATOM      5  C   UNL d   1      29.401  41.763   0.847 -0.11 +0.02    +0.066    17.040
ATOM      6  C   UNL d   1      30.236  41.091   1.761 -0.13 -0.01    -0.021    17.040
ATOM      7  C   UNL d   1      30.245  39.761   1.389 -0.09 -0.00    -0.025    17.040
ATOM      8  C   UNL d   1      29.403  39.676   0.275 -0.10 +0.01    +0.066    17.040
ATOM      9  C   UNL d   1      31.012  38.604   2.046 -0.11 +0.01    +0.051    17.040
ATOM     10  C   UNL d   1      28.344  38.309  -1.470 -0.13 +0.01    +0.066    17.040
ATOM     11  C   UNL d   1      27.992  37.079  -2.066 -0.15 -0.00    -0.021    17.040
ATOM     12  C   UNL d   1      27.173  37.389  -3.155 -0.20 +0.00    +0.000    17.040
ATOM     13  C   UNL d   1      27.076  38.781  -3.135 -0.17 +0.01    +0.070    17.040
ATOM     14  C   UNL d   1      28.347  35.706  -1.556 -0.10 +0.01    +0.052    17.040
ATOM     15  C   UNL d   1      26.261  40.897  -4.249 -0.19 +0.01    +0.066    17.040
ATOM     16  C   UNL d   1      25.689  41.545  -5.335 -0.17 -0.00    -0.021    17.040
ATOM     17  C   UNL d   1      25.782  42.915  -5.052 -0.17 +0.00    +0.000    17.040
ATOM     18  C   UNL d   1      26.389  42.995  -3.803 -0.18 +0.01    +0.070    17.040
ATOM     19  C   UNL d   1      25.102  40.866  -6.552 -0.15 +0.01    +0.052    17.040
ATOM     20  C   UNL d   1      27.405  44.319  -1.912 -0.12 +0.02    +0.066    17.040
ATOM     21  C   UNL d   1      27.714  45.550  -1.338 -0.09 -0.01    -0.025    17.040
ATOM     22  C   UNL d   1      28.407  45.258  -0.178 -0.11 -0.01    -0.021    17.040
ATOM     23  C   UNL d   1      28.499  43.852  -0.107 -0.12 +0.03    +0.066    17.040
ATOM     24  C   UNL d   1      27.382  46.938  -1.879 -0.06 +0.01    +0.051    17.040
ATOM     25  N   UNL d   1      28.862  40.900  -0.080 -0.08 -0.05    -0.248    17.040
ATOM     26  N   UNL d   1      27.738  39.331  -2.083 -0.07 -0.04    -0.248    17.040
ATOM     27  N   UNL d   1      26.688  41.775  -3.369 -0.13 -0.05    -0.248    17.040
ATOM     28  N   UNL d   1      27.895  43.279  -1.156 -0.08 -0.07    -0.248    17.040
ATOM     29 FE   UNL d   1      27.710  41.367  -1.821 -0.05 +0.00    +0.000    17.040
ATOM     30  C   UNL d   1      31.048  41.724   2.886 -0.28 +0.02    +0.052    17.040
ATOM     31  C   UNL d   1      32.544  41.646   2.578 -0.25 +0.06    +0.115    17.040
ATOM     32  C   UNL d   1      33.270  42.930   2.918 -0.26 +0.15    +0.139    17.040
ATOM     33  O   UNL d   1      32.626  43.938   3.168 -0.44 -0.86    -0.650    17.040
ATOM     34  O   UNL d   1      34.620  42.989   3.003 -0.36 -0.93    -0.776    17.040
ATOM     35  H   UNL d   1      35.156  42.407   3.558 -0.46 +0.05    +0.167    17.040
ATOM     36  C   UNL d   1      29.532  41.522  -2.846 -0.03 +0.04    +0.190    17.040
ATOM     37  O   UNL d   1      30.777  42.159  -2.816 +0.00 -0.11    -0.399    17.040
ATOM     38  H   UNL d   1      30.749  42.739  -2.004 +0.02 +0.07    +0.209    17.040
ATOM     39  C   UNL d   1      29.003  46.280   0.771 -0.13 +0.03    +0.052    17.040
ATOM     40  C   UNL d   1      30.250  46.934   0.152 -0.15 +0.06    +0.115    17.040
ATOM     41  C   UNL d   1      31.457  46.023   0.068 -0.08 +0.16    +0.139    17.040
ATOM     42  O   UNL d   1      32.410  46.355  -0.622 -0.37 -0.93    -0.650    17.040
ATOM     43  O   UNL d   1      31.546  44.893   0.804 -0.38 -1.12    -0.776    17.040
ATOM     44  H   UNL d   1      31.725  44.905   1.753 +0.00 +0.26    +0.167    17.040
ATOM     45  C   UNL d   1      26.460  36.536  -4.196 -0.18 +0.00    +0.004    17.040
ATOM     46  C   UNL d   1      25.167  36.264  -4.355 -0.25 -0.00    +0.012    17.040
ATOM     47  C   UNL d   1      25.389  44.090  -5.886 -0.10 +0.00    +0.004    17.040
ATOM     48  C   UNL d   1      24.310  44.838  -5.645 -0.15 +0.00    +0.012    17.040
TER
ENDMDL
MODEL       36
USER    Run = 36
USER    Cluster Rank = 9
USER    Number of conformations in this cluster = 2
USER  
USER    RMSD from reference structure       = 4.867 A
USER  
USER    Estimated Free Energy of Binding    =   -6.83 kcal/mol  [=(1)+(2)+(3)-(4)]
USER    Estimated Inhibition Constant, Ki   =    9.85 uM (micromolar)  [Temperature = 298.15 K]
USER    
USER    (1) Final Intermolecular Energy     =  -10.41 kcal/mol
USER        vdW + Hbond + desolv Energy     =   -7.17 kcal/mol
USER        Electrostatic Energy            =   -3.24 kcal/mol
USER    (2) Final Total Internal Energy     =   -1.89 kcal/mol
USER    (3) Torsional Free Energy           =   +3.58 kcal/mol
USER    (4) Unbound System's Energy  [=(2)] =   -1.89 kcal/mol
USER    
USER    
USER  
USER    DPF = D:/Protein_go_brrr/autodock/final/2DN3/heme_Co/dock.dpf
USER    NEWDPF move	heme_Co_opt.pdbqt
USER    NEWDPF about	8.781000 34.984000 -0.736000
USER    NEWDPF tran0	1.747528 35.439381 -0.331407
USER    NEWDPF axisangle0	-0.702607 0.454853 -0.547222 178.420839
USER    NEWDPF quaternion0	-0.702540 0.454810 -0.547170 0.013780
USER    NEWDPF dihe0	89.20 92.41 27.85 -33.07 134.26 158.80 -135.88 -164.30 134.28 119.15 18.09 34.05 
USER  
USER                              x       y       z    vdW   Elec        q     RMS 
ATOM      1  C   UNL d   1       0.802  36.794  -1.741 -0.02 +0.07    +0.064     4.867
ATOM      2  C   UNL d   1       5.351  35.636  -0.982 -0.18 +0.02    +0.064     4.867
ATOM      3  C   UNL d   1       4.085  32.972   2.777 -0.32 +0.00    +0.064     4.867
ATOM      4  C   UNL d   1      -0.600  33.829   1.789 -0.06 +0.02    +0.064     4.867
ATOM      5  C   UNL d   1       2.142  36.702  -1.788 -0.13 +0.06    +0.066     4.867
ATOM      6  C   UNL d   1       2.896  37.301  -2.816 -0.12 -0.01    -0.021     4.867
ATOM      7  C   UNL d   1       4.213  36.943  -2.603 -0.14 -0.01    -0.025     4.867
ATOM      8  C   UNL d   1       4.208  36.155  -1.447 -0.15 +0.03    +0.066     4.867
ATOM      9  C   UNL d   1       5.440  37.319  -3.448 -0.16 +0.01    +0.051     4.867
ATOM     10  C   UNL d   1       5.447  34.836   0.213 -0.30 +0.01    +0.066     4.867
ATOM     11  C   UNL d   1       6.633  34.379   0.830 -0.39 -0.00    -0.021     4.867
ATOM     12  C   UNL d   1       6.234  33.609   1.926 -0.45 +0.00    +0.000     4.867
ATOM     13  C   UNL d   1       4.840  33.662   1.904 -0.35 +0.01    +0.070     4.867
ATOM     14  C   UNL d   1       8.041  34.747   0.438 -0.34 +0.01    +0.052     4.867
ATOM     15  C   UNL d   1       2.642  32.871   2.865 -0.26 +0.00    +0.066     4.867
ATOM     16  C   UNL d   1       1.925  32.025   3.700 -0.24 +0.00    -0.021     4.867
ATOM     17  C   UNL d   1       0.573  32.267   3.417 -0.11 +0.00    +0.000     4.867
ATOM     18  C   UNL d   1       0.572  33.257   2.440 -0.11 +0.01    +0.070     4.867
ATOM     19  C   UNL d   1       2.528  31.057   4.693 -0.32 -0.01    +0.052     4.867
ATOM     20  C   UNL d   1      -0.624  34.729   0.777 -0.08 +0.03    +0.066     4.867
ATOM     21  C   UNL d   1      -1.814  35.178   0.209 -0.05 -0.01    -0.025     4.867
ATOM     22  C   UNL d   1      -1.442  36.056  -0.793 -0.07 -0.01    -0.021     4.867
ATOM     23  C   UNL d   1      -0.031  36.091  -0.793 -0.08 +0.06    +0.066     4.867
ATOM     24  C   UNL d   1      -3.237  34.774   0.587 -0.01 +0.01    +0.051     4.867
ATOM     25  N   UNL d   1       2.939  35.994  -0.917 -0.13 -0.16    -0.248     4.867
ATOM     26  N   UNL d   1       4.368  34.450   0.902 -0.18 -0.06    -0.248     4.867
ATOM     27  N   UNL d   1       1.821  33.571   2.114 -0.12 -0.05    -0.248     4.867
ATOM     28  N   UNL d   1       0.468  35.288   0.154 -0.09 -0.17    -0.248     4.867
ATOM     29 FE   UNL d   1       2.343  34.712   0.688 -0.04 +0.00    +0.000     4.867
ATOM     30  C   UNL d   1       2.354  38.110  -3.989 -0.05 +0.02    +0.052     4.867
ATOM     31  C   UNL d   1       2.555  39.606  -3.748 -0.05 +0.06    +0.115     4.867
ATOM     32  C   UNL d   1       2.111  40.033  -2.366 -0.03 +0.17    +0.139     4.867
ATOM     33  O   UNL d   1       2.932  40.091  -1.463 -0.66 -0.99    -0.650     4.867
ATOM     34  O   UNL d   1       0.836  40.401  -2.103 +0.07 -1.16    -0.776     4.867
ATOM     35  H   UNL d   1       0.124  39.782  -1.888 +0.01 +0.31    +0.167     4.867
ATOM     36  C   UNL d   1       2.293  33.160  -0.720 -0.10 +0.04    +0.190     4.867
ATOM     37  O   UNL d   1       2.559  32.862  -2.060 -0.05 -0.06    -0.399     4.867
ATOM     38  H   UNL d   1       2.549  33.745  -2.526 +0.05 +0.04    +0.209     4.867
ATOM     39  C   UNL d   1      -2.393  36.768  -1.736 -0.03 +0.02    +0.052     4.867
ATOM     40  C   UNL d   1      -2.002  38.248  -1.886 -0.05 +0.09    +0.115     4.867
ATOM     41  C   UNL d   1      -2.169  39.068  -0.624 +0.00 +0.16    +0.139     4.867
ATOM     42  O   UNL d   1      -2.990  38.720   0.212 -0.02 -0.46    -0.650     4.867
ATOM     43  O   UNL d   1      -1.373  40.127  -0.355 -0.09 -1.62    -0.776     4.867
ATOM     44  H   UNL d   1      -1.029  40.707  -1.046 +0.00 +0.28    +0.167     4.867
ATOM     45  C   UNL d   1       7.006  32.848   2.996 -0.53 +0.00    +0.004     4.867
ATOM     46  C   UNL d   1       8.092  32.086   2.903 -0.55 +0.00    +0.012     4.867
ATOM     47  C   UNL d   1      -0.649  31.604   3.962 -0.06 -0.00    +0.004     4.867
ATOM     48  C   UNL d   1      -1.535  32.222   4.746 -0.04 +0.00    +0.012     4.867
TER
ENDMDL
MODEL       52
USER    Run = 52
USER    Cluster Rank = 10
USER    Number of conformations in this cluster = 5
USER  
USER    RMSD from reference structure       = 16.429 A
USER  
USER    Estimated Free Energy of Binding    =   -6.81 kcal/mol  [=(1)+(2)+(3)-(4)]
USER    Estimated Inhibition Constant, Ki   =   10.12 uM (micromolar)  [Temperature = 298.15 K]
USER    
USER    (1) Final Intermolecular Energy     =  -10.39 kcal/mol
USER        vdW + Hbond + desolv Energy     =   -7.59 kcal/mol
USER        Electrostatic Energy            =   -2.80 kcal/mol
USER    (2) Final Total Internal Energy     =   -0.63 kcal/mol
USER    (3) Torsional Free Energy           =   +3.58 kcal/mol
USER    (4) Unbound System's Energy  [=(2)] =   -0.63 kcal/mol
USER    
USER    
USER  
USER    DPF = D:/Protein_go_brrr/autodock/final/2DN3/heme_Co/dock.dpf
USER    NEWDPF move	heme_Co_opt.pdbqt
USER    NEWDPF about	8.781000 34.984000 -0.736000
USER    NEWDPF tran0	24.701094 47.371384 -1.101810
USER    NEWDPF axisangle0	-0.139502 -0.988056 0.065461 154.087253
USER    NEWDPF quaternion0	-0.135950 -0.962901 0.063795 0.224209
USER    NEWDPF dihe0	40.89 108.57 -145.34 137.07 60.66 150.23 173.64 122.05 47.51 108.23 172.68 53.86 
USER  
USER                              x       y       z    vdW   Elec        q     RMS 
ATOM      1  C   UNL d   1      26.163  47.553   0.494 -0.12 +0.02    +0.064    16.429
ATOM      2  C   UNL d   1      25.852  44.620  -3.236 -0.21 +0.01    +0.064    16.429
ATOM      3  C   UNL d   1      21.593  46.460  -4.376 -0.25 -0.00    +0.064    16.429
ATOM      4  C   UNL d   1      22.062  49.727  -0.803 -0.14 -0.00    +0.064    16.429
ATOM      5  C   UNL d   1      26.374  46.592  -0.420 -0.05 +0.02    +0.066    16.429
ATOM      6  C   UNL d   1      27.573  45.854  -0.465 -0.12 -0.01    -0.021    16.429
ATOM      7  C   UNL d   1      27.487  45.021  -1.563 -0.11 -0.01    -0.025    16.429
ATOM      8  C   UNL d   1      26.234  45.273  -2.131 -0.15 +0.02    +0.066    16.429
ATOM      9  C   UNL d   1      28.537  44.020  -2.072 -0.07 +0.01    +0.051    16.429
ATOM     10  C   UNL d   1      24.572  44.794  -3.875 -0.24 +0.01    +0.066    16.429
ATOM     11  C   UNL d   1      24.057  44.040  -4.952 -0.23 -0.00    -0.021    16.429
ATOM     12  C   UNL d   1      22.812  44.595  -5.261 -0.26 +0.00    +0.000    16.429
ATOM     13  C   UNL d   1      22.655  45.636  -4.345 -0.25 +0.00    +0.070    16.429
ATOM     14  C   UNL d   1      24.686  42.815  -5.565 -0.16 +0.01    +0.052    16.429
ATOM     15  C   UNL d   1      21.297  47.611  -3.545 -0.23 -0.01    +0.066    16.429
ATOM     16  C   UNL d   1      20.254  48.508  -3.723 -0.14 +0.00    -0.021    16.429
ATOM     17  C   UNL d   1      20.386  49.454  -2.696 -0.16 -0.00    +0.000    16.429
ATOM     18  C   UNL d   1      21.494  49.047  -1.960 -0.18 -0.00    +0.070    16.429
ATOM     19  C   UNL d   1      19.213  48.437  -4.818 -0.18 -0.01    +0.052    16.429
ATOM     20  C   UNL d   1      23.188  49.400  -0.124 -0.10 +0.00    +0.066    16.429
ATOM     21  C   UNL d   1      23.654  50.153   0.951 -0.07 -0.00    -0.025    16.429
ATOM     22  C   UNL d   1      24.819  49.533   1.364 -0.07 -0.00    -0.021    16.429
ATOM     23  C   UNL d   1      25.015  48.431   0.505 -0.10 +0.02    +0.066    16.429
ATOM     24  C   UNL d   1      23.031  51.414   1.544 -0.12 -0.00    +0.051    16.429
ATOM     25  N   UNL d   1      25.520  46.237  -1.440 -0.01 -0.07    -0.248    16.429
ATOM     26  N   UNL d   1      23.694  45.719  -3.472 -0.18 -0.03    -0.248    16.429
ATOM     27  N   UNL d   1      22.029  47.964  -2.512 -0.15 +0.00    -0.248    16.429
ATOM     28  N   UNL d   1      24.031  48.348  -0.399 -0.07 -0.04    -0.248    16.429
ATOM     29 FE   UNL d   1      23.671  47.154  -2.005 -0.05 +0.00    +0.000    16.429
ATOM     30  C   UNL d   1      28.774  46.012   0.462 -0.12 +0.03    +0.052    16.429
ATOM     31  C   UNL d   1      29.897  46.777  -0.238 -0.10 +0.05    +0.115    16.429
ATOM     32  C   UNL d   1      31.249  46.128  -0.039 -0.14 +0.13    +0.139    16.429
ATOM     33  O   UNL d   1      31.356  44.915  -0.149 -0.28 -0.69    -0.650    16.429
ATOM     34  O   UNL d   1      32.363  46.854   0.213 -0.20 -1.19    -0.776    16.429
ATOM     35  H   UNL d   1      32.381  47.652   0.758 -0.49 +0.13    +0.167    16.429
ATOM     36  C   UNL d   1      24.804  48.422  -3.230 -0.04 +0.02    +0.190    16.429
ATOM     37  O   UNL d   1      26.118  48.751  -3.582 -0.00 -0.04    -0.399    16.429
ATOM     38  H   UNL d   1      26.690  48.200  -2.978 +0.02 +0.03    +0.209    16.429
ATOM     39  C   UNL d   1      25.725  50.017   2.481 -0.06 +0.01    +0.052    16.429
ATOM     40  C   UNL d   1      26.534  48.849   3.067 -0.14 +0.05    +0.115    16.429
ATOM     41  C   UNL d   1      25.751  47.955   4.006 +0.07 +0.14    +0.139    16.429
ATOM     42  O   UNL d   1      25.873  48.103   5.214 -0.22 -0.59    -0.650    16.429
ATOM     43  O   UNL d   1      24.854  47.055   3.546 -0.04 -0.92    -0.776    16.429
ATOM     44  H   UNL d   1      24.002  46.906   3.976 -0.28 +0.09    +0.167    16.429
ATOM     45  C   UNL d   1      21.751  44.253  -6.299 -0.31 +0.00    +0.004    16.429
ATOM     46  C   UNL d   1      20.444  44.043  -6.164 -0.47 +0.00    +0.012    16.429
ATOM     47  C   UNL d   1      19.587  50.685  -2.424 -0.26 -0.00    +0.004    16.429
ATOM     48  C   UNL d   1      18.262  50.753  -2.579 -0.34 -0.00    +0.012    16.429
TER
ENDMDL
MODEL       61
USER    Run = 61
USER    Cluster Rank = 11
USER    Number of conformations in this cluster = 3
USER  
USER    RMSD from reference structure       = 24.262 A
USER  
USER    Estimated Free Energy of Binding    =   -6.66 kcal/mol  [=(1)+(2)+(3)-(4)]
USER    Estimated Inhibition Constant, Ki   =   13.11 uM (micromolar)  [Temperature = 298.15 K]
USER    
USER    (1) Final Intermolecular Energy     =  -10.24 kcal/mol
USER        vdW + Hbond + desolv Energy     =   -9.28 kcal/mol
USER        Electrostatic Energy            =   -0.96 kcal/mol
USER    (2) Final Total Internal Energy     =   -0.60 kcal/mol
USER    (3) Torsional Free Energy           =   +3.58 kcal/mol
USER    (4) Unbound System's Energy  [=(2)] =   -0.60 kcal/mol
USER    
USER    
USER  
USER    DPF = D:/Protein_go_brrr/autodock/final/2DN3/heme_Co/dock.dpf
USER    NEWDPF move	heme_Co_opt.pdbqt
USER    NEWDPF about	8.781000 34.984000 -0.736000
USER    NEWDPF tran0	12.256026 40.048987 25.309790
USER    NEWDPF axisangle0	0.285242 -0.676634 -0.678825 132.646112
USER    NEWDPF quaternion0	0.261231 -0.619678 -0.621684 0.401579
USER    NEWDPF dihe0	70.41 95.66 -71.51 -106.33 -72.50 161.96 -20.27 72.74 -76.13 -41.98 6.29 -134.52 
USER  
USER                              x       y       z    vdW   Elec        q     RMS 
ATOM      1  C   UNL d   1      12.745  38.921  27.100 -0.20 -0.02    +0.064    24.262
ATOM      2  C   UNL d   1      14.899  42.563  24.930 -0.22 -0.02    +0.064    24.262
ATOM      3  C   UNL d   1      11.728  42.361  21.361 -0.16 -0.02    +0.064    24.262
ATOM      4  C   UNL d   1       9.284  38.896  23.747 -0.28 -0.02    +0.064    24.262
ATOM      5  C   UNL d   1      13.588  39.907  26.751 -0.18 -0.02    +0.066    24.262
ATOM      6  C   UNL d   1      14.637  40.327  27.593 -0.13 +0.00    -0.021    24.262
ATOM      7  C   UNL d   1      15.244  41.399  26.969 -0.12 +0.00    -0.025    24.262
ATOM      8  C   UNL d   1      14.551  41.577  25.766 -0.17 -0.02    +0.066    24.262
ATOM      9  C   UNL d   1      16.431  42.234  27.473 -0.10 -0.01    +0.051    24.262
ATOM     10  C   UNL d   1      14.262  42.806  23.660 -0.24 -0.02    +0.066    24.262
ATOM     11  C   UNL d   1      14.669  43.733  22.675 -0.31 +0.00    -0.021    24.262
ATOM     12  C   UNL d   1      13.730  43.650  21.644 -0.31 -0.00    +0.000    24.262
ATOM     13  C   UNL d   1      12.829  42.673  22.068 -0.25 -0.02    +0.070    24.262
ATOM     14  C   UNL d   1      15.928  44.562  22.697 -0.30 -0.01    +0.052    24.262
ATOM     15  C   UNL d   1      10.670  41.420  21.674 -0.23 -0.02    +0.066    24.262
ATOM     16  C   UNL d   1       9.486  41.250  20.971 -0.27 +0.01    -0.021    24.262
ATOM     17  C   UNL d   1       8.777  40.254  21.657 -0.30 -0.00    +0.000    24.262
ATOM     18  C   UNL d   1       9.595  39.881  22.718 -0.26 -0.02    +0.070    24.262
ATOM     19  C   UNL d   1       9.088  42.011  19.726 -0.33 -0.03    +0.052    24.262
ATOM     20  C   UNL d   1      10.025  38.580  24.835 -0.25 -0.02    +0.066    24.262
ATOM     21  C   UNL d   1       9.604  37.641  25.774 -0.25 +0.01    -0.025    24.262
ATOM     22  C   UNL d   1      10.596  37.606  26.738 -0.24 +0.01    -0.021    24.262
ATOM     23  C   UNL d   1      11.575  38.541  26.342 -0.25 -0.03    +0.066    24.262
ATOM     24  C   UNL d   1       8.311  36.830  25.765 -0.18 -0.00    +0.051    24.262
ATOM     25  N   UNL d   1      13.524  40.663  25.603 +0.01 +0.11    -0.248    24.262
ATOM     26  N   UNL d   1      13.183  42.124  23.261 -0.12 +0.08    -0.248    24.262
ATOM     27  N   UNL d   1      10.700  40.618  22.715 -0.18 +0.07    -0.248    24.262
ATOM     28  N   UNL d   1      11.232  39.135  25.192 -0.17 +0.10    -0.248    24.262
ATOM     29 FE   UNL d   1      12.027  40.636  24.074 -0.06 -0.00    +0.000    24.262
ATOM     30  C   UNL d   1      14.976  39.767  28.970 -0.09 -0.01    +0.052    24.262
ATOM     31  C   UNL d   1      15.978  38.620  28.852 -0.22 -0.01    +0.115    24.262
ATOM     32  C   UNL d   1      17.388  39.045  29.203 -0.19 +0.00    +0.139    24.262
ATOM     33  O   UNL d   1      18.335  38.490  28.666 -0.60 -0.18    -0.650    24.262
ATOM     34  O   UNL d   1      17.638  40.061  30.062 +0.06 +0.01    -0.776    24.262
ATOM     35  H   UNL d   1      17.426  40.040  31.005 +0.02 -0.00    +0.167    24.262
ATOM     36  C   UNL d   1      10.998  42.062  25.215 -0.05 -0.04    +0.190    24.262
ATOM     37  O   UNL d   1      11.111  42.878  26.346 -0.00 +0.05    -0.399    24.262
ATOM     38  H   UNL d   1      11.865  42.487  26.869 +0.02 -0.03    +0.209    24.262
ATOM     39  C   UNL d   1      10.566  36.765  28.000 -0.09 -0.03    +0.052    24.262
ATOM     40  C   UNL d   1       9.126  36.611  28.516 -0.16 -0.01    +0.115    24.262
ATOM     41  C   UNL d   1       8.738  35.191  28.873 -0.16 +0.05    +0.139    24.262
ATOM     42  O   UNL d   1       7.575  34.838  28.741 -0.30 -0.39    -0.650    24.262
ATOM     43  O   UNL d   1       9.659  34.277  29.250 -0.19 -0.51    -0.776    24.262
ATOM     44  H   UNL d   1      10.349  33.959  28.654 -0.20 +0.03    +0.167    24.262
ATOM     45  C   UNL d   1      13.590  44.364  20.306 -0.25 -0.00    +0.004    24.262
ATOM     46  C   UNL d   1      12.659  45.206  19.867 -0.19 -0.00    +0.012    24.262
ATOM     47  C   UNL d   1       7.413  39.703  21.397 -0.37 -0.00    +0.004    24.262
ATOM     48  C   UNL d   1       6.309  40.156  21.996 -0.29 -0.00    +0.012    24.262
TER
ENDMDL
MODEL       57
USER    Run = 57
USER    Cluster Rank = 12
USER    Number of conformations in this cluster = 1
USER  
USER    RMSD from reference structure       = 24.065 A
USER  
USER    Estimated Free Energy of Binding    =   -6.63 kcal/mol  [=(1)+(2)+(3)-(4)]
USER    Estimated Inhibition Constant, Ki   =   13.86 uM (micromolar)  [Temperature = 298.15 K]
USER    
USER    (1) Final Intermolecular Energy     =  -10.21 kcal/mol
USER        vdW + Hbond + desolv Energy     =   -7.25 kcal/mol
USER        Electrostatic Energy            =   -2.96 kcal/mol
USER    (2) Final Total Internal Energy     =   -1.74 kcal/mol
USER    (3) Torsional Free Energy           =   +3.58 kcal/mol
USER    (4) Unbound System's Energy  [=(2)] =   -1.74 kcal/mol
USER    
USER    
USER  
USER    DPF = D:/Protein_go_brrr/autodock/final/2DN3/heme_Co/dock.dpf
USER    NEWDPF move	heme_Co_opt.pdbqt
USER    NEWDPF about	8.781000 34.984000 -0.736000
USER    NEWDPF tran0	23.794261 17.224333 15.775577
USER    NEWDPF axisangle0	0.674194 -0.179623 -0.716379 166.555682
USER    NEWDPF quaternion0	0.669559 -0.178389 -0.711454 0.117055
USER    NEWDPF dihe0	60.63 73.80 -28.24 57.56 -85.20 120.17 -147.36 -5.46 112.84 -36.35 19.10 -18.77 
USER  
USER                              x       y       z    vdW   Elec        q     RMS 
ATOM      1  C   UNL d   1      24.513  16.562  17.715 -0.11 +0.03    +0.064    24.065
ATOM      2  C   UNL d   1      22.094  20.422  16.353 -0.46 +0.01    +0.064    24.065
ATOM      3  C   UNL d   1      22.494  19.105  11.777 -0.18 +0.02    +0.064    24.065
ATOM      4  C   UNL d   1      24.629  14.962  13.170 -0.06 +0.02    +0.064    24.065
ATOM      5  C   UNL d   1      23.854  17.732  17.676 -0.16 +0.02    +0.066    24.065
ATOM      6  C   UNL d   1      23.475  18.415  18.848 -0.20 -0.00    -0.021    24.065
ATOM      7  C   UNL d   1      22.753  19.522  18.447 -0.24 +0.00    -0.025    24.065
ATOM      8  C   UNL d   1      22.737  19.476  17.049 -0.30 +0.01    +0.066    24.065
ATOM      9  C   UNL d   1      22.097  20.591  19.335 -0.33 -0.02    +0.051    24.065
ATOM     10  C   UNL d   1      22.046  20.472  14.913 -0.37 +0.01    +0.066    24.065
ATOM     11  C   UNL d   1      21.508  21.511  14.122 -0.42 -0.00    -0.021    24.065
ATOM     12  C   UNL d   1      21.641  21.103  12.792 -0.39 +0.00    +0.000    24.065
ATOM     13  C   UNL d   1      22.260  19.855  12.869 -0.26 +0.02    +0.070    24.065
ATOM     14  C   UNL d   1      20.995  22.837  14.621 -0.20 -0.00    +0.052    24.065
ATOM     15  C   UNL d   1      23.072  17.779  11.679 -0.14 +0.02    +0.066    24.065
ATOM     16  C   UNL d   1      23.152  16.999  10.534 -0.11 -0.01    -0.021    24.065
ATOM     17  C   UNL d   1      23.765  15.802  10.931 -0.08 +0.00    +0.000    24.065
ATOM     18  C   UNL d   1      24.027  15.954  12.289 -0.09 +0.02    +0.070    24.065
ATOM     19  C   UNL d   1      22.662  17.404   9.161 -0.09 +0.01    +0.052    24.065
ATOM     20  C   UNL d   1      24.814  15.053  14.509 -0.07 +0.02    +0.066    24.065
ATOM     21  C   UNL d   1      25.372  14.017  15.255 -0.05 -0.01    -0.025    24.065
ATOM     22  C   UNL d   1      25.378  14.461  16.564 -0.06 -0.01    -0.021    24.065
ATOM     23  C   UNL d   1      24.808  15.752  16.554 -0.08 +0.03    +0.066    24.065
ATOM     24  C   UNL d   1      25.858  12.662  14.748 -0.01 +0.01    +0.051    24.065
ATOM     25  N   UNL d   1      23.417  18.381  16.544 -0.08 -0.08    -0.248    24.065
ATOM     26  N   UNL d   1      22.555  19.500  14.148 -0.19 -0.07    -0.248    24.065
ATOM     27  N   UNL d   1      23.573  17.130  12.706 -0.08 -0.07    -0.248    24.065
ATOM     28  N   UNL d   1      24.463  16.113  15.313 -0.03 -0.10    -0.248    24.065
ATOM     29 FE   UNL d   1      23.502  17.716  14.512 -0.05 +0.00    +0.000    24.065
ATOM     30  C   UNL d   1      23.729  17.968  20.284 -0.13 +0.01    +0.052    24.065
ATOM     31  C   UNL d   1      24.879  18.765  20.898 -0.19 +0.03    +0.115    24.065
ATOM     32  C   UNL d   1      26.215  18.425  20.274 -0.24 +0.13    +0.139    24.065
ATOM     33  O   UNL d   1      26.545  18.966  19.229 -0.21 -0.53    -0.650    24.065
ATOM     34  O   UNL d   1      27.086  17.572  20.862 -0.21 -1.49    -0.776    24.065
ATOM     35  H   UNL d   1      26.872  16.662  21.108 +0.03 +0.25    +0.167    24.065
ATOM     36  C   UNL d   1      21.646  16.802  14.852 -0.16 +0.12    +0.190    24.065
ATOM     37  O   UNL d   1      20.888  16.148  15.829 -0.18 -0.42    -0.399    24.065
ATOM     38  H   UNL d   1      21.540  15.570  16.315 +0.06 +0.14    +0.209    24.065
ATOM     39  C   UNL d   1      25.847  13.658  17.763 -0.04 +0.02    +0.052    24.065
ATOM     40  C   UNL d   1      27.376  13.739  17.907 -0.07 +0.08    +0.115    24.065
ATOM     41  C   UNL d   1      27.862  13.917  19.330 -0.05 +0.14    +0.139    24.065
ATOM     42  O   UNL d   1      28.771  13.212  19.744 -0.01 -0.48    -0.650    24.065
ATOM     43  O   UNL d   1      27.378  14.894  20.128 +0.05 -1.16    -0.776    24.065
ATOM     44  H   UNL d   1      26.957  15.690  19.779 +0.02 +0.31    +0.167    24.065
ATOM     45  C   UNL d   1      21.275  21.753  11.465 -0.44 +0.00    +0.004    24.065
ATOM     46  C   UNL d   1      21.520  22.976  11.002 -0.47 +0.00    +0.012    24.065
ATOM     47  C   UNL d   1      24.053  14.569  10.139 -0.05 +0.00    +0.004    24.065
ATOM     48  C   UNL d   1      23.373  13.429  10.277 -0.05 +0.00    +0.012    24.065
TER
ENDMDL
MODEL       25
USER    Run = 25
USER    Cluster Rank = 13
USER    Number of conformations in this cluster = 5
USER  
USER    RMSD from reference structure       = 30.077 A
USER  
USER    Estimated Free Energy of Binding    =   -6.30 kcal/mol  [=(1)+(2)+(3)-(4)]
USER    Estimated Inhibition Constant, Ki   =   24.22 uM (micromolar)  [Temperature = 298.15 K]
USER    
USER    (1) Final Intermolecular Energy     =   -9.88 kcal/mol
USER        vdW + Hbond + desolv Energy     =   -7.59 kcal/mol
USER        Electrostatic Energy            =   -2.29 kcal/mol
USER    (2) Final Total Internal Energy     =   -1.15 kcal/mol
USER    (3) Torsional Free Energy           =   +3.58 kcal/mol
USER    (4) Unbound System's Energy  [=(2)] =   -1.15 kcal/mol
USER    
USER    
USER  
USER    DPF = D:/Protein_go_brrr/autodock/final/2DN3/heme_Co/dock.dpf
USER    NEWDPF move	heme_Co_opt.pdbqt
USER    NEWDPF about	8.781000 34.984000 -0.736000
USER    NEWDPF tran0	42.334716 44.661176 3.011880
USER    NEWDPF axisangle0	0.797905 -0.600292 -0.054754 142.768772
USER    NEWDPF quaternion0	0.756160 -0.568885 -0.051889 0.319218
USER    NEWDPF dihe0	-73.05 132.14 -60.75 116.26 135.29 64.89 174.45 139.88 30.24 -118.33 -155.81 148.87 
USER  
USER                              x       y       z    vdW   Elec        q     RMS 
ATOM      1  C   UNL d   1      40.975  45.727   4.327 -0.25 +0.01    +0.064    30.077
ATOM      2  C   UNL d   1      44.852  47.105   1.945 -0.07 -0.00    +0.064    30.077
ATOM      3  C   UNL d   1      45.618  42.611   0.515 -0.07 +0.01    +0.064    30.077
ATOM      4  C   UNL d   1      41.450  41.246   2.621 -0.22 +0.01    +0.064    30.077
ATOM      5  C   UNL d   1      41.998  46.427   3.811 -0.21 +0.00    +0.066    30.077
ATOM      6  C   UNL d   1      42.093  47.826   3.952 -0.20 +0.00    -0.021    30.077
ATOM      7  C   UNL d   1      43.208  48.223   3.240 -0.10 +0.00    -0.025    30.077
ATOM      8  C   UNL d   1      43.754  47.050   2.709 -0.11 -0.00    +0.066    30.077
ATOM      9  C   UNL d   1      43.750  49.649   3.056 -0.11 -0.01    +0.051    30.077
ATOM     10  C   UNL d   1      45.500  45.949   1.377 -0.05 -0.00    +0.066    30.077
ATOM     11  C   UNL d   1      46.730  45.926   0.685 -0.02 +0.00    -0.021    30.077
ATOM     12  C   UNL d   1      46.931  44.603   0.283 -0.03 +0.00    +0.000    30.077
ATOM     13  C   UNL d   1      45.818  43.916   0.769 -0.07 +0.00    +0.070    30.077
ATOM     14  C   UNL d   1      47.680  47.084   0.515 -0.01 -0.00    +0.052    30.077
ATOM     15  C   UNL d   1      44.505  41.761   0.892 -0.07 +0.01    +0.066    30.077
ATOM     16  C   UNL d   1      44.288  40.456   0.475 -0.10 -0.00    -0.021    30.077
ATOM     17  C   UNL d   1      43.086  40.058   1.077 -0.16 +0.00    +0.000    30.077
ATOM     18  C   UNL d   1      42.672  41.151   1.831 -0.11 +0.02    +0.070    30.077
ATOM     19  C   UNL d   1      45.194  39.667  -0.445 -0.06 +0.01    +0.052    30.077
ATOM     20  C   UNL d   1      40.983  42.326   3.291 -0.22 +0.02    +0.066    30.077
ATOM     21  C   UNL d   1      39.775  42.305   3.985 -0.33 -0.01    -0.025    30.077
ATOM     22  C   UNL d   1      39.626  43.575   4.512 -0.31 -0.01    -0.021    30.077
ATOM     23  C   UNL d   1      40.754  44.317   4.100 -0.22 +0.01    +0.066    30.077
ATOM     24  C   UNL d   1      38.801  41.139   4.124 -0.38 +0.01    +0.051    30.077
ATOM     25  N   UNL d   1      43.028  45.921   3.051 -0.10 -0.01    -0.248    30.077
ATOM     26  N   UNL d   1      44.982  44.720   1.478 -0.06 -0.01    -0.248    30.077
ATOM     27  N   UNL d   1      43.525  42.157   1.673 +0.12 -0.05    -0.248    30.077
ATOM     28  N   UNL d   1      41.576  43.565   3.359 -0.11 -0.05    -0.248    30.077
ATOM     29 FE   UNL d   1      43.288  43.927   2.323 -0.04 +0.00    +0.000    30.077
ATOM     30  C   UNL d   1      41.105  48.736   4.673 -0.31 -0.01    +0.052    30.077
ATOM     31  C   UNL d   1      39.808  48.860   3.875 -0.25 +0.03    +0.115    30.077
ATOM     32  C   UNL d   1      39.106  50.180   4.114 -0.18 +0.09    +0.139    30.077
ATOM     33  O   UNL d   1      39.756  51.215   4.113 -0.55 -0.52    -0.650    30.077
ATOM     34  O   UNL d   1      37.766  50.260   4.282 -0.03 -0.60    -0.776    30.077
ATOM     35  H   UNL d   1      37.123  50.207   3.561 -0.49 +0.05    +0.167    30.077
ATOM     36  C   UNL d   1      42.177  44.514   0.646 -0.04 +0.03    +0.190    30.077
ATOM     37  O   UNL d   1      40.874  44.593   0.144 -0.01 -0.09    -0.399    30.077
ATOM     38  H   UNL d   1      40.286  44.540   0.948 +0.04 +0.06    +0.209    30.077
ATOM     39  C   UNL d   1      38.432  44.061   5.312 -0.36 +0.02    +0.052    30.077
ATOM     40  C   UNL d   1      37.608  45.072   4.497 -0.38 +0.07    +0.115    30.077
ATOM     41  C   UNL d   1      37.134  44.555   3.155 -0.27 +0.13    +0.139    30.077
ATOM     42  O   UNL d   1      37.899  44.578   2.201 -0.03 -0.52    -0.650    30.077
ATOM     43  O   UNL d   1      35.918  43.987   3.002 +0.01 -1.12    -0.776    30.077
ATOM     44  H   UNL d   1      35.621  43.243   3.542 -0.38 +0.12    +0.167    30.077
ATOM     45  C   UNL d   1      48.049  43.909  -0.483 -0.02 +0.00    +0.004    30.077
ATOM     46  C   UNL d   1      48.989  43.064  -0.067 -0.02 +0.00    +0.012    30.077
ATOM     47  C   UNL d   1      42.327  38.780   0.940 -0.23 +0.00    +0.004    30.077
ATOM     48  C   UNL d   1      42.162  37.909   1.938 -0.42 +0.00    +0.012    30.077
TER
ENDMDL
MODEL       31
USER    Run = 31
USER    Cluster Rank = 14
USER    Number of conformations in this cluster = 4
USER  
USER    RMSD from reference structure       = 16.598 A
USER  
USER    Estimated Free Energy of Binding    =   -6.24 kcal/mol  [=(1)+(2)+(3)-(4)]
USER    Estimated Inhibition Constant, Ki   =   26.67 uM (micromolar)  [Temperature = 298.15 K]
USER    
USER    (1) Final Intermolecular Energy     =   -9.82 kcal/mol
USER        vdW + Hbond + desolv Energy     =   -6.69 kcal/mol
USER        Electrostatic Energy            =   -3.13 kcal/mol
USER    (2) Final Total Internal Energy     =   -1.57 kcal/mol
USER    (3) Torsional Free Energy           =   +3.58 kcal/mol
USER    (4) Unbound System's Energy  [=(2)] =   -1.57 kcal/mol
USER    
USER    
USER  
USER    DPF = D:/Protein_go_brrr/autodock/final/2DN3/heme_Co/dock.dpf
USER    NEWDPF move	heme_Co_opt.pdbqt
USER    NEWDPF about	8.781000 34.984000 -0.736000
USER    NEWDPF tran0	28.766144 40.258962 -1.627481
USER    NEWDPF axisangle0	-0.125312 -0.752492 0.646570 132.795949
USER    NEWDPF quaternion0	-0.114829 -0.689545 0.592483 0.400381
USER    NEWDPF dihe0	-175.32 104.68 42.52 116.25 121.77 144.01 75.54 82.59 33.10 24.64 -16.19 135.57 
USER  
USER                              x       y       z    vdW   Elec        q     RMS 
ATOM      1  C   UNL d   1      29.992  41.779  -0.677 -0.05 +0.02    +0.064    16.598
ATOM      2  C   UNL d   1      29.041  37.263   0.470 -0.12 +0.01    +0.064    16.598
ATOM      3  C   UNL d   1      25.949  36.953  -3.159 -0.23 +0.00    +0.064    16.598
ATOM      4  C   UNL d   1      27.190  41.436  -4.583 -0.13 +0.01    +0.064    16.598
ATOM      5  C   UNL d   1      29.932  40.579  -0.075 -0.06 +0.02    +0.066    16.598
ATOM      6  C   UNL d   1      30.763  40.247   1.012 -0.07 -0.00    -0.021    16.598
ATOM      7  C   UNL d   1      30.499  38.928   1.327 -0.08 -0.00    -0.025    16.598
ATOM      8  C   UNL d   1      29.507  38.518   0.429 -0.09 +0.01    +0.066    16.598
ATOM      9  C   UNL d   1      31.148  38.073   2.426 -0.11 +0.01    +0.051    16.598
ATOM     10  C   UNL d   1      28.003  36.759  -0.395 -0.13 +0.01    +0.066    16.598
ATOM     11  C   UNL d   1      27.372  35.499  -0.310 -0.18 -0.00    -0.021    16.598
ATOM     12  C   UNL d   1      26.473  35.437  -1.378 -0.21 +0.00    +0.000    16.598
ATOM     13  C   UNL d   1      26.612  36.664  -2.025 -0.14 +0.01    +0.070    16.598
ATOM     14  C   UNL d   1      27.562  34.478   0.782 -0.23 +0.02    +0.052    16.598
ATOM     15  C   UNL d   1      26.011  38.144  -3.984 -0.21 +0.01    +0.066    16.598
ATOM     16  C   UNL d   1      25.410  38.321  -5.222 -0.22 -0.00    -0.021    16.598
ATOM     17  C   UNL d   1      25.767  39.611  -5.637 -0.18 +0.00    +0.000    16.598
ATOM     18  C   UNL d   1      26.547  40.128  -4.609 -0.19 +0.01    +0.070    16.598
ATOM     19  C   UNL d   1      24.554  37.297  -5.935 -0.18 +0.00    +0.052    16.598
ATOM     20  C   UNL d   1      28.023  41.927  -3.633 -0.09 +0.01    +0.066    16.598
ATOM     21  C   UNL d   1      28.608  43.187  -3.737 -0.04 -0.00    -0.025    16.598
ATOM     22  C   UNL d   1      29.399  43.325  -2.611 -0.03 -0.01    -0.021    16.598
ATOM     23  C   UNL d   1      29.264  42.128  -1.876 -0.06 +0.02    +0.066    16.598
ATOM     24  C   UNL d   1      28.439  44.202  -4.864 -0.02 +0.01    +0.051    16.598
ATOM     25  N   UNL d   1      29.133  39.522  -0.447 -0.07 -0.04    -0.248    16.598
ATOM     26  N   UNL d   1      27.496  37.484  -1.397 -0.07 -0.03    -0.248    16.598
ATOM     27  N   UNL d   1      26.697  39.216  -3.654 -0.16 -0.03    -0.248    16.598
ATOM     28  N   UNL d   1      28.434  41.278  -2.493 -0.07 -0.05    -0.248    16.598
ATOM     29 FE   UNL d   1      27.843  39.364  -2.146 -0.04 +0.00    +0.000    16.598
ATOM     30  C   UNL d   1      31.818  41.139   1.658 -0.13 +0.02    +0.052    16.598
ATOM     31  C   UNL d   1      31.158  42.312   2.382 -0.22 +0.06    +0.115    16.598
ATOM     32  C   UNL d   1      32.024  43.554   2.377 -0.25 +0.16    +0.139    16.598
ATOM     33  O   UNL d   1      33.171  43.489   2.792 -0.44 -1.10    -0.650    16.598
ATOM     34  O   UNL d   1      31.584  44.734   1.880 -0.13 -1.04    -0.776    16.598
ATOM     35  H   UNL d   1      32.111  45.544   1.854 -0.29 +0.32    +0.167    16.598
ATOM     36  C   UNL d   1      29.504  38.636  -3.198 -0.04 +0.03    +0.190    16.598
ATOM     37  O   UNL d   1      30.891  38.473  -3.116 -0.00 -0.06    -0.399    16.598
ATOM     38  H   UNL d   1      31.160  38.974  -2.296 +0.01 +0.04    +0.209    16.598
ATOM     39  C   UNL d   1      30.283  44.517  -2.298 -0.03 +0.02    +0.052    16.598
ATOM     40  C   UNL d   1      31.742  44.074  -2.100 -0.05 +0.06    +0.115    16.598
ATOM     41  C   UNL d   1      32.603  45.072  -1.356 -0.05 +0.16    +0.139    16.598
ATOM     42  O   UNL d   1      33.750  45.270  -1.731 -0.07 -0.81    -0.650    16.598
ATOM     43  O   UNL d   1      32.111  45.816  -0.340 -0.50 -1.23    -0.776    16.598
ATOM     44  H   UNL d   1      31.606  45.432   0.388 +0.01 +0.25    +0.167    16.598
ATOM     45  C   UNL d   1      25.490  34.372  -1.847 -0.30 -0.00    +0.004    16.598
ATOM     46  C   UNL d   1      24.161  34.336  -1.792 -0.47 -0.00    +0.012    16.598
ATOM     47  C   UNL d   1      25.462  40.320  -6.916 -0.12 +0.00    +0.004    16.598
ATOM     48  C   UNL d   1      24.491  41.227  -7.043 -0.15 +0.00    +0.012    16.598
TER
ENDMDL
MODEL       73
USER    Run = 73
USER    Cluster Rank = 15
USER    Number of conformations in this cluster = 1
USER  
USER    RMSD from reference structure       = 3.426 A
USER  
USER    Estimated Free Energy of Binding    =   -6.07 kcal/mol  [=(1)+(2)+(3)-(4)]
USER    Estimated Inhibition Constant, Ki   =   35.69 uM (micromolar)  [Temperature = 298.15 K]
USER    
USER    (1) Final Intermolecular Energy     =   -9.65 kcal/mol
USER        vdW + Hbond + desolv Energy     =   -7.56 kcal/mol
USER        Electrostatic Energy            =   -2.08 kcal/mol
USER    (2) Final Total Internal Energy     =   -3.91 kcal/mol
USER    (3) Torsional Free Energy           =   +3.58 kcal/mol
USER    (4) Unbound System's Energy  [=(2)] =   -3.91 kcal/mol
USER    
USER    
USER  
USER    DPF = D:/Protein_go_brrr/autodock/final/2DN3/heme_Co/dock.dpf
USER    NEWDPF move	heme_Co_opt.pdbqt
USER    NEWDPF about	8.781000 34.984000 -0.736000
USER    NEWDPF tran0	3.371544 35.014826 -2.689860
USER    NEWDPF axisangle0	-0.798395 -0.003317 0.602125 -19.151866
USER    NEWDPF quaternion0	-0.132817 -0.000552 0.100166 -0.986066
USER    NEWDPF dihe0	33.93 106.59 -138.66 63.85 -21.75 113.68 30.61 115.20 175.22 140.74 -172.40 171.34 
USER  
USER                              x       y       z    vdW   Elec        q     RMS 
ATOM      1  C   UNL d   1       1.400  34.881  -3.591 -0.04 +0.02    +0.064     3.426
ATOM      2  C   UNL d   1       3.056  33.595   0.677 -0.21 +0.01    +0.064     3.426
ATOM      3  C   UNL d   1       7.492  34.781  -0.644 -0.23 +0.01    +0.064     3.426
ATOM      4  C   UNL d   1       5.769  36.461  -4.872 -0.17 +0.01    +0.064     3.426
ATOM      5  C   UNL d   1       1.532  34.409  -2.341 -0.05 +0.02    +0.066     3.426
ATOM      6  C   UNL d   1       0.421  34.017  -1.569 -0.04 -0.01    -0.021     3.426
ATOM      7  C   UNL d   1       0.905  33.666  -0.324 -0.07 -0.01    -0.025     3.426
ATOM      8  C   UNL d   1       2.291  33.843  -0.394 -0.12 +0.02    +0.066     3.426
ATOM      9  C   UNL d   1       0.106  33.182   0.896 -0.07 +0.01    +0.051     3.426
ATOM     10  C   UNL d   1       4.492  33.723   0.691 -0.24 +0.01    +0.066     3.426
ATOM     11  C   UNL d   1       5.363  33.345   1.736 -0.37 -0.00    -0.021     3.426
ATOM     12  C   UNL d   1       6.650  33.698   1.322 -0.41 +0.00    +0.000     3.426
ATOM     13  C   UNL d   1       6.471  34.253   0.054 -0.31 +0.01    +0.070     3.426
ATOM     14  C   UNL d   1       4.979  32.609   2.994 -0.41 -0.00    +0.052     3.426
ATOM     15  C   UNL d   1       7.479  35.437  -1.937 -0.30 +0.01    +0.066     3.426
ATOM     16  C   UNL d   1       8.544  36.091  -2.539 -0.37 -0.00    -0.021     3.426
ATOM     17  C   UNL d   1       8.052  36.580  -3.758 -0.31 +0.00    +0.000     3.426
ATOM     18  C   UNL d   1       6.724  36.169  -3.811 -0.24 +0.01    +0.070     3.426
ATOM     19  C   UNL d   1       9.934  36.223  -1.957 -0.43 +0.01    +0.052     3.426
ATOM     20  C   UNL d   1       4.452  36.147  -4.906 -0.12 +0.01    +0.066     3.426
ATOM     21  C   UNL d   1       3.627  36.515  -5.966 -0.07 -0.00    -0.025     3.426
ATOM     22  C   UNL d   1       2.367  36.047  -5.638 -0.04 -0.00    -0.021     3.426
ATOM     23  C   UNL d   1       2.485  35.423  -4.378 -0.06 +0.02    +0.066     3.426
ATOM     24  C   UNL d   1       4.014  37.291  -7.222 -0.06 +0.01    +0.051     3.426
ATOM     25  N   UNL d   1       2.708  34.297  -1.634 -0.06 -0.07    -0.248     3.426
ATOM     26  N   UNL d   1       5.173  34.216  -0.349 -0.16 -0.04    -0.248     3.426
ATOM     27  N   UNL d   1       6.409  35.517  -2.697 -0.16 -0.04    -0.248     3.426
ATOM     28  N   UNL d   1       3.745  35.483  -3.930 -0.07 -0.05    -0.248     3.426
ATOM     29 FE   UNL d   1       4.667  34.944  -2.200 -0.05 +0.00    +0.000     3.426
ATOM     30  C   UNL d   1      -1.043  34.061  -1.994 -0.01 +0.01    +0.052     3.426
ATOM     31  C   UNL d   1      -1.655  35.424  -1.671 -0.02 +0.04    +0.115     3.426
ATOM     32  C   UNL d   1      -0.715  36.306  -0.878 -0.07 +0.12    +0.139     3.426
ATOM     33  O   UNL d   1      -0.846  36.388   0.334 -0.14 -0.66    -0.650     3.426
ATOM     34  O   UNL d   1       0.306  36.975  -1.463 -0.58 -1.12    -0.776     3.426
ATOM     35  H   UNL d   1       0.295  37.292  -2.377 +0.01 +0.17    +0.167     3.426
ATOM     36  C   UNL d   1       4.183  36.793  -1.338 +0.27 +0.10    +0.190     3.426
ATOM     37  O   UNL d   1       3.150  37.727  -1.213 -0.17 -0.44    -0.399     3.426
ATOM     38  H   UNL d   1       2.431  37.397  -1.821 +0.04 +0.22    +0.209     3.426
ATOM     39  C   UNL d   1       1.111  36.250  -6.464 -0.01 +0.01    +0.052     3.426
ATOM     40  C   UNL d   1       0.431  37.581  -6.101 +0.00 +0.02    +0.115     3.426
ATOM     41  C   UNL d   1       0.335  37.848  -4.613 -0.00 +0.05    +0.139     3.426
ATOM     42  O   UNL d   1      -0.749  37.750  -4.057 +0.01 -0.27    -0.650     3.426
ATOM     43  O   UNL d   1       1.431  38.107  -3.866 +0.03 -0.42    -0.776     3.426
ATOM     44  H   UNL d   1       1.601  37.666  -3.023 +0.02 +0.12    +0.167     3.426
ATOM     45  C   UNL d   1       8.022  33.560   1.967 -0.44 +0.00    +0.004     3.426
ATOM     46  C   UNL d   1       8.653  32.488   2.439 -0.51 +0.00    +0.012     3.426
ATOM     47  C   UNL d   1       8.729  37.415  -4.794 -0.28 +0.00    +0.004     3.426
ATOM     48  C   UNL d   1       9.498  38.468  -4.506 -0.46 -0.00    +0.012     3.426
TER
ENDMDL
MODEL       48
USER    Run = 48
USER    Cluster Rank = 16
USER    Number of conformations in this cluster = 2
USER  
USER    RMSD from reference structure       = 38.545 A
USER  
USER    Estimated Free Energy of Binding    =   -6.04 kcal/mol  [=(1)+(2)+(3)-(4)]
USER    Estimated Inhibition Constant, Ki   =   37.43 uM (micromolar)  [Temperature = 298.15 K]
USER    
USER    (1) Final Intermolecular Energy     =   -9.62 kcal/mol
USER        vdW + Hbond + desolv Energy     =   -6.88 kcal/mol
USER        Electrostatic Energy            =   -2.74 kcal/mol
USER    (2) Final Total Internal Energy     =   -0.64 kcal/mol
USER    (3) Torsional Free Energy           =   +3.58 kcal/mol
USER    (4) Unbound System's Energy  [=(2)] =   -0.64 kcal/mol
USER    
USER    
USER  
USER    DPF = D:/Protein_go_brrr/autodock/final/2DN3/heme_Co/dock.dpf
USER    NEWDPF move	heme_Co_opt.pdbqt
USER    NEWDPF about	8.781000 34.984000 -0.736000
USER    NEWDPF tran0	43.049791 16.552268 16.673423
USER    NEWDPF axisangle0	0.142970 -0.667837 0.730448 132.404958
USER    NEWDPF quaternion0	0.130814 -0.611055 0.668343 0.403506
USER    NEWDPF dihe0	167.87 100.68 -84.92 119.34 133.16 143.81 -161.44 -85.09 77.91 85.32 -144.78 180.00 
USER  
USER                              x       y       z    vdW   Elec        q     RMS 
ATOM      1  C   UNL d   1      43.910  18.546  16.643 -0.22 +0.02    +0.064    38.545
ATOM      2  C   UNL d   1      44.590  14.817  19.514 -0.16 +0.01    +0.064    38.545
ATOM      3  C   UNL d   1      41.134  12.406  17.262 -0.08 +0.01    +0.064    38.545
ATOM      4  C   UNL d   1      40.685  16.052  14.073 -0.16 +0.00    +0.064    38.545
ATOM      5  C   UNL d   1      44.325  17.718  17.616 -0.20 +0.02    +0.066    38.545
ATOM      6  C   UNL d   1      45.399  18.043  18.466 -0.19 -0.01    -0.021    38.545
ATOM      7  C   UNL d   1      45.607  16.948  19.282 -0.17 -0.01    -0.025    38.545
ATOM      8  C   UNL d   1      44.641  16.009  18.906 -0.17 +0.02    +0.066    38.545
ATOM      9  C   UNL d   1      46.671  16.777  20.377 -0.10 +0.01    +0.051    38.545
ATOM     10  C   UNL d   1      43.615  13.798  19.212 -0.12 +0.01    +0.066    38.545
ATOM     11  C   UNL d   1      43.420  12.585  19.908 -0.09 -0.00    -0.021    38.545
ATOM     12  C   UNL d   1      42.403  11.903  19.232 -0.08 +0.00    +0.000    38.545
ATOM     13  C   UNL d   1      42.046  12.754  18.186 -0.09 +0.01    +0.070    38.545
ATOM     14  C   UNL d   1      44.103  12.169  21.185 -0.05 +0.01    +0.052    38.545
ATOM     15  C   UNL d   1      40.684  13.135  16.092 -0.10 +0.01    +0.066    38.545
ATOM     16  C   UNL d   1      39.844  12.657  15.096 -0.07 -0.00    -0.021    38.545
ATOM     17  C   UNL d   1      39.714  13.704  14.173 -0.11 +0.00    +0.000    38.545
ATOM     18  C   UNL d   1      40.474  14.748  14.689 -0.17 +0.01    +0.070    38.545
ATOM     19  C   UNL d   1      39.223  11.278  15.060 -0.03 +0.01    +0.052    38.545
ATOM     20  C   UNL d   1      41.488  17.051  14.512 -0.24 +0.01    +0.066    38.545
ATOM     21  C   UNL d   1      41.637  18.247  13.813 -0.32 -0.00    -0.025    38.545
ATOM     22  C   UNL d   1      42.539  18.997  14.545 -0.30 -0.00    -0.021    38.545
ATOM     23  C   UNL d   1      42.907  18.211  15.658 -0.23 +0.02    +0.066    38.545
ATOM     24  C   UNL d   1      40.969  18.648  12.501 -0.37 +0.01    +0.051    38.545
ATOM     25  N   UNL d   1      43.828  16.461  17.880 +0.06 -0.07    -0.248    38.545
ATOM     26  N   UNL d   1      42.740  13.923  18.209 -0.00 -0.05    -0.248    38.545
ATOM     27  N   UNL d   1      41.061  14.363  15.817 -0.10 -0.04    -0.248    38.545
ATOM     28  N   UNL d   1      42.275  17.031  15.640 -0.06 -0.05    -0.248    38.545
ATOM     29 FE   UNL d   1      42.362  15.353  16.785 -0.04 +0.00    +0.000    38.545
ATOM     30  C   UNL d   1      46.234  19.319  18.431 -0.18 +0.03    +0.052    38.545
ATOM     31  C   UNL d   1      46.935  19.464  17.080 -0.08 +0.13    +0.115    38.545
ATOM     32  C   UNL d   1      48.408  19.124  17.156 -0.02 +0.14    +0.139    38.545
ATOM     33  O   UNL d   1      48.748  17.966  17.347 +0.01 -0.36    -0.650    38.545
ATOM     34  O   UNL d   1      49.371  20.057  16.968 -0.45 -1.15    -0.776    38.545
ATOM     35  H   UNL d   1      50.296  19.942  17.224 +0.01 +0.15    +0.167    38.545
ATOM     36  C   UNL d   1      43.947  14.617  15.628 -0.05 +0.04    +0.190    38.545
ATOM     37  O   UNL d   1      45.308  14.794  15.360 -0.00 -0.08    -0.399    38.545
ATOM     38  H   UNL d   1      45.541  15.668  15.783 +0.02 +0.05    +0.209    38.545
ATOM     39  C   UNL d   1      43.063  20.367  14.157 -0.40 +0.02    +0.052    38.545
ATOM     40  C   UNL d   1      44.158  20.245  13.084 -0.32 +0.05    +0.115    38.545
ATOM     41  C   UNL d   1      45.571  20.354  13.618 -0.26 +0.14    +0.139    38.545
ATOM     42  O   UNL d   1      45.920  19.630  14.540 -0.06 -0.73    -0.650    38.545
ATOM     43  O   UNL d   1      46.485  21.169  13.046 -0.53 -1.22    -0.776    38.545
ATOM     44  H   UNL d   1      46.954  20.935  12.235 -0.20 +0.11    +0.167    38.545
ATOM     45  C   UNL d   1      41.720  10.563  19.465 -0.04 +0.00    +0.004    38.545
ATOM     46  C   UNL d   1      40.479  10.279  19.853 -0.04 +0.00    +0.012    38.545
ATOM     47  C   UNL d   1      38.984  13.742  12.871 -0.11 +0.00    +0.004    38.545
ATOM     48  C   UNL d   1      37.888  14.476  12.661 -0.19 +0.00    +0.012    38.545
TER
ENDMDL
MODEL       70
USER    Run = 70
USER    Cluster Rank = 17
USER    Number of conformations in this cluster = 1
USER  
USER    RMSD from reference structure       = 16.139 A
USER  
USER    Estimated Free Energy of Binding    =   -5.79 kcal/mol  [=(1)+(2)+(3)-(4)]
USER    Estimated Inhibition Constant, Ki   =   57.20 uM (micromolar)  [Temperature = 298.15 K]
USER    
USER    (1) Final Intermolecular Energy     =   -9.37 kcal/mol
USER        vdW + Hbond + desolv Energy     =   -7.50 kcal/mol
USER        Electrostatic Energy            =   -1.86 kcal/mol
USER    (2) Final Total Internal Energy     =   -2.12 kcal/mol
USER    (3) Torsional Free Energy           =   +3.58 kcal/mol
USER    (4) Unbound System's Energy  [=(2)] =   -2.12 kcal/mol
USER    
USER    
USER  
USER    DPF = D:/Protein_go_brrr/autodock/final/2DN3/heme_Co/dock.dpf
USER    NEWDPF move	heme_Co_opt.pdbqt
USER    NEWDPF about	8.781000 34.984000 -0.736000
USER    NEWDPF tran0	25.294543 45.143943 -2.640532
USER    NEWDPF axisangle0	0.435958 0.899915 0.009661 166.184357
USER    NEWDPF quaternion0	0.432794 0.893382 0.009591 0.120272
USER    NEWDPF dihe0	158.32 119.36 -115.83 19.33 88.92 143.81 -129.52 33.28 -134.89 -33.22 -178.00 180.00 
USER  
USER                              x       y       z    vdW   Elec        q     RMS 
ATOM      1  C   UNL d   1      27.011  43.861  -2.291 -0.16 +0.02    +0.064    16.139
ATOM      2  C   UNL d   1      23.426  43.621  -5.404 -0.12 +0.01    +0.064    16.139
ATOM      3  C   UNL d   1      21.356  47.417  -3.370 -0.26 -0.01    +0.064    16.139
ATOM      4  C   UNL d   1      25.196  47.917  -0.427 -0.08 +0.01    +0.064    16.139
ATOM      5  C   UNL d   1      26.166  43.495  -3.268 -0.22 +0.01    +0.066    16.139
ATOM      6  C   UNL d   1      26.460  42.441  -4.155 -0.19 -0.00    -0.021    16.139
ATOM      7  C   UNL d   1      25.427  42.391  -5.070 -0.20 -0.00    -0.025    16.139
ATOM      8  C   UNL d   1      24.539  43.404  -4.693 -0.18 +0.01    +0.066    16.139
ATOM      9  C   UNL d   1      25.268  41.432  -6.261 -0.15 +0.01    +0.051    16.139
ATOM     10  C   UNL d   1      22.441  44.623  -5.077 -0.23 +0.01    +0.066    16.139
ATOM     11  C   UNL d   1      21.187  44.808  -5.699 -0.33 -0.00    -0.021    16.139
ATOM     12  C   UNL d   1      20.603  45.918  -5.084 -0.34 -0.00    +0.000    16.139
ATOM     13  C   UNL d   1      21.536  46.320  -4.127 -0.27 -0.00    +0.070    16.139
ATOM     14  C   UNL d   1      20.568  43.913  -6.742 -0.36 +0.01    +0.052    16.139
ATOM     15  C   UNL d   1      22.234  48.003  -2.377 -0.19 +0.00    +0.066    16.139
ATOM     16  C   UNL d   1      22.054  49.220  -1.734 -0.16 +0.00    -0.021    16.139
ATOM     17  C   UNL d   1      23.160  49.370  -0.886 -0.11 +0.00    +0.000    16.139
ATOM     18  C   UNL d   1      23.922  48.220  -1.066 -0.08 +0.01    +0.070    16.139
ATOM     19  C   UNL d   1      20.885  50.158  -1.943 -0.19 -0.01    +0.052    16.139
ATOM     20  C   UNL d   1      25.997  46.848  -0.650 -0.07 +0.02    +0.066    16.139
ATOM     21  C   UNL d   1      27.218  46.684   0.001 -0.12 -0.01    -0.025    16.139
ATOM     22  C   UNL d   1      27.750  45.508  -0.495 -0.13 -0.01    -0.021    16.139
ATOM     23  C   UNL d   1      26.826  45.015  -1.441 -0.14 +0.02    +0.066    16.139
ATOM     24  C   UNL d   1      27.856  47.613   1.030 -0.11 +0.02    +0.051    16.139
ATOM     25  N   UNL d   1      24.969  44.100  -3.576 -0.21 -0.05    -0.248    16.139
ATOM     26  N   UNL d   1      22.621  45.502  -4.086 -0.20 -0.01    -0.248    16.139
ATOM     27  N   UNL d   1      23.356  47.444  -1.983 -0.04 -0.03    -0.248    16.139
ATOM     28  N   UNL d   1      25.765  45.824  -1.539 -0.02 -0.07    -0.248    16.139
ATOM     29 FE   UNL d   1      24.117  45.871  -2.730 -0.06 +0.00    +0.000    16.139
ATOM     30  C   UNL d   1      27.721  41.583  -4.162 -0.12 +0.01    +0.052    16.139
ATOM     31  C   UNL d   1      28.757  42.159  -5.126 -0.03 +0.02    +0.115    16.139
ATOM     32  C   UNL d   1      28.873  43.664  -5.018 -0.01 +0.02    +0.139    16.139
ATOM     33  O   UNL d   1      29.800  44.152  -4.388 +0.01 -0.13    -0.650    16.139
ATOM     34  O   UNL d   1      28.006  44.497  -5.639 +0.02 -0.10    -0.776    16.139
ATOM     35  H   UNL d   1      27.805  45.395  -5.339 +0.01 +0.02    +0.167    16.139
ATOM     36  C   UNL d   1      25.174  46.941  -4.190 -0.05 +0.02    +0.190    16.139
ATOM     37  O   UNL d   1      26.169  46.812  -5.164 -0.00 -0.04    -0.399    16.139
ATOM     38  H   UNL d   1      26.380  45.837  -5.188 +0.02 +0.02    +0.209    16.139
ATOM     39  C   UNL d   1      29.103  44.930  -0.125 -0.12 +0.02    +0.052    16.139
ATOM     40  C   UNL d   1      30.230  45.663  -0.874 -0.08 +0.06    +0.115    16.139
ATOM     41  C   UNL d   1      31.479  45.896  -0.050 -0.08 +0.16    +0.139    16.139
ATOM     42  O   UNL d   1      32.484  46.326  -0.597 -0.36 -0.99    -0.650    16.139
ATOM     43  O   UNL d   1      31.488  45.725   1.291 -0.38 -1.03    -0.776    16.139
ATOM     44  H   UNL d   1      31.553  46.465   1.908 -0.49 +0.11    +0.167    16.139
ATOM     45  C   UNL d   1      19.271  46.631  -5.276 -0.35 -0.00    +0.004    16.139
ATOM     46  C   UNL d   1      18.192  46.278  -5.969 -0.38 -0.00    +0.012    16.139
ATOM     47  C   UNL d   1      23.534  50.512   0.001 -0.08 +0.00    +0.004    16.139
ATOM     48  C   UNL d   1      22.837  50.863   1.084 -0.13 -0.00    +0.012    16.139
TER
ENDMDL
MODEL       49
USER    Run = 49
USER    Cluster Rank = 18
USER    Number of conformations in this cluster = 2
USER  
USER    RMSD from reference structure       = 16.230 A
USER  
USER    Estimated Free Energy of Binding    =   -5.71 kcal/mol  [=(1)+(2)+(3)-(4)]
USER    Estimated Inhibition Constant, Ki   =   65.10 uM (micromolar)  [Temperature = 298.15 K]
USER    
USER    (1) Final Intermolecular Energy     =   -9.29 kcal/mol
USER        vdW + Hbond + desolv Energy     =   -7.51 kcal/mol
USER        Electrostatic Energy            =   -1.78 kcal/mol
USER    (2) Final Total Internal Energy     =   -2.10 kcal/mol
USER    (3) Torsional Free Energy           =   +3.58 kcal/mol
USER    (4) Unbound System's Energy  [=(2)] =   -2.10 kcal/mol
USER    
USER    
USER  
USER    DPF = D:/Protein_go_brrr/autodock/final/2DN3/heme_Co/dock.dpf
USER    NEWDPF move	heme_Co_opt.pdbqt
USER    NEWDPF about	8.781000 34.984000 -0.736000
USER    NEWDPF tran0	28.455262 38.483270 0.579864
USER    NEWDPF axisangle0	-0.537076 -0.725887 0.429694 131.607183
USER    NEWDPF quaternion0	-0.489892 -0.662115 0.391944 0.409866
USER    NEWDPF dihe0	161.14 126.10 -63.35 93.43 132.99 136.86 -122.19 -141.67 -143.03 -63.97 176.54 -166.68 
USER  
USER                              x       y       z    vdW   Elec        q     RMS 
ATOM      1  C   UNL d   1      29.160  38.738   2.618 -0.17 -0.00    +0.064    16.230
ATOM      2  C   UNL d   1      26.941  35.146   0.431 -0.25 +0.01    +0.064    16.230
ATOM      3  C   UNL d   1      26.493  37.784  -3.528 -0.22 +0.01    +0.064    16.230
ATOM      4  C   UNL d   1      29.096  41.327  -1.446 -0.09 +0.01    +0.064    16.230
ATOM      5  C   UNL d   1      28.555  37.576   2.323 -0.18 +0.00    +0.066    16.230
ATOM      6  C   UNL d   1      28.538  36.493   3.224 -0.20 -0.00    -0.021    16.230
ATOM      7  C   UNL d   1      27.913  35.446   2.575 -0.22 -0.01    -0.025    16.230
ATOM      8  C   UNL d   1      27.561  35.939   1.314 -0.20 +0.01    +0.066    16.230
ATOM      9  C   UNL d   1      27.650  34.029   3.109 -0.29 +0.03    +0.051    16.230
ATOM     10  C   UNL d   1      26.518  35.573  -0.879 -0.17 +0.01    +0.066    16.230
ATOM     11  C   UNL d   1      25.741  34.834  -1.798 -0.24 -0.00    -0.021    16.230
ATOM     12  C   UNL d   1      25.622  35.628  -2.941 -0.25 -0.00    +0.000    16.230
ATOM     13  C   UNL d   1      26.322  36.795  -2.633 -0.19 +0.00    +0.070    16.230
ATOM     14  C   UNL d   1      25.086  33.501  -1.542 -0.24 -0.00    +0.052    16.230
ATOM     15  C   UNL d   1      27.227  39.027  -3.396 -0.17 +0.01    +0.066    16.230
ATOM     16  C   UNL d   1      27.486  39.941  -4.408 -0.14 -0.00    -0.021    16.230
ATOM     17  C   UNL d   1      28.239  40.963  -3.813 -0.10 +0.00    +0.000    16.230
ATOM     18  C   UNL d   1      28.365  40.599  -2.476 -0.12 +0.01    +0.070    16.230
ATOM     19  C   UNL d   1      27.029  39.812  -5.844 -0.10 +0.01    +0.052    16.230
ATOM     20  C   UNL d   1      29.306  40.950  -0.162 -0.09 +0.01    +0.066    16.230
ATOM     21  C   UNL d   1      30.057  41.718   0.725 -0.08 -0.01    -0.025    16.230
ATOM     22  C   UNL d   1      30.069  41.010   1.913 -0.14 -0.00    -0.021    16.230
ATOM     23  C   UNL d   1      29.328  39.831   1.687 -0.13 +0.01    +0.066    16.230
ATOM     24  C   UNL d   1      30.748  43.051   0.449 -0.11 +0.03    +0.051    16.230
ATOM     25  N   UNL d   1      27.941  37.258   1.133 -0.10 -0.03    -0.248    16.230
ATOM     26  N   UNL d   1      26.815  36.783  -1.366 +0.01 -0.03    -0.248    16.230
ATOM     27  N   UNL d   1      27.776  39.427  -2.271 -0.09 -0.04    -0.248    16.230
ATOM     28  N   UNL d   1      28.866  39.789   0.431 -0.08 -0.04    -0.248    16.230
ATOM     29 FE   UNL d   1      27.855  38.410  -0.668 -0.05 +0.00    +0.000    16.230
ATOM     30  C   UNL d   1      29.170  36.453   4.611 -0.26 -0.01    +0.052    16.230
ATOM     31  C   UNL d   1      30.521  35.741   4.565 -0.19 +0.02    +0.115    16.230
ATOM     32  C   UNL d   1      31.270  36.004   3.276 -0.14 +0.04    +0.139    16.230
ATOM     33  O   UNL d   1      32.257  36.723   3.291 +0.08 -0.11    -0.650    16.230
ATOM     34  O   UNL d   1      30.909  35.427   2.106 +0.06 -0.35    -0.776    16.230
ATOM     35  H   UNL d   1      31.126  35.784   1.234 +0.03 +0.06    +0.167    16.230
ATOM     36  C   UNL d   1      29.658  37.487  -1.211 -0.05 +0.03    +0.190    16.230
ATOM     37  O   UNL d   1      30.744  36.773  -0.694 +0.00 -0.09    -0.399    16.230
ATOM     38  H   UNL d   1      30.463  36.510   0.227 +0.03 +0.05    +0.209    16.230
ATOM     39  C   UNL d   1      30.808  41.420   3.173 -0.30 +0.01    +0.052    16.230
ATOM     40  C   UNL d   1      32.327  41.403   2.941 -0.28 +0.04    +0.115    16.230
ATOM     41  C   UNL d   1      32.972  42.773   2.926 -0.31 +0.13    +0.139    16.230
ATOM     42  O   UNL d   1      32.267  43.767   3.027 -0.30 -0.73    -0.650    16.230
ATOM     43  O   UNL d   1      34.315  42.926   2.892 -0.40 -0.98    -0.776    16.230
ATOM     44  H   UNL d   1      34.898  42.542   3.559 -0.43 +0.07    +0.167    16.230
ATOM     45  C   UNL d   1      24.916  35.428  -4.276 -0.24 -0.00    +0.004    16.230
ATOM     46  C   UNL d   1      23.653  35.653  -4.629 -0.31 -0.00    +0.012    16.230
ATOM     47  C   UNL d   1      28.854  42.177  -4.429 -0.05 +0.00    +0.004    16.230
ATOM     48  C   UNL d   1      28.435  43.421  -4.184 -0.05 +0.00    +0.012    16.230
TER
ENDMDL
MODEL       78
USER    Run = 78
USER    Cluster Rank = 19
USER    Number of conformations in this cluster = 1
USER  
USER    RMSD from reference structure       = 14.178 A
USER  
USER    Estimated Free Energy of Binding    =   -5.66 kcal/mol  [=(1)+(2)+(3)-(4)]
USER    Estimated Inhibition Constant, Ki   =   70.65 uM (micromolar)  [Temperature = 298.15 K]
USER    
USER    (1) Final Intermolecular Energy     =   -9.24 kcal/mol
USER        vdW + Hbond + desolv Energy     =   -7.21 kcal/mol
USER        Electrostatic Energy            =   -2.03 kcal/mol
USER    (2) Final Total Internal Energy     =   -1.60 kcal/mol
USER    (3) Torsional Free Energy           =   +3.58 kcal/mol
USER    (4) Unbound System's Energy  [=(2)] =   -1.60 kcal/mol
USER    
USER    
USER  
USER    DPF = D:/Protein_go_brrr/autodock/final/2DN3/heme_Co/dock.dpf
USER    NEWDPF move	heme_Co_opt.pdbqt
USER    NEWDPF about	8.781000 34.984000 -0.736000
USER    NEWDPF tran0	26.553757 37.209380 -2.975593
USER    NEWDPF axisangle0	0.735134 0.591586 -0.331064 -165.005297
USER    NEWDPF quaternion0	0.728849 0.586529 -0.328234 -0.130480
USER    NEWDPF dihe0	-50.63 119.47 92.11 133.94 -88.42 95.94 -104.51 -45.65 40.33 109.38 -26.27 166.17 
USER  
USER                              x       y       z    vdW   Elec        q     RMS 
ATOM      1  C   UNL d   1      27.113  36.071  -1.213 -0.16 +0.01    +0.064    14.178
ATOM      2  C   UNL d   1      23.517  35.630  -4.293 -0.32 -0.00    +0.064    14.178
ATOM      3  C   UNL d   1      24.872  39.642  -6.507 -0.14 +0.01    +0.064    14.178
ATOM      4  C   UNL d   1      28.775  39.904  -3.615 -0.08 +0.01    +0.064    14.178
ATOM      5  C   UNL d   1      26.010  35.676  -1.869 -0.19 +0.00    +0.066    14.178
ATOM      6  C   UNL d   1      25.344  34.474  -1.557 -0.29 +0.00    -0.021    14.178
ATOM      7  C   UNL d   1      24.315  34.340  -2.468 -0.36 +0.00    -0.025    14.178
ATOM      8  C   UNL d   1      24.387  35.472  -3.287 -0.26 -0.01    +0.066    14.178
ATOM      9  C   UNL d   1      23.296  33.195  -2.577 -0.37 -0.02    +0.051    14.178
ATOM     10  C   UNL d   1      23.497  36.774  -5.170 -0.12 +0.00    +0.066    14.178
ATOM     11  C   UNL d   1      22.526  37.067  -6.153 -0.20 -0.00    -0.021    14.178
ATOM     12  C   UNL d   1      22.944  38.244  -6.780 -0.20 +0.00    +0.000    14.178
ATOM     13  C   UNL d   1      24.128  38.588  -6.128 -0.15 +0.01    +0.070    14.178
ATOM     14  C   UNL d   1      21.244  36.311  -6.393 -0.31 +0.01    +0.052    14.178
ATOM     15  C   UNL d   1      26.140  40.109  -5.982 -0.12 +0.01    +0.066    14.178
ATOM     16  C   UNL d   1      26.929  41.119  -6.513 -0.06 -0.00    -0.021    14.178
ATOM     17  C   UNL d   1      28.057  41.196  -5.684 -0.05 +0.00    +0.000    14.178
ATOM     18  C   UNL d   1      27.858  40.235  -4.699 -0.09 +0.01    +0.070    14.178
ATOM     19  C   UNL d   1      26.596  41.938  -7.740 -0.03 +0.01    +0.052    14.178
ATOM     20  C   UNL d   1      28.643  38.916  -2.697 -0.11 +0.01    +0.066    14.178
ATOM     21  C   UNL d   1      29.610  38.672  -1.724 -0.07 -0.00    -0.025    14.178
ATOM     22  C   UNL d   1      29.145  37.591  -0.999 -0.10 -0.00    -0.021    14.178
ATOM     23  C   UNL d   1      27.912  37.219  -1.577 -0.15 +0.01    +0.066    14.178
ATOM     24  C   UNL d   1      30.924  39.419  -1.509 -0.02 +0.01    +0.051    14.178
ATOM     25  N   UNL d   1      25.423  36.320  -2.935 -0.18 +0.00    -0.248    14.178
ATOM     26  N   UNL d   1      24.431  37.730  -5.117 -0.16 -0.02    -0.248    14.178
ATOM     27  N   UNL d   1      26.722  39.586  -4.925 -0.11 -0.03    -0.248    14.178
ATOM     28  N   UNL d   1      27.607  38.017  -2.607 -0.14 -0.03    -0.248    14.178
ATOM     29 FE   UNL d   1      26.113  38.051  -3.986 -0.05 +0.00    +0.000    14.178
ATOM     30  C   UNL d   1      25.740  33.469  -0.480 -0.16 +0.00    +0.052    14.178
ATOM     31  C   UNL d   1      25.781  34.140   0.892 -0.31 +0.01    +0.115    14.178
ATOM     32  C   UNL d   1      26.928  33.639   1.745 -0.30 +0.07    +0.139    14.178
ATOM     33  O   UNL d   1      27.713  34.442   2.227 +0.00 -0.37    -0.650    14.178
ATOM     34  O   UNL d   1      27.087  32.327   2.035 -0.57 -0.84    -0.776    14.178
ATOM     35  H   UNL d   1      26.407  31.774   2.442 -0.45 -0.03    +0.167    14.178
ATOM     36  C   UNL d   1      27.188  36.736  -5.216 -0.05 +0.01    +0.190    14.178
ATOM     37  O   UNL d   1      28.173  35.743  -5.193 +0.00 -0.02    -0.399    14.178
ATOM     38  H   UNL d   1      28.356  35.585  -4.225 +0.02 +0.02    +0.209    14.178
ATOM     39  C   UNL d   1      29.880  36.916   0.144 -0.07 +0.01    +0.052    14.178
ATOM     40  C   UNL d   1      30.727  35.742  -0.373 -0.03 +0.04    +0.115    14.178
ATOM     41  C   UNL d   1      29.932  34.499  -0.712 -0.06 +0.07    +0.139    14.178
ATOM     42  O   UNL d   1      29.533  34.337  -1.856 +0.02 -0.21    -0.650    14.178
ATOM     43  O   UNL d   1      29.725  33.519   0.196 -0.20 -1.04    -0.776    14.178
ATOM     44  H   UNL d   1      28.907  33.447   0.704 +0.02 +0.24    +0.167    14.178
ATOM     45  C   UNL d   1      22.354  39.088  -7.902 -0.22 +0.00    +0.004    14.178
ATOM     46  C   UNL d   1      22.051  40.383  -7.943 -0.26 +0.00    +0.012    14.178
ATOM     47  C   UNL d   1      29.272  42.057  -5.804 -0.02 +0.00    +0.004    14.178
ATOM     48  C   UNL d   1      30.481  41.585  -6.118 -0.00 +0.00    +0.012    14.178
TER
ENDMDL
MODEL        2
USER    Run = 2
USER    Cluster Rank = 20
USER    Number of conformations in this cluster = 1
USER  
USER    RMSD from reference structure       = 34.501 A
USER  
USER    Estimated Free Energy of Binding    =   -5.40 kcal/mol  [=(1)+(2)+(3)-(4)]
USER    Estimated Inhibition Constant, Ki   =  109.79 uM (micromolar)  [Temperature = 298.15 K]
USER    
USER    (1) Final Intermolecular Energy     =   -8.98 kcal/mol
USER        vdW + Hbond + desolv Energy     =   -7.09 kcal/mol
USER        Electrostatic Energy            =   -1.89 kcal/mol
USER    (2) Final Total Internal Energy     =   -2.18 kcal/mol
USER    (3) Torsional Free Energy           =   +3.58 kcal/mol
USER    (4) Unbound System's Energy  [=(2)] =   -2.18 kcal/mol
USER    
USER    
USER  
USER    DPF = D:/Protein_go_brrr/autodock/final/2DN3/heme_Co/dock.dpf
USER    NEWDPF move	heme_Co_opt.pdbqt
USER    NEWDPF about	8.781000 34.984000 -0.736000
USER    NEWDPF tran0	44.374591 20.588858 0.600768
USER    NEWDPF axisangle0	-0.344991 -0.746172 -0.569394 165.545677
USER    NEWDPF quaternion0	-0.342250 -0.740243 -0.564870 0.125804
USER    NEWDPF dihe0	-180.00 152.13 -75.21 -101.13 166.48 171.85 -139.39 126.08 -79.25 39.65 -174.85 -160.68 
USER  
USER                              x       y       z    vdW   Elec        q     RMS 
ATOM      1  C   UNL d   1      45.490  18.759   0.954 -0.06 +0.03    +0.064    34.501
ATOM      2  C   UNL d   1      45.736  22.039  -2.481 -0.08 +0.01    +0.064    34.501
ATOM      3  C   UNL d   1      41.941  24.293  -0.652 -0.16 +0.01    +0.064    34.501
ATOM      4  C   UNL d   1      41.906  21.177   3.083 -0.18 +0.02    +0.064    34.501
ATOM      5  C   UNL d   1      45.814  19.469  -0.139 -0.05 +0.03    +0.066    34.501
ATOM      6  C   UNL d   1      46.941  19.160  -0.925 -0.03 -0.01    -0.021    34.501
ATOM      7  C   UNL d   1      47.021  20.128  -1.907 -0.06 -0.01    -0.025    34.501
ATOM      8  C   UNL d   1      45.930  20.977  -1.688 -0.09 +0.01    +0.066    34.501
ATOM      9  C   UNL d   1      48.077  20.263  -3.014 -0.05 +0.01    +0.051    34.501
ATOM     10  C   UNL d   1      44.628  22.952  -2.349 -0.07 +0.01    +0.066    34.501
ATOM     11  C   UNL d   1      44.290  24.001  -3.231 -0.04 -0.00    -0.021    34.501
ATOM     12  C   UNL d   1      43.178  24.640  -2.676 -0.14 +0.00    +0.000    34.501
ATOM     13  C   UNL d   1      42.912  23.927  -1.506 -0.14 +0.01    +0.070    34.501
ATOM     14  C   UNL d   1      44.942  24.296  -4.558 +0.02 +0.01    +0.052    34.501
ATOM     15  C   UNL d   1      41.565  23.707   0.620 -0.19 +0.01    +0.066    34.501
ATOM     16  C   UNL d   1      40.647  24.221   1.524 -0.29 -0.00    -0.021    34.501
ATOM     17  C   UNL d   1      40.635  23.327   2.604 -0.35 +0.00    +0.000    34.501
ATOM     18  C   UNL d   1      41.538  22.325   2.264 -0.18 +0.01    +0.070    34.501
ATOM     19  C   UNL d   1      39.848  25.492   1.336 -0.19 +0.01    +0.052    34.501
ATOM     20  C   UNL d   1      42.844  20.237   2.812 -0.15 +0.03    +0.066    34.501
ATOM     21  C   UNL d   1      43.133  19.200   3.696 -0.16 -0.01    -0.025    34.501
ATOM     22  C   UNL d   1      44.143  18.470   3.095 -0.13 -0.01    -0.021    34.501
ATOM     23  C   UNL d   1      44.430  19.110   1.871 -0.09 +0.04    +0.066    34.501
ATOM     24  C   UNL d   1      42.494  18.928   5.055 -0.16 +0.02    +0.051    34.501
ATOM     25  N   UNL d   1      45.162  20.589  -0.604 -0.04 -0.08    -0.248    34.501
ATOM     26  N   UNL d   1      43.755  22.873  -1.339 -0.08 -0.05    -0.248    34.501
ATOM     27  N   UNL d   1      42.095  22.600   1.090 -0.08 -0.06    -0.248    34.501
ATOM     28  N   UNL d   1      43.647  20.182   1.697 -0.07 -0.13    -0.248    34.501
ATOM     29 FE   UNL d   1      43.537  21.651   0.296 -0.02 +0.00    +0.000    34.501
ATOM     30  C   UNL d   1      47.936  18.029  -0.683 -0.01 +0.02    +0.052    34.501
ATOM     31  C   UNL d   1      49.092  18.510   0.194 -0.02 +0.05    +0.115    34.501
ATOM     32  C   UNL d   1      48.916  18.120   1.646 -0.05 +0.09    +0.139    34.501
ATOM     33  O   UNL d   1      49.380  17.062   2.045 +0.01 -0.28    -0.650    34.501
ATOM     34  O   UNL d   1      48.299  18.931   2.537 -0.45 -1.12    -0.776    34.501
ATOM     35  H   UNL d   1      48.118  18.691   3.456 +0.01 +0.30    +0.167    34.501
ATOM     36  C   UNL d   1      44.984  22.770   1.321 -0.24 +0.15    +0.190    34.501
ATOM     37  O   UNL d   1      46.342  23.103   1.319 -0.84 -0.40    -0.399    34.501
ATOM     38  H   UNL d   1      46.577  23.216   0.356 -0.50 +0.04    +0.209    34.501
ATOM     39  C   UNL d   1      44.835  17.262   3.700 -0.10 +0.03    +0.052    34.501
ATOM     40  C   UNL d   1      45.502  17.632   5.035 +0.03 +0.09    +0.115    34.501
ATOM     41  C   UNL d   1      46.793  16.891   5.314 -0.00 +0.10    +0.139    34.501
ATOM     42  O   UNL d   1      46.766  15.881   6.004 +0.01 -0.27    -0.650    34.501
ATOM     43  O   UNL d   1      47.963  17.264   4.750 -0.39 -0.71    -0.776    34.501
ATOM     44  H   UNL d   1      48.138  17.167   3.805 +0.01 +0.13    +0.167    34.501
ATOM     45  C   UNL d   1      42.329  25.822  -3.123 -0.11 +0.00    +0.004    34.501
ATOM     46  C   UNL d   1      42.228  27.052  -2.627 -0.17 +0.00    +0.012    34.501
ATOM     47  C   UNL d   1      39.887  23.400   3.895 -0.55 -0.00    +0.004    34.501
ATOM     48  C   UNL d   1      39.400  22.329   4.526 -0.40 -0.00    +0.012    34.501
TER
ENDMDL
MODEL       54
USER    Run = 54
USER    Cluster Rank = 21
USER    Number of conformations in this cluster = 1
USER  
USER    RMSD from reference structure       = 13.829 A
USER  
USER    Estimated Free Energy of Binding    =   -5.20 kcal/mol  [=(1)+(2)+(3)-(4)]
USER    Estimated Inhibition Constant, Ki   =  153.59 uM (micromolar)  [Temperature = 298.15 K]
USER    
USER    (1) Final Intermolecular Energy     =   -8.78 kcal/mol
USER        vdW + Hbond + desolv Energy     =   -7.71 kcal/mol
USER        Electrostatic Energy            =   -1.07 kcal/mol
USER    (2) Final Total Internal Energy     =   -2.44 kcal/mol
USER    (3) Torsional Free Energy           =   +3.58 kcal/mol
USER    (4) Unbound System's Energy  [=(2)] =   -2.44 kcal/mol
USER    
USER    
USER  
USER    DPF = D:/Protein_go_brrr/autodock/final/2DN3/heme_Co/dock.dpf
USER    NEWDPF move	heme_Co_opt.pdbqt
USER    NEWDPF about	8.781000 34.984000 -0.736000
USER    NEWDPF tran0	19.247925 44.832225 -8.712428
USER    NEWDPF axisangle0	0.701072 0.644450 0.305259 105.996519
USER    NEWDPF quaternion0	0.559888 0.514669 0.243785 0.601839
USER    NEWDPF dihe0	-2.50 139.03 21.51 5.12 158.00 73.24 -21.11 -49.92 61.15 144.95 1.63 159.25 
USER  
USER                              x       y       z    vdW   Elec        q     RMS 
ATOM      1  C   UNL d   1      19.297  43.626 -10.517 +0.07 +0.02    +0.064    13.829
ATOM      2  C   UNL d   1      16.131  46.760  -8.854 -0.17 -0.01    +0.064    13.829
ATOM      3  C   UNL d   1      18.643  47.210  -4.815 -0.17 -0.01    +0.064    13.829
ATOM      4  C   UNL d   1      22.089  44.308  -6.649 -0.19 +0.01    +0.064    13.829
ATOM      5  C   UNL d   1      18.228  44.421 -10.344 -0.05 +0.01    +0.066    13.829
ATOM      6  C   UNL d   1      17.271  44.618 -11.359 -0.14 +0.00    -0.021    13.829
ATOM      7  C   UNL d   1      16.368  45.546 -10.879 -0.16 +0.01    -0.025    13.829
ATOM      8  C   UNL d   1      16.802  45.863  -9.588 -0.20 -0.01    +0.066    13.829
ATOM      9  C   UNL d   1      15.138  46.123 -11.598 -0.13 -0.02    +0.051    13.829
ATOM     10  C   UNL d   1      16.488  47.129  -7.507 -0.24 -0.01    +0.066    13.829
ATOM     11  C   UNL d   1      15.747  47.956  -6.635 -0.26 +0.00    -0.021    13.829
ATOM     12  C   UNL d   1      16.500  48.067  -5.463 -0.29 -0.00    +0.000    13.829
ATOM     13  C   UNL d   1      17.635  47.292  -5.701 -0.26 -0.01    +0.070    13.829
ATOM     14  C   UNL d   1      14.369  48.513  -6.888 -0.23 -0.01    +0.052    13.829
ATOM     15  C   UNL d   1      19.904  46.503  -4.919 -0.30 -0.01    +0.066    13.829
ATOM     16  C   UNL d   1      20.966  46.577  -4.028 -0.30 +0.00    -0.021    13.829
ATOM     17  C   UNL d   1      21.963  45.743  -4.554 -0.29 -0.00    +0.000    13.829
ATOM     18  C   UNL d   1      21.423  45.211  -5.720 -0.25 +0.00    +0.070    13.829
ATOM     19  C   UNL d   1      20.992  47.404  -2.762 -0.30 -0.01    +0.052    13.829
ATOM     20  C   UNL d   1      21.617  43.846  -7.832 -0.17 +0.01    +0.066    13.829
ATOM     21  C   UNL d   1      22.366  43.010  -8.656 -0.11 -0.01    -0.025    13.829
ATOM     22  C   UNL d   1      21.575  42.773  -9.766 -0.12 -0.01    -0.021    13.829
ATOM     23  C   UNL d   1      20.377  43.492  -9.567 -0.09 +0.02    +0.066    13.829
ATOM     24  C   UNL d   1      23.775  42.478  -8.410 -0.08 +0.01    +0.051    13.829
ATOM     25  N   UNL d   1      17.949  45.176  -9.228 -0.14 -0.00    -0.248    13.829
ATOM     26  N   UNL d   1      17.600  46.681  -6.915 -0.17 +0.02    -0.248    13.829
ATOM     27  N   UNL d   1      20.208  45.709  -5.922 -0.18 +0.00    -0.248    13.829
ATOM     28  N   UNL d   1      20.399  44.145  -8.399 -0.12 -0.05    -0.248    13.829
ATOM     29 FE   UNL d   1      19.148  45.456  -7.478 -0.05 +0.00    +0.000    13.829
ATOM     30  C   UNL d   1      17.283  43.999 -12.753 -0.09 +0.00    +0.052    13.829
ATOM     31  C   UNL d   1      16.625  42.620 -12.733 -0.14 +0.02    +0.115    13.829
ATOM     32  C   UNL d   1      17.564  41.526 -13.194 -0.07 +0.10    +0.139    13.829
ATOM     33  O   UNL d   1      17.107  40.532 -13.739 -0.41 -0.53    -0.650    13.829
ATOM     34  O   UNL d   1      18.907  41.632 -13.067 -0.47 -0.62    -0.776    13.829
ATOM     35  H   UNL d   1      19.363  42.431 -12.767 +0.01 +0.08    +0.167    13.829
ATOM     36  C   UNL d   1      20.047  47.059  -8.487 -0.04 +0.00    +0.190    13.829
ATOM     37  O   UNL d   1      21.028  47.370  -9.433 +0.00 -0.01    -0.399    13.829
ATOM     38  H   UNL d   1      21.110  46.550  -9.997 +0.02 +0.01    +0.209    13.829
ATOM     39  C   UNL d   1      21.980  41.953 -10.976 -0.10 +0.02    +0.052    13.829
ATOM     40  C   UNL d   1      22.438  42.869 -12.124 -0.03 +0.02    +0.115    13.829
ATOM     41  C   UNL d   1      21.600  44.117 -12.299 -0.02 +0.02    +0.139    13.829
ATOM     42  O   UNL d   1      21.888  45.125 -11.669 +0.01 -0.07    -0.650    13.829
ATOM     43  O   UNL d   1      20.593  44.176 -13.198 +0.03 -0.12    -0.776    13.829
ATOM     44  H   UNL d   1      20.099  43.394 -13.477 +0.02 +0.04    +0.167    13.829
ATOM     45  C   UNL d   1      16.271  48.797  -4.146 -0.35 -0.00    +0.004    13.829
ATOM     46  C   UNL d   1      15.283  49.602  -3.762 -0.42 -0.00    +0.012    13.829
ATOM     47  C   UNL d   1      23.347  45.481  -4.058 -0.30 +0.00    +0.004    13.829
ATOM     48  C   UNL d   1      23.893  44.264  -4.006 -0.28 +0.00    +0.012    13.829
TER
ENDMDL
MODEL       26
USER    Run = 26
USER    Cluster Rank = 22
USER    Number of conformations in this cluster = 1
USER  
USER    RMSD from reference structure       = 30.278 A
USER  
USER    Estimated Free Energy of Binding    =   -5.19 kcal/mol  [=(1)+(2)+(3)-(4)]
USER    Estimated Inhibition Constant, Ki   =  155.61 uM (micromolar)  [Temperature = 298.15 K]
USER    
USER    (1) Final Intermolecular Energy     =   -8.77 kcal/mol
USER        vdW + Hbond + desolv Energy     =   -6.64 kcal/mol
USER        Electrostatic Energy            =   -2.14 kcal/mol
USER    (2) Final Total Internal Energy     =   -1.83 kcal/mol
USER    (3) Torsional Free Energy           =   +3.58 kcal/mol
USER    (4) Unbound System's Energy  [=(2)] =   -1.83 kcal/mol
USER    
USER    
USER  
USER    DPF = D:/Protein_go_brrr/autodock/final/2DN3/heme_Co/dock.dpf
USER    NEWDPF move	heme_Co_opt.pdbqt
USER    NEWDPF about	8.781000 34.984000 -0.736000
USER    NEWDPF tran0	18.814348 37.037774 31.759238
USER    NEWDPF axisangle0	0.195006 -0.687560 -0.699453 96.643125
USER    NEWDPF quaternion0	0.145648 -0.513530 -0.522413 0.664949
USER    NEWDPF dihe0	2.60 108.09 -2.51 6.05 53.63 163.15 -146.96 150.37 -177.21 137.38 9.79 34.51 
USER  
USER                              x       y       z    vdW   Elec        q     RMS 
ATOM      1  C   UNL d   1      18.084  35.568  33.181 -0.10 +0.01    +0.064    30.278
ATOM      2  C   UNL d   1      22.220  37.886  32.824 -0.09 +0.01    +0.064    30.278
ATOM      3  C   UNL d   1      20.806  39.852  28.705 -0.24 -0.01    +0.064    30.278
ATOM      4  C   UNL d   1      16.429  37.799  29.243 -0.28 -0.00    +0.064    30.278
ATOM      5  C   UNL d   1      19.332  36.028  33.367 -0.08 +0.02    +0.066    30.278
ATOM      6  C   UNL d   1      20.074  35.728  34.526 -0.08 -0.01    -0.021    30.278
ATOM      7  C   UNL d   1      21.264  36.422  34.428 -0.08 -0.01    -0.025    30.278
ATOM      8  C   UNL d   1      21.204  37.102  33.207 -0.04 +0.02    +0.066    30.278
ATOM      9  C   UNL d   1      22.422  36.453  35.437 -0.04 +0.01    +0.051    30.278
ATOM     10  C   UNL d   1      22.259  38.604  31.574 -0.10 +0.00    +0.066    30.278
ATOM     11  C   UNL d   1      23.351  39.329  31.051 -0.11 +0.00    -0.021    30.278
ATOM     12  C   UNL d   1      22.913  39.889  29.848 -0.20 -0.00    +0.000    30.278
ATOM     13  C   UNL d   1      21.593  39.454  29.720 -0.17 -0.00    +0.070    30.278
ATOM     14  C   UNL d   1      24.741  39.391  31.632 -0.13 -0.01    +0.052    30.278
ATOM     15  C   UNL d   1      19.413  39.544  28.447 -0.23 +0.00    +0.066    30.278
ATOM     16  C   UNL d   1      18.616  40.104  27.459 -0.27 +0.00    -0.021    30.278
ATOM     17  C   UNL d   1      17.351  39.517  27.611 -0.26 -0.00    +0.000    30.278
ATOM     18  C   UNL d   1      17.482  38.629  28.674 -0.19 +0.01    +0.070    30.278
ATOM     19  C   UNL d   1      19.066  41.136  26.448 -0.37 -0.01    +0.052    30.278
ATOM     20  C   UNL d   1      16.510  36.993  30.329 -0.23 +0.00    +0.066    30.278
ATOM     21  C   UNL d   1      15.417  36.271  30.802 -0.18 +0.00    -0.025    30.278
ATOM     22  C   UNL d   1      15.872  35.595  31.920 -0.12 -0.00    -0.021    30.278
ATOM     23  C   UNL d   1      17.227  35.951  32.081 -0.13 +0.01    +0.066    30.278
ATOM     24  C   UNL d   1      14.002  36.241  30.230 -0.18 -0.01    +0.051    30.278
ATOM     25  N   UNL d   1      20.021  36.872  32.526 -0.01 -0.07    -0.248    30.278
ATOM     26  N   UNL d   1      21.218  38.632  30.735 -0.10 -0.02    -0.248    30.278
ATOM     27  N   UNL d   1      18.715  38.694  29.166 -0.12 -0.04    -0.248    30.278
ATOM     28  N   UNL d   1      17.617  36.799  31.122 -0.12 -0.04    -0.248    30.278
ATOM     29 FE   UNL d   1      19.326  37.835  30.746 -0.05 +0.00    +0.000    30.278
ATOM     30  C   UNL d   1      19.614  34.877  35.705 -0.04 +0.01    +0.052    30.278
ATOM     31  C   UNL d   1      20.066  33.428  35.530 -0.05 +0.04    +0.115    30.278
ATOM     32  C   UNL d   1      20.861  33.220  34.259 -0.05 +0.14    +0.139    30.278
ATOM     33  O   UNL d   1      22.057  33.470  34.251 -0.44 -0.73    -0.650    30.278
ATOM     34  O   UNL d   1      20.299  32.718  33.135 -0.14 -1.41    -0.776    30.278
ATOM     35  H   UNL d   1      19.375  32.440  33.067 +0.01 +0.17    +0.167    30.278
ATOM     36  C   UNL d   1      18.676  39.399  31.981 -0.04 +0.01    +0.190    30.278
ATOM     37  O   UNL d   1      18.726  39.876  33.295 -0.00 -0.01    -0.399    30.278
ATOM     38  H   UNL d   1      19.202  39.164  33.808 +0.01 +0.01    +0.209    30.278
ATOM     39  C   UNL d   1      15.027  34.710  32.817 -0.06 +0.00    +0.052    30.278
ATOM     40  C   UNL d   1      15.778  33.413  33.162 -0.05 +0.01    +0.115    30.278
ATOM     41  C   UNL d   1      16.395  32.713  31.970 -0.13 +0.02    +0.139    30.278
ATOM     42  O   UNL d   1      15.668  32.150  31.164 -0.00 -0.05    -0.650    30.278
ATOM     43  O   UNL d   1      17.723  32.766  31.724 +0.00 -0.31    -0.776    30.278
ATOM     44  H   UNL d   1      18.345  33.203  32.320 +0.03 +0.09    +0.167    30.278
ATOM     45  C   UNL d   1      23.590  40.763  28.801 -0.32 -0.00    +0.004    30.278
ATOM     46  C   UNL d   1      24.814  41.284  28.769 -0.38 -0.00    +0.012    30.278
ATOM     47  C   UNL d   1      16.081  39.781  26.871 -0.32 -0.00    +0.004    30.278
ATOM     48  C   UNL d   1      16.039  40.146  25.587 -0.40 -0.00    +0.012    30.278
TER
ENDMDL
MODEL       39
USER    Run = 39
USER    Cluster Rank = 23
USER    Number of conformations in this cluster = 2
USER  
USER    RMSD from reference structure       = 26.947 A
USER  
USER    Estimated Free Energy of Binding    =   -5.00 kcal/mol  [=(1)+(2)+(3)-(4)]
USER    Estimated Inhibition Constant, Ki   =  216.56 uM (micromolar)  [Temperature = 298.15 K]
USER    
USER    (1) Final Intermolecular Energy     =   -8.58 kcal/mol
USER        vdW + Hbond + desolv Energy     =   -7.33 kcal/mol
USER        Electrostatic Energy            =   -1.25 kcal/mol
USER    (2) Final Total Internal Energy     =   -1.92 kcal/mol
USER    (3) Torsional Free Energy           =   +3.58 kcal/mol
USER    (4) Unbound System's Energy  [=(2)] =   -1.92 kcal/mol
USER    
USER    
USER  
USER    DPF = D:/Protein_go_brrr/autodock/final/2DN3/heme_Co/dock.dpf
USER    NEWDPF move	heme_Co_opt.pdbqt
USER    NEWDPF about	8.781000 34.984000 -0.736000
USER    NEWDPF tran0	39.779696 30.132480 -0.465821
USER    NEWDPF axisangle0	-0.978106 0.102294 0.181228 -121.605340
USER    NEWDPF quaternion0	-0.853833 0.089297 0.158202 -0.487819
USER    NEWDPF dihe0	20.74 153.71 138.97 45.73 43.14 71.88 129.14 -28.88 14.63 -160.48 148.00 164.49 
USER  
USER                              x       y       z    vdW   Elec        q     RMS 
ATOM      1  C   UNL d   1      37.975  29.143   0.227 -0.20 +0.01    +0.064    26.947
ATOM      2  C   UNL d   1      39.283  33.714   0.147 -0.30 +0.01    +0.064    26.947
ATOM      3  C   UNL d   1      43.611  32.486  -1.462 -0.17 -0.00    +0.064    26.947
ATOM      4  C   UNL d   1      42.172  27.849  -1.756 -0.19 +0.01    +0.064    26.947
ATOM      5  C   UNL d   1      38.027  30.479   0.358 -0.25 +0.01    +0.066    26.947
ATOM      6  C   UNL d   1      36.904  31.236   0.747 -0.21 -0.00    -0.021    26.947
ATOM      7  C   UNL d   1      37.283  32.563   0.700 -0.20 -0.00    -0.025    26.947
ATOM      8  C   UNL d   1      38.624  32.559   0.301 -0.22 +0.01    +0.066    26.947
ATOM      9  C   UNL d   1      36.427  33.799   1.015 -0.24 +0.00    +0.051    26.947
ATOM     10  C   UNL d   1      40.670  33.807  -0.234 -0.25 +0.01    +0.066    26.947
ATOM     11  C   UNL d   1      41.457  34.979  -0.276 -0.23 -0.00    -0.021    26.947
ATOM     12  C   UNL d   1      42.716  34.591  -0.745 -0.12 +0.00    +0.000    26.947
ATOM     13  C   UNL d   1      42.608  33.214  -0.941 -0.19 +0.00    +0.070    26.947
ATOM     14  C   UNL d   1      41.043  36.349   0.196 -0.22 +0.01    +0.052    26.947
ATOM     15  C   UNL d   1      43.653  31.072  -1.779 -0.25 +0.00    +0.066    26.947
ATOM     16  C   UNL d   1      44.671  30.409  -2.451 -0.21 +0.00    -0.021    26.947
ATOM     17  C   UNL d   1      44.259  29.072  -2.540 -0.23 +0.00    +0.000    26.947
ATOM     18  C   UNL d   1      43.026  29.021  -1.899 -0.24 +0.01    +0.070    26.947
ATOM     19  C   UNL d   1      45.944  31.046  -2.963 -0.16 -0.00    +0.052    26.947
ATOM     20  C   UNL d   1      40.932  27.793  -1.214 -0.16 +0.01    +0.066    26.947
ATOM     21  C   UNL d   1      40.193  26.613  -1.166 -0.18 -0.00    -0.025    26.947
ATOM     22  C   UNL d   1      38.990  26.950  -0.573 -0.21 -0.00    -0.021    26.947
ATOM     23  C   UNL d   1      39.050  28.332  -0.297 -0.22 +0.01    +0.066    26.947
ATOM     24  C   UNL d   1      40.605  25.235  -1.679 -0.12 +0.01    +0.051    26.947
ATOM     25  N   UNL d   1      39.112  31.281   0.087 -0.18 -0.01    -0.248    26.947
ATOM     26  N   UNL d   1      41.389  32.733  -0.579 -0.17 -0.01    -0.248    26.947
ATOM     27  N   UNL d   1      42.683  30.236  -1.485 -0.18 -0.01    -0.248    26.947
ATOM     28  N   UNL d   1      40.223  28.847  -0.686 -0.14 -0.02    -0.248    26.947
ATOM     29 FE   UNL d   1      41.003  30.724  -0.745 -0.05 +0.00    +0.000    26.947
ATOM     30  C   UNL d   1      35.512  30.700   1.066 -0.21 +0.01    +0.052    26.947
ATOM     31  C   UNL d   1      34.451  31.445   0.256 -0.08 +0.03    +0.115    26.947
ATOM     32  C   UNL d   1      33.048  31.172   0.754 -0.11 +0.10    +0.139    26.947
ATOM     33  O   UNL d   1      32.883  30.417   1.701 -0.00 -0.50    -0.650    26.947
ATOM     34  O   UNL d   1      31.965  31.776   0.214 -0.22 -0.97    -0.776    26.947
ATOM     35  H   UNL d   1      31.963  32.226  -0.643 +0.01 +0.13    +0.167    26.947
ATOM     36  C   UNL d   1      40.141  31.047  -2.629 -0.03 +0.01    +0.190    26.947
ATOM     37  O   UNL d   1      39.346  30.444  -3.609 +0.00 -0.03    -0.399    26.947
ATOM     38  H   UNL d   1      38.636  29.961  -3.101 +0.02 +0.02    +0.209    26.947
ATOM     39  C   UNL d   1      37.826  26.003  -0.347 -0.13 +0.00    +0.052    26.947
ATOM     40  C   UNL d   1      36.823  26.089  -1.510 -0.08 +0.00    +0.115    26.947
ATOM     41  C   UNL d   1      37.349  26.804  -2.737 -0.03 +0.01    +0.139    26.947
ATOM     42  O   UNL d   1      37.594  26.159  -3.746 +0.01 -0.04    -0.650    26.947
ATOM     43  O   UNL d   1      37.472  28.149  -2.776 +0.03 -0.06    -0.776    26.947
ATOM     44  H   UNL d   1      38.186  28.591  -3.253 +0.01 +0.01    +0.167    26.947
ATOM     45  C   UNL d   1      44.006  35.356  -1.010 -0.17 +0.00    +0.004    26.947
ATOM     46  C   UNL d   1      44.565  36.366  -0.349 -0.17 +0.00    +0.012    26.947
ATOM     47  C   UNL d   1      44.920  27.913  -3.213 -0.26 +0.00    +0.004    26.947
ATOM     48  C   UNL d   1      46.224  27.872  -3.497 -0.23 +0.00    +0.012    26.947
TER
ENDMDL
MODEL       81
USER    Run = 81
USER    Cluster Rank = 24
USER    Number of conformations in this cluster = 1
USER  
USER    RMSD from reference structure       = 13.436 A
USER  
USER    Estimated Free Energy of Binding    =   -4.86 kcal/mol  [=(1)+(2)+(3)-(4)]
USER    Estimated Inhibition Constant, Ki   =  275.90 uM (micromolar)  [Temperature = 298.15 K]
USER    
USER    (1) Final Intermolecular Energy     =   -8.44 kcal/mol
USER        vdW + Hbond + desolv Energy     =   -8.03 kcal/mol
USER        Electrostatic Energy            =   -0.40 kcal/mol
USER    (2) Final Total Internal Energy     =   -2.20 kcal/mol
USER    (3) Torsional Free Energy           =   +3.58 kcal/mol
USER    (4) Unbound System's Energy  [=(2)] =   -2.20 kcal/mol
USER    
USER    
USER  
USER    DPF = D:/Protein_go_brrr/autodock/final/2DN3/heme_Co/dock.dpf
USER    NEWDPF move	heme_Co_opt.pdbqt
USER    NEWDPF about	8.781000 34.984000 -0.736000
USER    NEWDPF tran0	25.360379 37.261119 -3.964595
USER    NEWDPF axisangle0	-0.828086 0.062646 -0.557090 -154.274224
USER    NEWDPF quaternion0	-0.807306 0.061074 -0.543110 -0.222619
USER    NEWDPF dihe0	-172.92 110.54 153.64 116.63 64.62 133.24 39.48 -27.49 166.58 37.31 -164.11 22.42 
USER  
USER                              x       y       z    vdW   Elec        q     RMS 
ATOM      1  C   UNL d   1      23.884  37.225  -5.557 -0.18 +0.00    +0.064    13.436
ATOM      2  C   UNL d   1      27.387  40.268  -4.516 -0.15 +0.01    +0.064    13.436
ATOM      3  C   UNL d   1      28.347  37.850  -0.508 -0.13 +0.01    +0.064    13.436
ATOM      4  C   UNL d   1      25.033  34.511  -1.744 -0.29 -0.00    +0.064    13.436
ATOM      5  C   UNL d   1      24.747  38.255  -5.548 -0.19 +0.01    +0.066    13.436
ATOM      6  C   UNL d   1      24.827  39.171  -6.615 -0.15 -0.00    -0.021    13.436
ATOM      7  C   UNL d   1      25.861  40.038  -6.318 -0.12 -0.00    -0.025    13.436
ATOM      8  C   UNL d   1      26.355  39.624  -5.077 -0.17 +0.01    +0.066    13.436
ATOM      9  C   UNL d   1      26.375  41.215  -7.161 -0.06 +0.01    +0.051    13.436
ATOM     10  C   UNL d   1      27.946  39.930  -3.231 -0.14 +0.01    +0.066    13.436
ATOM     11  C   UNL d   1      28.934  40.651  -2.525 -0.10 -0.00    -0.021    13.436
ATOM     12  C   UNL d   1      29.192  39.926  -1.358 -0.11 +0.00    +0.000    13.436
ATOM     13  C   UNL d   1      28.336  38.827  -1.432 -0.11 +0.01    +0.070    13.436
ATOM     14  C   UNL d   1      29.509  41.990  -2.912 -0.04 +0.01    +0.052    13.436
ATOM     15  C   UNL d   1      27.573  36.625  -0.456 -0.09 +0.01    +0.066    13.436
ATOM     16  C   UNL d   1      27.736  35.587   0.451 -0.18 -0.01    -0.021    13.436
ATOM     17  C   UNL d   1      26.784  34.620   0.097 -0.25 +0.00    +0.000    13.436
ATOM     18  C   UNL d   1      26.101  35.155  -0.991 -0.20 +0.01    +0.070    13.436
ATOM     19  C   UNL d   1      28.750  35.553   1.572 -0.16 +0.02    +0.052    13.436
ATOM     20  C   UNL d   1      24.414  34.973  -2.857 -0.30 -0.01    +0.066    13.436
ATOM     21  C   UNL d   1      23.424  34.245  -3.514 -0.38 +0.00    -0.025    13.436
ATOM     22  C   UNL d   1      23.053  35.016  -4.601 -0.31 +0.00    -0.021    13.436
ATOM     23  C   UNL d   1      23.851  36.180  -4.559 -0.21 -0.00    +0.066    13.436
ATOM     24  C   UNL d   1      22.871  32.874  -3.137 -0.40 -0.03    +0.051    13.436
ATOM     25  N   UNL d   1      25.680  38.525  -4.574 -0.19 -0.03    -0.248    13.436
ATOM     26  N   UNL d   1      27.544  38.860  -2.537 -0.12 -0.03    -0.248    13.436
ATOM     27  N   UNL d   1      26.618  36.336  -1.311 -0.06 -0.02    -0.248    13.436
ATOM     28  N   UNL d   1      24.677  36.157  -3.507 -0.18 +0.02    -0.248    13.436
ATOM     29 FE   UNL d   1      26.174  37.363  -2.846 -0.06 +0.00    +0.000    13.436
ATOM     30  C   UNL d   1      23.997  39.153  -7.894 -0.10 +0.01    +0.052    13.436
ATOM     31  C   UNL d   1      24.557  38.131  -8.884 -0.02 +0.02    +0.115    13.436
ATOM     32  C   UNL d   1      25.957  37.684  -8.521 -0.01 +0.01    +0.139    13.436
ATOM     33  O   UNL d   1      26.917  38.295  -8.966 +0.01 -0.05    -0.650    13.436
ATOM     34  O   UNL d   1      26.184  36.651  -7.676 +0.03 -0.04    -0.776    13.436
ATOM     35  H   UNL d   1      27.063  36.365  -7.392 +0.01 +0.01    +0.167    13.436
ATOM     36  C   UNL d   1      27.554  36.354  -4.059 -0.06 +0.01    +0.190    13.436
ATOM     37  O   UNL d   1      27.860  36.058  -5.391 -0.00 -0.02    -0.399    13.436
ATOM     38  H   UNL d   1      27.119  36.467  -5.921 +0.02 +0.01    +0.209    13.436
ATOM     39  C   UNL d   1      22.035  34.621  -5.654 -0.27 +0.00    +0.052    13.436
ATOM     40  C   UNL d   1      20.924  35.679  -5.759 -0.34 +0.02    +0.115    13.436
ATOM     41  C   UNL d   1      19.567  35.124  -6.138 -0.34 +0.04    +0.139    13.436
ATOM     42  O   UNL d   1      18.669  35.121  -5.307 -0.50 -0.24    -0.650    13.436
ATOM     43  O   UNL d   1      19.294  34.712  -7.396 -0.28 -0.19    -0.776    13.436
ATOM     44  H   UNL d   1      18.565  34.112  -7.599 -0.29 +0.00    +0.167    13.436
ATOM     45  C   UNL d   1      30.130  40.154  -0.180 -0.08 +0.00    +0.004    13.436
ATOM     46  C   UNL d   1      29.871  40.504   1.077 -0.12 +0.00    +0.012    13.436
ATOM     47  C   UNL d   1      26.537  33.267   0.677 -0.33 +0.00    +0.004    13.436
ATOM     48  C   UNL d   1      26.529  33.017   1.989 -0.31 +0.00    +0.012    13.436
TER
ENDMDL
MODEL       66
USER    Run = 66
USER    Cluster Rank = 25
USER    Number of conformations in this cluster = 1
USER  
USER    RMSD from reference structure       = 39.327 A
USER  
USER    Estimated Free Energy of Binding    =   -4.85 kcal/mol  [=(1)+(2)+(3)-(4)]
USER    Estimated Inhibition Constant, Ki   =  277.76 uM (micromolar)  [Temperature = 298.15 K]
USER    
USER    (1) Final Intermolecular Energy     =   -8.43 kcal/mol
USER        vdW + Hbond + desolv Energy     =   -6.94 kcal/mol
USER        Electrostatic Energy            =   -1.49 kcal/mol
USER    (2) Final Total Internal Energy     =   -2.62 kcal/mol
USER    (3) Torsional Free Energy           =   +3.58 kcal/mol
USER    (4) Unbound System's Energy  [=(2)] =   -2.62 kcal/mol
USER    
USER    
USER  
USER    DPF = D:/Protein_go_brrr/autodock/final/2DN3/heme_Co/dock.dpf
USER    NEWDPF move	heme_Co_opt.pdbqt
USER    NEWDPF about	8.781000 34.984000 -0.736000
USER    NEWDPF tran0	46.869849 25.244718 19.426041
USER    NEWDPF axisangle0	0.363803 0.893167 -0.264386 -168.772778
USER    NEWDPF quaternion0	0.362058 0.888884 -0.263118 -0.097819
USER    NEWDPF dihe0	90.06 69.88 -59.76 -64.52 87.09 143.69 18.70 -22.04 179.62 -173.56 -179.00 163.94 
USER  
USER                              x       y       z    vdW   Elec        q     RMS 
ATOM      1  C   UNL d   1      48.622  24.856  20.649 -0.01 +0.03    +0.064    39.327
ATOM      2  C   UNL d   1      45.806  21.995  18.100 -0.25 +0.06    +0.064    39.327
ATOM      3  C   UNL d   1      42.918  25.668  17.099 -0.28 +0.02    +0.064    39.327
ATOM      4  C   UNL d   1      45.984  28.682  19.374 -0.16 +0.04    +0.064    39.327
ATOM      5  C   UNL d   1      48.045  23.797  20.056 -0.04 +0.04    +0.066    39.327
ATOM      6  C   UNL d   1      48.640  22.521  20.062 -0.04 -0.01    -0.021    39.327
ATOM      7  C   UNL d   1      47.831  21.700  19.301 -0.10 -0.02    -0.025    39.327
ATOM      8  C   UNL d   1      46.768  22.506  18.878 -0.16 +0.05    +0.066    39.327
ATOM      9  C   UNL d   1      48.037  20.213  18.976 -0.09 +0.04    +0.051    39.327
ATOM     10  C   UNL d   1      44.661  22.740  17.638 -0.25 +0.05    +0.066    39.327
ATOM     11  C   UNL d   1      43.547  22.227  16.937 -0.34 -0.01    -0.021    39.327
ATOM     12  C   UNL d   1      42.719  23.319  16.662 -0.40 +0.00    +0.000    39.327
ATOM     13  C   UNL d   1      43.380  24.411  17.224 -0.27 +0.03    +0.070    39.327
ATOM     14  C   UNL d   1      43.268  20.775  16.646 -0.33 +0.01    +0.052    39.327
ATOM     15  C   UNL d   1      43.496  26.912  17.569 -0.26 +0.03    +0.066    39.327
ATOM     16  C   UNL d   1      43.041  28.191  17.281 -0.28 -0.01    -0.021    39.327
ATOM     17  C   UNL d   1      43.924  29.064  17.933 -0.27 +0.00    +0.000    39.327
ATOM     18  C   UNL d   1      44.841  28.245  18.583 -0.19 +0.03    +0.070    39.327
ATOM     19  C   UNL d   1      41.835  28.522  16.430 -0.23 +0.02    +0.052    39.327
ATOM     20  C   UNL d   1      46.938  27.907  19.944 -0.10 +0.05    +0.066    39.327
ATOM     21  C   UNL d   1      48.010  28.446  20.651 -0.07 -0.02    -0.025    39.327
ATOM     22  C   UNL d   1      48.772  27.365  21.055 -0.03 -0.01    -0.021    39.327
ATOM     23  C   UNL d   1      48.127  26.211  20.560 -0.03 +0.04    +0.066    39.327
ATOM     24  C   UNL d   1      48.306  29.920  20.912 -0.09 +0.04    +0.051    39.327
ATOM     25  N   UNL d   1      46.872  23.809  19.336 -0.06 -0.16    -0.248    39.327
ATOM     26  N   UNL d   1      44.526  24.051  17.862 -0.15 -0.14    -0.248    39.327
ATOM     27  N   UNL d   1      44.573  26.970  18.319 -0.13 -0.12    -0.248    39.327
ATOM     28  N   UNL d   1      47.018  26.535  19.885 -0.03 -0.16    -0.248    39.327
ATOM     29 FE   UNL d   1      45.656  25.485  18.800 -0.04 +0.00    +0.000    39.327
ATOM     30  C   UNL d   1      49.971  22.141  20.704 -0.01 +0.02    +0.052    39.327
ATOM     31  C   UNL d   1      51.101  22.208  19.677 -0.02 +0.05    +0.115    39.327
ATOM     32  C   UNL d   1      50.605  22.575  18.295 -0.06 +0.10    +0.139    39.327
ATOM     33  O   UNL d   1      50.630  21.738  17.405 +0.03 -0.64    -0.650    39.327
ATOM     34  O   UNL d   1      50.085  23.794  18.020 +0.00 -0.60    -0.776    39.327
ATOM     35  H   UNL d   1      50.612  24.567  17.773 +0.02 +0.10    +0.167    39.327
ATOM     36  C   UNL d   1      46.851  25.661  17.087 -0.24 +0.14    +0.190    39.327
ATOM     37  O   UNL d   1      48.034  25.198  16.501 -0.13 -0.41    -0.399    39.327
ATOM     38  H   UNL d   1      48.706  25.205  17.239 +0.04 +0.17    +0.209    39.327
ATOM     39  C   UNL d   1      50.080  27.447  21.819 -0.01 +0.02    +0.052    39.327
ATOM     40  C   UNL d   1      51.276  27.408  20.852 -0.00 +0.04    +0.115    39.327
ATOM     41  C   UNL d   1      50.894  27.320  19.389 -0.02 +0.05    +0.139    39.327
ATOM     42  O   UNL d   1      51.184  28.241  18.639 +0.01 -0.19    -0.650    39.327
ATOM     43  O   UNL d   1      50.318  26.213  18.871 +0.03 -0.33    -0.776    39.327
ATOM     44  H   UNL d   1      50.704  25.332  18.969 +0.02 +0.07    +0.167    39.327
ATOM     45  C   UNL d   1      41.378  23.452  15.952 -0.58 +0.00    +0.004    39.327
ATOM     46  C   UNL d   1      41.070  23.372  14.661 -0.53 +0.00    +0.012    39.327
ATOM     47  C   UNL d   1      43.967  30.557  17.927 -0.36 +0.00    +0.004    39.327
ATOM     48  C   UNL d   1      43.008  31.324  18.452 -0.45 +0.00    +0.012    39.327
TER
ENDMDL
MODEL       15
USER    Run = 15
USER    Cluster Rank = 26
USER    Number of conformations in this cluster = 1
USER  
USER    RMSD from reference structure       = 24.093 A
USER  
USER    Estimated Free Energy of Binding    =   -4.48 kcal/mol  [=(1)+(2)+(3)-(4)]
USER    Estimated Inhibition Constant, Ki   =  520.18 uM (micromolar)  [Temperature = 298.15 K]
USER    
USER    (1) Final Intermolecular Energy     =   -8.06 kcal/mol
USER        vdW + Hbond + desolv Energy     =   -8.35 kcal/mol
USER        Electrostatic Energy            =   +0.29 kcal/mol
USER    (2) Final Total Internal Energy     =   -2.80 kcal/mol
USER    (3) Torsional Free Energy           =   +3.58 kcal/mol
USER    (4) Unbound System's Energy  [=(2)] =   -2.80 kcal/mol
USER    
USER    
USER  
USER    DPF = D:/Protein_go_brrr/autodock/final/2DN3/heme_Co/dock.dpf
USER    NEWDPF move	heme_Co_opt.pdbqt
USER    NEWDPF about	8.781000 34.984000 -0.736000
USER    NEWDPF tran0	11.828224 39.720073 24.840242
USER    NEWDPF axisangle0	-0.130512 0.491939 0.860792 -58.563925
USER    NEWDPF quaternion0	-0.063834 0.240611 0.421020 -0.872223
USER    NEWDPF dihe0	16.45 83.59 -110.12 62.39 82.49 157.81 39.21 -165.86 -145.95 76.69 -178.71 -176.93 
USER  
USER                              x       y       z    vdW   Elec        q     RMS 
ATOM      1  C   UNL d   1      10.110  38.410  25.057 -0.24 -0.02    +0.064    24.093
ATOM      2  C   UNL d   1      14.180  38.773  27.491 -0.26 -0.02    +0.064    24.093
ATOM      3  C   UNL d   1      15.774  42.056  24.407 -0.28 -0.02    +0.064    24.093
ATOM      4  C   UNL d   1      11.476  41.985  22.129 -0.23 -0.02    +0.064    24.093
ATOM      5  C   UNL d   1      11.120  38.241  25.928 -0.27 -0.03    +0.066    24.093
ATOM      6  C   UNL d   1      11.008  37.393  27.047 -0.22 +0.01    -0.021    24.093
ATOM      7  C   UNL d   1      12.183  37.520  27.761 -0.15 +0.02    -0.025    24.093
ATOM      8  C   UNL d   1      12.967  38.426  27.040 -0.27 -0.03    +0.066    24.093
ATOM      9  C   UNL d   1      12.567  36.821  29.075 -0.10 -0.03    +0.051    24.093
ATOM     10  C   UNL d   1      15.068  39.677  26.804 -0.25 -0.02    +0.066    24.093
ATOM     11  C   UNL d   1      16.404  39.972  27.150 -0.26 +0.00    -0.021    24.093
ATOM     12  C   UNL d   1      16.846  40.929  26.232 -0.30 -0.00    +0.000    24.093
ATOM     13  C   UNL d   1      15.754  41.137  25.389 -0.30 -0.02    +0.070    24.093
ATOM     14  C   UNL d   1      17.215  39.302  28.229 -0.27 +0.00    +0.052    24.093
ATOM     15  C   UNL d   1      14.725  42.436  23.482 -0.29 -0.02    +0.066    24.093
ATOM     16  C   UNL d   1      14.762  43.495  22.586 -0.35 +0.01    -0.021    24.093
ATOM     17  C   UNL d   1      13.523  43.481  21.928 -0.31 -0.00    +0.000    24.093
ATOM     18  C   UNL d   1      12.833  42.399  22.465 -0.25 -0.02    +0.070    24.093
ATOM     19  C   UNL d   1      15.924  44.444  22.397 -0.32 -0.01    +0.052    24.093
ATOM     20  C   UNL d   1      10.753  40.991  22.698 -0.22 -0.02    +0.066    24.093
ATOM     21  C   UNL d   1       9.444  40.710  22.314 -0.21 +0.01    -0.025    24.093
ATOM     22  C   UNL d   1       9.034  39.665  23.121 -0.25 +0.00    -0.021    24.093
ATOM     23  C   UNL d   1      10.118  39.365  23.973 -0.26 -0.02    +0.066    24.093
ATOM     24  C   UNL d   1       8.616  41.416  21.244 -0.23 -0.02    +0.051    24.093
ATOM     25  N   UNL d   1      12.336  38.885  25.897 -0.20 +0.12    -0.248    24.093
ATOM     26  N   UNL d   1      14.699  40.338  25.701 -0.13 +0.10    -0.248    24.093
ATOM     27  N   UNL d   1      13.567  41.819  23.408 -0.01 +0.10    -0.248    24.093
ATOM     28  N   UNL d   1      11.160  40.167  23.722 -0.01 +0.10    -0.248    24.093
ATOM     29 FE   UNL d   1      12.985  40.439  24.577 +0.00 -0.00    +0.000    24.093
ATOM     30  C   UNL d   1       9.789  36.566  27.443 -0.27 -0.02    +0.052    24.093
ATOM     31  C   UNL d   1       8.927  37.329  28.449 -0.10 -0.01    +0.115    24.093
ATOM     32  C   UNL d   1       8.975  38.826  28.232 -0.03 -0.02    +0.139    24.093
ATOM     33  O   UNL d   1       9.821  39.491  28.811 +0.03 +0.08    -0.650    24.093
ATOM     34  O   UNL d   1       8.137  39.454  27.374 +0.04 +0.08    -0.776    24.093
ATOM     35  H   UNL d   1       7.356  39.043  26.978 +0.03 -0.01    +0.167    24.093
ATOM     36  C   UNL d   1      12.165  41.794  25.951 -0.07 -0.04    +0.190    24.093
ATOM     37  O   UNL d   1      11.530  41.873  27.194 -0.00 +0.06    -0.399    24.093
ATOM     38  H   UNL d   1      11.030  41.013  27.282 +0.03 -0.03    +0.209    24.093
ATOM     39  C   UNL d   1       7.653  39.037  23.114 -0.20 -0.02    +0.052    24.093
ATOM     40  C   UNL d   1       6.636  39.953  23.815 -0.12 -0.02    +0.115    24.093
ATOM     41  C   UNL d   1       6.160  39.444  25.159 -0.08 -0.02    +0.139    24.093
ATOM     42  O   UNL d   1       6.150  38.240  25.374 -0.02 +0.07    -0.650    24.093
ATOM     43  O   UNL d   1       5.826  40.288  26.161 +0.03 +0.07    -0.776    24.093
ATOM     44  H   UNL d   1       6.403  40.447  26.919 +0.01 -0.01    +0.167    24.093
ATOM     45  C   UNL d   1      18.173  41.653  26.044 -0.29 -0.00    +0.004    24.093
ATOM     46  C   UNL d   1      19.407  41.176  25.905 -0.41 -0.00    +0.012    24.093
ATOM     47  C   UNL d   1      12.974  44.422  20.907 -0.24 -0.00    +0.004    24.093
ATOM     48  C   UNL d   1      13.540  44.630  19.716 -0.24 -0.00    +0.012    24.093
TER
ENDMDL
MODEL        4
USER    Run = 4
USER    Cluster Rank = 27
USER    Number of conformations in this cluster = 1
USER  
USER    RMSD from reference structure       = 23.229 A
USER  
USER    Estimated Free Energy of Binding    =   -4.33 kcal/mol  [=(1)+(2)+(3)-(4)]
USER    Estimated Inhibition Constant, Ki   =  668.59 uM (micromolar)  [Temperature = 298.15 K]
USER    
USER    (1) Final Intermolecular Energy     =   -7.91 kcal/mol
USER        vdW + Hbond + desolv Energy     =   -6.35 kcal/mol
USER        Electrostatic Energy            =   -1.56 kcal/mol
USER    (2) Final Total Internal Energy     =   -2.09 kcal/mol
USER    (3) Torsional Free Energy           =   +3.58 kcal/mol
USER    (4) Unbound System's Energy  [=(2)] =   -2.09 kcal/mol
USER    
USER    
USER  
USER    DPF = D:/Protein_go_brrr/autodock/final/2DN3/heme_Co/dock.dpf
USER    NEWDPF move	heme_Co_opt.pdbqt
USER    NEWDPF about	8.781000 34.984000 -0.736000
USER    NEWDPF tran0	5.382478 21.589202 22.083800
USER    NEWDPF axisangle0	-0.460746 0.025667 0.887161 -144.189456
USER    NEWDPF quaternion0	-0.438431 0.024423 0.844192 -0.307444
USER    NEWDPF dihe0	-119.83 57.98 -49.29 143.07 -89.50 150.69 42.11 -81.36 145.18 -57.07 -152.28 -145.65 
USER  
USER                              x       y       z    vdW   Elec        q     RMS 
ATOM      1  C   UNL d   1       6.555  19.958  22.909 -0.25 +0.00    +0.064    23.229
ATOM      2  C   UNL d   1       4.747  23.899  24.860 -0.17 +0.00    +0.064    23.229
ATOM      3  C   UNL d   1       3.247  25.380  20.572 -0.12 +0.00    +0.064    23.229
ATOM      4  C   UNL d   1       4.743  21.185  18.615 -0.15 +0.00    +0.064    23.229
ATOM      5  C   UNL d   1       6.203  20.943  23.752 -0.22 -0.00    +0.066    23.229
ATOM      6  C   UNL d   1       6.411  20.848  25.141 -0.15 +0.00    -0.021    23.229
ATOM      7  C   UNL d   1       5.864  21.984  25.705 -0.15 +0.00    -0.025    23.229
ATOM      8  C   UNL d   1       5.360  22.731  24.635 -0.18 -0.00    +0.066    23.229
ATOM      9  C   UNL d   1       5.810  22.366  27.192 -0.09 -0.00    +0.051    23.229
ATOM     10  C   UNL d   1       4.220  24.749  23.821 -0.17 +0.00    +0.066    23.229
ATOM     11  C   UNL d   1       3.692  26.048  23.980 -0.19 -0.00    -0.021    23.229
ATOM     12  C   UNL d   1       3.266  26.458  22.713 -0.20 +0.00    +0.000    23.229
ATOM     13  C   UNL d   1       3.577  25.386  21.876 -0.16 +0.00    +0.070    23.229
ATOM     14  C   UNL d   1       3.692  26.862  25.248 -0.13 +0.00    +0.052    23.229
ATOM     15  C   UNL d   1       3.443  24.342  19.579 -0.08 +0.00    +0.066    23.229
ATOM     16  C   UNL d   1       2.949  24.340  18.282 -0.14 +0.00    -0.021    23.229
ATOM     17  C   UNL d   1       3.376  23.131  17.714 -0.20 -0.00    +0.000    23.229
ATOM     18  C   UNL d   1       4.114  22.496  18.708 -0.08 -0.00    +0.070    23.229
ATOM     19  C   UNL d   1       2.122  25.441  17.657 -0.12 -0.00    +0.052    23.229
ATOM     20  C   UNL d   1       5.392  20.510  19.595 -0.19 +0.00    +0.066    23.229
ATOM     21  C   UNL d   1       5.924  19.238  19.395 -0.20 -0.01    -0.025    23.229
ATOM     22  C   UNL d   1       6.478  18.871  20.608 -0.22 -0.00    -0.021    23.229
ATOM     23  C   UNL d   1       6.244  19.941  21.498 -0.26 +0.00    +0.066    23.229
ATOM     24  C   UNL d   1       5.889  18.405  18.117 -0.20 +0.02    +0.051    23.229
ATOM     25  N   UNL d   1       5.561  22.113  23.412 -0.13 +0.03    -0.248    23.229
ATOM     26  N   UNL d   1       4.204  24.377  22.536 -0.02 +0.00    -0.248    23.229
ATOM     27  N   UNL d   1       4.107  23.232  19.814 +0.06 +0.01    -0.248    23.229
ATOM     28  N   UNL d   1       5.585  20.934  20.889 -0.16 +0.01    -0.248    23.229
ATOM     29 FE   UNL d   1       4.793  22.703  21.505 -0.06 -0.00    +0.000    23.229
ATOM     30  C   UNL d   1       7.036  19.675  25.889 -0.11 +0.00    +0.052    23.229
ATOM     31  C   UNL d   1       6.120  18.452  25.830 -0.06 +0.00    +0.115    23.229
ATOM     32  C   UNL d   1       4.655  18.823  25.908 -0.01 +0.00    +0.139    23.229
ATOM     33  O   UNL d   1       4.122  18.938  27.001 +0.01 -0.01    -0.650    23.229
ATOM     34  O   UNL d   1       3.921  19.082  24.801 +0.03 -0.02    -0.776    23.229
ATOM     35  H   UNL d   1       3.431  19.903  24.653 +0.01 +0.00    +0.167    23.229
ATOM     36  C   UNL d   1       3.012  21.742  22.051 -0.05 -0.00    +0.190    23.229
ATOM     37  O   UNL d   1       2.427  20.968  23.059 +0.00 +0.00    -0.399    23.229
ATOM     38  H   UNL d   1       3.033  20.183  23.163 +0.02 +0.00    +0.209    23.229
ATOM     39  C   UNL d   1       7.136  17.537  20.906 -0.27 +0.02    +0.052    23.229
ATOM     40  C   UNL d   1       6.300  16.380  20.336 -0.16 +0.05    +0.115    23.229
ATOM     41  C   UNL d   1       7.005  15.565  19.272 -0.02 +0.15    +0.139    23.229
ATOM     42  O   UNL d   1       8.079  15.040  19.533 -0.07 -0.84    -0.650    23.229
ATOM     43  O   UNL d   1       6.440  15.328  18.068 -0.51 -1.09    -0.776    23.229
ATOM     44  H   UNL d   1       5.509  15.088  17.969 +0.02 +0.10    +0.167    23.229
ATOM     45  C   UNL d   1       2.622  27.738  22.198 -0.19 -0.00    +0.004    23.229
ATOM     46  C   UNL d   1       2.892  28.470  21.120 -0.22 -0.00    +0.012    23.229
ATOM     47  C   UNL d   1       3.090  22.557  16.366 -0.25 -0.00    +0.004    23.229
ATOM     48  C   UNL d   1       2.327  21.479  16.169 -0.21 -0.00    +0.012    23.229
TER
ENDMDL
MODEL       47
USER    Run = 47
USER    Cluster Rank = 28
USER    Number of conformations in this cluster = 1
USER  
USER    RMSD from reference structure       = 15.530 A
USER  
USER    Estimated Free Energy of Binding    =   -4.33 kcal/mol  [=(1)+(2)+(3)-(4)]
USER    Estimated Inhibition Constant, Ki   =  673.67 uM (micromolar)  [Temperature = 298.15 K]
USER    
USER    (1) Final Intermolecular Energy     =   -7.91 kcal/mol
USER        vdW + Hbond + desolv Energy     =   -7.49 kcal/mol
USER        Electrostatic Energy            =   -0.42 kcal/mol
USER    (2) Final Total Internal Energy     =   -2.15 kcal/mol
USER    (3) Torsional Free Energy           =   +3.58 kcal/mol
USER    (4) Unbound System's Energy  [=(2)] =   -2.15 kcal/mol
USER    
USER    
USER  
USER    DPF = D:/Protein_go_brrr/autodock/final/2DN3/heme_Co/dock.dpf
USER    NEWDPF move	heme_Co_opt.pdbqt
USER    NEWDPF about	8.781000 34.984000 -0.736000
USER    NEWDPF tran0	23.691366 46.178063 -2.817963
USER    NEWDPF axisangle0	-0.821615 -0.508714 -0.257214 -104.366599
USER    NEWDPF quaternion0	-0.649056 -0.401872 -0.203193 -0.613137
USER    NEWDPF dihe0	7.74 127.12 134.43 61.17 -25.75 95.15 122.04 -40.43 53.54 -151.47 -17.47 153.00 
USER  
USER                              x       y       z    vdW   Elec        q     RMS 
ATOM      1  C   UNL d   1      23.120  44.873  -4.457 -0.24 +0.01    +0.064    15.530
ATOM      2  C   UNL d   1      20.963  48.599  -2.440 -0.23 -0.01    +0.064    15.530
ATOM      3  C   UNL d   1      24.411  48.859   0.858 -0.10 +0.01    +0.064    15.530
ATOM      4  C   UNL d   1      26.831  45.301  -1.412 -0.13 +0.02    +0.064    15.530
ATOM      5  C   UNL d   1      22.259  45.849  -4.126 -0.24 +0.00    +0.066    15.530
ATOM      6  C   UNL d   1      21.128  46.145  -4.912 -0.28 +0.00    -0.021    15.530
ATOM      7  C   UNL d   1      20.518  47.242  -4.335 -0.26 +0.00    -0.025    15.530
ATOM      8  C   UNL d   1      21.293  47.558  -3.214 -0.25 -0.01    +0.066    15.530
ATOM      9  C   UNL d   1      19.254  47.975  -4.809 -0.22 -0.01    +0.051    15.530
ATOM     10  C   UNL d   1      21.685  48.984  -1.253 -0.19 -0.00    +0.066    15.530
ATOM     11  C   UNL d   1      21.310  49.978  -0.322 -0.23 +0.00    -0.021    15.530
ATOM     12  C   UNL d   1      22.331  50.029   0.631 -0.17 +0.00    +0.000    15.530
ATOM     13  C   UNL d   1      23.244  49.058   0.220 -0.12 +0.01    +0.070    15.530
ATOM     14  C   UNL d   1      20.013  50.746  -0.311 -0.34 -0.01    +0.052    15.530
ATOM     15  C   UNL d   1      25.487  47.940   0.541 -0.11 +0.02    +0.066    15.530
ATOM     16  C   UNL d   1      26.730  47.885   1.156 -0.12 -0.01    -0.021    15.530
ATOM     17  C   UNL d   1      27.432  46.863   0.503 -0.13 +0.00    +0.000    15.530
ATOM     18  C   UNL d   1      26.553  46.361  -0.451 -0.11 +0.02    +0.070    15.530
ATOM     19  C   UNL d   1      27.185  48.772   2.293 -0.13 +0.02    +0.052    15.530
ATOM     20  C   UNL d   1      26.024  44.856  -2.404 -0.19 +0.02    +0.066    15.530
ATOM     21  C   UNL d   1      26.417  43.854  -3.289 -0.18 -0.00    -0.025    15.530
ATOM     22  C   UNL d   1      25.355  43.689  -4.161 -0.24 -0.00    -0.021    15.530
ATOM     23  C   UNL d   1      24.365  44.614  -3.768 -0.28 +0.01    +0.066    15.530
ATOM     24  C   UNL d   1      27.746  43.105  -3.317 -0.11 +0.01    +0.051    15.530
ATOM     25  N   UNL d   1      22.375  46.708  -3.057 -0.15 -0.01    -0.248    15.530
ATOM     26  N   UNL d   1      22.825  48.388  -0.887 -0.09 -0.02    -0.248    15.530
ATOM     27  N   UNL d   1      25.416  47.046  -0.420 +0.08 -0.07    -0.248    15.530
ATOM     28  N   UNL d   1      24.766  45.324  -2.707 -0.17 -0.05    -0.248    15.530
ATOM     29 FE   UNL d   1      23.987  46.884  -1.661 -0.05 +0.00    +0.000    15.530
ATOM     30  C   UNL d   1      20.709  45.449  -6.203 -0.28 +0.00    +0.052    15.530
ATOM     31  C   UNL d   1      20.301  44.003  -5.925 -0.41 +0.01    +0.115    15.530
ATOM     32  C   UNL d   1      21.016  43.018  -6.826 -0.30 +0.03    +0.139    15.530
ATOM     33  O   UNL d   1      21.707  43.435  -7.743 -0.00 -0.12    -0.650    15.530
ATOM     34  O   UNL d   1      20.954  41.682  -6.620 +0.05 -0.18    -0.776    15.530
ATOM     35  H   UNL d   1      20.422  41.262  -5.930 -0.47 -0.02    +0.167    15.530
ATOM     36  C   UNL d   1      24.850  48.244  -3.003 -0.05 +0.02    +0.190    15.530
ATOM     37  O   UNL d   1      25.325  48.369  -4.313 -0.00 -0.03    -0.399    15.530
ATOM     38  H   UNL d   1      24.981  47.561  -4.788 +0.02 +0.02    +0.209    15.530
ATOM     39  C   UNL d   1      25.328  42.740  -5.344 -0.19 +0.01    +0.052    15.530
ATOM     40  C   UNL d   1      25.476  43.513  -6.664 -0.07 +0.01    +0.115    15.530
ATOM     41  C   UNL d   1      26.141  44.866  -6.525 -0.02 +0.01    +0.139    15.530
ATOM     42  O   UNL d   1      27.335  44.974  -6.767 +0.01 -0.07    -0.650    15.530
ATOM     43  O   UNL d   1      25.434  45.978  -6.224 +0.03 -0.07    -0.776    15.530
ATOM     44  H   UNL d   1      25.767  46.659  -5.626 +0.01 +0.02    +0.167    15.530
ATOM     45  C   UNL d   1      22.539  50.867   1.886 -0.19 -0.00    +0.004    15.530
ATOM     46  C   UNL d   1      21.745  51.068   2.934 -0.34 -0.00    +0.012    15.530
ATOM     47  C   UNL d   1      28.838  46.398   0.696 -0.14 +0.00    +0.004    15.530
ATOM     48  C   UNL d   1      29.885  47.224   0.767 -0.19 +0.01    +0.012    15.530
TER
ENDMDL
MODEL       64
USER    Run = 64
USER    Cluster Rank = 29
USER    Number of conformations in this cluster = 1
USER  
USER    RMSD from reference structure       = 26.129 A
USER  
USER    Estimated Free Energy of Binding    =   -4.28 kcal/mol  [=(1)+(2)+(3)-(4)]
USER    Estimated Inhibition Constant, Ki   =  723.89 uM (micromolar)  [Temperature = 298.15 K]
USER    
USER    (1) Final Intermolecular Energy     =   -7.86 kcal/mol
USER        vdW + Hbond + desolv Energy     =   -7.54 kcal/mol
USER        Electrostatic Energy            =   -0.32 kcal/mol
USER    (2) Final Total Internal Energy     =   -2.07 kcal/mol
USER    (3) Torsional Free Energy           =   +3.58 kcal/mol
USER    (4) Unbound System's Energy  [=(2)] =   -2.07 kcal/mol
USER    
USER    
USER  
USER    DPF = D:/Protein_go_brrr/autodock/final/2DN3/heme_Co/dock.dpf
USER    NEWDPF move	heme_Co_opt.pdbqt
USER    NEWDPF about	8.781000 34.984000 -0.736000
USER    NEWDPF tran0	38.316502 28.114949 -0.717202
USER    NEWDPF axisangle0	-0.624691 -0.697844 0.350392 -118.493173
USER    NEWDPF quaternion0	-0.536845 -0.599710 0.301119 -0.511344
USER    NEWDPF dihe0	159.38 114.55 -29.13 109.47 33.10 143.45 -130.03 -157.80 -136.06 -74.56 -179.93 -47.12 
USER  
USER                              x       y       z    vdW   Elec        q     RMS 
ATOM      1  C   UNL d   1      39.088  26.234  -1.481 -0.11 +0.00    +0.064    26.129
ATOM      2  C   UNL d   1      34.821  27.490   0.201 -0.18 +0.01    +0.064    26.129
ATOM      3  C   UNL d   1      36.496  31.822   1.322 -0.21 +0.01    +0.064    26.129
ATOM      4  C   UNL d   1      40.755  30.694  -0.740 -0.22 +0.00    +0.064    26.129
ATOM      5  C   UNL d   1      37.809  26.247  -1.071 -0.11 +0.00    +0.066    26.129
ATOM      6  C   UNL d   1      36.942  25.159  -1.293 -0.08 +0.00    -0.021    26.129
ATOM      7  C   UNL d   1      35.700  25.538  -0.823 -0.10 +0.00    -0.025    26.129
ATOM      8  C   UNL d   1      35.865  26.833  -0.321 -0.08 +0.00    +0.066    26.129
ATOM      9  C   UNL d   1      34.397  24.723  -0.841 -0.08 -0.01    +0.051    26.129
ATOM     10  C   UNL d   1      34.901  28.814   0.765 -0.12 +0.01    +0.066    26.129
ATOM     11  C   UNL d   1      33.877  29.502   1.452 -0.26 -0.01    -0.021    26.129
ATOM     12  C   UNL d   1      34.394  30.760   1.771 -0.25 +0.00    +0.000    26.129
ATOM     13  C   UNL d   1      35.695  30.743   1.268 -0.19 +0.01    +0.070    26.129
ATOM     14  C   UNL d   1      32.537  28.939   1.850 -0.35 +0.03    +0.052    26.129
ATOM     15  C   UNL d   1      37.841  31.995   0.809 -0.20 +0.01    +0.066    26.129
ATOM     16  C   UNL d   1      38.560  33.182   0.770 -0.25 -0.00    -0.021    26.129
ATOM     17  C   UNL d   1      39.788  32.862   0.173 -0.30 +0.00    +0.000    26.129
ATOM     18  C   UNL d   1      39.728  31.498  -0.089 -0.21 +0.00    +0.070    26.129
ATOM     19  C   UNL d   1      38.072  34.520   1.278 -0.28 +0.01    +0.052    26.129
ATOM     20  C   UNL d   1      40.685  29.386  -1.084 -0.20 +0.01    +0.066    26.129
ATOM     21  C   UNL d   1      41.726  28.732  -1.739 -0.20 -0.00    -0.025    26.129
ATOM     22  C   UNL d   1      41.285  27.437  -1.940 -0.16 -0.00    -0.021    26.129
ATOM     23  C   UNL d   1      39.982  27.368  -1.404 -0.15 +0.01    +0.066    26.129
ATOM     24  C   UNL d   1      43.068  29.318  -2.171 -0.25 +0.00    +0.051    26.129
ATOM     25  N   UNL d   1      37.163  27.295  -0.456 -0.07 -0.02    -0.248    26.129
ATOM     26  N   UNL d   1      36.019  29.546   0.710 -0.08 -0.04    -0.248    26.129
ATOM     27  N   UNL d   1      38.542  31.021   0.275 -0.18 -0.02    -0.248    26.129
ATOM     28  N   UNL d   1      39.614  28.546  -0.886 -0.12 -0.02    -0.248    26.129
ATOM     29 FE   UNL d   1      37.897  29.267  -0.070 -0.04 +0.00    +0.000    26.129
ATOM     30  C   UNL d   1      37.285  23.852  -1.999 -0.03 -0.00    +0.052    26.129
ATOM     31  C   UNL d   1      36.880  23.915  -3.472 -0.01 +0.00    +0.115    26.129
ATOM     32  C   UNL d   1      37.220  25.246  -4.107 -0.00 +0.01    +0.139    26.129
ATOM     33  O   UNL d   1      38.221  25.343  -4.801 +0.00 -0.04    -0.650    26.129
ATOM     34  O   UNL d   1      36.421  26.330  -3.973 +0.01 -0.04    -0.776    26.129
ATOM     35  H   UNL d   1      36.728  27.244  -4.047 +0.00 +0.01    +0.167    26.129
ATOM     36  C   UNL d   1      37.182  29.784  -1.972 -0.03 +0.02    +0.190    26.129
ATOM     37  O   UNL d   1      36.679  29.241  -3.158 -0.00 -0.04    -0.399    26.129
ATOM     38  H   UNL d   1      36.652  28.256  -2.998 +0.01 +0.02    +0.209    26.129
ATOM     39  C   UNL d   1      42.053  26.349  -2.667 -0.14 +0.01    +0.052    26.129
ATOM     40  C   UNL d   1      43.451  26.169  -2.053 -0.24 +0.02    +0.115    26.129
ATOM     41  C   UNL d   1      43.569  25.000  -1.099 -0.13 +0.03    +0.139    26.129
ATOM     42  O   UNL d   1      42.556  24.528  -0.602 -0.03 -0.14    -0.650    26.129
ATOM     43  O   UNL d   1      44.756  24.404  -0.847 -0.06 -0.19    -0.776    26.129
ATOM     44  H   UNL d   1      45.502  24.454  -1.460 -0.51 +0.02    +0.167    26.129
ATOM     45  C   UNL d   1      33.818  31.963   2.506 -0.29 +0.00    +0.004    26.129
ATOM     46  C   UNL d   1      34.000  32.383   3.756 -0.42 +0.00    +0.012    26.129
ATOM     47  C   UNL d   1      40.934  33.750  -0.186 -0.31 +0.00    +0.004    26.129
ATOM     48  C   UNL d   1      41.043  35.016   0.225 -0.34 +0.00    +0.012    26.129
TER
ENDMDL
MODEL       53
USER    Run = 53
USER    Cluster Rank = 30
USER    Number of conformations in this cluster = 1
USER  
USER    RMSD from reference structure       = 38.003 A
USER  
USER    Estimated Free Energy of Binding    =   -4.27 kcal/mol  [=(1)+(2)+(3)-(4)]
USER    Estimated Inhibition Constant, Ki   =  744.76 uM (micromolar)  [Temperature = 298.15 K]
USER    
USER    (1) Final Intermolecular Energy     =   -7.85 kcal/mol
USER        vdW + Hbond + desolv Energy     =   -6.71 kcal/mol
USER        Electrostatic Energy            =   -1.14 kcal/mol
USER    (2) Final Total Internal Energy     =   -1.98 kcal/mol
USER    (3) Torsional Free Energy           =   +3.58 kcal/mol
USER    (4) Unbound System's Energy  [=(2)] =   -1.98 kcal/mol
USER    
USER    
USER  
USER    DPF = D:/Protein_go_brrr/autodock/final/2DN3/heme_Co/dock.dpf
USER    NEWDPF move	heme_Co_opt.pdbqt
USER    NEWDPF about	8.781000 34.984000 -0.736000
USER    NEWDPF tran0	41.513725 44.452075 23.315197
USER    NEWDPF axisangle0	-0.205990 -0.680745 -0.702961 128.039215
USER    NEWDPF quaternion0	-0.185173 -0.611952 -0.631923 0.438064
USER    NEWDPF dihe0	83.93 88.81 91.74 20.90 -105.60 135.26 -134.09 -76.75 -124.61 -40.66 -172.98 180.00 
USER  
USER                              x       y       z    vdW   Elec        q     RMS 
ATOM      1  C   UNL d   1      41.756  42.489  24.212 -0.22 -0.01    +0.064    38.003
ATOM      2  C   UNL d   1      44.813  45.401  22.024 -0.08 +0.00    +0.064    38.003
ATOM      3  C   UNL d   1      41.255  48.416  20.984 -0.11 +0.01    +0.064    38.003
ATOM      4  C   UNL d   1      38.180  45.650  23.546 -0.22 +0.01    +0.064    38.003
ATOM      5  C   UNL d   1      42.846  43.045  23.659 -0.17 -0.01    +0.066    38.003
ATOM      6  C   UNL d   1      44.129  42.484  23.810 -0.15 +0.00    -0.021    38.003
ATOM      7  C   UNL d   1      45.015  43.345  23.192 -0.07 +0.00    -0.025    38.003
ATOM      8  C   UNL d   1      44.234  44.385  22.678 -0.08 -0.00    +0.066    38.003
ATOM      9  C   UNL d   1      46.542  43.208  23.084 -0.03 -0.00    +0.051    38.003
ATOM     10  C   UNL d   1      44.088  46.501  21.437 -0.09 +0.00    +0.066    38.003
ATOM     11  C   UNL d   1      44.620  47.522  20.620 -0.09 -0.00    -0.021    38.003
ATOM     12  C   UNL d   1      43.561  48.385  20.328 -0.07 +0.00    +0.000    38.003
ATOM     13  C   UNL d   1      42.461  47.821  20.976 -0.10 +0.01    +0.070    38.003
ATOM     14  C   UNL d   1      46.028  47.595  20.088 -0.11 +0.00    +0.052    38.003
ATOM     15  C   UNL d   1      40.030  48.004  21.642 -0.11 +0.01    +0.066    38.003
ATOM     16  C   UNL d   1      38.856  48.738  21.731 -0.12 -0.00    -0.021    38.003
ATOM     17  C   UNL d   1      37.967  47.946  22.471 -0.19 +0.00    +0.000    38.003
ATOM     18  C   UNL d   1      38.666  46.779  22.762 -0.18 +0.01    +0.070    38.003
ATOM     19  C   UNL d   1      38.633  50.110  21.136 -0.12 +0.01    +0.052    38.003
ATOM     20  C   UNL d   1      38.870  44.544  23.914 -0.18 +0.01    +0.066    38.003
ATOM     21  C   UNL d   1      38.304  43.543  24.700 -0.29 -0.00    -0.025    38.003
ATOM     22  C   UNL d   1      39.303  42.604  24.884 -0.26 -0.00    -0.021    38.003
ATOM     23  C   UNL d   1      40.441  43.089  24.206 -0.16 +0.00    +0.066    38.003
ATOM     24  C   UNL d   1      36.887  43.492  25.266 -0.35 +0.00    +0.051    38.003
ATOM     25  N   UNL d   1      42.886  44.223  22.947 -0.08 +0.02    -0.248    38.003
ATOM     26  N   UNL d   1      42.769  46.653  21.599 -0.08 -0.02    -0.248    38.003
ATOM     27  N   UNL d   1      39.901  46.861  22.278 -0.09 -0.03    -0.248    38.003
ATOM     28  N   UNL d   1      40.184  44.264  23.619 -0.07 -0.02    -0.248    38.003
ATOM     29 FE   UNL d   1      41.302  45.618  22.594 -0.04 +0.00    +0.000    38.003
ATOM     30  C   UNL d   1      44.484  41.220  24.585 -0.13 -0.02    +0.052    38.003
ATOM     31  C   UNL d   1      44.779  41.552  26.048 -0.10 +0.01    +0.115    38.003
ATOM     32  C   UNL d   1      43.658  42.333  26.700 -0.07 +0.04    +0.139    38.003
ATOM     33  O   UNL d   1      42.816  41.740  27.357 -0.32 -0.62    -0.650    38.003
ATOM     34  O   UNL d   1      43.582  43.682  26.619 +0.04 -0.12    -0.776    38.003
ATOM     35  H   UNL d   1      43.243  44.163  25.852 +0.02 +0.02    +0.167    38.003
ATOM     36  C   UNL d   1      41.869  46.542  24.388 -0.01 +0.01    +0.190    38.003
ATOM     37  O   UNL d   1      42.571  46.328  25.579 +0.01 -0.03    -0.399    38.003
ATOM     38  H   UNL d   1      42.554  45.339  25.712 +0.02 +0.02    +0.209    38.003
ATOM     39  C   UNL d   1      39.183  41.345  25.722 -0.05 +0.03    +0.052    38.003
ATOM     40  C   UNL d   1      39.325  41.673  27.218 -0.22 +0.07    +0.115    38.003
ATOM     41  C   UNL d   1      38.284  41.019  28.103 -0.35 +0.07    +0.139    38.003
ATOM     42  O   UNL d   1      38.221  39.799  28.151 -0.35 -0.46    -0.650    38.003
ATOM     43  O   UNL d   1      37.479  41.747  28.908 +0.02 -0.14    -0.776    38.003
ATOM     44  H   UNL d   1      36.577  41.988  28.660 -0.50 -0.00    +0.167    38.003
ATOM     45  C   UNL d   1      43.457  49.659  19.501 -0.07 +0.00    +0.004    38.003
ATOM     46  C   UNL d   1      44.310  50.202  18.637 -0.16 +0.00    +0.012    38.003
ATOM     47  C   UNL d   1      36.580  48.247  22.934 -0.32 +0.00    +0.004    38.003
ATOM     48  C   UNL d   1      36.185  48.130  24.205 -0.26 +0.00    +0.012    38.003
TER
ENDMDL
MODEL       89
USER    Run = 89
USER    Cluster Rank = 31
USER    Number of conformations in this cluster = 1
USER  
USER    RMSD from reference structure       = 19.453 A
USER  
USER    Estimated Free Energy of Binding    =   -4.26 kcal/mol  [=(1)+(2)+(3)-(4)]
USER    Estimated Inhibition Constant, Ki   =  759.40 uM (micromolar)  [Temperature = 298.15 K]
USER    
USER    (1) Final Intermolecular Energy     =   -7.84 kcal/mol
USER        vdW + Hbond + desolv Energy     =   -5.08 kcal/mol
USER        Electrostatic Energy            =   -2.76 kcal/mol
USER    (2) Final Total Internal Energy     =   -3.93 kcal/mol
USER    (3) Torsional Free Energy           =   +3.58 kcal/mol
USER    (4) Unbound System's Energy  [=(2)] =   -3.93 kcal/mol
USER    
USER    
USER  
USER    DPF = D:/Protein_go_brrr/autodock/final/2DN3/heme_Co/dock.dpf
USER    NEWDPF move	heme_Co_opt.pdbqt
USER    NEWDPF about	8.781000 34.984000 -0.736000
USER    NEWDPF tran0	32.110629 39.449512 0.009476
USER    NEWDPF axisangle0	0.149045 0.524721 0.838125 85.919623
USER    NEWDPF quaternion0	0.101572 0.357590 0.571170 0.731832
USER    NEWDPF dihe0	12.97 124.21 -167.90 118.42 32.61 98.32 45.24 109.98 147.20 146.57 -149.22 170.74 
USER  
USER                              x       y       z    vdW   Elec        q     RMS 
ATOM      1  C   UNL d   1      32.733  40.616  -1.713 -0.00 +0.02    +0.064    19.453
ATOM      2  C   UNL d   1      28.910  40.867   1.103 -0.17 +0.01    +0.064    19.453
ATOM      3  C   UNL d   1      30.313  36.931   3.421 -0.07 +0.01    +0.064    19.453
ATOM      4  C   UNL d   1      34.419  36.875   0.813 -0.06 +0.01    +0.064    19.453
ATOM      5  C   UNL d   1      31.567  40.953  -1.138 -0.01 +0.02    +0.066    19.453
ATOM      6  C   UNL d   1      30.863  42.118  -1.501 -0.02 -0.01    -0.021    19.453
ATOM      7  C   UNL d   1      29.766  42.197  -0.665 -0.06 -0.01    -0.025    19.453
ATOM      8  C   UNL d   1      29.839  41.070   0.161 -0.07 +0.02    +0.066    19.453
ATOM      9  C   UNL d   1      28.684  43.287  -0.632 -0.12 +0.02    +0.051    19.453
ATOM     10  C   UNL d   1      28.888  39.723   1.981 -0.17 +0.00    +0.066    19.453
ATOM     11  C   UNL d   1      27.866  39.380   2.894 -0.33 +0.01    -0.021    19.453
ATOM     12  C   UNL d   1      28.300  38.226   3.553 -0.30 -0.00    +0.000    19.453
ATOM     13  C   UNL d   1      29.543  37.945   2.987 -0.14 -0.00    +0.070    19.453
ATOM     14  C   UNL d   1      26.533  40.066   3.040 -0.24 -0.02    +0.052    19.453
ATOM     15  C   UNL d   1      31.638  36.532   2.989 -0.11 +0.01    +0.066    19.453
ATOM     16  C   UNL d   1      32.439  35.564   3.578 -0.24 -0.01    -0.021    19.453
ATOM     17  C   UNL d   1      33.626  35.546   2.831 -0.26 +0.00    +0.000    19.453
ATOM     18  C   UNL d   1      33.447  36.496   1.831 -0.14 +0.01    +0.070    19.453
ATOM     19  C   UNL d   1      32.064  34.728   4.782 -0.34 +0.02    +0.052    19.453
ATOM     20  C   UNL d   1      34.301  37.855  -0.115 -0.07 +0.01    +0.066    19.453
ATOM     21  C   UNL d   1      35.321  38.150  -1.018 -0.07 -0.01    -0.025    19.453
ATOM     22  C   UNL d   1      34.851  39.205  -1.778 -0.02 -0.00    -0.021    19.453
ATOM     23  C   UNL d   1      33.563  39.512  -1.290 -0.01 +0.02    +0.066    19.453
ATOM     24  C   UNL d   1      36.683  37.473  -1.138 -0.09 +0.01    +0.051    19.453
ATOM     25  N   UNL d   1      30.941  40.278  -0.114 -0.01 -0.06    -0.248    19.453
ATOM     26  N   UNL d   1      29.872  38.818   1.998 -0.05 -0.02    -0.248    19.453
ATOM     27  N   UNL d   1      32.265  37.084   1.974 -0.07 -0.04    -0.248    19.453
ATOM     28  N   UNL d   1      33.228  38.698  -0.281 -0.01 -0.06    -0.248    19.453
ATOM     29 FE   UNL d   1      31.645  38.586   0.990 -0.02 +0.00    +0.000    19.453
ATOM     30  C   UNL d   1      31.280  43.143  -2.550 -0.02 +0.02    +0.052    19.453
ATOM     31  C   UNL d   1      32.568  43.850  -2.127 -0.06 +0.07    +0.115    19.453
ATOM     32  C   UNL d   1      32.653  44.048  -0.629 +0.14 +0.20    +0.139    19.453
ATOM     33  O   UNL d   1      32.110  45.017  -0.119 -0.30 -1.16    -0.650    19.453
ATOM     34  O   UNL d   1      33.273  43.157   0.179 +0.19 -1.25    -0.776    19.453
ATOM     35  H   UNL d   1      33.802  42.412  -0.139 +0.03 +0.17    +0.167    19.453
ATOM     36  C   UNL d   1      32.560  39.955   2.287 -0.13 +0.05    +0.190    19.453
ATOM     37  O   UNL d   1      33.464  41.021   2.325 -0.09 -0.17    -0.399    19.453
ATOM     38  H   UNL d   1      33.615  41.263   1.369 +0.07 +0.12    +0.209    19.453
ATOM     39  C   UNL d   1      35.629  39.918  -2.869 -0.01 +0.01    +0.052    19.453
ATOM     40  C   UNL d   1      36.465  41.065  -2.278 -0.01 +0.04    +0.115    19.453
ATOM     41  C   UNL d   1      35.772  41.841  -1.177 -0.05 +0.08    +0.139    19.453
ATOM     42  O   UNL d   1      35.443  43.001  -1.379 -0.17 -0.57    -0.650    19.453
ATOM     43  O   UNL d   1      35.429  41.259  -0.007 +0.06 -0.44    -0.776    19.453
ATOM     44  H   UNL d   1      34.773  41.642   0.590 +0.04 +0.13    +0.167    19.453
ATOM     45  C   UNL d   1      27.677  37.352   4.633 -0.33 -0.00    +0.004    19.453
ATOM     46  C   UNL d   1      27.191  36.114   4.573 -0.35 -0.00    +0.012    19.453
ATOM     47  C   UNL d   1      34.873  34.751   3.040 -0.35 -0.00    +0.004    19.453
ATOM     48  C   UNL d   1      34.964  33.736   3.902 -0.48 +0.00    +0.012    19.453
TER
ENDMDL
MODEL       97
USER    Run = 97
USER    Cluster Rank = 32
USER    Number of conformations in this cluster = 1
USER  
USER    RMSD from reference structure       = 27.851 A
USER  
USER    Estimated Free Energy of Binding    =   -4.16 kcal/mol  [=(1)+(2)+(3)-(4)]
USER    Estimated Inhibition Constant, Ki   =  895.62 uM (micromolar)  [Temperature = 298.15 K]
USER    
USER    (1) Final Intermolecular Energy     =   -7.74 kcal/mol
USER        vdW + Hbond + desolv Energy     =   -7.52 kcal/mol
USER        Electrostatic Energy            =   -0.22 kcal/mol
USER    (2) Final Total Internal Energy     =   -2.02 kcal/mol
USER    (3) Torsional Free Energy           =   +3.58 kcal/mol
USER    (4) Unbound System's Energy  [=(2)] =   -2.02 kcal/mol
USER    
USER    
USER  
USER    DPF = D:/Protein_go_brrr/autodock/final/2DN3/heme_Co/dock.dpf
USER    NEWDPF move	heme_Co_opt.pdbqt
USER    NEWDPF about	8.781000 34.984000 -0.736000
USER    NEWDPF tran0	40.445798 29.087559 -1.058239
USER    NEWDPF axisangle0	-0.679794 -0.621995 0.388589 -118.495181
USER    NEWDPF quaternion0	-0.584205 -0.534533 0.333948 -0.511329
USER    NEWDPF dihe0	-11.29 117.31 129.55 55.72 54.79 134.48 -156.72 -81.58 -150.23 -74.68 -11.37 4.62 
USER  
USER                              x       y       z    vdW   Elec        q     RMS 
ATOM      1  C   UNL d   1      40.986  27.061  -1.621 -0.16 +0.01    +0.064    27.851
ATOM      2  C   UNL d   1      36.992  28.924   0.166 -0.12 +0.01    +0.064    27.851
ATOM      3  C   UNL d   1      39.126  33.177   0.600 -0.24 +0.01    +0.064    27.851
ATOM      4  C   UNL d   1      43.093  31.394  -1.580 -0.24 +0.00    +0.064    27.851
ATOM      5  C   UNL d   1      39.749  27.249  -1.131 -0.17 +0.01    +0.066    27.851
ATOM      6  C   UNL d   1      38.775  26.231  -1.151 -0.14 -0.00    -0.021    27.851
ATOM      7  C   UNL d   1      37.612  26.784  -0.652 -0.09 -0.00    -0.025    27.851
ATOM      8  C   UNL d   1      37.930  28.109  -0.335 -0.15 +0.01    +0.066    27.851
ATOM      9  C   UNL d   1      36.245  26.104  -0.476 -0.12 -0.00    +0.051    27.851
ATOM     10  C   UNL d   1      37.233  30.294   0.546 -0.21 +0.01    +0.066    27.851
ATOM     11  C   UNL d   1      36.331  31.157   1.206 -0.23 -0.00    -0.021    27.851
ATOM     12  C   UNL d   1      36.981  32.389   1.323 -0.22 +0.00    +0.000    27.851
ATOM     13  C   UNL d   1      38.231  32.183   0.740 -0.22 +0.01    +0.070    27.851
ATOM     14  C   UNL d   1      34.982  30.781   1.763 -0.26 +0.01    +0.052    27.851
ATOM     15  C   UNL d   1      40.436  33.154  -0.021 -0.26 +0.01    +0.066    27.851
ATOM     16  C   UNL d   1      41.252  34.251  -0.263 -0.24 -0.00    -0.021    27.851
ATOM     17  C   UNL d   1      42.396  33.742  -0.893 -0.21 +0.00    +0.000    27.851
ATOM     18  C   UNL d   1      42.195  32.368  -0.972 -0.23 +0.00    +0.070    27.851
ATOM     19  C   UNL d   1      40.926  35.683   0.099 -0.27 +0.01    +0.052    27.851
ATOM     20  C   UNL d   1      42.881  30.067  -1.745 -0.25 +0.00    +0.066    27.851
ATOM     21  C   UNL d   1      43.805  29.239  -2.378 -0.23 -0.00    -0.025    27.851
ATOM     22  C   UNL d   1      43.237  27.978  -2.379 -0.22 -0.00    -0.021    27.851
ATOM     23  C   UNL d   1      41.979  28.103  -1.752 -0.19 +0.01    +0.066    27.851
ATOM     24  C   UNL d   1      45.155  29.633  -2.972 -0.18 -0.00    +0.051    27.851
ATOM     25  N   UNL d   1      39.249  28.423  -0.616 -0.14 -0.03    -0.248    27.851
ATOM     26  N   UNL d   1      38.403  30.901   0.322 -0.18 -0.02    -0.248    27.851
ATOM     27  N   UNL d   1      41.005  32.057  -0.470 -0.17 -0.00    -0.248    27.851
ATOM     28  N   UNL d   1      41.758  29.366  -1.369 -0.15 -0.02    -0.248    27.851
ATOM     29 FE   UNL d   1      40.182  30.346  -0.539 -0.05 +0.00    +0.000    27.851
ATOM     30  C   UNL d   1      38.945  24.820  -1.703 -0.07 +0.00    +0.052    27.851
ATOM     31  C   UNL d   1      39.824  23.982  -0.775 -0.09 +0.01    +0.115    27.851
ATOM     32  C   UNL d   1      39.745  24.441   0.665 -0.24 +0.01    +0.139    27.851
ATOM     33  O   UNL d   1      38.741  24.198   1.319 +0.01 +0.04    -0.650    27.851
ATOM     34  O   UNL d   1      40.774  25.075   1.274 +0.02 -0.11    -0.776    27.851
ATOM     35  H   UNL d   1      41.679  25.092   0.934 +0.06 +0.04    +0.167    27.851
ATOM     36  C   UNL d   1      39.367  30.692  -2.440 -0.03 +0.02    +0.190    27.851
ATOM     37  O   UNL d   1      38.846  30.042  -3.563 +0.00 -0.03    -0.399    27.851
ATOM     38  H   UNL d   1      38.832  29.075  -3.317 +0.02 +0.02    +0.209    27.851
ATOM     39  C   UNL d   1      43.846  26.739  -3.008 -0.22 +0.01    +0.052    27.851
ATOM     40  C   UNL d   1      44.388  25.791  -1.925 -0.13 +0.02    +0.115    27.851
ATOM     41  C   UNL d   1      43.470  24.633  -1.593 -0.22 +0.03    +0.139    27.851
ATOM     42  O   UNL d   1      43.112  23.878  -2.486 +0.00 -0.09    -0.650    27.851
ATOM     43  O   UNL d   1      43.104  24.359  -0.321 +0.01 -0.21    -0.776    27.851
ATOM     44  H   UNL d   1      42.195  24.142  -0.078 +0.05 +0.04    +0.167    27.851
ATOM     45  C   UNL d   1      36.573  33.724   1.932 -0.36 -0.00    +0.004    27.851
ATOM     46  C   UNL d   1      36.017  34.005   3.108 -0.45 -0.00    +0.012    27.851
ATOM     47  C   UNL d   1      43.584  34.463  -1.441 -0.18 +0.00    +0.004    27.851
ATOM     48  C   UNL d   1      44.076  35.584  -0.908 -0.17 +0.00    +0.012    27.851
TER
ENDMDL
MODEL       76
USER    Run = 76
USER    Cluster Rank = 33
USER    Number of conformations in this cluster = 1
USER  
USER    RMSD from reference structure       = 22.569 A
USER  
USER    Estimated Free Energy of Binding    =   -4.13 kcal/mol  [=(1)+(2)+(3)-(4)]
USER    Estimated Inhibition Constant, Ki   =  945.90 uM (micromolar)  [Temperature = 298.15 K]
USER    
USER    (1) Final Intermolecular Energy     =   -7.71 kcal/mol
USER        vdW + Hbond + desolv Energy     =   -5.96 kcal/mol
USER        Electrostatic Energy            =   -1.75 kcal/mol
USER    (2) Final Total Internal Energy     =   -2.95 kcal/mol
USER    (3) Torsional Free Energy           =   +3.58 kcal/mol
USER    (4) Unbound System's Energy  [=(2)] =   -2.95 kcal/mol
USER    
USER    
USER  
USER    DPF = D:/Protein_go_brrr/autodock/final/2DN3/heme_Co/dock.dpf
USER    NEWDPF move	heme_Co_opt.pdbqt
USER    NEWDPF about	8.781000 34.984000 -0.736000
USER    NEWDPF tran0	22.768594 16.869430 13.452436
USER    NEWDPF axisangle0	0.465685 0.884889 0.010448 -132.200766
USER    NEWDPF quaternion0	0.425756 0.809015 0.009552 -0.405135
USER    NEWDPF dihe0	-85.95 113.92 -113.04 118.69 -94.19 132.41 58.87 -165.75 -118.25 65.57 176.25 -173.86 
USER  
USER                              x       y       z    vdW   Elec        q     RMS 
ATOM      1  C   UNL d   1      23.143  16.120  15.456 -0.10 +0.03    +0.064    22.569
ATOM      2  C   UNL d   1      23.420  14.071  11.174 -0.06 +0.01    +0.064    22.569
ATOM      3  C   UNL d   1      21.675  18.020   9.129 -0.08 +0.02    +0.064    22.569
ATOM      4  C   UNL d   1      21.744  20.269  13.442 -0.30 +0.02    +0.064    22.569
ATOM      5  C   UNL d   1      23.313  15.257  14.440 -0.07 +0.02    +0.066    22.569
ATOM      6  C   UNL d   1      23.885  13.984  14.629 -0.03 -0.01    -0.021    22.569
ATOM      7  C   UNL d   1      23.985  13.403  13.380 -0.02 -0.01    -0.025    22.569
ATOM      8  C   UNL d   1      23.454  14.338  12.485 -0.05 +0.01    +0.066    22.569
ATOM      9  C   UNL d   1      24.556  12.021  13.026 -0.01 +0.01    +0.051    22.569
ATOM     10  C   UNL d   1      22.869  14.960  10.182 -0.08 +0.01    +0.066    22.569
ATOM     11  C   UNL d   1      22.677  14.681   8.812 -0.06 -0.00    -0.021    22.569
ATOM     12  C   UNL d   1      22.163  15.848   8.240 -0.07 +0.00    +0.000    22.569
ATOM     13  C   UNL d   1      22.068  16.746   9.303 -0.08 +0.02    +0.070    22.569
ATOM     14  C   UNL d   1      22.886  13.351   8.135 -0.03 +0.01    +0.052    22.569
ATOM     15  C   UNL d   1      21.569  19.092  10.100 -0.14 +0.02    +0.066    22.569
ATOM     16  C   UNL d   1      21.295  20.425   9.829 -0.18 -0.01    -0.021    22.569
ATOM     17  C   UNL d   1      21.317  21.078  11.070 -0.30 +0.00    +0.000    22.569
ATOM     18  C   UNL d   1      21.587  20.084  12.005 -0.25 +0.02    +0.070    22.569
ATOM     19  C   UNL d   1      21.035  21.005   8.457 -0.10 +0.01    +0.052    22.569
ATOM     20  C   UNL d   1      22.092  19.335  14.360 -0.26 +0.03    +0.066    22.569
ATOM     21  C   UNL d   1      22.248  19.641  15.710 -0.27 -0.01    -0.025    22.569
ATOM     22  C   UNL d   1      22.622  18.457  16.320 -0.25 -0.01    -0.021    22.569
ATOM     23  C   UNL d   1      22.689  17.483  15.302 -0.16 +0.03    +0.066    22.569
ATOM     24  C   UNL d   1      22.068  20.998  16.384 -0.52 -0.00    +0.051    22.569
ATOM     25  N   UNL d   1      23.024  15.494  13.116 -0.06 -0.07    -0.248    22.569
ATOM     26  N   UNL d   1      22.442  16.190  10.486 -0.07 -0.06    -0.248    22.569
ATOM     27  N   UNL d   1      21.761  18.920  11.389 -0.11 -0.08    -0.248    22.569
ATOM     28  N   UNL d   1      22.370  18.010  14.113 -0.14 -0.11    -0.248    22.569
ATOM     29 FE   UNL d   1      22.354  17.310  12.204 -0.04 +0.00    +0.000    22.569
ATOM     30  C   UNL d   1      24.386  13.398  15.945 -0.02 +0.01    +0.052    22.569
ATOM     31  C   UNL d   1      25.905  13.535  16.050 -0.03 +0.04    +0.115    22.569
ATOM     32  C   UNL d   1      26.360  14.977  15.992 -0.11 +0.07    +0.139    22.569
ATOM     33  O   UNL d   1      26.282  15.590  14.938 +0.01 -0.28    -0.650    22.569
ATOM     34  O   UNL d   1      26.810  15.632  17.087 -0.17 -0.75    -0.776    22.569
ATOM     35  H   UNL d   1      26.246  16.138  17.688 +0.03 +0.17    +0.167    22.569
ATOM     36  C   UNL d   1      24.378  17.811  11.979 -0.12 +0.05    +0.190    22.569
ATOM     37  O   UNL d   1      25.654  17.545  12.485 -0.04 -0.13    -0.399    22.569
ATOM     38  H   UNL d   1      25.510  16.866  13.202 +0.07 +0.07    +0.209    22.569
ATOM     39  C   UNL d   1      22.960  18.294  17.790 -0.24 +0.01    +0.052    22.569
ATOM     40  C   UNL d   1      24.320  18.938  18.109 -0.29 +0.02    +0.115    22.569
ATOM     41  C   UNL d   1      25.353  17.977  18.659 -0.27 +0.08    +0.139    22.569
ATOM     42  O   UNL d   1      24.982  16.989  19.276 +0.03 -0.38    -0.650    22.569
ATOM     43  O   UNL d   1      26.672  18.135  18.411 +0.15 -0.92    -0.776    22.569
ATOM     44  H   UNL d   1      27.158  17.565  17.801 +0.09 +0.26    +0.167    22.569
ATOM     45  C   UNL d   1      21.736  16.210   6.824 -0.05 +0.00    +0.004    22.569
ATOM     46  C   UNL d   1      20.528  16.442   6.317 -0.06 +0.00    +0.012    22.569
ATOM     47  C   UNL d   1      21.153  22.528  11.387 -0.49 +0.00    +0.004    22.569
ATOM     48  C   UNL d   1      22.117  23.278  11.927 -0.56 +0.00    +0.012    22.569
TER
ENDMDL
MODEL       16
USER    Run = 16
USER    Cluster Rank = 34
USER    Number of conformations in this cluster = 1
USER  
USER    RMSD from reference structure       = 19.764 A
USER  
USER    Estimated Free Energy of Binding    =   -3.75 kcal/mol  [=(1)+(2)+(3)-(4)]
USER    Estimated Inhibition Constant, Ki   =    1.77 mM (millimolar)  [Temperature = 298.15 K]
USER    
USER    (1) Final Intermolecular Energy     =   -7.33 kcal/mol
USER        vdW + Hbond + desolv Energy     =   -6.39 kcal/mol
USER        Electrostatic Energy            =   -0.94 kcal/mol
USER    (2) Final Total Internal Energy     =   -3.84 kcal/mol
USER    (3) Torsional Free Energy           =   +3.58 kcal/mol
USER    (4) Unbound System's Energy  [=(2)] =   -3.84 kcal/mol
USER    
USER    
USER  
USER    DPF = D:/Protein_go_brrr/autodock/final/2DN3/heme_Co/dock.dpf
USER    NEWDPF move	heme_Co_opt.pdbqt
USER    NEWDPF about	8.781000 34.984000 -0.736000
USER    NEWDPF tran0	33.487543 35.631899 1.794347
USER    NEWDPF axisangle0	0.404081 0.433194 -0.805643 156.892437
USER    NEWDPF quaternion0	0.395894 0.424416 -0.789319 0.200288
USER    NEWDPF dihe0	-13.84 126.08 -145.86 162.45 128.53 104.19 35.94 120.05 172.20 143.86 -170.78 167.00 
USER  
USER                              x       y       z    vdW   Elec        q     RMS 
ATOM      1  C   UNL d   1      35.346  34.525   1.984 -0.22 +0.00    +0.064    19.764
ATOM      2  C   UNL d   1      31.561  34.925   4.834 -0.29 +0.02    +0.064    19.764
ATOM      3  C   UNL d   1      29.639  38.160   1.890 -0.11 +0.00    +0.064    19.764
ATOM      4  C   UNL d   1      33.310  37.484  -1.229 -0.01 +0.01    +0.064    19.764
ATOM      5  C   UNL d   1      34.470  34.424   2.997 -0.28 +0.01    +0.066    19.764
ATOM      6  C   UNL d   1      34.647  33.504   4.049 -0.41 -0.00    -0.021    19.764
ATOM      7  C   UNL d   1      33.535  33.608   4.860 -0.36 -0.01    -0.025    19.764
ATOM      8  C   UNL d   1      32.735  34.597   4.279 -0.29 +0.02    +0.066    19.764
ATOM      9  C   UNL d   1      33.222  32.812   6.137 -0.31 +0.02    +0.051    19.764
ATOM     10  C   UNL d   1      30.684  35.948   4.322 -0.12 +0.01    +0.066    19.764
ATOM     11  C   UNL d   1      29.508  36.435   4.934 -0.22 +0.00    -0.021    19.764
ATOM     12  C   UNL d   1      28.970  37.380   4.056 -0.25 -0.00    +0.000    19.764
ATOM     13  C   UNL d   1      29.861  37.409   2.983 -0.12 +0.00    +0.070    19.764
ATOM     14  C   UNL d   1      29.004  36.078   6.309 -0.36 -0.02    +0.052    19.764
ATOM     15  C   UNL d   1      30.421  38.270   0.675 -0.05 +0.01    +0.066    19.764
ATOM     16  C   UNL d   1      30.061  38.954  -0.478 -0.06 -0.00    -0.021    19.764
ATOM     17  C   UNL d   1      31.116  38.760  -1.381 -0.02 +0.00    +0.000    19.764
ATOM     18  C   UNL d   1      32.048  37.984  -0.700 -0.01 +0.01    +0.070    19.764
ATOM     19  C   UNL d   1      28.779  39.733  -0.670 -0.15 +0.01    +0.052    19.764
ATOM     20  C   UNL d   1      34.192  36.658  -0.616 -0.05 +0.01    +0.066    19.764
ATOM     21  C   UNL d   1      35.356  36.217  -1.241 -0.05 -0.00    -0.025    19.764
ATOM     22  C   UNL d   1      35.978  35.385  -0.328 -0.11 -0.00    -0.021    19.764
ATOM     23  C   UNL d   1      35.149  35.350   0.814 -0.11 +0.00    +0.066    19.764
ATOM     24  C   UNL d   1      35.843  36.555  -2.648 -0.02 +0.01    +0.051    19.764
ATOM     25  N   UNL d   1      33.293  35.125   3.127 -0.15 -0.05    -0.248    19.764
ATOM     26  N   UNL d   1      30.926  36.584   3.171 -0.06 -0.05    -0.248    19.764
ATOM     27  N   UNL d   1      31.588  37.686   0.510 -0.01 -0.05    -0.248    19.764
ATOM     28  N   UNL d   1      34.066  36.118   0.643 -0.06 -0.04    -0.248    19.764
ATOM     29 FE   UNL d   1      32.393  36.481   1.739 -0.03 +0.00    +0.000    19.764
ATOM     30  C   UNL d   1      35.799  32.516   4.209 -0.51 +0.00    +0.052    19.764
ATOM     31  C   UNL d   1      35.503  31.219   3.457 -0.39 +0.01    +0.115    19.764
ATOM     32  C   UNL d   1      34.076  31.155   2.956 -0.32 +0.05    +0.139    19.764
ATOM     33  O   UNL d   1      33.223  30.610   3.640 -0.08 -0.31    -0.650    19.764
ATOM     34  O   UNL d   1      33.699  31.727   1.789 +0.09 -0.39    -0.776    19.764
ATOM     35  H   UNL d   1      34.210  32.406   1.326 +0.06 +0.06    +0.167    19.764
ATOM     36  C   UNL d   1      31.448  34.812   0.893 -0.06 +0.10    +0.190    19.764
ATOM     37  O   UNL d   1      31.690  33.526   0.398 -0.21 -0.35    -0.399    19.764
ATOM     38  H   UNL d   1      32.618  33.309   0.692 +0.04 +0.14    +0.209    19.764
ATOM     39  C   UNL d   1      37.264  34.618  -0.571 -0.12 +0.01    +0.052    19.764
ATOM     40  C   UNL d   1      36.962  33.215  -1.123 -0.05 +0.01    +0.115    19.764
ATOM     41  C   UNL d   1      35.796  32.517  -0.455 -0.04 +0.02    +0.139    19.764
ATOM     42  O   UNL d   1      36.016  31.652   0.382 +0.05 -0.10    -0.650    19.764
ATOM     43  O   UNL d   1      34.518  32.885  -0.693 +0.05 -0.18    -0.776    19.764
ATOM     44  H   UNL d   1      33.852  32.932   0.006 +0.03 +0.06    +0.167    19.764
ATOM     45  C   UNL d   1      27.735  38.268   4.116 -0.27 -0.00    +0.004    19.764
ATOM     46  C   UNL d   1      27.479  39.437   3.535 -0.39 -0.01    +0.012    19.764
ATOM     47  C   UNL d   1      31.252  39.208  -2.799 -0.01 +0.00    +0.004    19.764
ATOM     48  C   UNL d   1      32.063  40.195  -3.186 +0.00 +0.00    +0.012    19.764
TER
ENDMDL


AVSFLD: # AVS field file
AVSFLD: #
AVSFLD: # Created by AutoDock
AVSFLD: #
AVSFLD: ndim=2           # number of dimensions in the field
AVSFLD: nspace=1         # number of physical coordinates
AVSFLD: veclen=7         # vector size
AVSFLD: dim1=48          # atoms
AVSFLD: dim2=34          # conformations
AVSFLD: data=Real       # data type (byte,integer,Real,double)
AVSFLD: field=uniform    # field coordinate layout
AVSFLD: label= x y z vdW Elec q RMS
AVSFLD: variable 1 file = D:/Protein_go_brrr/autodock/final/2DN3/heme_Co/dock.dlg.pdb filetype = ascii offset = 5 stride = 12
AVSFLD: variable 2 file = D:/Protein_go_brrr/autodock/final/2DN3/heme_Co/dock.dlg.pdb filetype = ascii offset = 6 stride = 12
AVSFLD: variable 3 file = D:/Protein_go_brrr/autodock/final/2DN3/heme_Co/dock.dlg.pdb filetype = ascii offset = 7 stride = 12
AVSFLD: variable 4 file = D:/Protein_go_brrr/autodock/final/2DN3/heme_Co/dock.dlg.pdb filetype = ascii offset = 8 stride = 12
AVSFLD: variable 5 file = D:/Protein_go_brrr/autodock/final/2DN3/heme_Co/dock.dlg.pdb filetype = ascii offset = 9 stride = 12
AVSFLD: variable 6 file = D:/Protein_go_brrr/autodock/final/2DN3/heme_Co/dock.dlg.pdb filetype = ascii offset = 10 stride = 12
AVSFLD: variable 7 file = D:/Protein_go_brrr/autodock/final/2DN3/heme_Co/dock.dlg.pdb filetype = ascii offset = 11 stride = 12
AVSFLD: # end of file

>>> Closing the docking parameter file (DPF)...
This docking finished at:			9:14 27" p.m., 01/17/2026


________________________________________________________________________________

D:/autodockScripts/autodock4.exe: Successful Completion on "ACER"

Real= 9h 09m 28.21s,  CPU= 6m 03.17s,  System= 32.23s
________________________________________________________________________________

